{
	 "smiles": "CCC1=NC(CCl)=NC(O)=C1", 
	 "Tm": 399.15, 
	 "num_atms": 20, 
	 "gaussian": { 
		 "optdone": 1, 
		 "sigma_profile": "yes", 
		 "theory": "DFT", 
		 "functional": "B3LYP", 
		 "basiset": "6-31G**", 
		 "properties": { 
			 "R2extent": 4343.0102, 
			 "electric_dipole_moment_norm": 2.71710399138, 
			 "electric_quadrupole_moment_norm": 15.2232006848, 
			 "total_energy": -917.111528309, 
			 "HOMO_LUMO_gap": 0.21936, 
			 "cosmo_polarized_energy": -9.84, 
			 "cosmo_cavitation_energy": 26.03, 
			 "cosmo_dispersion_energy": -19.04, 
			 "cosmo_repulsion_energy": 1.59, 
			 "cosmo_total_nonelectrostatic_energy": 8.58, 
			 "SMD_solvation_energy": 2.08 
		},
		"coords": [
			{
				"x": 1.2322741798,
				"y": 0.1000721841,
				"z": -1.3220272435,
				"element": "C" 
			},
			{
				"x": 0.1058142652,
				"y": 0.9456628256,
				"z": -1.9395358825,
				"element": "C" 
			},
			{
				"x": -1.1238446615,
				"y": 0.9882657568,
				"z": -1.0658752348,
				"element": "C" 
			},
			{
				"x": -0.9883491877,
				"y": 1.6022621776,
				"z": 0.1318949116,
				"element": "N" 
			},
			{
				"x": -2.0638376267,
				"y": 1.6353670603,
				"z": 0.914888508,
				"element": "C" 
			},
			{
				"x": -1.9191622963,
				"y": 2.3317586512,
				"z": 2.2415860412,
				"element": "C" 
			},
			{
				"x": -2.5346713357,
				"y": 4.0453127611,
				"z": 2.1507433852,
				"element": "Cl" 
			},
			{
				"x": -3.2687250712,
				"y": 1.1100805513,
				"z": 0.6417833366,
				"element": "N" 
			},
			{
				"x": -3.3883896728,
				"y": 0.5123747684,
				"z": -0.5407489485,
				"element": "C" 
			},
			{
				"x": -4.5795544853,
				"y": -0.0238126051,
				"z": -0.8539764233,
				"element": "O" 
			},
			{
				"x": -2.330459767,
				"y": 0.419499872,
				"z": -1.4549571328,
				"element": "C" 
			},
			{
				"x": 1.4908465478,
				"y": 0.480738719,
				"z": -0.3305737065,
				"element": "H" 
			},
			{
				"x": 2.1270754277,
				"y": 0.1332032781,
				"z": -1.950719701,
				"element": "H" 
			},
			{
				"x": 0.9290789975,
				"y": -0.9468369345,
				"z": -1.2177515005,
				"element": "H" 
			},
			{
				"x": 0.4606942523,
				"y": 1.9746803934,
				"z": -2.0709444167,
				"element": "H" 
			},
			{
				"x": -0.1601514821,
				"y": 0.5621234657,
				"z": -2.930215302,
				"element": "H" 
			},
			{
				"x": -0.8702559932,
				"y": 2.3932630156,
				"z": 2.5241306958,
				"element": "H" 
			},
			{
				"x": -2.5121664137,
				"y": 1.8368950713,
				"z": 3.0094925747,
				"element": "H" 
			},
			{
				"x": -5.1674256764,
				"y": 0.1582583427,
				"z": -0.1023134651,
				"element": "H" 
			},
			{
				"x": -2.4628900007,
				"y": -0.0745693546,
				"z": -2.4098804961,
				"element": "H" 
			}
		],
		 "valence_orbital": [ 
			{
				"type": "occ",
				"energy": -0.29967,
				"method": "rhf"
			},
			{
				"type": "occ",
				"energy": -0.29264,
				"method": "rhf"
			},
			{
				"type": "occ",
				"energy": -0.28881,
				"method": "rhf"
			},
			{
				"type": "occ",
				"energy": -0.26638,
				"method": "rhf"
			},
			{
				"type": "occ",
				"energy": -0.26459,
				"method": "rhf"
			},
			{
				"type": "unocc",
				"energy": -0.04523,
				"method": "rhf"
			},
			{
				"type": "unocc",
				"energy": -0.02717,
				"method": "rhf"
			},
			{
				"type": "unocc",
				"energy": 0.04324,
				"method": "rhf"
			},
			{
				"type": "unocc",
				"energy": 0.07811,
				"method": "rhf"
			},
			{
				"type": "unocc",
				"energy": 0.10028,
				"method": "rhf"
			}
		],
		"cosmo_sigma_profile": { 
			"-0.025": 0.0,
			"-0.024": 0.0,
			"-0.023": 0.0,
			"-0.022": 0.0,
			"-0.021": 0.0,
			"-0.02": 0.0,
			"-0.019": 0.0,
			"-0.018": 0.350787005648,
			"-0.017": 0.679058211316,
			"-0.016": 0.972922702154,
			"-0.015": 0.913809923801,
			"-0.014": 0.863148230078,
			"-0.013": 0.408234844488,
			"-0.012": 0.431468095037,
			"-0.011": 0.691943335206,
			"-0.01": 1.04582881531,
			"-0.009": 0.602244264918,
			"-0.008": 3.35497529132,
			"-0.007": 6.24572419844,
			"-0.006": 6.44420596691,
			"-0.005": 9.50936776245,
			"-0.004": 10.9304778069,
			"-0.003": 14.0043861658,
			"-0.002": 18.6658991424,
			"-0.001": 25.050913171,
			"0.0": 20.838451628,
			"0.001": 16.3392774524,
			"0.002": 8.14990721771,
			"0.003": 9.22234572218,
			"0.004": 8.93812263434,
			"0.005": 10.8698524375,
			"0.006": 15.0275048331,
			"0.007": 5.83182402362,
			"0.008": 3.46919002079,
			"0.009": 3.32747180871,
			"0.01": 2.11939592533,
			"0.011": 1.71169257041,
			"0.012": 0.749856602777,
			"0.013": 0.178352241558,
			"0.014": 0.424147892189,
			"0.015": 0.0280690702528,
			"0.016": 0.0,
			"0.017": 0.0,
			"0.018": 0.0,
			"0.019": 0.0,
			"0.02": 0.0,
			"0.021": 0.0,
			"0.022": 0.0,
			"0.023": 0.0,
			"0.024": 0.0,
			"0.025": 0.0
		}
	}
}
