{
	 "smiles": "CC(=O)N(C1=NC(CCl)=CS1)C1=CC=C(F)C=C1", 
	 "Tm": 401.15, 
	 "num_atms": 28, 
	 "gaussian": { 
		 "optdone": 1, 
		 "sigma_profile": "yes", 
		 "theory": "DFT", 
		 "functional": "B3LYP", 
		 "basiset": "6-31G**", 
		 "properties": { 
			 "R2extent": 6453.2825, 
			 "electric_dipole_moment_norm": 2.88569019993, 
			 "electric_quadrupole_moment_norm": 16.8994324118, 
			 "total_energy": -1606.25194988, 
			 "HOMO_LUMO_gap": 0.1941, 
			 "cosmo_polarized_energy": -14.67, 
			 "cosmo_cavitation_energy": 36.8, 
			 "cosmo_dispersion_energy": -25.64, 
			 "cosmo_repulsion_energy": 1.97, 
			 "cosmo_total_nonelectrostatic_energy": 13.13, 
			 "SMD_solvation_energy": 6.26 
		},
		"coords": [
			{
				"x": -2.6204444569,
				"y": 0.6694752852,
				"z": -2.3862620987,
				"element": "C" 
			},
			{
				"x": -1.8516356114,
				"y": 1.6723380505,
				"z": -1.551684259,
				"element": "C" 
			},
			{
				"x": -2.0722418821,
				"y": 2.8740861431,
				"z": -1.608760528,
				"element": "O" 
			},
			{
				"x": -0.8641735908,
				"y": 1.1686191197,
				"z": -0.701803437,
				"element": "N" 
			},
			{
				"x": -0.0839310028,
				"y": 2.0237566034,
				"z": 0.0928855157,
				"element": "C" 
			},
			{
				"x": 0.8453673884,
				"y": 1.5594077058,
				"z": 0.8772142995,
				"element": "N" 
			},
			{
				"x": 1.474774887,
				"y": 2.5854560007,
				"z": 1.5516671651,
				"element": "C" 
			},
			{
				"x": 2.5754200606,
				"y": 2.258867168,
				"z": 2.5002342842,
				"element": "C" 
			},
			{
				"x": 4.1694923466,
				"y": 1.9325408845,
				"z": 1.6457102381,
				"element": "Cl" 
			},
			{
				"x": 1.00848608,
				"y": 3.8388742439,
				"z": 1.2769550826,
				"element": "C" 
			},
			{
				"x": -0.2827054658,
				"y": 3.776308572,
				"z": 0.1146314271,
				"element": "S" 
			},
			{
				"x": -0.5870914147,
				"y": -0.246423491,
				"z": -0.6077146172,
				"element": "C" 
			},
			{
				"x": 0.4079199468,
				"y": -0.8146736921,
				"z": -1.4064633767,
				"element": "C" 
			},
			{
				"x": 0.6683770951,
				"y": -2.181338475,
				"z": -1.3290981629,
				"element": "C" 
			},
			{
				"x": -0.0743625604,
				"y": -2.9536322815,
				"z": -0.4415849571,
				"element": "C" 
			},
			{
				"x": 0.1711611073,
				"y": -4.2752264046,
				"z": -0.365386788,
				"element": "F" 
			},
			{
				"x": -1.0617171466,
				"y": -2.4054207295,
				"z": 0.3704875125,
				"element": "C" 
			},
			{
				"x": -1.3123703548,
				"y": -1.0367552035,
				"z": 0.2863232187,
				"element": "C" 
			},
			{
				"x": -3.3164018341,
				"y": 1.2300097591,
				"z": -3.0095651671,
				"element": "H" 
			},
			{
				"x": -3.1757384861,
				"y": -0.0314454999,
				"z": -1.7566069365,
				"element": "H" 
			},
			{
				"x": -1.9525017124,
				"y": 0.0773704615,
				"z": -3.017928959,
				"element": "H" 
			},
			{
				"x": 2.7718141824,
				"y": 3.0799916864,
				"z": 3.1883556254,
				"element": "H" 
			},
			{
				"x": 2.3569831815,
				"y": 1.3469292309,
				"z": 3.0551313109,
				"element": "H" 
			},
			{
				"x": 1.3517492921,
				"y": 4.7828974025,
				"z": 1.6773789027,
				"element": "H" 
			},
			{
				"x": 0.9803454597,
				"y": -0.1844409754,
				"z": -2.0790543605,
				"element": "H" 
			},
			{
				"x": 1.4350530723,
				"y": -2.6494043617,
				"z": -1.9362439449,
				"element": "H" 
			},
			{
				"x": -1.6109089501,
				"y": -3.0439413707,
				"z": 1.053348461,
				"element": "H" 
			},
			{
				"x": -2.0673196308,
				"y": -0.5779258324,
				"z": 0.9167345492,
				"element": "H" 
			}
		],
		 "valence_orbital": [ 
			{
				"type": "occ",
				"energy": -0.28001,
				"method": "rhf"
			},
			{
				"type": "occ",
				"energy": -0.275,
				"method": "rhf"
			},
			{
				"type": "occ",
				"energy": -0.27449,
				"method": "rhf"
			},
			{
				"type": "occ",
				"energy": -0.25773,
				"method": "rhf"
			},
			{
				"type": "occ",
				"energy": -0.22773,
				"method": "rhf"
			},
			{
				"type": "unocc",
				"energy": -0.03363,
				"method": "rhf"
			},
			{
				"type": "unocc",
				"energy": -0.02862,
				"method": "rhf"
			},
			{
				"type": "unocc",
				"energy": -0.0237,
				"method": "rhf"
			},
			{
				"type": "unocc",
				"energy": -0.00686,
				"method": "rhf"
			},
			{
				"type": "unocc",
				"energy": 0.03026,
				"method": "rhf"
			}
		],
		"cosmo_sigma_profile": { 
			"-0.025": 0.0,
			"-0.024": 0.0,
			"-0.023": 0.0,
			"-0.022": 0.0,
			"-0.021": 0.0,
			"-0.02": 0.0,
			"-0.019": 0.0,
			"-0.018": 0.0,
			"-0.017": 0.0,
			"-0.016": 0.0,
			"-0.015": 0.0,
			"-0.014": 0.0,
			"-0.013": 0.0,
			"-0.012": 0.0,
			"-0.011": 0.0,
			"-0.01": 0.173429938665,
			"-0.009": 2.11584131385,
			"-0.008": 9.02736913122,
			"-0.007": 17.6408707696,
			"-0.006": 20.3468550054,
			"-0.005": 20.2734718649,
			"-0.004": 16.7361817564,
			"-0.003": 17.2184409512,
			"-0.002": 18.7632553513,
			"-0.001": 17.347342667,
			"0.0": 22.0225084554,
			"0.001": 19.5888852193,
			"0.002": 23.6534514677,
			"0.003": 18.3458446234,
			"0.004": 21.1872397488,
			"0.005": 11.3021502196,
			"0.006": 12.4682891615,
			"0.007": 12.1472028103,
			"0.008": 3.7769203263,
			"0.009": 3.785526789,
			"0.01": 3.05732603759,
			"0.011": 3.69775742166,
			"0.012": 3.19295655488,
			"0.013": 1.30426614498,
			"0.014": 0.0,
			"0.015": 0.0,
			"0.016": 0.0,
			"0.017": 0.0,
			"0.018": 0.0,
			"0.019": 0.0,
			"0.02": 0.0,
			"0.021": 0.0,
			"0.022": 0.0,
			"0.023": 0.0,
			"0.024": 0.0,
			"0.025": 0.0
		}
	}
}
