{
	 "smiles": "ClC(=O)C1=CC(Cl)=NC2=C1C=C(Br)C=C2", 
	 "Tm": 414.15, 
	 "num_atms": 19, 
	 "gaussian": { 
		 "optdone": 1, 
		 "sigma_profile": "yes", 
		 "theory": "DFT", 
		 "functional": "B3LYP", 
		 "basiset": "6-31G**", 
		 "properties": { 
			 "R2extent": 9201.2535, 
			 "electric_dipole_moment_norm": 1.66019187445, 
			 "electric_quadrupole_moment_norm": 9.32476802071, 
			 "total_energy": -4005.24078061, 
			 "HOMO_LUMO_gap": 0.14932, 
			 "cosmo_polarized_energy": -7.44, 
			 "cosmo_cavitation_energy": 30.54, 
			 "cosmo_dispersion_energy": -22.76, 
			 "cosmo_repulsion_energy": 1.79, 
			 "cosmo_total_nonelectrostatic_energy": 9.57, 
			 "SMD_solvation_energy": 2.66 
		},
		"coords": [
			{
				"x": 4.6855098087,
				"y": 1.0836381147,
				"z": -2.4990228339,
				"element": "Cl" 
			},
			{
				"x": 3.5733463234,
				"y": 1.7976374656,
				"z": -1.2542711361,
				"element": "C" 
			},
			{
				"x": 3.9327369174,
				"y": 2.7252141865,
				"z": -0.598146149,
				"element": "O" 
			},
			{
				"x": 2.19716522,
				"y": 1.2100400591,
				"z": -1.2333036289,
				"element": "C" 
			},
			{
				"x": 1.1756357471,
				"y": 2.1375755882,
				"z": -1.2410537114,
				"element": "C" 
			},
			{
				"x": -0.1590086159,
				"y": 1.6640398999,
				"z": -1.2603759448,
				"element": "C" 
			},
			{
				"x": -1.4439945806,
				"y": 2.8613373606,
				"z": -1.3152349167,
				"element": "Cl" 
			},
			{
				"x": -0.5012552101,
				"y": 0.4103370686,
				"z": -1.2433448454,
				"element": "N" 
			},
			{
				"x": 0.4910640668,
				"y": -0.5246578981,
				"z": -1.1865764164,
				"element": "C" 
			},
			{
				"x": 1.8851865031,
				"y": -0.1871966897,
				"z": -1.1789544965,
				"element": "C" 
			},
			{
				"x": 2.8396924197,
				"y": -1.2309759622,
				"z": -1.0701830158,
				"element": "C" 
			},
			{
				"x": 2.415575028,
				"y": -2.5389135956,
				"z": -0.9994562855,
				"element": "C" 
			},
			{
				"x": 3.7023544829,
				"y": -3.9361618695,
				"z": -0.848137561,
				"element": "Br" 
			},
			{
				"x": 1.0451620798,
				"y": -2.8838525526,
				"z": -1.0317509685,
				"element": "C" 
			},
			{
				"x": 0.1027098274,
				"y": -1.8873843268,
				"z": -1.1221923258,
				"element": "C" 
			},
			{
				"x": 1.3853531347,
				"y": 3.1996950339,
				"z": -1.2538365722,
				"element": "H" 
			},
			{
				"x": 3.8971395061,
				"y": -1.0082159232,
				"z": -1.04012048,
				"element": "H" 
			},
			{
				"x": 0.7517718246,
				"y": -3.9257594822,
				"z": -0.9779827667,
				"element": "H" 
			},
			{
				"x": -0.958744483,
				"y": -2.1088964771,
				"z": -1.1365559455,
				"element": "H" 
			}
		],
		 "valence_orbital": [ 
			{
				"type": "occ",
				"energy": -0.31061,
				"method": "rhf"
			},
			{
				"type": "occ",
				"energy": -0.30514,
				"method": "rhf"
			},
			{
				"type": "occ",
				"energy": -0.29824,
				"method": "rhf"
			},
			{
				"type": "occ",
				"energy": -0.27784,
				"method": "rhf"
			},
			{
				"type": "occ",
				"energy": -0.25608,
				"method": "rhf"
			},
			{
				"type": "unocc",
				"energy": -0.10676,
				"method": "rhf"
			},
			{
				"type": "unocc",
				"energy": -0.05779,
				"method": "rhf"
			},
			{
				"type": "unocc",
				"energy": -0.05294,
				"method": "rhf"
			},
			{
				"type": "unocc",
				"energy": -0.01652,
				"method": "rhf"
			},
			{
				"type": "unocc",
				"energy": -0.00974,
				"method": "rhf"
			}
		],
		"cosmo_sigma_profile": { 
			"-0.025": 0.0,
			"-0.024": 0.0,
			"-0.023": 0.0,
			"-0.022": 0.0,
			"-0.021": 0.0,
			"-0.02": 0.0,
			"-0.019": 0.0,
			"-0.018": 0.0,
			"-0.017": 0.0,
			"-0.016": 0.0,
			"-0.015": 0.0,
			"-0.014": 0.0,
			"-0.013": 0.0,
			"-0.012": 0.0,
			"-0.011": 0.0,
			"-0.01": 0.808778794531,
			"-0.009": 3.00857047227,
			"-0.008": 5.91617993209,
			"-0.007": 7.62779861948,
			"-0.006": 7.95394507284,
			"-0.005": 8.94117130413,
			"-0.004": 12.9313096395,
			"-0.003": 18.4467975989,
			"-0.002": 20.1199289591,
			"-0.001": 22.7200614297,
			"0.0": 28.8186396655,
			"0.001": 26.4752703032,
			"0.002": 21.3488735053,
			"0.003": 26.0099489145,
			"0.004": 22.0185810459,
			"0.005": 4.73900866014,
			"0.006": 4.2548038646,
			"0.007": 5.75161764092,
			"0.008": 4.26777786047,
			"0.009": 1.13033399198,
			"0.01": 0.663609200068,
			"0.011": 0.737466726866,
			"0.012": 0.717216593903,
			"0.013": 0.0753091321103,
			"0.014": 0.0,
			"0.015": 0.0,
			"0.016": 0.0,
			"0.017": 0.0,
			"0.018": 0.0,
			"0.019": 0.0,
			"0.02": 0.0,
			"0.021": 0.0,
			"0.022": 0.0,
			"0.023": 0.0,
			"0.024": 0.0,
			"0.025": 0.0
		}
	}
}
