{
	 "smiles": "CCN(CC)CCSC(=O)N(C1=CC=CC=C1)C1=CC=CC=C1", 
	 "Tm": 321.15, 
	 "num_atms": 47, 
	 "gaussian": { 
		 "optdone": 1, 
		 "sigma_profile": "yes", 
		 "theory": "DFT", 
		 "functional": "B3LYP", 
		 "basiset": "6-31G**", 
		 "properties": { 
			 "R2extent": 10643.3652, 
			 "electric_dipole_moment_norm": 2.59240210037, 
			 "electric_quadrupole_moment_norm": 6.92256616725, 
			 "total_energy": -1321.40612532, 
			 "HOMO_LUMO_gap": 0.17512, 
			 "cosmo_polarized_energy": -11.25, 
			 "cosmo_cavitation_energy": 49.88, 
			 "cosmo_dispersion_energy": -33.84, 
			 "cosmo_repulsion_energy": 2.61, 
			 "cosmo_total_nonelectrostatic_energy": 18.66, 
			 "SMD_solvation_energy": 7.16 
		},
		"coords": [
			{
				"x": -2.890168027,
				"y": 3.6935020468,
				"z": -2.9075845739,
				"element": "C" 
			},
			{
				"x": -2.0056363835,
				"y": 3.0171768143,
				"z": -1.8546758153,
				"element": "C" 
			},
			{
				"x": -0.9639218993,
				"y": 3.9068709845,
				"z": -1.3306132064,
				"element": "N" 
			},
			{
				"x": -1.478888785,
				"y": 4.8932352151,
				"z": -0.3796804472,
				"element": "C" 
			},
			{
				"x": -0.5241659164,
				"y": 6.0621586537,
				"z": -0.1255270146,
				"element": "C" 
			},
			{
				"x": 0.2691850366,
				"y": 3.2395145368,
				"z": -0.9213990309,
				"element": "C" 
			},
			{
				"x": 0.2885482302,
				"y": 2.4241016119,
				"z": 0.390546075,
				"element": "C" 
			},
			{
				"x": -0.5893481879,
				"y": 0.8088497623,
				"z": 0.329541365,
				"element": "S" 
			},
			{
				"x": 0.8349731653,
				"y": -0.2889123502,
				"z": 0.6548785389,
				"element": "C" 
			},
			{
				"x": 1.9639083958,
				"y": 0.1365824632,
				"z": 0.8146545001,
				"element": "O" 
			},
			{
				"x": 0.5004070718,
				"y": -1.6319091896,
				"z": 0.7230945224,
				"element": "N" 
			},
			{
				"x": -0.8373558279,
				"y": -2.0941133045,
				"z": 0.4517429736,
				"element": "C" 
			},
			{
				"x": -1.6400611327,
				"y": -2.5319518474,
				"z": 1.5104366934,
				"element": "C" 
			},
			{
				"x": -2.9235311525,
				"y": -3.0122097176,
				"z": 1.2549807679,
				"element": "C" 
			},
			{
				"x": -3.4090857156,
				"y": -3.0543795183,
				"z": -0.0544261366,
				"element": "C" 
			},
			{
				"x": -2.6057958246,
				"y": -2.619854886,
				"z": -1.1102092385,
				"element": "C" 
			},
			{
				"x": -1.3171460755,
				"y": -2.1455016194,
				"z": -0.8613527332,
				"element": "C" 
			},
			{
				"x": 1.486266871,
				"y": -2.6175254542,
				"z": 1.082171764,
				"element": "C" 
			},
			{
				"x": 2.4356646428,
				"y": -2.3699998215,
				"z": 2.0830663137,
				"element": "C" 
			},
			{
				"x": 3.3553964873,
				"y": -3.3603531784,
				"z": 2.4243200814,
				"element": "C" 
			},
			{
				"x": 3.3367479207,
				"y": -4.6033669576,
				"z": 1.789030097,
				"element": "C" 
			},
			{
				"x": 2.3856153108,
				"y": -4.849523003,
				"z": 0.7987161321,
				"element": "C" 
			},
			{
				"x": 1.4661573647,
				"y": -3.8635978933,
				"z": 0.4423798342,
				"element": "C" 
			},
			{
				"x": -2.2773698468,
				"y": 4.0800606091,
				"z": -3.7273355091,
				"element": "H" 
			},
			{
				"x": -3.6074539527,
				"y": 2.9733622161,
				"z": -3.31611366,
				"element": "H" 
			},
			{
				"x": -3.4669563603,
				"y": 4.5276778402,
				"z": -2.495900339,
				"element": "H" 
			},
			{
				"x": -2.6426225468,
				"y": 2.5989207704,
				"z": -1.0528074708,
				"element": "H" 
			},
			{
				"x": -1.5063629106,
				"y": 2.1607324773,
				"z": -2.3181598787,
				"element": "H" 
			},
			{
				"x": -1.7669728619,
				"y": 4.4341555003,
				"z": 0.586498591,
				"element": "H" 
			},
			{
				"x": -2.4047246568,
				"y": 5.2963324948,
				"z": -0.8011403261,
				"element": "H" 
			},
			{
				"x": -0.2180988422,
				"y": 6.5176391316,
				"z": -1.0723473205,
				"element": "H" 
			},
			{
				"x": 0.3787133522,
				"y": 5.7578250501,
				"z": 0.412893719,
				"element": "H" 
			},
			{
				"x": -1.0215266442,
				"y": 6.8255281184,
				"z": 0.481518779,
				"element": "H" 
			},
			{
				"x": 1.0450610609,
				"y": 4.0074035587,
				"z": -0.8123650104,
				"element": "H" 
			},
			{
				"x": 0.5930003697,
				"y": 2.5929048114,
				"z": -1.7440192191,
				"element": "H" 
			},
			{
				"x": -0.1407497788,
				"y": 2.9896276444,
				"z": 1.2214592036,
				"element": "H" 
			},
			{
				"x": 1.3210400989,
				"y": 2.1697349429,
				"z": 0.6474227411,
				"element": "H" 
			},
			{
				"x": -1.2505637439,
				"y": -2.4922266671,
				"z": 2.5226931895,
				"element": "H" 
			},
			{
				"x": -3.5459639005,
				"y": -3.3490643508,
				"z": 2.0785807411,
				"element": "H" 
			},
			{
				"x": -4.4101755868,
				"y": -3.4267183623,
				"z": -0.2508655421,
				"element": "H" 
			},
			{
				"x": -2.9780094294,
				"y": -2.6549772913,
				"z": -2.1297162807,
				"element": "H" 
			},
			{
				"x": -0.6813080981,
				"y": -1.8089224906,
				"z": -1.6736330167,
				"element": "H" 
			},
			{
				"x": 2.4632375057,
				"y": -1.4069494218,
				"z": 2.5747269253,
				"element": "H" 
			},
			{
				"x": 4.0883474252,
				"y": -3.1561880468,
				"z": 3.199587283,
				"element": "H" 
			},
			{
				"x": 4.0547061632,
				"y": -5.3704692578,
				"z": 2.0632656865,
				"element": "H" 
			},
			{
				"x": 2.3575709999,
				"y": -5.8106771549,
				"z": 0.2934685283,
				"element": "H" 
			},
			{
				"x": 0.7301166149,
				"y": -4.0609054702,
				"z": -0.3291032762,
				"element": "H" 
			}
		],
		 "valence_orbital": [ 
			{
				"type": "occ",
				"energy": -0.25611,
				"method": "rhf"
			},
			{
				"type": "occ",
				"energy": -0.24758,
				"method": "rhf"
			},
			{
				"type": "occ",
				"energy": -0.24297,
				"method": "rhf"
			},
			{
				"type": "occ",
				"energy": -0.21964,
				"method": "rhf"
			},
			{
				"type": "occ",
				"energy": -0.19838,
				"method": "rhf"
			},
			{
				"type": "unocc",
				"energy": -0.02326,
				"method": "rhf"
			},
			{
				"type": "unocc",
				"energy": -0.01649,
				"method": "rhf"
			},
			{
				"type": "unocc",
				"energy": -0.0081,
				"method": "rhf"
			},
			{
				"type": "unocc",
				"energy": 0.00184,
				"method": "rhf"
			},
			{
				"type": "unocc",
				"energy": 0.03886,
				"method": "rhf"
			}
		],
		"cosmo_sigma_profile": { 
			"-0.025": 0.0,
			"-0.024": 0.0,
			"-0.023": 0.0,
			"-0.022": 0.0,
			"-0.021": 0.0,
			"-0.02": 0.0,
			"-0.019": 0.0,
			"-0.018": 0.0,
			"-0.017": 0.0,
			"-0.016": 0.0,
			"-0.015": 0.0,
			"-0.014": 0.0,
			"-0.013": 0.0,
			"-0.012": 0.0,
			"-0.011": 0.0,
			"-0.01": 0.0,
			"-0.009": 0.0,
			"-0.008": 0.0,
			"-0.007": 2.21198872906,
			"-0.006": 15.0692447025,
			"-0.005": 22.2298410416,
			"-0.004": 34.7353799,
			"-0.003": 39.8807453806,
			"-0.002": 41.145658676,
			"-0.001": 42.5494512945,
			"0.0": 39.9399465742,
			"0.001": 36.5704718407,
			"0.002": 26.0830036828,
			"0.003": 20.2741784824,
			"0.004": 22.6029780347,
			"0.005": 22.3667983132,
			"0.006": 9.17953984112,
			"0.007": 4.25393857247,
			"0.008": 3.48659401446,
			"0.009": 2.68449974904,
			"0.01": 2.66630924805,
			"0.011": 3.54997879344,
			"0.012": 2.88664533413,
			"0.013": 0.504749254007,
			"0.014": 0.219695025282,
			"0.015": 0.236895292718,
			"0.016": 0.0,
			"0.017": 0.0,
			"0.018": 0.0,
			"0.019": 0.0,
			"0.02": 0.0,
			"0.021": 0.0,
			"0.022": 0.0,
			"0.023": 0.0,
			"0.024": 0.0,
			"0.025": 0.0
		}
	}
}
