{
	 "smiles": "CCOC(=O)C1=C(C)N(CC2=CC=CC=C2)C2=C1C=C(O)C=C2", 
	 "Tm": 472.15, 
	 "num_atms": 42, 
	 "gaussian": { 
		 "optdone": 1, 
		 "sigma_profile": "yes", 
		 "theory": "DFT", 
		 "functional": "B3LYP", 
		 "basiset": "6-31G**", 
		 "properties": { 
			 "R2extent": 8848.0524, 
			 "electric_dipole_moment_norm": 4.10010608399, 
			 "electric_quadrupole_moment_norm": 9.77860369429, 
			 "total_energy": -1015.93037785, 
			 "HOMO_LUMO_gap": 0.17523, 
			 "cosmo_polarized_energy": -16.29, 
			 "cosmo_cavitation_energy": 44.92, 
			 "cosmo_dispersion_energy": -31.14, 
			 "cosmo_repulsion_energy": 2.38, 
			 "cosmo_total_nonelectrostatic_energy": 16.15, 
			 "SMD_solvation_energy": 8.52 
		},
		"coords": [
			{
				"x": -3.2908853938,
				"y": 3.1451401683,
				"z": -2.367002144,
				"element": "C" 
			},
			{
				"x": -1.8101911888,
				"y": 3.4851245206,
				"z": -2.4591063806,
				"element": "C" 
			},
			{
				"x": -0.9957913818,
				"y": 2.4997418746,
				"z": -1.7862998428,
				"element": "O" 
			},
			{
				"x": -0.8319379624,
				"y": 2.667629971,
				"z": -0.4420675457,
				"element": "C" 
			},
			{
				"x": -1.3337206362,
				"y": 3.605680041,
				"z": 0.1599172142,
				"element": "O" 
			},
			{
				"x": -0.0082575088,
				"y": 1.6400208761,
				"z": 0.1901180407,
				"element": "C" 
			},
			{
				"x": 0.6094555737,
				"y": 0.5173382186,
				"z": -0.3629860449,
				"element": "C" 
			},
			{
				"x": 0.6337056691,
				"y": -0.0014741137,
				"z": -1.7655220632,
				"element": "C" 
			},
			{
				"x": 1.2910412201,
				"y": -0.1495217048,
				"z": 0.6316999049,
				"element": "N" 
			},
			{
				"x": 2.0504755451,
				"y": -1.3791206105,
				"z": 0.4608022135,
				"element": "C" 
			},
			{
				"x": 1.2236366236,
				"y": -2.6582690354,
				"z": 0.47587334,
				"element": "C" 
			},
			{
				"x": 0.0330454099,
				"y": -2.7566903,
				"z": 1.2052530699,
				"element": "C" 
			},
			{
				"x": -0.6790237551,
				"y": -3.9570821772,
				"z": 1.2338922598,
				"element": "C" 
			},
			{
				"x": -0.2097286003,
				"y": -5.0723874305,
				"z": 0.5378639016,
				"element": "C" 
			},
			{
				"x": 0.9763186422,
				"y": -4.9807321446,
				"z": -0.1928029394,
				"element": "C" 
			},
			{
				"x": 1.6850981527,
				"y": -3.7793450247,
				"z": -0.2253704501,
				"element": "C" 
			},
			{
				"x": 1.1192127234,
				"y": 0.5201654164,
				"z": 1.845602774,
				"element": "C" 
			},
			{
				"x": 0.3102280841,
				"y": 1.6524633429,
				"z": 1.6003847716,
				"element": "C" 
			},
			{
				"x": -0.0144300271,
				"y": 2.5146546867,
				"z": 2.6590953617,
				"element": "C" 
			},
			{
				"x": 0.4741218191,
				"y": 2.2200264192,
				"z": 3.9283767316,
				"element": "C" 
			},
			{
				"x": 0.2054760813,
				"y": 3.0079057766,
				"z": 5.0180564619,
				"element": "O" 
			},
			{
				"x": 1.2753562079,
				"y": 1.0826705581,
				"z": 4.1617712729,
				"element": "C" 
			},
			{
				"x": 1.60331574,
				"y": 0.2207830297,
				"z": 3.1229559009,
				"element": "C" 
			},
			{
				"x": -3.4871445164,
				"y": 2.1439772042,
				"z": -2.7627570193,
				"element": "H" 
			},
			{
				"x": -3.6274284844,
				"y": 3.1876669619,
				"z": -1.32855673,
				"element": "H" 
			},
			{
				"x": -3.8762194405,
				"y": 3.8652900813,
				"z": -2.9489599349,
				"element": "H" 
			},
			{
				"x": -1.6069245698,
				"y": 4.4672851547,
				"z": -2.02641742,
				"element": "H" 
			},
			{
				"x": -1.4604950525,
				"y": 3.4657050107,
				"z": -3.4947474602,
				"element": "H" 
			},
			{
				"x": -0.0546243142,
				"y": 0.5688082925,
				"z": -2.3837869339,
				"element": "H" 
			},
			{
				"x": 1.6369961262,
				"y": 0.0862302889,
				"z": -2.2030678707,
				"element": "H" 
			},
			{
				"x": 0.3537473483,
				"y": -1.0600317332,
				"z": -1.7985050682,
				"element": "H" 
			},
			{
				"x": 2.7984793126,
				"y": -1.4061104708,
				"z": 1.2606702566,
				"element": "H" 
			},
			{
				"x": 2.613029503,
				"y": -1.3181460513,
				"z": -0.4758300117,
				"element": "H" 
			},
			{
				"x": -0.3387446287,
				"y": -1.8934364744,
				"z": 1.7484983709,
				"element": "H" 
			},
			{
				"x": -1.6029362893,
				"y": -4.019022651,
				"z": 1.8017717742,
				"element": "H" 
			},
			{
				"x": -0.7662043137,
				"y": -6.0048124436,
				"z": 0.5607703036,
				"element": "H" 
			},
			{
				"x": 1.3459317024,
				"y": -5.8406097743,
				"z": -0.7442110161,
				"element": "H" 
			},
			{
				"x": 2.6048381384,
				"y": -3.711877512,
				"z": -0.8025301043,
				"element": "H" 
			},
			{
				"x": -0.6341110743,
				"y": 3.385334531,
				"z": 2.471558188,
				"element": "H" 
			},
			{
				"x": -0.3461373153,
				"y": 3.7477556305,
				"z": 4.7326562143,
				"element": "H" 
			},
			{
				"x": 1.6248657083,
				"y": 0.8964271109,
				"z": 5.1714977144,
				"element": "H" 
			},
			{
				"x": 2.2112611221,
				"y": -0.6577555146,
				"z": 3.3155409386,
				"element": "H" 
			}
		],
		 "valence_orbital": [ 
			{
				"type": "occ",
				"energy": -0.25919,
				"method": "rhf"
			},
			{
				"type": "occ",
				"energy": -0.25752,
				"method": "rhf"
			},
			{
				"type": "occ",
				"energy": -0.25271,
				"method": "rhf"
			},
			{
				"type": "occ",
				"energy": -0.2057,
				"method": "rhf"
			},
			{
				"type": "occ",
				"energy": -0.19632,
				"method": "rhf"
			},
			{
				"type": "unocc",
				"energy": -0.02109,
				"method": "rhf"
			},
			{
				"type": "unocc",
				"energy": -0.01121,
				"method": "rhf"
			},
			{
				"type": "unocc",
				"energy": -0.00953,
				"method": "rhf"
			},
			{
				"type": "unocc",
				"energy": 0.00917,
				"method": "rhf"
			},
			{
				"type": "unocc",
				"energy": 0.04006,
				"method": "rhf"
			}
		],
		"cosmo_sigma_profile": { 
			"-0.025": 0.0,
			"-0.024": 0.0,
			"-0.023": 0.0,
			"-0.022": 0.0,
			"-0.021": 0.0,
			"-0.02": 0.0,
			"-0.019": 0.0,
			"-0.018": 0.0131241772756,
			"-0.017": 0.678476053135,
			"-0.016": 1.30776954347,
			"-0.015": 0.763976572329,
			"-0.014": 1.01718130788,
			"-0.013": 0.862267112085,
			"-0.012": 1.01198918126,
			"-0.011": 1.01831125726,
			"-0.01": 0.628607827031,
			"-0.009": 1.3008780909,
			"-0.008": 2.94914630735,
			"-0.007": 6.83533468514,
			"-0.006": 14.6414667436,
			"-0.005": 22.8763420483,
			"-0.004": 28.5792003054,
			"-0.003": 31.3090267168,
			"-0.002": 29.116809504,
			"-0.001": 27.8403413785,
			"0.0": 29.7153811306,
			"0.001": 24.6489397219,
			"0.002": 21.2694781697,
			"0.003": 20.2936055518,
			"0.004": 22.6453307856,
			"0.005": 25.9451372621,
			"0.006": 16.2110877853,
			"0.007": 4.75578172106,
			"0.008": 2.8488161534,
			"0.009": 2.85082683756,
			"0.01": 3.43334112228,
			"0.011": 3.83668484046,
			"0.012": 4.07391231386,
			"0.013": 1.8712575474,
			"0.014": 0.0,
			"0.015": 0.0,
			"0.016": 0.0,
			"0.017": 0.0,
			"0.018": 0.0,
			"0.019": 0.0,
			"0.02": 0.0,
			"0.021": 0.0,
			"0.022": 0.0,
			"0.023": 0.0,
			"0.024": 0.0,
			"0.025": 0.0
		}
	}
}
