{
	 "smiles": "CS(=O)(=O)C1=NC=CC(=C1)C#N", 
	 "Tm": 417.15, 
	 "num_atms": 18, 
	 "gaussian": { 
		 "optdone": 1, 
		 "sigma_profile": "yes", 
		 "theory": "DFT", 
		 "functional": "B3LYP", 
		 "basiset": "6-31G**", 
		 "properties": { 
			 "R2extent": 2751.423, 
			 "electric_dipole_moment_norm": 5.63443297768, 
			 "electric_quadrupole_moment_norm": 14.2260836252, 
			 "total_energy": -928.399431873, 
			 "HOMO_LUMO_gap": 0.19513, 
			 "cosmo_polarized_energy": -18.5, 
			 "cosmo_cavitation_energy": 25.62, 
			 "cosmo_dispersion_energy": -18.46, 
			 "cosmo_repulsion_energy": 1.43, 
			 "cosmo_total_nonelectrostatic_energy": 8.58, 
			 "SMD_solvation_energy": 4.73 
		},
		"coords": [
			{
				"x": -1.3444634986,
				"y": 2.6776741759,
				"z": 0.852418574,
				"element": "C" 
			},
			{
				"x": -0.4895102633,
				"y": 1.4397893995,
				"z": -0.1380496039,
				"element": "S" 
			},
			{
				"x": -1.4452138766,
				"y": 0.8472283116,
				"z": -1.0851388795,
				"element": "O" 
			},
			{
				"x": 0.7717302887,
				"y": 2.0136613682,
				"z": -0.6293984,
				"element": "O" 
			},
			{
				"x": -0.0534451756,
				"y": 0.140824455,
				"z": 1.0652869879,
				"element": "C" 
			},
			{
				"x": -0.4150685815,
				"y": 0.3324567018,
				"z": 2.3277930626,
				"element": "N" 
			},
			{
				"x": -0.0943638936,
				"y": -0.6234481702,
				"z": 3.212617716,
				"element": "C" 
			},
			{
				"x": 0.588940799,
				"y": -1.7848206587,
				"z": 2.8653881022,
				"element": "C" 
			},
			{
				"x": 0.9610180575,
				"y": -1.9646500937,
				"z": 1.5224272953,
				"element": "C" 
			},
			{
				"x": 0.6330405987,
				"y": -0.9754449662,
				"z": 0.5881049736,
				"element": "C" 
			},
			{
				"x": 1.6672675862,
				"y": -3.1466266655,
				"z": 1.1167380525,
				"element": "C" 
			},
			{
				"x": 2.2388782295,
				"y": -4.1067093545,
				"z": 0.797039677,
				"element": "N" 
			},
			{
				"x": -1.6106323395,
				"y": 3.4612638709,
				"z": 0.1401162569,
				"element": "H" 
			},
			{
				"x": -0.6724534641,
				"y": 3.0604845657,
				"z": 1.6192408642,
				"element": "H" 
			},
			{
				"x": -2.2354392024,
				"y": 2.2377755627,
				"z": 1.2982877414,
				"element": "H" 
			},
			{
				"x": -0.3985622089,
				"y": -0.4491974391,
				"z": 4.2414171886,
				"element": "H" 
			},
			{
				"x": 0.8291771845,
				"y": -2.5335639188,
				"z": 3.6113276802,
				"element": "H" 
			},
			{
				"x": 0.8996997601,
				"y": -1.0713971444,
				"z": -0.4580172889,
				"element": "H" 
			}
		],
		 "valence_orbital": [ 
			{
				"type": "occ",
				"energy": -0.32121,
				"method": "rhf"
			},
			{
				"type": "occ",
				"energy": -0.31921,
				"method": "rhf"
			},
			{
				"type": "occ",
				"energy": -0.31055,
				"method": "rhf"
			},
			{
				"type": "occ",
				"energy": -0.2951,
				"method": "rhf"
			},
			{
				"type": "occ",
				"energy": -0.2922,
				"method": "rhf"
			},
			{
				"type": "unocc",
				"energy": -0.09707,
				"method": "rhf"
			},
			{
				"type": "unocc",
				"energy": -0.06668,
				"method": "rhf"
			},
			{
				"type": "unocc",
				"energy": 0.0069,
				"method": "rhf"
			},
			{
				"type": "unocc",
				"energy": 0.03466,
				"method": "rhf"
			},
			{
				"type": "unocc",
				"energy": 0.04902,
				"method": "rhf"
			}
		],
		"cosmo_sigma_profile": { 
			"-0.025": 0.0,
			"-0.024": 0.0,
			"-0.023": 0.0,
			"-0.022": 0.0,
			"-0.021": 0.0,
			"-0.02": 0.0,
			"-0.019": 0.0,
			"-0.018": 0.0,
			"-0.017": 0.0,
			"-0.016": 0.0,
			"-0.015": 0.0,
			"-0.014": 0.0,
			"-0.013": 0.0,
			"-0.012": 0.0,
			"-0.011": 1.3165046729,
			"-0.01": 4.4845593392,
			"-0.009": 10.2491209766,
			"-0.008": 10.8876938499,
			"-0.007": 11.1832781519,
			"-0.006": 9.2286127624,
			"-0.005": 14.1054226402,
			"-0.004": 16.969941775,
			"-0.003": 17.0853763375,
			"-0.002": 13.0499161484,
			"-0.001": 9.05641980343,
			"0.0": 6.24748117155,
			"0.001": 6.91135916118,
			"0.002": 5.52511283375,
			"0.003": 5.0973460405,
			"0.004": 5.95793398394,
			"0.005": 4.69528192472,
			"0.006": 6.09969774575,
			"0.007": 6.52420064386,
			"0.008": 6.13306581856,
			"0.009": 6.78335273049,
			"0.01": 8.51797598628,
			"0.011": 15.6532886069,
			"0.012": 5.37281572411,
			"0.013": 0.0,
			"0.014": 0.0,
			"0.015": 0.0,
			"0.016": 0.0,
			"0.017": 0.0,
			"0.018": 0.0,
			"0.019": 0.0,
			"0.02": 0.0,
			"0.021": 0.0,
			"0.022": 0.0,
			"0.023": 0.0,
			"0.024": 0.0,
			"0.025": 0.0
		}
	}
}
