{
	 "smiles": "FC1=CC(Br)=C(OCC2=NC3=C(C=CC=C3)C=C2)C=C1", 
	 "Tm": 398.15, 
	 "num_atms": 31, 
	 "gaussian": { 
		 "optdone": 1, 
		 "sigma_profile": "yes", 
		 "theory": "DFT", 
		 "functional": "B3LYP", 
		 "basiset": "6-31G**", 
		 "properties": { 
			 "R2extent": 11761.1666, 
			 "electric_dipole_moment_norm": 2.05925921875, 
			 "electric_quadrupole_moment_norm": 9.83722275086, 
			 "total_energy": -3417.54222834, 
			 "HOMO_LUMO_gap": 0.17024, 
			 "cosmo_polarized_energy": -9.38, 
			 "cosmo_cavitation_energy": 38.73, 
			 "cosmo_dispersion_energy": -28.27, 
			 "cosmo_repulsion_energy": 2.1, 
			 "cosmo_total_nonelectrostatic_energy": 12.56, 
			 "SMD_solvation_energy": 4.38 
		},
		"coords": [
			{
				"x": -2.4594591631,
				"y": -1.0648857326,
				"z": 7.1998572833,
				"element": "F" 
			},
			{
				"x": -2.0507393988,
				"y": -1.010541025,
				"z": 5.914933886,
				"element": "C" 
			},
			{
				"x": -2.9810666731,
				"y": -0.6947967825,
				"z": 4.9295828091,
				"element": "C" 
			},
			{
				"x": -2.5607704519,
				"y": -0.6386264391,
				"z": 3.6060226691,
				"element": "C" 
			},
			{
				"x": -3.8282666377,
				"y": -0.2071120967,
				"z": 2.2507100281,
				"element": "Br" 
			},
			{
				"x": -1.2218123036,
				"y": -0.894089872,
				"z": 3.2535028909,
				"element": "C" 
			},
			{
				"x": -0.9036078248,
				"y": -0.8162682901,
				"z": 1.9353859149,
				"element": "O" 
			},
			{
				"x": 0.4368383579,
				"y": -1.0644695444,
				"z": 1.534126213,
				"element": "C" 
			},
			{
				"x": 0.5452350339,
				"y": -0.9181350097,
				"z": 0.0294982481,
				"element": "C" 
			},
			{
				"x": 1.7533037532,
				"y": -1.1419140144,
				"z": -0.4509936891,
				"element": "N" 
			},
			{
				"x": 1.9456051501,
				"y": -1.0314629655,
				"z": -1.7962272367,
				"element": "C" 
			},
			{
				"x": 0.8863069624,
				"y": -0.6835647221,
				"z": -2.6941643535,
				"element": "C" 
			},
			{
				"x": 1.1587714667,
				"y": -0.5867119124,
				"z": -4.0843945693,
				"element": "C" 
			},
			{
				"x": 2.4268678707,
				"y": -0.8245030922,
				"z": -4.5645317906,
				"element": "C" 
			},
			{
				"x": 3.4761250562,
				"y": -1.1691503129,
				"z": -3.6750416573,
				"element": "C" 
			},
			{
				"x": 3.2433577145,
				"y": -1.2708675066,
				"z": -2.3219931919,
				"element": "C" 
			},
			{
				"x": -0.3931619796,
				"y": -0.4531489555,
				"z": -2.1292087919,
				"element": "C" 
			},
			{
				"x": -0.5734571815,
				"y": -0.5677299546,
				"z": -0.7709312684,
				"element": "C" 
			},
			{
				"x": -0.3136333349,
				"y": -1.2087600689,
				"z": 4.272524171,
				"element": "C" 
			},
			{
				"x": -0.7242749818,
				"y": -1.2681502387,
				"z": 5.6062404788,
				"element": "C" 
			},
			{
				"x": -4.0118734365,
				"y": -0.4976870227,
				"z": 5.1967327357,
				"element": "H" 
			},
			{
				"x": 0.7470453198,
				"y": -2.0782444049,
				"z": 1.8223469317,
				"element": "H" 
			},
			{
				"x": 1.1235426207,
				"y": -0.3558937029,
				"z": 2.0175549903,
				"element": "H" 
			},
			{
				"x": 0.3502498539,
				"y": -0.3221535784,
				"z": -4.7612833574,
				"element": "H" 
			},
			{
				"x": 2.6294332584,
				"y": -0.748990414,
				"z": -5.6288164459,
				"element": "H" 
			},
			{
				"x": 4.4711056557,
				"y": -1.3536615308,
				"z": -4.0698158673,
				"element": "H" 
			},
			{
				"x": 4.0306338273,
				"y": -1.5331639753,
				"z": -1.6227136077,
				"element": "H" 
			},
			{
				"x": -1.2235077845,
				"y": -0.1868252624,
				"z": -2.7787235305,
				"element": "H" 
			},
			{
				"x": -1.5356347713,
				"y": -0.3998145793,
				"z": -0.3032527673,
				"element": "H" 
			},
			{
				"x": 0.7230870661,
				"y": -1.4104753178,
				"z": 4.0330363422,
				"element": "H" 
			},
			{
				"x": -0.0233430443,
				"y": -1.5115016755,
				"z": 6.3967365329,
				"element": "H" 
			}
		],
		 "valence_orbital": [ 
			{
				"type": "occ",
				"energy": -0.25996,
				"method": "rhf"
			},
			{
				"type": "occ",
				"energy": -0.25746,
				"method": "rhf"
			},
			{
				"type": "occ",
				"energy": -0.25,
				"method": "rhf"
			},
			{
				"type": "occ",
				"energy": -0.23367,
				"method": "rhf"
			},
			{
				"type": "occ",
				"energy": -0.22583,
				"method": "rhf"
			},
			{
				"type": "unocc",
				"energy": -0.05559,
				"method": "rhf"
			},
			{
				"type": "unocc",
				"energy": -0.02526,
				"method": "rhf"
			},
			{
				"type": "unocc",
				"energy": -0.01565,
				"method": "rhf"
			},
			{
				"type": "unocc",
				"energy": 0.00169,
				"method": "rhf"
			},
			{
				"type": "unocc",
				"energy": 0.00209,
				"method": "rhf"
			}
		],
		"cosmo_sigma_profile": { 
			"-0.025": 0.0,
			"-0.024": 0.0,
			"-0.023": 0.0,
			"-0.022": 0.0,
			"-0.021": 0.0,
			"-0.02": 0.0,
			"-0.019": 0.0,
			"-0.018": 0.0,
			"-0.017": 0.0,
			"-0.016": 0.0,
			"-0.015": 0.0,
			"-0.014": 0.0,
			"-0.013": 0.0,
			"-0.012": 0.0,
			"-0.011": 0.0,
			"-0.01": 0.0,
			"-0.009": 0.35332750479,
			"-0.008": 5.06136029587,
			"-0.007": 13.0915790088,
			"-0.006": 18.2394424786,
			"-0.005": 18.9267220563,
			"-0.004": 19.1141719687,
			"-0.003": 16.9405460471,
			"-0.002": 16.592213179,
			"-0.001": 16.2406430458,
			"0.0": 22.8716013795,
			"0.001": 37.0359433955,
			"0.002": 39.8002322396,
			"0.003": 34.3850321878,
			"0.004": 32.5950126438,
			"0.005": 13.0054330043,
			"0.006": 2.96468594575,
			"0.007": 1.56852457426,
			"0.008": 1.42602602838,
			"0.009": 1.06511557994,
			"0.01": 0.831599440182,
			"0.011": 0.595375939169,
			"0.012": 0.708866744829,
			"0.013": 0.759189983965,
			"0.014": 0.644622070745,
			"0.015": 0.397191549612,
			"0.016": 0.00233089878283,
			"0.017": 0.0,
			"0.018": 0.0,
			"0.019": 0.0,
			"0.02": 0.0,
			"0.021": 0.0,
			"0.022": 0.0,
			"0.023": 0.0,
			"0.024": 0.0,
			"0.025": 0.0
		}
	}
}
