{
	 "smiles": "CC1=C(N2C(SC1)C(NC(=O)C(N)C1=CCC=CC1)C2=O)C(O)=O", 
	 "Tm": 413.15, 
	 "num_atms": 43, 
	 "gaussian": { 
		 "optdone": 1, 
		 "sigma_profile": "yes", 
		 "theory": "DFT", 
		 "functional": "B3LYP", 
		 "basiset": "6-31G**", 
		 "properties": { 
			 "R2extent": 11308.4964, 
			 "electric_dipole_moment_norm": 4.16754821568, 
			 "electric_quadrupole_moment_norm": 33.3007014788, 
			 "total_energy": -1484.45464687, 
			 "HOMO_LUMO_gap": 0.17981, 
			 "cosmo_polarized_energy": -25.32, 
			 "cosmo_cavitation_energy": 47.05, 
			 "cosmo_dispersion_energy": -33.08, 
			 "cosmo_repulsion_energy": 2.49, 
			 "cosmo_total_nonelectrostatic_energy": 16.46, 
			 "SMD_solvation_energy": 7.21 
		},
		"coords": [
			{
				"x": 3.645585216,
				"y": -4.87294274,
				"z": 1.4632425319,
				"element": "C" 
			},
			{
				"x": 2.6881763406,
				"y": -3.9092919599,
				"z": 0.797059239,
				"element": "C" 
			},
			{
				"x": 1.9480545323,
				"y": -2.9936732196,
				"z": 1.4757232638,
				"element": "C" 
			},
			{
				"x": 1.1784462796,
				"y": -2.0506377057,
				"z": 0.7462143731,
				"element": "N" 
			},
			{
				"x": 1.2876686638,
				"y": -1.7572049057,
				"z": -0.6875645899,
				"element": "C" 
			},
			{
				"x": 1.3128983553,
				"y": -3.2916414785,
				"z": -1.6681742765,
				"element": "S" 
			},
			{
				"x": 2.6844235947,
				"y": -4.0523102237,
				"z": -0.7130310971,
				"element": "C" 
			},
			{
				"x": -0.0792648243,
				"y": -1.0080622457,
				"z": -0.5849777583,
				"element": "C" 
			},
			{
				"x": -0.1583070199,
				"y": 0.3771940145,
				"z": -0.9332470695,
				"element": "N" 
			},
			{
				"x": -1.1805859223,
				"y": 0.8500097699,
				"z": -1.7333521318,
				"element": "C" 
			},
			{
				"x": -1.9554382817,
				"y": 0.1033664747,
				"z": -2.3115069312,
				"element": "O" 
			},
			{
				"x": -1.2137237974,
				"y": 2.3837185758,
				"z": -1.9257184088,
				"element": "C" 
			},
			{
				"x": -2.3095921334,
				"y": 2.821183743,
				"z": -2.7867756859,
				"element": "N" 
			},
			{
				"x": -1.2330930932,
				"y": 3.1951446912,
				"z": -0.6340559073,
				"element": "C" 
			},
			{
				"x": -1.6801984538,
				"y": 2.7110052837,
				"z": 0.5331799903,
				"element": "C" 
			},
			{
				"x": -1.7867958976,
				"y": 3.5209234625,
				"z": 1.7981237506,
				"element": "C" 
			},
			{
				"x": -1.3421739913,
				"y": 4.948077131,
				"z": 1.6295234519,
				"element": "C" 
			},
			{
				"x": -0.9055329403,
				"y": 5.4440317048,
				"z": 0.4707386273,
				"element": "C" 
			},
			{
				"x": -0.8039574626,
				"y": 4.6370901274,
				"z": -0.7945356084,
				"element": "C" 
			},
			{
				"x": -0.0098996299,
				"y": -1.3760307121,
				"z": 0.9068301225,
				"element": "C" 
			},
			{
				"x": -0.6972354319,
				"y": -1.1529009034,
				"z": 1.8923238828,
				"element": "O" 
			},
			{
				"x": 1.9903019477,
				"y": -2.8844251271,
				"z": 2.9858577869,
				"element": "C" 
			},
			{
				"x": 1.0665112675,
				"y": -2.1464574657,
				"z": 3.6039622052,
				"element": "O" 
			},
			{
				"x": 2.8519399546,
				"y": -3.4512820676,
				"z": 3.627426542,
				"element": "O" 
			},
			{
				"x": 4.0915027943,
				"y": -5.5378953646,
				"z": 0.7180138365,
				"element": "H" 
			},
			{
				"x": 4.4412437856,
				"y": -4.3400793245,
				"z": 1.9884164671,
				"element": "H" 
			},
			{
				"x": 3.1445181972,
				"y": -5.4785815269,
				"z": 2.2225851165,
				"element": "H" 
			},
			{
				"x": 2.1457615261,
				"y": -1.1202712657,
				"z": -0.9213118428,
				"element": "H" 
			},
			{
				"x": 3.6470081643,
				"y": -3.6982320838,
				"z": -1.1054294494,
				"element": "H" 
			},
			{
				"x": 2.6293158749,
				"y": -5.1175565439,
				"z": -0.9594661913,
				"element": "H" 
			},
			{
				"x": -0.8894148749,
				"y": -1.5297042751,
				"z": -1.1035520932,
				"element": "H" 
			},
			{
				"x": 0.3042492347,
				"y": 1.0536309906,
				"z": -0.3401833374,
				"element": "H" 
			},
			{
				"x": -0.2769118323,
				"y": 2.6262448171,
				"z": -2.4532028744,
				"element": "H" 
			},
			{
				"x": -3.1877493015,
				"y": 2.5803361455,
				"z": -2.3306872277,
				"element": "H" 
			},
			{
				"x": -2.2936620651,
				"y": 2.2687222667,
				"z": -3.6418777354,
				"element": "H" 
			},
			{
				"x": -1.9993662657,
				"y": 1.6730306416,
				"z": 0.61050368,
				"element": "H" 
			},
			{
				"x": -2.8268703323,
				"y": 3.4902109918,
				"z": 2.1610589332,
				"element": "H" 
			},
			{
				"x": -1.2085821524,
				"y": 3.0334581066,
				"z": 2.5996283478,
				"element": "H" 
			},
			{
				"x": -1.3930160901,
				"y": 5.5866364269,
				"z": 2.5090002029,
				"element": "H" 
			},
			{
				"x": -0.6008176415,
				"y": 6.486926134,
				"z": 0.4086811206,
				"element": "H" 
			},
			{
				"x": -1.4066936228,
				"y": 5.0921622883,
				"z": -1.5939903851,
				"element": "H" 
			},
			{
				"x": 0.2302693494,
				"y": 4.6716309492,
				"z": -1.1772497517,
				"element": "H" 
			},
			{
				"x": 0.3360079797,
				"y": -1.7952535974,
				"z": 3.0345968813,
				"element": "H" 
			}
		],
		 "valence_orbital": [ 
			{
				"type": "occ",
				"energy": -0.26568,
				"method": "rhf"
			},
			{
				"type": "occ",
				"energy": -0.25777,
				"method": "rhf"
			},
			{
				"type": "occ",
				"energy": -0.25279,
				"method": "rhf"
			},
			{
				"type": "occ",
				"energy": -0.24376,
				"method": "rhf"
			},
			{
				"type": "occ",
				"energy": -0.23743,
				"method": "rhf"
			},
			{
				"type": "unocc",
				"energy": -0.05762,
				"method": "rhf"
			},
			{
				"type": "unocc",
				"energy": -0.01537,
				"method": "rhf"
			},
			{
				"type": "unocc",
				"energy": -0.00267,
				"method": "rhf"
			},
			{
				"type": "unocc",
				"energy": 0.00132,
				"method": "rhf"
			},
			{
				"type": "unocc",
				"energy": 0.00646,
				"method": "rhf"
			}
		],
		"cosmo_sigma_profile": { 
			"-0.025": 0.0,
			"-0.024": 0.0,
			"-0.023": 0.0,
			"-0.022": 0.0,
			"-0.021": 0.0,
			"-0.02": 0.0,
			"-0.019": 0.0,
			"-0.018": 0.0,
			"-0.017": 0.0,
			"-0.016": 0.0,
			"-0.015": 0.72144143449,
			"-0.014": 0.884970156664,
			"-0.013": 1.13009624009,
			"-0.012": 0.844810758638,
			"-0.011": 1.06015469844,
			"-0.01": 1.71820329618,
			"-0.009": 5.15815272312,
			"-0.008": 10.1273122531,
			"-0.007": 14.1518973949,
			"-0.006": 17.7021824556,
			"-0.005": 21.6835024087,
			"-0.004": 31.0693884213,
			"-0.003": 33.3809288054,
			"-0.002": 38.4043082786,
			"-0.001": 31.9214796925,
			"0.0": 22.7689499198,
			"0.001": 16.6028971508,
			"0.002": 15.2513990552,
			"0.003": 15.4964898479,
			"0.004": 14.3923725709,
			"0.005": 10.8610903719,
			"0.006": 10.0663293276,
			"0.007": 10.1249887155,
			"0.008": 7.90626870206,
			"0.009": 7.69961239353,
			"0.01": 8.09907798318,
			"0.011": 6.68728037036,
			"0.012": 8.83096552043,
			"0.013": 5.81671110986,
			"0.014": 1.70510091597,
			"0.015": 0.444377197258,
			"0.016": 0.611384876047,
			"0.017": 0.152345568118,
			"0.018": 0.0,
			"0.019": 0.0,
			"0.02": 0.0,
			"0.021": 0.0,
			"0.022": 0.0,
			"0.023": 0.0,
			"0.024": 0.0,
			"0.025": 0.0
		}
	}
}
