{
	 "smiles": "CS(=O)(=O)C1=C(F)C(C(O)=O)=C(F)C=C1", 
	 "Tm": 449.15, 
	 "num_atms": 21, 
	 "gaussian": { 
		 "optdone": 1, 
		 "sigma_profile": "yes", 
		 "theory": "DFT", 
		 "functional": "B3LYP", 
		 "basiset": "6-31G**", 
		 "properties": { 
			 "R2extent": 3711.2439, 
			 "electric_dipole_moment_norm": 4.85546380277, 
			 "electric_quadrupole_moment_norm": 16.033652378, 
			 "total_energy": -1207.1547456, 
			 "HOMO_LUMO_gap": 0.20801, 
			 "cosmo_polarized_energy": -19.7, 
			 "cosmo_cavitation_energy": 28.29, 
			 "cosmo_dispersion_energy": -20.92, 
			 "cosmo_repulsion_energy": 1.55, 
			 "cosmo_total_nonelectrostatic_energy": 8.93, 
			 "SMD_solvation_energy": 6.73 
		},
		"coords": [
			{
				"x": -1.976724865,
				"y": -2.0965946349,
				"z": -1.7693248812,
				"element": "C" 
			},
			{
				"x": -2.0819643018,
				"y": -0.2973562306,
				"z": -1.6946860396,
				"element": "S" 
			},
			{
				"x": -1.7596992377,
				"y": 0.237371457,
				"z": -3.0217279302,
				"element": "O" 
			},
			{
				"x": -3.3434596623,
				"y": 0.0588145102,
				"z": -1.026977022,
				"element": "O" 
			},
			{
				"x": -0.7667794514,
				"y": 0.1672414241,
				"z": -0.5440512152,
				"element": "C" 
			},
			{
				"x": 0.5755500626,
				"y": -0.1032865524,
				"z": -0.8070532732,
				"element": "C" 
			},
			{
				"x": 0.8825759029,
				"y": -0.8165595391,
				"z": -1.8958464115,
				"element": "F" 
			},
			{
				"x": 1.6024103752,
				"y": 0.2992072086,
				"z": 0.0604540804,
				"element": "C" 
			},
			{
				"x": 3.0269838816,
				"y": -0.0139472754,
				"z": -0.2719131938,
				"element": "C" 
			},
			{
				"x": 3.7887399962,
				"y": -0.1808361105,
				"z": 0.8304400825,
				"element": "O" 
			},
			{
				"x": 3.4593080587,
				"y": -0.1247919432,
				"z": -1.3968664462,
				"element": "O" 
			},
			{
				"x": 1.2066008462,
				"y": 1.0208408705,
				"z": 1.1997590956,
				"element": "C" 
			},
			{
				"x": 2.1356009513,
				"y": 1.4659676029,
				"z": 2.0507759844,
				"element": "F" 
			},
			{
				"x": -0.1227841866,
				"y": 1.3192231608,
				"z": 1.4796888442,
				"element": "C" 
			},
			{
				"x": -1.1106633724,
				"y": 0.8841318403,
				"z": 0.6034465409,
				"element": "C" 
			},
			{
				"x": -2.1754976209,
				"y": -2.5060994264,
				"z": -0.7780190508,
				"element": "H" 
			},
			{
				"x": -2.7478111011,
				"y": -2.4132853721,
				"z": -2.4745849271,
				"element": "H" 
			},
			{
				"x": -0.9881128519,
				"y": -2.3766358529,
				"z": -2.1323319504,
				"element": "H" 
			},
			{
				"x": 4.6874334087,
				"y": -0.3612094515,
				"z": 0.5054819662,
				"element": "H" 
			},
			{
				"x": -0.3584420183,
				"y": 1.8868996983,
				"z": 2.37214948,
				"element": "H" 
			},
			{
				"x": -2.1593648139,
				"y": 1.0922046163,
				"z": 0.786386267,
				"element": "H" 
			}
		],
		 "valence_orbital": [ 
			{
				"type": "occ",
				"energy": -0.30774,
				"method": "rhf"
			},
			{
				"type": "occ",
				"energy": -0.30273,
				"method": "rhf"
			},
			{
				"type": "occ",
				"energy": -0.30077,
				"method": "rhf"
			},
			{
				"type": "occ",
				"energy": -0.28847,
				"method": "rhf"
			},
			{
				"type": "occ",
				"energy": -0.28103,
				"method": "rhf"
			},
			{
				"type": "unocc",
				"energy": -0.07302,
				"method": "rhf"
			},
			{
				"type": "unocc",
				"energy": -0.04824,
				"method": "rhf"
			},
			{
				"type": "unocc",
				"energy": 0.01257,
				"method": "rhf"
			},
			{
				"type": "unocc",
				"energy": 0.03488,
				"method": "rhf"
			},
			{
				"type": "unocc",
				"energy": 0.06845,
				"method": "rhf"
			}
		],
		"cosmo_sigma_profile": { 
			"-0.025": 0.0,
			"-0.024": 0.0,
			"-0.023": 0.0,
			"-0.022": 0.0,
			"-0.021": 0.0,
			"-0.02": 0.0286155209363,
			"-0.019": 0.563951966956,
			"-0.018": 1.07526580485,
			"-0.017": 0.854480908911,
			"-0.016": 0.466579635887,
			"-0.015": 1.09195568752,
			"-0.014": 0.554562539582,
			"-0.013": 0.622666027093,
			"-0.012": 1.05595592361,
			"-0.011": 0.88814211954,
			"-0.01": 1.08529324851,
			"-0.009": 7.22210624084,
			"-0.008": 8.43780451143,
			"-0.007": 10.2446326361,
			"-0.006": 12.1072028833,
			"-0.005": 13.5857411899,
			"-0.004": 13.9330276103,
			"-0.003": 18.4491734063,
			"-0.002": 16.984578248,
			"-0.001": 12.1501774292,
			"0.0": 10.4320474006,
			"0.001": 7.5099631003,
			"0.002": 9.68797780492,
			"0.003": 10.7180500594,
			"0.004": 7.63465748765,
			"0.005": 6.0423901012,
			"0.006": 5.41642857151,
			"0.007": 6.73013467119,
			"0.008": 6.69651439863,
			"0.009": 5.81346816068,
			"0.01": 11.5351182523,
			"0.011": 14.5042291306,
			"0.012": 3.33689468209,
			"0.013": 0.0,
			"0.014": 0.0,
			"0.015": 0.0,
			"0.016": 0.0,
			"0.017": 0.0,
			"0.018": 0.0,
			"0.019": 0.0,
			"0.02": 0.0,
			"0.021": 0.0,
			"0.022": 0.0,
			"0.023": 0.0,
			"0.024": 0.0,
			"0.025": 0.0
		}
	}
}
