{
	 "smiles": "CC(C)CCCC(C)C1CCC2C3=CC=C4CC(O)CCC4(C)C3CCC12C", 
	 "Tm": 423.15, 
	 "num_atms": 72, 
	 "gaussian": { 
		 "optdone": 1, 
		 "sigma_profile": "yes", 
		 "theory": "DFT", 
		 "functional": "B3LYP", 
		 "basiset": "6-31G**", 
		 "properties": { 
			 "R2extent": 15195.2628, 
			 "electric_dipole_moment_norm": 1.28971125451, 
			 "electric_quadrupole_moment_norm": 13.9731169737, 
			 "total_energy": -1130.62515877, 
			 "HOMO_LUMO_gap": 0.17929, 
			 "cosmo_polarized_energy": -8.06, 
			 "cosmo_cavitation_energy": 61.59, 
			 "cosmo_dispersion_energy": -40.59, 
			 "cosmo_repulsion_energy": 3.06, 
			 "cosmo_total_nonelectrostatic_energy": 24.06, 
			 "SMD_solvation_energy": 8.62 
		},
		"coords": [
			{
				"x": 3.1537481963,
				"y": 4.5620903981,
				"z": -3.436330297,
				"element": "C" 
			},
			{
				"x": 2.8869176634,
				"y": 4.0640496495,
				"z": -2.00785693,
				"element": "C" 
			},
			{
				"x": 3.1604283034,
				"y": 5.1799580711,
				"z": -0.9879704603,
				"element": "C" 
			},
			{
				"x": 3.7143090977,
				"y": 2.8093623291,
				"z": -1.6574744284,
				"element": "C" 
			},
			{
				"x": 3.4778706117,
				"y": 1.5622123827,
				"z": -2.5276843408,
				"element": "C" 
			},
			{
				"x": 2.0486459674,
				"y": 0.9987475728,
				"z": -2.4457693382,
				"element": "C" 
			},
			{
				"x": 1.8637596358,
				"y": -0.3698845893,
				"z": -3.1394673458,
				"element": "C" 
			},
			{
				"x": 2.0916615188,
				"y": -0.2649905511,
				"z": -4.6598967945,
				"element": "C" 
			},
			{
				"x": 0.5072869934,
				"y": -1.0800840547,
				"z": -2.8660408307,
				"element": "C" 
			},
			{
				"x": -0.7466056403,
				"y": -0.2538266462,
				"z": -3.327566269,
				"element": "C" 
			},
			{
				"x": -1.7366057336,
				"y": -0.1927895936,
				"z": -2.1371076535,
				"element": "C" 
			},
			{
				"x": -0.8393011123,
				"y": -0.4316709059,
				"z": -0.9214366812,
				"element": "C" 
			},
			{
				"x": -1.4374608133,
				"y": -0.7453800591,
				"z": 0.4189599148,
				"element": "C" 
			},
			{
				"x": -2.7392518549,
				"y": -0.6578925385,
				"z": 0.7461525237,
				"element": "C" 
			},
			{
				"x": -3.1765250311,
				"y": -0.9294776366,
				"z": 2.1111177978,
				"element": "C" 
			},
			{
				"x": -2.3152537398,
				"y": -0.980464837,
				"z": 3.1477092652,
				"element": "C" 
			},
			{
				"x": -2.8058029103,
				"y": -1.0767772537,
				"z": 4.5737073917,
				"element": "C" 
			},
			{
				"x": -1.9495197759,
				"y": -1.9983630604,
				"z": 5.4532268883,
				"element": "C" 
			},
			{
				"x": -2.346733317,
				"y": -1.9407102907,
				"z": 6.8203753609,
				"element": "O" 
			},
			{
				"x": -0.4921691436,
				"y": -1.5607896108,
				"z": 5.3778319744,
				"element": "C" 
			},
			{
				"x": 0.018697477,
				"y": -1.6052447124,
				"z": 3.931931525,
				"element": "C" 
			},
			{
				"x": -0.8089446452,
				"y": -0.7687720557,
				"z": 2.9136748072,
				"element": "C" 
			},
			{
				"x": -0.511637713,
				"y": 0.7418944337,
				"z": 3.095164857,
				"element": "C" 
			},
			{
				"x": -0.458233826,
				"y": -1.2590453964,
				"z": 1.4718456277,
				"element": "C" 
			},
			{
				"x": 0.9955129438,
				"y": -1.0100842906,
				"z": 1.0194082162,
				"element": "C" 
			},
			{
				"x": 1.3206318741,
				"y": -1.658886263,
				"z": -0.3501450518,
				"element": "C" 
			},
			{
				"x": 0.1648062246,
				"y": -1.5280374145,
				"z": -1.3909424846,
				"element": "C" 
			},
			{
				"x": -0.5469970193,
				"y": -2.8998088297,
				"z": -1.4969686046,
				"element": "C" 
			},
			{
				"x": 2.8892843766,
				"y": 3.8149266655,
				"z": -4.1911829472,
				"element": "H" 
			},
			{
				"x": 4.2140225526,
				"y": 4.8105900877,
				"z": -3.5710515984,
				"element": "H" 
			},
			{
				"x": 2.5727172095,
				"y": 5.4656823074,
				"z": -3.6509497747,
				"element": "H" 
			},
			{
				"x": 1.821084539,
				"y": 3.8047125919,
				"z": -1.9344569516,
				"element": "H" 
			},
			{
				"x": 4.2135206415,
				"y": 5.4864158056,
				"z": -1.0161458375,
				"element": "H" 
			},
			{
				"x": 2.9381212457,
				"y": 4.8519668131,
				"z": 0.0335167041,
				"element": "H" 
			},
			{
				"x": 2.5520176812,
				"y": 6.0671515433,
				"z": -1.1949655083,
				"element": "H" 
			},
			{
				"x": 3.5183068077,
				"y": 2.5467308033,
				"z": -0.6080265262,
				"element": "H" 
			},
			{
				"x": 4.7801570523,
				"y": 3.0756050646,
				"z": -1.7070863467,
				"element": "H" 
			},
			{
				"x": 3.7384634694,
				"y": 1.7859728346,
				"z": -3.5684126961,
				"element": "H" 
			},
			{
				"x": 4.1828181656,
				"y": 0.78319722,
				"z": -2.205295513,
				"element": "H" 
			},
			{
				"x": 1.3447820913,
				"y": 1.724109708,
				"z": -2.8730986927,
				"element": "H" 
			},
			{
				"x": 1.7836037839,
				"y": 0.9116984836,
				"z": -1.3852649073,
				"element": "H" 
			},
			{
				"x": 2.6487132722,
				"y": -1.0357064839,
				"z": -2.7515954021,
				"element": "H" 
			},
			{
				"x": 3.0929471736,
				"y": 0.107004442,
				"z": -4.8950992206,
				"element": "H" 
			},
			{
				"x": 1.9842801058,
				"y": -1.2435863421,
				"z": -5.1405434887,
				"element": "H" 
			},
			{
				"x": 1.3690703446,
				"y": 0.4139336352,
				"z": -5.1275617927,
				"element": "H" 
			},
			{
				"x": 0.5575443076,
				"y": -1.9942522584,
				"z": -3.4700276371,
				"element": "H" 
			},
			{
				"x": -1.2115926548,
				"y": -0.6885821024,
				"z": -4.2174393987,
				"element": "H" 
			},
			{
				"x": -0.4492690279,
				"y": 0.7616342023,
				"z": -3.607198876,
				"element": "H" 
			},
			{
				"x": -2.4985251814,
				"y": -0.9760950269,
				"z": -2.2121780813,
				"element": "H" 
			},
			{
				"x": -2.2678988876,
				"y": 0.7632408733,
				"z": -2.0887169815,
				"element": "H" 
			},
			{
				"x": -0.2424316353,
				"y": 0.4855938762,
				"z": -0.7923082957,
				"element": "H" 
			},
			{
				"x": -3.4841282235,
				"y": -0.3626831998,
				"z": 0.011511061,
				"element": "H" 
			},
			{
				"x": -4.2450428266,
				"y": -1.0206781001,
				"z": 2.2997920465,
				"element": "H" 
			},
			{
				"x": -3.8556495411,
				"y": -1.3983058467,
				"z": 4.5823670886,
				"element": "H" 
			},
			{
				"x": -2.7791602932,
				"y": -0.0850407145,
				"z": 5.0515019219,
				"element": "H" 
			},
			{
				"x": -2.0297852648,
				"y": -3.0326104519,
				"z": 5.0747986247,
				"element": "H" 
			},
			{
				"x": -3.2745438156,
				"y": -2.2053237054,
				"z": 6.8709062893,
				"element": "H" 
			},
			{
				"x": -0.4135730627,
				"y": -0.5501855066,
				"z": 5.7979884459,
				"element": "H" 
			},
			{
				"x": 0.1183353089,
				"y": -2.2125341108,
				"z": 6.0126064965,
				"element": "H" 
			},
			{
				"x": 0.0166957376,
				"y": -2.6528662556,
				"z": 3.6005323547,
				"element": "H" 
			},
			{
				"x": 1.0633935253,
				"y": -1.2761345113,
				"z": 3.9082270362,
				"element": "H" 
			},
			{
				"x": 0.5593203579,
				"y": 0.9517315907,
				"z": 3.0045421232,
				"element": "H" 
			},
			{
				"x": -0.8308079993,
				"y": 1.093684272,
				"z": 4.0803902061,
				"element": "H" 
			},
			{
				"x": -1.0434027015,
				"y": 1.3314817016,
				"z": 2.3422859711,
				"element": "H" 
			},
			{
				"x": -0.602414811,
				"y": -2.3540135489,
				"z": 1.5078577746,
				"element": "H" 
			},
			{
				"x": 1.7006604604,
				"y": -1.3940178012,
				"z": 1.7633932779,
				"element": "H" 
			},
			{
				"x": 1.1748681159,
				"y": 0.0701330591,
				"z": 0.9621459302,
				"element": "H" 
			},
			{
				"x": 2.2517028978,
				"y": -1.2215820438,
				"z": -0.7205479588,
				"element": "H" 
			},
			{
				"x": 1.5380594176,
				"y": -2.722170471,
				"z": -0.1922404691,
				"element": "H" 
			},
			{
				"x": 0.1680446081,
				"y": -3.6604134928,
				"z": -1.8304492421,
				"element": "H" 
			},
			{
				"x": -0.9575578988,
				"y": -3.2261624307,
				"z": -0.5370557463,
				"element": "H" 
			},
			{
				"x": -1.3682856566,
				"y": -2.8869874231,
				"z": -2.2199121017,
				"element": "H" 
			}
		],
		 "valence_orbital": [ 
			{
				"type": "occ",
				"energy": -0.28316,
				"method": "rhf"
			},
			{
				"type": "occ",
				"energy": -0.28089,
				"method": "rhf"
			},
			{
				"type": "occ",
				"energy": -0.27496,
				"method": "rhf"
			},
			{
				"type": "occ",
				"energy": -0.26015,
				"method": "rhf"
			},
			{
				"type": "occ",
				"energy": -0.19355,
				"method": "rhf"
			},
			{
				"type": "unocc",
				"energy": -0.01426,
				"method": "rhf"
			},
			{
				"type": "unocc",
				"energy": 0.06835,
				"method": "rhf"
			},
			{
				"type": "unocc",
				"energy": 0.07665,
				"method": "rhf"
			},
			{
				"type": "unocc",
				"energy": 0.08083,
				"method": "rhf"
			},
			{
				"type": "unocc",
				"energy": 0.08573,
				"method": "rhf"
			}
		],
		"cosmo_sigma_profile": { 
			"-0.025": 0.0,
			"-0.024": 0.0,
			"-0.023": 0.0,
			"-0.022": 0.0,
			"-0.021": 0.0,
			"-0.02": 0.0,
			"-0.019": 0.0,
			"-0.018": 0.0,
			"-0.017": 0.0,
			"-0.016": 0.0370029975483,
			"-0.015": 0.64939815939,
			"-0.014": 0.838414066384,
			"-0.013": 1.03864468847,
			"-0.012": 1.05504189112,
			"-0.011": 0.821156582435,
			"-0.01": 0.722076699811,
			"-0.009": 0.966442634966,
			"-0.008": 0.946940436345,
			"-0.007": 0.972462502161,
			"-0.006": 1.50378017142,
			"-0.005": 1.0346670854,
			"-0.004": 6.00503729798,
			"-0.003": 24.9136032673,
			"-0.002": 76.365159243,
			"-0.001": 98.9751747235,
			"0.0": 90.4894339455,
			"0.001": 72.2352808072,
			"0.002": 46.0555898787,
			"0.003": 10.0720130236,
			"0.004": 6.68548454494,
			"0.005": 7.90536381573,
			"0.006": 5.90210788349,
			"0.007": 3.36749893886,
			"0.008": 1.59753493378,
			"0.009": 1.4208385559,
			"0.01": 1.43481485598,
			"0.011": 0.800359000225,
			"0.012": 1.32799137733,
			"0.013": 1.66985289975,
			"0.014": 2.0280862697,
			"0.015": 1.08087553914,
			"0.016": 0.0,
			"0.017": 0.0,
			"0.018": 0.0,
			"0.019": 0.0,
			"0.02": 0.0,
			"0.021": 0.0,
			"0.022": 0.0,
			"0.023": 0.0,
			"0.024": 0.0,
			"0.025": 0.0
		}
	}
}
