{
	 "smiles": "C1CC(CCN1)C1=CNN=C1", 
	 "Tm": 423.15, 
	 "num_atms": 24, 
	 "gaussian": { 
		 "optdone": 1, 
		 "sigma_profile": "yes", 
		 "theory": "DFT", 
		 "functional": "B3LYP", 
		 "basiset": "6-31G**", 
		 "properties": { 
			 "R2extent": 2044.9271, 
			 "electric_dipole_moment_norm": 1.43223035158, 
			 "electric_quadrupole_moment_norm": 13.2676252562, 
			 "total_energy": -476.904522498, 
			 "HOMO_LUMO_gap": 0.23102, 
			 "cosmo_polarized_energy": -11.76, 
			 "cosmo_cavitation_energy": 25.37, 
			 "cosmo_dispersion_energy": -18.92, 
			 "cosmo_repulsion_energy": 1.53, 
			 "cosmo_total_nonelectrostatic_energy": 7.98, 
			 "SMD_solvation_energy": 0.73 
		},
		"coords": [
			{
				"x": 0.1734577243,
				"y": -2.4974395309,
				"z": 0.5147151922,
				"element": "C" 
			},
			{
				"x": 0.5605666735,
				"y": -1.121000014,
				"z": 1.0558068536,
				"element": "C" 
			},
			{
				"x": 1.0068167113,
				"y": -0.1698345779,
				"z": -0.0873008716,
				"element": "C" 
			},
			{
				"x": 0.2314222684,
				"y": -0.5146356324,
				"z": -1.4010658001,
				"element": "C" 
			},
			{
				"x": -1.1354738725,
				"y": -1.1315966088,
				"z": -1.081315266,
				"element": "C" 
			},
			{
				"x": -1.0438325887,
				"y": -2.3835212328,
				"z": -0.3065768883,
				"element": "N" 
			},
			{
				"x": 0.8883393837,
				"y": 1.2847891402,
				"z": 0.2929569095,
				"element": "C" 
			},
			{
				"x": -0.1178915628,
				"y": 1.9321544644,
				"z": 0.9941655336,
				"element": "C" 
			},
			{
				"x": 0.2188758781,
				"y": 3.2496196593,
				"z": 1.0318833816,
				"element": "N" 
			},
			{
				"x": 1.3827281498,
				"y": 3.5205817727,
				"z": 0.4075465976,
				"element": "N" 
			},
			{
				"x": 1.785090365,
				"y": 2.3329121231,
				"z": -0.0416184695,
				"element": "C" 
			},
			{
				"x": 1.0347882247,
				"y": -2.9105555501,
				"z": -0.0421219285,
				"element": "H" 
			},
			{
				"x": -0.0222606575,
				"y": -3.1897206029,
				"z": 1.3432713743,
				"element": "H" 
			},
			{
				"x": 1.357595102,
				"y": -1.210965598,
				"z": 1.8008685728,
				"element": "H" 
			},
			{
				"x": -0.309428214,
				"y": -0.707449324,
				"z": 1.5788829247,
				"element": "H" 
			},
			{
				"x": 2.0696801116,
				"y": -0.3613823284,
				"z": -0.2823938856,
				"element": "H" 
			},
			{
				"x": 0.8137390418,
				"y": -1.2325781421,
				"z": -1.9924582124,
				"element": "H" 
			},
			{
				"x": 0.1160076377,
				"y": 0.3836099747,
				"z": -2.0164450559,
				"element": "H" 
			},
			{
				"x": -1.6954196742,
				"y": -1.3327603936,
				"z": -2.0007061001,
				"element": "H" 
			},
			{
				"x": -1.7330710305,
				"y": -0.3987152233,
				"z": -0.5194470231,
				"element": "H" 
			},
			{
				"x": -1.0993893729,
				"y": -3.1771353097,
				"z": -0.936022145,
				"element": "H" 
			},
			{
				"x": -1.0216459155,
				"y": 1.5680742397,
				"z": 1.4605250535,
				"element": "H" 
			},
			{
				"x": -0.2845637651,
				"y": 4.0015796028,
				"z": 1.4754859659,
				"element": "H" 
			},
			{
				"x": 2.7149693819,
				"y": 2.2566690919,
				"z": -0.591336713,
				"element": "H" 
			}
		],
		 "valence_orbital": [ 
			{
				"type": "occ",
				"energy": -0.31525,
				"method": "rhf"
			},
			{
				"type": "occ",
				"energy": -0.27804,
				"method": "rhf"
			},
			{
				"type": "occ",
				"energy": -0.24899,
				"method": "rhf"
			},
			{
				"type": "occ",
				"energy": -0.23178,
				"method": "rhf"
			},
			{
				"type": "occ",
				"energy": -0.20752,
				"method": "rhf"
			},
			{
				"type": "unocc",
				"energy": 0.0235,
				"method": "rhf"
			},
			{
				"type": "unocc",
				"energy": 0.06775,
				"method": "rhf"
			},
			{
				"type": "unocc",
				"energy": 0.08035,
				"method": "rhf"
			},
			{
				"type": "unocc",
				"energy": 0.08386,
				"method": "rhf"
			},
			{
				"type": "unocc",
				"energy": 0.0972,
				"method": "rhf"
			}
		],
		"cosmo_sigma_profile": { 
			"-0.025": 0.0,
			"-0.024": 0.0,
			"-0.023": 0.0,
			"-0.022": 0.0,
			"-0.021": 0.0,
			"-0.02": 0.0,
			"-0.019": 0.0,
			"-0.018": 0.0,
			"-0.017": 0.00293598419689,
			"-0.016": 1.35381483677,
			"-0.015": 1.57284351266,
			"-0.014": 1.4321477054,
			"-0.013": 0.826992470155,
			"-0.012": 0.323717436933,
			"-0.011": 1.30070425582,
			"-0.01": 1.52723293106,
			"-0.009": 2.62390608226,
			"-0.008": 3.85600135939,
			"-0.007": 3.99796575129,
			"-0.006": 5.33652004362,
			"-0.005": 6.07749247356,
			"-0.004": 8.20235146959,
			"-0.003": 14.725773688,
			"-0.002": 26.2689425666,
			"-0.001": 27.197587979,
			"0.0": 20.7782174054,
			"0.001": 13.7998733274,
			"0.002": 7.22583013586,
			"0.003": 7.15281852155,
			"0.004": 5.99541493452,
			"0.005": 6.83356851655,
			"0.006": 6.12253236739,
			"0.007": 2.59661388057,
			"0.008": 3.17930103392,
			"0.009": 2.65017907034,
			"0.01": 1.78365926252,
			"0.011": 2.14959619025,
			"0.012": 1.86383344525,
			"0.013": 1.77453121676,
			"0.014": 2.27395277915,
			"0.015": 1.55234254337,
			"0.016": 1.57605816759,
			"0.017": 0.830811057847,
			"0.018": 0.459805518895,
			"0.019": 0.444923007578,
			"0.02": 0.0,
			"0.021": 0.0,
			"0.022": 0.0,
			"0.023": 0.0,
			"0.024": 0.0,
			"0.025": 0.0
		}
	}
}
