{
	 "smiles": "OC(=O)CC1=CC=C(C=C1)S(=O)(=O)CC(F)(F)F", 
	 "Tm": 416.15, 
	 "num_atms": 27, 
	 "gaussian": { 
		 "optdone": 1, 
		 "sigma_profile": "yes", 
		 "theory": "DFT", 
		 "functional": "B3LYP", 
		 "basiset": "6-31G**", 
		 "properties": { 
			 "R2extent": 6635.8819, 
			 "electric_dipole_moment_norm": 5.62427149594, 
			 "electric_quadrupole_moment_norm": 14.3513676502, 
			 "total_energy": -1385.04419176, 
			 "HOMO_LUMO_gap": 0.22511, 
			 "cosmo_polarized_energy": -20.82, 
			 "cosmo_cavitation_energy": 34.69, 
			 "cosmo_dispersion_energy": -24.44, 
			 "cosmo_repulsion_energy": 1.81, 
			 "cosmo_total_nonelectrostatic_energy": 12.06, 
			 "SMD_solvation_energy": 7.3 
		},
		"coords": [
			{
				"x": -0.0745428409,
				"y": 0.1267647278,
				"z": 5.3178267049,
				"element": "O" 
			},
			{
				"x": 0.1422612917,
				"y": 0.3022175951,
				"z": 3.9939055043,
				"element": "C" 
			},
			{
				"x": 1.1609842806,
				"y": -0.0462869312,
				"z": 3.4428496927,
				"element": "O" 
			},
			{
				"x": -1.0316424551,
				"y": 1.0247103867,
				"z": 3.3469408761,
				"element": "C" 
			},
			{
				"x": -1.2065744602,
				"y": 0.739819928,
				"z": 1.8725750719,
				"element": "C" 
			},
			{
				"x": -2.4114627195,
				"y": 0.2008005974,
				"z": 1.4044901993,
				"element": "C" 
			},
			{
				"x": -2.6063023226,
				"y": -0.0448709293,
				"z": 0.0459668256,
				"element": "C" 
			},
			{
				"x": -1.5737691297,
				"y": 0.2472591679,
				"z": -0.8450581115,
				"element": "C" 
			},
			{
				"x": -0.3654077069,
				"y": 0.7918913167,
				"z": -0.4054354252,
				"element": "C" 
			},
			{
				"x": -0.1883610876,
				"y": 1.0355008941,
				"z": 0.9536594651,
				"element": "C" 
			},
			{
				"x": -1.833883626,
				"y": -0.034883832,
				"z": -2.5989540434,
				"element": "S" 
			},
			{
				"x": -0.9152099616,
				"y": 0.8268860208,
				"z": -3.3512032811,
				"element": "O" 
			},
			{
				"x": -3.2830143899,
				"y": -0.0253823217,
				"z": -2.8472577884,
				"element": "O" 
			},
			{
				"x": -1.3523274508,
				"y": -1.7846475455,
				"z": -2.8871312765,
				"element": "C" 
			},
			{
				"x": 0.1326738499,
				"y": -2.0943497504,
				"z": -2.905873798,
				"element": "C" 
			},
			{
				"x": 0.7654155007,
				"y": -1.4968436389,
				"z": -3.9240566558,
				"element": "F" 
			},
			{
				"x": 0.7399201188,
				"y": -1.7204942364,
				"z": -1.7596869598,
				"element": "F" 
			},
			{
				"x": 0.3041813589,
				"y": -3.4286608551,
				"z": -3.0385803618,
				"element": "F" 
			},
			{
				"x": 0.7270579416,
				"y": -0.294460036,
				"z": 5.6725703664,
				"element": "H" 
			},
			{
				"x": -0.8465019773,
				"y": 2.0964524671,
				"z": 3.506854601,
				"element": "H" 
			},
			{
				"x": -1.9394829892,
				"y": 0.7876323434,
				"z": 3.9066496295,
				"element": "H" 
			},
			{
				"x": -3.2110003759,
				"y": -0.0195560773,
				"z": 2.1064591048,
				"element": "H" 
			},
			{
				"x": -3.5495054615,
				"y": -0.4335058717,
				"z": -0.3227162974,
				"element": "H" 
			},
			{
				"x": 0.4129757996,
				"y": 1.0303061209,
				"z": -1.121053145,
				"element": "H" 
			},
			{
				"x": 0.7500712776,
				"y": 1.4474072238,
				"z": 1.3070124987,
				"element": "H" 
			},
			{
				"x": -1.7823605248,
				"y": -2.0235939477,
				"z": -3.8623828043,
				"element": "H" 
			},
			{
				"x": -1.8439919398,
				"y": -2.3879128163,
				"z": -2.1221705918,
				"element": "H" 
			}
		],
		 "valence_orbital": [ 
			{
				"type": "occ",
				"energy": -0.30779,
				"method": "rhf"
			},
			{
				"type": "occ",
				"energy": -0.29863,
				"method": "rhf"
			},
			{
				"type": "occ",
				"energy": -0.29547,
				"method": "rhf"
			},
			{
				"type": "occ",
				"energy": -0.27543,
				"method": "rhf"
			},
			{
				"type": "occ",
				"energy": -0.27488,
				"method": "rhf"
			},
			{
				"type": "unocc",
				"energy": -0.04977,
				"method": "rhf"
			},
			{
				"type": "unocc",
				"energy": -0.02719,
				"method": "rhf"
			},
			{
				"type": "unocc",
				"energy": -0.00603,
				"method": "rhf"
			},
			{
				"type": "unocc",
				"energy": 0.04261,
				"method": "rhf"
			},
			{
				"type": "unocc",
				"energy": 0.06287,
				"method": "rhf"
			}
		],
		"cosmo_sigma_profile": { 
			"-0.025": 0.0,
			"-0.024": 0.0,
			"-0.023": 0.0,
			"-0.022": 0.0,
			"-0.021": 0.0,
			"-0.02": 0.0,
			"-0.019": 0.0503602429093,
			"-0.018": 0.875796842569,
			"-0.017": 1.11969999965,
			"-0.016": 0.776612084561,
			"-0.015": 0.366709348341,
			"-0.014": 0.886062064455,
			"-0.013": 0.771601546993,
			"-0.012": 1.80784059093,
			"-0.011": 3.29944438882,
			"-0.01": 5.57651561791,
			"-0.009": 5.00440738364,
			"-0.008": 8.97932363145,
			"-0.007": 13.6502197309,
			"-0.006": 15.3309786956,
			"-0.005": 13.6772518856,
			"-0.004": 12.5485039017,
			"-0.003": 12.0673237566,
			"-0.002": 12.3508026094,
			"-0.001": 13.2292585196,
			"0.0": 12.0906713398,
			"0.001": 19.2204467983,
			"0.002": 39.1884958061,
			"0.003": 19.1863036695,
			"0.004": 6.70827808005,
			"0.005": 5.69948950275,
			"0.006": 5.72611213221,
			"0.007": 5.86454500614,
			"0.008": 6.91459924648,
			"0.009": 7.80555431079,
			"0.01": 10.3333036014,
			"0.011": 12.5751063239,
			"0.012": 2.82847778792,
			"0.013": 0.0,
			"0.014": 0.0,
			"0.015": 0.0,
			"0.016": 0.0,
			"0.017": 0.0,
			"0.018": 0.0,
			"0.019": 0.0,
			"0.02": 0.0,
			"0.021": 0.0,
			"0.022": 0.0,
			"0.023": 0.0,
			"0.024": 0.0,
			"0.025": 0.0
		}
	}
}
