{
	 "smiles": "OC(=O)CCOC1=C(F)C=C(F)C=C1", 
	 "Tm": 350.15, 
	 "num_atms": 22, 
	 "gaussian": { 
		 "optdone": 1, 
		 "sigma_profile": "yes", 
		 "theory": "DFT", 
		 "functional": "B3LYP", 
		 "basiset": "6-31G**", 
		 "properties": { 
			 "R2extent": 3801.1588, 
			 "electric_dipole_moment_norm": 3.44914049873, 
			 "electric_quadrupole_moment_norm": 16.0583559476, 
			 "total_energy": -773.108510766, 
			 "HOMO_LUMO_gap": 0.2213, 
			 "cosmo_polarized_energy": -16.17, 
			 "cosmo_cavitation_energy": 28.27, 
			 "cosmo_dispersion_energy": -19.85, 
			 "cosmo_repulsion_energy": 1.54, 
			 "cosmo_total_nonelectrostatic_energy": 9.96, 
			 "SMD_solvation_energy": 7.11 
		},
		"coords": [
			{
				"x": -2.6059256423,
				"y": -2.9750652088,
				"z": -1.9199068442,
				"element": "O" 
			},
			{
				"x": -1.5202695057,
				"y": -2.1849138034,
				"z": -1.7189144667,
				"element": "C" 
			},
			{
				"x": -0.4420701197,
				"y": -2.6781539345,
				"z": -1.5044540775,
				"element": "O" 
			},
			{
				"x": -1.7634148575,
				"y": -0.680907807,
				"z": -1.8398129745,
				"element": "C" 
			},
			{
				"x": -0.7174019194,
				"y": 0.120254071,
				"z": -1.0853970946,
				"element": "C" 
			},
			{
				"x": -0.9632747267,
				"y": -0.1008481941,
				"z": 0.3113363367,
				"element": "O" 
			},
			{
				"x": 0.0489317629,
				"y": 0.2562486356,
				"z": 1.1662648536,
				"element": "C" 
			},
			{
				"x": 0.4174697975,
				"y": 1.5937211225,
				"z": 1.354811356,
				"element": "C" 
			},
			{
				"x": -0.206127218,
				"y": 2.5486934223,
				"z": 0.6311046494,
				"element": "F" 
			},
			{
				"x": 1.4025368948,
				"y": 1.967524394,
				"z": 2.2585297816,
				"element": "C" 
			},
			{
				"x": 2.0209891834,
				"y": 0.9617530815,
				"z": 2.9952935368,
				"element": "C" 
			},
			{
				"x": 2.9759591363,
				"y": 1.3083094291,
				"z": 3.8817533887,
				"element": "F" 
			},
			{
				"x": 1.6865227713,
				"y": -0.3789708882,
				"z": 2.8439653148,
				"element": "C" 
			},
			{
				"x": 0.7011151478,
				"y": -0.7230330707,
				"z": 1.9174360113,
				"element": "C" 
			},
			{
				"x": -3.3972390136,
				"y": -2.4332472747,
				"z": -2.0475699136,
				"element": "H" 
			},
			{
				"x": -1.7290680613,
				"y": -0.420261761,
				"z": -2.9058417072,
				"element": "H" 
			},
			{
				"x": -2.7616523042,
				"y": -0.4136128987,
				"z": -1.4729711379,
				"element": "H" 
			},
			{
				"x": 0.2833323178,
				"y": -0.2388151598,
				"z": -1.3488179493,
				"element": "H" 
			},
			{
				"x": -0.7968258329,
				"y": 1.1868797422,
				"z": -1.3212862861,
				"element": "H" 
			},
			{
				"x": 1.6714297536,
				"y": 3.0088067204,
				"z": 2.388445437,
				"element": "H" 
			},
			{
				"x": 2.1972940556,
				"y": -1.1307562793,
				"z": 3.4345420718,
				"element": "H" 
			},
			{
				"x": 0.4181883805,
				"y": -1.7577043385,
				"z": 1.756489714,
				"element": "H" 
			}
		],
		 "valence_orbital": [ 
			{
				"type": "occ",
				"energy": -0.32127,
				"method": "rhf"
			},
			{
				"type": "occ",
				"energy": -0.29162,
				"method": "rhf"
			},
			{
				"type": "occ",
				"energy": -0.27812,
				"method": "rhf"
			},
			{
				"type": "occ",
				"energy": -0.26197,
				"method": "rhf"
			},
			{
				"type": "occ",
				"energy": -0.23588,
				"method": "rhf"
			},
			{
				"type": "unocc",
				"energy": -0.01458,
				"method": "rhf"
			},
			{
				"type": "unocc",
				"energy": 0.00017,
				"method": "rhf"
			},
			{
				"type": "unocc",
				"energy": 0.00468,
				"method": "rhf"
			},
			{
				"type": "unocc",
				"energy": 0.04967,
				"method": "rhf"
			},
			{
				"type": "unocc",
				"energy": 0.06977,
				"method": "rhf"
			}
		],
		"cosmo_sigma_profile": { 
			"-0.025": 0.0,
			"-0.024": 0.0,
			"-0.023": 0.0,
			"-0.022": 0.0,
			"-0.021": 0.0,
			"-0.02": 0.0696490055645,
			"-0.019": 0.757358263566,
			"-0.018": 1.27577230868,
			"-0.017": 0.967424485369,
			"-0.016": 1.05110326885,
			"-0.015": 1.31550833843,
			"-0.014": 1.09593300178,
			"-0.013": 0.900980653326,
			"-0.012": 1.13676947032,
			"-0.011": 1.34827661452,
			"-0.01": 0.781044773798,
			"-0.009": 3.11307829079,
			"-0.008": 6.6030366744,
			"-0.007": 8.84456193522,
			"-0.006": 9.41431067791,
			"-0.005": 13.1374946392,
			"-0.004": 12.3103111912,
			"-0.003": 10.452131357,
			"-0.002": 9.06350023629,
			"-0.001": 9.19465335929,
			"0.0": 16.622932069,
			"0.001": 21.1787989647,
			"0.002": 17.7661154696,
			"0.003": 17.0668100846,
			"0.004": 20.5117481465,
			"0.005": 7.17654896138,
			"0.006": 4.63862081036,
			"0.007": 3.3801005184,
			"0.008": 3.94070260878,
			"0.009": 4.56240249461,
			"0.01": 5.56252807777,
			"0.011": 4.81355261271,
			"0.012": 4.12314435215,
			"0.013": 1.37004489313,
			"0.014": 0.0226818138148,
			"0.015": 0.0,
			"0.016": 0.0,
			"0.017": 0.0,
			"0.018": 0.0,
			"0.019": 0.0,
			"0.02": 0.0,
			"0.021": 0.0,
			"0.022": 0.0,
			"0.023": 0.0,
			"0.024": 0.0,
			"0.025": 0.0
		}
	}
}
