{
	 "smiles": "COC1=CC(C=O)=CC(OC)=C1OC(F)F", 
	 "Tm": 389.15, 
	 "num_atms": 26, 
	 "gaussian": { 
		 "optdone": 1, 
		 "sigma_profile": "yes", 
		 "theory": "DFT", 
		 "functional": "B3LYP", 
		 "basiset": "6-31G**", 
		 "properties": { 
			 "R2extent": 4586.5937, 
			 "electric_dipole_moment_norm": 2.79444883474, 
			 "electric_quadrupole_moment_norm": 17.9937410026, 
			 "total_energy": -887.611655883, 
			 "HOMO_LUMO_gap": 0.17025, 
			 "cosmo_polarized_energy": -9.91, 
			 "cosmo_cavitation_energy": 31.4, 
			 "cosmo_dispersion_energy": -21.66, 
			 "cosmo_repulsion_energy": 1.65, 
			 "cosmo_total_nonelectrostatic_energy": 11.39, 
			 "SMD_solvation_energy": 9.15 
		},
		"coords": [
			{
				"x": -0.2810535397,
				"y": -3.7297936763,
				"z": -1.0812928927,
				"element": "C" 
			},
			{
				"x": 0.8986308976,
				"y": -3.2908583488,
				"z": -0.3906678585,
				"element": "O" 
			},
			{
				"x": 1.2167617001,
				"y": -1.9638752274,
				"z": -0.5670197529,
				"element": "C" 
			},
			{
				"x": 2.2707901167,
				"y": -1.6075818476,
				"z": -1.39177317,
				"element": "C" 
			},
			{
				"x": 2.6143559698,
				"y": -0.2518181455,
				"z": -1.504701922,
				"element": "C" 
			},
			{
				"x": 3.7380177563,
				"y": 0.1590635517,
				"z": -2.3796932731,
				"element": "C" 
			},
			{
				"x": 4.4163581648,
				"y": -0.6088321081,
				"z": -3.0337932665,
				"element": "O" 
			},
			{
				"x": 1.8974785279,
				"y": 0.7208289197,
				"z": -0.8122111736,
				"element": "C" 
			},
			{
				"x": 0.8288406468,
				"y": 0.3790105478,
				"z": 0.0334410348,
				"element": "C" 
			},
			{
				"x": 0.239683068,
				"y": 1.4285741706,
				"z": 0.6553482819,
				"element": "O" 
			},
			{
				"x": -1.0488346005,
				"y": 1.3362066329,
				"z": 1.2743891809,
				"element": "C" 
			},
			{
				"x": 0.5049343766,
				"y": -0.9839599991,
				"z": 0.1631202625,
				"element": "C" 
			},
			{
				"x": -0.5501484831,
				"y": -1.4010449995,
				"z": 0.9683275821,
				"element": "O" 
			},
			{
				"x": -0.201384911,
				"y": -2.0810630449,
				"z": 2.122272456,
				"element": "C" 
			},
			{
				"x": -1.2869710734,
				"y": -2.7832717482,
				"z": 2.4932722944,
				"element": "F" 
			},
			{
				"x": 0.0725522368,
				"y": -1.1877250225,
				"z": 3.1163125934,
				"element": "F" 
			},
			{
				"x": -0.3741690338,
				"y": -4.79696198,
				"z": -0.8731376846,
				"element": "H" 
			},
			{
				"x": -0.1749081064,
				"y": -3.5765875545,
				"z": -2.1615232336,
				"element": "H" 
			},
			{
				"x": -1.1718975399,
				"y": -3.2066356506,
				"z": -0.7193076478,
				"element": "H" 
			},
			{
				"x": 2.8269321451,
				"y": -2.361721436,
				"z": -1.9364416902,
				"element": "H" 
			},
			{
				"x": 3.9293043664,
				"y": 1.2547223624,
				"z": -2.4021048791,
				"element": "H" 
			},
			{
				"x": 2.1510846933,
				"y": 1.7729140579,
				"z": -0.9032575431,
				"element": "H" 
			},
			{
				"x": -1.3381121399,
				"y": 2.3703012137,
				"z": 1.4702133199,
				"element": "H" 
			},
			{
				"x": -1.0034151841,
				"y": 0.7791404039,
				"z": 2.2110455442,
				"element": "H" 
			},
			{
				"x": -1.7801343714,
				"y": 0.8707841705,
				"z": 0.6074789296,
				"element": "H" 
			},
			{
				"x": 0.658604317,
				"y": -2.7410152423,
				"z": 1.990204508,
				"element": "H" 
			}
		],
		 "valence_orbital": [ 
			{
				"type": "occ",
				"energy": -0.31745,
				"method": "rhf"
			},
			{
				"type": "occ",
				"energy": -0.29199,
				"method": "rhf"
			},
			{
				"type": "occ",
				"energy": -0.26054,
				"method": "rhf"
			},
			{
				"type": "occ",
				"energy": -0.25835,
				"method": "rhf"
			},
			{
				"type": "occ",
				"energy": -0.23735,
				"method": "rhf"
			},
			{
				"type": "unocc",
				"energy": -0.0671,
				"method": "rhf"
			},
			{
				"type": "unocc",
				"energy": -0.01392,
				"method": "rhf"
			},
			{
				"type": "unocc",
				"energy": 0.03605,
				"method": "rhf"
			},
			{
				"type": "unocc",
				"energy": 0.06635,
				"method": "rhf"
			},
			{
				"type": "unocc",
				"energy": 0.10261,
				"method": "rhf"
			}
		],
		"cosmo_sigma_profile": { 
			"-0.025": 0.0,
			"-0.024": 0.0,
			"-0.023": 0.0,
			"-0.022": 0.0,
			"-0.021": 0.0,
			"-0.02": 0.0,
			"-0.019": 0.0,
			"-0.018": 0.0,
			"-0.017": 0.0,
			"-0.016": 0.0,
			"-0.015": 0.0,
			"-0.014": 0.0,
			"-0.013": 0.0,
			"-0.012": 0.0,
			"-0.011": 0.0,
			"-0.01": 0.933782117371,
			"-0.009": 1.69017977484,
			"-0.008": 3.71524968554,
			"-0.007": 6.23711255619,
			"-0.006": 10.7722917193,
			"-0.005": 15.7521797158,
			"-0.004": 20.9687698795,
			"-0.003": 26.1828113067,
			"-0.002": 18.7060012099,
			"-0.001": 17.5442569067,
			"0.0": 18.2722382185,
			"0.001": 21.2885461568,
			"0.002": 18.3127743212,
			"0.003": 20.9917350085,
			"0.004": 15.9379536276,
			"0.005": 5.57841255444,
			"0.006": 5.07618652724,
			"0.007": 3.32505527607,
			"0.008": 3.82586422106,
			"0.009": 3.79512672256,
			"0.01": 4.3399053004,
			"0.011": 4.67810448102,
			"0.012": 2.27777427036,
			"0.013": 0.383089418326,
			"0.014": 0.0,
			"0.015": 0.0,
			"0.016": 0.0,
			"0.017": 0.0,
			"0.018": 0.0,
			"0.019": 0.0,
			"0.02": 0.0,
			"0.021": 0.0,
			"0.022": 0.0,
			"0.023": 0.0,
			"0.024": 0.0,
			"0.025": 0.0
		}
	}
}
