{
	 "smiles": "CC1CC(C)CN(C1)S(=O)(=O)C1=CN=C(NN)C=C1", 
	 "Tm": 491.15, 
	 "num_atms": 39, 
	 "gaussian": { 
		 "optdone": 1, 
		 "sigma_profile": "yes", 
		 "theory": "DFT", 
		 "functional": "B3LYP", 
		 "basiset": "6-31G**", 
		 "properties": { 
			 "R2extent": 6714.5599, 
			 "electric_dipole_moment_norm": 6.14309333317, 
			 "electric_quadrupole_moment_norm": 31.3224685113, 
			 "total_energy": -1236.87691293, 
			 "HOMO_LUMO_gap": 0.19556, 
			 "cosmo_polarized_energy": -19.03, 
			 "cosmo_cavitation_energy": 41.11, 
			 "cosmo_dispersion_energy": -29.03, 
			 "cosmo_repulsion_energy": 2.22, 
			 "cosmo_total_nonelectrostatic_energy": 14.3, 
			 "SMD_solvation_energy": 4.6 
		},
		"coords": [
			{
				"x": 2.561779395,
				"y": -3.7139327866,
				"z": 0.1358991538,
				"element": "C" 
			},
			{
				"x": 2.2077077133,
				"y": -2.2362275838,
				"z": -0.0974906393,
				"element": "C" 
			},
			{
				"x": 2.7713162191,
				"y": -1.3094137072,
				"z": 0.9942837978,
				"element": "C" 
			},
			{
				"x": 2.1220250782,
				"y": -1.5357148411,
				"z": 2.3783417159,
				"element": "C" 
			},
			{
				"x": 2.3323379217,
				"y": -0.3148626797,
				"z": 3.2824334267,
				"element": "C" 
			},
			{
				"x": 0.6176553996,
				"y": -1.8805873816,
				"z": 2.2188791618,
				"element": "C" 
			},
			{
				"x": 0.1317670916,
				"y": -1.3188087046,
				"z": 0.9446691447,
				"element": "N" 
			},
			{
				"x": 0.6725097493,
				"y": -2.0125489787,
				"z": -0.2426315746,
				"element": "C" 
			},
			{
				"x": -1.5323869067,
				"y": -0.9846190074,
				"z": 0.8617870705,
				"element": "S" 
			},
			{
				"x": -2.2696936967,
				"y": -2.1069082845,
				"z": 0.2582305095,
				"element": "O" 
			},
			{
				"x": -1.9107663346,
				"y": -0.4807732311,
				"z": 2.1874560526,
				"element": "O" 
			},
			{
				"x": -1.5747702204,
				"y": 0.3578695444,
				"z": -0.3069626483,
				"element": "C" 
			},
			{
				"x": -1.0598870104,
				"y": 1.6111771924,
				"z": 0.034568331,
				"element": "C" 
			},
			{
				"x": -1.1049973706,
				"y": 2.6618908825,
				"z": -0.7811652344,
				"element": "N" 
			},
			{
				"x": -1.6767290245,
				"y": 2.4969263473,
				"z": -1.9907919881,
				"element": "C" 
			},
			{
				"x": -1.6435588531,
				"y": 3.6193357782,
				"z": -2.7859588044,
				"element": "N" 
			},
			{
				"x": -2.4361653231,
				"y": 3.6868464484,
				"z": -3.9367291527,
				"element": "N" 
			},
			{
				"x": -2.2395905173,
				"y": 1.2775597403,
				"z": -2.4220613664,
				"element": "C" 
			},
			{
				"x": -2.1840784676,
				"y": 0.1973696977,
				"z": -1.557841394,
				"element": "C" 
			},
			{
				"x": 2.1948768191,
				"y": -4.3380508975,
				"z": -0.6859588988,
				"element": "H" 
			},
			{
				"x": 2.1251269676,
				"y": -4.1037255997,
				"z": 1.0612187065,
				"element": "H" 
			},
			{
				"x": 3.6474281799,
				"y": -3.8476563306,
				"z": 0.1976789274,
				"element": "H" 
			},
			{
				"x": 2.6669452236,
				"y": -1.9443680953,
				"z": -1.0499212113,
				"element": "H" 
			},
			{
				"x": 3.8580751816,
				"y": -1.4351345648,
				"z": 1.0684087486,
				"element": "H" 
			},
			{
				"x": 2.5951014015,
				"y": -0.2702551191,
				"z": 0.6918596643,
				"element": "H" 
			},
			{
				"x": 2.6010082567,
				"y": -2.4006135971,
				"z": 2.8551083932,
				"element": "H" 
			},
			{
				"x": 1.7978566542,
				"y": 0.5549959604,
				"z": 2.8839625853,
				"element": "H" 
			},
			{
				"x": 1.9631104486,
				"y": -0.4999459554,
				"z": 4.2968213185,
				"element": "H" 
			},
			{
				"x": 3.3938565365,
				"y": -0.052400725,
				"z": 3.3534140454,
				"element": "H" 
			},
			{
				"x": 0.4579203593,
				"y": -2.9692337464,
				"z": 2.2413910066,
				"element": "H" 
			},
			{
				"x": 0.0296538338,
				"y": -1.446109645,
				"z": 3.028252222,
				"element": "H" 
			},
			{
				"x": 0.4650084776,
				"y": -1.3823627179,
				"z": -1.1131133653,
				"element": "H" 
			},
			{
				"x": 0.1567163994,
				"y": -2.9705703422,
				"z": -0.3989748539,
				"element": "H" 
			},
			{
				"x": -0.6037070606,
				"y": 1.769874369,
				"z": 1.0087299632,
				"element": "H" 
			},
			{
				"x": -1.3774020869,
				"y": 4.46636412,
				"z": -2.2943425426,
				"element": "H" 
			},
			{
				"x": -1.8901568731,
				"y": 4.0678107514,
				"z": -4.7032914067,
				"element": "H" 
			},
			{
				"x": -3.2537124316,
				"y": 4.2755767894,
				"z": -3.7870183658,
				"element": "H" 
			},
			{
				"x": -2.6992376314,
				"y": 1.213962484,
				"z": -3.3996477434,
				"element": "H" 
			},
			{
				"x": -2.6081434987,
				"y": -0.764435583,
				"z": -1.8265927551,
				"element": "H" 
			}
		],
		 "valence_orbital": [ 
			{
				"type": "occ",
				"energy": -0.28749,
				"method": "rhf"
			},
			{
				"type": "occ",
				"energy": -0.28623,
				"method": "rhf"
			},
			{
				"type": "occ",
				"energy": -0.26642,
				"method": "rhf"
			},
			{
				"type": "occ",
				"energy": -0.24192,
				"method": "rhf"
			},
			{
				"type": "occ",
				"energy": -0.22116,
				"method": "rhf"
			},
			{
				"type": "unocc",
				"energy": -0.0256,
				"method": "rhf"
			},
			{
				"type": "unocc",
				"energy": -0.01971,
				"method": "rhf"
			},
			{
				"type": "unocc",
				"energy": 0.05983,
				"method": "rhf"
			},
			{
				"type": "unocc",
				"energy": 0.06593,
				"method": "rhf"
			},
			{
				"type": "unocc",
				"energy": 0.08727,
				"method": "rhf"
			}
		],
		"cosmo_sigma_profile": { 
			"-0.025": 0.0,
			"-0.024": 0.0,
			"-0.023": 0.0,
			"-0.022": 0.0,
			"-0.021": 0.0,
			"-0.02": 0.0,
			"-0.019": 0.0,
			"-0.018": 0.0,
			"-0.017": 0.0,
			"-0.016": 0.0,
			"-0.015": 0.0,
			"-0.014": 0.0534111751706,
			"-0.013": 1.01232393647,
			"-0.012": 3.67790246272,
			"-0.011": 5.07185511846,
			"-0.01": 5.43207269914,
			"-0.009": 3.87981384698,
			"-0.008": 3.22296122805,
			"-0.007": 4.67183359208,
			"-0.006": 5.23550229152,
			"-0.005": 7.50952864124,
			"-0.004": 14.9209129535,
			"-0.003": 35.0890245368,
			"-0.002": 38.5061218278,
			"-0.001": 37.4541843959,
			"0.0": 30.5948243389,
			"0.001": 32.3088409672,
			"0.002": 19.7020027108,
			"0.003": 11.8778487518,
			"0.004": 7.13186653149,
			"0.005": 7.59145756038,
			"0.006": 6.43357860339,
			"0.007": 5.10435699711,
			"0.008": 3.91230771252,
			"0.009": 5.56541371946,
			"0.01": 6.36124907449,
			"0.011": 10.04181911,
			"0.012": 7.02267135988,
			"0.013": 0.899998658039,
			"0.014": 0.842867648906,
			"0.015": 0.0533291368012,
			"0.016": 0.0,
			"0.017": 0.0,
			"0.018": 0.0,
			"0.019": 0.0,
			"0.02": 0.0,
			"0.021": 0.0,
			"0.022": 0.0,
			"0.023": 0.0,
			"0.024": 0.0,
			"0.025": 0.0
		}
	}
}
