{
	 "smiles": "NC1CCC(=O)NC1=O", 
	 "Tm": 488.15, 
	 "num_atms": 17, 
	 "gaussian": { 
		 "optdone": 1, 
		 "sigma_profile": "yes", 
		 "theory": "DFT", 
		 "functional": "B3LYP", 
		 "basiset": "6-31G**", 
		 "properties": { 
			 "R2extent": 1285.8898, 
			 "electric_dipole_moment_norm": 1.77216352236, 
			 "electric_quadrupole_moment_norm": 10.7187389846, 
			 "total_energy": -455.334916296, 
			 "HOMO_LUMO_gap": 0.22068, 
			 "cosmo_polarized_energy": -14.78, 
			 "cosmo_cavitation_energy": 20.32, 
			 "cosmo_dispersion_energy": -15.28, 
			 "cosmo_repulsion_energy": 1.27, 
			 "cosmo_total_nonelectrostatic_energy": 6.31, 
			 "SMD_solvation_energy": 3.47 
		},
		"coords": [
			{
				"x": -0.1533611613,
				"y": -2.6340948568,
				"z": 0.3010177092,
				"element": "N" 
			},
			{
				"x": -0.0569636077,
				"y": -1.2094889619,
				"z": 0.021999342,
				"element": "C" 
			},
			{
				"x": -0.8400418828,
				"y": -0.8194859812,
				"z": -1.2356840687,
				"element": "C" 
			},
			{
				"x": -0.689401134,
				"y": 0.6767532442,
				"z": -1.5285225368,
				"element": "C" 
			},
			{
				"x": -1.0277696716,
				"y": 1.562118038,
				"z": -0.3411822708,
				"element": "C" 
			},
			{
				"x": -1.401634456,
				"y": 2.7143947586,
				"z": -0.4354081183,
				"element": "O" 
			},
			{
				"x": -0.8631725559,
				"y": 0.9708864829,
				"z": 0.9159746272,
				"element": "N" 
			},
			{
				"x": -0.4726210873,
				"y": -0.3323946544,
				"z": 1.2153466079,
				"element": "C" 
			},
			{
				"x": -0.4471213979,
				"y": -0.727458626,
				"z": 2.3667367263,
				"element": "O" 
			},
			{
				"x": -1.1335042474,
				"y": -2.8802218425,
				"z": 0.4334489368,
				"element": "H" 
			},
			{
				"x": 0.2861967896,
				"y": -2.8124774695,
				"z": 1.202375716,
				"element": "H" 
			},
			{
				"x": 1.0051816199,
				"y": -0.9756109313,
				"z": -0.1546240103,
				"element": "H" 
			},
			{
				"x": -1.900806637,
				"y": -1.066448989,
				"z": -1.0925640855,
				"element": "H" 
			},
			{
				"x": -0.4847892768,
				"y": -1.4177412031,
				"z": -2.0787165215,
				"element": "H" 
			},
			{
				"x": -1.3163678363,
				"y": 1.0046630421,
				"z": -2.360763463,
				"element": "H" 
			},
			{
				"x": 0.3486293354,
				"y": 0.9033358182,
				"z": -1.8092953024,
				"element": "H" 
			},
			{
				"x": -1.1008527929,
				"y": 1.5574721318,
				"z": 1.7104607119,
				"element": "H" 
			}
		],
		 "valence_orbital": [ 
			{
				"type": "occ",
				"energy": -0.35816,
				"method": "rhf"
			},
			{
				"type": "occ",
				"energy": -0.29173,
				"method": "rhf"
			},
			{
				"type": "occ",
				"energy": -0.28893,
				"method": "rhf"
			},
			{
				"type": "occ",
				"energy": -0.2705,
				"method": "rhf"
			},
			{
				"type": "occ",
				"energy": -0.25243,
				"method": "rhf"
			},
			{
				"type": "unocc",
				"energy": -0.03175,
				"method": "rhf"
			},
			{
				"type": "unocc",
				"energy": 0.0219,
				"method": "rhf"
			},
			{
				"type": "unocc",
				"energy": 0.08206,
				"method": "rhf"
			},
			{
				"type": "unocc",
				"energy": 0.08693,
				"method": "rhf"
			},
			{
				"type": "unocc",
				"energy": 0.10585,
				"method": "rhf"
			}
		],
		"cosmo_sigma_profile": { 
			"-0.025": 0.0,
			"-0.024": 0.0,
			"-0.023": 0.0,
			"-0.022": 0.0,
			"-0.021": 0.0,
			"-0.02": 0.0,
			"-0.019": 0.0,
			"-0.018": 0.0,
			"-0.017": 0.0,
			"-0.016": 0.0,
			"-0.015": 0.667191319155,
			"-0.014": 0.999996632389,
			"-0.013": 0.678953445881,
			"-0.012": 0.801569510812,
			"-0.011": 1.02314288055,
			"-0.01": 2.69425471995,
			"-0.009": 3.78388934054,
			"-0.008": 5.55319984277,
			"-0.007": 10.4841807327,
			"-0.006": 11.788909595,
			"-0.005": 13.5713076182,
			"-0.004": 13.2907698545,
			"-0.003": 12.1926443346,
			"-0.002": 10.2053082711,
			"-0.001": 8.08547390583,
			"0.0": 4.81726569671,
			"0.001": 3.40435864238,
			"0.002": 3.70059323808,
			"0.003": 3.75302586504,
			"0.004": 2.82848783697,
			"0.005": 3.27818940253,
			"0.006": 3.26224025596,
			"0.007": 3.17719788257,
			"0.008": 3.07961822259,
			"0.009": 3.14562026082,
			"0.01": 5.13791126338,
			"0.011": 6.28942176842,
			"0.012": 10.5013772351,
			"0.013": 3.56136373655,
			"0.014": 0.584781746513,
			"0.015": 0.790635885821,
			"0.016": 0.316931617947,
			"0.017": 0.322258464893,
			"0.018": 0.987726129564,
			"0.019": 0.103423709152,
			"0.02": 0.0,
			"0.021": 0.0,
			"0.022": 0.0,
			"0.023": 0.0,
			"0.024": 0.0,
			"0.025": 0.0
		}
	}
}
