{
	 "smiles": "NC1=CC(=NO1)C1=CC(F)=CC=C1", 
	 "Tm": 377.15, 
	 "num_atms": 20, 
	 "gaussian": { 
		 "optdone": 1, 
		 "sigma_profile": "yes", 
		 "theory": "DFT", 
		 "functional": "B3LYP", 
		 "basiset": "6-31G**", 
		 "properties": { 
			 "R2extent": 3878.3934, 
			 "electric_dipole_moment_norm": 4.93372755125, 
			 "electric_quadrupole_moment_norm": 16.4761085864, 
			 "total_energy": -631.690318564, 
			 "HOMO_LUMO_gap": 0.18434, 
			 "cosmo_polarized_energy": -14.11, 
			 "cosmo_cavitation_energy": 25.5, 
			 "cosmo_dispersion_energy": -18.96, 
			 "cosmo_repulsion_energy": 1.46, 
			 "cosmo_total_nonelectrostatic_energy": 8.01, 
			 "SMD_solvation_energy": 5.01 
		},
		"coords": [
			{
				"x": 0.0931192586,
				"y": 4.2249925099,
				"z": 3.0306385786,
				"element": "N" 
			},
			{
				"x": 0.1453485988,
				"y": 3.344751287,
				"z": 1.9779350539,
				"element": "C" 
			},
			{
				"x": 1.1716064597,
				"y": 2.7417439752,
				"z": 1.3006905345,
				"element": "C" 
			},
			{
				"x": 0.5053254639,
				"y": 2.0103746081,
				"z": 0.272962222,
				"element": "C" 
			},
			{
				"x": -0.8058767747,
				"y": 2.1593546318,
				"z": 0.3266287944,
				"element": "N" 
			},
			{
				"x": -1.0352814452,
				"y": 3.0158227116,
				"z": 1.4247101047,
				"element": "O" 
			},
			{
				"x": 1.101122627,
				"y": 1.1574519157,
				"z": -0.7730553421,
				"element": "C" 
			},
			{
				"x": 0.268755174,
				"y": 0.440537706,
				"z": -1.6477632374,
				"element": "C" 
			},
			{
				"x": 0.8465119028,
				"y": -0.3545186105,
				"z": -2.6247080392,
				"element": "C" 
			},
			{
				"x": 0.0421976596,
				"y": -1.0424501616,
				"z": -3.4625309773,
				"element": "F" 
			},
			{
				"x": 2.2254635385,
				"y": -0.4733962748,
				"z": -2.7744737755,
				"element": "C" 
			},
			{
				"x": 3.0459648578,
				"y": 0.2416145455,
				"z": -1.9026591622,
				"element": "C" 
			},
			{
				"x": 2.4931607389,
				"y": 1.0510129163,
				"z": -0.9097897766,
				"element": "C" 
			},
			{
				"x": -0.8016815272,
				"y": 4.2654108878,
				"z": 3.5000680939,
				"element": "H" 
			},
			{
				"x": 0.8788998462,
				"y": 4.1883326203,
				"z": 3.6633889998,
				"element": "H" 
			},
			{
				"x": 2.227107561,
				"y": 2.8126376076,
				"z": 1.5065887425,
				"element": "H" 
			},
			{
				"x": -0.8094232825,
				"y": 0.5054602678,
				"z": -1.5631106907,
				"element": "H" 
			},
			{
				"x": 2.6291584859,
				"y": -1.1097263756,
				"z": -3.5543132602,
				"element": "H" 
			},
			{
				"x": 4.1248992093,
				"y": 0.1675586109,
				"z": -1.999566019,
				"element": "H" 
			},
			{
				"x": 3.1483216477,
				"y": 1.6036346209,
				"z": -0.2450408441,
				"element": "H" 
			}
		],
		 "valence_orbital": [ 
			{
				"type": "occ",
				"energy": -0.3077,
				"method": "rhf"
			},
			{
				"type": "occ",
				"energy": -0.29822,
				"method": "rhf"
			},
			{
				"type": "occ",
				"energy": -0.25075,
				"method": "rhf"
			},
			{
				"type": "occ",
				"energy": -0.23904,
				"method": "rhf"
			},
			{
				"type": "occ",
				"energy": -0.22072,
				"method": "rhf"
			},
			{
				"type": "unocc",
				"energy": -0.03638,
				"method": "rhf"
			},
			{
				"type": "unocc",
				"energy": -0.00019,
				"method": "rhf"
			},
			{
				"type": "unocc",
				"energy": 0.02928,
				"method": "rhf"
			},
			{
				"type": "unocc",
				"energy": 0.05881,
				"method": "rhf"
			},
			{
				"type": "unocc",
				"energy": 0.08718,
				"method": "rhf"
			}
		],
		"cosmo_sigma_profile": { 
			"-0.025": 0.0,
			"-0.024": 0.0,
			"-0.023": 0.0,
			"-0.022": 0.0,
			"-0.021": 0.0,
			"-0.02": 0.0,
			"-0.019": 0.0,
			"-0.018": 0.0,
			"-0.017": 0.0,
			"-0.016": 0.0,
			"-0.015": 0.751715637797,
			"-0.014": 2.63204293526,
			"-0.013": 2.96846286119,
			"-0.012": 3.26222016684,
			"-0.011": 2.49100492889,
			"-0.01": 1.74565891865,
			"-0.009": 2.43969712236,
			"-0.008": 5.56407778798,
			"-0.007": 7.9402906928,
			"-0.006": 8.52642325154,
			"-0.005": 9.87995998888,
			"-0.004": 8.09394106531,
			"-0.003": 7.73301524984,
			"-0.002": 7.09717299059,
			"-0.001": 7.96054850642,
			"0.0": 12.1097809939,
			"0.001": 16.6691664021,
			"0.002": 20.8953986293,
			"0.003": 23.503329268,
			"0.004": 21.5455709755,
			"0.005": 6.88138993798,
			"0.006": 3.93808792801,
			"0.007": 2.72001788961,
			"0.008": 5.14403500269,
			"0.009": 4.14120964899,
			"0.01": 2.48821771652,
			"0.011": 1.91241545533,
			"0.012": 2.12316924723,
			"0.013": 1.06378268324,
			"0.014": 0.760329065907,
			"0.015": 0.0143776533931,
			"0.016": 0.0,
			"0.017": 0.0,
			"0.018": 0.0,
			"0.019": 0.0,
			"0.02": 0.0,
			"0.021": 0.0,
			"0.022": 0.0,
			"0.023": 0.0,
			"0.024": 0.0,
			"0.025": 0.0
		}
	}
}
