{
	 "smiles": "COC(=O)NC1=CC=C(O)C=C1", 
	 "Tm": 389.15, 
	 "num_atms": 21, 
	 "gaussian": { 
		 "optdone": 1, 
		 "sigma_profile": "yes", 
		 "theory": "DFT", 
		 "functional": "B3LYP", 
		 "basiset": "6-31G**", 
		 "properties": { 
			 "R2extent": 2905.0554, 
			 "electric_dipole_moment_norm": 2.50487870764, 
			 "electric_quadrupole_moment_norm": 14.9243937562, 
			 "total_energy": -590.709540477, 
			 "HOMO_LUMO_gap": 0.19484, 
			 "cosmo_polarized_energy": -14.39, 
			 "cosmo_cavitation_energy": 25.59, 
			 "cosmo_dispersion_energy": -19.04, 
			 "cosmo_repulsion_energy": 1.52, 
			 "cosmo_total_nonelectrostatic_energy": 8.07, 
			 "SMD_solvation_energy": 6.55 
		},
		"coords": [
			{
				"x": 1.7280829743,
				"y": 3.4182416386,
				"z": 2.5189244466,
				"element": "C" 
			},
			{
				"x": 1.1853972245,
				"y": 2.3779586078,
				"z": 1.6905054821,
				"element": "O" 
			},
			{
				"x": 1.5718191698,
				"y": 1.1286592709,
				"z": 2.0399228388,
				"element": "C" 
			},
			{
				"x": 2.3154742584,
				"y": 0.8799117857,
				"z": 2.9724906023,
				"element": "O" 
			},
			{
				"x": 1.0429111315,
				"y": 0.1486056336,
				"z": 1.235918125,
				"element": "N" 
			},
			{
				"x": 0.1781716234,
				"y": 0.15669261,
				"z": 0.1167235269,
				"element": "C" 
			},
			{
				"x": -0.1373286051,
				"y": -1.0936161551,
				"z": -0.4433073255,
				"element": "C" 
			},
			{
				"x": -0.976956234,
				"y": -1.2022155978,
				"z": -1.544204503,
				"element": "C" 
			},
			{
				"x": -1.5272134635,
				"y": -0.0517177698,
				"z": -2.1178574215,
				"element": "C" 
			},
			{
				"x": -2.3485276994,
				"y": -0.2117906731,
				"z": -3.2012405183,
				"element": "O" 
			},
			{
				"x": -1.2196072121,
				"y": 1.1941654389,
				"z": -1.5685703773,
				"element": "C" 
			},
			{
				"x": -0.3758965507,
				"y": 1.3055040251,
				"z": -0.4620339078,
				"element": "C" 
			},
			{
				"x": 1.3289200398,
				"y": 4.3486050307,
				"z": 2.1145831586,
				"element": "H" 
			},
			{
				"x": 1.4166948753,
				"y": 3.2865995033,
				"z": 3.557728355,
				"element": "H" 
			},
			{
				"x": 2.8195972679,
				"y": 3.4175971654,
				"z": 2.4741886353,
				"element": "H" 
			},
			{
				"x": 1.3600251694,
				"y": -0.7620534638,
				"z": 1.5361640498,
				"element": "H" 
			},
			{
				"x": 0.283416685,
				"y": -1.9968922307,
				"z": -0.0075063719,
				"element": "H" 
			},
			{
				"x": -1.214979795,
				"y": -2.1712405566,
				"z": -1.9698102008,
				"element": "H" 
			},
			{
				"x": -2.6557541734,
				"y": 0.6556291959,
				"z": -3.4941625197,
				"element": "H" 
			},
			{
				"x": -1.6404587464,
				"y": 2.098201943,
				"z": -2.0044025357,
				"element": "H" 
			},
			{
				"x": -0.1527879395,
				"y": 2.2805545979,
				"z": -0.0549535389,
				"element": "H" 
			}
		],
		 "valence_orbital": [ 
			{
				"type": "occ",
				"energy": -0.30259,
				"method": "rhf"
			},
			{
				"type": "occ",
				"energy": -0.28664,
				"method": "rhf"
			},
			{
				"type": "occ",
				"energy": -0.27606,
				"method": "rhf"
			},
			{
				"type": "occ",
				"energy": -0.25552,
				"method": "rhf"
			},
			{
				"type": "occ",
				"energy": -0.20092,
				"method": "rhf"
			},
			{
				"type": "unocc",
				"energy": -0.00608,
				"method": "rhf"
			},
			{
				"type": "unocc",
				"energy": 0.00695,
				"method": "rhf"
			},
			{
				"type": "unocc",
				"energy": 0.06823,
				"method": "rhf"
			},
			{
				"type": "unocc",
				"energy": 0.06836,
				"method": "rhf"
			},
			{
				"type": "unocc",
				"energy": 0.08103,
				"method": "rhf"
			}
		],
		"cosmo_sigma_profile": { 
			"-0.025": 0.0,
			"-0.024": 0.0,
			"-0.023": 0.0,
			"-0.022": 0.0,
			"-0.021": 0.0,
			"-0.02": 0.0,
			"-0.019": 0.0,
			"-0.018": 0.120654920144,
			"-0.017": 1.42663739895,
			"-0.016": 0.473401063177,
			"-0.015": 2.14884351468,
			"-0.014": 1.62886772588,
			"-0.013": 2.27461167077,
			"-0.012": 2.3341152025,
			"-0.011": 1.80209327572,
			"-0.01": 1.99533055264,
			"-0.009": 2.24827514018,
			"-0.008": 2.54452387677,
			"-0.007": 3.92789879546,
			"-0.006": 9.37045769252,
			"-0.005": 12.3312426366,
			"-0.004": 15.2810121286,
			"-0.003": 13.9326289325,
			"-0.002": 11.6729035385,
			"-0.001": 9.87884196711,
			"0.0": 11.3030649173,
			"0.001": 10.7920446114,
			"0.002": 11.8423582116,
			"0.003": 14.8161740252,
			"0.004": 14.7812072959,
			"0.005": 14.2070308814,
			"0.006": 5.59364988205,
			"0.007": 3.04226198577,
			"0.008": 2.7571979658,
			"0.009": 2.18344204147,
			"0.01": 2.95685766018,
			"0.011": 3.72642718353,
			"0.012": 3.66663819554,
			"0.013": 5.98107061725,
			"0.014": 0.589857572724,
			"0.015": 0.0,
			"0.016": 0.0,
			"0.017": 0.0,
			"0.018": 0.0,
			"0.019": 0.0,
			"0.02": 0.0,
			"0.021": 0.0,
			"0.022": 0.0,
			"0.023": 0.0,
			"0.024": 0.0,
			"0.025": 0.0
		}
	}
}
