{
	 "smiles": "OC(=O)C=CC1=C(OC(F)F)C=CC=C1", 
	 "Tm": 438.15, 
	 "num_atms": 23, 
	 "gaussian": { 
		 "optdone": 1, 
		 "sigma_profile": "yes", 
		 "theory": "DFT", 
		 "functional": "B3LYP", 
		 "basiset": "6-31G**", 
		 "properties": { 
			 "R2extent": 3303.5998, 
			 "electric_dipole_moment_norm": 6.75443791148, 
			 "electric_quadrupole_moment_norm": 19.9010911156, 
			 "total_energy": -811.212261758, 
			 "HOMO_LUMO_gap": 0.20389, 
			 "cosmo_polarized_energy": -15.12, 
			 "cosmo_cavitation_energy": 28.75, 
			 "cosmo_dispersion_energy": -19.86, 
			 "cosmo_repulsion_energy": 1.54, 
			 "cosmo_total_nonelectrostatic_energy": 10.43, 
			 "SMD_solvation_energy": 7.26 
		},
		"coords": [
			{
				"x": -2.8708384353,
				"y": 0.8593861226,
				"z": 0.4817009083,
				"element": "O" 
			},
			{
				"x": -3.0245238116,
				"y": -0.4271732474,
				"z": 0.1227176973,
				"element": "C" 
			},
			{
				"x": -3.9420943547,
				"y": -1.0925398404,
				"z": 0.5487464149,
				"element": "O" 
			},
			{
				"x": -2.0362749529,
				"y": -1.0376570033,
				"z": -0.8266077649,
				"element": "C" 
			},
			{
				"x": -0.6945898671,
				"y": -1.0025042271,
				"z": -0.8026563359,
				"element": "C" 
			},
			{
				"x": 0.2288040863,
				"y": -0.2837696748,
				"z": 0.113571935,
				"element": "C" 
			},
			{
				"x": 0.3269649946,
				"y": 1.1112525662,
				"z": 0.2055226688,
				"element": "C" 
			},
			{
				"x": -0.5455555201,
				"y": 1.9171922652,
				"z": -0.5450998124,
				"element": "O" 
			},
			{
				"x": -0.0591695596,
				"y": 2.3882488713,
				"z": -1.7551882932,
				"element": "C" 
			},
			{
				"x": 0.0362334715,
				"y": 1.378740355,
				"z": -2.6560354984,
				"element": "F" 
			},
			{
				"x": -0.9619274179,
				"y": 3.2718530287,
				"z": -2.2057291838,
				"element": "F" 
			},
			{
				"x": 1.2332698428,
				"y": 1.7421022573,
				"z": 1.0546629579,
				"element": "C" 
			},
			{
				"x": 2.0958893266,
				"y": 0.9718447017,
				"z": 1.8319639229,
				"element": "C" 
			},
			{
				"x": 2.0399549922,
				"y": -0.4209665082,
				"z": 1.748709026,
				"element": "C" 
			},
			{
				"x": 1.1237777146,
				"y": -1.0339205112,
				"z": 0.897263408,
				"element": "C" 
			},
			{
				"x": -2.1770127305,
				"y": 1.2927056063,
				"z": -0.0494171028,
				"element": "H" 
			},
			{
				"x": -2.5115201341,
				"y": -1.7209071933,
				"z": -1.5250478048,
				"element": "H" 
			},
			{
				"x": -0.1842656401,
				"y": -1.6610624391,
				"z": -1.505243284,
				"element": "H" 
			},
			{
				"x": 0.9251776579,
				"y": 2.8580692285,
				"z": -1.6501306005,
				"element": "H" 
			},
			{
				"x": 1.2424075083,
				"y": 2.8262478583,
				"z": 1.1060005887,
				"element": "H" 
			},
			{
				"x": 2.8020996296,
				"y": 1.4565237735,
				"z": 2.4985909776,
				"element": "H" 
			},
			{
				"x": 2.7072061527,
				"y": -1.0305708296,
				"z": 2.3500005032,
				"element": "H" 
			},
			{
				"x": 1.0814870468,
				"y": -2.1175951601,
				"z": 0.838404672,
				"element": "H" 
			}
		],
		 "valence_orbital": [ 
			{
				"type": "occ",
				"energy": -0.30651,
				"method": "rhf"
			},
			{
				"type": "occ",
				"energy": -0.29896,
				"method": "rhf"
			},
			{
				"type": "occ",
				"energy": -0.27649,
				"method": "rhf"
			},
			{
				"type": "occ",
				"energy": -0.26388,
				"method": "rhf"
			},
			{
				"type": "occ",
				"energy": -0.25588,
				"method": "rhf"
			},
			{
				"type": "unocc",
				"energy": -0.05199,
				"method": "rhf"
			},
			{
				"type": "unocc",
				"energy": -0.02985,
				"method": "rhf"
			},
			{
				"type": "unocc",
				"energy": -0.01609,
				"method": "rhf"
			},
			{
				"type": "unocc",
				"energy": 0.05743,
				"method": "rhf"
			},
			{
				"type": "unocc",
				"energy": 0.07041,
				"method": "rhf"
			}
		],
		"cosmo_sigma_profile": { 
			"-0.025": 0.0,
			"-0.024": 0.0,
			"-0.023": 0.0,
			"-0.022": 0.0,
			"-0.021": 0.0,
			"-0.02": 0.0,
			"-0.019": 0.0,
			"-0.018": 0.0,
			"-0.017": 0.0,
			"-0.016": 0.0,
			"-0.015": 0.0,
			"-0.014": 0.0,
			"-0.013": 0.0,
			"-0.012": 0.0,
			"-0.011": 0.951613365568,
			"-0.01": 3.15066539222,
			"-0.009": 3.04516121593,
			"-0.008": 5.73464436466,
			"-0.007": 13.1672531419,
			"-0.006": 15.5604252578,
			"-0.005": 16.7002670739,
			"-0.004": 12.4690759492,
			"-0.003": 11.0305501435,
			"-0.002": 13.3087405343,
			"-0.001": 11.5152559587,
			"0.0": 15.4783645312,
			"0.001": 15.1676915953,
			"0.002": 18.336005828,
			"0.003": 31.0597161031,
			"0.004": 12.6523776955,
			"0.005": 1.92858733527,
			"0.006": 2.67312971728,
			"0.007": 2.15023643522,
			"0.008": 2.77903491615,
			"0.009": 2.68868748802,
			"0.01": 4.05278757397,
			"0.011": 5.15531829994,
			"0.012": 6.06539022393,
			"0.013": 3.47401521863,
			"0.014": 0.341337375773,
			"0.015": 0.0,
			"0.016": 0.0,
			"0.017": 0.0,
			"0.018": 0.0,
			"0.019": 0.0,
			"0.02": 0.0,
			"0.021": 0.0,
			"0.022": 0.0,
			"0.023": 0.0,
			"0.024": 0.0,
			"0.025": 0.0
		}
	}
}
