{
	 "smiles": "COC1=CC=C(C=C1)C1(CC1)C(O)=O", 
	 "Tm": 403.15, 
	 "num_atms": 26, 
	 "gaussian": { 
		 "optdone": 1, 
		 "sigma_profile": "yes", 
		 "theory": "DFT", 
		 "functional": "B3LYP", 
		 "basiset": "6-31G**", 
		 "properties": { 
			 "R2extent": 4328.1867, 
			 "electric_dipole_moment_norm": 5.7807795054, 
			 "electric_quadrupole_moment_norm": 22.0016697589, 
			 "total_energy": -652.047556508, 
			 "HOMO_LUMO_gap": 0.2093, 
			 "cosmo_polarized_energy": -13.44, 
			 "cosmo_cavitation_energy": 29.67, 
			 "cosmo_dispersion_energy": -21.08, 
			 "cosmo_repulsion_energy": 1.65, 
			 "cosmo_total_nonelectrostatic_energy": 10.25, 
			 "SMD_solvation_energy": 6.81 
		},
		"coords": [
			{
				"x": -0.7987594719,
				"y": -2.1615811534,
				"z": -3.9456317541,
				"element": "C" 
			},
			{
				"x": -0.3444390439,
				"y": -0.8286064933,
				"z": -3.7609512722,
				"element": "O" 
			},
			{
				"x": -0.5688294628,
				"y": -0.2286530814,
				"z": -2.5598522165,
				"element": "C" 
			},
			{
				"x": -1.2228330267,
				"y": -0.8293949486,
				"z": -1.4767508673,
				"element": "C" 
			},
			{
				"x": -1.3917611205,
				"y": -0.1123414174,
				"z": -0.2895071211,
				"element": "C" 
			},
			{
				"x": -0.9209771579,
				"y": 1.1994606476,
				"z": -0.1473110558,
				"element": "C" 
			},
			{
				"x": -0.2716088489,
				"y": 1.7854047895,
				"z": -1.2510363706,
				"element": "C" 
			},
			{
				"x": -0.0950681338,
				"y": 1.0876743659,
				"z": -2.4380835754,
				"element": "C" 
			},
			{
				"x": -1.1390089487,
				"y": 1.9722983133,
				"z": 1.1249829274,
				"element": "C" 
			},
			{
				"x": 0.0554219908,
				"y": 2.5777478654,
				"z": 1.8560918504,
				"element": "C" 
			},
			{
				"x": -0.6453934959,
				"y": 1.4027009564,
				"z": 2.4519420513,
				"element": "C" 
			},
			{
				"x": -2.407869455,
				"y": 2.7904945462,
				"z": 1.2485645944,
				"element": "C" 
			},
			{
				"x": -3.2532333927,
				"y": 2.7486277217,
				"z": 0.1930737102,
				"element": "O" 
			},
			{
				"x": -2.6772457774,
				"y": 3.45256508,
				"z": 2.2252671185,
				"element": "O" 
			},
			{
				"x": -0.5166162746,
				"y": -2.4368296398,
				"z": -4.9627020419,
				"element": "H" 
			},
			{
				"x": -1.8886535826,
				"y": -2.2353082341,
				"z": -3.8410342412,
				"element": "H" 
			},
			{
				"x": -0.3217914214,
				"y": -2.8526064797,
				"z": -3.2390948637,
				"element": "H" 
			},
			{
				"x": -1.5976261987,
				"y": -1.8438036169,
				"z": -1.5428927748,
				"element": "H" 
			},
			{
				"x": -1.8957554705,
				"y": -0.5885173635,
				"z": 0.5474152213,
				"element": "H" 
			},
			{
				"x": 0.1040177188,
				"y": 2.8017071554,
				"z": -1.1678400959,
				"element": "H" 
			},
			{
				"x": 0.4096385013,
				"y": 1.5365083492,
				"z": -3.2872855092,
				"element": "H" 
			},
			{
				"x": -0.1075304828,
				"y": 3.5466559088,
				"z": 2.3151351242,
				"element": "H" 
			},
			{
				"x": 1.029742168,
				"y": 2.4231859881,
				"z": 1.4036118215,
				"element": "H" 
			},
			{
				"x": -0.1563997832,
				"y": 0.4346344687,
				"z": 2.4120445608,
				"element": "H" 
			},
			{
				"x": -1.2807408202,
				"y": 1.5793228068,
				"z": 3.3128905474,
				"element": "H" 
			},
			{
				"x": -2.8769790087,
				"y": 2.1721534652,
				"z": -0.4919457677,
				"element": "H" 
			}
		],
		 "valence_orbital": [ 
			{
				"type": "occ",
				"energy": -0.30954,
				"method": "rhf"
			},
			{
				"type": "occ",
				"energy": -0.288,
				"method": "rhf"
			},
			{
				"type": "occ",
				"energy": -0.26881,
				"method": "rhf"
			},
			{
				"type": "occ",
				"energy": -0.26626,
				"method": "rhf"
			},
			{
				"type": "occ",
				"energy": -0.2295,
				"method": "rhf"
			},
			{
				"type": "unocc",
				"energy": -0.0202,
				"method": "rhf"
			},
			{
				"type": "unocc",
				"energy": -0.01049,
				"method": "rhf"
			},
			{
				"type": "unocc",
				"energy": 0.01892,
				"method": "rhf"
			},
			{
				"type": "unocc",
				"energy": 0.08207,
				"method": "rhf"
			},
			{
				"type": "unocc",
				"energy": 0.09588,
				"method": "rhf"
			}
		],
		"cosmo_sigma_profile": { 
			"-0.025": 0.0,
			"-0.024": 0.0,
			"-0.023": 0.0,
			"-0.022": 0.0,
			"-0.021": 0.0,
			"-0.02": 0.0,
			"-0.019": 0.0,
			"-0.018": 0.0,
			"-0.017": 0.0,
			"-0.016": 0.0,
			"-0.015": 0.0,
			"-0.014": 0.127484645468,
			"-0.013": 0.482488498913,
			"-0.012": 0.73611561165,
			"-0.011": 0.573355017907,
			"-0.01": 0.470798864541,
			"-0.009": 0.943918389163,
			"-0.008": 0.808948890178,
			"-0.007": 2.17011676307,
			"-0.006": 13.6864628658,
			"-0.005": 25.2511537709,
			"-0.004": 23.9854039557,
			"-0.003": 25.0610352931,
			"-0.002": 18.8071155845,
			"-0.001": 18.5122832304,
			"0.0": 13.8354636808,
			"0.001": 10.6827877374,
			"0.002": 11.5116288985,
			"0.003": 15.9289515026,
			"0.004": 10.2314718441,
			"0.005": 6.37186161753,
			"0.006": 4.7122128835,
			"0.007": 3.45456807021,
			"0.008": 4.00597535794,
			"0.009": 4.33744745442,
			"0.01": 5.21606578078,
			"0.011": 4.83315596984,
			"0.012": 4.86113969667,
			"0.013": 3.11638199511,
			"0.014": 0.626200257297,
			"0.015": 0.0,
			"0.016": 0.0,
			"0.017": 0.0,
			"0.018": 0.0,
			"0.019": 0.0,
			"0.02": 0.0,
			"0.021": 0.0,
			"0.022": 0.0,
			"0.023": 0.0,
			"0.024": 0.0,
			"0.025": 0.0
		}
	}
}
