{
	 "smiles": "O=C(NC1=CC=C2N=CC=CC2=C1)NC1=CC=C2N=CC=CC2=C1", 
	 "Tm": 535.15, 
	 "num_atms": 38, 
	 "gaussian": { 
		 "optdone": 1, 
		 "sigma_profile": "yes", 
		 "theory": "DFT", 
		 "functional": "B3LYP", 
		 "basiset": "6-31G**", 
		 "properties": { 
			 "R2extent": 9031.2696, 
			 "electric_dipole_moment_norm": 0.877360074314, 
			 "electric_quadrupole_moment_norm": 31.3311665799, 
			 "total_energy": -1026.72105772, 
			 "HOMO_LUMO_gap": 0.16239, 
			 "cosmo_polarized_energy": -20.9, 
			 "cosmo_cavitation_energy": 42.76, 
			 "cosmo_dispersion_energy": -29.84, 
			 "cosmo_repulsion_energy": 2.24, 
			 "cosmo_total_nonelectrostatic_energy": 15.17, 
			 "SMD_solvation_energy": 4.88 
		},
		"coords": [
			{
				"x": 1.5847114182,
				"y": -0.8459538535,
				"z": -5.1112385035,
				"element": "O" 
			},
			{
				"x": 1.1646181918,
				"y": -0.7579557639,
				"z": -3.9653019299,
				"element": "C" 
			},
			{
				"x": 0.005606256,
				"y": -1.4203025938,
				"z": -3.5768403699,
				"element": "N" 
			},
			{
				"x": -0.347170337,
				"y": -2.0109383024,
				"z": -2.3383774022,
				"element": "C" 
			},
			{
				"x": 0.6258259397,
				"y": -2.3218104161,
				"z": -1.346604066,
				"element": "C" 
			},
			{
				"x": 0.252731619,
				"y": -2.9363317906,
				"z": -0.1757396009,
				"element": "C" 
			},
			{
				"x": -1.0992398806,
				"y": -3.2943087426,
				"z": 0.0693538001,
				"element": "C" 
			},
			{
				"x": -1.4112858932,
				"y": -3.9109487844,
				"z": 1.2452394671,
				"element": "N" 
			},
			{
				"x": -2.6721315493,
				"y": -4.2372913335,
				"z": 1.4494515003,
				"element": "C" 
			},
			{
				"x": -3.71813682,
				"y": -3.987328681,
				"z": 0.5245188571,
				"element": "C" 
			},
			{
				"x": -3.4182053869,
				"y": -3.3689087811,
				"z": -0.6658911318,
				"element": "C" 
			},
			{
				"x": -2.0748759946,
				"y": -2.997376003,
				"z": -0.9346335028,
				"element": "C" 
			},
			{
				"x": -1.6720742853,
				"y": -2.3462768252,
				"z": -2.1258475161,
				"element": "C" 
			},
			{
				"x": 1.833188597,
				"y": 0.0072184756,
				"z": -3.0164319768,
				"element": "N" 
			},
			{
				"x": 1.3352152831,
				"y": 0.7755465871,
				"z": -1.9352978559,
				"element": "C" 
			},
			{
				"x": -0.0304691597,
				"y": 1.1701377736,
				"z": -1.856497957,
				"element": "C" 
			},
			{
				"x": -0.4684499295,
				"y": 1.9535583103,
				"z": -0.816204087,
				"element": "C" 
			},
			{
				"x": 0.4240139192,
				"y": 2.4052629312,
				"z": 0.1915356232,
				"element": "C" 
			},
			{
				"x": -0.063732851,
				"y": 3.1882500615,
				"z": 1.196207908,
				"element": "N" 
			},
			{
				"x": 0.7838422254,
				"y": 3.5986519085,
				"z": 2.1187699974,
				"element": "C" 
			},
			{
				"x": 2.1653322462,
				"y": 3.2769658317,
				"z": 2.1290849082,
				"element": "C" 
			},
			{
				"x": 2.6716030677,
				"y": 2.4908880736,
				"z": 1.1214815721,
				"element": "C" 
			},
			{
				"x": 1.8003123105,
				"y": 2.0231290772,
				"z": 0.1032297185,
				"element": "C" 
			},
			{
				"x": 2.2268902527,
				"y": 1.1994419079,
				"z": -0.9667035755,
				"element": "C" 
			},
			{
				"x": -0.4559364414,
				"y": -1.8070845769,
				"z": -4.3898485928,
				"element": "H" 
			},
			{
				"x": 1.6653512138,
				"y": -2.0773506295,
				"z": -1.5277191304,
				"element": "H" 
			},
			{
				"x": 0.9839664121,
				"y": -3.1805871275,
				"z": 0.5876973004,
				"element": "H" 
			},
			{
				"x": -2.8982862938,
				"y": -4.7285286343,
				"z": 2.3952236497,
				"element": "H" 
			},
			{
				"x": -4.7338258232,
				"y": -4.2852585007,
				"z": 0.7651537054,
				"element": "H" 
			},
			{
				"x": -4.1906226361,
				"y": -3.1594667577,
				"z": -1.4017484307,
				"element": "H" 
			},
			{
				"x": -2.419157559,
				"y": -2.1067638689,
				"z": -2.8789455211,
				"element": "H" 
			},
			{
				"x": 2.7278190049,
				"y": 0.3034249322,
				"z": -3.384540683,
				"element": "H" 
			},
			{
				"x": -0.7198426419,
				"y": 0.8541441327,
				"z": -2.6298772632,
				"element": "H" 
			},
			{
				"x": -1.5059209862,
				"y": 2.2629706875,
				"z": -0.7446861336,
				"element": "H" 
			},
			{
				"x": 0.3723417293,
				"y": 4.2225200109,
				"z": 2.911486524,
				"element": "H" 
			},
			{
				"x": 2.8008495813,
				"y": 3.6524569352,
				"z": 2.9249580303,
				"element": "H" 
			},
			{
				"x": 3.7245125518,
				"y": 2.2215752029,
				"z": 1.0926136115,
				"element": "H" 
			},
			{
				"x": 3.270032649,
				"y": 0.8968291272,
				"z": -1.0208309432,
				"element": "H" 
			}
		],
		 "valence_orbital": [ 
			{
				"type": "occ",
				"energy": -0.25549,
				"method": "rhf"
			},
			{
				"type": "occ",
				"energy": -0.2476,
				"method": "rhf"
			},
			{
				"type": "occ",
				"energy": -0.24599,
				"method": "rhf"
			},
			{
				"type": "occ",
				"energy": -0.22491,
				"method": "rhf"
			},
			{
				"type": "occ",
				"energy": -0.22129,
				"method": "rhf"
			},
			{
				"type": "unocc",
				"energy": -0.0589,
				"method": "rhf"
			},
			{
				"type": "unocc",
				"energy": -0.05398,
				"method": "rhf"
			},
			{
				"type": "unocc",
				"energy": -0.02914,
				"method": "rhf"
			},
			{
				"type": "unocc",
				"energy": -0.0128,
				"method": "rhf"
			},
			{
				"type": "unocc",
				"energy": 0.01235,
				"method": "rhf"
			}
		],
		"cosmo_sigma_profile": { 
			"-0.025": 0.0,
			"-0.024": 0.0,
			"-0.023": 0.0,
			"-0.022": 0.0,
			"-0.021": 0.0,
			"-0.02": 0.0,
			"-0.019": 0.0,
			"-0.018": 0.0,
			"-0.017": 0.0,
			"-0.016": 0.0,
			"-0.015": 0.455790824228,
			"-0.014": 2.02118972368,
			"-0.013": 2.22588384409,
			"-0.012": 1.84106557944,
			"-0.011": 1.84982679294,
			"-0.01": 1.76702058542,
			"-0.009": 2.52539800364,
			"-0.008": 3.40885309422,
			"-0.007": 16.2864710947,
			"-0.006": 22.2268893625,
			"-0.005": 24.5680850153,
			"-0.004": 22.6212355707,
			"-0.003": 18.6400888133,
			"-0.002": 18.9591120277,
			"-0.001": 21.3373779712,
			"0.0": 18.0057119235,
			"0.001": 25.0120967286,
			"0.002": 41.9199116756,
			"0.003": 35.9972847013,
			"0.004": 15.0211092595,
			"0.005": 5.81405773956,
			"0.006": 3.65480141798,
			"0.007": 4.48735253001,
			"0.008": 3.85982471147,
			"0.009": 3.35336818862,
			"0.01": 3.07381938108,
			"0.011": 3.91029298299,
			"0.012": 3.94454738571,
			"0.013": 7.66092853621,
			"0.014": 3.87948408146,
			"0.015": 2.08792655967,
			"0.016": 1.19977086855,
			"0.017": 0.172170397054,
			"0.018": 0.0,
			"0.019": 0.0,
			"0.02": 0.0,
			"0.021": 0.0,
			"0.022": 0.0,
			"0.023": 0.0,
			"0.024": 0.0,
			"0.025": 0.0
		}
	}
}
