{
	 "smiles": "COC1=C(F)C=C(C=C1)C(N)=O", 
	 "Tm": 443.15, 
	 "num_atms": 20, 
	 "gaussian": { 
		 "optdone": 1, 
		 "sigma_profile": "yes", 
		 "theory": "DFT", 
		 "functional": "B3LYP", 
		 "basiset": "6-31G**", 
		 "properties": { 
			 "R2extent": 4342.9766, 
			 "electric_dipole_moment_norm": 3.33667773841, 
			 "electric_quadrupole_moment_norm": 19.3808721677, 
			 "total_energy": -614.706189507, 
			 "HOMO_LUMO_gap": 0.19495, 
			 "cosmo_polarized_energy": -13.4, 
			 "cosmo_cavitation_energy": 24.79, 
			 "cosmo_dispersion_energy": -18.38, 
			 "cosmo_repulsion_energy": 1.45, 
			 "cosmo_total_nonelectrostatic_energy": 7.86, 
			 "SMD_solvation_energy": 6.29 
		},
		"coords": [
			{
				"x": -2.7765222566,
				"y": -0.3535317593,
				"z": 1.6828064999,
				"element": "C" 
			},
			{
				"x": -1.9988209849,
				"y": 0.780382034,
				"z": 2.0796392991,
				"element": "O" 
			},
			{
				"x": -0.6499769298,
				"y": 0.7001975729,
				"z": 2.1969220096,
				"element": "C" 
			},
			{
				"x": 0.1854937536,
				"y": -0.293584485,
				"z": 1.65675412,
				"element": "C" 
			},
			{
				"x": -0.3464793787,
				"y": -1.3113363455,
				"z": 0.9337649104,
				"element": "F" 
			},
			{
				"x": 1.5577234466,
				"y": -0.2669340685,
				"z": 1.8335884974,
				"element": "C" 
			},
			{
				"x": 2.161351811,
				"y": 0.7775307547,
				"z": 2.5415589066,
				"element": "C" 
			},
			{
				"x": 1.3440907113,
				"y": 1.7791842229,
				"z": 3.0865581468,
				"element": "C" 
			},
			{
				"x": -0.0343181398,
				"y": 1.7352883946,
				"z": 2.9181252466,
				"element": "C" 
			},
			{
				"x": 3.6527959183,
				"y": 0.7368385714,
				"z": 2.6815220646,
				"element": "C" 
			},
			{
				"x": 4.2585872345,
				"y": 1.8989828561,
				"z": 3.1032601676,
				"element": "N" 
			},
			{
				"x": 4.2990538868,
				"y": -0.2796469519,
				"z": 2.4561381379,
				"element": "O" 
			},
			{
				"x": -2.5445866845,
				"y": -1.230549932,
				"z": 2.2947877068,
				"element": "H" 
			},
			{
				"x": -3.8137563366,
				"y": -0.0577492526,
				"z": 1.8480628767,
				"element": "H" 
			},
			{
				"x": -2.6261257189,
				"y": -0.5985477983,
				"z": 0.6288987774,
				"element": "H" 
			},
			{
				"x": 2.1709363545,
				"y": -1.0569052901,
				"z": 1.4148866776,
				"element": "H" 
			},
			{
				"x": 1.772031001,
				"y": 2.5784770861,
				"z": 3.6834880766,
				"element": "H" 
			},
			{
				"x": -0.6788559005,
				"y": 2.4945738758,
				"z": 3.3483419876,
				"element": "H" 
			},
			{
				"x": 5.2679739952,
				"y": 1.8882470517,
				"z": 3.0695105425,
				"element": "H" 
			},
			{
				"x": 3.8114042175,
				"y": 2.7890834629,
				"z": 2.9484853483,
				"element": "H" 
			}
		],
		 "valence_orbital": [ 
			{
				"type": "occ",
				"energy": -0.32115,
				"method": "rhf"
			},
			{
				"type": "occ",
				"energy": -0.27247,
				"method": "rhf"
			},
			{
				"type": "occ",
				"energy": -0.25809,
				"method": "rhf"
			},
			{
				"type": "occ",
				"energy": -0.24957,
				"method": "rhf"
			},
			{
				"type": "occ",
				"energy": -0.2291,
				"method": "rhf"
			},
			{
				"type": "unocc",
				"energy": -0.03415,
				"method": "rhf"
			},
			{
				"type": "unocc",
				"energy": -0.00933,
				"method": "rhf"
			},
			{
				"type": "unocc",
				"energy": 0.06105,
				"method": "rhf"
			},
			{
				"type": "unocc",
				"energy": 0.07228,
				"method": "rhf"
			},
			{
				"type": "unocc",
				"energy": 0.08803,
				"method": "rhf"
			}
		],
		"cosmo_sigma_profile": { 
			"-0.025": 0.0,
			"-0.024": 0.0,
			"-0.023": 0.0,
			"-0.022": 0.0,
			"-0.021": 0.0,
			"-0.02": 0.0,
			"-0.019": 0.0,
			"-0.018": 0.0,
			"-0.017": 0.0,
			"-0.016": 0.0,
			"-0.015": 0.123684127493,
			"-0.014": 1.24693177705,
			"-0.013": 2.59911281213,
			"-0.012": 2.37798832004,
			"-0.011": 2.40740957457,
			"-0.01": 2.94439906028,
			"-0.009": 2.05553651773,
			"-0.008": 3.01200043024,
			"-0.007": 3.76082033087,
			"-0.006": 9.10058056698,
			"-0.005": 12.1671921498,
			"-0.004": 13.1279449674,
			"-0.003": 14.7664608731,
			"-0.002": 9.9322456522,
			"-0.001": 10.7577294216,
			"0.0": 13.5902891448,
			"0.001": 15.0560683104,
			"0.002": 18.3065623022,
			"0.003": 16.0021671319,
			"0.004": 11.7373748917,
			"0.005": 5.47184569619,
			"0.006": 3.67911083808,
			"0.007": 2.79559525139,
			"0.008": 2.97726682326,
			"0.009": 3.7054312329,
			"0.01": 1.81684896111,
			"0.011": 1.71053720586,
			"0.012": 1.72674373035,
			"0.013": 4.58424878202,
			"0.014": 3.82103355851,
			"0.015": 0.253430413937,
			"0.016": 0.0,
			"0.017": 0.0,
			"0.018": 0.0,
			"0.019": 0.0,
			"0.02": 0.0,
			"0.021": 0.0,
			"0.022": 0.0,
			"0.023": 0.0,
			"0.024": 0.0,
			"0.025": 0.0
		}
	}
}
