{
	 "smiles": "OC(=O)CC1=CSC(=N1)C1=CC=CO1", 
	 "Tm": 410.15, 
	 "num_atms": 21, 
	 "gaussian": { 
		 "optdone": 1, 
		 "sigma_profile": "yes", 
		 "theory": "DFT", 
		 "functional": "B3LYP", 
		 "basiset": "6-31G**", 
		 "properties": { 
			 "R2extent": 4600.3849, 
			 "electric_dipole_moment_norm": 0.601605477036, 
			 "electric_quadrupole_moment_norm": 15.5686023682, 
			 "total_energy": -1025.76781999, 
			 "HOMO_LUMO_gap": 0.16075, 
			 "cosmo_polarized_energy": -12.83, 
			 "cosmo_cavitation_energy": 28.35, 
			 "cosmo_dispersion_energy": -21.53, 
			 "cosmo_repulsion_energy": 1.64, 
			 "cosmo_total_nonelectrostatic_energy": 8.46, 
			 "SMD_solvation_energy": 5.35 
		},
		"coords": [
			{
				"x": 2.245410559,
				"y": -1.5510250555,
				"z": -5.0105101579,
				"element": "O" 
			},
			{
				"x": 1.0807253903,
				"y": -1.4756693732,
				"z": -4.3228685695,
				"element": "C" 
			},
			{
				"x": 0.0412267019,
				"y": -1.9117807457,
				"z": -4.768829083,
				"element": "O" 
			},
			{
				"x": 1.3053399223,
				"y": -0.7952366005,
				"z": -2.9913995529,
				"element": "C" 
			},
			{
				"x": 0.1125970833,
				"y": -0.622014591,
				"z": -2.0894185732,
				"element": "C" 
			},
			{
				"x": -1.1822997609,
				"y": -1.0054044974,
				"z": -2.3063339061,
				"element": "C" 
			},
			{
				"x": -2.1700262106,
				"y": -0.5711165128,
				"z": -0.9492947695,
				"element": "S" 
			},
			{
				"x": -0.7373129084,
				"y": 0.1091436455,
				"z": -0.1731959546,
				"element": "C" 
			},
			{
				"x": 0.3532564898,
				"y": 0.0047093784,
				"z": -0.8856064561,
				"element": "N" 
			},
			{
				"x": -0.8152288699,
				"y": 0.7179220413,
				"z": 1.1365308519,
				"element": "C" 
			},
			{
				"x": -1.8501379366,
				"y": 0.9162593219,
				"z": 2.0177632732,
				"element": "C" 
			},
			{
				"x": -1.2937498063,
				"y": 1.578309534,
				"z": 3.1526766472,
				"element": "C" 
			},
			{
				"x": 0.0342070273,
				"y": 1.7352653313,
				"z": 2.8827553456,
				"element": "C" 
			},
			{
				"x": 0.3420138876,
				"y": 1.2192973732,
				"z": 1.6645959803,
				"element": "O" 
			},
			{
				"x": 2.0353991279,
				"y": -1.9949681021,
				"z": -5.8492455442,
				"element": "H" 
			},
			{
				"x": 2.0876938056,
				"y": -1.3541921614,
				"z": -2.4623400571,
				"element": "H" 
			},
			{
				"x": 1.758787459,
				"y": 0.1836595736,
				"z": -3.1925301262,
				"element": "H" 
			},
			{
				"x": -1.588269288,
				"y": -1.5058176965,
				"z": -3.170643323,
				"element": "H" 
			},
			{
				"x": -2.8806019308,
				"y": 0.6249460633,
				"z": 1.8720786043,
				"element": "H" 
			},
			{
				"x": -1.8121354202,
				"y": 1.8937712082,
				"z": 4.0463540148,
				"element": "H" 
			},
			{
				"x": 0.8566046776,
				"y": 2.1725418652,
				"z": 3.427361356,
				"element": "H" 
			}
		],
		 "valence_orbital": [ 
			{
				"type": "occ",
				"energy": -0.28515,
				"method": "rhf"
			},
			{
				"type": "occ",
				"energy": -0.2846,
				"method": "rhf"
			},
			{
				"type": "occ",
				"energy": -0.27325,
				"method": "rhf"
			},
			{
				"type": "occ",
				"energy": -0.26637,
				"method": "rhf"
			},
			{
				"type": "occ",
				"energy": -0.20888,
				"method": "rhf"
			},
			{
				"type": "unocc",
				"energy": -0.04813,
				"method": "rhf"
			},
			{
				"type": "unocc",
				"energy": 0.00204,
				"method": "rhf"
			},
			{
				"type": "unocc",
				"energy": 0.01867,
				"method": "rhf"
			},
			{
				"type": "unocc",
				"energy": 0.02555,
				"method": "rhf"
			},
			{
				"type": "unocc",
				"energy": 0.05247,
				"method": "rhf"
			}
		],
		"cosmo_sigma_profile": { 
			"-0.025": 0.0,
			"-0.024": 0.0,
			"-0.023": 0.0,
			"-0.022": 0.0,
			"-0.021": 0.0,
			"-0.02": 0.0,
			"-0.019": 0.10034616615,
			"-0.018": 0.702576640058,
			"-0.017": 1.0100313175,
			"-0.016": 1.06596370668,
			"-0.015": 0.831518256461,
			"-0.014": 0.240653012331,
			"-0.013": 0.481007182865,
			"-0.012": 1.04123434955,
			"-0.011": 0.876013030937,
			"-0.01": 1.24030566534,
			"-0.009": 2.56581599547,
			"-0.008": 6.41376739852,
			"-0.007": 12.1562962801,
			"-0.006": 10.9242888143,
			"-0.005": 11.9466093342,
			"-0.004": 11.6299493879,
			"-0.003": 11.4677076401,
			"-0.002": 12.0740056208,
			"-0.001": 11.2553764593,
			"0.0": 14.8873944143,
			"0.001": 23.6105667279,
			"0.002": 22.3635670972,
			"0.003": 20.7492094811,
			"0.004": 12.0568190868,
			"0.005": 5.92497556931,
			"0.006": 5.19208394664,
			"0.007": 4.58407033138,
			"0.008": 4.54878372144,
			"0.009": 5.13498283679,
			"0.01": 4.39906463052,
			"0.011": 3.77972130822,
			"0.012": 2.21423418886,
			"0.013": 1.03383180806,
			"0.014": 0.960596648165,
			"0.015": 0.692846910758,
			"0.016": 0.0,
			"0.017": 0.0,
			"0.018": 0.0,
			"0.019": 0.0,
			"0.02": 0.0,
			"0.021": 0.0,
			"0.022": 0.0,
			"0.023": 0.0,
			"0.024": 0.0,
			"0.025": 0.0
		}
	}
}
