{
	 "smiles": "OC(=O)C1CCN(CC1)C1=NC=NC2=C1SC=C2", 
	 "Tm": 521.15, 
	 "num_atms": 31, 
	 "gaussian": { 
		 "optdone": 1, 
		 "sigma_profile": "yes", 
		 "theory": "DFT", 
		 "functional": "B3LYP", 
		 "basiset": "6-31G**", 
		 "properties": { 
			 "R2extent": 6063.1653, 
			 "electric_dipole_moment_norm": 3.5105661495, 
			 "electric_quadrupole_moment_norm": 28.7433619415, 
			 "total_energy": -1178.00514222, 
			 "HOMO_LUMO_gap": 0.17619, 
			 "cosmo_polarized_energy": -21.09, 
			 "cosmo_cavitation_energy": 34.8, 
			 "cosmo_dispersion_energy": -25.95, 
			 "cosmo_repulsion_energy": 1.92, 
			 "cosmo_total_nonelectrostatic_energy": 10.78, 
			 "SMD_solvation_energy": 3.51 
		},
		"coords": [
			{
				"x": 1.1374190559,
				"y": 3.8973301735,
				"z": -1.3562495426,
				"element": "O" 
			},
			{
				"x": 1.7173329451,
				"y": 3.2775281931,
				"z": -0.2906965563,
				"element": "C" 
			},
			{
				"x": 2.5840183917,
				"y": 3.8387776928,
				"z": 0.331090072,
				"element": "O" 
			},
			{
				"x": 1.1806691604,
				"y": 1.8851763609,
				"z": 0.0265683549,
				"element": "C" 
			},
			{
				"x": -0.3556944058,
				"y": 1.9135670146,
				"z": 0.2943754529,
				"element": "C" 
			},
			{
				"x": -0.7430701058,
				"y": 0.7934606601,
				"z": 1.2790005524,
				"element": "C" 
			},
			{
				"x": 0.0674498978,
				"y": -0.3974437122,
				"z": 1.055788877,
				"element": "N" 
			},
			{
				"x": 1.496699911,
				"y": -0.2265962867,
				"z": 1.3745077129,
				"element": "C" 
			},
			{
				"x": 1.9114235196,
				"y": 1.2464472956,
				"z": 1.2128659429,
				"element": "C" 
			},
			{
				"x": -0.4200349955,
				"y": -1.6649221406,
				"z": 0.8687545638,
				"element": "C" 
			},
			{
				"x": 0.4426308833,
				"y": -2.6685453721,
				"z": 1.1087191823,
				"element": "N" 
			},
			{
				"x": 0.0362548544,
				"y": -3.9329192298,
				"z": 0.9240494268,
				"element": "C" 
			},
			{
				"x": -1.1522644649,
				"y": -4.3615764585,
				"z": 0.525983186,
				"element": "N" 
			},
			{
				"x": -2.0303399165,
				"y": -3.3684186929,
				"z": 0.2529620171,
				"element": "C" 
			},
			{
				"x": -1.7246636073,
				"y": -1.9984208503,
				"z": 0.4048110022,
				"element": "C" 
			},
			{
				"x": -3.0750544621,
				"y": -1.0054463003,
				"z": -0.1294472346,
				"element": "S" 
			},
			{
				"x": -4.0169812873,
				"y": -2.4268592564,
				"z": -0.5089384861,
				"element": "C" 
			},
			{
				"x": -3.3582276238,
				"y": -3.585743338,
				"z": -0.2591396237,
				"element": "C" 
			},
			{
				"x": 0.474536365,
				"y": 3.3207931448,
				"z": -1.7622029953,
				"element": "H" 
			},
			{
				"x": 1.3587129326,
				"y": 1.2604384092,
				"z": -0.8609891003,
				"element": "H" 
			},
			{
				"x": -0.6572860785,
				"y": 2.8760544775,
				"z": 0.7234320571,
				"element": "H" 
			},
			{
				"x": -0.9110293115,
				"y": 1.7874276839,
				"z": -0.6426747674,
				"element": "H" 
			},
			{
				"x": -1.8030283607,
				"y": 0.5585009229,
				"z": 1.2051789923,
				"element": "H" 
			},
			{
				"x": -0.5846343593,
				"y": 1.138498763,
				"z": 2.3104040399,
				"element": "H" 
			},
			{
				"x": 2.0662438668,
				"y": -0.8643553707,
				"z": 0.6945371097,
				"element": "H" 
			},
			{
				"x": 1.714437176,
				"y": -0.5838903036,
				"z": 2.3897701308,
				"element": "H" 
			},
			{
				"x": 1.6992765764,
				"y": 1.8251295058,
				"z": 2.1181263611,
				"element": "H" 
			},
			{
				"x": 2.992875296,
				"y": 1.3041447064,
				"z": 1.0690198948,
				"element": "H" 
			},
			{
				"x": 0.7828325258,
				"y": -4.6967174481,
				"z": 1.1367225695,
				"element": "H" 
			},
			{
				"x": -5.0179949424,
				"y": -2.2987588823,
				"z": -0.8985049221,
				"element": "H" 
			},
			{
				"x": -3.7606094363,
				"y": -4.5764613619,
				"z": -0.4291242701,
				"element": "H" 
			}
		],
		 "valence_orbital": [ 
			{
				"type": "occ",
				"energy": -0.27577,
				"method": "rhf"
			},
			{
				"type": "occ",
				"energy": -0.27105,
				"method": "rhf"
			},
			{
				"type": "occ",
				"energy": -0.25452,
				"method": "rhf"
			},
			{
				"type": "occ",
				"energy": -0.25119,
				"method": "rhf"
			},
			{
				"type": "occ",
				"energy": -0.21976,
				"method": "rhf"
			},
			{
				"type": "unocc",
				"energy": -0.04357,
				"method": "rhf"
			},
			{
				"type": "unocc",
				"energy": -0.01286,
				"method": "rhf"
			},
			{
				"type": "unocc",
				"energy": 0.00359,
				"method": "rhf"
			},
			{
				"type": "unocc",
				"energy": 0.00944,
				"method": "rhf"
			},
			{
				"type": "unocc",
				"energy": 0.03869,
				"method": "rhf"
			}
		],
		"cosmo_sigma_profile": { 
			"-0.025": 0.0,
			"-0.024": 0.0,
			"-0.023": 0.0,
			"-0.022": 0.0,
			"-0.021": 0.0,
			"-0.02": 0.0,
			"-0.019": 0.0,
			"-0.018": 0.514590225944,
			"-0.017": 1.15460406626,
			"-0.016": 1.43989714952,
			"-0.015": 1.12857383603,
			"-0.014": 0.998215856879,
			"-0.013": 0.733411615927,
			"-0.012": 1.06821439704,
			"-0.011": 1.37323416931,
			"-0.01": 2.11341454792,
			"-0.009": 3.04182568559,
			"-0.008": 3.57445542971,
			"-0.007": 6.86853227872,
			"-0.006": 11.87904269,
			"-0.005": 20.7839400339,
			"-0.004": 29.1243939304,
			"-0.003": 25.1368832053,
			"-0.002": 16.9496893183,
			"-0.001": 14.7074348003,
			"0.0": 14.636220298,
			"0.001": 20.5070535134,
			"0.002": 19.7603493876,
			"0.003": 15.2439644152,
			"0.004": 9.60941353915,
			"0.005": 7.33161827946,
			"0.006": 4.88429912748,
			"0.007": 4.64605466852,
			"0.008": 6.18301202902,
			"0.009": 5.37853855687,
			"0.01": 6.64169487546,
			"0.011": 7.66270855446,
			"0.012": 6.95195150806,
			"0.013": 2.9125787737,
			"0.014": 1.31227570813,
			"0.015": 0.843794610235,
			"0.016": 0.824757954045,
			"0.017": 0.179323062074,
			"0.018": 0.0,
			"0.019": 0.0,
			"0.02": 0.0,
			"0.021": 0.0,
			"0.022": 0.0,
			"0.023": 0.0,
			"0.024": 0.0,
			"0.025": 0.0
		}
	}
}
