{
	 "smiles": "COC1CCCC1", 
	 "Tm": 133.15, 
	 "num_atms": 19, 
	 "gaussian": { 
		 "optdone": 1, 
		 "sigma_profile": "yes", 
		 "theory": "DFT", 
		 "functional": "B3LYP", 
		 "basiset": "6-31G**", 
		 "properties": { 
			 "R2extent": 1189.4545, 
			 "electric_dipole_moment_norm": 1.29930992839, 
			 "electric_quadrupole_moment_norm": 4.94256213517, 
			 "total_energy": -311.080612029, 
			 "HOMO_LUMO_gap": 0.31954, 
			 "cosmo_polarized_energy": -3.66, 
			 "cosmo_cavitation_energy": 19.55, 
			 "cosmo_dispersion_energy": -15.05, 
			 "cosmo_repulsion_energy": 1.27, 
			 "cosmo_total_nonelectrostatic_energy": 5.77, 
			 "SMD_solvation_energy": 3.26 
		},
		"coords": [
			{
				"x": -0.782997213,
				"y": 0.1487540019,
				"z": -2.0348113423,
				"element": "C" 
			},
			{
				"x": -1.7124318765,
				"y": 1.1164147327,
				"z": -1.5953956953,
				"element": "O" 
			},
			{
				"x": -1.8134032269,
				"y": 1.33484413,
				"z": -0.1865527044,
				"element": "C" 
			},
			{
				"x": -2.3944387149,
				"y": 0.1238451673,
				"z": 0.603868324,
				"element": "C" 
			},
			{
				"x": -1.5183897584,
				"y": -0.0238160278,
				"z": 1.8640348923,
				"element": "C" 
			},
			{
				"x": -0.1344813911,
				"y": 0.4742479759,
				"z": 1.409513022,
				"element": "C" 
			},
			{
				"x": -0.4765773884,
				"y": 1.688853912,
				"z": 0.5291964229,
				"element": "C" 
			},
			{
				"x": -0.9976790644,
				"y": -0.8606043853,
				"z": -1.6533571586,
				"element": "H" 
			},
			{
				"x": -0.856531824,
				"y": 0.1224062802,
				"z": -3.125206563,
				"element": "H" 
			},
			{
				"x": 0.2530683658,
				"y": 0.4018549249,
				"z": -1.7664111423,
				"element": "H" 
			},
			{
				"x": -2.4981544628,
				"y": 2.1859429984,
				"z": -0.1301223815,
				"element": "H" 
			},
			{
				"x": -2.3216957595,
				"y": -0.7778216336,
				"z": -0.0134175236,
				"element": "H" 
			},
			{
				"x": -3.4552598576,
				"y": 0.2599412078,
				"z": 0.8332044893,
				"element": "H" 
			},
			{
				"x": -1.5041060955,
				"y": -1.0460053609,
				"z": 2.2558659618,
				"element": "H" 
			},
			{
				"x": -1.8954742238,
				"y": 0.624059982,
				"z": 2.6658557614,
				"element": "H" 
			},
			{
				"x": 0.3638798405,
				"y": -0.3025313164,
				"z": 0.8153646346,
				"element": "H" 
			},
			{
				"x": 0.5304568563,
				"y": 0.7210729663,
				"z": 2.2433992244,
				"element": "H" 
			},
			{
				"x": -0.643288839,
				"y": 2.5644753565,
				"z": 1.1677386424,
				"element": "H" 
			},
			{
				"x": 0.3065046332,
				"y": 1.9648650881,
				"z": -0.182866864,
				"element": "H" 
			}
		],
		 "valence_orbital": [ 
			{
				"type": "occ",
				"energy": -0.3339,
				"method": "rhf"
			},
			{
				"type": "occ",
				"energy": -0.32818,
				"method": "rhf"
			},
			{
				"type": "occ",
				"energy": -0.3217,
				"method": "rhf"
			},
			{
				"type": "occ",
				"energy": -0.29036,
				"method": "rhf"
			},
			{
				"type": "occ",
				"energy": -0.24072,
				"method": "rhf"
			},
			{
				"type": "unocc",
				"energy": 0.07882,
				"method": "rhf"
			},
			{
				"type": "unocc",
				"energy": 0.08385,
				"method": "rhf"
			},
			{
				"type": "unocc",
				"energy": 0.12728,
				"method": "rhf"
			},
			{
				"type": "unocc",
				"energy": 0.13406,
				"method": "rhf"
			},
			{
				"type": "unocc",
				"energy": 0.1543,
				"method": "rhf"
			}
		],
		"cosmo_sigma_profile": { 
			"-0.025": 0.0,
			"-0.024": 0.0,
			"-0.023": 0.0,
			"-0.022": 0.0,
			"-0.021": 0.0,
			"-0.02": 0.0,
			"-0.019": 0.0,
			"-0.018": 0.0,
			"-0.017": 0.0,
			"-0.016": 0.0,
			"-0.015": 0.0,
			"-0.014": 0.0,
			"-0.013": 0.0,
			"-0.012": 0.0,
			"-0.011": 0.0,
			"-0.01": 0.0,
			"-0.009": 0.0,
			"-0.008": 0.0,
			"-0.007": 0.0,
			"-0.006": 0.0,
			"-0.005": 0.939523246921,
			"-0.004": 6.49579977123,
			"-0.003": 20.3802193424,
			"-0.002": 32.7821555453,
			"-0.001": 25.994304778,
			"0.0": 19.9113912307,
			"0.001": 18.7268704471,
			"0.002": 7.90899630207,
			"0.003": 1.67210222468,
			"0.004": 2.08769391209,
			"0.005": 1.34660105109,
			"0.006": 1.71392553985,
			"0.007": 1.24958902553,
			"0.008": 1.32941982367,
			"0.009": 1.63343138753,
			"0.01": 1.29112471542,
			"0.011": 0.50593765478,
			"0.012": 1.57206573451,
			"0.013": 1.60621111173,
			"0.014": 1.71650529858,
			"0.015": 0.0982003539068,
			"0.016": 0.0,
			"0.017": 0.0,
			"0.018": 0.0,
			"0.019": 0.0,
			"0.02": 0.0,
			"0.021": 0.0,
			"0.022": 0.0,
			"0.023": 0.0,
			"0.024": 0.0,
			"0.025": 0.0
		}
	}
}
