{
	 "smiles": "O=C1NC2=C(CN(CCC3=CC=CC=C3)CC2)C=C1C#N", 
	 "Tm": 493.15, 
	 "num_atms": 38, 
	 "gaussian": { 
		 "optdone": 1, 
		 "sigma_profile": "yes", 
		 "theory": "DFT", 
		 "functional": "B3LYP", 
		 "basiset": "6-31G**", 
		 "properties": { 
			 "R2extent": 9144.4661, 
			 "electric_dipole_moment_norm": 9.12733814099, 
			 "electric_quadrupole_moment_norm": 58.5381699159, 
			 "total_energy": -897.525750946, 
			 "HOMO_LUMO_gap": 0.15515, 
			 "cosmo_polarized_energy": -24.78, 
			 "cosmo_cavitation_energy": 41.91, 
			 "cosmo_dispersion_energy": -28.65, 
			 "cosmo_repulsion_energy": 2.19, 
			 "cosmo_total_nonelectrostatic_energy": 15.45, 
			 "SMD_solvation_energy": 7.65 
		},
		"coords": [
			{
				"x": 2.8018482812,
				"y": 5.4097606043,
				"z": -0.0945444741,
				"element": "O" 
			},
			{
				"x": 2.1837628181,
				"y": 4.4154175788,
				"z": 0.256004438,
				"element": "C" 
			},
			{
				"x": 2.2435646194,
				"y": 3.2314870559,
				"z": -0.5076718796,
				"element": "N" 
			},
			{
				"x": 1.6108091306,
				"y": 2.0512584617,
				"z": -0.2417048203,
				"element": "C" 
			},
			{
				"x": 0.8116779742,
				"y": 1.9453493605,
				"z": 0.871363363,
				"element": "C" 
			},
			{
				"x": 0.0967441093,
				"y": 0.6519915499,
				"z": 1.1959952285,
				"element": "C" 
			},
			{
				"x": 0.0423097236,
				"y": -0.248908974,
				"z": 0.0464705836,
				"element": "N" 
			},
			{
				"x": -0.5887177276,
				"y": -1.5299466552,
				"z": 0.3814017918,
				"element": "C" 
			},
			{
				"x": -1.2803290799,
				"y": -2.2019758575,
				"z": -0.8233241838,
				"element": "C" 
			},
			{
				"x": -2.5775011113,
				"y": -1.5367024344,
				"z": -1.2347128459,
				"element": "C" 
			},
			{
				"x": -3.8077316624,
				"y": -2.1199897267,
				"z": -0.9020462184,
				"element": "C" 
			},
			{
				"x": -5.0131137176,
				"y": -1.5088345245,
				"z": -1.2524233306,
				"element": "C" 
			},
			{
				"x": -5.0067546935,
				"y": -0.2976389702,
				"z": -1.9451058767,
				"element": "C" 
			},
			{
				"x": -3.7880700381,
				"y": 0.2946524084,
				"z": -2.2835222446,
				"element": "C" 
			},
			{
				"x": -2.5857358747,
				"y": -0.3197194851,
				"z": -1.9323144035,
				"element": "C" 
			},
			{
				"x": 1.363414243,
				"y": -0.4108245833,
				"z": -0.5552285155,
				"element": "C" 
			},
			{
				"x": 1.8123212708,
				"y": 0.9068161046,
				"z": -1.195395964,
				"element": "C" 
			},
			{
				"x": 0.6914921372,
				"y": 3.0816091694,
				"z": 1.7110070734,
				"element": "C" 
			},
			{
				"x": 1.3346894792,
				"y": 4.270764742,
				"z": 1.4406760163,
				"element": "C" 
			},
			{
				"x": 1.1915711129,
				"y": 5.3983381263,
				"z": 2.3037995311,
				"element": "C" 
			},
			{
				"x": 1.0551974539,
				"y": 6.2987471456,
				"z": 3.0281544242,
				"element": "N" 
			},
			{
				"x": 2.8331177335,
				"y": 3.3127271413,
				"z": -1.3285362259,
				"element": "H" 
			},
			{
				"x": -0.9315205891,
				"y": 0.8737129423,
				"z": 1.505524799,
				"element": "H" 
			},
			{
				"x": 0.5918612084,
				"y": 0.1741335211,
				"z": 2.0674088345,
				"element": "H" 
			},
			{
				"x": 0.145018071,
				"y": -2.2289698973,
				"z": 0.8244357702,
				"element": "H" 
			},
			{
				"x": -1.344840451,
				"y": -1.3438222994,
				"z": 1.1511589684,
				"element": "H" 
			},
			{
				"x": -0.58475089,
				"y": -2.2338191422,
				"z": -1.6711311245,
				"element": "H" 
			},
			{
				"x": -1.478612167,
				"y": -3.245951103,
				"z": -0.5544347861,
				"element": "H" 
			},
			{
				"x": -3.8218278278,
				"y": -3.0665316115,
				"z": -0.3661680759,
				"element": "H" 
			},
			{
				"x": -5.9549834366,
				"y": -1.9810915123,
				"z": -0.9872702217,
				"element": "H" 
			},
			{
				"x": -5.9424452077,
				"y": 0.1794985765,
				"z": -2.2220581055,
				"element": "H" 
			},
			{
				"x": -3.7736911321,
				"y": 1.2368133191,
				"z": -2.8246519381,
				"element": "H" 
			},
			{
				"x": -1.6418845126,
				"y": 0.1509485073,
				"z": -2.1878644681,
				"element": "H" 
			},
			{
				"x": 1.3156111136,
				"y": -1.1868000329,
				"z": -1.323794403,
				"element": "H" 
			},
			{
				"x": 2.1153675835,
				"y": -0.7404772296,
				"z": 0.1884492545,
				"element": "H" 
			},
			{
				"x": 2.8675038775,
				"y": 0.8450809342,
				"z": -1.491076373,
				"element": "H" 
			},
			{
				"x": 1.2314137531,
				"y": 1.0922349674,
				"z": -2.1083574316,
				"element": "H" 
			},
			{
				"x": 0.067214425,
				"y": 3.0180618228,
				"z": 2.5989878339,
				"element": "H" 
			}
		],
		 "valence_orbital": [ 
			{
				"type": "occ",
				"energy": -0.26594,
				"method": "rhf"
			},
			{
				"type": "occ",
				"energy": -0.25312,
				"method": "rhf"
			},
			{
				"type": "occ",
				"energy": -0.24642,
				"method": "rhf"
			},
			{
				"type": "occ",
				"energy": -0.23725,
				"method": "rhf"
			},
			{
				"type": "occ",
				"energy": -0.22745,
				"method": "rhf"
			},
			{
				"type": "unocc",
				"energy": -0.0723,
				"method": "rhf"
			},
			{
				"type": "unocc",
				"energy": -0.00532,
				"method": "rhf"
			},
			{
				"type": "unocc",
				"energy": -0.0037,
				"method": "rhf"
			},
			{
				"type": "unocc",
				"energy": -0.00326,
				"method": "rhf"
			},
			{
				"type": "unocc",
				"energy": 0.0404,
				"method": "rhf"
			}
		],
		"cosmo_sigma_profile": { 
			"-0.025": 0.0,
			"-0.024": 0.0,
			"-0.023": 0.0,
			"-0.022": 0.0,
			"-0.021": 0.0,
			"-0.02": 0.0,
			"-0.019": 0.0,
			"-0.018": 0.0,
			"-0.017": 0.0845766742099,
			"-0.016": 0.900146189842,
			"-0.015": 1.1313674665,
			"-0.014": 1.36619455522,
			"-0.013": 0.970531618204,
			"-0.012": 1.01508068064,
			"-0.011": 1.21790838294,
			"-0.01": 1.39802995925,
			"-0.009": 2.89350100125,
			"-0.008": 5.01759111597,
			"-0.007": 4.82691711389,
			"-0.006": 10.4443900241,
			"-0.005": 22.0642855582,
			"-0.004": 29.0807888201,
			"-0.003": 43.1216672729,
			"-0.002": 39.1924449703,
			"-0.001": 30.7886388218,
			"0.0": 19.7454853401,
			"0.001": 10.3960242575,
			"0.002": 11.8847900734,
			"0.003": 11.5108680175,
			"0.004": 9.73055370341,
			"0.005": 12.5870290831,
			"0.006": 13.1263347914,
			"0.007": 11.8715780606,
			"0.008": 5.64184215558,
			"0.009": 5.65634495198,
			"0.01": 4.39763796434,
			"0.011": 4.96816665325,
			"0.012": 5.17867815548,
			"0.013": 8.2372714706,
			"0.014": 2.32509925332,
			"0.015": 0.0,
			"0.016": 0.0,
			"0.017": 0.0,
			"0.018": 0.0,
			"0.019": 0.0,
			"0.02": 0.0,
			"0.021": 0.0,
			"0.022": 0.0,
			"0.023": 0.0,
			"0.024": 0.0,
			"0.025": 0.0
		}
	}
}
