{
	 "smiles": "CCCCCC1=CC=C(C=C1)C#CC1=CC=C(OC)C=C1", 
	 "Tm": 320.15, 
	 "num_atms": 43, 
	 "gaussian": { 
		 "optdone": 1, 
		 "sigma_profile": "yes", 
		 "theory": "DFT", 
		 "functional": "B3LYP", 
		 "basiset": "6-31G**", 
		 "properties": { 
			 "R2extent": 14956.5348, 
			 "electric_dipole_moment_norm": 1.41750821514, 
			 "electric_quadrupole_moment_norm": 22.949425815, 
			 "total_energy": -850.571465297, 
			 "HOMO_LUMO_gap": 0.15652, 
			 "cosmo_polarized_energy": -8.81, 
			 "cosmo_cavitation_energy": 47.32, 
			 "cosmo_dispersion_energy": -32.95, 
			 "cosmo_repulsion_energy": 2.58, 
			 "cosmo_total_nonelectrostatic_energy": 16.95, 
			 "SMD_solvation_energy": 8.23 
		},
		"coords": [
			{
				"x": 5.4465756825,
				"y": -2.6213587345,
				"z": 3.7600177427,
				"element": "C" 
			},
			{
				"x": 5.5966865986,
				"y": -3.4696783453,
				"z": 2.4912090634,
				"element": "C" 
			},
			{
				"x": 4.340604205,
				"y": -3.5191020668,
				"z": 1.6051537974,
				"element": "C" 
			},
			{
				"x": 3.1438758082,
				"y": -4.2377982416,
				"z": 2.2418064494,
				"element": "C" 
			},
			{
				"x": 1.9098085445,
				"y": -4.34288137,
				"z": 1.31693364,
				"element": "C" 
			},
			{
				"x": 1.2656538504,
				"y": -3.0123023566,
				"z": 0.9891953113,
				"element": "C" 
			},
			{
				"x": 0.4684364375,
				"y": -2.3514211918,
				"z": 1.9372145087,
				"element": "C" 
			},
			{
				"x": -0.1162953138,
				"y": -1.1210327889,
				"z": 1.6611269953,
				"element": "C" 
			},
			{
				"x": 0.0769332132,
				"y": -0.500065677,
				"z": 0.4096199436,
				"element": "C" 
			},
			{
				"x": 0.8731951513,
				"y": -1.1611075233,
				"z": -0.5459454251,
				"element": "C" 
			},
			{
				"x": 1.4521568899,
				"y": -2.3930054348,
				"z": -0.2546152955,
				"element": "C" 
			},
			{
				"x": -0.521570808,
				"y": 0.7589864892,
				"z": 0.1189701866,
				"element": "C" 
			},
			{
				"x": -1.032553119,
				"y": 1.8353724494,
				"z": -0.1291725489,
				"element": "C" 
			},
			{
				"x": -1.6315591864,
				"y": 3.0941164161,
				"z": -0.4167950468,
				"element": "C" 
			},
			{
				"x": -1.4395251609,
				"y": 3.7212877896,
				"z": -1.6606702468,
				"element": "C" 
			},
			{
				"x": -2.0228824453,
				"y": 4.9537716458,
				"z": -1.9493774008,
				"element": "C" 
			},
			{
				"x": -2.8187167052,
				"y": 5.5886191172,
				"z": -0.9867891658,
				"element": "C" 
			},
			{
				"x": -3.4360313371,
				"y": 6.7912742812,
				"z": -1.1607370025,
				"element": "O" 
			},
			{
				"x": -3.2699443336,
				"y": 7.4609255274,
				"z": -2.4008977446,
				"element": "C" 
			},
			{
				"x": -3.0205535865,
				"y": 4.9755759084,
				"z": 0.260673344,
				"element": "C" 
			},
			{
				"x": -2.4375766881,
				"y": 3.7507631928,
				"z": 0.5404627305,
				"element": "C" 
			},
			{
				"x": 6.3875217563,
				"y": -2.5790826224,
				"z": 4.3185914633,
				"element": "H" 
			},
			{
				"x": 5.1594456748,
				"y": -1.5924693666,
				"z": 3.513870481,
				"element": "H" 
			},
			{
				"x": 4.6842648356,
				"y": -3.0241400256,
				"z": 4.4348321696,
				"element": "H" 
			},
			{
				"x": 5.886059722,
				"y": -4.4932378544,
				"z": 2.7674628596,
				"element": "H" 
			},
			{
				"x": 6.4279737667,
				"y": -3.0716916776,
				"z": 1.8952717712,
				"element": "H" 
			},
			{
				"x": 4.5929678386,
				"y": -4.0265701658,
				"z": 0.6634196115,
				"element": "H" 
			},
			{
				"x": 4.050173688,
				"y": -2.4963981896,
				"z": 1.3311300762,
				"element": "H" 
			},
			{
				"x": 3.4465090988,
				"y": -5.2536874597,
				"z": 2.5309396155,
				"element": "H" 
			},
			{
				"x": 2.8475695328,
				"y": -3.7294569964,
				"z": 3.1676909685,
				"element": "H" 
			},
			{
				"x": 2.2011709962,
				"y": -4.8463453765,
				"z": 0.3866856884,
				"element": "H" 
			},
			{
				"x": 1.1679611917,
				"y": -4.9905882375,
				"z": 1.8010239109,
				"element": "H" 
			},
			{
				"x": 0.2992530606,
				"y": -2.813918387,
				"z": 2.9070060205,
				"element": "H" 
			},
			{
				"x": -0.7329008123,
				"y": -0.6278488439,
				"z": 2.4059272886,
				"element": "H" 
			},
			{
				"x": 1.0284538608,
				"y": -0.6992926993,
				"z": -1.5158663266,
				"element": "H" 
			},
			{
				"x": 2.0589772103,
				"y": -2.8870930956,
				"z": -1.009374422,
				"element": "H" 
			},
			{
				"x": -0.8236843395,
				"y": 3.2324730821,
				"z": -2.4088009855,
				"element": "H" 
			},
			{
				"x": -1.8519978993,
				"y": 5.406033658,
				"z": -2.9190105446,
				"element": "H" 
			},
			{
				"x": -3.660624846,
				"y": 6.8671683371,
				"z": -3.2372581084,
				"element": "H" 
			},
			{
				"x": -3.840575983,
				"y": 8.3874143576,
				"z": -2.3216342115,
				"element": "H" 
			},
			{
				"x": -2.2164851359,
				"y": 7.7015231538,
				"z": -2.5932937538,
				"element": "H" 
			},
			{
				"x": -3.6402939633,
				"y": 5.4839701562,
				"z": 0.991976524,
				"element": "H" 
			},
			{
				"x": -2.597856951,
				"y": 3.2828991666,
				"z": 1.5064260678,
				"element": "H" 
			}
		],
		 "valence_orbital": [ 
			{
				"type": "occ",
				"energy": -0.25777,
				"method": "rhf"
			},
			{
				"type": "occ",
				"energy": -0.25476,
				"method": "rhf"
			},
			{
				"type": "occ",
				"energy": -0.24884,
				"method": "rhf"
			},
			{
				"type": "occ",
				"energy": -0.24306,
				"method": "rhf"
			},
			{
				"type": "occ",
				"energy": -0.19321,
				"method": "rhf"
			},
			{
				"type": "unocc",
				"energy": -0.03669,
				"method": "rhf"
			},
			{
				"type": "unocc",
				"energy": -0.00264,
				"method": "rhf"
			},
			{
				"type": "unocc",
				"energy": 0.00101,
				"method": "rhf"
			},
			{
				"type": "unocc",
				"energy": 0.01928,
				"method": "rhf"
			},
			{
				"type": "unocc",
				"energy": 0.06091,
				"method": "rhf"
			}
		],
		"cosmo_sigma_profile": { 
			"-0.025": 0.0,
			"-0.024": 0.0,
			"-0.023": 0.0,
			"-0.022": 0.0,
			"-0.021": 0.0,
			"-0.02": 0.0,
			"-0.019": 0.0,
			"-0.018": 0.0,
			"-0.017": 0.0,
			"-0.016": 0.0,
			"-0.015": 0.0,
			"-0.014": 0.0,
			"-0.013": 0.0,
			"-0.012": 0.0,
			"-0.011": 0.0,
			"-0.01": 0.0,
			"-0.009": 0.0,
			"-0.008": 0.0,
			"-0.007": 1.68116974937,
			"-0.006": 14.9551652416,
			"-0.005": 23.5740518952,
			"-0.004": 25.8754065927,
			"-0.003": 30.1176329972,
			"-0.002": 36.4240715963,
			"-0.001": 38.7936391905,
			"0.0": 41.2523658615,
			"0.001": 38.046063282,
			"0.002": 26.5086578702,
			"0.003": 25.5074697034,
			"0.004": 34.1128160914,
			"0.005": 21.8240438147,
			"0.006": 8.66894962731,
			"0.007": 3.12661629722,
			"0.008": 1.03677740114,
			"0.009": 1.44027728733,
			"0.01": 1.34012444891,
			"0.011": 0.098609743061,
			"0.012": 0.0,
			"0.013": 0.0,
			"0.014": 0.0,
			"0.015": 0.0,
			"0.016": 0.0,
			"0.017": 0.0,
			"0.018": 0.0,
			"0.019": 0.0,
			"0.02": 0.0,
			"0.021": 0.0,
			"0.022": 0.0,
			"0.023": 0.0,
			"0.024": 0.0,
			"0.025": 0.0
		}
	}
}
