{
	 "smiles": "CCCCCCSC1=NN=C(S)S1", 
	 "Tm": 348.15, 
	 "num_atms": 27, 
	 "gaussian": { 
		 "optdone": 1, 
		 "sigma_profile": "yes", 
		 "theory": "DFT", 
		 "functional": "B3LYP", 
		 "basiset": "6-31G**", 
		 "properties": { 
			 "R2extent": 7782.4846, 
			 "electric_dipole_moment_norm": 2.07771865516, 
			 "electric_quadrupole_moment_norm": 18.2785071122, 
			 "total_energy": -1617.32427722, 
			 "HOMO_LUMO_gap": 0.18562, 
			 "cosmo_polarized_energy": -10.24, 
			 "cosmo_cavitation_energy": 34.61, 
			 "cosmo_dispersion_energy": -25.9, 
			 "cosmo_repulsion_energy": 1.97, 
			 "cosmo_total_nonelectrostatic_energy": 10.68, 
			 "SMD_solvation_energy": 2.66 
		},
		"coords": [
			{
				"x": 0.4398483173,
				"y": 2.2226509415,
				"z": -1.7388715258,
				"element": "C" 
			},
			{
				"x": -1.0329830769,
				"y": 2.2152870375,
				"z": -1.3128033349,
				"element": "C" 
			},
			{
				"x": -1.6379537938,
				"y": 0.8094000445,
				"z": -1.1475975107,
				"element": "C" 
			},
			{
				"x": -1.0084929612,
				"y": -0.0734052855,
				"z": -0.0556292675,
				"element": "C" 
			},
			{
				"x": -1.2022162873,
				"y": 0.467164219,
				"z": 1.3661274801,
				"element": "C" 
			},
			{
				"x": -0.5914099737,
				"y": -0.3958561391,
				"z": 2.4744363442,
				"element": "C" 
			},
			{
				"x": -1.3926230995,
				"y": -2.0516586338,
				"z": 2.6914726691,
				"element": "S" 
			},
			{
				"x": -0.2622046873,
				"y": -3.1029169578,
				"z": 1.8481454166,
				"element": "C" 
			},
			{
				"x": 0.8395760148,
				"y": -2.733999703,
				"z": 1.2589990519,
				"element": "N" 
			},
			{
				"x": 1.546192573,
				"y": -3.7787457472,
				"z": 0.7202502705,
				"element": "N" 
			},
			{
				"x": 0.9701149574,
				"y": -4.9280249009,
				"z": 0.8941261109,
				"element": "C" 
			},
			{
				"x": 1.6625317729,
				"y": -6.4064887473,
				"z": 0.2146038421,
				"element": "S" 
			},
			{
				"x": -0.5606709104,
				"y": -4.841906911,
				"z": 1.7713123551,
				"element": "S" 
			},
			{
				"x": 1.0878733745,
				"y": 1.7635076639,
				"z": -0.9850864994,
				"element": "H" 
			},
			{
				"x": 0.582121548,
				"y": 1.6694974126,
				"z": -2.6745227254,
				"element": "H" 
			},
			{
				"x": 0.7982872411,
				"y": 3.2447755859,
				"z": -1.8996438268,
				"element": "H" 
			},
			{
				"x": -1.1474595957,
				"y": 2.7853219174,
				"z": -0.3814045767,
				"element": "H" 
			},
			{
				"x": -1.623857962,
				"y": 2.7556600781,
				"z": -2.0634305125,
				"element": "H" 
			},
			{
				"x": -2.7136204287,
				"y": 0.9086797902,
				"z": -0.9457032586,
				"element": "H" 
			},
			{
				"x": -1.5586474268,
				"y": 0.2809729376,
				"z": -2.1071766018,
				"element": "H" 
			},
			{
				"x": 0.0609806024,
				"y": -0.2178425948,
				"z": -0.2476553851,
				"element": "H" 
			},
			{
				"x": -1.4588398532,
				"y": -1.0713392129,
				"z": -0.1173594434,
				"element": "H" 
			},
			{
				"x": -0.7359809526,
				"y": 1.4575330724,
				"z": 1.458916397,
				"element": "H" 
			},
			{
				"x": -2.2721813347,
				"y": 0.6142536133,
				"z": 1.5646786488,
				"element": "H" 
			},
			{
				"x": 0.4704473144,
				"y": -0.5865698408,
				"z": 2.3066975375,
				"element": "H" 
			},
			{
				"x": -0.7098908233,
				"y": 0.0825044538,
				"z": 3.4504680138,
				"element": "H" 
			},
			{
				"x": 0.9565594512,
				"y": -7.2606540934,
				"z": 0.9810503311,
				"element": "H" 
			}
		],
		 "valence_orbital": [ 
			{
				"type": "occ",
				"energy": -0.30908,
				"method": "rhf"
			},
			{
				"type": "occ",
				"energy": -0.30749,
				"method": "rhf"
			},
			{
				"type": "occ",
				"energy": -0.27303,
				"method": "rhf"
			},
			{
				"type": "occ",
				"energy": -0.27201,
				"method": "rhf"
			},
			{
				"type": "occ",
				"energy": -0.22825,
				"method": "rhf"
			},
			{
				"type": "unocc",
				"energy": -0.04263,
				"method": "rhf"
			},
			{
				"type": "unocc",
				"energy": -0.02984,
				"method": "rhf"
			},
			{
				"type": "unocc",
				"energy": 0.00995,
				"method": "rhf"
			},
			{
				"type": "unocc",
				"energy": 0.01473,
				"method": "rhf"
			},
			{
				"type": "unocc",
				"energy": 0.02238,
				"method": "rhf"
			}
		],
		"cosmo_sigma_profile": { 
			"-0.025": 0.0,
			"-0.024": 0.0,
			"-0.023": 0.0,
			"-0.022": 0.0,
			"-0.021": 0.0,
			"-0.02": 0.0,
			"-0.019": 0.0,
			"-0.018": 0.0,
			"-0.017": 0.0,
			"-0.016": 0.0,
			"-0.015": 0.0,
			"-0.014": 0.0,
			"-0.013": 1.14632941985,
			"-0.012": 3.47228646379,
			"-0.011": 2.0199289529,
			"-0.01": 1.6402986857,
			"-0.009": 1.39099651228,
			"-0.008": 1.43002612328,
			"-0.007": 2.33951518128,
			"-0.006": 5.003770191,
			"-0.005": 6.0589420946,
			"-0.004": 10.8999957688,
			"-0.003": 19.1774965181,
			"-0.002": 34.0423643796,
			"-0.001": 39.2367334224,
			"0.0": 40.1538225264,
			"0.001": 36.9068451066,
			"0.002": 20.7238239094,
			"0.003": 10.7716692234,
			"0.004": 8.94580530504,
			"0.005": 8.69276410519,
			"0.006": 8.03733040385,
			"0.007": 3.77520223081,
			"0.008": 2.04263077168,
			"0.009": 2.07193890819,
			"0.01": 2.5264100133,
			"0.011": 3.07617461682,
			"0.012": 1.57074412516,
			"0.013": 1.23890063547,
			"0.014": 0.517118979098,
			"0.015": 0.0,
			"0.016": 0.0,
			"0.017": 0.0,
			"0.018": 0.0,
			"0.019": 0.0,
			"0.02": 0.0,
			"0.021": 0.0,
			"0.022": 0.0,
			"0.023": 0.0,
			"0.024": 0.0,
			"0.025": 0.0
		}
	}
}
