{
	 "smiles": "CC1=NN(N=C1C(=O)NNC(=N)C(Cl)(Cl)Cl)C1=CC=CC=C1", 
	 "Tm": 471.15, 
	 "num_atms": 33, 
	 "gaussian": { 
		 "optdone": 1, 
		 "sigma_profile": "yes", 
		 "theory": "DFT", 
		 "functional": "B3LYP", 
		 "basiset": "6-31G**", 
		 "properties": { 
			 "R2extent": 15711.3975, 
			 "electric_dipole_moment_norm": 6.15035871068, 
			 "electric_quadrupole_moment_norm": 18.9547251478, 
			 "total_energy": -2248.14873, 
			 "HOMO_LUMO_gap": 0.17674, 
			 "cosmo_polarized_energy": -15.78, 
			 "cosmo_cavitation_energy": 44.5, 
			 "cosmo_dispersion_energy": -31.58, 
			 "cosmo_repulsion_energy": 2.43, 
			 "cosmo_total_nonelectrostatic_energy": 15.35, 
			 "SMD_solvation_energy": 5.34 
		},
		"coords": [
			{
				"x": -2.4290729522,
				"y": 0.6075139926,
				"z": -1.2998488368,
				"element": "C" 
			},
			{
				"x": -1.1965731948,
				"y": 0.8855241452,
				"z": -0.5055843679,
				"element": "C" 
			},
			{
				"x": -0.5810924127,
				"y": 2.0675420941,
				"z": -0.5274902818,
				"element": "N" 
			},
			{
				"x": 0.4661934866,
				"y": 1.921603223,
				"z": 0.3013982885,
				"element": "N" 
			},
			{
				"x": 0.5763778348,
				"y": 0.7237519141,
				"z": 0.860897143,
				"element": "N" 
			},
			{
				"x": -0.4651353518,
				"y": 0.0422837276,
				"z": 0.3673086717,
				"element": "C" 
			},
			{
				"x": -0.7470076844,
				"y": -1.3596997022,
				"z": 0.7330538776,
				"element": "C" 
			},
			{
				"x": -1.7386263941,
				"y": -1.9631876906,
				"z": 0.3464956409,
				"element": "O" 
			},
			{
				"x": 0.2038968154,
				"y": -1.9397514982,
				"z": 1.5563665861,
				"element": "N" 
			},
			{
				"x": -0.0806785326,
				"y": -3.1633864147,
				"z": 2.1511140713,
				"element": "N" 
			},
			{
				"x": 0.5172597609,
				"y": -4.2873172662,
				"z": 1.5568107479,
				"element": "C" 
			},
			{
				"x": 1.4433117206,
				"y": -4.3104402788,
				"z": 0.6947781238,
				"element": "N" 
			},
			{
				"x": 0.0200584746,
				"y": -5.615401575,
				"z": 2.1670851497,
				"element": "C" 
			},
			{
				"x": 0.463691014,
				"y": -5.658599295,
				"z": 3.9211656728,
				"element": "Cl" 
			},
			{
				"x": 0.7177200377,
				"y": -7.0260578855,
				"z": 1.3482347958,
				"element": "Cl" 
			},
			{
				"x": -1.7917237998,
				"y": -5.6918840997,
				"z": 2.0286695686,
				"element": "Cl" 
			},
			{
				"x": 1.3852398366,
				"y": 2.9805381089,
				"z": 0.5556756753,
				"element": "C" 
			},
			{
				"x": 1.1812115363,
				"y": 4.222305395,
				"z": -0.0525142722,
				"element": "C" 
			},
			{
				"x": 2.0837751609,
				"y": 5.2537672838,
				"z": 0.1997897739,
				"element": "C" 
			},
			{
				"x": 3.1752637848,
				"y": 5.0520638226,
				"z": 1.0469977513,
				"element": "C" 
			},
			{
				"x": 3.3640151142,
				"y": 3.8047672188,
				"z": 1.6462291216,
				"element": "C" 
			},
			{
				"x": 2.4728262115,
				"y": 2.761037178,
				"z": 1.4056538675,
				"element": "C" 
			},
			{
				"x": -3.2525255583,
				"y": 0.3096476443,
				"z": -0.6449053975,
				"element": "H" 
			},
			{
				"x": -2.265321708,
				"y": -0.2230543075,
				"z": -1.9924045726,
				"element": "H" 
			},
			{
				"x": -2.7163265491,
				"y": 1.4968662429,
				"z": -1.8637180949,
				"element": "H" 
			},
			{
				"x": 0.8240298026,
				"y": -1.3296643081,
				"z": 2.0757660204,
				"element": "H" 
			},
			{
				"x": -1.0697945667,
				"y": -3.2667896587,
				"z": 2.362197187,
				"element": "H" 
			},
			{
				"x": 1.6606365528,
				"y": -3.3560477741,
				"z": 0.3951006772,
				"element": "H" 
			},
			{
				"x": 0.3301480722,
				"y": 4.3627761134,
				"z": -0.7069306869,
				"element": "H" 
			},
			{
				"x": 1.9295032231,
				"y": 6.220118532,
				"z": -0.2704756156,
				"element": "H" 
			},
			{
				"x": 3.8740526384,
				"y": 5.8604135409,
				"z": 1.2386771957,
				"element": "H" 
			},
			{
				"x": 4.2104873143,
				"y": 3.6385952927,
				"z": 2.3055243499,
				"element": "H" 
			},
			{
				"x": 2.609780312,
				"y": 1.7891662843,
				"z": 1.8630821688,
				"element": "H" 
			}
		],
		 "valence_orbital": [ 
			{
				"type": "occ",
				"energy": -0.28643,
				"method": "rhf"
			},
			{
				"type": "occ",
				"energy": -0.28452,
				"method": "rhf"
			},
			{
				"type": "occ",
				"energy": -0.2719,
				"method": "rhf"
			},
			{
				"type": "occ",
				"energy": -0.26499,
				"method": "rhf"
			},
			{
				"type": "occ",
				"energy": -0.2462,
				"method": "rhf"
			},
			{
				"type": "unocc",
				"energy": -0.06946,
				"method": "rhf"
			},
			{
				"type": "unocc",
				"energy": -0.04161,
				"method": "rhf"
			},
			{
				"type": "unocc",
				"energy": -0.03709,
				"method": "rhf"
			},
			{
				"type": "unocc",
				"energy": -0.02653,
				"method": "rhf"
			},
			{
				"type": "unocc",
				"energy": -0.01863,
				"method": "rhf"
			}
		],
		"cosmo_sigma_profile": { 
			"-0.025": 0.0,
			"-0.024": 0.0,
			"-0.023": 0.0,
			"-0.022": 0.0,
			"-0.021": 0.0,
			"-0.02": 0.0,
			"-0.019": 0.0,
			"-0.018": 0.0,
			"-0.017": 0.0,
			"-0.016": 0.0,
			"-0.015": 0.147292436571,
			"-0.014": 0.864368931286,
			"-0.013": 1.22398656886,
			"-0.012": 1.1571787131,
			"-0.011": 2.18997020372,
			"-0.01": 2.34364177153,
			"-0.009": 3.47011181134,
			"-0.008": 4.10356156859,
			"-0.007": 5.12415404595,
			"-0.006": 14.8812137919,
			"-0.005": 19.8230651937,
			"-0.004": 22.7402595544,
			"-0.003": 24.8145830517,
			"-0.002": 30.3370287467,
			"-0.001": 32.0167370366,
			"0.0": 28.5770988693,
			"0.001": 32.1247196963,
			"0.002": 39.2163011858,
			"0.003": 38.2433425551,
			"0.004": 19.8814010564,
			"0.005": 7.03504645207,
			"0.006": 5.29058894616,
			"0.007": 4.77593065179,
			"0.008": 4.36168325506,
			"0.009": 4.46410256905,
			"0.01": 3.12267263453,
			"0.011": 4.48779337959,
			"0.012": 3.41656712504,
			"0.013": 0.908848162114,
			"0.014": 1.43871334573,
			"0.015": 0.659488930863,
			"0.016": 0.0,
			"0.017": 0.0,
			"0.018": 0.0,
			"0.019": 0.0,
			"0.02": 0.0,
			"0.021": 0.0,
			"0.022": 0.0,
			"0.023": 0.0,
			"0.024": 0.0,
			"0.025": 0.0
		}
	}
}
