{
	 "smiles": "OC1=C(C=CC=C1)C(=O)NCCCC1=CC=CC=C1", 
	 "Tm": 351.15, 
	 "num_atms": 36, 
	 "gaussian": { 
		 "optdone": 1, 
		 "sigma_profile": "yes", 
		 "theory": "DFT", 
		 "functional": "B3LYP", 
		 "basiset": "6-31G**", 
		 "properties": { 
			 "R2extent": 6069.1342, 
			 "electric_dipole_moment_norm": 4.53483377755, 
			 "electric_quadrupole_moment_norm": 19.0045236262, 
			 "total_energy": -825.163425047, 
			 "HOMO_LUMO_gap": 0.20425, 
			 "cosmo_polarized_energy": -17.58, 
			 "cosmo_cavitation_energy": 38.7, 
			 "cosmo_dispersion_energy": -26.55, 
			 "cosmo_repulsion_energy": 2.05, 
			 "cosmo_total_nonelectrostatic_energy": 14.19, 
			 "SMD_solvation_energy": 6.57 
		},
		"coords": [
			{
				"x": 0.0604298131,
				"y": -0.8138127044,
				"z": 1.9627106938,
				"element": "O" 
			},
			{
				"x": 0.4719311024,
				"y": 0.3209434434,
				"z": 2.6017926626,
				"element": "C" 
			},
			{
				"x": 1.7375699724,
				"y": 0.8396809594,
				"z": 2.2746375435,
				"element": "C" 
			},
			{
				"x": 2.2023768199,
				"y": 1.9551800145,
				"z": 2.9846041854,
				"element": "C" 
			},
			{
				"x": 1.4174297484,
				"y": 2.5878529931,
				"z": 3.9452765217,
				"element": "C" 
			},
			{
				"x": 0.1497828434,
				"y": 2.0792758245,
				"z": 4.2352181274,
				"element": "C" 
			},
			{
				"x": -0.3178528425,
				"y": 0.9457947882,
				"z": 3.5738996086,
				"element": "C" 
			},
			{
				"x": 2.6924906341,
				"y": 0.2196960834,
				"z": 1.2860054692,
				"element": "C" 
			},
			{
				"x": 3.8689329104,
				"y": 0.0448226569,
				"z": 1.5943432006,
				"element": "O" 
			},
			{
				"x": 2.2412462418,
				"y": -0.1118837509,
				"z": 0.0318363853,
				"element": "N" 
			},
			{
				"x": 1.0767730375,
				"y": 0.4306442441,
				"z": -0.6688487837,
				"element": "C" 
			},
			{
				"x": 0.8863489638,
				"y": -0.2638600944,
				"z": -2.0218049893,
				"element": "C" 
			},
			{
				"x": 0.5194495679,
				"y": -1.7613041298,
				"z": -1.9457244368,
				"element": "C" 
			},
			{
				"x": -0.8565968673,
				"y": -2.0483373234,
				"z": -1.3747913291,
				"element": "C" 
			},
			{
				"x": -2.0146368399,
				"y": -1.608432942,
				"z": -2.0334636111,
				"element": "C" 
			},
			{
				"x": -3.2831232358,
				"y": -1.8769420303,
				"z": -1.5180205923,
				"element": "C" 
			},
			{
				"x": -3.4193166906,
				"y": -2.6003102889,
				"z": -0.331119837,
				"element": "C" 
			},
			{
				"x": -2.2764575521,
				"y": -3.0522754038,
				"z": 0.331448679,
				"element": "C" 
			},
			{
				"x": -1.0083023973,
				"y": -2.7762364482,
				"z": -0.1869533413,
				"element": "C" 
			},
			{
				"x": -0.8585233578,
				"y": -1.0115361469,
				"z": 2.1869488327,
				"element": "H" 
			},
			{
				"x": 3.2013512678,
				"y": 2.3153609919,
				"z": 2.7614187367,
				"element": "H" 
			},
			{
				"x": 1.7927686337,
				"y": 3.4612862112,
				"z": 4.4687461285,
				"element": "H" 
			},
			{
				"x": -0.4749083105,
				"y": 2.5556289717,
				"z": 4.9853572324,
				"element": "H" 
			},
			{
				"x": -1.2931320202,
				"y": 0.5296479988,
				"z": 3.8180176228,
				"element": "H" 
			},
			{
				"x": 3.0145639246,
				"y": -0.4070377498,
				"z": -0.5540615124,
				"element": "H" 
			},
			{
				"x": 1.1912621663,
				"y": 1.5114561692,
				"z": -0.8383838363,
				"element": "H" 
			},
			{
				"x": 0.1892766787,
				"y": 0.2796656643,
				"z": -0.0532624764,
				"element": "H" 
			},
			{
				"x": 0.1078229575,
				"y": 0.2786044913,
				"z": -2.5707399856,
				"element": "H" 
			},
			{
				"x": 1.8051967493,
				"y": -0.1531121577,
				"z": -2.6146595833,
				"element": "H" 
			},
			{
				"x": 1.2738908064,
				"y": -2.2878475569,
				"z": -1.3519449193,
				"element": "H" 
			},
			{
				"x": 0.5783191616,
				"y": -2.1747953518,
				"z": -2.9610107165,
				"element": "H" 
			},
			{
				"x": -1.924163829,
				"y": -1.0552434326,
				"z": -2.9656717173,
				"element": "H" 
			},
			{
				"x": -4.1656583406,
				"y": -1.5278060916,
				"z": -2.0469899192,
				"element": "H" 
			},
			{
				"x": -4.4063218253,
				"y": -2.8165728524,
				"z": 0.0677815841,
				"element": "H" 
			},
			{
				"x": -2.3705320303,
				"y": -3.6313272471,
				"z": 1.2468113176,
				"element": "H" 
			},
			{
				"x": -0.1230878618,
				"y": -3.1214678029,
				"z": 0.3391970551,
				"element": "H" 
			}
		],
		 "valence_orbital": [ 
			{
				"type": "occ",
				"energy": -0.25337,
				"method": "rhf"
			},
			{
				"type": "occ",
				"energy": -0.24496,
				"method": "rhf"
			},
			{
				"type": "occ",
				"energy": -0.24296,
				"method": "rhf"
			},
			{
				"type": "occ",
				"energy": -0.23297,
				"method": "rhf"
			},
			{
				"type": "occ",
				"energy": -0.22501,
				"method": "rhf"
			},
			{
				"type": "unocc",
				"energy": -0.02076,
				"method": "rhf"
			},
			{
				"type": "unocc",
				"energy": -0.0083,
				"method": "rhf"
			},
			{
				"type": "unocc",
				"energy": -0.0026,
				"method": "rhf"
			},
			{
				"type": "unocc",
				"energy": 0.00651,
				"method": "rhf"
			},
			{
				"type": "unocc",
				"energy": 0.05046,
				"method": "rhf"
			}
		],
		"cosmo_sigma_profile": { 
			"-0.025": 0.0,
			"-0.024": 0.0,
			"-0.023": 0.0,
			"-0.022": 0.0,
			"-0.021": 0.0,
			"-0.02": 0.0,
			"-0.019": 0.0,
			"-0.018": 0.0,
			"-0.017": 0.0,
			"-0.016": 0.525322586848,
			"-0.015": 0.71608420293,
			"-0.014": 1.31240481707,
			"-0.013": 0.570732456463,
			"-0.012": 1.50490937517,
			"-0.011": 2.56728431299,
			"-0.01": 1.39770636313,
			"-0.009": 2.3042787651,
			"-0.008": 3.55528229067,
			"-0.007": 3.32005106385,
			"-0.006": 9.13212283597,
			"-0.005": 19.6914116897,
			"-0.004": 27.9512809844,
			"-0.003": 34.7727440889,
			"-0.002": 30.2325706297,
			"-0.001": 24.4031624119,
			"0.0": 18.5590991237,
			"0.001": 13.8362735101,
			"0.002": 17.9055084469,
			"0.003": 16.6057479537,
			"0.004": 18.3667463392,
			"0.005": 18.3082441136,
			"0.006": 10.8302609735,
			"0.007": 5.25369455783,
			"0.008": 3.17953850889,
			"0.009": 3.11414294802,
			"0.01": 2.61516737603,
			"0.011": 1.70346838089,
			"0.012": 1.38662776467,
			"0.013": 3.49515502545,
			"0.014": 5.49363539599,
			"0.015": 1.58023530933,
			"0.016": 0.0548684293029,
			"0.017": 0.0,
			"0.018": 0.0,
			"0.019": 0.0,
			"0.02": 0.0,
			"0.021": 0.0,
			"0.022": 0.0,
			"0.023": 0.0,
			"0.024": 0.0,
			"0.025": 0.0
		}
	}
}
