{
	 "smiles": "NC1=NC2=C(N=CN2)C(=O)N1", 
	 "Tm": 633.15, 
	 "num_atms": 16, 
	 "gaussian": { 
		 "optdone": 1, 
		 "sigma_profile": "yes", 
		 "theory": "DFT", 
		 "functional": "B3LYP", 
		 "basiset": "6-31G**", 
		 "properties": { 
			 "R2extent": 1812.5715, 
			 "electric_dipole_moment_norm": 6.48848274021, 
			 "electric_quadrupole_moment_norm": 21.8945928715, 
			 "total_energy": -542.554124123, 
			 "HOMO_LUMO_gap": 0.20207, 
			 "cosmo_polarized_energy": -27.77, 
			 "cosmo_cavitation_energy": 21.03, 
			 "cosmo_dispersion_energy": -16.29, 
			 "cosmo_repulsion_energy": 1.31, 
			 "cosmo_total_nonelectrostatic_energy": 6.05, 
			 "SMD_solvation_energy": 1.09 
		},
		"coords": [
			{
				"x": 1.5274415704,
				"y": 3.7568952877,
				"z": 0.7788052013,
				"element": "N" 
			},
			{
				"x": 0.9210566418,
				"y": 2.5269550009,
				"z": 0.6492551627,
				"element": "C" 
			},
			{
				"x": 1.0561692119,
				"y": 1.6366646535,
				"z": 1.6040157238,
				"element": "N" 
			},
			{
				"x": 0.4634150038,
				"y": 0.4533379241,
				"z": 1.2983390229,
				"element": "C" 
			},
			{
				"x": -0.2593958938,
				"y": 0.0953061963,
				"z": 0.1593721146,
				"element": "C" 
			},
			{
				"x": -0.7082760306,
				"y": -1.2083656024,
				"z": 0.2469020752,
				"element": "N" 
			},
			{
				"x": -0.2713849934,
				"y": -1.6289878639,
				"z": 1.405618292,
				"element": "C" 
			},
			{
				"x": 0.447029106,
				"y": -0.6641593721,
				"z": 2.0916501015,
				"element": "N" 
			},
			{
				"x": -0.4191223167,
				"y": 1.066572032,
				"z": -0.8930036856,
				"element": "C" 
			},
			{
				"x": -0.9812238643,
				"y": 1.0017040883,
				"z": -1.9719226218,
				"element": "O" 
			},
			{
				"x": 0.240683871,
				"y": 2.2902570126,
				"z": -0.517547062,
				"element": "N" 
			},
			{
				"x": 1.8689165131,
				"y": 3.9274886097,
				"z": 1.7146174833,
				"element": "H" 
			},
			{
				"x": 1.0663371929,
				"y": 4.5502930386,
				"z": 0.3559673232,
				"element": "H" 
			},
			{
				"x": -0.4325079778,
				"y": -2.6151572772,
				"z": 1.8194586555,
				"element": "H" 
			},
			{
				"x": 0.8843295987,
				"y": -0.746324595,
				"z": 2.997263083,
				"element": "H" 
			},
			{
				"x": 0.223932367,
				"y": 2.9930208669,
				"z": -1.2467908697,
				"element": "H" 
			}
		],
		 "valence_orbital": [ 
			{
				"type": "occ",
				"energy": -0.28547,
				"method": "rhf"
			},
			{
				"type": "occ",
				"energy": -0.28126,
				"method": "rhf"
			},
			{
				"type": "occ",
				"energy": -0.2656,
				"method": "rhf"
			},
			{
				"type": "occ",
				"energy": -0.25281,
				"method": "rhf"
			},
			{
				"type": "occ",
				"energy": -0.20779,
				"method": "rhf"
			},
			{
				"type": "unocc",
				"energy": -0.00572,
				"method": "rhf"
			},
			{
				"type": "unocc",
				"energy": 0.00221,
				"method": "rhf"
			},
			{
				"type": "unocc",
				"energy": 0.0473,
				"method": "rhf"
			},
			{
				"type": "unocc",
				"energy": 0.05541,
				"method": "rhf"
			},
			{
				"type": "unocc",
				"energy": 0.07858,
				"method": "rhf"
			}
		],
		"cosmo_sigma_profile": { 
			"-0.025": 0.0,
			"-0.024": 0.0,
			"-0.023": 0.0,
			"-0.022": 0.0,
			"-0.021": 0.0,
			"-0.02": 0.0,
			"-0.019": 0.0,
			"-0.018": 0.229113353799,
			"-0.017": 2.67577937535,
			"-0.016": 3.18122652562,
			"-0.015": 3.95376462935,
			"-0.014": 4.9136432679,
			"-0.013": 3.33504627246,
			"-0.012": 3.26675859644,
			"-0.011": 4.52733080896,
			"-0.01": 4.65899199012,
			"-0.009": 5.17363921555,
			"-0.008": 3.72678154941,
			"-0.007": 4.24543616502,
			"-0.006": 4.28466402326,
			"-0.005": 4.33194030185,
			"-0.004": 2.99271471707,
			"-0.003": 5.05954869006,
			"-0.002": 7.5184675613,
			"-0.001": 8.68277142039,
			"0.0": 10.5745763214,
			"0.001": 11.3140942542,
			"0.002": 6.84338092248,
			"0.003": 5.52074184597,
			"0.004": 5.21475383365,
			"0.005": 4.42012233004,
			"0.006": 3.83918905335,
			"0.007": 4.2609964794,
			"0.008": 4.1813279062,
			"0.009": 3.4972185055,
			"0.01": 4.4513114464,
			"0.011": 4.11069436475,
			"0.012": 5.03440673203,
			"0.013": 9.05609343965,
			"0.014": 5.13722100294,
			"0.015": 2.17267680827,
			"0.016": 1.1255892564,
			"0.017": 0.798344635709,
			"0.018": 0.0274823637075,
			"0.019": 0.0,
			"0.02": 0.0,
			"0.021": 0.0,
			"0.022": 0.0,
			"0.023": 0.0,
			"0.024": 0.0,
			"0.025": 0.0
		}
	}
}
