{
	 "smiles": "NN1C=CC=CC1=O", 
	 "Tm": 315.15, 
	 "num_atms": 14, 
	 "gaussian": { 
		 "optdone": 1, 
		 "sigma_profile": "yes", 
		 "theory": "DFT", 
		 "functional": "B3LYP", 
		 "basiset": "6-31G**", 
		 "properties": { 
			 "R2extent": 1170.0751, 
			 "electric_dipole_moment_norm": 2.72906506701, 
			 "electric_quadrupole_moment_norm": 5.89646545653, 
			 "total_energy": -378.844324181, 
			 "HOMO_LUMO_gap": 0.17878, 
			 "cosmo_polarized_energy": -11.0, 
			 "cosmo_cavitation_energy": 18.01, 
			 "cosmo_dispersion_energy": -13.59, 
			 "cosmo_repulsion_energy": 1.13, 
			 "cosmo_total_nonelectrostatic_energy": 5.54, 
			 "SMD_solvation_energy": 4.68 
		},
		"coords": [
			{
				"x": -0.9987161989,
				"y": -0.9369394555,
				"z": 2.4559717116,
				"element": "N" 
			},
			{
				"x": -0.395684591,
				"y": 0.0728841185,
				"z": 1.6683815253,
				"element": "N" 
			},
			{
				"x": -1.0800267243,
				"y": 1.2414500551,
				"z": 1.5129093977,
				"element": "C" 
			},
			{
				"x": -0.5600584463,
				"y": 2.2607905195,
				"z": 0.766590599,
				"element": "C" 
			},
			{
				"x": 0.7121460318,
				"y": 2.068817359,
				"z": 0.1581790215,
				"element": "C" 
			},
			{
				"x": 1.402341576,
				"y": 0.8978012052,
				"z": 0.3115641361,
				"element": "C" 
			},
			{
				"x": 0.8777235842,
				"y": -0.1992717209,
				"z": 1.0951818656,
				"element": "C" 
			},
			{
				"x": 1.4052827468,
				"y": -1.2917768498,
				"z": 1.3030641065,
				"element": "O" 
			},
			{
				"x": -0.3119201911,
				"y": -1.1772001675,
				"z": 3.1733090329,
				"element": "H" 
			},
			{
				"x": -1.0268529135,
				"y": -1.7702352331,
				"z": 1.8653680795,
				"element": "H" 
			},
			{
				"x": -2.0360230379,
				"y": 1.2738615343,
				"z": 2.0209685543,
				"element": "H" 
			},
			{
				"x": -1.1129792383,
				"y": 3.1843248231,
				"z": 0.6503627657,
				"element": "H" 
			},
			{
				"x": 1.1411883401,
				"y": 2.8692842506,
				"z": -0.439046959,
				"element": "H" 
			},
			{
				"x": 2.3719790625,
				"y": 0.7359095615,
				"z": -0.1450038367,
				"element": "H" 
			}
		],
		 "valence_orbital": [ 
			{
				"type": "occ",
				"energy": -0.34146,
				"method": "rhf"
			},
			{
				"type": "occ",
				"energy": -0.29939,
				"method": "rhf"
			},
			{
				"type": "occ",
				"energy": -0.29362,
				"method": "rhf"
			},
			{
				"type": "occ",
				"energy": -0.25302,
				"method": "rhf"
			},
			{
				"type": "occ",
				"energy": -0.21772,
				"method": "rhf"
			},
			{
				"type": "unocc",
				"energy": -0.03894,
				"method": "rhf"
			},
			{
				"type": "unocc",
				"energy": 0.01416,
				"method": "rhf"
			},
			{
				"type": "unocc",
				"energy": 0.07634,
				"method": "rhf"
			},
			{
				"type": "unocc",
				"energy": 0.09417,
				"method": "rhf"
			},
			{
				"type": "unocc",
				"energy": 0.13016,
				"method": "rhf"
			}
		],
		"cosmo_sigma_profile": { 
			"-0.025": 0.0,
			"-0.024": 0.0,
			"-0.023": 0.0,
			"-0.022": 0.0,
			"-0.021": 0.0,
			"-0.02": 0.0,
			"-0.019": 0.0,
			"-0.018": 0.0,
			"-0.017": 0.0,
			"-0.016": 0.0,
			"-0.015": 0.0,
			"-0.014": 0.0,
			"-0.013": 0.0496368870521,
			"-0.012": 1.76908934458,
			"-0.011": 2.57004014464,
			"-0.01": 2.41164558443,
			"-0.009": 3.29648800897,
			"-0.008": 3.2733661268,
			"-0.007": 6.77206866661,
			"-0.006": 9.76044352702,
			"-0.005": 10.3871140798,
			"-0.004": 8.2211133675,
			"-0.003": 6.02846549213,
			"-0.002": 8.64655246291,
			"-0.001": 9.96244555708,
			"0.0": 9.23819914191,
			"0.001": 9.61100674779,
			"0.002": 8.99499109737,
			"0.003": 11.0562962201,
			"0.004": 5.1302045501,
			"0.005": 1.74634506025,
			"0.006": 2.27478083352,
			"0.007": 1.91107802628,
			"0.008": 1.97130727686,
			"0.009": 1.9181899501,
			"0.01": 1.51145966809,
			"0.011": 1.26671685308,
			"0.012": 2.36705478135,
			"0.013": 2.88847996442,
			"0.014": 5.41770469404,
			"0.015": 2.6035529683,
			"0.016": 0.408758573932,
			"0.017": 0.0,
			"0.018": 0.0,
			"0.019": 0.0,
			"0.02": 0.0,
			"0.021": 0.0,
			"0.022": 0.0,
			"0.023": 0.0,
			"0.024": 0.0,
			"0.025": 0.0
		}
	}
}
