{
	 "smiles": "COC1=CC=C(C=C1)C1=NN(C=C1CCl)C1=CC=CC=C1", 
	 "Tm": 363.15, 
	 "num_atms": 36, 
	 "gaussian": { 
		 "optdone": 1, 
		 "sigma_profile": "yes", 
		 "theory": "DFT", 
		 "functional": "B3LYP", 
		 "basiset": "6-31G**", 
		 "properties": { 
			 "R2extent": 9761.1893, 
			 "electric_dipole_moment_norm": 2.65618537945, 
			 "electric_quadrupole_moment_norm": 26.695287339, 
			 "total_energy": -1301.74852326, 
			 "HOMO_LUMO_gap": 0.17419, 
			 "cosmo_polarized_energy": -14.21, 
			 "cosmo_cavitation_energy": 42.2, 
			 "cosmo_dispersion_energy": -30.16, 
			 "cosmo_repulsion_energy": 2.32, 
			 "cosmo_total_nonelectrostatic_energy": 14.36, 
			 "SMD_solvation_energy": 6.85 
		},
		"coords": [
			{
				"x": -1.5255972467,
				"y": -2.0070358169,
				"z": 5.583713786,
				"element": "C" 
			},
			{
				"x": -0.2608608696,
				"y": -1.7290069743,
				"z": 5.0042931978,
				"element": "O" 
			},
			{
				"x": -0.2159508552,
				"y": -1.3834158024,
				"z": 3.6858606751,
				"element": "C" 
			},
			{
				"x": -1.3343816644,
				"y": -1.2682253025,
				"z": 2.8530649115,
				"element": "C" 
			},
			{
				"x": -1.1633050629,
				"y": -0.9086392747,
				"z": 1.5137297884,
				"element": "C" 
			},
			{
				"x": 0.1068704038,
				"y": -0.6687380001,
				"z": 0.975755888,
				"element": "C" 
			},
			{
				"x": 1.2182027608,
				"y": -0.7763875004,
				"z": 1.8337479547,
				"element": "C" 
			},
			{
				"x": 1.0629236552,
				"y": -1.1272534539,
				"z": 3.1656034483,
				"element": "C" 
			},
			{
				"x": 0.3001603619,
				"y": -0.2817667122,
				"z": -0.4339661256,
				"element": "C" 
			},
			{
				"x": 1.1851058682,
				"y": 0.6679688983,
				"z": -0.7432324686,
				"element": "N" 
			},
			{
				"x": 1.147937081,
				"y": 0.7774177695,
				"z": -2.0960768789,
				"element": "N" 
			},
			{
				"x": 0.2433530865,
				"y": -0.0766112632,
				"z": -2.6469907081,
				"element": "C" 
			},
			{
				"x": -0.3285564629,
				"y": -0.7944332557,
				"z": -1.6135147545,
				"element": "C" 
			},
			{
				"x": -1.3120822687,
				"y": -1.898621793,
				"z": -1.7465018739,
				"element": "C" 
			},
			{
				"x": -0.5784091108,
				"y": -3.4315878563,
				"z": -2.4738804007,
				"element": "Cl" 
			},
			{
				"x": 1.9717320007,
				"y": 1.7287107166,
				"z": -2.7556090313,
				"element": "C" 
			},
			{
				"x": 2.4871250413,
				"y": 2.8084100144,
				"z": -2.0298016279,
				"element": "C" 
			},
			{
				"x": 3.2905826747,
				"y": 3.74590508,
				"z": -2.6750894828,
				"element": "C" 
			},
			{
				"x": 3.5781064476,
				"y": 3.6214566894,
				"z": -4.0362502632,
				"element": "C" 
			},
			{
				"x": 3.0635156611,
				"y": 2.5385680515,
				"z": -4.7506334407,
				"element": "C" 
			},
			{
				"x": 2.2678850393,
				"y": 1.5855659881,
				"z": -4.1158305609,
				"element": "C" 
			},
			{
				"x": -2.0218264153,
				"y": -2.8510884782,
				"z": 5.087491056,
				"element": "H" 
			},
			{
				"x": -1.3296140439,
				"y": -2.2681258507,
				"z": 6.6247885644,
				"element": "H" 
			},
			{
				"x": -2.1880938564,
				"y": -1.1323568517,
				"z": 5.5505720682,
				"element": "H" 
			},
			{
				"x": -2.3346882794,
				"y": -1.439578697,
				"z": 3.232333749,
				"element": "H" 
			},
			{
				"x": -2.0456676338,
				"y": -0.7795207901,
				"z": 0.8939762853,
				"element": "H" 
			},
			{
				"x": 2.2084001088,
				"y": -0.5829536378,
				"z": 1.4348858457,
				"element": "H" 
			},
			{
				"x": 1.9178635915,
				"y": -1.2176575385,
				"z": 3.8277176705,
				"element": "H" 
			},
			{
				"x": 0.0690368012,
				"y": -0.1232564699,
				"z": -3.7108409621,
				"element": "H" 
			},
			{
				"x": -2.1373607819,
				"y": -1.6501810455,
				"z": -2.4144225829,
				"element": "H" 
			},
			{
				"x": -1.7075145139,
				"y": -2.210394692,
				"z": -0.782979283,
				"element": "H" 
			},
			{
				"x": 2.2521201725,
				"y": 2.8916950594,
				"z": -0.9760356648,
				"element": "H" 
			},
			{
				"x": 3.6888322948,
				"y": 4.5827336484,
				"z": -2.1088911626,
				"element": "H" 
			},
			{
				"x": 4.2016044868,
				"y": 4.3577371138,
				"z": -4.534030518,
				"element": "H" 
			},
			{
				"x": 3.291174573,
				"y": 2.4223917451,
				"z": -5.8060553988,
				"element": "H" 
			},
			{
				"x": 1.9036769554,
				"y": 0.7286762824,
				"z": -4.6722016995,
				"element": "H" 
			}
		],
		 "valence_orbital": [ 
			{
				"type": "occ",
				"energy": -0.26063,
				"method": "rhf"
			},
			{
				"type": "occ",
				"energy": -0.25363,
				"method": "rhf"
			},
			{
				"type": "occ",
				"energy": -0.25169,
				"method": "rhf"
			},
			{
				"type": "occ",
				"energy": -0.23527,
				"method": "rhf"
			},
			{
				"type": "occ",
				"energy": -0.20792,
				"method": "rhf"
			},
			{
				"type": "unocc",
				"energy": -0.03373,
				"method": "rhf"
			},
			{
				"type": "unocc",
				"energy": -0.01398,
				"method": "rhf"
			},
			{
				"type": "unocc",
				"energy": -0.00719,
				"method": "rhf"
			},
			{
				"type": "unocc",
				"energy": -0.00322,
				"method": "rhf"
			},
			{
				"type": "unocc",
				"energy": 0.01585,
				"method": "rhf"
			}
		],
		"cosmo_sigma_profile": { 
			"-0.025": 0.0,
			"-0.024": 0.0,
			"-0.023": 0.0,
			"-0.022": 0.0,
			"-0.021": 0.0,
			"-0.02": 0.0,
			"-0.019": 0.0,
			"-0.018": 0.0,
			"-0.017": 0.0,
			"-0.016": 0.0,
			"-0.015": 0.0,
			"-0.014": 0.0,
			"-0.013": 0.0,
			"-0.012": 0.0,
			"-0.011": 0.242634526467,
			"-0.01": 2.04357662837,
			"-0.009": 1.82063559394,
			"-0.008": 4.26866894222,
			"-0.007": 9.51462563709,
			"-0.006": 21.1896124031,
			"-0.005": 30.8319006505,
			"-0.004": 29.100154818,
			"-0.003": 24.9626274676,
			"-0.002": 16.7429712363,
			"-0.001": 16.4132629523,
			"0.0": 19.7702690615,
			"0.001": 20.7452267917,
			"0.002": 23.5895375484,
			"0.003": 29.1183856802,
			"0.004": 28.8360537795,
			"0.005": 25.4052890439,
			"0.006": 12.7766123093,
			"0.007": 12.0165107684,
			"0.008": 4.10888159865,
			"0.009": 2.57147465954,
			"0.01": 3.03045547881,
			"0.011": 1.17918139587,
			"0.012": 0.197290927374,
			"0.013": 0.0,
			"0.014": 0.0,
			"0.015": 0.0,
			"0.016": 0.0,
			"0.017": 0.0,
			"0.018": 0.0,
			"0.019": 0.0,
			"0.02": 0.0,
			"0.021": 0.0,
			"0.022": 0.0,
			"0.023": 0.0,
			"0.024": 0.0,
			"0.025": 0.0
		}
	}
}
