{
	 "smiles": "OC1=CC=C(Cl)C=C1C1CCCCC1", 
	 "Tm": 332.65, 
	 "num_atms": 29, 
	 "gaussian": { 
		 "optdone": 1, 
		 "sigma_profile": "yes", 
		 "theory": "DFT", 
		 "functional": "B3LYP", 
		 "basiset": "6-31G**", 
		 "properties": { 
			 "R2extent": 4676.1176, 
			 "electric_dipole_moment_norm": 2.74229131385, 
			 "electric_quadrupole_moment_norm": 17.4396391878, 
			 "total_energy": -1001.74241576, 
			 "HOMO_LUMO_gap": 0.20909, 
			 "cosmo_polarized_energy": -7.91, 
			 "cosmo_cavitation_energy": 31.31, 
			 "cosmo_dispersion_energy": -23.27, 
			 "cosmo_repulsion_energy": 1.85, 
			 "cosmo_total_nonelectrostatic_energy": 9.89, 
			 "SMD_solvation_energy": 4.46 
		},
		"coords": [
			{
				"x": 1.9044335046,
				"y": 0.6992315325,
				"z": 0.3823681613,
				"element": "O" 
			},
			{
				"x": 1.7338613798,
				"y": 0.5992148089,
				"z": -0.9747664356,
				"element": "C" 
			},
			{
				"x": 2.6046276271,
				"y": 1.2318208178,
				"z": -1.864750538,
				"element": "C" 
			},
			{
				"x": 2.422309537,
				"y": 1.1213779796,
				"z": -3.2431489429,
				"element": "C" 
			},
			{
				"x": 1.3538155705,
				"y": 0.3673897879,
				"z": -3.7146125297,
				"element": "C" 
			},
			{
				"x": 1.0965997531,
				"y": 0.2065769849,
				"z": -5.4496944146,
				"element": "Cl" 
			},
			{
				"x": 0.4812895005,
				"y": -0.2661818509,
				"z": -2.8294734757,
				"element": "C" 
			},
			{
				"x": 0.6479060565,
				"y": -0.1680927146,
				"z": -1.4443218004,
				"element": "C" 
			},
			{
				"x": -0.3327521147,
				"y": -0.8578119797,
				"z": -0.5095889295,
				"element": "C" 
			},
			{
				"x": -1.2090009607,
				"y": 0.1542037129,
				"z": 0.268954285,
				"element": "C" 
			},
			{
				"x": -2.174816755,
				"y": -0.5755153174,
				"z": 1.2148507996,
				"element": "C" 
			},
			{
				"x": -1.4351232257,
				"y": -1.4835292022,
				"z": 2.2399613871,
				"element": "C" 
			},
			{
				"x": 0.0683268388,
				"y": -1.6079365465,
				"z": 1.9367230138,
				"element": "C" 
			},
			{
				"x": 0.3376152758,
				"y": -1.8998821961,
				"z": 0.4541017853,
				"element": "C" 
			},
			{
				"x": 2.6840107403,
				"y": 1.239315848,
				"z": 0.5649623764,
				"element": "H" 
			},
			{
				"x": 3.4355825663,
				"y": 1.8190761229,
				"z": -1.478757924,
				"element": "H" 
			},
			{
				"x": 3.0998004052,
				"y": 1.6126037553,
				"z": -3.9322465337,
				"element": "H" 
			},
			{
				"x": -0.344583339,
				"y": -0.8497111384,
				"z": -3.2235310296,
				"element": "H" 
			},
			{
				"x": -1.0212944939,
				"y": -1.4134876134,
				"z": -1.1584039217,
				"element": "H" 
			},
			{
				"x": -1.7723983596,
				"y": 0.7644965845,
				"z": -0.4463509645,
				"element": "H" 
			},
			{
				"x": -0.5711222304,
				"y": 0.8418695912,
				"z": 0.8332064884,
				"element": "H" 
			},
			{
				"x": -2.8596305679,
				"y": -1.1825498734,
				"z": 0.6084805582,
				"element": "H" 
			},
			{
				"x": -2.8027113576,
				"y": 0.1567675967,
				"z": 1.7345045823,
				"element": "H" 
			},
			{
				"x": -1.5662110375,
				"y": -1.0958079446,
				"z": 3.256780558,
				"element": "H" 
			},
			{
				"x": -1.8872873333,
				"y": -2.4830174794,
				"z": 2.2370433953,
				"element": "H" 
			},
			{
				"x": 0.5823581027,
				"y": -0.6810878397,
				"z": 2.2125211321,
				"element": "H" 
			},
			{
				"x": 0.5078478066,
				"y": -2.4003848247,
				"z": 2.554422943,
				"element": "H" 
			},
			{
				"x": 1.4167075258,
				"y": -1.9363000768,
				"z": 0.2792819465,
				"element": "H" 
			},
			{
				"x": -0.0463604153,
				"y": -2.8984485251,
				"z": 0.2102840274,
				"element": "H" 
			}
		],
		 "valence_orbital": [ 
			{
				"type": "occ",
				"energy": -0.29747,
				"method": "rhf"
			},
			{
				"type": "occ",
				"energy": -0.29485,
				"method": "rhf"
			},
			{
				"type": "occ",
				"energy": -0.29128,
				"method": "rhf"
			},
			{
				"type": "occ",
				"energy": -0.25316,
				"method": "rhf"
			},
			{
				"type": "occ",
				"energy": -0.21938,
				"method": "rhf"
			},
			{
				"type": "unocc",
				"energy": -0.01029,
				"method": "rhf"
			},
			{
				"type": "unocc",
				"energy": 0.00254,
				"method": "rhf"
			},
			{
				"type": "unocc",
				"energy": 0.0331,
				"method": "rhf"
			},
			{
				"type": "unocc",
				"energy": 0.0596,
				"method": "rhf"
			},
			{
				"type": "unocc",
				"energy": 0.08468,
				"method": "rhf"
			}
		],
		"cosmo_sigma_profile": { 
			"-0.025": 0.0,
			"-0.024": 0.0,
			"-0.023": 0.0,
			"-0.022": 0.0,
			"-0.021": 0.0,
			"-0.02": 0.0,
			"-0.019": 0.0,
			"-0.018": 0.298506766007,
			"-0.017": 1.34054824643,
			"-0.016": 0.907573051257,
			"-0.015": 1.18801364956,
			"-0.014": 0.831537340914,
			"-0.013": 1.6075605122,
			"-0.012": 0.625550206553,
			"-0.011": 0.860930357347,
			"-0.01": 0.86862426867,
			"-0.009": 1.69532197438,
			"-0.008": 1.11482114736,
			"-0.007": 2.90817047075,
			"-0.006": 5.49829338233,
			"-0.005": 6.87224955711,
			"-0.004": 5.59011714933,
			"-0.003": 6.82663404721,
			"-0.002": 21.329626548,
			"-0.001": 31.4162997763,
			"0.0": 35.8134351382,
			"0.001": 31.4651802763,
			"0.002": 25.3670741517,
			"0.003": 18.3130657159,
			"0.004": 21.0524272967,
			"0.005": 17.027193554,
			"0.006": 4.69966520596,
			"0.007": 1.22707323647,
			"0.008": 0.445012543295,
			"0.009": 0.0,
			"0.01": 0.0,
			"0.011": 0.0,
			"0.012": 0.0,
			"0.013": 0.0,
			"0.014": 0.0,
			"0.015": 0.0,
			"0.016": 0.0,
			"0.017": 0.0,
			"0.018": 0.0,
			"0.019": 0.0,
			"0.02": 0.0,
			"0.021": 0.0,
			"0.022": 0.0,
			"0.023": 0.0,
			"0.024": 0.0,
			"0.025": 0.0
		}
	}
}
