{
	 "smiles": "NC(=O)C1=CC(=NN1C1=CC=CC=C1)C(O)=O", 
	 "Tm": 543.15, 
	 "num_atms": 26, 
	 "gaussian": { 
		 "optdone": 1, 
		 "sigma_profile": "yes", 
		 "theory": "DFT", 
		 "functional": "B3LYP", 
		 "basiset": "6-31G**", 
		 "properties": { 
			 "R2extent": 4391.0694, 
			 "electric_dipole_moment_norm": 4.86852063773, 
			 "electric_quadrupole_moment_norm": 32.2197467855, 
			 "total_energy": -814.526559585, 
			 "HOMO_LUMO_gap": 0.19213, 
			 "cosmo_polarized_energy": -21.77, 
			 "cosmo_cavitation_energy": 31.92, 
			 "cosmo_dispersion_energy": -22.79, 
			 "cosmo_repulsion_energy": 1.79, 
			 "cosmo_total_nonelectrostatic_energy": 10.91, 
			 "SMD_solvation_energy": 6.84 
		},
		"coords": [
			{
				"x": -1.5667117827,
				"y": -0.8910087711,
				"z": -3.538538852,
				"element": "N" 
			},
			{
				"x": -1.4252466042,
				"y": -1.0484747977,
				"z": -2.1875923685,
				"element": "C" 
			},
			{
				"x": -2.2130308545,
				"y": -1.6869032065,
				"z": -1.5044957807,
				"element": "O" 
			},
			{
				"x": -0.1895388763,
				"y": -0.4180550181,
				"z": -1.6344563298,
				"element": "C" 
			},
			{
				"x": 1.0285467195,
				"y": -0.1873583407,
				"z": -2.2537204366,
				"element": "C" 
			},
			{
				"x": 1.8699269524,
				"y": 0.2817491738,
				"z": -1.2304858804,
				"element": "C" 
			},
			{
				"x": 1.2250351778,
				"y": 0.3472740068,
				"z": -0.0617215494,
				"element": "N" 
			},
			{
				"x": -0.0245743024,
				"y": -0.0820649937,
				"z": -0.3069444497,
				"element": "N" 
			},
			{
				"x": -0.9681605431,
				"y": -0.0861405518,
				"z": 0.7728577236,
				"element": "C" 
			},
			{
				"x": -2.2295236501,
				"y": 0.4888199749,
				"z": 0.6144799492,
				"element": "C" 
			},
			{
				"x": -3.1108307785,
				"y": 0.503180454,
				"z": 1.6936652075,
				"element": "C" 
			},
			{
				"x": -2.7300029252,
				"y": -0.0385685094,
				"z": 2.9231212298,
				"element": "C" 
			},
			{
				"x": -1.460365947,
				"y": -0.5991740563,
				"z": 3.0729057278,
				"element": "C" 
			},
			{
				"x": -0.5739099701,
				"y": -0.6275591403,
				"z": 1.9973426044,
				"element": "C" 
			},
			{
				"x": 3.2961959305,
				"y": 0.6871506984,
				"z": -1.3205360708,
				"element": "C" 
			},
			{
				"x": 3.8336674999,
				"y": 1.1080529559,
				"z": -0.155402799,
				"element": "O" 
			},
			{
				"x": 3.9300384505,
				"y": 0.6483359959,
				"z": -2.3494867923,
				"element": "O" 
			},
			{
				"x": -2.3897729814,
				"y": -1.2902972609,
				"z": -3.9641625113,
				"element": "H" 
			},
			{
				"x": -1.0318904108,
				"y": -0.2135053942,
				"z": -4.0575327722,
				"element": "H" 
			},
			{
				"x": 1.3018496795,
				"y": -0.3754249449,
				"z": -3.2804637954,
				"element": "H" 
			},
			{
				"x": -2.5159887083,
				"y": 0.9225559843,
				"z": -0.3365809754,
				"element": "H" 
			},
			{
				"x": -4.0943973137,
				"y": 0.9466310865,
				"z": 1.573638051,
				"element": "H" 
			},
			{
				"x": -3.419807587,
				"y": -0.0217392256,
				"z": 3.7614232736,
				"element": "H" 
			},
			{
				"x": -1.1583750139,
				"y": -1.0216767978,
				"z": 4.0262993323,
				"element": "H" 
			},
			{
				"x": 0.4143261829,
				"y": -1.0622099331,
				"z": 2.094874928,
				"element": "H" 
			},
			{
				"x": 3.1462416562,
				"y": 1.0633106116,
				"z": 0.5328133365,
				"element": "H" 
			}
		],
		 "valence_orbital": [ 
			{
				"type": "occ",
				"energy": -0.28268,
				"method": "rhf"
			},
			{
				"type": "occ",
				"energy": -0.27411,
				"method": "rhf"
			},
			{
				"type": "occ",
				"energy": -0.27116,
				"method": "rhf"
			},
			{
				"type": "occ",
				"energy": -0.26429,
				"method": "rhf"
			},
			{
				"type": "occ",
				"energy": -0.25032,
				"method": "rhf"
			},
			{
				"type": "unocc",
				"energy": -0.05819,
				"method": "rhf"
			},
			{
				"type": "unocc",
				"energy": -0.03079,
				"method": "rhf"
			},
			{
				"type": "unocc",
				"energy": -0.01591,
				"method": "rhf"
			},
			{
				"type": "unocc",
				"energy": -0.01059,
				"method": "rhf"
			},
			{
				"type": "unocc",
				"energy": 0.05986,
				"method": "rhf"
			}
		],
		"cosmo_sigma_profile": { 
			"-0.025": 0.0,
			"-0.024": 0.0,
			"-0.023": 0.0,
			"-0.022": 0.0,
			"-0.021": 0.0,
			"-0.02": 0.0,
			"-0.019": 0.0,
			"-0.018": 0.0,
			"-0.017": 0.0,
			"-0.016": 0.00325321781823,
			"-0.015": 1.42079195281,
			"-0.014": 3.40350641541,
			"-0.013": 2.70315998744,
			"-0.012": 3.57212187088,
			"-0.011": 3.27737655515,
			"-0.01": 3.89564134195,
			"-0.009": 3.46279140996,
			"-0.008": 4.52042505251,
			"-0.007": 8.82997347042,
			"-0.006": 13.7512756931,
			"-0.005": 15.6398724693,
			"-0.004": 15.6770779211,
			"-0.003": 13.7859524388,
			"-0.002": 15.3320370941,
			"-0.001": 15.0147372507,
			"0.0": 17.8112242697,
			"0.001": 15.7588862142,
			"0.002": 12.9648129259,
			"0.003": 13.2019511045,
			"0.004": 15.327560465,
			"0.005": 8.00061307321,
			"0.006": 5.07800657405,
			"0.007": 4.72658563872,
			"0.008": 4.72941853255,
			"0.009": 6.18301410937,
			"0.01": 6.48405474608,
			"0.011": 7.21293297167,
			"0.012": 7.83598988166,
			"0.013": 5.68050512026,
			"0.014": 0.690847251767,
			"0.015": 0.0,
			"0.016": 0.0,
			"0.017": 0.0,
			"0.018": 0.0,
			"0.019": 0.0,
			"0.02": 0.0,
			"0.021": 0.0,
			"0.022": 0.0,
			"0.023": 0.0,
			"0.024": 0.0,
			"0.025": 0.0
		}
	}
}
