{
	 "smiles": "COC1=C(NC(C)=O)C=C(CN)C=C1", 
	 "Tm": 389.15, 
	 "num_atms": 28, 
	 "gaussian": { 
		 "optdone": 1, 
		 "sigma_profile": "yes", 
		 "theory": "DFT", 
		 "functional": "B3LYP", 
		 "basiset": "6-31G**", 
		 "properties": { 
			 "R2extent": 4565.932, 
			 "electric_dipole_moment_norm": 3.98354380671, 
			 "electric_quadrupole_moment_norm": 26.8536671773, 
			 "total_energy": -649.453420528, 
			 "HOMO_LUMO_gap": 0.19453, 
			 "cosmo_polarized_energy": -15.59, 
			 "cosmo_cavitation_energy": 31.43, 
			 "cosmo_dispersion_energy": -22.37, 
			 "cosmo_repulsion_energy": 1.8, 
			 "cosmo_total_nonelectrostatic_energy": 10.86, 
			 "SMD_solvation_energy": 5.45 
		},
		"coords": [
			{
				"x": -2.7320265328,
				"y": -3.1419404462,
				"z": 0.7715719357,
				"element": "C" 
			},
			{
				"x": -2.8043874033,
				"y": -1.7462829558,
				"z": 1.0211596041,
				"element": "O" 
			},
			{
				"x": -1.6893594902,
				"y": -0.9857655694,
				"z": 0.7932193421,
				"element": "C" 
			},
			{
				"x": -1.8558964886,
				"y": 0.4030641544,
				"z": 1.0296899688,
				"element": "C" 
			},
			{
				"x": -3.1287179445,
				"y": 0.8238942024,
				"z": 1.4526379304,
				"element": "N" 
			},
			{
				"x": -3.553195094,
				"y": 1.8327918103,
				"z": 2.3031012784,
				"element": "C" 
			},
			{
				"x": -2.5262966177,
				"y": 2.7650722882,
				"z": 2.9163688198,
				"element": "C" 
			},
			{
				"x": -4.746482839,
				"y": 1.9402347577,
				"z": 2.5485318859,
				"element": "O" 
			},
			{
				"x": -0.7803124371,
				"y": 1.2562872318,
				"z": 0.7770182872,
				"element": "C" 
			},
			{
				"x": 0.4652413256,
				"y": 0.7692405771,
				"z": 0.3500277897,
				"element": "C" 
			},
			{
				"x": 1.5975974826,
				"y": 1.7323991016,
				"z": 0.0350896968,
				"element": "C" 
			},
			{
				"x": 1.6015786212,
				"y": 2.2946253366,
				"z": -1.3261537365,
				"element": "N" 
			},
			{
				"x": 0.6107499109,
				"y": -0.6037782684,
				"z": 0.1522745714,
				"element": "C" 
			},
			{
				"x": -0.4615576103,
				"y": -1.4784483469,
				"z": 0.3590605319,
				"element": "C" 
			},
			{
				"x": -2.4889590407,
				"y": -3.3508637162,
				"z": -0.2778259806,
				"element": "H" 
			},
			{
				"x": -1.9889643666,
				"y": -3.6263609663,
				"z": 1.4172191367,
				"element": "H" 
			},
			{
				"x": -3.7212880752,
				"y": -3.5405312932,
				"z": 1.0002035027,
				"element": "H" 
			},
			{
				"x": -3.8783687539,
				"y": 0.1735826981,
				"z": 1.2475697974,
				"element": "H" 
			},
			{
				"x": -2.2818522231,
				"y": 3.5768214349,
				"z": 2.2226774135,
				"element": "H" 
			},
			{
				"x": -1.59755997,
				"y": 2.2555469497,
				"z": 3.1838415,
				"element": "H" 
			},
			{
				"x": -2.9818782656,
				"y": 3.2064642068,
				"z": 3.8031623433,
				"element": "H" 
			},
			{
				"x": -0.9115976291,
				"y": 2.3254871784,
				"z": 0.8999759913,
				"element": "H" 
			},
			{
				"x": 2.5578785345,
				"y": 1.2261261082,
				"z": 0.1855458598,
				"element": "H" 
			},
			{
				"x": 1.5750968327,
				"y": 2.5735580109,
				"z": 0.7376996913,
				"element": "H" 
			},
			{
				"x": 0.7231676817,
				"y": 2.7837350211,
				"z": -1.4889865487,
				"element": "H" 
			},
			{
				"x": 1.6146651673,
				"y": 1.5312765038,
				"z": -2.0003198558,
				"element": "H" 
			},
			{
				"x": 1.5672538503,
				"y": -1.0054776634,
				"z": -0.1727841859,
				"element": "H" 
			},
			{
				"x": -0.3259286248,
				"y": -2.5406583466,
				"z": 0.1926234294,
				"element": "H" 
			}
		],
		 "valence_orbital": [ 
			{
				"type": "occ",
				"energy": -0.29908,
				"method": "rhf"
			},
			{
				"type": "occ",
				"energy": -0.25092,
				"method": "rhf"
			},
			{
				"type": "occ",
				"energy": -0.2484,
				"method": "rhf"
			},
			{
				"type": "occ",
				"energy": -0.23223,
				"method": "rhf"
			},
			{
				"type": "occ",
				"energy": -0.20944,
				"method": "rhf"
			},
			{
				"type": "unocc",
				"energy": -0.01491,
				"method": "rhf"
			},
			{
				"type": "unocc",
				"energy": -0.00115,
				"method": "rhf"
			},
			{
				"type": "unocc",
				"energy": 0.03654,
				"method": "rhf"
			},
			{
				"type": "unocc",
				"energy": 0.07969,
				"method": "rhf"
			},
			{
				"type": "unocc",
				"energy": 0.09021,
				"method": "rhf"
			}
		],
		"cosmo_sigma_profile": { 
			"-0.025": 0.0,
			"-0.024": 0.0,
			"-0.023": 0.0,
			"-0.022": 0.0,
			"-0.021": 0.0,
			"-0.02": 0.0,
			"-0.019": 0.0,
			"-0.018": 0.0,
			"-0.017": 0.0,
			"-0.016": 0.0,
			"-0.015": 0.0,
			"-0.014": 0.0,
			"-0.013": 0.0,
			"-0.012": 0.0,
			"-0.011": 0.0601620603425,
			"-0.01": 0.515647839816,
			"-0.009": 2.64169487399,
			"-0.008": 3.5524082163,
			"-0.007": 8.00258991092,
			"-0.006": 15.0090051015,
			"-0.005": 23.1211553004,
			"-0.004": 26.5145535217,
			"-0.003": 24.0287018257,
			"-0.002": 19.9088663128,
			"-0.001": 18.3524224435,
			"0.0": 13.9456971142,
			"0.001": 10.8345984434,
			"0.002": 12.6559434505,
			"0.003": 11.991715758,
			"0.004": 11.4358454256,
			"0.005": 9.75030439516,
			"0.006": 6.01229100733,
			"0.007": 3.53252313523,
			"0.008": 1.76302614102,
			"0.009": 1.29294246837,
			"0.01": 2.19180014666,
			"0.011": 2.6198620703,
			"0.012": 3.25270764253,
			"0.013": 5.45986143822,
			"0.014": 4.63656413806,
			"0.015": 1.04440603474,
			"0.016": 0.772634125429,
			"0.017": 1.00168282588,
			"0.018": 0.495477012002,
			"0.019": 0.540043937702,
			"0.02": 0.476812996931,
			"0.021": 0.00716677679256,
			"0.022": 0.0,
			"0.023": 0.0,
			"0.024": 0.0,
			"0.025": 0.0
		}
	}
}
