{
	 "smiles": "FC1=CC=C(C=C1)C(=O)NCC1=CC(Cl)=CC=C1", 
	 "Tm": 333.15, 
	 "num_atms": 29, 
	 "gaussian": { 
		 "optdone": 1, 
		 "sigma_profile": "yes", 
		 "theory": "DFT", 
		 "functional": "B3LYP", 
		 "basiset": "6-31G**", 
		 "properties": { 
			 "R2extent": 8925.4073, 
			 "electric_dipole_moment_norm": 2.28395223024, 
			 "electric_quadrupole_moment_norm": 11.1477290311, 
			 "total_energy": -1230.1442214, 
			 "HOMO_LUMO_gap": 0.20461, 
			 "cosmo_polarized_energy": -13.56, 
			 "cosmo_cavitation_energy": 36.58, 
			 "cosmo_dispersion_energy": -26.06, 
			 "cosmo_repulsion_energy": 1.99, 
			 "cosmo_total_nonelectrostatic_energy": 12.51, 
			 "SMD_solvation_energy": 6.68 
		},
		"coords": [
			{
				"x": 3.7923350966,
				"y": -1.7935956276,
				"z": -4.969326075,
				"element": "F" 
			},
			{
				"x": 3.1353937199,
				"y": -1.5172713146,
				"z": -3.8267082807,
				"element": "C" 
			},
			{
				"x": 3.6002369456,
				"y": -2.0599729786,
				"z": -2.6322724738,
				"element": "C" 
			},
			{
				"x": 2.9132665601,
				"y": -1.77062744,
				"z": -1.4576088282,
				"element": "C" 
			},
			{
				"x": 1.7846301548,
				"y": -0.9383215595,
				"z": -1.4704310319,
				"element": "C" 
			},
			{
				"x": 1.3345089228,
				"y": -0.4191327954,
				"z": -2.6932970362,
				"element": "C" 
			},
			{
				"x": 2.0075759287,
				"y": -0.7050865593,
				"z": -3.8799326025,
				"element": "C" 
			},
			{
				"x": 1.1069652253,
				"y": -0.6834232103,
				"z": -0.1542371729,
				"element": "C" 
			},
			{
				"x": 1.2723955271,
				"y": -1.4280259333,
				"z": 0.8083639115,
				"element": "O" 
			},
			{
				"x": 0.2964771735,
				"y": 0.4229419837,
				"z": -0.0948000693,
				"element": "N" 
			},
			{
				"x": -0.3907481992,
				"y": 0.8073278351,
				"z": 1.1293998205,
				"element": "C" 
			},
			{
				"x": -1.8374466196,
				"y": 1.195243146,
				"z": 0.8891310458,
				"element": "C" 
			},
			{
				"x": -2.3394364557,
				"y": 2.3870259948,
				"z": 1.4211615086,
				"element": "C" 
			},
			{
				"x": -3.678565996,
				"y": 2.7243735117,
				"z": 1.2229999094,
				"element": "C" 
			},
			{
				"x": -4.2910814328,
				"y": 4.2296701139,
				"z": 1.897361842,
				"element": "Cl" 
			},
			{
				"x": -4.5354341721,
				"y": 1.9004888698,
				"z": 0.4974843942,
				"element": "C" 
			},
			{
				"x": -4.027495145,
				"y": 0.7129392706,
				"z": -0.0351590158,
				"element": "C" 
			},
			{
				"x": -2.6930336176,
				"y": 0.3609291854,
				"z": 0.1565698113,
				"element": "C" 
			},
			{
				"x": 4.479320654,
				"y": -2.6951312774,
				"z": -2.6388417916,
				"element": "H" 
			},
			{
				"x": 3.2333969954,
				"y": -2.1848584259,
				"z": -0.5079154694,
				"element": "H" 
			},
			{
				"x": 0.432730071,
				"y": 0.1843451974,
				"z": -2.7404532773,
				"element": "H" 
			},
			{
				"x": 1.6682179482,
				"y": -0.3207095254,
				"z": -4.8354714356,
				"element": "H" 
			},
			{
				"x": 0.3383396409,
				"y": 1.0998166715,
				"z": -0.8414682514,
				"element": "H" 
			},
			{
				"x": -0.3199533393,
				"y": -0.0604855089,
				"z": 1.7920651307,
				"element": "H" 
			},
			{
				"x": 0.1355514826,
				"y": 1.6326646229,
				"z": 1.6268559135,
				"element": "H" 
			},
			{
				"x": -1.6947452904,
				"y": 3.0514696473,
				"z": 1.9877611456,
				"element": "H" 
			},
			{
				"x": -5.572188746,
				"y": 2.1826179755,
				"z": 0.3525426838,
				"element": "H" 
			},
			{
				"x": -4.6847497318,
				"y": 0.0594374716,
				"z": -0.601327942,
				"element": "H" 
			},
			{
				"x": -2.3063633009,
				"y": -0.5628493408,
				"z": -0.2630463631,
				"element": "H" 
			}
		],
		 "valence_orbital": [ 
			{
				"type": "occ",
				"energy": -0.27139,
				"method": "rhf"
			},
			{
				"type": "occ",
				"energy": -0.26788,
				"method": "rhf"
			},
			{
				"type": "occ",
				"energy": -0.25785,
				"method": "rhf"
			},
			{
				"type": "occ",
				"energy": -0.25289,
				"method": "rhf"
			},
			{
				"type": "occ",
				"energy": -0.24454,
				"method": "rhf"
			},
			{
				"type": "unocc",
				"energy": -0.03993,
				"method": "rhf"
			},
			{
				"type": "unocc",
				"energy": -0.0238,
				"method": "rhf"
			},
			{
				"type": "unocc",
				"energy": -0.02045,
				"method": "rhf"
			},
			{
				"type": "unocc",
				"energy": -0.01777,
				"method": "rhf"
			},
			{
				"type": "unocc",
				"energy": 0.02624,
				"method": "rhf"
			}
		],
		"cosmo_sigma_profile": { 
			"-0.025": 0.0,
			"-0.024": 0.0,
			"-0.023": 0.0,
			"-0.022": 0.0,
			"-0.021": 0.0,
			"-0.02": 0.0,
			"-0.019": 0.0,
			"-0.018": 0.0,
			"-0.017": 0.0,
			"-0.016": 0.0,
			"-0.015": 0.254917954269,
			"-0.014": 0.79655144306,
			"-0.013": 1.19375047892,
			"-0.012": 1.44933017191,
			"-0.011": 1.61609118833,
			"-0.01": 0.806807459336,
			"-0.009": 1.54941267504,
			"-0.008": 3.72356768782,
			"-0.007": 10.1496529003,
			"-0.006": 16.5039643407,
			"-0.005": 19.5285365419,
			"-0.004": 16.5907015929,
			"-0.003": 16.1242995672,
			"-0.002": 16.7052494372,
			"-0.001": 19.6671267007,
			"0.0": 24.237943443,
			"0.001": 24.8031592734,
			"0.002": 28.5749276407,
			"0.003": 32.240649359,
			"0.004": 29.4725536103,
			"0.005": 11.5198796948,
			"0.006": 1.80492716849,
			"0.007": 1.68763683047,
			"0.008": 1.43440997281,
			"0.009": 1.26119069441,
			"0.01": 1.49001386999,
			"0.011": 1.70111232539,
			"0.012": 1.91379395864,
			"0.013": 4.12075514215,
			"0.014": 2.8547160336,
			"0.015": 0.00261020836642,
			"0.016": 0.0,
			"0.017": 0.0,
			"0.018": 0.0,
			"0.019": 0.0,
			"0.02": 0.0,
			"0.021": 0.0,
			"0.022": 0.0,
			"0.023": 0.0,
			"0.024": 0.0,
			"0.025": 0.0
		}
	}
}
