{
	 "smiles": "OC(=O)C1=CN(CC2=C(Cl)C=CC=C2)N=C1", 
	 "Tm": 418.15, 
	 "num_atms": 25, 
	 "gaussian": { 
		 "optdone": 1, 
		 "sigma_profile": "yes", 
		 "theory": "DFT", 
		 "functional": "B3LYP", 
		 "basiset": "6-31G**", 
		 "properties": { 
			 "R2extent": 6144.5272, 
			 "electric_dipole_moment_norm": 7.79073654734, 
			 "electric_quadrupole_moment_norm": 22.8920587204, 
			 "total_energy": -1144.72133451, 
			 "HOMO_LUMO_gap": 0.21703, 
			 "cosmo_polarized_energy": -20.89, 
			 "cosmo_cavitation_energy": 32.21, 
			 "cosmo_dispersion_energy": -22.55, 
			 "cosmo_repulsion_energy": 1.76, 
			 "cosmo_total_nonelectrostatic_energy": 11.41, 
			 "SMD_solvation_energy": 5.68 
		},
		"coords": [
			{
				"x": 3.0940969233,
				"y": -2.0177904149,
				"z": 1.3600838604,
				"element": "O" 
			},
			{
				"x": 2.9534953921,
				"y": -3.0060412878,
				"z": 0.4276850966,
				"element": "C" 
			},
			{
				"x": 3.8999324064,
				"y": -3.7008519178,
				"z": 0.1396354648,
				"element": "O" 
			},
			{
				"x": 1.6158988016,
				"y": -3.1635399902,
				"z": -0.1721353457,
				"element": "C" 
			},
			{
				"x": 0.3835013827,
				"y": -2.64180813,
				"z": 0.2093579803,
				"element": "C" 
			},
			{
				"x": -0.5257424575,
				"y": -3.103374344,
				"z": -0.6797520906,
				"element": "N" 
			},
			{
				"x": -1.983434951,
				"y": -2.9442210163,
				"z": -0.6685466185,
				"element": "C" 
			},
			{
				"x": -2.4352737441,
				"y": -1.6445103663,
				"z": -0.0461242709,
				"element": "C" 
			},
			{
				"x": -2.345837718,
				"y": -0.4129682948,
				"z": -0.7162993182,
				"element": "C" 
			},
			{
				"x": -1.6845407463,
				"y": -0.3374021643,
				"z": -2.341717349,
				"element": "Cl" 
			},
			{
				"x": -2.7799267594,
				"y": 0.7727810359,
				"z": -0.124508461,
				"element": "C" 
			},
			{
				"x": -3.3147300887,
				"y": 0.744445514,
				"z": 1.1636903247,
				"element": "C" 
			},
			{
				"x": -3.4165245248,
				"y": -0.4641339933,
				"z": 1.8522482444,
				"element": "C" 
			},
			{
				"x": -2.9797031877,
				"y": -1.6413992829,
				"z": 1.2458044238,
				"element": "C" 
			},
			{
				"x": 0.0295603864,
				"y": -3.910641368,
				"z": -1.6192541075,
				"element": "N" 
			},
			{
				"x": 1.3192877762,
				"y": -3.9503889195,
				"z": -1.3132831102,
				"element": "C" 
			},
			{
				"x": 2.3063135578,
				"y": -1.4574793771,
				"z": 1.3744158207,
				"element": "H" 
			},
			{
				"x": 0.0851048215,
				"y": -2.0083058484,
				"z": 1.0324280335,
				"element": "H" 
			},
			{
				"x": -2.2951403075,
				"y": -3.0204696022,
				"z": -1.7119175929,
				"element": "H" 
			},
			{
				"x": -2.425960892,
				"y": -3.7849279832,
				"z": -0.1233766186,
				"element": "H" 
			},
			{
				"x": -2.6998867462,
				"y": 1.7042606438,
				"z": -0.6737560167,
				"element": "H" 
			},
			{
				"x": -3.6532055861,
				"y": 1.6685217059,
				"z": 1.6222745102,
				"element": "H" 
			},
			{
				"x": -3.8358912506,
				"y": -0.4925271522,
				"z": 2.8529010354,
				"element": "H" 
			},
			{
				"x": -3.0641472925,
				"y": -2.586037925,
				"z": 1.7767615717,
				"element": "H" 
			},
			{
				"x": 2.0147548041,
				"y": -4.5222895213,
				"z": -1.9112154666,
				"element": "H" 
			}
		],
		 "valence_orbital": [ 
			{
				"type": "occ",
				"energy": -0.28565,
				"method": "rhf"
			},
			{
				"type": "occ",
				"energy": -0.27146,
				"method": "rhf"
			},
			{
				"type": "occ",
				"energy": -0.26855,
				"method": "rhf"
			},
			{
				"type": "occ",
				"energy": -0.26627,
				"method": "rhf"
			},
			{
				"type": "occ",
				"energy": -0.25926,
				"method": "rhf"
			},
			{
				"type": "unocc",
				"energy": -0.04223,
				"method": "rhf"
			},
			{
				"type": "unocc",
				"energy": -0.03613,
				"method": "rhf"
			},
			{
				"type": "unocc",
				"energy": -0.02501,
				"method": "rhf"
			},
			{
				"type": "unocc",
				"energy": 0.009,
				"method": "rhf"
			},
			{
				"type": "unocc",
				"energy": 0.01499,
				"method": "rhf"
			}
		],
		"cosmo_sigma_profile": { 
			"-0.025": 0.0,
			"-0.024": 0.0,
			"-0.023": 0.0,
			"-0.022": 0.0,
			"-0.021": 0.0,
			"-0.02": 0.0,
			"-0.019": 0.418077954024,
			"-0.018": 0.90221272349,
			"-0.017": 1.51941243607,
			"-0.016": 1.16031715176,
			"-0.015": 0.748372161235,
			"-0.014": 1.4967778029,
			"-0.013": 0.817119383009,
			"-0.012": 1.48681645025,
			"-0.011": 1.14476072259,
			"-0.01": 0.867925597879,
			"-0.009": 1.65028275542,
			"-0.008": 6.22668761688,
			"-0.007": 12.5813924617,
			"-0.006": 17.858291039,
			"-0.005": 15.6406836712,
			"-0.004": 13.794346723,
			"-0.003": 11.2614214222,
			"-0.002": 13.0927351001,
			"-0.001": 16.2435850984,
			"0.0": 16.416184092,
			"0.001": 19.3051527997,
			"0.002": 22.3778264449,
			"0.003": 22.3311047788,
			"0.004": 16.1947466503,
			"0.005": 5.36944633354,
			"0.006": 3.91310853062,
			"0.007": 4.25227470794,
			"0.008": 2.90008279114,
			"0.009": 4.95768370464,
			"0.01": 5.2393955591,
			"0.011": 5.88733101064,
			"0.012": 7.56765504547,
			"0.013": 3.40081928974,
			"0.014": 1.33686724652,
			"0.015": 0.174072350776,
			"0.016": 0.0,
			"0.017": 0.0,
			"0.018": 0.0,
			"0.019": 0.0,
			"0.02": 0.0,
			"0.021": 0.0,
			"0.022": 0.0,
			"0.023": 0.0,
			"0.024": 0.0,
			"0.025": 0.0
		}
	}
}
