{
	 "smiles": "COC1=C(OCC2=CC=C(O2)C(O)=O)C=CC=C1", 
	 "Tm": 457.15, 
	 "num_atms": 30, 
	 "gaussian": { 
		 "optdone": 1, 
		 "sigma_profile": "yes", 
		 "theory": "DFT", 
		 "functional": "B3LYP", 
		 "basiset": "6-31G**", 
		 "properties": { 
			 "R2extent": 7191.129, 
			 "electric_dipole_moment_norm": 4.29398000112, 
			 "electric_quadrupole_moment_norm": 12.337806166, 
			 "total_energy": -878.69435972, 
			 "HOMO_LUMO_gap": 0.18358, 
			 "cosmo_polarized_energy": -14.48, 
			 "cosmo_cavitation_energy": 35.9, 
			 "cosmo_dispersion_energy": -25.68, 
			 "cosmo_repulsion_energy": 2.01, 
			 "cosmo_total_nonelectrostatic_energy": 12.23, 
			 "SMD_solvation_energy": 8.86 
		},
		"coords": [
			{
				"x": -2.0955426652,
				"y": -1.3858500616,
				"z": -2.9182135137,
				"element": "C" 
			},
			{
				"x": -1.6675028241,
				"y": -0.6874325468,
				"z": -1.7582707138,
				"element": "O" 
			},
			{
				"x": -1.5097669711,
				"y": 0.6669846018,
				"z": -1.8418747266,
				"element": "C" 
			},
			{
				"x": -1.1198099114,
				"y": 1.3204416733,
				"z": -0.6516067002,
				"element": "C" 
			},
			{
				"x": -0.9634377449,
				"y": 0.6253296952,
				"z": 0.5287089146,
				"element": "O" 
			},
			{
				"x": 0.1303957642,
				"y": -0.2878106135,
				"z": 0.5772749997,
				"element": "C" 
			},
			{
				"x": 0.2108880228,
				"y": -0.8017706984,
				"z": 1.9767106564,
				"element": "C" 
			},
			{
				"x": -0.4827417715,
				"y": -0.5137351109,
				"z": 3.1209213497,
				"element": "C" 
			},
			{
				"x": 0.0729399392,
				"y": -1.3436831168,
				"z": 4.1359174705,
				"element": "C" 
			},
			{
				"x": 1.0651299962,
				"y": -2.0771618713,
				"z": 3.5412563883,
				"element": "C" 
			},
			{
				"x": 1.1535286105,
				"y": -1.7480089534,
				"z": 2.2100660787,
				"element": "O" 
			},
			{
				"x": 1.960530354,
				"y": -3.0799119407,
				"z": 4.1068208096,
				"element": "C" 
			},
			{
				"x": 2.8253555027,
				"y": -3.5973328564,
				"z": 3.200545461,
				"element": "O" 
			},
			{
				"x": 1.9377993057,
				"y": -3.4214795886,
				"z": 5.2748664667,
				"element": "O" 
			},
			{
				"x": -0.9568946778,
				"y": 2.7017693867,
				"z": -0.6387793486,
				"element": "C" 
			},
			{
				"x": -1.1723316675,
				"y": 3.4563332606,
				"z": -1.7956689591,
				"element": "C" 
			},
			{
				"x": -1.5432919273,
				"y": 2.8123965168,
				"z": -2.9724456989,
				"element": "C" 
			},
			{
				"x": -1.7114250911,
				"y": 1.4237515697,
				"z": -3.0000220034,
				"element": "C" 
			},
			{
				"x": -3.0756913354,
				"y": -1.0318091361,
				"z": -3.2611477917,
				"element": "H" 
			},
			{
				"x": -1.3720158977,
				"y": -1.2920758763,
				"z": -3.7380881602,
				"element": "H" 
			},
			{
				"x": -2.1737142216,
				"y": -2.4337894183,
				"z": -2.6255580149,
				"element": "H" 
			},
			{
				"x": 1.0677137904,
				"y": 0.2218135354,
				"z": 0.3049474671,
				"element": "H" 
			},
			{
				"x": -0.015275236,
				"y": -1.1168436152,
				"z": -0.1257296783,
				"element": "H" 
			},
			{
				"x": -1.2868815341,
				"y": 0.2001928807,
				"z": 3.2073443531,
				"element": "H" 
			},
			{
				"x": -0.2096824737,
				"y": -1.4057947531,
				"z": 5.1763981005,
				"element": "H" 
			},
			{
				"x": 3.3581867134,
				"y": -4.2422840125,
				"z": 3.6942387517,
				"element": "H" 
			},
			{
				"x": -0.6677282734,
				"y": 3.1692696952,
				"z": 0.2971736226,
				"element": "H" 
			},
			{
				"x": -1.0450947645,
				"y": 4.5339393288,
				"z": -1.7724117776,
				"element": "H" 
			},
			{
				"x": -1.7096353246,
				"y": 3.383663475,
				"z": -3.8808367184,
				"element": "H" 
			},
			{
				"x": -2.0080036862,
				"y": 0.9404885503,
				"z": -3.9234370847,
				"element": "H" 
			}
		],
		 "valence_orbital": [ 
			{
				"type": "occ",
				"energy": -0.28548,
				"method": "rhf"
			},
			{
				"type": "occ",
				"energy": -0.27409,
				"method": "rhf"
			},
			{
				"type": "occ",
				"energy": -0.24768,
				"method": "rhf"
			},
			{
				"type": "occ",
				"energy": -0.23056,
				"method": "rhf"
			},
			{
				"type": "occ",
				"energy": -0.22185,
				"method": "rhf"
			},
			{
				"type": "unocc",
				"energy": -0.03827,
				"method": "rhf"
			},
			{
				"type": "unocc",
				"energy": -0.00334,
				"method": "rhf"
			},
			{
				"type": "unocc",
				"energy": 0.00556,
				"method": "rhf"
			},
			{
				"type": "unocc",
				"energy": 0.04675,
				"method": "rhf"
			},
			{
				"type": "unocc",
				"energy": 0.07389,
				"method": "rhf"
			}
		],
		"cosmo_sigma_profile": { 
			"-0.025": 0.0,
			"-0.024": 0.0,
			"-0.023": 0.0,
			"-0.022": 0.0,
			"-0.021": 0.0,
			"-0.02": 0.0,
			"-0.019": 0.173216936503,
			"-0.018": 0.772224313447,
			"-0.017": 1.10899577927,
			"-0.016": 0.9677117467,
			"-0.015": 0.637183685338,
			"-0.014": 0.0884821487424,
			"-0.013": 0.389514204227,
			"-0.012": 1.06988882208,
			"-0.011": 0.904534079254,
			"-0.01": 0.844772375357,
			"-0.009": 0.681048911968,
			"-0.008": 1.97534715904,
			"-0.007": 6.1559638504,
			"-0.006": 17.2211343646,
			"-0.005": 23.7929773274,
			"-0.004": 23.650496683,
			"-0.003": 23.7508595593,
			"-0.002": 15.9850912786,
			"-0.001": 17.7404670257,
			"0.0": 19.5019963598,
			"0.001": 18.7653928113,
			"0.002": 20.0137169997,
			"0.003": 20.7514605077,
			"0.004": 14.8098249963,
			"0.005": 13.9662054747,
			"0.006": 9.71776635508,
			"0.007": 5.97492959109,
			"0.008": 5.36413697774,
			"0.009": 5.78425961496,
			"0.01": 5.09589804303,
			"0.011": 3.42619513433,
			"0.012": 5.19246341091,
			"0.013": 0.50760977448,
			"0.014": 0.0,
			"0.015": 0.0,
			"0.016": 0.0,
			"0.017": 0.0,
			"0.018": 0.0,
			"0.019": 0.0,
			"0.02": 0.0,
			"0.021": 0.0,
			"0.022": 0.0,
			"0.023": 0.0,
			"0.024": 0.0,
			"0.025": 0.0
		}
	}
}
