{
	 "smiles": "CN1C(=O)NC(=O)C=C1Cl", 
	 "Tm": 469.15, 
	 "num_atms": 15, 
	 "gaussian": { 
		 "optdone": 1, 
		 "sigma_profile": "yes", 
		 "theory": "DFT", 
		 "functional": "B3LYP", 
		 "basiset": "6-31G**", 
		 "properties": { 
			 "R2extent": 2293.8207, 
			 "electric_dipole_moment_norm": 3.38370366315, 
			 "electric_quadrupole_moment_norm": 8.79839193944, 
			 "total_energy": -913.713212711, 
			 "HOMO_LUMO_gap": 0.20076, 
			 "cosmo_polarized_energy": -12.41, 
			 "cosmo_cavitation_energy": 21.19, 
			 "cosmo_dispersion_energy": -16.12, 
			 "cosmo_repulsion_energy": 1.3, 
			 "cosmo_total_nonelectrostatic_energy": 6.37, 
			 "SMD_solvation_energy": 5.32 
		},
		"coords": [
			{
				"x": -1.4124585727,
				"y": 0.7351733978,
				"z": -2.5111939887,
				"element": "C" 
			},
			{
				"x": -1.2369889925,
				"y": 0.7214804197,
				"z": -1.0529074251,
				"element": "N" 
			},
			{
				"x": -1.2367140735,
				"y": -0.5424244377,
				"z": -0.4191299563,
				"element": "C" 
			},
			{
				"x": -1.3740827021,
				"y": -1.5845669067,
				"z": -1.0350977311,
				"element": "O" 
			},
			{
				"x": -1.0683909885,
				"y": -0.4974339523,
				"z": 0.9490622573,
				"element": "N" 
			},
			{
				"x": -0.9001438087,
				"y": 0.6295937938,
				"z": 1.7765721641,
				"element": "C" 
			},
			{
				"x": -0.7619978011,
				"y": 0.5030002292,
				"z": 2.9816431684,
				"element": "O" 
			},
			{
				"x": -0.9137857075,
				"y": 1.882256733,
				"z": 1.0395344675,
				"element": "C" 
			},
			{
				"x": -1.0770055499,
				"y": 1.8701756494,
				"z": -0.3033525747,
				"element": "C" 
			},
			{
				"x": -1.0930962517,
				"y": 3.374644784,
				"z": -1.1862983798,
				"element": "Cl" 
			},
			{
				"x": -2.3110998696,
				"y": 1.2926474795,
				"z": -2.7835716356,
				"element": "H" 
			},
			{
				"x": -1.5125129392,
				"y": -0.3025329093,
				"z": -2.8203660914,
				"element": "H" 
			},
			{
				"x": -0.5445931898,
				"y": 1.1859545219,
				"z": -2.9971338528,
				"element": "H" 
			},
			{
				"x": -1.0670764119,
				"y": -1.3994131,
				"z": 1.4099406625,
				"element": "H" 
			},
			{
				"x": -0.7919531413,
				"y": 2.8055442977,
				"z": 1.5860989157,
				"element": "H" 
			}
		],
		 "valence_orbital": [ 
			{
				"type": "occ",
				"energy": -0.33273,
				"method": "rhf"
			},
			{
				"type": "occ",
				"energy": -0.30444,
				"method": "rhf"
			},
			{
				"type": "occ",
				"energy": -0.29229,
				"method": "rhf"
			},
			{
				"type": "occ",
				"energy": -0.26826,
				"method": "rhf"
			},
			{
				"type": "occ",
				"energy": -0.2513,
				"method": "rhf"
			},
			{
				"type": "unocc",
				"energy": -0.05054,
				"method": "rhf"
			},
			{
				"type": "unocc",
				"energy": -0.00544,
				"method": "rhf"
			},
			{
				"type": "unocc",
				"energy": 0.00143,
				"method": "rhf"
			},
			{
				"type": "unocc",
				"energy": 0.08615,
				"method": "rhf"
			},
			{
				"type": "unocc",
				"energy": 0.10269,
				"method": "rhf"
			}
		],
		"cosmo_sigma_profile": { 
			"-0.025": 0.0,
			"-0.024": 0.0,
			"-0.023": 0.0,
			"-0.022": 0.0,
			"-0.021": 0.0,
			"-0.02": 0.0,
			"-0.019": 0.0,
			"-0.018": 0.0,
			"-0.017": 0.119132177623,
			"-0.016": 0.5516951832,
			"-0.015": 1.00260226076,
			"-0.014": 1.13704031018,
			"-0.013": 0.412072408438,
			"-0.012": 0.544197002921,
			"-0.011": 1.06989447347,
			"-0.01": 0.601202262766,
			"-0.009": 1.09410445744,
			"-0.008": 2.61637891764,
			"-0.007": 4.76747058807,
			"-0.006": 9.84482378025,
			"-0.005": 12.8873977542,
			"-0.004": 17.5507525209,
			"-0.003": 15.8693747586,
			"-0.002": 13.7439650104,
			"-0.001": 12.3015374964,
			"0.0": 12.8255300931,
			"0.001": 10.7173127576,
			"0.002": 9.62192719822,
			"0.003": 4.43206379457,
			"0.004": 2.66501055423,
			"0.005": 1.89935807642,
			"0.006": 2.39721229966,
			"0.007": 2.45736723235,
			"0.008": 2.19921295424,
			"0.009": 3.24994473609,
			"0.01": 2.76315466505,
			"0.011": 6.05526188891,
			"0.012": 8.44804311637,
			"0.013": 5.18658777563,
			"0.014": 0.725137216259,
			"0.015": 0.0,
			"0.016": 0.0,
			"0.017": 0.0,
			"0.018": 0.0,
			"0.019": 0.0,
			"0.02": 0.0,
			"0.021": 0.0,
			"0.022": 0.0,
			"0.023": 0.0,
			"0.024": 0.0,
			"0.025": 0.0
		}
	}
}
