{
	 "smiles": "CC1=CC(NC(=O)N2CCC(CC2)C(O)=O)=CC=C1", 
	 "Tm": 463.15, 
	 "num_atms": 37, 
	 "gaussian": { 
		 "optdone": 1, 
		 "sigma_profile": "yes", 
		 "theory": "DFT", 
		 "functional": "B3LYP", 
		 "basiset": "6-31G**", 
		 "properties": { 
			 "R2extent": 7024.7631, 
			 "electric_dipole_moment_norm": 6.04739904918, 
			 "electric_quadrupole_moment_norm": 21.8449374046, 
			 "total_energy": -879.552762386, 
			 "HOMO_LUMO_gap": 0.2089, 
			 "cosmo_polarized_energy": -22.48, 
			 "cosmo_cavitation_energy": 38.54, 
			 "cosmo_dispersion_energy": -27.15, 
			 "cosmo_repulsion_energy": 2.08, 
			 "cosmo_total_nonelectrostatic_energy": 13.47, 
			 "SMD_solvation_energy": 7.64 
		},
		"coords": [
			{
				"x": -1.1041506185,
				"y": -1.9077268902,
				"z": -4.1162872613,
				"element": "C" 
			},
			{
				"x": -1.0898832205,
				"y": -0.9087004788,
				"z": -2.9827156287,
				"element": "C" 
			},
			{
				"x": 0.0992095774,
				"y": -0.6116705103,
				"z": -2.3122945464,
				"element": "C" 
			},
			{
				"x": 0.1428277984,
				"y": 0.3395645807,
				"z": -1.2803620668,
				"element": "C" 
			},
			{
				"x": 1.4003115088,
				"y": 0.6013626204,
				"z": -0.6846389625,
				"element": "N" 
			},
			{
				"x": 1.7131685028,
				"y": 1.394364248,
				"z": 0.4307639256,
				"element": "C" 
			},
			{
				"x": 2.6836934591,
				"y": 2.1417196373,
				"z": 0.3916570305,
				"element": "O" 
			},
			{
				"x": 0.9043902995,
				"y": 1.262889692,
				"z": 1.5481140298,
				"element": "N" 
			},
			{
				"x": 0.3092315633,
				"y": -0.0243930596,
				"z": 1.9265124303,
				"element": "C" 
			},
			{
				"x": -0.9686666711,
				"y": 0.1978157351,
				"z": 2.7423171105,
				"element": "C" 
			},
			{
				"x": -0.716811827,
				"y": 1.0928332896,
				"z": 3.9824711891,
				"element": "C" 
			},
			{
				"x": 0.0211532812,
				"y": 2.3769128335,
				"z": 3.5631308814,
				"element": "C" 
			},
			{
				"x": 1.2591114495,
				"y": 2.1010905172,
				"z": 2.7031091124,
				"element": "C" 
			},
			{
				"x": 0.0334002698,
				"y": 0.337982123,
				"z": 5.0854103872,
				"element": "C" 
			},
			{
				"x": -0.6290305819,
				"y": -0.7274216142,
				"z": 5.6172009457,
				"element": "O" 
			},
			{
				"x": 1.130889154,
				"y": 0.6204024867,
				"z": 5.4985960569,
				"element": "O" 
			},
			{
				"x": -1.0364664596,
				"y": 1.0021843651,
				"z": -0.9120722363,
				"element": "C" 
			},
			{
				"x": -2.2295952556,
				"y": 0.6923069081,
				"z": -1.5655982008,
				"element": "C" 
			},
			{
				"x": -2.264670518,
				"y": -0.2506110743,
				"z": -2.5911152307,
				"element": "C" 
			},
			{
				"x": -1.0404075239,
				"y": -1.4021614219,
				"z": -5.0878945816,
				"element": "H" 
			},
			{
				"x": -0.2604983203,
				"y": -2.6009674827,
				"z": -4.0527237722,
				"element": "H" 
			},
			{
				"x": -2.0272481742,
				"y": -2.4956851441,
				"z": -4.1183650256,
				"element": "H" 
			},
			{
				"x": 1.0155692479,
				"y": -1.1293550128,
				"z": -2.586991153,
				"element": "H" 
			},
			{
				"x": 2.1698288202,
				"y": 0.6452153676,
				"z": -1.3405837202,
				"element": "H" 
			},
			{
				"x": 1.0358651743,
				"y": -0.6037484539,
				"z": 2.5193322858,
				"element": "H" 
			},
			{
				"x": 0.0788675458,
				"y": -0.6043135686,
				"z": 1.034898967,
				"element": "H" 
			},
			{
				"x": -1.3814716854,
				"y": -0.7776226127,
				"z": 3.0273615873,
				"element": "H" 
			},
			{
				"x": -1.7145693709,
				"y": 0.6843540735,
				"z": 2.1049557723,
				"element": "H" 
			},
			{
				"x": -1.6923101985,
				"y": 1.366988641,
				"z": 4.4105781959,
				"element": "H" 
			},
			{
				"x": -0.6773469745,
				"y": 3.0033138479,
				"z": 2.9957338565,
				"element": "H" 
			},
			{
				"x": 0.3248795346,
				"y": 2.937298115,
				"z": 4.451744982,
				"element": "H" 
			},
			{
				"x": 2.0303885981,
				"y": 1.6078678361,
				"z": 3.3079407854,
				"element": "H" 
			},
			{
				"x": 1.6839242736,
				"y": 3.0300879908,
				"z": 2.3238085604,
				"element": "H" 
			},
			{
				"x": -1.5066600555,
				"y": -0.8118969831,
				"z": 5.2185699506,
				"element": "H" 
			},
			{
				"x": -1.0121205799,
				"y": 1.7539106773,
				"z": -0.1322124514,
				"element": "H" 
			},
			{
				"x": -3.1412352507,
				"y": 1.2078459669,
				"z": -1.2756253375,
				"element": "H" 
			},
			{
				"x": -3.2022667723,
				"y": -0.4768372456,
				"z": -3.0916278676,
				"element": "H" 
			}
		],
		 "valence_orbital": [ 
			{
				"type": "occ",
				"energy": -0.27531,
				"method": "rhf"
			},
			{
				"type": "occ",
				"energy": -0.26452,
				"method": "rhf"
			},
			{
				"type": "occ",
				"energy": -0.24995,
				"method": "rhf"
			},
			{
				"type": "occ",
				"energy": -0.23851,
				"method": "rhf"
			},
			{
				"type": "occ",
				"energy": -0.21822,
				"method": "rhf"
			},
			{
				"type": "unocc",
				"energy": -0.00932,
				"method": "rhf"
			},
			{
				"type": "unocc",
				"energy": -0.00721,
				"method": "rhf"
			},
			{
				"type": "unocc",
				"energy": 0.00121,
				"method": "rhf"
			},
			{
				"type": "unocc",
				"energy": 0.04088,
				"method": "rhf"
			},
			{
				"type": "unocc",
				"energy": 0.04479,
				"method": "rhf"
			}
		],
		"cosmo_sigma_profile": { 
			"-0.025": 0.0,
			"-0.024": 0.0,
			"-0.023": 0.0,
			"-0.022": 0.0,
			"-0.021": 0.0,
			"-0.02": 0.0,
			"-0.019": 0.158446151172,
			"-0.018": 1.06809931006,
			"-0.017": 0.727784718131,
			"-0.016": 1.29396162434,
			"-0.015": 0.826496931873,
			"-0.014": 1.37535444611,
			"-0.013": 2.24550093082,
			"-0.012": 2.38265008196,
			"-0.011": 2.02958677178,
			"-0.01": 1.88712254459,
			"-0.009": 2.27422331479,
			"-0.008": 2.89996509915,
			"-0.007": 4.17926621954,
			"-0.006": 6.40478031095,
			"-0.005": 14.8451293037,
			"-0.004": 32.2506206749,
			"-0.003": 34.2119531812,
			"-0.002": 28.5712773749,
			"-0.001": 25.6189659506,
			"0.0": 24.1170739149,
			"0.001": 16.0814039949,
			"0.002": 12.0774220207,
			"0.003": 10.9614215556,
			"0.004": 10.1870528454,
			"0.005": 12.1179889247,
			"0.006": 9.70556360997,
			"0.007": 4.74183882896,
			"0.008": 3.87377510275,
			"0.009": 4.89248094072,
			"0.01": 5.18872815861,
			"0.011": 7.03234905244,
			"0.012": 5.9496988881,
			"0.013": 5.19330787178,
			"0.014": 4.89109559671,
			"0.015": 0.31997844126,
			"0.016": 0.0,
			"0.017": 0.0,
			"0.018": 0.0,
			"0.019": 0.0,
			"0.02": 0.0,
			"0.021": 0.0,
			"0.022": 0.0,
			"0.023": 0.0,
			"0.024": 0.0,
			"0.025": 0.0
		}
	}
}
