{
	 "smiles": "CC1=CC(=O)CC(C)(C)C1", 
	 "Tm": 265.1, 
	 "num_atms": 24, 
	 "gaussian": { 
		 "optdone": 1, 
		 "sigma_profile": "yes", 
		 "theory": "DFT", 
		 "functional": "B3LYP", 
		 "basiset": "6-31G**", 
		 "properties": { 
			 "R2extent": 2183.2104, 
			 "electric_dipole_moment_norm": 4.11643403202, 
			 "electric_quadrupole_moment_norm": 15.3768339934, 
			 "total_energy": -426.627354259, 
			 "HOMO_LUMO_gap": 0.18777, 
			 "cosmo_polarized_energy": -9.02, 
			 "cosmo_cavitation_energy": 25.24, 
			 "cosmo_dispersion_energy": -17.98, 
			 "cosmo_repulsion_energy": 1.45, 
			 "cosmo_total_nonelectrostatic_energy": 8.72, 
			 "SMD_solvation_energy": 4.93 
		},
		"coords": [
			{
				"x": 1.0833440653,
				"y": 1.3889656763,
				"z": 2.0364970823,
				"element": "C" 
			},
			{
				"x": 0.2201770393,
				"y": 0.1904948997,
				"z": 1.7569321063,
				"element": "C" 
			},
			{
				"x": -0.8225359707,
				"y": -0.1403540455,
				"z": 2.5447013584,
				"element": "C" 
			},
			{
				"x": -1.6633287082,
				"y": -1.3269413985,
				"z": 2.3022425388,
				"element": "C" 
			},
			{
				"x": -2.638116638,
				"y": -1.5784034291,
				"z": 2.9983921412,
				"element": "O" 
			},
			{
				"x": -1.2247364369,
				"y": -2.2526474608,
				"z": 1.1725106453,
				"element": "C" 
			},
			{
				"x": -0.5487018699,
				"y": -1.5229355936,
				"z": -0.0089218646,
				"element": "C" 
			},
			{
				"x": -1.5791242641,
				"y": -0.6451886907,
				"z": -0.7488762358,
				"element": "C" 
			},
			{
				"x": 0.0307748326,
				"y": -2.5517447378,
				"z": -0.9943766087,
				"element": "C" 
			},
			{
				"x": 0.595448171,
				"y": -0.6451050732,
				"z": 0.5527233041,
				"element": "C" 
			},
			{
				"x": 2.1374585006,
				"y": 1.0957409913,
				"z": 2.1264910489,
				"element": "H" 
			},
			{
				"x": 0.7881085513,
				"y": 1.9009128658,
				"z": 2.9555928053,
				"element": "H" 
			},
			{
				"x": 1.0316098599,
				"y": 2.1055878147,
				"z": 1.2066152334,
				"element": "H" 
			},
			{
				"x": -1.0942809828,
				"y": 0.4632659234,
				"z": 3.4072268092,
				"element": "H" 
			},
			{
				"x": -0.5123438609,
				"y": -2.9685117742,
				"z": 1.6102776463,
				"element": "H" 
			},
			{
				"x": -2.0952835023,
				"y": -2.8315763902,
				"z": 0.8483465546,
				"element": "H" 
			},
			{
				"x": -2.4044499169,
				"y": -1.2568265158,
				"z": -1.1288296708,
				"element": "H" 
			},
			{
				"x": -1.1159724102,
				"y": -0.1411393819,
				"z": -1.6046557542,
				"element": "H" 
			},
			{
				"x": -2.0059846536,
				"y": 0.1229197933,
				"z": -0.0973373271,
				"element": "H" 
			},
			{
				"x": 0.7594266078,
				"y": -3.2078658797,
				"z": -0.5049006139,
				"element": "H" 
			},
			{
				"x": 0.5348663648,
				"y": -2.0547090404,
				"z": -1.8313597158,
				"element": "H" 
			},
			{
				"x": -0.7616408307,
				"y": -3.1830269509,
				"z": -1.411076767,
				"element": "H" 
			},
			{
				"x": 1.4426491659,
				"y": -1.2885398599,
				"z": 0.8396656531,
				"element": "H" 
			},
			{
				"x": 0.9843368867,
				"y": 0.0100282576,
				"z": -0.2386803694,
				"element": "H" 
			}
		],
		 "valence_orbital": [ 
			{
				"type": "occ",
				"energy": -0.33272,
				"method": "rhf"
			},
			{
				"type": "occ",
				"energy": -0.32447,
				"method": "rhf"
			},
			{
				"type": "occ",
				"energy": -0.31932,
				"method": "rhf"
			},
			{
				"type": "occ",
				"energy": -0.25676,
				"method": "rhf"
			},
			{
				"type": "occ",
				"energy": -0.23028,
				"method": "rhf"
			},
			{
				"type": "unocc",
				"energy": -0.04251,
				"method": "rhf"
			},
			{
				"type": "unocc",
				"energy": 0.05935,
				"method": "rhf"
			},
			{
				"type": "unocc",
				"energy": 0.07819,
				"method": "rhf"
			},
			{
				"type": "unocc",
				"energy": 0.10583,
				"method": "rhf"
			},
			{
				"type": "unocc",
				"energy": 0.12358,
				"method": "rhf"
			}
		],
		"cosmo_sigma_profile": { 
			"-0.025": 0.0,
			"-0.024": 0.0,
			"-0.023": 0.0,
			"-0.022": 0.0,
			"-0.021": 0.0,
			"-0.02": 0.0,
			"-0.019": 0.0,
			"-0.018": 0.0,
			"-0.017": 0.0,
			"-0.016": 0.0,
			"-0.015": 0.0,
			"-0.014": 0.0,
			"-0.013": 0.0,
			"-0.012": 0.0,
			"-0.011": 0.0,
			"-0.01": 0.0,
			"-0.009": 0.0,
			"-0.008": 0.0,
			"-0.007": 0.0,
			"-0.006": 0.0624691680422,
			"-0.005": 8.8044735885,
			"-0.004": 22.453057435,
			"-0.003": 29.0436795934,
			"-0.002": 29.1516297713,
			"-0.001": 25.616158538,
			"0.0": 23.1781474164,
			"0.001": 18.5613464654,
			"0.002": 8.69972965372,
			"0.003": 4.78078339464,
			"0.004": 2.76422044175,
			"0.005": 1.1893788669,
			"0.006": 1.33662346963,
			"0.007": 1.62708765408,
			"0.008": 1.34307989807,
			"0.009": 1.85395872639,
			"0.01": 1.5226623331,
			"0.011": 1.901178869,
			"0.012": 3.21372163849,
			"0.013": 4.73092133611,
			"0.014": 3.25661786239,
			"0.015": 0.611626185549,
			"0.016": 0.0,
			"0.017": 0.0,
			"0.018": 0.0,
			"0.019": 0.0,
			"0.02": 0.0,
			"0.021": 0.0,
			"0.022": 0.0,
			"0.023": 0.0,
			"0.024": 0.0,
			"0.025": 0.0
		}
	}
}
