{
	 "smiles": "CC(C)(C)C1=CC(=CC(=C1)C(O)=O)C(C)(C)C", 
	 "Tm": 434.15, 
	 "num_atms": 39, 
	 "gaussian": { 
		 "optdone": 1, 
		 "sigma_profile": "yes", 
		 "theory": "DFT", 
		 "functional": "B3LYP", 
		 "basiset": "6-31G**", 
		 "properties": { 
			 "R2extent": 5226.346, 
			 "electric_dipole_moment_norm": 5.2451771686, 
			 "electric_quadrupole_moment_norm": 27.059695198, 
			 "total_energy": -735.343071396, 
			 "HOMO_LUMO_gap": 0.2057, 
			 "cosmo_polarized_energy": -13.61, 
			 "cosmo_cavitation_energy": 39.22, 
			 "cosmo_dispersion_energy": -26.25, 
			 "cosmo_repulsion_energy": 2.04, 
			 "cosmo_total_nonelectrostatic_energy": 15.01, 
			 "SMD_solvation_energy": 8.04 
		},
		"coords": [
			{
				"x": -1.5606415525,
				"y": -2.7606743187,
				"z": 1.4739739258,
				"element": "C" 
			},
			{
				"x": -1.1131708507,
				"y": -1.991070517,
				"z": 0.2167642057,
				"element": "C" 
			},
			{
				"x": -2.2990448814,
				"y": -1.9560839583,
				"z": -0.7765596135,
				"element": "C" 
			},
			{
				"x": 0.070403462,
				"y": -2.7560376459,
				"z": -0.4222946999,
				"element": "C" 
			},
			{
				"x": -0.675052849,
				"y": -0.5507103231,
				"z": 0.5428993976,
				"element": "C" 
			},
			{
				"x": -0.2364950858,
				"y": 0.2964711773,
				"z": -0.4873646243,
				"element": "C" 
			},
			{
				"x": 0.1886322141,
				"y": 1.6154787967,
				"z": -0.2718762383,
				"element": "C" 
			},
			{
				"x": 0.1496069993,
				"y": 2.097789872,
				"z": 1.0415993694,
				"element": "C" 
			},
			{
				"x": -0.2946889496,
				"y": 1.2844703808,
				"z": 2.0917430532,
				"element": "C" 
			},
			{
				"x": -0.6885875725,
				"y": -0.0341447318,
				"z": 1.8413271667,
				"element": "C" 
			},
			{
				"x": -0.3410457386,
				"y": 1.7575604051,
				"z": 3.513985667,
				"element": "C" 
			},
			{
				"x": -0.3785965582,
				"y": 3.105065936,
				"z": 3.7091583459,
				"element": "O" 
			},
			{
				"x": -0.3494047358,
				"y": 1.0131593183,
				"z": 4.466750242,
				"element": "O" 
			},
			{
				"x": 0.6808288283,
				"y": 2.4662683545,
				"z": -1.4587525226,
				"element": "C" 
			},
			{
				"x": -0.4554747039,
				"y": 2.6015082469,
				"z": -2.5004268715,
				"element": "C" 
			},
			{
				"x": 1.9009867632,
				"y": 1.7776374155,
				"z": -2.1155184187,
				"element": "C" 
			},
			{
				"x": 1.1057405134,
				"y": 3.8830539351,
				"z": -1.0275076639,
				"element": "C" 
			},
			{
				"x": -2.4172555339,
				"y": -2.2838995338,
				"z": 1.9612116171,
				"element": "H" 
			},
			{
				"x": -0.7541106094,
				"y": -2.8462397137,
				"z": 2.2091098405,
				"element": "H" 
			},
			{
				"x": -1.8623728003,
				"y": -3.7753805323,
				"z": 1.19524041,
				"element": "H" 
			},
			{
				"x": -2.6197070064,
				"y": -2.9749381889,
				"z": -1.0206127644,
				"element": "H" 
			},
			{
				"x": -2.0336579103,
				"y": -1.4588124888,
				"z": -1.7145097583,
				"element": "H" 
			},
			{
				"x": -3.1548954701,
				"y": -1.4252392536,
				"z": -0.3468991298,
				"element": "H" 
			},
			{
				"x": -0.2269717541,
				"y": -3.7828907767,
				"z": -0.6622936447,
				"element": "H" 
			},
			{
				"x": 0.4104258329,
				"y": -2.2843748256,
				"z": -1.3492836307,
				"element": "H" 
			},
			{
				"x": 0.9232729556,
				"y": -2.8011008854,
				"z": 0.2627013143,
				"element": "H" 
			},
			{
				"x": -0.2174330873,
				"y": -0.0911851075,
				"z": -1.5011103332,
				"element": "H" 
			},
			{
				"x": 0.5111831796,
				"y": 3.0987935266,
				"z": 1.2520524593,
				"element": "H" 
			},
			{
				"x": -1.0013338289,
				"y": -0.628761425,
				"z": 2.6899463309,
				"element": "H" 
			},
			{
				"x": -0.5314892621,
				"y": 3.554083279,
				"z": 2.8663240311,
				"element": "H" 
			},
			{
				"x": -0.7764453124,
				"y": 1.628593108,
				"z": -2.8839749565,
				"element": "H" 
			},
			{
				"x": -1.3311517674,
				"y": 3.0938515851,
				"z": -2.0647584766,
				"element": "H" 
			},
			{
				"x": -0.1189779348,
				"y": 3.2002292955,
				"z": -3.3540959811,
				"element": "H" 
			},
			{
				"x": 2.7242271044,
				"y": 1.673948761,
				"z": -1.4012315528,
				"element": "H" 
			},
			{
				"x": 2.2602098065,
				"y": 2.3694786421,
				"z": -2.9647783848,
				"element": "H" 
			},
			{
				"x": 1.6544161035,
				"y": 0.7789102599,
				"z": -2.4876362009,
				"element": "H" 
			},
			{
				"x": 1.4429929417,
				"y": 4.4478644058,
				"z": -1.9022240254,
				"element": "H" 
			},
			{
				"x": 1.9345471028,
				"y": 3.8623841168,
				"z": -0.3119976148,
				"element": "H" 
			},
			{
				"x": 0.276231948,
				"y": 4.440243408,
				"z": -0.5788802699,
				"element": "H" 
			}
		],
		 "valence_orbital": [ 
			{
				"type": "occ",
				"energy": -0.32101,
				"method": "rhf"
			},
			{
				"type": "occ",
				"energy": -0.30899,
				"method": "rhf"
			},
			{
				"type": "occ",
				"energy": -0.26827,
				"method": "rhf"
			},
			{
				"type": "occ",
				"energy": -0.2546,
				"method": "rhf"
			},
			{
				"type": "occ",
				"energy": -0.25057,
				"method": "rhf"
			},
			{
				"type": "unocc",
				"energy": -0.04487,
				"method": "rhf"
			},
			{
				"type": "unocc",
				"energy": -0.01114,
				"method": "rhf"
			},
			{
				"type": "unocc",
				"energy": 0.04983,
				"method": "rhf"
			},
			{
				"type": "unocc",
				"energy": 0.05865,
				"method": "rhf"
			},
			{
				"type": "unocc",
				"energy": 0.07542,
				"method": "rhf"
			}
		],
		"cosmo_sigma_profile": { 
			"-0.025": 0.0,
			"-0.024": 0.0,
			"-0.023": 0.0,
			"-0.022": 0.0,
			"-0.021": 0.0,
			"-0.02": 0.0,
			"-0.019": 0.0,
			"-0.018": 0.536484973426,
			"-0.017": 0.575049693303,
			"-0.016": 0.989218037396,
			"-0.015": 1.05109906443,
			"-0.014": 0.777378671742,
			"-0.013": 0.563384408624,
			"-0.012": 1.55008872379,
			"-0.011": 1.03534447235,
			"-0.01": 0.555408041243,
			"-0.009": 1.02448164323,
			"-0.008": 1.63662295142,
			"-0.007": 1.22477594963,
			"-0.006": 3.24188239425,
			"-0.005": 7.49357547466,
			"-0.004": 9.12469068385,
			"-0.003": 37.1260535641,
			"-0.002": 45.2459283088,
			"-0.001": 36.0162607957,
			"0.0": 34.9519528939,
			"0.001": 48.2454401694,
			"0.002": 18.6702820847,
			"0.003": 9.29468646874,
			"0.004": 11.5157027782,
			"0.005": 4.17110676513,
			"0.006": 2.01158782324,
			"0.007": 2.7173927119,
			"0.008": 2.78594649377,
			"0.009": 3.18573540925,
			"0.01": 4.03923028142,
			"0.011": 5.23623065738,
			"0.012": 5.79402789409,
			"0.013": 2.33367307794,
			"0.014": 0.246551040945,
			"0.015": 0.0,
			"0.016": 0.0,
			"0.017": 0.0,
			"0.018": 0.0,
			"0.019": 0.0,
			"0.02": 0.0,
			"0.021": 0.0,
			"0.022": 0.0,
			"0.023": 0.0,
			"0.024": 0.0,
			"0.025": 0.0
		}
	}
}
