{
	 "smiles": "CC1=CC(OCCC(O)=O)=C(C=C1)[N+]([O-])=O", 
	 "Tm": 408.15, 
	 "num_atms": 27, 
	 "gaussian": { 
		 "optdone": 1, 
		 "sigma_profile": "yes", 
		 "theory": "DFT", 
		 "functional": "B3LYP", 
		 "basiset": "6-31G**", 
		 "properties": { 
			 "R2extent": 4480.2399, 
			 "electric_dipole_moment_norm": 5.48419958973, 
			 "electric_quadrupole_moment_norm": 15.781876896, 
			 "total_energy": -818.471060107, 
			 "HOMO_LUMO_gap": 0.16833, 
			 "cosmo_polarized_energy": -18.87, 
			 "cosmo_cavitation_energy": 32.66, 
			 "cosmo_dispersion_energy": -22.79, 
			 "cosmo_repulsion_energy": 1.82, 
			 "cosmo_total_nonelectrostatic_energy": 11.69, 
			 "SMD_solvation_energy": 9.29 
		},
		"coords": [
			{
				"x": 3.2163509249,
				"y": -1.9652415119,
				"z": -1.0801286901,
				"element": "C" 
			},
			{
				"x": 2.1132001428,
				"y": -0.9436343302,
				"z": -1.2117363133,
				"element": "C" 
			},
			{
				"x": 1.1565439937,
				"y": -0.8040522718,
				"z": -0.2020169832,
				"element": "C" 
			},
			{
				"x": 0.1289466156,
				"y": 0.1497184578,
				"z": -0.2759742862,
				"element": "C" 
			},
			{
				"x": -0.7926110895,
				"y": 0.320892207,
				"z": 0.6929066136,
				"element": "O" 
			},
			{
				"x": -0.7145541958,
				"y": -0.4562805326,
				"z": 1.8902622064,
				"element": "C" 
			},
			{
				"x": -1.8024801066,
				"y": 0.068477733,
				"z": 2.8110724197,
				"element": "C" 
			},
			{
				"x": -1.4473321064,
				"y": 1.4289258657,
				"z": 3.3825603188,
				"element": "C" 
			},
			{
				"x": -2.5487189651,
				"y": 2.1131830734,
				"z": 3.7570230819,
				"element": "O" 
			},
			{
				"x": -0.3220193622,
				"y": 1.8520018429,
				"z": 3.528415175,
				"element": "O" 
			},
			{
				"x": 0.0853295244,
				"y": 0.981721347,
				"z": -1.4205506532,
				"element": "C" 
			},
			{
				"x": 1.0471731162,
				"y": 0.8543901854,
				"z": -2.4238989594,
				"element": "C" 
			},
			{
				"x": 2.047846867,
				"y": -0.1015848181,
				"z": -2.330801675,
				"element": "C" 
			},
			{
				"x": -0.9518695978,
				"y": 1.9976230879,
				"z": -1.6204123254,
				"element": "N" 
			},
			{
				"x": -2.0086727361,
				"y": 1.8943782908,
				"z": -1.0015782902,
				"element": "O" 
			},
			{
				"x": -0.7048753462,
				"y": 2.8983929884,
				"z": -2.428489328,
				"element": "O" 
			},
			{
				"x": 4.1289131366,
				"y": -1.5021312821,
				"z": -0.6850452176,
				"element": "H" 
			},
			{
				"x": 2.9383115434,
				"y": -2.7756033744,
				"z": -0.4007534403,
				"element": "H" 
			},
			{
				"x": 3.4694264838,
				"y": -2.4029529521,
				"z": -2.0503005908,
				"element": "H" 
			},
			{
				"x": 1.2163032272,
				"y": -1.4529574807,
				"z": 0.6632146581,
				"element": "H" 
			},
			{
				"x": 0.266748125,
				"y": -0.3323244718,
				"z": 2.3614278208,
				"element": "H" 
			},
			{
				"x": -0.8791283632,
				"y": -1.5166439623,
				"z": 1.6607757667,
				"element": "H" 
			},
			{
				"x": -2.7600441396,
				"y": 0.1233689725,
				"z": 2.2876036917,
				"element": "H" 
			},
			{
				"x": -1.9312110832,
				"y": -0.6202249246,
				"z": 3.6556329418,
				"element": "H" 
			},
			{
				"x": -2.2362852743,
				"y": 2.956543276,
				"z": 4.1266798595,
				"element": "H" 
			},
			{
				"x": 0.9794871962,
				"y": 1.5224120308,
				"z": -3.2734372441,
				"element": "H" 
			},
			{
				"x": 2.7793214691,
				"y": -0.1966974459,
				"z": -3.1273505572,
				"element": "H" 
			}
		],
		 "valence_orbital": [ 
			{
				"type": "occ",
				"energy": -0.28989,
				"method": "rhf"
			},
			{
				"type": "occ",
				"energy": -0.28383,
				"method": "rhf"
			},
			{
				"type": "occ",
				"energy": -0.27624,
				"method": "rhf"
			},
			{
				"type": "occ",
				"energy": -0.26259,
				"method": "rhf"
			},
			{
				"type": "occ",
				"energy": -0.24055,
				"method": "rhf"
			},
			{
				"type": "unocc",
				"energy": -0.07222,
				"method": "rhf"
			},
			{
				"type": "unocc",
				"energy": -0.01047,
				"method": "rhf"
			},
			{
				"type": "unocc",
				"energy": 0.00277,
				"method": "rhf"
			},
			{
				"type": "unocc",
				"energy": 0.00701,
				"method": "rhf"
			},
			{
				"type": "unocc",
				"energy": 0.07386,
				"method": "rhf"
			}
		],
		"cosmo_sigma_profile": { 
			"-0.025": 0.0,
			"-0.024": 0.0,
			"-0.023": 0.0,
			"-0.022": 0.0,
			"-0.021": 0.0,
			"-0.02": 0.0,
			"-0.019": 0.133804035389,
			"-0.018": 0.681819155368,
			"-0.017": 0.948382612607,
			"-0.016": 1.14579186366,
			"-0.015": 0.784434515859,
			"-0.014": 0.727610721967,
			"-0.013": 0.341745721924,
			"-0.012": 0.765194715362,
			"-0.011": 1.15264106904,
			"-0.01": 0.634545049029,
			"-0.009": 0.339779017472,
			"-0.008": 4.55497353451,
			"-0.007": 12.1061278723,
			"-0.006": 17.8704352104,
			"-0.005": 20.319506434,
			"-0.004": 17.2881901633,
			"-0.003": 18.6990109377,
			"-0.002": 16.0215460719,
			"-0.001": 18.8180436445,
			"0.0": 16.6261242538,
			"0.001": 15.3250664101,
			"0.002": 14.2062157413,
			"0.003": 12.4668935313,
			"0.004": 6.59286022966,
			"0.005": 6.80883686329,
			"0.006": 6.18738242686,
			"0.007": 6.25252298412,
			"0.008": 12.4509591407,
			"0.009": 11.1352727598,
			"0.01": 8.01809009073,
			"0.011": 6.60318535148,
			"0.012": 3.07669317271,
			"0.013": 0.0181416910483,
			"0.014": 0.0,
			"0.015": 0.0,
			"0.016": 0.0,
			"0.017": 0.0,
			"0.018": 0.0,
			"0.019": 0.0,
			"0.02": 0.0,
			"0.021": 0.0,
			"0.022": 0.0,
			"0.023": 0.0,
			"0.024": 0.0,
			"0.025": 0.0
		}
	}
}
