{
	 "smiles": "OC1=CC=C(C=CC2=NC3=C(C=CC=C3)C=C2)C=C1", 
	 "Tm": 563.15, 
	 "num_atms": 32, 
	 "gaussian": { 
		 "optdone": 1, 
		 "sigma_profile": "yes", 
		 "theory": "DFT", 
		 "functional": "B3LYP", 
		 "basiset": "6-31G**", 
		 "properties": { 
			 "R2extent": 6627.8316, 
			 "electric_dipole_moment_norm": 1.9129664111, 
			 "electric_quadrupole_moment_norm": 13.9725474485, 
			 "total_energy": -785.612881774, 
			 "HOMO_LUMO_gap": 0.13262, 
			 "cosmo_polarized_energy": -12.9, 
			 "cosmo_cavitation_energy": 36.36, 
			 "cosmo_dispersion_energy": -26.36, 
			 "cosmo_repulsion_energy": 1.95, 
			 "cosmo_total_nonelectrostatic_energy": 11.95, 
			 "SMD_solvation_energy": 5.54 
		},
		"coords": [
			{
				"x": 0.188376506,
				"y": -4.0427563066,
				"z": -3.9058775989,
				"element": "O" 
			},
			{
				"x": 0.6516972191,
				"y": -2.9519023603,
				"z": -3.2314709116,
				"element": "C" 
			},
			{
				"x": -0.0135805366,
				"y": -2.403043523,
				"z": -2.1284105536,
				"element": "C" 
			},
			{
				"x": 0.4999613822,
				"y": -1.2890083671,
				"z": -1.4741487026,
				"element": "C" 
			},
			{
				"x": 1.6996860752,
				"y": -0.6853882348,
				"z": -1.9032007569,
				"element": "C" 
			},
			{
				"x": 2.3397345197,
				"y": 0.4824976896,
				"z": -1.3042325249,
				"element": "C" 
			},
			{
				"x": 2.0995289922,
				"y": 1.3336070231,
				"z": -0.269461137,
				"element": "C" 
			},
			{
				"x": 1.0598743019,
				"y": 1.4787379662,
				"z": 0.7522785492,
				"element": "C" 
			},
			{
				"x": 0.0162702129,
				"y": 0.6588466568,
				"z": 0.8386089571,
				"element": "N" 
			},
			{
				"x": -0.9112554406,
				"y": 0.8565791917,
				"z": 1.8162422919,
				"element": "C" 
			},
			{
				"x": -0.8182269116,
				"y": 1.9191214551,
				"z": 2.7707475394,
				"element": "C" 
			},
			{
				"x": -1.8231523534,
				"y": 2.0615436791,
				"z": 3.7599361677,
				"element": "C" 
			},
			{
				"x": -2.8859296842,
				"y": 1.1856357064,
				"z": 3.8078934375,
				"element": "C" 
			},
			{
				"x": -2.9820887988,
				"y": 0.1324986317,
				"z": 2.8653057618,
				"element": "C" 
			},
			{
				"x": -2.0202184011,
				"y": -0.0300362698,
				"z": 1.8929911358,
				"element": "C" 
			},
			{
				"x": 0.3031644668,
				"y": 2.7823925583,
				"z": 2.6610035013,
				"element": "C" 
			},
			{
				"x": 1.2252770736,
				"y": 2.5687611654,
				"z": 1.672624266,
				"element": "C" 
			},
			{
				"x": 2.3502413904,
				"y": -1.2612719841,
				"z": -3.0198929941,
				"element": "C" 
			},
			{
				"x": 1.8453423703,
				"y": -2.3720885917,
				"z": -3.6783353407,
				"element": "C" 
			},
			{
				"x": -0.6351015829,
				"y": -4.3399762604,
				"z": -3.4969909523,
				"element": "H" 
			},
			{
				"x": -0.9417867612,
				"y": -2.8535909296,
				"z": -1.7803097988,
				"element": "H" 
			},
			{
				"x": -0.0130721172,
				"y": -0.8627381512,
				"z": -0.6204601748,
				"element": "H" 
			},
			{
				"x": 3.2581545743,
				"y": 0.735844714,
				"z": -1.8349020071,
				"element": "H" 
			},
			{
				"x": 2.8628969693,
				"y": 2.102625015,
				"z": -0.1652764985,
				"element": "H" 
			},
			{
				"x": -1.7409847132,
				"y": 2.8727840666,
				"z": 4.4791862221,
				"element": "H" 
			},
			{
				"x": -3.653274511,
				"y": 1.2992157467,
				"z": 4.5678857108,
				"element": "H" 
			},
			{
				"x": -3.8245260302,
				"y": -0.5516535364,
				"z": 2.9132521732,
				"element": "H" 
			},
			{
				"x": -2.0816885557,
				"y": -0.8324082739,
				"z": 1.1648951735,
				"element": "H" 
			},
			{
				"x": 0.4176541859,
				"y": 3.6044078869,
				"z": 3.3635154385,
				"element": "H" 
			},
			{
				"x": 2.0890164164,
				"y": 3.2186191544,
				"z": 1.5734118315,
				"element": "H" 
			},
			{
				"x": 3.2777188693,
				"y": -0.8190651686,
				"z": -3.3753951429,
				"element": "H" 
			},
			{
				"x": 2.3539908725,
				"y": -2.8040903494,
				"z": -4.5337130625,
				"element": "H" 
			}
		],
		 "valence_orbital": [ 
			{
				"type": "occ",
				"energy": -0.24893,
				"method": "rhf"
			},
			{
				"type": "occ",
				"energy": -0.24816,
				"method": "rhf"
			},
			{
				"type": "occ",
				"energy": -0.24648,
				"method": "rhf"
			},
			{
				"type": "occ",
				"energy": -0.23149,
				"method": "rhf"
			},
			{
				"type": "occ",
				"energy": -0.19667,
				"method": "rhf"
			},
			{
				"type": "unocc",
				"energy": -0.06405,
				"method": "rhf"
			},
			{
				"type": "unocc",
				"energy": -0.03005,
				"method": "rhf"
			},
			{
				"type": "unocc",
				"energy": 0.00391,
				"method": "rhf"
			},
			{
				"type": "unocc",
				"energy": 0.00578,
				"method": "rhf"
			},
			{
				"type": "unocc",
				"energy": 0.02486,
				"method": "rhf"
			}
		],
		"cosmo_sigma_profile": { 
			"-0.025": 0.0,
			"-0.024": 0.0,
			"-0.023": 0.0,
			"-0.022": 0.0,
			"-0.021": 0.0,
			"-0.02": 0.0,
			"-0.019": 0.0,
			"-0.018": 0.616381990058,
			"-0.017": 1.11745435711,
			"-0.016": 0.679010912491,
			"-0.015": 1.2609155362,
			"-0.014": 1.35197841429,
			"-0.013": 0.942692735132,
			"-0.012": 0.619072083713,
			"-0.011": 0.823043984988,
			"-0.01": 1.16714994006,
			"-0.009": 1.42504565974,
			"-0.008": 0.66057769432,
			"-0.007": 6.27358084446,
			"-0.006": 19.9874465511,
			"-0.005": 21.2815178294,
			"-0.004": 20.7028786798,
			"-0.003": 16.6964428875,
			"-0.002": 14.7025879131,
			"-0.001": 13.3068614434,
			"0.0": 14.7547354071,
			"0.001": 17.277340702,
			"0.002": 27.1766057488,
			"0.003": 30.7212537263,
			"0.004": 30.2041191672,
			"0.005": 29.1833142592,
			"0.006": 8.03284246014,
			"0.007": 3.44495546871,
			"0.008": 2.40831565792,
			"0.009": 1.9809152009,
			"0.01": 1.36937393865,
			"0.011": 1.89689874504,
			"0.012": 0.300150871159,
			"0.013": 0.0,
			"0.014": 0.0,
			"0.015": 0.0,
			"0.016": 0.0,
			"0.017": 0.0,
			"0.018": 0.0,
			"0.019": 0.0,
			"0.02": 0.0,
			"0.021": 0.0,
			"0.022": 0.0,
			"0.023": 0.0,
			"0.024": 0.0,
			"0.025": 0.0
		}
	}
}
