{
	 "smiles": "NC1=NC(=CS1)C1=C(Cl)SC(Cl)=C1", 
	 "Tm": 418.15, 
	 "num_atms": 17, 
	 "gaussian": { 
		 "optdone": 1, 
		 "sigma_profile": "yes", 
		 "theory": "DFT", 
		 "functional": "B3LYP", 
		 "basiset": "6-31G**", 
		 "properties": { 
			 "R2extent": 5321.9308, 
			 "electric_dipole_moment_norm": 3.40698523331, 
			 "electric_quadrupole_moment_norm": 12.4541951113, 
			 "total_energy": -2095.38875739, 
			 "HOMO_LUMO_gap": 0.16349, 
			 "cosmo_polarized_energy": -9.02, 
			 "cosmo_cavitation_energy": 28.69, 
			 "cosmo_dispersion_energy": -22.75, 
			 "cosmo_repulsion_energy": 1.72, 
			 "cosmo_total_nonelectrostatic_energy": 7.66, 
			 "SMD_solvation_energy": 2.76 
		},
		"coords": [
			{
				"x": 0.1969194564,
				"y": 0.0980106599,
				"z": 3.5734063919,
				"element": "N" 
			},
			{
				"x": -0.0098537571,
				"y": 0.7554306651,
				"z": 2.3829947917,
				"element": "C" 
			},
			{
				"x": 0.4738744115,
				"y": 0.3645373148,
				"z": 1.2427467849,
				"element": "N" 
			},
			{
				"x": 0.0365196873,
				"y": 1.1769863444,
				"z": 0.2014214482,
				"element": "C" 
			},
			{
				"x": -0.786929194,
				"y": 2.2063838111,
				"z": 0.572277271,
				"element": "C" 
			},
			{
				"x": -1.0632409697,
				"y": 2.1731940542,
				"z": 2.2931343093,
				"element": "S" 
			},
			{
				"x": 0.514920146,
				"y": 0.8371484722,
				"z": -1.1451357851,
				"element": "C" 
			},
			{
				"x": 0.2604923143,
				"y": 1.4676785616,
				"z": -2.3427683638,
				"element": "C" 
			},
			{
				"x": -0.7097521307,
				"y": 2.8714665465,
				"z": -2.6455442597,
				"element": "Cl" 
			},
			{
				"x": 1.0451211301,
				"y": 0.7113694047,
				"z": -3.7069962197,
				"element": "S" 
			},
			{
				"x": 1.735778228,
				"y": -0.4863325163,
				"z": -2.6417716882,
				"element": "C" 
			},
			{
				"x": 2.7534993,
				"y": -1.7342265896,
				"z": -3.2770690599,
				"element": "Cl" 
			},
			{
				"x": 1.3784045383,
				"y": -0.3007774724,
				"z": -1.3441624165,
				"element": "C" 
			},
			{
				"x": 0.1895822169,
				"y": 0.6572103758,
				"z": 4.4142437446,
				"element": "H" 
			},
			{
				"x": 0.9544426841,
				"y": -0.5711244298,
				"z": 3.5305323258,
				"element": "H" 
			},
			{
				"x": -1.2399639481,
				"y": 2.971395921,
				"z": -0.035741168,
				"element": "H" 
			},
			{
				"x": 1.6951858867,
				"y": -0.9294511231,
				"z": -0.5238681065,
				"element": "H" 
			}
		],
		 "valence_orbital": [ 
			{
				"type": "occ",
				"energy": -0.29341,
				"method": "rhf"
			},
			{
				"type": "occ",
				"energy": -0.28283,
				"method": "rhf"
			},
			{
				"type": "occ",
				"energy": -0.26202,
				"method": "rhf"
			},
			{
				"type": "occ",
				"energy": -0.23699,
				"method": "rhf"
			},
			{
				"type": "occ",
				"energy": -0.20781,
				"method": "rhf"
			},
			{
				"type": "unocc",
				"energy": -0.04432,
				"method": "rhf"
			},
			{
				"type": "unocc",
				"energy": -0.00428,
				"method": "rhf"
			},
			{
				"type": "unocc",
				"energy": -0.00135,
				"method": "rhf"
			},
			{
				"type": "unocc",
				"energy": 0.00123,
				"method": "rhf"
			},
			{
				"type": "unocc",
				"energy": 0.00907,
				"method": "rhf"
			}
		],
		"cosmo_sigma_profile": { 
			"-0.025": 0.0,
			"-0.024": 0.0,
			"-0.023": 0.0,
			"-0.022": 0.0,
			"-0.021": 0.0,
			"-0.02": 0.0,
			"-0.019": 0.0,
			"-0.018": 0.0,
			"-0.017": 0.0,
			"-0.016": 0.0,
			"-0.015": 0.516873840876,
			"-0.014": 1.91398385171,
			"-0.013": 3.20995219548,
			"-0.012": 2.42322774888,
			"-0.011": 2.78057947484,
			"-0.01": 2.16118950886,
			"-0.009": 2.03374567632,
			"-0.008": 2.64164279762,
			"-0.007": 4.0253124748,
			"-0.006": 4.03856812874,
			"-0.005": 4.57783532118,
			"-0.004": 6.79565064245,
			"-0.003": 12.4131287054,
			"-0.002": 14.1668038215,
			"-0.001": 17.427579564,
			"0.0": 23.2780686782,
			"0.001": 35.9761892313,
			"0.002": 40.9993296834,
			"0.003": 29.9214448221,
			"0.004": 13.9026022445,
			"0.005": 2.93748211938,
			"0.006": 2.5608880915,
			"0.007": 2.45650983598,
			"0.008": 2.73344193002,
			"0.009": 2.01656161301,
			"0.01": 1.82343988391,
			"0.011": 0.50337245255,
			"0.012": 0.173985467723,
			"0.013": 0.0,
			"0.014": 0.0,
			"0.015": 0.0,
			"0.016": 0.0,
			"0.017": 0.0,
			"0.018": 0.0,
			"0.019": 0.0,
			"0.02": 0.0,
			"0.021": 0.0,
			"0.022": 0.0,
			"0.023": 0.0,
			"0.024": 0.0,
			"0.025": 0.0
		}
	}
}
