{
	 "smiles": "CC(C)(C)C(=O)CCl", 
	 "Tm": 272.15, 
	 "num_atms": 19, 
	 "gaussian": { 
		 "optdone": 1, 
		 "sigma_profile": "yes", 
		 "theory": "DFT", 
		 "functional": "B3LYP", 
		 "basiset": "6-31G**", 
		 "properties": { 
			 "R2extent": 1755.6663, 
			 "electric_dipole_moment_norm": 3.09799626372, 
			 "electric_quadrupole_moment_norm": 7.21547456998, 
			 "total_energy": -770.688553459, 
			 "HOMO_LUMO_gap": 0.20472, 
			 "cosmo_polarized_energy": -7.76, 
			 "cosmo_cavitation_energy": 22.84, 
			 "cosmo_dispersion_energy": -16.17, 
			 "cosmo_repulsion_energy": 1.34, 
			 "cosmo_total_nonelectrostatic_energy": 8.0, 
			 "SMD_solvation_energy": 4.47 
		},
		"coords": [
			{
				"x": 2.5006061277,
				"y": 1.3928655451,
				"z": 2.0088625592,
				"element": "C" 
			},
			{
				"x": 1.2556967247,
				"y": 0.8471147666,
				"z": 1.2916024251,
				"element": "C" 
			},
			{
				"x": 1.0918646742,
				"y": -0.658829642,
				"z": 1.5877092019,
				"element": "C" 
			},
			{
				"x": -0.0014626845,
				"y": 1.6119437417,
				"z": 1.7805102932,
				"element": "C" 
			},
			{
				"x": 1.3880459314,
				"y": 1.1152683216,
				"z": -0.2176349727,
				"element": "C" 
			},
			{
				"x": 2.2211685924,
				"y": 1.8705080552,
				"z": -0.6758908657,
				"element": "O" 
			},
			{
				"x": 0.3916766734,
				"y": 0.4534518711,
				"z": -1.1852189623,
				"element": "C" 
			},
			{
				"x": 1.1101114814,
				"y": -1.0656262903,
				"z": -1.8746714893,
				"element": "Cl" 
			},
			{
				"x": 2.4002062552,
				"y": 1.2527019167,
				"z": 3.0900237974,
				"element": "H" 
			},
			{
				"x": 2.639938896,
				"y": 2.4567323499,
				"z": 1.8047283012,
				"element": "H" 
			},
			{
				"x": 3.4041461243,
				"y": 0.8731350449,
				"z": 1.6772311403,
				"element": "H" 
			},
			{
				"x": 1.9591961832,
				"y": -1.2309678407,
				"z": 1.2464173277,
				"element": "H" 
			},
			{
				"x": 0.2021589358,
				"y": -1.0861484264,
				"z": 1.1159490114,
				"element": "H" 
			},
			{
				"x": 0.9934316038,
				"y": -0.8054868396,
				"z": 2.6685862678,
				"element": "H" 
			},
			{
				"x": -0.1157551269,
				"y": 1.4716868392,
				"z": 2.860506048,
				"element": "H" 
			},
			{
				"x": -0.9198385039,
				"y": 1.2518597923,
				"z": 1.3046791962,
				"element": "H" 
			},
			{
				"x": 0.0870249943,
				"y": 2.6857073514,
				"z": 1.5869638794,
				"element": "H" 
			},
			{
				"x": -0.5526005286,
				"y": 0.1713256103,
				"z": -0.7207051207,
				"element": "H" 
			},
			{
				"x": 0.2224836459,
				"y": 1.1271578331,
				"z": -2.0244480377,
				"element": "H" 
			}
		],
		 "valence_orbital": [ 
			{
				"type": "occ",
				"energy": -0.34234,
				"method": "rhf"
			},
			{
				"type": "occ",
				"energy": -0.33905,
				"method": "rhf"
			},
			{
				"type": "occ",
				"energy": -0.31413,
				"method": "rhf"
			},
			{
				"type": "occ",
				"energy": -0.30406,
				"method": "rhf"
			},
			{
				"type": "occ",
				"energy": -0.25325,
				"method": "rhf"
			},
			{
				"type": "unocc",
				"energy": -0.04853,
				"method": "rhf"
			},
			{
				"type": "unocc",
				"energy": 0.03514,
				"method": "rhf"
			},
			{
				"type": "unocc",
				"energy": 0.07395,
				"method": "rhf"
			},
			{
				"type": "unocc",
				"energy": 0.10744,
				"method": "rhf"
			},
			{
				"type": "unocc",
				"energy": 0.12324,
				"method": "rhf"
			}
		],
		"cosmo_sigma_profile": { 
			"-0.025": 0.0,
			"-0.024": 0.0,
			"-0.023": 0.0,
			"-0.022": 0.0,
			"-0.021": 0.0,
			"-0.02": 0.0,
			"-0.019": 0.0,
			"-0.018": 0.0,
			"-0.017": 0.0,
			"-0.016": 0.0,
			"-0.015": 0.0,
			"-0.014": 0.0,
			"-0.013": 0.0,
			"-0.012": 0.0,
			"-0.011": 0.0,
			"-0.01": 0.0,
			"-0.009": 0.583218734245,
			"-0.008": 4.99515564594,
			"-0.007": 4.80791550014,
			"-0.006": 5.95527321203,
			"-0.005": 5.63994559384,
			"-0.004": 13.2259062111,
			"-0.003": 20.0535103021,
			"-0.002": 17.3519707031,
			"-0.001": 17.6479626035,
			"0.0": 21.1659992914,
			"0.001": 16.8418498691,
			"0.002": 6.82667305889,
			"0.003": 5.87946282932,
			"0.004": 7.94329737862,
			"0.005": 10.1266381261,
			"0.006": 6.93107708616,
			"0.007": 1.35026534548,
			"0.008": 1.46032007855,
			"0.009": 2.36648170122,
			"0.01": 2.72088641894,
			"0.011": 4.07344833993,
			"0.012": 1.84350662528,
			"0.013": 0.0,
			"0.014": 0.0,
			"0.015": 0.0,
			"0.016": 0.0,
			"0.017": 0.0,
			"0.018": 0.0,
			"0.019": 0.0,
			"0.02": 0.0,
			"0.021": 0.0,
			"0.022": 0.0,
			"0.023": 0.0,
			"0.024": 0.0,
			"0.025": 0.0
		}
	}
}
