{
	 "smiles": "CC1=CC=C(C)C=C1", 
	 "Tm": 285.75, 
	 "num_atms": 18, 
	 "gaussian": { 
		 "optdone": 1, 
		 "sigma_profile": "yes", 
		 "theory": "DFT", 
		 "functional": "B3LYP", 
		 "basiset": "6-31G**", 
		 "properties": { 
			 "R2extent": 1318.2685, 
			 "electric_dipole_moment_norm": 0.0, 
			 "electric_quadrupole_moment_norm": 4.51116976515, 
			 "total_energy": -310.892664458, 
			 "HOMO_LUMO_gap": 0.23161, 
			 "cosmo_polarized_energy": -3.02, 
			 "cosmo_cavitation_energy": 20.83, 
			 "cosmo_dispersion_energy": -15.44, 
			 "cosmo_repulsion_energy": 1.28, 
			 "cosmo_total_nonelectrostatic_energy": 6.67, 
			 "SMD_solvation_energy": 3.76 
		},
		"coords": [
			{
				"x": -0.761937984,
				"y": -1.1524159063,
				"z": -3.7422393995,
				"element": "C" 
			},
			{
				"x": -0.3985278234,
				"y": -0.6353917323,
				"z": -2.3696228412,
				"element": "C" 
			},
			{
				"x": -1.0185288398,
				"y": -1.1381682115,
				"z": -1.2187234341,
				"element": "C" 
			},
			{
				"x": -0.7070626286,
				"y": -0.6381108041,
				"z": 0.0454084186,
				"element": "C" 
			},
			{
				"x": 0.2400276633,
				"y": 0.3808361343,
				"z": 0.2082340107,
				"element": "C" 
			},
			{
				"x": 0.603437734,
				"y": 0.8978601157,
				"z": 1.5808504626,
				"element": "C" 
			},
			{
				"x": 0.8600285874,
				"y": 0.8836127483,
				"z": -0.9426653376,
				"element": "C" 
			},
			{
				"x": 0.5485624767,
				"y": 0.3835550478,
				"z": -2.2067973959,
				"element": "C" 
			},
			{
				"x": -1.5915201006,
				"y": -0.5807658839,
				"z": -4.1776699798,
				"element": "H" 
			},
			{
				"x": -1.0756083616,
				"y": -2.2002630452,
				"z": -3.7053653408,
				"element": "H" 
			},
			{
				"x": 0.0818128754,
				"y": -1.0764582451,
				"z": -4.4350940009,
				"element": "H" 
			},
			{
				"x": -1.7575541402,
				"y": -1.9307270086,
				"z": -1.3128326161,
				"element": "H" 
			},
			{
				"x": -1.2065094067,
				"y": -1.0481341417,
				"z": 0.9203941543,
				"element": "H" 
			},
			{
				"x": 0.9170903735,
				"y": 1.9457127266,
				"z": 1.5439788646,
				"element": "H" 
			},
			{
				"x": -0.2403071114,
				"y": 0.8218851267,
				"z": 2.2737103869,
				"element": "H" 
			},
			{
				"x": 1.433033001,
				"y": 0.3262229209,
				"z": 2.0162730405,
				"element": "H" 
			},
			{
				"x": 1.5990537033,
				"y": 1.6761717815,
				"z": -0.8485563186,
				"element": "H" 
			},
			{
				"x": 1.0480099819,
				"y": 0.7935783768,
				"z": -3.0817826739,
				"element": "H" 
			}
		],
		 "valence_orbital": [ 
			{
				"type": "occ",
				"energy": -0.33557,
				"method": "rhf"
			},
			{
				"type": "occ",
				"energy": -0.33204,
				"method": "rhf"
			},
			{
				"type": "occ",
				"energy": -0.32665,
				"method": "rhf"
			},
			{
				"type": "occ",
				"energy": -0.24143,
				"method": "rhf"
			},
			{
				"type": "occ",
				"energy": -0.22563,
				"method": "rhf"
			},
			{
				"type": "unocc",
				"energy": 0.00598,
				"method": "rhf"
			},
			{
				"type": "unocc",
				"energy": 0.00878,
				"method": "rhf"
			},
			{
				"type": "unocc",
				"energy": 0.10114,
				"method": "rhf"
			},
			{
				"type": "unocc",
				"energy": 0.11634,
				"method": "rhf"
			},
			{
				"type": "unocc",
				"energy": 0.13392,
				"method": "rhf"
			}
		],
		"cosmo_sigma_profile": { 
			"-0.025": 0.0,
			"-0.024": 0.0,
			"-0.023": 0.0,
			"-0.022": 0.0,
			"-0.021": 0.0,
			"-0.02": 0.0,
			"-0.019": 0.0,
			"-0.018": 0.0,
			"-0.017": 0.0,
			"-0.016": 0.0,
			"-0.015": 0.0,
			"-0.014": 0.0,
			"-0.013": 0.0,
			"-0.012": 0.0,
			"-0.011": 0.0,
			"-0.01": 0.0,
			"-0.009": 0.0,
			"-0.008": 0.0,
			"-0.007": 0.0,
			"-0.006": 0.0,
			"-0.005": 4.63938723493,
			"-0.004": 17.0053161677,
			"-0.003": 23.3229894392,
			"-0.002": 18.8625624709,
			"-0.001": 17.1505485738,
			"0.0": 22.8199099597,
			"0.001": 15.6811575931,
			"0.002": 8.54701638772,
			"0.003": 6.73568079943,
			"0.004": 7.6714585184,
			"0.005": 7.47696195485,
			"0.006": 7.40387248792,
			"0.007": 6.5784415287,
			"0.008": 0.455847206595,
			"0.009": 0.0,
			"0.01": 0.0,
			"0.011": 0.0,
			"0.012": 0.0,
			"0.013": 0.0,
			"0.014": 0.0,
			"0.015": 0.0,
			"0.016": 0.0,
			"0.017": 0.0,
			"0.018": 0.0,
			"0.019": 0.0,
			"0.02": 0.0,
			"0.021": 0.0,
			"0.022": 0.0,
			"0.023": 0.0,
			"0.024": 0.0,
			"0.025": 0.0
		}
	}
}
