{
	 "smiles": "NC1=C(O)C=C(C=C1)[N+]([O-])=O", 
	 "Tm": 481.15, 
	 "num_atms": 17, 
	 "gaussian": { 
		 "optdone": 1, 
		 "sigma_profile": "yes", 
		 "theory": "DFT", 
		 "functional": "B3LYP", 
		 "basiset": "6-31G**", 
		 "properties": { 
			 "R2extent": 1877.0906, 
			 "electric_dipole_moment_norm": 7.15829649148, 
			 "electric_quadrupole_moment_norm": 7.16112159302, 
			 "total_energy": -567.327820987, 
			 "HOMO_LUMO_gap": 0.15529, 
			 "cosmo_polarized_energy": -16.68, 
			 "cosmo_cavitation_energy": 22.02, 
			 "cosmo_dispersion_energy": -16.56, 
			 "cosmo_repulsion_energy": 1.33, 
			 "cosmo_total_nonelectrostatic_energy": 6.79, 
			 "SMD_solvation_energy": 6.45 
		},
		"coords": [
			{
				"x": -2.8617097407,
				"y": -1.1552740887,
				"z": 0.9548048853,
				"element": "N" 
			},
			{
				"x": -1.5418781836,
				"y": -0.6884042283,
				"z": 0.8295840712,
				"element": "C" 
			},
			{
				"x": -1.0681950663,
				"y": -0.4455416986,
				"z": -0.4811571813,
				"element": "C" 
			},
			{
				"x": -1.8874661062,
				"y": -0.6795958369,
				"z": -1.5500246671,
				"element": "O" 
			},
			{
				"x": 0.2212258486,
				"y": 0.0189601008,
				"z": -0.691715495,
				"element": "C" 
			},
			{
				"x": 1.03088139,
				"y": 0.267780717,
				"z": 0.4188451021,
				"element": "C" 
			},
			{
				"x": 0.5783187569,
				"y": 0.0825465231,
				"z": 1.7230151741,
				"element": "C" 
			},
			{
				"x": -0.7119718813,
				"y": -0.4020108534,
				"z": 1.9194123759,
				"element": "C" 
			},
			{
				"x": 2.3932581751,
				"y": 0.7584908679,
				"z": 0.200827769,
				"element": "N" 
			},
			{
				"x": 2.7728963938,
				"y": 0.9019621912,
				"z": -0.9624772881,
				"element": "O" 
			},
			{
				"x": 3.082330463,
				"y": 0.9997480432,
				"z": 1.1939764699,
				"element": "O" 
			},
			{
				"x": -3.040127527,
				"y": -1.9975796135,
				"z": 0.4159886084,
				"element": "H" 
			},
			{
				"x": -3.1579779388,
				"y": -1.2875690479,
				"z": 1.9139202542,
				"element": "H" 
			},
			{
				"x": -2.8016838705,
				"y": -0.5628295696,
				"z": -1.2447432537,
				"element": "H" 
			},
			{
				"x": 0.5849547342,
				"y": 0.2036030832,
				"z": -1.6938115587,
				"element": "H" 
			},
			{
				"x": 1.2374507925,
				"y": 0.2982813055,
				"z": 2.5535077298,
				"element": "H" 
			},
			{
				"x": -1.0756062395,
				"y": -0.5774678951,
				"z": 2.9282470041,
				"element": "H" 
			}
		],
		 "valence_orbital": [ 
			{
				"type": "occ",
				"energy": -0.29871,
				"method": "rhf"
			},
			{
				"type": "occ",
				"energy": -0.29744,
				"method": "rhf"
			},
			{
				"type": "occ",
				"energy": -0.27971,
				"method": "rhf"
			},
			{
				"type": "occ",
				"energy": -0.26115,
				"method": "rhf"
			},
			{
				"type": "occ",
				"energy": -0.23286,
				"method": "rhf"
			},
			{
				"type": "unocc",
				"energy": -0.07757,
				"method": "rhf"
			},
			{
				"type": "unocc",
				"energy": -0.0151,
				"method": "rhf"
			},
			{
				"type": "unocc",
				"energy": 0.01574,
				"method": "rhf"
			},
			{
				"type": "unocc",
				"energy": 0.04533,
				"method": "rhf"
			},
			{
				"type": "unocc",
				"energy": 0.08063,
				"method": "rhf"
			}
		],
		"cosmo_sigma_profile": { 
			"-0.025": 0.0,
			"-0.024": 0.0,
			"-0.023": 0.0,
			"-0.022": 0.0,
			"-0.021": 0.0,
			"-0.02": 0.0,
			"-0.019": 0.0,
			"-0.018": 0.0,
			"-0.017": 0.0,
			"-0.016": 0.120049693097,
			"-0.015": 0.806532863813,
			"-0.014": 1.30074895144,
			"-0.013": 4.18490208782,
			"-0.012": 4.48524880974,
			"-0.011": 4.2721754316,
			"-0.01": 3.82198415825,
			"-0.009": 3.22161458174,
			"-0.008": 3.67942509826,
			"-0.007": 4.96510798042,
			"-0.006": 5.51340929236,
			"-0.005": 8.00291186876,
			"-0.004": 6.74343619938,
			"-0.003": 6.8724891139,
			"-0.002": 7.63525015528,
			"-0.001": 8.46271307484,
			"0.0": 10.8902178778,
			"0.001": 15.562742983,
			"0.002": 15.3749310815,
			"0.003": 9.65699625692,
			"0.004": 4.87816497612,
			"0.005": 4.26880160548,
			"0.006": 5.55027877307,
			"0.007": 5.68456674816,
			"0.008": 10.3575541079,
			"0.009": 9.25543427288,
			"0.01": 6.06963649203,
			"0.011": 3.67821725766,
			"0.012": 0.236759560803,
			"0.013": 0.0,
			"0.014": 0.0,
			"0.015": 0.0,
			"0.016": 0.0,
			"0.017": 0.0,
			"0.018": 0.0,
			"0.019": 0.0,
			"0.02": 0.0,
			"0.021": 0.0,
			"0.022": 0.0,
			"0.023": 0.0,
			"0.024": 0.0,
			"0.025": 0.0
		}
	}
}
