{
	 "smiles": "CC(C)(C)C1=CC(=CC(=C1O)C(C)(C)C)C(NC1=CC=CC=C1)=N/C1=CC=CC=C1", 
	 "Tm": 403.15, 
	 "num_atms": 62, 
	 "gaussian": { 
		 "optdone": 1, 
		 "sigma_profile": "yes", 
		 "theory": "DFT", 
		 "functional": "B3LYP", 
		 "basiset": "6-31G**", 
		 "properties": { 
			 "R2extent": 14305.631, 
			 "electric_dipole_moment_norm": 3.7353583041, 
			 "electric_quadrupole_moment_norm": 13.7525827393, 
			 "total_energy": -1232.90964188, 
			 "HOMO_LUMO_gap": 0.1648, 
			 "cosmo_polarized_energy": -14.0, 
			 "cosmo_cavitation_energy": 60.62, 
			 "cosmo_dispersion_energy": -38.98, 
			 "cosmo_repulsion_energy": 2.96, 
			 "cosmo_total_nonelectrostatic_energy": 24.6, 
			 "SMD_solvation_energy": 9.58 
		},
		"coords": [
			{
				"x": 1.0455574484,
				"y": -1.2838208254,
				"z": 3.7489685999,
				"element": "C" 
			},
			{
				"x": 2.0388514575,
				"y": -1.230649576,
				"z": 2.5678561414,
				"element": "C" 
			},
			{
				"x": 2.6221847368,
				"y": -2.6633656971,
				"z": 2.4296645438,
				"element": "C" 
			},
			{
				"x": 3.1380021056,
				"y": -0.2119187359,
				"z": 2.9770688905,
				"element": "C" 
			},
			{
				"x": 1.348373426,
				"y": -0.7835671254,
				"z": 1.2542866829,
				"element": "C" 
			},
			{
				"x": -0.011458023,
				"y": -0.4658663787,
				"z": 1.2428540706,
				"element": "C" 
			},
			{
				"x": -0.6670645478,
				"y": -0.0481002076,
				"z": 0.0833546675,
				"element": "C" 
			},
			{
				"x": 0.0629168257,
				"y": 0.0484421933,
				"z": -1.10642979,
				"element": "C" 
			},
			{
				"x": 1.4271698789,
				"y": -0.2488470047,
				"z": -1.1734010414,
				"element": "C" 
			},
			{
				"x": 2.0515566734,
				"y": -0.6643334714,
				"z": 0.0280855228,
				"element": "C" 
			},
			{
				"x": 3.3914331603,
				"y": -0.9473576268,
				"z": -0.0579859407,
				"element": "O" 
			},
			{
				"x": 2.2101988897,
				"y": -0.1159452654,
				"z": -2.5005779136,
				"element": "C" 
			},
			{
				"x": 3.3407549927,
				"y": 0.9333163878,
				"z": -2.355796774,
				"element": "C" 
			},
			{
				"x": 2.8037300191,
				"y": -1.4860085821,
				"z": -2.9141510885,
				"element": "C" 
			},
			{
				"x": 1.3012722976,
				"y": 0.3526864961,
				"z": -3.6563960523,
				"element": "C" 
			},
			{
				"x": -2.1312297581,
				"y": 0.2753230934,
				"z": 0.1228706201,
				"element": "C" 
			},
			{
				"x": -2.827130988,
				"y": -0.2932299596,
				"z": -0.9287762424,
				"element": "N" 
			},
			{
				"x": -4.1775093129,
				"y": -0.1972406391,
				"z": -1.3114846257,
				"element": "C" 
			},
			{
				"x": -4.5737828363,
				"y": -0.963308629,
				"z": -2.4236066313,
				"element": "C" 
			},
			{
				"x": -5.8848897252,
				"y": -0.9195684276,
				"z": -2.8853644446,
				"element": "C" 
			},
			{
				"x": -6.829384396,
				"y": -0.1104015624,
				"z": -2.2491231681,
				"element": "C" 
			},
			{
				"x": -6.4369773376,
				"y": 0.6478373145,
				"z": -1.14607335,
				"element": "C" 
			},
			{
				"x": -5.1262480665,
				"y": 0.613908751,
				"z": -0.6675043465,
				"element": "C" 
			},
			{
				"x": -2.7463298228,
				"y": 0.9616986015,
				"z": 1.0242766668,
				"element": "N" 
			},
			{
				"x": -2.092206263,
				"y": 1.7115433647,
				"z": 2.0106675611,
				"element": "C" 
			},
			{
				"x": -2.4814305231,
				"y": 1.5419095796,
				"z": 3.3523722011,
				"element": "C" 
			},
			{
				"x": -1.9042866236,
				"y": 2.3089490988,
				"z": 4.3629387415,
				"element": "C" 
			},
			{
				"x": -0.946895877,
				"y": 3.2804007912,
				"z": 4.0576530675,
				"element": "C" 
			},
			{
				"x": -0.5767682083,
				"y": 3.4759570252,
				"z": 2.7248818545,
				"element": "C" 
			},
			{
				"x": -1.1396311663,
				"y": 2.703637589,
				"z": 1.7099978729,
				"element": "C" 
			},
			{
				"x": 0.5952587618,
				"y": -0.3082279396,
				"z": 3.9535239092,
				"element": "H" 
			},
			{
				"x": 1.5785737076,
				"y": -1.5988194769,
				"z": 4.6517476785,
				"element": "H" 
			},
			{
				"x": 0.2416484839,
				"y": -2.0054325402,
				"z": 3.573932844,
				"element": "H" 
			},
			{
				"x": 1.8192598432,
				"y": -3.3775450862,
				"z": 2.222789168,
				"element": "H" 
			},
			{
				"x": 3.1095918484,
				"y": -2.9624814875,
				"z": 3.3636962677,
				"element": "H" 
			},
			{
				"x": 3.3574186615,
				"y": -2.7820580846,
				"z": 1.627565087,
				"element": "H" 
			},
			{
				"x": 3.6207564513,
				"y": -0.5320420396,
				"z": 3.9065941167,
				"element": "H" 
			},
			{
				"x": 2.6905195752,
				"y": 0.7719706191,
				"z": 3.1462623054,
				"element": "H" 
			},
			{
				"x": 3.929447552,
				"y": -0.0706934091,
				"z": 2.2335485891,
				"element": "H" 
			},
			{
				"x": -0.5883515912,
				"y": -0.5380539534,
				"z": 2.1535200708,
				"element": "H" 
			},
			{
				"x": -0.4487596688,
				"y": 0.3945542944,
				"z": -1.9958990372,
				"element": "H" 
			},
			{
				"x": 3.7290465408,
				"y": -1.1892595075,
				"z": 0.8099268301,
				"element": "H" 
			},
			{
				"x": 2.9256389693,
				"y": 1.9140464248,
				"z": -2.0992108024,
				"element": "H" 
			},
			{
				"x": 3.8771717248,
				"y": 1.0350213519,
				"z": -3.3061726539,
				"element": "H" 
			},
			{
				"x": 4.0597449817,
				"y": 0.6524558365,
				"z": -1.5861801786,
				"element": "H" 
			},
			{
				"x": 3.499051109,
				"y": -1.8702165334,
				"z": -2.1678374629,
				"element": "H" 
			},
			{
				"x": 2.0071740775,
				"y": -2.2248256235,
				"z": -3.0560388978,
				"element": "H" 
			},
			{
				"x": 3.3404020874,
				"y": -1.3865682499,
				"z": -3.8645844068,
				"element": "H" 
			},
			{
				"x": 0.48698611,
				"y": -0.3522856514,
				"z": -3.8555866422,
				"element": "H" 
			},
			{
				"x": 1.8973117754,
				"y": 0.4283612312,
				"z": -4.5711819544,
				"element": "H" 
			},
			{
				"x": 0.8655427697,
				"y": 1.3394653799,
				"z": -3.4681052396,
				"element": "H" 
			},
			{
				"x": -2.2854357943,
				"y": -0.9495235849,
				"z": -1.470993577,
				"element": "H" 
			},
			{
				"x": -3.8440075788,
				"y": -1.5945723176,
				"z": -2.9270158734,
				"element": "H" 
			},
			{
				"x": -6.1673845711,
				"y": -1.5200167825,
				"z": -3.7455480042,
				"element": "H" 
			},
			{
				"x": -7.8536260399,
				"y": -0.0746357655,
				"z": -2.6075248859,
				"element": "H" 
			},
			{
				"x": -7.1609469944,
				"y": 1.2798483405,
				"z": -0.6388910937,
				"element": "H" 
			},
			{
				"x": -4.827187552,
				"y": 1.1903611224,
				"z": 0.1956573447,
				"element": "H" 
			},
			{
				"x": -3.2385551732,
				"y": 0.7978255733,
				"z": 3.5813372019,
				"element": "H" 
			},
			{
				"x": -2.2128577542,
				"y": 2.154417808,
				"z": 5.3936211941,
				"element": "H" 
			},
			{
				"x": -0.5066773515,
				"y": 3.8851942564,
				"z": 4.8449597107,
				"element": "H" 
			},
			{
				"x": 0.1542655552,
				"y": 4.2391391905,
				"z": 2.4704229922,
				"element": "H" 
			},
			{
				"x": -0.8537989522,
				"y": 2.8657160323,
				"z": 0.675439104,
				"element": "H" 
			}
		],
		 "valence_orbital": [ 
			{
				"type": "occ",
				"energy": -0.2426,
				"method": "rhf"
			},
			{
				"type": "occ",
				"energy": -0.23796,
				"method": "rhf"
			},
			{
				"type": "occ",
				"energy": -0.22104,
				"method": "rhf"
			},
			{
				"type": "occ",
				"energy": -0.21205,
				"method": "rhf"
			},
			{
				"type": "occ",
				"energy": -0.19299,
				"method": "rhf"
			},
			{
				"type": "unocc",
				"energy": -0.02819,
				"method": "rhf"
			},
			{
				"type": "unocc",
				"energy": -0.00789,
				"method": "rhf"
			},
			{
				"type": "unocc",
				"energy": 0.00718,
				"method": "rhf"
			},
			{
				"type": "unocc",
				"energy": 0.00837,
				"method": "rhf"
			},
			{
				"type": "unocc",
				"energy": 0.01454,
				"method": "rhf"
			}
		],
		"cosmo_sigma_profile": { 
			"-0.025": 0.0,
			"-0.024": 0.0,
			"-0.023": 0.0,
			"-0.022": 0.0,
			"-0.021": 0.0,
			"-0.02": 0.0,
			"-0.019": 0.0,
			"-0.018": 0.0,
			"-0.017": 0.0,
			"-0.016": 0.0,
			"-0.015": 0.110264291753,
			"-0.014": 0.776985304651,
			"-0.013": 1.57596563995,
			"-0.012": 1.93022664709,
			"-0.011": 1.71694754026,
			"-0.01": 2.35302644407,
			"-0.009": 1.94392141389,
			"-0.008": 2.32272442051,
			"-0.007": 2.68980453138,
			"-0.006": 6.8372244101,
			"-0.005": 17.6576287296,
			"-0.004": 26.9092126556,
			"-0.003": 47.2644468702,
			"-0.002": 52.2963949306,
			"-0.001": 50.0067287327,
			"0.0": 54.3712534293,
			"0.001": 50.0328532152,
			"0.002": 36.4866913798,
			"0.003": 29.8426951281,
			"0.004": 29.4253820779,
			"0.005": 27.2211938809,
			"0.006": 22.3486305077,
			"0.007": 8.26994506588,
			"0.008": 1.19873499283,
			"0.009": 1.27745387964,
			"0.01": 0.609611329275,
			"0.011": 0.0927352842739,
			"0.012": 0.0,
			"0.013": 0.0,
			"0.014": 0.0,
			"0.015": 0.0,
			"0.016": 0.0,
			"0.017": 0.0,
			"0.018": 0.0,
			"0.019": 0.0,
			"0.02": 0.0,
			"0.021": 0.0,
			"0.022": 0.0,
			"0.023": 0.0,
			"0.024": 0.0,
			"0.025": 0.0
		}
	}
}
