{
	 "smiles": "OC(=O)CC1=CC=CC=C1CC(O)=O", 
	 "Tm": 424.15, 
	 "num_atms": 24, 
	 "gaussian": { 
		 "optdone": 1, 
		 "sigma_profile": "yes", 
		 "theory": "DFT", 
		 "functional": "B3LYP", 
		 "basiset": "6-31G**", 
		 "properties": { 
			 "R2extent": 3332.0854, 
			 "electric_dipole_moment_norm": 6.48551517769, 
			 "electric_quadrupole_moment_norm": 18.2477555587, 
			 "total_energy": -688.022339865, 
			 "HOMO_LUMO_gap": 0.21344, 
			 "cosmo_polarized_energy": -18.08, 
			 "cosmo_cavitation_energy": 27.81, 
			 "cosmo_dispersion_energy": -20.11, 
			 "cosmo_repulsion_energy": 1.57, 
			 "cosmo_total_nonelectrostatic_energy": 9.27, 
			 "SMD_solvation_energy": 6.65 
		},
		"coords": [
			{
				"x": -1.2190157367,
				"y": 4.6806272482,
				"z": 1.0384037083,
				"element": "O" 
			},
			{
				"x": -0.7272385309,
				"y": 3.4613100495,
				"z": 0.7641452083,
				"element": "C" 
			},
			{
				"x": 0.222047972,
				"y": 3.3119036531,
				"z": 0.0145171187,
				"element": "O" 
			},
			{
				"x": -1.4626776651,
				"y": 2.3657585442,
				"z": 1.5135914287,
				"element": "C" 
			},
			{
				"x": -1.6762432779,
				"y": 1.0944885221,
				"z": 0.7119607022,
				"element": "C" 
			},
			{
				"x": -2.9461512872,
				"y": 0.8793551906,
				"z": 0.1553371543,
				"element": "C" 
			},
			{
				"x": -3.2326873262,
				"y": -0.2683264946,
				"z": -0.5785967034,
				"element": "C" 
			},
			{
				"x": -2.2383292434,
				"y": -1.2300690376,
				"z": -0.7623335269,
				"element": "C" 
			},
			{
				"x": -0.9753086703,
				"y": -1.0294582572,
				"z": -0.2131331294,
				"element": "C" 
			},
			{
				"x": -0.6714720121,
				"y": 0.1259575958,
				"z": 0.5238954475,
				"element": "C" 
			},
			{
				"x": 0.7383424304,
				"y": 0.2545690199,
				"z": 1.0835764975,
				"element": "C" 
			},
			{
				"x": 1.7921894781,
				"y": 0.1699806858,
				"z": -0.0304100317,
				"element": "C" 
			},
			{
				"x": 1.8933108156,
				"y": 1.2487363403,
				"z": -0.8218917342,
				"element": "O" 
			},
			{
				"x": 2.4732323649,
				"y": -0.8138345743,
				"z": -0.2089947073,
				"element": "O" 
			},
			{
				"x": -0.674685837,
				"y": 5.3221955527,
				"z": 0.5489458049,
				"element": "H" 
			},
			{
				"x": -0.8776282124,
				"y": 2.1728764518,
				"z": 2.4222504916,
				"element": "H" 
			},
			{
				"x": -2.4198022611,
				"y": 2.7701974037,
				"z": 1.8492741416,
				"element": "H" 
			},
			{
				"x": -3.7215405565,
				"y": 1.6263520075,
				"z": 0.3069847955,
				"element": "H" 
			},
			{
				"x": -4.2238866292,
				"y": -0.4116650332,
				"z": -0.9982338173,
				"element": "H" 
			},
			{
				"x": -2.4447497033,
				"y": -2.1328516175,
				"z": -1.3295158947,
				"element": "H" 
			},
			{
				"x": -0.1954479706,
				"y": -1.771966168,
				"z": -0.3586366063,
				"element": "H" 
			},
			{
				"x": 0.9478478574,
				"y": -0.5701719964,
				"z": 1.7694480851,
				"element": "H" 
			},
			{
				"x": 0.8716559869,
				"y": 1.1913337553,
				"z": 1.6298377051,
				"element": "H" 
			},
			{
				"x": 1.2599380146,
				"y": 1.9457011581,
				"z": -0.5518221379,
				"element": "H" 
			}
		],
		 "valence_orbital": [ 
			{
				"type": "occ",
				"energy": -0.31511,
				"method": "rhf"
			},
			{
				"type": "occ",
				"energy": -0.29309,
				"method": "rhf"
			},
			{
				"type": "occ",
				"energy": -0.26281,
				"method": "rhf"
			},
			{
				"type": "occ",
				"energy": -0.25837,
				"method": "rhf"
			},
			{
				"type": "occ",
				"energy": -0.24346,
				"method": "rhf"
			},
			{
				"type": "unocc",
				"energy": -0.03002,
				"method": "rhf"
			},
			{
				"type": "unocc",
				"energy": -0.01568,
				"method": "rhf"
			},
			{
				"type": "unocc",
				"energy": -0.01234,
				"method": "rhf"
			},
			{
				"type": "unocc",
				"energy": 0.03044,
				"method": "rhf"
			},
			{
				"type": "unocc",
				"energy": 0.05485,
				"method": "rhf"
			}
		],
		"cosmo_sigma_profile": { 
			"-0.025": 0.0,
			"-0.024": 0.0,
			"-0.023": 0.0,
			"-0.022": 0.0,
			"-0.021": 0.0,
			"-0.02": 0.0,
			"-0.019": 0.698695685438,
			"-0.018": 0.884810294983,
			"-0.017": 1.46010929632,
			"-0.016": 0.368693085256,
			"-0.015": 0.129741046537,
			"-0.014": 0.465495690295,
			"-0.013": 1.40652364418,
			"-0.012": 1.26513568857,
			"-0.011": 0.661590726292,
			"-0.01": 1.31969404515,
			"-0.009": 2.61034890535,
			"-0.008": 4.00712163776,
			"-0.007": 7.75943002535,
			"-0.006": 13.6322741729,
			"-0.005": 14.6424597836,
			"-0.004": 18.6016698941,
			"-0.003": 16.5348543644,
			"-0.002": 12.8855903198,
			"-0.001": 12.7007168264,
			"0.0": 12.3366789693,
			"0.001": 12.3159925074,
			"0.002": 10.9838583267,
			"0.003": 11.2110827905,
			"0.004": 10.5612570278,
			"0.005": 12.4351464276,
			"0.006": 6.50555806646,
			"0.007": 4.41428653231,
			"0.008": 4.42240477152,
			"0.009": 4.54115063168,
			"0.01": 3.79865924075,
			"0.011": 5.01849124357,
			"0.012": 5.82030040627,
			"0.013": 3.9115415006,
			"0.014": 0.825034968904,
			"0.015": 0.0,
			"0.016": 0.0,
			"0.017": 0.0,
			"0.018": 0.0,
			"0.019": 0.0,
			"0.02": 0.0,
			"0.021": 0.0,
			"0.022": 0.0,
			"0.023": 0.0,
			"0.024": 0.0,
			"0.025": 0.0
		}
	}
}
