{
	 "smiles": "CCOC(=O)C1=C(O)C2=C(C=C(Br)C=C2)N=C1", 
	 "Tm": 603.15, 
	 "num_atms": 27, 
	 "gaussian": { 
		 "optdone": 1, 
		 "sigma_profile": "yes", 
		 "theory": "DFT", 
		 "functional": "B3LYP", 
		 "basiset": "6-31G**", 
		 "properties": { 
			 "R2extent": 10022.2427, 
			 "electric_dipole_moment_norm": 4.90012733406, 
			 "electric_quadrupole_moment_norm": 9.38176760584, 
			 "total_energy": -3315.16409508, 
			 "HOMO_LUMO_gap": 0.16799, 
			 "cosmo_polarized_energy": -10.81, 
			 "cosmo_cavitation_energy": 33.78, 
			 "cosmo_dispersion_energy": -25.35, 
			 "cosmo_repulsion_energy": 1.94, 
			 "cosmo_total_nonelectrostatic_energy": 10.37, 
			 "SMD_solvation_energy": 4.27 
		},
		"coords": [
			{
				"x": -2.7268921028,
				"y": -0.4075749736,
				"z": -3.5564808211,
				"element": "C" 
			},
			{
				"x": -1.2152319114,
				"y": -0.5517364637,
				"z": -3.6161623926,
				"element": "C" 
			},
			{
				"x": -0.6286129431,
				"y": -0.523170129,
				"z": -2.284714298,
				"element": "O" 
			},
			{
				"x": -0.5803218102,
				"y": -1.7156946278,
				"z": -1.5988505397,
				"element": "C" 
			},
			{
				"x": -0.9927850802,
				"y": -2.751039432,
				"z": -2.0772251355,
				"element": "O" 
			},
			{
				"x": 0.0202867672,
				"y": -1.5744089216,
				"z": -0.2583834261,
				"element": "C" 
			},
			{
				"x": 0.489829065,
				"y": -0.3762884439,
				"z": 0.2915198554,
				"element": "C" 
			},
			{
				"x": 0.4582547378,
				"y": 0.8107090702,
				"z": -0.3268853753,
				"element": "O" 
			},
			{
				"x": 1.0453185661,
				"y": -0.4039019132,
				"z": 1.6080718223,
				"element": "C" 
			},
			{
				"x": 1.0890783982,
				"y": -1.6566720278,
				"z": 2.2882527051,
				"element": "C" 
			},
			{
				"x": 1.6358002702,
				"y": -1.7069434098,
				"z": 3.5947414255,
				"element": "C" 
			},
			{
				"x": 2.1111112538,
				"y": -0.5549102092,
				"z": 4.1794691988,
				"element": "C" 
			},
			{
				"x": 2.8475413409,
				"y": -0.6233380353,
				"z": 5.93982461,
				"element": "Br" 
			},
			{
				"x": 2.0723890786,
				"y": 0.6909926373,
				"z": 3.5141832926,
				"element": "C" 
			},
			{
				"x": 1.5444626355,
				"y": 0.7592118008,
				"z": 2.2434744068,
				"element": "C" 
			},
			{
				"x": 0.6260221364,
				"y": -2.8254762321,
				"z": 1.7409341122,
				"element": "N" 
			},
			{
				"x": 0.1240117332,
				"y": -2.7579182879,
				"z": 0.5322762101,
				"element": "C" 
			},
			{
				"x": -3.1744665482,
				"y": -1.2623426957,
				"z": -3.0442339735,
				"element": "H" 
			},
			{
				"x": -3.0147012793,
				"y": 0.5107241515,
				"z": -3.0361629183,
				"element": "H" 
			},
			{
				"x": -3.1316460035,
				"y": -0.366382635,
				"z": -4.5730383767,
				"element": "H" 
			},
			{
				"x": -0.9209927471,
				"y": -1.487196777,
				"z": -4.0949519906,
				"element": "H" 
			},
			{
				"x": -0.7458840722,
				"y": 0.287355542,
				"z": -4.134480379,
				"element": "H" 
			},
			{
				"x": 0.0550595672,
				"y": 0.677622116,
				"z": -1.2091118187,
				"element": "H" 
			},
			{
				"x": 1.6636798473,
				"y": -2.6637660967,
				"z": 4.1012378625,
				"element": "H" 
			},
			{
				"x": 2.4561299673,
				"y": 1.5767267497,
				"z": 4.0065542968,
				"element": "H" 
			},
			{
				"x": 1.505479966,
				"y": 1.7053274192,
				"z": 1.7155531346,
				"element": "H" 
			},
			{
				"x": -0.2455208327,
				"y": -3.6811081755,
				"z": 0.0911885124,
				"element": "H" 
			}
		],
		 "valence_orbital": [ 
			{
				"type": "occ",
				"energy": -0.29066,
				"method": "rhf"
			},
			{
				"type": "occ",
				"energy": -0.28378,
				"method": "rhf"
			},
			{
				"type": "occ",
				"energy": -0.2621,
				"method": "rhf"
			},
			{
				"type": "occ",
				"energy": -0.25299,
				"method": "rhf"
			},
			{
				"type": "occ",
				"energy": -0.23659,
				"method": "rhf"
			},
			{
				"type": "unocc",
				"energy": -0.0686,
				"method": "rhf"
			},
			{
				"type": "unocc",
				"energy": -0.04394,
				"method": "rhf"
			},
			{
				"type": "unocc",
				"energy": 0.00398,
				"method": "rhf"
			},
			{
				"type": "unocc",
				"energy": 0.00943,
				"method": "rhf"
			},
			{
				"type": "unocc",
				"energy": 0.02162,
				"method": "rhf"
			}
		],
		"cosmo_sigma_profile": { 
			"-0.025": 0.0,
			"-0.024": 0.0,
			"-0.023": 0.0,
			"-0.022": 0.0,
			"-0.021": 0.0,
			"-0.02": 0.0,
			"-0.019": 0.0,
			"-0.018": 0.0,
			"-0.017": 0.0,
			"-0.016": 0.0,
			"-0.015": 0.0,
			"-0.014": 0.0,
			"-0.013": 0.0,
			"-0.012": 0.0,
			"-0.011": 0.322819742114,
			"-0.01": 0.99232887903,
			"-0.009": 0.807785433652,
			"-0.008": 1.6279848816,
			"-0.007": 5.43346184424,
			"-0.006": 11.8957681506,
			"-0.005": 15.7003963529,
			"-0.004": 22.282353059,
			"-0.003": 22.3045464012,
			"-0.002": 23.3709284755,
			"-0.001": 28.2012568434,
			"0.0": 29.9150616305,
			"0.001": 27.9052901251,
			"0.002": 19.7156868983,
			"0.003": 15.0268160817,
			"0.004": 16.5159953114,
			"0.005": 5.63949584721,
			"0.006": 3.65955822586,
			"0.007": 5.41340058029,
			"0.008": 3.28169957815,
			"0.009": 2.48429367895,
			"0.01": 2.72617160863,
			"0.011": 4.61604658609,
			"0.012": 1.69103077802,
			"0.013": 0.776541486729,
			"0.014": 1.0785197709,
			"0.015": 0.442067114215,
			"0.016": 0.401637283785,
			"0.017": 0.0,
			"0.018": 0.0,
			"0.019": 0.0,
			"0.02": 0.0,
			"0.021": 0.0,
			"0.022": 0.0,
			"0.023": 0.0,
			"0.024": 0.0,
			"0.025": 0.0
		}
	}
}
