{
	 "smiles": "CN1C(CO)=NC2=C1C=CC=C2", 
	 "Tm": 418.15, 
	 "num_atms": 22, 
	 "gaussian": { 
		 "optdone": 1, 
		 "sigma_profile": "yes", 
		 "theory": "DFT", 
		 "functional": "B3LYP", 
		 "basiset": "6-31G**", 
		 "properties": { 
			 "R2extent": 2693.1704, 
			 "electric_dipole_moment_norm": 2.29163889171, 
			 "electric_quadrupole_moment_norm": 4.80106886328, 
			 "total_energy": -533.713848874, 
			 "HOMO_LUMO_gap": 0.20152, 
			 "cosmo_polarized_energy": -12.06, 
			 "cosmo_cavitation_energy": 25.31, 
			 "cosmo_dispersion_energy": -18.79, 
			 "cosmo_repulsion_energy": 1.49, 
			 "cosmo_total_nonelectrostatic_energy": 8.01, 
			 "SMD_solvation_energy": 2.36 
		},
		"coords": [
			{
				"x": 0.0574462749,
				"y": 1.2826272621,
				"z": 1.0247031394,
				"element": "C" 
			},
			{
				"x": -0.4412766891,
				"y": -0.0535643488,
				"z": 0.7422616308,
				"element": "N" 
			},
			{
				"x": 0.2831970999,
				"y": -1.23231001,
				"z": 0.6927036865,
				"element": "C" 
			},
			{
				"x": 1.7654187556,
				"y": -1.2913127897,
				"z": 0.9218004282,
				"element": "C" 
			},
			{
				"x": 2.5120605151,
				"y": -0.4628931593,
				"z": 0.0293789225,
				"element": "O" 
			},
			{
				"x": -0.453508192,
				"y": -2.2873713477,
				"z": 0.4212584275,
				"element": "N" 
			},
			{
				"x": -1.7451365261,
				"y": -1.8009374391,
				"z": 0.2955943603,
				"element": "C" 
			},
			{
				"x": -1.7594577245,
				"y": -0.3989494864,
				"z": 0.4949272405,
				"element": "C" 
			},
			{
				"x": -2.9328643593,
				"y": 0.3567929244,
				"z": 0.4217618766,
				"element": "C" 
			},
			{
				"x": -4.1073296267,
				"y": -0.3361365643,
				"z": 0.1381613644,
				"element": "C" 
			},
			{
				"x": -4.1107524199,
				"y": -1.7316542378,
				"z": -0.0644833741,
				"element": "C" 
			},
			{
				"x": -2.9386518004,
				"y": -2.4770395048,
				"z": 0.0106318226,
				"element": "C" 
			},
			{
				"x": -0.1429524485,
				"y": 1.5737489539,
				"z": 2.062213331,
				"element": "H" 
			},
			{
				"x": 1.1298914679,
				"y": 1.3068623161,
				"z": 0.8324597553,
				"element": "H" 
			},
			{
				"x": -0.4305578792,
				"y": 2.0017066351,
				"z": 0.3603988563,
				"element": "H" 
			},
			{
				"x": 2.0567763732,
				"y": -2.3459777554,
				"z": 0.8549174923,
				"element": "H" 
			},
			{
				"x": 2.0207683952,
				"y": -0.9345954906,
				"z": 1.9258531609,
				"element": "H" 
			},
			{
				"x": 2.3341026848,
				"y": -0.7726794945,
				"z": -0.8690363806,
				"element": "H" 
			},
			{
				"x": -2.9384264354,
				"y": 1.4305369257,
				"z": 0.582744166,
				"element": "H" 
			},
			{
				"x": -5.0432393796,
				"y": 0.2112571286,
				"z": 0.074332053,
				"element": "H" 
			},
			{
				"x": -5.0504714517,
				"y": -2.2305821507,
				"z": -0.282285229,
				"element": "H" 
			},
			{
				"x": -2.9341366342,
				"y": -3.5513283668,
				"z": -0.1436967302,
				"element": "H" 
			}
		],
		 "valence_orbital": [ 
			{
				"type": "occ",
				"energy": -0.29314,
				"method": "rhf"
			},
			{
				"type": "occ",
				"energy": -0.28879,
				"method": "rhf"
			},
			{
				"type": "occ",
				"energy": -0.2668,
				"method": "rhf"
			},
			{
				"type": "occ",
				"energy": -0.22232,
				"method": "rhf"
			},
			{
				"type": "occ",
				"energy": -0.21989,
				"method": "rhf"
			},
			{
				"type": "unocc",
				"energy": -0.01837,
				"method": "rhf"
			},
			{
				"type": "unocc",
				"energy": 0.02261,
				"method": "rhf"
			},
			{
				"type": "unocc",
				"energy": 0.04636,
				"method": "rhf"
			},
			{
				"type": "unocc",
				"energy": 0.08357,
				"method": "rhf"
			},
			{
				"type": "unocc",
				"energy": 0.09761,
				"method": "rhf"
			}
		],
		"cosmo_sigma_profile": { 
			"-0.025": 0.0,
			"-0.024": 0.0,
			"-0.023": 0.0,
			"-0.022": 0.0,
			"-0.021": 0.0,
			"-0.02": 0.0,
			"-0.019": 0.0,
			"-0.018": 0.0,
			"-0.017": 0.0940453687999,
			"-0.016": 0.950447335496,
			"-0.015": 0.909822180835,
			"-0.014": 1.08867053863,
			"-0.013": 0.730210165372,
			"-0.012": 0.786532986767,
			"-0.011": 0.609238919587,
			"-0.01": 0.803217082402,
			"-0.009": 1.29071958144,
			"-0.008": 1.06635141204,
			"-0.007": 2.18048922349,
			"-0.006": 12.2692647784,
			"-0.005": 18.2624758121,
			"-0.004": 20.356545728,
			"-0.003": 23.4128408421,
			"-0.002": 12.2557316062,
			"-0.001": 9.9763928507,
			"0.0": 9.02235174208,
			"0.001": 11.1109269172,
			"0.002": 8.38474916624,
			"0.003": 9.59268121318,
			"0.004": 11.1752211914,
			"0.005": 12.4229745276,
			"0.006": 10.9764522868,
			"0.007": 3.40777964592,
			"0.008": 2.23336541851,
			"0.009": 2.7856621661,
			"0.01": 2.41867386694,
			"0.011": 1.6985884992,
			"0.012": 1.92705687563,
			"0.013": 2.86850158031,
			"0.014": 1.22714865683,
			"0.015": 0.842584388221,
			"0.016": 0.831266358697,
			"0.017": 1.01806751199,
			"0.018": 0.243769779891,
			"0.019": 0.0,
			"0.02": 0.0,
			"0.021": 0.0,
			"0.022": 0.0,
			"0.023": 0.0,
			"0.024": 0.0,
			"0.025": 0.0
		}
	}
}
