{
	 "smiles": "CC(C)=CC1C(C(=O)OCC2=COC(CC3=CC=CC=C3)=C2)C1(C)C", 
	 "Tm": 329.65, 
	 "num_atms": 51, 
	 "gaussian": { 
		 "optdone": 1, 
		 "sigma_profile": "yes", 
		 "theory": "DFT", 
		 "functional": "B3LYP", 
		 "basiset": "6-31G**", 
		 "properties": { 
			 "R2extent": 11761.0035, 
			 "electric_dipole_moment_norm": 0.986855050147, 
			 "electric_quadrupole_moment_norm": 8.17718203906, 
			 "total_energy": -1079.65142685, 
			 "HOMO_LUMO_gap": 0.21306, 
			 "cosmo_polarized_energy": -11.31, 
			 "cosmo_cavitation_energy": 53.94, 
			 "cosmo_dispersion_energy": -34.17, 
			 "cosmo_repulsion_energy": 2.64, 
			 "cosmo_total_nonelectrostatic_energy": 22.4, 
			 "SMD_solvation_energy": 10.41 
		},
		"coords": [
			{
				"x": -0.0085492945,
				"y": 0.1395687233,
				"z": -3.6992738881,
				"element": "C" 
			},
			{
				"x": -0.1041332874,
				"y": 0.5914503483,
				"z": -2.2625772979,
				"element": "C" 
			},
			{
				"x": -1.4938685466,
				"y": 0.9903397872,
				"z": -1.8268882224,
				"element": "C" 
			},
			{
				"x": 0.9243601473,
				"y": 0.659425405,
				"z": -1.3988738192,
				"element": "C" 
			},
			{
				"x": 2.3324361149,
				"y": 0.2920720387,
				"z": -1.6797379094,
				"element": "C" 
			},
			{
				"x": 3.3010447028,
				"y": -0.1637991745,
				"z": -0.5629626575,
				"element": "C" 
			},
			{
				"x": 2.8802206401,
				"y": -0.2332521145,
				"z": 0.8590368399,
				"element": "C" 
			},
			{
				"x": 2.1270130921,
				"y": 0.5291605791,
				"z": 1.4423065815,
				"element": "O" 
			},
			{
				"x": 3.4683904612,
				"y": -1.2953556684,
				"z": 1.4613161227,
				"element": "O" 
			},
			{
				"x": 3.1680802097,
				"y": -1.4912326623,
				"z": 2.871756673,
				"element": "C" 
			},
			{
				"x": 1.9380913215,
				"y": -2.3104644406,
				"z": 3.0907199125,
				"element": "C" 
			},
			{
				"x": 1.894738597,
				"y": -3.6202566337,
				"z": 3.464477885,
				"element": "C" 
			},
			{
				"x": 0.6058648132,
				"y": -4.0439418915,
				"z": 3.5864993349,
				"element": "O" 
			},
			{
				"x": -0.2014076625,
				"y": -2.9760693951,
				"z": 3.2776197511,
				"element": "C" 
			},
			{
				"x": -1.6766532509,
				"y": -3.2349027932,
				"z": 3.3437386409,
				"element": "C" 
			},
			{
				"x": -2.5071368822,
				"y": -1.9997787974,
				"z": 3.0587356838,
				"element": "C" 
			},
			{
				"x": -2.8894697684,
				"y": -1.6820321851,
				"z": 1.7494828653,
				"element": "C" 
			},
			{
				"x": -3.6423305807,
				"y": -0.5371677171,
				"z": 1.4834939362,
				"element": "C" 
			},
			{
				"x": -4.0230478494,
				"y": 0.3086019107,
				"z": 2.5269747999,
				"element": "C" 
			},
			{
				"x": -3.6462899985,
				"y": 0.0022616138,
				"z": 3.8359258729,
				"element": "C" 
			},
			{
				"x": -2.8933933711,
				"y": -1.1432342434,
				"z": 4.0974157038,
				"element": "C" 
			},
			{
				"x": 0.5638936965,
				"y": -1.8930006221,
				"z": 2.9692627498,
				"element": "C" 
			},
			{
				"x": 3.5165127934,
				"y": 1.1577857489,
				"z": -1.3042566487,
				"element": "C" 
			},
			{
				"x": 3.3038837376,
				"y": 2.4881383808,
				"z": -0.6019628099,
				"element": "C" 
			},
			{
				"x": 4.6887028686,
				"y": 1.1704938631,
				"z": -2.2740568285,
				"element": "C" 
			},
			{
				"x": 1.001865919,
				"y": -0.1390488812,
				"z": -4.0040733513,
				"element": "H" 
			},
			{
				"x": -0.6652107675,
				"y": -0.7218349263,
				"z": -3.8803640589,
				"element": "H" 
			},
			{
				"x": -0.3502270468,
				"y": 0.9345177597,
				"z": -4.3755773172,
				"element": "H" 
			},
			{
				"x": -2.2032844965,
				"y": 0.1634646047,
				"z": -1.9703774307,
				"element": "H" 
			},
			{
				"x": -1.8730707692,
				"y": 1.828620684,
				"z": -2.4274438226,
				"element": "H" 
			},
			{
				"x": -1.5238506759,
				"y": 1.2828716529,
				"z": -0.7740360006,
				"element": "H" 
			},
			{
				"x": 0.71897955,
				"y": 1.0038252947,
				"z": -0.3897971581,
				"element": "H" 
			},
			{
				"x": 2.4795836108,
				"y": -0.2808907903,
				"z": -2.5914279341,
				"element": "H" 
			},
			{
				"x": 3.9721416311,
				"y": -0.9722533168,
				"z": -0.8341494168,
				"element": "H" 
			},
			{
				"x": 4.0494737588,
				"y": -2.0030664083,
				"z": 3.2636051918,
				"element": "H" 
			},
			{
				"x": 3.0757806797,
				"y": -0.5098117528,
				"z": 3.3421629349,
				"element": "H" 
			},
			{
				"x": 2.6580566069,
				"y": -4.3526691998,
				"z": 3.681111061,
				"element": "H" 
			},
			{
				"x": -1.9232547271,
				"y": -3.6311664834,
				"z": 4.3374804738,
				"element": "H" 
			},
			{
				"x": -1.9329718998,
				"y": -4.0301318453,
				"z": 2.6308460331,
				"element": "H" 
			},
			{
				"x": -2.5951398749,
				"y": -2.3372245652,
				"z": 0.9333696351,
				"element": "H" 
			},
			{
				"x": -3.9330455276,
				"y": -0.3079215725,
				"z": 0.462214884,
				"element": "H" 
			},
			{
				"x": -4.6113454078,
				"y": 1.1984236038,
				"z": 2.3219760997,
				"element": "H" 
			},
			{
				"x": -3.9400805394,
				"y": 0.6535800116,
				"z": 4.6542841029,
				"element": "H" 
			},
			{
				"x": -2.6025131455,
				"y": -1.3775222876,
				"z": 5.118519147,
				"element": "H" 
			},
			{
				"x": 0.2172758817,
				"y": -0.9124086658,
				"z": 2.6819652658,
				"element": "H" 
			},
			{
				"x": 4.2307188801,
				"y": 2.8083487404,
				"z": -0.1117195864,
				"element": "H" 
			},
			{
				"x": 2.5242990967,
				"y": 2.4412971164,
				"z": 0.1568315355,
				"element": "H" 
			},
			{
				"x": 3.0348852486,
				"y": 3.2550281003,
				"z": -1.3374441968,
				"element": "H" 
			},
			{
				"x": 5.6254982275,
				"y": 1.400904029,
				"z": -1.7530956544,
				"element": "H" 
			},
			{
				"x": 4.8124039996,
				"y": 0.2058856567,
				"z": -2.7770575833,
				"element": "H" 
			},
			{
				"x": 4.5396790836,
				"y": 1.9348733811,
				"z": -3.0458761251,
				"element": "H" 
			}
		],
		 "valence_orbital": [ 
			{
				"type": "occ",
				"energy": -0.26089,
				"method": "rhf"
			},
			{
				"type": "occ",
				"energy": -0.24809,
				"method": "rhf"
			},
			{
				"type": "occ",
				"energy": -0.24285,
				"method": "rhf"
			},
			{
				"type": "occ",
				"energy": -0.21634,
				"method": "rhf"
			},
			{
				"type": "occ",
				"energy": -0.21407,
				"method": "rhf"
			},
			{
				"type": "unocc",
				"energy": -0.00101,
				"method": "rhf"
			},
			{
				"type": "unocc",
				"energy": -0.00037,
				"method": "rhf"
			},
			{
				"type": "unocc",
				"energy": 0.00589,
				"method": "rhf"
			},
			{
				"type": "unocc",
				"energy": 0.01943,
				"method": "rhf"
			},
			{
				"type": "unocc",
				"energy": 0.03487,
				"method": "rhf"
			}
		],
		"cosmo_sigma_profile": { 
			"-0.025": 0.0,
			"-0.024": 0.0,
			"-0.023": 0.0,
			"-0.022": 0.0,
			"-0.021": 0.0,
			"-0.02": 0.0,
			"-0.019": 0.0,
			"-0.018": 0.0,
			"-0.017": 0.0,
			"-0.016": 0.0,
			"-0.015": 0.0,
			"-0.014": 0.0,
			"-0.013": 0.0,
			"-0.012": 0.0,
			"-0.011": 0.0,
			"-0.01": 0.0,
			"-0.009": 0.828527313699,
			"-0.008": 2.00487336754,
			"-0.007": 3.24986321869,
			"-0.006": 11.404219672,
			"-0.005": 26.9959233911,
			"-0.004": 27.7165844562,
			"-0.003": 45.422470429,
			"-0.002": 41.0090732111,
			"-0.001": 41.7817024131,
			"0.0": 48.3421513609,
			"0.001": 43.758135896,
			"0.002": 28.9032306747,
			"0.003": 27.5495086365,
			"0.004": 22.9798882824,
			"0.005": 21.4774508413,
			"0.006": 14.9621378767,
			"0.007": 6.38743622015,
			"0.008": 3.82483177139,
			"0.009": 3.00720228493,
			"0.01": 1.06693783537,
			"0.011": 1.71561609421,
			"0.012": 1.02437650306,
			"0.013": 0.0152818161141,
			"0.014": 0.0,
			"0.015": 0.0,
			"0.016": 0.0,
			"0.017": 0.0,
			"0.018": 0.0,
			"0.019": 0.0,
			"0.02": 0.0,
			"0.021": 0.0,
			"0.022": 0.0,
			"0.023": 0.0,
			"0.024": 0.0,
			"0.025": 0.0
		}
	}
}
