{
	 "smiles": "CC(C1=CC=CC=C1)C(C)(C)O", 
	 "Tm": 319.15, 
	 "num_atms": 28, 
	 "gaussian": { 
		 "optdone": 1, 
		 "sigma_profile": "yes", 
		 "theory": "DFT", 
		 "functional": "B3LYP", 
		 "basiset": "6-31G**", 
		 "properties": { 
			 "R2extent": 2532.9664, 
			 "electric_dipole_moment_norm": 1.3774039422, 
			 "electric_quadrupole_moment_norm": 4.8121679927, 
			 "total_energy": -504.046888362, 
			 "HOMO_LUMO_gap": 0.23847, 
			 "cosmo_polarized_energy": -7.37, 
			 "cosmo_cavitation_energy": 28.74, 
			 "cosmo_dispersion_energy": -20.26, 
			 "cosmo_repulsion_energy": 1.6, 
			 "cosmo_total_nonelectrostatic_energy": 10.08, 
			 "SMD_solvation_energy": 5.04 
		},
		"coords": [
			{
				"x": 0.3830747489,
				"y": -2.0986486127,
				"z": -0.0202865991,
				"element": "C" 
			},
			{
				"x": -0.1968569526,
				"y": -0.9368003914,
				"z": -0.8481301474,
				"element": "C" 
			},
			{
				"x": -0.2876241383,
				"y": 0.3587917331,
				"z": -0.0495049598,
				"element": "C" 
			},
			{
				"x": 0.2178443996,
				"y": 1.5513382778,
				"z": -0.5892610945,
				"element": "C" 
			},
			{
				"x": 0.1572321659,
				"y": 2.7536586675,
				"z": 0.1168442291,
				"element": "C" 
			},
			{
				"x": -0.4110978677,
				"y": 2.7890051132,
				"z": 1.390717961,
				"element": "C" 
			},
			{
				"x": -0.9106302674,
				"y": 1.6111891178,
				"z": 1.9486231157,
				"element": "C" 
			},
			{
				"x": -0.8457313168,
				"y": 0.4115993824,
				"z": 1.2378226912,
				"element": "C" 
			},
			{
				"x": -1.5246584065,
				"y": -1.3273069431,
				"z": -1.5798546312,
				"element": "C" 
			},
			{
				"x": -2.6568880598,
				"y": -1.7441310139,
				"z": -0.6299980778,
				"element": "C" 
			},
			{
				"x": -1.9986147767,
				"y": -0.1955855651,
				"z": -2.5041056695,
				"element": "C" 
			},
			{
				"x": -1.1425928159,
				"y": -2.4553586092,
				"z": -2.3883227725,
				"element": "O" 
			},
			{
				"x": 1.3786532781,
				"y": -1.8350433206,
				"z": 0.3496204017,
				"element": "H" 
			},
			{
				"x": 0.4633911132,
				"y": -2.9944703423,
				"z": -0.6387556701,
				"element": "H" 
			},
			{
				"x": -0.2338941154,
				"y": -2.342516145,
				"z": 0.8498498281,
				"element": "H" 
			},
			{
				"x": 0.5070396818,
				"y": -0.7552159665,
				"z": -1.6700579169,
				"element": "H" 
			},
			{
				"x": 0.6696412936,
				"y": 1.5344959127,
				"z": -1.5780671571,
				"element": "H" 
			},
			{
				"x": 0.5591980214,
				"y": 3.6603666166,
				"z": -0.3270270723,
				"element": "H" 
			},
			{
				"x": -0.4580408587,
				"y": 3.7217245287,
				"z": 1.9455186709,
				"element": "H" 
			},
			{
				"x": -1.347750014,
				"y": 1.6229445431,
				"z": 2.943429506,
				"element": "H" 
			},
			{
				"x": -1.2274830054,
				"y": -0.493791046,
				"z": 1.6993793005,
				"element": "H" 
			},
			{
				"x": -2.3607806397,
				"y": -2.5949025031,
				"z": -0.0110448113,
				"element": "H" 
			},
			{
				"x": -2.962410749,
				"y": -0.9212800391,
				"z": 0.0219624405,
				"element": "H" 
			},
			{
				"x": -3.5370859993,
				"y": -2.0449820943,
				"z": -1.211588898,
				"element": "H" 
			},
			{
				"x": -1.209623319,
				"y": 0.0742168273,
				"z": -3.2127272958,
				"element": "H" 
			},
			{
				"x": -2.8724736185,
				"y": -0.5231134022,
				"z": -3.0807524902,
				"element": "H" 
			},
			{
				"x": -2.2844165974,
				"y": 0.6985201362,
				"z": -1.9439366645,
				"element": "H" 
			},
			{
				"x": -1.9286211843,
				"y": -2.7469048621,
				"z": -2.8688462169,
				"element": "H" 
			}
		],
		 "valence_orbital": [ 
			{
				"type": "occ",
				"energy": -0.32125,
				"method": "rhf"
			},
			{
				"type": "occ",
				"energy": -0.30774,
				"method": "rhf"
			},
			{
				"type": "occ",
				"energy": -0.26162,
				"method": "rhf"
			},
			{
				"type": "occ",
				"energy": -0.24569,
				"method": "rhf"
			},
			{
				"type": "occ",
				"energy": -0.23743,
				"method": "rhf"
			},
			{
				"type": "unocc",
				"energy": 0.00104,
				"method": "rhf"
			},
			{
				"type": "unocc",
				"energy": 0.00272,
				"method": "rhf"
			},
			{
				"type": "unocc",
				"energy": 0.07316,
				"method": "rhf"
			},
			{
				"type": "unocc",
				"energy": 0.09086,
				"method": "rhf"
			},
			{
				"type": "unocc",
				"energy": 0.11265,
				"method": "rhf"
			}
		],
		"cosmo_sigma_profile": { 
			"-0.025": 0.0,
			"-0.024": 0.0,
			"-0.023": 0.0,
			"-0.022": 0.0,
			"-0.021": 0.0,
			"-0.02": 0.0,
			"-0.019": 0.0,
			"-0.018": 0.0,
			"-0.017": 0.0,
			"-0.016": 0.0,
			"-0.015": 0.180202281861,
			"-0.014": 0.894887243706,
			"-0.013": 0.710830973098,
			"-0.012": 1.32860560386,
			"-0.011": 0.419604220358,
			"-0.01": 1.22502027439,
			"-0.009": 1.23531463775,
			"-0.008": 0.812404994235,
			"-0.007": 1.24286015052,
			"-0.006": 1.71425263244,
			"-0.005": 11.0463691031,
			"-0.004": 16.3868691282,
			"-0.003": 23.6282048677,
			"-0.002": 22.1320856453,
			"-0.001": 23.3336479353,
			"0.0": 23.7806349845,
			"0.001": 26.613633478,
			"0.002": 16.9836146788,
			"0.003": 9.7974646666,
			"0.004": 9.28455287557,
			"0.005": 8.36032076565,
			"0.006": 9.52638205156,
			"0.007": 4.33967562948,
			"0.008": 1.51839419945,
			"0.009": 1.13923565907,
			"0.01": 1.29184156016,
			"0.011": 1.80299376331,
			"0.012": 1.43109705009,
			"0.013": 0.72112895097,
			"0.014": 0.870586913093,
			"0.015": 0.211279874955,
			"0.016": 0.0,
			"0.017": 0.0,
			"0.018": 0.0,
			"0.019": 0.0,
			"0.02": 0.0,
			"0.021": 0.0,
			"0.022": 0.0,
			"0.023": 0.0,
			"0.024": 0.0,
			"0.025": 0.0
		}
	}
}
