{
	 "smiles": "FC1=CC=C(C=C1)C(=S)N1CCCCC1", 
	 "Tm": 350.15, 
	 "num_atms": 29, 
	 "gaussian": { 
		 "optdone": 1, 
		 "sigma_profile": "yes", 
		 "theory": "DFT", 
		 "functional": "B3LYP", 
		 "basiset": "6-31G**", 
		 "properties": { 
			 "R2extent": 4444.7681, 
			 "electric_dipole_moment_norm": 5.1722090213, 
			 "electric_quadrupole_moment_norm": 11.9355591825, 
			 "total_energy": -1018.49504029, 
			 "HOMO_LUMO_gap": 0.15262, 
			 "cosmo_polarized_energy": -12.69, 
			 "cosmo_cavitation_energy": 32.64, 
			 "cosmo_dispersion_energy": -23.71, 
			 "cosmo_repulsion_energy": 1.8, 
			 "cosmo_total_nonelectrostatic_energy": 10.73, 
			 "SMD_solvation_energy": 3.84 
		},
		"coords": [
			{
				"x": 5.1363847648,
				"y": -0.0218511291,
				"z": 0.7952095781,
				"element": "F" 
			},
			{
				"x": 3.8161816815,
				"y": 0.2423146278,
				"z": 0.7240665508,
				"element": "C" 
			},
			{
				"x": 3.2157605559,
				"y": 0.966494365,
				"z": 1.7492901655,
				"element": "C" 
			},
			{
				"x": 1.854722276,
				"y": 1.2465792318,
				"z": 1.6646586399,
				"element": "C" 
			},
			{
				"x": 1.0896741929,
				"y": 0.7847374807,
				"z": 0.5819799819,
				"element": "C" 
			},
			{
				"x": 1.7291554497,
				"y": 0.0543982737,
				"z": -0.4337019137,
				"element": "C" 
			},
			{
				"x": 3.0958868221,
				"y": -0.2131506929,
				"z": -0.3741110661,
				"element": "C" 
			},
			{
				"x": -0.3573331108,
				"y": 1.147589165,
				"z": 0.4723785666,
				"element": "C" 
			},
			{
				"x": -0.8098925758,
				"y": 2.759602245,
				"z": 0.5983573869,
				"element": "S" 
			},
			{
				"x": -1.2395847609,
				"y": 0.1479538454,
				"z": 0.2283863717,
				"element": "N" 
			},
			{
				"x": -0.9425554644,
				"y": -1.282801792,
				"z": 0.4574233184,
				"element": "C" 
			},
			{
				"x": -2.0839378417,
				"y": -1.9441512068,
				"z": 1.238493897,
				"element": "C" 
			},
			{
				"x": -3.4183804649,
				"y": -1.8945117917,
				"z": 0.4577992566,
				"element": "C" 
			},
			{
				"x": -3.410501018,
				"y": -0.7420325949,
				"z": -0.5665876845,
				"element": "C" 
			},
			{
				"x": -2.6510245962,
				"y": 0.480570741,
				"z": -0.0511797707,
				"element": "C" 
			},
			{
				"x": 3.8150050272,
				"y": 1.3083123805,
				"z": 2.5861170751,
				"element": "H" 
			},
			{
				"x": 1.371049824,
				"y": 1.8365768493,
				"z": 2.4353877693,
				"element": "H" 
			},
			{
				"x": 1.1583772646,
				"y": -0.2846810411,
				"z": -1.2927118892,
				"element": "H" 
			},
			{
				"x": 3.6044195147,
				"y": -0.7584914449,
				"z": -1.1616904166,
				"element": "H" 
			},
			{
				"x": -0.7934343784,
				"y": -1.7972393562,
				"z": -0.5015093064,
				"element": "H" 
			},
			{
				"x": -0.0082380956,
				"y": -1.35682576,
				"z": 1.0115704273,
				"element": "H" 
			},
			{
				"x": -2.1837808321,
				"y": -1.4258373547,
				"z": 2.1988851849,
				"element": "H" 
			},
			{
				"x": -1.8003334071,
				"y": -2.9766223046,
				"z": 1.4686992435,
				"element": "H" 
			},
			{
				"x": -3.5953709785,
				"y": -2.8427451527,
				"z": -0.0613027383,
				"element": "H" 
			},
			{
				"x": -4.2483787348,
				"y": -1.766585803,
				"z": 1.1610513868,
				"element": "H" 
			},
			{
				"x": -2.9534191138,
				"y": -1.074440033,
				"z": -1.5064847022,
				"element": "H" 
			},
			{
				"x": -4.4319446377,
				"y": -0.4367605626,
				"z": -0.8150801033,
				"element": "H" 
			},
			{
				"x": -2.6635553682,
				"y": 1.2970310209,
				"z": -0.7777855294,
				"element": "H" 
			},
			{
				"x": -3.1162519948,
				"y": 0.8798677939,
				"z": 0.86039032,
				"element": "H" 
			}
		],
		 "valence_orbital": [ 
			{
				"type": "occ",
				"energy": -0.31042,
				"method": "rhf"
			},
			{
				"type": "occ",
				"energy": -0.26646,
				"method": "rhf"
			},
			{
				"type": "occ",
				"energy": -0.25029,
				"method": "rhf"
			},
			{
				"type": "occ",
				"energy": -0.21863,
				"method": "rhf"
			},
			{
				"type": "occ",
				"energy": -0.19518,
				"method": "rhf"
			},
			{
				"type": "unocc",
				"energy": -0.04256,
				"method": "rhf"
			},
			{
				"type": "unocc",
				"energy": -0.01593,
				"method": "rhf"
			},
			{
				"type": "unocc",
				"energy": 0.01368,
				"method": "rhf"
			},
			{
				"type": "unocc",
				"energy": 0.06318,
				"method": "rhf"
			},
			{
				"type": "unocc",
				"energy": 0.08299,
				"method": "rhf"
			}
		],
		"cosmo_sigma_profile": { 
			"-0.025": 0.0,
			"-0.024": 0.0,
			"-0.023": 0.0,
			"-0.022": 0.0,
			"-0.021": 0.0,
			"-0.02": 0.0,
			"-0.019": 0.0,
			"-0.018": 0.0,
			"-0.017": 0.0,
			"-0.016": 0.0,
			"-0.015": 0.0,
			"-0.014": 0.0,
			"-0.013": 0.0,
			"-0.012": 0.0,
			"-0.011": 0.0,
			"-0.01": 0.0,
			"-0.009": 0.0,
			"-0.008": 1.05481620326,
			"-0.007": 5.20531862368,
			"-0.006": 8.43361266732,
			"-0.005": 15.6724585392,
			"-0.004": 25.5270522471,
			"-0.003": 36.6152889868,
			"-0.002": 28.9724803394,
			"-0.001": 20.9679972695,
			"0.0": 23.1354443291,
			"0.001": 14.0125710364,
			"0.002": 13.0351662122,
			"0.003": 12.6502611816,
			"0.004": 15.2765794574,
			"0.005": 6.0504399548,
			"0.006": 4.76972354779,
			"0.007": 4.30098028614,
			"0.008": 5.08285507241,
			"0.009": 7.20001331807,
			"0.01": 5.63497069192,
			"0.011": 3.82941333826,
			"0.012": 1.69552205728,
			"0.013": 0.945604166129,
			"0.014": 0.0251519962526,
			"0.015": 0.0,
			"0.016": 0.0,
			"0.017": 0.0,
			"0.018": 0.0,
			"0.019": 0.0,
			"0.02": 0.0,
			"0.021": 0.0,
			"0.022": 0.0,
			"0.023": 0.0,
			"0.024": 0.0,
			"0.025": 0.0
		}
	}
}
