{
	 "smiles": "CC(C)C1=C2N=C(Cl)C=C(C)C2=CC=C1", 
	 "Tm": 317.15, 
	 "num_atms": 29, 
	 "gaussian": { 
		 "optdone": 1, 
		 "sigma_profile": "yes", 
		 "theory": "DFT", 
		 "functional": "B3LYP", 
		 "basiset": "6-31G**", 
		 "properties": { 
			 "R2extent": 3974.3236, 
			 "electric_dipole_moment_norm": 3.66920692793, 
			 "electric_quadrupole_moment_norm": 10.6579406613, 
			 "total_energy": -1018.79750071, 
			 "HOMO_LUMO_gap": 0.17356, 
			 "cosmo_polarized_energy": -6.49, 
			 "cosmo_cavitation_energy": 32.73, 
			 "cosmo_dispersion_energy": -23.38, 
			 "cosmo_repulsion_energy": 1.83, 
			 "cosmo_total_nonelectrostatic_energy": 11.18, 
			 "SMD_solvation_energy": 4.93 
		},
		"coords": [
			{
				"x": -0.062130096,
				"y": 0.3361417275,
				"z": -3.1524503844,
				"element": "C" 
			},
			{
				"x": -0.3471554709,
				"y": 1.3403090079,
				"z": -2.0177426361,
				"element": "C" 
			},
			{
				"x": -1.8339106116,
				"y": 1.7474394882,
				"z": -1.9867795893,
				"element": "C" 
			},
			{
				"x": 0.1672996047,
				"y": 0.8665292893,
				"z": -0.6625156453,
				"element": "C" 
			},
			{
				"x": -0.3318902604,
				"y": -0.3040853601,
				"z": -0.004120173,
				"element": "C" 
			},
			{
				"x": -1.3164072297,
				"y": -1.0298822326,
				"z": -0.6215473631,
				"element": "N" 
			},
			{
				"x": -1.7652739922,
				"y": -2.0880037847,
				"z": -0.0229719449,
				"element": "C" 
			},
			{
				"x": -3.0372683447,
				"y": -3.0051237036,
				"z": -0.8456113266,
				"element": "Cl" 
			},
			{
				"x": -1.3256974115,
				"y": -2.5725490666,
				"z": 1.2311843814,
				"element": "C" 
			},
			{
				"x": -0.3372997478,
				"y": -1.8763985832,
				"z": 1.8902580313,
				"element": "C" 
			},
			{
				"x": 0.1665017718,
				"y": -2.3506628942,
				"z": 3.2293059306,
				"element": "C" 
			},
			{
				"x": 0.1943387684,
				"y": -0.6970152758,
				"z": 1.2707606794,
				"element": "C" 
			},
			{
				"x": 1.2128357769,
				"y": 0.0859957027,
				"z": 1.8703131355,
				"element": "C" 
			},
			{
				"x": 1.6858872654,
				"y": 1.2087961682,
				"z": 1.2300781492,
				"element": "C" 
			},
			{
				"x": 1.1624102027,
				"y": 1.5881415916,
				"z": -0.0242047532,
				"element": "C" 
			},
			{
				"x": -0.3393411077,
				"y": 0.7754902589,
				"z": -4.1172067018,
				"element": "H" 
			},
			{
				"x": -0.6358177063,
				"y": -0.5823468477,
				"z": -3.0145841148,
				"element": "H" 
			},
			{
				"x": 1.0013872238,
				"y": 0.078031254,
				"z": -3.1936386039,
				"element": "H" 
			},
			{
				"x": 0.2270183034,
				"y": 2.2487323258,
				"z": -2.2448234866,
				"element": "H" 
			},
			{
				"x": -2.4726549509,
				"y": 0.880792891,
				"z": -1.8060120776,
				"element": "H" 
			},
			{
				"x": -2.0243649605,
				"y": 2.4883250992,
				"z": -1.2030673315,
				"element": "H" 
			},
			{
				"x": -2.1184199843,
				"y": 2.1924764758,
				"z": -2.9467950041,
				"element": "H" 
			},
			{
				"x": -1.764231853,
				"y": -3.4702221354,
				"z": 1.6511773385,
				"element": "H" 
			},
			{
				"x": -0.3518842497,
				"y": -3.2599671764,
				"z": 3.5416289839,
				"element": "H" 
			},
			{
				"x": 1.2401182674,
				"y": -2.5670842832,
				"z": 3.1961766767,
				"element": "H" 
			},
			{
				"x": 0.0135767444,
				"y": -1.5905382548,
				"z": 4.0035229575,
				"element": "H" 
			},
			{
				"x": 1.6179311336,
				"y": -0.2021088148,
				"z": 2.8342459891,
				"element": "H" 
			},
			{
				"x": 2.4661539334,
				"y": 1.8098890794,
				"z": 1.6878807212,
				"element": "H" 
			},
			{
				"x": 1.5543889817,
				"y": 2.4794980536,
				"z": -0.5074618382,
				"element": "H" 
			}
		],
		 "valence_orbital": [ 
			{
				"type": "occ",
				"energy": -0.30942,
				"method": "rhf"
			},
			{
				"type": "occ",
				"energy": -0.29559,
				"method": "rhf"
			},
			{
				"type": "occ",
				"energy": -0.26478,
				"method": "rhf"
			},
			{
				"type": "occ",
				"energy": -0.25003,
				"method": "rhf"
			},
			{
				"type": "occ",
				"energy": -0.23073,
				"method": "rhf"
			},
			{
				"type": "unocc",
				"energy": -0.05717,
				"method": "rhf"
			},
			{
				"type": "unocc",
				"energy": -0.023,
				"method": "rhf"
			},
			{
				"type": "unocc",
				"energy": 0.01667,
				"method": "rhf"
			},
			{
				"type": "unocc",
				"energy": 0.03584,
				"method": "rhf"
			},
			{
				"type": "unocc",
				"energy": 0.08057,
				"method": "rhf"
			}
		],
		"cosmo_sigma_profile": { 
			"-0.025": 0.0,
			"-0.024": 0.0,
			"-0.023": 0.0,
			"-0.022": 0.0,
			"-0.021": 0.0,
			"-0.02": 0.0,
			"-0.019": 0.0,
			"-0.018": 0.0,
			"-0.017": 0.0,
			"-0.016": 0.0,
			"-0.015": 0.0,
			"-0.014": 0.0,
			"-0.013": 0.0,
			"-0.012": 0.0,
			"-0.011": 0.0,
			"-0.01": 0.0,
			"-0.009": 0.0,
			"-0.008": 0.283646335791,
			"-0.007": 2.70721894121,
			"-0.006": 7.79603509536,
			"-0.005": 17.0084371246,
			"-0.004": 14.8999234973,
			"-0.003": 17.1435584044,
			"-0.002": 23.0270007828,
			"-0.001": 26.9605897391,
			"0.0": 31.3685408617,
			"0.001": 33.0405823527,
			"0.002": 29.7800565804,
			"0.003": 19.1100153356,
			"0.004": 19.3785743639,
			"0.005": 11.6281477589,
			"0.006": 3.23268603787,
			"0.007": 1.98070798819,
			"0.008": 1.22724794955,
			"0.009": 0.916218954323,
			"0.01": 0.0227997123699,
			"0.011": 0.0,
			"0.012": 0.0,
			"0.013": 0.0,
			"0.014": 0.0,
			"0.015": 0.0,
			"0.016": 0.0,
			"0.017": 0.0,
			"0.018": 0.0,
			"0.019": 0.0,
			"0.02": 0.0,
			"0.021": 0.0,
			"0.022": 0.0,
			"0.023": 0.0,
			"0.024": 0.0,
			"0.025": 0.0
		}
	}
}
