{
	 "smiles": "NC1=C(C=C(Br)C=N1)S(Cl)(=O)=O", 
	 "Tm": 403.15, 
	 "num_atms": 16, 
	 "gaussian": { 
		 "optdone": 1, 
		 "sigma_profile": "yes", 
		 "theory": "DFT", 
		 "functional": "B3LYP", 
		 "basiset": "6-31G**", 
		 "properties": { 
			 "R2extent": 4508.4683, 
			 "electric_dipole_moment_norm": 3.19271444542, 
			 "electric_quadrupole_moment_norm": 11.607683262, 
			 "total_energy": -3882.61186852, 
			 "HOMO_LUMO_gap": 0.1443, 
			 "cosmo_polarized_energy": -9.92, 
			 "cosmo_cavitation_energy": 26.38, 
			 "cosmo_dispersion_energy": -20.53, 
			 "cosmo_repulsion_energy": 1.6, 
			 "cosmo_total_nonelectrostatic_energy": 7.45, 
			 "SMD_solvation_energy": 0.73 
		},
		"coords": [
			{
				"x": -2.1544658687,
				"y": 1.867628621,
				"z": -0.5260707034,
				"element": "N" 
			},
			{
				"x": -1.3326868865,
				"y": 0.7971033854,
				"z": -0.6052432632,
				"element": "C" 
			},
			{
				"x": -1.3420903991,
				"y": -0.2861027623,
				"z": 0.3194643319,
				"element": "C" 
			},
			{
				"x": -0.4489993552,
				"y": -1.3486425873,
				"z": 0.1684632166,
				"element": "C" 
			},
			{
				"x": 0.4341349515,
				"y": -1.3183336823,
				"z": -0.8993759018,
				"element": "C" 
			},
			{
				"x": 1.6731749206,
				"y": -2.7286922827,
				"z": -1.1956438405,
				"element": "Br" 
			},
			{
				"x": 0.3983290605,
				"y": -0.2154263922,
				"z": -1.7628286598,
				"element": "C" 
			},
			{
				"x": -0.4490992147,
				"y": 0.7960088583,
				"z": -1.6268668768,
				"element": "N" 
			},
			{
				"x": -2.4363064354,
				"y": -0.3370342728,
				"z": 1.7107144133,
				"element": "S" 
			},
			{
				"x": -1.4056691349,
				"y": 0.8589378152,
				"z": 3.1452628106,
				"element": "Cl" 
			},
			{
				"x": -3.6588029396,
				"y": 0.4052883621,
				"z": 1.3957244378,
				"element": "O" 
			},
			{
				"x": -2.4800095357,
				"y": -1.6861465018,
				"z": 2.2569248526,
				"element": "O" 
			},
			{
				"x": -2.1041557328,
				"y": 2.5256845946,
				"z": -1.2884221345,
				"element": "H" 
			},
			{
				"x": -2.9686670955,
				"y": 1.845596946,
				"z": 0.0709081886,
				"element": "H" 
			},
			{
				"x": -0.4635444747,
				"y": -2.1720728882,
				"z": 0.8728357203,
				"element": "H" 
			},
			{
				"x": 1.0896581401,
				"y": -0.1589972131,
				"z": -2.6003465916,
				"element": "H" 
			}
		],
		 "valence_orbital": [ 
			{
				"type": "occ",
				"energy": -0.32243,
				"method": "rhf"
			},
			{
				"type": "occ",
				"energy": -0.31337,
				"method": "rhf"
			},
			{
				"type": "occ",
				"energy": -0.31149,
				"method": "rhf"
			},
			{
				"type": "occ",
				"energy": -0.29402,
				"method": "rhf"
			},
			{
				"type": "occ",
				"energy": -0.24495,
				"method": "rhf"
			},
			{
				"type": "unocc",
				"energy": -0.10065,
				"method": "rhf"
			},
			{
				"type": "unocc",
				"energy": -0.0605,
				"method": "rhf"
			},
			{
				"type": "unocc",
				"energy": -0.03559,
				"method": "rhf"
			},
			{
				"type": "unocc",
				"energy": -0.0127,
				"method": "rhf"
			},
			{
				"type": "unocc",
				"energy": 0.04409,
				"method": "rhf"
			}
		],
		"cosmo_sigma_profile": { 
			"-0.025": 0.0,
			"-0.024": 0.0,
			"-0.023": 0.0,
			"-0.022": 0.0,
			"-0.021": 0.0,
			"-0.02": 0.0,
			"-0.019": 0.0,
			"-0.018": 0.0,
			"-0.017": 0.0,
			"-0.016": 0.0,
			"-0.015": 0.491566300998,
			"-0.014": 1.46090017748,
			"-0.013": 0.955295531832,
			"-0.012": 1.86977604982,
			"-0.011": 2.01490961136,
			"-0.01": 1.67756982077,
			"-0.009": 3.12288056983,
			"-0.008": 4.43016849539,
			"-0.007": 5.12815702578,
			"-0.006": 6.16473573153,
			"-0.005": 7.78978582053,
			"-0.004": 10.6433328612,
			"-0.003": 14.4530171669,
			"-0.002": 17.7992255327,
			"-0.001": 18.8904157424,
			"0.0": 18.0372999609,
			"0.001": 13.6122980235,
			"0.002": 18.073041123,
			"0.003": 24.3642914432,
			"0.004": 16.5087227142,
			"0.005": 5.49918075671,
			"0.006": 5.37348598648,
			"0.007": 6.25330453986,
			"0.008": 8.7388711934,
			"0.009": 2.46487278165,
			"0.01": 0.738554415743,
			"0.011": 1.20752414909,
			"0.012": 0.462769247181,
			"0.013": 0.251271936646,
			"0.014": 0.0,
			"0.015": 0.0,
			"0.016": 0.0,
			"0.017": 0.0,
			"0.018": 0.0,
			"0.019": 0.0,
			"0.02": 0.0,
			"0.021": 0.0,
			"0.022": 0.0,
			"0.023": 0.0,
			"0.024": 0.0,
			"0.025": 0.0
		}
	}
}
