{
	 "smiles": "ON=CC1=CC=CC=C1[N+]([O-])=O", 
	 "Tm": 373.15, 
	 "num_atms": 18, 
	 "gaussian": { 
		 "optdone": 1, 
		 "sigma_profile": "yes", 
		 "theory": "DFT", 
		 "functional": "B3LYP", 
		 "basiset": "6-31G**", 
		 "properties": { 
			 "R2extent": 2505.6444, 
			 "electric_dipole_moment_norm": 4.46981345919, 
			 "electric_quadrupole_moment_norm": 8.32162266148, 
			 "total_energy": -605.366296161, 
			 "HOMO_LUMO_gap": 0.15344, 
			 "cosmo_polarized_energy": -11.17, 
			 "cosmo_cavitation_energy": 23.61, 
			 "cosmo_dispersion_energy": -17.47, 
			 "cosmo_repulsion_energy": 1.4, 
			 "cosmo_total_nonelectrostatic_energy": 7.54, 
			 "SMD_solvation_energy": 6.8 
		},
		"coords": [
			{
				"x": -3.5145694785,
				"y": 1.9890510072,
				"z": -2.7257384492,
				"element": "O" 
			},
			{
				"x": -3.0003827593,
				"y": 0.8214950994,
				"z": -2.1711389979,
				"element": "N" 
			},
			{
				"x": -1.8401343761,
				"y": 1.0285774255,
				"z": -1.6627648891,
				"element": "C" 
			},
			{
				"x": -1.1106819151,
				"y": -0.1056453403,
				"z": -1.0714890468,
				"element": "C" 
			},
			{
				"x": -1.5594760379,
				"y": -1.4172897444,
				"z": -1.3244825251,
				"element": "C" 
			},
			{
				"x": -0.891692913,
				"y": -2.529780623,
				"z": -0.8293916602,
				"element": "C" 
			},
			{
				"x": 0.2775003384,
				"y": -2.3750886668,
				"z": -0.077522569,
				"element": "C" 
			},
			{
				"x": 0.759597674,
				"y": -1.0980133871,
				"z": 0.1771785575,
				"element": "C" 
			},
			{
				"x": 0.0654849434,
				"y": 0.0168257815,
				"z": -0.3004099082,
				"element": "C" 
			},
			{
				"x": 0.63036475,
				"y": 1.3263461926,
				"z": 0.0734667817,
				"element": "N" 
			},
			{
				"x": -0.1226117821,
				"y": 2.3013183169,
				"z": 0.1083099478,
				"element": "O" 
			},
			{
				"x": 1.8273971028,
				"y": 1.3664816851,
				"z": 0.3551461391,
				"element": "O" 
			},
			{
				"x": -4.3859592018,
				"y": 1.7115336292,
				"z": -3.0400659303,
				"element": "H" 
			},
			{
				"x": -1.3979277162,
				"y": 2.0194681558,
				"z": -1.6710532334,
				"element": "H" 
			},
			{
				"x": -2.4497257523,
				"y": -1.5348981166,
				"z": -1.9311445602,
				"element": "H" 
			},
			{
				"x": -1.2766400503,
				"y": -3.5230035494,
				"z": -1.0401843674,
				"element": "H" 
			},
			{
				"x": 0.808724549,
				"y": -3.2405876058,
				"z": 0.3048251522,
				"element": "H" 
			},
			{
				"x": 1.6636326248,
				"y": -0.9357902596,
				"z": 0.7500595585,
				"element": "H" 
			}
		],
		 "valence_orbital": [ 
			{
				"type": "occ",
				"energy": -0.30694,
				"method": "rhf"
			},
			{
				"type": "occ",
				"energy": -0.29884,
				"method": "rhf"
			},
			{
				"type": "occ",
				"energy": -0.28812,
				"method": "rhf"
			},
			{
				"type": "occ",
				"energy": -0.27749,
				"method": "rhf"
			},
			{
				"type": "occ",
				"energy": -0.24664,
				"method": "rhf"
			},
			{
				"type": "unocc",
				"energy": -0.0932,
				"method": "rhf"
			},
			{
				"type": "unocc",
				"energy": -0.05526,
				"method": "rhf"
			},
			{
				"type": "unocc",
				"energy": -0.00908,
				"method": "rhf"
			},
			{
				"type": "unocc",
				"energy": 0.02935,
				"method": "rhf"
			},
			{
				"type": "unocc",
				"energy": 0.06634,
				"method": "rhf"
			}
		],
		"cosmo_sigma_profile": { 
			"-0.025": 0.0,
			"-0.024": 0.0,
			"-0.023": 0.0,
			"-0.022": 0.0,
			"-0.021": 0.0,
			"-0.02": 0.0,
			"-0.019": 0.0,
			"-0.018": 0.618143526722,
			"-0.017": 1.17337058874,
			"-0.016": 0.880955402377,
			"-0.015": 0.966892370344,
			"-0.014": 1.02564145376,
			"-0.013": 0.268710800291,
			"-0.012": 0.319615551441,
			"-0.011": 0.988076218685,
			"-0.01": 1.09068837863,
			"-0.009": 1.07727097958,
			"-0.008": 3.08282101518,
			"-0.007": 9.04904084948,
			"-0.006": 12.5528874611,
			"-0.005": 10.2464760796,
			"-0.004": 8.75388841094,
			"-0.003": 8.71055154324,
			"-0.002": 8.9540160145,
			"-0.001": 11.5951517355,
			"0.0": 15.1373523429,
			"0.001": 19.4030504463,
			"0.002": 16.0519136732,
			"0.003": 8.11294307606,
			"0.004": 6.54466390416,
			"0.005": 6.74687718011,
			"0.006": 7.41968645443,
			"0.007": 9.86064545216,
			"0.008": 8.05151425837,
			"0.009": 7.11094308163,
			"0.01": 3.866614515,
			"0.011": 0.0230842386161,
			"0.012": 0.0,
			"0.013": 0.0,
			"0.014": 0.0,
			"0.015": 0.0,
			"0.016": 0.0,
			"0.017": 0.0,
			"0.018": 0.0,
			"0.019": 0.0,
			"0.02": 0.0,
			"0.021": 0.0,
			"0.022": 0.0,
			"0.023": 0.0,
			"0.024": 0.0,
			"0.025": 0.0
		}
	}
}
