{
	 "smiles": "CC(C)(C)I", 
	 "Tm": 235.05, 
	 "num_atms": 14, 
	 "gaussian": { 
		 "optdone": 1, 
		 "sigma_profile": "no", 
		 "theory": "DFT", 
		 "functional": "B3LYP", 
		 "basiset": "6-31G**", 
		 "properties": { 
			 "R2extent": 701.5866, 
			 "electric_dipole_moment_norm": 2.75168065189, 
			 "electric_quadrupole_moment_norm": 5.05626401605, 
			 "total_energy": -169.257468061, 
			 "HOMO_LUMO_gap": 0.20578, 
			 "cosmo_polarized_energy": -84162.21, 
			 "cosmo_cavitation_energy": 18.97, 
			 "cosmo_dispersion_energy": -15.02, 
			 "cosmo_repulsion_energy": 1.25, 
			 "cosmo_total_nonelectrostatic_energy": 5.19, 
			 "SMD_solvation_energy": 2.62 
		},
		"coords": [
			{
				"x": 1.9610726117,
				"y": -1.1555644995,
				"z": -0.2384038367,
				"element": "C" 
			},
			{
				"x": 1.0057391301,
				"y": -0.0624467488,
				"z": 0.2365207359,
				"element": "C" 
			},
			{
				"x": -0.4358241803,
				"y": -0.561121053,
				"z": 0.316458689,
				"element": "C" 
			},
			{
				"x": 1.124202593,
				"y": 1.2042649451,
				"z": -0.6088037856,
				"element": "C" 
			},
			{
				"x": 1.6281680157,
				"y": 0.4878931424,
				"z": 2.3360274759,
				"element": "I" 
			},
			{
				"x": 1.9033421919,
				"y": -2.0458936648,
				"z": 0.3922348823,
				"element": "H" 
			},
			{
				"x": 1.6799668644,
				"y": -1.4431738007,
				"z": -1.2611558695,
				"element": "H" 
			},
			{
				"x": 2.9968994152,
				"y": -0.8084641333,
				"z": -0.2563290875,
				"element": "H" 
			},
			{
				"x": -1.1108736012,
				"y": 0.2103563576,
				"z": 0.6944356473,
				"element": "H" 
			},
			{
				"x": -0.5243060714,
				"y": -1.44374863,
				"z": 0.9543280799,
				"element": "H" 
			},
			{
				"x": -0.7652720228,
				"y": -0.8368726835,
				"z": -0.6950664001,
				"element": "H" 
			},
			{
				"x": 0.4692711467,
				"y": 1.9983634092,
				"z": -0.2424542755,
				"element": "H" 
			},
			{
				"x": 2.1493296627,
				"y": 1.5815476505,
				"z": -0.6315756822,
				"element": "H" 
			},
			{
				"x": 0.8260842443,
				"y": 0.9643597088,
				"z": -1.6390165731,
				"element": "H" 
			}
		],
		 "valence_orbital": [ 
			{
				"type": "occ",
				"energy": -0.35627,
				"method": "rhf"
			},
			{
				"type": "occ",
				"energy": -0.35627,
				"method": "rhf"
			},
			{
				"type": "occ",
				"energy": -0.30496,
				"method": "rhf"
			},
			{
				"type": "occ",
				"energy": -0.25025,
				"method": "rhf"
			},
			{
				"type": "occ",
				"energy": -0.25025,
				"method": "rhf"
			},
			{
				"type": "unocc",
				"energy": -0.04447,
				"method": "rhf"
			},
			{
				"type": "unocc",
				"energy": 0.04762,
				"method": "rhf"
			},
			{
				"type": "unocc",
				"energy": 0.04762,
				"method": "rhf"
			},
			{
				"type": "unocc",
				"energy": 0.05312,
				"method": "rhf"
			},
			{
				"type": "unocc",
				"energy": 0.08929,
				"method": "rhf"
			}
		],
		"cosmo_sigma_profile": { 
			"0.0": 0.0,
			"0.0": 0.0,
			"0.0": 0.0,
			"0.0": 0.0,
			"0.0": 0.0,
			"0.0": 0.0,
			"0.0": 0.0,
			"0.0": 0.0,
			"0.0": 0.0,
			"0.0": 0.0,
			"0.0": 0.0,
			"0.0": 0.0,
			"0.0": 0.0,
			"0.0": 0.0,
			"0.0": 0.0,
			"0.0": 0.0,
			"0.0": 0.0,
			"0.0": 0.0,
			"0.0": 0.0,
			"0.0": 0.0,
			"0.0": 0.0,
			"0.0": 0.0,
			"0.0": 0.0,
			"0.0": 0.0,
			"0.0": 0.0,
			"0.0": 0.0,
			"0.0": 0.0,
			"0.0": 0.0,
			"0.0": 0.0,
			"0.0": 0.0,
			"0.0": 0.0,
			"0.0": 0.0,
			"0.0": 0.0,
			"0.0": 0.0,
			"0.0": 0.0,
			"0.0": 0.0,
			"0.0": 0.0,
			"0.0": 0.0,
			"0.0": 0.0,
			"0.0": 0.0,
			"0.0": 0.0,
			"0.0": 0.0,
			"0.0": 0.0,
			"0.0": 0.0,
			"0.0": 0.0,
			"0.0": 0.0,
			"0.0": 0.0,
			"0.0": 0.0,
			"0.0": 0.0,
			"0.0": 0.0,
			"0.0": 0.0
		}
	}
}
