{
	 "smiles": "O=C1CCCCCCCN1", 
	 "Tm": 351.15, 
	 "num_atms": 25, 
	 "gaussian": { 
		 "optdone": 1, 
		 "sigma_profile": "yes", 
		 "theory": "DFT", 
		 "functional": "B3LYP", 
		 "basiset": "6-31G**", 
		 "properties": { 
			 "R2extent": 1501.7721, 
			 "electric_dipole_moment_norm": 3.66745370659, 
			 "electric_quadrupole_moment_norm": 8.03826071859, 
			 "total_energy": -443.883064793, 
			 "HOMO_LUMO_gap": 0.26293, 
			 "cosmo_polarized_energy": -10.13, 
			 "cosmo_cavitation_energy": 24.43, 
			 "cosmo_dispersion_energy": -18.42, 
			 "cosmo_repulsion_energy": 1.49, 
			 "cosmo_total_nonelectrostatic_energy": 7.5, 
			 "SMD_solvation_energy": 3.29 
		},
		"coords": [
			{
				"x": -1.9058143508,
				"y": 0.7401369319,
				"z": -1.314713466,
				"element": "O" 
			},
			{
				"x": -1.3354334324,
				"y": -0.1798691585,
				"z": -0.7373546034,
				"element": "C" 
			},
			{
				"x": -1.6905025155,
				"y": -0.5359285916,
				"z": 0.7085551653,
				"element": "C" 
			},
			{
				"x": -0.6171014221,
				"y": -0.3442325277,
				"z": 1.8109880709,
				"element": "C" 
			},
			{
				"x": 0.3155431267,
				"y": 0.8813510323,
				"z": 1.6582815252,
				"element": "C" 
			},
			{
				"x": 1.7714200628,
				"y": 0.5901556761,
				"z": 1.2306982701,
				"element": "C" 
			},
			{
				"x": 2.0586684998,
				"y": 0.3053082516,
				"z": -0.2613937595,
				"element": "C" 
			},
			{
				"x": 1.9918368365,
				"y": -1.1483712671,
				"z": -0.7655620641,
				"element": "C" 
			},
			{
				"x": 0.601608429,
				"y": -1.8140612514,
				"z": -0.8242388305,
				"element": "C" 
			},
			{
				"x": -0.4222798265,
				"y": -0.9600272082,
				"z": -1.405462354,
				"element": "N" 
			},
			{
				"x": -2.5424289829,
				"y": 0.1123367428,
				"z": 0.9250128277,
				"element": "H" 
			},
			{
				"x": -2.0572711083,
				"y": -1.5701928347,
				"z": 0.7383514474,
				"element": "H" 
			},
			{
				"x": -0.0056427287,
				"y": -1.2466558289,
				"z": 1.9206145714,
				"element": "H" 
			},
			{
				"x": -1.1661925854,
				"y": -0.2618037082,
				"z": 2.7557405097,
				"element": "H" 
			},
			{
				"x": 0.3675664642,
				"y": 1.3907890841,
				"z": 2.6275253722,
				"element": "H" 
			},
			{
				"x": -0.1292889034,
				"y": 1.6086062646,
				"z": 0.9668235067,
				"element": "H" 
			},
			{
				"x": 2.1740273374,
				"y": -0.2259670402,
				"z": 1.8484471056,
				"element": "H" 
			},
			{
				"x": 2.3587675673,
				"y": 1.4765209372,
				"z": 1.500836684,
				"element": "H" 
			},
			{
				"x": 3.0800404157,
				"y": 0.6478574305,
				"z": -0.4687911443,
				"element": "H" 
			},
			{
				"x": 1.4079506874,
				"y": 0.9356680774,
				"z": -0.8801996341,
				"element": "H" 
			},
			{
				"x": 2.6523253349,
				"y": -1.7856696702,
				"z": -0.1617209617,
				"element": "H" 
			},
			{
				"x": 2.4124051867,
				"y": -1.1605926967,
				"z": -1.7805263973,
				"element": "H" 
			},
			{
				"x": 0.2688012931,
				"y": -2.1153623047,
				"z": 0.1683457754,
				"element": "H" 
			},
			{
				"x": 0.6746589053,
				"y": -2.7374051314,
				"z": -1.4128372908,
				"element": "H" 
			},
			{
				"x": -0.2571642909,
				"y": -0.6220912092,
				"z": -2.3468203257,
				"element": "H" 
			}
		],
		 "valence_orbital": [ 
			{
				"type": "occ",
				"energy": -0.32397,
				"method": "rhf"
			},
			{
				"type": "occ",
				"energy": -0.31224,
				"method": "rhf"
			},
			{
				"type": "occ",
				"energy": -0.31062,
				"method": "rhf"
			},
			{
				"type": "occ",
				"energy": -0.24481,
				"method": "rhf"
			},
			{
				"type": "occ",
				"energy": -0.23364,
				"method": "rhf"
			},
			{
				"type": "unocc",
				"energy": 0.02929,
				"method": "rhf"
			},
			{
				"type": "unocc",
				"energy": 0.07027,
				"method": "rhf"
			},
			{
				"type": "unocc",
				"energy": 0.08769,
				"method": "rhf"
			},
			{
				"type": "unocc",
				"energy": 0.10501,
				"method": "rhf"
			},
			{
				"type": "unocc",
				"energy": 0.11313,
				"method": "rhf"
			}
		],
		"cosmo_sigma_profile": { 
			"-0.025": 0.0,
			"-0.024": 0.0,
			"-0.023": 0.0,
			"-0.022": 0.0,
			"-0.021": 0.0,
			"-0.02": 0.0,
			"-0.019": 0.0,
			"-0.018": 0.0,
			"-0.017": 0.0,
			"-0.016": 0.0,
			"-0.015": 0.0,
			"-0.014": 0.0,
			"-0.013": 0.118703101582,
			"-0.012": 0.794320941747,
			"-0.011": 1.19724095129,
			"-0.01": 0.990206312539,
			"-0.009": 1.14953763683,
			"-0.008": 0.648154358968,
			"-0.007": 0.849647467918,
			"-0.006": 2.47845386383,
			"-0.005": 6.50251337366,
			"-0.004": 10.8069939527,
			"-0.003": 19.7403417774,
			"-0.002": 34.6477271789,
			"-0.001": 32.0260040653,
			"0.0": 27.7725116807,
			"0.001": 15.5480200664,
			"0.002": 3.7525911723,
			"0.003": 2.53070691223,
			"0.004": 2.37128856942,
			"0.005": 1.99817926892,
			"0.006": 2.47060923568,
			"0.007": 1.78189442499,
			"0.008": 1.44441434817,
			"0.009": 0.923292825023,
			"0.01": 0.528768772268,
			"0.011": 0.9953506755,
			"0.012": 2.54654663346,
			"0.013": 1.88783207318,
			"0.014": 4.67121696011,
			"0.015": 4.26149328101,
			"0.016": 0.489737716922,
			"0.017": 0.0,
			"0.018": 0.0,
			"0.019": 0.0,
			"0.02": 0.0,
			"0.021": 0.0,
			"0.022": 0.0,
			"0.023": 0.0,
			"0.024": 0.0,
			"0.025": 0.0
		}
	}
}
