{
	 "smiles": "OCC1CCS(=O)(=O)CC1", 
	 "Tm": 360.15, 
	 "num_atms": 22, 
	 "gaussian": { 
		 "optdone": 1, 
		 "sigma_profile": "yes", 
		 "theory": "DFT", 
		 "functional": "B3LYP", 
		 "basiset": "6-31G**", 
		 "properties": { 
			 "R2extent": 2274.1917, 
			 "electric_dipole_moment_norm": 5.94624491507, 
			 "electric_quadrupole_moment_norm": 17.8944787884, 
			 "total_energy": -859.661638203, 
			 "HOMO_LUMO_gap": 0.3293, 
			 "cosmo_polarized_energy": -18.99, 
			 "cosmo_cavitation_energy": 24.63, 
			 "cosmo_dispersion_energy": -18.85, 
			 "cosmo_repulsion_energy": 1.48, 
			 "cosmo_total_nonelectrostatic_energy": 7.26, 
			 "SMD_solvation_energy": 2.97 
		},
		"coords": [
			{
				"x": -2.7774245068,
				"y": -1.3714653074,
				"z": 2.6944914587,
				"element": "O" 
			},
			{
				"x": -2.1190930761,
				"y": -2.2307067463,
				"z": 1.7754231612,
				"element": "C" 
			},
			{
				"x": -1.6525162813,
				"y": -1.3878640852,
				"z": 0.5872978214,
				"element": "C" 
			},
			{
				"x": -0.9536011875,
				"y": -2.2699063574,
				"z": -0.4826510916,
				"element": "C" 
			},
			{
				"x": 0.5683404554,
				"y": -2.3370845747,
				"z": -0.323564123,
				"element": "C" 
			},
			{
				"x": 1.3204766838,
				"y": -0.7127049178,
				"z": -0.6917463007,
				"element": "S" 
			},
			{
				"x": 1.4032786954,
				"y": -0.5678863883,
				"z": -2.1557895128,
				"element": "O" 
			},
			{
				"x": 2.5229226578,
				"y": -0.5640540296,
				"z": 0.1461936143,
				"element": "O" 
			},
			{
				"x": 0.0339842165,
				"y": 0.4293357125,
				"z": -0.0699796499,
				"element": "C" 
			},
			{
				"x": -0.760303852,
				"y": -0.2182708104,
				"z": 1.0663632225,
				"element": "C" 
			},
			{
				"x": -3.0261956158,
				"y": -1.8862295323,
				"z": 3.4716876414,
				"element": "H" 
			},
			{
				"x": -2.7932473163,
				"y": -3.0247642245,
				"z": 1.4153507569,
				"element": "H" 
			},
			{
				"x": -1.2492503473,
				"y": -2.7253913764,
				"z": 2.2418535355,
				"element": "H" 
			},
			{
				"x": -2.5537172838,
				"y": -0.9587466005,
				"z": 0.1311905647,
				"element": "H" 
			},
			{
				"x": -1.3576531027,
				"y": -3.2889465749,
				"z": -0.4533819249,
				"element": "H" 
			},
			{
				"x": -1.1763627699,
				"y": -1.8917986915,
				"z": -1.4861988381,
				"element": "H" 
			},
			{
				"x": 0.8829762908,
				"y": -2.6134837994,
				"z": 0.6853970754,
				"element": "H" 
			},
			{
				"x": 1.031532697,
				"y": -3.0202259205,
				"z": -1.0402029803,
				"element": "H" 
			},
			{
				"x": 0.5882182633,
				"y": 1.312924854,
				"z": 0.2569039376,
				"element": "H" 
			},
			{
				"x": -0.5928082526,
				"y": 0.6954157542,
				"z": -0.924995674,
				"element": "H" 
			},
			{
				"x": -1.3833242997,
				"y": 0.5350789363,
				"z": 1.5542211218,
				"element": "H" 
			},
			{
				"x": -0.0598320684,
				"y": -0.5676253198,
				"z": 1.8357361837,
				"element": "H" 
			}
		],
		 "valence_orbital": [ 
			{
				"type": "occ",
				"energy": -0.31308,
				"method": "rhf"
			},
			{
				"type": "occ",
				"energy": -0.30082,
				"method": "rhf"
			},
			{
				"type": "occ",
				"energy": -0.2868,
				"method": "rhf"
			},
			{
				"type": "occ",
				"energy": -0.28346,
				"method": "rhf"
			},
			{
				"type": "occ",
				"energy": -0.27257,
				"method": "rhf"
			},
			{
				"type": "unocc",
				"energy": 0.05673,
				"method": "rhf"
			},
			{
				"type": "unocc",
				"energy": 0.05982,
				"method": "rhf"
			},
			{
				"type": "unocc",
				"energy": 0.07313,
				"method": "rhf"
			},
			{
				"type": "unocc",
				"energy": 0.07569,
				"method": "rhf"
			},
			{
				"type": "unocc",
				"energy": 0.08489,
				"method": "rhf"
			}
		],
		"cosmo_sigma_profile": { 
			"-0.025": 0.0,
			"-0.024": 0.0,
			"-0.023": 0.0,
			"-0.022": 0.0,
			"-0.021": 0.0,
			"-0.02": 0.0,
			"-0.019": 0.0,
			"-0.018": 0.0,
			"-0.017": 0.0,
			"-0.016": 0.288535455232,
			"-0.015": 1.34051896874,
			"-0.014": 0.844030704859,
			"-0.013": 0.91689638907,
			"-0.012": 0.682815658254,
			"-0.011": 1.07935950817,
			"-0.01": 1.06891348458,
			"-0.009": 0.7950089942,
			"-0.008": 3.75707363767,
			"-0.007": 10.642362338,
			"-0.006": 11.5413096188,
			"-0.005": 16.6372378313,
			"-0.004": 27.0631530899,
			"-0.003": 22.4455357772,
			"-0.002": 15.5703762669,
			"-0.001": 6.80491935731,
			"0.0": 3.71116449166,
			"0.001": 4.66406982054,
			"0.002": 3.77390350393,
			"0.003": 2.44140915562,
			"0.004": 2.46744093798,
			"0.005": 3.46924703158,
			"0.006": 4.00439648882,
			"0.007": 3.83783622053,
			"0.008": 2.91269873452,
			"0.009": 3.51216978921,
			"0.01": 4.75630628061,
			"0.011": 8.39323546608,
			"0.012": 14.0629878852,
			"0.013": 6.32087693526,
			"0.014": 0.850491646356,
			"0.015": 0.0837355088833,
			"0.016": 0.0,
			"0.017": 0.0,
			"0.018": 0.0,
			"0.019": 0.0,
			"0.02": 0.0,
			"0.021": 0.0,
			"0.022": 0.0,
			"0.023": 0.0,
			"0.024": 0.0,
			"0.025": 0.0
		}
	}
}
