{
	 "smiles": "CC1=CC(N2N=NN=C2CCl)=C(F)C=C1", 
	 "Tm": 325.15, 
	 "num_atms": 23, 
	 "gaussian": { 
		 "optdone": 1, 
		 "sigma_profile": "yes", 
		 "theory": "DFT", 
		 "functional": "B3LYP", 
		 "basiset": "6-31G**", 
		 "properties": { 
			 "R2extent": 3495.1823, 
			 "electric_dipole_moment_norm": 5.83716738581, 
			 "electric_quadrupole_moment_norm": 15.0986356033, 
			 "total_energy": -1126.75981111, 
			 "HOMO_LUMO_gap": 0.20438, 
			 "cosmo_polarized_energy": -12.58, 
			 "cosmo_cavitation_energy": 29.98, 
			 "cosmo_dispersion_energy": -21.11, 
			 "cosmo_repulsion_energy": 1.65, 
			 "cosmo_total_nonelectrostatic_energy": 10.52, 
			 "SMD_solvation_energy": 3.41 
		},
		"coords": [
			{
				"x": -2.8115036863,
				"y": -2.3715457168,
				"z": -1.7784558931,
				"element": "C" 
			},
			{
				"x": -1.4018131635,
				"y": -1.849154174,
				"z": -1.633338827,
				"element": "C" 
			},
			{
				"x": -0.9578559034,
				"y": -1.3219509689,
				"z": -0.4171130669,
				"element": "C" 
			},
			{
				"x": 0.3531864344,
				"y": -0.8633051686,
				"z": -0.2679336844,
				"element": "C" 
			},
			{
				"x": 0.7872092607,
				"y": -0.3626307417,
				"z": 0.991146993,
				"element": "N" 
			},
			{
				"x": 0.5637949863,
				"y": -1.0814960974,
				"z": 2.1283695516,
				"element": "N" 
			},
			{
				"x": 1.0218394699,
				"y": -0.3749229254,
				"z": 3.1054954797,
				"element": "N" 
			},
			{
				"x": 1.5378016705,
				"y": 0.80029659,
				"z": 2.664644931,
				"element": "N" 
			},
			{
				"x": 1.3871747728,
				"y": 0.8028504742,
				"z": 1.3532008118,
				"element": "C" 
			},
			{
				"x": 1.797653376,
				"y": 1.923292558,
				"z": 0.4686573201,
				"element": "C" 
			},
			{
				"x": 0.3657304275,
				"y": 2.7797654064,
				"z": -0.2638397063,
				"element": "Cl" 
			},
			{
				"x": 1.2314762189,
				"y": -0.9457298788,
				"z": -1.3484407808,
				"element": "C" 
			},
			{
				"x": 2.5081152408,
				"y": -0.5261180164,
				"z": -1.2007011931,
				"element": "F" 
			},
			{
				"x": 0.8133083764,
				"y": -1.4469428875,
				"z": -2.5719232594,
				"element": "C" 
			},
			{
				"x": -0.4994086092,
				"y": -1.8959622399,
				"z": -2.7062763273,
				"element": "C" 
			},
			{
				"x": -3.4999042472,
				"y": -1.8583826955,
				"z": -1.1014986389,
				"element": "H" 
			},
			{
				"x": -2.8599451776,
				"y": -3.4420903,
				"z": -1.5451789759,
				"element": "H" 
			},
			{
				"x": -3.18054952,
				"y": -2.2423228415,
				"z": -2.7999256984,
				"element": "H" 
			},
			{
				"x": -1.623090587,
				"y": -1.2609364718,
				"z": 0.4376420859,
				"element": "H" 
			},
			{
				"x": 2.3346648066,
				"y": 2.6527536632,
				"z": 1.0718930167,
				"element": "H" 
			},
			{
				"x": 2.4132974935,
				"y": 1.5852514617,
				"z": -0.3621234749,
				"element": "H" 
			},
			{
				"x": 1.5190837257,
				"y": -1.4868736028,
				"z": -3.3941977714,
				"element": "H" 
			},
			{
				"x": -0.8271653661,
				"y": -2.2893454266,
				"z": -3.6643028917,
				"element": "H" 
			}
		],
		 "valence_orbital": [ 
			{
				"type": "occ",
				"energy": -0.30212,
				"method": "rhf"
			},
			{
				"type": "occ",
				"energy": -0.30164,
				"method": "rhf"
			},
			{
				"type": "occ",
				"energy": -0.29528,
				"method": "rhf"
			},
			{
				"type": "occ",
				"energy": -0.27592,
				"method": "rhf"
			},
			{
				"type": "occ",
				"energy": -0.26177,
				"method": "rhf"
			},
			{
				"type": "unocc",
				"energy": -0.05739,
				"method": "rhf"
			},
			{
				"type": "unocc",
				"energy": -0.03054,
				"method": "rhf"
			},
			{
				"type": "unocc",
				"energy": -0.0209,
				"method": "rhf"
			},
			{
				"type": "unocc",
				"energy": -0.00078,
				"method": "rhf"
			},
			{
				"type": "unocc",
				"energy": 0.0452,
				"method": "rhf"
			}
		],
		"cosmo_sigma_profile": { 
			"-0.025": 0.0,
			"-0.024": 0.0,
			"-0.023": 0.0,
			"-0.022": 0.0,
			"-0.021": 0.0,
			"-0.02": 0.0,
			"-0.019": 0.0,
			"-0.018": 0.0,
			"-0.017": 0.0,
			"-0.016": 0.0,
			"-0.015": 0.0,
			"-0.014": 0.0,
			"-0.013": 0.0,
			"-0.012": 0.0,
			"-0.011": 0.0,
			"-0.01": 0.8880501037,
			"-0.009": 2.50893972166,
			"-0.008": 5.33642485111,
			"-0.007": 10.3673407023,
			"-0.006": 13.5289122496,
			"-0.005": 15.5400349856,
			"-0.004": 17.2281545662,
			"-0.003": 15.499922093,
			"-0.002": 17.5008020704,
			"-0.001": 22.3115901581,
			"0.0": 18.1638922264,
			"0.001": 18.1657899443,
			"0.002": 19.2304576714,
			"0.003": 15.1146758713,
			"0.004": 10.3818948424,
			"0.005": 10.0274440311,
			"0.006": 4.82834134647,
			"0.007": 4.44886347472,
			"0.008": 4.70132730986,
			"0.009": 5.69447662159,
			"0.01": 2.93332818643,
			"0.011": 3.8844387601,
			"0.012": 2.13719556068,
			"0.013": 1.84136426272,
			"0.014": 0.766240767724,
			"0.015": 0.0,
			"0.016": 0.0,
			"0.017": 0.0,
			"0.018": 0.0,
			"0.019": 0.0,
			"0.02": 0.0,
			"0.021": 0.0,
			"0.022": 0.0,
			"0.023": 0.0,
			"0.024": 0.0,
			"0.025": 0.0
		}
	}
}
