{
	 "smiles": "CCC1=NC(N)=NO1", 
	 "Tm": 313.15, 
	 "num_atms": 15, 
	 "gaussian": { 
		 "optdone": 1, 
		 "sigma_profile": "yes", 
		 "theory": "DFT", 
		 "functional": "B3LYP", 
		 "basiset": "6-31G**", 
		 "properties": { 
			 "R2extent": 1847.9531, 
			 "electric_dipole_moment_norm": 1.86081478122, 
			 "electric_quadrupole_moment_norm": 12.330734013, 
			 "total_energy": -396.094275296, 
			 "HOMO_LUMO_gap": 0.22827, 
			 "cosmo_polarized_energy": -11.29, 
			 "cosmo_cavitation_energy": 19.28, 
			 "cosmo_dispersion_energy": -14.5, 
			 "cosmo_repulsion_energy": 1.24, 
			 "cosmo_total_nonelectrostatic_energy": 6.03, 
			 "SMD_solvation_energy": 1.34 
		},
		"coords": [
			{
				"x": -0.4955318397,
				"y": -0.8608988941,
				"z": 1.1204965815,
				"element": "C" 
			},
			{
				"x": 0.5649141083,
				"y": -0.5700142747,
				"z": 0.0438903219,
				"element": "C" 
			},
			{
				"x": 1.1755631291,
				"y": 0.785859856,
				"z": 0.1826523972,
				"element": "C" 
			},
			{
				"x": 2.4173164848,
				"y": 1.0872838046,
				"z": 0.4350981221,
				"element": "N" 
			},
			{
				"x": 2.3775284502,
				"y": 2.4671382969,
				"z": 0.4593911023,
				"element": "C" 
			},
			{
				"x": 3.4969520827,
				"y": 3.2029991617,
				"z": 0.7549587155,
				"element": "N" 
			},
			{
				"x": 1.1967227033,
				"y": 3.0032406178,
				"z": 0.2303403888,
				"element": "N" 
			},
			{
				"x": 0.378567783,
				"y": 1.8548711539,
				"z": 0.0507899284,
				"element": "O" 
			},
			{
				"x": -0.9176693049,
				"y": -1.8590126202,
				"z": 0.9734803698,
				"element": "H" 
			},
			{
				"x": -0.0580674149,
				"y": -0.8198546058,
				"z": 2.1222987826,
				"element": "H" 
			},
			{
				"x": -1.3100685673,
				"y": -0.1333423521,
				"z": 1.0742179212,
				"element": "H" 
			},
			{
				"x": 0.1105109453,
				"y": -0.6474796998,
				"z": -0.9511701864,
				"element": "H" 
			},
			{
				"x": 1.3800452867,
				"y": -1.2959620953,
				"z": 0.091805156,
				"element": "H" 
			},
			{
				"x": 4.3669679144,
				"y": 2.7395945709,
				"z": 0.5376366259,
				"element": "H" 
			},
			{
				"x": 3.4570482391,
				"y": 4.1760770803,
				"z": 0.4880137733,
				"element": "H" 
			}
		],
		 "valence_orbital": [ 
			{
				"type": "occ",
				"energy": -0.35765,
				"method": "rhf"
			},
			{
				"type": "occ",
				"energy": -0.327,
				"method": "rhf"
			},
			{
				"type": "occ",
				"energy": -0.29382,
				"method": "rhf"
			},
			{
				"type": "occ",
				"energy": -0.28695,
				"method": "rhf"
			},
			{
				"type": "occ",
				"energy": -0.23521,
				"method": "rhf"
			},
			{
				"type": "unocc",
				"energy": -0.00694,
				"method": "rhf"
			},
			{
				"type": "unocc",
				"energy": 0.06209,
				"method": "rhf"
			},
			{
				"type": "unocc",
				"energy": 0.07478,
				"method": "rhf"
			},
			{
				"type": "unocc",
				"energy": 0.10156,
				"method": "rhf"
			},
			{
				"type": "unocc",
				"energy": 0.12802,
				"method": "rhf"
			}
		],
		"cosmo_sigma_profile": { 
			"-0.025": 0.0,
			"-0.024": 0.0,
			"-0.023": 0.0,
			"-0.022": 0.0,
			"-0.021": 0.0,
			"-0.02": 0.0,
			"-0.019": 0.0,
			"-0.018": 0.0,
			"-0.017": 0.0,
			"-0.016": 0.0,
			"-0.015": 0.151458959287,
			"-0.014": 1.76181396707,
			"-0.013": 2.61613070338,
			"-0.012": 1.9542012458,
			"-0.011": 2.35000916085,
			"-0.01": 2.89409409174,
			"-0.009": 1.23561609288,
			"-0.008": 1.73207980786,
			"-0.007": 2.02928502952,
			"-0.006": 5.37585618918,
			"-0.005": 6.99258339196,
			"-0.004": 12.1026650422,
			"-0.003": 16.9810755254,
			"-0.002": 14.855362386,
			"-0.001": 11.7484021434,
			"0.0": 11.7085358209,
			"0.001": 5.83829670771,
			"0.002": 3.74929131975,
			"0.003": 3.88342817991,
			"0.004": 3.53875771533,
			"0.005": 5.2151345793,
			"0.006": 4.63072587602,
			"0.007": 4.44834208244,
			"0.008": 5.70286164979,
			"0.009": 4.59563629558,
			"0.01": 2.96846783737,
			"0.011": 2.96039816829,
			"0.012": 2.6399533719,
			"0.013": 2.45842687723,
			"0.014": 2.41267325901,
			"0.015": 0.73104462897,
			"0.016": 0.0,
			"0.017": 0.0,
			"0.018": 0.0,
			"0.019": 0.0,
			"0.02": 0.0,
			"0.021": 0.0,
			"0.022": 0.0,
			"0.023": 0.0,
			"0.024": 0.0,
			"0.025": 0.0
		}
	}
}
