{
	 "smiles": "NNC(=O)NCC1=CC=C(Cl)C=C1", 
	 "Tm": 437.15, 
	 "num_atms": 23, 
	 "gaussian": { 
		 "optdone": 1, 
		 "sigma_profile": "yes", 
		 "theory": "DFT", 
		 "functional": "B3LYP", 
		 "basiset": "6-31G**", 
		 "properties": { 
			 "R2extent": 6025.1481, 
			 "electric_dipole_moment_norm": 2.25238913601, 
			 "electric_quadrupole_moment_norm": 16.469777473, 
			 "total_energy": -1010.53794421, 
			 "HOMO_LUMO_gap": 0.2201, 
			 "cosmo_polarized_energy": -15.47, 
			 "cosmo_cavitation_energy": 29.41, 
			 "cosmo_dispersion_energy": -21.62, 
			 "cosmo_repulsion_energy": 1.75, 
			 "cosmo_total_nonelectrostatic_energy": 9.53, 
			 "SMD_solvation_energy": 5.31 
		},
		"coords": [
			{
				"x": -0.3123316569,
				"y": 0.2666450522,
				"z": -5.1258409366,
				"element": "N" 
			},
			{
				"x": -0.1849480637,
				"y": -0.0997011803,
				"z": -3.7620401438,
				"element": "N" 
			},
			{
				"x": 0.2714576003,
				"y": -1.3812317336,
				"z": -3.4776260789,
				"element": "C" 
			},
			{
				"x": 0.3687972886,
				"y": -2.2462983192,
				"z": -4.3409823043,
				"element": "O" 
			},
			{
				"x": 0.6189124045,
				"y": -1.611907275,
				"z": -2.1566126498,
				"element": "N" 
			},
			{
				"x": 0.1175414722,
				"y": -0.8411265987,
				"z": -1.0190806686,
				"element": "C" 
			},
			{
				"x": 0.7075113754,
				"y": -1.3484324006,
				"z": 0.2803856479,
				"element": "C" 
			},
			{
				"x": -0.1166721677,
				"y": -1.642847752,
				"z": 1.371044694,
				"element": "C" 
			},
			{
				"x": 0.4192142707,
				"y": -2.0856202655,
				"z": 2.5815455281,
				"element": "C" 
			},
			{
				"x": 1.7991111336,
				"y": -2.2407314776,
				"z": 2.6937931923,
				"element": "C" 
			},
			{
				"x": 2.4868287856,
				"y": -2.8024099245,
				"z": 4.2100421291,
				"element": "Cl" 
			},
			{
				"x": 2.644341816,
				"y": -1.9602368834,
				"z": 1.6190947578,
				"element": "C" 
			},
			{
				"x": 2.0925906865,
				"y": -1.5143286629,
				"z": 0.4199657842,
				"element": "C" 
			},
			{
				"x": 0.3118542551,
				"y": -0.345004217,
				"z": -5.6550097265,
				"element": "H" 
			},
			{
				"x": -1.2526316321,
				"y": 0.002377932,
				"z": -5.4154299124,
				"element": "H" 
			},
			{
				"x": 0.1768426139,
				"y": 0.6586135827,
				"z": -3.1990303564,
				"element": "H" 
			},
			{
				"x": 0.7564176518,
				"y": -2.6001244453,
				"z": -1.987886274,
				"element": "H" 
			},
			{
				"x": 0.4068211662,
				"y": 0.2107121041,
				"z": -1.1484861256,
				"element": "H" 
			},
			{
				"x": -0.9802607976,
				"y": -0.8582211749,
				"z": -0.96144079,
				"element": "H" 
			},
			{
				"x": -1.1934702978,
				"y": -1.5277767143,
				"z": 1.2793050391,
				"element": "H" 
			},
			{
				"x": -0.2250833164,
				"y": -2.3133664979,
				"z": 3.4233884181,
				"element": "H" 
			},
			{
				"x": 3.7161606268,
				"y": -2.087717161,
				"z": 1.7232732846,
				"element": "H" 
			},
			{
				"x": 2.7443947849,
				"y": -1.2983659873,
				"z": -0.4215725081,
				"element": "H" 
			}
		],
		 "valence_orbital": [ 
			{
				"type": "occ",
				"energy": -0.27414,
				"method": "rhf"
			},
			{
				"type": "occ",
				"energy": -0.26895,
				"method": "rhf"
			},
			{
				"type": "occ",
				"energy": -0.2612,
				"method": "rhf"
			},
			{
				"type": "occ",
				"energy": -0.25008,
				"method": "rhf"
			},
			{
				"type": "occ",
				"energy": -0.24783,
				"method": "rhf"
			},
			{
				"type": "unocc",
				"energy": -0.02773,
				"method": "rhf"
			},
			{
				"type": "unocc",
				"energy": -0.02395,
				"method": "rhf"
			},
			{
				"type": "unocc",
				"energy": 0.02273,
				"method": "rhf"
			},
			{
				"type": "unocc",
				"energy": 0.0459,
				"method": "rhf"
			},
			{
				"type": "unocc",
				"energy": 0.07161,
				"method": "rhf"
			}
		],
		"cosmo_sigma_profile": { 
			"-0.025": 0.0,
			"-0.024": 0.0,
			"-0.023": 0.0,
			"-0.022": 0.0,
			"-0.021": 0.0,
			"-0.02": 0.0,
			"-0.019": 0.0,
			"-0.018": 0.0,
			"-0.017": 0.0,
			"-0.016": 0.0,
			"-0.015": 0.0,
			"-0.014": 0.507230128086,
			"-0.013": 1.64051761628,
			"-0.012": 2.40627239643,
			"-0.011": 2.66784096846,
			"-0.01": 3.62510213464,
			"-0.009": 4.17530828628,
			"-0.008": 4.50601269193,
			"-0.007": 9.62247126833,
			"-0.006": 12.9375594207,
			"-0.005": 15.3704604346,
			"-0.004": 14.8231326317,
			"-0.003": 13.2660797186,
			"-0.002": 12.7094759578,
			"-0.001": 13.085149957,
			"0.0": 12.1918957738,
			"0.001": 16.8156522984,
			"0.002": 17.2844082901,
			"0.003": 20.4195758761,
			"0.004": 18.3443308319,
			"0.005": 11.2252847251,
			"0.006": 2.86361735331,
			"0.007": 2.30763500592,
			"0.008": 1.75473100017,
			"0.009": 2.39469276161,
			"0.01": 1.62365006326,
			"0.011": 2.09100820092,
			"0.012": 2.49989098611,
			"0.013": 3.17955565094,
			"0.014": 5.62416455481,
			"0.015": 2.35898390396,
			"0.016": 0.545756200149,
			"0.017": 0.394231617467,
			"0.018": 0.0418233181607,
			"0.019": 0.0,
			"0.02": 0.0,
			"0.021": 0.0,
			"0.022": 0.0,
			"0.023": 0.0,
			"0.024": 0.0,
			"0.025": 0.0
		}
	}
}
