{
	 "smiles": "FC1=C(CN2N=CC(Cl)=C(Cl)C2=O)C=CC=C1", 
	 "Tm": 384.15, 
	 "num_atms": 24, 
	 "gaussian": { 
		 "optdone": 1, 
		 "sigma_profile": "yes", 
		 "theory": "DFT", 
		 "functional": "B3LYP", 
		 "basiset": "6-31G**", 
		 "properties": { 
			 "R2extent": 7880.4605, 
			 "electric_dipole_moment_norm": 3.4451218977, 
			 "electric_quadrupole_moment_norm": 14.3838987378, 
			 "total_energy": -1628.30321996, 
			 "HOMO_LUMO_gap": 0.1675, 
			 "cosmo_polarized_energy": -11.31, 
			 "cosmo_cavitation_energy": 33.04, 
			 "cosmo_dispersion_energy": -23.69, 
			 "cosmo_repulsion_energy": 1.81, 
			 "cosmo_total_nonelectrostatic_energy": 11.17, 
			 "SMD_solvation_energy": 5.45 
		},
		"coords": [
			{
				"x": 1.4528157255,
				"y": -1.8732682638,
				"z": 0.1662365298,
				"element": "F" 
			},
			{
				"x": 1.2910137874,
				"y": -0.594577985,
				"z": -0.232116659,
				"element": "C" 
			},
			{
				"x": 0.0185972465,
				"y": -0.0233344932,
				"z": -0.1784533239,
				"element": "C" 
			},
			{
				"x": -1.1643426899,
				"y": -0.8145714632,
				"z": 0.3382636571,
				"element": "C" 
			},
			{
				"x": -1.7999857485,
				"y": -0.1855356119,
				"z": 1.5114112868,
				"element": "N" 
			},
			{
				"x": -2.8939113746,
				"y": 0.5454261001,
				"z": 1.2624060584,
				"element": "N" 
			},
			{
				"x": -3.4792829961,
				"y": 1.1403245088,
				"z": 2.2647032405,
				"element": "C" 
			},
			{
				"x": -3.0036842291,
				"y": 1.0449985511,
				"z": 3.6085307694,
				"element": "C" 
			},
			{
				"x": -3.8896021425,
				"y": 1.885772266,
				"z": 4.8438737044,
				"element": "Cl" 
			},
			{
				"x": -1.8846062938,
				"y": 0.3042783342,
				"z": 3.8654929501,
				"element": "C" 
			},
			{
				"x": -1.2100503029,
				"y": 0.1076779626,
				"z": 5.4360109557,
				"element": "Cl" 
			},
			{
				"x": -1.1826985632,
				"y": -0.3726921043,
				"z": 2.7655082185,
				"element": "C" 
			},
			{
				"x": -0.1695982983,
				"y": -1.044867316,
				"z": 2.8757291618,
				"element": "O" 
			},
			{
				"x": -0.1166188701,
				"y": 1.2991734846,
				"z": -0.6209276846,
				"element": "C" 
			},
			{
				"x": 0.981835165,
				"y": 2.0170170884,
				"z": -1.0916536803,
				"element": "C" 
			},
			{
				"x": 2.2425895113,
				"y": 1.4149385552,
				"z": -1.1286781669,
				"element": "C" 
			},
			{
				"x": 2.4027057095,
				"y": 0.0985634631,
				"z": -0.6987640188,
				"element": "C" 
			},
			{
				"x": -0.844034616,
				"y": -1.8131422892,
				"z": 0.6326222888,
				"element": "H" 
			},
			{
				"x": -1.9518633267,
				"y": -0.8853352435,
				"z": -0.4140759994,
				"element": "H" 
			},
			{
				"x": -4.3651854701,
				"y": 1.721717479,
				"z": 2.0357950721,
				"element": "H" 
			},
			{
				"x": -1.0982184086,
				"y": 1.7640681777,
				"z": -0.5877763181,
				"element": "H" 
			},
			{
				"x": 0.8557161409,
				"y": 3.0408546255,
				"z": -1.4294389963,
				"element": "H" 
			},
			{
				"x": 3.1025645692,
				"y": 1.9679755172,
				"z": -1.4941824488,
				"element": "H" 
			},
			{
				"x": 3.366345475,
				"y": -0.3987613436,
				"z": -0.7144165973,
				"element": "H" 
			}
		],
		 "valence_orbital": [ 
			{
				"type": "occ",
				"energy": -0.29351,
				"method": "rhf"
			},
			{
				"type": "occ",
				"energy": -0.27346,
				"method": "rhf"
			},
			{
				"type": "occ",
				"energy": -0.26148,
				"method": "rhf"
			},
			{
				"type": "occ",
				"energy": -0.24873,
				"method": "rhf"
			},
			{
				"type": "occ",
				"energy": -0.2478,
				"method": "rhf"
			},
			{
				"type": "unocc",
				"energy": -0.0803,
				"method": "rhf"
			},
			{
				"type": "unocc",
				"energy": -0.02149,
				"method": "rhf"
			},
			{
				"type": "unocc",
				"energy": -0.01971,
				"method": "rhf"
			},
			{
				"type": "unocc",
				"energy": -0.01122,
				"method": "rhf"
			},
			{
				"type": "unocc",
				"energy": -0.00231,
				"method": "rhf"
			}
		],
		"cosmo_sigma_profile": { 
			"-0.025": 0.0,
			"-0.024": 0.0,
			"-0.023": 0.0,
			"-0.022": 0.0,
			"-0.021": 0.0,
			"-0.02": 0.0,
			"-0.019": 0.0,
			"-0.018": 0.0,
			"-0.017": 0.0,
			"-0.016": 0.0,
			"-0.015": 0.0,
			"-0.014": 0.0,
			"-0.013": 0.0,
			"-0.012": 0.0,
			"-0.011": 0.0,
			"-0.01": 1.123799069,
			"-0.009": 1.62376586679,
			"-0.008": 2.10940479169,
			"-0.007": 6.43655258169,
			"-0.006": 13.4772441829,
			"-0.005": 16.4513237336,
			"-0.004": 24.48823519,
			"-0.003": 24.7516546322,
			"-0.002": 19.5608130377,
			"-0.001": 18.9901430341,
			"0.0": 18.8583387307,
			"0.001": 19.9060948997,
			"0.002": 26.6251991578,
			"0.003": 26.3841575688,
			"0.004": 19.4514549858,
			"0.005": 7.40313948593,
			"0.006": 3.05643351815,
			"0.007": 3.08192175487,
			"0.008": 2.55590344454,
			"0.009": 4.04487713422,
			"0.01": 3.12144829712,
			"0.011": 2.66751149801,
			"0.012": 3.32247205897,
			"0.013": 1.41650473041,
			"0.014": 0.00585967942973,
			"0.015": 0.0,
			"0.016": 0.0,
			"0.017": 0.0,
			"0.018": 0.0,
			"0.019": 0.0,
			"0.02": 0.0,
			"0.021": 0.0,
			"0.022": 0.0,
			"0.023": 0.0,
			"0.024": 0.0,
			"0.025": 0.0
		}
	}
}
