{
	 "smiles": "CC1=CC=C(O1)C(=O)C=CC1=CC=C(Br)O1", 
	 "Tm": 342.15, 
	 "num_atms": 25, 
	 "gaussian": { 
		 "optdone": 1, 
		 "sigma_profile": "yes", 
		 "theory": "DFT", 
		 "functional": "B3LYP", 
		 "basiset": "6-31G**", 
		 "properties": { 
			 "R2extent": 13200.4167, 
			 "electric_dipole_moment_norm": 4.79372271831, 
			 "electric_quadrupole_moment_norm": 13.5799188488, 
			 "total_energy": -3259.71534634, 
			 "HOMO_LUMO_gap": 0.13809, 
			 "cosmo_polarized_energy": -14.35, 
			 "cosmo_cavitation_energy": 34.14, 
			 "cosmo_dispersion_energy": -25.05, 
			 "cosmo_repulsion_energy": 1.96, 
			 "cosmo_total_nonelectrostatic_energy": 11.05, 
			 "SMD_solvation_energy": 6.6 
		},
		"coords": [
			{
				"x": 3.5570242282,
				"y": 1.8923739758,
				"z": -2.5739284599,
				"element": "C" 
			},
			{
				"x": 2.8141160602,
				"y": 0.8374958429,
				"z": -1.8332476486,
				"element": "C" 
			},
			{
				"x": 2.7901292041,
				"y": -0.5313294372,
				"z": -1.9202556973,
				"element": "C" 
			},
			{
				"x": 1.8704147025,
				"y": -0.979474012,
				"z": -0.9320002243,
				"element": "C" 
			},
			{
				"x": 1.3881226823,
				"y": 0.1441786986,
				"z": -0.3010221967,
				"element": "C" 
			},
			{
				"x": 1.9697885553,
				"y": 1.2542130609,
				"z": -0.8572568072,
				"element": "O" 
			},
			{
				"x": 0.4290148362,
				"y": 0.3756711099,
				"z": 0.7878419475,
				"element": "C" 
			},
			{
				"x": 0.1658362194,
				"y": 1.5122264884,
				"z": 1.1771048049,
				"element": "O" 
			},
			{
				"x": -0.1919173105,
				"y": -0.8315260347,
				"z": 1.3818635392,
				"element": "C" 
			},
			{
				"x": -1.0821402604,
				"y": -0.7000716984,
				"z": 2.3881361462,
				"element": "C" 
			},
			{
				"x": -1.7638257677,
				"y": -1.7671455496,
				"z": 3.0618540715,
				"element": "C" 
			},
			{
				"x": -1.7778960494,
				"y": -3.1407025891,
				"z": 2.9629608542,
				"element": "C" 
			},
			{
				"x": -2.6885625402,
				"y": -3.6271940738,
				"z": 3.9415035334,
				"element": "C" 
			},
			{
				"x": -3.1697884872,
				"y": -2.5140283286,
				"z": 4.5729884742,
				"element": "C" 
			},
			{
				"x": -4.3980380143,
				"y": -2.3197366346,
				"z": 5.9647646321,
				"element": "Br" 
			},
			{
				"x": -2.6337754594,
				"y": -1.3849968126,
				"z": 4.0673960967,
				"element": "O" 
			},
			{
				"x": 2.8684890356,
				"y": 2.5831382727,
				"z": -3.0731161048,
				"element": "H" 
			},
			{
				"x": 4.2007880144,
				"y": 1.4374431711,
				"z": -3.329665646,
				"element": "H" 
			},
			{
				"x": 4.1810647841,
				"y": 2.4852177295,
				"z": -1.8960388414,
				"element": "H" 
			},
			{
				"x": 3.3622576353,
				"y": -1.1368757166,
				"z": -2.6084734211,
				"element": "H" 
			},
			{
				"x": 1.6023097305,
				"y": -2.0038478941,
				"z": -0.7180884298,
				"element": "H" 
			},
			{
				"x": 0.0809115775,
				"y": -1.8092533791,
				"z": 0.9958588778,
				"element": "H" 
			},
			{
				"x": -1.3092496658,
				"y": 0.3088808622,
				"z": 2.7258529616,
				"element": "H" 
			},
			{
				"x": -1.2005462737,
				"y": -3.7326256048,
				"z": 2.2673548038,
				"element": "H" 
			},
			{
				"x": -2.9556274372,
				"y": -4.6506314468,
				"z": 4.1550127338,
				"element": "H" 
			}
		],
		 "valence_orbital": [ 
			{
				"type": "occ",
				"energy": -0.28883,
				"method": "rhf"
			},
			{
				"type": "occ",
				"energy": -0.28755,
				"method": "rhf"
			},
			{
				"type": "occ",
				"energy": -0.24444,
				"method": "rhf"
			},
			{
				"type": "occ",
				"energy": -0.2316,
				"method": "rhf"
			},
			{
				"type": "occ",
				"energy": -0.21607,
				"method": "rhf"
			},
			{
				"type": "unocc",
				"energy": -0.07798,
				"method": "rhf"
			},
			{
				"type": "unocc",
				"energy": -0.0176,
				"method": "rhf"
			},
			{
				"type": "unocc",
				"energy": 0.00233,
				"method": "rhf"
			},
			{
				"type": "unocc",
				"energy": 0.02458,
				"method": "rhf"
			},
			{
				"type": "unocc",
				"energy": 0.04704,
				"method": "rhf"
			}
		],
		"cosmo_sigma_profile": { 
			"-0.025": 0.0,
			"-0.024": 0.0,
			"-0.023": 0.0,
			"-0.022": 0.0,
			"-0.021": 0.0,
			"-0.02": 0.0,
			"-0.019": 0.0,
			"-0.018": 0.0,
			"-0.017": 0.0,
			"-0.016": 0.0,
			"-0.015": 0.0,
			"-0.014": 0.0,
			"-0.013": 0.0,
			"-0.012": 0.0,
			"-0.011": 0.0,
			"-0.01": 0.437975160898,
			"-0.009": 3.46950657189,
			"-0.008": 8.48753117315,
			"-0.007": 8.04005415264,
			"-0.006": 14.1354360535,
			"-0.005": 16.4187239458,
			"-0.004": 16.2607295641,
			"-0.003": 15.7870045729,
			"-0.002": 18.1481305453,
			"-0.001": 24.4656238813,
			"0.0": 27.0641667029,
			"0.001": 28.1161932606,
			"0.002": 30.4420913561,
			"0.003": 28.9099531586,
			"0.004": 8.40858832147,
			"0.005": 3.72676946992,
			"0.006": 3.64642164852,
			"0.007": 2.79529334594,
			"0.008": 1.47531218737,
			"0.009": 1.88324102037,
			"0.01": 2.58249396045,
			"0.011": 2.39166877949,
			"0.012": 3.41747162135,
			"0.013": 5.04521320047,
			"0.014": 2.28322341229,
			"0.015": 0.502843861789,
			"0.016": 0.0,
			"0.017": 0.0,
			"0.018": 0.0,
			"0.019": 0.0,
			"0.02": 0.0,
			"0.021": 0.0,
			"0.022": 0.0,
			"0.023": 0.0,
			"0.024": 0.0,
			"0.025": 0.0
		}
	}
}
