{
	 "smiles": "OC(=O)C=CC1=CC(C=CC(O)=O)=CC=C1", 
	 "Tm": 553.15, 
	 "num_atms": 26, 
	 "gaussian": { 
		 "optdone": 1, 
		 "sigma_profile": "yes", 
		 "theory": "DFT", 
		 "functional": "B3LYP", 
		 "basiset": "6-31G**", 
		 "properties": { 
			 "R2extent": 6346.0455, 
			 "electric_dipole_moment_norm": 1.60340724708, 
			 "electric_quadrupole_moment_norm": 60.8878229511, 
			 "total_energy": -764.18379019, 
			 "HOMO_LUMO_gap": 0.16363, 
			 "cosmo_polarized_energy": -29.04, 
			 "cosmo_cavitation_energy": 32.77, 
			 "cosmo_dispersion_energy": -23.41, 
			 "cosmo_repulsion_energy": 1.82, 
			 "cosmo_total_nonelectrostatic_energy": 11.18, 
			 "SMD_solvation_energy": 8.21 
		},
		"coords": [
			{
				"x": 3.867759852,
				"y": -3.9381433716,
				"z": 0.9961241496,
				"element": "O" 
			},
			{
				"x": 3.9935924544,
				"y": -2.5997003879,
				"z": 0.7791345479,
				"element": "C" 
			},
			{
				"x": 5.0921152343,
				"y": -2.0923828108,
				"z": 0.7720506977,
				"element": "O" 
			},
			{
				"x": 2.7231528892,
				"y": -1.8568325771,
				"z": 0.5633104997,
				"element": "C" 
			},
			{
				"x": 2.7625361079,
				"y": -0.5333425825,
				"z": 0.3283704668,
				"element": "C" 
			},
			{
				"x": 1.6428321009,
				"y": 0.3792060626,
				"z": 0.0922035708,
				"element": "C" 
			},
			{
				"x": 0.2962143897,
				"y": -0.0200779686,
				"z": 0.1483776189,
				"element": "C" 
			},
			{
				"x": -0.751942222,
				"y": 0.8779689132,
				"z": -0.0897624541,
				"element": "C" 
			},
			{
				"x": -2.1318576841,
				"y": 0.385182043,
				"z": -0.0124106246,
				"element": "C" 
			},
			{
				"x": -3.2580959703,
				"y": 1.0569339659,
				"z": -0.3139453451,
				"element": "C" 
			},
			{
				"x": -4.6254643739,
				"y": 0.4740260067,
				"z": -0.2788662375,
				"element": "C" 
			},
			{
				"x": -4.8304620325,
				"y": -0.5977033987,
				"z": 0.5383859463,
				"element": "O" 
			},
			{
				"x": -5.5308185189,
				"y": 0.907970719,
				"z": -0.9519113972,
				"element": "O" 
			},
			{
				"x": -0.4343656346,
				"y": 2.2196726269,
				"z": -0.385931261,
				"element": "C" 
			},
			{
				"x": 0.8913290983,
				"y": 2.6326614498,
				"z": -0.4414677806,
				"element": "C" 
			},
			{
				"x": 1.9234884573,
				"y": 1.723842087,
				"z": -0.2042290751,
				"element": "C" 
			},
			{
				"x": 2.9376442656,
				"y": -4.201347422,
				"z": 0.9673196814,
				"element": "H" 
			},
			{
				"x": 1.7839846019,
				"y": -2.4055577903,
				"z": 0.5961771266,
				"element": "H" 
			},
			{
				"x": 3.7562021929,
				"y": -0.0882618242,
				"z": 0.307678009,
				"element": "H" 
			},
			{
				"x": 0.0516318513,
				"y": -1.0523937495,
				"z": 0.3827754257,
				"element": "H" 
			},
			{
				"x": -2.2156234403,
				"y": -0.6574329342,
				"z": 0.2971485649,
				"element": "H" 
			},
			{
				"x": -3.2347379165,
				"y": 2.0680770792,
				"z": -0.7070400243,
				"element": "H" 
			},
			{
				"x": -4.0838849683,
				"y": -0.6962698007,
				"z": 1.1452349654,
				"element": "H" 
			},
			{
				"x": -1.2263379369,
				"y": 2.9394407784,
				"z": -0.5644766788,
				"element": "H" 
			},
			{
				"x": 1.1250871845,
				"y": 3.6684356503,
				"z": -0.6674707205,
				"element": "H" 
			},
			{
				"x": 2.9577200181,
				"y": 2.0532292363,
				"z": -0.247879672,
				"element": "H" 
			}
		],
		 "valence_orbital": [ 
			{
				"type": "occ",
				"energy": -0.31007,
				"method": "rhf"
			},
			{
				"type": "occ",
				"energy": -0.27922,
				"method": "rhf"
			},
			{
				"type": "occ",
				"energy": -0.27809,
				"method": "rhf"
			},
			{
				"type": "occ",
				"energy": -0.26569,
				"method": "rhf"
			},
			{
				"type": "occ",
				"energy": -0.25301,
				"method": "rhf"
			},
			{
				"type": "unocc",
				"energy": -0.08938,
				"method": "rhf"
			},
			{
				"type": "unocc",
				"energy": -0.07849,
				"method": "rhf"
			},
			{
				"type": "unocc",
				"energy": -0.01306,
				"method": "rhf"
			},
			{
				"type": "unocc",
				"energy": 0.01174,
				"method": "rhf"
			},
			{
				"type": "unocc",
				"energy": 0.04804,
				"method": "rhf"
			}
		],
		"cosmo_sigma_profile": { 
			"-0.025": 0.0,
			"-0.024": 0.0,
			"-0.023": 0.0,
			"-0.022": 0.0,
			"-0.021": 0.0,
			"-0.02": 0.0185259986853,
			"-0.019": 0.901856562007,
			"-0.018": 2.16268816202,
			"-0.017": 2.21019364109,
			"-0.016": 1.93099016957,
			"-0.015": 2.0399343556,
			"-0.014": 1.78948370867,
			"-0.013": 2.25223127934,
			"-0.012": 2.22783559669,
			"-0.011": 2.28369349652,
			"-0.01": 3.0401481454,
			"-0.009": 6.77506096748,
			"-0.008": 9.14672385314,
			"-0.007": 10.9470539291,
			"-0.006": 12.210533037,
			"-0.005": 11.9211938195,
			"-0.004": 9.58164805917,
			"-0.003": 11.7443961895,
			"-0.002": 12.9834313974,
			"-0.001": 13.4218227669,
			"0.0": 16.0854671565,
			"0.001": 19.9095455311,
			"0.002": 23.452693766,
			"0.003": 16.6052949812,
			"0.004": 5.0118743236,
			"0.005": 3.96866562758,
			"0.006": 5.58609409575,
			"0.007": 3.83212548469,
			"0.008": 5.6823411696,
			"0.009": 5.45670545227,
			"0.01": 8.97216361236,
			"0.011": 10.1572810532,
			"0.012": 11.4850445079,
			"0.013": 6.09783896037,
			"0.014": 0.758108829024,
			"0.015": 0.0,
			"0.016": 0.0,
			"0.017": 0.0,
			"0.018": 0.0,
			"0.019": 0.0,
			"0.02": 0.0,
			"0.021": 0.0,
			"0.022": 0.0,
			"0.023": 0.0,
			"0.024": 0.0,
			"0.025": 0.0
		}
	}
}
