{
	 "smiles": "CC(C)(C)NSC1=NC2=C(S1)C=CC=C2", 
	 "Tm": 380.65, 
	 "num_atms": 29, 
	 "gaussian": { 
		 "optdone": 1, 
		 "sigma_profile": "yes", 
		 "theory": "DFT", 
		 "functional": "B3LYP", 
		 "basiset": "6-31G**", 
		 "properties": { 
			 "R2extent": 5224.6932, 
			 "electric_dipole_moment_norm": 2.83770555379, 
			 "electric_quadrupole_moment_norm": 11.5335618557, 
			 "total_energy": -1333.48917374, 
			 "HOMO_LUMO_gap": 0.19055, 
			 "cosmo_polarized_energy": -8.93, 
			 "cosmo_cavitation_energy": 34.45, 
			 "cosmo_dispersion_energy": -25.36, 
			 "cosmo_repulsion_energy": 1.88, 
			 "cosmo_total_nonelectrostatic_energy": 10.97, 
			 "SMD_solvation_energy": 3.37 
		},
		"coords": [
			{
				"x": 0.7212495853,
				"y": -2.7978509975,
				"z": -0.6994177463,
				"element": "C" 
			},
			{
				"x": 1.2789864057,
				"y": -1.9786079329,
				"z": -1.8701884894,
				"element": "C" 
			},
			{
				"x": 0.3344883954,
				"y": -2.0768653794,
				"z": -3.0801428388,
				"element": "C" 
			},
			{
				"x": 2.6852589114,
				"y": -2.475437388,
				"z": -2.2560938021,
				"element": "C" 
			},
			{
				"x": 1.2808622002,
				"y": -0.530554737,
				"z": -1.4996727079,
				"element": "N" 
			},
			{
				"x": 2.276952481,
				"y": -0.0029993687,
				"z": -0.1938104877,
				"element": "S" 
			},
			{
				"x": 1.0302132029,
				"y": 0.6428203405,
				"z": 0.8835868615,
				"element": "C" 
			},
			{
				"x": 1.3220986511,
				"y": 1.1218669833,
				"z": 2.0442796834,
				"element": "N" 
			},
			{
				"x": 0.1817689298,
				"y": 1.5974034327,
				"z": 2.6790705804,
				"element": "C" 
			},
			{
				"x": -1.0192537364,
				"y": 1.4595035948,
				"z": 1.9410546973,
				"element": "C" 
			},
			{
				"x": -0.6826323636,
				"y": 0.7033181481,
				"z": 0.3877096166,
				"element": "S" 
			},
			{
				"x": -2.2422002468,
				"y": 1.8890643209,
				"z": 2.4600979802,
				"element": "C" 
			},
			{
				"x": -2.253904544,
				"y": 2.4646005289,
				"z": 3.7297144277,
				"element": "C" 
			},
			{
				"x": -1.0681433129,
				"y": 2.6069555056,
				"z": 4.4690523617,
				"element": "C" 
			},
			{
				"x": 0.1506072672,
				"y": 2.1774754011,
				"z": 3.9544710126,
				"element": "C" 
			},
			{
				"x": 0.665957503,
				"y": -3.855011282,
				"z": -0.9768111793,
				"element": "H" 
			},
			{
				"x": 1.3618579289,
				"y": -2.7156376944,
				"z": 0.1831494214,
				"element": "H" 
			},
			{
				"x": -0.2812302251,
				"y": -2.4548712493,
				"z": -0.4297302323,
				"element": "H" 
			},
			{
				"x": 0.2575921423,
				"y": -3.1149138043,
				"z": -3.4171968349,
				"element": "H" 
			},
			{
				"x": 0.7060417389,
				"y": -1.4825479127,
				"z": -3.9236948165,
				"element": "H" 
			},
			{
				"x": -0.6658737131,
				"y": -1.7188807558,
				"z": -2.8215450742,
				"element": "H" 
			},
			{
				"x": 3.0916400787,
				"y": -1.8934827616,
				"z": -3.0912660807,
				"element": "H" 
			},
			{
				"x": 3.3756686666,
				"y": -2.3907531171,
				"z": -1.4106728926,
				"element": "H" 
			},
			{
				"x": 2.6582679049,
				"y": -3.5267246191,
				"z": -2.5613768973,
				"element": "H" 
			},
			{
				"x": 1.4831362347,
				"y": 0.0428106657,
				"z": -2.314724749,
				"element": "H" 
			},
			{
				"x": -3.1613671595,
				"y": 1.7810261057,
				"z": 1.8927863701,
				"element": "H" 
			},
			{
				"x": -3.1944951844,
				"y": 2.8071185899,
				"z": 4.1507842227,
				"element": "H" 
			},
			{
				"x": -1.1046093239,
				"y": 3.0585259266,
				"z": 5.4559908368,
				"element": "H" 
			},
			{
				"x": 1.0746615815,
				"y": 2.2798494559,
				"z": 4.5137967563,
				"element": "H" 
			}
		],
		 "valence_orbital": [ 
			{
				"type": "occ",
				"energy": -0.27517,
				"method": "rhf"
			},
			{
				"type": "occ",
				"energy": -0.2744,
				"method": "rhf"
			},
			{
				"type": "occ",
				"energy": -0.25405,
				"method": "rhf"
			},
			{
				"type": "occ",
				"energy": -0.2291,
				"method": "rhf"
			},
			{
				"type": "occ",
				"energy": -0.2155,
				"method": "rhf"
			},
			{
				"type": "unocc",
				"energy": -0.02495,
				"method": "rhf"
			},
			{
				"type": "unocc",
				"energy": -0.00067,
				"method": "rhf"
			},
			{
				"type": "unocc",
				"energy": 0.0001,
				"method": "rhf"
			},
			{
				"type": "unocc",
				"energy": 0.02532,
				"method": "rhf"
			},
			{
				"type": "unocc",
				"energy": 0.04005,
				"method": "rhf"
			}
		],
		"cosmo_sigma_profile": { 
			"-0.025": 0.0,
			"-0.024": 0.0,
			"-0.023": 0.0,
			"-0.022": 0.0,
			"-0.021": 0.0,
			"-0.02": 0.0,
			"-0.019": 0.0,
			"-0.018": 0.0,
			"-0.017": 0.0,
			"-0.016": 0.0,
			"-0.015": 0.0,
			"-0.014": 0.0,
			"-0.013": 0.168447744156,
			"-0.012": 1.17698941873,
			"-0.011": 1.16362494693,
			"-0.01": 0.972336953215,
			"-0.009": 1.62127444545,
			"-0.008": 1.68362553444,
			"-0.007": 3.36386734022,
			"-0.006": 9.09539191751,
			"-0.005": 11.2602722137,
			"-0.004": 16.9309362218,
			"-0.003": 23.420252418,
			"-0.002": 23.8558465383,
			"-0.001": 25.4340844344,
			"0.0": 31.9442208611,
			"0.001": 31.6166368219,
			"0.002": 21.891596371,
			"0.003": 22.5258984974,
			"0.004": 20.2960268103,
			"0.005": 14.6208754463,
			"0.006": 4.69699612383,
			"0.007": 1.41058829583,
			"0.008": 1.52922546802,
			"0.009": 0.967934541702,
			"0.01": 1.02115825924,
			"0.011": 1.0689337282,
			"0.012": 1.04082668138,
			"0.013": 0.768173986265,
			"0.014": 0.615155960283,
			"0.015": 0.0934648274169,
			"0.016": 0.0,
			"0.017": 0.0,
			"0.018": 0.0,
			"0.019": 0.0,
			"0.02": 0.0,
			"0.021": 0.0,
			"0.022": 0.0,
			"0.023": 0.0,
			"0.024": 0.0,
			"0.025": 0.0
		}
	}
}
