{
	 "smiles": "C(=C/C1=NC=CC=C1)C1=NC=CC=C1", 
	 "Tm": 391.15, 
	 "num_atms": 24, 
	 "gaussian": { 
		 "optdone": 1, 
		 "sigma_profile": "yes", 
		 "theory": "DFT", 
		 "functional": "B3LYP", 
		 "basiset": "6-31G**", 
		 "properties": { 
			 "R2extent": 4402.7257, 
			 "electric_dipole_moment_norm": 3.10517066198, 
			 "electric_quadrupole_moment_norm": 15.2213198662, 
			 "total_energy": -572.790395993, 
			 "HOMO_LUMO_gap": 0.15347, 
			 "cosmo_polarized_energy": -11.62, 
			 "cosmo_cavitation_energy": 28.96, 
			 "cosmo_dispersion_energy": -21.4, 
			 "cosmo_repulsion_energy": 1.66, 
			 "cosmo_total_nonelectrostatic_energy": 9.22, 
			 "SMD_solvation_energy": 2.59 
		},
		"coords": [
			{
				"x": 0.2143021054,
				"y": -0.9261252819,
				"z": -0.2918354254,
				"element": "C" 
			},
			{
				"x": -0.9394134178,
				"y": -0.5629623725,
				"z": 0.3006561733,
				"element": "C" 
			},
			{
				"x": -1.9217287374,
				"y": 0.4041486681,
				"z": -0.2000752681,
				"element": "C" 
			},
			{
				"x": -2.9987305798,
				"y": 0.5806383479,
				"z": 0.5972790479,
				"element": "N" 
			},
			{
				"x": -3.9391853334,
				"y": 1.4455301794,
				"z": 0.2104672145,
				"element": "C" 
			},
			{
				"x": -3.8795543068,
				"y": 2.1834010869,
				"z": -0.9727404335,
				"element": "C" 
			},
			{
				"x": -2.7686123156,
				"y": 2.0038140975,
				"z": -1.7986925924,
				"element": "C" 
			},
			{
				"x": -1.7797103131,
				"y": 1.1074839814,
				"z": -1.4120158262,
				"element": "C" 
			},
			{
				"x": 1.1534835128,
				"y": -1.9044702653,
				"z": 0.2684829696,
				"element": "C" 
			},
			{
				"x": 0.8482301526,
				"y": -2.4798094906,
				"z": 1.451204495,
				"element": "N" 
			},
			{
				"x": 1.7017763285,
				"y": -3.3677807966,
				"z": 1.9582252855,
				"element": "C" 
			},
			{
				"x": 2.8992774648,
				"y": -3.7432567543,
				"z": 1.3400491325,
				"element": "C" 
			},
			{
				"x": 3.2172930482,
				"y": -3.1512368044,
				"z": 0.1191945149,
				"element": "C" 
			},
			{
				"x": 2.335682896,
				"y": -2.2209974702,
				"z": -0.4244899006,
				"element": "C" 
			},
			{
				"x": 0.5096947447,
				"y": -0.4939889635,
				"z": -1.2459060561,
				"element": "H" 
			},
			{
				"x": -1.1988001771,
				"y": -1.0173358948,
				"z": 1.252327037,
				"element": "H" 
			},
			{
				"x": -4.7887624222,
				"y": 1.5560358087,
				"z": 0.8829847224,
				"element": "H" 
			},
			{
				"x": -4.6757478749,
				"y": 2.872815041,
				"z": -1.2347782553,
				"element": "H" 
			},
			{
				"x": -2.6753165651,
				"y": 2.5548338833,
				"z": -2.7303502139,
				"element": "H" 
			},
			{
				"x": -0.9081572421,
				"y": 0.9531222327,
				"z": -2.0393484903,
				"element": "H" 
			},
			{
				"x": 1.4190821485,
				"y": -3.8087642047,
				"z": 2.9133234908,
				"element": "H" 
			},
			{
				"x": 3.5534518147,
				"y": -4.4737397204,
				"z": 1.8049237678,
				"element": "H" 
			},
			{
				"x": 4.1354300423,
				"y": -3.4085976141,
				"z": -0.4013855433,
				"element": "H" 
			},
			{
				"x": 2.5511150265,
				"y": -1.7397576933,
				"z": -1.3740998458,
				"element": "H" 
			}
		],
		 "valence_orbital": [ 
			{
				"type": "occ",
				"energy": -0.28257,
				"method": "rhf"
			},
			{
				"type": "occ",
				"energy": -0.26939,
				"method": "rhf"
			},
			{
				"type": "occ",
				"energy": -0.25265,
				"method": "rhf"
			},
			{
				"type": "occ",
				"energy": -0.2507,
				"method": "rhf"
			},
			{
				"type": "occ",
				"energy": -0.21603,
				"method": "rhf"
			},
			{
				"type": "unocc",
				"energy": -0.06256,
				"method": "rhf"
			},
			{
				"type": "unocc",
				"energy": -0.01915,
				"method": "rhf"
			},
			{
				"type": "unocc",
				"energy": -0.01699,
				"method": "rhf"
			},
			{
				"type": "unocc",
				"energy": 0.0067,
				"method": "rhf"
			},
			{
				"type": "unocc",
				"energy": 0.06968,
				"method": "rhf"
			}
		],
		"cosmo_sigma_profile": { 
			"-0.025": 0.0,
			"-0.024": 0.0,
			"-0.023": 0.0,
			"-0.022": 0.0,
			"-0.021": 0.0,
			"-0.02": 0.0,
			"-0.019": 0.0,
			"-0.018": 0.0,
			"-0.017": 0.0,
			"-0.016": 0.0,
			"-0.015": 0.0,
			"-0.014": 0.0,
			"-0.013": 0.0,
			"-0.012": 0.0,
			"-0.011": 0.0,
			"-0.01": 0.0,
			"-0.009": 0.331549843161,
			"-0.008": 2.23071416017,
			"-0.007": 12.2997866483,
			"-0.006": 18.7394100783,
			"-0.005": 19.8816224164,
			"-0.004": 15.1421666818,
			"-0.003": 12.6762457125,
			"-0.002": 10.6085997606,
			"-0.001": 12.0144754174,
			"0.0": 13.3523570663,
			"0.001": 17.1915499096,
			"0.002": 32.7355560361,
			"0.003": 27.8536953717,
			"0.004": 10.0665658769,
			"0.005": 6.12268848835,
			"0.006": 3.27894502176,
			"0.007": 3.19946051733,
			"0.008": 2.97736494369,
			"0.009": 2.94280072132,
			"0.01": 2.00637859884,
			"0.011": 2.24841306231,
			"0.012": 1.73802424362,
			"0.013": 1.51919577305,
			"0.014": 1.0937205882,
			"0.015": 0.755040918473,
			"0.016": 0.427521709658,
			"0.017": 0.0639955942935,
			"0.018": 0.0,
			"0.019": 0.0,
			"0.02": 0.0,
			"0.021": 0.0,
			"0.022": 0.0,
			"0.023": 0.0,
			"0.024": 0.0,
			"0.025": 0.0
		}
	}
}
