{
	 "smiles": "CC1=C(C)C(N)=NC=C1Br", 
	 "Tm": 407.15, 
	 "num_atms": 19, 
	 "gaussian": { 
		 "optdone": 1, 
		 "sigma_profile": "yes", 
		 "theory": "DFT", 
		 "functional": "B3LYP", 
		 "basiset": "6-31G**", 
		 "properties": { 
			 "R2extent": 3925.2749, 
			 "electric_dipole_moment_norm": 3.43748622834, 
			 "electric_quadrupole_moment_norm": 5.23513098403, 
			 "total_energy": -2953.09362448, 
			 "HOMO_LUMO_gap": 0.19037, 
			 "cosmo_polarized_energy": -8.93, 
			 "cosmo_cavitation_energy": 23.94, 
			 "cosmo_dispersion_energy": -18.41, 
			 "cosmo_repulsion_energy": 1.48, 
			 "cosmo_total_nonelectrostatic_energy": 7.01, 
			 "SMD_solvation_energy": 1.7 
		},
		"coords": [
			{
				"x": 1.0340869676,
				"y": 1.1367960185,
				"z": -2.5730733667,
				"element": "C" 
			},
			{
				"x": 0.6666821961,
				"y": -0.0493706101,
				"z": -1.714746103,
				"element": "C" 
			},
			{
				"x": 0.0444221002,
				"y": 0.1327100333,
				"z": -0.4693513026,
				"element": "C" 
			},
			{
				"x": -0.3238330679,
				"y": 1.4925719731,
				"z": 0.0723839779,
				"element": "C" 
			},
			{
				"x": -0.2591547209,
				"y": -1.0137558032,
				"z": 0.3045538748,
				"element": "C" 
			},
			{
				"x": -0.8988293679,
				"y": -0.8931214998,
				"z": 1.5296910312,
				"element": "N" 
			},
			{
				"x": -0.0073427378,
				"y": -2.2670727556,
				"z": -0.0959053901,
				"element": "N" 
			},
			{
				"x": 0.5606248143,
				"y": -2.4362293475,
				"z": -1.289695394,
				"element": "C" 
			},
			{
				"x": 0.9162062965,
				"y": -1.3752719333,
				"z": -2.1143552005,
				"element": "C" 
			},
			{
				"x": 1.7442420614,
				"y": -1.8096599331,
				"z": -3.7906978519,
				"element": "Br" 
			},
			{
				"x": 1.6046123595,
				"y": 0.8298472974,
				"z": -3.4486219871,
				"element": "H" 
			},
			{
				"x": 1.6336021005,
				"y": 1.8595332846,
				"z": -2.0108360206,
				"element": "H" 
			},
			{
				"x": 0.1371183193,
				"y": 1.6595770899,
				"z": -2.924876039,
				"element": "H" 
			},
			{
				"x": 0.326647438,
				"y": 1.7892290454,
				"z": 0.9080973272,
				"element": "H" 
			},
			{
				"x": -1.352548937,
				"y": 1.4870009562,
				"z": 0.4510707306,
				"element": "H" 
			},
			{
				"x": -0.2524836573,
				"y": 2.2762554522,
				"z": -0.6820248406,
				"element": "H" 
			},
			{
				"x": -0.8958762195,
				"y": -1.7559255739,
				"z": 2.0569555841,
				"element": "H" 
			},
			{
				"x": -0.6907689088,
				"y": -0.0737138222,
				"z": 2.0809273173,
				"element": "H" 
			},
			{
				"x": 0.7510929636,
				"y": -3.459599872,
				"z": -1.602496347,
				"element": "H" 
			}
		],
		 "valence_orbital": [ 
			{
				"type": "occ",
				"energy": -0.28758,
				"method": "rhf"
			},
			{
				"type": "occ",
				"energy": -0.28513,
				"method": "rhf"
			},
			{
				"type": "occ",
				"energy": -0.26335,
				"method": "rhf"
			},
			{
				"type": "occ",
				"energy": -0.25826,
				"method": "rhf"
			},
			{
				"type": "occ",
				"energy": -0.20978,
				"method": "rhf"
			},
			{
				"type": "unocc",
				"energy": -0.01941,
				"method": "rhf"
			},
			{
				"type": "unocc",
				"energy": 0.00432,
				"method": "rhf"
			},
			{
				"type": "unocc",
				"energy": 0.0143,
				"method": "rhf"
			},
			{
				"type": "unocc",
				"energy": 0.07352,
				"method": "rhf"
			},
			{
				"type": "unocc",
				"energy": 0.11078,
				"method": "rhf"
			}
		],
		"cosmo_sigma_profile": { 
			"-0.025": 0.0,
			"-0.024": 0.0,
			"-0.023": 0.0,
			"-0.022": 0.0,
			"-0.021": 0.0,
			"-0.02": 0.0,
			"-0.019": 0.0,
			"-0.018": 0.0,
			"-0.017": 0.0,
			"-0.016": 0.0,
			"-0.015": 0.0,
			"-0.014": 0.0,
			"-0.013": 0.32878010505,
			"-0.012": 2.08956030964,
			"-0.011": 2.23910818151,
			"-0.01": 1.92445068761,
			"-0.009": 3.38253161576,
			"-0.008": 2.82193836464,
			"-0.007": 2.10544525704,
			"-0.006": 3.37955755919,
			"-0.005": 9.11325964154,
			"-0.004": 14.4255394079,
			"-0.003": 13.7518096684,
			"-0.002": 15.1965841385,
			"-0.001": 18.5527165311,
			"0.0": 17.6425125526,
			"0.001": 13.2226315629,
			"0.002": 18.0564897297,
			"0.003": 16.6858285399,
			"0.004": 10.3933345946,
			"0.005": 10.2376758317,
			"0.006": 3.4962766626,
			"0.007": 2.33643976238,
			"0.008": 2.30876115023,
			"0.009": 2.08016858553,
			"0.01": 1.42955841134,
			"0.011": 1.47359266508,
			"0.012": 1.51881889159,
			"0.013": 0.817117594124,
			"0.014": 1.15436535178,
			"0.015": 0.602058413459,
			"0.016": 0.0522699125643,
			"0.017": 0.0,
			"0.018": 0.0,
			"0.019": 0.0,
			"0.02": 0.0,
			"0.021": 0.0,
			"0.022": 0.0,
			"0.023": 0.0,
			"0.024": 0.0,
			"0.025": 0.0
		}
	}
}
