{
	 "smiles": "O=C(CCN1C(=O)C=CC1=O)ON1C(=O)CCC1=O", 
	 "Tm": 442.15, 
	 "num_atms": 29, 
	 "gaussian": { 
		 "optdone": 1, 
		 "sigma_profile": "yes", 
		 "theory": "DFT", 
		 "functional": "B3LYP", 
		 "basiset": "6-31G**", 
		 "properties": { 
			 "R2extent": 4650.9001, 
			 "electric_dipole_moment_norm": 2.76949127097, 
			 "electric_quadrupole_moment_norm": 23.446365055, 
			 "total_energy": -986.022387722, 
			 "HOMO_LUMO_gap": 0.17733, 
			 "cosmo_polarized_energy": -22.06, 
			 "cosmo_cavitation_energy": 35.25, 
			 "cosmo_dispersion_energy": -23.52, 
			 "cosmo_repulsion_energy": 1.83, 
			 "cosmo_total_nonelectrostatic_energy": 13.57, 
			 "SMD_solvation_energy": 9.68 
		},
		"coords": [
			{
				"x": 0.2152178588,
				"y": 1.7990041285,
				"z": -1.0605563749,
				"element": "O" 
			},
			{
				"x": 0.7541759247,
				"y": 0.7290075221,
				"z": -1.0748767381,
				"element": "C" 
			},
			{
				"x": 1.0084720984,
				"y": -0.1622480953,
				"z": -2.2643204375,
				"element": "C" 
			},
			{
				"x": -0.3167577342,
				"y": -0.7356057772,
				"z": -2.8082600711,
				"element": "C" 
			},
			{
				"x": -1.0011919094,
				"y": -1.5800237529,
				"z": -1.8453041341,
				"element": "N" 
			},
			{
				"x": -2.2408929613,
				"y": -1.2770514392,
				"z": -1.2550232949,
				"element": "C" 
			},
			{
				"x": -2.9034008658,
				"y": -0.2876546356,
				"z": -1.4787865613,
				"element": "O" 
			},
			{
				"x": -2.5570038304,
				"y": -2.4359314633,
				"z": -0.3550542687,
				"element": "C" 
			},
			{
				"x": -1.5774241288,
				"y": -3.3395040174,
				"z": -0.4537535174,
				"element": "C" 
			},
			{
				"x": -0.5435883055,
				"y": -2.8283919839,
				"z": -1.4135952567,
				"element": "C" 
			},
			{
				"x": 0.4876700175,
				"y": -3.3619210134,
				"z": -1.7740918173,
				"element": "O" 
			},
			{
				"x": 1.2131175489,
				"y": 0.0900445015,
				"z": 0.084905096,
				"element": "O" 
			},
			{
				"x": 0.9262176188,
				"y": 0.8007636143,
				"z": 1.2290174342,
				"element": "N" 
			},
			{
				"x": 1.7620216389,
				"y": 1.8270882066,
				"z": 1.6891448573,
				"element": "C" 
			},
			{
				"x": 2.8014501321,
				"y": 2.1594523333,
				"z": 1.1759443874,
				"element": "O" 
			},
			{
				"x": 1.0746533929,
				"y": 2.3801933496,
				"z": 2.9332286384,
				"element": "C" 
			},
			{
				"x": -0.2501709813,
				"y": 1.5993708498,
				"z": 3.0710704643,
				"element": "C" 
			},
			{
				"x": -0.2867483036,
				"y": 0.6266519812,
				"z": 1.8982455393,
				"element": "C" 
			},
			{
				"x": -1.1531075509,
				"y": -0.153765319,
				"z": 1.5795078839,
				"element": "O" 
			},
			{
				"x": 1.4700247865,
				"y": 0.4515864676,
				"z": -3.043790394,
				"element": "H" 
			},
			{
				"x": 1.6862184978,
				"y": -0.9754989936,
				"z": -2.0007461781,
				"element": "H" 
			},
			{
				"x": -0.1014895658,
				"y": -1.3169613785,
				"z": -3.7097402119,
				"element": "H" 
			},
			{
				"x": -1.0083440895,
				"y": 0.0715169266,
				"z": -3.0605053308,
				"element": "H" 
			},
			{
				"x": -3.4548681872,
				"y": -2.4575904079,
				"z": 0.2473938966,
				"element": "H" 
			},
			{
				"x": -1.4693775984,
				"y": -4.2928455751,
				"z": 0.0460425478,
				"element": "H" 
			},
			{
				"x": 0.9269688227,
				"y": 3.4541852014,
				"z": 2.7929228419,
				"element": "H" 
			},
			{
				"x": 1.7426958804,
				"y": 2.2539228091,
				"z": 3.7896664925,
				"element": "H" 
			},
			{
				"x": -0.3221257467,
				"y": 1.030873838,
				"z": 4.0025498,
				"element": "H" 
			},
			{
				"x": -1.1349124593,
				"y": 2.2387321226,
				"z": 3.0124647071,
				"element": "H" 
			}
		],
		 "valence_orbital": [ 
			{
				"type": "occ",
				"energy": -0.29565,
				"method": "rhf"
			},
			{
				"type": "occ",
				"energy": -0.2888,
				"method": "rhf"
			},
			{
				"type": "occ",
				"energy": -0.27708,
				"method": "rhf"
			},
			{
				"type": "occ",
				"energy": -0.27082,
				"method": "rhf"
			},
			{
				"type": "occ",
				"energy": -0.2693,
				"method": "rhf"
			},
			{
				"type": "unocc",
				"energy": -0.09197,
				"method": "rhf"
			},
			{
				"type": "unocc",
				"energy": -0.03097,
				"method": "rhf"
			},
			{
				"type": "unocc",
				"energy": -0.01848,
				"method": "rhf"
			},
			{
				"type": "unocc",
				"energy": 0.01423,
				"method": "rhf"
			},
			{
				"type": "unocc",
				"energy": 0.0523,
				"method": "rhf"
			}
		],
		"cosmo_sigma_profile": { 
			"-0.025": 0.0,
			"-0.024": 0.0,
			"-0.023": 0.0,
			"-0.022": 0.0,
			"-0.021": 0.0,
			"-0.02": 0.0,
			"-0.019": 0.0,
			"-0.018": 0.0,
			"-0.017": 0.0,
			"-0.016": 0.0,
			"-0.015": 0.0,
			"-0.014": 0.0,
			"-0.013": 0.0,
			"-0.012": 0.0,
			"-0.011": 0.0,
			"-0.01": 1.33092448359,
			"-0.009": 5.1423411122,
			"-0.008": 18.1777994232,
			"-0.007": 24.91991849,
			"-0.006": 20.8728123545,
			"-0.005": 19.3474114707,
			"-0.004": 21.9990823089,
			"-0.003": 14.8858766804,
			"-0.002": 11.8341663276,
			"-0.001": 11.0592947587,
			"0.0": 11.3717228632,
			"0.001": 11.4711229392,
			"0.002": 10.0193552925,
			"0.003": 9.19546852401,
			"0.004": 10.8834226814,
			"0.005": 9.19771484732,
			"0.006": 8.71060407335,
			"0.007": 9.32721352525,
			"0.008": 9.85606337166,
			"0.009": 10.599821641,
			"0.01": 14.5028978983,
			"0.011": 13.7298424557,
			"0.012": 3.01312938136,
			"0.013": 0.0,
			"0.014": 0.0,
			"0.015": 0.0,
			"0.016": 0.0,
			"0.017": 0.0,
			"0.018": 0.0,
			"0.019": 0.0,
			"0.02": 0.0,
			"0.021": 0.0,
			"0.022": 0.0,
			"0.023": 0.0,
			"0.024": 0.0,
			"0.025": 0.0
		}
	}
}
