{
	 "smiles": "CC1=C(C=CC(N)=C1)N1C(=O)CCC1=O", 
	 "Tm": 441.15, 
	 "num_atms": 27, 
	 "gaussian": { 
		 "optdone": 1, 
		 "sigma_profile": "yes", 
		 "theory": "DFT", 
		 "functional": "B3LYP", 
		 "basiset": "6-31G**", 
		 "properties": { 
			 "R2extent": 3465.5836, 
			 "electric_dipole_moment_norm": 1.06467300614, 
			 "electric_quadrupole_moment_norm": 22.179747311, 
			 "total_energy": -686.394846595, 
			 "HOMO_LUMO_gap": 0.18815, 
			 "cosmo_polarized_energy": -18.86, 
			 "cosmo_cavitation_energy": 30.56, 
			 "cosmo_dispersion_energy": -21.78, 
			 "cosmo_repulsion_energy": 1.73, 
			 "cosmo_total_nonelectrostatic_energy": 10.51, 
			 "SMD_solvation_energy": 6.64 
		},
		"coords": [
			{
				"x": 1.5562861659,
				"y": -0.4175256145,
				"z": -0.7201632568,
				"element": "C" 
			},
			{
				"x": 0.5135448224,
				"y": -0.6014058967,
				"z": 0.3542237788,
				"element": "C" 
			},
			{
				"x": -0.5466557799,
				"y": 0.3066335757,
				"z": 0.5239983298,
				"element": "C" 
			},
			{
				"x": -1.4851182423,
				"y": 0.1142233784,
				"z": 1.5398090196,
				"element": "C" 
			},
			{
				"x": -1.39819061,
				"y": -0.9772885164,
				"z": 2.3933641428,
				"element": "C" 
			},
			{
				"x": -0.3578190614,
				"y": -1.9081899058,
				"z": 2.2375534072,
				"element": "C" 
			},
			{
				"x": -0.2871439639,
				"y": -3.0414243364,
				"z": 3.0455441201,
				"element": "N" 
			},
			{
				"x": 0.5823203288,
				"y": -1.6981888822,
				"z": 1.2153197294,
				"element": "C" 
			},
			{
				"x": -0.6734610153,
				"y": 1.4589352694,
				"z": -0.3215739881,
				"element": "N" 
			},
			{
				"x": -0.5941474435,
				"y": 2.7775961735,
				"z": 0.1638321772,
				"element": "C" 
			},
			{
				"x": -0.3881531729,
				"y": 3.0843833738,
				"z": 1.3165005831,
				"element": "O" 
			},
			{
				"x": -0.819769539,
				"y": 3.7252622607,
				"z": -1.0109634824,
				"element": "C" 
			},
			{
				"x": -1.0503437172,
				"y": 2.8198179322,
				"z": -2.2271315132,
				"element": "C" 
			},
			{
				"x": -0.9601995084,
				"y": 1.3928744239,
				"z": -1.6937430219,
				"element": "C" 
			},
			{
				"x": -1.101426143,
				"y": 0.3704847479,
				"z": -2.3290979057,
				"element": "O" 
			},
			{
				"x": 2.4042676226,
				"y": -1.0876421965,
				"z": -0.5581894287,
				"element": "H" 
			},
			{
				"x": 1.9365771301,
				"y": 0.6097318076,
				"z": -0.7368358164,
				"element": "H" 
			},
			{
				"x": 1.1337241095,
				"y": -0.6254100991,
				"z": -1.7083113668,
				"element": "H" 
			},
			{
				"x": -2.2869629225,
				"y": 0.8344678625,
				"z": 1.6639381904,
				"element": "H" 
			},
			{
				"x": -2.1373500592,
				"y": -1.1149512697,
				"z": 3.1778197134,
				"element": "H" 
			},
			{
				"x": -0.7415936253,
				"y": -2.9617196545,
				"z": 3.9444807422,
				"element": "H" 
			},
			{
				"x": 0.626428276,
				"y": -3.4671518635,
				"z": 3.1171490883,
				"element": "H" 
			},
			{
				"x": 1.3936058795,
				"y": -2.4118542308,
				"z": 1.0900868593,
				"element": "H" 
			},
			{
				"x": 0.0548521139,
				"y": 4.3749615646,
				"z": -1.1066677865,
				"element": "H" 
			},
			{
				"x": -1.6711800191,
				"y": 4.3712848534,
				"z": -0.7782661921,
				"element": "H" 
			},
			{
				"x": -0.3015168911,
				"y": 2.945879351,
				"z": -3.0145499236,
				"element": "H" 
			},
			{
				"x": -2.029374735,
				"y": 2.9538158917,
				"z": -2.6956261997,
				"element": "H" 
			}
		],
		 "valence_orbital": [ 
			{
				"type": "occ",
				"energy": -0.27897,
				"method": "rhf"
			},
			{
				"type": "occ",
				"energy": -0.27564,
				"method": "rhf"
			},
			{
				"type": "occ",
				"energy": -0.25309,
				"method": "rhf"
			},
			{
				"type": "occ",
				"energy": -0.24132,
				"method": "rhf"
			},
			{
				"type": "occ",
				"energy": -0.20226,
				"method": "rhf"
			},
			{
				"type": "unocc",
				"energy": -0.01411,
				"method": "rhf"
			},
			{
				"type": "unocc",
				"energy": 0.00365,
				"method": "rhf"
			},
			{
				"type": "unocc",
				"energy": 0.00507,
				"method": "rhf"
			},
			{
				"type": "unocc",
				"energy": 0.03393,
				"method": "rhf"
			},
			{
				"type": "unocc",
				"energy": 0.0792,
				"method": "rhf"
			}
		],
		"cosmo_sigma_profile": { 
			"-0.025": 0.0,
			"-0.024": 0.0,
			"-0.023": 0.0,
			"-0.022": 0.0,
			"-0.021": 0.0,
			"-0.02": 0.0,
			"-0.019": 0.0,
			"-0.018": 0.0,
			"-0.017": 0.0,
			"-0.016": 0.0,
			"-0.015": 0.0,
			"-0.014": 0.0,
			"-0.013": 0.689851685805,
			"-0.012": 2.59971334532,
			"-0.011": 2.96719282417,
			"-0.01": 3.29406166186,
			"-0.009": 2.37038186178,
			"-0.008": 3.4756422771,
			"-0.007": 13.2879700204,
			"-0.006": 22.4145890274,
			"-0.005": 19.4770635955,
			"-0.004": 17.4294535496,
			"-0.003": 16.2496629406,
			"-0.002": 14.4460823209,
			"-0.001": 11.7795160602,
			"0.0": 14.3450575024,
			"0.001": 8.70343596547,
			"0.002": 7.69263337122,
			"0.003": 7.65562289266,
			"0.004": 8.49183463315,
			"0.005": 11.6983363522,
			"0.006": 10.7202249539,
			"0.007": 5.16386003796,
			"0.008": 4.79007597753,
			"0.009": 4.02928558318,
			"0.01": 5.59793891001,
			"0.011": 7.14166494091,
			"0.012": 10.8861647407,
			"0.013": 3.85415835683,
			"0.014": 0.479460203274,
			"0.015": 0.0335340880538,
			"0.016": 0.0,
			"0.017": 0.0,
			"0.018": 0.0,
			"0.019": 0.0,
			"0.02": 0.0,
			"0.021": 0.0,
			"0.022": 0.0,
			"0.023": 0.0,
			"0.024": 0.0,
			"0.025": 0.0
		}
	}
}
