{
	 "smiles": "COC1=CC=C(C=C1)[P+]1([S-])NN2C(S1)=NN=C2C(F)(F)F", 
	 "Tm": 484.15, 
	 "num_atms": 29, 
	 "gaussian": { 
		 "optdone": 1, 
		 "sigma_profile": "yes", 
		 "theory": "DFT", 
		 "functional": "B3LYP", 
		 "basiset": "6-31G**", 
		 "properties": { 
			 "R2extent": 9679.335, 
			 "electric_dipole_moment_norm": 5.70979434043, 
			 "electric_quadrupole_moment_norm": 21.8094388082, 
			 "total_energy": -2117.31166147, 
			 "HOMO_LUMO_gap": 0.17113, 
			 "cosmo_polarized_energy": -18.92, 
			 "cosmo_cavitation_energy": 40.24, 
			 "cosmo_dispersion_energy": -28.25, 
			 "cosmo_repulsion_energy": 1.97, 
			 "cosmo_total_nonelectrostatic_energy": 13.95, 
			 "SMD_solvation_energy": 5.36 
		},
		"coords": [
			{
				"x": 1.3529392218,
				"y": -3.2019823914,
				"z": 2.8325667745,
				"element": "C" 
			},
			{
				"x": 1.7306414375,
				"y": -2.1007035201,
				"z": 2.0128620918,
				"element": "O" 
			},
			{
				"x": 0.8507163379,
				"y": -1.6389091179,
				"z": 1.0937675898,
				"element": "C" 
			},
			{
				"x": 1.2905492649,
				"y": -0.5484940589,
				"z": 0.3246766922,
				"element": "C" 
			},
			{
				"x": 0.4689402676,
				"y": 0.0038721685,
				"z": -0.6454869916,
				"element": "C" 
			},
			{
				"x": -0.8152661257,
				"y": -0.5289181101,
				"z": -0.8659340742,
				"element": "C" 
			},
			{
				"x": -1.2497303787,
				"y": -1.6188532023,
				"z": -0.0989855099,
				"element": "C" 
			},
			{
				"x": -0.4284517201,
				"y": -2.1759491711,
				"z": 0.8759329625,
				"element": "C" 
			},
			{
				"x": -1.922182368,
				"y": 0.1386396846,
				"z": -2.121912428,
				"element": "P" 
			},
			{
				"x": -2.6206561235,
				"y": -1.0607070786,
				"z": -3.4728077663,
				"element": "S" 
			},
			{
				"x": -1.0346475192,
				"y": 1.5128662837,
				"z": -2.7598182964,
				"element": "N" 
			},
			{
				"x": -1.2547526571,
				"y": 2.6230105451,
				"z": -1.933529486,
				"element": "N" 
			},
			{
				"x": -2.3099095232,
				"y": 2.7035370602,
				"z": -1.0567149946,
				"element": "C" 
			},
			{
				"x": -3.437170836,
				"y": 1.3528001436,
				"z": -1.0672844799,
				"element": "S" 
			},
			{
				"x": -2.2279262065,
				"y": 3.7988287673,
				"z": -0.33870448,
				"element": "N" 
			},
			{
				"x": -1.0890064337,
				"y": 4.4676893974,
				"z": -0.7577107478,
				"element": "N" 
			},
			{
				"x": -0.5073642883,
				"y": 3.7448499657,
				"z": -1.6825245708,
				"element": "C" 
			},
			{
				"x": 0.7809329425,
				"y": 4.0369946134,
				"z": -2.3829923687,
				"element": "C" 
			},
			{
				"x": 1.7430214324,
				"y": 3.1582241874,
				"z": -2.0112907893,
				"element": "F" 
			},
			{
				"x": 1.2120707446,
				"y": 5.2682617688,
				"z": -2.1149847509,
				"element": "F" 
			},
			{
				"x": 0.6290070374,
				"y": 3.9074077738,
				"z": -3.7212532771,
				"element": "F" 
			},
			{
				"x": 0.472461072,
				"y": -2.9646980696,
				"z": 3.441545985,
				"element": "H" 
			},
			{
				"x": 2.2040581609,
				"y": -3.3906657712,
				"z": 3.4872878899,
				"element": "H" 
			},
			{
				"x": 1.1512807017,
				"y": -4.0975212429,
				"z": 2.2326908234,
				"element": "H" 
			},
			{
				"x": 2.2847303533,
				"y": -0.154756181,
				"z": 0.5061673186,
				"element": "H" 
			},
			{
				"x": 0.8290627588,
				"y": 0.8383184254,
				"z": -1.2354795019,
				"element": "H" 
			},
			{
				"x": -2.2332744145,
				"y": -2.0479953428,
				"z": -0.2667861768,
				"element": "H" 
			},
			{
				"x": -0.7866465354,
				"y": -3.0195725943,
				"z": 1.4527135744,
				"element": "H" 
			},
			{
				"x": -1.3440266034,
				"y": 1.716425067,
				"z": -3.7121110121,
				"element": "H" 
			}
		],
		 "valence_orbital": [ 
			{
				"type": "occ",
				"energy": -0.28182,
				"method": "rhf"
			},
			{
				"type": "occ",
				"energy": -0.27368,
				"method": "rhf"
			},
			{
				"type": "occ",
				"energy": -0.26636,
				"method": "rhf"
			},
			{
				"type": "occ",
				"energy": -0.264,
				"method": "rhf"
			},
			{
				"type": "occ",
				"energy": -0.24367,
				"method": "rhf"
			},
			{
				"type": "unocc",
				"energy": -0.07254,
				"method": "rhf"
			},
			{
				"type": "unocc",
				"energy": -0.03791,
				"method": "rhf"
			},
			{
				"type": "unocc",
				"energy": -0.02856,
				"method": "rhf"
			},
			{
				"type": "unocc",
				"energy": -0.02669,
				"method": "rhf"
			},
			{
				"type": "unocc",
				"energy": -0.01152,
				"method": "rhf"
			}
		],
		"cosmo_sigma_profile": { 
			"-0.025": 0.0,
			"-0.024": 0.0,
			"-0.023": 0.0,
			"-0.022": 0.0,
			"-0.021": 0.0,
			"-0.02": 0.0,
			"-0.019": 0.0,
			"-0.018": 0.0,
			"-0.017": 0.670943681906,
			"-0.016": 1.42072244213,
			"-0.015": 0.991291251651,
			"-0.014": 1.61567124322,
			"-0.013": 0.943931742565,
			"-0.012": 1.44141759585,
			"-0.011": 1.22847440204,
			"-0.01": 1.67241728457,
			"-0.009": 2.89806012908,
			"-0.008": 3.98590045926,
			"-0.007": 11.0125822716,
			"-0.006": 17.7584277331,
			"-0.005": 17.1522458605,
			"-0.004": 20.2656440823,
			"-0.003": 18.6290959909,
			"-0.002": 18.3192356479,
			"-0.001": 19.8953511938,
			"0.0": 24.3991468849,
			"0.001": 37.3445330098,
			"0.002": 41.260613595,
			"0.003": 21.4826888605,
			"0.004": 10.3256256745,
			"0.005": 9.15980318066,
			"0.006": 10.0603487682,
			"0.007": 10.6039521835,
			"0.008": 6.03338213894,
			"0.009": 3.82374918904,
			"0.01": 3.31384587722,
			"0.011": 3.46179412033,
			"0.012": 2.48686838608,
			"0.013": 2.50463125497,
			"0.014": 1.62624820977,
			"0.015": 0.354301583266,
			"0.016": 0.0,
			"0.017": 0.0,
			"0.018": 0.0,
			"0.019": 0.0,
			"0.02": 0.0,
			"0.021": 0.0,
			"0.022": 0.0,
			"0.023": 0.0,
			"0.024": 0.0,
			"0.025": 0.0
		}
	}
}
