{
	 "smiles": "CC1=C(Br)C=C(Br)C(O)=C1Br", 
	 "Tm": 356.15, 
	 "num_atms": 16, 
	 "gaussian": { 
		 "optdone": 1, 
		 "sigma_profile": "yes", 
		 "theory": "DFT", 
		 "functional": "B3LYP", 
		 "basiset": "6-31G**", 
		 "properties": { 
			 "R2extent": 6839.1166, 
			 "electric_dipole_moment_norm": 2.02715175061, 
			 "electric_quadrupole_moment_norm": 5.92678499019, 
			 "total_energy": -8059.19318103, 
			 "HOMO_LUMO_gap": 0.19246, 
			 "cosmo_polarized_energy": -5.85, 
			 "cosmo_cavitation_energy": 26.36, 
			 "cosmo_dispersion_energy": -20.95, 
			 "cosmo_repulsion_energy": 1.67, 
			 "cosmo_total_nonelectrostatic_energy": 7.08, 
			 "SMD_solvation_energy": 1.77 
		},
		"coords": [
			{
				"x": 1.0735756407,
				"y": 1.9739095138,
				"z": -0.7546703989,
				"element": "C" 
			},
			{
				"x": 1.3307856436,
				"y": 0.6904767174,
				"z": -0.0106224009,
				"element": "C" 
			},
			{
				"x": 1.6381702073,
				"y": 0.6337993087,
				"z": 1.3574513266,
				"element": "C" 
			},
			{
				"x": 1.75942244,
				"y": 2.2235497119,
				"z": 2.4210825731,
				"element": "Br" 
			},
			{
				"x": 1.8710991194,
				"y": -0.5727645228,
				"z": 2.0161480491,
				"element": "C" 
			},
			{
				"x": 1.802931751,
				"y": -1.7707664085,
				"z": 1.3197824345,
				"element": "C" 
			},
			{
				"x": 2.1223526872,
				"y": -3.4082612766,
				"z": 2.2279473038,
				"element": "Br" 
			},
			{
				"x": 1.5001768813,
				"y": -1.7854420248,
				"z": -0.0501902364,
				"element": "C" 
			},
			{
				"x": 1.4425843352,
				"y": -2.9674048911,
				"z": -0.6935589749,
				"element": "O" 
			},
			{
				"x": 1.2732565463,
				"y": -0.5469392975,
				"z": -0.6716555786,
				"element": "C" 
			},
			{
				"x": 0.8612089888,
				"y": -0.6055423074,
				"z": -2.5490928081,
				"element": "Br" 
			},
			{
				"x": 0.0716886679,
				"y": 1.9710656026,
				"z": -1.1963266256,
				"element": "H" 
			},
			{
				"x": 1.1583762924,
				"y": 2.8345710843,
				"z": -0.0936096691,
				"element": "H" 
			},
			{
				"x": 1.786811872,
				"y": 2.0942314651,
				"z": -1.5766544222,
				"element": "H" 
			},
			{
				"x": 2.1058253408,
				"y": -0.5793265842,
				"z": 3.0724575428,
				"element": "H" 
			},
			{
				"x": 1.2239335861,
				"y": -2.8030560909,
				"z": -1.6259881152,
				"element": "H" 
			}
		],
		 "valence_orbital": [ 
			{
				"type": "occ",
				"energy": -0.29681,
				"method": "rhf"
			},
			{
				"type": "occ",
				"energy": -0.29197,
				"method": "rhf"
			},
			{
				"type": "occ",
				"energy": -0.28944,
				"method": "rhf"
			},
			{
				"type": "occ",
				"energy": -0.25432,
				"method": "rhf"
			},
			{
				"type": "occ",
				"energy": -0.23309,
				"method": "rhf"
			},
			{
				"type": "unocc",
				"energy": -0.04063,
				"method": "rhf"
			},
			{
				"type": "unocc",
				"energy": -0.0352,
				"method": "rhf"
			},
			{
				"type": "unocc",
				"energy": -0.01784,
				"method": "rhf"
			},
			{
				"type": "unocc",
				"energy": 0.01371,
				"method": "rhf"
			},
			{
				"type": "unocc",
				"energy": 0.02129,
				"method": "rhf"
			}
		],
		"cosmo_sigma_profile": { 
			"-0.025": 0.0,
			"-0.024": 0.0,
			"-0.023": 0.0,
			"-0.022": 0.0,
			"-0.021": 0.0,
			"-0.02": 0.0,
			"-0.019": 0.0,
			"-0.018": 0.0,
			"-0.017": 0.0,
			"-0.016": 0.0,
			"-0.015": 0.460937763002,
			"-0.014": 0.567156562951,
			"-0.013": 0.390995784962,
			"-0.012": 0.507820438756,
			"-0.011": 1.27861024347,
			"-0.01": 0.886281510449,
			"-0.009": 0.832721141663,
			"-0.008": 1.81519990309,
			"-0.007": 3.07924640978,
			"-0.006": 3.2804855922,
			"-0.005": 8.691364881,
			"-0.004": 11.9791125876,
			"-0.003": 15.0634566678,
			"-0.002": 17.1655609604,
			"-0.001": 25.8051791444,
			"0.0": 26.8049795557,
			"0.001": 28.7409286027,
			"0.002": 20.5939949114,
			"0.003": 19.4900066433,
			"0.004": 18.1725638194,
			"0.005": 5.80985203011,
			"0.006": 2.09530269322,
			"0.007": 1.81709901682,
			"0.008": 1.96786702162,
			"0.009": 2.12730160429,
			"0.01": 1.54886207838,
			"0.011": 0.0353459575566,
			"0.012": 0.0,
			"0.013": 0.0,
			"0.014": 0.0,
			"0.015": 0.0,
			"0.016": 0.0,
			"0.017": 0.0,
			"0.018": 0.0,
			"0.019": 0.0,
			"0.02": 0.0,
			"0.021": 0.0,
			"0.022": 0.0,
			"0.023": 0.0,
			"0.024": 0.0,
			"0.025": 0.0
		}
	}
}
