{
	 "smiles": "CC1=CC=C(C=C1)C(=O)C1=CC2=C(NC(=O)O2)C=C1", 
	 "Tm": 480.15, 
	 "num_atms": 30, 
	 "gaussian": { 
		 "optdone": 1, 
		 "sigma_profile": "yes", 
		 "theory": "DFT", 
		 "functional": "B3LYP", 
		 "basiset": "6-31G**", 
		 "properties": { 
			 "R2extent": 7857.3059, 
			 "electric_dipole_moment_norm": 1.82921127812, 
			 "electric_quadrupole_moment_norm": 38.0388031008, 
			 "total_energy": -858.678144227, 
			 "HOMO_LUMO_gap": 0.16792, 
			 "cosmo_polarized_energy": -17.75, 
			 "cosmo_cavitation_energy": 35.21, 
			 "cosmo_dispersion_energy": -25.78, 
			 "cosmo_repulsion_energy": 1.96, 
			 "cosmo_total_nonelectrostatic_energy": 11.39, 
			 "SMD_solvation_energy": 7.59 
		},
		"coords": [
			{
				"x": -4.5875856439,
				"y": 0.9058581095,
				"z": 1.4617784165,
				"element": "C" 
			},
			{
				"x": -3.159930281,
				"y": 0.4303299227,
				"z": 1.5785145159,
				"element": "C" 
			},
			{
				"x": -2.0967169152,
				"y": 1.3393846255,
				"z": 1.6411570876,
				"element": "C" 
			},
			{
				"x": -0.7750423958,
				"y": 0.8996444302,
				"z": 1.7108933447,
				"element": "C" 
			},
			{
				"x": -0.4820867919,
				"y": -0.4720038726,
				"z": 1.7338351856,
				"element": "C" 
			},
			{
				"x": -1.5480580631,
				"y": -1.3866600866,
				"z": 1.7035988218,
				"element": "C" 
			},
			{
				"x": -2.860865162,
				"y": -0.9417510899,
				"z": 1.6147171348,
				"element": "C" 
			},
			{
				"x": 0.9037958691,
				"y": -1.0191526013,
				"z": 1.8853462942,
				"element": "C" 
			},
			{
				"x": 1.0766427939,
				"y": -2.0963876137,
				"z": 2.4476975354,
				"element": "O" 
			},
			{
				"x": 2.0870075669,
				"y": -0.2649770998,
				"z": 1.3526160308,
				"element": "C" 
			},
			{
				"x": 1.9936386291,
				"y": 0.6187331331,
				"z": 0.2563875359,
				"element": "C" 
			},
			{
				"x": 3.1659712737,
				"y": 1.1981795838,
				"z": -0.180717248,
				"element": "C" 
			},
			{
				"x": 4.4056026402,
				"y": 0.945792025,
				"z": 0.4185841199,
				"element": "C" 
			},
			{
				"x": 5.317126717,
				"y": 1.7082225782,
				"z": -0.2975408367,
				"element": "N" 
			},
			{
				"x": 4.6799226275,
				"y": 2.4069831322,
				"z": -1.3139410559,
				"element": "C" 
			},
			{
				"x": 5.1469820518,
				"y": 3.1570688377,
				"z": -2.128466845,
				"element": "O" 
			},
			{
				"x": 3.3303835493,
				"y": 2.0783195292,
				"z": -1.2290289359,
				"element": "O" 
			},
			{
				"x": 4.5136873231,
				"y": 0.07179826,
				"z": 1.4953890185,
				"element": "C" 
			},
			{
				"x": 3.3371533264,
				"y": -0.5335739312,
				"z": 1.9398295139,
				"element": "C" 
			},
			{
				"x": -5.2624599549,
				"y": 0.2976024444,
				"z": 2.0723097186,
				"element": "H" 
			},
			{
				"x": -4.9407249548,
				"y": 0.8374756199,
				"z": 0.4252368063,
				"element": "H" 
			},
			{
				"x": -4.6904260152,
				"y": 1.9484355709,
				"z": 1.7751266645,
				"element": "H" 
			},
			{
				"x": -2.3051336056,
				"y": 2.4061936178,
				"z": 1.6404443257,
				"element": "H" 
			},
			{
				"x": 0.0254333649,
				"y": 1.6287749548,
				"z": 1.7809240735,
				"element": "H" 
			},
			{
				"x": -1.3205440946,
				"y": -2.4462566369,
				"z": 1.7557408678,
				"element": "H" 
			},
			{
				"x": -3.6717149204,
				"y": -1.6653186849,
				"z": 1.5804460825,
				"element": "H" 
			},
			{
				"x": 1.0536803831,
				"y": 0.8191154733,
				"z": -0.2423535397,
				"element": "H" 
			},
			{
				"x": 6.3132646792,
				"y": 1.7709493798,
				"z": -0.1598415708,
				"element": "H" 
			},
			{
				"x": 5.4680703306,
				"y": -0.1381188256,
				"z": 1.9666549834,
				"element": "H" 
			},
			{
				"x": 3.3642256726,
				"y": -1.2424607855,
				"z": 2.7597619542,
				"element": "H" 
			}
		],
		 "valence_orbital": [ 
			{
				"type": "occ",
				"energy": -0.2666,
				"method": "rhf"
			},
			{
				"type": "occ",
				"energy": -0.26046,
				"method": "rhf"
			},
			{
				"type": "occ",
				"energy": -0.25742,
				"method": "rhf"
			},
			{
				"type": "occ",
				"energy": -0.24615,
				"method": "rhf"
			},
			{
				"type": "occ",
				"energy": -0.23331,
				"method": "rhf"
			},
			{
				"type": "unocc",
				"energy": -0.06539,
				"method": "rhf"
			},
			{
				"type": "unocc",
				"energy": -0.02619,
				"method": "rhf"
			},
			{
				"type": "unocc",
				"energy": -0.00991,
				"method": "rhf"
			},
			{
				"type": "unocc",
				"energy": -0.009,
				"method": "rhf"
			},
			{
				"type": "unocc",
				"energy": 0.0374,
				"method": "rhf"
			}
		],
		"cosmo_sigma_profile": { 
			"-0.025": 0.0,
			"-0.024": 0.0,
			"-0.023": 0.0,
			"-0.022": 0.0,
			"-0.021": 0.0,
			"-0.02": 0.0,
			"-0.019": 0.0,
			"-0.018": 0.625143064524,
			"-0.017": 1.61131206539,
			"-0.016": 1.23634761033,
			"-0.015": 1.18256436551,
			"-0.014": 0.788357278309,
			"-0.013": 1.31476852674,
			"-0.012": 1.35851898865,
			"-0.011": 0.958887627876,
			"-0.01": 0.923933609158,
			"-0.009": 1.89836377906,
			"-0.008": 3.34723424944,
			"-0.007": 3.78384432683,
			"-0.006": 9.75241280937,
			"-0.005": 18.2788898278,
			"-0.004": 24.888212624,
			"-0.003": 23.3887125192,
			"-0.002": 21.625942261,
			"-0.001": 26.3348926165,
			"0.0": 24.2180664541,
			"0.001": 18.1852540128,
			"0.002": 16.1681151907,
			"0.003": 16.6347624002,
			"0.004": 15.0362176846,
			"0.005": 7.67999718116,
			"0.006": 4.82198125601,
			"0.007": 5.60537782807,
			"0.008": 4.61855927972,
			"0.009": 2.95235491312,
			"0.01": 5.04015895062,
			"0.011": 8.46524190115,
			"0.012": 8.31718509119,
			"0.013": 1.80695287292,
			"0.014": 0.0,
			"0.015": 0.0,
			"0.016": 0.0,
			"0.017": 0.0,
			"0.018": 0.0,
			"0.019": 0.0,
			"0.02": 0.0,
			"0.021": 0.0,
			"0.022": 0.0,
			"0.023": 0.0,
			"0.024": 0.0,
			"0.025": 0.0
		}
	}
}
