{
	 "smiles": "NC1=C(C#N)C(=NN1)C1=CC=C(Cl)C=C1", 
	 "Tm": 489.15, 
	 "num_atms": 22, 
	 "gaussian": { 
		 "optdone": 1, 
		 "sigma_profile": "yes", 
		 "theory": "DFT", 
		 "functional": "B3LYP", 
		 "basiset": "6-31G**", 
		 "properties": { 
			 "R2extent": 4660.8767, 
			 "electric_dipole_moment_norm": 6.55661197495, 
			 "electric_quadrupole_moment_norm": 20.9385501396, 
			 "total_energy": -1064.45565031, 
			 "HOMO_LUMO_gap": 0.1852, 
			 "cosmo_polarized_energy": -20.1, 
			 "cosmo_cavitation_energy": 29.76, 
			 "cosmo_dispersion_energy": -21.66, 
			 "cosmo_repulsion_energy": 1.69, 
			 "cosmo_total_nonelectrostatic_energy": 9.79, 
			 "SMD_solvation_energy": 4.94 
		},
		"coords": [
			{
				"x": -2.2751068102,
				"y": 3.986032588,
				"z": 1.7242094357,
				"element": "N" 
			},
			{
				"x": -1.6676569699,
				"y": 2.7750734027,
				"z": 1.4793767667,
				"element": "C" 
			},
			{
				"x": -0.9761147626,
				"y": 2.3198187023,
				"z": 0.3510866377,
				"element": "C" 
			},
			{
				"x": -0.8827482647,
				"y": 3.0620982862,
				"z": -0.8464770799,
				"element": "C" 
			},
			{
				"x": -0.8412307868,
				"y": 3.7197701361,
				"z": -1.8092706394,
				"element": "N" 
			},
			{
				"x": -0.4962721638,
				"y": 1.0103513547,
				"z": 0.7096301849,
				"element": "C" 
			},
			{
				"x": -0.8711918279,
				"y": 0.7008094728,
				"z": 1.9452647632,
				"element": "N" 
			},
			{
				"x": -1.5788332931,
				"y": 1.7801011693,
				"z": 2.3896605928,
				"element": "N" 
			},
			{
				"x": 0.2879110091,
				"y": 0.0520467703,
				"z": -0.0875210911,
				"element": "C" 
			},
			{
				"x": 0.8603871432,
				"y": 0.4016870309,
				"z": -1.3199078627,
				"element": "C" 
			},
			{
				"x": 1.6031838704,
				"y": -0.5235744569,
				"z": -2.0521762864,
				"element": "C" 
			},
			{
				"x": 1.7791148808,
				"y": -1.8101850964,
				"z": -1.5482577344,
				"element": "C" 
			},
			{
				"x": 2.7134280936,
				"y": -2.9816574684,
				"z": -2.4662636514,
				"element": "Cl" 
			},
			{
				"x": 1.2226524064,
				"y": -2.1832862249,
				"z": -0.3234044531,
				"element": "C" 
			},
			{
				"x": 0.4816468302,
				"y": -1.2536560646,
				"z": 0.397223728,
				"element": "C" 
			},
			{
				"x": -3.1361891189,
				"y": 3.9536068416,
				"z": 2.2544260132,
				"element": "H" 
			},
			{
				"x": -2.3539485637,
				"y": 4.5714685828,
				"z": 0.9021955288,
				"element": "H" 
			},
			{
				"x": -1.9018206953,
				"y": 1.7918104713,
				"z": 3.3445883215,
				"element": "H" 
			},
			{
				"x": 0.737058274,
				"y": 1.4008768295,
				"z": -1.721695687,
				"element": "H" 
			},
			{
				"x": 2.0423761366,
				"y": -0.2456507019,
				"z": -3.0036778654,
				"element": "H" 
			},
			{
				"x": 1.367128987,
				"y": -3.1889338952,
				"z": 0.0556742891,
				"element": "H" 
			},
			{
				"x": 0.0420256253,
				"y": -1.5314077302,
				"z": 1.3486160892,
				"element": "H" 
			}
		],
		 "valence_orbital": [ 
			{
				"type": "occ",
				"energy": -0.30351,
				"method": "rhf"
			},
			{
				"type": "occ",
				"energy": -0.28724,
				"method": "rhf"
			},
			{
				"type": "occ",
				"energy": -0.26227,
				"method": "rhf"
			},
			{
				"type": "occ",
				"energy": -0.2401,
				"method": "rhf"
			},
			{
				"type": "occ",
				"energy": -0.22606,
				"method": "rhf"
			},
			{
				"type": "unocc",
				"energy": -0.04086,
				"method": "rhf"
			},
			{
				"type": "unocc",
				"energy": -0.01407,
				"method": "rhf"
			},
			{
				"type": "unocc",
				"energy": -0.00277,
				"method": "rhf"
			},
			{
				"type": "unocc",
				"energy": 0.01937,
				"method": "rhf"
			},
			{
				"type": "unocc",
				"energy": 0.03365,
				"method": "rhf"
			}
		],
		"cosmo_sigma_profile": { 
			"-0.025": 0.0,
			"-0.024": 0.0,
			"-0.023": 0.0,
			"-0.022": 0.0,
			"-0.021": 0.0,
			"-0.02": 0.0,
			"-0.019": 0.0,
			"-0.018": 0.738273935284,
			"-0.017": 2.57747642562,
			"-0.016": 2.49637163111,
			"-0.015": 2.52910444209,
			"-0.014": 2.82922022101,
			"-0.013": 3.07997068388,
			"-0.012": 3.67841864255,
			"-0.011": 3.53426959687,
			"-0.01": 2.1646914146,
			"-0.009": 2.34658209371,
			"-0.008": 3.28384918528,
			"-0.007": 5.53918370741,
			"-0.006": 7.80479528904,
			"-0.005": 8.55671489404,
			"-0.004": 7.32243345629,
			"-0.003": 9.40214732836,
			"-0.002": 10.6649100771,
			"-0.001": 13.4773061122,
			"0.0": 18.920679398,
			"0.001": 22.038433913,
			"0.002": 24.3145306121,
			"0.003": 24.2182296275,
			"0.004": 17.1983559639,
			"0.005": 9.60578627799,
			"0.006": 4.49233566015,
			"0.007": 4.58364697063,
			"0.008": 3.88218786191,
			"0.009": 5.16546988257,
			"0.01": 4.03220655171,
			"0.011": 5.15293841838,
			"0.012": 3.50940297122,
			"0.013": 2.82951798484,
			"0.014": 0.615247001599,
			"0.015": 0.0,
			"0.016": 0.0,
			"0.017": 0.0,
			"0.018": 0.0,
			"0.019": 0.0,
			"0.02": 0.0,
			"0.021": 0.0,
			"0.022": 0.0,
			"0.023": 0.0,
			"0.024": 0.0,
			"0.025": 0.0
		}
	}
}
