{
	 "smiles": "COC1=CC=C2NC3=C(CCNC3C)C2=C1", 
	 "Tm": 423.15, 
	 "num_atms": 32, 
	 "gaussian": { 
		 "optdone": 1, 
		 "sigma_profile": "yes", 
		 "theory": "DFT", 
		 "functional": "B3LYP", 
		 "basiset": "6-31G**", 
		 "properties": { 
			 "R2extent": 4689.5736, 
			 "electric_dipole_moment_norm": 2.25868264482, 
			 "electric_quadrupole_moment_norm": 6.86932732151, 
			 "total_energy": -689.748346653, 
			 "HOMO_LUMO_gap": 0.18112, 
			 "cosmo_polarized_energy": -12.74, 
			 "cosmo_cavitation_energy": 33.44, 
			 "cosmo_dispersion_energy": -24.81, 
			 "cosmo_repulsion_energy": 1.92, 
			 "cosmo_total_nonelectrostatic_energy": 10.55, 
			 "SMD_solvation_energy": 3.07 
		},
		"coords": [
			{
				"x": 2.6589154867,
				"y": -1.0968074118,
				"z": -4.6453335741,
				"element": "C" 
			},
			{
				"x": 1.9501502411,
				"y": -0.2029403904,
				"z": -3.8097692007,
				"element": "O" 
			},
			{
				"x": 1.7399243653,
				"y": -0.5607631397,
				"z": -2.4990027808,
				"element": "C" 
			},
			{
				"x": 2.1929694455,
				"y": -1.7742014905,
				"z": -1.938032468,
				"element": "C" 
			},
			{
				"x": 1.9459420113,
				"y": -2.0744306952,
				"z": -0.5980624565,
				"element": "C" 
			},
			{
				"x": 1.2427937615,
				"y": -1.1488634699,
				"z": 0.1688663765,
				"element": "C" 
			},
			{
				"x": 0.862318701,
				"y": -1.1753213173,
				"z": 1.5020043968,
				"element": "N" 
			},
			{
				"x": 0.1632888921,
				"y": -0.0157230709,
				"z": 1.7944005855,
				"element": "C" 
			},
			{
				"x": 0.0995062927,
				"y": 0.7805682196,
				"z": 0.6761316331,
				"element": "C" 
			},
			{
				"x": -0.5603991869,
				"y": 2.1291417491,
				"z": 0.6949363031,
				"element": "C" 
			},
			{
				"x": -0.7686956815,
				"y": 2.5701654186,
				"z": 2.1609490084,
				"element": "C" 
			},
			{
				"x": -1.2943165383,
				"y": 1.5155225025,
				"z": 3.0388136734,
				"element": "N" 
			},
			{
				"x": -0.3999091297,
				"y": 0.3501714793,
				"z": 3.1461622138,
				"element": "C" 
			},
			{
				"x": -1.143948328,
				"y": -0.8020512077,
				"z": 3.8315498008,
				"element": "C" 
			},
			{
				"x": 0.7755184647,
				"y": 0.0785571472,
				"z": -0.3838130163,
				"element": "C" 
			},
			{
				"x": 1.0339161351,
				"y": 0.3651392823,
				"z": -1.7306264319,
				"element": "C" 
			},
			{
				"x": 3.6808805867,
				"y": -1.275640479,
				"z": -4.2835052628,
				"element": "H" 
			},
			{
				"x": 2.7086816213,
				"y": -0.6201489693,
				"z": -5.626358767,
				"element": "H" 
			},
			{
				"x": 2.1450025349,
				"y": -2.0629902205,
				"z": -4.7439317084,
				"element": "H" 
			},
			{
				"x": 2.7401722929,
				"y": -2.487938449,
				"z": -2.5415586766,
				"element": "H" 
			},
			{
				"x": 2.2999362656,
				"y": -3.0103229314,
				"z": -0.1742585597,
				"element": "H" 
			},
			{
				"x": 1.0218617314,
				"y": -1.9389121231,
				"z": 2.1375708671,
				"element": "H" 
			},
			{
				"x": -1.5286302501,
				"y": 2.1029474724,
				"z": 0.171308267,
				"element": "H" 
			},
			{
				"x": 0.0476786229,
				"y": 2.8747819377,
				"z": 0.1650492723,
				"element": "H" 
			},
			{
				"x": -1.4482071911,
				"y": 3.427884939,
				"z": 2.2124289582,
				"element": "H" 
			},
			{
				"x": 0.1909896317,
				"y": 2.8964720358,
				"z": 2.5812174985,
				"element": "H" 
			},
			{
				"x": -2.1848633923,
				"y": 1.1945298939,
				"z": 2.659569409,
				"element": "H" 
			},
			{
				"x": 0.4321692328,
				"y": 0.6492383321,
				"z": 3.8047621416,
				"element": "H" 
			},
			{
				"x": -1.9615327743,
				"y": -1.169563722,
				"z": 3.2010632623,
				"element": "H" 
			},
			{
				"x": -0.4778216382,
				"y": -1.6453418049,
				"z": 4.0416357265,
				"element": "H" 
			},
			{
				"x": -1.5631947627,
				"y": -0.4566600716,
				"z": 4.7804760264,
				"element": "H" 
			},
			{
				"x": 0.6998025558,
				"y": 1.2867005548,
				"z": -2.1963425176,
				"element": "H" 
			}
		],
		 "valence_orbital": [ 
			{
				"type": "occ",
				"energy": -0.28452,
				"method": "rhf"
			},
			{
				"type": "occ",
				"energy": -0.25959,
				"method": "rhf"
			},
			{
				"type": "occ",
				"energy": -0.22219,
				"method": "rhf"
			},
			{
				"type": "occ",
				"energy": -0.19497,
				"method": "rhf"
			},
			{
				"type": "occ",
				"energy": -0.18359,
				"method": "rhf"
			},
			{
				"type": "unocc",
				"energy": -0.00247,
				"method": "rhf"
			},
			{
				"type": "unocc",
				"energy": 0.0453,
				"method": "rhf"
			},
			{
				"type": "unocc",
				"energy": 0.06929,
				"method": "rhf"
			},
			{
				"type": "unocc",
				"energy": 0.07374,
				"method": "rhf"
			},
			{
				"type": "unocc",
				"energy": 0.09965,
				"method": "rhf"
			}
		],
		"cosmo_sigma_profile": { 
			"-0.025": 0.0,
			"-0.024": 0.0,
			"-0.023": 0.0,
			"-0.022": 0.0,
			"-0.021": 0.0,
			"-0.02": 0.0,
			"-0.019": 0.0,
			"-0.018": 0.0,
			"-0.017": 0.0,
			"-0.016": 0.0,
			"-0.015": 0.143946691131,
			"-0.014": 1.17468596649,
			"-0.013": 1.30534957775,
			"-0.012": 0.858279287299,
			"-0.011": 1.89685016401,
			"-0.01": 1.97237790709,
			"-0.009": 2.56552754828,
			"-0.008": 2.58155100537,
			"-0.007": 3.26342266803,
			"-0.006": 5.5366161548,
			"-0.005": 13.7435102214,
			"-0.004": 21.5984549331,
			"-0.003": 30.4221540817,
			"-0.002": 29.6124395629,
			"-0.001": 23.7177990678,
			"0.0": 23.5736195126,
			"0.001": 14.4434186054,
			"0.002": 8.15317283709,
			"0.003": 9.31801246641,
			"0.004": 9.34977291634,
			"0.005": 12.9877306806,
			"0.006": 16.9778877433,
			"0.007": 13.9631789322,
			"0.008": 2.25722498432,
			"0.009": 2.32397099477,
			"0.01": 2.15467465601,
			"0.011": 2.72851744773,
			"0.012": 0.942215257799,
			"0.013": 0.225905656148,
			"0.014": 0.734097250873,
			"0.015": 0.419064722318,
			"0.016": 0.645990440479,
			"0.017": 0.509857540869,
			"0.018": 0.458854914187,
			"0.019": 0.0903250974333,
			"0.02": 0.0,
			"0.021": 0.0,
			"0.022": 0.0,
			"0.023": 0.0,
			"0.024": 0.0,
			"0.025": 0.0
		}
	}
}
