{
	 "smiles": "CC1=C(C)C2=C(NC=NC2=N)N1CCC1=NC=CC=C1", 
	 "Tm": 406.15, 
	 "num_atms": 37, 
	 "gaussian": { 
		 "optdone": 1, 
		 "sigma_profile": "yes", 
		 "theory": "DFT", 
		 "functional": "B3LYP", 
		 "basiset": "6-31G**", 
		 "properties": { 
			 "R2extent": 6661.1703, 
			 "electric_dipole_moment_norm": 11.3654047812, 
			 "electric_quadrupole_moment_norm": 12.0687119151, 
			 "total_energy": -855.601754047, 
			 "HOMO_LUMO_gap": 0.10845, 
			 "cosmo_polarized_energy": -22.93, 
			 "cosmo_cavitation_energy": 39.17, 
			 "cosmo_dispersion_energy": -27.8, 
			 "cosmo_repulsion_energy": 2.09, 
			 "cosmo_total_nonelectrostatic_energy": 13.46, 
			 "SMD_solvation_energy": 3.95 
		},
		"coords": [
			{
				"x": -0.4337261991,
				"y": 1.3859408542,
				"z": 3.500454939,
				"element": "C" 
			},
			{
				"x": -0.437657821,
				"y": 1.52997299,
				"z": 2.0135967862,
				"element": "C" 
			},
			{
				"x": -1.1681405349,
				"y": 2.3845595645,
				"z": 1.2130287439,
				"element": "C" 
			},
			{
				"x": -2.1694993799,
				"y": 3.413829975,
				"z": 1.6612167798,
				"element": "C" 
			},
			{
				"x": -0.7892937631,
				"y": 2.117075707,
				"z": -0.1477543303,
				"element": "C" 
			},
			{
				"x": 0.1561576779,
				"y": 1.1099397674,
				"z": -0.1026839643,
				"element": "C" 
			},
			{
				"x": 0.7521032835,
				"y": 0.586590615,
				"z": -1.230755127,
				"element": "N" 
			},
			{
				"x": 0.3289309625,
				"y": 1.1233348305,
				"z": -2.4229146397,
				"element": "C" 
			},
			{
				"x": -0.5338943427,
				"y": 2.0706504596,
				"z": -2.5731758666,
				"element": "N" 
			},
			{
				"x": -1.1800365541,
				"y": 2.6550433541,
				"z": -1.4470228879,
				"element": "C" 
			},
			{
				"x": -2.054136167,
				"y": 3.5919756116,
				"z": -1.581011765,
				"element": "N" 
			},
			{
				"x": 0.3932399618,
				"y": 0.7420233214,
				"z": 1.1925375603,
				"element": "N" 
			},
			{
				"x": 1.3291528746,
				"y": -0.2895626271,
				"z": 1.5988080449,
				"element": "C" 
			},
			{
				"x": 0.8521272311,
				"y": -1.7399695872,
				"z": 1.273628623,
				"element": "C" 
			},
			{
				"x": 1.8512448517,
				"y": -2.5336985203,
				"z": 0.4601432893,
				"element": "C" 
			},
			{
				"x": 2.2471288293,
				"y": -1.9815325867,
				"z": -0.703808714,
				"element": "N" 
			},
			{
				"x": 3.1209952775,
				"y": -2.6476503376,
				"z": -1.4686191583,
				"element": "C" 
			},
			{
				"x": 3.6476764468,
				"y": -3.8916936709,
				"z": -1.1247432745,
				"element": "C" 
			},
			{
				"x": 3.2429801479,
				"y": -4.4649111668,
				"z": 0.079295735,
				"element": "C" 
			},
			{
				"x": 2.3352535435,
				"y": -3.7762255629,
				"z": 0.8826636658,
				"element": "C" 
			},
			{
				"x": -1.1755656053,
				"y": 2.0649741986,
				"z": 3.9266440274,
				"element": "H" 
			},
			{
				"x": 0.5345158804,
				"y": 1.6407248109,
				"z": 3.9535931915,
				"element": "H" 
			},
			{
				"x": -0.6929266832,
				"y": 0.3715822157,
				"z": 3.8335467535,
				"element": "H" 
			},
			{
				"x": -2.957484101,
				"y": 2.9743260583,
				"z": 2.2848587415,
				"element": "H" 
			},
			{
				"x": -2.6322379356,
				"y": 3.8675051859,
				"z": 0.7827302072,
				"element": "H" 
			},
			{
				"x": -1.6985455564,
				"y": 4.213457766,
				"z": 2.2466831746,
				"element": "H" 
			},
			{
				"x": 1.3470877597,
				"y": -0.2477083718,
				"z": -1.1919626289,
				"element": "H" 
			},
			{
				"x": 0.794777998,
				"y": 0.6823482897,
				"z": -3.3040331793,
				"element": "H" 
			},
			{
				"x": -2.1540414568,
				"y": 3.7901864445,
				"z": -2.5801254942,
				"element": "H" 
			},
			{
				"x": 2.2876229388,
				"y": -0.1030375446,
				"z": 1.1027769528,
				"element": "H" 
			},
			{
				"x": 1.4997273212,
				"y": -0.1803646951,
				"z": 2.6706802763,
				"element": "H" 
			},
			{
				"x": -0.0814824747,
				"y": -1.6718419944,
				"z": 0.7041776559,
				"element": "H" 
			},
			{
				"x": 0.6154690505,
				"y": -2.2803613717,
				"z": 2.1947650467,
				"element": "H" 
			},
			{
				"x": 3.4108259484,
				"y": -2.1626456108,
				"z": -2.3983045929,
				"element": "H" 
			},
			{
				"x": 4.3528708615,
				"y": -4.3890169776,
				"z": -1.7820730945,
				"element": "H" 
			},
			{
				"x": 3.6286903954,
				"y": -5.431325919,
				"z": 0.3904671592,
				"element": "H" 
			},
			{
				"x": 2.0013893327,
				"y": -4.1933954755,
				"z": 1.8274913635,
				"element": "H" 
			}
		],
		 "valence_orbital": [ 
			{
				"type": "occ",
				"energy": -0.24541,
				"method": "rhf"
			},
			{
				"type": "occ",
				"energy": -0.2411,
				"method": "rhf"
			},
			{
				"type": "occ",
				"energy": -0.22271,
				"method": "rhf"
			},
			{
				"type": "occ",
				"energy": -0.20825,
				"method": "rhf"
			},
			{
				"type": "occ",
				"energy": -0.16495,
				"method": "rhf"
			},
			{
				"type": "unocc",
				"energy": -0.0565,
				"method": "rhf"
			},
			{
				"type": "unocc",
				"energy": -0.03709,
				"method": "rhf"
			},
			{
				"type": "unocc",
				"energy": 0.00738,
				"method": "rhf"
			},
			{
				"type": "unocc",
				"energy": 0.04073,
				"method": "rhf"
			},
			{
				"type": "unocc",
				"energy": 0.06019,
				"method": "rhf"
			}
		],
		"cosmo_sigma_profile": { 
			"-0.025": 0.0,
			"-0.024": 0.0,
			"-0.023": 0.0,
			"-0.022": 0.0,
			"-0.021": 0.0,
			"-0.02": 0.0,
			"-0.019": 0.0,
			"-0.018": 0.0,
			"-0.017": 0.0,
			"-0.016": 0.0,
			"-0.015": 0.0,
			"-0.014": 0.0,
			"-0.013": 0.0,
			"-0.012": 0.0,
			"-0.011": 0.0,
			"-0.01": 0.0491733531355,
			"-0.009": 1.95394058324,
			"-0.008": 3.28088092743,
			"-0.007": 10.0498591996,
			"-0.006": 20.0803869538,
			"-0.005": 26.1786668075,
			"-0.004": 26.0427717141,
			"-0.003": 25.6703695718,
			"-0.002": 26.5781887951,
			"-0.001": 23.4960963007,
			"0.0": 24.1453345832,
			"0.001": 24.2290694638,
			"0.002": 25.1540723533,
			"0.003": 15.732204258,
			"0.004": 8.72766930254,
			"0.005": 7.53839124478,
			"0.006": 8.00119599789,
			"0.007": 7.16259739168,
			"0.008": 3.23650304396,
			"0.009": 3.53839699724,
			"0.01": 3.14993977539,
			"0.011": 3.08491125508,
			"0.012": 3.18210640087,
			"0.013": 1.75757940546,
			"0.014": 3.37088345883,
			"0.015": 2.19273612646,
			"0.016": 3.05609406617,
			"0.017": 1.04478152096,
			"0.018": 0.0,
			"0.019": 0.0,
			"0.02": 0.0,
			"0.021": 0.0,
			"0.022": 0.0,
			"0.023": 0.0,
			"0.024": 0.0,
			"0.025": 0.0
		}
	}
}
