{
	 "smiles": "O=C1N(CCCC2=NNN=N2)C(=O)C2=C1C=CC=C2", 
	 "Tm": 353.15, 
	 "num_atms": 30, 
	 "gaussian": { 
		 "optdone": 1, 
		 "sigma_profile": "yes", 
		 "theory": "DFT", 
		 "functional": "B3LYP", 
		 "basiset": "6-31G**", 
		 "properties": { 
			 "R2extent": 5680.017, 
			 "electric_dipole_moment_norm": 4.06222531871, 
			 "electric_quadrupole_moment_norm": 9.55775296082, 
			 "total_energy": -888.099697291, 
			 "HOMO_LUMO_gap": 0.18404, 
			 "cosmo_polarized_energy": -19.64, 
			 "cosmo_cavitation_energy": 35.46, 
			 "cosmo_dispersion_energy": -24.61, 
			 "cosmo_repulsion_energy": 1.88, 
			 "cosmo_total_nonelectrostatic_energy": 12.73, 
			 "SMD_solvation_energy": 4.43 
		},
		"coords": [
			{
				"x": -0.7842590546,
				"y": 0.8706375287,
				"z": -1.8896960424,
				"element": "O" 
			},
			{
				"x": -0.4444946193,
				"y": 1.122233317,
				"z": -0.7504293751,
				"element": "C" 
			},
			{
				"x": 0.4993234942,
				"y": 0.3966300106,
				"z": -0.0016738081,
				"element": "N" 
			},
			{
				"x": 1.2422058498,
				"y": -0.751966267,
				"z": -0.5134983439,
				"element": "C" 
			},
			{
				"x": 0.7934206507,
				"y": -2.0922676348,
				"z": 0.0854175184,
				"element": "C" 
			},
			{
				"x": -0.6713588326,
				"y": -2.4665298491,
				"z": -0.1924299247,
				"element": "C" 
			},
			{
				"x": -0.9854591682,
				"y": -2.6515459868,
				"z": -1.646011895,
				"element": "C" 
			},
			{
				"x": -2.1780455541,
				"y": -2.4074170188,
				"z": -2.1869311525,
				"element": "N" 
			},
			{
				"x": -1.9529591969,
				"y": -2.7338486327,
				"z": -3.4554757057,
				"element": "N" 
			},
			{
				"x": -0.7194759025,
				"y": -3.1467643439,
				"z": -3.7173113018,
				"element": "N" 
			},
			{
				"x": -0.0905356806,
				"y": -3.1030217727,
				"z": -2.5687574731,
				"element": "N" 
			},
			{
				"x": 0.7012359131,
				"y": 0.9495155429,
				"z": 1.2729919742,
				"element": "C" 
			},
			{
				"x": 1.4797885076,
				"y": 0.526114841,
				"z": 2.1056743674,
				"element": "O" 
			},
			{
				"x": -0.217041548,
				"y": 2.1250245227,
				"z": 1.3551792612,
				"element": "C" 
			},
			{
				"x": -0.9035675936,
				"y": 2.2277223861,
				"z": 0.1434639723,
				"element": "C" 
			},
			{
				"x": -1.8318970712,
				"y": 3.2336161553,
				"z": -0.0816604743,
				"element": "C" 
			},
			{
				"x": -2.057117316,
				"y": 4.1469823978,
				"z": 0.9571747118,
				"element": "C" 
			},
			{
				"x": -1.3683217583,
				"y": 4.0440537484,
				"z": 2.1726954195,
				"element": "C" 
			},
			{
				"x": -0.4317944739,
				"y": 3.0242098169,
				"z": 2.38945471,
				"element": "C" 
			},
			{
				"x": 1.1139835008,
				"y": -0.746849558,
				"z": -1.5980980251,
				"element": "H" 
			},
			{
				"x": 2.3005575257,
				"y": -0.5924400115,
				"z": -0.287006073,
				"element": "H" 
			},
			{
				"x": 1.4483388405,
				"y": -2.8682303846,
				"z": -0.3241955711,
				"element": "H" 
			},
			{
				"x": 0.9545868475,
				"y": -2.0683691284,
				"z": 1.1675802632,
				"element": "H" 
			},
			{
				"x": -1.3540831639,
				"y": -1.7118380467,
				"z": 0.2104036829,
				"element": "H" 
			},
			{
				"x": -0.8997051746,
				"y": -3.3989544891,
				"z": 0.3396111294,
				"element": "H" 
			},
			{
				"x": -2.6569466896,
				"y": -2.6476589433,
				"z": -4.1757818679,
				"element": "H" 
			},
			{
				"x": -2.3586178684,
				"y": 3.3039889286,
				"z": -1.0278479687,
				"element": "H" 
			},
			{
				"x": -2.7764545789,
				"y": 4.9487950518,
				"z": 0.8196667193,
				"element": "H" 
			},
			{
				"x": -1.5645723861,
				"y": 4.7676899243,
				"z": 2.9582535426,
				"element": "H" 
			},
			{
				"x": 0.1086665012,
				"y": 2.9353878951,
				"z": 3.3263377301,
				"element": "H" 
			}
		],
		 "valence_orbital": [ 
			{
				"type": "occ",
				"energy": -0.28464,
				"method": "rhf"
			},
			{
				"type": "occ",
				"energy": -0.28346,
				"method": "rhf"
			},
			{
				"type": "occ",
				"energy": -0.27795,
				"method": "rhf"
			},
			{
				"type": "occ",
				"energy": -0.2668,
				"method": "rhf"
			},
			{
				"type": "occ",
				"energy": -0.26544,
				"method": "rhf"
			},
			{
				"type": "unocc",
				"energy": -0.0814,
				"method": "rhf"
			},
			{
				"type": "unocc",
				"energy": -0.0408,
				"method": "rhf"
			},
			{
				"type": "unocc",
				"energy": -0.02395,
				"method": "rhf"
			},
			{
				"type": "unocc",
				"energy": 0.02779,
				"method": "rhf"
			},
			{
				"type": "unocc",
				"energy": 0.03291,
				"method": "rhf"
			}
		],
		"cosmo_sigma_profile": { 
			"-0.025": 0.0,
			"-0.024": 0.0,
			"-0.023": 0.0,
			"-0.022": 0.0,
			"-0.021": 0.0,
			"-0.02": 0.0945714093755,
			"-0.019": 1.77162944859,
			"-0.018": 1.88009718093,
			"-0.017": 1.30100217394,
			"-0.016": 0.485234562254,
			"-0.015": 1.09590306155,
			"-0.014": 1.32577904348,
			"-0.013": 0.235350800142,
			"-0.012": 0.613264921165,
			"-0.011": 0.915466008001,
			"-0.01": 0.819114503238,
			"-0.009": 0.258237369594,
			"-0.008": 2.4391436059,
			"-0.007": 9.11798593595,
			"-0.006": 15.3703684678,
			"-0.005": 19.8703807169,
			"-0.004": 21.7484112142,
			"-0.003": 27.1520040666,
			"-0.002": 21.8134324187,
			"-0.001": 19.6608625767,
			"0.0": 18.7819101887,
			"0.001": 17.9232147204,
			"0.002": 19.6275029709,
			"0.003": 8.67508420573,
			"0.004": 6.46115405016,
			"0.005": 6.51765108975,
			"0.006": 6.86843434099,
			"0.007": 7.37296540311,
			"0.008": 9.05370169826,
			"0.009": 6.8634933681,
			"0.01": 8.65818936504,
			"0.011": 11.3525678793,
			"0.012": 5.89343098461,
			"0.013": 1.29326703007,
			"0.014": 0.442484674965,
			"0.015": 0.0,
			"0.016": 0.0,
			"0.017": 0.0,
			"0.018": 0.0,
			"0.019": 0.0,
			"0.02": 0.0,
			"0.021": 0.0,
			"0.022": 0.0,
			"0.023": 0.0,
			"0.024": 0.0,
			"0.025": 0.0
		}
	}
}
