{
	 "smiles": "CC1=C(C=CC=C1)N1C=CN=C1S", 
	 "Tm": 519.15, 
	 "num_atms": 23, 
	 "gaussian": { 
		 "optdone": 1, 
		 "sigma_profile": "yes", 
		 "theory": "DFT", 
		 "functional": "B3LYP", 
		 "basiset": "6-31G**", 
		 "properties": { 
			 "R2extent": 2916.7011, 
			 "electric_dipole_moment_norm": 3.06981647823, 
			 "electric_quadrupole_moment_norm": 5.12145291397, 
			 "total_energy": -894.772614441, 
			 "HOMO_LUMO_gap": 0.18385, 
			 "cosmo_polarized_energy": -9.28, 
			 "cosmo_cavitation_energy": 28.4, 
			 "cosmo_dispersion_energy": -20.35, 
			 "cosmo_repulsion_energy": 1.57, 
			 "cosmo_total_nonelectrostatic_energy": 9.62, 
			 "SMD_solvation_energy": 3.6 
		},
		"coords": [
			{
				"x": -1.9033201642,
				"y": 0.571388879,
				"z": -1.2731086499,
				"element": "C" 
			},
			{
				"x": -1.1809768569,
				"y": -0.713903897,
				"z": -0.9531839145,
				"element": "C" 
			},
			{
				"x": 0.208344816,
				"y": -0.8410996386,
				"z": -1.1387876766,
				"element": "C" 
			},
			{
				"x": 0.8786366784,
				"y": -2.0306581329,
				"z": -0.8428193232,
				"element": "C" 
			},
			{
				"x": 0.1711069371,
				"y": -3.1254937901,
				"z": -0.3491576578,
				"element": "C" 
			},
			{
				"x": -1.2062094315,
				"y": -3.0197755219,
				"z": -0.1543184459,
				"element": "C" 
			},
			{
				"x": -1.8673799755,
				"y": -1.8281491157,
				"z": -0.4541153355,
				"element": "C" 
			},
			{
				"x": 0.9626008484,
				"y": 0.2627315854,
				"z": -1.658617924,
				"element": "N" 
			},
			{
				"x": 1.3121303021,
				"y": 0.4699655786,
				"z": -2.9909789955,
				"element": "C" 
			},
			{
				"x": 2.0099797205,
				"y": 1.64677834,
				"z": -3.0109423992,
				"element": "C" 
			},
			{
				"x": 2.1124673178,
				"y": 2.1798411875,
				"z": -1.7419318295,
				"element": "N" 
			},
			{
				"x": 1.4780579064,
				"y": 1.3308889135,
				"z": -0.9649767514,
				"element": "C" 
			},
			{
				"x": 1.2823033564,
				"y": 1.4716432581,
				"z": 0.793402067,
				"element": "S" 
			},
			{
				"x": -2.9857890516,
				"y": 0.4283656578,
				"z": -1.2274317439,
				"element": "H" 
			},
			{
				"x": -1.645375422,
				"y": 0.9386838424,
				"z": -2.2712735725,
				"element": "H" 
			},
			{
				"x": -1.636119129,
				"y": 1.3618647253,
				"z": -0.5628391731,
				"element": "H" 
			},
			{
				"x": 1.9511558429,
				"y": -2.0821642225,
				"z": -1.0017654375,
				"element": "H" 
			},
			{
				"x": 0.6919086399,
				"y": -4.0496058729,
				"z": -0.1184533379,
				"element": "H" 
			},
			{
				"x": -1.7687858841,
				"y": -3.8657545997,
				"z": 0.2297742561,
				"element": "H" 
			},
			{
				"x": -2.9411048117,
				"y": -1.7564617632,
				"z": -0.3028613014,
				"element": "H" 
			},
			{
				"x": 1.0282767307,
				"y": -0.2343253741,
				"z": -3.7572376838,
				"element": "H" 
			},
			{
				"x": 2.4503057812,
				"y": 2.1457876651,
				"z": -3.8630732589,
				"element": "H" 
			},
			{
				"x": 1.9047858488,
				"y": 2.6641522958,
				"z": 0.8281980888,
				"element": "H" 
			}
		],
		 "valence_orbital": [ 
			{
				"type": "occ",
				"energy": -0.27863,
				"method": "rhf"
			},
			{
				"type": "occ",
				"energy": -0.2701,
				"method": "rhf"
			},
			{
				"type": "occ",
				"energy": -0.25895,
				"method": "rhf"
			},
			{
				"type": "occ",
				"energy": -0.25238,
				"method": "rhf"
			},
			{
				"type": "occ",
				"energy": -0.20603,
				"method": "rhf"
			},
			{
				"type": "unocc",
				"energy": -0.02218,
				"method": "rhf"
			},
			{
				"type": "unocc",
				"energy": -0.01244,
				"method": "rhf"
			},
			{
				"type": "unocc",
				"energy": 0.02231,
				"method": "rhf"
			},
			{
				"type": "unocc",
				"energy": 0.03039,
				"method": "rhf"
			},
			{
				"type": "unocc",
				"energy": 0.07042,
				"method": "rhf"
			}
		],
		"cosmo_sigma_profile": { 
			"-0.025": 0.0,
			"-0.024": 0.0,
			"-0.023": 0.0,
			"-0.022": 0.0,
			"-0.021": 0.0,
			"-0.02": 0.0,
			"-0.019": 0.0,
			"-0.018": 0.0,
			"-0.017": 0.0,
			"-0.016": 0.0,
			"-0.015": 0.0,
			"-0.014": 0.0,
			"-0.013": 0.0,
			"-0.012": 0.273846823883,
			"-0.011": 1.56478381191,
			"-0.01": 0.920044987918,
			"-0.009": 1.69462428993,
			"-0.008": 2.99293583996,
			"-0.007": 4.54670826078,
			"-0.006": 12.4485097802,
			"-0.005": 15.228018015,
			"-0.004": 16.5023618347,
			"-0.003": 17.0918262189,
			"-0.002": 16.7961848367,
			"-0.001": 19.6609943415,
			"0.0": 20.3675240418,
			"0.001": 15.5766046194,
			"0.002": 17.3158486842,
			"0.003": 17.5127022672,
			"0.004": 17.256570182,
			"0.005": 11.5731469088,
			"0.006": 5.34964230066,
			"0.007": 3.4647148569,
			"0.008": 1.88454043406,
			"0.009": 1.06254839082,
			"0.01": 1.25981077615,
			"0.011": 1.70856520907,
			"0.012": 0.870472628518,
			"0.013": 1.2370296377,
			"0.014": 1.18857499636,
			"0.015": 0.821966253193,
			"0.016": 0.733239444301,
			"0.017": 0.628803613471,
			"0.018": 0.0188131219701,
			"0.019": 0.0,
			"0.02": 0.0,
			"0.021": 0.0,
			"0.022": 0.0,
			"0.023": 0.0,
			"0.024": 0.0,
			"0.025": 0.0
		}
	}
}
