{
	 "smiles": "CC1=CC=NC(Cl)=C1N", 
	 "Tm": 339.15, 
	 "num_atms": 16, 
	 "gaussian": { 
		 "optdone": 1, 
		 "sigma_profile": "yes", 
		 "theory": "DFT", 
		 "functional": "B3LYP", 
		 "basiset": "6-31G**", 
		 "properties": { 
			 "R2extent": 1733.3251, 
			 "electric_dipole_moment_norm": 4.3285817146, 
			 "electric_quadrupole_moment_norm": 9.75984686048, 
			 "total_energy": -802.56137213, 
			 "HOMO_LUMO_gap": 0.19613, 
			 "cosmo_polarized_energy": -10.41, 
			 "cosmo_cavitation_energy": 21.1, 
			 "cosmo_dispersion_energy": -16.17, 
			 "cosmo_repulsion_energy": 1.32, 
			 "cosmo_total_nonelectrostatic_energy": 6.25, 
			 "SMD_solvation_energy": 2.01 
		},
		"coords": [
			{
				"x": 2.2891075241,
				"y": 0.3666559663,
				"z": -1.4084972412,
				"element": "C" 
			},
			{
				"x": 1.0467716356,
				"y": -0.0100550771,
				"z": -0.6442985105,
				"element": "C" 
			},
			{
				"x": -0.1537618032,
				"y": 0.6859025714,
				"z": -0.795988855,
				"element": "C" 
			},
			{
				"x": -1.2831298162,
				"y": 0.2946002161,
				"z": -0.0823653324,
				"element": "C" 
			},
			{
				"x": -1.2669957664,
				"y": -0.7433744937,
				"z": 0.7639897758,
				"element": "N" 
			},
			{
				"x": -0.1376644318,
				"y": -1.3962078559,
				"z": 0.9104941914,
				"element": "C" 
			},
			{
				"x": -0.1549110916,
				"y": -2.7621068798,
				"z": 2.0490370958,
				"element": "Cl" 
			},
			{
				"x": 1.0736318072,
				"y": -1.1051107495,
				"z": 0.2482684369,
				"element": "C" 
			},
			{
				"x": 2.2121651064,
				"y": -1.8766008086,
				"z": 0.4110230381,
				"element": "N" 
			},
			{
				"x": 2.0908802403,
				"y": 1.1864364173,
				"z": -2.1024538288,
				"element": "H" 
			},
			{
				"x": 3.0962298514,
				"y": 0.6928770133,
				"z": -0.7378738831,
				"element": "H" 
			},
			{
				"x": 2.6720868765,
				"y": -0.4845122229,
				"z": -1.9843892962,
				"element": "H" 
			},
			{
				"x": -0.204957256,
				"y": 1.5315196435,
				"z": -1.4757602085,
				"element": "H" 
			},
			{
				"x": -2.2284279096,
				"y": 0.8206596253,
				"z": -0.1856182338,
				"element": "H" 
			},
			{
				"x": 2.2061853885,
				"y": -2.4885039414,
				"z": 1.2151482421,
				"element": "H" 
			},
			{
				"x": 3.0936896448,
				"y": -1.406479424,
				"z": 0.2670846096,
				"element": "H" 
			}
		],
		 "valence_orbital": [ 
			{
				"type": "occ",
				"energy": -0.3291,
				"method": "rhf"
			},
			{
				"type": "occ",
				"energy": -0.31335,
				"method": "rhf"
			},
			{
				"type": "occ",
				"energy": -0.26731,
				"method": "rhf"
			},
			{
				"type": "occ",
				"energy": -0.26488,
				"method": "rhf"
			},
			{
				"type": "occ",
				"energy": -0.21709,
				"method": "rhf"
			},
			{
				"type": "unocc",
				"energy": -0.02096,
				"method": "rhf"
			},
			{
				"type": "unocc",
				"energy": -0.00098,
				"method": "rhf"
			},
			{
				"type": "unocc",
				"energy": 0.03836,
				"method": "rhf"
			},
			{
				"type": "unocc",
				"energy": 0.06808,
				"method": "rhf"
			},
			{
				"type": "unocc",
				"energy": 0.10821,
				"method": "rhf"
			}
		],
		"cosmo_sigma_profile": { 
			"-0.025": 0.0,
			"-0.024": 0.0,
			"-0.023": 0.0,
			"-0.022": 0.0,
			"-0.021": 0.0,
			"-0.02": 0.0,
			"-0.019": 0.0,
			"-0.018": 0.0,
			"-0.017": 0.0,
			"-0.016": 0.0,
			"-0.015": 0.0,
			"-0.014": 0.0272225683529,
			"-0.013": 0.696981501249,
			"-0.012": 1.408015531,
			"-0.011": 2.76081326873,
			"-0.01": 2.60507272374,
			"-0.009": 2.19463241821,
			"-0.008": 2.26028540947,
			"-0.007": 3.13482560116,
			"-0.006": 8.87394684774,
			"-0.005": 10.9706254,
			"-0.004": 9.68931254071,
			"-0.003": 10.3066433923,
			"-0.002": 9.82299819901,
			"-0.001": 13.1149051076,
			"0.0": 11.7161371186,
			"0.001": 13.7827039815,
			"0.002": 14.0139131573,
			"0.003": 13.9042972399,
			"0.004": 9.86106606091,
			"0.005": 9.0162985115,
			"0.006": 4.50810562339,
			"0.007": 2.8907664517,
			"0.008": 2.59634799106,
			"0.009": 1.89005626862,
			"0.01": 2.05178026088,
			"0.011": 1.67917541488,
			"0.012": 1.70693318685,
			"0.013": 0.918311547107,
			"0.014": 0.876971124518,
			"0.015": 0.754204505326,
			"0.016": 0.111959959713,
			"0.017": 0.0,
			"0.018": 0.0,
			"0.019": 0.0,
			"0.02": 0.0,
			"0.021": 0.0,
			"0.022": 0.0,
			"0.023": 0.0,
			"0.024": 0.0,
			"0.025": 0.0
		}
	}
}
