{
	 "smiles": "CCCCC(CC)COC(=O)C=CC(=O)OCC(CC)CCCC", 
	 "Tm": 263.15, 
	 "num_atms": 60, 
	 "gaussian": { 
		 "optdone": 1, 
		 "sigma_profile": "yes", 
		 "theory": "DFT", 
		 "functional": "B3LYP", 
		 "basiset": "6-31G**", 
		 "properties": { 
			 "R2extent": 15901.4088, 
			 "electric_dipole_moment_norm": 0.25731560388, 
			 "electric_quadrupole_moment_norm": 18.6327671107, 
			 "total_energy": -1084.76014615, 
			 "HOMO_LUMO_gap": 0.19048, 
			 "cosmo_polarized_energy": -10.33, 
			 "cosmo_cavitation_energy": 60.22, 
			 "cosmo_dispersion_energy": -38.21, 
			 "cosmo_repulsion_energy": 2.99, 
			 "cosmo_total_nonelectrostatic_energy": 25.01, 
			 "SMD_solvation_energy": 11.43 
		},
		"coords": [
			{
				"x": -5.0589836826,
				"y": 0.2975027935,
				"z": -2.8709840433,
				"element": "C" 
			},
			{
				"x": -3.7916444197,
				"y": 1.0109130808,
				"z": -2.3892780724,
				"element": "C" 
			},
			{
				"x": -3.4075617184,
				"y": 2.2108228244,
				"z": -3.2673494576,
				"element": "C" 
			},
			{
				"x": -2.146446739,
				"y": 2.958575734,
				"z": -2.7955283996,
				"element": "C" 
			},
			{
				"x": -2.325679502,
				"y": 3.822588511,
				"z": -1.5183572206,
				"element": "C" 
			},
			{
				"x": -2.5342046089,
				"y": 5.3223099199,
				"z": -1.8219980808,
				"element": "C" 
			},
			{
				"x": -3.7771708931,
				"y": 5.6516358157,
				"z": -2.6553176387,
				"element": "C" 
			},
			{
				"x": -1.1289117329,
				"y": 3.6865984404,
				"z": -0.5787783714,
				"element": "C" 
			},
			{
				"x": -1.0523791894,
				"y": 2.3125348622,
				"z": -0.1328380896,
				"element": "O" 
			},
			{
				"x": -0.0038859896,
				"y": 2.0063197281,
				"z": 0.6587149056,
				"element": "C" 
			},
			{
				"x": 0.8479207718,
				"y": 2.8043145921,
				"z": 0.9987961986,
				"element": "O" 
			},
			{
				"x": 0.0113570636,
				"y": 0.5825095582,
				"z": 1.0831988266,
				"element": "C" 
			},
			{
				"x": -0.9122369451,
				"y": -0.3226549808,
				"z": 0.7347367311,
				"element": "C" 
			},
			{
				"x": -0.9022154565,
				"y": -1.7451385023,
				"z": 1.1631980508,
				"element": "C" 
			},
			{
				"x": -1.7745880892,
				"y": -2.5326516821,
				"z": 0.8520385007,
				"element": "O" 
			},
			{
				"x": 0.1649307328,
				"y": -2.0651429063,
				"z": 1.9250366951,
				"element": "O" 
			},
			{
				"x": 0.2175956042,
				"y": -3.4379501705,
				"z": 2.3890160061,
				"element": "C" 
			},
			{
				"x": 1.436396484,
				"y": -3.6466568749,
				"z": 3.291355629,
				"element": "C" 
			},
			{
				"x": 1.42960261,
				"y": -2.6524554002,
				"z": 4.4718014955,
				"element": "C" 
			},
			{
				"x": 2.4253871446,
				"y": -2.9875898761,
				"z": 5.5871276227,
				"element": "C" 
			},
			{
				"x": 2.7692403907,
				"y": -3.7805702122,
				"z": 2.5081658223,
				"element": "C" 
			},
			{
				"x": 3.314170561,
				"y": -2.554863095,
				"z": 1.738639614,
				"element": "C" 
			},
			{
				"x": 4.1874745617,
				"y": -1.5658823828,
				"z": 2.5356597707,
				"element": "C" 
			},
			{
				"x": 5.5468675294,
				"y": -2.132381634,
				"z": 2.9637764119,
				"element": "C" 
			},
			{
				"x": -5.300125608,
				"y": -0.5611989353,
				"z": -2.2363049851,
				"element": "H" 
			},
			{
				"x": -4.941250391,
				"y": -0.0698645196,
				"z": -3.8969614933,
				"element": "H" 
			},
			{
				"x": -5.9224459341,
				"y": 0.9727399942,
				"z": -2.8605424718,
				"element": "H" 
			},
			{
				"x": -3.9315251048,
				"y": 1.3369284886,
				"z": -1.3503688228,
				"element": "H" 
			},
			{
				"x": -2.9545831765,
				"y": 0.2995959419,
				"z": -2.372829296,
				"element": "H" 
			},
			{
				"x": -4.2571481903,
				"y": 2.9036089901,
				"z": -3.3242614239,
				"element": "H" 
			},
			{
				"x": -3.2420289621,
				"y": 1.8530643241,
				"z": -4.2926669369,
				"element": "H" 
			},
			{
				"x": -1.3601907082,
				"y": 2.2143975637,
				"z": -2.6202369202,
				"element": "H" 
			},
			{
				"x": -1.7784036128,
				"y": 3.6006604852,
				"z": -3.6066953895,
				"element": "H" 
			},
			{
				"x": -3.2050895193,
				"y": 3.4644151218,
				"z": -0.9649999169,
				"element": "H" 
			},
			{
				"x": -2.5934123848,
				"y": 5.8692613077,
				"z": -0.871547413,
				"element": "H" 
			},
			{
				"x": -1.642198679,
				"y": 5.7055564671,
				"z": -2.337643463,
				"element": "H" 
			},
			{
				"x": -3.8776286542,
				"y": 6.7340126057,
				"z": -2.7855175915,
				"element": "H" 
			},
			{
				"x": -4.6900033184,
				"y": 5.2899759367,
				"z": -2.1687449831,
				"element": "H" 
			},
			{
				"x": -3.7312648253,
				"y": 5.2049275522,
				"z": -3.6531614584,
				"element": "H" 
			},
			{
				"x": -1.2273341317,
				"y": 4.331022938,
				"z": 0.3010299614,
				"element": "H" 
			},
			{
				"x": -0.1885934313,
				"y": 3.9485245907,
				"z": -1.0768228258,
				"element": "H" 
			},
			{
				"x": 0.8494370421,
				"y": 0.3188646867,
				"z": 1.7187380752,
				"element": "H" 
			},
			{
				"x": -1.7523578462,
				"y": -0.0554997395,
				"z": 0.1031085147,
				"element": "H" 
			},
			{
				"x": 0.2405379962,
				"y": -4.0993892455,
				"z": 1.5164746895,
				"element": "H" 
			},
			{
				"x": -0.7100347379,
				"y": -3.6430547571,
				"z": 2.9335472971,
				"element": "H" 
			},
			{
				"x": 1.2611544621,
				"y": -4.6445444452,
				"z": 3.7250436792,
				"element": "H" 
			},
			{
				"x": 0.4168628323,
				"y": -2.641485848,
				"z": 4.8972802095,
				"element": "H" 
			},
			{
				"x": 1.6052704418,
				"y": -1.6365722492,
				"z": 4.1033465833,
				"element": "H" 
			},
			{
				"x": 2.3206171695,
				"y": -2.2897758815,
				"z": 6.4241782346,
				"element": "H" 
			},
			{
				"x": 2.2581828808,
				"y": -3.9987352305,
				"z": 5.9766231707,
				"element": "H" 
			},
			{
				"x": 3.463035709,
				"y": -2.9327976135,
				"z": 5.2444566199,
				"element": "H" 
			},
			{
				"x": 2.6181290799,
				"y": -4.5932988759,
				"z": 1.7853244044,
				"element": "H" 
			},
			{
				"x": 3.5379674835,
				"y": -4.1534014083,
				"z": 3.1954100522,
				"element": "H" 
			},
			{
				"x": 2.4802051211,
				"y": -2.0128276543,
				"z": 1.2829258002,
				"element": "H" 
			},
			{
				"x": 3.9217639667,
				"y": -2.9283190064,
				"z": 0.9028093596,
				"element": "H" 
			},
			{
				"x": 4.3601158217,
				"y": -0.6822313229,
				"z": 1.9078806813,
				"element": "H" 
			},
			{
				"x": 3.6486694616,
				"y": -1.2026013122,
				"z": 3.4182729129,
				"element": "H" 
			},
			{
				"x": 6.1381227394,
				"y": -1.3797678383,
				"z": 3.4957804759,
				"element": "H" 
			},
			{
				"x": 5.4444102171,
				"y": -2.9961975307,
				"z": 3.6297578275,
				"element": "H" 
			},
			{
				"x": 6.1283023041,
				"y": -2.4575817239,
				"z": 2.093083935,
				"element": "H" 
			}
		],
		 "valence_orbital": [ 
			{
				"type": "occ",
				"energy": -0.30106,
				"method": "rhf"
			},
			{
				"type": "occ",
				"energy": -0.29705,
				"method": "rhf"
			},
			{
				"type": "occ",
				"energy": -0.29111,
				"method": "rhf"
			},
			{
				"type": "occ",
				"energy": -0.28713,
				"method": "rhf"
			},
			{
				"type": "occ",
				"energy": -0.27037,
				"method": "rhf"
			},
			{
				"type": "unocc",
				"energy": -0.07989,
				"method": "rhf"
			},
			{
				"type": "unocc",
				"energy": 0.03648,
				"method": "rhf"
			},
			{
				"type": "unocc",
				"energy": 0.0668,
				"method": "rhf"
			},
			{
				"type": "unocc",
				"energy": 0.08258,
				"method": "rhf"
			},
			{
				"type": "unocc",
				"energy": 0.08718,
				"method": "rhf"
			}
		],
		"cosmo_sigma_profile": { 
			"-0.025": 0.0,
			"-0.024": 0.0,
			"-0.023": 0.0,
			"-0.022": 0.0,
			"-0.021": 0.0,
			"-0.02": 0.0,
			"-0.019": 0.0,
			"-0.018": 0.0,
			"-0.017": 0.0,
			"-0.016": 0.0,
			"-0.015": 0.0,
			"-0.014": 0.0,
			"-0.013": 0.0,
			"-0.012": 0.0,
			"-0.011": 0.0,
			"-0.01": 0.0,
			"-0.009": 0.0,
			"-0.008": 0.0,
			"-0.007": 0.0737655640337,
			"-0.006": 0.803161819035,
			"-0.005": 8.38760319151,
			"-0.004": 20.2881840953,
			"-0.003": 46.9581556951,
			"-0.002": 76.706943807,
			"-0.001": 84.8985562365,
			"0.0": 81.7515722898,
			"0.001": 66.4931967581,
			"0.002": 31.8564107351,
			"0.003": 7.59536683396,
			"0.004": 5.19499515004,
			"0.005": 3.36482792767,
			"0.006": 3.1665529767,
			"0.007": 2.2287705843,
			"0.008": 2.37971471688,
			"0.009": 2.91610660901,
			"0.01": 4.3321124671,
			"0.011": 6.94518586866,
			"0.012": 8.55738587809,
			"0.013": 0.928800397084,
			"0.014": 0.0,
			"0.015": 0.0,
			"0.016": 0.0,
			"0.017": 0.0,
			"0.018": 0.0,
			"0.019": 0.0,
			"0.02": 0.0,
			"0.021": 0.0,
			"0.022": 0.0,
			"0.023": 0.0,
			"0.024": 0.0,
			"0.025": 0.0
		}
	}
}
