{
	 "smiles": "NN1C(S)=NN=C1CC1=CC=CC=C1", 
	 "Tm": 453.15, 
	 "num_atms": 24, 
	 "gaussian": { 
		 "optdone": 1, 
		 "sigma_profile": "yes", 
		 "theory": "DFT", 
		 "functional": "B3LYP", 
		 "basiset": "6-31G**", 
		 "properties": { 
			 "R2extent": 3953.6261, 
			 "electric_dipole_moment_norm": 4.46317244233, 
			 "electric_quadrupole_moment_norm": 5.30289779743, 
			 "total_energy": -966.119860531, 
			 "HOMO_LUMO_gap": 0.22571, 
			 "cosmo_polarized_energy": -19.12, 
			 "cosmo_cavitation_energy": 30.44, 
			 "cosmo_dispersion_energy": -21.85, 
			 "cosmo_repulsion_energy": 1.69, 
			 "cosmo_total_nonelectrostatic_energy": 10.28, 
			 "SMD_solvation_energy": 3.05 
		},
		"coords": [
			{
				"x": 0.6424338012,
				"y": -2.4438304176,
				"z": -0.4436217733,
				"element": "N" 
			},
			{
				"x": 0.8301762934,
				"y": -1.1850538896,
				"z": 0.1328487926,
				"element": "N" 
			},
			{
				"x": 1.9952034871,
				"y": -0.5514308844,
				"z": 0.4988314409,
				"element": "C" 
			},
			{
				"x": 3.5691933081,
				"y": -1.3115213176,
				"z": 0.243882044,
				"element": "S" 
			},
			{
				"x": 1.7393077367,
				"y": 0.6117688701,
				"z": 1.0374890771,
				"element": "N" 
			},
			{
				"x": 0.354328772,
				"y": 0.764729083,
				"z": 1.0274560471,
				"element": "N" 
			},
			{
				"x": -0.1730628849,
				"y": -0.3080629595,
				"z": 0.4910292697,
				"element": "C" 
			},
			{
				"x": -1.6247013967,
				"y": -0.5515344975,
				"z": 0.2298478049,
				"element": "C" 
			},
			{
				"x": -2.0193854617,
				"y": -0.3168936587,
				"z": -1.2233240637,
				"element": "C" 
			},
			{
				"x": -1.8301600945,
				"y": 0.9423039285,
				"z": -1.8096828669,
				"element": "C" 
			},
			{
				"x": -2.2022470004,
				"y": 1.1695076043,
				"z": -3.1341458243,
				"element": "C" 
			},
			{
				"x": -2.7670526548,
				"y": 0.1403318087,
				"z": -3.8923697183,
				"element": "C" 
			},
			{
				"x": -2.9549347501,
				"y": -1.1166828146,
				"z": -3.3172043882,
				"element": "C" 
			},
			{
				"x": -2.5804836848,
				"y": -1.343100687,
				"z": -1.9903787791,
				"element": "C" 
			},
			{
				"x": 1.1239096271,
				"y": -3.1453033568,
				"z": 0.1142212068,
				"element": "H" 
			},
			{
				"x": 1.0188245293,
				"y": -2.4465300159,
				"z": -1.3890200159,
				"element": "H" 
			},
			{
				"x": 4.2325991338,
				"y": -0.3148187098,
				"z": 0.8585771255,
				"element": "H" 
			},
			{
				"x": -1.8825335971,
				"y": -1.5744632343,
				"z": 0.5203158646,
				"element": "H" 
			},
			{
				"x": -2.1744725503,
				"y": 0.1315319383,
				"z": 0.8850161779,
				"element": "H" 
			},
			{
				"x": -1.3836011503,
				"y": 1.7401577091,
				"z": -1.2218313499,
				"element": "H" 
			},
			{
				"x": -2.0520107011,
				"y": 2.1510079203,
				"z": -3.5750697428,
				"element": "H" 
			},
			{
				"x": -3.0578490625,
				"y": 0.3182866781,
				"z": -4.9237607949,
				"element": "H" 
			},
			{
				"x": -3.3921126717,
				"y": -1.9232096329,
				"z": -3.8994181455,
				"element": "H" 
			},
			{
				"x": -2.7244690278,
				"y": -2.3248894642,
				"z": -1.5466873884,
				"element": "H" 
			}
		],
		 "valence_orbital": [ 
			{
				"type": "occ",
				"energy": -0.29328,
				"method": "rhf"
			},
			{
				"type": "occ",
				"energy": -0.25113,
				"method": "rhf"
			},
			{
				"type": "occ",
				"energy": -0.25002,
				"method": "rhf"
			},
			{
				"type": "occ",
				"energy": -0.24569,
				"method": "rhf"
			},
			{
				"type": "occ",
				"energy": -0.23099,
				"method": "rhf"
			},
			{
				"type": "unocc",
				"energy": -0.00528,
				"method": "rhf"
			},
			{
				"type": "unocc",
				"energy": -0.00275,
				"method": "rhf"
			},
			{
				"type": "unocc",
				"energy": -0.00125,
				"method": "rhf"
			},
			{
				"type": "unocc",
				"energy": 0.01809,
				"method": "rhf"
			},
			{
				"type": "unocc",
				"energy": 0.04565,
				"method": "rhf"
			}
		],
		"cosmo_sigma_profile": { 
			"-0.025": 0.0,
			"-0.024": 0.0,
			"-0.023": 0.0,
			"-0.022": 0.0,
			"-0.021": 0.0,
			"-0.02": 0.0,
			"-0.019": 0.0,
			"-0.018": 0.0,
			"-0.017": 0.0,
			"-0.016": 0.0,
			"-0.015": 0.0,
			"-0.014": 1.33449421173,
			"-0.013": 3.82023321588,
			"-0.012": 4.95299450509,
			"-0.011": 4.13310438677,
			"-0.01": 4.29327304324,
			"-0.009": 3.65908683677,
			"-0.008": 3.41588753866,
			"-0.007": 2.73345536733,
			"-0.006": 9.41336391554,
			"-0.005": 15.6421334914,
			"-0.004": 16.6843996754,
			"-0.003": 18.8993731443,
			"-0.002": 16.6283462247,
			"-0.001": 14.3547069131,
			"0.0": 13.7951621281,
			"0.001": 14.471561247,
			"0.002": 15.579900365,
			"0.003": 13.8719352147,
			"0.004": 14.7255270828,
			"0.005": 13.2684413502,
			"0.006": 12.2148428736,
			"0.007": 3.86114874213,
			"0.008": 1.83932113716,
			"0.009": 2.63238598359,
			"0.01": 2.80856952871,
			"0.011": 1.68822605629,
			"0.012": 1.96641316169,
			"0.013": 3.58052878758,
			"0.014": 3.28264216215,
			"0.015": 2.31783801259,
			"0.016": 2.16157399855,
			"0.017": 1.06241760226,
			"0.018": 0.0,
			"0.019": 0.0,
			"0.02": 0.0,
			"0.021": 0.0,
			"0.022": 0.0,
			"0.023": 0.0,
			"0.024": 0.0,
			"0.025": 0.0
		}
	}
}
