{
	 "smiles": "CC(C)(C)OC(=O)N1CC(O)C1", 
	 "Tm": 313.15, 
	 "num_atms": 27, 
	 "gaussian": { 
		 "optdone": 1, 
		 "sigma_profile": "yes", 
		 "theory": "DFT", 
		 "functional": "B3LYP", 
		 "basiset": "6-31G**", 
		 "properties": { 
			 "R2extent": 2936.3477, 
			 "electric_dipole_moment_norm": 3.67754771553, 
			 "electric_quadrupole_moment_norm": 10.809559924, 
			 "total_energy": -594.307148348, 
			 "HOMO_LUMO_gap": 0.28265, 
			 "cosmo_polarized_energy": -12.98, 
			 "cosmo_cavitation_energy": 29.21, 
			 "cosmo_dispersion_energy": -20.68, 
			 "cosmo_repulsion_energy": 1.7, 
			 "cosmo_total_nonelectrostatic_energy": 10.22, 
			 "SMD_solvation_energy": 4.99 
		},
		"coords": [
			{
				"x": -2.5575941142,
				"y": 1.7866274213,
				"z": 2.0413322843,
				"element": "C" 
			},
			{
				"x": -1.2395925115,
				"y": 1.0424274063,
				"z": 2.2716877627,
				"element": "C" 
			},
			{
				"x": -1.499565374,
				"y": -0.3784669967,
				"z": 2.7845245316,
				"element": "C" 
			},
			{
				"x": -0.3228478709,
				"y": 1.8371401757,
				"z": 3.2081559013,
				"element": "C" 
			},
			{
				"x": -0.6592780528,
				"y": 0.9927126977,
				"z": 0.9222723743,
				"element": "O" 
			},
			{
				"x": 0.5477263162,
				"y": 0.4102539264,
				"z": 0.7077751048,
				"element": "C" 
			},
			{
				"x": 1.2538653635,
				"y": -0.1415429058,
				"z": 1.5390864942,
				"element": "O" 
			},
			{
				"x": 0.8917367657,
				"y": 0.5332297904,
				"z": -0.6047995164,
				"element": "N" 
			},
			{
				"x": 1.9184338276,
				"y": -0.2422816935,
				"z": -1.3057062351,
				"element": "C" 
			},
			{
				"x": 1.1209723153,
				"y": -0.0440652375,
				"z": -2.6197525563,
				"element": "C" 
			},
			{
				"x": 1.8704428479,
				"y": 0.6730780003,
				"z": -3.5722186915,
				"element": "O" 
			},
			{
				"x": 0.0681235019,
				"y": 0.7667751733,
				"z": -1.7964194286,
				"element": "C" 
			},
			{
				"x": -3.1917853166,
				"y": 1.2400930572,
				"z": 1.33697265,
				"element": "H" 
			},
			{
				"x": -3.1002573933,
				"y": 1.8928478589,
				"z": 2.9854436164,
				"element": "H" 
			},
			{
				"x": -2.371029428,
				"y": 2.7845799406,
				"z": 1.6340264298,
				"element": "H" 
			},
			{
				"x": -0.5627267612,
				"y": -0.9181553994,
				"z": 2.9244954097,
				"element": "H" 
			},
			{
				"x": -2.1249616426,
				"y": -0.9296173879,
				"z": 2.074653447,
				"element": "H" 
			},
			{
				"x": -2.0307612359,
				"y": -0.3342512361,
				"z": 3.7410224259,
				"element": "H" 
			},
			{
				"x": 0.6261513583,
				"y": 1.3206093168,
				"z": 3.3538450038,
				"element": "H" 
			},
			{
				"x": -0.1262688327,
				"y": 2.8307546214,
				"z": 2.7929968654,
				"element": "H" 
			},
			{
				"x": -0.8105913733,
				"y": 1.9650134769,
				"z": 4.1801359422,
				"element": "H" 
			},
			{
				"x": 2.0183362905,
				"y": -1.2716168984,
				"z": -0.9464457449,
				"element": "H" 
			},
			{
				"x": 2.902753279,
				"y": 0.2364417423,
				"z": -1.327546912,
				"element": "H" 
			},
			{
				"x": 0.7185228366,
				"y": -0.9763055506,
				"z": -3.036866288,
				"element": "H" 
			},
			{
				"x": 1.3286676384,
				"y": 0.7901965303,
				"z": -4.3632050865,
				"element": "H" 
			},
			{
				"x": -0.0023111125,
				"y": 1.820883492,
				"z": -2.08812664,
				"element": "H" 
			},
			{
				"x": -0.9367613214,
				"y": 0.334338678,
				"z": -1.7357391439,
				"element": "H" 
			}
		],
		 "valence_orbital": [ 
			{
				"type": "occ",
				"energy": -0.32373,
				"method": "rhf"
			},
			{
				"type": "occ",
				"energy": -0.28376,
				"method": "rhf"
			},
			{
				"type": "occ",
				"energy": -0.28014,
				"method": "rhf"
			},
			{
				"type": "occ",
				"energy": -0.25283,
				"method": "rhf"
			},
			{
				"type": "occ",
				"energy": -0.23518,
				"method": "rhf"
			},
			{
				"type": "unocc",
				"energy": 0.04747,
				"method": "rhf"
			},
			{
				"type": "unocc",
				"energy": 0.07126,
				"method": "rhf"
			},
			{
				"type": "unocc",
				"energy": 0.08679,
				"method": "rhf"
			},
			{
				"type": "unocc",
				"energy": 0.10269,
				"method": "rhf"
			},
			{
				"type": "unocc",
				"energy": 0.10951,
				"method": "rhf"
			}
		],
		"cosmo_sigma_profile": { 
			"-0.025": 0.0,
			"-0.024": 0.0,
			"-0.023": 0.0,
			"-0.022": 0.0,
			"-0.021": 0.0,
			"-0.02": 0.0,
			"-0.019": 0.0,
			"-0.018": 0.0,
			"-0.017": 0.131482755343,
			"-0.016": 1.18471894076,
			"-0.015": 1.00546589683,
			"-0.014": 0.944324911433,
			"-0.013": 1.41199183004,
			"-0.012": 0.394471387498,
			"-0.011": 0.973772782912,
			"-0.01": 0.960939309397,
			"-0.009": 0.453811845749,
			"-0.008": 1.21081438737,
			"-0.007": 1.44952245615,
			"-0.006": 2.8208952288,
			"-0.005": 15.4437792499,
			"-0.004": 21.3074212314,
			"-0.003": 25.6795442724,
			"-0.002": 21.9274189249,
			"-0.001": 20.8260795263,
			"0.0": 24.8536543868,
			"0.001": 21.4981715412,
			"0.002": 8.50778695071,
			"0.003": 6.89717364813,
			"0.004": 8.17469947346,
			"0.005": 6.30760261031,
			"0.006": 5.29655385372,
			"0.007": 4.39586688195,
			"0.008": 4.05216092783,
			"0.009": 1.96219147609,
			"0.01": 2.63980834145,
			"0.011": 3.38186804336,
			"0.012": 2.68636656572,
			"0.013": 5.16271585292,
			"0.014": 2.93739838501,
			"0.015": 0.0312086403037,
			"0.016": 0.0,
			"0.017": 0.0,
			"0.018": 0.0,
			"0.019": 0.0,
			"0.02": 0.0,
			"0.021": 0.0,
			"0.022": 0.0,
			"0.023": 0.0,
			"0.024": 0.0,
			"0.025": 0.0
		}
	}
}
