{
	 "smiles": "CC1=CSC(C(=O)NN)=C1Cl", 
	 "Tm": 404.15, 
	 "num_atms": 18, 
	 "gaussian": { 
		 "optdone": 1, 
		 "sigma_profile": "yes", 
		 "theory": "DFT", 
		 "functional": "B3LYP", 
		 "basiset": "6-31G**", 
		 "properties": { 
			 "R2extent": 2353.4903, 
			 "electric_dipole_moment_norm": 3.51012755751, 
			 "electric_quadrupole_moment_norm": 16.5847150208, 
			 "total_energy": -1275.9242112, 
			 "HOMO_LUMO_gap": 0.19394, 
			 "cosmo_polarized_energy": -14.86, 
			 "cosmo_cavitation_energy": 25.41, 
			 "cosmo_dispersion_energy": -19.16, 
			 "cosmo_repulsion_energy": 1.53, 
			 "cosmo_total_nonelectrostatic_energy": 7.77, 
			 "SMD_solvation_energy": 5.51 
		},
		"coords": [
			{
				"x": -0.0893408903,
				"y": 3.0690577745,
				"z": -0.870717273,
				"element": "C" 
			},
			{
				"x": -0.0720001452,
				"y": 1.7766420403,
				"z": -0.105984066,
				"element": "C" 
			},
			{
				"x": 0.3881536831,
				"y": 1.6230756427,
				"z": 1.1756905682,
				"element": "C" 
			},
			{
				"x": 0.3022076295,
				"y": -0.0061457883,
				"z": 1.7403691805,
				"element": "S" 
			},
			{
				"x": -0.4273224973,
				"y": -0.5397066328,
				"z": 0.2493778859,
				"element": "C" 
			},
			{
				"x": -0.6647171189,
				"y": -2.0025002035,
				"z": 0.1188744557,
				"element": "C" 
			},
			{
				"x": 0.1153059042,
				"y": -2.8195754325,
				"z": 0.5965813076,
				"element": "O" 
			},
			{
				"x": -1.7821673133,
				"y": -2.4218030264,
				"z": -0.5664007589,
				"element": "N" 
			},
			{
				"x": -2.9184206714,
				"y": -1.6158428385,
				"z": -0.710307127,
				"element": "N" 
			},
			{
				"x": -0.5313563752,
				"y": 0.5197139863,
				"z": -0.6226302893,
				"element": "C" 
			},
			{
				"x": -1.075603435,
				"y": 0.3943796109,
				"z": -2.2779060199,
				"element": "Cl" 
			},
			{
				"x": -1.1046856643,
				"y": 3.3306485802,
				"z": -1.1875754799,
				"element": "H" 
			},
			{
				"x": 0.2988386195,
				"y": 3.8861018864,
				"z": -0.2576531866,
				"element": "H" 
			},
			{
				"x": 0.5220751561,
				"y": 3.0017650595,
				"z": -1.7771261759,
				"element": "H" 
			},
			{
				"x": 0.7810182632,
				"y": 2.3970250638,
				"z": 1.8214636825,
				"element": "H" 
			},
			{
				"x": -1.8682199255,
				"y": -3.434365764,
				"z": -0.5881344388,
				"element": "H" 
			},
			{
				"x": -3.2103858551,
				"y": -1.5990616701,
				"z": -1.6824439424,
				"element": "H" 
			},
			{
				"x": -3.6778793641,
				"y": -1.9671082885,
				"z": -0.1321783229,
				"element": "H" 
			}
		],
		 "valence_orbital": [ 
			{
				"type": "occ",
				"energy": -0.27911,
				"method": "rhf"
			},
			{
				"type": "occ",
				"energy": -0.26944,
				"method": "rhf"
			},
			{
				"type": "occ",
				"energy": -0.25641,
				"method": "rhf"
			},
			{
				"type": "occ",
				"energy": -0.24181,
				"method": "rhf"
			},
			{
				"type": "occ",
				"energy": -0.23343,
				"method": "rhf"
			},
			{
				"type": "unocc",
				"energy": -0.03949,
				"method": "rhf"
			},
			{
				"type": "unocc",
				"energy": 0.011,
				"method": "rhf"
			},
			{
				"type": "unocc",
				"energy": 0.02954,
				"method": "rhf"
			},
			{
				"type": "unocc",
				"energy": 0.05341,
				"method": "rhf"
			},
			{
				"type": "unocc",
				"energy": 0.06657,
				"method": "rhf"
			}
		],
		"cosmo_sigma_profile": { 
			"-0.025": 0.0,
			"-0.024": 0.0,
			"-0.023": 0.0,
			"-0.022": 0.0,
			"-0.021": 0.0,
			"-0.02": 0.0,
			"-0.019": 0.0,
			"-0.018": 0.0,
			"-0.017": 0.0,
			"-0.016": 0.0,
			"-0.015": 0.0,
			"-0.014": 0.545620374025,
			"-0.013": 1.43385193083,
			"-0.012": 3.2220015431,
			"-0.011": 4.8444805071,
			"-0.01": 4.5118974977,
			"-0.009": 5.4823275413,
			"-0.008": 5.49905147883,
			"-0.007": 4.50512831046,
			"-0.006": 5.80165797523,
			"-0.005": 7.0584335754,
			"-0.004": 8.14284879973,
			"-0.003": 10.7684736147,
			"-0.002": 13.4298528488,
			"-0.001": 16.8980703593,
			"0.0": 15.4201786018,
			"0.001": 16.5858139696,
			"0.002": 17.8968849932,
			"0.003": 18.4069708349,
			"0.004": 12.8614561434,
			"0.005": 5.01758388191,
			"0.006": 2.50540054125,
			"0.007": 2.86721095087,
			"0.008": 2.70915234335,
			"0.009": 2.57489415369,
			"0.01": 1.86815529967,
			"0.011": 2.60944399951,
			"0.012": 3.37428052413,
			"0.013": 6.77675028327,
			"0.014": 1.98448570409,
			"0.015": 0.0,
			"0.016": 0.0,
			"0.017": 0.0,
			"0.018": 0.0,
			"0.019": 0.0,
			"0.02": 0.0,
			"0.021": 0.0,
			"0.022": 0.0,
			"0.023": 0.0,
			"0.024": 0.0,
			"0.025": 0.0
		}
	}
}
