{
	 "smiles": "CC1CC(=O)C2=CC(F)=CC=C2O1", 
	 "Tm": 344.15, 
	 "num_atms": 22, 
	 "gaussian": { 
		 "optdone": 1, 
		 "sigma_profile": "yes", 
		 "theory": "DFT", 
		 "functional": "B3LYP", 
		 "basiset": "6-31G**", 
		 "properties": { 
			 "R2extent": 2785.2028, 
			 "electric_dipole_moment_norm": 3.47110319351, 
			 "electric_quadrupole_moment_norm": 10.7237433254, 
			 "total_energy": -636.77536702, 
			 "HOMO_LUMO_gap": 0.16675, 
			 "cosmo_polarized_energy": -8.76, 
			 "cosmo_cavitation_energy": 26.01, 
			 "cosmo_dispersion_energy": -19.14, 
			 "cosmo_repulsion_energy": 1.48, 
			 "cosmo_total_nonelectrostatic_energy": 8.36, 
			 "SMD_solvation_energy": 5.51 
		},
		"coords": [
			{
				"x": -0.9263827309,
				"y": 2.450949467,
				"z": 1.8276982814,
				"element": "C" 
			},
			{
				"x": -0.1257498025,
				"y": 1.8101465628,
				"z": 0.707015923,
				"element": "C" 
			},
			{
				"x": 1.2819703724,
				"y": 1.3807279265,
				"z": 1.1175247576,
				"element": "C" 
			},
			{
				"x": 1.9930094483,
				"y": 0.6565740728,
				"z": -0.0181516001,
				"element": "C" 
			},
			{
				"x": 3.2050104357,
				"y": 0.6917484713,
				"z": -0.1604704208,
				"element": "O" 
			},
			{
				"x": 1.0981528477,
				"y": -0.1299713755,
				"z": -0.9003936685,
				"element": "C" 
			},
			{
				"x": 1.6418229456,
				"y": -0.94765641,
				"z": -1.905569312,
				"element": "C" 
			},
			{
				"x": 0.79829455,
				"y": -1.7341094299,
				"z": -2.6636963496,
				"element": "C" 
			},
			{
				"x": 1.3087691664,
				"y": -2.5267978232,
				"z": -3.6306510759,
				"element": "F" 
			},
			{
				"x": -0.5838761334,
				"y": -1.739931213,
				"z": -2.4533909774,
				"element": "C" 
			},
			{
				"x": -1.1308588507,
				"y": -0.9252234222,
				"z": -1.4698635542,
				"element": "C" 
			},
			{
				"x": -0.2952670219,
				"y": -0.1110614765,
				"z": -0.6922862687,
				"element": "C" 
			},
			{
				"x": -0.8869971488,
				"y": 0.6662735186,
				"z": 0.2565319131,
				"element": "O" 
			},
			{
				"x": -1.9327788846,
				"y": 2.7018619342,
				"z": 1.4822051674,
				"element": "H" 
			},
			{
				"x": -0.4357466968,
				"y": 3.368337432,
				"z": 2.1660324784,
				"element": "H" 
			},
			{
				"x": -1.0122871425,
				"y": 1.7671911848,
				"z": 2.6777370167,
				"element": "H" 
			},
			{
				"x": -0.0518821961,
				"y": 2.5045922869,
				"z": -0.1446492965,
				"element": "H" 
			},
			{
				"x": 1.8866190183,
				"y": 2.237112852,
				"z": 1.4281553316,
				"element": "H" 
			},
			{
				"x": 1.2174878922,
				"y": 0.6912299297,
				"z": 1.9716146135,
				"element": "H" 
			},
			{
				"x": 2.715338731,
				"y": -0.9566716799,
				"z": -2.0576517835,
				"element": "H" 
			},
			{
				"x": -1.2116095225,
				"y": -2.3753773284,
				"z": -3.0691352273,
				"element": "H" 
			},
			{
				"x": -2.2005392769,
				"y": -0.8978454799,
				"z": -1.2930059482,
				"element": "H" 
			}
		],
		 "valence_orbital": [ 
			{
				"type": "occ",
				"energy": -0.33871,
				"method": "rhf"
			},
			{
				"type": "occ",
				"energy": -0.31678,
				"method": "rhf"
			},
			{
				"type": "occ",
				"energy": -0.26972,
				"method": "rhf"
			},
			{
				"type": "occ",
				"energy": -0.25174,
				"method": "rhf"
			},
			{
				"type": "occ",
				"energy": -0.22995,
				"method": "rhf"
			},
			{
				"type": "unocc",
				"energy": -0.0632,
				"method": "rhf"
			},
			{
				"type": "unocc",
				"energy": -0.00213,
				"method": "rhf"
			},
			{
				"type": "unocc",
				"energy": 0.03648,
				"method": "rhf"
			},
			{
				"type": "unocc",
				"energy": 0.08606,
				"method": "rhf"
			},
			{
				"type": "unocc",
				"energy": 0.08973,
				"method": "rhf"
			}
		],
		"cosmo_sigma_profile": { 
			"-0.025": 0.0,
			"-0.024": 0.0,
			"-0.023": 0.0,
			"-0.022": 0.0,
			"-0.021": 0.0,
			"-0.02": 0.0,
			"-0.019": 0.0,
			"-0.018": 0.0,
			"-0.017": 0.0,
			"-0.016": 0.0,
			"-0.015": 0.0,
			"-0.014": 0.0,
			"-0.013": 0.0,
			"-0.012": 0.0,
			"-0.011": 0.0,
			"-0.01": 0.0,
			"-0.009": 0.00409255876386,
			"-0.008": 1.61820721307,
			"-0.007": 6.03497461911,
			"-0.006": 14.2558751543,
			"-0.005": 17.3190092036,
			"-0.004": 15.841020538,
			"-0.003": 15.2021268688,
			"-0.002": 14.8203343953,
			"-0.001": 14.7010549406,
			"0.0": 17.8956775813,
			"0.001": 20.8542983313,
			"0.002": 17.2331818344,
			"0.003": 9.72594902341,
			"0.004": 12.2299076334,
			"0.005": 6.9560711782,
			"0.006": 2.32871740325,
			"0.007": 2.90369904353,
			"0.008": 3.27196297541,
			"0.009": 2.50961231083,
			"0.01": 2.26606724601,
			"0.011": 3.3909931603,
			"0.012": 4.1482447846,
			"0.013": 1.33791594355,
			"0.014": 0.129601423005,
			"0.015": 0.0,
			"0.016": 0.0,
			"0.017": 0.0,
			"0.018": 0.0,
			"0.019": 0.0,
			"0.02": 0.0,
			"0.021": 0.0,
			"0.022": 0.0,
			"0.023": 0.0,
			"0.024": 0.0,
			"0.025": 0.0
		}
	}
}
