{
	 "smiles": "CC1=C(C=CC(=C1)N1CCCS1(=O)=O)C(O)=O", 
	 "Tm": 523.15, 
	 "num_atms": 30, 
	 "gaussian": { 
		 "optdone": 1, 
		 "sigma_profile": "yes", 
		 "theory": "DFT", 
		 "functional": "B3LYP", 
		 "basiset": "6-31G**", 
		 "properties": { 
			 "R2extent": 6328.5562, 
			 "electric_dipole_moment_norm": 6.55342247913, 
			 "electric_quadrupole_moment_norm": 21.9205761998, 
			 "total_energy": -1180.79378301, 
			 "HOMO_LUMO_gap": 0.1836, 
			 "cosmo_polarized_energy": -21.43, 
			 "cosmo_cavitation_energy": 34.06, 
			 "cosmo_dispersion_energy": -25.3, 
			 "cosmo_repulsion_energy": 1.89, 
			 "cosmo_total_nonelectrostatic_energy": 10.65, 
			 "SMD_solvation_energy": 5.26 
		},
		"coords": [
			{
				"x": -2.6703522464,
				"y": -0.0304532688,
				"z": -1.4738995943,
				"element": "C" 
			},
			{
				"x": -1.7719777687,
				"y": 0.7989585713,
				"z": -0.5884684904,
				"element": "C" 
			},
			{
				"x": -2.2595160179,
				"y": 1.6861625962,
				"z": 0.4064656608,
				"element": "C" 
			},
			{
				"x": -1.3452141402,
				"y": 2.4070133194,
				"z": 1.1894155921,
				"element": "C" 
			},
			{
				"x": 0.0260222991,
				"y": 2.2870997842,
				"z": 1.0099636795,
				"element": "C" 
			},
			{
				"x": 0.5177060844,
				"y": 1.4132564982,
				"z": 0.0284825731,
				"element": "C" 
			},
			{
				"x": -0.391796248,
				"y": 0.6732918874,
				"z": -0.7451959136,
				"element": "C" 
			},
			{
				"x": 1.9038229494,
				"y": 1.2402041464,
				"z": -0.1576266794,
				"element": "N" 
			},
			{
				"x": 2.8924609005,
				"y": 1.8512148242,
				"z": 0.731882639,
				"element": "C" 
			},
			{
				"x": 4.2524223403,
				"y": 1.3147741845,
				"z": 0.2644454759,
				"element": "C" 
			},
			{
				"x": 4.239930184,
				"y": 1.4170996759,
				"z": -1.2598352186,
				"element": "C" 
			},
			{
				"x": 2.5357851328,
				"y": 0.9925218934,
				"z": -1.7528989628,
				"element": "S" 
			},
			{
				"x": 2.0033375775,
				"y": 1.992458791,
				"z": -2.6829218542,
				"element": "O" 
			},
			{
				"x": 2.4312335005,
				"y": -0.4297582134,
				"z": -2.0908309087,
				"element": "O" 
			},
			{
				"x": -3.7121139259,
				"y": 1.8645335908,
				"z": 0.6374578995,
				"element": "C" 
			},
			{
				"x": -3.9859853001,
				"y": 2.7496390469,
				"z": 1.6375323037,
				"element": "O" 
			},
			{
				"x": -4.6146347828,
				"y": 1.3116717619,
				"z": 0.0347007965,
				"element": "O" 
			},
			{
				"x": -3.3373298871,
				"y": 0.6020636251,
				"z": -2.0655920671,
				"element": "H" 
			},
			{
				"x": -2.0705958662,
				"y": -0.6436574739,
				"z": -2.1511876623,
				"element": "H" 
			},
			{
				"x": -3.3224463692,
				"y": -0.6812625612,
				"z": -0.8855530247,
				"element": "H" 
			},
			{
				"x": -1.7239634093,
				"y": 3.0825945934,
				"z": 1.9468706631,
				"element": "H" 
			},
			{
				"x": 0.6982032469,
				"y": 2.8751802062,
				"z": 1.6234908623,
				"element": "H" 
			},
			{
				"x": -0.0125156206,
				"y": -0.0320047654,
				"z": -1.4763615119,
				"element": "H" 
			},
			{
				"x": 2.8692818172,
				"y": 2.951016023,
				"z": 0.6812377298,
				"element": "H" 
			},
			{
				"x": 2.6762231612,
				"y": 1.551803278,
				"z": 1.7613014425,
				"element": "H" 
			},
			{
				"x": 4.3636634991,
				"y": 0.271381881,
				"z": 0.5721782061,
				"element": "H" 
			},
			{
				"x": 5.0759904562,
				"y": 1.891618047,
				"z": 0.6930088574,
				"element": "H" 
			},
			{
				"x": 4.9047834377,
				"y": 0.7224515851,
				"z": -1.7749724851,
				"element": "H" 
			},
			{
				"x": 4.4098922686,
				"y": 2.4362383105,
				"z": -1.615223952,
				"element": "H" 
			},
			{
				"x": -4.9550172731,
				"y": 2.7803881619,
				"z": 1.6870339438,
				"element": "H" 
			}
		],
		 "valence_orbital": [ 
			{
				"type": "occ",
				"energy": -0.30856,
				"method": "rhf"
			},
			{
				"type": "occ",
				"energy": -0.2909,
				"method": "rhf"
			},
			{
				"type": "occ",
				"energy": -0.26618,
				"method": "rhf"
			},
			{
				"type": "occ",
				"energy": -0.25131,
				"method": "rhf"
			},
			{
				"type": "occ",
				"energy": -0.22649,
				"method": "rhf"
			},
			{
				"type": "unocc",
				"energy": -0.04289,
				"method": "rhf"
			},
			{
				"type": "unocc",
				"energy": -0.00648,
				"method": "rhf"
			},
			{
				"type": "unocc",
				"energy": 0.03835,
				"method": "rhf"
			},
			{
				"type": "unocc",
				"energy": 0.04456,
				"method": "rhf"
			},
			{
				"type": "unocc",
				"energy": 0.0591,
				"method": "rhf"
			}
		],
		"cosmo_sigma_profile": { 
			"-0.025": 0.0,
			"-0.024": 0.0,
			"-0.023": 0.0,
			"-0.022": 0.0,
			"-0.021": 0.0,
			"-0.02": 0.0,
			"-0.019": 0.0,
			"-0.018": 0.248171673021,
			"-0.017": 0.876355354611,
			"-0.016": 0.920442554343,
			"-0.015": 0.382212934025,
			"-0.014": 0.908448930345,
			"-0.013": 1.350478439,
			"-0.012": 0.290042663464,
			"-0.011": 0.607260672662,
			"-0.01": 0.930768641101,
			"-0.009": 3.87311781062,
			"-0.008": 6.46735218093,
			"-0.007": 13.0549782384,
			"-0.006": 24.9644901511,
			"-0.005": 22.0245812205,
			"-0.004": 14.9651321111,
			"-0.003": 14.4110560071,
			"-0.002": 12.3456948601,
			"-0.001": 15.9537998575,
			"0.0": 17.4468519743,
			"0.001": 15.0927835571,
			"0.002": 13.6878127764,
			"0.003": 17.3898419467,
			"0.004": 11.9191043408,
			"0.005": 6.19354536076,
			"0.006": 6.30765712775,
			"0.007": 6.42034216048,
			"0.008": 6.03717673982,
			"0.009": 5.73216376736,
			"0.01": 12.0524525103,
			"0.011": 11.711927266,
			"0.012": 4.40624594866,
			"0.013": 0.759061031611,
			"0.014": 0.0,
			"0.015": 0.0,
			"0.016": 0.0,
			"0.017": 0.0,
			"0.018": 0.0,
			"0.019": 0.0,
			"0.02": 0.0,
			"0.021": 0.0,
			"0.022": 0.0,
			"0.023": 0.0,
			"0.024": 0.0,
			"0.025": 0.0
		}
	}
}
