{
	 "smiles": "OC(=O)C1=CC=CC2=C1CC1=CC=CC=C21", 
	 "Tm": 520.15, 
	 "num_atms": 26, 
	 "gaussian": { 
		 "optdone": 1, 
		 "sigma_profile": "yes", 
		 "theory": "DFT", 
		 "functional": "B3LYP", 
		 "basiset": "6-31G**", 
		 "properties": { 
			 "R2extent": 4212.9564, 
			 "electric_dipole_moment_norm": 4.99928739922, 
			 "electric_quadrupole_moment_norm": 20.7991198888, 
			 "total_energy": -689.988891037, 
			 "HOMO_LUMO_gap": 0.17464, 
			 "cosmo_polarized_energy": -14.45, 
			 "cosmo_cavitation_energy": 29.7, 
			 "cosmo_dispersion_energy": -22.05, 
			 "cosmo_repulsion_energy": 1.66, 
			 "cosmo_total_nonelectrostatic_energy": 9.31, 
			 "SMD_solvation_energy": 5.32 
		},
		"coords": [
			{
				"x": -1.0493567441,
				"y": -3.0664064019,
				"z": -2.1997375115,
				"element": "O" 
			},
			{
				"x": -2.0164107694,
				"y": -2.970140813,
				"z": -1.248249042,
				"element": "C" 
			},
			{
				"x": -2.91051193,
				"y": -3.7830722816,
				"z": -1.2233743853,
				"element": "O" 
			},
			{
				"x": -1.9146601668,
				"y": -1.8354993956,
				"z": -0.2686013117,
				"element": "C" 
			},
			{
				"x": -2.646891133,
				"y": -1.981608755,
				"z": 0.9232034373,
				"element": "C" 
			},
			{
				"x": -2.6545488328,
				"y": -0.9819415066,
				"z": 1.8930767662,
				"element": "C" 
			},
			{
				"x": -1.9516801502,
				"y": 0.2071828837,
				"z": 1.6882028988,
				"element": "C" 
			},
			{
				"x": -1.2373051835,
				"y": 0.3751691885,
				"z": 0.5014285468,
				"element": "C" 
			},
			{
				"x": -1.2008251569,
				"y": -0.6464088228,
				"z": -0.4743823354,
				"element": "C" 
			},
			{
				"x": -0.3697138141,
				"y": -0.1740678173,
				"z": -1.6613916982,
				"element": "C" 
			},
			{
				"x": 0.0410687266,
				"y": 1.226929277,
				"z": -1.2584052941,
				"element": "C" 
			},
			{
				"x": 0.8085241524,
				"y": 2.1541369786,
				"z": -1.9541899586,
				"element": "C" 
			},
			{
				"x": 1.067102724,
				"y": 3.3953484843,
				"z": -1.3623141314,
				"element": "C" 
			},
			{
				"x": 0.5646517852,
				"y": 3.696689225,
				"z": -0.0910993987,
				"element": "C" 
			},
			{
				"x": -0.2052162838,
				"y": 2.7668539058,
				"z": 0.6101724592,
				"element": "C" 
			},
			{
				"x": -0.4649945194,
				"y": 1.5277233286,
				"z": 0.0199937225,
				"element": "C" 
			},
			{
				"x": -0.331137796,
				"y": -2.4484110702,
				"z": -2.01152248,
				"element": "H" 
			},
			{
				"x": -3.2119651691,
				"y": -2.8968213741,
				"z": 1.0603080539,
				"element": "H" 
			},
			{
				"x": -3.2205842458,
				"y": -1.12573539,
				"z": 2.8084407735,
				"element": "H" 
			},
			{
				"x": -1.9711522675,
				"y": 0.9929142312,
				"z": 2.4380289258,
				"element": "H" 
			},
			{
				"x": 0.533344625,
				"y": -0.7844040278,
				"z": -1.8239312627,
				"element": "H" 
			},
			{
				"x": -0.9366134015,
				"y": -0.1947282726,
				"z": -2.6004769331,
				"element": "H" 
			},
			{
				"x": 1.2017965819,
				"y": 1.9253326051,
				"z": -2.9412791112,
				"element": "H" 
			},
			{
				"x": 1.6627312632,
				"y": 4.131471833,
				"z": -1.8940370409,
				"element": "H" 
			},
			{
				"x": 0.7752856296,
				"y": 4.6648800765,
				"z": 0.3537295065,
				"element": "H" 
			},
			{
				"x": -0.592637924,
				"y": 3.0082139114,
				"z": 1.5960068042,
				"element": "H" 
			}
		],
		 "valence_orbital": [ 
			{
				"type": "occ",
				"energy": -0.29382,
				"method": "rhf"
			},
			{
				"type": "occ",
				"energy": -0.27284,
				"method": "rhf"
			},
			{
				"type": "occ",
				"energy": -0.2651,
				"method": "rhf"
			},
			{
				"type": "occ",
				"energy": -0.2575,
				"method": "rhf"
			},
			{
				"type": "occ",
				"energy": -0.22929,
				"method": "rhf"
			},
			{
				"type": "unocc",
				"energy": -0.05465,
				"method": "rhf"
			},
			{
				"type": "unocc",
				"energy": -0.03772,
				"method": "rhf"
			},
			{
				"type": "unocc",
				"energy": -0.01303,
				"method": "rhf"
			},
			{
				"type": "unocc",
				"energy": 0.01637,
				"method": "rhf"
			},
			{
				"type": "unocc",
				"energy": 0.05578,
				"method": "rhf"
			}
		],
		"cosmo_sigma_profile": { 
			"-0.025": 0.0,
			"-0.024": 0.0,
			"-0.023": 0.0,
			"-0.022": 0.0,
			"-0.021": 0.0,
			"-0.02": 0.0,
			"-0.019": 0.0,
			"-0.018": 0.196733320781,
			"-0.017": 0.606551920892,
			"-0.016": 1.1018467382,
			"-0.015": 0.812434111797,
			"-0.014": 0.683169642884,
			"-0.013": 0.78782085858,
			"-0.012": 1.35177510901,
			"-0.011": 1.2981292487,
			"-0.01": 0.96758135428,
			"-0.009": 0.894960662721,
			"-0.008": 1.49170881743,
			"-0.007": 5.74777948169,
			"-0.006": 16.4880315504,
			"-0.005": 19.2486457706,
			"-0.004": 20.0703030694,
			"-0.003": 16.1270732548,
			"-0.002": 12.703863738,
			"-0.001": 12.8672060155,
			"0.0": 13.9216978702,
			"0.001": 14.2426208644,
			"0.002": 17.6569097533,
			"0.003": 20.6100165569,
			"0.004": 16.1430134638,
			"0.005": 11.931610393,
			"0.006": 5.89105170648,
			"0.007": 2.53290415394,
			"0.008": 2.45519766497,
			"0.009": 3.4056380543,
			"0.01": 4.33152550523,
			"0.011": 5.48145185022,
			"0.012": 4.81529082688,
			"0.013": 1.65658488748,
			"0.014": 0.094683382317,
			"0.015": 0.0,
			"0.016": 0.0,
			"0.017": 0.0,
			"0.018": 0.0,
			"0.019": 0.0,
			"0.02": 0.0,
			"0.021": 0.0,
			"0.022": 0.0,
			"0.023": 0.0,
			"0.024": 0.0,
			"0.025": 0.0
		}
	}
}
