{
	 "smiles": "NC(=S)C1COC2=CC=CC=C2O1", 
	 "Tm": 455.15, 
	 "num_atms": 22, 
	 "gaussian": { 
		 "optdone": 1, 
		 "sigma_profile": "yes", 
		 "theory": "DFT", 
		 "functional": "B3LYP", 
		 "basiset": "6-31G**", 
		 "properties": { 
			 "R2extent": 3190.5712, 
			 "electric_dipole_moment_norm": 3.6517016239, 
			 "electric_quadrupole_moment_norm": 19.4082643204, 
			 "total_energy": -951.756272951, 
			 "HOMO_LUMO_gap": 0.17643, 
			 "cosmo_polarized_energy": -14.68, 
			 "cosmo_cavitation_energy": 26.94, 
			 "cosmo_dispersion_energy": -20.45, 
			 "cosmo_repulsion_energy": 1.58, 
			 "cosmo_total_nonelectrostatic_energy": 8.06, 
			 "SMD_solvation_energy": 3.75 
		},
		"coords": [
			{
				"x": 2.8305094288,
				"y": -1.045207769,
				"z": -1.4567449771,
				"element": "N" 
			},
			{
				"x": 3.0239499062,
				"y": 0.2553349718,
				"z": -1.2158909009,
				"element": "C" 
			},
			{
				"x": 4.4861468961,
				"y": 0.9271808833,
				"z": -0.797599721,
				"element": "S" 
			},
			{
				"x": 1.7743395789,
				"y": 1.1284564707,
				"z": -1.4187272125,
				"element": "C" 
			},
			{
				"x": 1.4476961824,
				"y": 2.0034240051,
				"z": -0.2077874882,
				"element": "C" 
			},
			{
				"x": 1.0126563205,
				"y": 1.2062367705,
				"z": 0.8903419123,
				"element": "O" 
			},
			{
				"x": -0.0017523367,
				"y": 0.345014027,
				"z": 0.5606558749,
				"element": "C" 
			},
			{
				"x": -0.8379873728,
				"y": -0.1402220173,
				"z": 1.5670395036,
				"element": "C" 
			},
			{
				"x": -1.8718795453,
				"y": -1.020733975,
				"z": 1.2523125852,
				"element": "C" 
			},
			{
				"x": -2.0826612253,
				"y": -1.4094321228,
				"z": -0.0737866253,
				"element": "C" 
			},
			{
				"x": -1.2458859952,
				"y": -0.93245543,
				"z": -1.0823190382,
				"element": "C" 
			},
			{
				"x": -0.2009523023,
				"y": -0.0643543537,
				"z": -0.7656887028,
				"element": "C" 
			},
			{
				"x": 0.6278632222,
				"y": 0.3511762861,
				"z": -1.7944858012,
				"element": "O" 
			},
			{
				"x": 1.9253960537,
				"y": -1.3763668571,
				"z": -1.7609166455,
				"element": "H" 
			},
			{
				"x": 3.6083052576,
				"y": -1.6834505726,
				"z": -1.3768315623,
				"element": "H" 
			},
			{
				"x": 1.9835333794,
				"y": 1.7766708549,
				"z": -2.2759463547,
				"element": "H" 
			},
			{
				"x": 0.6600813257,
				"y": 2.7157335676,
				"z": -0.4879956485,
				"element": "H" 
			},
			{
				"x": 2.338443066,
				"y": 2.5381471679,
				"z": 0.1182452563,
				"element": "H" 
			},
			{
				"x": -0.6577981377,
				"y": 0.1884363054,
				"z": 2.5854718606,
				"element": "H" 
			},
			{
				"x": -2.5176380138,
				"y": -1.3940054837,
				"z": 2.0408818856,
				"element": "H" 
			},
			{
				"x": -2.8941239279,
				"y": -2.0851634631,
				"z": -0.3248542181,
				"element": "H" 
			},
			{
				"x": -1.3840417604,
				"y": -1.221019266,
				"z": -2.119873982,
				"element": "H" 
			}
		],
		 "valence_orbital": [ 
			{
				"type": "occ",
				"energy": -0.3122,
				"method": "rhf"
			},
			{
				"type": "occ",
				"energy": -0.24627,
				"method": "rhf"
			},
			{
				"type": "occ",
				"energy": -0.23649,
				"method": "rhf"
			},
			{
				"type": "occ",
				"energy": -0.22502,
				"method": "rhf"
			},
			{
				"type": "occ",
				"energy": -0.21375,
				"method": "rhf"
			},
			{
				"type": "unocc",
				"energy": -0.03732,
				"method": "rhf"
			},
			{
				"type": "unocc",
				"energy": -0.00745,
				"method": "rhf"
			},
			{
				"type": "unocc",
				"energy": 0.00581,
				"method": "rhf"
			},
			{
				"type": "unocc",
				"energy": 0.06046,
				"method": "rhf"
			},
			{
				"type": "unocc",
				"energy": 0.08174,
				"method": "rhf"
			}
		],
		"cosmo_sigma_profile": { 
			"-0.025": 0.0,
			"-0.024": 0.0,
			"-0.023": 0.0,
			"-0.022": 0.0,
			"-0.021": 0.0,
			"-0.02": 0.0,
			"-0.019": 0.0,
			"-0.018": 0.0,
			"-0.017": 0.0,
			"-0.016": 0.356357895175,
			"-0.015": 1.11075110094,
			"-0.014": 2.22777978316,
			"-0.013": 2.30079857307,
			"-0.012": 1.77348969752,
			"-0.011": 1.81973971262,
			"-0.01": 1.70279330522,
			"-0.009": 3.50892133076,
			"-0.008": 4.02123581695,
			"-0.007": 7.19718907835,
			"-0.006": 12.7356971022,
			"-0.005": 15.1729492701,
			"-0.004": 15.1983351667,
			"-0.003": 12.4991803324,
			"-0.002": 8.83550296265,
			"-0.001": 11.4535823672,
			"0.0": 9.56037399587,
			"0.001": 11.3247638216,
			"0.002": 11.2548873662,
			"0.003": 13.6133222264,
			"0.004": 14.9667570055,
			"0.005": 14.2017115205,
			"0.006": 9.54667406834,
			"0.007": 6.56538157403,
			"0.008": 8.47284737005,
			"0.009": 7.61627372934,
			"0.01": 5.3172196121,
			"0.011": 2.54809897206,
			"0.012": 0.512768511006,
			"0.013": 0.0,
			"0.014": 0.0,
			"0.015": 0.0,
			"0.016": 0.0,
			"0.017": 0.0,
			"0.018": 0.0,
			"0.019": 0.0,
			"0.02": 0.0,
			"0.021": 0.0,
			"0.022": 0.0,
			"0.023": 0.0,
			"0.024": 0.0,
			"0.025": 0.0
		}
	}
}
