{
	 "smiles": "OCC1=NN=C(S)N1C1CC1", 
	 "Tm": 428.15, 
	 "num_atms": 20, 
	 "gaussian": { 
		 "optdone": 1, 
		 "sigma_profile": "yes", 
		 "theory": "DFT", 
		 "functional": "B3LYP", 
		 "basiset": "6-31G**", 
		 "properties": { 
			 "R2extent": 2012.7517, 
			 "electric_dipole_moment_norm": 3.54073691341, 
			 "electric_quadrupole_moment_norm": 7.3244493008, 
			 "total_energy": -871.656180622, 
			 "HOMO_LUMO_gap": 0.23435, 
			 "cosmo_polarized_energy": -15.66, 
			 "cosmo_cavitation_energy": 24.99, 
			 "cosmo_dispersion_energy": -18.63, 
			 "cosmo_repulsion_energy": 1.47, 
			 "cosmo_total_nonelectrostatic_energy": 7.82, 
			 "SMD_solvation_energy": 1.51 
		},
		"coords": [
			{
				"x": 1.0676288147,
				"y": -1.8987653828,
				"z": -2.5451708019,
				"element": "O" 
			},
			{
				"x": 1.6410537809,
				"y": -1.7881385566,
				"z": -1.2409377329,
				"element": "C" 
			},
			{
				"x": 1.4056779712,
				"y": -0.4503081321,
				"z": -0.6135632319,
				"element": "C" 
			},
			{
				"x": 2.2799915903,
				"y": 0.5280886921,
				"z": -0.6400073301,
				"element": "N" 
			},
			{
				"x": 1.7111875497,
				"y": 1.6327010128,
				"z": -0.0369221595,
				"element": "N" 
			},
			{
				"x": 0.5007519908,
				"y": 1.2790730743,
				"z": 0.32979672,
				"element": "C" 
			},
			{
				"x": -0.6656226561,
				"y": 2.2991860748,
				"z": 1.1778838557,
				"element": "S" 
			},
			{
				"x": 0.2315176052,
				"y": -0.0230096654,
				"z": -0.0150175726,
				"element": "N" 
			},
			{
				"x": -0.9599739519,
				"y": -0.768538873,
				"z": 0.3080106029,
				"element": "C" 
			},
			{
				"x": -2.2713404753,
				"y": -0.3502857071,
				"z": -0.3189803563,
				"element": "C" 
			},
			{
				"x": -1.6057635498,
				"y": -1.6286519747,
				"z": -0.7486484354,
				"element": "C" 
			},
			{
				"x": 1.468008982,
				"y": -1.2057917636,
				"z": -3.0884545844,
				"element": "H" 
			},
			{
				"x": 2.7263927057,
				"y": -1.9426377938,
				"z": -1.2648577174,
				"element": "H" 
			},
			{
				"x": 1.1922579578,
				"y": -2.5899039939,
				"z": -0.6494919046,
				"element": "H" 
			},
			{
				"x": 0.204901442,
				"y": 3.3230024579,
				"z": 1.2661976832,
				"element": "H" 
			},
			{
				"x": -0.9826677272,
				"y": -1.1187038756,
				"z": 1.3372752883,
				"element": "H" 
			},
			{
				"x": -2.2459726192,
				"y": 0.4872064267,
				"z": -1.0082240142,
				"element": "H" 
			},
			{
				"x": -3.1571794424,
				"y": -0.3970435264,
				"z": 0.3058446943,
				"element": "H" 
			},
			{
				"x": -2.0281677458,
				"y": -2.5720150053,
				"z": -0.4172657413,
				"element": "H" 
			},
			{
				"x": -1.1256822227,
				"y": -1.6586634882,
				"z": -1.720967262,
				"element": "H" 
			}
		],
		 "valence_orbital": [ 
			{
				"type": "occ",
				"energy": -0.30759,
				"method": "rhf"
			},
			{
				"type": "occ",
				"energy": -0.29067,
				"method": "rhf"
			},
			{
				"type": "occ",
				"energy": -0.28456,
				"method": "rhf"
			},
			{
				"type": "occ",
				"energy": -0.25531,
				"method": "rhf"
			},
			{
				"type": "occ",
				"energy": -0.2319,
				"method": "rhf"
			},
			{
				"type": "unocc",
				"energy": 0.00245,
				"method": "rhf"
			},
			{
				"type": "unocc",
				"energy": 0.00943,
				"method": "rhf"
			},
			{
				"type": "unocc",
				"energy": 0.03748,
				"method": "rhf"
			},
			{
				"type": "unocc",
				"energy": 0.06371,
				"method": "rhf"
			},
			{
				"type": "unocc",
				"energy": 0.08007,
				"method": "rhf"
			}
		],
		"cosmo_sigma_profile": { 
			"-0.025": 0.0,
			"-0.024": 0.0,
			"-0.023": 0.0,
			"-0.022": 0.0,
			"-0.021": 0.0,
			"-0.02": 0.0,
			"-0.019": 0.0,
			"-0.018": 0.0,
			"-0.017": 0.0102243648779,
			"-0.016": 0.596971326282,
			"-0.015": 1.04523375132,
			"-0.014": 1.06356739656,
			"-0.013": 0.317812647693,
			"-0.012": 1.72785192584,
			"-0.011": 2.29492089157,
			"-0.01": 2.27131232617,
			"-0.009": 1.76739357165,
			"-0.008": 2.82811850444,
			"-0.007": 5.9921602046,
			"-0.006": 13.9854065856,
			"-0.005": 17.6355088646,
			"-0.004": 14.4085390873,
			"-0.003": 13.170907633,
			"-0.002": 14.4626174929,
			"-0.001": 14.0395605851,
			"0.0": 12.4186596624,
			"0.001": 11.7163178257,
			"0.002": 10.4434855521,
			"0.003": 8.88079378521,
			"0.004": 7.53943440023,
			"0.005": 5.60835637389,
			"0.006": 4.9037726289,
			"0.007": 3.38245914441,
			"0.008": 2.66765036518,
			"0.009": 2.78645326938,
			"0.01": 3.01743014954,
			"0.011": 2.93415254033,
			"0.012": 3.69209388112,
			"0.013": 4.05807469078,
			"0.014": 3.57155203254,
			"0.015": 2.2851217081,
			"0.016": 2.21663933342,
			"0.017": 0.493581153259,
			"0.018": 0.0,
			"0.019": 0.0,
			"0.02": 0.0,
			"0.021": 0.0,
			"0.022": 0.0,
			"0.023": 0.0,
			"0.024": 0.0,
			"0.025": 0.0
		}
	}
}
