{
	 "smiles": "CN1C=C(C=N1)C1=C(N)N2C=CC=CC2=N1", 
	 "Tm": 423.15, 
	 "num_atms": 27, 
	 "gaussian": { 
		 "optdone": 1, 
		 "sigma_profile": "yes", 
		 "theory": "DFT", 
		 "functional": "B3LYP", 
		 "basiset": "6-31G**", 
		 "properties": { 
			 "R2extent": 4783.2669, 
			 "electric_dipole_moment_norm": 0.424743275403, 
			 "electric_quadrupole_moment_norm": 15.8989283258, 
			 "total_energy": -699.535174773, 
			 "HOMO_LUMO_gap": 0.16672, 
			 "cosmo_polarized_energy": -15.88, 
			 "cosmo_cavitation_energy": 31.49, 
			 "cosmo_dispersion_energy": -23.14, 
			 "cosmo_repulsion_energy": 1.77, 
			 "cosmo_total_nonelectrostatic_energy": 10.12, 
			 "SMD_solvation_energy": 3.59 
		},
		"coords": [
			{
				"x": -2.2330032906,
				"y": -4.9401785987,
				"z": -0.5775693183,
				"element": "C" 
			},
			{
				"x": -1.7889229342,
				"y": -3.5869446635,
				"z": -0.304455784,
				"element": "N" 
			},
			{
				"x": -0.5234976375,
				"y": -3.1009935071,
				"z": -0.3348515101,
				"element": "C" 
			},
			{
				"x": -0.5953363078,
				"y": -1.7518573911,
				"z": -0.0095728277,
				"element": "C" 
			},
			{
				"x": -1.9827704362,
				"y": -1.5337173934,
				"z": 0.1997158122,
				"element": "C" 
			},
			{
				"x": -2.6996481933,
				"y": -2.6418423314,
				"z": 0.0209286008,
				"element": "N" 
			},
			{
				"x": 0.5325010573,
				"y": -0.8378056451,
				"z": 0.0772863022,
				"element": "C" 
			},
			{
				"x": 0.5084032721,
				"y": 0.5178522423,
				"z": 0.3991128139,
				"element": "C" 
			},
			{
				"x": -0.4946127664,
				"y": 1.4484812373,
				"z": 0.7321366897,
				"element": "N" 
			},
			{
				"x": 1.8347771716,
				"y": 0.9247357284,
				"z": 0.3436535132,
				"element": "N" 
			},
			{
				"x": 2.3982841092,
				"y": 2.1536344149,
				"z": 0.5685723082,
				"element": "C" 
			},
			{
				"x": 3.7537885248,
				"y": 2.2932113974,
				"z": 0.4469204348,
				"element": "C" 
			},
			{
				"x": 4.5619909024,
				"y": 1.1755087773,
				"z": 0.0918841156,
				"element": "C" 
			},
			{
				"x": 3.9901113207,
				"y": -0.0549425397,
				"z": -0.1325273114,
				"element": "C" 
			},
			{
				"x": 2.5890419788,
				"y": -0.2061687272,
				"z": -0.0084963185,
				"element": "C" 
			},
			{
				"x": 1.809429696,
				"y": -1.271886231,
				"z": -0.1703251857,
				"element": "N" 
			},
			{
				"x": -1.3626740365,
				"y": -5.5601223083,
				"z": -0.797952204,
				"element": "H" 
			},
			{
				"x": -2.7565942463,
				"y": -5.346002425,
				"z": 0.2919297609,
				"element": "H" 
			},
			{
				"x": -2.9113430344,
				"y": -4.9497764195,
				"z": -1.4350409483,
				"element": "H" 
			},
			{
				"x": 0.3323692466,
				"y": -3.7125650366,
				"z": -0.5759973334,
				"element": "H" 
			},
			{
				"x": -2.4870685998,
				"y": -0.6172125954,
				"z": 0.4731035118,
				"element": "H" 
			},
			{
				"x": -0.9926273803,
				"y": 1.2024168878,
				"z": 1.5826719564,
				"element": "H" 
			},
			{
				"x": -1.1734619187,
				"y": 1.578360629,
				"z": -0.0123438909,
				"element": "H" 
			},
			{
				"x": 1.705770689,
				"y": 2.9427370485,
				"z": 0.8330205334,
				"element": "H" 
			},
			{
				"x": 4.2015960686,
				"y": 3.2643719229,
				"z": 0.6243202142,
				"element": "H" 
			},
			{
				"x": 5.6359025403,
				"y": 1.301383337,
				"z": -0.0008144101,
				"element": "H" 
			},
			{
				"x": 4.5740942048,
				"y": -0.92677781,
				"z": -0.4042095249,
				"element": "H" 
			}
		],
		 "valence_orbital": [ 
			{
				"type": "occ",
				"energy": -0.27061,
				"method": "rhf"
			},
			{
				"type": "occ",
				"energy": -0.24972,
				"method": "rhf"
			},
			{
				"type": "occ",
				"energy": -0.24674,
				"method": "rhf"
			},
			{
				"type": "occ",
				"energy": -0.20938,
				"method": "rhf"
			},
			{
				"type": "occ",
				"energy": -0.19307,
				"method": "rhf"
			},
			{
				"type": "unocc",
				"energy": -0.02635,
				"method": "rhf"
			},
			{
				"type": "unocc",
				"energy": 0.00923,
				"method": "rhf"
			},
			{
				"type": "unocc",
				"energy": 0.02121,
				"method": "rhf"
			},
			{
				"type": "unocc",
				"energy": 0.04482,
				"method": "rhf"
			},
			{
				"type": "unocc",
				"energy": 0.0696,
				"method": "rhf"
			}
		],
		"cosmo_sigma_profile": { 
			"-0.025": 0.0,
			"-0.024": 0.0,
			"-0.023": 0.0,
			"-0.022": 0.0,
			"-0.021": 0.0,
			"-0.02": 0.0,
			"-0.019": 0.0,
			"-0.018": 0.0,
			"-0.017": 0.0,
			"-0.016": 0.0,
			"-0.015": 0.0,
			"-0.014": 0.0,
			"-0.013": 0.0,
			"-0.012": 0.911197001906,
			"-0.011": 2.5915802323,
			"-0.01": 2.63990962396,
			"-0.009": 4.8036267568,
			"-0.008": 7.20209271449,
			"-0.007": 11.1884356597,
			"-0.006": 16.4651890128,
			"-0.005": 16.9268770686,
			"-0.004": 17.6472616592,
			"-0.003": 18.7432304339,
			"-0.002": 11.4812503957,
			"-0.001": 10.5503209275,
			"0.0": 16.0602690482,
			"0.001": 16.0634679435,
			"0.002": 13.9787447599,
			"0.003": 17.5111989008,
			"0.004": 18.054292345,
			"0.005": 13.4198503227,
			"0.006": 5.9943049432,
			"0.007": 5.08003373694,
			"0.008": 4.45427693855,
			"0.009": 3.34853941228,
			"0.01": 3.45405706232,
			"0.011": 2.76214293343,
			"0.012": 2.6717048349,
			"0.013": 1.76324781067,
			"0.014": 2.70701035791,
			"0.015": 1.76693778258,
			"0.016": 1.52095818137,
			"0.017": 0.320153361811,
			"0.018": 0.0,
			"0.019": 0.0,
			"0.02": 0.0,
			"0.021": 0.0,
			"0.022": 0.0,
			"0.023": 0.0,
			"0.024": 0.0,
			"0.025": 0.0
		}
	}
}
