{
	 "smiles": "COC1=NC(OC)=C(Br)C=C1Br", 
	 "Tm": 359.15, 
	 "num_atms": 19, 
	 "gaussian": { 
		 "optdone": 1, 
		 "sigma_profile": "yes", 
		 "theory": "DFT", 
		 "functional": "B3LYP", 
		 "basiset": "6-31G**", 
		 "properties": { 
			 "R2extent": 6384.5613, 
			 "electric_dipole_moment_norm": 3.12474840907, 
			 "electric_quadrupole_moment_norm": 4.59731751351, 
			 "total_energy": -5618.95360696, 
			 "HOMO_LUMO_gap": 0.18738, 
			 "cosmo_polarized_energy": -6.91, 
			 "cosmo_cavitation_energy": 28.2, 
			 "cosmo_dispersion_energy": -21.17, 
			 "cosmo_repulsion_energy": 1.72, 
			 "cosmo_total_nonelectrostatic_energy": 8.75, 
			 "SMD_solvation_energy": 4.11 
		},
		"coords": [
			{
				"x": 0.9292441607,
				"y": -0.6276068932,
				"z": -1.7960057754,
				"element": "C" 
			},
			{
				"x": -0.4593397933,
				"y": -0.8528316251,
				"z": -1.5388552176,
				"element": "O" 
			},
			{
				"x": -0.9507707119,
				"y": -0.427110847,
				"z": -0.3636791321,
				"element": "C" 
			},
			{
				"x": -0.1432392064,
				"y": 0.1786173385,
				"z": 0.5055422073,
				"element": "N" 
			},
			{
				"x": -0.6187610457,
				"y": 0.6053113647,
				"z": 1.6744733008,
				"element": "C" 
			},
			{
				"x": 0.2055106004,
				"y": 1.2144852545,
				"z": 2.5423883341,
				"element": "O" 
			},
			{
				"x": 1.5730315123,
				"y": 1.3738007582,
				"z": 2.1557107028,
				"element": "C" 
			},
			{
				"x": -1.9665420394,
				"y": 0.4379937516,
				"z": 2.0335928777,
				"element": "C" 
			},
			{
				"x": -2.6241914818,
				"y": 1.0540449473,
				"z": 3.7056809811,
				"element": "Br" 
			},
			{
				"x": -2.8127724734,
				"y": -0.1938179156,
				"z": 1.1290438935,
				"element": "C" 
			},
			{
				"x": -2.3124585168,
				"y": -0.6377994464,
				"z": -0.0899897282,
				"element": "C" 
			},
			{
				"x": -3.4464415884,
				"y": -1.5040662045,
				"z": -1.34355799,
				"element": "Br" 
			},
			{
				"x": 1.1632259318,
				"y": 0.4408266642,
				"z": -1.7868530274,
				"element": "H" 
			},
			{
				"x": 1.1077001429,
				"y": -1.0454078965,
				"z": -2.7870458861,
				"element": "H" 
			},
			{
				"x": 1.5541445196,
				"y": -1.1319591534,
				"z": -1.0533765491,
				"element": "H" 
			},
			{
				"x": 1.6577380459,
				"y": 1.9775715224,
				"z": 1.2476023864,
				"element": "H" 
			},
			{
				"x": 2.0495448855,
				"y": 1.8825321498,
				"z": 2.9939780271,
				"element": "H" 
			},
			{
				"x": 2.0482262683,
				"y": 0.4043551452,
				"z": 1.9803846034,
				"element": "H" 
			},
			{
				"x": -3.8579492103,
				"y": -0.3396389147,
				"z": 1.3731659915,
				"element": "H" 
			}
		],
		 "valence_orbital": [ 
			{
				"type": "occ",
				"energy": -0.30117,
				"method": "rhf"
			},
			{
				"type": "occ",
				"energy": -0.28499,
				"method": "rhf"
			},
			{
				"type": "occ",
				"energy": -0.28094,
				"method": "rhf"
			},
			{
				"type": "occ",
				"energy": -0.26718,
				"method": "rhf"
			},
			{
				"type": "occ",
				"energy": -0.2175,
				"method": "rhf"
			},
			{
				"type": "unocc",
				"energy": -0.03012,
				"method": "rhf"
			},
			{
				"type": "unocc",
				"energy": -0.00899,
				"method": "rhf"
			},
			{
				"type": "unocc",
				"energy": -0.00794,
				"method": "rhf"
			},
			{
				"type": "unocc",
				"energy": 0.02556,
				"method": "rhf"
			},
			{
				"type": "unocc",
				"energy": 0.09322,
				"method": "rhf"
			}
		],
		"cosmo_sigma_profile": { 
			"-0.025": 0.0,
			"-0.024": 0.0,
			"-0.023": 0.0,
			"-0.022": 0.0,
			"-0.021": 0.0,
			"-0.02": 0.0,
			"-0.019": 0.0,
			"-0.018": 0.0,
			"-0.017": 0.0,
			"-0.016": 0.0,
			"-0.015": 0.0,
			"-0.014": 0.0,
			"-0.013": 0.0,
			"-0.012": 0.0,
			"-0.011": 0.0,
			"-0.01": 0.0,
			"-0.009": 0.699244299042,
			"-0.008": 1.66291244622,
			"-0.007": 2.19232484379,
			"-0.006": 8.06885984081,
			"-0.005": 16.35633278,
			"-0.004": 20.4114217465,
			"-0.003": 20.8770718745,
			"-0.002": 18.5579329371,
			"-0.001": 20.664286137,
			"0.0": 19.016315317,
			"0.001": 21.2552023069,
			"0.002": 15.0818561252,
			"0.003": 17.1324743814,
			"0.004": 22.6824171162,
			"0.005": 10.9696364316,
			"0.006": 4.27326750298,
			"0.007": 3.99041804974,
			"0.008": 3.81751480615,
			"0.009": 3.48351849416,
			"0.01": 0.769816340687,
			"0.011": 0.0,
			"0.012": 0.0,
			"0.013": 0.0,
			"0.014": 0.0,
			"0.015": 0.0,
			"0.016": 0.0,
			"0.017": 0.0,
			"0.018": 0.0,
			"0.019": 0.0,
			"0.02": 0.0,
			"0.021": 0.0,
			"0.022": 0.0,
			"0.023": 0.0,
			"0.024": 0.0,
			"0.025": 0.0
		}
	}
}
