{
	 "smiles": "CC1=NN=NN1C(CC1=CC(F)=CC=C1)C(O)=O", 
	 "Tm": 432.15, 
	 "num_atms": 29, 
	 "gaussian": { 
		 "optdone": 1, 
		 "sigma_profile": "yes", 
		 "theory": "DFT", 
		 "functional": "B3LYP", 
		 "basiset": "6-31G**", 
		 "properties": { 
			 "R2extent": 5719.4066, 
			 "electric_dipole_moment_norm": 8.07671294154, 
			 "electric_quadrupole_moment_norm": 22.164824233, 
			 "total_energy": -895.044803267, 
			 "HOMO_LUMO_gap": 0.22595, 
			 "cosmo_polarized_energy": -24.79, 
			 "cosmo_cavitation_energy": 34.12, 
			 "cosmo_dispersion_energy": -23.53, 
			 "cosmo_repulsion_energy": 1.77, 
			 "cosmo_total_nonelectrostatic_energy": 12.35, 
			 "SMD_solvation_energy": 5.22 
		},
		"coords": [
			{
				"x": 1.5064200068,
				"y": 3.765152172,
				"z": 0.6664935061,
				"element": "C" 
			},
			{
				"x": 0.1031024472,
				"y": 3.6588092203,
				"z": 1.1517875856,
				"element": "C" 
			},
			{
				"x": -0.6416156258,
				"y": 4.6510480488,
				"z": 1.6043973323,
				"element": "N" 
			},
			{
				"x": -1.8344128701,
				"y": 4.1038888201,
				"z": 1.960616409,
				"element": "N" 
			},
			{
				"x": -1.8480832657,
				"y": 2.8328280058,
				"z": 1.7452078442,
				"element": "N" 
			},
			{
				"x": -0.6336353914,
				"y": 2.5215751118,
				"z": 1.2160703864,
				"element": "N" 
			},
			{
				"x": -0.2724788261,
				"y": 1.1485656263,
				"z": 0.8984185911,
				"element": "C" 
			},
			{
				"x": -1.5455917829,
				"y": 0.2928999047,
				"z": 0.6562436143,
				"element": "C" 
			},
			{
				"x": -1.2878328261,
				"y": -1.0074355249,
				"z": -0.0830006834,
				"element": "C" 
			},
			{
				"x": -1.4986970839,
				"y": -2.2409825883,
				"z": 0.5519512978,
				"element": "C" 
			},
			{
				"x": -1.2835009763,
				"y": -3.4215684938,
				"z": -0.1561248514,
				"element": "C" 
			},
			{
				"x": -1.4962644424,
				"y": -4.5936902274,
				"z": 0.4674203757,
				"element": "F" 
			},
			{
				"x": -0.8580333789,
				"y": -3.4250012789,
				"z": -1.4782593107,
				"element": "C" 
			},
			{
				"x": -0.6486133665,
				"y": -2.1959946755,
				"z": -2.1075287332,
				"element": "C" 
			},
			{
				"x": -0.8602278426,
				"y": -1.0003533811,
				"z": -1.4218406588,
				"element": "C" 
			},
			{
				"x": 0.6822333362,
				"y": 0.6005273044,
				"z": 1.9928644327,
				"element": "C" 
			},
			{
				"x": 0.9981079275,
				"y": -0.7043249565,
				"z": 1.8963941439,
				"element": "O" 
			},
			{
				"x": 1.1656638818,
				"y": 1.2986600618,
				"z": 2.8461035026,
				"element": "O" 
			},
			{
				"x": 1.6190959724,
				"y": 3.360273726,
				"z": -0.3456780866,
				"element": "H" 
			},
			{
				"x": 2.1823307983,
				"y": 3.2218676093,
				"z": 1.3332794898,
				"element": "H" 
			},
			{
				"x": 1.7894823877,
				"y": 4.8181548064,
				"z": 0.6521775264,
				"element": "H" 
			},
			{
				"x": 0.3109901743,
				"y": 1.1739803266,
				"z": -0.0312827112,
				"element": "H" 
			},
			{
				"x": -2.2364630162,
				"y": 0.9093101829,
				"z": 0.074288702,
				"element": "H" 
			},
			{
				"x": -2.0411216386,
				"y": 0.1038669428,
				"z": 1.6111721096,
				"element": "H" 
			},
			{
				"x": -1.842227777,
				"y": -2.296040532,
				"z": 1.580203178,
				"element": "H" 
			},
			{
				"x": -0.7022943191,
				"y": -4.3675312511,
				"z": -1.9910485418,
				"element": "H" 
			},
			{
				"x": -0.3235081123,
				"y": -2.1745560365,
				"z": -3.1430799494,
				"element": "H" 
			},
			{
				"x": -0.7107308674,
				"y": -0.0541722726,
				"z": -1.9350792866,
				"element": "H" 
			},
			{
				"x": 0.4984064771,
				"y": -1.1500566512,
				"z": 1.1906327857,
				"element": "H" 
			}
		],
		 "valence_orbital": [ 
			{
				"type": "occ",
				"energy": -0.29175,
				"method": "rhf"
			},
			{
				"type": "occ",
				"energy": -0.28966,
				"method": "rhf"
			},
			{
				"type": "occ",
				"energy": -0.28698,
				"method": "rhf"
			},
			{
				"type": "occ",
				"energy": -0.27675,
				"method": "rhf"
			},
			{
				"type": "occ",
				"energy": -0.27447,
				"method": "rhf"
			},
			{
				"type": "unocc",
				"energy": -0.04852,
				"method": "rhf"
			},
			{
				"type": "unocc",
				"energy": -0.03816,
				"method": "rhf"
			},
			{
				"type": "unocc",
				"energy": -0.01539,
				"method": "rhf"
			},
			{
				"type": "unocc",
				"energy": -0.01322,
				"method": "rhf"
			},
			{
				"type": "unocc",
				"energy": 0.03054,
				"method": "rhf"
			}
		],
		"cosmo_sigma_profile": { 
			"-0.025": 0.0,
			"-0.024": 0.0,
			"-0.023": 0.0,
			"-0.022": 0.0,
			"-0.021": 0.0,
			"-0.02": 0.0,
			"-0.019": 0.0,
			"-0.018": 0.0,
			"-0.017": 0.0,
			"-0.016": 0.0,
			"-0.015": 0.0,
			"-0.014": 0.00923589963411,
			"-0.013": 0.220329081362,
			"-0.012": 0.706817981633,
			"-0.011": 3.30108814349,
			"-0.01": 6.43766275763,
			"-0.009": 6.60011196411,
			"-0.008": 9.67103591667,
			"-0.007": 14.7409927632,
			"-0.006": 15.4236454875,
			"-0.005": 19.055653095,
			"-0.004": 16.767092224,
			"-0.003": 17.1855949982,
			"-0.002": 14.4240882254,
			"-0.001": 12.2356884827,
			"0.0": 15.6362715609,
			"0.001": 14.6152331683,
			"0.002": 14.6484653247,
			"0.003": 14.6211199464,
			"0.004": 16.4337166245,
			"0.005": 5.9696843507,
			"0.006": 5.1021338408,
			"0.007": 6.01794565996,
			"0.008": 8.05350327354,
			"0.009": 9.60504410228,
			"0.01": 8.47749456544,
			"0.011": 7.20921799376,
			"0.012": 3.7766202483,
			"0.013": 2.6318510604,
			"0.014": 2.06542191369,
			"0.015": 0.874398731392,
			"0.016": 0.180551197425,
			"0.017": 0.0,
			"0.018": 0.0,
			"0.019": 0.0,
			"0.02": 0.0,
			"0.021": 0.0,
			"0.022": 0.0,
			"0.023": 0.0,
			"0.024": 0.0,
			"0.025": 0.0
		}
	}
}
