{
	 "smiles": "CCN(CC)S(=O)(=O)C1=CN(C)C(=C1)C(O)=O", 
	 "Tm": 448.15, 
	 "num_atms": 33, 
	 "gaussian": { 
		 "optdone": 1, 
		 "sigma_profile": "yes", 
		 "theory": "DFT", 
		 "functional": "B3LYP", 
		 "basiset": "6-31G**", 
		 "properties": { 
			 "R2extent": 5811.5283, 
			 "electric_dipole_moment_norm": 3.40488796585, 
			 "electric_quadrupole_moment_norm": 26.3530094312, 
			 "total_energy": -1199.22664717, 
			 "HOMO_LUMO_gap": 0.1927, 
			 "cosmo_polarized_energy": -22.77, 
			 "cosmo_cavitation_energy": 37.36, 
			 "cosmo_dispersion_energy": -25.89, 
			 "cosmo_repulsion_energy": 1.98, 
			 "cosmo_total_nonelectrostatic_energy": 13.45, 
			 "SMD_solvation_energy": 6.91 
		},
		"coords": [
			{
				"x": 1.770685503,
				"y": 1.5591187313,
				"z": 1.5519427588,
				"element": "C" 
			},
			{
				"x": 2.2349074551,
				"y": 0.1128520828,
				"z": 1.3482440276,
				"element": "C" 
			},
			{
				"x": 1.4353463498,
				"y": -0.6555480002,
				"z": 0.3850220142,
				"element": "N" 
			},
			{
				"x": 1.628370882,
				"y": -0.4230555617,
				"z": -1.0550251118,
				"element": "C" 
			},
			{
				"x": 2.7338467964,
				"y": -1.294125628,
				"z": -1.6546086423,
				"element": "C" 
			},
			{
				"x": 0.2136653832,
				"y": -1.6632388756,
				"z": 0.8980202654,
				"element": "S" 
			},
			{
				"x": 0.0004305098,
				"y": -2.6363760273,
				"z": -0.1770890363,
				"element": "O" 
			},
			{
				"x": 0.536611747,
				"y": -2.0588147599,
				"z": 2.2724781865,
				"element": "O" 
			},
			{
				"x": -1.2800260594,
				"y": -0.7169392277,
				"z": 0.9985805015,
				"element": "C" 
			},
			{
				"x": -1.7645299624,
				"y": -0.1035407738,
				"z": 2.1458225286,
				"element": "C" 
			},
			{
				"x": -2.9234837937,
				"y": 0.5347244256,
				"z": 1.8389698445,
				"element": "N" 
			},
			{
				"x": -3.7348427509,
				"y": 1.2769292764,
				"z": 2.8050984401,
				"element": "C" 
			},
			{
				"x": -3.2103720382,
				"y": 0.3287384383,
				"z": 0.4945267139,
				"element": "C" 
			},
			{
				"x": -2.1917437739,
				"y": -0.4489208443,
				"z": -0.0445561746,
				"element": "C" 
			},
			{
				"x": -4.399898525,
				"y": 0.9126343626,
				"z": -0.1457206806,
				"element": "C" 
			},
			{
				"x": -4.6930469631,
				"y": 0.4417610993,
				"z": -1.3854810353,
				"element": "O" 
			},
			{
				"x": -5.0952561247,
				"y": 1.7694229019,
				"z": 0.3581576055,
				"element": "O" 
			},
			{
				"x": 2.4413004765,
				"y": 2.0729983727,
				"z": 2.2489319332,
				"element": "H" 
			},
			{
				"x": 0.7582640917,
				"y": 1.5952154821,
				"z": 1.9640719289,
				"element": "H" 
			},
			{
				"x": 1.7722877207,
				"y": 2.1225874631,
				"z": 0.6132352996,
				"element": "H" 
			},
			{
				"x": 2.2255200062,
				"y": -0.4329817828,
				"z": 2.2930802842,
				"element": "H" 
			},
			{
				"x": 3.2706572813,
				"y": 0.0970473346,
				"z": 0.9881960235,
				"element": "H" 
			},
			{
				"x": 1.8539794232,
				"y": 0.6409958469,
				"z": -1.1930037745,
				"element": "H" 
			},
			{
				"x": 0.6867181088,
				"y": -0.6129821276,
				"z": -1.5756122788,
				"element": "H" 
			},
			{
				"x": 2.8736443951,
				"y": -1.0552906678,
				"z": -2.7147093083,
				"element": "H" 
			},
			{
				"x": 2.4674718044,
				"y": -2.3496245925,
				"z": -1.5645263507,
				"element": "H" 
			},
			{
				"x": 3.6889731984,
				"y": -1.1322382725,
				"z": -1.1445703821,
				"element": "H" 
			},
			{
				"x": -1.3672535067,
				"y": -0.1138505044,
				"z": 3.1495648849,
				"element": "H" 
			},
			{
				"x": -3.259871632,
				"y": 1.1832020802,
				"z": 3.7827133865,
				"element": "H" 
			},
			{
				"x": -4.7455793807,
				"y": 0.8688517813,
				"z": 2.8468238841,
				"element": "H" 
			},
			{
				"x": -3.8039911318,
				"y": 2.3260541936,
				"z": 2.5179234903,
				"element": "H" 
			},
			{
				"x": -2.0955585556,
				"y": -0.7927499387,
				"z": -1.0650944611,
				"element": "H" 
			},
			{
				"x": -4.1507269345,
				"y": -0.3322562879,
				"z": -1.5922067653,
				"element": "H" 
			}
		],
		 "valence_orbital": [ 
			{
				"type": "occ",
				"energy": -0.30078,
				"method": "rhf"
			},
			{
				"type": "occ",
				"energy": -0.28477,
				"method": "rhf"
			},
			{
				"type": "occ",
				"energy": -0.28105,
				"method": "rhf"
			},
			{
				"type": "occ",
				"energy": -0.2599,
				"method": "rhf"
			},
			{
				"type": "occ",
				"energy": -0.23855,
				"method": "rhf"
			},
			{
				"type": "unocc",
				"energy": -0.04585,
				"method": "rhf"
			},
			{
				"type": "unocc",
				"energy": 0.00022,
				"method": "rhf"
			},
			{
				"type": "unocc",
				"energy": 0.04975,
				"method": "rhf"
			},
			{
				"type": "unocc",
				"energy": 0.06951,
				"method": "rhf"
			},
			{
				"type": "unocc",
				"energy": 0.07365,
				"method": "rhf"
			}
		],
		"cosmo_sigma_profile": { 
			"-0.025": 0.0,
			"-0.024": 0.0,
			"-0.023": 0.0,
			"-0.022": 0.0,
			"-0.021": 0.0,
			"-0.02": 0.0,
			"-0.019": 0.210176298514,
			"-0.018": 1.05629915581,
			"-0.017": 1.05842157846,
			"-0.016": 0.827220049865,
			"-0.015": 1.52446943862,
			"-0.014": 1.06798013872,
			"-0.013": 0.606217726987,
			"-0.012": 1.37646611325,
			"-0.011": 1.56822744925,
			"-0.01": 3.1491518969,
			"-0.009": 3.07910676811,
			"-0.008": 3.69124976276,
			"-0.007": 4.00382248039,
			"-0.006": 10.5492855234,
			"-0.005": 18.6847240904,
			"-0.004": 26.1386939986,
			"-0.003": 31.151284269,
			"-0.002": 27.114878918,
			"-0.001": 21.790983279,
			"0.0": 24.0110163717,
			"0.001": 20.509558956,
			"0.002": 11.7652942313,
			"0.003": 9.10469359936,
			"0.004": 7.88081042329,
			"0.005": 6.27567341586,
			"0.006": 4.65032932392,
			"0.007": 5.65585552286,
			"0.008": 6.78658703564,
			"0.009": 7.06135955952,
			"0.01": 8.60597936913,
			"0.011": 12.6838047138,
			"0.012": 9.01565578112,
			"0.013": 1.96296216927,
			"0.014": 0.0623837932125,
			"0.015": 0.0,
			"0.016": 0.0,
			"0.017": 0.0,
			"0.018": 0.0,
			"0.019": 0.0,
			"0.02": 0.0,
			"0.021": 0.0,
			"0.022": 0.0,
			"0.023": 0.0,
			"0.024": 0.0,
			"0.025": 0.0
		}
	}
}
