{
	 "smiles": "OC(=O)C(F)(F)C(F)(F)C(F)(F)C(O)=O", 
	 "Tm": 367.65, 
	 "num_atms": 17, 
	 "gaussian": { 
		 "optdone": 1, 
		 "sigma_profile": "yes", 
		 "theory": "DFT", 
		 "functional": "B3LYP", 
		 "basiset": "6-31G**", 
		 "properties": { 
			 "R2extent": 2658.6221, 
			 "electric_dipole_moment_norm": 3.45517630664, 
			 "electric_quadrupole_moment_norm": 15.5124531548, 
			 "total_energy": -1091.64473483, 
			 "HOMO_LUMO_gap": 0.25522, 
			 "cosmo_polarized_energy": -15.07, 
			 "cosmo_cavitation_energy": 25.22, 
			 "cosmo_dispersion_energy": -17.09, 
			 "cosmo_repulsion_energy": 1.25, 
			 "cosmo_total_nonelectrostatic_energy": 9.38, 
			 "SMD_solvation_energy": 8.87 
		},
		"coords": [
			{
				"x": 0.484320704,
				"y": 0.6645313034,
				"z": -3.0647947331,
				"element": "O" 
			},
			{
				"x": 1.0571083196,
				"y": 0.0323706405,
				"z": -2.0308303314,
				"element": "C" 
			},
			{
				"x": 2.1280658642,
				"y": 0.3204951974,
				"z": -1.576801624,
				"element": "O" 
			},
			{
				"x": 0.2072344906,
				"y": -1.1281996977,
				"z": -1.4455613679,
				"element": "C" 
			},
			{
				"x": 1.0053946966,
				"y": -2.0293680369,
				"z": -0.8549243545,
				"element": "F" 
			},
			{
				"x": -0.4600057095,
				"y": -1.7389565003,
				"z": -2.4825196076,
				"element": "F" 
			},
			{
				"x": -0.8970984882,
				"y": -0.6796154672,
				"z": -0.4534203342,
				"element": "C" 
			},
			{
				"x": -1.5574112072,
				"y": -1.7832509261,
				"z": -0.0267301622,
				"element": "F" 
			},
			{
				"x": -1.7629742356,
				"y": 0.1055270003,
				"z": -1.1478656949,
				"element": "F" 
			},
			{
				"x": -0.4199787355,
				"y": 0.1075250554,
				"z": 0.7908092104,
				"element": "C" 
			},
			{
				"x": 0.0265860088,
				"y": 1.3164887845,
				"z": 0.3726472389,
				"element": "F" 
			},
			{
				"x": 0.5947383241,
				"y": -0.5647422127,
				"z": 1.3760768625,
				"element": "F" 
			},
			{
				"x": -1.5841702106,
				"y": 0.3370880148,
				"z": 1.7848237242,
				"element": "C" 
			},
			{
				"x": -1.5376671881,
				"y": -0.5322521945,
				"z": 2.8001169793,
				"element": "O" 
			},
			{
				"x": -2.4139590061,
				"y": 1.1923486824,
				"z": 1.6166018173,
				"element": "O" 
			},
			{
				"x": -0.3537568252,
				"y": 0.2363642288,
				"z": -3.3006675948,
				"element": "H" 
			},
			{
				"x": -2.3020268018,
				"y": -0.3430538722,
				"z": 3.3718399719,
				"element": "H" 
			}
		],
		 "valence_orbital": [ 
			{
				"type": "occ",
				"energy": -0.37149,
				"method": "rhf"
			},
			{
				"type": "occ",
				"energy": -0.3586,
				"method": "rhf"
			},
			{
				"type": "occ",
				"energy": -0.3468,
				"method": "rhf"
			},
			{
				"type": "occ",
				"energy": -0.31462,
				"method": "rhf"
			},
			{
				"type": "occ",
				"energy": -0.30466,
				"method": "rhf"
			},
			{
				"type": "unocc",
				"energy": -0.04944,
				"method": "rhf"
			},
			{
				"type": "unocc",
				"energy": -0.03948,
				"method": "rhf"
			},
			{
				"type": "unocc",
				"energy": 0.03149,
				"method": "rhf"
			},
			{
				"type": "unocc",
				"energy": 0.05142,
				"method": "rhf"
			},
			{
				"type": "unocc",
				"energy": 0.06711,
				"method": "rhf"
			}
		],
		"cosmo_sigma_profile": { 
			"-0.025": 0.0,
			"-0.024": 0.0,
			"-0.023": 0.0,
			"-0.022": 0.0,
			"-0.021": 0.180630399324,
			"-0.02": 1.44689619814,
			"-0.019": 1.91587157258,
			"-0.018": 1.18058977126,
			"-0.017": 1.52602791719,
			"-0.016": 0.950176572839,
			"-0.015": 1.23358906168,
			"-0.014": 2.3601015774,
			"-0.013": 1.82367328624,
			"-0.012": 1.07844673413,
			"-0.011": 1.44374806184,
			"-0.01": 1.7198794654,
			"-0.009": 2.84575129737,
			"-0.008": 3.83256688934,
			"-0.007": 3.09542394355,
			"-0.006": 3.08199864906,
			"-0.005": 5.59079649435,
			"-0.004": 5.58417810546,
			"-0.003": 5.89995444393,
			"-0.002": 7.87516804553,
			"-0.001": 11.0747870425,
			"0.0": 19.0037922738,
			"0.001": 38.5000672353,
			"0.002": 20.769055718,
			"0.003": 9.55269796841,
			"0.004": 6.87610147942,
			"0.005": 6.46557381586,
			"0.006": 8.03778220079,
			"0.007": 7.15007179066,
			"0.008": 6.22342429439,
			"0.009": 9.81458707878,
			"0.01": 3.72158145458,
			"0.011": 0.129884960909,
			"0.012": 0.0,
			"0.013": 0.0,
			"0.014": 0.0,
			"0.015": 0.0,
			"0.016": 0.0,
			"0.017": 0.0,
			"0.018": 0.0,
			"0.019": 0.0,
			"0.02": 0.0,
			"0.021": 0.0,
			"0.022": 0.0,
			"0.023": 0.0,
			"0.024": 0.0,
			"0.025": 0.0
		}
	}
}
