{
	 "smiles": "ClC1=C2C(SC=C2C2=CC=CC=C2)=NC(=N1)C1=CC=CC=C1", 
	 "Tm": 421.15, 
	 "num_atms": 33, 
	 "gaussian": { 
		 "optdone": 1, 
		 "sigma_profile": "yes", 
		 "theory": "DFT", 
		 "functional": "B3LYP", 
		 "basiset": "6-31G**", 
		 "properties": { 
			 "R2extent": 9627.3536, 
			 "electric_dipole_moment_norm": 1.89321054561, 
			 "electric_quadrupole_moment_norm": 12.6270503749, 
			 "total_energy": -1660.4379965, 
			 "HOMO_LUMO_gap": 0.1604, 
			 "cosmo_polarized_energy": -8.74, 
			 "cosmo_cavitation_energy": 41.39, 
			 "cosmo_dispersion_energy": -29.98, 
			 "cosmo_repulsion_energy": 2.23, 
			 "cosmo_total_nonelectrostatic_energy": 13.64, 
			 "SMD_solvation_energy": 4.01 
		},
		"coords": [
			{
				"x": 2.2633488752,
				"y": -0.0094141534,
				"z": 1.1603562917,
				"element": "Cl" 
			},
			{
				"x": 0.8614228802,
				"y": 0.4122552638,
				"z": 0.1903495008,
				"element": "C" 
			},
			{
				"x": 0.5824956142,
				"y": -0.2688140612,
				"z": -1.0119786769,
				"element": "C" 
			},
			{
				"x": -0.5914579705,
				"y": 0.2195149687,
				"z": -1.6464191779,
				"element": "C" 
			},
			{
				"x": -0.9172083482,
				"y": -0.6423745761,
				"z": -3.138481027,
				"element": "S" 
			},
			{
				"x": 0.5054930002,
				"y": -1.6268637649,
				"z": -2.8875699457,
				"element": "C" 
			},
			{
				"x": 1.2080776342,
				"y": -1.3458699731,
				"z": -1.7514924197,
				"element": "C" 
			},
			{
				"x": 2.4471697353,
				"y": -2.0928863687,
				"z": -1.3867467191,
				"element": "C" 
			},
			{
				"x": 3.6993527003,
				"y": -1.6573853425,
				"z": -1.8422602718,
				"element": "C" 
			},
			{
				"x": 4.8540882461,
				"y": -2.3747316853,
				"z": -1.5288184755,
				"element": "C" 
			},
			{
				"x": 4.7702664152,
				"y": -3.537042746,
				"z": -0.760025232,
				"element": "C" 
			},
			{
				"x": 3.5262353604,
				"y": -3.9809365576,
				"z": -0.3079227525,
				"element": "C" 
			},
			{
				"x": 2.3708115597,
				"y": -3.2644453432,
				"z": -0.6207516426,
				"element": "C" 
			},
			{
				"x": -1.3674827551,
				"y": 1.1983385498,
				"z": -1.2002339024,
				"element": "N" 
			},
			{
				"x": -0.9850616243,
				"y": 1.7577438449,
				"z": -0.0454577206,
				"element": "C" 
			},
			{
				"x": 0.1126088236,
				"y": 1.3830060302,
				"z": 0.6556786896,
				"element": "N" 
			},
			{
				"x": -1.8063339347,
				"y": 2.8565882192,
				"z": 0.5099463466,
				"element": "C" 
			},
			{
				"x": -1.4451905333,
				"y": 3.4733923408,
				"z": 1.718775499,
				"element": "C" 
			},
			{
				"x": -2.2213136939,
				"y": 4.5072325833,
				"z": 2.2375963362,
				"element": "C" 
			},
			{
				"x": -3.3640708104,
				"y": 4.9375482595,
				"z": 1.5590556212,
				"element": "C" 
			},
			{
				"x": -3.7284357949,
				"y": 4.3275349791,
				"z": 0.3556381327,
				"element": "C" 
			},
			{
				"x": -2.9565039103,
				"y": 3.2936572913,
				"z": -0.1677373407,
				"element": "C" 
			},
			{
				"x": 0.755913811,
				"y": -2.3861192195,
				"z": -3.6163357835,
				"element": "H" 
			},
			{
				"x": 3.764670066,
				"y": -0.7530237288,
				"z": -2.4400816805,
				"element": "H" 
			},
			{
				"x": 5.8185864856,
				"y": -2.0260939335,
				"z": -1.8867111457,
				"element": "H" 
			},
			{
				"x": 5.6696055889,
				"y": -4.0951758627,
				"z": -0.5161958134,
				"element": "H" 
			},
			{
				"x": 3.4538517621,
				"y": -4.8865073595,
				"z": 0.2875543199,
				"element": "H" 
			},
			{
				"x": 1.4030980772,
				"y": -3.6096595146,
				"z": -0.2687799268,
				"element": "H" 
			},
			{
				"x": -0.5563525417,
				"y": 3.1307635746,
				"z": 2.2360339279,
				"element": "H" 
			},
			{
				"x": -1.9342074492,
				"y": 4.9783563726,
				"z": 3.17325212,
				"element": "H" 
			},
			{
				"x": -3.9678459021,
				"y": 5.7440204095,
				"z": 1.9655582806,
				"element": "H" 
			},
			{
				"x": -4.6161942,
				"y": 4.6589126991,
				"z": -0.1753730163,
				"element": "H" 
			},
			{
				"x": -3.2292371667,
				"y": 2.8129788042,
				"z": -1.1003223955,
				"element": "H" 
			}
		],
		 "valence_orbital": [ 
			{
				"type": "occ",
				"energy": -0.25908,
				"method": "rhf"
			},
			{
				"type": "occ",
				"energy": -0.25631,
				"method": "rhf"
			},
			{
				"type": "occ",
				"energy": -0.25229,
				"method": "rhf"
			},
			{
				"type": "occ",
				"energy": -0.25064,
				"method": "rhf"
			},
			{
				"type": "occ",
				"energy": -0.22689,
				"method": "rhf"
			},
			{
				"type": "unocc",
				"energy": -0.06649,
				"method": "rhf"
			},
			{
				"type": "unocc",
				"energy": -0.04331,
				"method": "rhf"
			},
			{
				"type": "unocc",
				"energy": -0.01728,
				"method": "rhf"
			},
			{
				"type": "unocc",
				"energy": -0.00939,
				"method": "rhf"
			},
			{
				"type": "unocc",
				"energy": -0.00091,
				"method": "rhf"
			}
		],
		"cosmo_sigma_profile": { 
			"-0.025": 0.0,
			"-0.024": 0.0,
			"-0.023": 0.0,
			"-0.022": 0.0,
			"-0.021": 0.0,
			"-0.02": 0.0,
			"-0.019": 0.0,
			"-0.018": 0.0,
			"-0.017": 0.0,
			"-0.016": 0.0,
			"-0.015": 0.0,
			"-0.014": 0.0,
			"-0.013": 0.0,
			"-0.012": 0.0,
			"-0.011": 0.0,
			"-0.01": 0.876290148147,
			"-0.009": 2.38331968889,
			"-0.008": 1.93412614245,
			"-0.007": 1.67521062204,
			"-0.006": 14.6775035177,
			"-0.005": 19.2583315679,
			"-0.004": 27.8730598447,
			"-0.003": 24.8083182209,
			"-0.002": 28.5802273386,
			"-0.001": 26.5525974506,
			"0.0": 30.2354746009,
			"0.001": 31.924353724,
			"0.002": 31.1300454063,
			"0.003": 29.8370414081,
			"0.004": 30.0985274638,
			"0.005": 23.3325691431,
			"0.006": 6.36527227346,
			"0.007": 3.44021812206,
			"0.008": 3.17313897218,
			"0.009": 0.955934116172,
			"0.01": 0.0,
			"0.011": 0.0,
			"0.012": 0.0,
			"0.013": 0.0,
			"0.014": 0.0,
			"0.015": 0.0,
			"0.016": 0.0,
			"0.017": 0.0,
			"0.018": 0.0,
			"0.019": 0.0,
			"0.02": 0.0,
			"0.021": 0.0,
			"0.022": 0.0,
			"0.023": 0.0,
			"0.024": 0.0,
			"0.025": 0.0
		}
	}
}
