{
	 "smiles": "CCCN(C(C)=O)C1=CC=CC=C1", 
	 "Tm": 322.15, 
	 "num_atms": 28, 
	 "gaussian": { 
		 "optdone": 1, 
		 "sigma_profile": "yes", 
		 "theory": "DFT", 
		 "functional": "B3LYP", 
		 "basiset": "6-31G**", 
		 "properties": { 
			 "R2extent": 3088.4958, 
			 "electric_dipole_moment_norm": 3.56693867763, 
			 "electric_quadrupole_moment_norm": 14.3967847466, 
			 "total_energy": -558.203429042, 
			 "HOMO_LUMO_gap": 0.2162, 
			 "cosmo_polarized_energy": -11.61, 
			 "cosmo_cavitation_energy": 30.39, 
			 "cosmo_dispersion_energy": -20.94, 
			 "cosmo_repulsion_energy": 1.67, 
			 "cosmo_total_nonelectrostatic_energy": 11.12, 
			 "SMD_solvation_energy": 5.89 
		},
		"coords": [
			{
				"x": -0.6236158528,
				"y": -0.8867135724,
				"z": -2.3488466039,
				"element": "C" 
			},
			{
				"x": -0.0983237648,
				"y": 0.5348933567,
				"z": -2.1333179328,
				"element": "C" 
			},
			{
				"x": -1.1227453886,
				"y": 1.4964350866,
				"z": -1.5091754644,
				"element": "C" 
			},
			{
				"x": -1.5255576468,
				"y": 1.1254843532,
				"z": -0.1439360811,
				"element": "N" 
			},
			{
				"x": -2.7986298874,
				"y": 0.6965917231,
				"z": 0.2102982032,
				"element": "C" 
			},
			{
				"x": -3.8622054632,
				"y": 0.6474873513,
				"z": -0.8815123369,
				"element": "C" 
			},
			{
				"x": -3.0750975293,
				"y": 0.3769113781,
				"z": 1.358393722,
				"element": "O" 
			},
			{
				"x": -0.5154657783,
				"y": 1.2110093517,
				"z": 0.8753075267,
				"element": "C" 
			},
			{
				"x": 0.1606843425,
				"y": 2.4180835261,
				"z": 1.0853982221,
				"element": "C" 
			},
			{
				"x": 1.1690222403,
				"y": 2.5026638572,
				"z": 2.0466273647,
				"element": "C" 
			},
			{
				"x": 1.5013305844,
				"y": 1.3871259198,
				"z": 2.8154701452,
				"element": "C" 
			},
			{
				"x": 0.8183252895,
				"y": 0.1852907522,
				"z": 2.6154578852,
				"element": "C" 
			},
			{
				"x": -0.1810099925,
				"y": 0.0924351534,
				"z": 1.6483697424,
				"element": "C" 
			},
			{
				"x": 0.1512695498,
				"y": -1.529944031,
				"z": -2.7771709182,
				"element": "H" 
			},
			{
				"x": -1.4783518597,
				"y": -0.8981863475,
				"z": -3.0354169071,
				"element": "H" 
			},
			{
				"x": -0.9444763603,
				"y": -1.3391585158,
				"z": -1.4052278466,
				"element": "H" 
			},
			{
				"x": 0.7951368978,
				"y": 0.5093552307,
				"z": -1.4988204351,
				"element": "H" 
			},
			{
				"x": 0.2163682084,
				"y": 0.9661996418,
				"z": -3.0923357833,
				"element": "H" 
			},
			{
				"x": -0.7031273488,
				"y": 2.5089045383,
				"z": -1.4948913253,
				"element": "H" 
			},
			{
				"x": -2.0148181247,
				"y": 1.5435182013,
				"z": -2.1342007551,
				"element": "H" 
			},
			{
				"x": -4.0575290703,
				"y": 1.6370661239,
				"z": -1.3079407056,
				"element": "H" 
			},
			{
				"x": -3.5871893505,
				"y": -0.023471766,
				"z": -1.7007904161,
				"element": "H" 
			},
			{
				"x": -4.7749735283,
				"y": 0.2806128965,
				"z": -0.4130792139,
				"element": "H" 
			},
			{
				"x": -0.109625001,
				"y": 3.2966035388,
				"z": 0.5074591046,
				"element": "H" 
			},
			{
				"x": 1.6859768377,
				"y": 3.4457448426,
				"z": 2.1993931135,
				"element": "H" 
			},
			{
				"x": 2.2825880245,
				"y": 1.4538854741,
				"z": 3.5668876141,
				"element": "H" 
			},
			{
				"x": 1.066032955,
				"y": -0.6874999839,
				"z": 3.212765144,
				"element": "H" 
			},
			{
				"x": -0.7184929827,
				"y": -0.8365280807,
				"z": 1.5001349378,
				"element": "H" 
			}
		],
		 "valence_orbital": [ 
			{
				"type": "occ",
				"energy": -0.33939,
				"method": "rhf"
			},
			{
				"type": "occ",
				"energy": -0.26739,
				"method": "rhf"
			},
			{
				"type": "occ",
				"energy": -0.25197,
				"method": "rhf"
			},
			{
				"type": "occ",
				"energy": -0.23792,
				"method": "rhf"
			},
			{
				"type": "occ",
				"energy": -0.22129,
				"method": "rhf"
			},
			{
				"type": "unocc",
				"energy": -0.00509,
				"method": "rhf"
			},
			{
				"type": "unocc",
				"energy": 0.00063,
				"method": "rhf"
			},
			{
				"type": "unocc",
				"energy": 0.03466,
				"method": "rhf"
			},
			{
				"type": "unocc",
				"energy": 0.07613,
				"method": "rhf"
			},
			{
				"type": "unocc",
				"energy": 0.09534,
				"method": "rhf"
			}
		],
		"cosmo_sigma_profile": { 
			"-0.025": 0.0,
			"-0.024": 0.0,
			"-0.023": 0.0,
			"-0.022": 0.0,
			"-0.021": 0.0,
			"-0.02": 0.0,
			"-0.019": 0.0,
			"-0.018": 0.0,
			"-0.017": 0.0,
			"-0.016": 0.0,
			"-0.015": 0.0,
			"-0.014": 0.0,
			"-0.013": 0.0,
			"-0.012": 0.0,
			"-0.011": 0.0,
			"-0.01": 0.0,
			"-0.009": 0.0,
			"-0.008": 0.0,
			"-0.007": 1.21814206126,
			"-0.006": 9.87728466804,
			"-0.005": 17.6728574704,
			"-0.004": 22.1914565834,
			"-0.003": 30.7043855838,
			"-0.002": 27.9702135718,
			"-0.001": 25.8144929743,
			"0.0": 23.4709627802,
			"0.001": 17.7788525763,
			"0.002": 10.0348944527,
			"0.003": 8.08031443972,
			"0.004": 8.62779348739,
			"0.005": 9.34124291059,
			"0.006": 6.0188712374,
			"0.007": 1.78712002265,
			"0.008": 1.60018543354,
			"0.009": 2.19171365627,
			"0.01": 1.48885398957,
			"0.011": 1.29787456591,
			"0.012": 2.08509968048,
			"0.013": 3.29789363707,
			"0.014": 5.15919507683,
			"0.015": 1.5595893844,
			"0.016": 0.00713953306052,
			"0.017": 0.0,
			"0.018": 0.0,
			"0.019": 0.0,
			"0.02": 0.0,
			"0.021": 0.0,
			"0.022": 0.0,
			"0.023": 0.0,
			"0.024": 0.0,
			"0.025": 0.0
		}
	}
}
