{
	 "smiles": "NNC1=CC=CC=C1C(F)(F)F", 
	 "Tm": 333.15, 
	 "num_atms": 19, 
	 "gaussian": { 
		 "optdone": 1, 
		 "sigma_profile": "yes", 
		 "theory": "DFT", 
		 "functional": "B3LYP", 
		 "basiset": "6-31G**", 
		 "properties": { 
			 "R2extent": 2193.9136, 
			 "electric_dipole_moment_norm": 2.13999450934, 
			 "electric_quadrupole_moment_norm": 2.31055471911, 
			 "total_energy": -679.95608468, 
			 "HOMO_LUMO_gap": 0.19088, 
			 "cosmo_polarized_energy": -7.47, 
			 "cosmo_cavitation_energy": 23.22, 
			 "cosmo_dispersion_energy": -17.25, 
			 "cosmo_repulsion_energy": 1.3, 
			 "cosmo_total_nonelectrostatic_energy": 7.27, 
			 "SMD_solvation_energy": 5.16 
		},
		"coords": [
			{
				"x": -2.1696459195,
				"y": -1.1075530076,
				"z": -1.0072970678,
				"element": "N" 
			},
			{
				"x": -0.7817362585,
				"y": -0.8393152527,
				"z": -1.0287163203,
				"element": "N" 
			},
			{
				"x": -0.047896422,
				"y": -0.3463608612,
				"z": 0.0483532951,
				"element": "C" 
			},
			{
				"x": 1.278127343,
				"y": -0.8162225229,
				"z": 0.1771673418,
				"element": "C" 
			},
			{
				"x": 2.1258688467,
				"y": -0.3631267287,
				"z": 1.1755455811,
				"element": "C" 
			},
			{
				"x": 1.6768364415,
				"y": 0.5766111174,
				"z": 2.1073823168,
				"element": "C" 
			},
			{
				"x": 0.3798185496,
				"y": 1.0591941468,
				"z": 1.9956502564,
				"element": "C" 
			},
			{
				"x": -0.4895777932,
				"y": 0.6297044392,
				"z": 0.9807470628,
				"element": "C" 
			},
			{
				"x": -1.8521910848,
				"y": 1.2641496433,
				"z": 0.9334930217,
				"element": "C" 
			},
			{
				"x": -2.8465481221,
				"y": 0.426679869,
				"z": 1.3465279372,
				"element": "F" 
			},
			{
				"x": -2.1939335327,
				"y": 1.6733866419,
				"z": -0.3172791953,
				"element": "F" 
			},
			{
				"x": -1.9337226369,
				"y": 2.3535770233,
				"z": 1.725126091,
				"element": "F" 
			},
			{
				"x": -2.463456446,
				"y": -1.3923758865,
				"z": -0.0745938521,
				"element": "H" 
			},
			{
				"x": -2.6658704746,
				"y": -0.2511505028,
				"z": -1.2311657825,
				"element": "H" 
			},
			{
				"x": -0.2950835037,
				"y": -1.571633321,
				"z": -1.5278277584,
				"element": "H" 
			},
			{
				"x": 1.6305399594,
				"y": -1.5625154411,
				"z": -0.5308714527,
				"element": "H" 
			},
			{
				"x": 3.1364703977,
				"y": -0.7570041125,
				"z": 1.2357506748,
				"element": "H" 
			},
			{
				"x": 2.3261716843,
				"y": 0.9298827536,
				"z": 2.9011610493,
				"element": "H" 
			},
			{
				"x": 0.0206289717,
				"y": 1.8020720024,
				"z": 2.6976468009,
				"element": "H" 
			}
		],
		 "valence_orbital": [ 
			{
				"type": "occ",
				"energy": -0.35652,
				"method": "rhf"
			},
			{
				"type": "occ",
				"energy": -0.30962,
				"method": "rhf"
			},
			{
				"type": "occ",
				"energy": -0.26897,
				"method": "rhf"
			},
			{
				"type": "occ",
				"energy": -0.26532,
				"method": "rhf"
			},
			{
				"type": "occ",
				"energy": -0.21351,
				"method": "rhf"
			},
			{
				"type": "unocc",
				"energy": -0.02263,
				"method": "rhf"
			},
			{
				"type": "unocc",
				"energy": -0.00381,
				"method": "rhf"
			},
			{
				"type": "unocc",
				"energy": 0.0842,
				"method": "rhf"
			},
			{
				"type": "unocc",
				"energy": 0.10057,
				"method": "rhf"
			},
			{
				"type": "unocc",
				"energy": 0.10481,
				"method": "rhf"
			}
		],
		"cosmo_sigma_profile": { 
			"-0.025": 0.0,
			"-0.024": 0.0,
			"-0.023": 0.0,
			"-0.022": 0.0,
			"-0.021": 0.0,
			"-0.02": 0.0,
			"-0.019": 0.0,
			"-0.018": 0.0,
			"-0.017": 0.0,
			"-0.016": 0.0,
			"-0.015": 0.0,
			"-0.014": 0.00364267257385,
			"-0.013": 0.914133203933,
			"-0.012": 1.27290764354,
			"-0.011": 1.2319576183,
			"-0.01": 1.85041261867,
			"-0.009": 2.47805272143,
			"-0.008": 3.70327691659,
			"-0.007": 4.35614945265,
			"-0.006": 9.37504647826,
			"-0.005": 10.9305374988,
			"-0.004": 11.5088130341,
			"-0.003": 10.1443410935,
			"-0.002": 8.70436690555,
			"-0.001": 8.75312870587,
			"0.0": 12.2006826445,
			"0.001": 14.5262579714,
			"0.002": 21.4320000647,
			"0.003": 28.6422618095,
			"0.004": 12.5451647707,
			"0.005": 9.27865367259,
			"0.006": 2.10698653233,
			"0.007": 1.56301393363,
			"0.008": 1.71647943022,
			"0.009": 1.31335795583,
			"0.01": 0.776253336121,
			"0.011": 0.904999654572,
			"0.012": 0.735698515314,
			"0.013": 0.533104423358,
			"0.014": 0.264111801668,
			"0.015": 0.691527668019,
			"0.016": 0.750685313254,
			"0.017": 0.141117790622,
			"0.018": 0.0,
			"0.019": 0.0,
			"0.02": 0.0,
			"0.021": 0.0,
			"0.022": 0.0,
			"0.023": 0.0,
			"0.024": 0.0,
			"0.025": 0.0
		}
	}
}
