{
	 "smiles": "CC1=NN(C(N)=C1)C1=CC(C)=CC(C)=C1", 
	 "Tm": 369.15, 
	 "num_atms": 30, 
	 "gaussian": { 
		 "optdone": 1, 
		 "sigma_profile": "yes", 
		 "theory": "DFT", 
		 "functional": "B3LYP", 
		 "basiset": "6-31G**", 
		 "properties": { 
			 "R2extent": 3984.4266, 
			 "electric_dipole_moment_norm": 2.98183373614, 
			 "electric_quadrupole_moment_norm": 7.99627289804, 
			 "total_energy": -630.573752375, 
			 "HOMO_LUMO_gap": 0.19256, 
			 "cosmo_polarized_energy": -12.09, 
			 "cosmo_cavitation_energy": 33.02, 
			 "cosmo_dispersion_energy": -23.89, 
			 "cosmo_repulsion_energy": 1.9, 
			 "cosmo_total_nonelectrostatic_energy": 11.03, 
			 "SMD_solvation_energy": 5.16 
		},
		"coords": [
			{
				"x": -0.7041295964,
				"y": 1.9923082849,
				"z": 4.4444266292,
				"element": "C" 
			},
			{
				"x": -0.8519307792,
				"y": 0.952359177,
				"z": 3.3761879011,
				"element": "C" 
			},
			{
				"x": -0.4754266178,
				"y": 1.2167047236,
				"z": 2.1324281159,
				"element": "N" 
			},
			{
				"x": -0.7232319721,
				"y": 0.0587489791,
				"z": 1.4281123949,
				"element": "N" 
			},
			{
				"x": -1.2794194053,
				"y": -0.9055943049,
				"z": 2.2333065518,
				"element": "C" 
			},
			{
				"x": -1.6217225439,
				"y": -2.1773534049,
				"z": 1.7729889421,
				"element": "N" 
			},
			{
				"x": -1.3663949008,
				"y": -0.3642729851,
				"z": 3.5023716468,
				"element": "C" 
			},
			{
				"x": -0.4707781047,
				"y": 0.0264176552,
				"z": 0.0328338295,
				"element": "C" 
			},
			{
				"x": -0.0393210132,
				"y": -1.1490196045,
				"z": -0.5935268064,
				"element": "C" 
			},
			{
				"x": 0.2070448188,
				"y": -1.1602437578,
				"z": -1.9725176673,
				"element": "C" 
			},
			{
				"x": 0.6482469906,
				"y": -2.4340649812,
				"z": -2.656437254,
				"element": "C" 
			},
			{
				"x": 0.0383632587,
				"y": 0.0217557207,
				"z": -2.6994088539,
				"element": "C" 
			},
			{
				"x": -0.372585707,
				"y": 1.2104059507,
				"z": -2.0799010973,
				"element": "C" 
			},
			{
				"x": -0.5642817262,
				"y": 2.4729965946,
				"z": -2.8882906578,
				"element": "C" 
			},
			{
				"x": -0.6299062601,
				"y": 1.2035349312,
				"z": -0.7079211298,
				"element": "C" 
			},
			{
				"x": -1.6680369175,
				"y": 2.2261190375,
				"z": 4.9108128337,
				"element": "H" 
			},
			{
				"x": -0.0311104121,
				"y": 1.6542068124,
				"z": 5.2406325851,
				"element": "H" 
			},
			{
				"x": -0.295738202,
				"y": 2.9093514966,
				"z": 4.014068487,
				"element": "H" 
			},
			{
				"x": -2.2710458168,
				"y": -2.6380401201,
				"z": 2.3981199435,
				"element": "H" 
			},
			{
				"x": -1.9755699495,
				"y": -2.1847203616,
				"z": 0.8225777148,
				"element": "H" 
			},
			{
				"x": -1.753717083,
				"y": -0.8486040745,
				"z": 4.3871164681,
				"element": "H" 
			},
			{
				"x": 0.1412416014,
				"y": -2.0414862551,
				"z": -0.003923105,
				"element": "H" 
			},
			{
				"x": 1.2420242383,
				"y": -2.2220618448,
				"z": -3.5503935634,
				"element": "H" 
			},
			{
				"x": -0.2140590245,
				"y": -3.0343759807,
				"z": -2.9736229394,
				"element": "H" 
			},
			{
				"x": 1.2502343037,
				"y": -3.0590497965,
				"z": -1.9897894524,
				"element": "H" 
			},
			{
				"x": 0.2429110834,
				"y": 0.0224188576,
				"z": -3.767953472,
				"element": "H" 
			},
			{
				"x": -0.4292171774,
				"y": 3.3660252078,
				"z": -2.2715659449,
				"element": "H" 
			},
			{
				"x": 0.1425030131,
				"y": 2.5244213782,
				"z": -3.7221848955,
				"element": "H" 
			},
			{
				"x": -1.5740245053,
				"y": 2.52005634,
				"z": -3.3153284646,
				"element": "H" 
			},
			{
				"x": -0.9355215931,
				"y": 2.1051563247,
				"z": -0.1899187398,
				"element": "H" 
			}
		],
		 "valence_orbital": [ 
			{
				"type": "occ",
				"energy": -0.27073,
				"method": "rhf"
			},
			{
				"type": "occ",
				"energy": -0.26476,
				"method": "rhf"
			},
			{
				"type": "occ",
				"energy": -0.23558,
				"method": "rhf"
			},
			{
				"type": "occ",
				"energy": -0.21088,
				"method": "rhf"
			},
			{
				"type": "occ",
				"energy": -0.19936,
				"method": "rhf"
			},
			{
				"type": "unocc",
				"energy": -0.0068,
				"method": "rhf"
			},
			{
				"type": "unocc",
				"energy": 0.00054,
				"method": "rhf"
			},
			{
				"type": "unocc",
				"energy": 0.05504,
				"method": "rhf"
			},
			{
				"type": "unocc",
				"energy": 0.07708,
				"method": "rhf"
			},
			{
				"type": "unocc",
				"energy": 0.09272,
				"method": "rhf"
			}
		],
		"cosmo_sigma_profile": { 
			"-0.025": 0.0,
			"-0.024": 0.0,
			"-0.023": 0.0,
			"-0.022": 0.0,
			"-0.021": 0.0,
			"-0.02": 0.0,
			"-0.019": 0.0,
			"-0.018": 0.0,
			"-0.017": 0.0,
			"-0.016": 0.0,
			"-0.015": 0.0,
			"-0.014": 0.0916920718285,
			"-0.013": 1.18343934821,
			"-0.012": 2.30264526072,
			"-0.011": 2.76096284008,
			"-0.01": 2.43978347638,
			"-0.009": 2.11427195662,
			"-0.008": 2.71415007266,
			"-0.007": 2.69195963175,
			"-0.006": 3.71569283273,
			"-0.005": 6.64336795037,
			"-0.004": 25.126625676,
			"-0.003": 24.1335634719,
			"-0.002": 25.8660574903,
			"-0.001": 28.0547942704,
			"0.0": 30.7551075455,
			"0.001": 17.2826139533,
			"0.002": 12.6354456052,
			"0.003": 11.7679625789,
			"0.004": 12.1318996553,
			"0.005": 16.5102188187,
			"0.006": 10.6842560357,
			"0.007": 4.5696820908,
			"0.008": 2.37583576101,
			"0.009": 3.26161489342,
			"0.01": 1.74630833161,
			"0.011": 1.83490852552,
			"0.012": 2.0752973473,
			"0.013": 1.37693412743,
			"0.014": 0.88080723708,
			"0.015": 0.697044693814,
			"0.016": 0.469854829506,
			"0.017": 0.0,
			"0.018": 0.0,
			"0.019": 0.0,
			"0.02": 0.0,
			"0.021": 0.0,
			"0.022": 0.0,
			"0.023": 0.0,
			"0.024": 0.0,
			"0.025": 0.0
		}
	}
}
