{
	 "smiles": "ClC(=O)C1=CC=CC=C1Br", 
	 "Tm": 283.65, 
	 "num_atms": 14, 
	 "gaussian": { 
		 "optdone": 1, 
		 "sigma_profile": "yes", 
		 "theory": "DFT", 
		 "functional": "B3LYP", 
		 "basiset": "6-31G**", 
		 "properties": { 
			 "R2extent": 2856.8053, 
			 "electric_dipole_moment_norm": 4.10703347198, 
			 "electric_quadrupole_moment_norm": 6.36604348791, 
			 "total_energy": -3375.96946346, 
			 "HOMO_LUMO_gap": 0.19061, 
			 "cosmo_polarized_energy": -6.4, 
			 "cosmo_cavitation_energy": 22.87, 
			 "cosmo_dispersion_energy": -17.16, 
			 "cosmo_repulsion_energy": 1.4, 
			 "cosmo_total_nonelectrostatic_energy": 7.11, 
			 "SMD_solvation_energy": 3.46 
		},
		"coords": [
			{
				"x": 2.9002772644,
				"y": -0.4971216123,
				"z": 2.022631688,
				"element": "Cl" 
			},
			{
				"x": 2.0843825837,
				"y": -0.0662015697,
				"z": 0.4612788924,
				"element": "C" 
			},
			{
				"x": 2.6975336929,
				"y": 0.4968075518,
				"z": -0.3929177869,
				"element": "O" 
			},
			{
				"x": 0.697580829,
				"y": -0.5986837271,
				"z": 0.3106006376,
				"element": "C" 
			},
			{
				"x": 0.4811094956,
				"y": -1.3669128157,
				"z": -0.8462676406,
				"element": "C" 
			},
			{
				"x": -0.7583001786,
				"y": -1.9449245091,
				"z": -1.1003515925,
				"element": "C" 
			},
			{
				"x": -1.8117125719,
				"y": -1.7349724926,
				"z": -0.2097342298,
				"element": "C" 
			},
			{
				"x": -1.6263530163,
				"y": -0.9408485938,
				"z": 0.9211378544,
				"element": "C" 
			},
			{
				"x": -0.3780785655,
				"y": -0.3759027721,
				"z": 1.1833967817,
				"element": "C" 
			},
			{
				"x": -0.238304688,
				"y": 0.7746686597,
				"z": 2.6965495617,
				"element": "Br" 
			},
			{
				"x": 1.308129884,
				"y": -1.5103282075,
				"z": -1.5336604091,
				"element": "H" 
			},
			{
				"x": -0.9010424941,
				"y": -2.549256403,
				"z": -1.9902521736,
				"element": "H" 
			},
			{
				"x": -2.7857366478,
				"y": -2.1765944253,
				"z": -0.396926132,
				"element": "H" 
			},
			{
				"x": -2.4485855875,
				"y": -0.7464290835,
				"z": 1.5999145487,
				"element": "H" 
			}
		],
		 "valence_orbital": [ 
			{
				"type": "occ",
				"energy": -0.32141,
				"method": "rhf"
			},
			{
				"type": "occ",
				"energy": -0.30365,
				"method": "rhf"
			},
			{
				"type": "occ",
				"energy": -0.2931,
				"method": "rhf"
			},
			{
				"type": "occ",
				"energy": -0.28028,
				"method": "rhf"
			},
			{
				"type": "occ",
				"energy": -0.26174,
				"method": "rhf"
			},
			{
				"type": "unocc",
				"energy": -0.07113,
				"method": "rhf"
			},
			{
				"type": "unocc",
				"energy": -0.03461,
				"method": "rhf"
			},
			{
				"type": "unocc",
				"energy": -0.02369,
				"method": "rhf"
			},
			{
				"type": "unocc",
				"energy": -0.00181,
				"method": "rhf"
			},
			{
				"type": "unocc",
				"energy": 0.02975,
				"method": "rhf"
			}
		],
		"cosmo_sigma_profile": { 
			"-0.025": 0.0,
			"-0.024": 0.0,
			"-0.023": 0.0,
			"-0.022": 0.0,
			"-0.021": 0.0,
			"-0.02": 0.0,
			"-0.019": 0.0,
			"-0.018": 0.0,
			"-0.017": 0.0,
			"-0.016": 0.0,
			"-0.015": 0.0,
			"-0.014": 0.0,
			"-0.013": 0.0,
			"-0.012": 0.0,
			"-0.011": 0.0,
			"-0.01": 0.0,
			"-0.009": 0.0610223466203,
			"-0.008": 4.48073413652,
			"-0.007": 9.99792733669,
			"-0.006": 9.64781539211,
			"-0.005": 9.14252885954,
			"-0.004": 7.82375096515,
			"-0.003": 10.5355989142,
			"-0.002": 10.7502198349,
			"-0.001": 12.0019893785,
			"0.0": 18.1094039404,
			"0.001": 22.58826572,
			"0.002": 22.3249969117,
			"0.003": 17.6150720102,
			"0.004": 17.3216946169,
			"0.005": 5.51561378389,
			"0.006": 2.4035951313,
			"0.007": 3.5300088982,
			"0.008": 4.69831999529,
			"0.009": 1.26990619887,
			"0.01": 0.0,
			"0.011": 0.0,
			"0.012": 0.0,
			"0.013": 0.0,
			"0.014": 0.0,
			"0.015": 0.0,
			"0.016": 0.0,
			"0.017": 0.0,
			"0.018": 0.0,
			"0.019": 0.0,
			"0.02": 0.0,
			"0.021": 0.0,
			"0.022": 0.0,
			"0.023": 0.0,
			"0.024": 0.0,
			"0.025": 0.0
		}
	}
}
