{
	 "smiles": "O=C1C2C3C4C2C2(OCCO2)C2C4CC3C12", 
	 "Tm": 347.15, 
	 "num_atms": 30, 
	 "gaussian": { 
		 "optdone": 1, 
		 "sigma_profile": "yes", 
		 "theory": "DFT", 
		 "functional": "B3LYP", 
		 "basiset": "6-31G**", 
		 "properties": { 
			 "R2extent": 2770.1639, 
			 "electric_dipole_moment_norm": 3.28630485956, 
			 "electric_quadrupole_moment_norm": 15.5748401408, 
			 "total_energy": -729.431585937, 
			 "HOMO_LUMO_gap": 0.21565, 
			 "cosmo_polarized_energy": -11.76, 
			 "cosmo_cavitation_energy": 28.84, 
			 "cosmo_dispersion_energy": -22.29, 
			 "cosmo_repulsion_energy": 1.74, 
			 "cosmo_total_nonelectrostatic_energy": 8.3, 
			 "SMD_solvation_energy": 4.0 
		},
		"coords": [
			{
				"x": -0.9801008875,
				"y": -2.2504677333,
				"z": 0.0401858704,
				"element": "O" 
			},
			{
				"x": -0.7952182745,
				"y": -1.0899772756,
				"z": 0.3285930085,
				"element": "C" 
			},
			{
				"x": -1.4942346775,
				"y": 0.1398398028,
				"z": -0.2393067276,
				"element": "C" 
			},
			{
				"x": -1.7720408276,
				"y": 0.9941551784,
				"z": 1.0453719261,
				"element": "C" 
			},
			{
				"x": -0.7480696803,
				"y": 2.0740922321,
				"z": 0.5663128426,
				"element": "C" 
			},
			{
				"x": -0.4589915207,
				"y": 1.228493455,
				"z": -0.7116336466,
				"element": "C" 
			},
			{
				"x": 0.989872506,
				"y": 0.7586136483,
				"z": -0.5261860621,
				"element": "C" 
			},
			{
				"x": 1.9274720051,
				"y": 1.7662612513,
				"z": -0.9057169118,
				"element": "O" 
			},
			{
				"x": 2.5502849154,
				"y": 1.3382834308,
				"z": -2.1142355007,
				"element": "C" 
			},
			{
				"x": 2.5238629527,
				"y": -0.1797900661,
				"z": -1.9677222523,
				"element": "C" 
			},
			{
				"x": 1.2813919544,
				"y": -0.3931882893,
				"z": -1.3031784879,
				"element": "O" 
			},
			{
				"x": 1.0639113334,
				"y": 0.5628537491,
				"z": 0.9994390226,
				"element": "C" 
			},
			{
				"x": 0.4512499533,
				"y": 1.8818528034,
				"z": 1.5478139878,
				"element": "C" 
			},
			{
				"x": -0.2291376564,
				"y": 1.4699981496,
				"z": 2.8606140268,
				"element": "C" 
			},
			{
				"x": -1.0294338933,
				"y": 0.3137014667,
				"z": 2.2445878132,
				"element": "C" 
			},
			{
				"x": 0.0352790526,
				"y": -0.5408576595,
				"z": 1.4909707198,
				"element": "C" 
			},
			{
				"x": -2.3122831679,
				"y": -0.0919742026,
				"z": -0.9205512461,
				"element": "H" 
			},
			{
				"x": -2.7997693404,
				"y": 1.298684712,
				"z": 1.2508361233,
				"element": "H" 
			},
			{
				"x": -1.0929442017,
				"y": 3.1025630182,
				"z": 0.4474827606,
				"element": "H" 
			},
			{
				"x": -0.6478995654,
				"y": 1.6695841614,
				"z": -1.6916261916,
				"element": "H" 
			},
			{
				"x": 3.5537611105,
				"y": 1.7694768482,
				"z": -2.1579961134,
				"element": "H" 
			},
			{
				"x": 1.9772004123,
				"y": 1.6639053341,
				"z": -2.9947036606,
				"element": "H" 
			},
			{
				"x": 3.3655663139,
				"y": -0.5382007359,
				"z": -1.3579368702,
				"element": "H" 
			},
			{
				"x": 2.5080298127,
				"y": -0.7236267121,
				"z": -2.9156677416,
				"element": "H" 
			},
			{
				"x": 2.08152634,
				"y": 0.3572618834,
				"z": 1.3380553554,
				"element": "H" 
			},
			{
				"x": 1.1543108674,
				"y": 2.7154787339,
				"z": 1.5856581571,
				"element": "H" 
			},
			{
				"x": -0.8697304322,
				"y": 2.25665106,
				"z": 3.2767190439,
				"element": "H" 
			},
			{
				"x": 0.475417289,
				"y": 1.1470502888,
				"z": 3.6348468376,
				"element": "H" 
			},
			{
				"x": -1.6710546399,
				"y": -0.2641391632,
				"z": 2.9141124272,
				"element": "H" 
			},
			{
				"x": 0.5019719467,
				"y": -1.3305793697,
				"z": 2.0803614896,
				"element": "H" 
			}
		],
		 "valence_orbital": [ 
			{
				"type": "occ",
				"energy": -0.30403,
				"method": "rhf"
			},
			{
				"type": "occ",
				"energy": -0.29941,
				"method": "rhf"
			},
			{
				"type": "occ",
				"energy": -0.27243,
				"method": "rhf"
			},
			{
				"type": "occ",
				"energy": -0.24919,
				"method": "rhf"
			},
			{
				"type": "occ",
				"energy": -0.21898,
				"method": "rhf"
			},
			{
				"type": "unocc",
				"energy": -0.00333,
				"method": "rhf"
			},
			{
				"type": "unocc",
				"energy": 0.07118,
				"method": "rhf"
			},
			{
				"type": "unocc",
				"energy": 0.08719,
				"method": "rhf"
			},
			{
				"type": "unocc",
				"energy": 0.0986,
				"method": "rhf"
			},
			{
				"type": "unocc",
				"energy": 0.1107,
				"method": "rhf"
			}
		],
		"cosmo_sigma_profile": { 
			"-0.025": 0.0,
			"-0.024": 0.0,
			"-0.023": 0.0,
			"-0.022": 0.0,
			"-0.021": 0.0,
			"-0.02": 0.0,
			"-0.019": 0.0,
			"-0.018": 0.0,
			"-0.017": 0.0,
			"-0.016": 0.0,
			"-0.015": 0.0,
			"-0.014": 0.0,
			"-0.013": 0.0,
			"-0.012": 0.0,
			"-0.011": 0.0,
			"-0.01": 0.0,
			"-0.009": 0.0,
			"-0.008": 0.0,
			"-0.007": 0.430939099348,
			"-0.006": 5.45225977634,
			"-0.005": 15.9622957687,
			"-0.004": 29.6979730905,
			"-0.003": 35.4271125934,
			"-0.002": 31.9809717308,
			"-0.001": 27.5042317169,
			"0.0": 15.9299061115,
			"0.001": 8.30172748075,
			"0.002": 4.28092486924,
			"0.003": 4.49990522192,
			"0.004": 4.07193277776,
			"0.005": 3.58723510921,
			"0.006": 3.79598609651,
			"0.007": 3.89255823497,
			"0.008": 3.65096867435,
			"0.009": 4.56847187296,
			"0.01": 5.60744563819,
			"0.011": 7.82543322304,
			"0.012": 5.47968884474,
			"0.013": 2.8086043023,
			"0.014": 0.38604052446,
			"0.015": 0.0,
			"0.016": 0.0,
			"0.017": 0.0,
			"0.018": 0.0,
			"0.019": 0.0,
			"0.02": 0.0,
			"0.021": 0.0,
			"0.022": 0.0,
			"0.023": 0.0,
			"0.024": 0.0,
			"0.025": 0.0
		}
	}
}
