{
	 "smiles": "CC1=C(C=CC=C1)C(=O)NC1CCNCC1", 
	 "Tm": 403.15, 
	 "num_atms": 34, 
	 "gaussian": { 
		 "optdone": 1, 
		 "sigma_profile": "yes", 
		 "theory": "DFT", 
		 "functional": "B3LYP", 
		 "basiset": "6-31G**", 
		 "properties": { 
			 "R2extent": 4440.4297, 
			 "electric_dipole_moment_norm": 4.14561888866, 
			 "electric_quadrupole_moment_norm": 15.608735691, 
			 "total_energy": -690.970110507, 
			 "HOMO_LUMO_gap": 0.20071, 
			 "cosmo_polarized_energy": -13.28, 
			 "cosmo_cavitation_energy": 35.31, 
			 "cosmo_dispersion_energy": -24.58, 
			 "cosmo_repulsion_energy": 1.94, 
			 "cosmo_total_nonelectrostatic_energy": 12.66, 
			 "SMD_solvation_energy": 3.66 
		},
		"coords": [
			{
				"x": -2.9847517433,
				"y": 0.1403917686,
				"z": -2.1300364937,
				"element": "C" 
			},
			{
				"x": -2.0560732862,
				"y": 1.3151963077,
				"z": -1.9275374857,
				"element": "C" 
			},
			{
				"x": -0.6518248101,
				"y": 1.1659254951,
				"z": -1.9107105396,
				"element": "C" 
			},
			{
				"x": 0.1710315104,
				"y": 2.2891213047,
				"z": -1.7494084393,
				"element": "C" 
			},
			{
				"x": -0.3742452711,
				"y": 3.5628726751,
				"z": -1.5919871108,
				"element": "C" 
			},
			{
				"x": -1.7594661115,
				"y": 3.7154895674,
				"z": -1.58536535,
				"element": "C" 
			},
			{
				"x": -2.5825167321,
				"y": 2.5999613461,
				"z": -1.7488943284,
				"element": "C" 
			},
			{
				"x": -0.0269884213,
				"y": -0.1781646906,
				"z": -2.1808189757,
				"element": "C" 
			},
			{
				"x": -0.3600173571,
				"y": -0.8558855053,
				"z": -3.1501138649,
				"element": "O" 
			},
			{
				"x": 0.9846596756,
				"y": -0.598889383,
				"z": -1.3475985935,
				"element": "N" 
			},
			{
				"x": 1.2344711929,
				"y": -0.2346759717,
				"z": 0.0470422344,
				"element": "C" 
			},
			{
				"x": 0.6741635601,
				"y": -1.2821667744,
				"z": 1.0269273967,
				"element": "C" 
			},
			{
				"x": 0.84947363,
				"y": -0.8182128205,
				"z": 2.494093522,
				"element": "C" 
			},
			{
				"x": 1.916383938,
				"y": 0.1860442554,
				"z": 2.5818185839,
				"element": "N" 
			},
			{
				"x": 3.0900052465,
				"y": -0.1890811928,
				"z": 1.79535123,
				"element": "C" 
			},
			{
				"x": 2.748112301,
				"y": -0.0430965462,
				"z": 0.2944534187,
				"element": "C" 
			},
			{
				"x": -4.0278009188,
				"y": 0.4506087052,
				"z": -2.0240832608,
				"element": "H" 
			},
			{
				"x": -2.8402974149,
				"y": -0.3001162708,
				"z": -3.1194218621,
				"element": "H" 
			},
			{
				"x": -2.7935529193,
				"y": -0.6581928088,
				"z": -1.4046517631,
				"element": "H" 
			},
			{
				"x": 1.2494794717,
				"y": 2.1606319269,
				"z": -1.7669999514,
				"element": "H" 
			},
			{
				"x": 0.2772957645,
				"y": 4.4239867364,
				"z": -1.4765956177,
				"element": "H" 
			},
			{
				"x": -2.2018395477,
				"y": 4.6994528276,
				"z": -1.4572022105,
				"element": "H" 
			},
			{
				"x": -3.6621710844,
				"y": 2.726792606,
				"z": -1.7456288929,
				"element": "H" 
			},
			{
				"x": 1.3435275722,
				"y": -1.5018691502,
				"z": -1.6408206981,
				"element": "H" 
			},
			{
				"x": 0.7249863713,
				"y": 0.7110784583,
				"z": 0.2322717192,
				"element": "H" 
			},
			{
				"x": 1.2006666615,
				"y": -2.2319087009,
				"z": 0.8628009244,
				"element": "H" 
			},
			{
				"x": -0.3821252607,
				"y": -1.471405356,
				"z": 0.8116393484,
				"element": "H" 
			},
			{
				"x": 1.0393481333,
				"y": -1.7043402741,
				"z": 3.1264622801,
				"element": "H" 
			},
			{
				"x": -0.0775400412,
				"y": -0.3588999697,
				"z": 2.8571199697,
				"element": "H" 
			},
			{
				"x": 2.1665278315,
				"y": 0.3456973038,
				"z": 3.5524283749,
				"element": "H" 
			},
			{
				"x": 3.9198025718,
				"y": 0.47296829,
				"z": 2.0614780787,
				"element": "H" 
			},
			{
				"x": 3.431465237,
				"y": -1.2211794194,
				"z": 2.0041257197,
				"element": "H" 
			},
			{
				"x": 3.3094917034,
				"y": -0.7860049864,
				"z": -0.2860091906,
				"element": "H" 
			},
			{
				"x": 3.0481185467,
				"y": 0.9416702466,
				"z": -0.0788281723,
				"element": "H" 
			}
		],
		 "valence_orbital": [ 
			{
				"type": "occ",
				"energy": -0.25354,
				"method": "rhf"
			},
			{
				"type": "occ",
				"energy": -0.2457,
				"method": "rhf"
			},
			{
				"type": "occ",
				"energy": -0.2406,
				"method": "rhf"
			},
			{
				"type": "occ",
				"energy": -0.23126,
				"method": "rhf"
			},
			{
				"type": "occ",
				"energy": -0.22133,
				"method": "rhf"
			},
			{
				"type": "unocc",
				"energy": -0.02062,
				"method": "rhf"
			},
			{
				"type": "unocc",
				"energy": 0.00181,
				"method": "rhf"
			},
			{
				"type": "unocc",
				"energy": 0.04988,
				"method": "rhf"
			},
			{
				"type": "unocc",
				"energy": 0.06731,
				"method": "rhf"
			},
			{
				"type": "unocc",
				"energy": 0.08993,
				"method": "rhf"
			}
		],
		"cosmo_sigma_profile": { 
			"-0.025": 0.0,
			"-0.024": 0.0,
			"-0.023": 0.0,
			"-0.022": 0.0,
			"-0.021": 0.0,
			"-0.02": 0.0,
			"-0.019": 0.0,
			"-0.018": 0.0,
			"-0.017": 0.0,
			"-0.016": 0.0,
			"-0.015": 0.0,
			"-0.014": 0.0,
			"-0.013": 0.11915997531,
			"-0.012": 0.732804335984,
			"-0.011": 1.03559371812,
			"-0.01": 1.98859559035,
			"-0.009": 2.72502775276,
			"-0.008": 2.23732038779,
			"-0.007": 2.53559369752,
			"-0.006": 5.97742584832,
			"-0.005": 12.0908794846,
			"-0.004": 21.6393682074,
			"-0.003": 30.1806144592,
			"-0.002": 37.6359221904,
			"-0.001": 37.0872495576,
			"0.0": 30.1880319246,
			"0.001": 16.1074056831,
			"0.002": 10.6582084958,
			"0.003": 9.98010803156,
			"0.004": 11.5591617658,
			"0.005": 11.9459406696,
			"0.006": 4.44826604988,
			"0.007": 2.53980704852,
			"0.008": 3.13103869682,
			"0.009": 1.80432060253,
			"0.01": 1.59117183686,
			"0.011": 1.8998630643,
			"0.012": 3.25969195819,
			"0.013": 3.2519991003,
			"0.014": 5.47745573243,
			"0.015": 1.38208624529,
			"0.016": 0.187982630627,
			"0.017": 0.438620519465,
			"0.018": 0.0,
			"0.019": 0.0,
			"0.02": 0.0,
			"0.021": 0.0,
			"0.022": 0.0,
			"0.023": 0.0,
			"0.024": 0.0,
			"0.025": 0.0
		}
	}
}
