{
	 "smiles": "NC(=O)C1=CNC=N1", 
	 "Tm": 468.15, 
	 "num_atms": 13, 
	 "gaussian": { 
		 "optdone": 1, 
		 "sigma_profile": "yes", 
		 "theory": "DFT", 
		 "functional": "B3LYP", 
		 "basiset": "6-31G**", 
		 "properties": { 
			 "R2extent": 1735.0703, 
			 "electric_dipole_moment_norm": 6.82061596119, 
			 "electric_quadrupole_moment_norm": 25.0532438145, 
			 "total_energy": -394.919465651, 
			 "HOMO_LUMO_gap": 0.22892, 
			 "cosmo_polarized_energy": -26.01, 
			 "cosmo_cavitation_energy": 17.83, 
			 "cosmo_dispersion_energy": -13.45, 
			 "cosmo_repulsion_energy": 1.14, 
			 "cosmo_total_nonelectrostatic_energy": 5.53, 
			 "SMD_solvation_energy": 3.0 
		},
		"coords": [
			{
				"x": 2.1580515757,
				"y": 0.5551710215,
				"z": -0.9771771255,
				"element": "N" 
			},
			{
				"x": 2.2368644755,
				"y": 1.2836379679,
				"z": 0.1990234006,
				"element": "C" 
			},
			{
				"x": 3.021141139,
				"y": 2.2063020771,
				"z": 0.3429629201,
				"element": "O" 
			},
			{
				"x": 1.3336717547,
				"y": 0.7993688711,
				"z": 1.2793791711,
				"element": "C" 
			},
			{
				"x": 0.7818530771,
				"y": -0.4576500142,
				"z": 1.4273179066,
				"element": "C" 
			},
			{
				"x": 0.0662016967,
				"y": -0.4033861324,
				"z": 2.5986634117,
				"element": "N" 
			},
			{
				"x": 0.2132277438,
				"y": 0.8643174672,
				"z": 3.1023926533,
				"element": "C" 
			},
			{
				"x": 0.970849227,
				"y": 1.6092990639,
				"z": 2.3360566201,
				"element": "N" 
			},
			{
				"x": 2.683060409,
				"y": 0.9500094302,
				"z": -1.745583775,
				"element": "H" 
			},
			{
				"x": 1.2784459024,
				"y": 0.1243709924,
				"z": -1.2215410222,
				"element": "H" 
			},
			{
				"x": 0.867359398,
				"y": -1.3627862035,
				"z": 0.8461290677,
				"element": "H" 
			},
			{
				"x": -0.4470141211,
				"y": -1.1634612282,
				"z": 3.019706535,
				"element": "H" 
			},
			{
				"x": -0.2587122779,
				"y": 1.1757066871,
				"z": 4.0243702367,
				"element": "H" 
			}
		],
		 "valence_orbital": [ 
			{
				"type": "occ",
				"energy": -0.29089,
				"method": "rhf"
			},
			{
				"type": "occ",
				"energy": -0.27495,
				"method": "rhf"
			},
			{
				"type": "occ",
				"energy": -0.26533,
				"method": "rhf"
			},
			{
				"type": "occ",
				"energy": -0.24314,
				"method": "rhf"
			},
			{
				"type": "occ",
				"energy": -0.23802,
				"method": "rhf"
			},
			{
				"type": "unocc",
				"energy": -0.0091,
				"method": "rhf"
			},
			{
				"type": "unocc",
				"energy": 0.02585,
				"method": "rhf"
			},
			{
				"type": "unocc",
				"energy": 0.06231,
				"method": "rhf"
			},
			{
				"type": "unocc",
				"energy": 0.08147,
				"method": "rhf"
			},
			{
				"type": "unocc",
				"energy": 0.11751,
				"method": "rhf"
			}
		],
		"cosmo_sigma_profile": { 
			"-0.025": 0.0,
			"-0.024": 0.0,
			"-0.023": 0.0,
			"-0.022": 0.0,
			"-0.021": 0.0,
			"-0.02": 0.0,
			"-0.019": 0.0,
			"-0.018": 0.0313496281001,
			"-0.017": 1.69892297389,
			"-0.016": 1.94086218737,
			"-0.015": 1.65691530461,
			"-0.014": 1.59004014875,
			"-0.013": 3.18686747205,
			"-0.012": 4.14740476686,
			"-0.011": 3.60855524659,
			"-0.01": 3.99382469587,
			"-0.009": 9.17046182491,
			"-0.008": 6.76076274872,
			"-0.007": 4.65458322758,
			"-0.006": 4.2352678608,
			"-0.005": 4.02170609209,
			"-0.004": 4.03070695002,
			"-0.003": 4.41169985128,
			"-0.002": 4.3449216046,
			"-0.001": 4.56930878893,
			"0.0": 5.65393850574,
			"0.001": 7.30482510838,
			"0.002": 8.55902587971,
			"0.003": 6.07707512662,
			"0.004": 4.20781416292,
			"0.005": 4.09113875688,
			"0.006": 2.60565818135,
			"0.007": 2.25659238607,
			"0.008": 3.46961036362,
			"0.009": 2.84319047366,
			"0.01": 2.5428538689,
			"0.011": 2.29009405087,
			"0.012": 3.32877823624,
			"0.013": 4.83549229522,
			"0.014": 5.95701870496,
			"0.015": 2.79256344314,
			"0.016": 2.30449351541,
			"0.017": 1.94605891547,
			"0.018": 1.13237470771,
			"0.019": 0.0275334341067,
			"0.02": 0.0,
			"0.021": 0.0,
			"0.022": 0.0,
			"0.023": 0.0,
			"0.024": 0.0,
			"0.025": 0.0
		}
	}
}
