{
	 "smiles": "NC1=NNC(=C1)C1=C(Cl)C=CC(Br)=C1", 
	 "Tm": 432.15, 
	 "num_atms": 21, 
	 "gaussian": { 
		 "optdone": 1, 
		 "sigma_profile": "yes", 
		 "theory": "DFT", 
		 "functional": "B3LYP", 
		 "basiset": "6-31G**", 
		 "properties": { 
			 "R2extent": 6555.0173, 
			 "electric_dipole_moment_norm": 1.52322816741, 
			 "electric_quadrupole_moment_norm": 14.9813774317, 
			 "total_energy": -3543.00956327, 
			 "HOMO_LUMO_gap": 0.15847, 
			 "cosmo_polarized_energy": -12.5, 
			 "cosmo_cavitation_energy": 29.67, 
			 "cosmo_dispersion_energy": -22.56, 
			 "cosmo_repulsion_energy": 1.78, 
			 "cosmo_total_nonelectrostatic_energy": 8.89, 
			 "SMD_solvation_energy": 2.37 
		},
		"coords": [
			{
				"x": 2.3798260723,
				"y": 0.2841106378,
				"z": 4.9098747891,
				"element": "N" 
			},
			{
				"x": 1.8230524951,
				"y": 0.294707095,
				"z": 3.6312599597,
				"element": "C" 
			},
			{
				"x": 2.5659119731,
				"y": 0.6102476591,
				"z": 2.5669795768,
				"element": "N" 
			},
			{
				"x": 1.6911982509,
				"y": 0.6089347831,
				"z": 1.5340313305,
				"element": "N" 
			},
			{
				"x": 0.4212723931,
				"y": 0.2804171886,
				"z": 1.8995929024,
				"element": "C" 
			},
			{
				"x": 0.4728492421,
				"y": 0.0695567341,
				"z": 3.2758114443,
				"element": "C" 
			},
			{
				"x": -0.7234854424,
				"y": 0.1400753512,
				"z": 0.9906600058,
				"element": "C" 
			},
			{
				"x": -0.9131005661,
				"y": 0.8297839246,
				"z": -0.2237810527,
				"element": "C" 
			},
			{
				"x": 0.2589349876,
				"y": 2.0046695375,
				"z": -0.8208449498,
				"element": "Cl" 
			},
			{
				"x": -2.0513977499,
				"y": 0.6368644336,
				"z": -1.0066120767,
				"element": "C" 
			},
			{
				"x": -3.0461810082,
				"y": -0.2492750687,
				"z": -0.6046414901,
				"element": "C" 
			},
			{
				"x": -2.8754670549,
				"y": -0.9413249247,
				"z": 0.5930489567,
				"element": "C" 
			},
			{
				"x": -4.2154434809,
				"y": -2.1740169645,
				"z": 1.1660756303,
				"element": "Br" 
			},
			{
				"x": -1.7409106199,
				"y": -0.7601565464,
				"z": 1.3708769848,
				"element": "C" 
			},
			{
				"x": 2.0457492064,
				"y": -0.4729023135,
				"z": 5.4923730405,
				"element": "H" 
			},
			{
				"x": 3.3921921224,
				"y": 0.2969687566,
				"z": 4.8762959658,
				"element": "H" 
			},
			{
				"x": 2.0235044946,
				"y": 0.8313125636,
				"z": 0.6104129003,
				"element": "H" 
			},
			{
				"x": -0.3528457152,
				"y": -0.1589641603,
				"z": 3.9323585801,
				"element": "H" 
			},
			{
				"x": -2.1579646228,
				"y": 1.1918639125,
				"z": -1.9318922054,
				"element": "H" 
			},
			{
				"x": -3.9308806431,
				"y": -0.3981953987,
				"z": -1.2120244216,
				"element": "H" 
			},
			{
				"x": -1.6165143342,
				"y": -1.3317772002,
				"z": 2.2818441291,
				"element": "H" 
			}
		],
		 "valence_orbital": [ 
			{
				"type": "occ",
				"energy": -0.29481,
				"method": "rhf"
			},
			{
				"type": "occ",
				"energy": -0.28567,
				"method": "rhf"
			},
			{
				"type": "occ",
				"energy": -0.25312,
				"method": "rhf"
			},
			{
				"type": "occ",
				"energy": -0.23255,
				"method": "rhf"
			},
			{
				"type": "occ",
				"energy": -0.20675,
				"method": "rhf"
			},
			{
				"type": "unocc",
				"energy": -0.04828,
				"method": "rhf"
			},
			{
				"type": "unocc",
				"energy": -0.0315,
				"method": "rhf"
			},
			{
				"type": "unocc",
				"energy": -0.00568,
				"method": "rhf"
			},
			{
				"type": "unocc",
				"energy": 0.01771,
				"method": "rhf"
			},
			{
				"type": "unocc",
				"energy": 0.04222,
				"method": "rhf"
			}
		],
		"cosmo_sigma_profile": { 
			"-0.025": 0.0,
			"-0.024": 0.0,
			"-0.023": 0.0,
			"-0.022": 0.0,
			"-0.021": 0.0,
			"-0.02": 0.0,
			"-0.019": 0.0,
			"-0.018": 0.0,
			"-0.017": 0.0,
			"-0.016": 0.0,
			"-0.015": 0.0,
			"-0.014": 0.396129012688,
			"-0.013": 0.991519355053,
			"-0.012": 3.2368116208,
			"-0.011": 2.99439512574,
			"-0.01": 2.77621846794,
			"-0.009": 4.7326316825,
			"-0.008": 6.97020046292,
			"-0.007": 10.7971686001,
			"-0.006": 9.49030285791,
			"-0.005": 9.22196477577,
			"-0.004": 10.2315196341,
			"-0.003": 10.697666608,
			"-0.002": 10.8148830407,
			"-0.001": 14.2301815533,
			"0.0": 19.8063348475,
			"0.001": 31.0885694123,
			"0.002": 21.9990773317,
			"0.003": 18.7670783942,
			"0.004": 22.3639159952,
			"0.005": 8.37601042504,
			"0.006": 3.77825958378,
			"0.007": 3.36783749158,
			"0.008": 2.2928652292,
			"0.009": 2.31816843557,
			"0.01": 1.80391510924,
			"0.011": 1.54320922463,
			"0.012": 2.03408881978,
			"0.013": 2.30498621208,
			"0.014": 1.41582957674,
			"0.015": 1.66983701896,
			"0.016": 0.946751552444,
			"0.017": 0.0544202005738,
			"0.018": 0.0,
			"0.019": 0.0,
			"0.02": 0.0,
			"0.021": 0.0,
			"0.022": 0.0,
			"0.023": 0.0,
			"0.024": 0.0,
			"0.025": 0.0
		}
	}
}
