{
	 "smiles": "NC(=O)NC1(CC1)C(O)=O", 
	 "Tm": 463.15, 
	 "num_atms": 18, 
	 "gaussian": { 
		 "optdone": 1, 
		 "sigma_profile": "yes", 
		 "theory": "DFT", 
		 "functional": "B3LYP", 
		 "basiset": "6-31G**", 
		 "properties": { 
			 "R2extent": 1884.0593, 
			 "electric_dipole_moment_norm": 2.38230873524, 
			 "electric_quadrupole_moment_norm": 15.4336923314, 
			 "total_energy": -530.518697691, 
			 "HOMO_LUMO_gap": 0.24562, 
			 "cosmo_polarized_energy": -18.86, 
			 "cosmo_cavitation_energy": 22.07, 
			 "cosmo_dispersion_energy": -15.9, 
			 "cosmo_repulsion_energy": 1.31, 
			 "cosmo_total_nonelectrostatic_energy": 7.48, 
			 "SMD_solvation_energy": 5.14 
		},
		"coords": [
			{
				"x": -0.0920100122,
				"y": -2.9497552544,
				"z": 1.0552620296,
				"element": "N" 
			},
			{
				"x": 1.2147738134,
				"y": -2.9080096293,
				"z": 0.5391683911,
				"element": "C" 
			},
			{
				"x": 1.9007590521,
				"y": -3.9024650702,
				"z": 0.375997398,
				"element": "O" 
			},
			{
				"x": 1.6667708772,
				"y": -1.6304682587,
				"z": 0.2335204095,
				"element": "N" 
			},
			{
				"x": 0.8692465038,
				"y": -0.5630296986,
				"z": -0.3311391284,
				"element": "C" 
			},
			{
				"x": 0.2045441328,
				"y": -0.7549032183,
				"z": -1.685261509,
				"element": "C" 
			},
			{
				"x": 1.4193418612,
				"y": 0.1298202841,
				"z": -1.5417913643,
				"element": "C" 
			},
			{
				"x": 0.1468002107,
				"y": 0.3167517925,
				"z": 0.6875930822,
				"element": "C" 
			},
			{
				"x": -1.0292774637,
				"y": -0.1974594949,
				"z": 1.1352389446,
				"element": "O" 
			},
			{
				"x": 0.552774851,
				"y": 1.3768947194,
				"z": 1.0888061525,
				"element": "O" 
			},
			{
				"x": -0.3318132954,
				"y": -3.9047334772,
				"z": 1.2966300947,
				"element": "H" 
			},
			{
				"x": -0.2377643981,
				"y": -2.3223248379,
				"z": 1.8399241808,
				"element": "H" 
			},
			{
				"x": 2.6378044578,
				"y": -1.6431669439,
				"z": -0.0490933243,
				"element": "H" 
			},
			{
				"x": 0.3273214032,
				"y": -1.7230091046,
				"z": -2.1604727426,
				"element": "H" 
			},
			{
				"x": -0.757851956,
				"y": -0.2810134337,
				"z": -1.8576986138,
				"element": "H" 
			},
			{
				"x": 2.3611828653,
				"y": -0.2353756057,
				"z": -1.9412579903,
				"element": "H" 
			},
			{
				"x": 1.2945412873,
				"y": 1.2061988055,
				"z": -1.5894994446,
				"element": "H" 
			},
			{
				"x": -1.2058441903,
				"y": -1.029751574,
				"z": 0.6617734344,
				"element": "H" 
			}
		],
		 "valence_orbital": [ 
			{
				"type": "occ",
				"energy": -0.32412,
				"method": "rhf"
			},
			{
				"type": "occ",
				"energy": -0.31026,
				"method": "rhf"
			},
			{
				"type": "occ",
				"energy": -0.29535,
				"method": "rhf"
			},
			{
				"type": "occ",
				"energy": -0.27444,
				"method": "rhf"
			},
			{
				"type": "occ",
				"energy": -0.25304,
				"method": "rhf"
			},
			{
				"type": "unocc",
				"energy": -0.00742,
				"method": "rhf"
			},
			{
				"type": "unocc",
				"energy": 0.01775,
				"method": "rhf"
			},
			{
				"type": "unocc",
				"energy": 0.06101,
				"method": "rhf"
			},
			{
				"type": "unocc",
				"energy": 0.07467,
				"method": "rhf"
			},
			{
				"type": "unocc",
				"energy": 0.0974,
				"method": "rhf"
			}
		],
		"cosmo_sigma_profile": { 
			"-0.025": 0.0,
			"-0.024": 0.0,
			"-0.023": 0.0,
			"-0.022": 0.0,
			"-0.021": 0.0,
			"-0.02": 0.0,
			"-0.019": 0.0,
			"-0.018": 0.0,
			"-0.017": 0.0,
			"-0.016": 0.0,
			"-0.015": 0.0,
			"-0.014": 0.662419645438,
			"-0.013": 3.86837875224,
			"-0.012": 3.5464082852,
			"-0.011": 5.76641442464,
			"-0.01": 5.0830584926,
			"-0.009": 3.88499152002,
			"-0.008": 6.07130287776,
			"-0.007": 7.22358017089,
			"-0.006": 10.2176982946,
			"-0.005": 9.55129793235,
			"-0.004": 8.79865290664,
			"-0.003": 9.8120518321,
			"-0.002": 9.10843430085,
			"-0.001": 8.27645169643,
			"0.0": 6.38072735441,
			"0.001": 7.70226460129,
			"0.002": 7.14461417778,
			"0.003": 6.55614912763,
			"0.004": 4.18681842683,
			"0.005": 4.56066337919,
			"0.006": 2.69254502778,
			"0.007": 4.18042486489,
			"0.008": 4.74494716564,
			"0.009": 4.97168312692,
			"0.01": 6.57654816713,
			"0.011": 6.94538819019,
			"0.012": 6.16875061056,
			"0.013": 6.46640924441,
			"0.014": 2.67405358162,
			"0.015": 0.0,
			"0.016": 0.0,
			"0.017": 0.0,
			"0.018": 0.0,
			"0.019": 0.0,
			"0.02": 0.0,
			"0.021": 0.0,
			"0.022": 0.0,
			"0.023": 0.0,
			"0.024": 0.0,
			"0.025": 0.0
		}
	}
}
