{
	 "smiles": "CN1N=C(C=C1C1=CC=C(S1)S(Cl)(=O)=O)C(F)(F)F", 
	 "Tm": 342.15, 
	 "num_atms": 25, 
	 "gaussian": { 
		 "optdone": 1, 
		 "sigma_profile": "yes", 
		 "theory": "DFT", 
		 "functional": "B3LYP", 
		 "basiset": "6-31G**", 
		 "properties": { 
			 "R2extent": 11351.1963, 
			 "electric_dipole_moment_norm": 4.546342475, 
			 "electric_quadrupole_moment_norm": 30.5550189448, 
			 "total_energy": -2162.50664721, 
			 "HOMO_LUMO_gap": 0.15163, 
			 "cosmo_polarized_energy": -14.62, 
			 "cosmo_cavitation_energy": 37.31, 
			 "cosmo_dispersion_energy": -26.97, 
			 "cosmo_repulsion_energy": 1.94, 
			 "cosmo_total_nonelectrostatic_energy": 12.28, 
			 "SMD_solvation_energy": 4.83 
		},
		"coords": [
			{
				"x": -0.3621590351,
				"y": 1.8655522107,
				"z": -0.3424923878,
				"element": "C" 
			},
			{
				"x": -0.7531553484,
				"y": 0.4906693221,
				"z": -0.6188085123,
				"element": "N" 
			},
			{
				"x": -1.9321861943,
				"y": 0.2693192211,
				"z": -1.2170019385,
				"element": "N" 
			},
			{
				"x": -2.0298422503,
				"y": -1.0576851572,
				"z": -1.3115125454,
				"element": "C" 
			},
			{
				"x": -0.9103247181,
				"y": -1.7085592744,
				"z": -0.7726069662,
				"element": "C" 
			},
			{
				"x": -0.0861157452,
				"y": -0.6774527415,
				"z": -0.3310153553,
				"element": "C" 
			},
			{
				"x": 1.2132249346,
				"y": -0.7472324629,
				"z": 0.317440669,
				"element": "C" 
			},
			{
				"x": 2.3085205449,
				"y": 0.0900967735,
				"z": 0.1995893904,
				"element": "C" 
			},
			{
				"x": 3.4148786021,
				"y": -0.3208977778,
				"z": 0.9816025889,
				"element": "C" 
			},
			{
				"x": 3.1423362097,
				"y": -1.4646789216,
				"z": 1.6922093953,
				"element": "C" 
			},
			{
				"x": 1.5308234708,
				"y": -2.0579140707,
				"z": 1.4284201815,
				"element": "S" 
			},
			{
				"x": 4.2775598489,
				"y": -2.2901755315,
				"z": 2.7471623922,
				"element": "S" 
			},
			{
				"x": 5.1955890653,
				"y": -3.6822853202,
				"z": 1.421545058,
				"element": "Cl" 
			},
			{
				"x": 5.3219752539,
				"y": -1.3501279731,
				"z": 3.1287822714,
				"element": "O" 
			},
			{
				"x": 3.5310213683,
				"y": -3.0876097429,
				"z": 3.7104742568,
				"element": "O" 
			},
			{
				"x": -3.2356160037,
				"y": -1.6834336241,
				"z": -1.9425125019,
				"element": "C" 
			},
			{
				"x": -3.1253093991,
				"y": -3.0300981906,
				"z": -1.9123687043,
				"element": "F" 
			},
			{
				"x": -4.3716830177,
				"y": -1.3490930287,
				"z": -1.3000399262,
				"element": "F" 
			},
			{
				"x": -3.3809146826,
				"y": -1.3122279074,
				"z": -3.2298829426,
				"element": "F" 
			},
			{
				"x": -1.275372428,
				"y": 2.4568625395,
				"z": -0.2906527029,
				"element": "H" 
			},
			{
				"x": 0.2761029716,
				"y": 2.262191631,
				"z": -1.1383448133,
				"element": "H" 
			},
			{
				"x": 0.1681665999,
				"y": 1.9157468108,
				"z": 0.6097610983,
				"element": "H" 
			},
			{
				"x": -0.7124640758,
				"y": -2.7683584295,
				"z": -0.7318697351,
				"element": "H" 
			},
			{
				"x": 2.3303902052,
				"y": 0.9533735413,
				"z": -0.4533024149,
				"element": "H" 
			},
			{
				"x": 4.371053823,
				"y": 0.1862181039,
				"z": 1.0202241447,
				"element": "H" 
			}
		],
		 "valence_orbital": [ 
			{
				"type": "occ",
				"energy": -0.32108,
				"method": "rhf"
			},
			{
				"type": "occ",
				"energy": -0.31273,
				"method": "rhf"
			},
			{
				"type": "occ",
				"energy": -0.30112,
				"method": "rhf"
			},
			{
				"type": "occ",
				"energy": -0.28781,
				"method": "rhf"
			},
			{
				"type": "occ",
				"energy": -0.25962,
				"method": "rhf"
			},
			{
				"type": "unocc",
				"energy": -0.10799,
				"method": "rhf"
			},
			{
				"type": "unocc",
				"energy": -0.06889,
				"method": "rhf"
			},
			{
				"type": "unocc",
				"energy": -0.02414,
				"method": "rhf"
			},
			{
				"type": "unocc",
				"energy": -0.01998,
				"method": "rhf"
			},
			{
				"type": "unocc",
				"energy": 0.00528,
				"method": "rhf"
			}
		],
		"cosmo_sigma_profile": { 
			"-0.025": 0.0,
			"-0.024": 0.0,
			"-0.023": 0.0,
			"-0.022": 0.0,
			"-0.021": 0.0,
			"-0.02": 0.0,
			"-0.019": 0.0,
			"-0.018": 0.0,
			"-0.017": 0.0,
			"-0.016": 0.0,
			"-0.015": 0.0,
			"-0.014": 0.0,
			"-0.013": 0.0,
			"-0.012": 0.0,
			"-0.011": 0.0,
			"-0.01": 1.58162731781,
			"-0.009": 5.74437717088,
			"-0.008": 7.11930691924,
			"-0.007": 12.5122429227,
			"-0.006": 11.9786500449,
			"-0.005": 13.7190286069,
			"-0.004": 16.2621828371,
			"-0.003": 15.6642636583,
			"-0.002": 20.0009458298,
			"-0.001": 27.5807646954,
			"0.0": 27.6471956886,
			"0.001": 22.7787593131,
			"0.002": 33.0173751377,
			"0.003": 42.0285549444,
			"0.004": 10.7183559057,
			"0.005": 5.82016797621,
			"0.006": 5.45185772575,
			"0.007": 9.31755299049,
			"0.008": 10.2546067302,
			"0.009": 2.9570015458,
			"0.01": 1.10375792928,
			"0.011": 0.894122258457,
			"0.012": 0.736251784692,
			"0.013": 0.325669641548,
			"0.014": 0.0,
			"0.015": 0.0,
			"0.016": 0.0,
			"0.017": 0.0,
			"0.018": 0.0,
			"0.019": 0.0,
			"0.02": 0.0,
			"0.021": 0.0,
			"0.022": 0.0,
			"0.023": 0.0,
			"0.024": 0.0,
			"0.025": 0.0
		}
	}
}
