{
	 "smiles": "CCNC(=O)NCCCO", 
	 "Tm": 327.15, 
	 "num_atms": 24, 
	 "gaussian": { 
		 "optdone": 1, 
		 "sigma_profile": "yes", 
		 "theory": "DFT", 
		 "functional": "B3LYP", 
		 "basiset": "6-31G**", 
		 "properties": { 
			 "R2extent": 2052.4296, 
			 "electric_dipole_moment_norm": 2.75830301997, 
			 "electric_quadrupole_moment_norm": 18.552918285, 
			 "total_energy": -497.047690671, 
			 "HOMO_LUMO_gap": 0.28431, 
			 "cosmo_polarized_energy": -15.5, 
			 "cosmo_cavitation_energy": 26.47, 
			 "cosmo_dispersion_energy": -18.59, 
			 "cosmo_repulsion_energy": 1.55, 
			 "cosmo_total_nonelectrostatic_energy": 9.43, 
			 "SMD_solvation_energy": 4.02 
		},
		"coords": [
			{
				"x": 1.2422293883,
				"y": 0.3716014063,
				"z": 2.8234599398,
				"element": "C" 
			},
			{
				"x": 0.5688379791,
				"y": 1.7206880547,
				"z": 2.5379929513,
				"element": "C" 
			},
			{
				"x": -0.7097379964,
				"y": 1.6103524993,
				"z": 1.8478592644,
				"element": "N" 
			},
			{
				"x": -0.9340726753,
				"y": 1.6865216474,
				"z": 0.487656433,
				"element": "C" 
			},
			{
				"x": -2.0673544473,
				"y": 1.8164307009,
				"z": 0.0284166901,
				"element": "O" 
			},
			{
				"x": 0.1940804291,
				"y": 1.629086635,
				"z": -0.3102247345,
				"element": "N" 
			},
			{
				"x": 0.0386433076,
				"y": 1.5252432509,
				"z": -1.7554826086,
				"element": "C" 
			},
			{
				"x": -0.4081437609,
				"y": 0.1369926656,
				"z": -2.2509044481,
				"element": "C" 
			},
			{
				"x": 0.3897913771,
				"y": -1.0092815802,
				"z": -1.6241026979,
				"element": "C" 
			},
			{
				"x": 1.7991244738,
				"y": -0.7722898218,
				"z": -1.5992394324,
				"element": "O" 
			},
			{
				"x": 0.5935980069,
				"y": -0.2623057183,
				"z": 3.43584556,
				"element": "H" 
			},
			{
				"x": 1.4621665235,
				"y": -0.1743261582,
				"z": 1.8996595998,
				"element": "H" 
			},
			{
				"x": 2.1862584589,
				"y": 0.5179581774,
				"z": 3.3596037656,
				"element": "H" 
			},
			{
				"x": 1.2363797607,
				"y": 2.3637748245,
				"z": 1.951913899,
				"element": "H" 
			},
			{
				"x": 0.3927800756,
				"y": 2.2462311533,
				"z": 3.4828364451,
				"element": "H" 
			},
			{
				"x": -1.5601293666,
				"y": 1.7223451403,
				"z": 2.3785852614,
				"element": "H" 
			},
			{
				"x": 1.0209671076,
				"y": 1.1802957421,
				"z": 0.0576139424,
				"element": "H" 
			},
			{
				"x": 1.0045933426,
				"y": 1.7862163343,
				"z": -2.1974332861,
				"element": "H" 
			},
			{
				"x": -0.6897062442,
				"y": 2.2754840845,
				"z": -2.069665827,
				"element": "H" 
			},
			{
				"x": -1.4688860718,
				"y": -0.0066948185,
				"z": -2.0182259347,
				"element": "H" 
			},
			{
				"x": -0.312888442,
				"y": 0.1133238587,
				"z": -3.3460440621,
				"element": "H" 
			},
			{
				"x": 0.1056368401,
				"y": -1.1281193849,
				"z": -0.5741137651,
				"element": "H" 
			},
			{
				"x": 0.1547726376,
				"y": -1.9583099242,
				"z": -2.1288334638,
				"element": "H" 
			},
			{
				"x": 2.1040592958,
				"y": -0.7005187692,
				"z": -2.5132734916,
				"element": "H" 
			}
		],
		 "valence_orbital": [ 
			{
				"type": "occ",
				"energy": -0.32611,
				"method": "rhf"
			},
			{
				"type": "occ",
				"energy": -0.27417,
				"method": "rhf"
			},
			{
				"type": "occ",
				"energy": -0.24861,
				"method": "rhf"
			},
			{
				"type": "occ",
				"energy": -0.23675,
				"method": "rhf"
			},
			{
				"type": "occ",
				"energy": -0.23298,
				"method": "rhf"
			},
			{
				"type": "unocc",
				"energy": 0.05133,
				"method": "rhf"
			},
			{
				"type": "unocc",
				"energy": 0.07471,
				"method": "rhf"
			},
			{
				"type": "unocc",
				"energy": 0.08243,
				"method": "rhf"
			},
			{
				"type": "unocc",
				"energy": 0.10094,
				"method": "rhf"
			},
			{
				"type": "unocc",
				"energy": 0.12422,
				"method": "rhf"
			}
		],
		"cosmo_sigma_profile": { 
			"-0.025": 0.0,
			"-0.024": 0.0,
			"-0.023": 0.0,
			"-0.022": 0.0,
			"-0.021": 0.0,
			"-0.02": 0.0,
			"-0.019": 0.0,
			"-0.018": 0.0,
			"-0.017": 0.0,
			"-0.016": 0.155909266074,
			"-0.015": 0.682389928181,
			"-0.014": 1.05104599601,
			"-0.013": 1.20769057586,
			"-0.012": 2.60206399625,
			"-0.011": 1.30334593043,
			"-0.01": 2.22317928689,
			"-0.009": 2.75732331719,
			"-0.008": 3.05366360839,
			"-0.007": 3.15364276167,
			"-0.006": 4.13088261863,
			"-0.005": 7.83612714169,
			"-0.004": 14.3356786293,
			"-0.003": 25.9246319699,
			"-0.002": 29.9155739701,
			"-0.001": 20.5477814334,
			"0.0": 15.8462770997,
			"0.001": 12.0766507589,
			"0.002": 6.67516386424,
			"0.003": 5.78271744364,
			"0.004": 4.96778814061,
			"0.005": 3.69773324543,
			"0.006": 5.01424927206,
			"0.007": 3.60131151039,
			"0.008": 2.83297591279,
			"0.009": 2.16933956921,
			"0.01": 2.85779841166,
			"0.011": 2.38952193514,
			"0.012": 2.6673314958,
			"0.013": 2.29793199584,
			"0.014": 3.35550189662,
			"0.015": 6.10340205296,
			"0.016": 1.56482898499,
			"0.017": 0.0,
			"0.018": 0.0,
			"0.019": 0.0,
			"0.02": 0.0,
			"0.021": 0.0,
			"0.022": 0.0,
			"0.023": 0.0,
			"0.024": 0.0,
			"0.025": 0.0
		}
	}
}
