{
	 "smiles": "CN(C)C1=CC=CC2=C1C=CC=C2S(N)(=O)=O", 
	 "Tm": 493.15, 
	 "num_atms": 31, 
	 "gaussian": { 
		 "optdone": 1, 
		 "sigma_profile": "yes", 
		 "theory": "DFT", 
		 "functional": "B3LYP", 
		 "basiset": "6-31G**", 
		 "properties": { 
			 "R2extent": 5837.2322, 
			 "electric_dipole_moment_norm": 6.39097309727, 
			 "electric_quadrupole_moment_norm": 24.4345310162, 
			 "total_energy": -1123.7728241, 
			 "HOMO_LUMO_gap": 0.15333, 
			 "cosmo_polarized_energy": -17.97, 
			 "cosmo_cavitation_energy": 34.37, 
			 "cosmo_dispersion_energy": -25.3, 
			 "cosmo_repulsion_energy": 1.9, 
			 "cosmo_total_nonelectrostatic_energy": 10.98, 
			 "SMD_solvation_energy": 5.01 
		},
		"coords": [
			{
				"x": -0.8667266901,
				"y": -3.1875181653,
				"z": 1.0132625851,
				"element": "C" 
			},
			{
				"x": 0.5648651251,
				"y": -3.1058997468,
				"z": 0.7607916818,
				"element": "N" 
			},
			{
				"x": 1.1244119182,
				"y": -4.2132436732,
				"z": -0.0020753129,
				"element": "C" 
			},
			{
				"x": 1.1255673769,
				"y": -1.8048427807,
				"z": 0.5372063388,
				"element": "C" 
			},
			{
				"x": 1.9418047336,
				"y": -1.2901415759,
				"z": 1.5252057127,
				"element": "C" 
			},
			{
				"x": 2.5526437164,
				"y": -0.0260304827,
				"z": 1.38568115,
				"element": "C" 
			},
			{
				"x": 2.3357857392,
				"y": 0.7406762511,
				"z": 0.2635125347,
				"element": "C" 
			},
			{
				"x": 1.4844723741,
				"y": 0.2734093031,
				"z": -0.7761497273,
				"element": "C" 
			},
			{
				"x": 0.8825236918,
				"y": -1.0295421923,
				"z": -0.6482126061,
				"element": "C" 
			},
			{
				"x": 0.0687522948,
				"y": -1.5193901344,
				"z": -1.7070781152,
				"element": "C" 
			},
			{
				"x": -0.1642148343,
				"y": -0.7736567891,
				"z": -2.8385418295,
				"element": "C" 
			},
			{
				"x": 0.387228388,
				"y": 0.519707042,
				"z": -2.9617981127,
				"element": "C" 
			},
			{
				"x": 1.1813888489,
				"y": 1.0279061193,
				"z": -1.9568804348,
				"element": "C" 
			},
			{
				"x": 1.76562721,
				"y": 2.7240917005,
				"z": -2.189511326,
				"element": "S" 
			},
			{
				"x": 0.976682708,
				"y": 3.6495730113,
				"z": -1.0241581286,
				"element": "N" 
			},
			{
				"x": 1.2466223506,
				"y": 3.1925073952,
				"z": -3.4737390628,
				"element": "O" 
			},
			{
				"x": 3.1902219079,
				"y": 2.7871680904,
				"z": -1.8629558363,
				"element": "O" 
			},
			{
				"x": -1.0847269648,
				"y": -4.1290710601,
				"z": 1.5315678804,
				"element": "H" 
			},
			{
				"x": -1.5032977046,
				"y": -3.1535921475,
				"z": 0.1112875661,
				"element": "H" 
			},
			{
				"x": -1.1692246907,
				"y": -2.3658331679,
				"z": 1.6680597526,
				"element": "H" 
			},
			{
				"x": 0.8929164689,
				"y": -5.1544928584,
				"z": 0.5107405918,
				"element": "H" 
			},
			{
				"x": 2.2120048095,
				"y": -4.1125211297,
				"z": -0.0474829093,
				"element": "H" 
			},
			{
				"x": 0.7493000527,
				"y": -4.2999903406,
				"z": -1.0373919785,
				"element": "H" 
			},
			{
				"x": 2.1110337514,
				"y": -1.8922706448,
				"z": 2.4119384008,
				"element": "H" 
			},
			{
				"x": 3.2113293191,
				"y": 0.3393645341,
				"z": 2.1681117741,
				"element": "H" 
			},
			{
				"x": 2.8614879352,
				"y": 1.6804262998,
				"z": 0.1444210625,
				"element": "H" 
			},
			{
				"x": -0.3711741483,
				"y": -2.5039272929,
				"z": -1.6159116989,
				"element": "H" 
			},
			{
				"x": -0.7811421173,
				"y": -1.1701757444,
				"z": -3.6388815372,
				"element": "H" 
			},
			{
				"x": 0.1929966467,
				"y": 1.1259157548,
				"z": -3.8392204287,
				"element": "H" 
			},
			{
				"x": -0.021610095,
				"y": 3.7052928232,
				"z": -1.2028665834,
				"element": "H" 
			},
			{
				"x": 1.183949878,
				"y": 3.3495016019,
				"z": -0.075931403,
				"element": "H" 
			}
		],
		 "valence_orbital": [ 
			{
				"type": "occ",
				"energy": -0.29629,
				"method": "rhf"
			},
			{
				"type": "occ",
				"energy": -0.28732,
				"method": "rhf"
			},
			{
				"type": "occ",
				"energy": -0.26166,
				"method": "rhf"
			},
			{
				"type": "occ",
				"energy": -0.23406,
				"method": "rhf"
			},
			{
				"type": "occ",
				"energy": -0.21862,
				"method": "rhf"
			},
			{
				"type": "unocc",
				"energy": -0.06529,
				"method": "rhf"
			},
			{
				"type": "unocc",
				"energy": -0.02779,
				"method": "rhf"
			},
			{
				"type": "unocc",
				"energy": 0.00085,
				"method": "rhf"
			},
			{
				"type": "unocc",
				"energy": 0.05713,
				"method": "rhf"
			},
			{
				"type": "unocc",
				"energy": 0.06931,
				"method": "rhf"
			}
		],
		"cosmo_sigma_profile": { 
			"-0.025": 0.0,
			"-0.024": 0.0,
			"-0.023": 0.0,
			"-0.022": 0.0,
			"-0.021": 0.0,
			"-0.02": 0.0,
			"-0.019": 0.0,
			"-0.018": 0.0,
			"-0.017": 0.0,
			"-0.016": 0.20123524566,
			"-0.015": 1.47463729625,
			"-0.014": 1.30375072911,
			"-0.013": 3.03907047463,
			"-0.012": 3.34009832914,
			"-0.011": 2.21843951966,
			"-0.01": 2.13879622416,
			"-0.009": 1.84121727498,
			"-0.008": 2.4368706269,
			"-0.007": 4.57058200268,
			"-0.006": 11.934629679,
			"-0.005": 12.6406808773,
			"-0.004": 19.4822562745,
			"-0.003": 18.8470192045,
			"-0.002": 21.3934577606,
			"-0.001": 28.7073670763,
			"0.0": 22.9235249187,
			"0.001": 16.8909853197,
			"0.002": 23.3787533994,
			"0.003": 17.3244235933,
			"0.004": 10.2559989149,
			"0.005": 3.83771929864,
			"0.006": 4.55326786069,
			"0.007": 5.05405734561,
			"0.008": 6.22484528535,
			"0.009": 4.48758687182,
			"0.01": 8.36210610821,
			"0.011": 9.95129927262,
			"0.012": 4.23067763144,
			"0.013": 0.235904664173,
			"0.014": 0.0,
			"0.015": 0.0,
			"0.016": 0.0,
			"0.017": 0.0,
			"0.018": 0.0,
			"0.019": 0.0,
			"0.02": 0.0,
			"0.021": 0.0,
			"0.022": 0.0,
			"0.023": 0.0,
			"0.024": 0.0,
			"0.025": 0.0
		}
	}
}
