{
	 "smiles": "N1C=CC(=C1)C1=NC=CC=C1", 
	 "Tm": 400.15, 
	 "num_atms": 19, 
	 "gaussian": { 
		 "optdone": 1, 
		 "sigma_profile": "yes", 
		 "theory": "DFT", 
		 "functional": "B3LYP", 
		 "basiset": "6-31G**", 
		 "properties": { 
			 "R2extent": 2511.909, 
			 "electric_dipole_moment_norm": 3.01695383292, 
			 "electric_quadrupole_moment_norm": 13.6926307673, 
			 "total_energy": -457.270508867, 
			 "HOMO_LUMO_gap": 0.1831, 
			 "cosmo_polarized_energy": -12.45, 
			 "cosmo_cavitation_energy": 23.09, 
			 "cosmo_dispersion_energy": -17.42, 
			 "cosmo_repulsion_energy": 1.38, 
			 "cosmo_total_nonelectrostatic_energy": 7.05, 
			 "SMD_solvation_energy": 3.3 
		},
		"coords": [
			{
				"x": 0.6896097284,
				"y": 2.2508126945,
				"z": 0.2471158831,
				"element": "N" 
			},
			{
				"x": -0.6059658473,
				"y": 1.8624500901,
				"z": -0.0234006274,
				"element": "C" 
			},
			{
				"x": -0.7183342521,
				"y": 0.5313534056,
				"z": 0.2931460546,
				"element": "C" 
			},
			{
				"x": 0.5551863275,
				"y": 0.0884217415,
				"z": 0.7748580089,
				"element": "C" 
			},
			{
				"x": 1.4033601767,
				"y": 1.1866363357,
				"z": 0.7307196279,
				"element": "C" 
			},
			{
				"x": 0.8691126731,
				"y": -1.2730598034,
				"z": 1.2216538907,
				"element": "C" 
			},
			{
				"x": -0.138170647,
				"y": -2.1691732258,
				"z": 1.1671078638,
				"element": "N" 
			},
			{
				"x": 0.1027504449,
				"y": -3.4211244065,
				"z": 1.5642053996,
				"element": "C" 
			},
			{
				"x": 1.3371207499,
				"y": -3.8680511985,
				"z": 2.0357536366,
				"element": "C" 
			},
			{
				"x": 2.3814378238,
				"y": -2.9431918848,
				"z": 2.0934222205,
				"element": "C" 
			},
			{
				"x": 2.1489221195,
				"y": -1.6359820973,
				"z": 1.6842379613,
				"element": "C" 
			},
			{
				"x": 1.0591860216,
				"y": 3.1775906478,
				"z": 0.1105832804,
				"element": "H" 
			},
			{
				"x": -1.3282765478,
				"y": 2.5632948627,
				"z": -0.4144817465,
				"element": "H" 
			},
			{
				"x": -1.597077663,
				"y": -0.0882395203,
				"z": 0.2031168896,
				"element": "H" 
			},
			{
				"x": 2.4430640504,
				"y": 1.294830433,
				"z": 1.0009076871,
				"element": "H" 
			},
			{
				"x": -0.74027177,
				"y": -4.1087039315,
				"z": 1.5022037472,
				"element": "H" 
			},
			{
				"x": 1.4722268439,
				"y": -4.8995215194,
				"z": 2.3447257909,
				"element": "H" 
			},
			{
				"x": 3.363949048,
				"y": -3.2373263601,
				"z": 2.4526277318,
				"element": "H" 
			},
			{
				"x": 2.9470707195,
				"y": -0.9013162634,
				"z": 1.7209966998,
				"element": "H" 
			}
		],
		 "valence_orbital": [ 
			{
				"type": "occ",
				"energy": -0.28439,
				"method": "rhf"
			},
			{
				"type": "occ",
				"energy": -0.26892,
				"method": "rhf"
			},
			{
				"type": "occ",
				"energy": -0.24087,
				"method": "rhf"
			},
			{
				"type": "occ",
				"energy": -0.22343,
				"method": "rhf"
			},
			{
				"type": "occ",
				"energy": -0.20035,
				"method": "rhf"
			},
			{
				"type": "unocc",
				"energy": -0.01725,
				"method": "rhf"
			},
			{
				"type": "unocc",
				"energy": -0.0068,
				"method": "rhf"
			},
			{
				"type": "unocc",
				"energy": 0.04974,
				"method": "rhf"
			},
			{
				"type": "unocc",
				"energy": 0.07637,
				"method": "rhf"
			},
			{
				"type": "unocc",
				"energy": 0.09915,
				"method": "rhf"
			}
		],
		"cosmo_sigma_profile": { 
			"-0.025": 0.0,
			"-0.024": 0.0,
			"-0.023": 0.0,
			"-0.022": 0.0,
			"-0.021": 0.0,
			"-0.02": 0.0,
			"-0.019": 0.0,
			"-0.018": 0.0,
			"-0.017": 0.0,
			"-0.016": 0.772603011853,
			"-0.015": 1.7270127248,
			"-0.014": 1.39271481969,
			"-0.013": 1.38706342024,
			"-0.012": 1.17820736739,
			"-0.011": 1.04618139129,
			"-0.01": 1.06245857308,
			"-0.009": 1.07182025515,
			"-0.008": 4.06446993608,
			"-0.007": 7.91259076443,
			"-0.006": 10.0793528364,
			"-0.005": 11.5008869819,
			"-0.004": 13.1697031246,
			"-0.003": 10.1636114458,
			"-0.002": 10.0043977613,
			"-0.001": 7.82121051454,
			"0.0": 7.84300911324,
			"0.001": 10.1940633307,
			"0.002": 10.005699065,
			"0.003": 17.1345265526,
			"0.004": 16.2210810485,
			"0.005": 8.68926631655,
			"0.006": 8.82290125553,
			"0.007": 7.71780643369,
			"0.008": 6.45143803847,
			"0.009": 2.23236350194,
			"0.01": 1.41682663963,
			"0.011": 1.0661450514,
			"0.012": 1.51004368725,
			"0.013": 1.25423603579,
			"0.014": 0.663901007163,
			"0.015": 0.0,
			"0.016": 0.0,
			"0.017": 0.0,
			"0.018": 0.0,
			"0.019": 0.0,
			"0.02": 0.0,
			"0.021": 0.0,
			"0.022": 0.0,
			"0.023": 0.0,
			"0.024": 0.0,
			"0.025": 0.0
		}
	}
}
