{
	 "smiles": "CCOC(=O)C1CCCNC1=O", 
	 "Tm": 354.15, 
	 "num_atms": 25, 
	 "gaussian": { 
		 "optdone": 1, 
		 "sigma_profile": "yes", 
		 "theory": "DFT", 
		 "functional": "B3LYP", 
		 "basiset": "6-31G**", 
		 "properties": { 
			 "R2extent": 2474.6706, 
			 "electric_dipole_moment_norm": 3.20934639763, 
			 "electric_quadrupole_moment_norm": 15.4461323803, 
			 "total_energy": -593.144824295, 
			 "HOMO_LUMO_gap": 0.25812, 
			 "cosmo_polarized_energy": -15.14, 
			 "cosmo_cavitation_energy": 27.69, 
			 "cosmo_dispersion_energy": -20.0, 
			 "cosmo_repulsion_energy": 1.63, 
			 "cosmo_total_nonelectrostatic_energy": 9.32, 
			 "SMD_solvation_energy": 5.28 
		},
		"coords": [
			{
				"x": -2.8689458031,
				"y": 1.5161318462,
				"z": 1.8564260621,
				"element": "C" 
			},
			{
				"x": -1.7843581817,
				"y": 2.3253662477,
				"z": 1.1621097297,
				"element": "C" 
			},
			{
				"x": -0.5363375679,
				"y": 1.5887576458,
				"z": 1.1292677037,
				"element": "O" 
			},
			{
				"x": -0.3799978584,
				"y": 0.7177319593,
				"z": 0.1181113912,
				"element": "C" 
			},
			{
				"x": -1.1488097808,
				"y": 0.5899356098,
				"z": -0.8118458885,
				"element": "O" 
			},
			{
				"x": 0.9005224562,
				"y": -0.0931658544,
				"z": 0.2772112825,
				"element": "C" 
			},
			{
				"x": 1.629375572,
				"y": -0.2683228138,
				"z": -1.0643825189,
				"element": "C" 
			},
			{
				"x": 2.7469288143,
				"y": -1.3047677353,
				"z": -0.9318936963,
				"element": "C" 
			},
			{
				"x": 2.1631366369,
				"y": -2.6588265358,
				"z": -0.5344375334,
				"element": "C" 
			},
			{
				"x": 1.2649503412,
				"y": -2.5205902351,
				"z": 0.6112884664,
				"element": "N" 
			},
			{
				"x": 0.5233739079,
				"y": -1.4250223521,
				"z": 0.9566894872,
				"element": "C" 
			},
			{
				"x": -0.3555462352,
				"y": -1.4817836524,
				"z": 1.8071176091,
				"element": "O" 
			},
			{
				"x": -2.5529762944,
				"y": 1.2280753199,
				"z": 2.8625198803,
				"element": "H" 
			},
			{
				"x": -3.0911052973,
				"y": 0.6083798777,
				"z": 1.2908733774,
				"element": "H" 
			},
			{
				"x": -3.7849406706,
				"y": 2.1117660708,
				"z": 1.9332232242,
				"element": "H" 
			},
			{
				"x": -1.5459286341,
				"y": 3.2383477317,
				"z": 1.7130123708,
				"element": "H" 
			},
			{
				"x": -2.0694975298,
				"y": 2.581222314,
				"z": 0.1388129215,
				"element": "H" 
			},
			{
				"x": 1.5452510116,
				"y": 0.4278625663,
				"z": 0.99492144,
				"element": "H" 
			},
			{
				"x": 2.029749981,
				"y": 0.6960138938,
				"z": -1.3952150608,
				"element": "H" 
			},
			{
				"x": 0.901322466,
				"y": -0.5851158751,
				"z": -1.8195541469,
				"element": "H" 
			},
			{
				"x": 3.4729947586,
				"y": -0.9800609666,
				"z": -0.1758647,
				"element": "H" 
			},
			{
				"x": 3.2899822369,
				"y": -1.4142561077,
				"z": -1.8764415658,
				"element": "H" 
			},
			{
				"x": 1.6234694951,
				"y": -3.0919989352,
				"z": -1.3903564885,
				"element": "H" 
			},
			{
				"x": 2.9610196167,
				"y": -3.3602471986,
				"z": -0.2664306602,
				"element": "H" 
			},
			{
				"x": 0.9451665591,
				"y": -3.3658328208,
				"z": 1.0681373132,
				"element": "H" 
			}
		],
		 "valence_orbital": [ 
			{
				"type": "occ",
				"energy": -0.32977,
				"method": "rhf"
			},
			{
				"type": "occ",
				"energy": -0.29173,
				"method": "rhf"
			},
			{
				"type": "occ",
				"energy": -0.26668,
				"method": "rhf"
			},
			{
				"type": "occ",
				"energy": -0.25348,
				"method": "rhf"
			},
			{
				"type": "occ",
				"energy": -0.24511,
				"method": "rhf"
			},
			{
				"type": "unocc",
				"energy": 0.01301,
				"method": "rhf"
			},
			{
				"type": "unocc",
				"energy": 0.02557,
				"method": "rhf"
			},
			{
				"type": "unocc",
				"energy": 0.07664,
				"method": "rhf"
			},
			{
				"type": "unocc",
				"energy": 0.10906,
				"method": "rhf"
			},
			{
				"type": "unocc",
				"energy": 0.11437,
				"method": "rhf"
			}
		],
		"cosmo_sigma_profile": { 
			"-0.025": 0.0,
			"-0.024": 0.0,
			"-0.023": 0.0,
			"-0.022": 0.0,
			"-0.021": 0.0,
			"-0.02": 0.0,
			"-0.019": 0.0,
			"-0.018": 0.0,
			"-0.017": 0.0,
			"-0.016": 0.0,
			"-0.015": 0.0,
			"-0.014": 0.386287189949,
			"-0.013": 0.996042173074,
			"-0.012": 1.27549862903,
			"-0.011": 1.1552058683,
			"-0.01": 0.771277888387,
			"-0.009": 1.05270956238,
			"-0.008": 0.937830370364,
			"-0.007": 2.41264727766,
			"-0.006": 6.22173636973,
			"-0.005": 15.3784243261,
			"-0.004": 31.1692367987,
			"-0.003": 30.1773571472,
			"-0.002": 24.1177578207,
			"-0.001": 15.6369894151,
			"0.0": 13.6114055158,
			"0.001": 8.50681823437,
			"0.002": 5.73020085345,
			"0.003": 5.91396204303,
			"0.004": 4.9550849009,
			"0.005": 5.2055824894,
			"0.006": 4.87333721671,
			"0.007": 3.99456142198,
			"0.008": 4.8962259154,
			"0.009": 4.2857550554,
			"0.01": 4.50699618921,
			"0.011": 4.22073463554,
			"0.012": 6.48743780866,
			"0.013": 3.58812606875,
			"0.014": 2.9952665248,
			"0.015": 0.407283756923,
			"0.016": 0.0,
			"0.017": 0.0,
			"0.018": 0.0,
			"0.019": 0.0,
			"0.02": 0.0,
			"0.021": 0.0,
			"0.022": 0.0,
			"0.023": 0.0,
			"0.024": 0.0,
			"0.025": 0.0
		}
	}
}
