{
	 "smiles": "ClC1=CC=CC2=C1C(C#CC1=CC=CC=C1)=C1C=CC=CC1=C2C#CC1=CC=CC=C1", 
	 "Tm": 475.15, 
	 "num_atms": 48, 
	 "gaussian": { 
		 "optdone": 1, 
		 "sigma_profile": "yes", 
		 "theory": "DFT", 
		 "functional": "B3LYP", 
		 "basiset": "6-31G**", 
		 "properties": { 
			 "R2extent": 20025.3631, 
			 "electric_dipole_moment_norm": 1.80512358303, 
			 "electric_quadrupole_moment_norm": 30.6518668239, 
			 "total_energy": -1613.53746801, 
			 "HOMO_LUMO_gap": 0.09427, 
			 "cosmo_polarized_energy": -10.91, 
			 "cosmo_cavitation_energy": 56.06, 
			 "cosmo_dispersion_energy": -38.94, 
			 "cosmo_repulsion_energy": 2.83, 
			 "cosmo_total_nonelectrostatic_energy": 19.95, 
			 "SMD_solvation_energy": 8.42 
		},
		"coords": [
			{
				"x": 3.4920986528,
				"y": 1.9354248248,
				"z": 0.1609443701,
				"element": "Cl" 
			},
			{
				"x": 2.4552238441,
				"y": 0.8982816342,
				"z": 1.1359290247,
				"element": "C" 
			},
			{
				"x": 2.8964949037,
				"y": 0.701454945,
				"z": 2.4224770948,
				"element": "C" 
			},
			{
				"x": 2.1336934106,
				"y": -0.0549593381,
				"z": 3.3394944576,
				"element": "C" 
			},
			{
				"x": 0.9306861922,
				"y": -0.5744232402,
				"z": 2.950585945,
				"element": "C" 
			},
			{
				"x": 0.4367822605,
				"y": -0.3914556015,
				"z": 1.6264552133,
				"element": "C" 
			},
			{
				"x": 1.2187251839,
				"y": 0.3397026326,
				"z": 0.6467004357,
				"element": "C" 
			},
			{
				"x": 0.7194328026,
				"y": 0.4452863628,
				"z": -0.6892476892,
				"element": "C" 
			},
			{
				"x": 1.450501653,
				"y": 1.024004076,
				"z": -1.7588672733,
				"element": "C" 
			},
			{
				"x": 1.9761457855,
				"y": 1.4533566302,
				"z": -2.771335764,
				"element": "C" 
			},
			{
				"x": 2.6863925995,
				"y": 1.9773978464,
				"z": -3.887069407,
				"element": "C" 
			},
			{
				"x": 4.0721666445,
				"y": 2.2266343006,
				"z": -3.7910184489,
				"element": "C" 
			},
			{
				"x": 4.7707325443,
				"y": 2.7397328323,
				"z": -4.8797600057,
				"element": "C" 
			},
			{
				"x": 4.1073882378,
				"y": 3.0133778857,
				"z": -6.0792002113,
				"element": "C" 
			},
			{
				"x": 2.7354904387,
				"y": 2.7697188663,
				"z": -6.1853333497,
				"element": "C" 
			},
			{
				"x": 2.0276787755,
				"y": 2.2560599481,
				"z": -5.1025202073,
				"element": "C" 
			},
			{
				"x": -0.5698031809,
				"y": -0.0884236526,
				"z": -1.0171383129,
				"element": "C" 
			},
			{
				"x": -1.1150408614,
				"y": 0.036477925,
				"z": -2.331452009,
				"element": "C" 
			},
			{
				"x": -2.3511518045,
				"y": -0.4671265224,
				"z": -2.6455167055,
				"element": "C" 
			},
			{
				"x": -3.1240297022,
				"y": -1.1382031544,
				"z": -1.6620588509,
				"element": "C" 
			},
			{
				"x": -2.6337994764,
				"y": -1.2856877316,
				"z": -0.3912202471,
				"element": "C" 
			},
			{
				"x": -1.3524592771,
				"y": -0.7719906471,
				"z": -0.0291740693,
				"element": "C" 
			},
			{
				"x": -0.8321132572,
				"y": -0.9373109626,
				"z": 1.2806225457,
				"element": "C" 
			},
			{
				"x": -1.5866712681,
				"y": -1.6491190568,
				"z": 2.2488782562,
				"element": "C" 
			},
			{
				"x": -2.2455060049,
				"y": -2.2630592441,
				"z": 3.0707507437,
				"element": "C" 
			},
			{
				"x": -3.0128779094,
				"y": -2.9800304614,
				"z": 4.0315024865,
				"element": "C" 
			},
			{
				"x": -4.2557185536,
				"y": -3.5471022395,
				"z": 3.6794893857,
				"element": "C" 
			},
			{
				"x": -5.0025440814,
				"y": -4.2472920738,
				"z": 4.6222451704,
				"element": "C" 
			},
			{
				"x": -4.5289439594,
				"y": -4.3965086345,
				"z": 5.9284713957,
				"element": "C" 
			},
			{
				"x": -3.2990705098,
				"y": -3.8391818901,
				"z": 6.2884483199,
				"element": "C" 
			},
			{
				"x": -2.5449099601,
				"y": -3.1369675325,
				"z": 5.3530569832,
				"element": "C" 
			},
			{
				"x": 3.8345137704,
				"y": 1.1488519847,
				"z": 2.7303284332,
				"element": "H" 
			},
			{
				"x": 2.5022496327,
				"y": -0.202121981,
				"z": 4.3498423798,
				"element": "H" 
			},
			{
				"x": 0.3208453838,
				"y": -1.1381067451,
				"z": 3.6459960781,
				"element": "H" 
			},
			{
				"x": 4.5828170905,
				"y": 2.008663633,
				"z": -2.8589245885,
				"element": "H" 
			},
			{
				"x": 5.8372880285,
				"y": 2.9264431516,
				"z": -4.7934545419,
				"element": "H" 
			},
			{
				"x": 4.6564521,
				"y": 3.4138141072,
				"z": -6.9263701788,
				"element": "H" 
			},
			{
				"x": 2.2157586202,
				"y": 2.9810000701,
				"z": -7.1154121092,
				"element": "H" 
			},
			{
				"x": 0.9615477605,
				"y": 2.0689064284,
				"z": -5.1828969631,
				"element": "H" 
			},
			{
				"x": -0.5281329988,
				"y": 0.5474906134,
				"z": -3.0837355986,
				"element": "H" 
			},
			{
				"x": -2.7417420076,
				"y": -0.3516236052,
				"z": -3.652356861,
				"element": "H" 
			},
			{
				"x": -4.1022062873,
				"y": -1.5340512912,
				"z": -1.9189524819,
				"element": "H" 
			},
			{
				"x": -3.2125613564,
				"y": -1.797655237,
				"z": 0.36897777,
				"element": "H" 
			},
			{
				"x": -4.6220771789,
				"y": -3.4312382929,
				"z": 2.6645382802,
				"element": "H" 
			},
			{
				"x": -5.9577457651,
				"y": -4.6786618385,
				"z": 4.3373170026,
				"element": "H" 
			},
			{
				"x": -5.1145867734,
				"y": -4.9436566684,
				"z": 6.6612390204,
				"element": "H" 
			},
			{
				"x": -2.9264977132,
				"y": -3.952213133,
				"z": 7.3023960247,
				"element": "H" 
			},
			{
				"x": -1.589916429,
				"y": -2.7032099227,
				"z": 5.6317290569,
				"element": "H" 
			}
		],
		 "valence_orbital": [ 
			{
				"type": "occ",
				"energy": -0.25269,
				"method": "rhf"
			},
			{
				"type": "occ",
				"energy": -0.25041,
				"method": "rhf"
			},
			{
				"type": "occ",
				"energy": -0.23759,
				"method": "rhf"
			},
			{
				"type": "occ",
				"energy": -0.23391,
				"method": "rhf"
			},
			{
				"type": "occ",
				"energy": -0.18405,
				"method": "rhf"
			},
			{
				"type": "unocc",
				"energy": -0.08978,
				"method": "rhf"
			},
			{
				"type": "unocc",
				"energy": -0.03067,
				"method": "rhf"
			},
			{
				"type": "unocc",
				"energy": -0.02666,
				"method": "rhf"
			},
			{
				"type": "unocc",
				"energy": -0.02048,
				"method": "rhf"
			},
			{
				"type": "unocc",
				"energy": -0.00896,
				"method": "rhf"
			}
		],
		"cosmo_sigma_profile": { 
			"-0.025": 0.0,
			"-0.024": 0.0,
			"-0.023": 0.0,
			"-0.022": 0.0,
			"-0.021": 0.0,
			"-0.02": 0.0,
			"-0.019": 0.0,
			"-0.018": 0.0,
			"-0.017": 0.0,
			"-0.016": 0.0,
			"-0.015": 0.0,
			"-0.014": 0.0,
			"-0.013": 0.0,
			"-0.012": 0.0,
			"-0.011": 0.0,
			"-0.01": 0.0,
			"-0.009": 0.0,
			"-0.008": 0.238202271113,
			"-0.007": 5.82924841407,
			"-0.006": 26.3958716883,
			"-0.005": 34.957562739,
			"-0.004": 38.0379574494,
			"-0.003": 28.5257667139,
			"-0.002": 25.4794206622,
			"-0.001": 23.2948572897,
			"0.0": 29.9585394248,
			"0.001": 48.6298934157,
			"0.002": 62.2479688559,
			"0.003": 54.5657284071,
			"0.004": 51.0087975962,
			"0.005": 24.9869535581,
			"0.006": 2.37305414501,
			"0.007": 0.415971265447,
			"0.008": 0.0,
			"0.009": 0.0,
			"0.01": 0.0,
			"0.011": 0.0,
			"0.012": 0.0,
			"0.013": 0.0,
			"0.014": 0.0,
			"0.015": 0.0,
			"0.016": 0.0,
			"0.017": 0.0,
			"0.018": 0.0,
			"0.019": 0.0,
			"0.02": 0.0,
			"0.021": 0.0,
			"0.022": 0.0,
			"0.023": 0.0,
			"0.024": 0.0,
			"0.025": 0.0
		}
	}
}
