{
	 "smiles": "CCNC1=C(C=C(C=C1)C(O)=O)[N+]([O-])=O", 
	 "Tm": 513.15, 
	 "num_atms": 25, 
	 "gaussian": { 
		 "optdone": 1, 
		 "sigma_profile": "yes", 
		 "theory": "DFT", 
		 "functional": "B3LYP", 
		 "basiset": "6-31G**", 
		 "properties": { 
			 "R2extent": 4192.0765, 
			 "electric_dipole_moment_norm": 6.29174463802, 
			 "electric_quadrupole_moment_norm": 11.0019900259, 
			 "total_energy": -759.299836177, 
			 "HOMO_LUMO_gap": 0.14931, 
			 "cosmo_polarized_energy": -17.89, 
			 "cosmo_cavitation_energy": 29.89, 
			 "cosmo_dispersion_energy": -21.68, 
			 "cosmo_repulsion_energy": 1.7, 
			 "cosmo_total_nonelectrostatic_energy": 9.91, 
			 "SMD_solvation_energy": 7.8 
		},
		"coords": [
			{
				"x": -0.5328323392,
				"y": -2.9170479992,
				"z": 2.7088925211,
				"element": "C" 
			},
			{
				"x": 0.1965907422,
				"y": -2.2327337329,
				"z": 1.5545058889,
				"element": "C" 
			},
			{
				"x": 0.6542681708,
				"y": -0.9056919795,
				"z": 1.9683581801,
				"element": "N" 
			},
			{
				"x": 0.7351272599,
				"y": 0.2308403346,
				"z": 1.2180810807,
				"element": "C" 
			},
			{
				"x": 0.86270931,
				"y": 0.2993781894,
				"z": -0.1980015678,
				"element": "C" 
			},
			{
				"x": 0.7778292673,
				"y": 1.5135575579,
				"z": -0.8794340379,
				"element": "C" 
			},
			{
				"x": 0.6463087467,
				"y": 2.7147191294,
				"z": -0.1912308651,
				"element": "C" 
			},
			{
				"x": 0.601462324,
				"y": 2.6811583394,
				"z": 1.2176033719,
				"element": "C" 
			},
			{
				"x": 0.6387046925,
				"y": 1.4799052172,
				"z": 1.8917680587,
				"element": "C" 
			},
			{
				"x": 0.5852611656,
				"y": 3.9699354855,
				"z": -0.9707459045,
				"element": "C" 
			},
			{
				"x": 0.4724929451,
				"y": 5.0730808997,
				"z": -0.1841114223,
				"element": "O" 
			},
			{
				"x": 0.6275788896,
				"y": 4.0442003629,
				"z": -2.1834264555,
				"element": "O" 
			},
			{
				"x": 1.2194382329,
				"y": -0.8589454744,
				"z": -1.0159352144,
				"element": "N" 
			},
			{
				"x": 1.9634049736,
				"y": -1.7069320763,
				"z": -0.5127124046,
				"element": "O" 
			},
			{
				"x": 0.8146172962,
				"y": -0.8919539006,
				"z": -2.1786722312,
				"element": "O" 
			},
			{
				"x": 0.1227782294,
				"y": -3.025340114,
				"z": 3.5807892614,
				"element": "H" 
			},
			{
				"x": -0.8475840471,
				"y": -3.9203660069,
				"z": 2.4095313842,
				"element": "H" 
			},
			{
				"x": -1.4233401332,
				"y": -2.3566245255,
				"z": 3.0120934598,
				"element": "H" 
			},
			{
				"x": 1.0406987159,
				"y": -2.8400490512,
				"z": 1.2157774353,
				"element": "H" 
			},
			{
				"x": -0.4798030709,
				"y": -2.125031044,
				"z": 0.6980338725,
				"element": "H" 
			},
			{
				"x": 0.5793698696,
				"y": -0.7317134695,
				"z": 2.9607065507,
				"element": "H" 
			},
			{
				"x": 0.8502793787,
				"y": 1.5163723473,
				"z": -1.9602024255,
				"element": "H" 
			},
			{
				"x": 0.5154283995,
				"y": 3.6088679883,
				"z": 1.7718653141,
				"element": "H" 
			},
			{
				"x": 0.5585509571,
				"y": 1.4692297173,
				"z": 2.9759173722,
				"element": "H" 
			},
			{
				"x": 0.4413600238,
				"y": 5.8271838051,
				"z": -0.7951512227,
				"element": "H" 
			}
		],
		 "valence_orbital": [ 
			{
				"type": "occ",
				"energy": -0.29982,
				"method": "rhf"
			},
			{
				"type": "occ",
				"energy": -0.29552,
				"method": "rhf"
			},
			{
				"type": "occ",
				"energy": -0.2776,
				"method": "rhf"
			},
			{
				"type": "occ",
				"energy": -0.27196,
				"method": "rhf"
			},
			{
				"type": "occ",
				"energy": -0.22676,
				"method": "rhf"
			},
			{
				"type": "unocc",
				"energy": -0.07745,
				"method": "rhf"
			},
			{
				"type": "unocc",
				"energy": -0.04737,
				"method": "rhf"
			},
			{
				"type": "unocc",
				"energy": -0.01159,
				"method": "rhf"
			},
			{
				"type": "unocc",
				"energy": 0.05326,
				"method": "rhf"
			},
			{
				"type": "unocc",
				"energy": 0.06272,
				"method": "rhf"
			}
		],
		"cosmo_sigma_profile": { 
			"-0.025": 0.0,
			"-0.024": 0.0,
			"-0.023": 0.0,
			"-0.022": 0.0,
			"-0.021": 0.0,
			"-0.02": 0.0,
			"-0.019": 0.117897903867,
			"-0.018": 0.561021626698,
			"-0.017": 1.05263933621,
			"-0.016": 1.16722555947,
			"-0.015": 0.672911669578,
			"-0.014": 1.00411322614,
			"-0.013": 2.29792101418,
			"-0.012": 2.54197053122,
			"-0.011": 1.76225594959,
			"-0.01": 2.91509112204,
			"-0.009": 1.76646750634,
			"-0.008": 3.40480490275,
			"-0.007": 5.35489754475,
			"-0.006": 8.60726760732,
			"-0.005": 10.5414003819,
			"-0.004": 15.2325063637,
			"-0.003": 19.4846312677,
			"-0.002": 18.697897486,
			"-0.001": 18.3437761912,
			"0.0": 21.7396755653,
			"0.001": 18.7115670641,
			"0.002": 13.2657986022,
			"0.003": 8.76548005954,
			"0.004": 4.73337165464,
			"0.005": 6.25144889027,
			"0.006": 6.77662126432,
			"0.007": 8.51557300238,
			"0.008": 10.8829580005,
			"0.009": 7.83321225893,
			"0.01": 5.31329389871,
			"0.011": 3.72270263424,
			"0.012": 5.00955397321,
			"0.013": 0.321684377929,
			"0.014": 0.0,
			"0.015": 0.0,
			"0.016": 0.0,
			"0.017": 0.0,
			"0.018": 0.0,
			"0.019": 0.0,
			"0.02": 0.0,
			"0.021": 0.0,
			"0.022": 0.0,
			"0.023": 0.0,
			"0.024": 0.0,
			"0.025": 0.0
		}
	}
}
