{
	 "smiles": "[O-][N+](=O)C1=C(C=C(Cl)C=C1Cl)C(Cl)Cl", 
	 "Tm": 318.15, 
	 "num_atms": 17, 
	 "gaussian": { 
		 "optdone": 1, 
		 "sigma_profile": "yes", 
		 "theory": "DFT", 
		 "functional": "B3LYP", 
		 "basiset": "6-31G**", 
		 "properties": { 
			 "R2extent": 5179.65, 
			 "electric_dipole_moment_norm": 4.29452042608, 
			 "electric_quadrupole_moment_norm": 11.2236448986, 
			 "total_energy": -2314.38888902, 
			 "HOMO_LUMO_gap": 0.19096, 
			 "cosmo_polarized_energy": -11.32, 
			 "cosmo_cavitation_energy": 29.6, 
			 "cosmo_dispersion_energy": -21.24, 
			 "cosmo_repulsion_energy": 1.68, 
			 "cosmo_total_nonelectrostatic_energy": 10.04, 
			 "SMD_solvation_energy": 6.15 
		},
		"coords": [
			{
				"x": 0.49710915,
				"y": 1.9754496232,
				"z": 1.6203841486,
				"element": "O" 
			},
			{
				"x": -0.5870702071,
				"y": 1.8065602251,
				"z": 1.0784774297,
				"element": "N" 
			},
			{
				"x": -1.6644954925,
				"y": 2.2658946155,
				"z": 1.4331509749,
				"element": "O" 
			},
			{
				"x": -0.6045085522,
				"y": 0.9141594959,
				"z": -0.1047358246,
				"element": "C" 
			},
			{
				"x": -0.425586596,
				"y": 1.4018474088,
				"z": -1.408945225,
				"element": "C" 
			},
			{
				"x": -0.4565573014,
				"y": 0.4883625739,
				"z": -2.4679053356,
				"element": "C" 
			},
			{
				"x": -0.6601169282,
				"y": -0.8693994521,
				"z": -2.2287747354,
				"element": "C" 
			},
			{
				"x": -0.6931071009,
				"y": -1.9829681284,
				"z": -3.5740819173,
				"element": "Cl" 
			},
			{
				"x": -0.8373325853,
				"y": -1.3521537168,
				"z": -0.937040085,
				"element": "C" 
			},
			{
				"x": -0.8078809634,
				"y": -0.4481890539,
				"z": 0.1248653748,
				"element": "C" 
			},
			{
				"x": -1.0296799835,
				"y": -1.0507528159,
				"z": 1.7439588392,
				"element": "Cl" 
			},
			{
				"x": -0.1980051534,
				"y": 2.8491509123,
				"z": -1.7840357244,
				"element": "C" 
			},
			{
				"x": 1.3400993086,
				"y": 3.5121670241,
				"z": -1.1141911733,
				"element": "Cl" 
			},
			{
				"x": -1.5982284362,
				"y": 3.9080847087,
				"z": -1.3691884786,
				"element": "Cl" 
			},
			{
				"x": -0.3212306064,
				"y": 0.836211927,
				"z": -3.4857747456,
				"element": "H" 
			},
			{
				"x": -0.9956265942,
				"y": -2.4067821652,
				"z": -0.7494115631,
				"element": "H" 
			},
			{
				"x": -0.0944819579,
				"y": 2.9220568177,
				"z": -2.8633519593,
				"element": "H" 
			}
		],
		 "valence_orbital": [ 
			{
				"type": "occ",
				"energy": -0.32029,
				"method": "rhf"
			},
			{
				"type": "occ",
				"energy": -0.31696,
				"method": "rhf"
			},
			{
				"type": "occ",
				"energy": -0.31687,
				"method": "rhf"
			},
			{
				"type": "occ",
				"energy": -0.29413,
				"method": "rhf"
			},
			{
				"type": "occ",
				"energy": -0.27869,
				"method": "rhf"
			},
			{
				"type": "unocc",
				"energy": -0.08773,
				"method": "rhf"
			},
			{
				"type": "unocc",
				"energy": -0.07718,
				"method": "rhf"
			},
			{
				"type": "unocc",
				"energy": -0.06119,
				"method": "rhf"
			},
			{
				"type": "unocc",
				"energy": -0.03182,
				"method": "rhf"
			},
			{
				"type": "unocc",
				"energy": -0.02037,
				"method": "rhf"
			}
		],
		"cosmo_sigma_profile": { 
			"-0.025": 0.0,
			"-0.024": 0.0,
			"-0.023": 0.0,
			"-0.022": 0.0,
			"-0.021": 0.0,
			"-0.02": 0.0,
			"-0.019": 0.0,
			"-0.018": 0.0,
			"-0.017": 0.0,
			"-0.016": 0.0,
			"-0.015": 0.0,
			"-0.014": 0.551003124132,
			"-0.013": 2.13850446705,
			"-0.012": 2.28691066893,
			"-0.011": 2.25661974464,
			"-0.01": 3.87602285689,
			"-0.009": 3.46533343087,
			"-0.008": 3.72525890883,
			"-0.007": 3.91074696265,
			"-0.006": 4.06486022842,
			"-0.005": 4.86463849703,
			"-0.004": 7.81041945952,
			"-0.003": 18.2531117283,
			"-0.002": 27.7326804404,
			"-0.001": 20.1064731934,
			"0.0": 18.9478342861,
			"0.001": 20.0715129572,
			"0.002": 25.4696996048,
			"0.003": 28.1647777839,
			"0.004": 19.0329273374,
			"0.005": 6.10367516351,
			"0.006": 12.577330802,
			"0.007": 8.10914424187,
			"0.008": 3.3078417114,
			"0.009": 0.248836167787,
			"0.01": 0.0,
			"0.011": 0.0,
			"0.012": 0.0,
			"0.013": 0.0,
			"0.014": 0.0,
			"0.015": 0.0,
			"0.016": 0.0,
			"0.017": 0.0,
			"0.018": 0.0,
			"0.019": 0.0,
			"0.02": 0.0,
			"0.021": 0.0,
			"0.022": 0.0,
			"0.023": 0.0,
			"0.024": 0.0,
			"0.025": 0.0
		}
	}
}
