{
	 "smiles": "OC(=O)CC1=CC(I)=C(OC2=CC(I)=C(O)C=C2)C(I)=C1", 
	 "Tm": 455.15, 
	 "num_atms": 30, 
	 "gaussian": { 
		 "optdone": 1, 
		 "sigma_profile": "no", 
		 "theory": "DFT", 
		 "functional": "B3LYP", 
		 "basiset": "6-31G**", 
		 "properties": { 
			 "R2extent": 9122.1663, 
			 "electric_dipole_moment_norm": 5.62230463956, 
			 "electric_quadrupole_moment_norm": 14.2390720758, 
			 "total_energy": -873.956759697, 
			 "HOMO_LUMO_gap": 0.15543, 
			 "cosmo_polarized_energy": -285484.86, 
			 "cosmo_cavitation_energy": 45.35, 
			 "cosmo_dispersion_energy": -34.49, 
			 "cosmo_repulsion_energy": 2.64, 
			 "cosmo_total_nonelectrostatic_energy": 13.5, 
			 "SMD_solvation_energy": 6.66 
		},
		"coords": [
			{
				"x": 2.4288129321,
				"y": -5.1103058574,
				"z": 0.0315312862,
				"element": "O" 
			},
			{
				"x": 2.0220517091,
				"y": -3.9306780602,
				"z": 0.5543282381,
				"element": "C" 
			},
			{
				"x": 0.9901496708,
				"y": -3.8058550832,
				"z": 1.1728195741,
				"element": "O" 
			},
			{
				"x": 3.0536473535,
				"y": -2.8425371638,
				"z": 0.2897181913,
				"element": "C" 
			},
			{
				"x": 2.5086429854,
				"y": -1.4360047532,
				"z": 0.3812122651,
				"element": "C" 
			},
			{
				"x": 2.558472798,
				"y": -0.5914511983,
				"z": -0.7303582423,
				"element": "C" 
			},
			{
				"x": 2.0708828099,
				"y": 0.7141030107,
				"z": -0.6520934245,
				"element": "C" 
			},
			{
				"x": 2.2115204485,
				"y": 1.9663678052,
				"z": -2.3481369151,
				"element": "I" 
			},
			{
				"x": 1.5157048945,
				"y": 1.204339695,
				"z": 0.5386227124,
				"element": "C" 
			},
			{
				"x": 1.1119789161,
				"y": 2.5089822326,
				"z": 0.6389916122,
				"element": "O" 
			},
			{
				"x": -0.2072455684,
				"y": 2.8511708705,
				"z": 0.3631214713,
				"element": "C" 
			},
			{
				"x": -0.5068595859,
				"y": 4.2096165198,
				"z": 0.4762920148,
				"element": "C" 
			},
			{
				"x": -1.8009685931,
				"y": 4.6548674192,
				"z": 0.2223650188,
				"element": "C" 
			},
			{
				"x": -2.2419477546,
				"y": 6.7130933945,
				"z": 0.3968885186,
				"element": "I" 
			},
			{
				"x": -2.8108652039,
				"y": 3.7519489775,
				"z": -0.1473284631,
				"element": "C" 
			},
			{
				"x": -4.0647350521,
				"y": 4.2267288866,
				"z": -0.3878408953,
				"element": "O" 
			},
			{
				"x": -2.484225006,
				"y": 2.3965675691,
				"z": -0.2537076229,
				"element": "C" 
			},
			{
				"x": -1.1915207163,
				"y": 1.9369485335,
				"z": -0.0017336175,
				"element": "C" 
			},
			{
				"x": 1.4842810114,
				"y": 0.3516888801,
				"z": 1.6554786823,
				"element": "C" 
			},
			{
				"x": 0.7262863688,
				"y": 1.0572632045,
				"z": 3.4974173066,
				"element": "I" 
			},
			{
				"x": 1.9697055447,
				"y": -0.9516237837,
				"z": 1.5790818045,
				"element": "C" 
			},
			{
				"x": 1.7510124367,
				"y": -5.7648122046,
				"z": 0.2719717414,
				"element": "H" 
			},
			{
				"x": 3.8517941701,
				"y": -2.9961528401,
				"z": 1.0293828172,
				"element": "H" 
			},
			{
				"x": 3.5105926836,
				"y": -3.0272319504,
				"z": -0.6858945339,
				"element": "H" 
			},
			{
				"x": 2.9838986452,
				"y": -0.9477730863,
				"z": -1.662286952,
				"element": "H" 
			},
			{
				"x": 0.2779548938,
				"y": 4.8995403444,
				"z": 0.7617709284,
				"element": "H" 
			},
			{
				"x": -4.6425162164,
				"y": 3.4897803421,
				"z": -0.6240374664,
				"element": "H" 
			},
			{
				"x": -3.2557477986,
				"y": 1.6844951463,
				"z": -0.5383494748,
				"element": "H" 
			},
			{
				"x": -0.965756588,
				"y": 0.880678954,
				"z": -0.0894145768,
				"element": "H" 
			},
			{
				"x": 1.9209978113,
				"y": -1.5957558043,
				"z": 2.4480880014,
				"element": "H" 
			}
		],
		 "valence_orbital": [ 
			{
				"type": "occ",
				"energy": -0.25835,
				"method": "rhf"
			},
			{
				"type": "occ",
				"energy": -0.2523,
				"method": "rhf"
			},
			{
				"type": "occ",
				"energy": -0.24599,
				"method": "rhf"
			},
			{
				"type": "occ",
				"energy": -0.24187,
				"method": "rhf"
			},
			{
				"type": "occ",
				"energy": -0.21523,
				"method": "rhf"
			},
			{
				"type": "unocc",
				"energy": -0.0598,
				"method": "rhf"
			},
			{
				"type": "unocc",
				"energy": -0.03826,
				"method": "rhf"
			},
			{
				"type": "unocc",
				"energy": -0.03491,
				"method": "rhf"
			},
			{
				"type": "unocc",
				"energy": -0.02999,
				"method": "rhf"
			},
			{
				"type": "unocc",
				"energy": -0.02806,
				"method": "rhf"
			}
		],
		"cosmo_sigma_profile": { 
			"0.0": 0.0,
			"0.0": 0.0,
			"0.0": 0.0,
			"0.0": 0.0,
			"0.0": 0.0,
			"0.0": 0.0,
			"0.0": 0.0,
			"0.0": 0.0,
			"0.0": 0.0,
			"0.0": 0.0,
			"0.0": 0.0,
			"0.0": 0.0,
			"0.0": 0.0,
			"0.0": 0.0,
			"0.0": 0.0,
			"0.0": 0.0,
			"0.0": 0.0,
			"0.0": 0.0,
			"0.0": 0.0,
			"0.0": 0.0,
			"0.0": 0.0,
			"0.0": 0.0,
			"0.0": 0.0,
			"0.0": 0.0,
			"0.0": 0.0,
			"0.0": 0.0,
			"0.0": 0.0,
			"0.0": 0.0,
			"0.0": 0.0,
			"0.0": 0.0,
			"0.0": 0.0,
			"0.0": 0.0,
			"0.0": 0.0,
			"0.0": 0.0,
			"0.0": 0.0,
			"0.0": 0.0,
			"0.0": 0.0,
			"0.0": 0.0,
			"0.0": 0.0,
			"0.0": 0.0,
			"0.0": 0.0,
			"0.0": 0.0,
			"0.0": 0.0,
			"0.0": 0.0,
			"0.0": 0.0,
			"0.0": 0.0,
			"0.0": 0.0,
			"0.0": 0.0,
			"0.0": 0.0,
			"0.0": 0.0,
			"0.0": 0.0
		}
	}
}
