{
	 "smiles": "BrCC(=O)C1=CC(=CC=C1)C#N", 
	 "Tm": 341.65, 
	 "num_atms": 18, 
	 "gaussian": { 
		 "optdone": 1, 
		 "sigma_profile": "yes", 
		 "theory": "DFT", 
		 "functional": "B3LYP", 
		 "basiset": "6-31G**", 
		 "properties": { 
			 "R2extent": 4458.9905, 
			 "electric_dipole_moment_norm": 5.21867605241, 
			 "electric_quadrupole_moment_norm": 15.4504690738, 
			 "total_energy": -3047.93179012, 
			 "HOMO_LUMO_gap": 0.18116, 
			 "cosmo_polarized_energy": -13.39, 
			 "cosmo_cavitation_energy": 26.32, 
			 "cosmo_dispersion_energy": -18.8, 
			 "cosmo_repulsion_energy": 1.5, 
			 "cosmo_total_nonelectrostatic_energy": 9.03, 
			 "SMD_solvation_energy": 5.41 
		},
		"coords": [
			{
				"x": -1.2506366277,
				"y": 3.0789232801,
				"z": 1.8927244681,
				"element": "Br" 
			},
			{
				"x": -2.3309656861,
				"y": 1.499052812,
				"z": 2.3969140491,
				"element": "C" 
			},
			{
				"x": -2.6067444213,
				"y": 0.617985811,
				"z": 1.1838110685,
				"element": "C" 
			},
			{
				"x": -3.735608034,
				"y": 0.5902633781,
				"z": 0.7244847053,
				"element": "O" 
			},
			{
				"x": -1.5123175813,
				"y": -0.2277056238,
				"z": 0.6080397192,
				"element": "C" 
			},
			{
				"x": -1.8468087456,
				"y": -1.0639741478,
				"z": -0.4647475517,
				"element": "C" 
			},
			{
				"x": -0.8794091316,
				"y": -1.9002924948,
				"z": -1.0324349211,
				"element": "C" 
			},
			{
				"x": 0.4336961407,
				"y": -1.9021667452,
				"z": -0.5262282637,
				"element": "C" 
			},
			{
				"x": 0.7642489718,
				"y": -1.068121176,
				"z": 0.5377659328,
				"element": "C" 
			},
			{
				"x": -0.1999520597,
				"y": -0.2335538016,
				"z": 1.1043882642,
				"element": "C" 
			},
			{
				"x": -1.22338212,
				"y": -2.7598626802,
				"z": -2.1294248388,
				"element": "C" 
			},
			{
				"x": -1.4939123713,
				"y": -3.4600912749,
				"z": -3.0175207101,
				"element": "N" 
			},
			{
				"x": -1.7759391238,
				"y": 0.9883979404,
				"z": 3.1836822246,
				"element": "H" 
			},
			{
				"x": -3.2770636517,
				"y": 1.8826086679,
				"z": 2.7698627679,
				"element": "H" 
			},
			{
				"x": -2.8635792454,
				"y": -1.0517870987,
				"z": -0.8405811211,
				"element": "H" 
			},
			{
				"x": 1.1783079881,
				"y": -2.5533868822,
				"z": -0.9716559236,
				"element": "H" 
			},
			{
				"x": 1.7778483012,
				"y": -1.0646830758,
				"z": 0.9253706078,
				"element": "H" 
			},
			{
				"x": 0.0829173977,
				"y": 0.4252931115,
				"z": 1.9176495226,
				"element": "H" 
			}
		],
		 "valence_orbital": [ 
			{
				"type": "occ",
				"energy": -0.30788,
				"method": "rhf"
			},
			{
				"type": "occ",
				"energy": -0.29816,
				"method": "rhf"
			},
			{
				"type": "occ",
				"energy": -0.28917,
				"method": "rhf"
			},
			{
				"type": "occ",
				"energy": -0.28028,
				"method": "rhf"
			},
			{
				"type": "occ",
				"energy": -0.27541,
				"method": "rhf"
			},
			{
				"type": "unocc",
				"energy": -0.09425,
				"method": "rhf"
			},
			{
				"type": "unocc",
				"energy": -0.06216,
				"method": "rhf"
			},
			{
				"type": "unocc",
				"energy": -0.03075,
				"method": "rhf"
			},
			{
				"type": "unocc",
				"energy": 0.0182,
				"method": "rhf"
			},
			{
				"type": "unocc",
				"energy": 0.0279,
				"method": "rhf"
			}
		],
		"cosmo_sigma_profile": { 
			"-0.025": 0.0,
			"-0.024": 0.0,
			"-0.023": 0.0,
			"-0.022": 0.0,
			"-0.021": 0.0,
			"-0.02": 0.0,
			"-0.019": 0.0,
			"-0.018": 0.0,
			"-0.017": 0.0,
			"-0.016": 0.0,
			"-0.015": 0.0,
			"-0.014": 0.0,
			"-0.013": 0.0,
			"-0.012": 0.0,
			"-0.011": 0.158182967478,
			"-0.01": 2.08424151705,
			"-0.009": 5.80683288431,
			"-0.008": 9.62790102883,
			"-0.007": 12.9656871115,
			"-0.006": 10.8097853773,
			"-0.005": 10.4323353558,
			"-0.004": 9.17529190988,
			"-0.003": 9.82500199847,
			"-0.002": 15.6279627446,
			"-0.001": 16.3536040934,
			"0.0": 20.43059359,
			"0.001": 17.4304461066,
			"0.002": 10.1707163687,
			"0.003": 10.2343801641,
			"0.004": 10.4837004266,
			"0.005": 10.4748401486,
			"0.006": 3.8144912874,
			"0.007": 4.53594480161,
			"0.008": 5.30504694805,
			"0.009": 5.45278885496,
			"0.01": 6.67225044381,
			"0.011": 4.73807297155,
			"0.012": 2.55962690679,
			"0.013": 0.927172127529,
			"0.014": 0.0,
			"0.015": 0.0,
			"0.016": 0.0,
			"0.017": 0.0,
			"0.018": 0.0,
			"0.019": 0.0,
			"0.02": 0.0,
			"0.021": 0.0,
			"0.022": 0.0,
			"0.023": 0.0,
			"0.024": 0.0,
			"0.025": 0.0
		}
	}
}
