{
	 "smiles": "CC(O)(CN)C1=CC=C(F)C=C1", 
	 "Tm": 343.15, 
	 "num_atms": 24, 
	 "gaussian": { 
		 "optdone": 1, 
		 "sigma_profile": "yes", 
		 "theory": "DFT", 
		 "functional": "B3LYP", 
		 "basiset": "6-31G**", 
		 "properties": { 
			 "R2extent": 3130.0203, 
			 "electric_dipole_moment_norm": 3.08291743808, 
			 "electric_quadrupole_moment_norm": 6.11247150096, 
			 "total_energy": -580.000797453, 
			 "HOMO_LUMO_gap": 0.22662, 
			 "cosmo_polarized_energy": -9.1, 
			 "cosmo_cavitation_energy": 26.75, 
			 "cosmo_dispersion_energy": -19.15, 
			 "cosmo_repulsion_energy": 1.51, 
			 "cosmo_total_nonelectrostatic_energy": 9.12, 
			 "SMD_solvation_energy": 4.57 
		},
		"coords": [
			{
				"x": -0.1435199409,
				"y": -0.3482992324,
				"z": -2.1545323889,
				"element": "C" 
			},
			{
				"x": -0.6449393845,
				"y": 0.4106830958,
				"z": -0.9204916551,
				"element": "C" 
			},
			{
				"x": -1.4498638083,
				"y": 1.4829592672,
				"z": -1.392048593,
				"element": "O" 
			},
			{
				"x": 0.5358721712,
				"y": 1.0408605368,
				"z": -0.1390709768,
				"element": "C" 
			},
			{
				"x": -0.0095509937,
				"y": 1.9923112668,
				"z": 0.8369340188,
				"element": "N" 
			},
			{
				"x": -1.4598367805,
				"y": -0.5256988359,
				"z": -0.0062535144,
				"element": "C" 
			},
			{
				"x": -2.8352779691,
				"y": -0.3261251329,
				"z": 0.1631116944,
				"element": "C" 
			},
			{
				"x": -3.595732212,
				"y": -1.169852158,
				"z": 0.9746532915,
				"element": "C" 
			},
			{
				"x": -2.9644114367,
				"y": -2.2247894183,
				"z": 1.6203512213,
				"element": "C" 
			},
			{
				"x": -3.690579261,
				"y": -3.0459935312,
				"z": 2.4103180752,
				"element": "F" 
			},
			{
				"x": -1.6016810243,
				"y": -2.459676551,
				"z": 1.4750749675,
				"element": "C" 
			},
			{
				"x": -0.8589469719,
				"y": -1.6060392184,
				"z": 0.6594959879,
				"element": "C" 
			},
			{
				"x": 0.4139149913,
				"y": 0.3302613801,
				"z": -2.8071670025,
				"element": "H" 
			},
			{
				"x": 0.5035600646,
				"y": -1.1854256623,
				"z": -1.8754401653,
				"element": "H" 
			},
			{
				"x": -0.9938349844,
				"y": -0.7450318169,
				"z": -2.7154836956,
				"element": "H" 
			},
			{
				"x": -1.3863967087,
				"y": 2.1518016002,
				"z": -0.6826011856,
				"element": "H" 
			},
			{
				"x": 1.1443266105,
				"y": 1.6061723911,
				"z": -0.8528490811,
				"element": "H" 
			},
			{
				"x": 1.175916952,
				"y": 0.2598936387,
				"z": 0.297276746,
				"element": "H" 
			},
			{
				"x": 0.7095598131,
				"y": 2.6216306433,
				"z": 1.1785516627,
				"element": "H" 
			},
			{
				"x": -0.3915999275,
				"y": 1.4982014979,
				"z": 1.6394436793,
				"element": "H" 
			},
			{
				"x": -3.3042936778,
				"y": 0.4988646498,
				"z": -0.3604427448,
				"element": "H" 
			},
			{
				"x": -4.6620146347,
				"y": -1.0204743969,
				"z": 1.1086462367,
				"element": "H" 
			},
			{
				"x": -1.143279966,
				"y": -3.2961736905,
				"z": 1.9918762882,
				"element": "H" 
			},
			{
				"x": 0.2043090795,
				"y": -1.797360323,
				"z": 0.5415471336,
				"element": "H" 
			}
		],
		 "valence_orbital": [ 
			{
				"type": "occ",
				"energy": -0.31621,
				"method": "rhf"
			},
			{
				"type": "occ",
				"energy": -0.26912,
				"method": "rhf"
			},
			{
				"type": "occ",
				"energy": -0.25601,
				"method": "rhf"
			},
			{
				"type": "occ",
				"energy": -0.25277,
				"method": "rhf"
			},
			{
				"type": "occ",
				"energy": -0.23484,
				"method": "rhf"
			},
			{
				"type": "unocc",
				"energy": -0.00822,
				"method": "rhf"
			},
			{
				"type": "unocc",
				"energy": 0.00508,
				"method": "rhf"
			},
			{
				"type": "unocc",
				"energy": 0.07158,
				"method": "rhf"
			},
			{
				"type": "unocc",
				"energy": 0.08891,
				"method": "rhf"
			},
			{
				"type": "unocc",
				"energy": 0.11376,
				"method": "rhf"
			}
		],
		"cosmo_sigma_profile": { 
			"-0.025": 0.0,
			"-0.024": 0.0,
			"-0.023": 0.0,
			"-0.022": 0.0,
			"-0.021": 0.0,
			"-0.02": 0.0,
			"-0.019": 0.0,
			"-0.018": 0.0,
			"-0.017": 0.0,
			"-0.016": 0.0,
			"-0.015": 0.0,
			"-0.014": 0.0,
			"-0.013": 0.0,
			"-0.012": 0.0,
			"-0.011": 0.769864845331,
			"-0.01": 2.07790094542,
			"-0.009": 2.09242106447,
			"-0.008": 2.53876527922,
			"-0.007": 5.29786531808,
			"-0.006": 9.85763475464,
			"-0.005": 9.70675405413,
			"-0.004": 15.7631628399,
			"-0.003": 18.8627349763,
			"-0.002": 17.7061832555,
			"-0.001": 15.1775755832,
			"0.0": 15.2110294298,
			"0.001": 18.3894867605,
			"0.002": 15.7071397163,
			"0.003": 13.7305584231,
			"0.004": 18.926517212,
			"0.005": 12.8230655323,
			"0.006": 2.46499975359,
			"0.007": 2.18373556713,
			"0.008": 1.39436019607,
			"0.009": 1.22618478557,
			"0.01": 1.59696743139,
			"0.011": 1.85452000961,
			"0.012": 1.42713468915,
			"0.013": 0.849710301447,
			"0.014": 1.27271031655,
			"0.015": 1.15369247647,
			"0.016": 0.0,
			"0.017": 0.0,
			"0.018": 0.0,
			"0.019": 0.0,
			"0.02": 0.0,
			"0.021": 0.0,
			"0.022": 0.0,
			"0.023": 0.0,
			"0.024": 0.0,
			"0.025": 0.0
		}
	}
}
