{
	 "smiles": "ON=CC1=CC=CC2=C1C=CC=C2Br", 
	 "Tm": 407.15, 
	 "num_atms": 22, 
	 "gaussian": { 
		 "optdone": 1, 
		 "sigma_profile": "yes", 
		 "theory": "DFT", 
		 "functional": "B3LYP", 
		 "basiset": "6-31G**", 
		 "properties": { 
			 "R2extent": 4729.088, 
			 "electric_dipole_moment_norm": 1.08023773772, 
			 "electric_quadrupole_moment_norm": 10.5940594684, 
			 "total_energy": -3125.31460946, 
			 "HOMO_LUMO_gap": 0.15475, 
			 "cosmo_polarized_energy": -8.76, 
			 "cosmo_cavitation_energy": 28.17, 
			 "cosmo_dispersion_energy": -21.5, 
			 "cosmo_repulsion_energy": 1.66, 
			 "cosmo_total_nonelectrostatic_energy": 8.34, 
			 "SMD_solvation_energy": 3.54 
		},
		"coords": [
			{
				"x": 4.1101699501,
				"y": 0.2233119156,
				"z": -1.6374327702,
				"element": "O" 
			},
			{
				"x": 3.8300913433,
				"y": 1.2676577964,
				"z": -0.7469333446,
				"element": "N" 
			},
			{
				"x": 2.6125005709,
				"y": 1.2905234844,
				"z": -0.3339393898,
				"element": "C" 
			},
			{
				"x": 1.4695108048,
				"y": 0.3953231582,
				"z": -0.5890059842,
				"element": "C" 
			},
			{
				"x": 1.6533886681,
				"y": -0.955271052,
				"z": -0.8491211846,
				"element": "C" 
			},
			{
				"x": 0.5536159426,
				"y": -1.824700776,
				"z": -0.988761864,
				"element": "C" 
			},
			{
				"x": -0.733823962,
				"y": -1.3553921265,
				"z": -0.8739367537,
				"element": "C" 
			},
			{
				"x": -0.9833277461,
				"y": 0.01917071,
				"z": -0.6255467459,
				"element": "C" 
			},
			{
				"x": 0.1307081321,
				"y": 0.9217272596,
				"z": -0.4893338632,
				"element": "C" 
			},
			{
				"x": -0.132041568,
				"y": 2.3037671222,
				"z": -0.2844416121,
				"element": "C" 
			},
			{
				"x": -1.4197472882,
				"y": 2.7780189277,
				"z": -0.1851591343,
				"element": "C" 
			},
			{
				"x": -2.5205316853,
				"y": 1.9012639663,
				"z": -0.2921724066,
				"element": "C" 
			},
			{
				"x": -2.2967856913,
				"y": 0.5631074164,
				"z": -0.5111720077,
				"element": "C" 
			},
			{
				"x": -3.8327662547,
				"y": -0.5747216195,
				"z": -0.6682291824,
				"element": "Br" 
			},
			{
				"x": 5.0358031521,
				"y": 0.3927294141,
				"z": -1.8577511138,
				"element": "H" 
			},
			{
				"x": 2.4484954345,
				"y": 2.1231499406,
				"z": 0.3463846298,
				"element": "H" 
			},
			{
				"x": 2.65885775,
				"y": -1.3453349869,
				"z": -0.9290786694,
				"element": "H" 
			},
			{
				"x": 0.7303248354,
				"y": -2.8784820249,
				"z": -1.1820141912,
				"element": "H" 
			},
			{
				"x": -1.5759169175,
				"y": -2.0293113151,
				"z": -0.9765862862,
				"element": "H" 
			},
			{
				"x": 0.6913191516,
				"y": 3.00556823,
				"z": -0.2293812636,
				"element": "H" 
			},
			{
				"x": -1.6001127472,
				"y": 3.8374241363,
				"z": -0.0302446364,
				"element": "H" 
			},
			{
				"x": -3.5330318754,
				"y": 2.2790704232,
				"z": -0.2118422259,
				"element": "H" 
			}
		],
		 "valence_orbital": [ 
			{
				"type": "occ",
				"energy": -0.28814,
				"method": "rhf"
			},
			{
				"type": "occ",
				"energy": -0.27465,
				"method": "rhf"
			},
			{
				"type": "occ",
				"energy": -0.25631,
				"method": "rhf"
			},
			{
				"type": "occ",
				"energy": -0.25528,
				"method": "rhf"
			},
			{
				"type": "occ",
				"energy": -0.21826,
				"method": "rhf"
			},
			{
				"type": "unocc",
				"energy": -0.06351,
				"method": "rhf"
			},
			{
				"type": "unocc",
				"energy": -0.02136,
				"method": "rhf"
			},
			{
				"type": "unocc",
				"energy": -0.01356,
				"method": "rhf"
			},
			{
				"type": "unocc",
				"energy": 0.00601,
				"method": "rhf"
			},
			{
				"type": "unocc",
				"energy": 0.05048,
				"method": "rhf"
			}
		],
		"cosmo_sigma_profile": { 
			"-0.025": 0.0,
			"-0.024": 0.0,
			"-0.023": 0.0,
			"-0.022": 0.0,
			"-0.021": 0.0,
			"-0.02": 0.0,
			"-0.019": 0.0,
			"-0.018": 0.398127704423,
			"-0.017": 0.845329913058,
			"-0.016": 1.03218195837,
			"-0.015": 1.11338389425,
			"-0.014": 0.818236080894,
			"-0.013": 0.104222575262,
			"-0.012": 0.267381814347,
			"-0.011": 0.40348727164,
			"-0.01": 1.29534393176,
			"-0.009": 1.72990011924,
			"-0.008": 3.48893147789,
			"-0.007": 6.39383032629,
			"-0.006": 10.3975391705,
			"-0.005": 12.9607695078,
			"-0.004": 12.2229480442,
			"-0.003": 11.5541764687,
			"-0.002": 11.9181963565,
			"-0.001": 11.870990621,
			"0.0": 15.8429270303,
			"0.001": 20.9456546138,
			"0.002": 34.4342853311,
			"0.003": 27.2716243577,
			"0.004": 18.4437274524,
			"0.005": 8.83247634569,
			"0.006": 3.74222259964,
			"0.007": 2.44159704952,
			"0.008": 2.40063541996,
			"0.009": 2.38681934963,
			"0.01": 1.45630947434,
			"0.011": 0.956758941569,
			"0.012": 1.12737658199,
			"0.013": 0.75667087827,
			"0.014": 0.133711977887,
			"0.015": 0.0,
			"0.016": 0.0,
			"0.017": 0.0,
			"0.018": 0.0,
			"0.019": 0.0,
			"0.02": 0.0,
			"0.021": 0.0,
			"0.022": 0.0,
			"0.023": 0.0,
			"0.024": 0.0,
			"0.025": 0.0
		}
	}
}
