{
	 "smiles": "CC1(C)[C@H]2CC[C@]1(C)C(=O)C2", 
	 "Tm": 452.15, 
	 "num_atms": 27, 
	 "gaussian": { 
		 "optdone": 1, 
		 "sigma_profile": "yes", 
		 "theory": "DFT", 
		 "functional": "B3LYP", 
		 "basiset": "6-31G**", 
		 "properties": { 
			 "R2extent": 1641.1733, 
			 "electric_dipole_moment_norm": 2.94727919614, 
			 "electric_quadrupole_moment_norm": 10.6751679383, 
			 "total_energy": -465.937958506, 
			 "HOMO_LUMO_gap": 0.22058, 
			 "cosmo_polarized_energy": -6.63, 
			 "cosmo_cavitation_energy": 25.95, 
			 "cosmo_dispersion_energy": -18.81, 
			 "cosmo_repulsion_energy": 1.47, 
			 "cosmo_total_nonelectrostatic_energy": 8.61, 
			 "SMD_solvation_energy": 4.7 
		},
		"coords": [
			{
				"x": -0.9330673172,
				"y": -0.964969175,
				"z": 1.4798843466,
				"element": "C" 
			},
			{
				"x": 0.2136253473,
				"y": -0.0149875388,
				"z": 1.096437943,
				"element": "C" 
			},
			{
				"x": 0.7375468172,
				"y": 0.6225704774,
				"z": 2.3974412995,
				"element": "C" 
			},
			{
				"x": 1.3267329853,
				"y": -0.690248252,
				"z": 0.2246205032,
				"element": "C" 
			},
			{
				"x": 0.5651050497,
				"y": -1.0713709408,
				"z": -1.0679431145,
				"element": "C" 
			},
			{
				"x": -0.4178994043,
				"y": 0.1251254674,
				"z": -1.2547192851,
				"element": "C" 
			},
			{
				"x": -0.1588179979,
				"y": 1.0390288149,
				"z": -0.0092693993,
				"element": "C" 
			},
			{
				"x": -1.2354811409,
				"y": 2.0729023863,
				"z": 0.2675804742,
				"element": "C" 
			},
			{
				"x": 1.2242286917,
				"y": 1.6399529263,
				"z": -0.302165814,
				"element": "C" 
			},
			{
				"x": 1.465781538,
				"y": 2.7854687991,
				"z": -0.6165379294,
				"element": "O" 
			},
			{
				"x": 2.2421359538,
				"y": 0.497950115,
				"z": -0.1381066281,
				"element": "C" 
			},
			{
				"x": -0.5620507809,
				"y": -1.7505778565,
				"z": 2.1484814942,
				"element": "H" 
			},
			{
				"x": -1.7175750236,
				"y": -0.4233567249,
				"z": 2.0192244477,
				"element": "H" 
			},
			{
				"x": -1.4021633314,
				"y": -1.4565289539,
				"z": 0.6254306158,
				"element": "H" 
			},
			{
				"x": -0.08159509,
				"y": 1.0975847274,
				"z": 2.947481382,
				"element": "H" 
			},
			{
				"x": 1.1682717852,
				"y": -0.1431101988,
				"z": 3.0526546512,
				"element": "H" 
			},
			{
				"x": 1.5005532849,
				"y": 1.3885778187,
				"z": 2.2358078023,
				"element": "H" 
			},
			{
				"x": 1.8448572769,
				"y": -1.5253854321,
				"z": 0.705370623,
				"element": "H" 
			},
			{
				"x": 1.2469764726,
				"y": -1.1888284045,
				"z": -1.9158200471,
				"element": "H" 
			},
			{
				"x": 0.0296427341,
				"y": -2.0183002417,
				"z": -0.9577939205,
				"element": "H" 
			},
			{
				"x": -0.2550218524,
				"y": 0.670013299,
				"z": -2.1899266186,
				"element": "H" 
			},
			{
				"x": -1.4627726347,
				"y": -0.2007159806,
				"z": -1.2582411085,
				"element": "H" 
			},
			{
				"x": -2.2173846009,
				"y": 1.6043237789,
				"z": 0.3912105227,
				"element": "H" 
			},
			{
				"x": -1.2963421078,
				"y": 2.7859989087,
				"z": -0.560155827,
				"element": "H" 
			},
			{
				"x": -1.013185216,
				"y": 2.649134066,
				"z": 1.1712023432,
				"element": "H" 
			},
			{
				"x": 2.8153963902,
				"y": 0.3531835657,
				"z": -1.0598069753,
				"element": "H" 
			},
			{
				"x": 2.959802171,
				"y": 0.7537645489,
				"z": 0.6478582188,
				"element": "H" 
			}
		],
		 "valence_orbital": [ 
			{
				"type": "occ",
				"energy": -0.33096,
				"method": "rhf"
			},
			{
				"type": "occ",
				"energy": -0.31958,
				"method": "rhf"
			},
			{
				"type": "occ",
				"energy": -0.30985,
				"method": "rhf"
			},
			{
				"type": "occ",
				"energy": -0.2941,
				"method": "rhf"
			},
			{
				"type": "occ",
				"energy": -0.22899,
				"method": "rhf"
			},
			{
				"type": "unocc",
				"energy": -0.00841,
				"method": "rhf"
			},
			{
				"type": "unocc",
				"energy": 0.0684,
				"method": "rhf"
			},
			{
				"type": "unocc",
				"energy": 0.1046,
				"method": "rhf"
			},
			{
				"type": "unocc",
				"energy": 0.10749,
				"method": "rhf"
			},
			{
				"type": "unocc",
				"energy": 0.11894,
				"method": "rhf"
			}
		],
		"cosmo_sigma_profile": { 
			"-0.025": 0.0,
			"-0.024": 0.0,
			"-0.023": 0.0,
			"-0.022": 0.0,
			"-0.021": 0.0,
			"-0.02": 0.0,
			"-0.019": 0.0,
			"-0.018": 0.0,
			"-0.017": 0.0,
			"-0.016": 0.0,
			"-0.015": 0.0,
			"-0.014": 0.0,
			"-0.013": 0.0,
			"-0.012": 0.0,
			"-0.011": 0.0,
			"-0.01": 0.0,
			"-0.009": 0.0,
			"-0.008": 0.0,
			"-0.007": 0.0,
			"-0.006": 0.435368718645,
			"-0.005": 4.49805204012,
			"-0.004": 11.2934625655,
			"-0.003": 27.5489133976,
			"-0.002": 36.9998492016,
			"-0.001": 34.5096280399,
			"0.0": 28.9704421273,
			"0.001": 24.596302764,
			"0.002": 6.6267853851,
			"0.003": 1.56704299548,
			"0.004": 1.49980172178,
			"0.005": 1.51025597613,
			"0.006": 1.71172764326,
			"0.007": 1.64201071249,
			"0.008": 1.44841317559,
			"0.009": 1.62599150837,
			"0.01": 2.16459124911,
			"0.011": 2.86143853309,
			"0.012": 4.73225033262,
			"0.013": 3.24565235115,
			"0.014": 0.374569180147,
			"0.015": 0.0,
			"0.016": 0.0,
			"0.017": 0.0,
			"0.018": 0.0,
			"0.019": 0.0,
			"0.02": 0.0,
			"0.021": 0.0,
			"0.022": 0.0,
			"0.023": 0.0,
			"0.024": 0.0,
			"0.025": 0.0
		}
	}
}
