{
	 "smiles": "CC1(COS(C)(=O)=O)COC1", 
	 "Tm": 306.15, 
	 "num_atms": 23, 
	 "gaussian": { 
		 "optdone": 1, 
		 "sigma_profile": "yes", 
		 "theory": "DFT", 
		 "functional": "B3LYP", 
		 "basiset": "6-31G**", 
		 "properties": { 
			 "R2extent": 2755.6177, 
			 "electric_dipole_moment_norm": 1.28721375847, 
			 "electric_quadrupole_moment_norm": 23.6604806974, 
			 "total_energy": -934.844988718, 
			 "HOMO_LUMO_gap": 0.28825, 
			 "cosmo_polarized_energy": -14.91, 
			 "cosmo_cavitation_energy": 27.21, 
			 "cosmo_dispersion_energy": -19.69, 
			 "cosmo_repulsion_energy": 1.55, 
			 "cosmo_total_nonelectrostatic_energy": 9.07, 
			 "SMD_solvation_energy": 4.37 
		},
		"coords": [
			{
				"x": -0.7316017939,
				"y": -0.2398536282,
				"z": -2.1351159748,
				"element": "C" 
			},
			{
				"x": -0.6721670423,
				"y": 0.0538532393,
				"z": -0.6347921582,
				"element": "C" 
			},
			{
				"x": 0.6607742276,
				"y": -0.4290026001,
				"z": -0.0797934455,
				"element": "C" 
			},
			{
				"x": 0.7059675099,
				"y": -0.1453108159,
				"z": 1.3445939661,
				"element": "O" 
			},
			{
				"x": 2.0883688509,
				"y": -0.6114266732,
				"z": 2.1042000789,
				"element": "S" 
			},
			{
				"x": 1.611821399,
				"y": -0.0493989241,
				"z": 3.7375718919,
				"element": "C" 
			},
			{
				"x": 3.2015716563,
				"y": 0.1920881906,
				"z": 1.6028398087,
				"element": "O" 
			},
			{
				"x": 2.1753131302,
				"y": -2.0702668572,
				"z": 2.0819562253,
				"element": "O" 
			},
			{
				"x": -1.1009160965,
				"y": 1.4915034383,
				"z": -0.2409216419,
				"element": "C" 
			},
			{
				"x": -2.3100045004,
				"y": 1.0104839883,
				"z": 0.3843014055,
				"element": "O" 
			},
			{
				"x": -1.9387833856,
				"y": -0.3658279658,
				"z": 0.1559713114,
				"element": "C" 
			},
			{
				"x": 0.0737105893,
				"y": 0.2723474504,
				"z": -2.6738191576,
				"element": "H" 
			},
			{
				"x": -0.6415198669,
				"y": -1.3136314736,
				"z": -2.3349936642,
				"element": "H" 
			},
			{
				"x": -1.6840101674,
				"y": 0.100597755,
				"z": -2.552047609,
				"element": "H" 
			},
			{
				"x": 0.7756702004,
				"y": -1.508982224,
				"z": -0.2267755057,
				"element": "H" 
			},
			{
				"x": 1.4957666078,
				"y": 0.0868724189,
				"z": -0.5674677909,
				"element": "H" 
			},
			{
				"x": 2.4448184655,
				"y": -0.2864042791,
				"z": 4.4011665773,
				"element": "H" 
			},
			{
				"x": 0.7122612809,
				"y": -0.5833589282,
				"z": 4.0428043193,
				"element": "H" 
			},
			{
				"x": 1.4418952016,
				"y": 1.026394946,
				"z": 3.7018324294,
				"element": "H" 
			},
			{
				"x": -0.4392586238,
				"y": 1.993545779,
				"z": 0.4751524393,
				"element": "H" 
			},
			{
				"x": -1.308773514,
				"y": 2.1678584985,
				"z": -1.0801963591,
				"element": "H" 
			},
			{
				"x": -2.6969828019,
				"y": -0.9093958492,
				"z": -0.4225669494,
				"element": "H" 
			},
			{
				"x": -1.744721327,
				"y": -0.9003854857,
				"z": 1.0935998031,
				"element": "H" 
			}
		],
		 "valence_orbital": [ 
			{
				"type": "occ",
				"energy": -0.32113,
				"method": "rhf"
			},
			{
				"type": "occ",
				"energy": -0.31725,
				"method": "rhf"
			},
			{
				"type": "occ",
				"energy": -0.30402,
				"method": "rhf"
			},
			{
				"type": "occ",
				"energy": -0.29328,
				"method": "rhf"
			},
			{
				"type": "occ",
				"energy": -0.24971,
				"method": "rhf"
			},
			{
				"type": "unocc",
				"energy": 0.03854,
				"method": "rhf"
			},
			{
				"type": "unocc",
				"energy": 0.05736,
				"method": "rhf"
			},
			{
				"type": "unocc",
				"energy": 0.06927,
				"method": "rhf"
			},
			{
				"type": "unocc",
				"energy": 0.08676,
				"method": "rhf"
			},
			{
				"type": "unocc",
				"energy": 0.09451,
				"method": "rhf"
			}
		],
		"cosmo_sigma_profile": { 
			"-0.025": 0.0,
			"-0.024": 0.0,
			"-0.023": 0.0,
			"-0.022": 0.0,
			"-0.021": 0.0,
			"-0.02": 0.0,
			"-0.019": 0.0,
			"-0.018": 0.0,
			"-0.017": 0.0,
			"-0.016": 0.0,
			"-0.015": 0.0,
			"-0.014": 0.0,
			"-0.013": 0.0,
			"-0.012": 0.0,
			"-0.011": 0.261410307094,
			"-0.01": 1.95589033187,
			"-0.009": 5.11384879664,
			"-0.008": 4.38252711057,
			"-0.007": 6.81754324024,
			"-0.006": 11.1194637954,
			"-0.005": 17.1904983882,
			"-0.004": 27.0563412045,
			"-0.003": 24.2772520844,
			"-0.002": 15.79013972,
			"-0.001": 13.7144807022,
			"0.0": 11.0353732906,
			"0.001": 6.86956049864,
			"0.002": 5.76898837061,
			"0.003": 5.37047250867,
			"0.004": 5.13513237111,
			"0.005": 4.36188875266,
			"0.006": 3.62548162809,
			"0.007": 4.33177313742,
			"0.008": 5.17126573305,
			"0.009": 4.51407404108,
			"0.01": 13.4321660673,
			"0.011": 9.65510819001,
			"0.012": 1.68030817921,
			"0.013": 2.08324819977,
			"0.014": 2.1385998495,
			"0.015": 0.153451269259,
			"0.016": 0.0,
			"0.017": 0.0,
			"0.018": 0.0,
			"0.019": 0.0,
			"0.02": 0.0,
			"0.021": 0.0,
			"0.022": 0.0,
			"0.023": 0.0,
			"0.024": 0.0,
			"0.025": 0.0
		}
	}
}
