{
	 "smiles": "CCN1C(C)=C(C(O)=O)C2=C1C=CC(OC)=C2", 
	 "Tm": 447.15, 
	 "num_atms": 32, 
	 "gaussian": { 
		 "optdone": 1, 
		 "sigma_profile": "yes", 
		 "theory": "DFT", 
		 "functional": "B3LYP", 
		 "basiset": "6-31G**", 
		 "properties": { 
			 "R2extent": 5184.4274, 
			 "electric_dipole_moment_norm": 5.05500304451, 
			 "electric_quadrupole_moment_norm": 17.3719903333, 
			 "total_energy": -784.873929592, 
			 "HOMO_LUMO_gap": 0.17113, 
			 "cosmo_polarized_energy": -16.36, 
			 "cosmo_cavitation_energy": 34.8, 
			 "cosmo_dispersion_energy": -25.08, 
			 "cosmo_repulsion_energy": 1.92, 
			 "cosmo_total_nonelectrostatic_energy": 11.64, 
			 "SMD_solvation_energy": 7.47 
		},
		"coords": [
			{
				"x": 2.5899934228,
				"y": -1.8283224688,
				"z": 0.0055114521,
				"element": "C" 
			},
			{
				"x": 1.9778561401,
				"y": -0.839281885,
				"z": -0.9926203551,
				"element": "C" 
			},
			{
				"x": 1.2368681795,
				"y": 0.2406695222,
				"z": -0.3516772116,
				"element": "N" 
			},
			{
				"x": 1.7218346131,
				"y": 1.4884013035,
				"z": -0.029219259,
				"element": "C" 
			},
			{
				"x": 3.1160803891,
				"y": 1.8818703885,
				"z": -0.4047223265,
				"element": "C" 
			},
			{
				"x": 0.7241371716,
				"y": 2.2046359173,
				"z": 0.6337826818,
				"element": "C" 
			},
			{
				"x": 0.7464213454,
				"y": 3.5618190415,
				"z": 1.1608133821,
				"element": "C" 
			},
			{
				"x": 1.921478297,
				"y": 4.2378803005,
				"z": 0.9707306075,
				"element": "O" 
			},
			{
				"x": -0.1844768444,
				"y": 4.1027537732,
				"z": 1.7362516027,
				"element": "O" 
			},
			{
				"x": -0.4338421969,
				"y": 1.3411313437,
				"z": 0.7275077729,
				"element": "C" 
			},
			{
				"x": -0.0766002322,
				"y": 0.1206008373,
				"z": 0.1058958987,
				"element": "C" 
			},
			{
				"x": -0.9678529852,
				"y": -0.9466690724,
				"z": 0.0165814336,
				"element": "C" 
			},
			{
				"x": -2.2431729323,
				"y": -0.7845837881,
				"z": 0.5579049075,
				"element": "C" 
			},
			{
				"x": -2.6112754456,
				"y": 0.4279199313,
				"z": 1.1783385001,
				"element": "C" 
			},
			{
				"x": -3.8464846261,
				"y": 0.6515833692,
				"z": 1.7309730807,
				"element": "O" 
			},
			{
				"x": -4.8093939517,
				"y": -0.3831746343,
				"z": 1.6744959975,
				"element": "C" 
			},
			{
				"x": -1.7141861497,
				"y": 1.4947064523,
				"z": 1.2671062336,
				"element": "C" 
			},
			{
				"x": 3.3138361755,
				"y": -1.3309371511,
				"z": 0.657937289,
				"element": "H" 
			},
			{
				"x": 1.8167122392,
				"y": -2.2736748998,
				"z": 0.6374760753,
				"element": "H" 
			},
			{
				"x": 3.1055376435,
				"y": -2.6334184808,
				"z": -0.528008283,
				"element": "H" 
			},
			{
				"x": 1.2889901211,
				"y": -1.3568872065,
				"z": -1.6683894684,
				"element": "H" 
			},
			{
				"x": 2.7558826835,
				"y": -0.3969377066,
				"z": -1.6191176851,
				"element": "H" 
			},
			{
				"x": 3.8540601474,
				"y": 1.1823921476,
				"z": 0.0052665512,
				"element": "H" 
			},
			{
				"x": 3.3357295858,
				"y": 2.877374805,
				"z": -0.0274476414,
				"element": "H" 
			},
			{
				"x": 3.2455400754,
				"y": 1.8918760042,
				"z": -1.4943206623,
				"element": "H" 
			},
			{
				"x": 1.770465933,
				"y": 5.1074400901,
				"z": 1.3761444761,
				"element": "H" 
			},
			{
				"x": -0.6948088099,
				"y": -1.8851804955,
				"z": -0.4558538245,
				"element": "H" 
			},
			{
				"x": -2.9456027596,
				"y": -1.606590906,
				"z": 0.4954712107,
				"element": "H" 
			},
			{
				"x": -4.476217334,
				"y": -1.283993055,
				"z": 2.2080234381,
				"element": "H" 
			},
			{
				"x": -5.0590400676,
				"y": -0.6559968262,
				"z": 0.6399336504,
				"element": "H" 
			},
			{
				"x": -5.7032012457,
				"y": 0.0084782221,
				"z": 2.1636884772,
				"element": "H" 
			},
			{
				"x": -2.0111685818,
				"y": 2.4190151268,
				"z": 1.745541998,
				"element": "H" 
			}
		],
		 "valence_orbital": [ 
			{
				"type": "occ",
				"energy": -0.28979,
				"method": "rhf"
			},
			{
				"type": "occ",
				"energy": -0.26486,
				"method": "rhf"
			},
			{
				"type": "occ",
				"energy": -0.25772,
				"method": "rhf"
			},
			{
				"type": "occ",
				"energy": -0.20746,
				"method": "rhf"
			},
			{
				"type": "occ",
				"energy": -0.19321,
				"method": "rhf"
			},
			{
				"type": "unocc",
				"energy": -0.02208,
				"method": "rhf"
			},
			{
				"type": "unocc",
				"energy": 0.01022,
				"method": "rhf"
			},
			{
				"type": "unocc",
				"energy": 0.03823,
				"method": "rhf"
			},
			{
				"type": "unocc",
				"energy": 0.07228,
				"method": "rhf"
			},
			{
				"type": "unocc",
				"energy": 0.09227,
				"method": "rhf"
			}
		],
		"cosmo_sigma_profile": { 
			"-0.025": 0.0,
			"-0.024": 0.0,
			"-0.023": 0.0,
			"-0.022": 0.0,
			"-0.021": 0.0,
			"-0.02": 0.0,
			"-0.019": 0.0,
			"-0.018": 0.09484562013,
			"-0.017": 0.60856972006,
			"-0.016": 0.63309788381,
			"-0.015": 1.10494234616,
			"-0.014": 1.01402789946,
			"-0.013": 0.103836486088,
			"-0.012": 0.375262635863,
			"-0.011": 0.828383154887,
			"-0.01": 0.985406877418,
			"-0.009": 0.879362329405,
			"-0.008": 0.368143240614,
			"-0.007": 2.4583190249,
			"-0.006": 12.3179718419,
			"-0.005": 24.898369789,
			"-0.004": 27.4755375241,
			"-0.003": 26.9178949856,
			"-0.002": 21.2516418747,
			"-0.001": 20.9119184168,
			"0.0": 19.5694981716,
			"0.001": 14.9385616044,
			"0.002": 12.0882471606,
			"0.003": 13.4069669366,
			"0.004": 15.1598412891,
			"0.005": 20.4870888296,
			"0.006": 11.6128064315,
			"0.007": 5.88507716373,
			"0.008": 2.95252904926,
			"0.009": 2.39271944268,
			"0.01": 3.57392246126,
			"0.011": 3.88384093506,
			"0.012": 3.24953120023,
			"0.013": 2.89809300002,
			"0.014": 0.0987614963657,
			"0.015": 0.0,
			"0.016": 0.0,
			"0.017": 0.0,
			"0.018": 0.0,
			"0.019": 0.0,
			"0.02": 0.0,
			"0.021": 0.0,
			"0.022": 0.0,
			"0.023": 0.0,
			"0.024": 0.0,
			"0.025": 0.0
		}
	}
}
