{
	 "smiles": "FC1=CC=CC=C1S(Cl)(=O)=O", 
	 "Tm": 303.15, 
	 "num_atms": 15, 
	 "gaussian": { 
		 "optdone": 1, 
		 "sigma_profile": "yes", 
		 "theory": "DFT", 
		 "functional": "B3LYP", 
		 "basiset": "6-31G**", 
		 "properties": { 
			 "R2extent": 2347.0913, 
			 "electric_dipole_moment_norm": 5.82915995663, 
			 "electric_quadrupole_moment_norm": 5.10634731976, 
			 "total_energy": -1339.63356382, 
			 "HOMO_LUMO_gap": 0.19219, 
			 "cosmo_polarized_energy": -9.14, 
			 "cosmo_cavitation_energy": 23.29, 
			 "cosmo_dispersion_energy": -17.68, 
			 "cosmo_repulsion_energy": 1.35, 
			 "cosmo_total_nonelectrostatic_energy": 6.96, 
			 "SMD_solvation_energy": 3.22 
		},
		"coords": [
			{
				"x": -0.2995497574,
				"y": 0.1928539584,
				"z": -2.9016023886,
				"element": "F" 
			},
			{
				"x": 0.40429607,
				"y": -0.4279906559,
				"z": -1.9501401695,
				"element": "C" 
			},
			{
				"x": 1.2412033275,
				"y": -1.4803678043,
				"z": -2.299123971,
				"element": "C" 
			},
			{
				"x": 1.9861734519,
				"y": -2.1135202694,
				"z": -1.3037137373,
				"element": "C" 
			},
			{
				"x": 1.8999761999,
				"y": -1.6976969106,
				"z": 0.0277191597,
				"element": "C" 
			},
			{
				"x": 1.0616769377,
				"y": -0.6400363856,
				"z": 0.3737134222,
				"element": "C" 
			},
			{
				"x": 0.3088298006,
				"y": -0.0077589471,
				"z": -0.6199810015,
				"element": "C" 
			},
			{
				"x": -0.8073861715,
				"y": 1.3016616073,
				"z": -0.1401038493,
				"element": "S" 
			},
			{
				"x": 0.1402031601,
				"y": 2.9934529117,
				"z": -1.008808477,
				"element": "Cl" 
			},
			{
				"x": -2.087276276,
				"y": 1.1474018237,
				"z": -0.8144209621,
				"element": "O" 
			},
			{
				"x": -0.7110206573,
				"y": 1.4731677689,
				"z": 1.3042835817,
				"element": "O" 
			},
			{
				"x": 1.2953847122,
				"y": -1.7828551348,
				"z": -3.3390114391,
				"element": "H" 
			},
			{
				"x": 2.6404716464,
				"y": -2.9365770618,
				"z": -1.5736223615,
				"element": "H" 
			},
			{
				"x": 2.4831442519,
				"y": -2.1948237363,
				"z": 0.7953961028,
				"element": "H" 
			},
			{
				"x": 0.9747733041,
				"y": -0.2961111644,
				"z": 1.3979160905,
				"element": "H" 
			}
		],
		 "valence_orbital": [ 
			{
				"type": "occ",
				"energy": -0.33857,
				"method": "rhf"
			},
			{
				"type": "occ",
				"energy": -0.33592,
				"method": "rhf"
			},
			{
				"type": "occ",
				"energy": -0.31468,
				"method": "rhf"
			},
			{
				"type": "occ",
				"energy": -0.29869,
				"method": "rhf"
			},
			{
				"type": "occ",
				"energy": -0.28239,
				"method": "rhf"
			},
			{
				"type": "unocc",
				"energy": -0.0902,
				"method": "rhf"
			},
			{
				"type": "unocc",
				"energy": -0.05271,
				"method": "rhf"
			},
			{
				"type": "unocc",
				"energy": -0.03715,
				"method": "rhf"
			},
			{
				"type": "unocc",
				"energy": 0.03747,
				"method": "rhf"
			},
			{
				"type": "unocc",
				"energy": 0.06326,
				"method": "rhf"
			}
		],
		"cosmo_sigma_profile": { 
			"-0.025": 0.0,
			"-0.024": 0.0,
			"-0.023": 0.0,
			"-0.022": 0.0,
			"-0.021": 0.0,
			"-0.02": 0.0,
			"-0.019": 0.0,
			"-0.018": 0.0,
			"-0.017": 0.0,
			"-0.016": 0.0,
			"-0.015": 0.0,
			"-0.014": 0.0,
			"-0.013": 0.0,
			"-0.012": 0.0,
			"-0.011": 0.0,
			"-0.01": 0.00195551872313,
			"-0.009": 1.70861749141,
			"-0.008": 7.48598399929,
			"-0.007": 9.64211453246,
			"-0.006": 8.99106508141,
			"-0.005": 7.22671920497,
			"-0.004": 8.17541194784,
			"-0.003": 9.66929837284,
			"-0.002": 15.5824529019,
			"-0.001": 16.7812359334,
			"0.0": 14.2912482626,
			"0.001": 18.7048126998,
			"0.002": 17.8466301787,
			"0.003": 19.9679171492,
			"0.004": 6.31013936558,
			"0.005": 4.10365630091,
			"0.006": 2.87185722803,
			"0.007": 8.50119400373,
			"0.008": 10.0062026733,
			"0.009": 2.75081893584,
			"0.01": 0.0,
			"0.011": 0.0,
			"0.012": 0.0,
			"0.013": 0.0,
			"0.014": 0.0,
			"0.015": 0.0,
			"0.016": 0.0,
			"0.017": 0.0,
			"0.018": 0.0,
			"0.019": 0.0,
			"0.02": 0.0,
			"0.021": 0.0,
			"0.022": 0.0,
			"0.023": 0.0,
			"0.024": 0.0,
			"0.025": 0.0
		}
	}
}
