{
	 "smiles": "CN(C)C1=CC=CC=C1C1=CC=CC=C1P(C1CCCCC1)C1CCCCC1", 
	 "Tm": 396.15, 
	 "num_atms": 64, 
	 "gaussian": { 
		 "optdone": 1, 
		 "sigma_profile": "yes", 
		 "theory": "DFT", 
		 "functional": "B3LYP", 
		 "basiset": "6-31G**", 
		 "properties": { 
			 "R2extent": 11427.2269, 
			 "electric_dipole_moment_norm": 1.49414568901, 
			 "electric_quadrupole_moment_norm": 6.36521322502, 
			 "total_energy": -1408.56369156, 
			 "HOMO_LUMO_gap": 0.17622, 
			 "cosmo_polarized_energy": -8.75, 
			 "cosmo_cavitation_energy": 59.64, 
			 "cosmo_dispersion_energy": -37.69, 
			 "cosmo_repulsion_energy": 2.85, 
			 "cosmo_total_nonelectrostatic_energy": 24.8, 
			 "SMD_solvation_energy": 8.18 
		},
		"coords": [
			{
				"x": -2.4194041749,
				"y": -1.6313883271,
				"z": 0.172358843,
				"element": "C" 
			},
			{
				"x": -1.8702467496,
				"y": -2.4558466744,
				"z": 1.2462433512,
				"element": "N" 
			},
			{
				"x": -2.9064446553,
				"y": -3.222276652,
				"z": 1.919814358,
				"element": "C" 
			},
			{
				"x": -0.8694920173,
				"y": -1.8609140015,
				"z": 2.0630679685,
				"element": "C" 
			},
			{
				"x": -1.0795318875,
				"y": -1.683209623,
				"z": 3.4424086787,
				"element": "C" 
			},
			{
				"x": -0.088616498,
				"y": -1.1598137092,
				"z": 4.2709339489,
				"element": "C" 
			},
			{
				"x": 1.1407018697,
				"y": -0.7862212998,
				"z": 3.7347792175,
				"element": "C" 
			},
			{
				"x": 1.3592343376,
				"y": -0.9493474958,
				"z": 2.3682116692,
				"element": "C" 
			},
			{
				"x": 0.3847723926,
				"y": -1.4793992812,
				"z": 1.5118293014,
				"element": "C" 
			},
			{
				"x": 0.7546685163,
				"y": -1.7465889131,
				"z": 0.0834911094,
				"element": "C" 
			},
			{
				"x": 0.7365989144,
				"y": -3.0901341451,
				"z": -0.3367773089,
				"element": "C" 
			},
			{
				"x": 1.1329662259,
				"y": -3.4606528518,
				"z": -1.6169685422,
				"element": "C" 
			},
			{
				"x": 1.5572156525,
				"y": -2.4817034203,
				"z": -2.5162483499,
				"element": "C" 
			},
			{
				"x": 1.5713845554,
				"y": -1.1470687986,
				"z": -2.1194828282,
				"element": "C" 
			},
			{
				"x": 1.1734305421,
				"y": -0.7435327547,
				"z": -0.8303743246,
				"element": "C" 
			},
			{
				"x": 1.1485467543,
				"y": 1.0656312354,
				"z": -0.3366781125,
				"element": "P" 
			},
			{
				"x": -0.3457635755,
				"y": 1.6792649515,
				"z": -1.3420159488,
				"element": "C" 
			},
			{
				"x": -0.2485772404,
				"y": 1.7029355246,
				"z": -2.8887148047,
				"element": "C" 
			},
			{
				"x": -1.3116343213,
				"y": 2.6302815891,
				"z": -3.5325193904,
				"element": "C" 
			},
			{
				"x": -2.5945935203,
				"y": 2.6766969152,
				"z": -2.6943731224,
				"element": "C" 
			},
			{
				"x": -2.3197526546,
				"y": 3.2890646657,
				"z": -1.2994328406,
				"element": "C" 
			},
			{
				"x": -0.8705066645,
				"y": 3.0323168833,
				"z": -0.8158578635,
				"element": "C" 
			},
			{
				"x": 2.6786749842,
				"y": 1.7125723031,
				"z": -1.2500543178,
				"element": "C" 
			},
			{
				"x": 3.9724462301,
				"y": 1.0393865212,
				"z": -0.6820016022,
				"element": "C" 
			},
			{
				"x": 4.8097550564,
				"y": 1.9770298487,
				"z": 0.2137661347,
				"element": "C" 
			},
			{
				"x": 3.9126059957,
				"y": 2.8262146146,
				"z": 1.1234111149,
				"element": "C" 
			},
			{
				"x": 2.9987385826,
				"y": 3.7616567745,
				"z": 0.2931486061,
				"element": "C" 
			},
			{
				"x": 2.794556486,
				"y": 3.2495668021,
				"z": -1.14888941,
				"element": "C" 
			},
			{
				"x": -2.9905799376,
				"y": -2.2659765037,
				"z": -0.5134462025,
				"element": "H" 
			},
			{
				"x": -1.6194284964,
				"y": -1.162163545,
				"z": -0.398397266,
				"element": "H" 
			},
			{
				"x": -3.0922544417,
				"y": -0.8419572783,
				"z": 0.551181491,
				"element": "H" 
			},
			{
				"x": -2.4584965245,
				"y": -3.9047191979,
				"z": 2.6464908421,
				"element": "H" 
			},
			{
				"x": -3.4399391154,
				"y": -3.8196505237,
				"z": 1.1730684016,
				"element": "H" 
			},
			{
				"x": -3.656528761,
				"y": -2.601636477,
				"z": 2.4430308009,
				"element": "H" 
			},
			{
				"x": -2.0363891896,
				"y": -1.950531676,
				"z": 3.8757652155,
				"element": "H" 
			},
			{
				"x": -0.2866140085,
				"y": -1.0403330948,
				"z": 5.3326856628,
				"element": "H" 
			},
			{
				"x": 1.9247852464,
				"y": -0.3831377389,
				"z": 4.368424281,
				"element": "H" 
			},
			{
				"x": 2.3241226543,
				"y": -0.6865582955,
				"z": 1.9472019323,
				"element": "H" 
			},
			{
				"x": 0.4088353618,
				"y": -3.8465791405,
				"z": 0.368085409,
				"element": "H" 
			},
			{
				"x": 1.1194453139,
				"y": -4.5074774957,
				"z": -1.9076926778,
				"element": "H" 
			},
			{
				"x": 1.8741803334,
				"y": -2.7539187117,
				"z": -3.5193504046,
				"element": "H" 
			},
			{
				"x": 1.9016036118,
				"y": -0.4014629468,
				"z": -2.8348578935,
				"element": "H" 
			},
			{
				"x": -1.1038504898,
				"y": 0.9333175277,
				"z": -1.0650885812,
				"element": "H" 
			},
			{
				"x": -0.3693905697,
				"y": 0.6822288568,
				"z": -3.2671142379,
				"element": "H" 
			},
			{
				"x": 0.7441640286,
				"y": 2.0355075265,
				"z": -3.2125260161,
				"element": "H" 
			},
			{
				"x": -0.9108521989,
				"y": 3.6485349359,
				"z": -3.6224753691,
				"element": "H" 
			},
			{
				"x": -1.5246258211,
				"y": 2.2965101754,
				"z": -4.5546667732,
				"element": "H" 
			},
			{
				"x": -3.3758562569,
				"y": 3.245757446,
				"z": -3.2108164792,
				"element": "H" 
			},
			{
				"x": -2.9842058096,
				"y": 1.6559537017,
				"z": -2.5857852445,
				"element": "H" 
			},
			{
				"x": -3.0295298451,
				"y": 2.8751045591,
				"z": -0.573112909,
				"element": "H" 
			},
			{
				"x": -2.5022747952,
				"y": 4.3702784313,
				"z": -1.3240435356,
				"element": "H" 
			},
			{
				"x": -0.8286597118,
				"y": 3.0621196126,
				"z": 0.2778985201,
				"element": "H" 
			},
			{
				"x": -0.217147221,
				"y": 3.8395725316,
				"z": -1.1689361425,
				"element": "H" 
			},
			{
				"x": 2.5972260927,
				"y": 1.4622050312,
				"z": -2.3128035661,
				"element": "H" 
			},
			{
				"x": 3.7113564023,
				"y": 0.1421779991,
				"z": -0.1089398576,
				"element": "H" 
			},
			{
				"x": 4.5902420103,
				"y": 0.6840215306,
				"z": -1.5151495802,
				"element": "H" 
			},
			{
				"x": 5.4281748751,
				"y": 2.6383803212,
				"z": -0.4073952363,
				"element": "H" 
			},
			{
				"x": 5.5097528219,
				"y": 1.3802416347,
				"z": 0.8100466876,
				"element": "H" 
			},
			{
				"x": 4.518343526,
				"y": 3.4103584618,
				"z": 1.8254982709,
				"element": "H" 
			},
			{
				"x": 3.2932192665,
				"y": 2.1541895496,
				"z": 1.7296931882,
				"element": "H" 
			},
			{
				"x": 3.4305490457,
				"y": 4.7686733327,
				"z": 0.2446159636,
				"element": "H" 
			},
			{
				"x": 2.0305929574,
				"y": 3.8650346937,
				"z": 0.7948261659,
				"element": "H" 
			},
			{
				"x": 1.9254987846,
				"y": 3.7374240612,
				"z": -1.6024188231,
				"element": "H" 
			},
			{
				"x": 3.6535977246,
				"y": 3.551390024,
				"z": -1.7629715709,
				"element": "H" 
			}
		],
		 "valence_orbital": [ 
			{
				"type": "occ",
				"energy": -0.2547,
				"method": "rhf"
			},
			{
				"type": "occ",
				"energy": -0.24218,
				"method": "rhf"
			},
			{
				"type": "occ",
				"energy": -0.23152,
				"method": "rhf"
			},
			{
				"type": "occ",
				"energy": -0.20151,
				"method": "rhf"
			},
			{
				"type": "occ",
				"energy": -0.19145,
				"method": "rhf"
			},
			{
				"type": "unocc",
				"energy": -0.01523,
				"method": "rhf"
			},
			{
				"type": "unocc",
				"energy": -0.00816,
				"method": "rhf"
			},
			{
				"type": "unocc",
				"energy": 0.01394,
				"method": "rhf"
			},
			{
				"type": "unocc",
				"energy": 0.02129,
				"method": "rhf"
			},
			{
				"type": "unocc",
				"energy": 0.05737,
				"method": "rhf"
			}
		],
		"cosmo_sigma_profile": { 
			"-0.025": 0.0,
			"-0.024": 0.0,
			"-0.023": 0.0,
			"-0.022": 0.0,
			"-0.021": 0.0,
			"-0.02": 0.0,
			"-0.019": 0.0,
			"-0.018": 0.0,
			"-0.017": 0.0,
			"-0.016": 0.0,
			"-0.015": 0.0,
			"-0.014": 0.0,
			"-0.013": 0.0,
			"-0.012": 0.0,
			"-0.011": 0.0,
			"-0.01": 0.0,
			"-0.009": 0.0,
			"-0.008": 0.0,
			"-0.007": 0.0,
			"-0.006": 2.70960502649,
			"-0.005": 13.1292880791,
			"-0.004": 24.0839153937,
			"-0.003": 37.8799999022,
			"-0.002": 67.1631964751,
			"-0.001": 81.3422549842,
			"0.0": 72.8312564044,
			"0.001": 57.3202624504,
			"0.002": 29.5314218855,
			"0.003": 16.8634684399,
			"0.004": 14.298492455,
			"0.005": 16.3864970186,
			"0.006": 12.5071592887,
			"0.007": 6.23202851354,
			"0.008": 2.58083476435,
			"0.009": 1.3918023921,
			"0.01": 0.840826453106,
			"0.011": 1.08732206366,
			"0.012": 1.05233017097,
			"0.013": 0.597445178532,
			"0.014": 0.579692328885,
			"0.015": 0.11011768967,
			"0.016": 0.0,
			"0.017": 0.0,
			"0.018": 0.0,
			"0.019": 0.0,
			"0.02": 0.0,
			"0.021": 0.0,
			"0.022": 0.0,
			"0.023": 0.0,
			"0.024": 0.0,
			"0.025": 0.0
		}
	}
}
