{
	 "smiles": "CCOC(=O)C1=C(N)SC2=C1CC(C)(C)NC2(C)C", 
	 "Tm": 369.15, 
	 "num_atms": 41, 
	 "gaussian": { 
		 "optdone": 1, 
		 "sigma_profile": "yes", 
		 "theory": "DFT", 
		 "functional": "B3LYP", 
		 "basiset": "6-31G**", 
		 "properties": { 
			 "R2extent": 6082.4404, 
			 "electric_dipole_moment_norm": 0.463300129506, 
			 "electric_quadrupole_moment_norm": 11.3057745246, 
			 "total_energy": -1204.91798916, 
			 "HOMO_LUMO_gap": 0.17411, 
			 "cosmo_polarized_energy": -10.86, 
			 "cosmo_cavitation_energy": 41.34, 
			 "cosmo_dispersion_energy": -29.07, 
			 "cosmo_repulsion_energy": 2.21, 
			 "cosmo_total_nonelectrostatic_energy": 14.48, 
			 "SMD_solvation_energy": 6.13 
		},
		"coords": [
			{
				"x": 3.5687296908,
				"y": 1.9837858337,
				"z": 2.8249155003,
				"element": "C" 
			},
			{
				"x": 3.5796079651,
				"y": 2.2479884767,
				"z": 1.3261830892,
				"element": "C" 
			},
			{
				"x": 2.4541563004,
				"y": 1.6249547438,
				"z": 0.6671683117,
				"element": "O" 
			},
			{
				"x": 1.2890295272,
				"y": 2.3199570276,
				"z": 0.6654101882,
				"element": "C" 
			},
			{
				"x": 1.2007374385,
				"y": 3.4309341873,
				"z": 1.1938216284,
				"element": "O" 
			},
			{
				"x": 0.1923375945,
				"y": 1.6443783002,
				"z": -0.0155316399,
				"element": "C" 
			},
			{
				"x": -1.0357678968,
				"y": 2.3027303187,
				"z": -0.1276587731,
				"element": "C" 
			},
			{
				"x": -1.3360303019,
				"y": 3.5620229666,
				"z": 0.283269487,
				"element": "N" 
			},
			{
				"x": -2.2127907212,
				"y": 1.3258617847,
				"z": -0.9695618183,
				"element": "S" 
			},
			{
				"x": -1.0449380324,
				"y": 0.0080182491,
				"z": -1.1732981311,
				"element": "C" 
			},
			{
				"x": 0.1590163721,
				"y": 0.3191036686,
				"z": -0.6194295888,
				"element": "C" 
			},
			{
				"x": 1.2878000879,
				"y": -0.6828126153,
				"z": -0.654726853,
				"element": "C" 
			},
			{
				"x": 0.7620281271,
				"y": -2.1266362706,
				"z": -0.8622786451,
				"element": "C" 
			},
			{
				"x": 0.1801290784,
				"y": -2.668929361,
				"z": 0.4567788241,
				"element": "C" 
			},
			{
				"x": 1.9203182308,
				"y": -3.037416152,
				"z": -1.2987106144,
				"element": "C" 
			},
			{
				"x": -0.246234487,
				"y": -2.1929514053,
				"z": -1.9452014152,
				"element": "N" 
			},
			{
				"x": -1.409110271,
				"y": -1.273123244,
				"z": -1.9036737286,
				"element": "C" 
			},
			{
				"x": -2.6174368048,
				"y": -1.9798046733,
				"z": -1.2445065323,
				"element": "C" 
			},
			{
				"x": -1.7794388081,
				"y": -0.964092428,
				"z": -3.3715324483,
				"element": "C" 
			},
			{
				"x": 2.6991187615,
				"y": 2.4543918109,
				"z": 3.289344527,
				"element": "H" 
			},
			{
				"x": 3.5440778846,
				"y": 0.9096123993,
				"z": 3.0319339938,
				"element": "H" 
			},
			{
				"x": 4.4720748547,
				"y": 2.4007889881,
				"z": 3.2830474869,
				"element": "H" 
			},
			{
				"x": 4.4535235998,
				"y": 1.7975417644,
				"z": 0.8486280962,
				"element": "H" 
			},
			{
				"x": 3.5642909019,
				"y": 3.3199284162,
				"z": 1.1169849046,
				"element": "H" 
			},
			{
				"x": -0.619779804,
				"y": 3.9876100369,
				"z": 0.8659921045,
				"element": "H" 
			},
			{
				"x": -2.2995860174,
				"y": 3.8280180095,
				"z": 0.4079756404,
				"element": "H" 
			},
			{
				"x": 1.9844199349,
				"y": -0.4238059668,
				"z": -1.465289545,
				"element": "H" 
			},
			{
				"x": 1.8733940901,
				"y": -0.622510811,
				"z": 0.2656667171,
				"element": "H" 
			},
			{
				"x": -0.3021601714,
				"y": -3.6360979898,
				"z": 0.2890255003,
				"element": "H" 
			},
			{
				"x": -0.5520608165,
				"y": -1.9842651877,
				"z": 0.8917017356,
				"element": "H" 
			},
			{
				"x": 0.9810958966,
				"y": -2.8033947561,
				"z": 1.1914337038,
				"element": "H" 
			},
			{
				"x": 1.5725867524,
				"y": -4.0670219865,
				"z": -1.4241546406,
				"element": "H" 
			},
			{
				"x": 2.3483837552,
				"y": -2.7035683231,
				"z": -2.2519300834,
				"element": "H" 
			},
			{
				"x": 2.7229415562,
				"y": -3.0274553053,
				"z": -0.5543563596,
				"element": "H" 
			},
			{
				"x": 0.2479423732,
				"y": -2.0219319451,
				"z": -2.817699529,
				"element": "H" 
			},
			{
				"x": -3.5074864849,
				"y": -1.3416273349,
				"z": -1.2742979523,
				"element": "H" 
			},
			{
				"x": -2.4219532702,
				"y": -2.2305555113,
				"z": -0.2010567397,
				"element": "H" 
			},
			{
				"x": -2.8347102645,
				"y": -2.9054334898,
				"z": -1.7850913881,
				"element": "H" 
			},
			{
				"x": -2.6903178077,
				"y": -0.3618935937,
				"z": -3.4321575088,
				"element": "H" 
			},
			{
				"x": -0.9763811716,
				"y": -0.408392217,
				"z": -3.8674103315,
				"element": "H" 
			},
			{
				"x": -1.9505576424,
				"y": -1.8997064147,
				"z": -3.9147271731,
				"element": "H" 
			}
		],
		 "valence_orbital": [ 
			{
				"type": "occ",
				"energy": -0.28946,
				"method": "rhf"
			},
			{
				"type": "occ",
				"energy": -0.26803,
				"method": "rhf"
			},
			{
				"type": "occ",
				"energy": -0.2424,
				"method": "rhf"
			},
			{
				"type": "occ",
				"energy": -0.21729,
				"method": "rhf"
			},
			{
				"type": "occ",
				"energy": -0.1887,
				"method": "rhf"
			},
			{
				"type": "unocc",
				"energy": -0.01459,
				"method": "rhf"
			},
			{
				"type": "unocc",
				"energy": 0.01523,
				"method": "rhf"
			},
			{
				"type": "unocc",
				"energy": 0.02304,
				"method": "rhf"
			},
			{
				"type": "unocc",
				"energy": 0.07885,
				"method": "rhf"
			},
			{
				"type": "unocc",
				"energy": 0.0871,
				"method": "rhf"
			}
		],
		"cosmo_sigma_profile": { 
			"-0.025": 0.0,
			"-0.024": 0.0,
			"-0.023": 0.0,
			"-0.022": 0.0,
			"-0.021": 0.0,
			"-0.02": 0.0,
			"-0.019": 0.0,
			"-0.018": 0.0,
			"-0.017": 0.0,
			"-0.016": 0.0,
			"-0.015": 0.340364313661,
			"-0.014": 1.28568975645,
			"-0.013": 1.31468476106,
			"-0.012": 1.16210182016,
			"-0.011": 1.29927714118,
			"-0.01": 1.7920221699,
			"-0.009": 2.34963793965,
			"-0.008": 2.76579582474,
			"-0.007": 3.24717489512,
			"-0.006": 3.97512924435,
			"-0.005": 7.49607605742,
			"-0.004": 16.0260369918,
			"-0.003": 33.4671427116,
			"-0.002": 35.9009651257,
			"-0.001": 34.5018635812,
			"0.0": 40.9595335909,
			"0.001": 40.6499279613,
			"0.002": 24.771429151,
			"0.003": 18.9727214072,
			"0.004": 17.2624432901,
			"0.005": 9.65546521746,
			"0.006": 6.31348541931,
			"0.007": 3.81019455402,
			"0.008": 2.59622427051,
			"0.009": 2.76414550969,
			"0.01": 2.89075370287,
			"0.011": 1.79791676169,
			"0.012": 2.19120768548,
			"0.013": 0.8454512777,
			"0.014": 0.589470185442,
			"0.015": 0.357608146179,
			"0.016": 0.32927428193,
			"0.017": 0.215183292285,
			"0.018": 0.0,
			"0.019": 0.0,
			"0.02": 0.0,
			"0.021": 0.0,
			"0.022": 0.0,
			"0.023": 0.0,
			"0.024": 0.0,
			"0.025": 0.0
		}
	}
}
