{
	 "smiles": "CC(=O)C12OC(C)(OC1CC1C3CCC4=CC(=O)CCC4(C)C3CCC21C)C1=CC=CC=C1", 
	 "Tm": 423.15, 
	 "num_atms": 69, 
	 "gaussian": { 
		 "optdone": 1, 
		 "sigma_profile": "yes", 
		 "theory": "DFT", 
		 "functional": "B3LYP", 
		 "basiset": "6-31G**", 
		 "properties": { 
			 "R2extent": 18838.6372, 
			 "electric_dipole_moment_norm": 4.7770389877, 
			 "electric_quadrupole_moment_norm": 34.2794634029, 
			 "total_energy": -1427.67533723, 
			 "HOMO_LUMO_gap": 0.18455, 
			 "cosmo_polarized_energy": -18.31, 
			 "cosmo_cavitation_energy": 61.06, 
			 "cosmo_dispersion_energy": -40.27, 
			 "cosmo_repulsion_energy": 2.92, 
			 "cosmo_total_nonelectrostatic_energy": 23.71, 
			 "SMD_solvation_energy": 10.02 
		},
		"coords": [
			{
				"x": 3.6320577614,
				"y": -0.0880825432,
				"z": 1.76315473,
				"element": "C" 
			},
			{
				"x": 3.2412686443,
				"y": 1.1022696381,
				"z": 0.9128898509,
				"element": "C" 
			},
			{
				"x": 3.8423635085,
				"y": 2.1598388568,
				"z": 0.9728625611,
				"element": "O" 
			},
			{
				"x": 2.0199091138,
				"y": 0.9519891821,
				"z": -0.0127543881,
				"element": "C" 
			},
			{
				"x": 1.9833204495,
				"y": -0.3547108951,
				"z": -0.5995795844,
				"element": "O" 
			},
			{
				"x": 2.4423603,
				"y": -0.2570197029,
				"z": -1.9564848249,
				"element": "C" 
			},
			{
				"x": 1.6733724623,
				"y": -1.2720058012,
				"z": -2.79527514,
				"element": "C" 
			},
			{
				"x": 2.0810236376,
				"y": 1.043364176,
				"z": -2.3793270103,
				"element": "O" 
			},
			{
				"x": 2.0519080887,
				"y": 1.9198656482,
				"z": -1.2425730306,
				"element": "C" 
			},
			{
				"x": 0.7208716577,
				"y": 2.6863105763,
				"z": -1.2479898975,
				"element": "C" 
			},
			{
				"x": -0.2155740001,
				"y": 1.7476247542,
				"z": -0.4758940262,
				"element": "C" 
			},
			{
				"x": -1.6071873953,
				"y": 2.2510267597,
				"z": -0.0658425834,
				"element": "C" 
			},
			{
				"x": -2.5157358356,
				"y": 2.4670747137,
				"z": -1.2810376761,
				"element": "C" 
			},
			{
				"x": -3.8614701724,
				"y": 3.063096388,
				"z": -0.8523014449,
				"element": "C" 
			},
			{
				"x": -4.4432494666,
				"y": 2.4617953414,
				"z": 0.4178138344,
				"element": "C" 
			},
			{
				"x": -5.5091201345,
				"y": 3.0525605121,
				"z": 0.9999465157,
				"element": "C" 
			},
			{
				"x": -6.2692031662,
				"y": 2.482859661,
				"z": 2.1248530253,
				"element": "C" 
			},
			{
				"x": -7.2265668864,
				"y": 3.0644093613,
				"z": 2.6187567136,
				"element": "O" 
			},
			{
				"x": -5.8324182528,
				"y": 1.1011206926,
				"z": 2.5879553633,
				"element": "C" 
			},
			{
				"x": -4.3267929838,
				"y": 0.9018777788,
				"z": 2.3938405077,
				"element": "C" 
			},
			{
				"x": -3.8305792285,
				"y": 1.1656995502,
				"z": 0.9452100471,
				"element": "C" 
			},
			{
				"x": -4.3189363316,
				"y": 0.0117802163,
				"z": 0.0232786403,
				"element": "C" 
			},
			{
				"x": -2.2518726956,
				"y": 1.2854380024,
				"z": 0.9975105391,
				"element": "C" 
			},
			{
				"x": -1.5393219526,
				"y": -0.0845284343,
				"z": 1.0060390522,
				"element": "C" 
			},
			{
				"x": -0.0382361743,
				"y": 0.0190433574,
				"z": 1.3681899356,
				"element": "C" 
			},
			{
				"x": 0.6481256848,
				"y": 1.2525664829,
				"z": 0.7181211428,
				"element": "C" 
			},
			{
				"x": 0.8562136935,
				"y": 2.3607301314,
				"z": 1.7770961507,
				"element": "C" 
			},
			{
				"x": 3.9567583127,
				"y": -0.4837512401,
				"z": -2.0420064541,
				"element": "C" 
			},
			{
				"x": 4.5303499632,
				"y": -1.6116759595,
				"z": -1.4376722516,
				"element": "C" 
			},
			{
				"x": 5.8997181873,
				"y": -1.8529651889,
				"z": -1.5431440667,
				"element": "C" 
			},
			{
				"x": 6.7131877758,
				"y": -0.9702775468,
				"z": -2.2589227236,
				"element": "C" 
			},
			{
				"x": 6.147380516,
				"y": 0.1490247367,
				"z": -2.8690491476,
				"element": "C" 
			},
			{
				"x": 4.774975754,
				"y": 0.3892063378,
				"z": -2.7647617493,
				"element": "C" 
			},
			{
				"x": 4.2926185004,
				"y": 0.24678866,
				"z": 2.5645859052,
				"element": "H" 
			},
			{
				"x": 4.162978723,
				"y": -0.8147803903,
				"z": 1.1410081319,
				"element": "H" 
			},
			{
				"x": 2.7547945227,
				"y": -0.5970106728,
				"z": 2.1732877978,
				"element": "H" 
			},
			{
				"x": 1.9636528891,
				"y": -1.1771395963,
				"z": -3.8444388395,
				"element": "H" 
			},
			{
				"x": 0.6010560735,
				"y": -1.0861462778,
				"z": -2.6995784212,
				"element": "H" 
			},
			{
				"x": 1.8957536816,
				"y": -2.2891592459,
				"z": -2.4645177793,
				"element": "H" 
			},
			{
				"x": 2.9347684172,
				"y": 2.5637704645,
				"z": -1.2315791751,
				"element": "H" 
			},
			{
				"x": 0.4056798568,
				"y": 2.8820598238,
				"z": -2.2761395388,
				"element": "H" 
			},
			{
				"x": 0.8318552716,
				"y": 3.6515806931,
				"z": -0.7418896115,
				"element": "H" 
			},
			{
				"x": -0.3622891658,
				"y": 0.8724401357,
				"z": -1.1232161063,
				"element": "H" 
			},
			{
				"x": -1.4907238988,
				"y": 3.234218473,
				"z": 0.4126577162,
				"element": "H" 
			},
			{
				"x": -2.6576492375,
				"y": 1.5184794574,
				"z": -1.812403326,
				"element": "H" 
			},
			{
				"x": -2.0349262546,
				"y": 3.1420622071,
				"z": -1.9975034159,
				"element": "H" 
			},
			{
				"x": -4.5952615052,
				"y": 2.9563883797,
				"z": -1.6621283991,
				"element": "H" 
			},
			{
				"x": -3.7508035995,
				"y": 4.1438510329,
				"z": -0.6975069615,
				"element": "H" 
			},
			{
				"x": -5.9063639103,
				"y": 3.9857501364,
				"z": 0.6041435982,
				"element": "H" 
			},
			{
				"x": -6.4080498188,
				"y": 0.3629839358,
				"z": 2.0128070048,
				"element": "H" 
			},
			{
				"x": -6.1253814862,
				"y": 0.9769210386,
				"z": 3.6345038267,
				"element": "H" 
			},
			{
				"x": -3.8079950782,
				"y": 1.5958907717,
				"z": 3.0664316206,
				"element": "H" 
			},
			{
				"x": -4.0350914481,
				"y": -0.108078416,
				"z": 2.70393998,
				"element": "H" 
			},
			{
				"x": -3.9748536533,
				"y": 0.1234051891,
				"z": -1.0071884435,
				"element": "H" 
			},
			{
				"x": -3.969804697,
				"y": -0.9579471294,
				"z": 0.3880230617,
				"element": "H" 
			},
			{
				"x": -5.4119215399,
				"y": -0.0158669308,
				"z": -0.0025782209,
				"element": "H" 
			},
			{
				"x": -2.0448177814,
				"y": 1.7378419264,
				"z": 1.9743940814,
				"element": "H" 
			},
			{
				"x": -1.6433819678,
				"y": -0.5634586189,
				"z": 0.0260526952,
				"element": "H" 
			},
			{
				"x": -2.0224242476,
				"y": -0.7581863332,
				"z": 1.7222277487,
				"element": "H" 
			},
			{
				"x": 0.4558273422,
				"y": -0.9013458429,
				"z": 1.0462967319,
				"element": "H" 
			},
			{
				"x": 0.0653602179,
				"y": 0.076639998,
				"z": 2.4585088254,
				"element": "H" 
			},
			{
				"x": 1.3879663915,
				"y": 3.2319310734,
				"z": 1.388008813,
				"element": "H" 
			},
			{
				"x": -0.1010931023,
				"y": 2.6981996658,
				"z": 2.1811751058,
				"element": "H" 
			},
			{
				"x": 1.4418438747,
				"y": 1.9816031669,
				"z": 2.6205416379,
				"element": "H" 
			},
			{
				"x": 3.9000589461,
				"y": -2.2977065009,
				"z": -0.8785268768,
				"element": "H" 
			},
			{
				"x": 6.3324153401,
				"y": -2.728818943,
				"z": -1.0677133934,
				"element": "H" 
			},
			{
				"x": 7.7801938279,
				"y": -1.1565050129,
				"z": -2.3402202644,
				"element": "H" 
			},
			{
				"x": 6.7731545625,
				"y": 0.8390239738,
				"z": -3.4280066423,
				"element": "H" 
			},
			{
				"x": 4.327853119,
				"y": 1.2534641647,
				"z": -3.2438614772,
				"element": "H" 
			}
		],
		 "valence_orbital": [ 
			{
				"type": "occ",
				"energy": -0.25454,
				"method": "rhf"
			},
			{
				"type": "occ",
				"energy": -0.25086,
				"method": "rhf"
			},
			{
				"type": "occ",
				"energy": -0.25024,
				"method": "rhf"
			},
			{
				"type": "occ",
				"energy": -0.23655,
				"method": "rhf"
			},
			{
				"type": "occ",
				"energy": -0.22886,
				"method": "rhf"
			},
			{
				"type": "unocc",
				"energy": -0.04431,
				"method": "rhf"
			},
			{
				"type": "unocc",
				"energy": -0.02654,
				"method": "rhf"
			},
			{
				"type": "unocc",
				"energy": -0.00694,
				"method": "rhf"
			},
			{
				"type": "unocc",
				"energy": -0.00405,
				"method": "rhf"
			},
			{
				"type": "unocc",
				"energy": 0.05785,
				"method": "rhf"
			}
		],
		"cosmo_sigma_profile": { 
			"-0.025": 0.0,
			"-0.024": 0.0,
			"-0.023": 0.0,
			"-0.022": 0.0,
			"-0.021": 0.0,
			"-0.02": 0.0,
			"-0.019": 0.0,
			"-0.018": 0.0,
			"-0.017": 0.0,
			"-0.016": 0.0,
			"-0.015": 0.0,
			"-0.014": 0.0,
			"-0.013": 0.0,
			"-0.012": 0.0,
			"-0.011": 0.0,
			"-0.01": 0.0,
			"-0.009": 0.0,
			"-0.008": 0.0,
			"-0.007": 0.00383741904029,
			"-0.006": 3.75338793154,
			"-0.005": 19.7618325742,
			"-0.004": 48.3491310383,
			"-0.003": 67.1691848524,
			"-0.002": 71.5752852411,
			"-0.001": 69.1849932809,
			"0.0": 50.1815073884,
			"0.001": 30.8837484866,
			"0.002": 19.4956397325,
			"0.003": 16.2573742354,
			"0.004": 14.9937236167,
			"0.005": 14.6701479996,
			"0.006": 7.97675606817,
			"0.007": 5.32489313067,
			"0.008": 4.44257241805,
			"0.009": 4.14953654821,
			"0.01": 4.21445170581,
			"0.011": 6.66866467665,
			"0.012": 5.67239823788,
			"0.013": 5.51883239722,
			"0.014": 3.65312466877,
			"0.015": 0.816517596911,
			"0.016": 0.0,
			"0.017": 0.0,
			"0.018": 0.0,
			"0.019": 0.0,
			"0.02": 0.0,
			"0.021": 0.0,
			"0.022": 0.0,
			"0.023": 0.0,
			"0.024": 0.0,
			"0.025": 0.0
		}
	}
}
