{
	 "smiles": "OC1=CC2=C(C=C1)C(=O)C(O2)=C/C1=CC(O)=C(O)C=C1", 
	 "Tm": 576.15, 
	 "num_atms": 30, 
	 "gaussian": { 
		 "optdone": 1, 
		 "sigma_profile": "yes", 
		 "theory": "DFT", 
		 "functional": "B3LYP", 
		 "basiset": "6-31G**", 
		 "properties": { 
			 "R2extent": 8901.2358, 
			 "electric_dipole_moment_norm": 3.03535434834, 
			 "electric_quadrupole_moment_norm": 17.3623146349, 
			 "total_energy": -953.720966033, 
			 "HOMO_LUMO_gap": 0.12134, 
			 "cosmo_polarized_energy": -18.51, 
			 "cosmo_cavitation_energy": 35.65, 
			 "cosmo_dispersion_energy": -26.56, 
			 "cosmo_repulsion_energy": 1.98, 
			 "cosmo_total_nonelectrostatic_energy": 11.07, 
			 "SMD_solvation_energy": 7.59 
		},
		"coords": [
			{
				"x": -0.9843129724,
				"y": -2.7298661591,
				"z": 6.6010382111,
				"element": "O" 
			},
			{
				"x": -0.7699209411,
				"y": -2.3600452986,
				"z": 5.3103820017,
				"element": "C" 
			},
			{
				"x": -0.4551071645,
				"y": -1.0140033744,
				"z": 5.0864364442,
				"element": "C" 
			},
			{
				"x": -0.2379459157,
				"y": -0.6455946104,
				"z": 3.7673264358,
				"element": "C" 
			},
			{
				"x": -0.3217329905,
				"y": -1.5460994872,
				"z": 2.6989809448,
				"element": "C" 
			},
			{
				"x": -0.6371122156,
				"y": -2.8859859734,
				"z": 2.9412090055,
				"element": "C" 
			},
			{
				"x": -0.8611072757,
				"y": -3.2911244813,
				"z": 4.2498733924,
				"element": "C" 
			},
			{
				"x": -0.0330773967,
				"y": -0.8010083211,
				"z": 1.4754134478,
				"element": "C" 
			},
			{
				"x": -0.005347096,
				"y": -1.2282395875,
				"z": 0.319052688,
				"element": "O" 
			},
			{
				"x": 0.2185731001,
				"y": 0.5913006217,
				"z": 1.9563794047,
				"element": "C" 
			},
			{
				"x": 0.0776377214,
				"y": 0.6146070662,
				"z": 3.3574839073,
				"element": "O" 
			},
			{
				"x": 0.5361243907,
				"y": 1.7763705439,
				"z": 1.3783667432,
				"element": "C" 
			},
			{
				"x": 0.7668221002,
				"y": 2.1789719825,
				"z": 0.0050176237,
				"element": "C" 
			},
			{
				"x": 0.6934296662,
				"y": 1.3091908448,
				"z": -1.1081350494,
				"element": "C" 
			},
			{
				"x": 0.931654292,
				"y": 1.79362572,
				"z": -2.3804943503,
				"element": "C" 
			},
			{
				"x": 0.8839080214,
				"y": 1.0278138351,
				"z": -3.5220578618,
				"element": "O" 
			},
			{
				"x": 1.2498728591,
				"y": 3.1496131317,
				"z": -2.5994760336,
				"element": "C" 
			},
			{
				"x": 1.4801965488,
				"y": 3.6051008404,
				"z": -3.8557683785,
				"element": "O" 
			},
			{
				"x": 1.3246798261,
				"y": 4.0155378961,
				"z": -1.509036511,
				"element": "C" 
			},
			{
				"x": 1.0860873688,
				"y": 3.5345120853,
				"z": -0.2263835693,
				"element": "C" 
			},
			{
				"x": -1.1919464906,
				"y": -3.6729265072,
				"z": 6.6348512758,
				"element": "H" 
			},
			{
				"x": -0.3893069328,
				"y": -0.3141078865,
				"z": 5.9103208116,
				"element": "H" 
			},
			{
				"x": -0.7030094507,
				"y": -3.5874671339,
				"z": 2.1154610148,
				"element": "H" 
			},
			{
				"x": -1.1083747998,
				"y": -4.3266560675,
				"z": 4.4712963663,
				"element": "H" 
			},
			{
				"x": 0.6361918645,
				"y": 2.5843601144,
				"z": 2.1019587631,
				"element": "H" 
			},
			{
				"x": 0.4490173712,
				"y": 0.2623165213,
				"z": -0.9493106519,
				"element": "H" 
			},
			{
				"x": 0.6614772029,
				"y": 0.1169859339,
				"z": -3.2904613063,
				"element": "H" 
			},
			{
				"x": 1.3796334506,
				"y": 2.8532813077,
				"z": -4.4603582822,
				"element": "H" 
			},
			{
				"x": 1.5700555723,
				"y": 5.0571083124,
				"z": -1.6867690764,
				"element": "H" 
			},
			{
				"x": 1.1468402859,
				"y": 4.2171281306,
				"z": 0.616202589,
				"element": "H" 
			}
		],
		 "valence_orbital": [ 
			{
				"type": "occ",
				"energy": -0.25222,
				"method": "rhf"
			},
			{
				"type": "occ",
				"energy": -0.24781,
				"method": "rhf"
			},
			{
				"type": "occ",
				"energy": -0.2367,
				"method": "rhf"
			},
			{
				"type": "occ",
				"energy": -0.23183,
				"method": "rhf"
			},
			{
				"type": "occ",
				"energy": -0.19996,
				"method": "rhf"
			},
			{
				"type": "unocc",
				"energy": -0.07862,
				"method": "rhf"
			},
			{
				"type": "unocc",
				"energy": -0.01598,
				"method": "rhf"
			},
			{
				"type": "unocc",
				"energy": 0.00347,
				"method": "rhf"
			},
			{
				"type": "unocc",
				"energy": 0.00997,
				"method": "rhf"
			},
			{
				"type": "unocc",
				"energy": 0.04318,
				"method": "rhf"
			}
		],
		"cosmo_sigma_profile": { 
			"-0.025": 0.0,
			"-0.024": 0.0,
			"-0.023": 0.0,
			"-0.022": 0.0,
			"-0.021": 0.0,
			"-0.02": 0.0,
			"-0.019": 0.493565633254,
			"-0.018": 1.54495231902,
			"-0.017": 2.53963859685,
			"-0.016": 1.67273536291,
			"-0.015": 2.35816555763,
			"-0.014": 3.06885775138,
			"-0.013": 1.80412743579,
			"-0.012": 1.75853992894,
			"-0.011": 3.22772212986,
			"-0.01": 3.09591367774,
			"-0.009": 1.99935204767,
			"-0.008": 4.65383368457,
			"-0.007": 9.75827509941,
			"-0.006": 12.5988477486,
			"-0.005": 11.4666075951,
			"-0.004": 9.1337494084,
			"-0.003": 11.8708105428,
			"-0.002": 12.1465327333,
			"-0.001": 12.5786546857,
			"0.0": 17.0841215543,
			"0.001": 25.7695443424,
			"0.002": 36.7668100871,
			"0.003": 30.2527173682,
			"0.004": 20.9348047429,
			"0.005": 9.73184220539,
			"0.006": 7.93369978318,
			"0.007": 5.9894274605,
			"0.008": 5.40055099927,
			"0.009": 5.68684427584,
			"0.01": 5.36834254337,
			"0.011": 3.73809131477,
			"0.012": 2.12375494458,
			"0.013": 1.89784995061,
			"0.014": 0.194153046682,
			"0.015": 0.0,
			"0.016": 0.0,
			"0.017": 0.0,
			"0.018": 0.0,
			"0.019": 0.0,
			"0.02": 0.0,
			"0.021": 0.0,
			"0.022": 0.0,
			"0.023": 0.0,
			"0.024": 0.0,
			"0.025": 0.0
		}
	}
}
