{
	 "smiles": "CCCCCCCCC1=CC=C(C=C1)C(=O)CCC(O)=O", 
	 "Tm": 365.15, 
	 "num_atms": 47, 
	 "gaussian": { 
		 "optdone": 1, 
		 "sigma_profile": "yes", 
		 "theory": "DFT", 
		 "functional": "B3LYP", 
		 "basiset": "6-31G**", 
		 "properties": { 
			 "R2extent": 15836.7564, 
			 "electric_dipole_moment_norm": 2.92727874143, 
			 "electric_quadrupole_moment_norm": 13.9334066215, 
			 "total_energy": -927.307711632, 
			 "HOMO_LUMO_gap": 0.195, 
			 "cosmo_polarized_energy": -14.78, 
			 "cosmo_cavitation_energy": 49.25, 
			 "cosmo_dispersion_energy": -33.73, 
			 "cosmo_repulsion_energy": 2.65, 
			 "cosmo_total_nonelectrostatic_energy": 18.17, 
			 "SMD_solvation_energy": 8.64 
		},
		"coords": [
			{
				"x": -4.6807433475,
				"y": -0.0745213294,
				"z": -4.1556121746,
				"element": "C" 
			},
			{
				"x": -4.3932006338,
				"y": -0.9781239511,
				"z": -5.3602140224,
				"element": "C" 
			},
			{
				"x": -2.999582694,
				"y": -1.6318166827,
				"z": -5.3858551216,
				"element": "C" 
			},
			{
				"x": -1.8086455227,
				"y": -0.6500119413,
				"z": -5.4911148901,
				"element": "C" 
			},
			{
				"x": -1.1606182382,
				"y": -0.2311305664,
				"z": -4.1567798442,
				"element": "C" 
			},
			{
				"x": -0.3326581902,
				"y": -1.343918242,
				"z": -3.495186587,
				"element": "C" 
			},
			{
				"x": 0.3876509175,
				"y": -0.92560548,
				"z": -2.2030401576,
				"element": "C" 
			},
			{
				"x": -0.5563439656,
				"y": -0.6176836914,
				"z": -1.0196514579,
				"element": "C" 
			},
			{
				"x": 0.1943423173,
				"y": -0.2660465822,
				"z": 0.2447293722,
				"element": "C" 
			},
			{
				"x": 0.5685721239,
				"y": -1.2591084595,
				"z": 1.1607437645,
				"element": "C" 
			},
			{
				"x": 1.2942655461,
				"y": -0.9435826023,
				"z": 2.3072872052,
				"element": "C" 
			},
			{
				"x": 1.6672544764,
				"y": 0.3831771003,
				"z": 2.5706121343,
				"element": "C" 
			},
			{
				"x": 1.2938609862,
				"y": 1.3812597899,
				"z": 1.656204653,
				"element": "C" 
			},
			{
				"x": 0.5698564289,
				"y": 1.0599356463,
				"z": 0.5147176027,
				"element": "C" 
			},
			{
				"x": 2.439423568,
				"y": 0.7880954485,
				"z": 3.7843723312,
				"element": "C" 
			},
			{
				"x": 2.7410501588,
				"y": 1.9581568886,
				"z": 3.9765317907,
				"element": "O" 
			},
			{
				"x": 2.8388716379,
				"y": -0.2843455812,
				"z": 4.7969249793,
				"element": "C" 
			},
			{
				"x": 3.6548556281,
				"y": 0.2945183292,
				"z": 5.9481818757,
				"element": "C" 
			},
			{
				"x": 5.048397572,
				"y": 0.6909215137,
				"z": 5.5071747818,
				"element": "C" 
			},
			{
				"x": 5.6312432113,
				"y": 1.5363926098,
				"z": 6.3875658277,
				"element": "O" 
			},
			{
				"x": 5.6162882274,
				"y": 0.285024271,
				"z": 4.5163338948,
				"element": "O" 
			},
			{
				"x": -5.7122516565,
				"y": 0.2928582491,
				"z": -4.1803385241,
				"element": "H" 
			},
			{
				"x": -4.0242406271,
				"y": 0.8013241079,
				"z": -4.1363104736,
				"element": "H" 
			},
			{
				"x": -4.5443211457,
				"y": -0.6142222581,
				"z": -3.2110639969,
				"element": "H" 
			},
			{
				"x": -4.5281133792,
				"y": -0.3989607916,
				"z": -6.284274781,
				"element": "H" 
			},
			{
				"x": -5.1477697581,
				"y": -1.7749972316,
				"z": -5.3923674889,
				"element": "H" 
			},
			{
				"x": -2.8831917661,
				"y": -2.2687452465,
				"z": -4.498425644,
				"element": "H" 
			},
			{
				"x": -2.9718108291,
				"y": -2.315365104,
				"z": -6.2434474687,
				"element": "H" 
			},
			{
				"x": -2.1382205264,
				"y": 0.2493128441,
				"z": -6.0286757837,
				"element": "H" 
			},
			{
				"x": -1.0263889917,
				"y": -1.0975637276,
				"z": -6.1185361802,
				"element": "H" 
			},
			{
				"x": -0.5000302116,
				"y": 0.627747015,
				"z": -4.3401712282,
				"element": "H" 
			},
			{
				"x": -1.9340870488,
				"y": 0.1228353138,
				"z": -3.4656992372,
				"element": "H" 
			},
			{
				"x": -0.9700884298,
				"y": -2.2134559982,
				"z": -3.2837393785,
				"element": "H" 
			},
			{
				"x": 0.4210268839,
				"y": -1.6912177748,
				"z": -4.214966447,
				"element": "H" 
			},
			{
				"x": 1.0739800015,
				"y": -1.725615346,
				"z": -1.898389965,
				"element": "H" 
			},
			{
				"x": 1.0155323768,
				"y": -0.045788829,
				"z": -2.3978243292,
				"element": "H" 
			},
			{
				"x": -1.1943821886,
				"y": -1.4920415582,
				"z": -0.8382697779,
				"element": "H" 
			},
			{
				"x": -1.2241792967,
				"y": 0.2093573418,
				"z": -1.2853520333,
				"element": "H" 
			},
			{
				"x": 0.284406315,
				"y": -2.2917667784,
				"z": 0.9735250877,
				"element": "H" 
			},
			{
				"x": 1.5662822764,
				"y": -1.7383625718,
				"z": 2.9943837827,
				"element": "H" 
			},
			{
				"x": 1.5836345946,
				"y": 2.4048479292,
				"z": 1.8691914457,
				"element": "H" 
			},
			{
				"x": 0.284907317,
				"y": 1.8458496336,
				"z": -0.180727745,
				"element": "H" 
			},
			{
				"x": 1.9302143403,
				"y": -0.7670698065,
				"z": 5.1775562098,
				"element": "H" 
			},
			{
				"x": 3.4185698193,
				"y": -1.0584988691,
				"z": 4.2824103205,
				"element": "H" 
			},
			{
				"x": 3.7668576162,
				"y": -0.448867793,
				"z": 6.7473397229,
				"element": "H" 
			},
			{
				"x": 3.1661044451,
				"y": 1.1681982066,
				"z": 6.3846569001,
				"element": "H" 
			},
			{
				"x": 6.5192196612,
				"y": 1.7188225555,
				"z": 6.0368910553,
				"element": "H" 
			}
		],
		 "valence_orbital": [ 
			{
				"type": "occ",
				"energy": -0.30477,
				"method": "rhf"
			},
			{
				"type": "occ",
				"energy": -0.2703,
				"method": "rhf"
			},
			{
				"type": "occ",
				"energy": -0.25696,
				"method": "rhf"
			},
			{
				"type": "occ",
				"energy": -0.24858,
				"method": "rhf"
			},
			{
				"type": "occ",
				"energy": -0.24707,
				"method": "rhf"
			},
			{
				"type": "unocc",
				"energy": -0.05207,
				"method": "rhf"
			},
			{
				"type": "unocc",
				"energy": -0.00703,
				"method": "rhf"
			},
			{
				"type": "unocc",
				"energy": 0.01844,
				"method": "rhf"
			},
			{
				"type": "unocc",
				"energy": 0.04144,
				"method": "rhf"
			},
			{
				"type": "unocc",
				"energy": 0.08073,
				"method": "rhf"
			}
		],
		"cosmo_sigma_profile": { 
			"-0.025": 0.0,
			"-0.024": 0.0,
			"-0.023": 0.0,
			"-0.022": 0.0,
			"-0.021": 0.0,
			"-0.02": 0.0,
			"-0.019": 0.0231941294147,
			"-0.018": 0.750675451938,
			"-0.017": 0.641649043404,
			"-0.016": 1.30190195875,
			"-0.015": 0.843796022897,
			"-0.014": 0.36202388986,
			"-0.013": 0.0564947867323,
			"-0.012": 0.787942361577,
			"-0.011": 0.898042571713,
			"-0.01": 1.00884223732,
			"-0.009": 0.62058449344,
			"-0.008": 0.678947702183,
			"-0.007": 4.08514484919,
			"-0.006": 13.2620655472,
			"-0.005": 17.2877250657,
			"-0.004": 20.1458634683,
			"-0.003": 22.9270988324,
			"-0.002": 44.0178859163,
			"-0.001": 54.0326881891,
			"0.0": 55.4404619106,
			"0.001": 43.6483412585,
			"0.002": 24.9482474453,
			"0.003": 12.7818766007,
			"0.004": 16.2946897626,
			"0.005": 9.01492706922,
			"0.006": 6.01651140687,
			"0.007": 4.68399079997,
			"0.008": 3.85375081123,
			"0.009": 5.60609167525,
			"0.01": 4.31282878161,
			"0.011": 5.88270549486,
			"0.012": 7.04248362826,
			"0.013": 0.335983338761,
			"0.014": 0.0,
			"0.015": 0.0,
			"0.016": 0.0,
			"0.017": 0.0,
			"0.018": 0.0,
			"0.019": 0.0,
			"0.02": 0.0,
			"0.021": 0.0,
			"0.022": 0.0,
			"0.023": 0.0,
			"0.024": 0.0,
			"0.025": 0.0
		}
	}
}
