{
	 "smiles": "CC1=NC2=C(C=CC=C2)N1CCN", 
	 "Tm": 509.15, 
	 "num_atms": 26, 
	 "gaussian": { 
		 "optdone": 1, 
		 "sigma_profile": "yes", 
		 "theory": "DFT", 
		 "functional": "B3LYP", 
		 "basiset": "6-31G**", 
		 "properties": { 
			 "R2extent": 2786.4847, 
			 "electric_dipole_moment_norm": 3.97605491537, 
			 "electric_quadrupole_moment_norm": 7.15251899263, 
			 "total_energy": -553.171135383, 
			 "HOMO_LUMO_gap": 0.20607, 
			 "cosmo_polarized_energy": -12.94, 
			 "cosmo_cavitation_energy": 28.32, 
			 "cosmo_dispersion_energy": -20.56, 
			 "cosmo_repulsion_energy": 1.63, 
			 "cosmo_total_nonelectrostatic_energy": 9.39, 
			 "SMD_solvation_energy": 1.87 
		},
		"coords": [
			{
				"x": -1.5126273706,
				"y": -3.6828932061,
				"z": 0.1319334836,
				"element": "C" 
			},
			{
				"x": -0.9896825068,
				"y": -2.2968226668,
				"z": 0.3326344734,
				"element": "C" 
			},
			{
				"x": -1.1364337441,
				"y": -1.6000142095,
				"z": 1.43632774,
				"element": "N" 
			},
			{
				"x": -0.4958372167,
				"y": -0.3934829438,
				"z": 1.196366189,
				"element": "C" 
			},
			{
				"x": 0.0509130743,
				"y": -0.3802140592,
				"z": -0.1087862788,
				"element": "C" 
			},
			{
				"x": 0.7591206279,
				"y": 0.7134766354,
				"z": -0.6127047579,
				"element": "C" 
			},
			{
				"x": 0.9085455406,
				"y": 1.8109735701,
				"z": 0.2341870949,
				"element": "C" 
			},
			{
				"x": 0.3683032159,
				"y": 1.8148595935,
				"z": 1.5349607806,
				"element": "C" 
			},
			{
				"x": -0.3354475819,
				"y": 0.7199733937,
				"z": 2.0296546176,
				"element": "C" 
			},
			{
				"x": -0.277223973,
				"y": -1.6172835375,
				"z": -0.6495431252,
				"element": "N" 
			},
			{
				"x": 0.030428925,
				"y": -2.0678902806,
				"z": -2.0005952654,
				"element": "C" 
			},
			{
				"x": -0.9176629511,
				"y": -1.4902241297,
				"z": -3.0595188342,
				"element": "C" 
			},
			{
				"x": -2.2957984797,
				"y": -1.9094323168,
				"z": -2.7968926952,
				"element": "N" 
			},
			{
				"x": -2.1397964403,
				"y": -3.7466512694,
				"z": -0.7627838243,
				"element": "H" 
			},
			{
				"x": -2.0978118891,
				"y": -3.9562796067,
				"z": 1.0105070899,
				"element": "H" 
			},
			{
				"x": -0.6974415818,
				"y": -4.4088135148,
				"z": 0.0217732147,
				"element": "H" 
			},
			{
				"x": 1.1790565948,
				"y": 0.718503116,
				"z": -1.6141711148,
				"element": "H" 
			},
			{
				"x": 1.4533851647,
				"y": 2.6820013202,
				"z": -0.1182421978,
				"element": "H" 
			},
			{
				"x": 0.5066917725,
				"y": 2.6908908309,
				"z": 2.1619172425,
				"element": "H" 
			},
			{
				"x": -0.7512988489,
				"y": 0.7148753483,
				"z": 3.0322111261,
				"element": "H" 
			},
			{
				"x": -0.032121333,
				"y": -3.1580119951,
				"z": -2.0176569268,
				"element": "H" 
			},
			{
				"x": 1.0643281099,
				"y": -1.7871454733,
				"z": -2.2322207115,
				"element": "H" 
			},
			{
				"x": -0.6119040724,
				"y": -1.8934719769,
				"z": -4.032054638,
				"element": "H" 
			},
			{
				"x": -0.7802386797,
				"y": -0.3970916907,
				"z": -3.1076561663,
				"element": "H" 
			},
			{
				"x": -2.6630951465,
				"y": -1.3950029214,
				"z": -1.9998584706,
				"element": "H" 
			},
			{
				"x": -2.8898512097,
				"y": -1.6731280098,
				"z": -3.5867880455,
				"element": "H" 
			}
		],
		 "valence_orbital": [ 
			{
				"type": "occ",
				"energy": -0.28728,
				"method": "rhf"
			},
			{
				"type": "occ",
				"energy": -0.25845,
				"method": "rhf"
			},
			{
				"type": "occ",
				"energy": -0.25101,
				"method": "rhf"
			},
			{
				"type": "occ",
				"energy": -0.216,
				"method": "rhf"
			},
			{
				"type": "occ",
				"energy": -0.21277,
				"method": "rhf"
			},
			{
				"type": "unocc",
				"energy": -0.0067,
				"method": "rhf"
			},
			{
				"type": "unocc",
				"energy": 0.02721,
				"method": "rhf"
			},
			{
				"type": "unocc",
				"energy": 0.06094,
				"method": "rhf"
			},
			{
				"type": "unocc",
				"energy": 0.07172,
				"method": "rhf"
			},
			{
				"type": "unocc",
				"energy": 0.0951,
				"method": "rhf"
			}
		],
		"cosmo_sigma_profile": { 
			"-0.025": 0.0,
			"-0.024": 0.0,
			"-0.023": 0.0,
			"-0.022": 0.0,
			"-0.021": 0.0,
			"-0.02": 0.0,
			"-0.019": 0.0,
			"-0.018": 0.0,
			"-0.017": 0.0,
			"-0.016": 0.0,
			"-0.015": 0.0,
			"-0.014": 0.0,
			"-0.013": 0.0,
			"-0.012": 0.0,
			"-0.011": 0.113945334583,
			"-0.01": 1.28492860753,
			"-0.009": 2.79678087821,
			"-0.008": 1.7442189872,
			"-0.007": 3.89703301322,
			"-0.006": 12.2427403993,
			"-0.005": 20.7283398917,
			"-0.004": 21.803382865,
			"-0.003": 24.3532391607,
			"-0.002": 19.9565567829,
			"-0.001": 19.6646649922,
			"0.0": 12.1258256283,
			"0.001": 7.90534749169,
			"0.002": 9.19028388327,
			"0.003": 9.54236952279,
			"0.004": 9.34281023148,
			"0.005": 11.5648690029,
			"0.006": 11.9261104314,
			"0.007": 5.66951479547,
			"0.008": 2.17720394482,
			"0.009": 2.80180642899,
			"0.01": 1.64624383949,
			"0.011": 1.27794502056,
			"0.012": 1.54504480973,
			"0.013": 2.26331135803,
			"0.014": 1.41615350718,
			"0.015": 1.42183594414,
			"0.016": 1.33912566482,
			"0.017": 0.922683965386,
			"0.018": 0.752497360956,
			"0.019": 0.0796039580868,
			"0.02": 0.0,
			"0.021": 0.0,
			"0.022": 0.0,
			"0.023": 0.0,
			"0.024": 0.0,
			"0.025": 0.0
		}
	}
}
