{
	 "smiles": "NC1=NC2=C(C=CC=C2)N1C#N", 
	 "Tm": 449.15, 
	 "num_atms": 18, 
	 "gaussian": { 
		 "optdone": 1, 
		 "sigma_profile": "yes", 
		 "theory": "DFT", 
		 "functional": "B3LYP", 
		 "basiset": "6-31G**", 
		 "properties": { 
			 "R2extent": 2002.585, 
			 "electric_dipole_moment_norm": 1.68138154207, 
			 "electric_quadrupole_moment_norm": 16.3526200439, 
			 "total_energy": -527.452980576, 
			 "HOMO_LUMO_gap": 0.20127, 
			 "cosmo_polarized_energy": -13.63, 
			 "cosmo_cavitation_energy": 23.58, 
			 "cosmo_dispersion_energy": -17.14, 
			 "cosmo_repulsion_energy": 1.35, 
			 "cosmo_total_nonelectrostatic_energy": 7.79, 
			 "SMD_solvation_energy": 4.1 
		},
		"coords": [
			{
				"x": -0.4133858394,
				"y": 1.2212622152,
				"z": -3.1371661458,
				"element": "N" 
			},
			{
				"x": -0.1993276123,
				"y": 0.8744150166,
				"z": -1.8359484209,
				"element": "C" 
			},
			{
				"x": -0.5778631966,
				"y": 1.5249473611,
				"z": -0.7771215639,
				"element": "N" 
			},
			{
				"x": -0.0553253852,
				"y": 0.8172998462,
				"z": 0.3085217782,
				"element": "C" 
			},
			{
				"x": 0.6640210115,
				"y": -0.3169691135,
				"z": -0.1179836519,
				"element": "C" 
			},
			{
				"x": 1.2823236758,
				"y": -1.2083604229,
				"z": 0.743986801,
				"element": "C" 
			},
			{
				"x": 1.1649020318,
				"y": -0.9285954097,
				"z": 2.1098381809,
				"element": "C" 
			},
			{
				"x": 0.4557199621,
				"y": 0.194198337,
				"z": 2.5632065912,
				"element": "C" 
			},
			{
				"x": -0.1615154269,
				"y": 1.0783379363,
				"z": 1.6752334109,
				"element": "C" 
			},
			{
				"x": 0.5718120848,
				"y": -0.2770030999,
				"z": -1.5313916358,
				"element": "N" 
			},
			{
				"x": 1.0811654278,
				"y": -1.13881038,
				"z": -2.4169860451,
				"element": "C" 
			},
			{
				"x": 1.5032732177,
				"y": -1.8752469567,
				"z": -3.2169253335,
				"element": "N" 
			},
			{
				"x": -1.1115329631,
				"y": 1.9391224792,
				"z": -3.2645200021,
				"element": "H" 
			},
			{
				"x": -0.4044243315,
				"y": 0.4902777791,
				"z": -3.8344089307,
				"element": "H" 
			},
			{
				"x": 1.8285382077,
				"y": -2.0734870838,
				"z": 0.3822684352,
				"element": "H" 
			},
			{
				"x": 1.6326662323,
				"y": -1.5939712705,
				"z": 2.8285068201,
				"element": "H" 
			},
			{
				"x": 0.3858552069,
				"y": 0.3793607671,
				"z": 3.6308607311,
				"element": "H" 
			},
			{
				"x": -0.7105023033,
				"y": 1.9463219992,
				"z": 2.0243289812,
				"element": "H" 
			}
		],
		 "valence_orbital": [ 
			{
				"type": "occ",
				"energy": -0.31284,
				"method": "rhf"
			},
			{
				"type": "occ",
				"energy": -0.30377,
				"method": "rhf"
			},
			{
				"type": "occ",
				"energy": -0.29137,
				"method": "rhf"
			},
			{
				"type": "occ",
				"energy": -0.24333,
				"method": "rhf"
			},
			{
				"type": "occ",
				"energy": -0.2218,
				"method": "rhf"
			},
			{
				"type": "unocc",
				"energy": -0.02053,
				"method": "rhf"
			},
			{
				"type": "unocc",
				"energy": -0.00971,
				"method": "rhf"
			},
			{
				"type": "unocc",
				"energy": 0.00112,
				"method": "rhf"
			},
			{
				"type": "unocc",
				"energy": 0.03256,
				"method": "rhf"
			},
			{
				"type": "unocc",
				"energy": 0.05885,
				"method": "rhf"
			}
		],
		"cosmo_sigma_profile": { 
			"-0.025": 0.0,
			"-0.024": 0.0,
			"-0.023": 0.0,
			"-0.022": 0.0,
			"-0.021": 0.0,
			"-0.02": 0.0,
			"-0.019": 0.0,
			"-0.018": 0.0,
			"-0.017": 0.0,
			"-0.016": 0.12656748306,
			"-0.015": 2.03003429876,
			"-0.014": 2.77914027425,
			"-0.013": 2.24689295464,
			"-0.012": 2.63578447211,
			"-0.011": 2.6396651733,
			"-0.01": 1.60914968003,
			"-0.009": 2.20454265921,
			"-0.008": 2.5233466893,
			"-0.007": 4.4440054729,
			"-0.006": 9.23033393404,
			"-0.005": 12.335108187,
			"-0.004": 14.1865716692,
			"-0.003": 14.5436234578,
			"-0.002": 9.25273537234,
			"-0.001": 9.17485269547,
			"0.0": 8.86955737203,
			"0.001": 8.78073550534,
			"0.002": 10.3172502002,
			"0.003": 12.242595786,
			"0.004": 13.2589526189,
			"0.005": 11.8463881417,
			"0.006": 5.91909566168,
			"0.007": 4.57033764518,
			"0.008": 4.16057100132,
			"0.009": 4.80515420996,
			"0.01": 3.88414202779,
			"0.011": 3.81646376772,
			"0.012": 3.03605019031,
			"0.013": 1.04372871603,
			"0.014": 0.749531513682,
			"0.015": 1.14417067175,
			"0.016": 0.443867501938,
			"0.017": 0.0,
			"0.018": 0.0,
			"0.019": 0.0,
			"0.02": 0.0,
			"0.021": 0.0,
			"0.022": 0.0,
			"0.023": 0.0,
			"0.024": 0.0,
			"0.025": 0.0
		}
	}
}
