{
	 "smiles": "FC(F)(F)C1=CC(=NN1)C(F)(F)F", 
	 "Tm": 356.15, 
	 "num_atms": 15, 
	 "gaussian": { 
		 "optdone": 1, 
		 "sigma_profile": "yes", 
		 "theory": "DFT", 
		 "functional": "B3LYP", 
		 "basiset": "6-31G**", 
		 "properties": { 
			 "R2extent": 3858.4658, 
			 "electric_dipole_moment_norm": 2.2945681184, 
			 "electric_quadrupole_moment_norm": 5.88199636178, 
			 "total_energy": -900.261357573, 
			 "HOMO_LUMO_gap": 0.25608, 
			 "cosmo_polarized_energy": -8.16, 
			 "cosmo_cavitation_energy": 23.43, 
			 "cosmo_dispersion_energy": -16.26, 
			 "cosmo_repulsion_energy": 1.19, 
			 "cosmo_total_nonelectrostatic_energy": 8.36, 
			 "SMD_solvation_energy": 5.55 
		},
		"coords": [
			{
				"x": 4.0326294261,
				"y": 0.6994460874,
				"z": 2.816603234,
				"element": "F" 
			},
			{
				"x": 3.8138619595,
				"y": -0.3202843924,
				"z": 1.9665504905,
				"element": "C" 
			},
			{
				"x": 4.8607506504,
				"y": -0.3773664424,
				"z": 1.1075418769,
				"element": "F" 
			},
			{
				"x": 3.8134809453,
				"y": -1.4530432483,
				"z": 2.692604486,
				"element": "F" 
			},
			{
				"x": 2.5410798305,
				"y": -0.1468542897,
				"z": 1.2055700901,
				"element": "C" 
			},
			{
				"x": 1.228765252,
				"y": -0.0374236054,
				"z": 1.6211765784,
				"element": "C" 
			},
			{
				"x": 0.5061744218,
				"y": 0.1055509479,
				"z": 0.418742559,
				"element": "C" 
			},
			{
				"x": 1.297439246,
				"y": 0.0873101404,
				"z": -0.6556404818,
				"element": "N" 
			},
			{
				"x": 2.525316727,
				"y": -0.066651179,
				"z": -0.1526909722,
				"element": "N" 
			},
			{
				"x": -0.9763070027,
				"y": 0.2652215784,
				"z": 0.2630867906,
				"element": "C" 
			},
			{
				"x": -1.515455531,
				"y": -0.7292297405,
				"z": -0.4677796758,
				"element": "F" 
			},
			{
				"x": -1.569521111,
				"y": 0.2538503142,
				"z": 1.4775273697,
				"element": "F" 
			},
			{
				"x": -1.2967406139,
				"y": 1.4256286592,
				"z": -0.3407210582,
				"element": "F" 
			},
			{
				"x": 0.848548813,
				"y": -0.0571160397,
				"z": 2.6300437889,
				"element": "H" 
			},
			{
				"x": 3.322976987,
				"y": -0.1120387901,
				"z": -0.7705150763,
				"element": "H" 
			}
		],
		 "valence_orbital": [ 
			{
				"type": "occ",
				"energy": -0.39998,
				"method": "rhf"
			},
			{
				"type": "occ",
				"energy": -0.38756,
				"method": "rhf"
			},
			{
				"type": "occ",
				"energy": -0.32822,
				"method": "rhf"
			},
			{
				"type": "occ",
				"energy": -0.29888,
				"method": "rhf"
			},
			{
				"type": "occ",
				"energy": -0.28872,
				"method": "rhf"
			},
			{
				"type": "unocc",
				"energy": -0.03264,
				"method": "rhf"
			},
			{
				"type": "unocc",
				"energy": 0.01119,
				"method": "rhf"
			},
			{
				"type": "unocc",
				"energy": 0.05936,
				"method": "rhf"
			},
			{
				"type": "unocc",
				"energy": 0.10139,
				"method": "rhf"
			},
			{
				"type": "unocc",
				"energy": 0.12012,
				"method": "rhf"
			}
		],
		"cosmo_sigma_profile": { 
			"-0.025": 0.0,
			"-0.024": 0.0,
			"-0.023": 0.0,
			"-0.022": 0.0,
			"-0.021": 0.0,
			"-0.02": 0.0,
			"-0.019": 0.0876289425832,
			"-0.018": 0.867554622682,
			"-0.017": 1.16539943917,
			"-0.016": 1.14446886004,
			"-0.015": 0.396417246079,
			"-0.014": 0.655451567841,
			"-0.013": 1.4864088977,
			"-0.012": 0.849257705091,
			"-0.011": 1.02843729096,
			"-0.01": 1.28013712535,
			"-0.009": 3.10332864592,
			"-0.008": 4.02346997817,
			"-0.007": 2.71550191733,
			"-0.006": 2.63547173264,
			"-0.005": 4.14579847535,
			"-0.004": 4.61449629454,
			"-0.003": 5.90153464257,
			"-0.002": 9.04846791987,
			"-0.001": 12.6412857679,
			"0.0": 15.8125949525,
			"0.001": 22.8768925961,
			"0.002": 52.9130430483,
			"0.003": 26.1790649414,
			"0.004": 3.87184732618,
			"0.005": 1.59576843272,
			"0.006": 1.32471017055,
			"0.007": 1.19012940003,
			"0.008": 0.664227102078,
			"0.009": 1.70005821115,
			"0.01": 0.615586407777,
			"0.011": 1.16157636568,
			"0.012": 0.654091050625,
			"0.013": 0.608392296268,
			"0.014": 0.0,
			"0.015": 0.0,
			"0.016": 0.0,
			"0.017": 0.0,
			"0.018": 0.0,
			"0.019": 0.0,
			"0.02": 0.0,
			"0.021": 0.0,
			"0.022": 0.0,
			"0.023": 0.0,
			"0.024": 0.0,
			"0.025": 0.0
		}
	}
}
