{
	 "smiles": "CCOC(=O)C1=CNN(C)C1=N", 
	 "Tm": 369.15, 
	 "num_atms": 23, 
	 "gaussian": { 
		 "optdone": 1, 
		 "sigma_profile": "yes", 
		 "theory": "DFT", 
		 "functional": "B3LYP", 
		 "basiset": "6-31G**", 
		 "properties": { 
			 "R2extent": 4083.1604, 
			 "electric_dipole_moment_norm": 4.07950166932, 
			 "electric_quadrupole_moment_norm": 5.09044905387, 
			 "total_energy": -588.033322985, 
			 "HOMO_LUMO_gap": 0.17132, 
			 "cosmo_polarized_energy": -21.37, 
			 "cosmo_cavitation_energy": 27.29, 
			 "cosmo_dispersion_energy": -19.7, 
			 "cosmo_repulsion_energy": 1.6, 
			 "cosmo_total_nonelectrostatic_energy": 9.19, 
			 "SMD_solvation_energy": 4.73 
		},
		"coords": [
			{
				"x": -5.3618162985,
				"y": 0.6064423172,
				"z": 3.2754126981,
				"element": "C" 
			},
			{
				"x": -4.0763780837,
				"y": 1.3965002024,
				"z": 3.1177230664,
				"element": "C" 
			},
			{
				"x": -3.2059121582,
				"y": 0.6301421727,
				"z": 2.2588540776,
				"element": "O" 
			},
			{
				"x": -2.0121951729,
				"y": 1.1834200967,
				"z": 1.9934920545,
				"element": "C" 
			},
			{
				"x": -1.6470311085,
				"y": 2.2610581716,
				"z": 2.4379929118,
				"element": "O" 
			},
			{
				"x": -1.1680026142,
				"y": 0.3521919095,
				"z": 1.1194072295,
				"element": "C" 
			},
			{
				"x": 0.0920075289,
				"y": 0.7333607809,
				"z": 0.7849684497,
				"element": "C" 
			},
			{
				"x": 0.6658392478,
				"y": -0.1394956056,
				"z": -0.1048131894,
				"element": "N" 
			},
			{
				"x": -0.1908313108,
				"y": -1.2752362734,
				"z": -0.179269862,
				"element": "N" 
			},
			{
				"x": -0.197509285,
				"y": -1.9148101498,
				"z": -1.488589298,
				"element": "C" 
			},
			{
				"x": -1.4333513724,
				"y": -0.9306350457,
				"z": 0.4486736536,
				"element": "C" 
			},
			{
				"x": -2.531223612,
				"y": -1.5883301294,
				"z": 0.416934885,
				"element": "N" 
			},
			{
				"x": -6.0578372391,
				"y": 1.1525278636,
				"z": 3.9202665877,
				"element": "H" 
			},
			{
				"x": -5.1650062992,
				"y": -0.3707497799,
				"z": 3.7249856924,
				"element": "H" 
			},
			{
				"x": -5.8393911763,
				"y": 0.4447336107,
				"z": 2.3051908909,
				"element": "H" 
			},
			{
				"x": -3.5740023604,
				"y": 1.5633622037,
				"z": 4.0764348106,
				"element": "H" 
			},
			{
				"x": -4.2482120949,
				"y": 2.3785708825,
				"z": 2.6648694948,
				"element": "H" 
			},
			{
				"x": 0.6331163183,
				"y": 1.6043846628,
				"z": 1.1289208986,
				"element": "H" 
			},
			{
				"x": 1.6378899054,
				"y": -0.3933857712,
				"z": 0.0551930278,
				"element": "H" 
			},
			{
				"x": -0.6176747163,
				"y": -1.2699603686,
				"z": -2.2718189733,
				"element": "H" 
			},
			{
				"x": 0.8237797162,
				"y": -2.1935594958,
				"z": -1.7608343887,
				"element": "H" 
			},
			{
				"x": -0.7842169237,
				"y": -2.8329391604,
				"z": -1.4251550289,
				"element": "H" 
			},
			{
				"x": -2.4370408904,
				"y": -2.4509930944,
				"z": -0.1218396886,
				"element": "H" 
			}
		],
		 "valence_orbital": [ 
			{
				"type": "occ",
				"energy": -0.28365,
				"method": "rhf"
			},
			{
				"type": "occ",
				"energy": -0.27466,
				"method": "rhf"
			},
			{
				"type": "occ",
				"energy": -0.26118,
				"method": "rhf"
			},
			{
				"type": "occ",
				"energy": -0.24891,
				"method": "rhf"
			},
			{
				"type": "occ",
				"energy": -0.20401,
				"method": "rhf"
			},
			{
				"type": "unocc",
				"energy": -0.03269,
				"method": "rhf"
			},
			{
				"type": "unocc",
				"energy": 0.02598,
				"method": "rhf"
			},
			{
				"type": "unocc",
				"energy": 0.06609,
				"method": "rhf"
			},
			{
				"type": "unocc",
				"energy": 0.08919,
				"method": "rhf"
			},
			{
				"type": "unocc",
				"energy": 0.10747,
				"method": "rhf"
			}
		],
		"cosmo_sigma_profile": { 
			"-0.025": 0.0,
			"-0.024": 0.0,
			"-0.023": 0.0,
			"-0.022": 0.0,
			"-0.021": 0.0,
			"-0.02": 0.0,
			"-0.019": 0.0,
			"-0.018": 0.0,
			"-0.017": 0.165624399725,
			"-0.016": 1.44972030444,
			"-0.015": 1.86178597647,
			"-0.014": 1.47857942871,
			"-0.013": 1.2031201787,
			"-0.012": 1.24361273623,
			"-0.011": 1.86711422482,
			"-0.01": 5.33664387589,
			"-0.009": 3.05913976142,
			"-0.008": 3.57326855408,
			"-0.007": 5.01019923397,
			"-0.006": 5.30911713307,
			"-0.005": 11.5938423167,
			"-0.004": 19.3626038759,
			"-0.003": 23.5477471813,
			"-0.002": 18.664532816,
			"-0.001": 14.674018873,
			"0.0": 16.3981287008,
			"0.001": 12.1957332086,
			"0.002": 8.02682567178,
			"0.003": 6.11336395514,
			"0.004": 6.33651653968,
			"0.005": 5.31020296994,
			"0.006": 4.2190040585,
			"0.007": 4.50852215136,
			"0.008": 3.82227489507,
			"0.009": 3.03915042125,
			"0.01": 3.46152990524,
			"0.011": 3.3535757472,
			"0.012": 5.07032521445,
			"0.013": 4.33826715392,
			"0.014": 2.12778606992,
			"0.015": 1.45535853012,
			"0.016": 0.973691285128,
			"0.017": 1.77691328384,
			"0.018": 1.96305878541,
			"0.019": 1.43969149722,
			"0.02": 0.0,
			"0.021": 0.0,
			"0.022": 0.0,
			"0.023": 0.0,
			"0.024": 0.0,
			"0.025": 0.0
		}
	}
}
