{
	 "smiles": "O=CC1=CC=C(OCC2=NC=CC=C2)C=C1", 
	 "Tm": 362.15, 
	 "num_atms": 27, 
	 "gaussian": { 
		 "optdone": 1, 
		 "sigma_profile": "yes", 
		 "theory": "DFT", 
		 "functional": "B3LYP", 
		 "basiset": "6-31G**", 
		 "properties": { 
			 "R2extent": 4749.3691, 
			 "electric_dipole_moment_norm": 4.71626349349, 
			 "electric_quadrupole_moment_norm": 20.4669547933, 
			 "total_energy": -707.192536503, 
			 "HOMO_LUMO_gap": 0.18204, 
			 "cosmo_polarized_energy": -11.92, 
			 "cosmo_cavitation_energy": 32.05, 
			 "cosmo_dispersion_energy": -22.74, 
			 "cosmo_repulsion_energy": 1.77, 
			 "cosmo_total_nonelectrostatic_energy": 11.07, 
			 "SMD_solvation_energy": 5.49 
		},
		"coords": [
			{
				"x": 3.7876017188,
				"y": -2.1446167835,
				"z": -3.8197749211,
				"element": "O" 
			},
			{
				"x": 4.1412423042,
				"y": -1.8114253351,
				"z": -2.70242327,
				"element": "C" 
			},
			{
				"x": 3.2316024934,
				"y": -1.5090734556,
				"z": -1.5834413665,
				"element": "C" 
			},
			{
				"x": 1.842001065,
				"y": -1.5930286844,
				"z": -1.750860459,
				"element": "C" 
			},
			{
				"x": 0.9746836159,
				"y": -1.3077162742,
				"z": -0.7026782516,
				"element": "C" 
			},
			{
				"x": 1.5047099439,
				"y": -0.9329060673,
				"z": 0.5445118101,
				"element": "C" 
			},
			{
				"x": 0.7581770114,
				"y": -0.6410271933,
				"z": 1.6470439879,
				"element": "O" 
			},
			{
				"x": -0.6621972132,
				"y": -0.7844760147,
				"z": 1.5846730702,
				"element": "C" 
			},
			{
				"x": -1.3567865103,
				"y": 0.3453598271,
				"z": 0.8466974542,
				"element": "C" 
			},
			{
				"x": -2.4453200432,
				"y": -0.0047004922,
				"z": 0.1473062392,
				"element": "N" 
			},
			{
				"x": -3.1186787092,
				"y": 0.9651127614,
				"z": -0.4851487084,
				"element": "C" 
			},
			{
				"x": -2.7407948906,
				"y": 2.3074155255,
				"z": -0.4616412373,
				"element": "C" 
			},
			{
				"x": -1.6012690638,
				"y": 2.6598641337,
				"z": 0.2623055746,
				"element": "C" 
			},
			{
				"x": -0.8957770087,
				"y": 1.6635588393,
				"z": 0.9327649544,
				"element": "C" 
			},
			{
				"x": 2.8952981241,
				"y": -0.8424665551,
				"z": 0.7236151696,
				"element": "C" 
			},
			{
				"x": 3.7458048324,
				"y": -1.1289423967,
				"z": -0.3330665629,
				"element": "C" 
			},
			{
				"x": 5.2230048112,
				"y": -1.7125924556,
				"z": -2.4550236948,
				"element": "H" 
			},
			{
				"x": 1.45716186,
				"y": -1.8832859552,
				"z": -2.723589981,
				"element": "H" 
			},
			{
				"x": -0.0956729881,
				"y": -1.3633732613,
				"z": -0.8605238773,
				"element": "H" 
			},
			{
				"x": -0.9770419714,
				"y": -0.7949664294,
				"z": 2.6333379587,
				"element": "H" 
			},
			{
				"x": -0.9521235804,
				"y": -1.7406691692,
				"z": 1.1376014733,
				"element": "H" 
			},
			{
				"x": -3.9978755212,
				"y": 0.649075837,
				"z": -1.0436468457,
				"element": "H" 
			},
			{
				"x": -3.3204809888,
				"y": 3.050406952,
				"z": -0.9998846953,
				"element": "H" 
			},
			{
				"x": -1.2688022202,
				"y": 3.6931172695,
				"z": 0.3041906038,
				"element": "H" 
			},
			{
				"x": -0.0027646032,
				"y": 1.8887463231,
				"z": 1.5060984889,
				"element": "H" 
			},
			{
				"x": 3.2736716219,
				"y": -0.5525712393,
				"z": 1.698155541,
				"element": "H" 
			},
			{
				"x": 4.82252591,
				"y": -1.0616197065,
				"z": -0.1939984554,
				"element": "H" 
			}
		],
		 "valence_orbital": [ 
			{
				"type": "occ",
				"energy": -0.2699,
				"method": "rhf"
			},
			{
				"type": "occ",
				"energy": -0.2677,
				"method": "rhf"
			},
			{
				"type": "occ",
				"energy": -0.26252,
				"method": "rhf"
			},
			{
				"type": "occ",
				"energy": -0.24562,
				"method": "rhf"
			},
			{
				"type": "occ",
				"energy": -0.23288,
				"method": "rhf"
			},
			{
				"type": "unocc",
				"energy": -0.05084,
				"method": "rhf"
			},
			{
				"type": "unocc",
				"energy": -0.03574,
				"method": "rhf"
			},
			{
				"type": "unocc",
				"energy": -0.02539,
				"method": "rhf"
			},
			{
				"type": "unocc",
				"energy": -0.01029,
				"method": "rhf"
			},
			{
				"type": "unocc",
				"energy": 0.05202,
				"method": "rhf"
			}
		],
		"cosmo_sigma_profile": { 
			"-0.025": 0.0,
			"-0.024": 0.0,
			"-0.023": 0.0,
			"-0.022": 0.0,
			"-0.021": 0.0,
			"-0.02": 0.0,
			"-0.019": 0.0,
			"-0.018": 0.0,
			"-0.017": 0.0,
			"-0.016": 0.0,
			"-0.015": 0.0,
			"-0.014": 0.0,
			"-0.013": 0.0,
			"-0.012": 0.0,
			"-0.011": 0.0,
			"-0.01": 0.0,
			"-0.009": 0.0,
			"-0.008": 0.831027010025,
			"-0.007": 11.8494596561,
			"-0.006": 21.2313347575,
			"-0.005": 23.7639120783,
			"-0.004": 18.1137168154,
			"-0.003": 17.3577820854,
			"-0.002": 14.6745960527,
			"-0.001": 14.8969697383,
			"0.0": 17.5871186913,
			"0.001": 22.0039056809,
			"0.002": 26.8326801956,
			"0.003": 24.4419794994,
			"0.004": 9.0885592213,
			"0.005": 4.16036927756,
			"0.006": 2.95178427702,
			"0.007": 3.84438756967,
			"0.008": 4.4038230347,
			"0.009": 3.56820132368,
			"0.01": 2.34886370726,
			"0.011": 4.04717937729,
			"0.012": 5.10707734619,
			"0.013": 2.46543406903,
			"0.014": 0.848724727379,
			"0.015": 0.610753583752,
			"0.016": 0.157783425207,
			"0.017": 0.0,
			"0.018": 0.0,
			"0.019": 0.0,
			"0.02": 0.0,
			"0.021": 0.0,
			"0.022": 0.0,
			"0.023": 0.0,
			"0.024": 0.0,
			"0.025": 0.0
		}
	}
}
