{
	 "smiles": "CC1=C(NC2=NC3=C(S2)C=C(S3)C(O)=O)C=CC=C1", 
	 "Tm": 506.15, 
	 "num_atms": 29, 
	 "gaussian": { 
		 "optdone": 1, 
		 "sigma_profile": "yes", 
		 "theory": "DFT", 
		 "functional": "B3LYP", 
		 "basiset": "6-31G**", 
		 "properties": { 
			 "R2extent": 10071.4329, 
			 "electric_dipole_moment_norm": 6.76243938383, 
			 "electric_quadrupole_moment_norm": 37.7510471285, 
			 "total_energy": -1557.73790974, 
			 "HOMO_LUMO_gap": 0.14357, 
			 "cosmo_polarized_energy": -18.7, 
			 "cosmo_cavitation_energy": 37.05, 
			 "cosmo_dispersion_energy": -28.27, 
			 "cosmo_repulsion_energy": 2.06, 
			 "cosmo_total_nonelectrostatic_energy": 10.84, 
			 "SMD_solvation_energy": 5.35 
		},
		"coords": [
			{
				"x": 2.514342665,
				"y": -2.8963548115,
				"z": 1.3302061925,
				"element": "C" 
			},
			{
				"x": 1.1936567872,
				"y": -2.2870436406,
				"z": 1.7413237442,
				"element": "C" 
			},
			{
				"x": 0.6552759878,
				"y": -1.163823615,
				"z": 1.0687994666,
				"element": "C" 
			},
			{
				"x": 1.4107500497,
				"y": -0.6387521933,
				"z": -0.0054440976,
				"element": "N" 
			},
			{
				"x": 1.1533256672,
				"y": 0.4163479694,
				"z": -0.8266263562,
				"element": "C" 
			},
			{
				"x": 0.1056353625,
				"y": 1.2015540232,
				"z": -0.7905568186,
				"element": "N" 
			},
			{
				"x": 0.2181545081,
				"y": 2.1346729706,
				"z": -1.7738588427,
				"element": "C" 
			},
			{
				"x": 1.3345509686,
				"y": 2.118905679,
				"z": -2.602242519,
				"element": "C" 
			},
			{
				"x": 2.3666875549,
				"y": 0.7917341639,
				"z": -2.1051198729,
				"element": "S" 
			},
			{
				"x": 1.344111841,
				"y": 3.1315248243,
				"z": -3.5836379069,
				"element": "C" 
			},
			{
				"x": 0.2220515589,
				"y": 3.9297164692,
				"z": -3.5039732193,
				"element": "C" 
			},
			{
				"x": -0.8632268068,
				"y": 3.4272998681,
				"z": -2.1996456217,
				"element": "S" 
			},
			{
				"x": -0.0273574655,
				"y": 5.067670671,
				"z": -4.4109488483,
				"element": "C" 
			},
			{
				"x": -1.1736493654,
				"y": 5.7816903285,
				"z": -4.2414927678,
				"element": "O" 
			},
			{
				"x": 0.7490614481,
				"y": 5.3768229276,
				"z": -5.2870315713,
				"element": "O" 
			},
			{
				"x": -0.5713939607,
				"y": -0.6161321159,
				"z": 1.4685479537,
				"element": "C" 
			},
			{
				"x": -1.2656042998,
				"y": -1.1829862385,
				"z": 2.5367569301,
				"element": "C" 
			},
			{
				"x": -0.7528160678,
				"y": -2.2885082607,
				"z": 3.2114891223,
				"element": "C" 
			},
			{
				"x": 0.4691342843,
				"y": -2.8266099434,
				"z": 2.8062244873,
				"element": "C" 
			},
			{
				"x": 3.3473281306,
				"y": -2.1854009447,
				"z": 1.4190465528,
				"element": "H" 
			},
			{
				"x": 2.7572166286,
				"y": -3.7503181232,
				"z": 1.9662248979,
				"element": "H" 
			},
			{
				"x": 2.5000000836,
				"y": -3.2636765546,
				"z": 0.2947909892,
				"element": "H" 
			},
			{
				"x": 2.2752599434,
				"y": -1.1228388232,
				"z": -0.192682561,
				"element": "H" 
			},
			{
				"x": 2.108936512,
				"y": 3.305859174,
				"z": -4.3293834179,
				"element": "H" 
			},
			{
				"x": -1.7139559049,
				"y": 5.4383639089,
				"z": -3.5158456742,
				"element": "H" 
			},
			{
				"x": -0.9663301265,
				"y": 0.2415034371,
				"z": 0.9429901776,
				"element": "H" 
			},
			{
				"x": -2.2150654389,
				"y": -0.7496623979,
				"z": 2.8371361225,
				"element": "H" 
			},
			{
				"x": -1.2936805716,
				"y": -2.7293913742,
				"z": 4.0430297431,
				"element": "H" 
			},
			{
				"x": 0.8776000264,
				"y": -3.6891673782,
				"z": 3.3264237154,
				"element": "H" 
			}
		],
		 "valence_orbital": [ 
			{
				"type": "occ",
				"energy": -0.27324,
				"method": "rhf"
			},
			{
				"type": "occ",
				"energy": -0.25939,
				"method": "rhf"
			},
			{
				"type": "occ",
				"energy": -0.25444,
				"method": "rhf"
			},
			{
				"type": "occ",
				"energy": -0.2513,
				"method": "rhf"
			},
			{
				"type": "occ",
				"energy": -0.2087,
				"method": "rhf"
			},
			{
				"type": "unocc",
				"energy": -0.06513,
				"method": "rhf"
			},
			{
				"type": "unocc",
				"energy": -0.02643,
				"method": "rhf"
			},
			{
				"type": "unocc",
				"energy": -0.01845,
				"method": "rhf"
			},
			{
				"type": "unocc",
				"energy": -0.00804,
				"method": "rhf"
			},
			{
				"type": "unocc",
				"energy": -0.00522,
				"method": "rhf"
			}
		],
		"cosmo_sigma_profile": { 
			"-0.025": 0.0,
			"-0.024": 0.0,
			"-0.023": 0.0,
			"-0.022": 0.0,
			"-0.021": 0.0,
			"-0.02": 0.0,
			"-0.019": 0.061782011979,
			"-0.018": 0.619157981794,
			"-0.017": 0.713717894569,
			"-0.016": 1.06089135178,
			"-0.015": 1.94462243549,
			"-0.014": 2.11507731437,
			"-0.013": 2.00697399499,
			"-0.012": 2.36421072528,
			"-0.011": 2.13747534814,
			"-0.01": 2.07352819129,
			"-0.009": 3.53452891525,
			"-0.008": 4.67639356533,
			"-0.007": 5.63543625096,
			"-0.006": 8.15664332681,
			"-0.005": 14.9398258185,
			"-0.004": 15.812099015,
			"-0.003": 18.546558942,
			"-0.002": 19.4108600132,
			"-0.001": 24.679705984,
			"0.0": 27.3688565696,
			"0.001": 32.9723630462,
			"0.002": 26.0752074659,
			"0.003": 19.3149973195,
			"0.004": 15.5109568652,
			"0.005": 13.3583425103,
			"0.006": 10.4364953445,
			"0.007": 3.65910795125,
			"0.008": 3.39126771126,
			"0.009": 2.88876380585,
			"0.01": 4.70025670545,
			"0.011": 4.38949823758,
			"0.012": 5.79603778743,
			"0.013": 2.02830875424,
			"0.014": 0.176454737995,
			"0.015": 0.0,
			"0.016": 0.0,
			"0.017": 0.0,
			"0.018": 0.0,
			"0.019": 0.0,
			"0.02": 0.0,
			"0.021": 0.0,
			"0.022": 0.0,
			"0.023": 0.0,
			"0.024": 0.0,
			"0.025": 0.0
		}
	}
}
