{
	 "smiles": "COC(=O)CNC(=O)CCCl", 
	 "Tm": 333.15, 
	 "num_atms": 21, 
	 "gaussian": { 
		 "optdone": 1, 
		 "sigma_profile": "yes", 
		 "theory": "DFT", 
		 "functional": "B3LYP", 
		 "basiset": "6-31G**", 
		 "properties": { 
			 "R2extent": 3054.8217, 
			 "electric_dipole_moment_norm": 3.05402705456, 
			 "electric_quadrupole_moment_norm": 13.782009023, 
			 "total_energy": -975.305052287, 
			 "HOMO_LUMO_gap": 0.25428, 
			 "cosmo_polarized_energy": -15.0, 
			 "cosmo_cavitation_energy": 27.15, 
			 "cosmo_dispersion_energy": -19.16, 
			 "cosmo_repulsion_energy": 1.61, 
			 "cosmo_total_nonelectrostatic_energy": 9.6, 
			 "SMD_solvation_energy": 6.29 
		},
		"coords": [
			{
				"x": -0.5210656204,
				"y": -1.8263564526,
				"z": -2.1422007448,
				"element": "C" 
			},
			{
				"x": -0.2869384513,
				"y": -0.8070579917,
				"z": -1.1538708749,
				"element": "O" 
			},
			{
				"x": -0.7736633237,
				"y": -1.078746806,
				"z": 0.0717607419,
				"element": "C" 
			},
			{
				"x": -1.3529327695,
				"y": -2.1005856859,
				"z": 0.3658077056,
				"element": "O" 
			},
			{
				"x": -0.5261277687,
				"y": 0.0487870212,
				"z": 1.0706065205,
				"element": "C" 
			},
			{
				"x": 0.3441193298,
				"y": 1.1136275452,
				"z": 0.6276606405,
				"element": "N" 
			},
			{
				"x": -0.1696603438,
				"y": 2.3045828775,
				"z": 0.1903784702,
				"element": "C" 
			},
			{
				"x": -1.3592175057,
				"y": 2.5845039598,
				"z": 0.263713653,
				"element": "O" 
			},
			{
				"x": 0.8293714298,
				"y": 3.3012415731,
				"z": -0.4067489827,
				"element": "C" 
			},
			{
				"x": 2.1793487594,
				"y": 3.4653206017,
				"z": 0.2861293178,
				"element": "C" 
			},
			{
				"x": 3.3666849871,
				"y": 2.1276603664,
				"z": -0.1021941799,
				"element": "Cl" 
			},
			{
				"x": -1.5933395441,
				"y": -1.9778291268,
				"z": -2.2871758877,
				"element": "H" 
			},
			{
				"x": -0.0578649421,
				"y": -1.4599041724,
				"z": -3.0579373786,
				"element": "H" 
			},
			{
				"x": -0.0696598975,
				"y": -2.7719236736,
				"z": -1.8323781744,
				"element": "H" 
			},
			{
				"x": -0.149908326,
				"y": -0.4151785737,
				"z": 1.9879874416,
				"element": "H" 
			},
			{
				"x": -1.4969954527,
				"y": 0.4973615637,
				"z": 1.299517086,
				"element": "H" 
			},
			{
				"x": 1.3020709719,
				"y": 0.8880576785,
				"z": 0.3954580424,
				"element": "H" 
			},
			{
				"x": 0.317893655,
				"y": 4.268298806,
				"z": -0.3765137913,
				"element": "H" 
			},
			{
				"x": 0.9823989364,
				"y": 3.0574462634,
				"z": -1.4647627921,
				"element": "H" 
			},
			{
				"x": 2.0889177788,
				"y": 3.478290526,
				"z": 1.3729795324,
				"element": "H" 
			},
			{
				"x": 2.6719680974,
				"y": 4.3800037002,
				"z": -0.0435163456,
				"element": "H" 
			}
		],
		 "valence_orbital": [ 
			{
				"type": "occ",
				"energy": -0.31467,
				"method": "rhf"
			},
			{
				"type": "occ",
				"energy": -0.30702,
				"method": "rhf"
			},
			{
				"type": "occ",
				"energy": -0.29236,
				"method": "rhf"
			},
			{
				"type": "occ",
				"energy": -0.25765,
				"method": "rhf"
			},
			{
				"type": "occ",
				"energy": -0.25252,
				"method": "rhf"
			},
			{
				"type": "unocc",
				"energy": 0.00176,
				"method": "rhf"
			},
			{
				"type": "unocc",
				"energy": 0.0081,
				"method": "rhf"
			},
			{
				"type": "unocc",
				"energy": 0.02038,
				"method": "rhf"
			},
			{
				"type": "unocc",
				"energy": 0.0819,
				"method": "rhf"
			},
			{
				"type": "unocc",
				"energy": 0.09898,
				"method": "rhf"
			}
		],
		"cosmo_sigma_profile": { 
			"-0.025": 0.0,
			"-0.024": 0.0,
			"-0.023": 0.0,
			"-0.022": 0.0,
			"-0.021": 0.0,
			"-0.02": 0.0,
			"-0.019": 0.0,
			"-0.018": 0.0,
			"-0.017": 0.0,
			"-0.016": 0.0,
			"-0.015": 0.0,
			"-0.014": 0.0,
			"-0.013": 0.0,
			"-0.012": 0.197922329012,
			"-0.011": 0.554565809937,
			"-0.01": 0.778575895747,
			"-0.009": 0.787896097735,
			"-0.008": 4.92507643753,
			"-0.007": 13.159344321,
			"-0.006": 19.2250733521,
			"-0.005": 21.2373896722,
			"-0.004": 20.3660827072,
			"-0.003": 18.3500032647,
			"-0.002": 10.9383857051,
			"-0.001": 8.00159548629,
			"0.0": 9.79552162565,
			"0.001": 10.2683552931,
			"0.002": 9.14725073768,
			"0.003": 7.51531349037,
			"0.004": 10.2521797233,
			"0.005": 9.31407659342,
			"0.006": 9.92621135117,
			"0.007": 2.90899949936,
			"0.008": 3.06065300855,
			"0.009": 2.81494761461,
			"0.01": 2.55315118193,
			"0.011": 5.31768061771,
			"0.012": 6.93957372556,
			"0.013": 4.84335441474,
			"0.014": 2.79366251587,
			"0.015": 0.264724303438,
			"0.016": 0.0,
			"0.017": 0.0,
			"0.018": 0.0,
			"0.019": 0.0,
			"0.02": 0.0,
			"0.021": 0.0,
			"0.022": 0.0,
			"0.023": 0.0,
			"0.024": 0.0,
			"0.025": 0.0
		}
	}
}
