{
	 "smiles": "[O-][N+](=O)C1=CC=C(COC(Cl)=O)C=C1", 
	 "Tm": 306.15, 
	 "num_atms": 20, 
	 "gaussian": { 
		 "optdone": 1, 
		 "sigma_profile": "yes", 
		 "theory": "DFT", 
		 "functional": "B3LYP", 
		 "basiset": "6-31G**", 
		 "properties": { 
			 "R2extent": 4548.5484, 
			 "electric_dipole_moment_norm": 4.07539602247, 
			 "electric_quadrupole_moment_norm": 17.9192249512, 
			 "total_energy": -1124.20936753, 
			 "HOMO_LUMO_gap": 0.18913, 
			 "cosmo_polarized_energy": -11.43, 
			 "cosmo_cavitation_energy": 28.14, 
			 "cosmo_dispersion_energy": -20.38, 
			 "cosmo_repulsion_energy": 1.62, 
			 "cosmo_total_nonelectrostatic_energy": 9.38, 
			 "SMD_solvation_energy": 8.22 
		},
		"coords": [
			{
				"x": -3.5680165001,
				"y": -2.3985334287,
				"z": -0.5298910519,
				"element": "O" 
			},
			{
				"x": -3.5035954387,
				"y": -1.4575899643,
				"z": 0.2589629454,
				"element": "N" 
			},
			{
				"x": -4.4395860057,
				"y": -1.0463117777,
				"z": 0.9426285431,
				"element": "O" 
			},
			{
				"x": -2.2058506514,
				"y": -0.7705450021,
				"z": 0.396530466,
				"element": "C" 
			},
			{
				"x": -2.1018601861,
				"y": 0.296607426,
				"z": 1.2861880374,
				"element": "C" 
			},
			{
				"x": -0.8716248522,
				"y": 0.9343638259,
				"z": 1.4143635636,
				"element": "C" 
			},
			{
				"x": 0.2356736317,
				"y": 0.5128985628,
				"z": 0.66437432,
				"element": "C" 
			},
			{
				"x": 1.5572791608,
				"y": 1.2233359606,
				"z": 0.8095957931,
				"element": "C" 
			},
			{
				"x": 1.6308623226,
				"y": 2.4018530431,
				"z": -0.0609267967,
				"element": "O" 
			},
			{
				"x": 2.0619410832,
				"y": 2.1733666639,
				"z": -1.298636362,
				"element": "C" 
			},
			{
				"x": 2.071143497,
				"y": 3.7102764576,
				"z": -2.1870991517,
				"element": "Cl" 
			},
			{
				"x": 2.4070294143,
				"y": 1.1352802351,
				"z": -1.7841615513,
				"element": "O" 
			},
			{
				"x": 0.097713418,
				"y": -0.5626317911,
				"z": -0.2252081616,
				"element": "C" 
			},
			{
				"x": -1.1258550003,
				"y": -1.2128236344,
				"z": -0.3637866598,
				"element": "C" 
			},
			{
				"x": -2.9696076198,
				"y": 0.6027251793,
				"z": 1.8565883345,
				"element": "H" 
			},
			{
				"x": -0.7699153531,
				"y": 1.7671134051,
				"z": 2.1043968568,
				"element": "H" 
			},
			{
				"x": 2.3979165875,
				"y": 0.5679398968,
				"z": 0.5774354206,
				"element": "H" 
			},
			{
				"x": 1.67724996,
				"y": 1.6419060533,
				"z": 1.8094537371,
				"element": "H" 
			},
			{
				"x": 0.9497123036,
				"y": -0.8810981156,
				"z": -0.8164215752,
				"element": "H" 
			},
			{
				"x": -1.2565097713,
				"y": -2.0468329955,
				"z": -1.0416867075,
				"element": "H" 
			}
		],
		 "valence_orbital": [ 
			{
				"type": "occ",
				"energy": -0.31567,
				"method": "rhf"
			},
			{
				"type": "occ",
				"energy": -0.3135,
				"method": "rhf"
			},
			{
				"type": "occ",
				"energy": -0.29914,
				"method": "rhf"
			},
			{
				"type": "occ",
				"energy": -0.29334,
				"method": "rhf"
			},
			{
				"type": "occ",
				"energy": -0.28981,
				"method": "rhf"
			},
			{
				"type": "unocc",
				"energy": -0.10068,
				"method": "rhf"
			},
			{
				"type": "unocc",
				"energy": -0.03997,
				"method": "rhf"
			},
			{
				"type": "unocc",
				"energy": -0.024,
				"method": "rhf"
			},
			{
				"type": "unocc",
				"energy": -0.01772,
				"method": "rhf"
			},
			{
				"type": "unocc",
				"energy": 0.01066,
				"method": "rhf"
			}
		],
		"cosmo_sigma_profile": { 
			"-0.025": 0.0,
			"-0.024": 0.0,
			"-0.023": 0.0,
			"-0.022": 0.0,
			"-0.021": 0.0,
			"-0.02": 0.0,
			"-0.019": 0.0,
			"-0.018": 0.0,
			"-0.017": 0.0,
			"-0.016": 0.0,
			"-0.015": 0.0,
			"-0.014": 0.0,
			"-0.013": 0.0,
			"-0.012": 0.0,
			"-0.011": 0.0,
			"-0.01": 0.0117594937597,
			"-0.009": 2.33161942135,
			"-0.008": 8.20277634893,
			"-0.007": 12.2228089364,
			"-0.006": 14.6104591802,
			"-0.005": 13.0012257318,
			"-0.004": 11.1019239099,
			"-0.003": 12.4790007572,
			"-0.002": 14.7359002208,
			"-0.001": 16.4904601669,
			"0.0": 19.4672632217,
			"0.001": 22.3307599939,
			"0.002": 13.925410022,
			"0.003": 14.1120989094,
			"0.004": 9.527140397,
			"0.005": 6.69250170618,
			"0.006": 7.0474194434,
			"0.007": 10.9448731636,
			"0.008": 9.50091645957,
			"0.009": 6.91367674822,
			"0.01": 2.98256529506,
			"0.011": 0.0,
			"0.012": 0.0,
			"0.013": 0.0,
			"0.014": 0.0,
			"0.015": 0.0,
			"0.016": 0.0,
			"0.017": 0.0,
			"0.018": 0.0,
			"0.019": 0.0,
			"0.02": 0.0,
			"0.021": 0.0,
			"0.022": 0.0,
			"0.023": 0.0,
			"0.024": 0.0,
			"0.025": 0.0
		}
	}
}
