{
	 "smiles": "CC(=O)C1=CC=C(NC(=O)C(C(F)(F)F)C(F)(F)F)C=C1", 
	 "Tm": 447.15, 
	 "num_atms": 30, 
	 "gaussian": { 
		 "optdone": 1, 
		 "sigma_profile": "yes", 
		 "theory": "DFT", 
		 "functional": "B3LYP", 
		 "basiset": "6-31G**", 
		 "properties": { 
			 "R2extent": 7876.2005, 
			 "electric_dipole_moment_norm": 4.69883732215, 
			 "electric_quadrupole_moment_norm": 18.7569911889, 
			 "total_energy": -1266.96492464, 
			 "HOMO_LUMO_gap": 0.18299, 
			 "cosmo_polarized_energy": -17.02, 
			 "cosmo_cavitation_energy": 37.34, 
			 "cosmo_dispersion_energy": -25.06, 
			 "cosmo_repulsion_energy": 1.81, 
			 "cosmo_total_nonelectrostatic_energy": 14.09, 
			 "SMD_solvation_energy": 9.66 
		},
		"coords": [
			{
				"x": 5.4602005569,
				"y": 1.148491216,
				"z": 0.4371987666,
				"element": "C" 
			},
			{
				"x": 4.3475425213,
				"y": 0.9986366604,
				"z": 1.4597715821,
				"element": "C" 
			},
			{
				"x": 4.6001237994,
				"y": 0.7261753794,
				"z": 2.6232025545,
				"element": "O" 
			},
			{
				"x": 2.9264384695,
				"y": 1.1907716725,
				"z": 1.0181775756,
				"element": "C" 
			},
			{
				"x": 1.9112174311,
				"y": 1.063176967,
				"z": 1.9779086766,
				"element": "C" 
			},
			{
				"x": 0.5754482227,
				"y": 1.2415494133,
				"z": 1.6382024544,
				"element": "C" 
			},
			{
				"x": 0.2255308608,
				"y": 1.5190238747,
				"z": 0.3066286243,
				"element": "C" 
			},
			{
				"x": -1.1198657059,
				"y": 1.7285633463,
				"z": -0.0868355675,
				"element": "N" 
			},
			{
				"x": -2.2740439056,
				"y": 1.0192886005,
				"z": 0.1599077838,
				"element": "C" 
			},
			{
				"x": -3.3537049141,
				"y": 1.4157988242,
				"z": -0.2388725116,
				"element": "O" 
			},
			{
				"x": -2.1483204886,
				"y": -0.3274186275,
				"z": 0.8949407171,
				"element": "C" 
			},
			{
				"x": -2.9114944434,
				"y": -0.2908032271,
				"z": 2.2213470557,
				"element": "C" 
			},
			{
				"x": -2.6853587866,
				"y": -1.40856621,
				"z": 2.9355594247,
				"element": "F" 
			},
			{
				"x": -2.469428355,
				"y": 0.7591965622,
				"z": 2.9609287544,
				"element": "F" 
			},
			{
				"x": -4.2302260673,
				"y": -0.1537768019,
				"z": 2.0680385261,
				"element": "F" 
			},
			{
				"x": -2.6142195586,
				"y": -1.4614557964,
				"z": -0.0269751689,
				"element": "C" 
			},
			{
				"x": -3.9203865437,
				"y": -1.4212917042,
				"z": -0.3028823273,
				"element": "F" 
			},
			{
				"x": -2.3429150443,
				"y": -2.6583608775,
				"z": 0.5295281888,
				"element": "F" 
			},
			{
				"x": -1.9338290399,
				"y": -1.3895178851,
				"z": -1.1925155279,
				"element": "F" 
			},
			{
				"x": 1.2330771639,
				"y": 1.6579556712,
				"z": -0.6582933498,
				"element": "C" 
			},
			{
				"x": 2.5690470731,
				"y": 1.5019969167,
				"z": -0.3022551553,
				"element": "C" 
			},
			{
				"x": 5.4584572147,
				"y": 2.1519974757,
				"z": -0.0027188297,
				"element": "H" 
			},
			{
				"x": 5.3404955117,
				"y": 0.4315343484,
				"z": -0.3827312424,
				"element": "H" 
			},
			{
				"x": 6.4150289161,
				"y": 0.9734232205,
				"z": 0.9332306226,
				"element": "H" 
			},
			{
				"x": 2.1996041879,
				"y": 0.8452124275,
				"z": 3.0007141744,
				"element": "H" 
			},
			{
				"x": -0.1940713951,
				"y": 1.1960708228,
				"z": 2.4003139462,
				"element": "H" 
			},
			{
				"x": -1.2961349707,
				"y": 2.5056256628,
				"z": -0.713818244,
				"element": "H" 
			},
			{
				"x": -1.110682044,
				"y": -0.5561492707,
				"z": 1.141098167,
				"element": "H" 
			},
			{
				"x": 0.9611713247,
				"y": 1.8736748469,
				"z": -1.6874271247,
				"element": "H" 
			},
			{
				"x": 3.3309980088,
				"y": 1.6119764914,
				"z": -1.066772546,
				"element": "H" 
			}
		],
		 "valence_orbital": [ 
			{
				"type": "occ",
				"energy": -0.31744,
				"method": "rhf"
			},
			{
				"type": "occ",
				"energy": -0.28561,
				"method": "rhf"
			},
			{
				"type": "occ",
				"energy": -0.28373,
				"method": "rhf"
			},
			{
				"type": "occ",
				"energy": -0.26089,
				"method": "rhf"
			},
			{
				"type": "occ",
				"energy": -0.25702,
				"method": "rhf"
			},
			{
				"type": "unocc",
				"energy": -0.07403,
				"method": "rhf"
			},
			{
				"type": "unocc",
				"energy": -0.03467,
				"method": "rhf"
			},
			{
				"type": "unocc",
				"energy": -0.01693,
				"method": "rhf"
			},
			{
				"type": "unocc",
				"energy": 0.0234,
				"method": "rhf"
			},
			{
				"type": "unocc",
				"energy": 0.07058,
				"method": "rhf"
			}
		],
		"cosmo_sigma_profile": { 
			"-0.025": 0.0,
			"-0.024": 0.0,
			"-0.023": 0.0,
			"-0.022": 0.0,
			"-0.021": 0.0,
			"-0.02": 0.0,
			"-0.019": 0.0,
			"-0.018": 0.0,
			"-0.017": 0.0,
			"-0.016": 0.404451097884,
			"-0.015": 1.2195246103,
			"-0.014": 0.896945847414,
			"-0.013": 1.30867145413,
			"-0.012": 1.22802784408,
			"-0.011": 2.02997117591,
			"-0.01": 2.99831972487,
			"-0.009": 3.0802014558,
			"-0.008": 3.48398087927,
			"-0.007": 8.42900627996,
			"-0.006": 15.6723011221,
			"-0.005": 14.9678962006,
			"-0.004": 13.4701709901,
			"-0.003": 15.7188726577,
			"-0.002": 18.0878985782,
			"-0.001": 21.802158228,
			"0.0": 21.9878724071,
			"0.001": 35.0784233579,
			"0.002": 60.264155292,
			"0.003": 15.0621769198,
			"0.004": 3.95525476662,
			"0.005": 4.21990212961,
			"0.006": 3.35174644284,
			"0.007": 2.73211330505,
			"0.008": 3.28726579294,
			"0.009": 4.69769912173,
			"0.01": 4.08056846127,
			"0.011": 7.6183494395,
			"0.012": 6.17916524929,
			"0.013": 1.44010418654,
			"0.014": 0.0588887194459,
			"0.015": 0.0,
			"0.016": 0.0,
			"0.017": 0.0,
			"0.018": 0.0,
			"0.019": 0.0,
			"0.02": 0.0,
			"0.021": 0.0,
			"0.022": 0.0,
			"0.023": 0.0,
			"0.024": 0.0,
			"0.025": 0.0
		}
	}
}
