{
	 "smiles": "OC(=O)CCC(=O)N1CCOC2=C1C=CC=C2", 
	 "Tm": 383.15, 
	 "num_atms": 30, 
	 "gaussian": { 
		 "optdone": 1, 
		 "sigma_profile": "yes", 
		 "theory": "DFT", 
		 "functional": "B3LYP", 
		 "basiset": "6-31G**", 
		 "properties": { 
			 "R2extent": 5078.3641, 
			 "electric_dipole_moment_norm": 3.44306281238, 
			 "electric_quadrupole_moment_norm": 19.7432498771, 
			 "total_energy": -820.772349852, 
			 "HOMO_LUMO_gap": 0.20153, 
			 "cosmo_polarized_energy": -19.59, 
			 "cosmo_cavitation_energy": 33.31, 
			 "cosmo_dispersion_energy": -24.17, 
			 "cosmo_repulsion_energy": 1.89, 
			 "cosmo_total_nonelectrostatic_energy": 11.03, 
			 "SMD_solvation_energy": 7.11 
		},
		"coords": [
			{
				"x": -4.394328079,
				"y": 3.1775370104,
				"z": -1.6196212132,
				"element": "O" 
			},
			{
				"x": -3.8077034873,
				"y": 2.086922949,
				"z": -1.0574132647,
				"element": "C" 
			},
			{
				"x": -4.2920614818,
				"y": 1.5815239997,
				"z": -0.0749548197,
				"element": "O" 
			},
			{
				"x": -2.5619517178,
				"y": 1.5827859366,
				"z": -1.7698737694,
				"element": "C" 
			},
			{
				"x": -1.8485065468,
				"y": 0.4872981912,
				"z": -0.9792728356,
				"element": "C" 
			},
			{
				"x": -0.876408588,
				"y": -0.2806818614,
				"z": -1.8674461182,
				"element": "C" 
			},
			{
				"x": -1.0009543202,
				"y": -0.2718187531,
				"z": -3.0896746803,
				"element": "O" 
			},
			{
				"x": 0.156976838,
				"y": -0.989518216,
				"z": -1.2707620584,
				"element": "N" 
			},
			{
				"x": 1.2124150381,
				"y": -1.5151742229,
				"z": -2.1418358417,
				"element": "C" 
			},
			{
				"x": 2.4856504303,
				"y": -0.728332071,
				"z": -1.8676054801,
				"element": "C" 
			},
			{
				"x": 2.8704371801,
				"y": -0.8125949754,
				"z": -0.4908631362,
				"element": "O" 
			},
			{
				"x": 1.877568268,
				"y": -0.9358816582,
				"z": 0.4395958702,
				"element": "C" 
			},
			{
				"x": 0.5072413047,
				"y": -1.0228624179,
				"z": 0.109852824,
				"element": "C" 
			},
			{
				"x": -0.4190110835,
				"y": -1.2428226168,
				"z": 1.1389199171,
				"element": "C" 
			},
			{
				"x": -0.0127611923,
				"y": -1.2937298908,
				"z": 2.4700365084,
				"element": "C" 
			},
			{
				"x": 1.3418462652,
				"y": -1.1691192123,
				"z": 2.7884251163,
				"element": "C" 
			},
			{
				"x": 2.2819663578,
				"y": -1.0043679565,
				"z": 1.7762763346,
				"element": "C" 
			},
			{
				"x": -3.8988726993,
				"y": 3.4566797361,
				"z": -2.4028728579,
				"element": "H" 
			},
			{
				"x": -2.847152467,
				"y": 1.1892637678,
				"z": -2.7528935558,
				"element": "H" 
			},
			{
				"x": -1.8880902818,
				"y": 2.4264707943,
				"z": -1.9674530406,
				"element": "H" 
			},
			{
				"x": -2.6080588143,
				"y": -0.1990570324,
				"z": -0.5898855187,
				"element": "H" 
			},
			{
				"x": -1.3429419069,
				"y": 0.9000403606,
				"z": -0.1030237384,
				"element": "H" 
			},
			{
				"x": 0.8910996389,
				"y": -1.3937414357,
				"z": -3.1754505647,
				"element": "H" 
			},
			{
				"x": 1.3629234616,
				"y": -2.5792513969,
				"z": -1.9294695234,
				"element": "H" 
			},
			{
				"x": 2.3349065629,
				"y": 0.3248448792,
				"z": -2.1391681615,
				"element": "H" 
			},
			{
				"x": 3.3313747085,
				"y": -1.1190337371,
				"z": -2.440624742,
				"element": "H" 
			},
			{
				"x": -1.4635006229,
				"y": -1.3868439924,
				"z": 0.8903491603,
				"element": "H" 
			},
			{
				"x": -0.7510053027,
				"y": -1.4488656757,
				"z": 3.2500236704,
				"element": "H" 
			},
			{
				"x": 1.6684822841,
				"y": -1.2137198321,
				"z": 3.8228477748,
				"element": "H" 
			},
			{
				"x": 3.3426202532,
				"y": -0.9254506703,
				"z": 1.9910377445,
				"element": "H" 
			}
		],
		 "valence_orbital": [ 
			{
				"type": "occ",
				"energy": -0.29328,
				"method": "rhf"
			},
			{
				"type": "occ",
				"energy": -0.27633,
				"method": "rhf"
			},
			{
				"type": "occ",
				"energy": -0.26459,
				"method": "rhf"
			},
			{
				"type": "occ",
				"energy": -0.24006,
				"method": "rhf"
			},
			{
				"type": "occ",
				"energy": -0.21876,
				"method": "rhf"
			},
			{
				"type": "unocc",
				"energy": -0.01723,
				"method": "rhf"
			},
			{
				"type": "unocc",
				"energy": -0.00293,
				"method": "rhf"
			},
			{
				"type": "unocc",
				"energy": 0.00954,
				"method": "rhf"
			},
			{
				"type": "unocc",
				"energy": 0.02421,
				"method": "rhf"
			},
			{
				"type": "unocc",
				"energy": 0.05524,
				"method": "rhf"
			}
		],
		"cosmo_sigma_profile": { 
			"-0.025": 0.0,
			"-0.024": 0.0,
			"-0.023": 0.0,
			"-0.022": 0.0,
			"-0.021": 0.0,
			"-0.02": 0.0,
			"-0.019": 0.426035616718,
			"-0.018": 1.37078892204,
			"-0.017": 0.872734045903,
			"-0.016": 1.22498762119,
			"-0.015": 1.35518101609,
			"-0.014": 0.615023673073,
			"-0.013": 1.17323747515,
			"-0.012": 1.25398619421,
			"-0.011": 1.33212025534,
			"-0.01": 1.46645780638,
			"-0.009": 1.06460728524,
			"-0.008": 3.53512113251,
			"-0.007": 6.72261596367,
			"-0.006": 19.7603865977,
			"-0.005": 28.3963215727,
			"-0.004": 23.2865877233,
			"-0.003": 18.0560764825,
			"-0.002": 13.5277101949,
			"-0.001": 11.8165190018,
			"0.0": 12.1843509126,
			"0.001": 11.1868474813,
			"0.002": 12.6175153559,
			"0.003": 13.4241307339,
			"0.004": 13.5060375704,
			"0.005": 12.0309634169,
			"0.006": 7.86299853479,
			"0.007": 4.97989988461,
			"0.008": 4.67908325609,
			"0.009": 6.56059012177,
			"0.01": 7.54775722858,
			"0.011": 6.97435128182,
			"0.012": 8.16959724284,
			"0.013": 4.92702706894,
			"0.014": 0.105594102256,
			"0.015": 0.0,
			"0.016": 0.0,
			"0.017": 0.0,
			"0.018": 0.0,
			"0.019": 0.0,
			"0.02": 0.0,
			"0.021": 0.0,
			"0.022": 0.0,
			"0.023": 0.0,
			"0.024": 0.0,
			"0.025": 0.0
		}
	}
}
