{
	 "smiles": "CS(=O)(=O)NCC(=O)C1=CC=CC=C1", 
	 "Tm": 387.15, 
	 "num_atms": 25, 
	 "gaussian": { 
		 "optdone": 1, 
		 "sigma_profile": "yes", 
		 "theory": "DFT", 
		 "functional": "B3LYP", 
		 "basiset": "6-31G**", 
		 "properties": { 
			 "R2extent": 4771.13, 
			 "electric_dipole_moment_norm": 4.88092296497, 
			 "electric_quadrupole_moment_norm": 16.4031215746, 
			 "total_energy": -1028.13059517, 
			 "HOMO_LUMO_gap": 0.19395, 
			 "cosmo_polarized_energy": -18.14, 
			 "cosmo_cavitation_energy": 30.1, 
			 "cosmo_dispersion_energy": -22.56, 
			 "cosmo_repulsion_energy": 1.71, 
			 "cosmo_total_nonelectrostatic_energy": 9.25, 
			 "SMD_solvation_energy": 4.57 
		},
		"coords": [
			{
				"x": 0.6472362464,
				"y": 2.4296528586,
				"z": 2.8203167864,
				"element": "C" 
			},
			{
				"x": 2.1939434449,
				"y": 1.8144512519,
				"z": 2.1508059323,
				"element": "S" 
			},
			{
				"x": 2.1607268896,
				"y": 0.3475215919,
				"z": 2.1776210567,
				"element": "O" 
			},
			{
				"x": 3.2963955684,
				"y": 2.5622079369,
				"z": 2.7672256758,
				"element": "O" 
			},
			{
				"x": 2.146832925,
				"y": 2.3343958111,
				"z": 0.5262603795,
				"element": "N" 
			},
			{
				"x": 1.9720594678,
				"y": 1.3180971581,
				"z": -0.5100858252,
				"element": "C" 
			},
			{
				"x": 0.5038954003,
				"y": 0.9467302075,
				"z": -0.7361387805,
				"element": "C" 
			},
			{
				"x": -0.3705771285,
				"y": 1.3643013661,
				"z": 0.0060928795,
				"element": "O" 
			},
			{
				"x": 0.1787580884,
				"y": 0.0420883148,
				"z": -1.8818777104,
				"element": "C" 
			},
			{
				"x": -1.1706028087,
				"y": -0.2820340273,
				"z": -2.0982854425,
				"element": "C" 
			},
			{
				"x": -1.5359441305,
				"y": -1.115688701,
				"z": -3.1501722332,
				"element": "C" 
			},
			{
				"x": -0.5562351444,
				"y": -1.6402566332,
				"z": -3.9987916476,
				"element": "C" 
			},
			{
				"x": 0.7885804783,
				"y": -1.3277895471,
				"z": -3.7908770144,
				"element": "C" 
			},
			{
				"x": 1.1560528488,
				"y": -0.4897779211,
				"z": -2.7387069443,
				"element": "C" 
			},
			{
				"x": 0.5905680249,
				"y": 2.0773826724,
				"z": 3.8518435048,
				"element": "H" 
			},
			{
				"x": -0.1623854953,
				"y": 2.0340845177,
				"z": 2.2093934855,
				"element": "H" 
			},
			{
				"x": 0.6711230498,
				"y": 3.5189512715,
				"z": 2.7842853556,
				"element": "H" 
			},
			{
				"x": 2.9852255853,
				"y": 2.8919408964,
				"z": 0.3897306382,
				"element": "H" 
			},
			{
				"x": 2.3804112925,
				"y": 1.7306437753,
				"z": -1.4385751882,
				"element": "H" 
			},
			{
				"x": 2.5246801466,
				"y": 0.3937695532,
				"z": -0.291013789,
				"element": "H" 
			},
			{
				"x": -1.9119510464,
				"y": 0.1346757468,
				"z": -1.4250163514,
				"element": "H" 
			},
			{
				"x": -2.5819135363,
				"y": -1.3597560844,
				"z": -3.3105173781,
				"element": "H" 
			},
			{
				"x": -0.8404808342,
				"y": -2.2925912045,
				"z": -4.8194928841,
				"element": "H" 
			},
			{
				"x": 1.550998662,
				"y": -1.7372164136,
				"z": -4.446706249,
				"element": "H" 
			},
			{
				"x": 2.2068020052,
				"y": -0.263484398,
				"z": -2.5896182565,
				"element": "H" 
			}
		],
		 "valence_orbital": [ 
			{
				"type": "occ",
				"energy": -0.29508,
				"method": "rhf"
			},
			{
				"type": "occ",
				"energy": -0.28152,
				"method": "rhf"
			},
			{
				"type": "occ",
				"energy": -0.27079,
				"method": "rhf"
			},
			{
				"type": "occ",
				"energy": -0.26786,
				"method": "rhf"
			},
			{
				"type": "occ",
				"energy": -0.26199,
				"method": "rhf"
			},
			{
				"type": "unocc",
				"energy": -0.06804,
				"method": "rhf"
			},
			{
				"type": "unocc",
				"energy": -0.0191,
				"method": "rhf"
			},
			{
				"type": "unocc",
				"energy": 0.02776,
				"method": "rhf"
			},
			{
				"type": "unocc",
				"energy": 0.06269,
				"method": "rhf"
			},
			{
				"type": "unocc",
				"energy": 0.06885,
				"method": "rhf"
			}
		],
		"cosmo_sigma_profile": { 
			"-0.025": 0.0,
			"-0.024": 0.0,
			"-0.023": 0.0,
			"-0.022": 0.0,
			"-0.021": 0.0,
			"-0.02": 0.0,
			"-0.019": 0.0,
			"-0.018": 0.0,
			"-0.017": 0.0,
			"-0.016": 0.0,
			"-0.015": 0.621746936395,
			"-0.014": 1.0265570236,
			"-0.013": 1.31370279587,
			"-0.012": 0.943357240194,
			"-0.011": 1.46204879693,
			"-0.01": 0.957115242276,
			"-0.009": 4.80895011479,
			"-0.008": 10.2751772337,
			"-0.007": 10.0845803482,
			"-0.006": 17.4311260604,
			"-0.005": 17.9775897794,
			"-0.004": 18.7114864529,
			"-0.003": 13.8074413376,
			"-0.002": 11.5086300248,
			"-0.001": 9.8034444722,
			"0.0": 11.4725761821,
			"0.001": 12.0033258757,
			"0.002": 12.9748377237,
			"0.003": 15.7624672055,
			"0.004": 15.1241715481,
			"0.005": 5.35053187278,
			"0.006": 4.48805946168,
			"0.007": 4.15478885641,
			"0.008": 5.34179181834,
			"0.009": 5.65155845301,
			"0.01": 7.90779216107,
			"0.011": 11.7415084724,
			"0.012": 7.00258640663,
			"0.013": 0.0938403723047,
			"0.014": 0.0,
			"0.015": 0.0,
			"0.016": 0.0,
			"0.017": 0.0,
			"0.018": 0.0,
			"0.019": 0.0,
			"0.02": 0.0,
			"0.021": 0.0,
			"0.022": 0.0,
			"0.023": 0.0,
			"0.024": 0.0,
			"0.025": 0.0
		}
	}
}
