{
	 "smiles": "NCCNCCNCCNCCNCCN", 
	 "Tm": 238.15, 
	 "num_atms": 44, 
	 "gaussian": { 
		 "optdone": 1, 
		 "sigma_profile": "yes", 
		 "theory": "DFT", 
		 "functional": "B3LYP", 
		 "basiset": "6-31G**", 
		 "properties": { 
			 "R2extent": 5919.9741, 
			 "electric_dipole_moment_norm": 4.38502398853, 
			 "electric_quadrupole_moment_norm": 8.76642448151, 
			 "total_energy": -726.399728264, 
			 "HOMO_LUMO_gap": 0.25744, 
			 "cosmo_polarized_energy": -18.92, 
			 "cosmo_cavitation_energy": 42.86, 
			 "cosmo_dispersion_energy": -27.83, 
			 "cosmo_repulsion_energy": 2.21, 
			 "cosmo_total_nonelectrostatic_energy": 17.24, 
			 "SMD_solvation_energy": -3.34 
		},
		"coords": [
			{
				"x": -0.1130232258,
				"y": 2.2675499402,
				"z": -0.470300758,
				"element": "N" 
			},
			{
				"x": -1.3485287935,
				"y": 2.127982271,
				"z": 0.2983845698,
				"element": "C" 
			},
			{
				"x": -1.1720513789,
				"y": 2.0833572516,
				"z": 1.8294595806,
				"element": "C" 
			},
			{
				"x": -2.4316114602,
				"y": 1.7896296886,
				"z": 2.5200714162,
				"element": "N" 
			},
			{
				"x": -2.7544167075,
				"y": 0.3665124152,
				"z": 2.6145426578,
				"element": "C" 
			},
			{
				"x": -1.9460054246,
				"y": -0.4451799426,
				"z": 3.6557702176,
				"element": "C" 
			},
			{
				"x": -1.8811965177,
				"y": -1.8628692177,
				"z": 3.2840557036,
				"element": "N" 
			},
			{
				"x": -0.7823169174,
				"y": -2.160370633,
				"z": 2.3676104033,
				"element": "C" 
			},
			{
				"x": -0.941597478,
				"y": -3.5325061722,
				"z": 1.7046527811,
				"element": "C" 
			},
			{
				"x": 0.1248655732,
				"y": -3.7660871156,
				"z": 0.72529477,
				"element": "N" 
			},
			{
				"x": -0.110297636,
				"y": -3.1473787096,
				"z": -0.5801620113,
				"element": "C" 
			},
			{
				"x": 1.1362692662,
				"y": -3.2681031074,
				"z": -1.4630896815,
				"element": "C" 
			},
			{
				"x": 1.0151486441,
				"y": -2.4925304651,
				"z": -2.6959851711,
				"element": "N" 
			},
			{
				"x": 1.0536107573,
				"y": -1.0293458265,
				"z": -2.5853167204,
				"element": "C" 
			},
			{
				"x": 2.2312578898,
				"y": -0.3848811936,
				"z": -1.8221368183,
				"element": "C" 
			},
			{
				"x": 1.9644083652,
				"y": -0.240930881,
				"z": -0.3793377554,
				"element": "N" 
			},
			{
				"x": 0.3934068217,
				"y": 3.0958299066,
				"z": -0.1633659143,
				"element": "H" 
			},
			{
				"x": 0.4968050268,
				"y": 1.4633751771,
				"z": -0.3027189097,
				"element": "H" 
			},
			{
				"x": -1.8477169668,
				"y": 1.2102579254,
				"z": -0.0359658468,
				"element": "H" 
			},
			{
				"x": -2.0316068414,
				"y": 2.9489272132,
				"z": 0.0493454817,
				"element": "H" 
			},
			{
				"x": -0.8144437689,
				"y": 3.0639879121,
				"z": 2.1694566164,
				"element": "H" 
			},
			{
				"x": -0.3664600852,
				"y": 1.3624161278,
				"z": 2.0649003988,
				"element": "H" 
			},
			{
				"x": -2.4374292859,
				"y": 2.2101153336,
				"z": 3.4445607728,
				"element": "H" 
			},
			{
				"x": -3.8240902114,
				"y": 0.252486191,
				"z": 2.8266504943,
				"element": "H" 
			},
			{
				"x": -2.6013062128,
				"y": -0.0800139307,
				"z": 1.6270448616,
				"element": "H" 
			},
			{
				"x": -2.433791187,
				"y": -0.3643817764,
				"z": 4.6345967925,
				"element": "H" 
			},
			{
				"x": -0.941795274,
				"y": 0.0024474079,
				"z": 3.7696618395,
				"element": "H" 
			},
			{
				"x": -1.7881055851,
				"y": -2.4348966126,
				"z": 4.1185645846,
				"element": "H" 
			},
			{
				"x": -0.7829550608,
				"y": -1.3896083307,
				"z": 1.5890093072,
				"element": "H" 
			},
			{
				"x": 0.2131838716,
				"y": -2.1077236709,
				"z": 2.8444232383,
				"element": "H" 
			},
			{
				"x": -1.9547301391,
				"y": -3.598193815,
				"z": 1.2722757678,
				"element": "H" 
			},
			{
				"x": -0.8739136793,
				"y": -4.3132568166,
				"z": 2.4728310944,
				"element": "H" 
			},
			{
				"x": 0.2515203297,
				"y": -4.7665346175,
				"z": 0.5992515869,
				"element": "H" 
			},
			{
				"x": -0.3279922155,
				"y": -2.0875614744,
				"z": -0.4153808753,
				"element": "H" 
			},
			{
				"x": -0.9805507807,
				"y": -3.5617381812,
				"z": -1.1183708807,
				"element": "H" 
			},
			{
				"x": 1.270179715,
				"y": -4.3194213461,
				"z": -1.7502994833,
				"element": "H" 
			},
			{
				"x": 2.0183995768,
				"y": -3.0103609986,
				"z": -0.8493337061,
				"element": "H" 
			},
			{
				"x": 1.7380844939,
				"y": -2.7913041472,
				"z": -3.3433472923,
				"element": "H" 
			},
			{
				"x": 0.1231131938,
				"y": -0.6649945713,
				"z": -2.1358622959,
				"element": "H" 
			},
			{
				"x": 1.0607246111,
				"y": -0.6494827213,
				"z": -3.6129574689,
				"element": "H" 
			},
			{
				"x": 3.153926566,
				"y": -0.9492621968,
				"z": -2.0482418766,
				"element": "H" 
			},
			{
				"x": 2.3765619233,
				"y": 0.628002119,
				"z": -2.2150375951,
				"element": "H" 
			},
			{
				"x": 1.876743779,
				"y": -1.1495776241,
				"z": 0.0689037853,
				"element": "H" 
			},
			{
				"x": 2.7521224291,
				"y": 0.2206192151,
				"z": 0.0700923389,
				"element": "H" 
			}
		],
		 "valence_orbital": [ 
			{
				"type": "occ",
				"energy": -0.22553,
				"method": "rhf"
			},
			{
				"type": "occ",
				"energy": -0.22237,
				"method": "rhf"
			},
			{
				"type": "occ",
				"energy": -0.21456,
				"method": "rhf"
			},
			{
				"type": "occ",
				"energy": -0.21198,
				"method": "rhf"
			},
			{
				"type": "occ",
				"energy": -0.1956,
				"method": "rhf"
			},
			{
				"type": "unocc",
				"energy": 0.06184,
				"method": "rhf"
			},
			{
				"type": "unocc",
				"energy": 0.07798,
				"method": "rhf"
			},
			{
				"type": "unocc",
				"energy": 0.08426,
				"method": "rhf"
			},
			{
				"type": "unocc",
				"energy": 0.08908,
				"method": "rhf"
			},
			{
				"type": "unocc",
				"energy": 0.0957,
				"method": "rhf"
			}
		],
		"cosmo_sigma_profile": { 
			"-0.025": 0.0,
			"-0.024": 0.0,
			"-0.023": 0.0,
			"-0.022": 0.0,
			"-0.021": 0.0,
			"-0.02": 0.0,
			"-0.019": 0.0,
			"-0.018": 0.0,
			"-0.017": 0.0,
			"-0.016": 0.0,
			"-0.015": 0.0,
			"-0.014": 0.0,
			"-0.013": 0.0,
			"-0.012": 0.0,
			"-0.011": 0.0,
			"-0.01": 3.00492355654,
			"-0.009": 7.27709930009,
			"-0.008": 7.56717095353,
			"-0.007": 8.76697900783,
			"-0.006": 9.94015127182,
			"-0.005": 10.6210242297,
			"-0.004": 22.114876942,
			"-0.003": 33.2212470176,
			"-0.002": 36.629879849,
			"-0.001": 43.2870660113,
			"0.0": 37.7660890889,
			"0.001": 23.8523084395,
			"0.002": 12.5169479839,
			"0.003": 10.3423717468,
			"0.004": 8.67851225144,
			"0.005": 9.20479051432,
			"0.006": 6.01580787878,
			"0.007": 4.9266274796,
			"0.008": 3.74263957836,
			"0.009": 3.61289417454,
			"0.01": 3.07818870899,
			"0.011": 3.17717347169,
			"0.012": 3.40257308132,
			"0.013": 2.85625639563,
			"0.014": 2.43012086252,
			"0.015": 2.57671208974,
			"0.016": 2.27976150064,
			"0.017": 1.77005430357,
			"0.018": 1.66082358466,
			"0.019": 0.722077535842,
			"0.02": 0.469457689113,
			"0.021": 0.267776805822,
			"0.022": 0.0,
			"0.023": 0.0,
			"0.024": 0.0,
			"0.025": 0.0
		}
	}
}
