{
	 "smiles": "NC1=C(C=O)C(=O)OC2=CC=CC=C12", 
	 "Tm": 541.15, 
	 "num_atms": 21, 
	 "gaussian": { 
		 "optdone": 1, 
		 "sigma_profile": "yes", 
		 "theory": "DFT", 
		 "functional": "B3LYP", 
		 "basiset": "6-31G**", 
		 "properties": { 
			 "R2extent": 3424.9367, 
			 "electric_dipole_moment_norm": 9.10054805822, 
			 "electric_quadrupole_moment_norm": 13.5359151135, 
			 "total_energy": -665.699031607, 
			 "HOMO_LUMO_gap": 0.15681, 
			 "cosmo_polarized_energy": -28.12, 
			 "cosmo_cavitation_energy": 25.62, 
			 "cosmo_dispersion_energy": -19.42, 
			 "cosmo_repulsion_energy": 1.49, 
			 "cosmo_total_nonelectrostatic_energy": 7.69, 
			 "SMD_solvation_energy": 6.38 
		},
		"coords": [
			{
				"x": 0.1484960287,
				"y": 2.1497953637,
				"z": -1.0386658774,
				"element": "N" 
			},
			{
				"x": 0.7137434705,
				"y": 1.1754398027,
				"z": -0.2769769713,
				"element": "C" 
			},
			{
				"x": 1.0019481815,
				"y": -0.1019899494,
				"z": -0.7619796179,
				"element": "C" 
			},
			{
				"x": 0.6262376957,
				"y": -0.4973635775,
				"z": -2.1274923729,
				"element": "C" 
			},
			{
				"x": 0.8853915489,
				"y": -1.5417982059,
				"z": -2.6908082339,
				"element": "O" 
			},
			{
				"x": 1.6510437773,
				"y": -1.1008569443,
				"z": 0.0870585922,
				"element": "C" 
			},
			{
				"x": 1.9828181408,
				"y": -2.2171831469,
				"z": -0.209810345,
				"element": "O" 
			},
			{
				"x": 1.8940522447,
				"y": -0.7225964282,
				"z": 1.4282581282,
				"element": "O" 
			},
			{
				"x": 1.6308601526,
				"y": 0.5153418127,
				"z": 1.9004782675,
				"element": "C" 
			},
			{
				"x": 1.9640214934,
				"y": 0.7602012041,
				"z": 3.2391289924,
				"element": "C" 
			},
			{
				"x": 1.7429278535,
				"y": 2.0170148998,
				"z": 3.7818403137,
				"element": "C" 
			},
			{
				"x": 1.1979165078,
				"y": 3.0437263217,
				"z": 2.9952976284,
				"element": "C" 
			},
			{
				"x": 0.86724237,
				"y": 2.7949812372,
				"z": 1.6724936349,
				"element": "C" 
			},
			{
				"x": 1.0610198227,
				"y": 1.5208776403,
				"z": 1.0987431727,
				"element": "C" 
			},
			{
				"x": -0.2714642689,
				"y": 2.9466082391,
				"z": -0.5912276616,
				"element": "H" 
			},
			{
				"x": -0.1769661224,
				"y": 1.9433500264,
				"z": -1.9681502283,
				"element": "H" 
			},
			{
				"x": 0.0210613907,
				"y": 0.2639699709,
				"z": -2.6776870702,
				"element": "H" 
			},
			{
				"x": 2.3961927134,
				"y": -0.0487300948,
				"z": 3.8175526446,
				"element": "H" 
			},
			{
				"x": 2.0027776765,
				"y": 2.2073714053,
				"z": 4.8186987596,
				"element": "H" 
			},
			{
				"x": 1.0421342852,
				"y": 4.0313552337,
				"z": 3.4164704861,
				"element": "H" 
			},
			{
				"x": 0.4763450372,
				"y": 3.6136851895,
				"z": 1.076177758,
				"element": "H" 
			}
		],
		 "valence_orbital": [ 
			{
				"type": "occ",
				"energy": -0.28607,
				"method": "rhf"
			},
			{
				"type": "occ",
				"energy": -0.27755,
				"method": "rhf"
			},
			{
				"type": "occ",
				"energy": -0.25788,
				"method": "rhf"
			},
			{
				"type": "occ",
				"energy": -0.23922,
				"method": "rhf"
			},
			{
				"type": "occ",
				"energy": -0.23679,
				"method": "rhf"
			},
			{
				"type": "unocc",
				"energy": -0.07998,
				"method": "rhf"
			},
			{
				"type": "unocc",
				"energy": -0.02539,
				"method": "rhf"
			},
			{
				"type": "unocc",
				"energy": -0.00015,
				"method": "rhf"
			},
			{
				"type": "unocc",
				"energy": 0.00304,
				"method": "rhf"
			},
			{
				"type": "unocc",
				"energy": 0.03722,
				"method": "rhf"
			}
		],
		"cosmo_sigma_profile": { 
			"-0.025": 0.0,
			"-0.024": 0.0,
			"-0.023": 0.0,
			"-0.022": 0.0,
			"-0.021": 0.0,
			"-0.02": 0.0,
			"-0.019": 0.0,
			"-0.018": 0.0,
			"-0.017": 0.487995237862,
			"-0.016": 2.03695682679,
			"-0.015": 2.73072124337,
			"-0.014": 2.98711925093,
			"-0.013": 3.12742468249,
			"-0.012": 2.18516909064,
			"-0.011": 3.12056583974,
			"-0.01": 2.02556507043,
			"-0.009": 2.49208216918,
			"-0.008": 3.88390653996,
			"-0.007": 8.47115054999,
			"-0.006": 10.1561570545,
			"-0.005": 10.8258210219,
			"-0.004": 10.9856159966,
			"-0.003": 10.373850619,
			"-0.002": 13.4448693772,
			"-0.001": 13.555231258,
			"0.0": 14.6118901127,
			"0.001": 13.7278237157,
			"0.002": 12.9421368474,
			"0.003": 10.9761362302,
			"0.004": 5.08961794926,
			"0.005": 3.29601081687,
			"0.006": 2.17909554971,
			"0.007": 3.06153103236,
			"0.008": 3.50195038794,
			"0.009": 3.77142167155,
			"0.01": 3.04080689416,
			"0.011": 5.9928375288,
			"0.012": 9.49126070354,
			"0.013": 6.37891753159,
			"0.014": 2.0348866522,
			"0.015": 1.36262649092,
			"0.016": 1.35384798458,
			"0.017": 0.906612028983,
			"0.018": 0.116653115056,
			"0.019": 0.0,
			"0.02": 0.0,
			"0.021": 0.0,
			"0.022": 0.0,
			"0.023": 0.0,
			"0.024": 0.0,
			"0.025": 0.0
		}
	}
}
