{
	 "smiles": "NCC(=O)N1CCN(CC1)C1=CC=CC=C1", 
	 "Tm": 343.15, 
	 "num_atms": 33, 
	 "gaussian": { 
		 "optdone": 1, 
		 "sigma_profile": "yes", 
		 "theory": "DFT", 
		 "functional": "B3LYP", 
		 "basiset": "6-31G**", 
		 "properties": { 
			 "R2extent": 5461.4557, 
			 "electric_dipole_moment_norm": 2.3299807231, 
			 "electric_quadrupole_moment_norm": 18.4792752761, 
			 "total_energy": -706.998982009, 
			 "HOMO_LUMO_gap": 0.1934, 
			 "cosmo_polarized_energy": -15.21, 
			 "cosmo_cavitation_energy": 34.04, 
			 "cosmo_dispersion_energy": -24.79, 
			 "cosmo_repulsion_energy": 1.92, 
			 "cosmo_total_nonelectrostatic_energy": 11.17, 
			 "SMD_solvation_energy": 2.9 
		},
		"coords": [
			{
				"x": -0.4404964035,
				"y": -6.281028249,
				"z": -0.2502359241,
				"element": "N" 
			},
			{
				"x": -0.0671549138,
				"y": -4.8764307358,
				"z": -0.2897067867,
				"element": "C" 
			},
			{
				"x": -1.1637837469,
				"y": -3.9242235948,
				"z": 0.2362756717,
				"element": "C" 
			},
			{
				"x": -2.2436824117,
				"y": -4.3805724401,
				"z": 0.6042463554,
				"element": "O" 
			},
			{
				"x": -0.8932671187,
				"y": -2.5781677186,
				"z": 0.265806298,
				"element": "N" 
			},
			{
				"x": 0.3710182589,
				"y": -1.9515960857,
				"z": -0.1133135433,
				"element": "C" 
			},
			{
				"x": 0.1201350191,
				"y": -0.7762387638,
				"z": -1.0790538295,
				"element": "C" 
			},
			{
				"x": -0.8404565634,
				"y": 0.1802034498,
				"z": -0.5305768641,
				"element": "N" 
			},
			{
				"x": -2.0944149836,
				"y": -0.4880099611,
				"z": -0.1875383218,
				"element": "C" 
			},
			{
				"x": -1.8973350261,
				"y": -1.6510871415,
				"z": 0.7954487756,
				"element": "C" 
			},
			{
				"x": -0.3830126749,
				"y": 1.2835189801,
				"z": 0.2185831381,
				"element": "C" 
			},
			{
				"x": -1.0248644229,
				"y": 1.7217983379,
				"z": 1.3940169914,
				"element": "C" 
			},
			{
				"x": -0.5792955934,
				"y": 2.8560556106,
				"z": 2.0745567087,
				"element": "C" 
			},
			{
				"x": 0.5229261644,
				"y": 3.5786731549,
				"z": 1.6227951281,
				"element": "C" 
			},
			{
				"x": 1.168703928,
				"y": 3.1525149898,
				"z": 0.4593871454,
				"element": "C" 
			},
			{
				"x": 0.7231610873,
				"y": 2.033506129,
				"z": -0.2366259431,
				"element": "C" 
			},
			{
				"x": -0.6639224791,
				"y": -6.5223902463,
				"z": 0.7135542057,
				"element": "H" 
			},
			{
				"x": -1.3300593268,
				"y": -6.3831423544,
				"z": -0.7356162255,
				"element": "H" 
			},
			{
				"x": 0.1831829207,
				"y": -4.6054019734,
				"z": -1.323570432,
				"element": "H" 
			},
			{
				"x": 0.8518024952,
				"y": -4.7366312132,
				"z": 0.2930793478,
				"element": "H" 
			},
			{
				"x": 1.0292849421,
				"y": -2.6804732824,
				"z": -0.5867149164,
				"element": "H" 
			},
			{
				"x": 0.8808771261,
				"y": -1.5720807541,
				"z": 0.7852093938,
				"element": "H" 
			},
			{
				"x": 1.0670733212,
				"y": -0.2823855569,
				"z": -1.2972822662,
				"element": "H" 
			},
			{
				"x": -0.2773376827,
				"y": -1.1697122794,
				"z": -2.0242002342,
				"element": "H" 
			},
			{
				"x": -2.8079697189,
				"y": 0.2398924255,
				"z": 0.2030384288,
				"element": "H" 
			},
			{
				"x": -2.519288258,
				"y": -0.8894306768,
				"z": -1.1173508139,
				"element": "H" 
			},
			{
				"x": -1.5619787151,
				"y": -1.2699667919,
				"z": 1.7704630757,
				"element": "H" 
			},
			{
				"x": -2.8184511701,
				"y": -2.2162320009,
				"z": 0.9416587432,
				"element": "H" 
			},
			{
				"x": -1.8685760567,
				"y": 1.1746279356,
				"z": 1.7978484493,
				"element": "H" 
			},
			{
				"x": -1.0988520496,
				"y": 3.1631401322,
				"z": 2.9783139549,
				"element": "H" 
			},
			{
				"x": 0.8700351847,
				"y": 4.4555229392,
				"z": 2.1600764636,
				"element": "H" 
			},
			{
				"x": 2.0209810692,
				"y": 3.7068917391,
				"z": 0.0756082143,
				"element": "H" 
			},
			{
				"x": 1.2174177993,
				"y": 1.7592559966,
				"z": -1.1627803886,
				"element": "H" 
			}
		],
		 "valence_orbital": [ 
			{
				"type": "occ",
				"energy": -0.25532,
				"method": "rhf"
			},
			{
				"type": "occ",
				"energy": -0.2483,
				"method": "rhf"
			},
			{
				"type": "occ",
				"energy": -0.24596,
				"method": "rhf"
			},
			{
				"type": "occ",
				"energy": -0.23799,
				"method": "rhf"
			},
			{
				"type": "occ",
				"energy": -0.19428,
				"method": "rhf"
			},
			{
				"type": "unocc",
				"energy": -0.00088,
				"method": "rhf"
			},
			{
				"type": "unocc",
				"energy": 0.01054,
				"method": "rhf"
			},
			{
				"type": "unocc",
				"energy": 0.02587,
				"method": "rhf"
			},
			{
				"type": "unocc",
				"energy": 0.08008,
				"method": "rhf"
			},
			{
				"type": "unocc",
				"energy": 0.09118,
				"method": "rhf"
			}
		],
		"cosmo_sigma_profile": { 
			"-0.025": 0.0,
			"-0.024": 0.0,
			"-0.023": 0.0,
			"-0.022": 0.0,
			"-0.021": 0.0,
			"-0.02": 0.0,
			"-0.019": 0.0,
			"-0.018": 0.0,
			"-0.017": 0.0,
			"-0.016": 0.0,
			"-0.015": 0.0,
			"-0.014": 0.0,
			"-0.013": 0.0,
			"-0.012": 0.0,
			"-0.011": 0.0,
			"-0.01": 0.14249152411,
			"-0.009": 1.69391938134,
			"-0.008": 2.18237274301,
			"-0.007": 6.42507256639,
			"-0.006": 17.2354078465,
			"-0.005": 25.816817168,
			"-0.004": 33.8767310946,
			"-0.003": 30.7187331186,
			"-0.002": 23.6345169563,
			"-0.001": 15.2467867121,
			"0.0": 12.8626639602,
			"0.001": 10.3039663227,
			"0.002": 10.699363783,
			"0.003": 8.37920740737,
			"0.004": 9.97832936018,
			"0.005": 10.2233322916,
			"0.006": 12.4461537023,
			"0.007": 9.75434853674,
			"0.008": 4.1694813326,
			"0.009": 2.05453839034,
			"0.01": 3.36671934058,
			"0.011": 1.80639958753,
			"0.012": 2.20372929728,
			"0.013": 2.74336706015,
			"0.014": 5.95556560437,
			"0.015": 0.89736357101,
			"0.016": 0.792542784026,
			"0.017": 0.398942799014,
			"0.018": 0.525804557977,
			"0.019": 0.842342166023,
			"0.02": 0.0,
			"0.021": 0.0,
			"0.022": 0.0,
			"0.023": 0.0,
			"0.024": 0.0,
			"0.025": 0.0
		}
	}
}
