{
	 "smiles": "OC(=O)CNC(=O)C1=CC=C(Br)C=C1", 
	 "Tm": 434.15, 
	 "num_atms": 22, 
	 "gaussian": { 
		 "optdone": 1, 
		 "sigma_profile": "yes", 
		 "theory": "DFT", 
		 "functional": "B3LYP", 
		 "basiset": "6-31G**", 
		 "properties": { 
			 "R2extent": 6306.4373, 
			 "electric_dipole_moment_norm": 4.32289316199, 
			 "electric_quadrupole_moment_norm": 23.1646130974, 
			 "total_energy": -3199.62936478, 
			 "HOMO_LUMO_gap": 0.19877, 
			 "cosmo_polarized_energy": -16.95, 
			 "cosmo_cavitation_energy": 29.82, 
			 "cosmo_dispersion_energy": -21.95, 
			 "cosmo_repulsion_energy": 1.75, 
			 "cosmo_total_nonelectrostatic_energy": 9.62, 
			 "SMD_solvation_energy": 5.04 
		},
		"coords": [
			{
				"x": 0.3072992827,
				"y": -1.5335123381,
				"z": 5.1630089896,
				"element": "O" 
			},
			{
				"x": 1.178474804,
				"y": -0.962120117,
				"z": 4.3091130556,
				"element": "C" 
			},
			{
				"x": 2.3743855707,
				"y": -0.9230588544,
				"z": 4.4898143571,
				"element": "O" 
			},
			{
				"x": 0.4558144351,
				"y": -0.3518877867,
				"z": 3.1188231498,
				"element": "C" 
			},
			{
				"x": 1.4227847745,
				"y": 0.1863629774,
				"z": 2.1847461205,
				"element": "N" 
			},
			{
				"x": 1.4077357026,
				"y": 0.0729872557,
				"z": 0.8102843982,
				"element": "C" 
			},
			{
				"x": 2.4480892478,
				"y": 0.1336537617,
				"z": 0.1654927179,
				"element": "O" 
			},
			{
				"x": 0.0836372168,
				"y": -0.0900148004,
				"z": 0.1179250981,
				"element": "C" 
			},
			{
				"x": 0.0724430174,
				"y": -0.8127426589,
				"z": -1.0834541428,
				"element": "C" 
			},
			{
				"x": -1.103514765,
				"y": -0.9706328405,
				"z": -1.8106634088,
				"element": "C" 
			},
			{
				"x": -2.2754987542,
				"y": -0.3739863467,
				"z": -1.3428674029,
				"element": "C" 
			},
			{
				"x": -3.8934187122,
				"y": -0.578594005,
				"z": -2.3357021658,
				"element": "Br" 
			},
			{
				"x": -2.2847033271,
				"y": 0.3765496178,
				"z": -0.1686292553,
				"element": "C" 
			},
			{
				"x": -1.1025016302,
				"y": 0.5108802518,
				"z": 0.559803349,
				"element": "C" 
			},
			{
				"x": 0.8287934256,
				"y": -1.8817874927,
				"z": 5.9059827096,
				"element": "H" 
			},
			{
				"x": -0.2264265503,
				"y": 0.4114378099,
				"z": 3.5207237224,
				"element": "H" 
			},
			{
				"x": -0.1749253082,
				"y": -1.1202266193,
				"z": 2.6607472353,
				"element": "H" 
			},
			{
				"x": 2.3673143255,
				"y": 0.23227575,
				"z": 2.556193363,
				"element": "H" 
			},
			{
				"x": 1.0032023912,
				"y": -1.2407193466,
				"z": -1.4401942894,
				"element": "H" 
			},
			{
				"x": -1.1126398279,
				"y": -1.5410715897,
				"z": -2.7323370848,
				"element": "H" 
			},
			{
				"x": -3.1983370193,
				"y": 0.8531781119,
				"z": 0.1675450379,
				"element": "H" 
			},
			{
				"x": -1.1071082997,
				"y": 1.1179292598,
				"z": 1.4592444458,
				"element": "H" 
			}
		],
		 "valence_orbital": [ 
			{
				"type": "occ",
				"energy": -0.29449,
				"method": "rhf"
			},
			{
				"type": "occ",
				"energy": -0.27474,
				"method": "rhf"
			},
			{
				"type": "occ",
				"energy": -0.26797,
				"method": "rhf"
			},
			{
				"type": "occ",
				"energy": -0.25827,
				"method": "rhf"
			},
			{
				"type": "occ",
				"energy": -0.24607,
				"method": "rhf"
			},
			{
				"type": "unocc",
				"energy": -0.0473,
				"method": "rhf"
			},
			{
				"type": "unocc",
				"energy": -0.02456,
				"method": "rhf"
			},
			{
				"type": "unocc",
				"energy": -0.01419,
				"method": "rhf"
			},
			{
				"type": "unocc",
				"energy": 0.00034,
				"method": "rhf"
			},
			{
				"type": "unocc",
				"energy": 0.04201,
				"method": "rhf"
			}
		],
		"cosmo_sigma_profile": { 
			"-0.025": 0.0,
			"-0.024": 0.0,
			"-0.023": 0.0,
			"-0.022": 0.0,
			"-0.021": 0.0,
			"-0.02": 0.0,
			"-0.019": 0.460266319409,
			"-0.018": 1.30144640198,
			"-0.017": 0.811873780251,
			"-0.016": 0.688996755696,
			"-0.015": 0.628194542826,
			"-0.014": 0.679765952146,
			"-0.013": 1.18311217392,
			"-0.012": 0.697216710446,
			"-0.011": 0.699940076104,
			"-0.01": 0.968807570264,
			"-0.009": 2.33778027215,
			"-0.008": 8.51236327737,
			"-0.007": 12.4849050861,
			"-0.006": 13.3042527158,
			"-0.005": 12.458361311,
			"-0.004": 12.7313277774,
			"-0.003": 14.5274604427,
			"-0.002": 12.5666143794,
			"-0.001": 13.8393870264,
			"0.0": 13.3273724461,
			"0.001": 19.1241592314,
			"0.002": 23.5692652842,
			"0.003": 16.1102238386,
			"0.004": 15.9464503786,
			"0.005": 6.71733299677,
			"0.006": 4.14136634148,
			"0.007": 3.46046640251,
			"0.008": 5.4662504881,
			"0.009": 3.41282120407,
			"0.01": 4.48692154677,
			"0.011": 4.64305815805,
			"0.012": 2.40572891883,
			"0.013": 5.5946710611,
			"0.014": 2.21765462128,
			"0.015": 0.0,
			"0.016": 0.0,
			"0.017": 0.0,
			"0.018": 0.0,
			"0.019": 0.0,
			"0.02": 0.0,
			"0.021": 0.0,
			"0.022": 0.0,
			"0.023": 0.0,
			"0.024": 0.0,
			"0.0": 0.0
		}
	}
}
