{
	 "smiles": "N#CC1=CC=CC=N1", 
	 "Tm": 301.15, 
	 "num_atms": 12, 
	 "gaussian": { 
		 "optdone": 1, 
		 "sigma_profile": "yes", 
		 "theory": "DFT", 
		 "functional": "B3LYP", 
		 "basiset": "6-31G**", 
		 "properties": { 
			 "R2extent": 1982.9692, 
			 "electric_dipole_moment_norm": 5.65912759884, 
			 "electric_quadrupole_moment_norm": 16.890238683, 
			 "total_energy": -340.521926025, 
			 "HOMO_LUMO_gap": 0.21336, 
			 "cosmo_polarized_energy": -10.65, 
			 "cosmo_cavitation_energy": 17.64, 
			 "cosmo_dispersion_energy": -12.64, 
			 "cosmo_repulsion_energy": 1.05, 
			 "cosmo_total_nonelectrostatic_energy": 6.05, 
			 "SMD_solvation_energy": 3.23 
		},
		"coords": [
			{
				"x": -2.6031678845,
				"y": 3.3309033423,
				"z": -0.6782491778,
				"element": "N" 
			},
			{
				"x": -2.4753781117,
				"y": 2.3109551332,
				"z": -0.1363237583,
				"element": "C" 
			},
			{
				"x": -2.2727314655,
				"y": 1.0418676017,
				"z": 0.5232972344,
				"element": "C" 
			},
			{
				"x": -1.0367783405,
				"y": 0.3920705761,
				"z": 0.4005178398,
				"element": "C" 
			},
			{
				"x": -0.873098364,
				"y": -0.8303996972,
				"z": 1.0484375124,
				"element": "C" 
			},
			{
				"x": -1.9382071599,
				"y": -1.3470789873,
				"z": 1.7835090595,
				"element": "C" 
			},
			{
				"x": -3.1289452613,
				"y": -0.6158277547,
				"z": 1.8403075544,
				"element": "C" 
			},
			{
				"x": -3.3089591329,
				"y": 0.5566371157,
				"z": 1.2282832275,
				"element": "N" 
			},
			{
				"x": -0.2407377396,
				"y": 0.839266387,
				"z": -0.184587691,
				"element": "H" 
			},
			{
				"x": 0.0683413706,
				"y": -1.3665917107,
				"z": 0.9790043047,
				"element": "H" 
			},
			{
				"x": -1.8550286783,
				"y": -2.2955947145,
				"z": 2.3040651954,
				"element": "H" 
			},
			{
				"x": -3.9792092323,
				"y": -0.9915072916,
				"z": 2.405638699,
				"element": "H" 
			}
		],
		 "valence_orbital": [ 
			{
				"type": "occ",
				"energy": -0.35687,
				"method": "rhf"
			},
			{
				"type": "occ",
				"energy": -0.33832,
				"method": "rhf"
			},
			{
				"type": "occ",
				"energy": -0.3129,
				"method": "rhf"
			},
			{
				"type": "occ",
				"energy": -0.28463,
				"method": "rhf"
			},
			{
				"type": "occ",
				"energy": -0.28098,
				"method": "rhf"
			},
			{
				"type": "unocc",
				"energy": -0.06762,
				"method": "rhf"
			},
			{
				"type": "unocc",
				"energy": -0.04515,
				"method": "rhf"
			},
			{
				"type": "unocc",
				"energy": 0.03136,
				"method": "rhf"
			},
			{
				"type": "unocc",
				"energy": 0.0672,
				"method": "rhf"
			},
			{
				"type": "unocc",
				"energy": 0.07524,
				"method": "rhf"
			}
		],
		"cosmo_sigma_profile": { 
			"-0.025": 0.0,
			"-0.024": 0.0,
			"-0.023": 0.0,
			"-0.022": 0.0,
			"-0.021": 0.0,
			"-0.02": 0.0,
			"-0.019": 0.0,
			"-0.018": 0.0,
			"-0.017": 0.0,
			"-0.016": 0.0,
			"-0.015": 0.0,
			"-0.014": 0.0,
			"-0.013": 0.0,
			"-0.012": 0.0,
			"-0.011": 0.0,
			"-0.01": 0.0,
			"-0.009": 1.78506360526,
			"-0.008": 8.76997793446,
			"-0.007": 11.3231959824,
			"-0.006": 8.16659724877,
			"-0.005": 7.19041067163,
			"-0.004": 6.25111444394,
			"-0.003": 7.93870965815,
			"-0.002": 9.81149438049,
			"-0.001": 12.1175992337,
			"0.0": 15.0563006124,
			"0.001": 9.70346794053,
			"0.002": 3.77626215549,
			"0.003": 5.02429521275,
			"0.004": 4.10683215745,
			"0.005": 4.51379495884,
			"0.006": 3.51582340909,
			"0.007": 4.4896997978,
			"0.008": 4.24971118705,
			"0.009": 4.09650722187,
			"0.01": 3.85985372409,
			"0.011": 3.43746726136,
			"0.012": 2.93715228559,
			"0.013": 1.18795029105,
			"0.014": 0.500812845169,
			"0.015": 0.046625349641,
			"0.016": 0.0,
			"0.017": 0.0,
			"0.018": 0.0,
			"0.019": 0.0,
			"0.02": 0.0,
			"0.021": 0.0,
			"0.022": 0.0,
			"0.023": 0.0,
			"0.024": 0.0,
			"0.025": 0.0
		}
	}
}
