{
	 "smiles": "CN(C)C(=O)C1=CC=C(N)C=C1", 
	 "Tm": 425.15, 
	 "num_atms": 24, 
	 "gaussian": { 
		 "optdone": 1, 
		 "sigma_profile": "yes", 
		 "theory": "DFT", 
		 "functional": "B3LYP", 
		 "basiset": "6-31G**", 
		 "properties": { 
			 "R2extent": 3859.9309, 
			 "electric_dipole_moment_norm": 4.84158667587, 
			 "electric_quadrupole_moment_norm": 22.5273076545, 
			 "total_energy": -534.930100599, 
			 "HOMO_LUMO_gap": 0.19303, 
			 "cosmo_polarized_energy": -15.45, 
			 "cosmo_cavitation_energy": 27.1, 
			 "cosmo_dispersion_energy": -19.82, 
			 "cosmo_repulsion_energy": 1.59, 
			 "cosmo_total_nonelectrostatic_energy": 8.87, 
			 "SMD_solvation_energy": 5.13 
		},
		"coords": [
			{
				"x": 2.5313399544,
				"y": -0.2255246201,
				"z": 0.9782431838,
				"element": "C" 
			},
			{
				"x": 2.511181733,
				"y": 1.224499594,
				"z": 0.844344067,
				"element": "N" 
			},
			{
				"x": 3.0814616796,
				"y": 1.9466530808,
				"z": 1.9734632365,
				"element": "C" 
			},
			{
				"x": 1.6614574645,
				"y": 1.9243993507,
				"z": 0.0047953964,
				"element": "C" 
			},
			{
				"x": 1.3381716808,
				"y": 3.0865954205,
				"z": 0.249826538,
				"element": "O" 
			},
			{
				"x": 1.1812732404,
				"y": 1.2596809218,
				"z": -1.2500547145,
				"element": "C" 
			},
			{
				"x": 1.9764305436,
				"y": 0.4231343043,
				"z": -2.0477548233,
				"element": "C" 
			},
			{
				"x": 1.5048887015,
				"y": -0.0816543355,
				"z": -3.2549339735,
				"element": "C" 
			},
			{
				"x": 0.2095567065,
				"y": 0.2324896328,
				"z": -3.7042074675,
				"element": "C" 
			},
			{
				"x": -0.2519301597,
				"y": -0.235232182,
				"z": -4.9295452202,
				"element": "N" 
			},
			{
				"x": -0.5845798111,
				"y": 1.0858059355,
				"z": -2.9140279975,
				"element": "C" 
			},
			{
				"x": -0.0965908294,
				"y": 1.5988799471,
				"z": -1.7208451154,
				"element": "C" 
			},
			{
				"x": 1.8971599144,
				"y": -0.6920140702,
				"z": 0.2271982076,
				"element": "H" 
			},
			{
				"x": 3.5504242407,
				"y": -0.6205799339,
				"z": 0.8746388128,
				"element": "H" 
			},
			{
				"x": 2.1581554902,
				"y": -0.517943935,
				"z": 1.9700993813,
				"element": "H" 
			},
			{
				"x": 3.1122207753,
				"y": 3.0088097613,
				"z": 1.7371780205,
				"element": "H" 
			},
			{
				"x": 2.4820652775,
				"y": 1.8119758576,
				"z": 2.8854312838,
				"element": "H" 
			},
			{
				"x": 4.0938710545,
				"y": 1.5758840221,
				"z": 2.1688896454,
				"element": "H" 
			},
			{
				"x": 2.9887755252,
				"y": 0.1823919921,
				"z": -1.7373130731,
				"element": "H" 
			},
			{
				"x": 2.1452694611,
				"y": -0.7128518002,
				"z": -3.8662446015,
				"element": "H" 
			},
			{
				"x": -1.2548083407,
				"y": -0.248993644,
				"z": -5.0480175904,
				"element": "H" 
			},
			{
				"x": 0.1941652171,
				"y": -1.0697912965,
				"z": -5.2822944441,
				"element": "H" 
			},
			{
				"x": -1.5819998787,
				"y": 1.3540676974,
				"z": -3.253915117,
				"element": "H" 
			},
			{
				"x": -0.6997596406,
				"y": 2.2815182993,
				"z": -1.1312536352,
				"element": "H" 
			}
		],
		 "valence_orbital": [ 
			{
				"type": "occ",
				"energy": -0.3061,
				"method": "rhf"
			},
			{
				"type": "occ",
				"energy": -0.25088,
				"method": "rhf"
			},
			{
				"type": "occ",
				"energy": -0.2418,
				"method": "rhf"
			},
			{
				"type": "occ",
				"energy": -0.22499,
				"method": "rhf"
			},
			{
				"type": "occ",
				"energy": -0.20425,
				"method": "rhf"
			},
			{
				"type": "unocc",
				"energy": -0.01122,
				"method": "rhf"
			},
			{
				"type": "unocc",
				"energy": 0.00021,
				"method": "rhf"
			},
			{
				"type": "unocc",
				"energy": 0.06376,
				"method": "rhf"
			},
			{
				"type": "unocc",
				"energy": 0.07931,
				"method": "rhf"
			},
			{
				"type": "unocc",
				"energy": 0.09358,
				"method": "rhf"
			}
		],
		"cosmo_sigma_profile": { 
			"-0.025": 0.0,
			"-0.024": 0.0,
			"-0.023": 0.0,
			"-0.022": 0.0,
			"-0.021": 0.0,
			"-0.02": 0.0,
			"-0.019": 0.0,
			"-0.018": 0.0,
			"-0.017": 0.0,
			"-0.016": 0.0,
			"-0.015": 0.0,
			"-0.014": 0.0,
			"-0.013": 0.974175455596,
			"-0.012": 3.06421439352,
			"-0.011": 2.4833348071,
			"-0.01": 3.34646227819,
			"-0.009": 3.53975888887,
			"-0.008": 3.43620070546,
			"-0.007": 2.60752471339,
			"-0.006": 4.87568412781,
			"-0.005": 9.70064230838,
			"-0.004": 22.8951371876,
			"-0.003": 21.8637356948,
			"-0.002": 22.1922930878,
			"-0.001": 20.4763019398,
			"0.0": 9.96437282118,
			"0.001": 9.77862663123,
			"0.002": 9.49217128941,
			"0.003": 7.95849287984,
			"0.004": 9.75502190408,
			"0.005": 12.2522154534,
			"0.006": 8.26276906418,
			"0.007": 2.29869783037,
			"0.008": 2.56649223578,
			"0.009": 3.03283769557,
			"0.01": 2.25695257233,
			"0.011": 1.8020436634,
			"0.012": 2.62291711263,
			"0.013": 2.73371318171,
			"0.014": 5.09963109864,
			"0.015": 2.33395903381,
			"0.016": 0.224059124178,
			"0.017": 0.0,
			"0.018": 0.0,
			"0.019": 0.0,
			"0.02": 0.0,
			"0.021": 0.0,
			"0.022": 0.0,
			"0.023": 0.0,
			"0.024": 0.0,
			"0.025": 0.0
		}
	}
}
