{
	 "smiles": "CCOC(=O)CNC1=CC=C(I)C=C1", 
	 "Tm": 358.15, 
	 "num_atms": 26, 
	 "gaussian": { 
		 "optdone": 1, 
		 "sigma_profile": "no", 
		 "theory": "DFT", 
		 "functional": "B3LYP", 
		 "basiset": "6-31G**", 
		 "properties": { 
			 "R2extent": 4268.3029, 
			 "electric_dipole_moment_norm": 4.40886530073, 
			 "electric_quadrupole_moment_norm": 13.5860679937, 
			 "total_energy": -604.893549183, 
			 "HOMO_LUMO_gap": 0.17419, 
			 "cosmo_polarized_energy": -105082.04, 
			 "cosmo_cavitation_energy": 33.61, 
			 "cosmo_dispersion_energy": -25.33, 
			 "cosmo_repulsion_energy": 2.02, 
			 "cosmo_total_nonelectrostatic_energy": 10.3, 
			 "SMD_solvation_energy": 4.82 
		},
		"coords": [
			{
				"x": -3.5479485655,
				"y": 0.7405907988,
				"z": 2.8068418061,
				"element": "C" 
			},
			{
				"x": -3.06151909,
				"y": 0.2026692798,
				"z": 1.4751988195,
				"element": "C" 
			},
			{
				"x": -1.8534374857,
				"y": 0.9256367011,
				"z": 1.1267300313,
				"element": "O" 
			},
			{
				"x": -1.2684173662,
				"y": 0.571582539,
				"z": -0.0327466431,
				"element": "C" 
			},
			{
				"x": -1.6704601574,
				"y": -0.2999669282,
				"z": -0.7706087897,
				"element": "O" 
			},
			{
				"x": -0.0530072368,
				"y": 1.4584778846,
				"z": -0.3256688278,
				"element": "C" 
			},
			{
				"x": 0.8893009363,
				"y": 0.8766218121,
				"z": -1.2499487542,
				"element": "N" 
			},
			{
				"x": 1.6951867973,
				"y": -0.2054051076,
				"z": -0.8823343202,
				"element": "C" 
			},
			{
				"x": 1.9242515053,
				"y": -0.5704674757,
				"z": 0.4551340929,
				"element": "C" 
			},
			{
				"x": 2.7926970999,
				"y": -1.6165959553,
				"z": 0.7711430728,
				"element": "C" 
			},
			{
				"x": 3.4379672683,
				"y": -2.3202389396,
				"z": -0.2431583473,
				"element": "C" 
			},
			{
				"x": 4.7508042269,
				"y": -3.9154062402,
				"z": 0.2392021653,
				"element": "I" 
			},
			{
				"x": 3.2159055777,
				"y": -1.9792667222,
				"z": -1.5803440129,
				"element": "C" 
			},
			{
				"x": 2.3559501454,
				"y": -0.9328076673,
				"z": -1.890801447,
				"element": "C" 
			},
			{
				"x": -3.7695735621,
				"y": 1.8096524708,
				"z": 2.7409616418,
				"element": "H" 
			},
			{
				"x": -4.46174183,
				"y": 0.2176138251,
				"z": 3.1053665259,
				"element": "H" 
			},
			{
				"x": -2.796401436,
				"y": 0.5915640968,
				"z": 3.5873626503,
				"element": "H" 
			},
			{
				"x": -3.7974386587,
				"y": 0.3458311937,
				"z": 0.6777060081,
				"element": "H" 
			},
			{
				"x": -2.8277921333,
				"y": -0.8652311734,
				"z": 1.5205381357,
				"element": "H" 
			},
			{
				"x": 0.4374273187,
				"y": 1.7375360636,
				"z": 0.6097946873,
				"element": "H" 
			},
			{
				"x": -0.43287858,
				"y": 2.3933341379,
				"z": -0.7554137686,
				"element": "H" 
			},
			{
				"x": 0.511216565,
				"y": 0.7809452942,
				"z": -2.1833144633,
				"element": "H" 
			},
			{
				"x": 1.426198164,
				"y": -0.0512155358,
				"z": 1.2663773522,
				"element": "H" 
			},
			{
				"x": 2.9519108644,
				"y": -1.8787549937,
				"z": 1.8113409746,
				"element": "H" 
			},
			{
				"x": 3.7089891023,
				"y": -2.5231080153,
				"z": -2.3784754734,
				"element": "H" 
			},
			{
				"x": 2.19411053,
				"y": -0.6671913432,
				"z": -2.9325831163,
				"element": "H" 
			}
		],
		 "valence_orbital": [ 
			{
				"type": "occ",
				"energy": -0.2828,
				"method": "rhf"
			},
			{
				"type": "occ",
				"energy": -0.2604,
				"method": "rhf"
			},
			{
				"type": "occ",
				"energy": -0.2595,
				"method": "rhf"
			},
			{
				"type": "occ",
				"energy": -0.25671,
				"method": "rhf"
			},
			{
				"type": "occ",
				"energy": -0.20314,
				"method": "rhf"
			},
			{
				"type": "unocc",
				"energy": -0.02895,
				"method": "rhf"
			},
			{
				"type": "unocc",
				"energy": -0.01102,
				"method": "rhf"
			},
			{
				"type": "unocc",
				"energy": 0.00264,
				"method": "rhf"
			},
			{
				"type": "unocc",
				"energy": 0.00648,
				"method": "rhf"
			},
			{
				"type": "unocc",
				"energy": 0.04813,
				"method": "rhf"
			}
		],
		"cosmo_sigma_profile": { 
			"0.0": 0.0,
			"0.0": 0.0,
			"0.0": 0.0,
			"0.0": 0.0,
			"0.0": 0.0,
			"0.0": 0.0,
			"0.0": 0.0,
			"0.0": 0.0,
			"0.0": 0.0,
			"0.0": 0.0,
			"0.0": 0.0,
			"0.0": 0.0,
			"0.0": 0.0,
			"0.0": 0.0,
			"0.0": 0.0,
			"0.0": 0.0,
			"0.0": 0.0,
			"0.0": 0.0,
			"0.0": 0.0,
			"0.0": 0.0,
			"0.0": 0.0,
			"0.0": 0.0,
			"0.0": 0.0,
			"0.0": 0.0,
			"0.0": 0.0,
			"0.0": 0.0,
			"0.0": 0.0,
			"0.0": 0.0,
			"0.0": 0.0,
			"0.0": 0.0,
			"0.0": 0.0,
			"0.0": 0.0,
			"0.0": 0.0,
			"0.0": 0.0,
			"0.0": 0.0,
			"0.0": 0.0,
			"0.0": 0.0,
			"0.0": 0.0,
			"0.0": 0.0,
			"0.0": 0.0,
			"0.0": 0.0,
			"0.0": 0.0,
			"0.0": 0.0,
			"0.0": 0.0,
			"0.0": 0.0,
			"0.0": 0.0,
			"0.0": 0.0,
			"0.0": 0.0,
			"0.0": 0.0,
			"0.0": 0.0,
			"0.0": 0.0
		}
	}
}
