{
	 "smiles": "CC1=NC(C(O)=O)=C2C=CC=CN12", 
	 "Tm": 461.15, 
	 "num_atms": 21, 
	 "gaussian": { 
		 "optdone": 1, 
		 "sigma_profile": "yes", 
		 "theory": "DFT", 
		 "functional": "B3LYP", 
		 "basiset": "6-31G**", 
		 "properties": { 
			 "R2extent": 3197.8992, 
			 "electric_dipole_moment_norm": 7.39909627522, 
			 "electric_quadrupole_moment_norm": 19.8907628883, 
			 "total_energy": -607.750782908, 
			 "HOMO_LUMO_gap": 0.15635, 
			 "cosmo_polarized_energy": -16.11, 
			 "cosmo_cavitation_energy": 25.43, 
			 "cosmo_dispersion_energy": -18.95, 
			 "cosmo_repulsion_energy": 1.48, 
			 "cosmo_total_nonelectrostatic_energy": 7.96, 
			 "SMD_solvation_energy": 4.65 
		},
		"coords": [
			{
				"x": 0.4157078521,
				"y": 2.4905563248,
				"z": -1.5167173994,
				"element": "C" 
			},
			{
				"x": 0.9466407868,
				"y": 1.1842368014,
				"z": -1.0338134613,
				"element": "C" 
			},
			{
				"x": 1.7017081513,
				"y": 0.988065644,
				"z": 0.0303236399,
				"element": "N" 
			},
			{
				"x": 1.9637799226,
				"y": -0.3543219139,
				"z": 0.1103084338,
				"element": "C" 
			},
			{
				"x": 2.7849801552,
				"y": -0.921661962,
				"z": 1.1875362233,
				"element": "C" 
			},
			{
				"x": 3.2447924997,
				"y": -0.0045134469,
				"z": 2.0691499601,
				"element": "O" 
			},
			{
				"x": 3.0426473871,
				"y": -2.1047048289,
				"z": 1.2953527293,
				"element": "O" 
			},
			{
				"x": 1.3503677388,
				"y": -1.0282395591,
				"z": -0.943604714,
				"element": "C" 
			},
			{
				"x": 1.2555594215,
				"y": -2.3682726686,
				"z": -1.3871391158,
				"element": "C" 
			},
			{
				"x": 0.5296102906,
				"y": -2.6475352367,
				"z": -2.5165361146,
				"element": "C" 
			},
			{
				"x": -0.1219267983,
				"y": -1.5961935665,
				"z": -3.2344535257,
				"element": "C" 
			},
			{
				"x": -0.03251653,
				"y": -0.3043200031,
				"z": -2.8096916197,
				"element": "C" 
			},
			{
				"x": 0.6978108693,
				"y": -0.0200529352,
				"z": -1.6727477205,
				"element": "N" 
			},
			{
				"x": 0.7712166476,
				"y": 2.73150168,
				"z": -2.5262038835,
				"element": "H" 
			},
			{
				"x": 0.75703188,
				"y": 3.272858272,
				"z": -0.8376705186,
				"element": "H" 
			},
			{
				"x": -0.6810193166,
				"y": 2.5067934543,
				"z": -1.537368018,
				"element": "H" 
			},
			{
				"x": 2.9128077146,
				"y": 0.8654594112,
				"z": 1.7795801456,
				"element": "H" 
			},
			{
				"x": 1.7683717476,
				"y": -3.1251479444,
				"z": -0.8059318124,
				"element": "H" 
			},
			{
				"x": 0.4438472212,
				"y": -3.6680161758,
				"z": -2.8742193017,
				"element": "H" 
			},
			{
				"x": -0.6961863092,
				"y": -1.8153824711,
				"z": -4.1274768242,
				"element": "H" 
			},
			{
				"x": -0.501031332,
				"y": 0.5351911246,
				"z": -3.3068771026,
				"element": "H" 
			}
		],
		 "valence_orbital": [ 
			{
				"type": "occ",
				"energy": -0.30292,
				"method": "rhf"
			},
			{
				"type": "occ",
				"energy": -0.29323,
				"method": "rhf"
			},
			{
				"type": "occ",
				"energy": -0.27997,
				"method": "rhf"
			},
			{
				"type": "occ",
				"energy": -0.25573,
				"method": "rhf"
			},
			{
				"type": "occ",
				"energy": -0.21216,
				"method": "rhf"
			},
			{
				"type": "unocc",
				"energy": -0.05581,
				"method": "rhf"
			},
			{
				"type": "unocc",
				"energy": -0.022,
				"method": "rhf"
			},
			{
				"type": "unocc",
				"energy": 0.01099,
				"method": "rhf"
			},
			{
				"type": "unocc",
				"energy": 0.07157,
				"method": "rhf"
			},
			{
				"type": "unocc",
				"energy": 0.09495,
				"method": "rhf"
			}
		],
		"cosmo_sigma_profile": { 
			"-0.025": 0.0,
			"-0.024": 0.0,
			"-0.023": 0.0,
			"-0.022": 0.0,
			"-0.021": 0.0,
			"-0.02": 0.0,
			"-0.019": 0.0,
			"-0.018": 0.0,
			"-0.017": 0.0,
			"-0.016": 0.0,
			"-0.015": 0.0,
			"-0.014": 0.109505233421,
			"-0.013": 0.488785627855,
			"-0.012": 0.445583525335,
			"-0.011": 0.459548403732,
			"-0.01": 1.24575159407,
			"-0.009": 2.63527635553,
			"-0.008": 5.4887512947,
			"-0.007": 10.052963804,
			"-0.006": 14.421531498,
			"-0.005": 13.3928429564,
			"-0.004": 11.9832036766,
			"-0.003": 12.6986677393,
			"-0.002": 16.2604059142,
			"-0.001": 16.1690480532,
			"0.0": 13.2516102014,
			"0.001": 16.5996415439,
			"0.002": 16.3942439038,
			"0.003": 8.58205217044,
			"0.004": 4.64705917393,
			"0.005": 4.00095476517,
			"0.006": 3.64974738839,
			"0.007": 3.39554696192,
			"0.008": 3.81878094627,
			"0.009": 5.09787241873,
			"0.01": 3.57201092705,
			"0.011": 5.66619800737,
			"0.012": 4.12229166264,
			"0.013": 3.64852022369,
			"0.014": 1.68108225399,
			"0.015": 0.0935282320372,
			"0.016": 0.0,
			"0.017": 0.0,
			"0.018": 0.0,
			"0.019": 0.0,
			"0.02": 0.0,
			"0.021": 0.0,
			"0.022": 0.0,
			"0.023": 0.0,
			"0.024": 0.0,
			"0.025": 0.0
		}
	}
}
