{
	 "smiles": "COC(=O)C1=CC(=CC(N)=C1)S(C)(=O)=O", 
	 "Tm": 468.15, 
	 "num_atms": 26, 
	 "gaussian": { 
		 "optdone": 1, 
		 "sigma_profile": "yes", 
		 "theory": "DFT", 
		 "functional": "B3LYP", 
		 "basiset": "6-31G**", 
		 "properties": { 
			 "R2extent": 4340.6196, 
			 "electric_dipole_moment_norm": 6.41848659265, 
			 "electric_quadrupole_moment_norm": 17.2263267579, 
			 "total_energy": -1103.37241112, 
			 "HOMO_LUMO_gap": 0.16893, 
			 "cosmo_polarized_energy": -22.39, 
			 "cosmo_cavitation_energy": 32.22, 
			 "cosmo_dispersion_energy": -23.55, 
			 "cosmo_repulsion_energy": 1.82, 
			 "cosmo_total_nonelectrostatic_energy": 10.49, 
			 "SMD_solvation_energy": 6.85 
		},
		"coords": [
			{
				"x": 0.5978457872,
				"y": 4.7633766806,
				"z": 0.3513497731,
				"element": "C" 
			},
			{
				"x": 0.5440473283,
				"y": 3.3975033799,
				"z": 0.7940730619,
				"element": "O" 
			},
			{
				"x": 0.2593526986,
				"y": 2.492520585,
				"z": -0.169292582,
				"element": "C" 
			},
			{
				"x": 0.0611307751,
				"y": 2.7948818256,
				"z": -1.3287739353,
				"element": "O" 
			},
			{
				"x": 0.2209070529,
				"y": 1.0933704493,
				"z": 0.3532262732,
				"element": "C" 
			},
			{
				"x": -0.1115849599,
				"y": 0.0771019124,
				"z": -0.55070802,
				"element": "C" 
			},
			{
				"x": -0.1445604414,
				"y": -1.2305733766,
				"z": -0.0752441656,
				"element": "C" 
			},
			{
				"x": 0.1234046044,
				"y": -1.5495890558,
				"z": 1.2532500206,
				"element": "C" 
			},
			{
				"x": 0.4475053912,
				"y": -0.5260117282,
				"z": 2.1614162421,
				"element": "C" 
			},
			{
				"x": 0.7637514304,
				"y": -0.8246250921,
				"z": 3.4811910225,
				"element": "N" 
			},
			{
				"x": 0.4979027735,
				"y": 0.7975392287,
				"z": 1.690919262,
				"element": "C" 
			},
			{
				"x": -0.557828295,
				"y": -2.5732135905,
				"z": -1.2074944719,
				"element": "S" 
			},
			{
				"x": 1.001044899,
				"y": -2.8848925763,
				"z": -2.0704183194,
				"element": "C" 
			},
			{
				"x": -1.517452724,
				"y": -2.0625859742,
				"z": -2.1970512455,
				"element": "O" 
			},
			{
				"x": -0.8625797536,
				"y": -3.7643667663,
				"z": -0.39723364,
				"element": "O" 
			},
			{
				"x": -0.3636329164,
				"y": 5.0687768959,
				"z": -0.0685286193,
				"element": "H" 
			},
			{
				"x": 0.8335790501,
				"y": 5.3508508871,
				"z": 1.2385294173,
				"element": "H" 
			},
			{
				"x": 1.3707067046,
				"y": 4.8900726456,
				"z": -0.4107595731,
				"element": "H" 
			},
			{
				"x": -0.355207347,
				"y": 0.3220459166,
				"z": -1.5774503797,
				"element": "H" 
			},
			{
				"x": 0.0602908938,
				"y": -2.584367891,
				"z": 1.5755921302,
				"element": "H" 
			},
			{
				"x": 0.406908557,
				"y": -1.701595434,
				"z": 3.8332478012,
				"element": "H" 
			},
			{
				"x": 0.6594178303,
				"y": -0.0683596591,
				"z": 4.1424877502,
				"element": "H" 
			},
			{
				"x": 0.7515105263,
				"y": 1.603602315,
				"z": 2.3709119928,
				"element": "H" 
			},
			{
				"x": 1.3011739252,
				"y": -1.9833625207,
				"z": -2.6059616437,
				"element": "H" 
			},
			{
				"x": 1.7584099045,
				"y": -3.1843042989,
				"z": -1.3447037368,
				"element": "H" 
			},
			{
				"x": 0.8032563047,
				"y": -3.6971947582,
				"z": -2.7728744151,
				"element": "H" 
			}
		],
		 "valence_orbital": [ 
			{
				"type": "occ",
				"energy": -0.29218,
				"method": "rhf"
			},
			{
				"type": "occ",
				"energy": -0.28757,
				"method": "rhf"
			},
			{
				"type": "occ",
				"energy": -0.28039,
				"method": "rhf"
			},
			{
				"type": "occ",
				"energy": -0.27552,
				"method": "rhf"
			},
			{
				"type": "occ",
				"energy": -0.22733,
				"method": "rhf"
			},
			{
				"type": "unocc",
				"energy": -0.0584,
				"method": "rhf"
			},
			{
				"type": "unocc",
				"energy": -0.02682,
				"method": "rhf"
			},
			{
				"type": "unocc",
				"energy": 0.04354,
				"method": "rhf"
			},
			{
				"type": "unocc",
				"energy": 0.06625,
				"method": "rhf"
			},
			{
				"type": "unocc",
				"energy": 0.07222,
				"method": "rhf"
			}
		],
		"cosmo_sigma_profile": { 
			"-0.025": 0.0,
			"-0.024": 0.0,
			"-0.023": 0.0,
			"-0.022": 0.0,
			"-0.021": 0.0,
			"-0.02": 0.0,
			"-0.019": 0.0,
			"-0.018": 0.0,
			"-0.017": 0.0,
			"-0.016": 0.0,
			"-0.015": 0.0,
			"-0.014": 0.249568022239,
			"-0.013": 2.8960432727,
			"-0.012": 3.33173784155,
			"-0.011": 3.65228344263,
			"-0.01": 3.47204881276,
			"-0.009": 5.0796441983,
			"-0.008": 9.48597484552,
			"-0.007": 9.33165299386,
			"-0.006": 15.3615205926,
			"-0.005": 15.6966288951,
			"-0.004": 18.8168020096,
			"-0.003": 17.4313583791,
			"-0.002": 13.4565767289,
			"-0.001": 11.6075424262,
			"0.0": 13.3370352167,
			"0.001": 16.1563745056,
			"0.002": 19.8190564605,
			"0.003": 9.22221439274,
			"0.004": 7.17815231328,
			"0.005": 6.09571030389,
			"0.006": 5.2161849402,
			"0.007": 4.90401773166,
			"0.008": 4.70101049458,
			"0.009": 6.16114200572,
			"0.01": 6.6779540055,
			"0.011": 13.0145533188,
			"0.012": 12.4081025687,
			"0.013": 1.30629123801,
			"0.014": 0.0,
			"0.015": 0.0,
			"0.016": 0.0,
			"0.017": 0.0,
			"0.018": 0.0,
			"0.019": 0.0,
			"0.02": 0.0,
			"0.021": 0.0,
			"0.022": 0.0,
			"0.023": 0.0,
			"0.024": 0.0,
			"0.025": 0.0
		}
	}
}
