{
	 "smiles": "CN1C=C(C(O)=O)C(C)=N1", 
	 "Tm": 464.15, 
	 "num_atms": 18, 
	 "gaussian": { 
		 "optdone": 1, 
		 "sigma_profile": "yes", 
		 "theory": "DFT", 
		 "functional": "B3LYP", 
		 "basiset": "6-31G**", 
		 "properties": { 
			 "R2extent": 1766.4249, 
			 "electric_dipole_moment_norm": 4.44334128669, 
			 "electric_quadrupole_moment_norm": 14.4385769091, 
			 "total_energy": -493.406179449, 
			 "HOMO_LUMO_gap": 0.236, 
			 "cosmo_polarized_energy": -16.24, 
			 "cosmo_cavitation_energy": 22.24, 
			 "cosmo_dispersion_energy": -16.45, 
			 "cosmo_repulsion_energy": 1.34, 
			 "cosmo_total_nonelectrostatic_energy": 7.12, 
			 "SMD_solvation_energy": 4.52 
		},
		"coords": [
			{
				"x": 3.1500840622,
				"y": 0.0595132035,
				"z": -2.3604634645,
				"element": "C" 
			},
			{
				"x": 2.1819529377,
				"y": -0.1114093854,
				"z": -1.2922850707,
				"element": "N" 
			},
			{
				"x": 1.3664292626,
				"y": 0.8111794597,
				"z": -0.7480772199,
				"element": "C" 
			},
			{
				"x": 0.6274379241,
				"y": 0.1709370008,
				"z": 0.2389655668,
				"element": "C" 
			},
			{
				"x": -0.3789937566,
				"y": 0.8767075469,
				"z": 1.0541438624,
				"element": "C" 
			},
			{
				"x": -1.0443081015,
				"y": 0.1480485471,
				"z": 1.9937673066,
				"element": "O" 
			},
			{
				"x": -0.6305280598,
				"y": 2.0542476888,
				"z": 0.9221241423,
				"element": "O" 
			},
			{
				"x": 1.0909536892,
				"y": -1.1796240629,
				"z": 0.2061231989,
				"element": "C" 
			},
			{
				"x": 0.6764524971,
				"y": -2.3601752583,
				"z": 1.0343593452,
				"element": "C" 
			},
			{
				"x": 2.0305437937,
				"y": -1.335492121,
				"z": -0.7242483805,
				"element": "N" 
			},
			{
				"x": 3.129220576,
				"y": 1.0982266917,
				"z": -2.6928612746,
				"element": "H" 
			},
			{
				"x": 2.9010400312,
				"y": -0.5968240507,
				"z": -3.197894296,
				"element": "H" 
			},
			{
				"x": 4.151483058,
				"y": -0.1883208964,
				"z": -1.9999373001,
				"element": "H" 
			},
			{
				"x": 1.3426688668,
				"y": 1.842069554,
				"z": -1.0682745964,
				"element": "H" 
			},
			{
				"x": -0.7469249701,
				"y": -0.7714734607,
				"z": 1.9920119054,
				"element": "H" 
			},
			{
				"x": 0.8659263604,
				"y": -2.1989646139,
				"z": 2.1034119513,
				"element": "H" 
			},
			{
				"x": 1.2510971912,
				"y": -3.2361926219,
				"z": 0.727451408,
				"element": "H" 
			},
			{
				"x": -0.3866353622,
				"y": -2.6003532214,
				"z": 0.9044829158,
				"element": "H" 
			}
		],
		 "valence_orbital": [ 
			{
				"type": "occ",
				"energy": -0.30979,
				"method": "rhf"
			},
			{
				"type": "occ",
				"energy": -0.30698,
				"method": "rhf"
			},
			{
				"type": "occ",
				"energy": -0.26411,
				"method": "rhf"
			},
			{
				"type": "occ",
				"energy": -0.26133,
				"method": "rhf"
			},
			{
				"type": "occ",
				"energy": -0.25553,
				"method": "rhf"
			},
			{
				"type": "unocc",
				"energy": -0.01953,
				"method": "rhf"
			},
			{
				"type": "unocc",
				"energy": 0.00966,
				"method": "rhf"
			},
			{
				"type": "unocc",
				"energy": 0.06501,
				"method": "rhf"
			},
			{
				"type": "unocc",
				"energy": 0.08713,
				"method": "rhf"
			},
			{
				"type": "unocc",
				"energy": 0.10838,
				"method": "rhf"
			}
		],
		"cosmo_sigma_profile": { 
			"-0.025": 0.0,
			"-0.024": 0.0,
			"-0.023": 0.0,
			"-0.022": 0.0,
			"-0.021": 0.0,
			"-0.02": 0.0,
			"-0.019": 0.0,
			"-0.018": 0.0,
			"-0.017": 0.0,
			"-0.016": 0.0,
			"-0.015": 0.0359036714332,
			"-0.014": 0.938372858078,
			"-0.013": 1.35352371655,
			"-0.012": 2.18392966648,
			"-0.011": 1.53934411203,
			"-0.01": 3.32477598691,
			"-0.009": 4.08134774457,
			"-0.008": 4.54991658082,
			"-0.007": 6.95989262429,
			"-0.006": 11.0746585429,
			"-0.005": 11.5319365061,
			"-0.004": 14.608492315,
			"-0.003": 13.7614783001,
			"-0.002": 11.3187623982,
			"-0.001": 10.2376246358,
			"0.0": 8.04333681548,
			"0.001": 8.33068372157,
			"0.002": 9.47048492869,
			"0.003": 6.00513286432,
			"0.004": 4.43187589738,
			"0.005": 3.43973649852,
			"0.006": 3.80693672115,
			"0.007": 3.49317165009,
			"0.008": 3.56307731586,
			"0.009": 4.77948787837,
			"0.01": 3.92554385541,
			"0.011": 6.27628425395,
			"0.012": 6.62750071608,
			"0.013": 4.50088593192,
			"0.014": 1.96439142575,
			"0.015": 0.561195168109,
			"0.016": 0.0759623882059,
			"0.017": 0.0,
			"0.018": 0.0,
			"0.019": 0.0,
			"0.02": 0.0,
			"0.021": 0.0,
			"0.022": 0.0,
			"0.023": 0.0,
			"0.024": 0.0,
			"0.025": 0.0
		}
	}
}
