{
	 "smiles": "CN1C=C(C=C1C(O)=O)[N+]([O-])=O", 
	 "Tm": 473.15, 
	 "num_atms": 18, 
	 "gaussian": { 
		 "optdone": 1, 
		 "sigma_profile": "yes", 
		 "theory": "DFT", 
		 "functional": "B3LYP", 
		 "basiset": "6-31G**", 
		 "properties": { 
			 "R2extent": 2804.4268, 
			 "electric_dipole_moment_norm": 6.91306233951, 
			 "electric_quadrupole_moment_norm": 15.4773725248, 
			 "total_energy": -642.540084416, 
			 "HOMO_LUMO_gap": 0.18141, 
			 "cosmo_polarized_energy": -23.24, 
			 "cosmo_cavitation_energy": 23.81, 
			 "cosmo_dispersion_energy": -17.25, 
			 "cosmo_repulsion_energy": 1.37, 
			 "cosmo_total_nonelectrostatic_energy": 7.92, 
			 "SMD_solvation_energy": 7.94 
		},
		"coords": [
			{
				"x": 0.1327527907,
				"y": 1.9773054356,
				"z": 0.2231217496,
				"element": "C" 
			},
			{
				"x": 0.4058662481,
				"y": 0.6440165609,
				"z": -0.3096449429,
				"element": "N" 
			},
			{
				"x": -0.2080759221,
				"y": -0.4791573645,
				"z": 0.1451918598,
				"element": "C" 
			},
			{
				"x": 0.347599907,
				"y": -1.5605340857,
				"z": -0.5191517336,
				"element": "C" 
			},
			{
				"x": 1.3467650483,
				"y": -1.093117996,
				"z": -1.3954662849,
				"element": "C" 
			},
			{
				"x": 1.3671433493,
				"y": 0.2829592643,
				"z": -1.2649263662,
				"element": "C" 
			},
			{
				"x": 2.2734278026,
				"y": 1.1867753416,
				"z": -2.0061927311,
				"element": "C" 
			},
			{
				"x": 1.8852120107,
				"y": 2.4892144276,
				"z": -2.1604408505,
				"element": "O" 
			},
			{
				"x": 3.3222699202,
				"y": 0.8114261315,
				"z": -2.4691961798,
				"element": "O" 
			},
			{
				"x": -0.0458969781,
				"y": -2.9246676263,
				"z": -0.3116615967,
				"element": "N" 
			},
			{
				"x": -0.941240761,
				"y": -3.1356330594,
				"z": 0.5124549934,
				"element": "O" 
			},
			{
				"x": 0.5353118939,
				"y": -3.7884589276,
				"z": -0.9690273684,
				"element": "O" 
			},
			{
				"x": -0.5703873391,
				"y": 2.5290300959,
				"z": -0.4125754833,
				"element": "H" 
			},
			{
				"x": -0.3174339712,
				"y": 1.8733644518,
				"z": 1.2108641384,
				"element": "H" 
			},
			{
				"x": 1.0598376001,
				"y": 2.5436851798,
				"z": 0.3175932667,
				"element": "H" 
			},
			{
				"x": -0.9731719724,
				"y": -0.4572342377,
				"z": 0.9052968991,
				"element": "H" 
			},
			{
				"x": 1.9732863241,
				"y": -1.6785080579,
				"z": -2.049535986,
				"element": "H" 
			},
			{
				"x": 0.9341340489,
				"y": 2.5844344662,
				"z": -2.0177033834,
				"element": "H" 
			}
		],
		 "valence_orbital": [ 
			{
				"type": "occ",
				"energy": -0.30668,
				"method": "rhf"
			},
			{
				"type": "occ",
				"energy": -0.29567,
				"method": "rhf"
			},
			{
				"type": "occ",
				"energy": -0.29007,
				"method": "rhf"
			},
			{
				"type": "occ",
				"energy": -0.28907,
				"method": "rhf"
			},
			{
				"type": "occ",
				"energy": -0.26227,
				"method": "rhf"
			},
			{
				"type": "unocc",
				"energy": -0.08086,
				"method": "rhf"
			},
			{
				"type": "unocc",
				"energy": -0.05424,
				"method": "rhf"
			},
			{
				"type": "unocc",
				"energy": 0.02169,
				"method": "rhf"
			},
			{
				"type": "unocc",
				"energy": 0.04499,
				"method": "rhf"
			},
			{
				"type": "unocc",
				"energy": 0.07503,
				"method": "rhf"
			}
		],
		"cosmo_sigma_profile": { 
			"-0.025": 0.0,
			"-0.024": 0.0,
			"-0.023": 0.0,
			"-0.022": 0.0,
			"-0.021": 0.0,
			"-0.02": 0.00669298606157,
			"-0.019": 0.85892853099,
			"-0.018": 0.801515364291,
			"-0.017": 1.13530676582,
			"-0.016": 1.08390383324,
			"-0.015": 1.33172841791,
			"-0.014": 0.767989628563,
			"-0.013": 0.691954385938,
			"-0.012": 1.11172612081,
			"-0.011": 3.74124415666,
			"-0.01": 3.42543496113,
			"-0.009": 4.53090790941,
			"-0.008": 8.33436856068,
			"-0.007": 8.95197946505,
			"-0.006": 9.73111405863,
			"-0.005": 11.72289012,
			"-0.004": 10.4035584955,
			"-0.003": 6.96929442284,
			"-0.002": 8.96228443776,
			"-0.001": 11.8726031753,
			"0.0": 10.1913521407,
			"0.001": 7.94720715714,
			"0.002": 5.78714772034,
			"0.003": 4.20060715752,
			"0.004": 5.09686496805,
			"0.005": 5.05989175082,
			"0.006": 5.41845627786,
			"0.007": 6.68961137789,
			"0.008": 14.5196219723,
			"0.009": 8.78118259829,
			"0.01": 9.18516074354,
			"0.011": 7.00687334235,
			"0.012": 3.68530223762,
			"0.013": 0.500375124857,
			"0.014": 0.0,
			"0.015": 0.0,
			"0.016": 0.0,
			"0.017": 0.0,
			"0.018": 0.0,
			"0.019": 0.0,
			"0.02": 0.0,
			"0.021": 0.0,
			"0.022": 0.0,
			"0.023": 0.0,
			"0.024": 0.0,
			"0.025": 0.0
		}
	}
}
