{
	 "smiles": "NC1=C(Br)C=C(Cl)C=C1", 
	 "Tm": 339.15, 
	 "num_atms": 14, 
	 "gaussian": { 
		 "optdone": 1, 
		 "sigma_profile": "yes", 
		 "theory": "DFT", 
		 "functional": "B3LYP", 
		 "basiset": "6-31G**", 
		 "properties": { 
			 "R2extent": 3204.7006, 
			 "electric_dipole_moment_norm": 3.16673401156, 
			 "electric_quadrupole_moment_norm": 8.37799764443, 
			 "total_energy": -3318.00391214, 
			 "HOMO_LUMO_gap": 0.19207, 
			 "cosmo_polarized_energy": -7.62, 
			 "cosmo_cavitation_energy": 22.0, 
			 "cosmo_dispersion_energy": -17.16, 
			 "cosmo_repulsion_energy": 1.41, 
			 "cosmo_total_nonelectrostatic_energy": 6.24, 
			 "SMD_solvation_energy": 2.34 
		},
		"coords": [
			{
				"x": -1.0940990691,
				"y": 0.6620758441,
				"z": 0.5421347969,
				"element": "N" 
			},
			{
				"x": 0.085604592,
				"y": 0.9898896367,
				"z": -0.1021650876,
				"element": "C" 
			},
			{
				"x": 1.1888768488,
				"y": 0.1156717889,
				"z": -0.1473316432,
				"element": "C" 
			},
			{
				"x": 1.1002887888,
				"y": -1.5571323648,
				"z": 0.7838981848,
				"element": "Br" 
			},
			{
				"x": 2.3537645014,
				"y": 0.4246764434,
				"z": -0.8434699349,
				"element": "C" 
			},
			{
				"x": 2.4395136605,
				"y": 1.6403902389,
				"z": -1.5165235632,
				"element": "C" 
			},
			{
				"x": 3.9074263777,
				"y": 2.0421129382,
				"z": -2.3967319093,
				"element": "Cl" 
			},
			{
				"x": 1.3716865465,
				"y": 2.537320554,
				"z": -1.4933660063,
				"element": "C" 
			},
			{
				"x": 0.2161334305,
				"y": 2.2098960161,
				"z": -0.794498917,
				"element": "C" 
			},
			{
				"x": -1.6763315707,
				"y": 1.437863055,
				"z": 0.8206952059,
				"element": "H" 
			},
			{
				"x": -1.0314692178,
				"y": -0.0735355871,
				"z": 1.231970688,
				"element": "H" 
			},
			{
				"x": 3.1819694266,
				"y": -0.2728262939,
				"z": -0.8544041509,
				"element": "H" 
			},
			{
				"x": 1.4439227689,
				"y": 3.4836894112,
				"z": -2.0174654539,
				"element": "H" 
			},
			{
				"x": -0.6174870841,
				"y": 2.9070083193,
				"z": -0.7840422094,
				"element": "H" 
			}
		],
		 "valence_orbital": [ 
			{
				"type": "occ",
				"energy": -0.31226,
				"method": "rhf"
			},
			{
				"type": "occ",
				"energy": -0.29864,
				"method": "rhf"
			},
			{
				"type": "occ",
				"energy": -0.29829,
				"method": "rhf"
			},
			{
				"type": "occ",
				"energy": -0.25514,
				"method": "rhf"
			},
			{
				"type": "occ",
				"energy": -0.21241,
				"method": "rhf"
			},
			{
				"type": "unocc",
				"energy": -0.02034,
				"method": "rhf"
			},
			{
				"type": "unocc",
				"energy": -0.00703,
				"method": "rhf"
			},
			{
				"type": "unocc",
				"energy": -0.00243,
				"method": "rhf"
			},
			{
				"type": "unocc",
				"energy": 0.04493,
				"method": "rhf"
			},
			{
				"type": "unocc",
				"energy": 0.0787,
				"method": "rhf"
			}
		],
		"cosmo_sigma_profile": { 
			"-0.025": 0.0,
			"-0.024": 0.0,
			"-0.023": 0.0,
			"-0.022": 0.0,
			"-0.021": 0.0,
			"-0.02": 0.0,
			"-0.019": 0.0,
			"-0.018": 0.0,
			"-0.017": 0.0,
			"-0.016": 0.0,
			"-0.015": 0.0,
			"-0.014": 0.328847257664,
			"-0.013": 1.51030601017,
			"-0.012": 1.68192218443,
			"-0.011": 2.53408179123,
			"-0.01": 2.63450033131,
			"-0.009": 2.55274065133,
			"-0.008": 2.673811024,
			"-0.007": 6.89365723123,
			"-0.006": 7.05541543121,
			"-0.005": 6.54672998337,
			"-0.004": 7.08393574051,
			"-0.003": 7.53977543837,
			"-0.002": 7.34310253985,
			"-0.001": 10.8048291686,
			"0.0": 11.8364227247,
			"0.001": 14.0524287911,
			"0.002": 20.6295913423,
			"0.003": 27.1864663144,
			"0.004": 22.336484798,
			"0.005": 12.3120456893,
			"0.006": 1.79818106694,
			"0.007": 1.03418289483,
			"0.008": 0.738567373752,
			"0.009": 0.534758388818,
			"0.01": 0.583440809005,
			"0.011": 0.627250012921,
			"0.012": 0.665730632289,
			"0.013": 0.131617122377,
			"0.014": 0.0,
			"0.015": 0.0,
			"0.016": 0.0,
			"0.017": 0.0,
			"0.018": 0.0,
			"0.019": 0.0,
			"0.02": 0.0,
			"0.021": 0.0,
			"0.022": 0.0,
			"0.023": 0.0,
			"0.024": 0.0,
			"0.025": 0.0
		}
	}
}
