{
	 "smiles": "CC1=CC=CN=C1C", 
	 "Tm": 256.15, 
	 "num_atms": 17, 
	 "gaussian": { 
		 "optdone": 1, 
		 "sigma_profile": "yes", 
		 "theory": "DFT", 
		 "functional": "B3LYP", 
		 "basiset": "6-31G**", 
		 "properties": { 
			 "R2extent": 1019.1029, 
			 "electric_dipole_moment_norm": 2.08318262282, 
			 "electric_quadrupole_moment_norm": 4.66330532134, 
			 "total_energy": -326.929646901, 
			 "HOMO_LUMO_gap": 0.22897, 
			 "cosmo_polarized_energy": -5.75, 
			 "cosmo_cavitation_energy": 19.96, 
			 "cosmo_dispersion_energy": -14.86, 
			 "cosmo_repulsion_energy": 1.22, 
			 "cosmo_total_nonelectrostatic_energy": 6.33, 
			 "SMD_solvation_energy": 2.33 
		},
		"coords": [
			{
				"x": 0.306096754,
				"y": -2.6603683984,
				"z": 0.8908771794,
				"element": "C" 
			},
			{
				"x": 0.4713700706,
				"y": -1.1828353126,
				"z": 0.6345951942,
				"element": "C" 
			},
			{
				"x": 1.7265365608,
				"y": -0.6294804546,
				"z": 0.3746398564,
				"element": "C" 
			},
			{
				"x": 1.8509481415,
				"y": 0.7394691376,
				"z": 0.1411445343,
				"element": "C" 
			},
			{
				"x": 0.6952214854,
				"y": 1.5144403615,
				"z": 0.177466163,
				"element": "C" 
			},
			{
				"x": -0.5205474872,
				"y": 1.0113817977,
				"z": 0.4240408298,
				"element": "N" 
			},
			{
				"x": -0.6368932726,
				"y": -0.306265279,
				"z": 0.648330358,
				"element": "C" 
			},
			{
				"x": -2.0313228369,
				"y": -0.8154044118,
				"z": 0.9205582542,
				"element": "C" 
			},
			{
				"x": -0.1273339885,
				"y": -2.8535535943,
				"z": 1.8794393528,
				"element": "H" 
			},
			{
				"x": -0.3632948943,
				"y": -3.1258343257,
				"z": 0.1575959666,
				"element": "H" 
			},
			{
				"x": 1.2679456431,
				"y": -3.1780821149,
				"z": 0.840911834,
				"element": "H" 
			},
			{
				"x": 2.6034209445,
				"y": -1.2725541005,
				"z": 0.3557797908,
				"element": "H" 
			},
			{
				"x": 2.8164199904,
				"y": 1.1918378092,
				"z": -0.0630405662,
				"element": "H" 
			},
			{
				"x": 0.7418341706,
				"y": 2.5880160762,
				"z": 0.0013406988,
				"element": "H" 
			},
			{
				"x": -2.3388405044,
				"y": -1.5659452052,
				"z": 0.1820210896,
				"element": "H" 
			},
			{
				"x": -2.1018174097,
				"y": -1.2935337838,
				"z": 1.9053146542,
				"element": "H" 
			},
			{
				"x": -2.7318433673,
				"y": 0.0198117988,
				"z": 0.8848848101,
				"element": "H" 
			}
		],
		 "valence_orbital": [ 
			{
				"type": "occ",
				"energy": -0.36788,
				"method": "rhf"
			},
			{
				"type": "occ",
				"energy": -0.3465,
				"method": "rhf"
			},
			{
				"type": "occ",
				"energy": -0.27409,
				"method": "rhf"
			},
			{
				"type": "occ",
				"energy": -0.244,
				"method": "rhf"
			},
			{
				"type": "occ",
				"energy": -0.24153,
				"method": "rhf"
			},
			{
				"type": "unocc",
				"energy": -0.01256,
				"method": "rhf"
			},
			{
				"type": "unocc",
				"energy": -0.00342,
				"method": "rhf"
			},
			{
				"type": "unocc",
				"energy": 0.09292,
				"method": "rhf"
			},
			{
				"type": "unocc",
				"energy": 0.10538,
				"method": "rhf"
			},
			{
				"type": "unocc",
				"energy": 0.13616,
				"method": "rhf"
			}
		],
		"cosmo_sigma_profile": { 
			"-0.025": 0.0,
			"-0.024": 0.0,
			"-0.023": 0.0,
			"-0.022": 0.0,
			"-0.021": 0.0,
			"-0.02": 0.0,
			"-0.019": 0.0,
			"-0.018": 0.0,
			"-0.017": 0.0,
			"-0.016": 0.0,
			"-0.015": 0.0,
			"-0.014": 0.0,
			"-0.013": 0.0,
			"-0.012": 0.0,
			"-0.011": 0.0,
			"-0.01": 0.0,
			"-0.009": 0.0,
			"-0.008": 0.0,
			"-0.007": 0.299430781493,
			"-0.006": 5.04839331437,
			"-0.005": 10.2190031263,
			"-0.004": 19.5460551929,
			"-0.003": 14.7336076248,
			"-0.002": 15.9408184217,
			"-0.001": 15.5506941887,
			"0.0": 18.9815412813,
			"0.001": 11.7751716765,
			"0.002": 8.56413942361,
			"0.003": 10.7366697611,
			"0.004": 10.4507076192,
			"0.005": 2.91211178987,
			"0.006": 2.12615086419,
			"0.007": 1.29982289294,
			"0.008": 1.59017295859,
			"0.009": 1.58837157299,
			"0.01": 1.05157116079,
			"0.011": 0.836727115515,
			"0.012": 0.875186019813,
			"0.013": 0.75265384374,
			"0.014": 1.14310002412,
			"0.015": 0.870417973733,
			"0.016": 0.574385297184,
			"0.017": 0.462928922536,
			"0.018": 0.0,
			"0.019": 0.0,
			"0.02": 0.0,
			"0.021": 0.0,
			"0.022": 0.0,
			"0.023": 0.0,
			"0.024": 0.0,
			"0.025": 0.0
		}
	}
}
