{
	 "smiles": "ClS(=O)(=O)C1=CC2=C(COC2=O)C=C1", 
	 "Tm": 378.15, 
	 "num_atms": 19, 
	 "gaussian": { 
		 "optdone": 1, 
		 "sigma_profile": "yes", 
		 "theory": "DFT", 
		 "functional": "B3LYP", 
		 "basiset": "6-31G**", 
		 "properties": { 
			 "R2extent": 4536.4799, 
			 "electric_dipole_moment_norm": 6.23590619798, 
			 "electric_quadrupole_moment_norm": 27.0585287824, 
			 "total_energy": -1467.07387579, 
			 "HOMO_LUMO_gap": 0.19282, 
			 "cosmo_polarized_energy": -16.82, 
			 "cosmo_cavitation_energy": 27.69, 
			 "cosmo_dispersion_energy": -20.91, 
			 "cosmo_repulsion_energy": 1.6, 
			 "cosmo_total_nonelectrostatic_energy": 8.39, 
			 "SMD_solvation_energy": 4.41 
		},
		"coords": [
			{
				"x": 2.8123365856,
				"y": -3.3904783865,
				"z": 0.0731723431,
				"element": "Cl" 
			},
			{
				"x": 2.7544014079,
				"y": -1.2703601015,
				"z": 0.2626457156,
				"element": "S" 
			},
			{
				"x": 2.4643509253,
				"y": -0.9889732525,
				"z": 1.6615857331,
				"element": "O" 
			},
			{
				"x": 3.9460907417,
				"y": -0.7677963487,
				"z": -0.4088570358,
				"element": "O" 
			},
			{
				"x": 1.3151724069,
				"y": -0.8755833818,
				"z": -0.7275495899,
				"element": "C" 
			},
			{
				"x": 0.0727270233,
				"y": -0.8000342717,
				"z": -0.1006579036,
				"element": "C" 
			},
			{
				"x": -1.0029401199,
				"y": -0.4725462296,
				"z": -0.9193991838,
				"element": "C" 
			},
			{
				"x": -0.8543135946,
				"y": -0.232203408,
				"z": -2.2817818378,
				"element": "C" 
			},
			{
				"x": -2.2164758525,
				"y": 0.0912222452,
				"z": -2.8372270997,
				"element": "C" 
			},
			{
				"x": -3.1084044172,
				"y": 0.0164103469,
				"z": -1.7127864683,
				"element": "O" 
			},
			{
				"x": -2.4352189154,
				"y": -0.3117767247,
				"z": -0.558081184,
				"element": "C" 
			},
			{
				"x": -2.9765218318,
				"y": -0.4293671032,
				"z": 0.5090384415,
				"element": "O" 
			},
			{
				"x": 0.3964722277,
				"y": -0.3076593658,
				"z": -2.8924283518,
				"element": "C" 
			},
			{
				"x": 1.4954835821,
				"y": -0.6351181819,
				"z": -2.0976352392,
				"element": "C" 
			},
			{
				"x": -0.0499058899,
				"y": -0.9774475857,
				"z": 0.9621988349,
				"element": "H" 
			},
			{
				"x": -2.2730659738,
				"y": 1.0988449878,
				"z": -3.2647942008,
				"element": "H" 
			},
			{
				"x": -2.5470702335,
				"y": -0.6265404122,
				"z": -3.5967471663,
				"element": "H" 
			},
			{
				"x": 0.5282658884,
				"y": -0.11568776,
				"z": -3.9528096156,
				"element": "H" 
			},
			{
				"x": 2.49081604,
				"y": -0.6963050661,
				"z": -2.5235861914,
				"element": "H" 
			}
		],
		 "valence_orbital": [ 
			{
				"type": "occ",
				"energy": -0.32285,
				"method": "rhf"
			},
			{
				"type": "occ",
				"energy": -0.32268,
				"method": "rhf"
			},
			{
				"type": "occ",
				"energy": -0.30797,
				"method": "rhf"
			},
			{
				"type": "occ",
				"energy": -0.30112,
				"method": "rhf"
			},
			{
				"type": "occ",
				"energy": -0.29386,
				"method": "rhf"
			},
			{
				"type": "unocc",
				"energy": -0.10104,
				"method": "rhf"
			},
			{
				"type": "unocc",
				"energy": -0.08103,
				"method": "rhf"
			},
			{
				"type": "unocc",
				"energy": -0.06078,
				"method": "rhf"
			},
			{
				"type": "unocc",
				"energy": 0.01326,
				"method": "rhf"
			},
			{
				"type": "unocc",
				"energy": 0.04858,
				"method": "rhf"
			}
		],
		"cosmo_sigma_profile": { 
			"-0.025": 0.0,
			"-0.024": 0.0,
			"-0.023": 0.0,
			"-0.022": 0.0,
			"-0.021": 0.0,
			"-0.02": 0.0,
			"-0.019": 0.0,
			"-0.018": 0.0,
			"-0.017": 0.0,
			"-0.016": 0.0,
			"-0.015": 0.0,
			"-0.014": 0.0,
			"-0.013": 0.0,
			"-0.012": 0.0,
			"-0.011": 0.0,
			"-0.01": 0.263170483872,
			"-0.009": 8.70578503894,
			"-0.008": 14.9663151722,
			"-0.007": 12.1146840276,
			"-0.006": 11.9374861265,
			"-0.005": 9.30594484438,
			"-0.004": 9.69221370925,
			"-0.003": 13.2170627097,
			"-0.002": 19.4689717658,
			"-0.001": 17.3731730255,
			"0.0": 11.6631162457,
			"0.001": 9.0275942186,
			"0.002": 11.9391895771,
			"0.003": 16.5291421642,
			"0.004": 8.39927084739,
			"0.005": 4.4740471052,
			"0.006": 5.03741454566,
			"0.007": 10.4607495194,
			"0.008": 12.3088991317,
			"0.009": 7.24783848007,
			"0.01": 3.58151339601,
			"0.011": 6.00227744231,
			"0.012": 2.24576605712,
			"0.013": 0.102820628783,
			"0.014": 0.0,
			"0.015": 0.0,
			"0.016": 0.0,
			"0.017": 0.0,
			"0.018": 0.0,
			"0.019": 0.0,
			"0.02": 0.0,
			"0.021": 0.0,
			"0.022": 0.0,
			"0.023": 0.0,
			"0.024": 0.0,
			"0.025": 0.0
		}
	}
}
