{
	 "smiles": "CC(=N/O)C1=CC=CC=C1", 
	 "Tm": 333.15, 
	 "num_atms": 19, 
	 "gaussian": { 
		 "optdone": 1, 
		 "sigma_profile": "yes", 
		 "theory": "DFT", 
		 "functional": "B3LYP", 
		 "basiset": "6-31G**", 
		 "properties": { 
			 "R2extent": 1847.8934, 
			 "electric_dipole_moment_norm": 0.288304370414, 
			 "electric_quadrupole_moment_norm": 6.40863317955, 
			 "total_energy": -440.198361507, 
			 "HOMO_LUMO_gap": 0.18744, 
			 "cosmo_polarized_energy": -7.68, 
			 "cosmo_cavitation_energy": 22.66, 
			 "cosmo_dispersion_energy": -16.95, 
			 "cosmo_repulsion_energy": 1.38, 
			 "cosmo_total_nonelectrostatic_energy": 7.09, 
			 "SMD_solvation_energy": 4.28 
		},
		"coords": [
			{
				"x": -0.3827028614,
				"y": 0.3892255942,
				"z": -2.9819145258,
				"element": "C" 
			},
			{
				"x": 0.1728524095,
				"y": 0.3466044223,
				"z": -1.5810353842,
				"element": "C" 
			},
			{
				"x": 1.1148307772,
				"y": 1.1153394365,
				"z": -1.1544431569,
				"element": "N" 
			},
			{
				"x": 1.5819139522,
				"y": 2.0082408011,
				"z": -2.1289868022,
				"element": "O" 
			},
			{
				"x": -0.3707080672,
				"y": -0.6275630071,
				"z": -0.596782218,
				"element": "C" 
			},
			{
				"x": 0.1326087933,
				"y": -0.6869370489,
				"z": 0.7171023168,
				"element": "C" 
			},
			{
				"x": -0.3781870484,
				"y": -1.5987001528,
				"z": 1.6339261935,
				"element": "C" 
			},
			{
				"x": -1.4042169198,
				"y": -2.4752767589,
				"z": 1.2651815153,
				"element": "C" 
			},
			{
				"x": -1.9117097764,
				"y": -2.4273414374,
				"z": -0.031800956,
				"element": "C" 
			},
			{
				"x": -1.4003281407,
				"y": -1.5125097865,
				"z": -0.9544495586,
				"element": "C" 
			},
			{
				"x": -1.4555197575,
				"y": 0.6095436029,
				"z": -2.9635383158,
				"element": "H" 
			},
			{
				"x": 0.1210604017,
				"y": 1.1508183395,
				"z": -3.5733745631,
				"element": "H" 
			},
			{
				"x": -0.2570508513,
				"y": -0.5807216322,
				"z": -3.4750208183,
				"element": "H" 
			},
			{
				"x": 2.2648458325,
				"y": 2.4899666311,
				"z": -1.6446031466,
				"element": "H" 
			},
			{
				"x": 0.9275144982,
				"y": -0.0073003533,
				"z": 1.0016181357,
				"element": "H" 
			},
			{
				"x": 0.0246656305,
				"y": -1.6276934345,
				"z": 2.6425552879,
				"element": "H" 
			},
			{
				"x": -1.8016086764,
				"y": -3.1867129919,
				"z": 1.9833674361,
				"element": "H" 
			},
			{
				"x": -2.7084930649,
				"y": -3.1020781157,
				"z": -0.3318045926,
				"element": "H" 
			},
			{
				"x": -1.8115671312,
				"y": -1.4940041084,
				"z": -1.9578968472,
				"element": "H" 
			}
		],
		 "valence_orbital": [ 
			{
				"type": "occ",
				"energy": -0.339,
				"method": "rhf"
			},
			{
				"type": "occ",
				"energy": -0.28159,
				"method": "rhf"
			},
			{
				"type": "occ",
				"energy": -0.26931,
				"method": "rhf"
			},
			{
				"type": "occ",
				"energy": -0.24908,
				"method": "rhf"
			},
			{
				"type": "occ",
				"energy": -0.22109,
				"method": "rhf"
			},
			{
				"type": "unocc",
				"energy": -0.03365,
				"method": "rhf"
			},
			{
				"type": "unocc",
				"energy": 0.00167,
				"method": "rhf"
			},
			{
				"type": "unocc",
				"energy": 0.05164,
				"method": "rhf"
			},
			{
				"type": "unocc",
				"energy": 0.07792,
				"method": "rhf"
			},
			{
				"type": "unocc",
				"energy": 0.09578,
				"method": "rhf"
			}
		],
		"cosmo_sigma_profile": { 
			"-0.025": 0.0,
			"-0.024": 0.0,
			"-0.023": 0.0,
			"-0.022": 0.0,
			"-0.021": 0.0,
			"-0.02": 0.0,
			"-0.019": 0.0,
			"-0.018": 1.59283500045e-05,
			"-0.017": 0.791310663164,
			"-0.016": 1.21383336684,
			"-0.015": 0.767480661923,
			"-0.014": 0.564911662902,
			"-0.013": 0.687284404847,
			"-0.012": 0.585572944889,
			"-0.011": 0.695466954671,
			"-0.01": 1.35847482745,
			"-0.009": 0.610400452474,
			"-0.008": 0.328468550486,
			"-0.007": 0.300209372993,
			"-0.006": 6.35362071649,
			"-0.005": 15.5945997778,
			"-0.004": 15.1178608978,
			"-0.003": 14.8238500616,
			"-0.002": 12.9239073205,
			"-0.001": 13.6286763911,
			"0.0": 11.5452843956,
			"0.001": 8.83466723939,
			"0.002": 10.138094854,
			"0.003": 11.9074499376,
			"0.004": 14.9173858118,
			"0.005": 14.5385261251,
			"0.006": 9.04401086636,
			"0.007": 3.84172429882,
			"0.008": 3.35809964803,
			"0.009": 3.72583031913,
			"0.01": 2.05516440306,
			"0.011": 0.00811898281188,
			"0.012": 0.0,
			"0.013": 0.0,
			"0.014": 0.0,
			"0.015": 0.0,
			"0.016": 0.0,
			"0.017": 0.0,
			"0.018": 0.0,
			"0.019": 0.0,
			"0.02": 0.0,
			"0.021": 0.0,
			"0.022": 0.0,
			"0.023": 0.0,
			"0.024": 0.0,
			"0.025": 0.0
		}
	}
}
