{
	 "smiles": "CCN(CC)CC(=O)OCC(=O)C1(O)CCC2C3CCC4=CC(=O)CCC4(C)C3C(O)CC12C", 
	 "Tm": 435.15, 
	 "num_atms": 75, 
	 "gaussian": { 
		 "optdone": 1, 
		 "sigma_profile": "yes", 
		 "theory": "DFT", 
		 "functional": "B3LYP", 
		 "basiset": "6-31G**", 
		 "properties": { 
			 "R2extent": 24760.8788, 
			 "electric_dipole_moment_norm": 6.98519970581, 
			 "electric_quadrupole_moment_norm": 37.4718933163, 
			 "total_energy": -1559.65196823, 
			 "HOMO_LUMO_gap": 0.16395, 
			 "cosmo_polarized_energy": -24.79, 
			 "cosmo_cavitation_energy": 66.46, 
			 "cosmo_dispersion_energy": -43.85, 
			 "cosmo_repulsion_energy": 3.2, 
			 "cosmo_total_nonelectrostatic_energy": 25.82, 
			 "SMD_solvation_energy": 10.1 
		},
		"coords": [
			{
				"x": 5.5189658904,
				"y": -6.3069565325,
				"z": 0.3166635868,
				"element": "C" 
			},
			{
				"x": 4.4414719558,
				"y": -7.1211609889,
				"z": 1.0531783544,
				"element": "C" 
			},
			{
				"x": 3.2506477306,
				"y": -6.4123284235,
				"z": 1.5319453905,
				"element": "N" 
			},
			{
				"x": 3.506467719,
				"y": -5.3822822777,
				"z": 2.5402110158,
				"element": "C" 
			},
			{
				"x": 2.2856192901,
				"y": -5.0679228614,
				"z": 3.4074099676,
				"element": "C" 
			},
			{
				"x": 2.2173865773,
				"y": -6.1410860739,
				"z": 0.5453660958,
				"element": "C" 
			},
			{
				"x": 2.500717675,
				"y": -5.0044655181,
				"z": -0.4459706972,
				"element": "C" 
			},
			{
				"x": 2.9309447631,
				"y": -5.1260109734,
				"z": -1.5696043394,
				"element": "O" 
			},
			{
				"x": 2.2405092295,
				"y": -3.7826343371,
				"z": 0.1109668155,
				"element": "O" 
			},
			{
				"x": 2.5729467733,
				"y": -2.6414883754,
				"z": -0.7213562346,
				"element": "C" 
			},
			{
				"x": 2.2456083261,
				"y": -1.3858361941,
				"z": 0.0911428834,
				"element": "C" 
			},
			{
				"x": 3.1436253933,
				"y": -0.6378881755,
				"z": 0.4299899196,
				"element": "O" 
			},
			{
				"x": 0.7767086399,
				"y": -1.1140616923,
				"z": 0.4492427221,
				"element": "C" 
			},
			{
				"x": -0.0489816017,
				"y": -2.2022141418,
				"z": 0.0296458435,
				"element": "O" 
			},
			{
				"x": 0.5863159267,
				"y": -0.8394104074,
				"z": 1.9605398261,
				"element": "C" 
			},
			{
				"x": -0.6731115019,
				"y": 0.0580786639,
				"z": 2.0604731241,
				"element": "C" 
			},
			{
				"x": -1.1191445268,
				"y": 0.359442222,
				"z": 0.6031086209,
				"element": "C" 
			},
			{
				"x": -1.847666225,
				"y": 1.7145291605,
				"z": 0.4479814348,
				"element": "C" 
			},
			{
				"x": -2.8344575263,
				"y": 1.740793577,
				"z": -0.7665773088,
				"element": "C" 
			},
			{
				"x": -2.5871913547,
				"y": 2.8543047699,
				"z": -1.7956380204,
				"element": "C" 
			},
			{
				"x": -2.3239317698,
				"y": 4.2187845436,
				"z": -1.1967768742,
				"element": "C" 
			},
			{
				"x": -2.5883209127,
				"y": 5.3380825952,
				"z": -1.9029864093,
				"element": "C" 
			},
			{
				"x": -2.2998760047,
				"y": 6.7032226269,
				"z": -1.4308443167,
				"element": "C" 
			},
			{
				"x": -2.5719749113,
				"y": 7.6855113327,
				"z": -2.11010679,
				"element": "O" 
			},
			{
				"x": -1.6641183161,
				"y": 6.8322830445,
				"z": -0.0521192401,
				"element": "C" 
			},
			{
				"x": -0.9058159228,
				"y": 5.5680351356,
				"z": 0.3756685143,
				"element": "C" 
			},
			{
				"x": -1.7400336435,
				"y": 4.2691140968,
				"z": 0.2140383691,
				"element": "C" 
			},
			{
				"x": -2.9215679544,
				"y": 4.3333700643,
				"z": 1.2290924885,
				"element": "C" 
			},
			{
				"x": -0.9062729079,
				"y": 2.9631386198,
				"z": 0.5062295938,
				"element": "C" 
			},
			{
				"x": 0.3749407903,
				"y": 2.7581232731,
				"z": -0.3364449921,
				"element": "C" 
			},
			{
				"x": 1.3100339676,
				"y": 3.7851439205,
				"z": 0.0165281781,
				"element": "O" 
			},
			{
				"x": 1.0593119739,
				"y": 1.4082338236,
				"z": -0.0513927338,
				"element": "C" 
			},
			{
				"x": 0.169202401,
				"y": 0.1661001181,
				"z": -0.2483913676,
				"element": "C" 
			},
			{
				"x": -0.0826949553,
				"y": -0.090645478,
				"z": -1.7435825873,
				"element": "C" 
			},
			{
				"x": 6.3727172307,
				"y": -6.9527687863,
				"z": 0.0835562692,
				"element": "H" 
			},
			{
				"x": 5.1453721448,
				"y": -5.8944813093,
				"z": -0.6233781385,
				"element": "H" 
			},
			{
				"x": 5.8916213491,
				"y": -5.4826896708,
				"z": 0.9340422573,
				"element": "H" 
			},
			{
				"x": 4.8975415414,
				"y": -7.5970561509,
				"z": 1.9316205255,
				"element": "H" 
			},
			{
				"x": 4.0967419058,
				"y": -7.9357771353,
				"z": 0.4049576077,
				"element": "H" 
			},
			{
				"x": 4.3004388591,
				"y": -5.777197714,
				"z": 3.1849658031,
				"element": "H" 
			},
			{
				"x": 3.8946775673,
				"y": -4.4431758445,
				"z": 2.110960426,
				"element": "H" 
			},
			{
				"x": 1.499348656,
				"y": -4.558741396,
				"z": 2.8414622767,
				"element": "H" 
			},
			{
				"x": 2.5739723354,
				"y": -4.4032431632,
				"z": 4.2278034853,
				"element": "H" 
			},
			{
				"x": 1.8663577254,
				"y": -5.9842988468,
				"z": 3.8339843373,
				"element": "H" 
			},
			{
				"x": 2.0672974852,
				"y": -7.0402198229,
				"z": -0.0583420801,
				"element": "H" 
			},
			{
				"x": 1.2780721326,
				"y": -5.9165764676,
				"z": 1.0614464513,
				"element": "H" 
			},
			{
				"x": 3.6395784116,
				"y": -2.6496910153,
				"z": -0.9499265327,
				"element": "H" 
			},
			{
				"x": 1.9933623199,
				"y": -2.6884547173,
				"z": -1.6476809298,
				"element": "H" 
			},
			{
				"x": 0.2842090424,
				"y": -3.0043123169,
				"z": 0.4549421106,
				"element": "H" 
			},
			{
				"x": 1.4733915025,
				"y": -0.3440771194,
				"z": 2.362621199,
				"element": "H" 
			},
			{
				"x": 0.4760058823,
				"y": -1.7880872067,
				"z": 2.4961102394,
				"element": "H" 
			},
			{
				"x": -0.438731337,
				"y": 0.9807413153,
				"z": 2.6008617706,
				"element": "H" 
			},
			{
				"x": -1.48089988,
				"y": -0.4297287162,
				"z": 2.6136647761,
				"element": "H" 
			},
			{
				"x": -1.8224915848,
				"y": -0.4269725662,
				"z": 0.3101506697,
				"element": "H" 
			},
			{
				"x": -2.4740048321,
				"y": 1.785971004,
				"z": 1.3425988193,
				"element": "H" 
			},
			{
				"x": -2.8144503817,
				"y": 0.7783188517,
				"z": -1.2867942613,
				"element": "H" 
			},
			{
				"x": -3.8572143125,
				"y": 1.8453471129,
				"z": -0.3865737604,
				"element": "H" 
			},
			{
				"x": -3.4262997781,
				"y": 2.9114378289,
				"z": -2.4976831589,
				"element": "H" 
			},
			{
				"x": -1.714995206,
				"y": 2.5901210109,
				"z": -2.4102492558,
				"element": "H" 
			},
			{
				"x": -3.0336836824,
				"y": 5.2778483186,
				"z": -2.8942779222,
				"element": "H" 
			},
			{
				"x": -1.0005872944,
				"y": 7.7024157917,
				"z": -0.071355604,
				"element": "H" 
			},
			{
				"x": -2.4684719908,
				"y": 7.08570725,
				"z": 0.6513487421,
				"element": "H" 
			},
			{
				"x": -0.5737497314,
				"y": 5.657444096,
				"z": 1.4170917292,
				"element": "H" 
			},
			{
				"x": 0.0000305437,
				"y": 5.4824001952,
				"z": -0.2230692301,
				"element": "H" 
			},
			{
				"x": -2.5403653914,
				"y": 4.260715408,
				"z": 2.2543783363,
				"element": "H" 
			},
			{
				"x": -3.6581865173,
				"y": 3.5412594951,
				"z": 1.0837955623,
				"element": "H" 
			},
			{
				"x": -3.458573169,
				"y": 5.2791349557,
				"z": 1.1352444526,
				"element": "H" 
			},
			{
				"x": -0.5446144131,
				"y": 3.0596533923,
				"z": 1.5393164709,
				"element": "H" 
			},
			{
				"x": 0.1380843674,
				"y": 2.8385828739,
				"z": -1.4072593833,
				"element": "H" 
			},
			{
				"x": 2.139150677,
				"y": 3.5942283737,
				"z": -0.4419996262,
				"element": "H" 
			},
			{
				"x": 1.4328984752,
				"y": 1.4643566597,
				"z": 0.9748053395,
				"element": "H" 
			},
			{
				"x": 1.9505965003,
				"y": 1.3371239157,
				"z": -0.6871466265,
				"element": "H" 
			},
			{
				"x": 0.8622432081,
				"y": -0.2672130047,
				"z": -2.2721471683,
				"element": "H" 
			},
			{
				"x": -0.72107734,
				"y": -0.9628378223,
				"z": -1.8923039043,
				"element": "H" 
			},
			{
				"x": -0.5557780091,
				"y": 0.7682938065,
				"z": -2.2247729079,
				"element": "H" 
			}
		],
		 "valence_orbital": [ 
			{
				"type": "occ",
				"energy": -0.26639,
				"method": "rhf"
			},
			{
				"type": "occ",
				"energy": -0.25382,
				"method": "rhf"
			},
			{
				"type": "occ",
				"energy": -0.24644,
				"method": "rhf"
			},
			{
				"type": "occ",
				"energy": -0.22269,
				"method": "rhf"
			},
			{
				"type": "occ",
				"energy": -0.21597,
				"method": "rhf"
			},
			{
				"type": "unocc",
				"energy": -0.05202,
				"method": "rhf"
			},
			{
				"type": "unocc",
				"energy": -0.03929,
				"method": "rhf"
			},
			{
				"type": "unocc",
				"energy": -0.01563,
				"method": "rhf"
			},
			{
				"type": "unocc",
				"energy": 0.04568,
				"method": "rhf"
			},
			{
				"type": "unocc",
				"energy": 0.06142,
				"method": "rhf"
			}
		],
		"cosmo_sigma_profile": { 
			"-0.025": 0.0,
			"-0.024": 0.0,
			"-0.023": 0.0,
			"-0.022": 0.0,
			"-0.021": 0.0,
			"-0.02": 0.0,
			"-0.019": 0.0,
			"-0.018": 0.0,
			"-0.017": 0.0,
			"-0.016": 0.0,
			"-0.015": 0.523429193156,
			"-0.014": 0.734620704196,
			"-0.013": 1.26132030126,
			"-0.012": 1.05816929716,
			"-0.011": 1.10971948188,
			"-0.01": 1.7443183402,
			"-0.009": 1.75859440232,
			"-0.008": 3.48971080314,
			"-0.007": 6.01517383602,
			"-0.006": 14.1455545458,
			"-0.005": 21.9925976137,
			"-0.004": 36.3412115095,
			"-0.003": 59.9907138026,
			"-0.002": 73.4988384018,
			"-0.001": 68.3906605677,
			"0.0": 54.2885377052,
			"0.001": 42.4874705774,
			"0.002": 21.1558007641,
			"0.003": 12.5607571897,
			"0.004": 12.2669728656,
			"0.005": 8.31840899038,
			"0.006": 7.016189108,
			"0.007": 8.69267945635,
			"0.008": 8.49331393798,
			"0.009": 7.09496076742,
			"0.01": 8.70000037988,
			"0.011": 12.2271637937,
			"0.012": 6.70558590245,
			"0.013": 5.84907433107,
			"0.014": 4.12594285582,
			"0.015": 1.01047166546,
			"0.016": 0.0,
			"0.017": 0.0,
			"0.018": 0.0,
			"0.019": 0.0,
			"0.02": 0.0,
			"0.021": 0.0,
			"0.022": 0.0,
			"0.023": 0.0,
			"0.024": 0.0,
			"0.025": 0.0
		}
	}
}
