{
	 "smiles": "OC(=O)C1=C2N=CC=C(N2N=C1)C1=CC=CC=C1", 
	 "Tm": 502.15, 
	 "num_atms": 27, 
	 "gaussian": { 
		 "optdone": 1, 
		 "sigma_profile": "yes", 
		 "theory": "DFT", 
		 "functional": "B3LYP", 
		 "basiset": "6-31G**", 
		 "properties": { 
			 "R2extent": 5228.55, 
			 "electric_dipole_moment_norm": 7.49372941465, 
			 "electric_quadrupole_moment_norm": 18.1607516761, 
			 "total_energy": -815.488538411, 
			 "HOMO_LUMO_gap": 0.1552, 
			 "cosmo_polarized_energy": -22.77, 
			 "cosmo_cavitation_energy": 32.31, 
			 "cosmo_dispersion_energy": -23.75, 
			 "cosmo_repulsion_energy": 1.8, 
			 "cosmo_total_nonelectrostatic_energy": 10.36, 
			 "SMD_solvation_energy": 4.66 
		},
		"coords": [
			{
				"x": 0.2010821028,
				"y": -4.1106168221,
				"z": 1.6626600566,
				"element": "O" 
			},
			{
				"x": 1.1117083172,
				"y": -3.1386060372,
				"z": 1.342767073,
				"element": "C" 
			},
			{
				"x": 2.286707114,
				"y": -3.3274757684,
				"z": 1.5396185103,
				"element": "O" 
			},
			{
				"x": 0.5327289254,
				"y": -1.8979709864,
				"z": 0.7911058415,
				"element": "C" 
			},
			{
				"x": 1.2095639702,
				"y": -0.9097315211,
				"z": 0.0536685488,
				"element": "C" 
			},
			{
				"x": 2.4667714214,
				"y": -0.831235835,
				"z": -0.4093425722,
				"element": "N" 
			},
			{
				"x": 2.7638552544,
				"y": 0.2461135559,
				"z": -1.1110456398,
				"element": "C" 
			},
			{
				"x": 1.8490361481,
				"y": 1.2871504323,
				"z": -1.3903879878,
				"element": "C" 
			},
			{
				"x": 0.5471256023,
				"y": 1.2157924074,
				"z": -0.9302632285,
				"element": "C" 
			},
			{
				"x": 0.2490601074,
				"y": 0.0898974024,
				"z": -0.1959068337,
				"element": "N" 
			},
			{
				"x": -0.9627832481,
				"y": -0.2108904762,
				"z": 0.3395792707,
				"element": "N" 
			},
			{
				"x": -0.7763469272,
				"y": -1.3957891624,
				"z": 0.9223529911,
				"element": "C" 
			},
			{
				"x": -0.4653787532,
				"y": 2.2589832751,
				"z": -1.1925414155,
				"element": "C" 
			},
			{
				"x": -0.4421182944,
				"y": 2.9227581547,
				"z": -2.4325449672,
				"element": "C" 
			},
			{
				"x": -1.3374845005,
				"y": 3.954610919,
				"z": -2.7021821956,
				"element": "C" 
			},
			{
				"x": -2.2657622218,
				"y": 4.3449784806,
				"z": -1.7351148987,
				"element": "C" 
			},
			{
				"x": -2.2973101807,
				"y": 3.6913074704,
				"z": -0.5017811373,
				"element": "C" 
			},
			{
				"x": -1.4116295317,
				"y": 2.6509657073,
				"z": -0.2292729563,
				"element": "C" 
			},
			{
				"x": -0.6621071649,
				"y": -3.8955259353,
				"z": 1.2836267412,
				"element": "H" 
			},
			{
				"x": 3.7845054706,
				"y": 0.3168926102,
				"z": -1.4818685435,
				"element": "H" 
			},
			{
				"x": 2.1689619127,
				"y": 2.1606752127,
				"z": -1.943654336,
				"element": "H" 
			},
			{
				"x": -1.610110363,
				"y": -1.8387409936,
				"z": 1.4543960266,
				"element": "H" 
			},
			{
				"x": 0.2626841704,
				"y": 2.6093894843,
				"z": -3.1962648445,
				"element": "H" 
			},
			{
				"x": -1.3142459573,
				"y": 4.4479647177,
				"z": -3.6691511874,
				"element": "H" 
			},
			{
				"x": -2.9646036823,
				"y": 5.1496119911,
				"z": -1.9439970214,
				"element": "H" 
			},
			{
				"x": -3.0175718483,
				"y": 3.9898899303,
				"z": 0.2539374958,
				"element": "H" 
			},
			{
				"x": -1.4518378434,
				"y": 2.1380017864,
				"z": 0.7224072099,
				"element": "H" 
			}
		],
		 "valence_orbital": [ 
			{
				"type": "occ",
				"energy": -0.27722,
				"method": "rhf"
			},
			{
				"type": "occ",
				"energy": -0.27232,
				"method": "rhf"
			},
			{
				"type": "occ",
				"energy": -0.26919,
				"method": "rhf"
			},
			{
				"type": "occ",
				"energy": -0.25947,
				"method": "rhf"
			},
			{
				"type": "occ",
				"energy": -0.2344,
				"method": "rhf"
			},
			{
				"type": "unocc",
				"energy": -0.0792,
				"method": "rhf"
			},
			{
				"type": "unocc",
				"energy": -0.03488,
				"method": "rhf"
			},
			{
				"type": "unocc",
				"energy": -0.02068,
				"method": "rhf"
			},
			{
				"type": "unocc",
				"energy": -0.01223,
				"method": "rhf"
			},
			{
				"type": "unocc",
				"energy": 0.00112,
				"method": "rhf"
			}
		],
		"cosmo_sigma_profile": { 
			"-0.025": 0.0,
			"-0.024": 0.0,
			"-0.023": 0.0,
			"-0.022": 0.0,
			"-0.021": 0.0,
			"-0.02": 0.0,
			"-0.019": 0.215314364484,
			"-0.018": 0.838642061602,
			"-0.017": 1.15275144751,
			"-0.016": 1.32955349945,
			"-0.015": 0.857041305916,
			"-0.014": 0.878126933024,
			"-0.013": 0.819130381055,
			"-0.012": 1.60494604263,
			"-0.011": 1.61936540763,
			"-0.01": 1.47474819003,
			"-0.009": 2.55417607409,
			"-0.008": 7.05740431137,
			"-0.007": 10.4853732998,
			"-0.006": 13.7148435505,
			"-0.005": 17.9769469581,
			"-0.004": 18.6384452602,
			"-0.003": 16.8942056192,
			"-0.002": 17.4011860806,
			"-0.001": 17.727454971,
			"0.0": 18.0532027728,
			"0.001": 15.2680389766,
			"0.002": 11.755846026,
			"0.003": 15.1435066568,
			"0.004": 14.999403886,
			"0.005": 5.91841609194,
			"0.006": 4.57940470338,
			"0.007": 4.61098405702,
			"0.008": 4.30798463474,
			"0.009": 4.730780401,
			"0.01": 5.45811265651,
			"0.011": 7.36952147573,
			"0.012": 6.9101272551,
			"0.013": 4.02719049006,
			"0.014": 2.22135901277,
			"0.015": 1.74621572996,
			"0.016": 0.74037778048,
			"0.017": 0.0,
			"0.018": 0.0,
			"0.019": 0.0,
			"0.02": 0.0,
			"0.021": 0.0,
			"0.022": 0.0,
			"0.023": 0.0,
			"0.024": 0.0,
			"0.025": 0.0
		}
	}
}
