{
	 "smiles": "O=C1CCS(=O)CC1", 
	 "Tm": 336.15, 
	 "num_atms": 16, 
	 "gaussian": { 
		 "optdone": 1, 
		 "sigma_profile": "yes", 
		 "theory": "DFT", 
		 "functional": "B3LYP", 
		 "basiset": "6-31G**", 
		 "properties": { 
			 "R2extent": 1870.5039, 
			 "electric_dipole_moment_norm": 3.06166377808, 
			 "electric_quadrupole_moment_norm": 18.2444179641, 
			 "total_energy": -743.932930014, 
			 "HOMO_LUMO_gap": 0.20286, 
			 "cosmo_polarized_energy": -16.61, 
			 "cosmo_cavitation_energy": 19.94, 
			 "cosmo_dispersion_energy": -15.63, 
			 "cosmo_repulsion_energy": 1.25, 
			 "cosmo_total_nonelectrostatic_energy": 5.55, 
			 "SMD_solvation_energy": 3.07 
		},
		"coords": [
			{
				"x": 2.1919766207,
				"y": -0.3163654951,
				"z": 2.7155767209,
				"element": "O" 
			},
			{
				"x": 1.8638315919,
				"y": -0.0126188736,
				"z": 1.5872949888,
				"element": "C" 
			},
			{
				"x": 1.7972746958,
				"y": -1.0304098466,
				"z": 0.4558550666,
				"element": "C" 
			},
			{
				"x": 0.7703556891,
				"y": -0.649793621,
				"z": -0.6088603855,
				"element": "C" 
			},
			{
				"x": 1.3281402911,
				"y": 0.8020936024,
				"z": -1.6147333139,
				"element": "S" 
			},
			{
				"x": 2.5727664785,
				"y": 0.3554182497,
				"z": -2.3528461813,
				"element": "O" 
			},
			{
				"x": 1.9413044941,
				"y": 1.8403799525,
				"z": -0.1789327761,
				"element": "C" 
			},
			{
				"x": 1.478222007,
				"y": 1.4198533857,
				"z": 1.218721773,
				"element": "C" 
			},
			{
				"x": 1.6053250119,
				"y": -2.0177826941,
				"z": 0.885922518,
				"element": "H" 
			},
			{
				"x": 2.7853744659,
				"y": -1.0779362143,
				"z": -0.0254068587,
				"element": "H" 
			},
			{
				"x": -0.2127697785,
				"y": -0.4089544996,
				"z": -0.1894701649,
				"element": "H" 
			},
			{
				"x": 0.6377175224,
				"y": -1.4440367692,
				"z": -1.3481034465,
				"element": "H" 
			},
			{
				"x": 1.6517662161,
				"y": 2.8710621148,
				"z": -0.4002294168,
				"element": "H" 
			},
			{
				"x": 3.0274997318,
				"y": 1.7587839783,
				"z": -0.2889290851,
				"element": "H" 
			},
			{
				"x": 0.3850183746,
				"y": 1.5040020433,
				"z": 1.2995051419,
				"element": "H" 
			},
			{
				"x": 1.8947965876,
				"y": 2.0872046868,
				"z": 1.9791354195,
				"element": "H" 
			}
		],
		 "valence_orbital": [ 
			{
				"type": "occ",
				"energy": -0.35572,
				"method": "rhf"
			},
			{
				"type": "occ",
				"energy": -0.34782,
				"method": "rhf"
			},
			{
				"type": "occ",
				"energy": -0.26588,
				"method": "rhf"
			},
			{
				"type": "occ",
				"energy": -0.25631,
				"method": "rhf"
			},
			{
				"type": "occ",
				"energy": -0.23232,
				"method": "rhf"
			},
			{
				"type": "unocc",
				"energy": -0.02946,
				"method": "rhf"
			},
			{
				"type": "unocc",
				"energy": 0.02506,
				"method": "rhf"
			},
			{
				"type": "unocc",
				"energy": 0.02981,
				"method": "rhf"
			},
			{
				"type": "unocc",
				"energy": 0.06765,
				"method": "rhf"
			},
			{
				"type": "unocc",
				"energy": 0.07699,
				"method": "rhf"
			}
		],
		"cosmo_sigma_profile": { 
			"-0.025": 0.0,
			"-0.024": 0.0,
			"-0.023": 0.0,
			"-0.022": 0.0,
			"-0.021": 0.0,
			"-0.02": 0.0,
			"-0.019": 0.0,
			"-0.018": 0.0,
			"-0.017": 0.0,
			"-0.016": 0.0,
			"-0.015": 0.0,
			"-0.014": 0.0,
			"-0.013": 0.0,
			"-0.012": 0.0,
			"-0.011": 0.129893783584,
			"-0.01": 1.61685671117,
			"-0.009": 2.65106407242,
			"-0.008": 5.95875530136,
			"-0.007": 12.568010015,
			"-0.006": 16.0926912751,
			"-0.005": 15.4328045882,
			"-0.004": 17.7406724501,
			"-0.003": 14.6876662233,
			"-0.002": 5.60418983684,
			"-0.001": 4.09768875136,
			"0.0": 4.07260858038,
			"0.001": 3.76177418764,
			"0.002": 4.61479044459,
			"0.003": 5.38169629858,
			"0.004": 2.82140891129,
			"0.005": 3.57038231574,
			"0.006": 2.13511656651,
			"0.007": 2.49285784341,
			"0.008": 1.9879598822,
			"0.009": 2.87292496716,
			"0.01": 3.18928884752,
			"0.011": 5.18048350708,
			"0.012": 5.25834084731,
			"0.013": 2.972435637,
			"0.014": 3.43670573424,
			"0.015": 4.65002657653,
			"0.016": 2.5343944179,
			"0.017": 0.10263663744,
			"0.018": 0.0,
			"0.019": 0.0,
			"0.02": 0.0,
			"0.021": 0.0,
			"0.022": 0.0,
			"0.023": 0.0,
			"0.024": 0.0,
			"0.025": 0.0
		}
	}
}
