{
	 "smiles": "C1=CC2=C(C=C1)C1=C3C(C=CC4=C3C2=CC2=CC=CC=C42)=CC=C1", 
	 "Tm": 507.15, 
	 "num_atms": 38, 
	 "gaussian": { 
		 "optdone": 1, 
		 "sigma_profile": "yes", 
		 "theory": "DFT", 
		 "functional": "B3LYP", 
		 "basiset": "6-31G**", 
		 "properties": { 
			 "R2extent": 8354.8911, 
			 "electric_dipole_moment_norm": 0.060322218129, 
			 "electric_quadrupole_moment_norm": 19.1598725465, 
			 "total_energy": -923.060373184, 
			 "HOMO_LUMO_gap": 0.13031, 
			 "cosmo_polarized_energy": -8.93, 
			 "cosmo_cavitation_energy": 39.34, 
			 "cosmo_dispersion_energy": -29.84, 
			 "cosmo_repulsion_energy": 2.09, 
			 "cosmo_total_nonelectrostatic_energy": 11.59, 
			 "SMD_solvation_energy": 5.06 
		},
		"coords": [
			{
				"x": -1.6501016224,
				"y": 3.0783093674,
				"z": -4.3964914995,
				"element": "C" 
			},
			{
				"x": -1.2726234378,
				"y": 1.9516045631,
				"z": -3.685648227,
				"element": "C" 
			},
			{
				"x": -0.7447483306,
				"y": 2.0354098545,
				"z": -2.3791623605,
				"element": "C" 
			},
			{
				"x": -0.6020712095,
				"y": 3.3180039212,
				"z": -1.7886170515,
				"element": "C" 
			},
			{
				"x": -0.993771244,
				"y": 4.45154079,
				"z": -2.5329354943,
				"element": "C" 
			},
			{
				"x": -1.5090912459,
				"y": 4.3432604517,
				"z": -3.8134873469,
				"element": "C" 
			},
			{
				"x": -0.0560500115,
				"y": 3.4440535563,
				"z": -0.4291993948,
				"element": "C" 
			},
			{
				"x": 0.3262490826,
				"y": 2.2669266496,
				"z": 0.2857000469,
				"element": "C" 
			},
			{
				"x": 0.8562826598,
				"y": 2.3944779351,
				"z": 1.607343347,
				"element": "C" 
			},
			{
				"x": 1.2356317132,
				"y": 1.2153739512,
				"z": 2.3148738205,
				"element": "C" 
			},
			{
				"x": 1.1009580537,
				"y": -0.0186780804,
				"z": 1.753182432,
				"element": "C" 
			},
			{
				"x": 0.57562385,
				"y": -0.1919758701,
				"z": 0.4338809417,
				"element": "C" 
			},
			{
				"x": 0.1870122171,
				"y": 0.9618708731,
				"z": -0.3006384757,
				"element": "C" 
			},
			{
				"x": -0.3472758866,
				"y": 0.8291874671,
				"z": -1.6341446697,
				"element": "C" 
			},
			{
				"x": -0.4691526066,
				"y": -0.4372986074,
				"z": -2.1721665548,
				"element": "C" 
			},
			{
				"x": -0.0932010359,
				"y": -1.6092170058,
				"z": -1.4724341477,
				"element": "C" 
			},
			{
				"x": -0.2390947494,
				"y": -2.8898346043,
				"z": -2.0719009653,
				"element": "C" 
			},
			{
				"x": 0.1237120078,
				"y": -4.0331423884,
				"z": -1.3984880466,
				"element": "C" 
			},
			{
				"x": 0.6498252532,
				"y": -3.9358775488,
				"z": -0.0903423605,
				"element": "C" 
			},
			{
				"x": 0.8016847999,
				"y": -2.7055264563,
				"z": 0.5141961367,
				"element": "C" 
			},
			{
				"x": 0.4379517947,
				"y": -1.5045743776,
				"z": -0.1508610844,
				"element": "C" 
			},
			{
				"x": 0.9971874341,
				"y": 3.6692617593,
				"z": 2.1912958262,
				"element": "C" 
			},
			{
				"x": 0.6239915042,
				"y": 4.799825896,
				"z": 1.4894489139,
				"element": "C" 
			},
			{
				"x": 0.1039838459,
				"y": 4.6849053437,
				"z": 0.1949885603,
				"element": "C" 
			},
			{
				"x": -2.0527146001,
				"y": 2.9762173647,
				"z": -5.3999415372,
				"element": "H" 
			},
			{
				"x": -1.3919071654,
				"y": 0.9845510447,
				"z": -4.1590239645,
				"element": "H" 
			},
			{
				"x": -0.8939684997,
				"y": 5.4406282909,
				"z": -2.1023965051,
				"element": "H" 
			},
			{
				"x": -1.8007117702,
				"y": 5.2363791457,
				"z": -4.3581954924,
				"element": "H" 
			},
			{
				"x": 1.6377718965,
				"y": 1.3199638112,
				"z": 3.319133248,
				"element": "H" 
			},
			{
				"x": 1.4016589232,
				"y": -0.8874153943,
				"z": 2.3262116589,
				"element": "H" 
			},
			{
				"x": -0.8662539525,
				"y": -0.5754255133,
				"z": -3.1711918759,
				"element": "H" 
			},
			{
				"x": -0.6454008357,
				"y": -2.9475742109,
				"z": -3.0785834034,
				"element": "H" 
			},
			{
				"x": 0.0078688802,
				"y": -5.0064310316,
				"z": -1.8662138183,
				"element": "H" 
			},
			{
				"x": 0.9370680452,
				"y": -4.8369645144,
				"z": 0.4437263698,
				"element": "H" 
			},
			{
				"x": 1.2083499374,
				"y": -2.6692030373,
				"z": 1.5181122503,
				"element": "H" 
			},
			{
				"x": 1.401995635,
				"y": 3.7468694575,
				"z": 3.196734564,
				"element": "H" 
			},
			{
				"x": 0.7315978244,
				"y": 5.7835403579,
				"z": 1.9370762015,
				"element": "H" 
			},
			{
				"x": -0.1766671544,
				"y": 5.5946767892,
				"z": -0.3215400414,
				"element": "H" 
			}
		],
		 "valence_orbital": [ 
			{
				"type": "occ",
				"energy": -0.26268,
				"method": "rhf"
			},
			{
				"type": "occ",
				"energy": -0.24833,
				"method": "rhf"
			},
			{
				"type": "occ",
				"energy": -0.22999,
				"method": "rhf"
			},
			{
				"type": "occ",
				"energy": -0.21894,
				"method": "rhf"
			},
			{
				"type": "occ",
				"energy": -0.19136,
				"method": "rhf"
			},
			{
				"type": "unocc",
				"energy": -0.06105,
				"method": "rhf"
			},
			{
				"type": "unocc",
				"energy": -0.03389,
				"method": "rhf"
			},
			{
				"type": "unocc",
				"energy": -0.02852,
				"method": "rhf"
			},
			{
				"type": "unocc",
				"energy": -0.00757,
				"method": "rhf"
			},
			{
				"type": "unocc",
				"energy": 0.00977,
				"method": "rhf"
			}
		],
		"cosmo_sigma_profile": { 
			"-0.025": 0.0,
			"-0.024": 0.0,
			"-0.023": 0.0,
			"-0.022": 0.0,
			"-0.021": 0.0,
			"-0.02": 0.0,
			"-0.019": 0.0,
			"-0.018": 0.0,
			"-0.017": 0.0,
			"-0.016": 0.0,
			"-0.015": 0.0,
			"-0.014": 0.0,
			"-0.013": 0.0,
			"-0.012": 0.0,
			"-0.011": 0.0,
			"-0.01": 0.0,
			"-0.009": 0.841331207912,
			"-0.008": 4.1578317477,
			"-0.007": 6.17842766013,
			"-0.006": 20.1258698759,
			"-0.005": 25.2908475794,
			"-0.004": 24.4891636641,
			"-0.003": 21.309561001,
			"-0.002": 17.0048575009,
			"-0.001": 16.0926403923,
			"0.0": 13.4926659985,
			"0.001": 20.2013396541,
			"0.002": 27.7926325173,
			"0.003": 51.4458165678,
			"0.004": 44.1098332693,
			"0.005": 24.3546544448,
			"0.006": 1.82040970785,
			"0.007": 0.0,
			"0.008": 0.0,
			"0.009": 0.0,
			"0.01": 0.0,
			"0.011": 0.0,
			"0.012": 0.0,
			"0.013": 0.0,
			"0.014": 0.0,
			"0.015": 0.0,
			"0.016": 0.0,
			"0.017": 0.0,
			"0.018": 0.0,
			"0.019": 0.0,
			"0.02": 0.0,
			"0.021": 0.0,
			"0.022": 0.0,
			"0.023": 0.0,
			"0.024": 0.0,
			"0.025": 0.0
		}
	}
}
