{
	 "smiles": "COC1=CC(O)=C(C(=O)C2=CC=CC=C2)C(O)=C1", 
	 "Tm": 403.15, 
	 "num_atms": 30, 
	 "gaussian": { 
		 "optdone": 1, 
		 "sigma_profile": "yes", 
		 "theory": "DFT", 
		 "functional": "B3LYP", 
		 "basiset": "6-31G**", 
		 "properties": { 
			 "R2extent": 5718.3679, 
			 "electric_dipole_moment_norm": 4.65859926373, 
			 "electric_quadrupole_moment_norm": 24.2377375518, 
			 "total_energy": -841.59115728, 
			 "HOMO_LUMO_gap": 0.16938, 
			 "cosmo_polarized_energy": -22.39, 
			 "cosmo_cavitation_energy": 34.74, 
			 "cosmo_dispersion_energy": -24.81, 
			 "cosmo_repulsion_energy": 1.93, 
			 "cosmo_total_nonelectrostatic_energy": 11.85, 
			 "SMD_solvation_energy": 7.85 
		},
		"coords": [
			{
				"x": 5.445301735,
				"y": -0.3451244069,
				"z": -1.7699394721,
				"element": "C" 
			},
			{
				"x": 4.550564115,
				"y": 0.7565541759,
				"z": -1.787989895,
				"element": "O" 
			},
			{
				"x": 3.4560055243,
				"y": 0.7180942363,
				"z": -0.9786341616,
				"element": "C" 
			},
			{
				"x": 2.6284493757,
				"y": 1.8455375797,
				"z": -1.0336941587,
				"element": "C" 
			},
			{
				"x": 1.4839865885,
				"y": 1.8935974216,
				"z": -0.2407670709,
				"element": "C" 
			},
			{
				"x": 0.6593141848,
				"y": 2.9810003975,
				"z": -0.2440209264,
				"element": "O" 
			},
			{
				"x": 1.1311074845,
				"y": 0.8362004805,
				"z": 0.6179350295,
				"element": "C" 
			},
			{
				"x": -0.0513771465,
				"y": 0.9323402466,
				"z": 1.5531944953,
				"element": "C" 
			},
			{
				"x": 0.1253497248,
				"y": 0.9284732588,
				"z": 2.7623023028,
				"element": "O" 
			},
			{
				"x": -1.4331932483,
				"y": 1.0047395771,
				"z": 0.9801543144,
				"element": "C" 
			},
			{
				"x": -1.6979667718,
				"y": 0.7801795776,
				"z": -0.3777765727,
				"element": "C" 
			},
			{
				"x": -3.0075803253,
				"y": 0.8221049088,
				"z": -0.8554653712,
				"element": "C" 
			},
			{
				"x": -4.0618632544,
				"y": 1.0943194366,
				"z": 0.0186885747,
				"element": "C" 
			},
			{
				"x": -3.8054749989,
				"y": 1.3184257723,
				"z": 1.375358012,
				"element": "C" 
			},
			{
				"x": -2.4997460085,
				"y": 1.269099606,
				"z": 1.85354786,
				"element": "C" 
			},
			{
				"x": 1.9862149626,
				"y": -0.2747308306,
				"z": 0.658944409,
				"element": "C" 
			},
			{
				"x": 1.6318179487,
				"y": -1.301736786,
				"z": 1.4795394285,
				"element": "O" 
			},
			{
				"x": 3.1383490398,
				"y": -0.3513808069,
				"z": -0.1365597452,
				"element": "C" 
			},
			{
				"x": 5.8801345679,
				"y": -0.4962180533,
				"z": -0.773822161,
				"element": "H" 
			},
			{
				"x": 4.9531004528,
				"y": -1.2713917419,
				"z": -2.0929592944,
				"element": "H" 
			},
			{
				"x": 6.240510297,
				"y": -0.0980365309,
				"z": -2.4747309855,
				"element": "H" 
			},
			{
				"x": 2.9032470863,
				"y": 2.6690346566,
				"z": -1.6856022982,
				"element": "H" 
			},
			{
				"x": 1.0078251047,
				"y": 3.6419047742,
				"z": -0.8558978907,
				"element": "H" 
			},
			{
				"x": -0.8785595321,
				"y": 0.561943795,
				"z": -1.0547817292,
				"element": "H" 
			},
			{
				"x": -3.2061433317,
				"y": 0.6414016605,
				"z": -1.9080931874,
				"element": "H" 
			},
			{
				"x": -5.081652395,
				"y": 1.129776241,
				"z": -0.3547688745,
				"element": "H" 
			},
			{
				"x": -4.6256637358,
				"y": 1.5287337551,
				"z": 2.0559693985,
				"element": "H" 
			},
			{
				"x": -2.2747153348,
				"y": 1.4304417742,
				"z": 2.9025443906,
				"element": "H" 
			},
			{
				"x": 2.303111326,
				"y": -1.9938666796,
				"z": 1.43168838,
				"element": "H" 
			},
			{
				"x": 3.7616465646,
				"y": -1.2371174958,
				"z": -0.0877628007,
				"element": "H" 
			}
		],
		 "valence_orbital": [ 
			{
				"type": "occ",
				"energy": -0.24748,
				"method": "rhf"
			},
			{
				"type": "occ",
				"energy": -0.24495,
				"method": "rhf"
			},
			{
				"type": "occ",
				"energy": -0.23864,
				"method": "rhf"
			},
			{
				"type": "occ",
				"energy": -0.22319,
				"method": "rhf"
			},
			{
				"type": "occ",
				"energy": -0.21483,
				"method": "rhf"
			},
			{
				"type": "unocc",
				"energy": -0.04545,
				"method": "rhf"
			},
			{
				"type": "unocc",
				"energy": 0.00333,
				"method": "rhf"
			},
			{
				"type": "unocc",
				"energy": 0.00818,
				"method": "rhf"
			},
			{
				"type": "unocc",
				"energy": 0.01553,
				"method": "rhf"
			},
			{
				"type": "unocc",
				"energy": 0.05675,
				"method": "rhf"
			}
		],
		"cosmo_sigma_profile": { 
			"-0.025": 0.0,
			"-0.024": 0.0,
			"-0.023": 0.0,
			"-0.022": 0.0,
			"-0.021": 0.0,
			"-0.02": 0.0,
			"-0.019": 0.000271130665081,
			"-0.018": 1.66970054449,
			"-0.017": 2.22357929265,
			"-0.016": 2.38226264617,
			"-0.015": 1.87040282222,
			"-0.014": 2.32268659698,
			"-0.013": 1.43197641295,
			"-0.012": 1.15582585111,
			"-0.011": 2.54304847105,
			"-0.01": 2.70580622275,
			"-0.009": 1.95081147982,
			"-0.008": 1.92507712153,
			"-0.007": 3.96699960225,
			"-0.006": 15.9262420204,
			"-0.005": 20.4234796215,
			"-0.004": 21.4866708709,
			"-0.003": 17.4250124115,
			"-0.002": 13.5823693327,
			"-0.001": 13.3163515748,
			"0.0": 11.3154334822,
			"0.001": 14.0194498129,
			"0.002": 16.8774807274,
			"0.003": 22.4724413076,
			"0.004": 27.7143147111,
			"0.005": 12.917342946,
			"0.006": 6.09379094752,
			"0.007": 5.89598148213,
			"0.008": 5.65997550451,
			"0.009": 7.42397861938,
			"0.01": 5.61125573568,
			"0.011": 4.32887266681,
			"0.012": 5.02393527968,
			"0.013": 2.92754234128,
			"0.014": 0.469757468251,
			"0.015": 0.0,
			"0.016": 0.0,
			"0.017": 0.0,
			"0.018": 0.0,
			"0.019": 0.0,
			"0.02": 0.0,
			"0.021": 0.0,
			"0.022": 0.0,
			"0.023": 0.0,
			"0.024": 0.0,
			"0.025": 0.0
		}
	}
}
