{
	 "smiles": "CC1=CC(C(O)=O)=C(C)N1C1=CC(Cl)=CC=C1", 
	 "Tm": 434.15, 
	 "num_atms": 29, 
	 "gaussian": { 
		 "optdone": 1, 
		 "sigma_profile": "yes", 
		 "theory": "DFT", 
		 "functional": "B3LYP", 
		 "basiset": "6-31G**", 
		 "properties": { 
			 "R2extent": 5822.615, 
			 "electric_dipole_moment_norm": 6.9920712196, 
			 "electric_quadrupole_moment_norm": 28.7368584471, 
			 "total_energy": -1168.01990991, 
			 "HOMO_LUMO_gap": 0.17325, 
			 "cosmo_polarized_energy": -17.96, 
			 "cosmo_cavitation_energy": 35.06, 
			 "cosmo_dispersion_energy": -24.27, 
			 "cosmo_repulsion_energy": 1.9, 
			 "cosmo_total_nonelectrostatic_energy": 12.68, 
			 "SMD_solvation_energy": 6.83 
		},
		"coords": [
			{
				"x": 0.7345320024,
				"y": 1.8573157684,
				"z": -1.4842132232,
				"element": "C" 
			},
			{
				"x": 0.461293139,
				"y": 1.8362252527,
				"z": -0.0143535073,
				"element": "C" 
			},
			{
				"x": 0.4013821985,
				"y": 2.8609516507,
				"z": 0.8919556906,
				"element": "C" 
			},
			{
				"x": 0.0465011492,
				"y": 2.3156242427,
				"z": 2.1645034667,
				"element": "C" 
			},
			{
				"x": -0.069106104,
				"y": 3.1457235813,
				"z": 3.379342083,
				"element": "C" 
			},
			{
				"x": -0.8122348178,
				"y": 2.6357525152,
				"z": 4.4131743973,
				"element": "O" 
			},
			{
				"x": 0.4447850224,
				"y": 4.2340801057,
				"z": 3.5007560332,
				"element": "O" 
			},
			{
				"x": -0.0884165552,
				"y": 0.9386043081,
				"z": 2.0112140882,
				"element": "C" 
			},
			{
				"x": -0.3379116464,
				"y": -0.1542959339,
				"z": 3.0075688533,
				"element": "C" 
			},
			{
				"x": 0.1631835515,
				"y": 0.6563272478,
				"z": 0.6781930997,
				"element": "N" 
			},
			{
				"x": 0.1413677922,
				"y": -0.6492049919,
				"z": 0.0978660209,
				"element": "C" 
			},
			{
				"x": 1.3454576037,
				"y": -1.2576267556,
				"z": -0.2723782663,
				"element": "C" 
			},
			{
				"x": 1.3117527682,
				"y": -2.5272858809,
				"z": -0.8467709641,
				"element": "C" 
			},
			{
				"x": 2.8194053431,
				"y": -3.2929936883,
				"z": -1.3160940268,
				"element": "Cl" 
			},
			{
				"x": 0.1073741087,
				"y": -3.2025350252,
				"z": -1.0467227293,
				"element": "C" 
			},
			{
				"x": -1.0840726757,
				"y": -2.5844585798,
				"z": -0.6652902813,
				"element": "C" 
			},
			{
				"x": -1.0752536503,
				"y": -1.3096939949,
				"z": -0.0991269679,
				"element": "C" 
			},
			{
				"x": -0.0887373634,
				"y": 1.4219380115,
				"z": -2.0630781479,
				"element": "H" 
			},
			{
				"x": 1.6444658123,
				"y": 1.3095208022,
				"z": -1.755014613,
				"element": "H" 
			},
			{
				"x": 0.8617082193,
				"y": 2.892555062,
				"z": -1.8083194652,
				"element": "H" 
			},
			{
				"x": 0.5735591443,
				"y": 3.9083081517,
				"z": 0.691854473,
				"element": "H" 
			},
			{
				"x": -1.3287410737,
				"y": 1.883116334,
				"z": 4.0961858428,
				"element": "H" 
			},
			{
				"x": -1.3713285508,
				"y": -0.5255275804,
				"z": 2.9881669217,
				"element": "H" 
			},
			{
				"x": -0.121856902,
				"y": 0.1996863393,
				"z": 4.0180207742,
				"element": "H" 
			},
			{
				"x": 0.3095379105,
				"y": -1.0162575131,
				"z": 2.8190953838,
				"element": "H" 
			},
			{
				"x": 2.2877666793,
				"y": -0.7490987578,
				"z": -0.1048588619,
				"element": "H" 
			},
			{
				"x": 0.10648067,
				"y": -4.1906761313,
				"z": -1.4926160947,
				"element": "H" 
			},
			{
				"x": -2.0266595884,
				"y": -3.1002087559,
				"z": -0.8201064584,
				"element": "H" 
			},
			{
				"x": -2.0005341869,
				"y": -0.8180657844,
				"z": 0.1821464788,
				"element": "H" 
			}
		],
		 "valence_orbital": [ 
			{
				"type": "occ",
				"energy": -0.28849,
				"method": "rhf"
			},
			{
				"type": "occ",
				"energy": -0.27027,
				"method": "rhf"
			},
			{
				"type": "occ",
				"energy": -0.25975,
				"method": "rhf"
			},
			{
				"type": "occ",
				"energy": -0.24648,
				"method": "rhf"
			},
			{
				"type": "occ",
				"energy": -0.2166,
				"method": "rhf"
			},
			{
				"type": "unocc",
				"energy": -0.04335,
				"method": "rhf"
			},
			{
				"type": "unocc",
				"energy": -0.0381,
				"method": "rhf"
			},
			{
				"type": "unocc",
				"energy": -0.00941,
				"method": "rhf"
			},
			{
				"type": "unocc",
				"energy": 0.01162,
				"method": "rhf"
			},
			{
				"type": "unocc",
				"energy": 0.03503,
				"method": "rhf"
			}
		],
		"cosmo_sigma_profile": { 
			"-0.025": 0.0,
			"-0.024": 0.0,
			"-0.023": 0.0,
			"-0.022": 0.0,
			"-0.021": 0.0,
			"-0.02": 0.0,
			"-0.019": 0.0,
			"-0.018": 0.0,
			"-0.017": 0.204051244284,
			"-0.016": 0.533593462435,
			"-0.015": 0.822155593804,
			"-0.014": 1.07448391549,
			"-0.013": 0.676873961014,
			"-0.012": 0.808954371778,
			"-0.011": 0.999560707858,
			"-0.01": 1.03009713862,
			"-0.009": 1.27880104715,
			"-0.008": 3.53419081982,
			"-0.007": 8.50306056601,
			"-0.006": 12.0580742546,
			"-0.005": 20.5088972782,
			"-0.004": 20.556024409,
			"-0.003": 21.5084243765,
			"-0.002": 23.7510339672,
			"-0.001": 26.1511160678,
			"0.0": 20.2823636813,
			"0.001": 20.9463896032,
			"0.002": 20.1406821175,
			"0.003": 15.6131512272,
			"0.004": 16.3146041615,
			"0.005": 8.8870680385,
			"0.006": 5.23347992981,
			"0.007": 3.87685979798,
			"0.008": 2.8390240387,
			"0.009": 2.84125678803,
			"0.01": 3.41595330495,
			"0.011": 5.10397050682,
			"0.012": 5.68522889786,
			"0.013": 5.22364482044,
			"0.014": 1.36505052955,
			"0.015": 0.0184830819307,
			"0.016": 0.0,
			"0.017": 0.0,
			"0.018": 0.0,
			"0.019": 0.0,
			"0.02": 0.0,
			"0.021": 0.0,
			"0.022": 0.0,
			"0.023": 0.0,
			"0.024": 0.0,
			"0.025": 0.0
		}
	}
}
