{
	 "smiles": "COC1=CC=C(C=C1Cl)C#N", 
	 "Tm": 382.15, 
	 "num_atms": 17, 
	 "gaussian": { 
		 "optdone": 1, 
		 "sigma_profile": "yes", 
		 "theory": "DFT", 
		 "functional": "B3LYP", 
		 "basiset": "6-31G**", 
		 "properties": { 
			 "R2extent": 2805.0003, 
			 "electric_dipole_moment_norm": 4.39138568677, 
			 "electric_quadrupole_moment_norm": 18.6696482586, 
			 "total_energy": -898.597875515, 
			 "HOMO_LUMO_gap": 0.20216, 
			 "cosmo_polarized_energy": -9.75, 
			 "cosmo_cavitation_energy": 24.4, 
			 "cosmo_dispersion_energy": -17.29, 
			 "cosmo_repulsion_energy": 1.39, 
			 "cosmo_total_nonelectrostatic_energy": 8.51, 
			 "SMD_solvation_energy": 6.23 
		},
		"coords": [
			{
				"x": 0.4012464244,
				"y": -2.6663918314,
				"z": -0.4815150999,
				"element": "C" 
			},
			{
				"x": -0.1279672616,
				"y": -1.4573528601,
				"z": 0.0805389597,
				"element": "O" 
			},
			{
				"x": 0.4541668588,
				"y": -0.3021747419,
				"z": -0.3519586917,
				"element": "C" 
			},
			{
				"x": 1.448994307,
				"y": 0.3001027839,
				"z": 0.4273275888,
				"element": "C" 
			},
			{
				"x": 2.0236901882,
				"y": 1.5072502979,
				"z": 0.0484572247,
				"element": "C" 
			},
			{
				"x": 1.6051152024,
				"y": 2.1344607554,
				"z": -1.136637069,
				"element": "C" 
			},
			{
				"x": 0.6046703209,
				"y": 1.5461997118,
				"z": -1.9270317485,
				"element": "C" 
			},
			{
				"x": 0.0382153278,
				"y": 0.338315436,
				"z": -1.5335824526,
				"element": "C" 
			},
			{
				"x": -1.2266338814,
				"y": -0.3718398479,
				"z": -2.5105490121,
				"element": "Cl" 
			},
			{
				"x": 2.1909171264,
				"y": 3.3786668532,
				"z": -1.5415777337,
				"element": "C" 
			},
			{
				"x": 2.6700652096,
				"y": 4.3871505947,
				"z": -1.8678360296,
				"element": "N" 
			},
			{
				"x": 1.4648114118,
				"y": -2.7767943306,
				"z": -0.2371357461,
				"element": "H" 
			},
			{
				"x": 0.2704235751,
				"y": -2.6925171716,
				"z": -1.568359982,
				"element": "H" 
			},
			{
				"x": -0.1637130658,
				"y": -3.4819828353,
				"z": -0.0283202643,
				"element": "H" 
			},
			{
				"x": 1.7482243006,
				"y": -0.1980025383,
				"z": 1.3435706911,
				"element": "H" 
			},
			{
				"x": 2.7915170141,
				"y": 1.9683507149,
				"z": 0.6597335422,
				"element": "H" 
			},
			{
				"x": 0.2703569416,
				"y": 2.0299590095,
				"z": -2.8372241771,
				"element": "H" 
			}
		],
		 "valence_orbital": [ 
			{
				"type": "occ",
				"energy": -0.33476,
				"method": "rhf"
			},
			{
				"type": "occ",
				"energy": -0.32779,
				"method": "rhf"
			},
			{
				"type": "occ",
				"energy": -0.29773,
				"method": "rhf"
			},
			{
				"type": "occ",
				"energy": -0.27832,
				"method": "rhf"
			},
			{
				"type": "occ",
				"energy": -0.26121,
				"method": "rhf"
			},
			{
				"type": "unocc",
				"energy": -0.05905,
				"method": "rhf"
			},
			{
				"type": "unocc",
				"energy": -0.03803,
				"method": "rhf"
			},
			{
				"type": "unocc",
				"energy": 0.00932,
				"method": "rhf"
			},
			{
				"type": "unocc",
				"energy": 0.03354,
				"method": "rhf"
			},
			{
				"type": "unocc",
				"energy": 0.0664,
				"method": "rhf"
			}
		],
		"cosmo_sigma_profile": { 
			"-0.025": 0.0,
			"-0.024": 0.0,
			"-0.023": 0.0,
			"-0.022": 0.0,
			"-0.021": 0.0,
			"-0.02": 0.0,
			"-0.019": 0.0,
			"-0.018": 0.0,
			"-0.017": 0.0,
			"-0.016": 0.0,
			"-0.015": 0.0,
			"-0.014": 0.0,
			"-0.013": 0.0,
			"-0.012": 0.0,
			"-0.011": 0.0,
			"-0.01": 0.205065419307,
			"-0.009": 2.41888139306,
			"-0.008": 5.84080301486,
			"-0.007": 6.35772590153,
			"-0.006": 8.75319197872,
			"-0.005": 12.286674366,
			"-0.004": 15.4057252593,
			"-0.003": 17.7954924918,
			"-0.002": 14.6208942233,
			"-0.001": 15.2111195418,
			"0.0": 22.0176830776,
			"0.001": 15.2671611474,
			"0.002": 9.77922885435,
			"0.003": 9.38779504614,
			"0.004": 8.98800621252,
			"0.005": 5.51794994345,
			"0.006": 3.7130490302,
			"0.007": 4.43412639272,
			"0.008": 5.40142604835,
			"0.009": 4.43571883211,
			"0.01": 4.69453247012,
			"0.011": 3.00323361411,
			"0.012": 2.41425200618,
			"0.013": 1.15558566304,
			"0.014": 0.0,
			"0.015": 0.0,
			"0.016": 0.0,
			"0.017": 0.0,
			"0.018": 0.0,
			"0.019": 0.0,
			"0.02": 0.0,
			"0.021": 0.0,
			"0.022": 0.0,
			"0.023": 0.0,
			"0.024": 0.0,
			"0.025": 0.0
		}
	}
}
