{
	 "smiles": "COC(=O)C(C#N)=C(SCC1=CC=CC=C1)SCC1=CC=CC=C1", 
	 "Tm": 377.15, 
	 "num_atms": 41, 
	 "gaussian": { 
		 "optdone": 1, 
		 "sigma_profile": "yes", 
		 "theory": "DFT", 
		 "functional": "B3LYP", 
		 "basiset": "6-31G**", 
		 "properties": { 
			 "R2extent": 8516.0595, 
			 "electric_dipole_moment_norm": 6.79671016154, 
			 "electric_quadrupole_moment_norm": 17.9220524684, 
			 "total_energy": -1735.7952387, 
			 "HOMO_LUMO_gap": 0.15984, 
			 "cosmo_polarized_energy": -18.9, 
			 "cosmo_cavitation_energy": 48.78, 
			 "cosmo_dispersion_energy": -30.33, 
			 "cosmo_repulsion_energy": 2.26, 
			 "cosmo_total_nonelectrostatic_energy": 20.7, 
			 "SMD_solvation_energy": 9.66 
		},
		"coords": [
			{
				"x": -1.1343931475,
				"y": 1.5016644704,
				"z": 3.7081649277,
				"element": "C" 
			},
			{
				"x": -0.8131306363,
				"y": 1.1952708274,
				"z": 2.3371706645,
				"element": "O" 
			},
			{
				"x": 0.0658120055,
				"y": 2.0377120014,
				"z": 1.7627275177,
				"element": "C" 
			},
			{
				"x": 0.6112721324,
				"y": 2.9528001297,
				"z": 2.334859621,
				"element": "O" 
			},
			{
				"x": 0.3518921341,
				"y": 1.6638776698,
				"z": 0.322989625,
				"element": "C" 
			},
			{
				"x": 1.7401266024,
				"y": 1.4397426597,
				"z": 0.0679303585,
				"element": "C" 
			},
			{
				"x": 2.8862701071,
				"y": 1.286999969,
				"z": -0.066600478,
				"element": "N" 
			},
			{
				"x": -0.5867964267,
				"y": 1.6673308679,
				"z": -0.6688381611,
				"element": "C" 
			},
			{
				"x": -2.1458250597,
				"y": 2.4518077954,
				"z": -0.339266769,
				"element": "S" 
			},
			{
				"x": -3.3628439996,
				"y": 1.5332805809,
				"z": -1.3559233855,
				"element": "C" 
			},
			{
				"x": -3.7110985607,
				"y": 0.1173727506,
				"z": -0.9333651946,
				"element": "C" 
			},
			{
				"x": -4.250516638,
				"y": -0.7452745891,
				"z": -1.8996568276,
				"element": "C" 
			},
			{
				"x": -4.6397889801,
				"y": -2.042246555,
				"z": -1.5631026222,
				"element": "C" 
			},
			{
				"x": -4.4898744314,
				"y": -2.4994912775,
				"z": -0.2526511022,
				"element": "C" 
			},
			{
				"x": -3.9471623161,
				"y": -1.650724376,
				"z": 0.713228868,
				"element": "C" 
			},
			{
				"x": -3.5598766395,
				"y": -0.3511541398,
				"z": 0.3774554128,
				"element": "C" 
			},
			{
				"x": -0.1924438686,
				"y": 1.1736783994,
				"z": -2.3401406268,
				"element": "S" 
			},
			{
				"x": -0.3045627959,
				"y": -0.700703777,
				"z": -2.2659890354,
				"element": "C" 
			},
			{
				"x": 0.7196086866,
				"y": -1.4130517985,
				"z": -1.4320615297,
				"element": "C" 
			},
			{
				"x": 2.0147457518,
				"y": -1.6377086032,
				"z": -1.9199065316,
				"element": "C" 
			},
			{
				"x": 2.956879524,
				"y": -2.3092919966,
				"z": -1.1456223581,
				"element": "C" 
			},
			{
				"x": 2.6166207135,
				"y": -2.7695794867,
				"z": 0.1294584336,
				"element": "C" 
			},
			{
				"x": 1.3296677966,
				"y": -2.5556403735,
				"z": 0.6226841174,
				"element": "C" 
			},
			{
				"x": 0.3857674529,
				"y": -1.8803468736,
				"z": -0.1534581221,
				"element": "C" 
			},
			{
				"x": -1.6202303478,
				"y": 2.4781275426,
				"z": 3.7761912556,
				"element": "H" 
			},
			{
				"x": -1.8120102617,
				"y": 0.7124097243,
				"z": 4.0321098313,
				"element": "H" 
			},
			{
				"x": -0.2292150042,
				"y": 1.510327812,
				"z": 4.3191139154,
				"element": "H" 
			},
			{
				"x": -3.0180577778,
				"y": 1.5538604956,
				"z": -2.3926875815,
				"element": "H" 
			},
			{
				"x": -4.246010963,
				"y": 2.1812487788,
				"z": -1.2962149223,
				"element": "H" 
			},
			{
				"x": -4.3682755873,
				"y": -0.3968194097,
				"z": -2.9231163782,
				"element": "H" 
			},
			{
				"x": -5.0545636439,
				"y": -2.6952841,
				"z": -2.325605669,
				"element": "H" 
			},
			{
				"x": -4.7872807304,
				"y": -3.5100434242,
				"z": 0.0113611492,
				"element": "H" 
			},
			{
				"x": -3.8214509482,
				"y": -2.0000249311,
				"z": 1.734241841,
				"element": "H" 
			},
			{
				"x": -3.1194929701,
				"y": 0.2944110105,
				"z": 1.1303537892,
				"element": "H" 
			},
			{
				"x": -1.3210096983,
				"y": -0.9501121424,
				"z": -1.9591129852,
				"element": "H" 
			},
			{
				"x": -0.1997366261,
				"y": -0.9499851179,
				"z": -3.3265109086,
				"element": "H" 
			},
			{
				"x": 2.2867474057,
				"y": -1.2718067003,
				"z": -2.9066916861,
				"element": "H" 
			},
			{
				"x": 3.9583457567,
				"y": -2.4706796441,
				"z": -1.5331401781,
				"element": "H" 
			},
			{
				"x": 3.3529866137,
				"y": -3.2911157839,
				"z": 0.7339165592,
				"element": "H" 
			},
			{
				"x": 1.0582166461,
				"y": -2.9135867513,
				"z": 1.6117696709,
				"element": "H" 
			},
			{
				"x": -0.6173112702,
				"y": -1.7170516341,
				"z": 0.231435495,
				"element": "H" 
			}
		],
		 "valence_orbital": [ 
			{
				"type": "occ",
				"energy": -0.26176,
				"method": "rhf"
			},
			{
				"type": "occ",
				"energy": -0.25275,
				"method": "rhf"
			},
			{
				"type": "occ",
				"energy": -0.24923,
				"method": "rhf"
			},
			{
				"type": "occ",
				"energy": -0.24116,
				"method": "rhf"
			},
			{
				"type": "occ",
				"energy": -0.23553,
				"method": "rhf"
			},
			{
				"type": "unocc",
				"energy": -0.07569,
				"method": "rhf"
			},
			{
				"type": "unocc",
				"energy": -0.0207,
				"method": "rhf"
			},
			{
				"type": "unocc",
				"energy": -0.01847,
				"method": "rhf"
			},
			{
				"type": "unocc",
				"energy": -0.01672,
				"method": "rhf"
			},
			{
				"type": "unocc",
				"energy": -0.01392,
				"method": "rhf"
			}
		],
		"cosmo_sigma_profile": { 
			"-0.025": 0.0,
			"-0.024": 0.0,
			"-0.023": 0.0,
			"-0.022": 0.0,
			"-0.021": 0.0,
			"-0.02": 0.0,
			"-0.019": 0.0,
			"-0.018": 0.0,
			"-0.017": 0.0,
			"-0.016": 0.0,
			"-0.015": 0.0,
			"-0.014": 0.0,
			"-0.013": 0.0,
			"-0.012": 0.0,
			"-0.011": 0.0,
			"-0.01": 0.0,
			"-0.009": 0.343287606937,
			"-0.008": 4.31933378247,
			"-0.007": 8.2569966557,
			"-0.006": 23.7299936924,
			"-0.005": 32.4012049999,
			"-0.004": 35.8829218005,
			"-0.003": 35.6095856717,
			"-0.002": 30.7934669791,
			"-0.001": 28.9187099433,
			"0.0": 26.7276270246,
			"0.001": 24.6031081583,
			"0.002": 26.2308362944,
			"0.003": 24.7616890357,
			"0.004": 22.9917540358,
			"0.005": 20.9336349658,
			"0.006": 11.2239405714,
			"0.007": 8.1198703823,
			"0.008": 7.24813475556,
			"0.009": 5.47217263516,
			"0.01": 6.52248394379,
			"0.011": 5.71327442641,
			"0.012": 2.12727725749,
			"0.013": 0.783362146276,
			"0.014": 0.0,
			"0.015": 0.0,
			"0.016": 0.0,
			"0.017": 0.0,
			"0.018": 0.0,
			"0.019": 0.0,
			"0.02": 0.0,
			"0.021": 0.0,
			"0.022": 0.0,
			"0.023": 0.0,
			"0.024": 0.0,
			"0.025": 0.0
		}
	}
}
