{
	 "smiles": "C1CCOC1", 
	 "Tm": 165.15, 
	 "num_atms": 13, 
	 "gaussian": { 
		 "optdone": 1, 
		 "sigma_profile": "yes", 
		 "theory": "DFT", 
		 "functional": "B3LYP", 
		 "basiset": "6-31G**", 
		 "properties": { 
			 "R2extent": 791.5871, 
			 "electric_dipole_moment_norm": 1.77546317619, 
			 "electric_quadrupole_moment_norm": 3.60549715296, 
			 "total_energy": -232.456281308, 
			 "HOMO_LUMO_gap": 0.32496, 
			 "cosmo_polarized_energy": -3.95, 
			 "cosmo_cavitation_energy": 14.7, 
			 "cosmo_dispersion_energy": -11.73, 
			 "cosmo_repulsion_energy": 1.05, 
			 "cosmo_total_nonelectrostatic_energy": 4.03, 
			 "SMD_solvation_energy": 2.43 
		},
		"coords": [
			{
				"x": 1.4906840241,
				"y": 0.9038735961,
				"z": 0.5240509735,
				"element": "C" 
			},
			{
				"x": 1.3188814761,
				"y": 1.9125348657,
				"z": 1.6700267482,
				"element": "C" 
			},
			{
				"x": 0.0982690073,
				"y": 1.3400333306,
				"z": 2.4010932438,
				"element": "C" 
			},
			{
				"x": -0.7053620473,
				"y": 0.6981356721,
				"z": 1.4056449169,
				"element": "O" 
			},
			{
				"x": 0.0316846446,
				"y": 0.5747758263,
				"z": 0.1848612682,
				"element": "C" 
			},
			{
				"x": 2.0122905182,
				"y": 0.0085264045,
				"z": 0.8811346558,
				"element": "H" 
			},
			{
				"x": 2.0462324945,
				"y": 1.3014852837,
				"z": -0.329976257,
				"element": "H" 
			},
			{
				"x": 1.09359568,
				"y": 2.9075843005,
				"z": 1.2695898043,
				"element": "H" 
			},
			{
				"x": 2.1985978005,
				"y": 1.9978969215,
				"z": 2.3141557274,
				"element": "H" 
			},
			{
				"x": 0.403628938,
				"y": 0.6026710653,
				"z": 3.1596398753,
				"element": "H" 
			},
			{
				"x": -0.5035909696,
				"y": 2.1077775941,
				"z": 2.9011209247,
				"element": "H" 
			},
			{
				"x": -0.3682957703,
				"y": 1.2803632058,
				"z": -0.5597884232,
				"element": "H" 
			},
			{
				"x": -0.1009157962,
				"y": -0.4400580662,
				"z": -0.2078534578,
				"element": "H" 
			}
		],
		 "valence_orbital": [ 
			{
				"type": "occ",
				"energy": -0.35242,
				"method": "rhf"
			},
			{
				"type": "occ",
				"energy": -0.34823,
				"method": "rhf"
			},
			{
				"type": "occ",
				"energy": -0.33234,
				"method": "rhf"
			},
			{
				"type": "occ",
				"energy": -0.30642,
				"method": "rhf"
			},
			{
				"type": "occ",
				"energy": -0.23726,
				"method": "rhf"
			},
			{
				"type": "unocc",
				"energy": 0.0877,
				"method": "rhf"
			},
			{
				"type": "unocc",
				"energy": 0.11294,
				"method": "rhf"
			},
			{
				"type": "unocc",
				"energy": 0.13627,
				"method": "rhf"
			},
			{
				"type": "unocc",
				"energy": 0.14201,
				"method": "rhf"
			},
			{
				"type": "unocc",
				"energy": 0.16034,
				"method": "rhf"
			}
		],
		"cosmo_sigma_profile": { 
			"-0.025": 0.0,
			"-0.024": 0.0,
			"-0.023": 0.0,
			"-0.022": 0.0,
			"-0.021": 0.0,
			"-0.02": 0.0,
			"-0.019": 0.0,
			"-0.018": 0.0,
			"-0.017": 0.0,
			"-0.016": 0.0,
			"-0.015": 0.0,
			"-0.014": 0.0,
			"-0.013": 0.0,
			"-0.012": 0.0,
			"-0.011": 0.0,
			"-0.01": 0.0,
			"-0.009": 0.0,
			"-0.008": 0.0,
			"-0.007": 0.0,
			"-0.006": 0.0,
			"-0.005": 0.0611560918411,
			"-0.004": 7.4284741427,
			"-0.003": 21.4317954867,
			"-0.002": 27.8319182689,
			"-0.001": 19.1134528996,
			"0.0": 12.4973452995,
			"0.001": 5.50891994039,
			"0.002": 2.34763020165,
			"0.003": 1.22278506326,
			"0.004": 1.03793342979,
			"0.005": 2.50525146669,
			"0.006": 1.35508638169,
			"0.007": 0.958702938949,
			"0.008": 1.15494448564,
			"0.009": 1.78341581724,
			"0.01": 1.01299645943,
			"0.011": 1.17342326314,
			"0.012": 1.16551438589,
			"0.013": 1.68063018908,
			"0.014": 1.95241939014,
			"0.015": 0.818437404794,
			"0.016": 0.0,
			"0.017": 0.0,
			"0.018": 0.0,
			"0.019": 0.0,
			"0.02": 0.0,
			"0.021": 0.0,
			"0.022": 0.0,
			"0.023": 0.0,
			"0.024": 0.0,
			"0.025": 0.0
		}
	}
}
