{
	 "smiles": "ClCC(=O)N1CCN(CC1)S(=O)(=O)C1=C(Cl)C=CC=C1", 
	 "Tm": 489.15, 
	 "num_atms": 34, 
	 "gaussian": { 
		 "optdone": 1, 
		 "sigma_profile": "yes", 
		 "theory": "DFT", 
		 "functional": "B3LYP", 
		 "basiset": "6-31G**", 
		 "properties": { 
			 "R2extent": 10278.095, 
			 "electric_dipole_moment_norm": 5.59555621007, 
			 "electric_quadrupole_moment_norm": 26.2453802904, 
			 "total_energy": -2119.37896918, 
			 "HOMO_LUMO_gap": 0.20968, 
			 "cosmo_polarized_energy": -23.23, 
			 "cosmo_cavitation_energy": 41.25, 
			 "cosmo_dispersion_energy": -29.47, 
			 "cosmo_repulsion_energy": 2.21, 
			 "cosmo_total_nonelectrostatic_energy": 13.99, 
			 "SMD_solvation_energy": 5.43 
		},
		"coords": [
			{
				"x": 1.8837138432,
				"y": 5.2620123425,
				"z": 1.048083198,
				"element": "Cl" 
			},
			{
				"x": 1.1656946339,
				"y": 4.2368654118,
				"z": 2.3641733183,
				"element": "C" 
			},
			{
				"x": 1.6570775563,
				"y": 2.7884842705,
				"z": 2.3413667418,
				"element": "C" 
			},
			{
				"x": 2.3062986962,
				"y": 2.3632311666,
				"z": 3.2916085036,
				"element": "O" 
			},
			{
				"x": 1.3340971117,
				"y": 2.0024281065,
				"z": 1.2709184011,
				"element": "N" 
			},
			{
				"x": 0.5056451002,
				"y": 2.3996234713,
				"z": 0.1267737332,
				"element": "C" 
			},
			{
				"x": -0.2676534403,
				"y": 1.1894458584,
				"z": -0.3975839607,
				"element": "C" 
			},
			{
				"x": 0.6560169628,
				"y": 0.1133473252,
				"z": -0.8041976106,
				"element": "N" 
			},
			{
				"x": 1.9871679865,
				"y": 0.1017233156,
				"z": -0.1574384973,
				"element": "C" 
			},
			{
				"x": 1.8632357106,
				"y": 0.6319001647,
				"z": 1.2663796034,
				"element": "C" 
			},
			{
				"x": 0.5743782547,
				"y": -0.4848674709,
				"z": -2.3764207323,
				"element": "S" 
			},
			{
				"x": 1.9488404575,
				"y": -0.6572739441,
				"z": -2.8499707097,
				"element": "O" 
			},
			{
				"x": -0.3966858897,
				"y": 0.3241280469,
				"z": -3.1186145118,
				"element": "O" 
			},
			{
				"x": -0.1434787145,
				"y": -2.1354012634,
				"z": -2.1615329824,
				"element": "C" 
			},
			{
				"x": -0.3320641867,
				"y": -2.9853124188,
				"z": -3.2639846106,
				"element": "C" 
			},
			{
				"x": 0.1038106932,
				"y": -2.5115530903,
				"z": -4.8880033053,
				"element": "Cl" 
			},
			{
				"x": -0.8879147158,
				"y": -4.2523214783,
				"z": -3.0813203348,
				"element": "C" 
			},
			{
				"x": -1.2578977299,
				"y": -4.6781437292,
				"z": -1.8062809386,
				"element": "C" 
			},
			{
				"x": -1.0758967508,
				"y": -3.8394893209,
				"z": -0.707983931,
				"element": "C" 
			},
			{
				"x": -0.5209960717,
				"y": -2.5733765734,
				"z": -0.8891509604,
				"element": "C" 
			},
			{
				"x": 1.4884816111,
				"y": 4.6615960465,
				"z": 3.3115891052,
				"element": "H" 
			},
			{
				"x": 0.0801955236,
				"y": 4.315660657,
				"z": 2.2728939698,
				"element": "H" 
			},
			{
				"x": 1.119108542,
				"y": 2.8285726969,
				"z": -0.6746908794,
				"element": "H" 
			},
			{
				"x": -0.2105127436,
				"y": 3.1657988597,
				"z": 0.4313006673,
				"element": "H" 
			},
			{
				"x": -0.8667690974,
				"y": 1.4839347143,
				"z": -1.2603049483,
				"element": "H" 
			},
			{
				"x": -0.9470799117,
				"y": 0.8207736004,
				"z": 0.3822699864,
				"element": "H" 
			},
			{
				"x": 2.3654141565,
				"y": -0.9231137323,
				"z": -0.1257029025,
				"element": "H" 
			},
			{
				"x": 2.70955274,
				"y": 0.6990796369,
				"z": -0.7249125229,
				"element": "H" 
			},
			{
				"x": 2.8435365762,
				"y": 0.6435674959,
				"z": 1.7470296267,
				"element": "H" 
			},
			{
				"x": 1.2205865978,
				"y": -0.026656678,
				"z": 1.8667510619,
				"element": "H" 
			},
			{
				"x": -1.0262685606,
				"y": -4.8947522476,
				"z": -3.9437852584,
				"element": "H" 
			},
			{
				"x": -1.6887078765,
				"y": -5.6663294045,
				"z": -1.677689176,
				"element": "H" 
			},
			{
				"x": -1.3629283038,
				"y": -4.1644378406,
				"z": 0.2868962931,
				"element": "H" 
			},
			{
				"x": -0.3736987609,
				"y": -1.9085439955,
				"z": -0.0464654367,
				"element": "H" 
			}
		],
		 "valence_orbital": [ 
			{
				"type": "occ",
				"energy": -0.28026,
				"method": "rhf"
			},
			{
				"type": "occ",
				"energy": -0.26995,
				"method": "rhf"
			},
			{
				"type": "occ",
				"energy": -0.26339,
				"method": "rhf"
			},
			{
				"type": "occ",
				"energy": -0.26198,
				"method": "rhf"
			},
			{
				"type": "occ",
				"energy": -0.2559,
				"method": "rhf"
			},
			{
				"type": "unocc",
				"energy": -0.04622,
				"method": "rhf"
			},
			{
				"type": "unocc",
				"energy": -0.03378,
				"method": "rhf"
			},
			{
				"type": "unocc",
				"energy": -0.0239,
				"method": "rhf"
			},
			{
				"type": "unocc",
				"energy": 0.01037,
				"method": "rhf"
			},
			{
				"type": "unocc",
				"energy": 0.04242,
				"method": "rhf"
			}
		],
		"cosmo_sigma_profile": { 
			"-0.025": 0.0,
			"-0.024": 0.0,
			"-0.023": 0.0,
			"-0.022": 0.0,
			"-0.021": 0.0,
			"-0.02": 0.0,
			"-0.019": 0.0,
			"-0.018": 0.0,
			"-0.017": 0.0,
			"-0.016": 0.0,
			"-0.015": 0.0,
			"-0.014": 0.0,
			"-0.013": 0.0,
			"-0.012": 0.0,
			"-0.011": 0.342751179884,
			"-0.01": 2.69796286729,
			"-0.009": 2.76164258548,
			"-0.008": 7.13104600517,
			"-0.007": 14.3662239206,
			"-0.006": 28.7431195526,
			"-0.005": 37.5898979205,
			"-0.004": 22.3906488105,
			"-0.003": 19.2078731654,
			"-0.002": 13.4149198507,
			"-0.001": 15.8032777088,
			"0.0": 19.6130713032,
			"0.001": 25.9547294761,
			"0.002": 23.4455523393,
			"0.003": 17.2207763122,
			"0.004": 12.4784919924,
			"0.005": 12.3479751504,
			"0.006": 9.85842876467,
			"0.007": 5.61681072895,
			"0.008": 5.06947734944,
			"0.009": 6.05316809081,
			"0.01": 9.99515428311,
			"0.011": 9.88536129909,
			"0.012": 3.26532183858,
			"0.013": 4.98966466771,
			"0.014": 1.54212113918,
			"0.015": 0.0239192810635,
			"0.016": 0.0,
			"0.017": 0.0,
			"0.018": 0.0,
			"0.019": 0.0,
			"0.02": 0.0,
			"0.021": 0.0,
			"0.022": 0.0,
			"0.023": 0.0,
			"0.024": 0.0,
			"0.025": 0.0
		}
	}
}
