{
	 "smiles": "CC(C)(C)N1C(=O)CNC1=O", 
	 "Tm": 358.15, 
	 "num_atms": 23, 
	 "gaussian": { 
		 "optdone": 1, 
		 "sigma_profile": "yes", 
		 "theory": "DFT", 
		 "functional": "B3LYP", 
		 "basiset": "6-31G**", 
		 "properties": { 
			 "R2extent": 1688.0376, 
			 "electric_dipole_moment_norm": 1.74581253862, 
			 "electric_quadrupole_moment_norm": 20.5648235115, 
			 "total_energy": -533.974233645, 
			 "HOMO_LUMO_gap": 0.25013, 
			 "cosmo_polarized_energy": -12.49, 
			 "cosmo_cavitation_energy": 24.77, 
			 "cosmo_dispersion_energy": -18.12, 
			 "cosmo_repulsion_energy": 1.45, 
			 "cosmo_total_nonelectrostatic_energy": 8.1, 
			 "SMD_solvation_energy": 4.95 
		},
		"coords": [
			{
				"x": 0.6408294582,
				"y": -1.5815912095,
				"z": -1.4826649322,
				"element": "C" 
			},
			{
				"x": 0.5208810014,
				"y": -0.9589850201,
				"z": -0.0816145312,
				"element": "C" 
			},
			{
				"x": -0.624627191,
				"y": -1.6578145616,
				"z": 0.6767241628,
				"element": "C" 
			},
			{
				"x": 1.85963271,
				"y": -1.1285280035,
				"z": 0.6624269513,
				"element": "C" 
			},
			{
				"x": 0.2072366805,
				"y": 0.5116744111,
				"z": -0.1649193196,
				"element": "N" 
			},
			{
				"x": 0.0908740948,
				"y": 1.3086718971,
				"z": -1.2992430115,
				"element": "C" 
			},
			{
				"x": 0.2088728531,
				"y": 1.0011143065,
				"z": -2.4677020465,
				"element": "O" 
			},
			{
				"x": -0.2254888344,
				"y": 2.7275966133,
				"z": -0.8131866882,
				"element": "C" 
			},
			{
				"x": -0.3316508624,
				"y": 2.5539548065,
				"z": 0.6140291934,
				"element": "N" 
			},
			{
				"x": 0.0074464929,
				"y": 1.2867117522,
				"z": 1.0135102666,
				"element": "C" 
			},
			{
				"x": 0.1099989279,
				"y": 0.8995806721,
				"z": 2.1630542055,
				"element": "O" 
			},
			{
				"x": 0.852513811,
				"y": -2.6469169289,
				"z": -1.3457304802,
				"element": "H" 
			},
			{
				"x": -0.2809253329,
				"y": -1.4844780787,
				"z": -2.0584338417,
				"element": "H" 
			},
			{
				"x": 1.4484082328,
				"y": -1.1395611352,
				"z": -2.0668288693,
				"element": "H" 
			},
			{
				"x": -0.7330757313,
				"y": -1.2623747939,
				"z": 1.6869108758,
				"element": "H" 
			},
			{
				"x": -0.4128597129,
				"y": -2.7296642579,
				"z": 0.7416546383,
				"element": "H" 
			},
			{
				"x": -1.5709369193,
				"y": -1.5323489519,
				"z": 0.1405616383,
				"element": "H" 
			},
			{
				"x": 2.1034269667,
				"y": -2.1932666832,
				"z": 0.7336900583,
				"element": "H" 
			},
			{
				"x": 2.667608703,
				"y": -0.6330040263,
				"z": 0.1143266893,
				"element": "H" 
			},
			{
				"x": 1.8066942104,
				"y": -0.7145193924,
				"z": 1.6699075064,
				"element": "H" 
			},
			{
				"x": 0.5868386758,
				"y": 3.4004701654,
				"z": -1.1158857712,
				"element": "H" 
			},
			{
				"x": -1.1530863295,
				"y": 3.0758952951,
				"z": -1.2811585859,
				"element": "H" 
			},
			{
				"x": -0.3255119049,
				"y": 3.2981831237,
				"z": 1.2933718914,
				"element": "H" 
			}
		],
		 "valence_orbital": [ 
			{
				"type": "occ",
				"energy": -0.33813,
				"method": "rhf"
			},
			{
				"type": "occ",
				"energy": -0.28185,
				"method": "rhf"
			},
			{
				"type": "occ",
				"energy": -0.27524,
				"method": "rhf"
			},
			{
				"type": "occ",
				"energy": -0.26299,
				"method": "rhf"
			},
			{
				"type": "occ",
				"energy": -0.25778,
				"method": "rhf"
			},
			{
				"type": "unocc",
				"energy": -0.00765,
				"method": "rhf"
			},
			{
				"type": "unocc",
				"energy": 0.0563,
				"method": "rhf"
			},
			{
				"type": "unocc",
				"energy": 0.07822,
				"method": "rhf"
			},
			{
				"type": "unocc",
				"energy": 0.09204,
				"method": "rhf"
			},
			{
				"type": "unocc",
				"energy": 0.11295,
				"method": "rhf"
			}
		],
		"cosmo_sigma_profile": { 
			"-0.025": 0.0,
			"-0.024": 0.0,
			"-0.023": 0.0,
			"-0.022": 0.0,
			"-0.021": 0.0,
			"-0.02": 0.0,
			"-0.019": 0.0,
			"-0.018": 0.0,
			"-0.017": 0.0,
			"-0.016": 0.0454423112351,
			"-0.015": 1.12362161974,
			"-0.014": 1.37386601942,
			"-0.013": 1.19357081017,
			"-0.012": 1.07257277469,
			"-0.011": 0.87513600959,
			"-0.01": 0.800356218321,
			"-0.009": 1.34292872071,
			"-0.008": 3.28211793058,
			"-0.007": 6.87070523786,
			"-0.006": 7.05184693986,
			"-0.005": 7.09375840562,
			"-0.004": 12.6930406277,
			"-0.003": 19.3539326236,
			"-0.002": 19.17431896,
			"-0.001": 17.5522633912,
			"0.0": 21.5363733267,
			"0.001": 19.1557914648,
			"0.002": 6.1502487175,
			"0.003": 5.34479018588,
			"0.004": 4.05104396366,
			"0.005": 4.23906483189,
			"0.006": 3.61325278748,
			"0.007": 2.6850907883,
			"0.008": 2.95304608889,
			"0.009": 2.5451674844,
			"0.01": 3.31150408563,
			"0.011": 3.84495164639,
			"0.012": 6.73192915371,
			"0.013": 5.53858275982,
			"0.014": 0.896565443607,
			"0.015": 0.0,
			"0.016": 0.0,
			"0.017": 0.0,
			"0.018": 0.0,
			"0.019": 0.0,
			"0.02": 0.0,
			"0.021": 0.0,
			"0.022": 0.0,
			"0.023": 0.0,
			"0.024": 0.0,
			"0.025": 0.0
		}
	}
}
