{
	 "smiles": "FC1=C(F)C(F)=C(P(C2=C(F)C(F)=C(F)C(F)=C2F)C2=C(F)C(F)=C(F)C(F)=C2F)C(F)=C1F", 
	 "Tm": 390.15, 
	 "num_atms": 34, 
	 "gaussian": { 
		 "optdone": 1, 
		 "sigma_profile": "yes", 
		 "theory": "DFT", 
		 "functional": "B3LYP", 
		 "basiset": "6-31G**", 
		 "properties": { 
			 "R2extent": 15441.535, 
			 "electric_dipole_moment_norm": 0.0873792309419, 
			 "electric_quadrupole_moment_norm": 5.54212687964, 
			 "total_energy": -2524.66305241, 
			 "HOMO_LUMO_gap": 0.19141, 
			 "cosmo_polarized_energy": -6.73, 
			 "cosmo_cavitation_energy": 49.88, 
			 "cosmo_dispersion_energy": -31.42, 
			 "cosmo_repulsion_energy": 2.04, 
			 "cosmo_total_nonelectrostatic_energy": 20.5, 
			 "SMD_solvation_energy": 15.37 
		},
		"coords": [
			{
				"x": -6.3716912802,
				"y": -0.9174569706,
				"z": 0.5509136061,
				"element": "F" 
			},
			{
				"x": -5.1060821595,
				"y": -0.503127625,
				"z": 0.5959029142,
				"element": "C" 
			},
			{
				"x": -4.7832544079,
				"y": 0.6872442002,
				"z": 1.2420331447,
				"element": "C" 
			},
			{
				"x": -5.741578487,
				"y": 1.4180052015,
				"z": 1.8188762848,
				"element": "F" 
			},
			{
				"x": -3.4554081933,
				"y": 1.1037128098,
				"z": 1.2752627684,
				"element": "C" 
			},
			{
				"x": -3.1866681241,
				"y": 2.2559267635,
				"z": 1.9070932226,
				"element": "F" 
			},
			{
				"x": -2.4160953753,
				"y": 0.369187472,
				"z": 0.686816384,
				"element": "C" 
			},
			{
				"x": -0.7477952127,
				"y": 1.1746054124,
				"z": 0.7234483301,
				"element": "P" 
			},
			{
				"x": 0.1209440853,
				"y": 0.4888939373,
				"z": -0.7626052034,
				"element": "C" 
			},
			{
				"x": 0.1224983704,
				"y": 1.3140673933,
				"z": -1.8962002479,
				"element": "C" 
			},
			{
				"x": -0.5678761084,
				"y": 2.4640200944,
				"z": -1.8881206182,
				"element": "F" 
			},
			{
				"x": 0.8153145378,
				"y": 0.9922441825,
				"z": -3.0598664109,
				"element": "C" 
			},
			{
				"x": 0.7864905037,
				"y": 1.8075047129,
				"z": -4.1180123832,
				"element": "F" 
			},
			{
				"x": 1.5452495975,
				"y": -0.1923783139,
				"z": -3.1104423503,
				"element": "C" 
			},
			{
				"x": 2.2173455802,
				"y": -0.5169046823,
				"z": -4.2142727207,
				"element": "F" 
			},
			{
				"x": 1.5652115122,
				"y": -1.042094907,
				"z": -2.0065668711,
				"element": "C" 
			},
			{
				"x": 2.2547965031,
				"y": -2.1857663996,
				"z": -2.0606633997,
				"element": "F" 
			},
			{
				"x": 0.853094511,
				"y": -0.7004878386,
				"z": -0.8598753034,
				"element": "C" 
			},
			{
				"x": 0.888353808,
				"y": -1.5747074991,
				"z": 0.1531569779,
				"element": "F" 
			},
			{
				"x": 0.1102879909,
				"y": 0.3786718707,
				"z": 2.1599156588,
				"element": "C" 
			},
			{
				"x": 1.0862483035,
				"y": 1.1627369987,
				"z": 2.7913582993,
				"element": "C" 
			},
			{
				"x": 1.4168640556,
				"y": 2.358702085,
				"z": 2.2820415219,
				"element": "F" 
			},
			{
				"x": 1.750193498,
				"y": 0.752947039,
				"z": 3.9441568948,
				"element": "C" 
			},
			{
				"x": 2.6760168863,
				"y": 1.5318261919,
				"z": 4.511004649,
				"element": "F" 
			},
			{
				"x": 1.4369205961,
				"y": -0.4818404471,
				"z": 4.5061447077,
				"element": "C" 
			},
			{
				"x": 2.0594339253,
				"y": -0.8907175708,
				"z": 5.6110214147,
				"element": "F" 
			},
			{
				"x": 0.4761175818,
				"y": -1.2929036224,
				"z": 3.9061762595,
				"element": "C" 
			},
			{
				"x": 0.1857175913,
				"y": -2.4840998719,
				"z": 4.438292613,
				"element": "F" 
			},
			{
				"x": -0.1636717218,
				"y": -0.8625363699,
				"z": 2.7468180488,
				"element": "C" 
			},
			{
				"x": -1.0535127785,
				"y": -1.7020714119,
				"z": 2.2036559032,
				"element": "F" 
			},
			{
				"x": -2.7801184084,
				"y": -0.8295088786,
				"z": 0.0617336695,
				"element": "C" 
			},
			{
				"x": -1.8598448611,
				"y": -1.6225143049,
				"z": -0.5003069149,
				"element": "F" 
			},
			{
				"x": -4.1014313672,
				"y": -1.2646076716,
				"z": 0.0028131041,
				"element": "C" 
			},
			{
				"x": -4.4100709526,
				"y": -2.41417198,
				"z": -0.6052039535,
				"element": "F" 
			}
		],
		 "valence_orbital": [ 
			{
				"type": "occ",
				"energy": -0.28591,
				"method": "rhf"
			},
			{
				"type": "occ",
				"energy": -0.2697,
				"method": "rhf"
			},
			{
				"type": "occ",
				"energy": -0.26691,
				"method": "rhf"
			},
			{
				"type": "occ",
				"energy": -0.2669,
				"method": "rhf"
			},
			{
				"type": "occ",
				"energy": -0.25648,
				"method": "rhf"
			},
			{
				"type": "unocc",
				"energy": -0.06507,
				"method": "rhf"
			},
			{
				"type": "unocc",
				"energy": -0.06506,
				"method": "rhf"
			},
			{
				"type": "unocc",
				"energy": -0.03348,
				"method": "rhf"
			},
			{
				"type": "unocc",
				"energy": -0.03009,
				"method": "rhf"
			},
			{
				"type": "unocc",
				"energy": -0.027,
				"method": "rhf"
			}
		],
		"cosmo_sigma_profile": { 
			"-0.025": 0.0,
			"-0.024": 0.0,
			"-0.023": 0.0,
			"-0.022": 0.0,
			"-0.021": 0.0200963826914,
			"-0.02": 0.0123970796454,
			"-0.019": 0.0360550472292,
			"-0.018": 0.00874966743402,
			"-0.017": 0.0,
			"-0.016": 0.0,
			"-0.015": 0.0,
			"-0.014": 0.0,
			"-0.013": 0.0,
			"-0.012": 0.0,
			"-0.011": 0.0,
			"-0.01": 0.0,
			"-0.009": 0.0,
			"-0.008": 0.0,
			"-0.007": 0.165029399323,
			"-0.006": 2.42910602131,
			"-0.005": 13.5203079052,
			"-0.004": 53.6791096389,
			"-0.003": 40.9182981279,
			"-0.002": 23.8161899436,
			"-0.001": 25.6183518723,
			"0.0": 23.0336341119,
			"0.001": 37.138147287,
			"0.002": 116.571939147,
			"0.003": 56.5329045701,
			"0.004": 5.75493941097,
			"0.005": 3.01933416442,
			"0.006": 1.64377011581,
			"0.007": 0.941530201234,
			"0.008": 0.588083911102,
			"0.009": 0.0,
			"0.01": 0.0,
			"0.011": 0.0,
			"0.012": 0.0,
			"0.013": 0.0,
			"0.014": 0.0,
			"0.015": 0.0,
			"0.016": 0.0,
			"0.017": 0.0,
			"0.018": 0.0,
			"0.019": 0.0,
			"0.02": 0.0,
			"0.021": 0.0,
			"0.022": 0.0,
			"0.023": 0.0,
			"0.024": 0.0,
			"0.025": 0.0
		}
	}
}
