{
	 "smiles": "ClC#C", 
	 "Tm": 147.15, 
	 "num_atms": 4, 
	 "gaussian": { 
		 "optdone": 1, 
		 "sigma_profile": "yes", 
		 "theory": "DFT", 
		 "functional": "B3LYP", 
		 "basiset": "6-31G**", 
		 "properties": { 
			 "R2extent": 1171.125, 
			 "electric_dipole_moment_norm": 0.528148672251, 
			 "electric_quadrupole_moment_norm": 2.86594972042, 
			 "total_energy": -536.910069041, 
			 "HOMO_LUMO_gap": 0.30091, 
			 "cosmo_polarized_energy": -2.34, 
			 "cosmo_cavitation_energy": 10.56, 
			 "cosmo_dispersion_energy": -7.48, 
			 "cosmo_repulsion_energy": 0.71, 
			 "cosmo_total_nonelectrostatic_energy": 3.79, 
			 "SMD_solvation_energy": 3.91 
		},
		"coords": [
			{
				"x": 2.6664723013,
				"y": 2.0267450882,
				"z": 1.9682508386,
				"element": "Cl" 
			},
			{
				"x": 1.5121040515,
				"y": 1.7735426135,
				"z": 0.8171707251,
				"element": "C" 
			},
			{
				"x": 0.6685284717,
				"y": 1.5885172812,
				"z": -0.0241019351,
				"element": "C" 
			},
			{
				"x": -0.0765048246,
				"y": 1.4252950171,
				"z": -0.7671196287,
				"element": "H" 
			}
		],
		 "valence_orbital": [ 
			{
				"type": "occ",
				"energy": -0.50158,
				"method": "rhf"
			},
			{
				"type": "occ",
				"energy": -0.39575,
				"method": "rhf"
			},
			{
				"type": "occ",
				"energy": -0.39575,
				"method": "rhf"
			},
			{
				"type": "occ",
				"energy": -0.27355,
				"method": "rhf"
			},
			{
				"type": "occ",
				"energy": -0.27355,
				"method": "rhf"
			},
			{
				"type": "unocc",
				"energy": 0.02736,
				"method": "rhf"
			},
			{
				"type": "unocc",
				"energy": 0.04376,
				"method": "rhf"
			},
			{
				"type": "unocc",
				"energy": 0.04376,
				"method": "rhf"
			},
			{
				"type": "unocc",
				"energy": 0.12741,
				"method": "rhf"
			},
			{
				"type": "unocc",
				"energy": 0.26031,
				"method": "rhf"
			}
		],
		"cosmo_sigma_profile": { 
			"-0.025": 0.0,
			"-0.024": 0.0,
			"-0.023": 0.0,
			"-0.022": 0.0,
			"-0.021": 0.0,
			"-0.02": 0.0,
			"-0.019": 0.0,
			"-0.018": 0.0,
			"-0.017": 0.0,
			"-0.016": 0.0,
			"-0.015": 0.0,
			"-0.014": 0.0,
			"-0.013": 0.662159968593,
			"-0.012": 1.1965199596,
			"-0.011": 0.978693671808,
			"-0.01": 0.751051992988,
			"-0.009": 2.0167758687,
			"-0.008": 0.577331419389,
			"-0.007": 0.984420147106,
			"-0.006": 2.4220980467,
			"-0.005": 2.01962361854,
			"-0.004": 2.84544399005,
			"-0.003": 3.53895741742,
			"-0.002": 2.92813522714,
			"-0.001": 4.93830714552,
			"0.0": 16.2648971744,
			"0.001": 16.9256901702,
			"0.002": 8.45005760585,
			"0.003": 4.48412833472,
			"0.004": 6.4473459592,
			"0.005": 9.3256059336,
			"0.006": 1.23467924451,
			"0.007": 0.0,
			"0.008": 0.0,
			"0.009": 0.0,
			"0.01": 0.0,
			"0.011": 0.0,
			"0.012": 0.0,
			"0.013": 0.0,
			"0.014": 0.0,
			"0.015": 0.0,
			"0.016": 0.0,
			"0.017": 0.0,
			"0.018": 0.0,
			"0.019": 0.0,
			"0.02": 0.0,
			"0.021": 0.0,
			"0.022": 0.0,
			"0.023": 0.0,
			"0.024": 0.0,
			"0.025": 0.0
		}
	}
}
