{
	 "smiles": "OC1=NC=C(C=C1Cl)C(F)(F)F", 
	 "Tm": 431.15, 
	 "num_atms": 15, 
	 "gaussian": { 
		 "optdone": 1, 
		 "sigma_profile": "yes", 
		 "theory": "DFT", 
		 "functional": "B3LYP", 
		 "basiset": "6-31G**", 
		 "properties": { 
			 "R2extent": 3460.4221, 
			 "electric_dipole_moment_norm": 2.04924939185, 
			 "electric_quadrupole_moment_norm": 8.66847242137, 
			 "total_energy": -1120.13445272, 
			 "HOMO_LUMO_gap": 0.20854, 
			 "cosmo_polarized_energy": -8.63, 
			 "cosmo_cavitation_energy": 23.12, 
			 "cosmo_dispersion_energy": -16.97, 
			 "cosmo_repulsion_energy": 1.29, 
			 "cosmo_total_nonelectrostatic_energy": 7.44, 
			 "SMD_solvation_energy": 3.87 
		},
		"coords": [
			{
				"x": 0.6427464092,
				"y": 2.0413712926,
				"z": -3.2879479847,
				"element": "O" 
			},
			{
				"x": -0.1350253486,
				"y": 1.2954126221,
				"z": -2.4871906688,
				"element": "C" 
			},
			{
				"x": -0.7444960471,
				"y": 0.2687152496,
				"z": -3.0701067703,
				"element": "N" 
			},
			{
				"x": -1.5311194743,
				"y": -0.5152053408,
				"z": -2.3305860165,
				"element": "C" 
			},
			{
				"x": -1.7538849975,
				"y": -0.3168206299,
				"z": -0.9678161193,
				"element": "C" 
			},
			{
				"x": -1.1205080361,
				"y": 0.7636908967,
				"z": -0.3454902256,
				"element": "C" 
			},
			{
				"x": -0.3052846898,
				"y": 1.5759802702,
				"z": -1.1124253034,
				"element": "C" 
			},
			{
				"x": 0.5175784119,
				"y": 2.9571196548,
				"z": -0.4015446669,
				"element": "Cl" 
			},
			{
				"x": -2.6069568748,
				"y": -1.2601016594,
				"z": -0.1699866931,
				"element": "C" 
			},
			{
				"x": -3.5223188184,
				"y": -1.8792008976,
				"z": -0.9440716247,
				"element": "F" 
			},
			{
				"x": -1.8686491771,
				"y": -2.2262111099,
				"z": 0.4223276775,
				"element": "F" 
			},
			{
				"x": -3.2675066139,
				"y": -0.6135891986,
				"z": 0.8169314717,
				"element": "F" 
			},
			{
				"x": 1.0388505327,
				"y": 2.7601754373,
				"z": -2.7715573625,
				"element": "H" 
			},
			{
				"x": -2.0147568043,
				"y": -1.3375147472,
				"z": -2.8506306272,
				"element": "H" 
			},
			{
				"x": -1.268568472,
				"y": 0.9689781599,
				"z": 0.7085949138,
				"element": "H" 
			}
		],
		 "valence_orbital": [ 
			{
				"type": "occ",
				"energy": -0.37237,
				"method": "rhf"
			},
			{
				"type": "occ",
				"energy": -0.3554,
				"method": "rhf"
			},
			{
				"type": "occ",
				"energy": -0.30589,
				"method": "rhf"
			},
			{
				"type": "occ",
				"energy": -0.2881,
				"method": "rhf"
			},
			{
				"type": "occ",
				"energy": -0.26187,
				"method": "rhf"
			},
			{
				"type": "unocc",
				"energy": -0.05333,
				"method": "rhf"
			},
			{
				"type": "unocc",
				"energy": -0.03738,
				"method": "rhf"
			},
			{
				"type": "unocc",
				"energy": -3e-05,
				"method": "rhf"
			},
			{
				"type": "unocc",
				"energy": 0.07231,
				"method": "rhf"
			},
			{
				"type": "unocc",
				"energy": 0.10431,
				"method": "rhf"
			}
		],
		"cosmo_sigma_profile": { 
			"-0.025": 0.0,
			"-0.024": 0.0,
			"-0.023": 0.0,
			"-0.022": 0.0,
			"-0.021": 0.0,
			"-0.02": 0.0,
			"-0.019": 0.0,
			"-0.018": 0.0,
			"-0.017": 0.108292395495,
			"-0.016": 0.783208975059,
			"-0.015": 0.761014473032,
			"-0.014": 0.552850327634,
			"-0.013": 0.553093024171,
			"-0.012": 1.37798329763,
			"-0.011": 0.932956418484,
			"-0.01": 1.54614811819,
			"-0.009": 2.68130491039,
			"-0.008": 3.86596643162,
			"-0.007": 5.21016849857,
			"-0.006": 4.99535590132,
			"-0.005": 5.10219269209,
			"-0.004": 6.46708615633,
			"-0.003": 12.1923179229,
			"-0.002": 15.8801583076,
			"-0.001": 20.9926474421,
			"0.0": 13.8948049024,
			"0.001": 12.7475713284,
			"0.002": 29.6741075938,
			"0.003": 25.6942693357,
			"0.004": 2.58389568133,
			"0.005": 2.17946118615,
			"0.006": 2.51777260257,
			"0.007": 1.92649000891,
			"0.008": 2.50329441611,
			"0.009": 2.20697969295,
			"0.01": 2.94134457482,
			"0.011": 2.27838805535,
			"0.012": 1.18143145061,
			"0.013": 1.323693871,
			"0.014": 0.886045533081,
			"0.015": 0.198580452113,
			"0.016": 0.0,
			"0.017": 0.0,
			"0.018": 0.0,
			"0.019": 0.0,
			"0.02": 0.0,
			"0.021": 0.0,
			"0.022": 0.0,
			"0.023": 0.0,
			"0.024": 0.0,
			"0.025": 0.0
		}
	}
}
