{
	 "smiles": "CC(=O)C1=CC=CC(Br)=C1", 
	 "Tm": 280.9, 
	 "num_atms": 17, 
	 "gaussian": { 
		 "optdone": 1, 
		 "sigma_profile": "yes", 
		 "theory": "DFT", 
		 "functional": "B3LYP", 
		 "basiset": "6-31G**", 
		 "properties": { 
			 "R2extent": 4223.7812, 
			 "electric_dipole_moment_norm": 3.82218279783, 
			 "electric_quadrupole_moment_norm": 8.09301977447, 
			 "total_energy": -2955.70120831, 
			 "HOMO_LUMO_gap": 0.18644, 
			 "cosmo_polarized_energy": -8.33, 
			 "cosmo_cavitation_energy": 23.63, 
			 "cosmo_dispersion_energy": -17.71, 
			 "cosmo_repulsion_energy": 1.43, 
			 "cosmo_total_nonelectrostatic_energy": 7.35, 
			 "SMD_solvation_energy": 3.65 
		},
		"coords": [
			{
				"x": 0.0106699614,
				"y": -1.243366811,
				"z": -2.8008417381,
				"element": "C" 
			},
			{
				"x": -0.7738803602,
				"y": -1.1238277225,
				"z": -1.5060367163,
				"element": "C" 
			},
			{
				"x": -1.0547269405,
				"y": -2.115753463,
				"z": -0.8525590991,
				"element": "O" 
			},
			{
				"x": -1.2005209559,
				"y": 0.2406741276,
				"z": -1.0407635629,
				"element": "C" 
			},
			{
				"x": -0.906860222,
				"y": 1.4143833739,
				"z": -1.749155159,
				"element": "C" 
			},
			{
				"x": -1.3318623514,
				"y": 2.6507964573,
				"z": -1.2630413069,
				"element": "C" 
			},
			{
				"x": -2.0514184783,
				"y": 2.7320681975,
				"z": -0.0705442174,
				"element": "C" 
			},
			{
				"x": -2.3396216934,
				"y": 1.5579131732,
				"z": 0.6286328914,
				"element": "C" 
			},
			{
				"x": -3.3257708084,
				"y": 1.6652550767,
				"z": 2.2630134137,
				"element": "Br" 
			},
			{
				"x": -1.9241666192,
				"y": 0.3191809905,
				"z": 0.1591204823,
				"element": "C" 
			},
			{
				"x": -0.5616398814,
				"y": -0.8445423594,
				"z": -3.6457035798,
				"element": "H" 
			},
			{
				"x": 0.9482971343,
				"y": -0.6792280148,
				"z": -2.7460958667,
				"element": "H" 
			},
			{
				"x": 0.2314540574,
				"y": -2.2961347779,
				"z": -2.9779662412,
				"element": "H" 
			},
			{
				"x": -0.3485218335,
				"y": 1.3702212393,
				"z": -2.677980248,
				"element": "H" 
			},
			{
				"x": -1.1039806376,
				"y": 3.559350685,
				"z": -1.8122685549,
				"element": "H" 
			},
			{
				"x": -2.3845957226,
				"y": 3.6899154581,
				"z": 0.3126341441,
				"element": "H" 
			},
			{
				"x": -2.1437546486,
				"y": -0.5961056304,
				"z": 0.6957553587,
				"element": "H" 
			}
		],
		 "valence_orbital": [ 
			{
				"type": "occ",
				"energy": -0.31898,
				"method": "rhf"
			},
			{
				"type": "occ",
				"energy": -0.29107,
				"method": "rhf"
			},
			{
				"type": "occ",
				"energy": -0.27152,
				"method": "rhf"
			},
			{
				"type": "occ",
				"energy": -0.25635,
				"method": "rhf"
			},
			{
				"type": "occ",
				"energy": -0.25212,
				"method": "rhf"
			},
			{
				"type": "unocc",
				"energy": -0.06568,
				"method": "rhf"
			},
			{
				"type": "unocc",
				"energy": -0.02323,
				"method": "rhf"
			},
			{
				"type": "unocc",
				"energy": 0.00297,
				"method": "rhf"
			},
			{
				"type": "unocc",
				"energy": 0.02805,
				"method": "rhf"
			},
			{
				"type": "unocc",
				"energy": 0.08738,
				"method": "rhf"
			}
		],
		"cosmo_sigma_profile": { 
			"-0.025": 0.0,
			"-0.024": 0.0,
			"-0.023": 0.0,
			"-0.022": 0.0,
			"-0.021": 0.0,
			"-0.02": 0.0,
			"-0.019": 0.0,
			"-0.018": 0.0,
			"-0.017": 0.0,
			"-0.016": 0.0,
			"-0.015": 0.0,
			"-0.014": 0.0,
			"-0.013": 0.0,
			"-0.012": 0.0,
			"-0.011": 0.0,
			"-0.01": 0.0,
			"-0.009": 0.0,
			"-0.008": 1.06499390628,
			"-0.007": 8.2246731905,
			"-0.006": 14.244515321,
			"-0.005": 13.0911527327,
			"-0.004": 11.9949200611,
			"-0.003": 12.4555650335,
			"-0.002": 13.7042868588,
			"-0.001": 15.6305429482,
			"0.0": 13.2685383836,
			"0.001": 17.1021780869,
			"0.002": 23.1416536087,
			"0.003": 13.6577456902,
			"0.004": 12.5281108762,
			"0.005": 6.17308512251,
			"0.006": 1.97992758535,
			"0.007": 0.925525301326,
			"0.008": 1.43809833251,
			"0.009": 2.07763018069,
			"0.01": 2.22517951419,
			"0.011": 3.18249325025,
			"0.012": 3.41502333341,
			"0.013": 0.950063701999,
			"0.014": 0.0,
			"0.015": 0.0,
			"0.016": 0.0,
			"0.017": 0.0,
			"0.018": 0.0,
			"0.019": 0.0,
			"0.02": 0.0,
			"0.021": 0.0,
			"0.022": 0.0,
			"0.023": 0.0,
			"0.024": 0.0,
			"0.025": 0.0
		}
	}
}
