{
	 "smiles": "CC(N1CCCCC1)C1=NN=C(S)N1C1=CC=C(F)C=C1", 
	 "Tm": 389.15, 
	 "num_atms": 40, 
	 "gaussian": { 
		 "optdone": 1, 
		 "sigma_profile": "yes", 
		 "theory": "DFT", 
		 "functional": "B3LYP", 
		 "basiset": "6-31G**", 
		 "properties": { 
			 "R2extent": 7465.9819, 
			 "electric_dipole_moment_norm": 4.11426210638, 
			 "electric_quadrupole_moment_norm": 17.3334784559, 
			 "total_energy": -1300.036147, 
			 "HOMO_LUMO_gap": 0.16878, 
			 "cosmo_polarized_energy": -17.36, 
			 "cosmo_cavitation_energy": 43.54, 
			 "cosmo_dispersion_energy": -29.41, 
			 "cosmo_repulsion_energy": 2.22, 
			 "cosmo_total_nonelectrostatic_energy": 16.36, 
			 "SMD_solvation_energy": 3.29 
		},
		"coords": [
			{
				"x": 0.6143127218,
				"y": 2.9341539164,
				"z": 0.6535011901,
				"element": "C" 
			},
			{
				"x": 0.5461267242,
				"y": 1.4139286118,
				"z": 0.4131474667,
				"element": "C" 
			},
			{
				"x": 1.7172673022,
				"y": 0.7240485557,
				"z": 0.9814655117,
				"element": "N" 
			},
			{
				"x": 1.5406802413,
				"y": -0.734240763,
				"z": 1.0975879295,
				"element": "C" 
			},
			{
				"x": 2.8724605016,
				"y": -1.4400862886,
				"z": 1.4441321847,
				"element": "C" 
			},
			{
				"x": 3.8310890761,
				"y": -0.4765632037,
				"z": 2.1498893743,
				"element": "C" 
			},
			{
				"x": 4.1671306948,
				"y": 0.6979172419,
				"z": 1.2078524112,
				"element": "C" 
			},
			{
				"x": 2.9722813802,
				"y": 1.0212080312,
				"z": 0.2839667262,
				"element": "C" 
			},
			{
				"x": -0.7367730206,
				"y": 0.9031667961,
				"z": 1.0268034002,
				"element": "C" 
			},
			{
				"x": -1.0884071902,
				"y": 1.0368659902,
				"z": 2.2810150455,
				"element": "N" 
			},
			{
				"x": -2.3284298966,
				"y": 0.4503008595,
				"z": 2.4538490513,
				"element": "N" 
			},
			{
				"x": -2.6941500118,
				"y": -0.0188829811,
				"z": 1.2865675567,
				"element": "C" 
			},
			{
				"x": -4.2112279392,
				"y": -0.8485212306,
				"z": 0.9186886174,
				"element": "S" 
			},
			{
				"x": -1.7352992681,
				"y": 0.2301976104,
				"z": 0.3292368809,
				"element": "N" 
			},
			{
				"x": -1.7988431888,
				"y": -0.1194652483,
				"z": -1.057104689,
				"element": "C" 
			},
			{
				"x": -2.0679501874,
				"y": 0.8661764577,
				"z": -2.012994017,
				"element": "C" 
			},
			{
				"x": -2.1329685638,
				"y": 0.5283185185,
				"z": -3.3630884103,
				"element": "C" 
			},
			{
				"x": -1.9395203239,
				"y": -0.7998294612,
				"z": -3.7304040431,
				"element": "C" 
			},
			{
				"x": -2.0060380008,
				"y": -1.1305137588,
				"z": -5.0327014546,
				"element": "F" 
			},
			{
				"x": -1.6801350663,
				"y": -1.796730045,
				"z": -2.7953157934,
				"element": "C" 
			},
			{
				"x": -1.605757815,
				"y": -1.4490862691,
				"z": -1.447915544,
				"element": "C" 
			},
			{
				"x": 0.6388633466,
				"y": 3.1286471932,
				"z": 1.727540226,
				"element": "H" 
			},
			{
				"x": -0.270582521,
				"y": 3.4215325093,
				"z": 0.2324666742,
				"element": "H" 
			},
			{
				"x": 1.4928035928,
				"y": 3.3855879719,
				"z": 0.1869859605,
				"element": "H" 
			},
			{
				"x": 0.4791499344,
				"y": 1.2269017433,
				"z": -0.6760418932,
				"element": "H" 
			},
			{
				"x": 0.806485926,
				"y": -0.9198987804,
				"z": 1.8865919851,
				"element": "H" 
			},
			{
				"x": 1.1374765933,
				"y": -1.1692177585,
				"z": 0.1611775922,
				"element": "H" 
			},
			{
				"x": 3.3504072872,
				"y": -1.812771296,
				"z": 0.5292844468,
				"element": "H" 
			},
			{
				"x": 2.6649911132,
				"y": -2.3193726128,
				"z": 2.063189602,
				"element": "H" 
			},
			{
				"x": 4.7445941248,
				"y": -0.9949766682,
				"z": 2.4613571165,
				"element": "H" 
			},
			{
				"x": 3.3525325671,
				"y": -0.0952947224,
				"z": 3.0579408743,
				"element": "H" 
			},
			{
				"x": 4.4303441224,
				"y": 1.5821615724,
				"z": 1.7980013066,
				"element": "H" 
			},
			{
				"x": 5.0393779884,
				"y": 0.4566760179,
				"z": 0.5877912248,
				"element": "H" 
			},
			{
				"x": 3.0472794352,
				"y": 0.4501024638,
				"z": -0.6632188122,
				"element": "H" 
			},
			{
				"x": 3.000955872,
				"y": 2.0755795573,
				"z": 0.004547816,
				"element": "H" 
			},
			{
				"x": -4.6580689374,
				"y": -0.7089431374,
				"z": 2.1815089169,
				"element": "H" 
			},
			{
				"x": -2.2298731113,
				"y": 1.8906686877,
				"z": -1.6946934194,
				"element": "H" 
			},
			{
				"x": -2.3377561658,
				"y": 1.2716532466,
				"z": -4.1253139758,
				"element": "H" 
			},
			{
				"x": -1.5363379076,
				"y": -2.8190623611,
				"z": -3.1263556178,
				"element": "H" 
			},
			{
				"x": -1.3980914299,
				"y": -2.2031369666,
				"z": -0.6963394181,
				"element": "H" 
			}
		],
		 "valence_orbital": [ 
			{
				"type": "occ",
				"energy": -0.28609,
				"method": "rhf"
			},
			{
				"type": "occ",
				"energy": -0.2743,
				"method": "rhf"
			},
			{
				"type": "occ",
				"energy": -0.24784,
				"method": "rhf"
			},
			{
				"type": "occ",
				"energy": -0.22783,
				"method": "rhf"
			},
			{
				"type": "occ",
				"energy": -0.20744,
				"method": "rhf"
			},
			{
				"type": "unocc",
				"energy": -0.03866,
				"method": "rhf"
			},
			{
				"type": "unocc",
				"energy": -0.03158,
				"method": "rhf"
			},
			{
				"type": "unocc",
				"energy": 0.01168,
				"method": "rhf"
			},
			{
				"type": "unocc",
				"energy": 0.01632,
				"method": "rhf"
			},
			{
				"type": "unocc",
				"energy": 0.04125,
				"method": "rhf"
			}
		],
		"cosmo_sigma_profile": { 
			"-0.025": 0.0,
			"-0.024": 0.0,
			"-0.023": 0.0,
			"-0.022": 0.0,
			"-0.021": 0.0,
			"-0.02": 0.0,
			"-0.019": 0.0,
			"-0.018": 0.0,
			"-0.017": 0.0,
			"-0.016": 0.0,
			"-0.015": 0.0,
			"-0.014": 0.0,
			"-0.013": 0.046737157869,
			"-0.012": 1.31196709315,
			"-0.011": 1.60093995054,
			"-0.01": 1.0593794919,
			"-0.009": 1.27489246041,
			"-0.008": 6.68101619569,
			"-0.007": 9.83050637795,
			"-0.006": 11.3497859756,
			"-0.005": 13.1773118028,
			"-0.004": 14.2908476725,
			"-0.003": 26.047463203,
			"-0.002": 40.9484335977,
			"-0.001": 48.5678214056,
			"0.0": 44.6529282515,
			"0.001": 37.5294126521,
			"0.002": 19.6140300627,
			"0.003": 12.5391577377,
			"0.004": 14.9906726012,
			"0.005": 5.03886289327,
			"0.006": 5.84993477692,
			"0.007": 2.79366003838,
			"0.008": 2.60843053283,
			"0.009": 2.53814968549,
			"0.01": 2.0806725205,
			"0.011": 2.9803475269,
			"0.012": 3.35319450705,
			"0.013": 4.44708118789,
			"0.014": 3.93182510902,
			"0.015": 2.01004225014,
			"0.016": 2.12838356265,
			"0.017": 0.458723537998,
			"0.018": 0.0,
			"0.019": 0.0,
			"0.02": 0.0,
			"0.021": 0.0,
			"0.022": 0.0,
			"0.023": 0.0,
			"0.024": 0.0,
			"0.025": 0.0
		}
	}
}
