{
	 "smiles": "NC(=O)C(Br)CBr", 
	 "Tm": 406.15, 
	 "num_atms": 12, 
	 "gaussian": { 
		 "optdone": 1, 
		 "sigma_profile": "yes", 
		 "theory": "DFT", 
		 "functional": "B3LYP", 
		 "basiset": "6-31G**", 
		 "properties": { 
			 "R2extent": 4016.2179, 
			 "electric_dipole_moment_norm": 5.62717193446, 
			 "electric_quadrupole_moment_norm": 12.5632724897, 
			 "total_energy": -5390.12312828, 
			 "HOMO_LUMO_gap": 0.24243, 
			 "cosmo_polarized_energy": -21.24, 
			 "cosmo_cavitation_energy": 20.56, 
			 "cosmo_dispersion_energy": -15.59, 
			 "cosmo_repulsion_energy": 1.33, 
			 "cosmo_total_nonelectrostatic_energy": 6.31, 
			 "SMD_solvation_energy": 2.11 
		},
		"coords": [
			{
				"x": -0.8035687981,
				"y": -1.4665362858,
				"z": 0.3247901155,
				"element": "N" 
			},
			{
				"x": -1.6304573933,
				"y": -1.0722634218,
				"z": -0.6951911494,
				"element": "C" 
			},
			{
				"x": -2.8102205099,
				"y": -1.3489237426,
				"z": -0.73735956,
				"element": "O" 
			},
			{
				"x": -0.9009461797,
				"y": -0.1969756103,
				"z": -1.7402151561,
				"element": "C" 
			},
			{
				"x": -1.8985695529,
				"y": -0.1490314181,
				"z": -3.4253693724,
				"element": "Br" 
			},
			{
				"x": -0.5800758304,
				"y": 1.2060942976,
				"z": -1.2341964179,
				"element": "C" 
			},
			{
				"x": -2.1468192047,
				"y": 2.2297456752,
				"z": -0.6324811172,
				"element": "Br" 
			},
			{
				"x": 0.200332126,
				"y": -1.4013315645,
				"z": 0.2721504993,
				"element": "H" 
			},
			{
				"x": -1.2040625285,
				"y": -2.0636956704,
				"z": 1.0332937735,
				"element": "H" 
			},
			{
				"x": 0.0534975905,
				"y": -0.6663535098,
				"z": -2.0006674289,
				"element": "H" 
			},
			{
				"x": 0.0785424957,
				"y": 1.1465162846,
				"z": -0.3659428195,
				"element": "H" 
			},
			{
				"x": -0.1099522147,
				"y": 1.8007549658,
				"z": -2.015211367,
				"element": "H" 
			}
		],
		 "valence_orbital": [ 
			{
				"type": "occ",
				"energy": -0.28471,
				"method": "rhf"
			},
			{
				"type": "occ",
				"energy": -0.28382,
				"method": "rhf"
			},
			{
				"type": "occ",
				"energy": -0.27698,
				"method": "rhf"
			},
			{
				"type": "occ",
				"energy": -0.27125,
				"method": "rhf"
			},
			{
				"type": "occ",
				"energy": -0.26493,
				"method": "rhf"
			},
			{
				"type": "unocc",
				"energy": -0.0225,
				"method": "rhf"
			},
			{
				"type": "unocc",
				"energy": 0.00339,
				"method": "rhf"
			},
			{
				"type": "unocc",
				"energy": 0.01392,
				"method": "rhf"
			},
			{
				"type": "unocc",
				"energy": 0.04854,
				"method": "rhf"
			},
			{
				"type": "unocc",
				"energy": 0.09901,
				"method": "rhf"
			}
		],
		"cosmo_sigma_profile": { 
			"-0.025": 0.0,
			"-0.024": 0.0,
			"-0.023": 0.0,
			"-0.022": 0.0,
			"-0.021": 0.0,
			"-0.02": 0.0,
			"-0.019": 0.0,
			"-0.018": 0.0,
			"-0.017": 0.0,
			"-0.016": 0.831571451156,
			"-0.015": 2.64007112342,
			"-0.014": 2.99307982347,
			"-0.013": 3.04807961601,
			"-0.012": 3.46612031047,
			"-0.011": 3.49693384174,
			"-0.01": 4.64769810094,
			"-0.009": 4.98676612941,
			"-0.008": 7.25301329919,
			"-0.007": 5.62829847594,
			"-0.006": 5.4861627811,
			"-0.005": 4.41505178548,
			"-0.004": 4.42783965621,
			"-0.003": 5.1932416909,
			"-0.002": 7.49249518637,
			"-0.001": 7.06243473296,
			"0.0": 5.06978107393,
			"0.001": 8.15478621466,
			"0.002": 8.78710174697,
			"0.003": 8.80017736651,
			"0.004": 11.7806377861,
			"0.005": 16.6708568104,
			"0.006": 9.3597474926,
			"0.007": 5.55265895404,
			"0.008": 3.97470362965,
			"0.009": 2.26708326241,
			"0.01": 1.47112383101,
			"0.011": 3.06191040737,
			"0.012": 3.69387290753,
			"0.013": 5.46732984715,
			"0.014": 1.370332337,
			"0.015": 0.0,
			"0.016": 0.0,
			"0.017": 0.0,
			"0.018": 0.0,
			"0.019": 0.0,
			"0.02": 0.0,
			"0.021": 0.0,
			"0.022": 0.0,
			"0.023": 0.0,
			"0.024": 0.0,
			"0.025": 0.0
		}
	}
}
