{
	 "smiles": "BrCC(Br)(Br)CBr", 
	 "Tm": 283.95, 
	 "num_atms": 11, 
	 "gaussian": { 
		 "optdone": 1, 
		 "sigma_profile": "yes", 
		 "theory": "DFT", 
		 "functional": "B3LYP", 
		 "basiset": "6-31G**", 
		 "properties": { 
			 "R2extent": 3542.1878, 
			 "electric_dipole_moment_norm": 2.79854525602, 
			 "electric_quadrupole_moment_norm": 7.4501003906, 
			 "total_energy": -10402.3351829, 
			 "HOMO_LUMO_gap": 0.20976, 
			 "cosmo_polarized_energy": -10.64, 
			 "cosmo_cavitation_energy": 23.0, 
			 "cosmo_dispersion_energy": -18.1, 
			 "cosmo_repulsion_energy": 1.49, 
			 "cosmo_total_nonelectrostatic_energy": 6.38, 
			 "SMD_solvation_energy": -0.49 
		},
		"coords": [
			{
				"x": 0.5034619489,
				"y": -3.0286451381,
				"z": -0.9793397715,
				"element": "Br" 
			},
			{
				"x": -0.3671281812,
				"y": -1.3226244156,
				"z": -1.3753559861,
				"element": "C" 
			},
			{
				"x": -0.3367539576,
				"y": -0.2746093646,
				"z": -0.2570318321,
				"element": "C" 
			},
			{
				"x": -1.2622657533,
				"y": -0.971793279,
				"z": 1.3387138361,
				"element": "Br" 
			},
			{
				"x": 1.5307663435,
				"y": 0.1842759206,
				"z": 0.179351264,
				"element": "Br" 
			},
			{
				"x": -1.0682460533,
				"y": 0.9660919994,
				"z": -0.7819556638,
				"element": "C" 
			},
			{
				"x": -1.1838843757,
				"y": 2.4815547541,
				"z": 0.4489831865,
				"element": "Br" 
			},
			{
				"x": -1.4023389174,
				"y": -1.566472885,
				"z": -1.6161626276,
				"element": "H" 
			},
			{
				"x": 0.1400923301,
				"y": -0.9280163488,
				"z": -2.2563374853,
				"element": "H" 
			},
			{
				"x": -0.5554851562,
				"y": 1.3418240767,
				"z": -1.6679691835,
				"element": "H" 
			},
			{
				"x": -2.0978182277,
				"y": 0.7036146804,
				"z": -1.0272957367,
				"element": "H" 
			}
		],
		 "valence_orbital": [ 
			{
				"type": "occ",
				"energy": -0.29397,
				"method": "rhf"
			},
			{
				"type": "occ",
				"energy": -0.29098,
				"method": "rhf"
			},
			{
				"type": "occ",
				"energy": -0.28242,
				"method": "rhf"
			},
			{
				"type": "occ",
				"energy": -0.2797,
				"method": "rhf"
			},
			{
				"type": "occ",
				"energy": -0.27591,
				"method": "rhf"
			},
			{
				"type": "unocc",
				"energy": -0.06615,
				"method": "rhf"
			},
			{
				"type": "unocc",
				"energy": -0.01764,
				"method": "rhf"
			},
			{
				"type": "unocc",
				"energy": -0.01501,
				"method": "rhf"
			},
			{
				"type": "unocc",
				"energy": 0.01787,
				"method": "rhf"
			},
			{
				"type": "unocc",
				"energy": 0.06777,
				"method": "rhf"
			}
		],
		"cosmo_sigma_profile": { 
			"-0.025": 0.0,
			"-0.024": 0.0,
			"-0.023": 0.0,
			"-0.022": 0.0,
			"-0.021": 0.0,
			"-0.02": 0.0,
			"-0.019": 0.0,
			"-0.018": 0.0,
			"-0.017": 0.0,
			"-0.016": 0.0,
			"-0.015": 0.0,
			"-0.014": 0.0,
			"-0.013": 0.0447571351276,
			"-0.012": 1.31967707989,
			"-0.011": 3.13882376126,
			"-0.01": 5.76709155383,
			"-0.009": 7.79229264871,
			"-0.008": 6.4961571801,
			"-0.007": 4.96868176601,
			"-0.006": 5.30695353528,
			"-0.005": 5.89884847847,
			"-0.004": 7.30668565694,
			"-0.003": 8.90560668274,
			"-0.002": 8.24469232246,
			"-0.001": 10.0111755707,
			"0.0": 9.68767080756,
			"0.001": 11.4914074943,
			"0.002": 12.9203931814,
			"0.003": 18.7806808404,
			"0.004": 27.8068715624,
			"0.005": 26.5886228519,
			"0.006": 11.6767098807,
			"0.007": 0.399392958821,
			"0.008": 0.0,
			"0.009": 0.0,
			"0.01": 0.0,
			"0.011": 0.0,
			"0.012": 0.0,
			"0.013": 0.0,
			"0.014": 0.0,
			"0.015": 0.0,
			"0.016": 0.0,
			"0.017": 0.0,
			"0.018": 0.0,
			"0.019": 0.0,
			"0.02": 0.0,
			"0.021": 0.0,
			"0.022": 0.0,
			"0.023": 0.0,
			"0.024": 0.0,
			"0.025": 0.0
		}
	}
}
