{
	 "smiles": "CN1C(S)=NC2=C(C3=C(CCCC3)S2)C1=O", 
	 "Tm": 578.15, 
	 "num_atms": 28, 
	 "gaussian": { 
		 "optdone": 1, 
		 "sigma_profile": "yes", 
		 "theory": "DFT", 
		 "functional": "B3LYP", 
		 "basiset": "6-31G**", 
		 "properties": { 
			 "R2extent": 5859.3428, 
			 "electric_dipole_moment_norm": 0.589532170454, 
			 "electric_quadrupole_moment_norm": 16.1753965203, 
			 "total_energy": -1407.53501761, 
			 "HOMO_LUMO_gap": 0.1655, 
			 "cosmo_polarized_energy": -9.22, 
			 "cosmo_cavitation_energy": 32.84, 
			 "cosmo_dispersion_energy": -25.74, 
			 "cosmo_repulsion_energy": 1.89, 
			 "cosmo_total_nonelectrostatic_energy": 9.0, 
			 "SMD_solvation_energy": 2.93 
		},
		"coords": [
			{
				"x": 2.1823317656,
				"y": -0.4644176057,
				"z": -4.2681799068,
				"element": "C" 
			},
			{
				"x": 1.0304666452,
				"y": -0.5935013398,
				"z": -3.3698752403,
				"element": "N" 
			},
			{
				"x": -0.1972545369,
				"y": -0.9900777881,
				"z": -3.8391686427,
				"element": "C" 
			},
			{
				"x": -0.3072880684,
				"y": -1.3332764229,
				"z": -5.5885492313,
				"element": "S" 
			},
			{
				"x": -1.2685994477,
				"y": -1.1309213908,
				"z": -3.1101075245,
				"element": "N" 
			},
			{
				"x": -1.1093191545,
				"y": -0.8519524724,
				"z": -1.7911682542,
				"element": "C" 
			},
			{
				"x": 0.0653484029,
				"y": -0.4393299388,
				"z": -1.1724207328,
				"element": "C" 
			},
			{
				"x": -0.0807176774,
				"y": -0.2249274621,
				"z": 0.2440906985,
				"element": "C" 
			},
			{
				"x": -1.3583991158,
				"y": -0.4716556812,
				"z": 0.666888135,
				"element": "C" 
			},
			{
				"x": -1.8473306195,
				"y": -0.3471567034,
				"z": 2.0838380521,
				"element": "C" 
			},
			{
				"x": -0.8390633136,
				"y": 0.4602337503,
				"z": 2.9232378411,
				"element": "C" 
			},
			{
				"x": 0.601711301,
				"y": 0.0002119714,
				"z": 2.6569695647,
				"element": "C" 
			},
			{
				"x": 1.006741396,
				"y": 0.2247297463,
				"z": 1.1906103508,
				"element": "C" 
			},
			{
				"x": -2.4199793464,
				"y": -0.980705667,
				"z": -0.6440350314,
				"element": "S" 
			},
			{
				"x": 1.2515051648,
				"y": -0.2847305796,
				"z": -1.9803548926,
				"element": "C" 
			},
			{
				"x": 2.3630812604,
				"y": 0.0660565874,
				"z": -1.5991688222,
				"element": "O" 
			},
			{
				"x": 1.9828307357,
				"y": 0.2818720199,
				"z": -5.0423781566,
				"element": "H" 
			},
			{
				"x": 2.412378712,
				"y": -1.4255007377,
				"z": -4.7366212663,
				"element": "H" 
			},
			{
				"x": 3.0228104206,
				"y": -0.1431643962,
				"z": -3.6557951389,
				"element": "H" 
			},
			{
				"x": -1.6121534917,
				"y": -1.6495909024,
				"z": -5.5029361815,
				"element": "H" 
			},
			{
				"x": -1.9796787333,
				"y": -1.3473543515,
				"z": 2.5217073237,
				"element": "H" 
			},
			{
				"x": -2.834249645,
				"y": 0.1307101691,
				"z": 2.1131540612,
				"element": "H" 
			},
			{
				"x": -1.086537516,
				"y": 0.3613246858,
				"z": 3.9859265816,
				"element": "H" 
			},
			{
				"x": -0.9316949976,
				"y": 1.524915066,
				"z": 2.6724717978,
				"element": "H" 
			},
			{
				"x": 0.6876252958,
				"y": -1.0675469501,
				"z": 2.8995608783,
				"element": "H" 
			},
			{
				"x": 1.2978376395,
				"y": 0.52908808,
				"z": 3.3171570212,
				"element": "H" 
			},
			{
				"x": 1.9402630054,
				"y": -0.2941973141,
				"z": 0.9549138097,
				"element": "H" 
			},
			{
				"x": 1.2165339189,
				"y": 1.2891656276,
				"z": 1.0156329066,
				"element": "H" 
			}
		],
		 "valence_orbital": [ 
			{
				"type": "occ",
				"energy": -0.28298,
				"method": "rhf"
			},
			{
				"type": "occ",
				"energy": -0.27958,
				"method": "rhf"
			},
			{
				"type": "occ",
				"energy": -0.26423,
				"method": "rhf"
			},
			{
				"type": "occ",
				"energy": -0.25018,
				"method": "rhf"
			},
			{
				"type": "occ",
				"energy": -0.20617,
				"method": "rhf"
			},
			{
				"type": "unocc",
				"energy": -0.04067,
				"method": "rhf"
			},
			{
				"type": "unocc",
				"energy": -0.00678,
				"method": "rhf"
			},
			{
				"type": "unocc",
				"energy": -0.00161,
				"method": "rhf"
			},
			{
				"type": "unocc",
				"energy": 0.02293,
				"method": "rhf"
			},
			{
				"type": "unocc",
				"energy": 0.03015,
				"method": "rhf"
			}
		],
		"cosmo_sigma_profile": { 
			"-0.025": 0.0,
			"-0.024": 0.0,
			"-0.023": 0.0,
			"-0.022": 0.0,
			"-0.021": 0.0,
			"-0.02": 0.0,
			"-0.019": 0.0,
			"-0.018": 0.0,
			"-0.017": 0.0,
			"-0.016": 0.0,
			"-0.015": 0.0,
			"-0.014": 0.0,
			"-0.013": 0.0,
			"-0.012": 0.960544278296,
			"-0.011": 1.31884750966,
			"-0.01": 1.38226007094,
			"-0.009": 1.28619411545,
			"-0.008": 0.845903795829,
			"-0.007": 2.57538002193,
			"-0.006": 5.82762181267,
			"-0.005": 10.2248798299,
			"-0.004": 17.145738218,
			"-0.003": 30.7706549655,
			"-0.002": 32.4514627411,
			"-0.001": 30.3480752395,
			"0.0": 25.961960275,
			"0.001": 22.0447923449,
			"0.002": 21.3813438204,
			"0.003": 18.0189917952,
			"0.004": 11.3203192173,
			"0.005": 6.94310569931,
			"0.006": 4.81872160544,
			"0.007": 3.2264997873,
			"0.008": 2.80762903959,
			"0.009": 2.005153922,
			"0.01": 3.04658950328,
			"0.011": 2.6871402758,
			"0.012": 3.06706806844,
			"0.013": 2.31856205127,
			"0.014": 0.0,
			"0.015": 0.0,
			"0.016": 0.0,
			"0.017": 0.0,
			"0.018": 0.0,
			"0.019": 0.0,
			"0.02": 0.0,
			"0.021": 0.0,
			"0.022": 0.0,
			"0.023": 0.0,
			"0.024": 0.0,
			"0.025": 0.0
		}
	}
}
