{
	 "smiles": "CC(=O)OC[C@H]1O[C@H](OC(C)=O)[C@H](OC(C)=O)[C@@H](OC(C)=O)[C@@H]1O[C@@H]1O[C@H](COC(C)=O)[C@@H](OC(C)=O)[C@H](OC(C)=O)[C@H]1OC(C)=O", 
	 "Tm": 503.15, 
	 "num_atms": 85, 
	 "gaussian": { 
		 "optdone": 1, 
		 "sigma_profile": "yes", 
		 "theory": "DFT", 
		 "functional": "B3LYP", 
		 "basiset": "6-31G**", 
		 "properties": { 
			 "R2extent": 31865.5684, 
			 "electric_dipole_moment_norm": 4.64834035436, 
			 "electric_quadrupole_moment_norm": 49.1281750985, 
			 "total_energy": -2519.20646279, 
			 "HOMO_LUMO_gap": 0.25859, 
			 "cosmo_polarized_energy": -39.55, 
			 "cosmo_cavitation_energy": 88.06, 
			 "cosmo_dispersion_energy": -51.1, 
			 "cosmo_repulsion_energy": 3.93, 
			 "cosmo_total_nonelectrostatic_energy": 40.89, 
			 "SMD_solvation_energy": 21.71 
		},
		"coords": [
			{
				"x": 1.2472829234,
				"y": 3.6204821598,
				"z": -6.2618380803,
				"element": "C" 
			},
			{
				"x": 1.3286496408,
				"y": 2.5694684952,
				"z": -5.1820191616,
				"element": "C" 
			},
			{
				"x": 2.301953335,
				"y": 1.883643041,
				"z": -4.9424404681,
				"element": "O" 
			},
			{
				"x": 0.1646159412,
				"y": 2.4803118739,
				"z": -4.5054017407,
				"element": "O" 
			},
			{
				"x": 0.1283423593,
				"y": 1.4918084986,
				"z": -3.4611650052,
				"element": "C" 
			},
			{
				"x": -1.1889219256,
				"y": 1.6333164805,
				"z": -2.7145197131,
				"element": "C" 
			},
			{
				"x": -2.2803170923,
				"y": 1.2991310297,
				"z": -3.5836647946,
				"element": "O" 
			},
			{
				"x": -2.9969964017,
				"y": 0.1441181819,
				"z": -3.2387369109,
				"element": "C" 
			},
			{
				"x": -4.0255308831,
				"y": 0.0050259029,
				"z": -4.19822248,
				"element": "O" 
			},
			{
				"x": -3.6910977147,
				"y": -0.6578097263,
				"z": -5.3513008982,
				"element": "C" 
			},
			{
				"x": -4.8373621037,
				"y": -0.6107612314,
				"z": -6.327464566,
				"element": "C" 
			},
			{
				"x": -2.6247532645,
				"y": -1.1946446763,
				"z": -5.5297231998,
				"element": "O" 
			},
			{
				"x": -3.625301602,
				"y": 0.2522834667,
				"z": -1.8474318303,
				"element": "C" 
			},
			{
				"x": -4.7437103326,
				"y": 1.1537238921,
				"z": -1.835385131,
				"element": "O" 
			},
			{
				"x": -4.6002704429,
				"y": 2.4966948391,
				"z": -1.7132223605,
				"element": "C" 
			},
			{
				"x": -5.9499629334,
				"y": 3.1643642561,
				"z": -1.8118090115,
				"element": "C" 
			},
			{
				"x": -3.5501524089,
				"y": 3.0707225133,
				"z": -1.5308514977,
				"element": "O" 
			},
			{
				"x": -2.5142752042,
				"y": 0.5212543567,
				"z": -0.7924056055,
				"element": "C" 
			},
			{
				"x": -2.3313784803,
				"y": -0.6760944398,
				"z": 0.0086179174,
				"element": "O" 
			},
			{
				"x": -3.2245824438,
				"y": -0.8789777518,
				"z": 1.0100559579,
				"element": "C" 
			},
			{
				"x": -2.8873226813,
				"y": -2.115002724,
				"z": 1.8043750654,
				"element": "C" 
			},
			{
				"x": -4.164400673,
				"y": -0.1416214525,
				"z": 1.2196148289,
				"element": "O" 
			},
			{
				"x": -1.136110997,
				"y": 0.777345913,
				"z": -1.4270841499,
				"element": "C" 
			},
			{
				"x": -0.2556940677,
				"y": 1.4917317671,
				"z": -0.5653636435,
				"element": "O" 
			},
			{
				"x": 0.3688172639,
				"y": 0.8005507718,
				"z": 0.4710952358,
				"element": "C" 
			},
			{
				"x": -0.285307305,
				"y": 1.1663020339,
				"z": 1.6835325505,
				"element": "O" 
			},
			{
				"x": 0.2211872154,
				"y": 0.5083154488,
				"z": 2.8379542872,
				"element": "C" 
			},
			{
				"x": -0.6096746645,
				"y": 0.9633681506,
				"z": 4.0248398349,
				"element": "C" 
			},
			{
				"x": -1.9133610121,
				"y": 0.3641090998,
				"z": 3.9347029855,
				"element": "O" 
			},
			{
				"x": -2.8361577824,
				"y": 0.8535083285,
				"z": 4.8113075866,
				"element": "C" 
			},
			{
				"x": -4.1701137524,
				"y": 0.1743638299,
				"z": 4.6358872533,
				"element": "C" 
			},
			{
				"x": -2.5762222674,
				"y": 1.7147976784,
				"z": 5.6206140357,
				"element": "O" 
			},
			{
				"x": 1.7068805718,
				"y": 0.8650469046,
				"z": 3.0601213318,
				"element": "C" 
			},
			{
				"x": 2.1899908943,
				"y": -0.0511858912,
				"z": 4.0683051623,
				"element": "O" 
			},
			{
				"x": 3.1192788557,
				"y": 0.3936375352,
				"z": 4.9587897748,
				"element": "C" 
			},
			{
				"x": 3.4972627043,
				"y": -0.7113083897,
				"z": 5.914054246,
				"element": "C" 
			},
			{
				"x": 3.5664889,
				"y": 1.5175255446,
				"z": 4.9695059448,
				"element": "O" 
			},
			{
				"x": 2.5147528046,
				"y": 0.6529015088,
				"z": 1.7731282094,
				"element": "C" 
			},
			{
				"x": 3.8914261168,
				"y": 1.0488987471,
				"z": 1.9296770711,
				"element": "O" 
			},
			{
				"x": 4.1999699252,
				"y": 2.3633643099,
				"z": 2.1266329067,
				"element": "C" 
			},
			{
				"x": 5.6668346824,
				"y": 2.5167912725,
				"z": 2.4318214476,
				"element": "C" 
			},
			{
				"x": 3.3937278374,
				"y": 3.2650129878,
				"z": 2.0845737569,
				"element": "O" 
			},
			{
				"x": 1.8210337319,
				"y": 1.300019835,
				"z": 0.5638248551,
				"element": "C" 
			},
			{
				"x": 2.5916474847,
				"y": 1.1314079428,
				"z": -0.6441876533,
				"element": "O" 
			},
			{
				"x": 2.8037364866,
				"y": -0.1067250278,
				"z": -1.1611048215,
				"element": "C" 
			},
			{
				"x": 3.7072291825,
				"y": -0.0316734829,
				"z": -2.3640551491,
				"element": "C" 
			},
			{
				"x": 2.3097060925,
				"y": -1.1208526049,
				"z": -0.7092197063,
				"element": "O" 
			},
			{
				"x": 2.2102669795,
				"y": 3.6999796653,
				"z": -6.7649539749,
				"element": "H" 
			},
			{
				"x": 0.4704156953,
				"y": 3.3511532309,
				"z": -6.9836140943,
				"element": "H" 
			},
			{
				"x": 0.9682123647,
				"y": 4.5846109963,
				"z": -5.8273673041,
				"element": "H" 
			},
			{
				"x": 0.9615736944,
				"y": 1.6568996575,
				"z": -2.7748447135,
				"element": "H" 
			},
			{
				"x": 0.2182918866,
				"y": 0.494375809,
				"z": -3.9059096784,
				"element": "H" 
			},
			{
				"x": -1.3384268321,
				"y": 2.671827291,
				"z": -2.4112327028,
				"element": "H" 
			},
			{
				"x": -2.3577466383,
				"y": -0.7495829933,
				"z": -3.2742056869,
				"element": "H" 
			},
			{
				"x": -4.6164092458,
				"y": -1.2534223617,
				"z": -7.1789115544,
				"element": "H" 
			},
			{
				"x": -4.9790006783,
				"y": 0.4191242449,
				"z": -6.6701349051,
				"element": "H" 
			},
			{
				"x": -5.7653776156,
				"y": -0.9239755607,
				"z": -5.8418672053,
				"element": "H" 
			},
			{
				"x": -4.0844514347,
				"y": -0.71017927,
				"z": -1.6135359069,
				"element": "H" 
			},
			{
				"x": -6.619536126,
				"y": 2.7667443429,
				"z": -1.0438847426,
				"element": "H" 
			},
			{
				"x": -6.4008047603,
				"y": 2.9484844022,
				"z": -2.7847764775,
				"element": "H" 
			},
			{
				"x": -5.8303389746,
				"y": 4.2396683464,
				"z": -1.6851005452,
				"element": "H" 
			},
			{
				"x": -2.7877395778,
				"y": 1.3481050985,
				"z": -0.1428724361,
				"element": "H" 
			},
			{
				"x": -2.2423400135,
				"y": -2.7925224751,
				"z": 1.2434518288,
				"element": "H" 
			},
			{
				"x": -2.3711703965,
				"y": -1.7967805018,
				"z": 2.7151190886,
				"element": "H" 
			},
			{
				"x": -3.8112167007,
				"y": -2.6188018168,
				"z": 2.0946108877,
				"element": "H" 
			},
			{
				"x": -0.6952704392,
				"y": -0.2043026238,
				"z": -1.6555095328,
				"element": "H" 
			},
			{
				"x": 0.3156015979,
				"y": -0.2837842512,
				"z": 0.323806066,
				"element": "H" 
			},
			{
				"x": 0.1436758191,
				"y": -0.5851915751,
				"z": 2.7241734639,
				"element": "H" 
			},
			{
				"x": -0.7028323249,
				"y": 2.0524473603,
				"z": 4.0211280676,
				"element": "H" 
			},
			{
				"x": -0.1329372379,
				"y": 0.6580171559,
				"z": 4.9607379714,
				"element": "H" 
			},
			{
				"x": -4.9139875252,
				"y": 0.6912283396,
				"z": 5.2416411293,
				"element": "H" 
			},
			{
				"x": -4.4620929983,
				"y": 0.1660217677,
				"z": 3.5822370079,
				"element": "H" 
			},
			{
				"x": -4.0973091445,
				"y": -0.8665749657,
				"z": 4.9696069076,
				"element": "H" 
			},
			{
				"x": 1.8164059457,
				"y": 1.8924713377,
				"z": 3.4122833322,
				"element": "H" 
			},
			{
				"x": 4.1928095859,
				"y": -0.3241068323,
				"z": 6.6576446779,
				"element": "H" 
			},
			{
				"x": 3.9631203465,
				"y": -1.5332468776,
				"z": 5.3619207115,
				"element": "H" 
			},
			{
				"x": 2.6055324001,
				"y": -1.1114015058,
				"z": 6.4045691236,
				"element": "H" 
			},
			{
				"x": 2.5878047616,
				"y": -0.4225156755,
				"z": 1.5968741598,
				"element": "H" 
			},
			{
				"x": 5.9670948606,
				"y": 3.5495004048,
				"z": 2.2547395892,
				"element": "H" 
			},
			{
				"x": 5.8144519245,
				"y": 2.2782408946,
				"z": 3.4902150918,
				"element": "H" 
			},
			{
				"x": 6.2713757221,
				"y": 1.8288841745,
				"z": 1.8371725768,
				"element": "H" 
			},
			{
				"x": 1.7769586361,
				"y": 2.3799859565,
				"z": 0.692022614,
				"element": "H" 
			},
			{
				"x": 4.6262989941,
				"y": 0.5024116546,
				"z": -2.1072131521,
				"element": "H" 
			},
			{
				"x": 3.2224840308,
				"y": 0.5269506574,
				"z": -3.1725777409,
				"element": "H" 
			},
			{
				"x": 3.9400769051,
				"y": -1.041834701,
				"z": -2.7000566092,
				"element": "H" 
			}
		],
		 "valence_orbital": [ 
			{
				"type": "occ",
				"energy": -0.27437,
				"method": "rhf"
			},
			{
				"type": "occ",
				"energy": -0.27298,
				"method": "rhf"
			},
			{
				"type": "occ",
				"energy": -0.27052,
				"method": "rhf"
			},
			{
				"type": "occ",
				"energy": -0.26454,
				"method": "rhf"
			},
			{
				"type": "occ",
				"energy": -0.263,
				"method": "rhf"
			},
			{
				"type": "unocc",
				"energy": -0.00441,
				"method": "rhf"
			},
			{
				"type": "unocc",
				"energy": -0.00214,
				"method": "rhf"
			},
			{
				"type": "unocc",
				"energy": -0.00127,
				"method": "rhf"
			},
			{
				"type": "unocc",
				"energy": 0.00101,
				"method": "rhf"
			},
			{
				"type": "unocc",
				"energy": 0.00575,
				"method": "rhf"
			}
		],
		"cosmo_sigma_profile": { 
			"-0.025": 0.0,
			"-0.024": 0.0,
			"-0.023": 0.0,
			"-0.022": 0.0,
			"-0.021": 0.0,
			"-0.02": 0.0,
			"-0.019": 0.0,
			"-0.018": 0.0,
			"-0.017": 0.0,
			"-0.016": 0.0,
			"-0.015": 0.0,
			"-0.014": 0.0,
			"-0.013": 0.0,
			"-0.012": 0.179832892522,
			"-0.011": 1.49690292729,
			"-0.01": 2.17701768083,
			"-0.009": 5.35314870271,
			"-0.008": 6.76432966344,
			"-0.007": 19.0519783051,
			"-0.006": 45.0374651792,
			"-0.005": 53.4740084256,
			"-0.004": 64.1864191307,
			"-0.003": 73.297208839,
			"-0.002": 79.9144552184,
			"-0.001": 51.5724219487,
			"0.0": 30.7560589849,
			"0.001": 30.9469495133,
			"0.002": 29.5187266792,
			"0.003": 23.8699666848,
			"0.004": 22.2307447807,
			"0.005": 25.2678748529,
			"0.006": 19.3219515192,
			"0.007": 19.0149252917,
			"0.008": 18.1973149206,
			"0.009": 17.0506913014,
			"0.01": 18.1762234507,
			"0.011": 20.0802438992,
			"0.012": 12.9213860654,
			"0.013": 2.32366422201,
			"0.014": 0.00755128240621,
			"0.015": 0.0,
			"0.016": 0.0,
			"0.017": 0.0,
			"0.018": 0.0,
			"0.019": 0.0,
			"0.02": 0.0,
			"0.021": 0.0,
			"0.022": 0.0,
			"0.023": 0.0,
			"0.024": 0.0,
			"0.025": 0.0
		}
	}
}
