{
	 "smiles": "FC1=C(F)C(F)=C(S)C(F)=C1F", 
	 "Tm": 249.15, 
	 "num_atms": 13, 
	 "gaussian": { 
		 "optdone": 1, 
		 "sigma_profile": "yes", 
		 "theory": "DFT", 
		 "functional": "B3LYP", 
		 "basiset": "6-31G**", 
		 "properties": { 
			 "R2extent": 2823.2469, 
			 "electric_dipole_moment_norm": 1.27841405264, 
			 "electric_quadrupole_moment_norm": 4.54777013931, 
			 "total_energy": -1126.55655439, 
			 "HOMO_LUMO_gap": 0.21239, 
			 "cosmo_polarized_energy": -3.76, 
			 "cosmo_cavitation_energy": 22.2, 
			 "cosmo_dispersion_energy": -16.3, 
			 "cosmo_repulsion_energy": 1.15, 
			 "cosmo_total_nonelectrostatic_energy": 7.05, 
			 "SMD_solvation_energy": 5.76 
		},
		"coords": [
			{
				"x": -0.7355124414,
				"y": -3.2218315384,
				"z": 2.4583132396,
				"element": "F" 
			},
			{
				"x": -0.3841251887,
				"y": -2.3796016748,
				"z": 1.4830969928,
				"element": "C" 
			},
			{
				"x": -0.772222824,
				"y": -2.6300716027,
				"z": 0.1684213477,
				"element": "C" 
			},
			{
				"x": -1.4979034563,
				"y": -3.7152569158,
				"z": -0.1190369338,
				"element": "F" 
			},
			{
				"x": -0.4019862618,
				"y": -1.7475963114,
				"z": -0.8422470103,
				"element": "C" 
			},
			{
				"x": -0.7916445318,
				"y": -2.0166484178,
				"z": -2.1006277583,
				"element": "F" 
			},
			{
				"x": 0.356160609,
				"y": -0.6040090565,
				"z": -0.5761356974,
				"element": "C" 
			},
			{
				"x": 0.8567691531,
				"y": 0.5550886668,
				"z": -1.8231112594,
				"element": "S" 
			},
			{
				"x": 0.7324233646,
				"y": -0.375761517,
				"z": 0.7498430913,
				"element": "C" 
			},
			{
				"x": 1.4603919049,
				"y": 0.7100936332,
				"z": 1.0478056649,
				"element": "F" 
			},
			{
				"x": 0.3721857748,
				"y": -1.2461650201,
				"z": 1.7744191379,
				"element": "C" 
			},
			{
				"x": 0.7487352282,
				"y": -0.9979531745,
				"z": 3.0322664663,
				"element": "F" 
			},
			{
				"x": 0.2641286695,
				"y": -0.1063870709,
				"z": -2.8342072813,
				"element": "H" 
			}
		],
		 "valence_orbital": [ 
			{
				"type": "occ",
				"energy": -0.3787,
				"method": "rhf"
			},
			{
				"type": "occ",
				"energy": -0.37472,
				"method": "rhf"
			},
			{
				"type": "occ",
				"energy": -0.31387,
				"method": "rhf"
			},
			{
				"type": "occ",
				"energy": -0.26422,
				"method": "rhf"
			},
			{
				"type": "occ",
				"energy": -0.24334,
				"method": "rhf"
			},
			{
				"type": "unocc",
				"energy": -0.03095,
				"method": "rhf"
			},
			{
				"type": "unocc",
				"energy": -0.02372,
				"method": "rhf"
			},
			{
				"type": "unocc",
				"energy": -0.01276,
				"method": "rhf"
			},
			{
				"type": "unocc",
				"energy": 0.01506,
				"method": "rhf"
			},
			{
				"type": "unocc",
				"energy": 0.06609,
				"method": "rhf"
			}
		],
		"cosmo_sigma_profile": { 
			"-0.025": 0.0,
			"-0.024": 0.0,
			"-0.023": 0.0,
			"-0.022": 0.0,
			"-0.021": 0.0,
			"-0.02": 0.0,
			"-0.019": 0.0,
			"-0.018": 0.0,
			"-0.017": 0.0,
			"-0.016": 0.0,
			"-0.015": 0.0,
			"-0.014": 0.0,
			"-0.013": 0.0171389471078,
			"-0.012": 0.610938689646,
			"-0.011": 1.26722637229,
			"-0.01": 0.982972016431,
			"-0.009": 1.42556090671,
			"-0.008": 1.35331445171,
			"-0.007": 1.38039255447,
			"-0.006": 1.96596273389,
			"-0.005": 3.32752677839,
			"-0.004": 11.7481360355,
			"-0.003": 21.4201776684,
			"-0.002": 14.1487813585,
			"-0.001": 13.2743647838,
			"0.0": 9.63403856667,
			"0.001": 17.390538862,
			"0.002": 45.8307605514,
			"0.003": 27.4929089588,
			"0.004": 3.25136580172,
			"0.005": 2.44353460325,
			"0.006": 2.66517483032,
			"0.007": 1.49618290119,
			"0.008": 0.0664335289443,
			"0.009": 0.0,
			"0.01": 0.0,
			"0.011": 0.0,
			"0.012": 0.0,
			"0.013": 0.0,
			"0.014": 0.0,
			"0.015": 0.0,
			"0.016": 0.0,
			"0.017": 0.0,
			"0.018": 0.0,
			"0.019": 0.0,
			"0.02": 0.0,
			"0.021": 0.0,
			"0.022": 0.0,
			"0.023": 0.0,
			"0.024": 0.0,
			"0.025": 0.0
		}
	}
}
