{
	 "smiles": "ClC1=CC2=C(OC3=C(O2)C(Cl)=C(Cl)C(Cl)=C3Cl)C(Cl)=C1Cl", 
	 "Tm": 537.15, 
	 "num_atms": 22, 
	 "gaussian": { 
		 "optdone": 1, 
		 "sigma_profile": "yes", 
		 "theory": "DFT", 
		 "functional": "B3LYP", 
		 "basiset": "6-31G**", 
		 "properties": { 
			 "R2extent": 14520.9574, 
			 "electric_dipole_moment_norm": 0.988599241351, 
			 "electric_quadrupole_moment_norm": 6.3137345082, 
			 "total_energy": -3829.61543366, 
			 "HOMO_LUMO_gap": 0.17152, 
			 "cosmo_polarized_energy": -5.98, 
			 "cosmo_cavitation_energy": 39.71, 
			 "cosmo_dispersion_energy": -29.9, 
			 "cosmo_repulsion_energy": 2.26, 
			 "cosmo_total_nonelectrostatic_energy": 12.07, 
			 "SMD_solvation_energy": 5.44 
		},
		"coords": [
			{
				"x": -0.7863555769,
				"y": -1.5765793422,
				"z": -3.7449491528,
				"element": "Cl" 
			},
			{
				"x": -0.504275967,
				"y": -0.6205952243,
				"z": -2.3162782083,
				"element": "C" 
			},
			{
				"x": -1.4631262033,
				"y": -0.6554028104,
				"z": -1.3030390029,
				"element": "C" 
			},
			{
				"x": -1.2701876458,
				"y": 0.0927558019,
				"z": -0.1537929513,
				"element": "C" 
			},
			{
				"x": -0.1297814589,
				"y": 0.8806323845,
				"z": 0.0039472453,
				"element": "C" 
			},
			{
				"x": 0.077922301,
				"y": 1.6292897743,
				"z": 1.1371763672,
				"element": "O" 
			},
			{
				"x": -0.8899073395,
				"y": 1.5659960826,
				"z": 2.1083826099,
				"element": "C" 
			},
			{
				"x": -2.0323136696,
				"y": 0.7784255683,
				"z": 1.9538688553,
				"element": "C" 
			},
			{
				"x": -2.2402366208,
				"y": 0.0309865473,
				"z": 0.8229643596,
				"element": "O" 
			},
			{
				"x": -2.9988542065,
				"y": 0.7348189419,
				"z": 2.9598570676,
				"element": "C" 
			},
			{
				"x": -4.3979757561,
				"y": -0.2597075813,
				"z": 2.7157738222,
				"element": "Cl" 
			},
			{
				"x": -2.8213902142,
				"y": 1.4874809241,
				"z": 4.134433634,
				"element": "C" 
			},
			{
				"x": -4.0241920268,
				"y": 1.4304638112,
				"z": 5.3817613757,
				"element": "Cl" 
			},
			{
				"x": -1.6723526194,
				"y": 2.2797258301,
				"z": 4.2897334722,
				"element": "C" 
			},
			{
				"x": -1.4385762779,
				"y": 3.2136089332,
				"z": 5.7315900548,
				"element": "Cl" 
			},
			{
				"x": -0.7039452051,
				"y": 2.3171606455,
				"z": 3.2702882482,
				"element": "C" 
			},
			{
				"x": 0.7312848805,
				"y": 3.2774587854,
				"z": 3.410485698,
				"element": "Cl" 
			},
			{
				"x": 0.8327220534,
				"y": 0.9185779932,
				"z": -1.0073183347,
				"element": "C" 
			},
			{
				"x": 2.2353363208,
				"y": 1.9097344224,
				"z": -0.7720150559,
				"element": "Cl" 
			},
			{
				"x": 0.6514542298,
				"y": 0.1629746661,
				"z": -2.1833822165,
				"element": "C" 
			},
			{
				"x": 1.8456067725,
				"y": 0.2094937332,
				"z": -3.4394536909,
				"element": "Cl" 
			},
			{
				"x": -2.3563557701,
				"y": -1.259499887,
				"z": -1.4028341967,
				"element": "H" 
			}
		],
		 "valence_orbital": [ 
			{
				"type": "occ",
				"energy": -0.3156,
				"method": "rhf"
			},
			{
				"type": "occ",
				"energy": -0.27976,
				"method": "rhf"
			},
			{
				"type": "occ",
				"energy": -0.27701,
				"method": "rhf"
			},
			{
				"type": "occ",
				"energy": -0.25894,
				"method": "rhf"
			},
			{
				"type": "occ",
				"energy": -0.23451,
				"method": "rhf"
			},
			{
				"type": "unocc",
				"energy": -0.06299,
				"method": "rhf"
			},
			{
				"type": "unocc",
				"energy": -0.05305,
				"method": "rhf"
			},
			{
				"type": "unocc",
				"energy": -0.04892,
				"method": "rhf"
			},
			{
				"type": "unocc",
				"energy": -0.04854,
				"method": "rhf"
			},
			{
				"type": "unocc",
				"energy": -0.03332,
				"method": "rhf"
			}
		],
		"cosmo_sigma_profile": { 
			"-0.025": 0.0,
			"-0.024": 0.0,
			"-0.023": 0.0,
			"-0.022": 0.0,
			"-0.021": 0.0,
			"-0.02": 0.0,
			"-0.019": 0.0,
			"-0.018": 0.0,
			"-0.017": 0.0,
			"-0.016": 0.0,
			"-0.015": 0.0,
			"-0.014": 0.0,
			"-0.013": 0.0,
			"-0.012": 0.0,
			"-0.011": 0.0,
			"-0.01": 0.829990035224,
			"-0.009": 2.31650937221,
			"-0.008": 2.7300781828,
			"-0.007": 3.21930759686,
			"-0.006": 3.22948087391,
			"-0.005": 6.42729030119,
			"-0.004": 18.018150334,
			"-0.003": 30.3547758036,
			"-0.002": 44.5300239434,
			"-0.001": 37.7776081403,
			"0.0": 28.4114082751,
			"0.001": 29.30603163,
			"0.002": 41.4346623293,
			"0.003": 60.0363398948,
			"0.004": 20.7007552683,
			"0.005": 5.2962177827,
			"0.006": 2.88435962824,
			"0.007": 0.475314263079,
			"0.008": 0.0,
			"0.009": 0.0,
			"0.01": 0.0,
			"0.011": 0.0,
			"0.012": 0.0,
			"0.013": 0.0,
			"0.014": 0.0,
			"0.015": 0.0,
			"0.016": 0.0,
			"0.017": 0.0,
			"0.018": 0.0,
			"0.019": 0.0,
			"0.02": 0.0,
			"0.021": 0.0,
			"0.022": 0.0,
			"0.023": 0.0,
			"0.024": 0.0,
			"0.025": 0.0
		}
	}
}
