{
	 "smiles": "CN(C)C(CC1=CC=CC=C1)C(O)=O", 
	 "Tm": 499.15, 
	 "num_atms": 29, 
	 "gaussian": { 
		 "optdone": 1, 
		 "sigma_profile": "yes", 
		 "theory": "DFT", 
		 "functional": "B3LYP", 
		 "basiset": "6-31G**", 
		 "properties": { 
			 "R2extent": 3375.1459, 
			 "electric_dipole_moment_norm": 3.65703684422, 
			 "electric_quadrupole_moment_norm": 16.0866401651, 
			 "total_energy": -633.404506823, 
			 "HOMO_LUMO_gap": 0.218, 
			 "cosmo_polarized_energy": -15.65, 
			 "cosmo_cavitation_energy": 31.5, 
			 "cosmo_dispersion_energy": -21.66, 
			 "cosmo_repulsion_energy": 1.7, 
			 "cosmo_total_nonelectrostatic_energy": 11.55, 
			 "SMD_solvation_energy": 5.77 
		},
		"coords": [
			{
				"x": -1.0626860631,
				"y": -1.6996910298,
				"z": -1.3338448142,
				"element": "C" 
			},
			{
				"x": -1.0849688836,
				"y": -0.9242489222,
				"z": -0.1015062648,
				"element": "N" 
			},
			{
				"x": -2.051865748,
				"y": -1.4591132006,
				"z": 0.8562018617,
				"element": "C" 
			},
			{
				"x": -1.1291182954,
				"y": 0.5339842413,
				"z": -0.2952272801,
				"element": "C" 
			},
			{
				"x": -0.5129496555,
				"y": 1.3085215793,
				"z": 0.8907616273,
				"element": "C" 
			},
			{
				"x": 0.9857456979,
				"y": 1.1330917143,
				"z": 0.998164504,
				"element": "C" 
			},
			{
				"x": 1.8494302062,
				"y": 2.1107958762,
				"z": 0.4849789887,
				"element": "C" 
			},
			{
				"x": 3.2350949834,
				"y": 1.9567782674,
				"z": 0.5552982978,
				"element": "C" 
			},
			{
				"x": 3.7815682553,
				"y": 0.8160541435,
				"z": 1.1448379423,
				"element": "C" 
			},
			{
				"x": 2.9328471388,
				"y": -0.164743497,
				"z": 1.6625265033,
				"element": "C" 
			},
			{
				"x": 1.5484735696,
				"y": -0.0073071851,
				"z": 1.5891416086,
				"element": "C" 
			},
			{
				"x": -2.5682117863,
				"y": 1.019299903,
				"z": -0.5667834955,
				"element": "C" 
			},
			{
				"x": -3.022164546,
				"y": 0.8495791148,
				"z": -1.8418742086,
				"element": "O" 
			},
			{
				"x": -3.3098458051,
				"y": 1.4504698211,
				"z": 0.2812054805,
				"element": "O" 
			},
			{
				"x": -0.8339037031,
				"y": -2.7442163521,
				"z": -1.0986237428,
				"element": "H" 
			},
			{
				"x": -2.0198663557,
				"y": -1.6946518112,
				"z": -1.8896994736,
				"element": "H" 
			},
			{
				"x": -0.270211832,
				"y": -1.3288310056,
				"z": -1.9928328545,
				"element": "H" 
			},
			{
				"x": -2.0289800363,
				"y": -0.8855316003,
				"z": 1.784758243,
				"element": "H" 
			},
			{
				"x": -3.0916839757,
				"y": -1.4556691888,
				"z": 0.4868356756,
				"element": "H" 
			},
			{
				"x": -1.77806712,
				"y": -2.4929157162,
				"z": 1.0900429044,
				"element": "H" 
			},
			{
				"x": -0.5132927453,
				"y": 0.7461203691,
				"z": -1.1794073666,
				"element": "H" 
			},
			{
				"x": -0.7531446813,
				"y": 2.3681587266,
				"z": 0.7571198608,
				"element": "H" 
			},
			{
				"x": -1.0137035681,
				"y": 1.0056376769,
				"z": 1.8148274095,
				"element": "H" 
			},
			{
				"x": 1.4310416745,
				"y": 3.0071221013,
				"z": 0.0320590141,
				"element": "H" 
			},
			{
				"x": 3.8855986038,
				"y": 2.7298212012,
				"z": 0.1555134994,
				"element": "H" 
			},
			{
				"x": 4.8593554355,
				"y": 0.6944779817,
				"z": 1.2056676581,
				"element": "H" 
			},
			{
				"x": 3.3498259976,
				"y": -1.0538386538,
				"z": 2.1276968403,
				"element": "H" 
			},
			{
				"x": 0.8953590938,
				"y": -0.7755815439,
				"z": 1.9904046187,
				"element": "H" 
			},
			{
				"x": -2.3092758557,
				"y": 0.5247269891,
				"z": -2.4088430375,
				"element": "H" 
			}
		],
		 "valence_orbital": [ 
			{
				"type": "occ",
				"energy": -0.31646,
				"method": "rhf"
			},
			{
				"type": "occ",
				"energy": -0.28106,
				"method": "rhf"
			},
			{
				"type": "occ",
				"energy": -0.24801,
				"method": "rhf"
			},
			{
				"type": "occ",
				"energy": -0.2408,
				"method": "rhf"
			},
			{
				"type": "occ",
				"energy": -0.22088,
				"method": "rhf"
			},
			{
				"type": "unocc",
				"energy": -0.00288,
				"method": "rhf"
			},
			{
				"type": "unocc",
				"energy": 0.00156,
				"method": "rhf"
			},
			{
				"type": "unocc",
				"energy": 0.00711,
				"method": "rhf"
			},
			{
				"type": "unocc",
				"energy": 0.04794,
				"method": "rhf"
			},
			{
				"type": "unocc",
				"energy": 0.08596,
				"method": "rhf"
			}
		],
		"cosmo_sigma_profile": { 
			"-0.025": 0.0,
			"-0.024": 0.0,
			"-0.023": 0.0,
			"-0.022": 0.0,
			"-0.021": 0.0,
			"-0.02": 0.0,
			"-0.019": 0.0,
			"-0.018": 0.378884322447,
			"-0.017": 1.20230066658,
			"-0.016": 1.08846175255,
			"-0.015": 1.02777401431,
			"-0.014": 1.07293244074,
			"-0.013": 0.787931193659,
			"-0.012": 1.0963746009,
			"-0.011": 1.8713525894,
			"-0.01": 1.03384126954,
			"-0.009": 1.23550899255,
			"-0.008": 2.38132915865,
			"-0.007": 2.62366305359,
			"-0.006": 5.28726729893,
			"-0.005": 19.264418321,
			"-0.004": 23.0311939068,
			"-0.003": 25.5071374925,
			"-0.002": 24.0164827736,
			"-0.001": 25.0409814886,
			"0.0": 14.5493650317,
			"0.001": 9.67691052236,
			"0.002": 10.4389050519,
			"0.003": 9.36440248988,
			"0.004": 10.5669675097,
			"0.005": 10.6915225362,
			"0.006": 11.2296087123,
			"0.007": 7.86403166868,
			"0.008": 4.02829373907,
			"0.009": 4.13526995594,
			"0.01": 4.96776289979,
			"0.011": 5.20337255703,
			"0.012": 5.02615768809,
			"0.013": 1.79426576798,
			"0.014": 0.0170234540239,
			"0.015": 0.0,
			"0.016": 0.0,
			"0.017": 0.0,
			"0.018": 0.0,
			"0.019": 0.0,
			"0.02": 0.0,
			"0.021": 0.0,
			"0.022": 0.0,
			"0.023": 0.0,
			"0.024": 0.0,
			"0.025": 0.0
		}
	}
}
