{
	 "smiles": "CCCCCCCCCC(C)=O", 
	 "Tm": 286.65, 
	 "num_atms": 34, 
	 "gaussian": { 
		 "optdone": 1, 
		 "sigma_profile": "yes", 
		 "theory": "DFT", 
		 "functional": "B3LYP", 
		 "basiset": "6-31G**", 
		 "properties": { 
			 "R2extent": 4398.7178, 
			 "electric_dipole_moment_norm": 2.65513529975, 
			 "electric_quadrupole_moment_norm": 13.7064855609, 
			 "total_energy": -507.680273902, 
			 "HOMO_LUMO_gap": 0.23282, 
			 "cosmo_polarized_energy": -7.02, 
			 "cosmo_cavitation_energy": 34.87, 
			 "cosmo_dispersion_energy": -23.95, 
			 "cosmo_repulsion_energy": 2.0, 
			 "cosmo_total_nonelectrostatic_energy": 12.92, 
			 "SMD_solvation_energy": 5.78 
		},
		"coords": [
			{
				"x": 2.4952723603,
				"y": -2.5794679693,
				"z": -2.2010591262,
				"element": "C" 
			},
			{
				"x": 1.394386947,
				"y": -2.8068375559,
				"z": -1.1584132174,
				"element": "C" 
			},
			{
				"x": 1.65327634,
				"y": -2.1237541563,
				"z": 0.1964084897,
				"element": "C" 
			},
			{
				"x": 1.7296585408,
				"y": -0.587114645,
				"z": 0.1717821403,
				"element": "C" 
			},
			{
				"x": 0.4319635334,
				"y": 0.1135610193,
				"z": -0.2570825986,
				"element": "C" 
			},
			{
				"x": 0.5255886959,
				"y": 1.6430874328,
				"z": -0.1581804847,
				"element": "C" 
			},
			{
				"x": -0.6690994108,
				"y": 2.4417374729,
				"z": -0.7108367031,
				"element": "C" 
			},
			{
				"x": -2.015414067,
				"y": 2.2545207048,
				"z": 0.020251222,
				"element": "C" 
			},
			{
				"x": -2.8860194286,
				"y": 1.1108130509,
				"z": -0.5094811688,
				"element": "C" 
			},
			{
				"x": -4.2383494582,
				"y": 0.9949725148,
				"z": 0.185231717,
				"element": "C" 
			},
			{
				"x": -5.1346736825,
				"y": -0.1493112114,
				"z": -0.2621723401,
				"element": "C" 
			},
			{
				"x": -4.587260384,
				"y": 1.7726188968,
				"z": 1.0538513361,
				"element": "O" 
			},
			{
				"x": 2.588012074,
				"y": -1.5233130137,
				"z": -2.4750746328,
				"element": "H" 
			},
			{
				"x": 2.2897529957,
				"y": -3.1385401074,
				"z": -3.1199293682,
				"element": "H" 
			},
			{
				"x": 3.4704655776,
				"y": -2.9085881231,
				"z": -1.8233230859,
				"element": "H" 
			},
			{
				"x": 0.4311168071,
				"y": -2.4739746924,
				"z": -1.5660674409,
				"element": "H" 
			},
			{
				"x": 1.2864377438,
				"y": -3.8850691549,
				"z": -0.9839123684,
				"element": "H" 
			},
			{
				"x": 2.5927653684,
				"y": -2.5145614535,
				"z": 0.6109323134,
				"element": "H" 
			},
			{
				"x": 0.8645997858,
				"y": -2.425668955,
				"z": 0.8994812705,
				"element": "H" 
			},
			{
				"x": 2.0007068892,
				"y": -0.2392342103,
				"z": 1.1779059085,
				"element": "H" 
			},
			{
				"x": 2.5486430475,
				"y": -0.2627337991,
				"z": -0.4841350773,
				"element": "H" 
			},
			{
				"x": 0.1783899083,
				"y": -0.166167189,
				"z": -1.2887676872,
				"element": "H" 
			},
			{
				"x": -0.3893421424,
				"y": -0.2534361591,
				"z": 0.3731973649,
				"element": "H" 
			},
			{
				"x": 1.4285510626,
				"y": 1.9698819791,
				"z": -0.6926707245,
				"element": "H" 
			},
			{
				"x": 0.6829997864,
				"y": 1.9232745439,
				"z": 0.893164706,
				"element": "H" 
			},
			{
				"x": -0.7948367292,
				"y": 2.2184336676,
				"z": -1.7802885287,
				"element": "H" 
			},
			{
				"x": -0.3988069636,
				"y": 3.5038262107,
				"z": -0.6616147801,
				"element": "H" 
			},
			{
				"x": -1.8427535565,
				"y": 2.1113554031,
				"z": 1.0939354375,
				"element": "H" 
			},
			{
				"x": -2.6026376897,
				"y": 3.1758085339,
				"z": -0.0550529392,
				"element": "H" 
			},
			{
				"x": -2.3822312811,
				"y": 0.1386453976,
				"z": -0.4323102754,
				"element": "H" 
			},
			{
				"x": -3.0774720034,
				"y": 1.2411898141,
				"z": -1.5856023632,
				"element": "H" 
			},
			{
				"x": -4.6586905338,
				"y": -1.112072443,
				"z": -0.0411055455,
				"element": "H" 
			},
			{
				"x": -6.0926708764,
				"y": -0.0916425252,
				"z": 0.2564689811,
				"element": "H" 
			},
			{
				"x": -5.2972292564,
				"y": -0.1167392786,
				"z": -1.3455304307,
				"element": "H" 
			}
		],
		 "valence_orbital": [ 
			{
				"type": "occ",
				"energy": -0.32025,
				"method": "rhf"
			},
			{
				"type": "occ",
				"energy": -0.31296,
				"method": "rhf"
			},
			{
				"type": "occ",
				"energy": -0.31001,
				"method": "rhf"
			},
			{
				"type": "occ",
				"energy": -0.29935,
				"method": "rhf"
			},
			{
				"type": "occ",
				"energy": -0.24118,
				"method": "rhf"
			},
			{
				"type": "unocc",
				"energy": -0.00836,
				"method": "rhf"
			},
			{
				"type": "unocc",
				"energy": 0.07575,
				"method": "rhf"
			},
			{
				"type": "unocc",
				"energy": 0.08823,
				"method": "rhf"
			},
			{
				"type": "unocc",
				"energy": 0.09829,
				"method": "rhf"
			},
			{
				"type": "unocc",
				"energy": 0.11018,
				"method": "rhf"
			}
		],
		"cosmo_sigma_profile": { 
			"-0.025": 0.0,
			"-0.024": 0.0,
			"-0.023": 0.0,
			"-0.022": 0.0,
			"-0.021": 0.0,
			"-0.02": 0.0,
			"-0.019": 0.0,
			"-0.018": 0.0,
			"-0.017": 0.0,
			"-0.016": 0.0,
			"-0.015": 0.0,
			"-0.014": 0.0,
			"-0.013": 0.0,
			"-0.012": 0.0,
			"-0.011": 0.0,
			"-0.01": 0.0,
			"-0.009": 0.0,
			"-0.008": 0.0,
			"-0.007": 0.00139491467158,
			"-0.006": 5.05578086738,
			"-0.005": 9.58420393684,
			"-0.004": 10.4589353544,
			"-0.003": 12.8129263213,
			"-0.002": 38.645026114,
			"-0.001": 56.273347639,
			"0.0": 52.3751725658,
			"0.001": 41.0198015892,
			"0.002": 16.8169039103,
			"0.003": 2.44319820508,
			"0.004": 1.41017985668,
			"0.005": 1.62991787805,
			"0.006": 2.00266882293,
			"0.007": 1.50689882806,
			"0.008": 1.8857388881,
			"0.009": 1.42892027782,
			"0.01": 2.3816041114,
			"0.011": 2.19033667421,
			"0.012": 4.50457582685,
			"0.013": 3.09025039178,
			"0.014": 0.44481605928,
			"0.015": 0.0,
			"0.016": 0.0,
			"0.017": 0.0,
			"0.018": 0.0,
			"0.019": 0.0,
			"0.02": 0.0,
			"0.021": 0.0,
			"0.022": 0.0,
			"0.023": 0.0,
			"0.024": 0.0,
			"0.025": 0.0
		}
	}
}
