{
	 "smiles": "COCCCOC1=CC=C(C=C1)C(O)=O", 
	 "Tm": 386.15, 
	 "num_atms": 29, 
	 "gaussian": { 
		 "optdone": 1, 
		 "sigma_profile": "yes", 
		 "theory": "DFT", 
		 "functional": "B3LYP", 
		 "basiset": "6-31G**", 
		 "properties": { 
			 "R2extent": 5128.4628, 
			 "electric_dipole_moment_norm": 7.49865385386, 
			 "electric_quadrupole_moment_norm": 25.2772018078, 
			 "total_energy": -728.487450004, 
			 "HOMO_LUMO_gap": 0.19539, 
			 "cosmo_polarized_energy": -19.28, 
			 "cosmo_cavitation_energy": 32.85, 
			 "cosmo_dispersion_energy": -23.19, 
			 "cosmo_repulsion_energy": 1.85, 
			 "cosmo_total_nonelectrostatic_energy": 11.51, 
			 "SMD_solvation_energy": 7.41 
		},
		"coords": [
			{
				"x": -0.0221988078,
				"y": 1.2908331398,
				"z": -3.1589410267,
				"element": "C" 
			},
			{
				"x": 0.900756991,
				"y": 0.7076454277,
				"z": -2.2652037791,
				"element": "O" 
			},
			{
				"x": 2.2368077561,
				"y": 0.8072213405,
				"z": -2.7132435911,
				"element": "C" 
			},
			{
				"x": 3.1607429269,
				"y": 0.1858831191,
				"z": -1.6684195074,
				"element": "C" 
			},
			{
				"x": 3.4369964563,
				"y": 1.0672102893,
				"z": -0.4470809353,
				"element": "C" 
			},
			{
				"x": 2.2678867468,
				"y": 1.4789205515,
				"z": 0.2627723926,
				"element": "O" 
			},
			{
				"x": 1.6252354282,
				"y": 0.6183259848,
				"z": 1.0909714657,
				"element": "C" 
			},
			{
				"x": 2.0696058741,
				"y": -0.6699654732,
				"z": 1.4220400316,
				"element": "C" 
			},
			{
				"x": 1.3264645796,
				"y": -1.4474161121,
				"z": 2.3098302506,
				"element": "C" 
			},
			{
				"x": 0.1410482137,
				"y": -0.9694889419,
				"z": 2.8805749128,
				"element": "C" 
			},
			{
				"x": -0.2793735693,
				"y": 0.3329105111,
				"z": 2.5573402521,
				"element": "C" 
			},
			{
				"x": 0.44243656,
				"y": 1.1120260432,
				"z": 1.6707790052,
				"element": "C" 
			},
			{
				"x": -0.6853536524,
				"y": -1.7520166463,
				"z": 3.8457446403,
				"element": "C" 
			},
			{
				"x": -0.4950968889,
				"y": -3.1027135024,
				"z": 3.8651954829,
				"element": "O" 
			},
			{
				"x": -1.4969046538,
				"y": -1.252673518,
				"z": 4.591357677,
				"element": "O" 
			},
			{
				"x": -1.0188085569,
				"y": 1.1501942934,
				"z": -2.7342287317,
				"element": "H" 
			},
			{
				"x": 0.0115408856,
				"y": 0.814237431,
				"z": -4.1521900392,
				"element": "H" 
			},
			{
				"x": 0.1594543336,
				"y": 2.3694559317,
				"z": -3.2898639047,
				"element": "H" 
			},
			{
				"x": 2.3555059205,
				"y": 0.2774158672,
				"z": -3.6745283767,
				"element": "H" 
			},
			{
				"x": 2.5115129244,
				"y": 1.8623013336,
				"z": -2.8926917305,
				"element": "H" 
			},
			{
				"x": 2.7361032155,
				"y": -0.7778671966,
				"z": -1.3688168482,
				"element": "H" 
			},
			{
				"x": 4.1316591675,
				"y": -0.0236730199,
				"z": -2.1358792558,
				"element": "H" 
			},
			{
				"x": 4.143611132,
				"y": 0.5749474212,
				"z": 0.2340127199,
				"element": "H" 
			},
			{
				"x": 3.8951589518,
				"y": 2.0078550642,
				"z": -0.7680147229,
				"element": "H" 
			},
			{
				"x": 2.9859137707,
				"y": -1.0712639523,
				"z": 1.0071423993,
				"element": "H" 
			},
			{
				"x": 1.7170664804,
				"y": -2.4267194116,
				"z": 2.5778202247,
				"element": "H" 
			},
			{
				"x": -1.1860772136,
				"y": 0.7097445841,
				"z": 3.0182536182,
				"element": "H" 
			},
			{
				"x": 0.1206760841,
				"y": 2.1132928116,
				"z": 1.4053224169,
				"element": "H" 
			},
			{
				"x": 0.037728944,
				"y": -3.3709233707,
				"z": 3.1043449594,
				"element": "H" 
			}
		],
		 "valence_orbital": [ 
			{
				"type": "occ",
				"energy": -0.30323,
				"method": "rhf"
			},
			{
				"type": "occ",
				"energy": -0.26544,
				"method": "rhf"
			},
			{
				"type": "occ",
				"energy": -0.26122,
				"method": "rhf"
			},
			{
				"type": "occ",
				"energy": -0.25966,
				"method": "rhf"
			},
			{
				"type": "occ",
				"energy": -0.22953,
				"method": "rhf"
			},
			{
				"type": "unocc",
				"energy": -0.03414,
				"method": "rhf"
			},
			{
				"type": "unocc",
				"energy": -0.01407,
				"method": "rhf"
			},
			{
				"type": "unocc",
				"energy": 0.06126,
				"method": "rhf"
			},
			{
				"type": "unocc",
				"energy": 0.06598,
				"method": "rhf"
			},
			{
				"type": "unocc",
				"energy": 0.07786,
				"method": "rhf"
			}
		],
		"cosmo_sigma_profile": { 
			"-0.025": 0.0,
			"-0.024": 0.0,
			"-0.023": 0.0,
			"-0.022": 0.0,
			"-0.021": 0.0,
			"-0.02": 0.0,
			"-0.019": 0.137466907923,
			"-0.018": 0.729222759952,
			"-0.017": 0.649641055996,
			"-0.016": 1.19852654541,
			"-0.015": 1.00195413892,
			"-0.014": 1.25691870861,
			"-0.013": 0.508141329492,
			"-0.012": 1.23488605188,
			"-0.011": 0.748474113684,
			"-0.01": 1.55261897853,
			"-0.009": 1.09039200937,
			"-0.008": 2.72922401728,
			"-0.007": 5.28820706363,
			"-0.006": 10.1373342518,
			"-0.005": 18.0001511726,
			"-0.004": 24.3811958676,
			"-0.003": 29.8748702761,
			"-0.002": 26.0845767941,
			"-0.001": 19.6630314944,
			"0.0": 11.5558358676,
			"0.001": 9.91365581978,
			"0.002": 11.3531651286,
			"0.003": 16.3716349843,
			"0.004": 11.177718722,
			"0.005": 5.41188523547,
			"0.006": 5.6582059275,
			"0.007": 5.62534508888,
			"0.008": 5.22155897092,
			"0.009": 5.80767076783,
			"0.01": 7.73644783293,
			"0.011": 6.54722217425,
			"0.012": 7.30652661463,
			"0.013": 2.90578691465,
			"0.014": 0.405343355435,
			"0.015": 0.0,
			"0.016": 0.0,
			"0.017": 0.0,
			"0.018": 0.0,
			"0.019": 0.0,
			"0.02": 0.0,
			"0.021": 0.0,
			"0.022": 0.0,
			"0.023": 0.0,
			"0.024": 0.0,
			"0.025": 0.0
		}
	}
}
