{
	 "smiles": "ClC1=CC=CC(Cl)=C1C=O", 
	 "Tm": 344.15, 
	 "num_atms": 14, 
	 "gaussian": { 
		 "optdone": 1, 
		 "sigma_profile": "yes", 
		 "theory": "DFT", 
		 "functional": "B3LYP", 
		 "basiset": "6-31G**", 
		 "properties": { 
			 "R2extent": 2254.1404, 
			 "electric_dipole_moment_norm": 4.11588555477, 
			 "electric_quadrupole_moment_norm": 6.89189491359, 
			 "total_energy": -1264.74119266, 
			 "HOMO_LUMO_gap": 0.17337, 
			 "cosmo_polarized_energy": -8.03, 
			 "cosmo_cavitation_energy": 22.01, 
			 "cosmo_dispersion_energy": -16.68, 
			 "cosmo_repulsion_energy": 1.33, 
			 "cosmo_total_nonelectrostatic_energy": 6.67, 
			 "SMD_solvation_energy": 4.36 
		},
		"coords": [
			{
				"x": -0.4158953122,
				"y": 2.3167024813,
				"z": 1.6439309267,
				"element": "Cl" 
			},
			{
				"x": 0.2887291313,
				"y": 1.078175675,
				"z": 0.6051736131,
				"element": "C" 
			},
			{
				"x": 0.5716096557,
				"y": 1.4641497783,
				"z": -0.7010308887,
				"element": "C" 
			},
			{
				"x": 1.1295775146,
				"y": 0.5348666103,
				"z": -1.5756886755,
				"element": "C" 
			},
			{
				"x": 1.3998642595,
				"y": -0.7614794105,
				"z": -1.1477666117,
				"element": "C" 
			},
			{
				"x": 1.1110932723,
				"y": -1.1346539647,
				"z": 0.1648315239,
				"element": "C" 
			},
			{
				"x": 1.4896137753,
				"y": -2.7845216292,
				"z": 0.5956372246,
				"element": "Cl" 
			},
			{
				"x": 0.5442336075,
				"y": -0.2254479699,
				"z": 1.0887726015,
				"element": "C" 
			},
			{
				"x": 0.2161884412,
				"y": -0.5741184945,
				"z": 2.505218997,
				"element": "C" 
			},
			{
				"x": 0.3923356173,
				"y": -1.6551583981,
				"z": 3.0272121696,
				"element": "O" 
			},
			{
				"x": 0.3559549245,
				"y": 2.476767054,
				"z": -1.0208559287,
				"element": "H" 
			},
			{
				"x": 1.3549552809,
				"y": 0.8237744993,
				"z": -2.5975675179,
				"element": "H" 
			},
			{
				"x": 1.8337961212,
				"y": -1.4913054896,
				"z": -1.8212623792,
				"element": "H" 
			},
			{
				"x": -0.2212562891,
				"y": 0.2615492582,
				"z": 3.0784949452,
				"element": "H" 
			}
		],
		 "valence_orbital": [ 
			{
				"type": "occ",
				"energy": -0.33508,
				"method": "rhf"
			},
			{
				"type": "occ",
				"energy": -0.32127,
				"method": "rhf"
			},
			{
				"type": "occ",
				"energy": -0.28004,
				"method": "rhf"
			},
			{
				"type": "occ",
				"energy": -0.26331,
				"method": "rhf"
			},
			{
				"type": "occ",
				"energy": -0.25466,
				"method": "rhf"
			},
			{
				"type": "unocc",
				"energy": -0.08129,
				"method": "rhf"
			},
			{
				"type": "unocc",
				"energy": -0.03777,
				"method": "rhf"
			},
			{
				"type": "unocc",
				"energy": -0.00407,
				"method": "rhf"
			},
			{
				"type": "unocc",
				"energy": 0.02068,
				"method": "rhf"
			},
			{
				"type": "unocc",
				"energy": 0.04173,
				"method": "rhf"
			}
		],
		"cosmo_sigma_profile": { 
			"-0.025": 0.0,
			"-0.024": 0.0,
			"-0.023": 0.0,
			"-0.022": 0.0,
			"-0.021": 0.0,
			"-0.02": 0.0,
			"-0.019": 0.0,
			"-0.018": 0.0,
			"-0.017": 0.0,
			"-0.016": 0.0,
			"-0.015": 0.0,
			"-0.014": 0.0,
			"-0.013": 0.0,
			"-0.012": 0.0,
			"-0.011": 0.0,
			"-0.01": 0.0,
			"-0.009": 0.76058615013,
			"-0.008": 6.12744717392,
			"-0.007": 6.97518038895,
			"-0.006": 7.5635680874,
			"-0.005": 9.32649884476,
			"-0.004": 9.44448990865,
			"-0.003": 11.1174164887,
			"-0.002": 11.538140808,
			"-0.001": 18.7529770192,
			"0.0": 23.8165485857,
			"0.001": 19.8265937511,
			"0.002": 12.2070135864,
			"0.003": 12.6592254888,
			"0.004": 11.1658551104,
			"0.005": 2.49250194382,
			"0.006": 2.00849200018,
			"0.007": 2.30398464781,
			"0.008": 2.12377718579,
			"0.009": 2.08216769308,
			"0.01": 3.88449726838,
			"0.011": 4.54110793869,
			"0.012": 1.50845335126,
			"0.013": 0.0,
			"0.014": 0.0,
			"0.015": 0.0,
			"0.016": 0.0,
			"0.017": 0.0,
			"0.018": 0.0,
			"0.019": 0.0,
			"0.02": 0.0,
			"0.021": 0.0,
			"0.022": 0.0,
			"0.023": 0.0,
			"0.024": 0.0,
			"0.025": 0.0
		}
	}
}
