{
	 "smiles": "COC(=O)C1=CC(OCC2=CC=CC=C2)=CC(OCC2=CC=CC=C2)=C1", 
	 "Tm": 341.65, 
	 "num_atms": 46, 
	 "gaussian": { 
		 "optdone": 1, 
		 "sigma_profile": "yes", 
		 "theory": "DFT", 
		 "functional": "B3LYP", 
		 "basiset": "6-31G**", 
		 "properties": { 
			 "R2extent": 16409.6769, 
			 "electric_dipole_moment_norm": 3.37520286353, 
			 "electric_quadrupole_moment_norm": 16.5044093875, 
			 "total_energy": -1151.28577293, 
			 "HOMO_LUMO_gap": 0.17698, 
			 "cosmo_polarized_energy": -15.23, 
			 "cosmo_cavitation_energy": 51.65, 
			 "cosmo_dispersion_energy": -36.57, 
			 "cosmo_repulsion_energy": 2.78, 
			 "cosmo_total_nonelectrostatic_energy": 17.86, 
			 "SMD_solvation_energy": 10.3 
		},
		"coords": [
			{
				"x": -5.8457752671,
				"y": 3.1853167124,
				"z": 0.0818612488,
				"element": "C" 
			},
			{
				"x": -4.7184417957,
				"y": 2.3582493694,
				"z": 0.404010314,
				"element": "O" 
			},
			{
				"x": -3.5819670779,
				"y": 2.6467639727,
				"z": -0.2753165816,
				"element": "C" 
			},
			{
				"x": -3.5158032199,
				"y": 3.5390043232,
				"z": -1.0978818123,
				"element": "O" 
			},
			{
				"x": -2.4479466878,
				"y": 1.7534034802,
				"z": 0.1036267916,
				"element": "C" 
			},
			{
				"x": -1.2326666365,
				"y": 1.9614017923,
				"z": -0.5399119604,
				"element": "C" 
			},
			{
				"x": -0.1350645998,
				"y": 1.1487942897,
				"z": -0.218032606,
				"element": "C" 
			},
			{
				"x": 1.016116109,
				"y": 1.4186046099,
				"z": -0.8977436552,
				"element": "O" 
			},
			{
				"x": 2.1857054957,
				"y": 0.6662562393,
				"z": -0.5847550524,
				"element": "C" 
			},
			{
				"x": 3.3453846074,
				"y": 1.1907833801,
				"z": -1.3979136172,
				"element": "C" 
			},
			{
				"x": 3.4655471508,
				"y": 2.5552235011,
				"z": -1.6876600503,
				"element": "C" 
			},
			{
				"x": 4.5688831979,
				"y": 3.0293284956,
				"z": -2.3972576092,
				"element": "C" 
			},
			{
				"x": 5.5681646928,
				"y": 2.1486176488,
				"z": -2.8174839289,
				"element": "C" 
			},
			{
				"x": 5.454194037,
				"y": 0.7876172691,
				"z": -2.5307365703,
				"element": "C" 
			},
			{
				"x": 4.3450690801,
				"y": 0.3121070791,
				"z": -1.8293030197,
				"element": "C" 
			},
			{
				"x": -0.2656764252,
				"y": 0.1418019517,
				"z": 0.7375268956,
				"element": "C" 
			},
			{
				"x": -1.5009781587,
				"y": -0.0559879712,
				"z": 1.3805066533,
				"element": "C" 
			},
			{
				"x": -1.508942786,
				"y": -1.068690109,
				"z": 2.2955170581,
				"element": "O" 
			},
			{
				"x": -2.7305472528,
				"y": -1.3406418371,
				"z": 2.9953674516,
				"element": "C" 
			},
			{
				"x": -2.487570112,
				"y": -2.4929117789,
				"z": 3.9350999893,
				"element": "C" 
			},
			{
				"x": -2.6559513443,
				"y": -3.8122462652,
				"z": 3.4981377403,
				"element": "C" 
			},
			{
				"x": -2.4100163913,
				"y": -4.8817251421,
				"z": 4.3593658614,
				"element": "C" 
			},
			{
				"x": -1.9913507559,
				"y": -4.6407696651,
				"z": 5.6697012114,
				"element": "C" 
			},
			{
				"x": -1.8189462554,
				"y": -3.3283267538,
				"z": 6.1140334359,
				"element": "C" 
			},
			{
				"x": -2.0655520965,
				"y": -2.261383971,
				"z": 5.249449027,
				"element": "C" 
			},
			{
				"x": -2.6004231654,
				"y": 0.7442780767,
				"z": 1.0720379661,
				"element": "C" 
			},
			{
				"x": -5.6295221278,
				"y": 4.2343722407,
				"z": 0.299592418,
				"element": "H" 
			},
			{
				"x": -6.101688964,
				"y": 3.093512346,
				"z": -0.976787664,
				"element": "H" 
			},
			{
				"x": -6.6637266863,
				"y": 2.8253485974,
				"z": 0.7062192162,
				"element": "H" 
			},
			{
				"x": -1.1338800143,
				"y": 2.742990733,
				"z": -1.2830520976,
				"element": "H" 
			},
			{
				"x": 2.0219387185,
				"y": -0.3994077783,
				"z": -0.7973438037,
				"element": "H" 
			},
			{
				"x": 2.3997113761,
				"y": 0.7575178854,
				"z": 0.4915384161,
				"element": "H" 
			},
			{
				"x": 2.6840358168,
				"y": 3.2364182502,
				"z": -1.3680051922,
				"element": "H" 
			},
			{
				"x": 4.6483417632,
				"y": 4.0891259039,
				"z": -2.6225921741,
				"element": "H" 
			},
			{
				"x": 6.4268683674,
				"y": 2.5201655518,
				"z": -3.369288914,
				"element": "H" 
			},
			{
				"x": 6.2220216051,
				"y": 0.0937463433,
				"z": -2.8609680305,
				"element": "H" 
			},
			{
				"x": 4.2549551967,
				"y": -0.7512144775,
				"z": -1.6191842775,
				"element": "H" 
			},
			{
				"x": 0.5530922317,
				"y": -0.5106260524,
				"z": 1.0121776103,
				"element": "H" 
			},
			{
				"x": -3.5206945138,
				"y": -1.5877206427,
				"z": 2.2737901998,
				"element": "H" 
			},
			{
				"x": -3.044735376,
				"y": -0.4465514226,
				"z": 3.5501299472,
				"element": "H" 
			},
			{
				"x": -2.9814859237,
				"y": -4.0001738168,
				"z": 2.478081588,
				"element": "H" 
			},
			{
				"x": -2.5473327181,
				"y": -5.9010235582,
				"z": 4.0099942454,
				"element": "H" 
			},
			{
				"x": -1.8030997297,
				"y": -5.4724765574,
				"z": 6.3426242467,
				"element": "H" 
			},
			{
				"x": -1.4951535087,
				"y": -3.1360040882,
				"z": 7.1328764769,
				"element": "H" 
			},
			{
				"x": -1.9303998954,
				"y": -1.2397356235,
				"z": 5.5955727488,
				"element": "H" 
			},
			{
				"x": -3.5591899603,
				"y": 0.6120674675,
				"z": 1.5517798591,
				"element": "H" 
			}
		],
		 "valence_orbital": [ 
			{
				"type": "occ",
				"energy": -0.25463,
				"method": "rhf"
			},
			{
				"type": "occ",
				"energy": -0.24929,
				"method": "rhf"
			},
			{
				"type": "occ",
				"energy": -0.24443,
				"method": "rhf"
			},
			{
				"type": "occ",
				"energy": -0.23624,
				"method": "rhf"
			},
			{
				"type": "occ",
				"energy": -0.21575,
				"method": "rhf"
			},
			{
				"type": "unocc",
				"energy": -0.03877,
				"method": "rhf"
			},
			{
				"type": "unocc",
				"energy": -0.01386,
				"method": "rhf"
			},
			{
				"type": "unocc",
				"energy": -0.00671,
				"method": "rhf"
			},
			{
				"type": "unocc",
				"energy": -0.00377,
				"method": "rhf"
			},
			{
				"type": "unocc",
				"energy": -0.00077,
				"method": "rhf"
			}
		],
		"cosmo_sigma_profile": { 
			"-0.025": 0.0,
			"-0.024": 0.0,
			"-0.023": 0.0,
			"-0.022": 0.0,
			"-0.021": 0.0,
			"-0.02": 0.0,
			"-0.019": 0.0,
			"-0.018": 0.0,
			"-0.017": 0.0,
			"-0.016": 0.0,
			"-0.015": 0.0,
			"-0.014": 0.0,
			"-0.013": 0.0,
			"-0.012": 0.0,
			"-0.011": 0.0,
			"-0.01": 0.0,
			"-0.009": 0.0,
			"-0.008": 0.234869991961,
			"-0.007": 4.83728871376,
			"-0.006": 31.1165123824,
			"-0.005": 40.2590149899,
			"-0.004": 39.4091219945,
			"-0.003": 37.2733308068,
			"-0.002": 25.7905110678,
			"-0.001": 23.6950552339,
			"0.0": 22.6453718956,
			"0.001": 23.0549618283,
			"0.002": 29.3024746228,
			"0.003": 39.8588108692,
			"0.004": 26.5875972157,
			"0.005": 27.1619057967,
			"0.006": 17.605952202,
			"0.007": 4.86030425809,
			"0.008": 4.18868526498,
			"0.009": 4.3771099175,
			"0.01": 2.91443300305,
			"0.011": 2.66970973336,
			"0.012": 4.38665701469,
			"0.013": 0.14135859906,
			"0.014": 0.0,
			"0.015": 0.0,
			"0.016": 0.0,
			"0.017": 0.0,
			"0.018": 0.0,
			"0.019": 0.0,
			"0.02": 0.0,
			"0.021": 0.0,
			"0.022": 0.0,
			"0.023": 0.0,
			"0.024": 0.0,
			"0.025": 0.0
		}
	}
}
