{
	 "smiles": "ClC1=CC=C(C=C1)C(=O)CC#N", 
	 "Tm": 403.15, 
	 "num_atms": 18, 
	 "gaussian": { 
		 "optdone": 1, 
		 "sigma_profile": "yes", 
		 "theory": "DFT", 
		 "functional": "B3LYP", 
		 "basiset": "6-31G**", 
		 "properties": { 
			 "R2extent": 3822.4019, 
			 "electric_dipole_moment_norm": 2.97178015674, 
			 "electric_quadrupole_moment_norm": 9.23166521219, 
			 "total_energy": -936.718601237, 
			 "HOMO_LUMO_gap": 0.18445, 
			 "cosmo_polarized_energy": -12.5, 
			 "cosmo_cavitation_energy": 25.76, 
			 "cosmo_dispersion_energy": -18.19, 
			 "cosmo_repulsion_energy": 1.45, 
			 "cosmo_total_nonelectrostatic_energy": 9.02, 
			 "SMD_solvation_energy": 6.03 
		},
		"coords": [
			{
				"x": 0.6709244907,
				"y": 3.0422421681,
				"z": 3.9380031434,
				"element": "Cl" 
			},
			{
				"x": 1.099474123,
				"y": 1.9083634406,
				"z": 2.6749035591,
				"element": "C" 
			},
			{
				"x": 2.4211395281,
				"y": 1.8547951618,
				"z": 2.2220795048,
				"element": "C" 
			},
			{
				"x": 2.7532577169,
				"y": 0.9517088404,
				"z": 1.2207799593,
				"element": "C" 
			},
			{
				"x": 1.7814192951,
				"y": 0.1018621913,
				"z": 0.665107698,
				"element": "C" 
			},
			{
				"x": 0.4610410656,
				"y": 0.1756415113,
				"z": 1.1356263576,
				"element": "C" 
			},
			{
				"x": 0.1150203225,
				"y": 1.0767490927,
				"z": 2.139741228,
				"element": "C" 
			},
			{
				"x": 2.2218210192,
				"y": -0.8498430959,
				"z": -0.391923452,
				"element": "C" 
			},
			{
				"x": 3.3812025287,
				"y": -0.9226153486,
				"z": -0.7552760323,
				"element": "O" 
			},
			{
				"x": 1.1916425264,
				"y": -1.8195761934,
				"z": -1.0265947986,
				"element": "C" 
			},
			{
				"x": 0.1164807605,
				"y": -1.1528213691,
				"z": -1.7598368728,
				"element": "C" 
			},
			{
				"x": -0.7333049157,
				"y": -0.6134176011,
				"z": -2.3382135884,
				"element": "N" 
			},
			{
				"x": 3.1691625684,
				"y": 2.5115784292,
				"z": 2.651640623,
				"element": "H" 
			},
			{
				"x": 3.770216082,
				"y": 0.8848424644,
				"z": 0.8497025879,
				"element": "H" 
			},
			{
				"x": -0.3157883695,
				"y": -0.4560504942,
				"z": 0.7190509693,
				"element": "H" 
			},
			{
				"x": -0.904721116,
				"y": 1.1378970868,
				"z": 2.5020765019,
				"element": "H" 
			},
			{
				"x": 0.7503844631,
				"y": -2.4527150613,
				"z": -0.2468339799,
				"element": "H" 
			},
			{
				"x": 1.754127911,
				"y": -2.462841223,
				"z": -1.7079334083,
				"element": "H" 
			}
		],
		 "valence_orbital": [ 
			{
				"type": "occ",
				"energy": -0.33727,
				"method": "rhf"
			},
			{
				"type": "occ",
				"energy": -0.32943,
				"method": "rhf"
			},
			{
				"type": "occ",
				"energy": -0.28576,
				"method": "rhf"
			},
			{
				"type": "occ",
				"energy": -0.27839,
				"method": "rhf"
			},
			{
				"type": "occ",
				"energy": -0.269,
				"method": "rhf"
			},
			{
				"type": "unocc",
				"energy": -0.08455,
				"method": "rhf"
			},
			{
				"type": "unocc",
				"energy": -0.03467,
				"method": "rhf"
			},
			{
				"type": "unocc",
				"energy": 0.00521,
				"method": "rhf"
			},
			{
				"type": "unocc",
				"energy": 0.01356,
				"method": "rhf"
			},
			{
				"type": "unocc",
				"energy": 0.02407,
				"method": "rhf"
			}
		],
		"cosmo_sigma_profile": { 
			"-0.025": 0.0,
			"-0.024": 0.0,
			"-0.023": 0.0,
			"-0.022": 0.0,
			"-0.021": 0.0,
			"-0.02": 0.0,
			"-0.019": 0.0,
			"-0.018": 0.0,
			"-0.017": 0.0,
			"-0.016": 0.0,
			"-0.015": 0.0,
			"-0.014": 0.0,
			"-0.013": 0.0,
			"-0.012": 0.134820675108,
			"-0.011": 2.19420379405,
			"-0.01": 4.50085168877,
			"-0.009": 5.13235817756,
			"-0.008": 8.62546243134,
			"-0.007": 10.2910455557,
			"-0.006": 10.7399251498,
			"-0.005": 9.09787547324,
			"-0.004": 9.04293924467,
			"-0.003": 8.88954774542,
			"-0.002": 10.3769507154,
			"-0.001": 11.9096715679,
			"0.0": 18.1792261004,
			"0.001": 24.673388144,
			"0.002": 16.0333244481,
			"0.003": 11.8567081379,
			"0.004": 11.405105409,
			"0.005": 4.19096539271,
			"0.006": 3.22700304814,
			"0.007": 4.99233104612,
			"0.008": 4.25879599441,
			"0.009": 6.14715076661,
			"0.01": 6.05604678462,
			"0.011": 5.05886931006,
			"0.012": 2.37180307945,
			"0.013": 1.09202984138,
			"0.014": 0.0,
			"0.015": 0.0,
			"0.016": 0.0,
			"0.017": 0.0,
			"0.018": 0.0,
			"0.019": 0.0,
			"0.02": 0.0,
			"0.021": 0.0,
			"0.022": 0.0,
			"0.023": 0.0,
			"0.024": 0.0,
			"0.025": 0.0
		}
	}
}
