{
	 "smiles": "NC(=O)COC1=CC=C(C=O)C=C1", 
	 "Tm": 408.15, 
	 "num_atms": 22, 
	 "gaussian": { 
		 "optdone": 1, 
		 "sigma_profile": "yes", 
		 "theory": "DFT", 
		 "functional": "B3LYP", 
		 "basiset": "6-31G**", 
		 "properties": { 
			 "R2extent": 4126.1071, 
			 "electric_dipole_moment_norm": 4.11606926084, 
			 "electric_quadrupole_moment_norm": 16.2387723033, 
			 "total_energy": -628.803154759, 
			 "HOMO_LUMO_gap": 0.18423, 
			 "cosmo_polarized_energy": -17.68, 
			 "cosmo_cavitation_energy": 27.42, 
			 "cosmo_dispersion_energy": -19.93, 
			 "cosmo_repulsion_energy": 1.59, 
			 "cosmo_total_nonelectrostatic_energy": 9.08, 
			 "SMD_solvation_energy": 6.92 
		},
		"coords": [
			{
				"x": -3.5893717202,
				"y": -1.602036266,
				"z": 0.0173693509,
				"element": "N" 
			},
			{
				"x": -3.0975371563,
				"y": -1.9427784603,
				"z": -1.1991584204,
				"element": "C" 
			},
			{
				"x": -3.5978153318,
				"y": -2.7639879296,
				"z": -1.9519080174,
				"element": "O" 
			},
			{
				"x": -1.8173925513,
				"y": -1.2209796813,
				"z": -1.6229725338,
				"element": "C" 
			},
			{
				"x": -1.394079474,
				"y": -0.3058515025,
				"z": -0.6149945517,
				"element": "O" 
			},
			{
				"x": -0.2651630349,
				"y": 0.4317252614,
				"z": -0.8141745141,
				"element": "C" 
			},
			{
				"x": 0.0803702318,
				"y": 1.3069228742,
				"z": 0.2280731473,
				"element": "C" 
			},
			{
				"x": 1.2137181796,
				"y": 2.0974568072,
				"z": 0.1134770245,
				"element": "C" 
			},
			{
				"x": 2.0196686105,
				"y": 2.0318021234,
				"z": -1.0344344623,
				"element": "C" 
			},
			{
				"x": 3.2244098751,
				"y": 2.8754674229,
				"z": -1.1503068704,
				"element": "C" 
			},
			{
				"x": 3.9779257988,
				"y": 2.8827300838,
				"z": -2.1067678903,
				"element": "O" 
			},
			{
				"x": 1.6643113867,
				"y": 1.1544520562,
				"z": -2.067892627,
				"element": "C" 
			},
			{
				"x": 0.5310759766,
				"y": 0.354958914,
				"z": -1.9686545527,
				"element": "C" 
			},
			{
				"x": -4.431777952,
				"y": -2.0528591361,
				"z": 0.3388096963,
				"element": "H" 
			},
			{
				"x": -3.1243144025,
				"y": -0.9145448312,
				"z": 0.5879175055,
				"element": "H" 
			},
			{
				"x": -1.0512832769,
				"y": -1.9827623276,
				"z": -1.8110202453,
				"element": "H" 
			},
			{
				"x": -2.0239126486,
				"y": -0.7012761944,
				"z": -2.5662660766,
				"element": "H" 
			},
			{
				"x": -0.5529047589,
				"y": 1.3456264176,
				"z": 1.1081485892,
				"element": "H" 
			},
			{
				"x": 1.4827257278,
				"y": 2.7758199756,
				"z": 0.9198728706,
				"element": "H" 
			},
			{
				"x": 3.4121028984,
				"y": 3.5343225759,
				"z": -0.2723711564,
				"element": "H" 
			},
			{
				"x": 2.2961329368,
				"y": 1.1137150223,
				"z": -2.9496795342,
				"element": "H" 
			},
			{
				"x": 0.2742106852,
				"y": -0.3164232054,
				"z": -2.7790667314,
				"element": "H" 
			}
		],
		 "valence_orbital": [ 
			{
				"type": "occ",
				"energy": -0.2774,
				"method": "rhf"
			},
			{
				"type": "occ",
				"energy": -0.2753,
				"method": "rhf"
			},
			{
				"type": "occ",
				"energy": -0.26161,
				"method": "rhf"
			},
			{
				"type": "occ",
				"energy": -0.25418,
				"method": "rhf"
			},
			{
				"type": "occ",
				"energy": -0.24459,
				"method": "rhf"
			},
			{
				"type": "unocc",
				"energy": -0.06036,
				"method": "rhf"
			},
			{
				"type": "unocc",
				"energy": -0.02282,
				"method": "rhf"
			},
			{
				"type": "unocc",
				"energy": 0.02026,
				"method": "rhf"
			},
			{
				"type": "unocc",
				"energy": 0.04218,
				"method": "rhf"
			},
			{
				"type": "unocc",
				"energy": 0.07416,
				"method": "rhf"
			}
		],
		"cosmo_sigma_profile": { 
			"-0.025": 0.0,
			"-0.024": 0.0,
			"-0.023": 0.0,
			"-0.022": 0.0,
			"-0.021": 0.0,
			"-0.02": 0.0,
			"-0.019": 0.0,
			"-0.018": 0.0,
			"-0.017": 0.0,
			"-0.016": 0.0,
			"-0.015": 0.0486346216356,
			"-0.014": 1.56648639357,
			"-0.013": 1.38087435816,
			"-0.012": 1.66482100407,
			"-0.011": 2.19018248446,
			"-0.01": 2.62856205212,
			"-0.009": 1.41297321426,
			"-0.008": 7.63077664282,
			"-0.007": 14.1458836257,
			"-0.006": 15.5401911365,
			"-0.005": 14.0029531137,
			"-0.004": 10.9256956832,
			"-0.003": 12.2132784891,
			"-0.002": 10.959678738,
			"-0.001": 11.3722502723,
			"0.0": 12.4030623874,
			"0.001": 14.2549548639,
			"0.002": 17.4970860197,
			"0.003": 19.5279232982,
			"0.004": 6.49143467443,
			"0.005": 3.39147380782,
			"0.006": 2.55221119032,
			"0.007": 2.71232720197,
			"0.008": 2.074489757,
			"0.009": 2.93210695674,
			"0.01": 3.8784067985,
			"0.011": 5.5592720311,
			"0.012": 5.46684963236,
			"0.013": 6.45218599056,
			"0.014": 5.04682977798,
			"0.015": 0.74756221247,
			"0.016": 0.0,
			"0.017": 0.0,
			"0.018": 0.0,
			"0.019": 0.0,
			"0.02": 0.0,
			"0.021": 0.0,
			"0.022": 0.0,
			"0.023": 0.0,
			"0.024": 0.0,
			"0.025": 0.0
		}
	}
}
