{
	 "smiles": "C(NC1=NC=NC2=C1NC=N2)C1=CC=CC=C1", 
	 "Tm": 504.15, 
	 "num_atms": 28, 
	 "gaussian": { 
		 "optdone": 1, 
		 "sigma_profile": "yes", 
		 "theory": "DFT", 
		 "functional": "B3LYP", 
		 "basiset": "6-31G**", 
		 "properties": { 
			 "R2extent": 4373.1215, 
			 "electric_dipole_moment_norm": 7.55988225041, 
			 "electric_quadrupole_moment_norm": 24.8303838432, 
			 "total_energy": -737.672323789, 
			 "HOMO_LUMO_gap": 0.19407, 
			 "cosmo_polarized_energy": -21.31, 
			 "cosmo_cavitation_energy": 31.79, 
			 "cosmo_dispersion_energy": -22.98, 
			 "cosmo_repulsion_energy": 1.75, 
			 "cosmo_total_nonelectrostatic_energy": 10.56, 
			 "SMD_solvation_energy": -0.01 
		},
		"coords": [
			{
				"x": -0.1945316906,
				"y": 0.1487585275,
				"z": 1.3229604246,
				"element": "C" 
			},
			{
				"x": -1.0966854438,
				"y": -0.0845807329,
				"z": 0.2034116143,
				"element": "N" 
			},
			{
				"x": -0.8310030399,
				"y": -0.9603866887,
				"z": -0.8313550945,
				"element": "C" 
			},
			{
				"x": -1.8993383782,
				"y": -1.490133826,
				"z": -1.4431949891,
				"element": "N" 
			},
			{
				"x": -1.7030588032,
				"y": -2.341675782,
				"z": -2.4680719037,
				"element": "C" 
			},
			{
				"x": -0.5545240937,
				"y": -2.7680274635,
				"z": -2.9814158947,
				"element": "N" 
			},
			{
				"x": 0.5227203508,
				"y": -2.2319249254,
				"z": -2.3819371333,
				"element": "C" 
			},
			{
				"x": 0.4429444673,
				"y": -1.315335717,
				"z": -1.3079464944,
				"element": "C" 
			},
			{
				"x": 1.7593145287,
				"y": -0.9983788222,
				"z": -1.0101650834,
				"element": "N" 
			},
			{
				"x": 2.5282162243,
				"y": -1.7111291327,
				"z": -1.8929284329,
				"element": "C" 
			},
			{
				"x": 1.8423262656,
				"y": -2.4645398538,
				"z": -2.7191566658,
				"element": "N" 
			},
			{
				"x": 0.8644443096,
				"y": 1.2180843051,
				"z": 1.0829922266,
				"element": "C" 
			},
			{
				"x": 0.6341115463,
				"y": 2.2897480687,
				"z": 0.2113862772,
				"element": "C" 
			},
			{
				"x": 1.601057786,
				"y": 3.2808501105,
				"z": 0.0386969769,
				"element": "C" 
			},
			{
				"x": 2.8117532626,
				"y": 3.2141478811,
				"z": 0.7323830018,
				"element": "C" 
			},
			{
				"x": 3.0524517835,
				"y": 2.1475673459,
				"z": 1.6000719703,
				"element": "C" 
			},
			{
				"x": 2.084474988,
				"y": 1.1545977058,
				"z": 1.7720670526,
				"element": "C" 
			},
			{
				"x": 0.2955445764,
				"y": -0.783352445,
				"z": 1.6402352069,
				"element": "H" 
			},
			{
				"x": -0.8198848203,
				"y": 0.4616276529,
				"z": 2.1670834915,
				"element": "H" 
			},
			{
				"x": -2.0858487912,
				"y": -0.0791830022,
				"z": 0.4151925471,
				"element": "H" 
			},
			{
				"x": -2.6119790753,
				"y": -2.7323328174,
				"z": -2.9218556117,
				"element": "H" 
			},
			{
				"x": 2.0826297233,
				"y": -0.3003405271,
				"z": -0.3538500775,
				"element": "H" 
			},
			{
				"x": 3.6081362241,
				"y": -1.6342736066,
				"z": -1.8781203484,
				"element": "H" 
			},
			{
				"x": -0.3020294015,
				"y": 2.3299229375,
				"z": -0.3366966503,
				"element": "H" 
			},
			{
				"x": 1.410230343,
				"y": 4.10512819,
				"z": -0.6424877964,
				"element": "H" 
			},
			{
				"x": 3.5641348816,
				"y": 3.9847966345,
				"z": 0.593414055,
				"element": "H" 
			},
			{
				"x": 3.9925075614,
				"y": 2.0844711556,
				"z": 2.1406262479,
				"element": "H" 
			},
			{
				"x": 2.2751847152,
				"y": 0.3266948271,
				"z": 2.4521610832,
				"element": "H" 
			}
		],
		 "valence_orbital": [ 
			{
				"type": "occ",
				"energy": -0.27168,
				"method": "rhf"
			},
			{
				"type": "occ",
				"energy": -0.26582,
				"method": "rhf"
			},
			{
				"type": "occ",
				"energy": -0.25449,
				"method": "rhf"
			},
			{
				"type": "occ",
				"energy": -0.24185,
				"method": "rhf"
			},
			{
				"type": "occ",
				"energy": -0.22069,
				"method": "rhf"
			},
			{
				"type": "unocc",
				"energy": -0.02662,
				"method": "rhf"
			},
			{
				"type": "unocc",
				"energy": -0.02477,
				"method": "rhf"
			},
			{
				"type": "unocc",
				"energy": -0.0223,
				"method": "rhf"
			},
			{
				"type": "unocc",
				"energy": 0.00893,
				"method": "rhf"
			},
			{
				"type": "unocc",
				"energy": 0.05024,
				"method": "rhf"
			}
		],
		"cosmo_sigma_profile": { 
			"-0.025": 0.0,
			"-0.024": 0.0,
			"-0.023": 0.0,
			"-0.022": 0.0,
			"-0.021": 0.0,
			"-0.02": 0.0,
			"-0.019": 0.0,
			"-0.018": 0.0,
			"-0.017": 0.0,
			"-0.016": 0.0,
			"-0.015": 0.0,
			"-0.014": 0.208388351505,
			"-0.013": 1.39573782091,
			"-0.012": 1.91576044622,
			"-0.011": 2.37010783715,
			"-0.01": 4.53521844112,
			"-0.009": 3.8294499866,
			"-0.008": 4.55137725218,
			"-0.007": 7.18678546579,
			"-0.006": 15.8904089976,
			"-0.005": 18.7662462218,
			"-0.004": 19.5547261278,
			"-0.003": 17.3811206365,
			"-0.002": 14.8174421832,
			"-0.001": 16.1879115654,
			"0.0": 21.8132539251,
			"0.001": 16.2278645324,
			"0.002": 15.4530701293,
			"0.003": 12.7902628564,
			"0.004": 12.213975866,
			"0.005": 9.79388727627,
			"0.006": 4.89468926088,
			"0.007": 3.57517923507,
			"0.008": 2.67955188498,
			"0.009": 3.88923189609,
			"0.01": 3.14254724491,
			"0.011": 3.03727818841,
			"0.012": 2.80487431011,
			"0.013": 3.80138829526,
			"0.014": 3.83205513138,
			"0.015": 3.35915966594,
			"0.016": 2.34258986756,
			"0.017": 1.02952246937,
			"0.018": 0.0,
			"0.019": 0.0,
			"0.02": 0.0,
			"0.021": 0.0,
			"0.022": 0.0,
			"0.023": 0.0,
			"0.024": 0.0,
			"0.025": 0.0
		}
	}
}
