{
	 "smiles": "NC1=NON=C1C(=O)N1CCCC1", 
	 "Tm": 466.15, 
	 "num_atms": 23, 
	 "gaussian": { 
		 "optdone": 1, 
		 "sigma_profile": "yes", 
		 "theory": "DFT", 
		 "functional": "B3LYP", 
		 "basiset": "6-31G**", 
		 "properties": { 
			 "R2extent": 3232.6982, 
			 "electric_dipole_moment_norm": 3.71311365433, 
			 "electric_quadrupole_moment_norm": 15.4643069159, 
			 "total_energy": -642.160632102, 
			 "HOMO_LUMO_gap": 0.18153, 
			 "cosmo_polarized_energy": -11.79, 
			 "cosmo_cavitation_energy": 26.18, 
			 "cosmo_dispersion_energy": -20.0, 
			 "cosmo_repulsion_energy": 1.59, 
			 "cosmo_total_nonelectrostatic_energy": 7.77, 
			 "SMD_solvation_energy": 3.64 
		},
		"coords": [
			{
				"x": 0.8358131878,
				"y": -2.2052002175,
				"z": 3.0586606824,
				"element": "N" 
			},
			{
				"x": 1.2985459553,
				"y": -0.9282971138,
				"z": 2.9948717933,
				"element": "C" 
			},
			{
				"x": 2.2513937953,
				"y": -0.428896442,
				"z": 3.7520754107,
				"element": "N" 
			},
			{
				"x": 2.4215344755,
				"y": 0.8795018541,
				"z": 3.2943813354,
				"element": "O" 
			},
			{
				"x": 1.5782969373,
				"y": 1.1689424689,
				"z": 2.2751725683,
				"element": "N" 
			},
			{
				"x": 0.8714505763,
				"y": 0.0865006303,
				"z": 2.0590894565,
				"element": "C" 
			},
			{
				"x": -0.2385695778,
				"y": -0.0908188098,
				"z": 1.0836258371,
				"element": "C" 
			},
			{
				"x": -0.9178996335,
				"y": -1.128440404,
				"z": 1.153250585,
				"element": "O" 
			},
			{
				"x": -0.4919264909,
				"y": 0.8653149662,
				"z": 0.1612821636,
				"element": "N" 
			},
			{
				"x": 0.2383852262,
				"y": 2.1228701136,
				"z": -0.0898710921,
				"element": "C" 
			},
			{
				"x": -0.3093615357,
				"y": 2.5757976289,
				"z": -1.4514233806,
				"element": "C" 
			},
			{
				"x": -1.7528286903,
				"y": 2.0463780274,
				"z": -1.4506732669,
				"element": "C" 
			},
			{
				"x": -1.6287053974,
				"y": 0.682309528,
				"z": -0.7596602939,
				"element": "C" 
			},
			{
				"x": -0.0463479086,
				"y": -2.3461986381,
				"z": 2.5802472497,
				"element": "H" 
			},
			{
				"x": 1.0227378527,
				"y": -2.7245877478,
				"z": 3.9023113247,
				"element": "H" 
			},
			{
				"x": 1.3169677031,
				"y": 1.9566453735,
				"z": -0.0907592982,
				"element": "H" 
			},
			{
				"x": 0.0225489323,
				"y": 2.8550471567,
				"z": 0.697272504,
				"element": "H" 
			},
			{
				"x": 0.2641153632,
				"y": 2.1064787342,
				"z": -2.258827803,
				"element": "H" 
			},
			{
				"x": -0.2434875178,
				"y": 3.6591827192,
				"z": -1.5802139603,
				"element": "H" 
			},
			{
				"x": -2.3973149946,
				"y": 2.7088140102,
				"z": -0.8617586695,
				"element": "H" 
			},
			{
				"x": -2.1833516801,
				"y": 1.9654754046,
				"z": -2.4519489239,
				"element": "H" 
			},
			{
				"x": -1.4042308215,
				"y": -0.1224651976,
				"z": -1.4711138357,
				"element": "H" 
			},
			{
				"x": -2.5188657569,
				"y": 0.3819459547,
				"z": -0.2015903865,
				"element": "H" 
			}
		],
		 "valence_orbital": [ 
			{
				"type": "occ",
				"energy": -0.30715,
				"method": "rhf"
			},
			{
				"type": "occ",
				"energy": -0.30302,
				"method": "rhf"
			},
			{
				"type": "occ",
				"energy": -0.27148,
				"method": "rhf"
			},
			{
				"type": "occ",
				"energy": -0.25227,
				"method": "rhf"
			},
			{
				"type": "occ",
				"energy": -0.23666,
				"method": "rhf"
			},
			{
				"type": "unocc",
				"energy": -0.05513,
				"method": "rhf"
			},
			{
				"type": "unocc",
				"energy": 0.01377,
				"method": "rhf"
			},
			{
				"type": "unocc",
				"energy": 0.07431,
				"method": "rhf"
			},
			{
				"type": "unocc",
				"energy": 0.0771,
				"method": "rhf"
			},
			{
				"type": "unocc",
				"energy": 0.09444,
				"method": "rhf"
			}
		],
		"cosmo_sigma_profile": { 
			"-0.025": 0.0,
			"-0.024": 0.0,
			"-0.023": 0.0,
			"-0.022": 0.0,
			"-0.021": 0.0,
			"-0.02": 0.0,
			"-0.019": 0.0,
			"-0.018": 0.0,
			"-0.017": 0.0,
			"-0.016": 0.0,
			"-0.015": 0.300429861193,
			"-0.014": 1.26967806377,
			"-0.013": 1.18786713963,
			"-0.012": 1.19130947914,
			"-0.011": 1.0842248934,
			"-0.01": 1.52326315398,
			"-0.009": 1.99671392386,
			"-0.008": 1.80363839536,
			"-0.007": 1.51961236658,
			"-0.006": 1.55611050076,
			"-0.005": 8.57662695186,
			"-0.004": 24.7281829603,
			"-0.003": 33.2850134407,
			"-0.002": 24.1042191378,
			"-0.001": 19.3131461741,
			"0.0": 12.1954961919,
			"0.001": 5.42020054159,
			"0.002": 5.26782088595,
			"0.003": 6.44525079134,
			"0.004": 6.45261241492,
			"0.005": 7.2731496795,
			"0.006": 11.0170349999,
			"0.007": 7.38053868224,
			"0.008": 5.32849994883,
			"0.009": 3.62517573644,
			"0.01": 3.37760346244,
			"0.011": 3.20336641734,
			"0.012": 3.30769143942,
			"0.013": 2.8493701878,
			"0.014": 0.29309014596,
			"0.015": 0.0,
			"0.016": 0.0,
			"0.017": 0.0,
			"0.018": 0.0,
			"0.019": 0.0,
			"0.02": 0.0,
			"0.021": 0.0,
			"0.022": 0.0,
			"0.023": 0.0,
			"0.024": 0.0,
			"0.025": 0.0
		}
	}
}
