{
	 "smiles": "NC1=CC(F)=C(OCC2=CC(=CC=C2)C#N)C=C1", 
	 "Tm": 343.15, 
	 "num_atms": 29, 
	 "gaussian": { 
		 "optdone": 1, 
		 "sigma_profile": "yes", 
		 "theory": "DFT", 
		 "functional": "B3LYP", 
		 "basiset": "6-31G**", 
		 "properties": { 
			 "R2extent": 5114.5268, 
			 "electric_dipole_moment_norm": 4.88062143379, 
			 "electric_quadrupole_moment_norm": 29.3577600644, 
			 "total_energy": -824.650755924, 
			 "HOMO_LUMO_gap": 0.1487, 
			 "cosmo_polarized_energy": -16.0, 
			 "cosmo_cavitation_energy": 35.03, 
			 "cosmo_dispersion_energy": -23.86, 
			 "cosmo_repulsion_energy": 1.85, 
			 "cosmo_total_nonelectrostatic_energy": 13.02, 
			 "SMD_solvation_energy": 7.72 
		},
		"coords": [
			{
				"x": -1.9006160803,
				"y": -3.1203900073,
				"z": -2.8916063649,
				"element": "N" 
			},
			{
				"x": -1.8651754754,
				"y": -2.2718302744,
				"z": -1.7817948089,
				"element": "C" 
			},
			{
				"x": -2.2513556142,
				"y": -0.9276559992,
				"z": -1.8946522332,
				"element": "C" 
			},
			{
				"x": -2.2801364563,
				"y": -0.1174460645,
				"z": -0.7687062918,
				"element": "C" 
			},
			{
				"x": -2.6737904124,
				"y": 1.1751232959,
				"z": -0.9324319584,
				"element": "F" 
			},
			{
				"x": -1.909402885,
				"y": -0.5736774927,
				"z": 0.5001395044,
				"element": "C" 
			},
			{
				"x": -1.9709426649,
				"y": 0.1628952141,
				"z": 1.6601632578,
				"element": "O" 
			},
			{
				"x": -1.4830774729,
				"y": 1.5176016939,
				"z": 1.6598157971,
				"element": "C" 
			},
			{
				"x": -0.0269905215,
				"y": 1.6272974214,
				"z": 1.2646740346,
				"element": "C" 
			},
			{
				"x": 0.9701800673,
				"y": 1.1782111689,
				"z": 2.1350833071,
				"element": "C" 
			},
			{
				"x": 2.3214692161,
				"y": 1.2633533441,
				"z": 1.7690456273,
				"element": "C" 
			},
			{
				"x": 2.6816489107,
				"y": 1.8021574476,
				"z": 0.5207296255,
				"element": "C" 
			},
			{
				"x": 1.6875497748,
				"y": 2.2425686135,
				"z": -0.3468617636,
				"element": "C" 
			},
			{
				"x": 0.3425110947,
				"y": 2.1516876101,
				"z": 0.0203208301,
				"element": "C" 
			},
			{
				"x": 3.3387158984,
				"y": 0.8047344084,
				"z": 2.6712197653,
				"element": "C" 
			},
			{
				"x": 4.1647484961,
				"y": 0.432855856,
				"z": 3.4010430827,
				"element": "N" 
			},
			{
				"x": -1.5188029677,
				"y": -1.9130685024,
				"z": 0.5964995436,
				"element": "C" 
			},
			{
				"x": -1.502311957,
				"y": -2.7531326763,
				"z": -0.5118758777,
				"element": "C" 
			},
			{
				"x": -1.2989068214,
				"y": -3.9299019636,
				"z": -2.8250680998,
				"element": "H" 
			},
			{
				"x": -1.8066535901,
				"y": -2.6601020516,
				"z": -3.7865399974,
				"element": "H" 
			},
			{
				"x": -2.5528991906,
				"y": -0.501696142,
				"z": -2.8464875053,
				"element": "H" 
			},
			{
				"x": -1.6212957639,
				"y": 1.8385820452,
				"z": 2.6957137382,
				"element": "H" 
			},
			{
				"x": -2.1014382213,
				"y": 2.148144585,
				"z": 1.0172523031,
				"element": "H" 
			},
			{
				"x": 0.7018822946,
				"y": 0.7594412649,
				"z": 3.1001780214,
				"element": "H" 
			},
			{
				"x": 3.7293597973,
				"y": 1.8684961056,
				"z": 0.2474326571,
				"element": "H" 
			},
			{
				"x": 1.9596694187,
				"y": 2.6553153757,
				"z": -1.3134115421,
				"element": "H" 
			},
			{
				"x": -0.4327248574,
				"y": 2.4822055523,
				"z": -0.6646893324,
				"element": "H" 
			},
			{
				"x": -1.2296388254,
				"y": -2.2830977006,
				"z": 1.5747503952,
				"element": "H" 
			},
			{
				"x": -1.2016751911,
				"y": -3.790672128,
				"z": -0.3955357151,
				"element": "H" 
			}
		],
		 "valence_orbital": [ 
			{
				"type": "occ",
				"energy": -0.28388,
				"method": "rhf"
			},
			{
				"type": "occ",
				"energy": -0.27145,
				"method": "rhf"
			},
			{
				"type": "occ",
				"energy": -0.26598,
				"method": "rhf"
			},
			{
				"type": "occ",
				"energy": -0.25053,
				"method": "rhf"
			},
			{
				"type": "occ",
				"energy": -0.20005,
				"method": "rhf"
			},
			{
				"type": "unocc",
				"energy": -0.05135,
				"method": "rhf"
			},
			{
				"type": "unocc",
				"energy": -0.03145,
				"method": "rhf"
			},
			{
				"type": "unocc",
				"energy": -0.00347,
				"method": "rhf"
			},
			{
				"type": "unocc",
				"energy": 0.01581,
				"method": "rhf"
			},
			{
				"type": "unocc",
				"energy": 0.03774,
				"method": "rhf"
			}
		],
		"cosmo_sigma_profile": { 
			"-0.025": 0.0,
			"-0.024": 0.0,
			"-0.023": 0.0,
			"-0.022": 0.0,
			"-0.021": 0.0,
			"-0.02": 0.0,
			"-0.019": 0.0,
			"-0.018": 0.0,
			"-0.017": 0.0,
			"-0.016": 0.0,
			"-0.015": 0.0,
			"-0.014": 0.0,
			"-0.013": 0.484087721026,
			"-0.012": 2.79663129602,
			"-0.011": 2.70995709366,
			"-0.01": 3.06330722554,
			"-0.009": 4.00291818466,
			"-0.008": 5.50063497272,
			"-0.007": 12.3358554167,
			"-0.006": 17.6711486659,
			"-0.005": 18.0445210194,
			"-0.004": 18.0434022768,
			"-0.003": 14.8284337341,
			"-0.002": 14.3779887396,
			"-0.001": 16.8233279524,
			"0.0": 15.6947055352,
			"0.001": 19.5285952997,
			"0.002": 24.5063951661,
			"0.003": 20.667522554,
			"0.004": 17.4749405691,
			"0.005": 13.9714079231,
			"0.006": 7.16763982829,
			"0.007": 4.48990487993,
			"0.008": 6.04899362134,
			"0.009": 4.9918908121,
			"0.01": 5.58466818881,
			"0.011": 4.13751925468,
			"0.012": 3.14119683093,
			"0.013": 2.58526575296,
			"0.014": 0.53681054503,
			"0.015": 0.177573214218,
			"0.016": 0.0,
			"0.017": 0.0,
			"0.018": 0.0,
			"0.019": 0.0,
			"0.02": 0.0,
			"0.021": 0.0,
			"0.022": 0.0,
			"0.023": 0.0,
			"0.024": 0.0,
			"0.025": 0.0
		}
	}
}
