{
	 "smiles": "ClC1=C(Cl)C=C(COC2=CC=C(C=O)C=C2)C=C1", 
	 "Tm": 365.65, 
	 "num_atms": 28, 
	 "gaussian": { 
		 "optdone": 1, 
		 "sigma_profile": "yes", 
		 "theory": "DFT", 
		 "functional": "B3LYP", 
		 "basiset": "6-31G**", 
		 "properties": { 
			 "R2extent": 8927.9072, 
			 "electric_dipole_moment_norm": 4.30241641058, 
			 "electric_quadrupole_moment_norm": 19.2511561559, 
			 "total_energy": -1610.33089594, 
			 "HOMO_LUMO_gap": 0.18378, 
			 "cosmo_polarized_energy": -12.96, 
			 "cosmo_cavitation_energy": 36.89, 
			 "cosmo_dispersion_energy": -26.18, 
			 "cosmo_repulsion_energy": 2.04, 
			 "cosmo_total_nonelectrostatic_energy": 12.76, 
			 "SMD_solvation_energy": 6.86 
		},
		"coords": [
			{
				"x": -4.0347347792,
				"y": 2.9304050303,
				"z": -1.4706838024,
				"element": "Cl" 
			},
			{
				"x": -2.9940921879,
				"y": 2.3581814754,
				"z": -0.1919753536,
				"element": "C" 
			},
			{
				"x": -1.9574150748,
				"y": 3.1498223198,
				"z": 0.3224872236,
				"element": "C" 
			},
			{
				"x": -1.6519719346,
				"y": 4.756714637,
				"z": -0.287918467,
				"element": "Cl" 
			},
			{
				"x": -1.1464893339,
				"y": 2.6576737031,
				"z": 1.345940829,
				"element": "C" 
			},
			{
				"x": -1.3505083409,
				"y": 1.3762630111,
				"z": 1.8613450235,
				"element": "C" 
			},
			{
				"x": -0.5055111686,
				"y": 0.8680814242,
				"z": 3.0139081607,
				"element": "C" 
			},
			{
				"x": 0.8114481348,
				"y": 1.4137705381,
				"z": 3.0518225308,
				"element": "O" 
			},
			{
				"x": 1.776205569,
				"y": 0.9094006301,
				"z": 2.2277630054,
				"element": "C" 
			},
			{
				"x": 3.066640172,
				"y": 1.4214327792,
				"z": 2.4385882701,
				"element": "C" 
			},
			{
				"x": 4.1221089468,
				"y": 0.9665813777,
				"z": 1.6626663336,
				"element": "C" 
			},
			{
				"x": 3.914116213,
				"y": -0.0023802548,
				"z": 0.6680049994,
				"element": "C" 
			},
			{
				"x": 5.0408415779,
				"y": -0.4851006182,
				"z": -0.1518140333,
				"element": "C" 
			},
			{
				"x": 4.9527057206,
				"y": -1.3234583864,
				"z": -1.0309580296,
				"element": "O" 
			},
			{
				"x": 2.6205037333,
				"y": -0.5016414413,
				"z": 0.4629936444,
				"element": "C" 
			},
			{
				"x": 1.5511267528,
				"y": -0.0535842839,
				"z": 1.2299763808,
				"element": "C" 
			},
			{
				"x": -2.3828411001,
				"y": 0.5893982442,
				"z": 1.3401776927,
				"element": "C" 
			},
			{
				"x": -3.2007067453,
				"y": 1.0773032065,
				"z": 0.3245193462,
				"element": "C" 
			},
			{
				"x": -0.3469747723,
				"y": 3.2779628702,
				"z": 1.734416199,
				"element": "H" 
			},
			{
				"x": -0.9486200951,
				"y": 1.1799311129,
				"z": 3.9656883742,
				"element": "H" 
			},
			{
				"x": -0.4694061565,
				"y": -0.2284911904,
				"z": 3.0122224046,
				"element": "H" 
			},
			{
				"x": 3.2086633482,
				"y": 2.1643051501,
				"z": 3.2162441911,
				"element": "H" 
			},
			{
				"x": 5.1224557362,
				"y": 1.3605030578,
				"z": 1.8271338164,
				"element": "H" 
			},
			{
				"x": 6.0216313798,
				"y": -0.0171723882,
				"z": 0.0918344316,
				"element": "H" 
			},
			{
				"x": 2.4721008451,
				"y": -1.2436942432,
				"z": -0.3153232228,
				"element": "H" 
			},
			{
				"x": 0.5557387799,
				"y": -0.4342604208,
				"z": 1.0372148495,
				"element": "H" 
			},
			{
				"x": -2.553984426,
				"y": -0.4125039106,
				"z": 1.725129338,
				"element": "H" 
			},
			{
				"x": -4.0000307943,
				"y": 0.46835657,
				"z": -0.082904136,
				"element": "H" 
			}
		],
		 "valence_orbital": [ 
			{
				"type": "occ",
				"energy": -0.27295,
				"method": "rhf"
			},
			{
				"type": "occ",
				"energy": -0.26898,
				"method": "rhf"
			},
			{
				"type": "occ",
				"energy": -0.25654,
				"method": "rhf"
			},
			{
				"type": "occ",
				"energy": -0.25059,
				"method": "rhf"
			},
			{
				"type": "occ",
				"energy": -0.24035,
				"method": "rhf"
			},
			{
				"type": "unocc",
				"energy": -0.05657,
				"method": "rhf"
			},
			{
				"type": "unocc",
				"energy": -0.03627,
				"method": "rhf"
			},
			{
				"type": "unocc",
				"energy": -0.035,
				"method": "rhf"
			},
			{
				"type": "unocc",
				"energy": -0.01695,
				"method": "rhf"
			},
			{
				"type": "unocc",
				"energy": -0.00273,
				"method": "rhf"
			}
		],
		"cosmo_sigma_profile": { 
			"-0.025": 0.0,
			"-0.024": 0.0,
			"-0.023": 0.0,
			"-0.022": 0.0,
			"-0.021": 0.0,
			"-0.02": 0.0,
			"-0.019": 0.0,
			"-0.018": 0.0,
			"-0.017": 0.0,
			"-0.016": 0.0,
			"-0.015": 0.0,
			"-0.014": 0.0,
			"-0.013": 0.0,
			"-0.012": 0.0,
			"-0.011": 0.0,
			"-0.01": 0.0,
			"-0.009": 0.255616613962,
			"-0.008": 6.26491776453,
			"-0.007": 15.2651658319,
			"-0.006": 21.1321660154,
			"-0.005": 17.2367405588,
			"-0.004": 14.7268915337,
			"-0.003": 17.294622024,
			"-0.002": 16.3918582855,
			"-0.001": 18.6345053693,
			"0.0": 25.0211348587,
			"0.001": 32.9547820282,
			"0.002": 31.811237338,
			"0.003": 30.0234027786,
			"0.004": 23.3585404289,
			"0.005": 7.99465171826,
			"0.006": 4.12605535262,
			"0.007": 1.67867992741,
			"0.008": 2.02636753939,
			"0.009": 2.89497516973,
			"0.01": 2.19353181009,
			"0.011": 3.47723960185,
			"0.012": 4.16512631427,
			"0.013": 1.65684603038,
			"0.014": 0.171955058645,
			"0.015": 0.0,
			"0.016": 0.0,
			"0.017": 0.0,
			"0.018": 0.0,
			"0.019": 0.0,
			"0.02": 0.0,
			"0.021": 0.0,
			"0.022": 0.0,
			"0.023": 0.0,
			"0.024": 0.0,
			"0.025": 0.0
		}
	}
}
