{
	 "smiles": "CC1=CN=C(N)N=C1", 
	 "Tm": 468.15, 
	 "num_atms": 15, 
	 "gaussian": { 
		 "optdone": 1, 
		 "sigma_profile": "yes", 
		 "theory": "DFT", 
		 "functional": "B3LYP", 
		 "basiset": "6-31G**", 
		 "properties": { 
			 "R2extent": 1688.5212, 
			 "electric_dipole_moment_norm": 0.887784664206, 
			 "electric_quadrupole_moment_norm": 6.98971984203, 
			 "total_energy": -359.018884262, 
			 "HOMO_LUMO_gap": 0.19107, 
			 "cosmo_polarized_energy": -8.94, 
			 "cosmo_cavitation_energy": 18.89, 
			 "cosmo_dispersion_energy": -14.37, 
			 "cosmo_repulsion_energy": 1.21, 
			 "cosmo_total_nonelectrostatic_energy": 5.73, 
			 "SMD_solvation_energy": 0.55 
		},
		"coords": [
			{
				"x": 0.1937686908,
				"y": 0.0148695949,
				"z": 3.0388899553,
				"element": "C" 
			},
			{
				"x": 0.8147948767,
				"y": -0.5553720556,
				"z": 1.7902429941,
				"element": "C" 
			},
			{
				"x": 1.9500348214,
				"y": -0.0038435688,
				"z": 1.1866890757,
				"element": "C" 
			},
			{
				"x": 2.5308704923,
				"y": -0.5019414191,
				"z": 0.0952445605,
				"element": "N" 
			},
			{
				"x": 1.9521192854,
				"y": -1.6014752474,
				"z": -0.4252864263,
				"element": "C" 
			},
			{
				"x": 2.5037550251,
				"y": -2.1072336503,
				"z": -1.5702677707,
				"element": "N" 
			},
			{
				"x": 0.8632358192,
				"y": -2.2319967849,
				"z": 0.0560460558,
				"element": "N" 
			},
			{
				"x": 0.3194442197,
				"y": -1.6954812161,
				"z": 1.1483520271,
				"element": "C" 
			},
			{
				"x": -0.8838090603,
				"y": -0.1748850692,
				"z": 3.0697359651,
				"element": "H" 
			},
			{
				"x": 0.6268210795,
				"y": -0.4231795711,
				"z": 3.9470304895,
				"element": "H" 
			},
			{
				"x": 0.3427337948,
				"y": 1.0976266722,
				"z": 3.0986487779,
				"element": "H" 
			},
			{
				"x": 2.4144424379,
				"y": 0.889363181,
				"z": 1.6070988893,
				"element": "H" 
			},
			{
				"x": 2.2300346539,
				"y": -3.0398105601,
				"z": -1.8350931605,
				"element": "H" 
			},
			{
				"x": 3.4313073521,
				"y": -1.79347648,
				"z": -1.8068258722,
				"element": "H" 
			},
			{
				"x": -0.5652534885,
				"y": -2.2018638256,
				"z": 1.5370944393,
				"element": "H" 
			}
		],
		 "valence_orbital": [ 
			{
				"type": "occ",
				"energy": -0.31443,
				"method": "rhf"
			},
			{
				"type": "occ",
				"energy": -0.30424,
				"method": "rhf"
			},
			{
				"type": "occ",
				"energy": -0.30255,
				"method": "rhf"
			},
			{
				"type": "occ",
				"energy": -0.23889,
				"method": "rhf"
			},
			{
				"type": "occ",
				"energy": -0.21752,
				"method": "rhf"
			},
			{
				"type": "unocc",
				"energy": -0.02645,
				"method": "rhf"
			},
			{
				"type": "unocc",
				"energy": 0.00815,
				"method": "rhf"
			},
			{
				"type": "unocc",
				"energy": 0.09728,
				"method": "rhf"
			},
			{
				"type": "unocc",
				"energy": 0.1066,
				"method": "rhf"
			},
			{
				"type": "unocc",
				"energy": 0.13282,
				"method": "rhf"
			}
		],
		"cosmo_sigma_profile": { 
			"-0.025": 0.0,
			"-0.024": 0.0,
			"-0.023": 0.0,
			"-0.022": 0.0,
			"-0.021": 0.0,
			"-0.02": 0.0,
			"-0.019": 0.0,
			"-0.018": 0.0,
			"-0.017": 0.0,
			"-0.016": 0.0,
			"-0.015": 0.0,
			"-0.014": 0.312827888592,
			"-0.013": 1.63725017687,
			"-0.012": 1.96509555737,
			"-0.011": 2.38072381517,
			"-0.01": 2.00432225986,
			"-0.009": 1.58502457408,
			"-0.008": 2.03446570591,
			"-0.007": 2.62199052742,
			"-0.006": 5.37831627143,
			"-0.005": 8.57987895595,
			"-0.004": 11.8794842391,
			"-0.003": 9.63692982401,
			"-0.002": 11.5272919508,
			"-0.001": 12.5680089813,
			"0.0": 12.6627744312,
			"0.001": 14.0697024748,
			"0.002": 10.3838866634,
			"0.003": 5.09798249412,
			"0.004": 5.05953660004,
			"0.005": 3.2279267926,
			"0.006": 3.57384566557,
			"0.007": 3.12799506143,
			"0.008": 4.85208104766,
			"0.009": 2.69080564957,
			"0.01": 2.09281908218,
			"0.011": 1.26025018262,
			"0.012": 2.75694473731,
			"0.013": 1.90909393339,
			"0.014": 0.983042178173,
			"0.015": 1.7681862266,
			"0.016": 0.261654806389,
			"0.017": 0.0,
			"0.018": 0.0,
			"0.019": 0.0,
			"0.02": 0.0,
			"0.021": 0.0,
			"0.022": 0.0,
			"0.023": 0.0,
			"0.024": 0.0,
			"0.025": 0.0
		}
	}
}
