{
	 "smiles": "FC1=CC2=C(OC3=C(O2)C=C(Br)C(Br)=C3)C=C1F", 
	 "Tm": 483.15, 
	 "num_atms": 22, 
	 "gaussian": { 
		 "optdone": 1, 
		 "sigma_profile": "yes", 
		 "theory": "DFT", 
		 "functional": "B3LYP", 
		 "basiset": "6-31G**", 
		 "properties": { 
			 "R2extent": 12628.3855, 
			 "electric_dipole_moment_norm": 0.334983850357, 
			 "electric_quadrupole_moment_norm": 13.8720929574, 
			 "total_energy": -5952.57513845, 
			 "HOMO_LUMO_gap": 0.17653, 
			 "cosmo_polarized_energy": -5.72, 
			 "cosmo_cavitation_energy": 33.04, 
			 "cosmo_dispersion_energy": -25.27, 
			 "cosmo_repulsion_energy": 1.86, 
			 "cosmo_total_nonelectrostatic_energy": 9.62, 
			 "SMD_solvation_energy": 4.9 
		},
		"coords": [
			{
				"x": 3.3477641343,
				"y": 0.3046882958,
				"z": 3.2173182202,
				"element": "F" 
			},
			{
				"x": 2.5571549544,
				"y": -0.0122593026,
				"z": 2.1799091556,
				"element": "C" 
			},
			{
				"x": 1.1751891582,
				"y": 0.0666787317,
				"z": 2.3065202089,
				"element": "C" 
			},
			{
				"x": 0.3714573256,
				"y": -0.2656177024,
				"z": 1.2211992606,
				"element": "C" 
			},
			{
				"x": 0.9497531195,
				"y": -0.6749353767,
				"z": 0.0151803021,
				"element": "C" 
			},
			{
				"x": 0.1848368685,
				"y": -1.0128017505,
				"z": -1.0835571655,
				"element": "O" 
			},
			{
				"x": -1.1794411971,
				"y": -0.9231027984,
				"z": -0.9221044996,
				"element": "C" 
			},
			{
				"x": -1.7581289995,
				"y": -0.5134915697,
				"z": 0.2847156487,
				"element": "C" 
			},
			{
				"x": -0.9970690512,
				"y": -0.1761688284,
				"z": 1.3812427232,
				"element": "O" 
			},
			{
				"x": -3.1387131912,
				"y": -0.4383491093,
				"z": 0.4001909324,
				"element": "C" 
			},
			{
				"x": -3.9571258271,
				"y": -0.769952661,
				"z": -0.6836844265,
				"element": "C" 
			},
			{
				"x": -5.8371037698,
				"y": -0.642372849,
				"z": -0.4487428428,
				"element": "Br" 
			},
			{
				"x": -3.3791305563,
				"y": -1.1790426118,
				"z": -1.8890612788,
				"element": "C" 
			},
			{
				"x": -4.4179526202,
				"y": -1.6467582136,
				"z": -3.4082066653,
				"element": "Br" 
			},
			{
				"x": -1.9875100897,
				"y": -1.2531829565,
				"z": -2.0005557631,
				"element": "C" 
			},
			{
				"x": 2.3329096091,
				"y": -0.7527268458,
				"z": -0.107893244,
				"element": "C" 
			},
			{
				"x": 3.1330604684,
				"y": -0.4198450247,
				"z": 0.9788652803,
				"element": "C" 
			},
			{
				"x": 4.4697147542,
				"y": -0.4893109641,
				"z": 0.8774961239,
				"element": "F" 
			},
			{
				"x": 0.7280338469,
				"y": 0.383822432,
				"z": 3.2411462651,
				"element": "H" 
			},
			{
				"x": -3.5707109699,
				"y": -0.1195581652,
				"z": 1.3408805693,
				"element": "H" 
			},
			{
				"x": -1.5239953115,
				"y": -1.5682810629,
				"z": -2.9273808839,
				"element": "H" 
			},
			{
				"x": 2.7817073443,
				"y": -1.0697316669,
				"z": -1.0417779208,
				"element": "H" 
			}
		],
		 "valence_orbital": [ 
			{
				"type": "occ",
				"energy": -0.2844,
				"method": "rhf"
			},
			{
				"type": "occ",
				"energy": -0.28181,
				"method": "rhf"
			},
			{
				"type": "occ",
				"energy": -0.26125,
				"method": "rhf"
			},
			{
				"type": "occ",
				"energy": -0.25639,
				"method": "rhf"
			},
			{
				"type": "occ",
				"energy": -0.21547,
				"method": "rhf"
			},
			{
				"type": "unocc",
				"energy": -0.03894,
				"method": "rhf"
			},
			{
				"type": "unocc",
				"energy": -0.03398,
				"method": "rhf"
			},
			{
				"type": "unocc",
				"energy": -0.02939,
				"method": "rhf"
			},
			{
				"type": "unocc",
				"energy": -0.02934,
				"method": "rhf"
			},
			{
				"type": "unocc",
				"energy": 0.00806,
				"method": "rhf"
			}
		],
		"cosmo_sigma_profile": { 
			"-0.025": 0.0,
			"-0.024": 0.0,
			"-0.023": 0.0,
			"-0.022": 0.0,
			"-0.021": 0.0,
			"-0.02": 0.0,
			"-0.019": 0.0,
			"-0.018": 0.0,
			"-0.017": 0.0,
			"-0.016": 0.0,
			"-0.015": 0.0,
			"-0.014": 0.0,
			"-0.013": 0.0,
			"-0.012": 0.0,
			"-0.011": 0.0,
			"-0.01": 0.256691839788,
			"-0.009": 4.61088382765,
			"-0.008": 4.87161262559,
			"-0.007": 5.51095743835,
			"-0.006": 7.34565487782,
			"-0.005": 8.84775069617,
			"-0.004": 11.2934462917,
			"-0.003": 11.6209975312,
			"-0.002": 17.1877270325,
			"-0.001": 30.1051914078,
			"0.0": 44.9561729983,
			"0.001": 33.4039235218,
			"0.002": 20.0421218905,
			"0.003": 34.4242141019,
			"0.004": 29.8763393753,
			"0.005": 7.2745235854,
			"0.006": 2.88983264396,
			"0.007": 0.224640389219,
			"0.008": 0.0,
			"0.009": 0.0,
			"0.01": 0.0,
			"0.011": 0.0,
			"0.012": 0.0,
			"0.013": 0.0,
			"0.014": 0.0,
			"0.015": 0.0,
			"0.016": 0.0,
			"0.017": 0.0,
			"0.018": 0.0,
			"0.019": 0.0,
			"0.02": 0.0,
			"0.021": 0.0,
			"0.022": 0.0,
			"0.023": 0.0,
			"0.024": 0.0,
			"0.025": 0.0
		}
	}
}
