{
	 "smiles": "OC(=O)C(C#N)=C1CCCCC1", 
	 "Tm": 381.15, 
	 "num_atms": 23, 
	 "gaussian": { 
		 "optdone": 1, 
		 "sigma_profile": "yes", 
		 "theory": "DFT", 
		 "functional": "B3LYP", 
		 "basiset": "6-31G**", 
		 "properties": { 
			 "R2extent": 3305.0833, 
			 "electric_dipole_moment_norm": 7.36396885925, 
			 "electric_quadrupole_moment_norm": 25.742998237, 
			 "total_energy": -554.769779272, 
			 "HOMO_LUMO_gap": 0.20532, 
			 "cosmo_polarized_energy": -19.08, 
			 "cosmo_cavitation_energy": 26.46, 
			 "cosmo_dispersion_energy": -18.6, 
			 "cosmo_repulsion_energy": 1.51, 
			 "cosmo_total_nonelectrostatic_energy": 9.37, 
			 "SMD_solvation_energy": 6.2 
		},
		"coords": [
			{
				"x": -0.8841260296,
				"y": 2.5804319122,
				"z": -0.5410302048,
				"element": "O" 
			},
			{
				"x": -0.4358020013,
				"y": 2.4532281687,
				"z": -1.8184336715,
				"element": "C" 
			},
			{
				"x": 0.039196794,
				"y": 3.391559692,
				"z": -2.4018449331,
				"element": "O" 
			},
			{
				"x": -0.586727895,
				"y": 1.0809790423,
				"z": -2.4431040921,
				"element": "C" 
			},
			{
				"x": -1.1661907137,
				"y": 1.1060354232,
				"z": -3.7550707016,
				"element": "C" 
			},
			{
				"x": -1.6585021739,
				"y": 1.1244786263,
				"z": -4.8092684483,
				"element": "N" 
			},
			{
				"x": -0.1194873978,
				"y": -0.0778365087,
				"z": -1.9077494825,
				"element": "C" 
			},
			{
				"x": -0.2457978787,
				"y": -1.4040400754,
				"z": -2.6182639427,
				"element": "C" 
			},
			{
				"x": -0.9277989011,
				"y": -2.4524896559,
				"z": -1.7094586382,
				"element": "C" 
			},
			{
				"x": -0.2137108946,
				"y": -2.5819193417,
				"z": -0.3575045154,
				"element": "C" 
			},
			{
				"x": -0.0939125669,
				"y": -1.2214895203,
				"z": 0.3423386466,
				"element": "C" 
			},
			{
				"x": 0.5811272092,
				"y": -0.1727475659,
				"z": -0.5719033409,
				"element": "C" 
			},
			{
				"x": -1.3644361579,
				"y": 1.7802775574,
				"z": -0.2844566652,
				"element": "H" 
			},
			{
				"x": 0.7672500588,
				"y": -1.7563820298,
				"z": -2.8621244164,
				"element": "H" 
			},
			{
				"x": -0.7854938691,
				"y": -1.2989578373,
				"z": -3.5619221015,
				"element": "H" 
			},
			{
				"x": -1.9731531707,
				"y": -2.158283553,
				"z": -1.5481539781,
				"element": "H" 
			},
			{
				"x": -0.9499377475,
				"y": -3.4164101692,
				"z": -2.2289311106,
				"element": "H" 
			},
			{
				"x": -0.7467785091,
				"y": -3.291006612,
				"z": 0.2857692707,
				"element": "H" 
			},
			{
				"x": 0.7918471394,
				"y": -2.996224755,
				"z": -0.5147460765,
				"element": "H" 
			},
			{
				"x": 0.4792383765,
				"y": -1.310923742,
				"z": 1.271358445,
				"element": "H" 
			},
			{
				"x": -1.095219794,
				"y": -0.8667747839,
				"z": 0.6250657122,
				"element": "H" 
			},
			{
				"x": 1.6110777063,
				"y": -0.5033019271,
				"z": -0.7709552541,
				"element": "H" 
			},
			{
				"x": 0.6557384168,
				"y": 0.7935976551,
				"z": -0.0702105013,
				"element": "H" 
			}
		],
		 "valence_orbital": [ 
			{
				"type": "occ",
				"energy": -0.34288,
				"method": "rhf"
			},
			{
				"type": "occ",
				"energy": -0.3324,
				"method": "rhf"
			},
			{
				"type": "occ",
				"energy": -0.32848,
				"method": "rhf"
			},
			{
				"type": "occ",
				"energy": -0.29101,
				"method": "rhf"
			},
			{
				"type": "occ",
				"energy": -0.27322,
				"method": "rhf"
			},
			{
				"type": "unocc",
				"energy": -0.0679,
				"method": "rhf"
			},
			{
				"type": "unocc",
				"energy": -0.00351,
				"method": "rhf"
			},
			{
				"type": "unocc",
				"energy": 0.03529,
				"method": "rhf"
			},
			{
				"type": "unocc",
				"energy": 0.03885,
				"method": "rhf"
			},
			{
				"type": "unocc",
				"energy": 0.07229,
				"method": "rhf"
			}
		],
		"cosmo_sigma_profile": { 
			"-0.025": 0.0,
			"-0.024": 0.0,
			"-0.023": 0.0,
			"-0.022": 0.0,
			"-0.021": 0.0,
			"-0.02": 0.0,
			"-0.019": 0.0,
			"-0.018": 0.31240130912,
			"-0.017": 1.14793659304,
			"-0.016": 0.644619267652,
			"-0.015": 1.08065359054,
			"-0.014": 1.70632141539,
			"-0.013": 1.14603890285,
			"-0.012": 1.17255554631,
			"-0.011": 1.0501537157,
			"-0.01": 1.08612038467,
			"-0.009": 1.37856064221,
			"-0.008": 1.66682363433,
			"-0.007": 2.00387752577,
			"-0.006": 6.72835033096,
			"-0.005": 10.2463983263,
			"-0.004": 18.9987891536,
			"-0.003": 30.6165796925,
			"-0.002": 28.4186300386,
			"-0.001": 18.7037766902,
			"0.0": 12.1129864268,
			"0.001": 4.51396919553,
			"0.002": 4.26971045771,
			"0.003": 3.10090107565,
			"0.004": 5.23723974569,
			"0.005": 4.22031079811,
			"0.006": 4.61013039935,
			"0.007": 6.09900750536,
			"0.008": 6.89954760864,
			"0.009": 7.77140357107,
			"0.01": 8.37617602564,
			"0.011": 8.11449626656,
			"0.012": 3.86925380488,
			"0.013": 1.43105261067,
			"0.014": 0.0248982925557,
			"0.015": 0.0,
			"0.016": 0.0,
			"0.017": 0.0,
			"0.018": 0.0,
			"0.019": 0.0,
			"0.02": 0.0,
			"0.021": 0.0,
			"0.022": 0.0,
			"0.023": 0.0,
			"0.024": 0.0,
			"0.025": 0.0
		}
	}
}
