{
	 "smiles": "NC(=O)C1CCN(CC1)C1=C(C=CC=N1)C#N", 
	 "Tm": 451.15, 
	 "num_atms": 31, 
	 "gaussian": { 
		 "optdone": 1, 
		 "sigma_profile": "yes", 
		 "theory": "DFT", 
		 "functional": "B3LYP", 
		 "basiset": "6-31G**", 
		 "properties": { 
			 "R2extent": 5202.7714, 
			 "electric_dipole_moment_norm": 1.92456695129, 
			 "electric_quadrupole_moment_norm": 41.2524151035, 
			 "total_energy": -759.944006436, 
			 "HOMO_LUMO_gap": 0.16332, 
			 "cosmo_polarized_energy": -20.0, 
			 "cosmo_cavitation_energy": 34.25, 
			 "cosmo_dispersion_energy": -24.22, 
			 "cosmo_repulsion_energy": 1.88, 
			 "cosmo_total_nonelectrostatic_energy": 11.92, 
			 "SMD_solvation_energy": 5.46 
		},
		"coords": [
			{
				"x": 4.1046568646,
				"y": -0.9222543621,
				"z": -0.887544806,
				"element": "N" 
			},
			{
				"x": 2.8189550548,
				"y": -1.283324653,
				"z": -0.5950552522,
				"element": "C" 
			},
			{
				"x": 2.3473371898,
				"y": -2.3557971696,
				"z": -0.9483168742,
				"element": "O" 
			},
			{
				"x": 1.9982666912,
				"y": -0.2218719905,
				"z": 0.1456657096,
				"element": "C" 
			},
			{
				"x": 0.837348289,
				"y": -0.8610445588,
				"z": 0.9459355231,
				"element": "C" 
			},
			{
				"x": -0.5051136556,
				"y": -0.7619196567,
				"z": 0.2203597357,
				"element": "C" 
			},
			{
				"x": -0.8578680913,
				"y": 0.6516862751,
				"z": -0.0091380066,
				"element": "N" 
			},
			{
				"x": 0.2464162081,
				"y": 1.5689681944,
				"z": -0.327154791,
				"element": "C" 
			},
			{
				"x": 1.4426817832,
				"y": 0.7941019994,
				"z": -0.8862310058,
				"element": "C" 
			},
			{
				"x": -2.1726892772,
				"y": 0.9983232528,
				"z": -0.1578588799,
				"element": "C" 
			},
			{
				"x": -2.6508001255,
				"y": 2.3534060705,
				"z": -0.159037697,
				"element": "C" 
			},
			{
				"x": -4.0125878854,
				"y": 2.576130462,
				"z": -0.4187969791,
				"element": "C" 
			},
			{
				"x": -4.8755368397,
				"y": 1.5066880301,
				"z": -0.6123286066,
				"element": "C" 
			},
			{
				"x": -4.3322760984,
				"y": 0.2252551967,
				"z": -0.4955964659,
				"element": "C" 
			},
			{
				"x": -3.0434876808,
				"y": -0.0260516446,
				"z": -0.2874951431,
				"element": "N" 
			},
			{
				"x": -1.8575390869,
				"y": 3.4861111484,
				"z": 0.1988918156,
				"element": "C" 
			},
			{
				"x": -1.2575538677,
				"y": 4.4336063264,
				"z": 0.5160315543,
				"element": "N" 
			},
			{
				"x": 4.526121671,
				"y": -0.0812158122,
				"z": -0.5289516501,
				"element": "H" 
			},
			{
				"x": 4.6828763006,
				"y": -1.5833512875,
				"z": -1.384073818,
				"element": "H" 
			},
			{
				"x": 2.6577272502,
				"y": 0.3167099964,
				"z": 0.8384805456,
				"element": "H" 
			},
			{
				"x": 1.0504599095,
				"y": -1.9177109539,
				"z": 1.1248885804,
				"element": "H" 
			},
			{
				"x": 0.750125308,
				"y": -0.3670244129,
				"z": 1.9197912665,
				"element": "H" 
			},
			{
				"x": -0.4653226764,
				"y": -1.3179892655,
				"z": -0.7247375415,
				"element": "H" 
			},
			{
				"x": -1.2984512954,
				"y": -1.2134181987,
				"z": 0.8156927299,
				"element": "H" 
			},
			{
				"x": 0.5527813475,
				"y": 2.1477294156,
				"z": 0.554069589,
				"element": "H" 
			},
			{
				"x": -0.0935552164,
				"y": 2.2893137755,
				"z": -1.0754290647,
				"element": "H" 
			},
			{
				"x": 2.2176817043,
				"y": 1.5072131645,
				"z": -1.1849762074,
				"element": "H" 
			},
			{
				"x": 1.1317676635,
				"y": 0.2634214146,
				"z": -1.7931193755,
				"element": "H" 
			},
			{
				"x": -4.3768393057,
				"y": 3.5986586655,
				"z": -0.4333020499,
				"element": "H" 
			},
			{
				"x": -5.930690051,
				"y": 1.6542252785,
				"z": -0.8106630549,
				"element": "H" 
			},
			{
				"x": -4.972892082,
				"y": -0.6516747002,
				"z": -0.5819997804,
				"element": "H" 
			}
		],
		 "valence_orbital": [ 
			{
				"type": "occ",
				"energy": -0.27883,
				"method": "rhf"
			},
			{
				"type": "occ",
				"energy": -0.27397,
				"method": "rhf"
			},
			{
				"type": "occ",
				"energy": -0.26363,
				"method": "rhf"
			},
			{
				"type": "occ",
				"energy": -0.25319,
				"method": "rhf"
			},
			{
				"type": "occ",
				"energy": -0.21062,
				"method": "rhf"
			},
			{
				"type": "unocc",
				"energy": -0.0473,
				"method": "rhf"
			},
			{
				"type": "unocc",
				"energy": -0.01034,
				"method": "rhf"
			},
			{
				"type": "unocc",
				"energy": 0.02113,
				"method": "rhf"
			},
			{
				"type": "unocc",
				"energy": 0.03754,
				"method": "rhf"
			},
			{
				"type": "unocc",
				"energy": 0.05773,
				"method": "rhf"
			}
		],
		"cosmo_sigma_profile": { 
			"-0.025": 0.0,
			"-0.024": 0.0,
			"-0.023": 0.0,
			"-0.022": 0.0,
			"-0.021": 0.0,
			"-0.02": 0.0,
			"-0.019": 0.0,
			"-0.018": 0.0,
			"-0.017": 0.0,
			"-0.016": 0.0,
			"-0.015": 0.0271341319714,
			"-0.014": 1.52182979597,
			"-0.013": 2.54778485011,
			"-0.012": 2.05806735742,
			"-0.011": 2.90939293735,
			"-0.01": 2.87852173706,
			"-0.009": 2.6820235983,
			"-0.008": 3.90018884536,
			"-0.007": 7.38715548699,
			"-0.006": 11.3779830612,
			"-0.005": 15.4421510095,
			"-0.004": 25.896197158,
			"-0.003": 23.1086554985,
			"-0.002": 22.5894310387,
			"-0.001": 20.8128133696,
			"0.0": 20.6827578113,
			"0.001": 16.4695282059,
			"0.002": 15.3090479169,
			"0.003": 11.8681367746,
			"0.004": 7.54285809942,
			"0.005": 5.56183520636,
			"0.006": 5.16162538843,
			"0.007": 4.9141608159,
			"0.008": 6.10950226543,
			"0.009": 4.89280842639,
			"0.01": 4.38080177085,
			"0.011": 5.59704290955,
			"0.012": 5.2244484722,
			"0.013": 5.28928743677,
			"0.014": 5.60108231324,
			"0.015": 1.1244211768,
			"0.016": 0.0,
			"0.017": 0.0,
			"0.018": 0.0,
			"0.019": 0.0,
			"0.02": 0.0,
			"0.021": 0.0,
			"0.022": 0.0,
			"0.023": 0.0,
			"0.024": 0.0,
			"0.025": 0.0
		}
	}
}
