{
	 "smiles": "OC(=O)C1=CC(NC(=O)C2CC3=C(O2)C=CC=C3)=CC=C1", 
	 "Tm": 526.15, 
	 "num_atms": 34, 
	 "gaussian": { 
		 "optdone": 1, 
		 "sigma_profile": "yes", 
		 "theory": "DFT", 
		 "functional": "B3LYP", 
		 "basiset": "6-31G**", 
		 "properties": { 
			 "R2extent": 9019.5154, 
			 "electric_dipole_moment_norm": 6.94428528648, 
			 "electric_quadrupole_moment_norm": 39.0030165535, 
			 "total_energy": -973.211417496, 
			 "HOMO_LUMO_gap": 0.1811, 
			 "cosmo_polarized_energy": -19.94, 
			 "cosmo_cavitation_energy": 38.82, 
			 "cosmo_dispersion_energy": -27.98, 
			 "cosmo_repulsion_energy": 2.12, 
			 "cosmo_total_nonelectrostatic_energy": 12.96, 
			 "SMD_solvation_energy": 7.8 
		},
		"coords": [
			{
				"x": -4.8402626805,
				"y": -0.8507058866,
				"z": -3.8326653898,
				"element": "O" 
			},
			{
				"x": -4.3650141884,
				"y": -2.1140335046,
				"z": -3.6906174067,
				"element": "C" 
			},
			{
				"x": -5.0620409085,
				"y": -3.0578896328,
				"z": -3.9831525995,
				"element": "O" 
			},
			{
				"x": -2.9628795651,
				"y": -2.262785012,
				"z": -3.170566039,
				"element": "C" 
			},
			{
				"x": -2.2996566529,
				"y": -1.2214215433,
				"z": -2.5103495697,
				"element": "C" 
			},
			{
				"x": -0.9921990166,
				"y": -1.4154264301,
				"z": -2.0427233093,
				"element": "C" 
			},
			{
				"x": -0.2682249818,
				"y": -0.4120785224,
				"z": -1.3708070058,
				"element": "N" 
			},
			{
				"x": -0.6360531239,
				"y": 0.877471746,
				"z": -1.116757993,
				"element": "C" 
			},
			{
				"x": -1.6997242945,
				"y": 1.3993502888,
				"z": -1.4309491501,
				"element": "O" 
			},
			{
				"x": 0.4465281132,
				"y": 1.7136930235,
				"z": -0.4089114204,
				"element": "C" 
			},
			{
				"x": -0.1182270104,
				"y": 2.4831641992,
				"z": 0.8132773043,
				"element": "C" 
			},
			{
				"x": 0.4882940191,
				"y": 1.7143319523,
				"z": 1.9634263044,
				"element": "C" 
			},
			{
				"x": 1.4335391853,
				"y": 0.8258965166,
				"z": 1.4518598213,
				"element": "C" 
			},
			{
				"x": 1.5275076921,
				"y": 0.8734109002,
				"z": 0.0747729573,
				"element": "O" 
			},
			{
				"x": 2.200745065,
				"y": -0.0055894633,
				"z": 2.2562536018,
				"element": "C" 
			},
			{
				"x": 1.9883237267,
				"y": 0.0720589039,
				"z": 3.6380029507,
				"element": "C" 
			},
			{
				"x": 1.0426237927,
				"y": 0.9498503466,
				"z": 4.1754755919,
				"element": "C" 
			},
			{
				"x": 0.2868794921,
				"y": 1.7804838265,
				"z": 3.3375929142,
				"element": "C" 
			},
			{
				"x": -0.3656589102,
				"y": -2.6555066135,
				"z": -2.2380353316,
				"element": "C" 
			},
			{
				"x": -1.0391804568,
				"y": -3.689595898,
				"z": -2.8840224846,
				"element": "C" 
			},
			{
				"x": -2.3389509619,
				"y": -3.5031658104,
				"z": -3.3480643616,
				"element": "C" 
			},
			{
				"x": -4.1375047035,
				"y": -0.2035658844,
				"z": -3.6796636419,
				"element": "H" 
			},
			{
				"x": -2.7686390893,
				"y": -0.2667122832,
				"z": -2.3096430318,
				"element": "H" 
			},
			{
				"x": 0.6495695545,
				"y": -0.6581962045,
				"z": -1.0189624165,
				"element": "H" 
			},
			{
				"x": 0.8709570836,
				"y": 2.3837958026,
				"z": -1.1624470797,
				"element": "H" 
			},
			{
				"x": -1.2110226456,
				"y": 2.4843061722,
				"z": 0.7930122677,
				"element": "H" 
			},
			{
				"x": 0.2125138756,
				"y": 3.5279192758,
				"z": 0.8093389331,
				"element": "H" 
			},
			{
				"x": 2.9312758067,
				"y": -0.6827299347,
				"z": 1.826680032,
				"element": "H" 
			},
			{
				"x": 2.5681473007,
				"y": -0.5648830074,
				"z": 4.2994182217,
				"element": "H" 
			},
			{
				"x": 0.892946238,
				"y": 0.9891846488,
				"z": 5.2498598078,
				"element": "H" 
			},
			{
				"x": -0.4448953591,
				"y": 2.4650679516,
				"z": 3.7573060032,
				"element": "H" 
			},
			{
				"x": 0.6491652944,
				"y": -2.8072347182,
				"z": -1.8784912013,
				"element": "H" 
			},
			{
				"x": -0.5429047971,
				"y": -4.6451058276,
				"z": -3.0234998254,
				"element": "H" 
			},
			{
				"x": -2.8854768936,
				"y": -4.2950593779,
				"z": -3.8470474537,
				"element": "H" 
			}
		],
		 "valence_orbital": [ 
			{
				"type": "occ",
				"energy": -0.27399,
				"method": "rhf"
			},
			{
				"type": "occ",
				"energy": -0.26651,
				"method": "rhf"
			},
			{
				"type": "occ",
				"energy": -0.26042,
				"method": "rhf"
			},
			{
				"type": "occ",
				"energy": -0.2394,
				"method": "rhf"
			},
			{
				"type": "occ",
				"energy": -0.23128,
				"method": "rhf"
			},
			{
				"type": "unocc",
				"energy": -0.05018,
				"method": "rhf"
			},
			{
				"type": "unocc",
				"energy": -0.03286,
				"method": "rhf"
			},
			{
				"type": "unocc",
				"energy": -0.01716,
				"method": "rhf"
			},
			{
				"type": "unocc",
				"energy": -6e-05,
				"method": "rhf"
			},
			{
				"type": "unocc",
				"energy": 0.01908,
				"method": "rhf"
			}
		],
		"cosmo_sigma_profile": { 
			"-0.025": 0.0,
			"-0.024": 0.0,
			"-0.023": 0.0,
			"-0.022": 0.0,
			"-0.021": 0.0,
			"-0.02": 0.0,
			"-0.019": 0.0,
			"-0.018": 0.187874135296,
			"-0.017": 0.918865514744,
			"-0.016": 0.748615458616,
			"-0.015": 0.822086373329,
			"-0.014": 0.939303152882,
			"-0.013": 1.40774017378,
			"-0.012": 2.76522140856,
			"-0.011": 2.32264762812,
			"-0.01": 1.79114248269,
			"-0.009": 2.11403983415,
			"-0.008": 6.43472872321,
			"-0.007": 8.16853937003,
			"-0.006": 16.4514798897,
			"-0.005": 21.7728406059,
			"-0.004": 22.7426820386,
			"-0.003": 23.4640738765,
			"-0.002": 20.6567252648,
			"-0.001": 17.8821410323,
			"0.0": 20.2585952603,
			"0.001": 19.3462071027,
			"0.002": 20.6206667155,
			"0.003": 22.7259588789,
			"0.004": 15.5075965103,
			"0.005": 13.0155837202,
			"0.006": 10.1608129119,
			"0.007": 3.43582696202,
			"0.008": 4.43135383046,
			"0.009": 6.26773827748,
			"0.01": 6.57567333399,
			"0.011": 7.18138981531,
			"0.012": 7.37707942903,
			"0.013": 2.75859160955,
			"0.014": 0.0592541881011,
			"0.015": 0.0,
			"0.016": 0.0,
			"0.017": 0.0,
			"0.018": 0.0,
			"0.019": 0.0,
			"0.02": 0.0,
			"0.021": 0.0,
			"0.022": 0.0,
			"0.023": 0.0,
			"0.024": 0.0,
			"0.025": 0.0
		}
	}
}
