{
	 "smiles": "CN1C=NC=C1C(=O)NN", 
	 "Tm": 459.15, 
	 "num_atms": 18, 
	 "gaussian": { 
		 "optdone": 1, 
		 "sigma_profile": "yes", 
		 "theory": "DFT", 
		 "functional": "B3LYP", 
		 "basiset": "6-31G**", 
		 "properties": { 
			 "R2extent": 1526.3336, 
			 "electric_dipole_moment_norm": 2.62663189084, 
			 "electric_quadrupole_moment_norm": 19.6336191101, 
			 "total_energy": -489.553066852, 
			 "HOMO_LUMO_gap": 0.21052, 
			 "cosmo_polarized_energy": -16.99, 
			 "cosmo_cavitation_energy": 21.92, 
			 "cosmo_dispersion_energy": -16.49, 
			 "cosmo_repulsion_energy": 1.35, 
			 "cosmo_total_nonelectrostatic_energy": 6.78, 
			 "SMD_solvation_energy": 4.04 
		},
		"coords": [
			{
				"x": -2.4138985315,
				"y": 0.4077447938,
				"z": -1.2610064441,
				"element": "C" 
			},
			{
				"x": -1.0719618197,
				"y": -0.0851729256,
				"z": -1.5565693409,
				"element": "N" 
			},
			{
				"x": -0.6198001511,
				"y": -0.3885802882,
				"z": -2.7986066915,
				"element": "C" 
			},
			{
				"x": 0.6317004259,
				"y": -0.8170264062,
				"z": -2.8080063833,
				"element": "N" 
			},
			{
				"x": 1.0155278136,
				"y": -0.7913892887,
				"z": -1.5000964667,
				"element": "C" 
			},
			{
				"x": -0.0136757013,
				"y": -0.34187421,
				"z": -0.6808225738,
				"element": "C" 
			},
			{
				"x": -0.1752397514,
				"y": -0.113796253,
				"z": 0.7626247205,
				"element": "C" 
			},
			{
				"x": -1.2296531605,
				"y": 0.3047943386,
				"z": 1.2489282102,
				"element": "O" 
			},
			{
				"x": 0.8727313444,
				"y": -0.3698397665,
				"z": 1.618548167,
				"element": "N" 
			},
			{
				"x": 2.131079758,
				"y": -0.8435547952,
				"z": 1.2458572194,
				"element": "N" 
			},
			{
				"x": -2.3684695056,
				"y": 1.3865831986,
				"z": -0.7832332366,
				"element": "H" 
			},
			{
				"x": -2.9333024671,
				"y": -0.2709183238,
				"z": -0.5841928227,
				"element": "H" 
			},
			{
				"x": -2.9562437846,
				"y": 0.4790195574,
				"z": -2.2066403763,
				"element": "H" 
			},
			{
				"x": -1.2511450817,
				"y": -0.277481321,
				"z": -3.6708902766,
				"element": "H" 
			},
			{
				"x": 2.0019288634,
				"y": -1.0905748419,
				"z": -1.1864591023,
				"element": "H" 
			},
			{
				"x": 0.6479351979,
				"y": -0.1760766612,
				"z": 2.5893590254,
				"element": "H" 
			},
			{
				"x": 2.3217317553,
				"y": -1.7356683213,
				"z": 1.6950482751,
				"element": "H" 
			},
			{
				"x": 2.8531547961,
				"y": -0.1772884859,
				"z": 1.507958097,
				"element": "H" 
			}
		],
		 "valence_orbital": [ 
			{
				"type": "occ",
				"energy": -0.26927,
				"method": "rhf"
			},
			{
				"type": "occ",
				"energy": -0.26517,
				"method": "rhf"
			},
			{
				"type": "occ",
				"energy": -0.25729,
				"method": "rhf"
			},
			{
				"type": "occ",
				"energy": -0.24708,
				"method": "rhf"
			},
			{
				"type": "occ",
				"energy": -0.2261,
				"method": "rhf"
			},
			{
				"type": "unocc",
				"energy": -0.01558,
				"method": "rhf"
			},
			{
				"type": "unocc",
				"energy": 0.05611,
				"method": "rhf"
			},
			{
				"type": "unocc",
				"energy": 0.06176,
				"method": "rhf"
			},
			{
				"type": "unocc",
				"energy": 0.10214,
				"method": "rhf"
			},
			{
				"type": "unocc",
				"energy": 0.11152,
				"method": "rhf"
			}
		],
		"cosmo_sigma_profile": { 
			"-0.025": 0.0,
			"-0.024": 0.0,
			"-0.023": 0.0,
			"-0.022": 0.0,
			"-0.021": 0.0,
			"-0.02": 0.0,
			"-0.019": 0.0,
			"-0.018": 0.0,
			"-0.017": 0.0,
			"-0.016": 0.0,
			"-0.015": 0.0,
			"-0.014": 0.097381127158,
			"-0.013": 1.20211844859,
			"-0.012": 3.99009380872,
			"-0.011": 4.64477353619,
			"-0.01": 4.45891571848,
			"-0.009": 8.00013362376,
			"-0.008": 6.80144537145,
			"-0.007": 5.35645536618,
			"-0.006": 5.10459108617,
			"-0.005": 7.52290042339,
			"-0.004": 9.4283194393,
			"-0.003": 11.3672953673,
			"-0.002": 9.7322235146,
			"-0.001": 7.36208289032,
			"0.0": 9.5920169222,
			"0.001": 10.2265113548,
			"0.002": 9.59173180484,
			"0.003": 9.58103985909,
			"0.004": 10.5167558835,
			"0.005": 5.60482214777,
			"0.006": 3.64155733966,
			"0.007": 2.95445048254,
			"0.008": 3.02625157605,
			"0.009": 3.19506112494,
			"0.01": 2.08571375866,
			"0.011": 3.20654354408,
			"0.012": 2.86677248896,
			"0.013": 3.33610174913,
			"0.014": 4.51265746242,
			"0.015": 1.57223193108,
			"0.016": 1.36567442386,
			"0.017": 0.958043576568,
			"0.018": 0.578159198635,
			"0.019": 0.0112045156542,
			"0.02": 0.0,
			"0.021": 0.0,
			"0.022": 0.0,
			"0.023": 0.0,
			"0.024": 0.0,
			"0.025": 0.0
		}
	}
}
