{
	 "smiles": "COC1=CC(CC(N2N=NN=C2C)C(O)=O)=CC=C1", 
	 "Tm": 399.15, 
	 "num_atms": 33, 
	 "gaussian": { 
		 "optdone": 1, 
		 "sigma_profile": "yes", 
		 "theory": "DFT", 
		 "functional": "B3LYP", 
		 "basiset": "6-31G**", 
		 "properties": { 
			 "R2extent": 4514.1177, 
			 "electric_dipole_moment_norm": 3.78024819556, 
			 "electric_quadrupole_moment_norm": 22.7950724574, 
			 "total_energy": -910.346238325, 
			 "HOMO_LUMO_gap": 0.19441, 
			 "cosmo_polarized_energy": -19.93, 
			 "cosmo_cavitation_energy": 36.4, 
			 "cosmo_dispersion_energy": -24.21, 
			 "cosmo_repulsion_energy": 1.83, 
			 "cosmo_total_nonelectrostatic_energy": 14.02, 
			 "SMD_solvation_energy": 5.89 
		},
		"coords": [
			{
				"x": -0.9753654435,
				"y": -2.4961253191,
				"z": -3.3145893286,
				"element": "C" 
			},
			{
				"x": -2.0083295337,
				"y": -1.5661371278,
				"z": -3.0067224698,
				"element": "O" 
			},
			{
				"x": -1.6978291137,
				"y": -0.4888086701,
				"z": -2.2350461646,
				"element": "C" 
			},
			{
				"x": -0.4047663787,
				"y": -0.1709140555,
				"z": -1.8037705098,
				"element": "C" 
			},
			{
				"x": -0.1846126884,
				"y": 0.9482087372,
				"z": -0.9836470166,
				"element": "C" 
			},
			{
				"x": 1.2186469607,
				"y": 1.2401050269,
				"z": -0.4960896381,
				"element": "C" 
			},
			{
				"x": 1.6424723861,
				"y": 0.5040557054,
				"z": 0.8007707277,
				"element": "C" 
			},
			{
				"x": 1.4872654888,
				"y": -0.9457700517,
				"z": 0.7105063174,
				"element": "N" 
			},
			{
				"x": 2.5071882603,
				"y": -1.6481412895,
				"z": 0.1409299687,
				"element": "N" 
			},
			{
				"x": 2.0937223007,
				"y": -2.8619776697,
				"z": 0.0178321981,
				"element": "N" 
			},
			{
				"x": 0.8230436987,
				"y": -2.9950309531,
				"z": 0.4822397862,
				"element": "N" 
			},
			{
				"x": 0.4467400859,
				"y": -1.7983839398,
				"z": 0.9041773944,
				"element": "C" 
			},
			{
				"x": -0.8777281845,
				"y": -1.4928566158,
				"z": 1.5160281784,
				"element": "C" 
			},
			{
				"x": 1.0344875844,
				"y": 1.1108997218,
				"z": 2.0657930734,
				"element": "C" 
			},
			{
				"x": 1.1571200766,
				"y": 0.2997444854,
				"z": 3.1364778346,
				"element": "O" 
			},
			{
				"x": 0.575066075,
				"y": 2.2275786506,
				"z": 2.1274499795,
				"element": "O" 
			},
			{
				"x": -1.2625773628,
				"y": 1.7598357261,
				"z": -0.6161931919,
				"element": "C" 
			},
			{
				"x": -2.5502790026,
				"y": 1.4478365677,
				"z": -1.0676937325,
				"element": "C" 
			},
			{
				"x": -2.7748852704,
				"y": 0.3333606841,
				"z": -1.8669924527,
				"element": "C" 
			},
			{
				"x": -1.4542773994,
				"y": -3.2978810425,
				"z": -3.8782095152,
				"element": "H" 
			},
			{
				"x": -0.5219211217,
				"y": -2.9095574707,
				"z": -2.4055411253,
				"element": "H" 
			},
			{
				"x": -0.1932018082,
				"y": -2.0400056834,
				"z": -3.9346033052,
				"element": "H" 
			},
			{
				"x": 0.4387343693,
				"y": -0.7878753115,
				"z": -2.0922415947,
				"element": "H" 
			},
			{
				"x": 1.9438252518,
				"y": 0.9520469254,
				"z": -1.2631987429,
				"element": "H" 
			},
			{
				"x": 1.3445103621,
				"y": 2.3086672236,
				"z": -0.3045538375,
				"element": "H" 
			},
			{
				"x": 2.7236108855,
				"y": 0.647595238,
				"z": 0.920853335,
				"element": "H" 
			},
			{
				"x": -1.5413165242,
				"y": -2.3370797931,
				"z": 1.3252592648,
				"element": "H" 
			},
			{
				"x": -0.7795673016,
				"y": -1.3622007753,
				"z": 2.597621028,
				"element": "H" 
			},
			{
				"x": -1.3233294499,
				"y": -0.5885926722,
				"z": 1.0946569119,
				"element": "H" 
			},
			{
				"x": 0.8094177547,
				"y": 0.794694022,
				"z": 3.8983576144,
				"element": "H" 
			},
			{
				"x": -1.0952393743,
				"y": 2.6227254844,
				"z": 0.019827038,
				"element": "H" 
			},
			{
				"x": -3.3870708082,
				"y": 2.0823587086,
				"z": -0.7895451372,
				"element": "H" 
			},
			{
				"x": -3.7681547748,
				"y": 0.0754255335,
				"z": -2.2193428876,
				"element": "H" 
			}
		],
		 "valence_orbital": [ 
			{
				"type": "occ",
				"energy": -0.29176,
				"method": "rhf"
			},
			{
				"type": "occ",
				"energy": -0.28972,
				"method": "rhf"
			},
			{
				"type": "occ",
				"energy": -0.27821,
				"method": "rhf"
			},
			{
				"type": "occ",
				"energy": -0.25495,
				"method": "rhf"
			},
			{
				"type": "occ",
				"energy": -0.22393,
				"method": "rhf"
			},
			{
				"type": "unocc",
				"energy": -0.02952,
				"method": "rhf"
			},
			{
				"type": "unocc",
				"energy": -0.01688,
				"method": "rhf"
			},
			{
				"type": "unocc",
				"energy": -0.01204,
				"method": "rhf"
			},
			{
				"type": "unocc",
				"energy": 0.00343,
				"method": "rhf"
			},
			{
				"type": "unocc",
				"energy": 0.02843,
				"method": "rhf"
			}
		],
		"cosmo_sigma_profile": { 
			"-0.025": 0.0,
			"-0.024": 0.0,
			"-0.023": 0.0,
			"-0.022": 0.0,
			"-0.021": 0.0,
			"-0.02": 0.0688752369446,
			"-0.019": 0.812029586252,
			"-0.018": 1.127604613,
			"-0.017": 0.700230221155,
			"-0.016": 0.888025061976,
			"-0.015": 0.660981464687,
			"-0.014": 1.00643802351,
			"-0.013": 0.558368760691,
			"-0.012": 0.716729505614,
			"-0.011": 2.44880232507,
			"-0.01": 2.66858160479,
			"-0.009": 2.38334345609,
			"-0.008": 2.77964374259,
			"-0.007": 2.96141544404,
			"-0.006": 15.2839148028,
			"-0.005": 24.823958904,
			"-0.004": 24.1780250568,
			"-0.003": 27.279950888,
			"-0.002": 22.6547419551,
			"-0.001": 17.8374325449,
			"0.0": 17.2264975586,
			"0.001": 14.2361438052,
			"0.002": 13.4444606649,
			"0.003": 14.3712493045,
			"0.004": 13.2376976809,
			"0.005": 10.6015478394,
			"0.006": 8.91897816569,
			"0.007": 6.64078185615,
			"0.008": 7.7771534323,
			"0.009": 7.34900482518,
			"0.01": 9.55438861884,
			"0.011": 5.69176605002,
			"0.012": 2.64742889863,
			"0.013": 2.52653129755,
			"0.014": 1.76535359586,
			"0.015": 0.683938387911,
			"0.016": 0.100353761308,
			"0.017": 0.0,
			"0.018": 0.0,
			"0.019": 0.0,
			"0.02": 0.0,
			"0.021": 0.0,
			"0.022": 0.0,
			"0.023": 0.0,
			"0.024": 0.0,
			"0.025": 0.0
		}
	}
}
