{
	 "smiles": "CC(C)C1(CC(Br)=C)C(=O)NC(=O)NC1=O", 
	 "Tm": 450.15, 
	 "num_atms": 29, 
	 "gaussian": { 
		 "optdone": 1, 
		 "sigma_profile": "yes", 
		 "theory": "DFT", 
		 "functional": "B3LYP", 
		 "basiset": "6-31G**", 
		 "properties": { 
			 "R2extent": 4702.1844, 
			 "electric_dipole_moment_norm": 2.67280028622, 
			 "electric_quadrupole_moment_norm": 7.28174824613, 
			 "total_energy": -3295.51264616, 
			 "HOMO_LUMO_gap": 0.20403, 
			 "cosmo_polarized_energy": -16.7, 
			 "cosmo_cavitation_energy": 33.28, 
			 "cosmo_dispersion_energy": -23.08, 
			 "cosmo_repulsion_energy": 1.78, 
			 "cosmo_total_nonelectrostatic_energy": 11.98, 
			 "SMD_solvation_energy": 6.94 
		},
		"coords": [
			{
				"x": -0.9978051313,
				"y": 1.9015297166,
				"z": -1.5665922353,
				"element": "C" 
			},
			{
				"x": -1.7484618309,
				"y": 0.5877769681,
				"z": -1.2906618846,
				"element": "C" 
			},
			{
				"x": -2.1918892101,
				"y": -0.0465644522,
				"z": -2.6202259314,
				"element": "C" 
			},
			{
				"x": -0.9395937331,
				"y": -0.437610479,
				"z": -0.3586328901,
				"element": "C" 
			},
			{
				"x": 0.2419050412,
				"y": -1.0809477412,
				"z": -1.1331170721,
				"element": "C" 
			},
			{
				"x": 1.3545552091,
				"y": -1.6858272078,
				"z": -0.3183337718,
				"element": "C" 
			},
			{
				"x": 0.8193151023,
				"y": -2.9746454232,
				"z": 1.0187274884,
				"element": "Br" 
			},
			{
				"x": 2.6505754706,
				"y": -1.4356575297,
				"z": -0.4715907197,
				"element": "C" 
			},
			{
				"x": -1.9610434836,
				"y": -1.5193453839,
				"z": 0.0287476477,
				"element": "C" 
			},
			{
				"x": -2.2452848202,
				"y": -2.4602218155,
				"z": -0.6880313865,
				"element": "O" 
			},
			{
				"x": -2.6562213039,
				"y": -1.3108127833,
				"z": 1.2140979505,
				"element": "N" 
			},
			{
				"x": -2.3449296631,
				"y": -0.421987944,
				"z": 2.235947204,
				"element": "C" 
			},
			{
				"x": -2.9636848766,
				"y": -0.370906467,
				"z": 3.2788345611,
				"element": "O" 
			},
			{
				"x": -1.2587193414,
				"y": 0.3990466847,
				"z": 1.9583933022,
				"element": "N" 
			},
			{
				"x": -0.4270325906,
				"y": 0.3584946365,
				"z": 0.8436214631,
				"element": "C" 
			},
			{
				"x": 0.6071487536,
				"y": 0.9969414952,
				"z": 0.8258033875,
				"element": "O" 
			},
			{
				"x": -0.7629589918,
				"y": 2.4604280369,
				"z": -0.6598581101,
				"element": "H" 
			},
			{
				"x": -0.0589544191,
				"y": 1.7300127964,
				"z": -2.1021693165,
				"element": "H" 
			},
			{
				"x": -1.6259739333,
				"y": 2.5342321821,
				"z": -2.2016913479,
				"element": "H" 
			},
			{
				"x": -2.6532019014,
				"y": 0.8409217071,
				"z": -0.72152503,
				"element": "H" 
			},
			{
				"x": -2.713455666,
				"y": -0.9944630207,
				"z": -2.4822150888,
				"element": "H" 
			},
			{
				"x": -1.3372769179,
				"y": -0.2210836612,
				"z": -3.2818992692,
				"element": "H" 
			},
			{
				"x": -2.8649018245,
				"y": 0.6456769531,
				"z": -3.1358505978,
				"element": "H" 
			},
			{
				"x": 0.7027481784,
				"y": -0.3273062734,
				"z": -1.7756872648,
				"element": "H" 
			},
			{
				"x": -0.1932303208,
				"y": -1.8526267436,
				"z": -1.7753694006,
				"element": "H" 
			},
			{
				"x": 2.9715181716,
				"y": -0.6980705975,
				"z": -1.2015192827,
				"element": "H" 
			},
			{
				"x": 3.414810283,
				"y": -1.933210616,
				"z": 0.1123929514,
				"element": "H" 
			},
			{
				"x": -3.3818665233,
				"y": -1.9835031961,
				"z": 1.4325566263,
				"element": "H" 
			},
			{
				"x": -0.948089727,
				"y": 0.9794301587,
				"z": 2.7289480177,
				"element": "H" 
			}
		],
		 "valence_orbital": [ 
			{
				"type": "occ",
				"energy": -0.30198,
				"method": "rhf"
			},
			{
				"type": "occ",
				"energy": -0.29483,
				"method": "rhf"
			},
			{
				"type": "occ",
				"energy": -0.28834,
				"method": "rhf"
			},
			{
				"type": "occ",
				"energy": -0.26692,
				"method": "rhf"
			},
			{
				"type": "occ",
				"energy": -0.25193,
				"method": "rhf"
			},
			{
				"type": "unocc",
				"energy": -0.0479,
				"method": "rhf"
			},
			{
				"type": "unocc",
				"energy": -0.01229,
				"method": "rhf"
			},
			{
				"type": "unocc",
				"energy": 0.00216,
				"method": "rhf"
			},
			{
				"type": "unocc",
				"energy": 0.00431,
				"method": "rhf"
			},
			{
				"type": "unocc",
				"energy": 0.05092,
				"method": "rhf"
			}
		],
		"cosmo_sigma_profile": { 
			"-0.025": 0.0,
			"-0.024": 0.0,
			"-0.023": 0.0,
			"-0.022": 0.0,
			"-0.021": 0.0,
			"-0.02": 0.0,
			"-0.019": 0.0,
			"-0.018": 0.0,
			"-0.017": 0.350395108268,
			"-0.016": 1.87195414381,
			"-0.015": 2.21357671785,
			"-0.014": 1.4502766132,
			"-0.013": 1.27819291812,
			"-0.012": 1.20037855834,
			"-0.011": 1.81402376668,
			"-0.01": 1.4486751186,
			"-0.009": 1.56056952945,
			"-0.008": 2.52053314355,
			"-0.007": 7.50907206826,
			"-0.006": 10.089054362,
			"-0.005": 13.0432439454,
			"-0.004": 20.3991085241,
			"-0.003": 26.6991289471,
			"-0.002": 22.819540655,
			"-0.001": 20.1444216041,
			"0.0": 22.5008166159,
			"0.001": 16.484232779,
			"0.002": 11.0127740034,
			"0.003": 12.2463357719,
			"0.004": 12.5236393088,
			"0.005": 7.90731605792,
			"0.006": 4.94814006531,
			"0.007": 5.89864156806,
			"0.008": 4.4104240582,
			"0.009": 4.28723763398,
			"0.01": 7.40650073717,
			"0.011": 12.7056533071,
			"0.012": 5.99589454989,
			"0.013": 0.00359673567002,
			"0.014": 0.0,
			"0.015": 0.0,
			"0.016": 0.0,
			"0.017": 0.0,
			"0.018": 0.0,
			"0.019": 0.0,
			"0.02": 0.0,
			"0.021": 0.0,
			"0.022": 0.0,
			"0.023": 0.0,
			"0.024": 0.0,
			"0.025": 0.0
		}
	}
}
