{
	 "smiles": "CCOC(C)=O", 
	 "Tm": 189.35, 
	 "num_atms": 14, 
	 "gaussian": { 
		 "optdone": 1, 
		 "sigma_profile": "yes", 
		 "theory": "DFT", 
		 "functional": "B3LYP", 
		 "basiset": "6-31G**", 
		 "properties": { 
			 "R2extent": 1409.1618, 
			 "electric_dipole_moment_norm": 1.96170901257, 
			 "electric_quadrupole_moment_norm": 7.051701567, 
			 "total_energy": -307.71299236, 
			 "HOMO_LUMO_gap": 0.28291, 
			 "cosmo_polarized_energy": -6.34, 
			 "cosmo_cavitation_energy": 17.59, 
			 "cosmo_dispersion_energy": -13.02, 
			 "cosmo_repulsion_energy": 1.16, 
			 "cosmo_total_nonelectrostatic_energy": 5.74, 
			 "SMD_solvation_energy": 4.71 
		},
		"coords": [
			{
				"x": 2.9570376531,
				"y": 0.2439657735,
				"z": 0.0501092554,
				"element": "C" 
			},
			{
				"x": 1.7726565533,
				"y": 1.0014626867,
				"z": -0.5196482466,
				"element": "C" 
			},
			{
				"x": 1.1251159499,
				"y": 1.685359259,
				"z": 0.5772346998,
				"element": "O" 
			},
			{
				"x": 0.0364068864,
				"y": 2.4195867613,
				"z": 0.2521009925,
				"element": "C" 
			},
			{
				"x": -0.5502100402,
				"y": 3.0833271741,
				"z": 1.4763706798,
				"element": "C" 
			},
			{
				"x": -0.3934599309,
				"y": 2.5178452159,
				"z": -0.8766899169,
				"element": "O" 
			},
			{
				"x": 3.6669045753,
				"y": 0.9273176824,
				"z": 0.5251123676,
				"element": "H" 
			},
			{
				"x": 3.4772240807,
				"y": -0.2901515252,
				"z": -0.7511825719,
				"element": "H" 
			},
			{
				"x": 2.6319613484,
				"y": -0.4870730634,
				"z": 0.796040701,
				"element": "H" 
			},
			{
				"x": 1.0486521372,
				"y": 0.3338042675,
				"z": -0.9977922005,
				"element": "H" 
			},
			{
				"x": 2.07808277,
				"y": 1.740633242,
				"z": -1.2672573331,
				"element": "H" 
			},
			{
				"x": -1.4238020347,
				"y": 3.6672450079,
				"z": 1.1886690559,
				"element": "H" 
			},
			{
				"x": 0.1951781521,
				"y": 3.7325188713,
				"z": 1.9453472985,
				"element": "H" 
			},
			{
				"x": -0.8329481005,
				"y": 2.327058647,
				"z": 2.2146852186,
				"element": "H" 
			}
		],
		 "valence_orbital": [ 
			{
				"type": "occ",
				"energy": -0.38338,
				"method": "rhf"
			},
			{
				"type": "occ",
				"energy": -0.35163,
				"method": "rhf"
			},
			{
				"type": "occ",
				"energy": -0.34723,
				"method": "rhf"
			},
			{
				"type": "occ",
				"energy": -0.2958,
				"method": "rhf"
			},
			{
				"type": "occ",
				"energy": -0.26603,
				"method": "rhf"
			},
			{
				"type": "unocc",
				"energy": 0.01688,
				"method": "rhf"
			},
			{
				"type": "unocc",
				"energy": 0.10059,
				"method": "rhf"
			},
			{
				"type": "unocc",
				"energy": 0.11305,
				"method": "rhf"
			},
			{
				"type": "unocc",
				"energy": 0.13229,
				"method": "rhf"
			},
			{
				"type": "unocc",
				"energy": 0.1475,
				"method": "rhf"
			}
		],
		"cosmo_sigma_profile": { 
			"-0.025": 0.0,
			"-0.024": 0.0,
			"-0.023": 0.0,
			"-0.022": 0.0,
			"-0.021": 0.0,
			"-0.02": 0.0,
			"-0.019": 0.0,
			"-0.018": 0.0,
			"-0.017": 0.0,
			"-0.016": 0.0,
			"-0.015": 0.0,
			"-0.014": 0.0,
			"-0.013": 0.0,
			"-0.012": 0.0,
			"-0.011": 0.0,
			"-0.01": 0.0,
			"-0.009": 0.0,
			"-0.008": 0.0,
			"-0.007": 0.49878085333,
			"-0.006": 4.55692313528,
			"-0.005": 10.0227176583,
			"-0.004": 17.2484883795,
			"-0.003": 20.4214640662,
			"-0.002": 18.6420007972,
			"-0.001": 14.2473934393,
			"0.0": 11.0147903083,
			"0.001": 5.94195284152,
			"0.002": 4.49591469717,
			"0.003": 3.22331903745,
			"0.004": 2.96508258467,
			"0.005": 1.87795888418,
			"0.006": 3.3264800098,
			"0.007": 2.632850476,
			"0.008": 2.21640736053,
			"0.009": 2.59350649063,
			"0.01": 1.90584066856,
			"0.011": 2.59848717002,
			"0.012": 5.01295660475,
			"0.013": 2.11258320267,
			"0.014": 0.152138454763,
			"0.015": 0.0,
			"0.016": 0.0,
			"0.017": 0.0,
			"0.018": 0.0,
			"0.019": 0.0,
			"0.02": 0.0,
			"0.021": 0.0,
			"0.022": 0.0,
			"0.023": 0.0,
			"0.024": 0.0,
			"0.025": 0.0
		}
	}
}
