{
	 "smiles": "CC1=CC2=C(C)C=C(C)N=C2C=C1", 
	 "Tm": 341.15, 
	 "num_atms": 26, 
	 "gaussian": { 
		 "optdone": 1, 
		 "sigma_profile": "yes", 
		 "theory": "DFT", 
		 "functional": "B3LYP", 
		 "basiset": "6-31G**", 
		 "properties": { 
			 "R2extent": 2888.4895, 
			 "electric_dipole_moment_norm": 2.20601322979, 
			 "electric_quadrupole_moment_norm": 9.31704632971, 
			 "total_energy": -519.896904733, 
			 "HOMO_LUMO_gap": 0.1792, 
			 "cosmo_polarized_energy": -7.21, 
			 "cosmo_cavitation_energy": 28.71, 
			 "cosmo_dispersion_energy": -21.07, 
			 "cosmo_repulsion_energy": 1.66, 
			 "cosmo_total_nonelectrostatic_energy": 9.29, 
			 "SMD_solvation_energy": 3.41 
		},
		"coords": [
			{
				"x": -1.2282360115,
				"y": 3.0132535611,
				"z": -1.1218215642,
				"element": "C" 
			},
			{
				"x": -0.460275551,
				"y": 1.7793989798,
				"z": -0.7134156522,
				"element": "C" 
			},
			{
				"x": -0.49434816,
				"y": 1.3017807107,
				"z": 0.5830571379,
				"element": "C" 
			},
			{
				"x": 0.2259358881,
				"y": 0.1416128361,
				"z": 0.9724724193,
				"element": "C" 
			},
			{
				"x": 0.2181859438,
				"y": -0.3867823264,
				"z": 2.30330394,
				"element": "C" 
			},
			{
				"x": -0.5749075831,
				"y": 0.2714813724,
				"z": 3.4031560192,
				"element": "C" 
			},
			{
				"x": 0.9627805023,
				"y": -1.519703507,
				"z": 2.5421767226,
				"element": "C" 
			},
			{
				"x": 1.7113495392,
				"y": -2.1395537485,
				"z": 1.5011458141,
				"element": "C" 
			},
			{
				"x": 2.5187815728,
				"y": -3.3807798058,
				"z": 1.7920907385,
				"element": "C" 
			},
			{
				"x": 1.7337461901,
				"y": -1.6711066446,
				"z": 0.2677869719,
				"element": "N" 
			},
			{
				"x": 1.0060043883,
				"y": -0.5473832234,
				"z": -0.006465218,
				"element": "C" 
			},
			{
				"x": 1.0315154864,
				"y": -0.0451323134,
				"z": -1.334136264,
				"element": "C" 
			},
			{
				"x": 0.3208967325,
				"y": 1.0817056264,
				"z": -1.6747624669,
				"element": "C" 
			},
			{
				"x": -1.7791191004,
				"y": 3.4403005991,
				"z": -0.2793997459,
				"element": "H" 
			},
			{
				"x": -0.5578376202,
				"y": 3.7882635078,
				"z": -1.5121019284,
				"element": "H" 
			},
			{
				"x": -1.9504621335,
				"y": 2.7879156139,
				"z": -1.9155685255,
				"element": "H" 
			},
			{
				"x": -1.088821275,
				"y": 1.8290890568,
				"z": 1.3235868108,
				"element": "H" 
			},
			{
				"x": -0.4609875089,
				"y": -0.2702178138,
				"z": 4.3453127159,
				"element": "H" 
			},
			{
				"x": -1.6432079568,
				"y": 0.3061064939,
				"z": 3.1601167645,
				"element": "H" 
			},
			{
				"x": -0.2500617546,
				"y": 1.3055911374,
				"z": 3.5663720161,
				"element": "H" 
			},
			{
				"x": 0.9850926255,
				"y": -1.9544075735,
				"z": 3.5385195836,
				"element": "H" 
			},
			{
				"x": 3.2723443317,
				"y": -3.1906615036,
				"z": 2.5656316963,
				"element": "H" 
			},
			{
				"x": 3.0223807011,
				"y": -3.7126522217,
				"z": 0.882991969,
				"element": "H" 
			},
			{
				"x": 1.879171119,
				"y": -4.1921568836,
				"z": 2.1594348561,
				"element": "H" 
			},
			{
				"x": 1.6304618531,
				"y": -0.5840133935,
				"z": -2.0613148472,
				"element": "H" 
			},
			{
				"x": 0.3526177812,
				"y": 1.4516514634,
				"z": -2.6969699634,
				"element": "H" 
			}
		],
		 "valence_orbital": [ 
			{
				"type": "occ",
				"energy": -0.31598,
				"method": "rhf"
			},
			{
				"type": "occ",
				"energy": -0.28553,
				"method": "rhf"
			},
			{
				"type": "occ",
				"energy": -0.24306,
				"method": "rhf"
			},
			{
				"type": "occ",
				"energy": -0.23494,
				"method": "rhf"
			},
			{
				"type": "occ",
				"energy": -0.21934,
				"method": "rhf"
			},
			{
				"type": "unocc",
				"energy": -0.04014,
				"method": "rhf"
			},
			{
				"type": "unocc",
				"energy": -0.00865,
				"method": "rhf"
			},
			{
				"type": "unocc",
				"energy": 0.03272,
				"method": "rhf"
			},
			{
				"type": "unocc",
				"energy": 0.08559,
				"method": "rhf"
			},
			{
				"type": "unocc",
				"energy": 0.09574,
				"method": "rhf"
			}
		],
		"cosmo_sigma_profile": { 
			"-0.025": 0.0,
			"-0.024": 0.0,
			"-0.023": 0.0,
			"-0.022": 0.0,
			"-0.021": 0.0,
			"-0.02": 0.0,
			"-0.019": 0.0,
			"-0.018": 0.0,
			"-0.017": 0.0,
			"-0.016": 0.0,
			"-0.015": 0.0,
			"-0.014": 0.0,
			"-0.013": 0.0,
			"-0.012": 0.0,
			"-0.011": 0.0,
			"-0.01": 0.0,
			"-0.009": 0.0,
			"-0.008": 0.0,
			"-0.007": 0.0,
			"-0.006": 1.75567961037,
			"-0.005": 14.5556093314,
			"-0.004": 26.8827563677,
			"-0.003": 25.0764816283,
			"-0.002": 25.0429046894,
			"-0.001": 23.5427080517,
			"0.0": 25.5872473605,
			"0.001": 15.3901751059,
			"0.002": 12.903428808,
			"0.003": 17.2505285592,
			"0.004": 15.0738570245,
			"0.005": 10.7733606605,
			"0.006": 2.86751436558,
			"0.007": 1.6039892388,
			"0.008": 1.79540771201,
			"0.009": 1.17694218863,
			"0.01": 0.653194365786,
			"0.011": 1.37483379603,
			"0.012": 1.31192320122,
			"0.013": 0.621520713989,
			"0.014": 0.666252262231,
			"0.015": 1.00221662582,
			"0.016": 0.458803392138,
			"0.017": 0.0490132352554,
			"0.018": 0.0,
			"0.019": 0.0,
			"0.02": 0.0,
			"0.021": 0.0,
			"0.022": 0.0,
			"0.023": 0.0,
			"0.024": 0.0,
			"0.025": 0.0
		}
	}
}
