{
	 "smiles": "COC1=CC=C(C=C1)N1C(CCl)=NC2=C1C=CC=C2", 
	 "Tm": 396.15, 
	 "num_atms": 32, 
	 "gaussian": { 
		 "optdone": 1, 
		 "sigma_profile": "yes", 
		 "theory": "DFT", 
		 "functional": "B3LYP", 
		 "basiset": "6-31G**", 
		 "properties": { 
			 "R2extent": 6981.7031, 
			 "electric_dipole_moment_norm": 5.71369914941, 
			 "electric_quadrupole_moment_norm": 16.8128422166, 
			 "total_energy": -1224.35422982, 
			 "HOMO_LUMO_gap": 0.18319, 
			 "cosmo_polarized_energy": -12.86, 
			 "cosmo_cavitation_energy": 37.65, 
			 "cosmo_dispersion_energy": -26.73, 
			 "cosmo_repulsion_energy": 2.06, 
			 "cosmo_total_nonelectrostatic_energy": 12.98, 
			 "SMD_solvation_energy": 4.66 
		},
		"coords": [
			{
				"x": 1.0146061632,
				"y": -5.1636747489,
				"z": -3.3533991468,
				"element": "C" 
			},
			{
				"x": 1.9242326613,
				"y": -4.0887207876,
				"z": -3.1679953926,
				"element": "O" 
			},
			{
				"x": 1.5909166415,
				"y": -3.100811878,
				"z": -2.2934843718,
				"element": "C" 
			},
			{
				"x": 0.4035551109,
				"y": -3.0617550055,
				"z": -1.5502724087,
				"element": "C" 
			},
			{
				"x": 0.1711324792,
				"y": -1.9989686055,
				"z": -0.6755256099,
				"element": "C" 
			},
			{
				"x": 1.1046632758,
				"y": -0.9689496274,
				"z": -0.5430880875,
				"element": "C" 
			},
			{
				"x": 2.2862292508,
				"y": -1.0044645524,
				"z": -1.2970053122,
				"element": "C" 
			},
			{
				"x": 2.5304619124,
				"y": -2.0665084599,
				"z": -2.1566590633,
				"element": "C" 
			},
			{
				"x": 0.8356592214,
				"y": 0.1207307595,
				"z": 0.3424480824,
				"element": "N" 
			},
			{
				"x": 1.4947683979,
				"y": 0.453145769,
				"z": 1.5238103096,
				"element": "C" 
			},
			{
				"x": 2.6796713719,
				"y": -0.2853790646,
				"z": 2.0273632052,
				"element": "C" 
			},
			{
				"x": 4.267966355,
				"y": 0.3809011205,
				"z": 1.382724326,
				"element": "Cl" 
			},
			{
				"x": 0.9532353135,
				"y": 1.4691989818,
				"z": 2.1541052518,
				"element": "N" 
			},
			{
				"x": -0.1230708558,
				"y": 1.8494943598,
				"z": 1.3740165785,
				"element": "C" 
			},
			{
				"x": -0.2221061771,
				"y": 1.0170472234,
				"z": 0.2339319341,
				"element": "C" 
			},
			{
				"x": -1.2200707871,
				"y": 1.1808434922,
				"z": -0.7307386361,
				"element": "C" 
			},
			{
				"x": -2.1307772211,
				"y": 2.2111539314,
				"z": -0.5172980994,
				"element": "C" 
			},
			{
				"x": -2.049967736,
				"y": 3.0486699694,
				"z": 0.6160239653,
				"element": "C" 
			},
			{
				"x": -1.0528857567,
				"y": 2.881051464,
				"z": 1.5691231704,
				"element": "C" 
			},
			{
				"x": 1.4774582358,
				"y": -5.8253630963,
				"z": -4.0866214488,
				"element": "H" 
			},
			{
				"x": 0.8487260988,
				"y": -5.7180566367,
				"z": -2.4209815338,
				"element": "H" 
			},
			{
				"x": 0.0494368998,
				"y": -4.8139574097,
				"z": -3.7412329324,
				"element": "H" 
			},
			{
				"x": -0.3364926852,
				"y": -3.8480653986,
				"z": -1.6358538809,
				"element": "H" 
			},
			{
				"x": -0.7418484931,
				"y": -1.9707476044,
				"z": -0.0889691418,
				"element": "H" 
			},
			{
				"x": 3.0082346968,
				"y": -0.201292815,
				"z": -1.2002474037,
				"element": "H" 
			},
			{
				"x": 3.441601159,
				"y": -2.113411218,
				"z": -2.7433409398,
				"element": "H" 
			},
			{
				"x": 2.7343550695,
				"y": -0.1741171994,
				"z": 3.1078634982,
				"element": "H" 
			},
			{
				"x": 2.6672115395,
				"y": -1.3375178761,
				"z": 1.7450130714,
				"element": "H" 
			},
			{
				"x": -1.2799380084,
				"y": 0.5396805752,
				"z": -1.6039425761,
				"element": "H" 
			},
			{
				"x": -2.9221029143,
				"y": 2.3766396797,
				"z": -1.2425506714,
				"element": "H" 
			},
			{
				"x": -2.7831055956,
				"y": 3.8401314688,
				"z": 0.7400285046,
				"element": "H" 
			},
			{
				"x": -0.9801556238,
				"y": 3.5224731893,
				"z": 2.4413547594,
				"element": "H" 
			}
		],
		 "valence_orbital": [ 
			{
				"type": "occ",
				"energy": -0.27497,
				"method": "rhf"
			},
			{
				"type": "occ",
				"energy": -0.2694,
				"method": "rhf"
			},
			{
				"type": "occ",
				"energy": -0.24071,
				"method": "rhf"
			},
			{
				"type": "occ",
				"energy": -0.22557,
				"method": "rhf"
			},
			{
				"type": "occ",
				"energy": -0.21968,
				"method": "rhf"
			},
			{
				"type": "unocc",
				"energy": -0.03649,
				"method": "rhf"
			},
			{
				"type": "unocc",
				"energy": -0.02105,
				"method": "rhf"
			},
			{
				"type": "unocc",
				"energy": -0.01106,
				"method": "rhf"
			},
			{
				"type": "unocc",
				"energy": 0.01778,
				"method": "rhf"
			},
			{
				"type": "unocc",
				"energy": 0.02635,
				"method": "rhf"
			}
		],
		"cosmo_sigma_profile": { 
			"-0.025": 0.0,
			"-0.024": 0.0,
			"-0.023": 0.0,
			"-0.022": 0.0,
			"-0.021": 0.0,
			"-0.02": 0.0,
			"-0.019": 0.0,
			"-0.018": 0.0,
			"-0.017": 0.0,
			"-0.016": 0.0,
			"-0.015": 0.0,
			"-0.014": 0.0,
			"-0.013": 0.0,
			"-0.012": 0.0,
			"-0.011": 0.0,
			"-0.01": 0.0,
			"-0.009": 0.99725041018,
			"-0.008": 2.51667316025,
			"-0.007": 7.92847963864,
			"-0.006": 20.4045030209,
			"-0.005": 27.0155067553,
			"-0.004": 26.9679362373,
			"-0.003": 25.3111086725,
			"-0.002": 20.4241538521,
			"-0.001": 16.0754325886,
			"0.0": 17.1667600224,
			"0.001": 18.7823735629,
			"0.002": 21.4664937011,
			"0.003": 25.6430837502,
			"0.004": 23.8602442652,
			"0.005": 18.6445570299,
			"0.006": 13.662720432,
			"0.007": 3.45047470905,
			"0.008": 2.56661575859,
			"0.009": 2.80767935545,
			"0.01": 2.26043728132,
			"0.011": 0.994575471986,
			"0.012": 0.943491669918,
			"0.013": 0.753811632206,
			"0.014": 1.13065083354,
			"0.015": 0.87500880145,
			"0.016": 0.730451339407,
			"0.017": 0.320624210576,
			"0.018": 0.0,
			"0.019": 0.0,
			"0.02": 0.0,
			"0.021": 0.0,
			"0.022": 0.0,
			"0.023": 0.0,
			"0.024": 0.0,
			"0.025": 0.0
		}
	}
}
