{
	 "smiles": "CCOC(=O)C1=CC=C(C=C1)N=C=S", 
	 "Tm": 330.15, 
	 "num_atms": 23, 
	 "gaussian": { 
		 "optdone": 1, 
		 "sigma_profile": "yes", 
		 "theory": "DFT", 
		 "functional": "B3LYP", 
		 "basiset": "6-31G**", 
		 "properties": { 
			 "R2extent": 5819.3731, 
			 "electric_dipole_moment_norm": 3.42120246989, 
			 "electric_quadrupole_moment_norm": 14.2024947639, 
			 "total_energy": -989.890290179, 
			 "HOMO_LUMO_gap": 0.16549, 
			 "cosmo_polarized_energy": -8.35, 
			 "cosmo_cavitation_energy": 31.13, 
			 "cosmo_dispersion_energy": -22.83, 
			 "cosmo_repulsion_energy": 1.79, 
			 "cosmo_total_nonelectrostatic_energy": 10.08, 
			 "SMD_solvation_energy": 7.06 
		},
		"coords": [
			{
				"x": -4.7867898852,
				"y": 0.6780064707,
				"z": -1.4793754426,
				"element": "C" 
			},
			{
				"x": -4.3880884118,
				"y": 1.3282604448,
				"z": -0.1633808293,
				"element": "C" 
			},
			{
				"x": -2.9514304308,
				"y": 1.3017266655,
				"z": 0.023521295,
				"element": "O" 
			},
			{
				"x": -2.4348555328,
				"y": 0.1775555985,
				"z": 0.5666078772,
				"element": "C" 
			},
			{
				"x": -3.1027868824,
				"y": -0.7825424022,
				"z": 0.9019944533,
				"element": "O" 
			},
			{
				"x": -0.9527929472,
				"y": 0.2501667639,
				"z": 0.7127646205,
				"element": "C" 
			},
			{
				"x": -0.2950255922,
				"y": -0.8547178155,
				"z": 1.2720342301,
				"element": "C" 
			},
			{
				"x": 1.083206177,
				"y": -0.8489257,
				"z": 1.4353899937,
				"element": "C" 
			},
			{
				"x": 1.8226034629,
				"y": 0.2782244939,
				"z": 1.033669573,
				"element": "C" 
			},
			{
				"x": 1.171180857,
				"y": 1.3901809014,
				"z": 0.4714107934,
				"element": "C" 
			},
			{
				"x": -0.2091890667,
				"y": 1.3704375827,
				"z": 0.3143562036,
				"element": "C" 
			},
			{
				"x": 3.1836335444,
				"y": 0.2930202796,
				"z": 1.1906881856,
				"element": "N" 
			},
			{
				"x": 4.3632329635,
				"y": 0.3058572765,
				"z": 1.3268111463,
				"element": "C" 
			},
			{
				"x": 5.9446735666,
				"y": 0.3238747048,
				"z": 1.5089250558,
				"element": "S" 
			},
			{
				"x": -4.5399506406,
				"y": -0.3863172304,
				"z": -1.4720901055,
				"element": "H" 
			},
			{
				"x": -4.2771762149,
				"y": 1.1556427136,
				"z": -2.3213230494,
				"element": "H" 
			},
			{
				"x": -5.8668468063,
				"y": 0.7787250058,
				"z": -1.6293817483,
				"element": "H" 
			},
			{
				"x": -4.642122431,
				"y": 2.3906809621,
				"z": -0.1466590607,
				"element": "H" 
			},
			{
				"x": -4.860733638,
				"y": 0.826946645,
				"z": 0.6842633375,
				"element": "H" 
			},
			{
				"x": -0.8872583647,
				"y": -1.7116681042,
				"z": 1.5737535802,
				"element": "H" 
			},
			{
				"x": 1.6008350157,
				"y": -1.6984495369,
				"z": 1.8671471042,
				"element": "H" 
			},
			{
				"x": 1.7565140025,
				"y": 2.2508738934,
				"z": 0.1669757765,
				"element": "H" 
			},
			{
				"x": -0.7186327449,
				"y": 2.2233403871,
				"z": -0.1182029901,
				"element": "H" 
			}
		],
		 "valence_orbital": [ 
			{
				"type": "occ",
				"energy": -0.298,
				"method": "rhf"
			},
			{
				"type": "occ",
				"energy": -0.28185,
				"method": "rhf"
			},
			{
				"type": "occ",
				"energy": -0.27834,
				"method": "rhf"
			},
			{
				"type": "occ",
				"energy": -0.25744,
				"method": "rhf"
			},
			{
				"type": "occ",
				"energy": -0.23848,
				"method": "rhf"
			},
			{
				"type": "unocc",
				"energy": -0.07299,
				"method": "rhf"
			},
			{
				"type": "unocc",
				"energy": -0.02586,
				"method": "rhf"
			},
			{
				"type": "unocc",
				"energy": -0.001,
				"method": "rhf"
			},
			{
				"type": "unocc",
				"energy": 0.00458,
				"method": "rhf"
			},
			{
				"type": "unocc",
				"energy": 0.072,
				"method": "rhf"
			}
		],
		"cosmo_sigma_profile": { 
			"-0.025": 0.0,
			"-0.024": 0.0,
			"-0.023": 0.0,
			"-0.022": 0.0,
			"-0.021": 0.0,
			"-0.02": 0.0,
			"-0.019": 0.0,
			"-0.018": 0.0,
			"-0.017": 0.0,
			"-0.016": 0.0,
			"-0.015": 0.0,
			"-0.014": 0.0,
			"-0.013": 0.0,
			"-0.012": 0.0,
			"-0.011": 0.0,
			"-0.01": 0.0,
			"-0.009": 0.00176128276115,
			"-0.008": 2.85755342425,
			"-0.007": 6.11633007423,
			"-0.006": 10.1841828602,
			"-0.005": 11.8908416849,
			"-0.004": 16.5312496938,
			"-0.003": 21.7111835893,
			"-0.002": 26.4587870274,
			"-0.001": 27.3386785343,
			"0.0": 27.1984644459,
			"0.001": 24.3136772463,
			"0.002": 20.4997606788,
			"0.003": 10.3175266808,
			"0.004": 10.1519661704,
			"0.005": 14.1129320788,
			"0.006": 11.4084485915,
			"0.007": 1.4527807054,
			"0.008": 1.30303611587,
			"0.009": 1.36373621526,
			"0.01": 2.21468535723,
			"0.011": 2.6417725448,
			"0.012": 3.19772287467,
			"0.013": 0.00258151213476,
			"0.014": 0.0,
			"0.015": 0.0,
			"0.016": 0.0,
			"0.017": 0.0,
			"0.018": 0.0,
			"0.019": 0.0,
			"0.02": 0.0,
			"0.021": 0.0,
			"0.022": 0.0,
			"0.023": 0.0,
			"0.024": 0.0,
			"0.025": 0.0
		}
	}
}
