{
	 "smiles": "ClCC(=O)NC1=C(C#N)C2=C(CCC2)S1", 
	 "Tm": 450.15, 
	 "num_atms": 24, 
	 "gaussian": { 
		 "optdone": 1, 
		 "sigma_profile": "yes", 
		 "theory": "DFT", 
		 "functional": "B3LYP", 
		 "basiset": "6-31G**", 
		 "properties": { 
			 "R2extent": 5342.5839, 
			 "electric_dipole_moment_norm": 2.81742659177, 
			 "electric_quadrupole_moment_norm": 24.4703415744, 
			 "total_energy": -1429.58509241, 
			 "HOMO_LUMO_gap": 0.16699, 
			 "cosmo_polarized_energy": -13.14, 
			 "cosmo_cavitation_energy": 31.98, 
			 "cosmo_dispersion_energy": -23.44, 
			 "cosmo_repulsion_energy": 1.82, 
			 "cosmo_total_nonelectrostatic_energy": 10.36, 
			 "SMD_solvation_energy": 6.03 
		},
		"coords": [
			{
				"x": -2.7018369663,
				"y": -3.7012821974,
				"z": 3.084648263,
				"element": "Cl" 
			},
			{
				"x": -0.9765653024,
				"y": -3.2976721633,
				"z": 3.446852445,
				"element": "C" 
			},
			{
				"x": -0.3231491721,
				"y": -2.24348426,
				"z": 2.5570023558,
				"element": "C" 
			},
			{
				"x": 0.8439543879,
				"y": -1.9451170008,
				"z": 2.7683850295,
				"element": "O" 
			},
			{
				"x": -1.0783586576,
				"y": -1.6833022007,
				"z": 1.5664479449,
				"element": "N" 
			},
			{
				"x": -0.6258719183,
				"y": -0.7183561621,
				"z": 0.6767189835,
				"element": "C" 
			},
			{
				"x": -1.3999393795,
				"y": -0.1593557623,
				"z": -0.3348645193,
				"element": "C" 
			},
			{
				"x": -2.7476149099,
				"y": -0.5496052549,
				"z": -0.5578262418,
				"element": "C" 
			},
			{
				"x": -3.8503398107,
				"y": -0.8960380727,
				"z": -0.7092282928,
				"element": "N" 
			},
			{
				"x": -0.6674961621,
				"y": 0.8284477125,
				"z": -1.0729072369,
				"element": "C" 
			},
			{
				"x": 0.6045936968,
				"y": 0.9907140988,
				"z": -0.6202331077,
				"element": "C" 
			},
			{
				"x": 1.4073994572,
				"y": 1.9714625625,
				"z": -1.4294163502,
				"element": "C" 
			},
			{
				"x": 0.2833510356,
				"y": 2.6633047661,
				"z": -2.2648763265,
				"element": "C" 
			},
			{
				"x": -0.9406718469,
				"y": 1.6957819088,
				"z": -2.2737487819,
				"element": "C" 
			},
			{
				"x": 0.9906890666,
				"y": -0.0490611556,
				"z": 0.7245357593,
				"element": "S" 
			},
			{
				"x": -0.9297894898,
				"y": -2.9475150887,
				"z": 4.4787323356,
				"element": "H" 
			},
			{
				"x": -0.3981309543,
				"y": -4.2184798861,
				"z": 3.3630243149,
				"element": "H" 
			},
			{
				"x": -2.0403784587,
				"y": -1.9903078931,
				"z": 1.4580671245,
				"element": "H" 
			},
			{
				"x": 2.1334985184,
				"y": 1.4551484735,
				"z": -2.0721451237,
				"element": "H" 
			},
			{
				"x": 1.9713699925,
				"y": 2.6895364162,
				"z": -0.8244800921,
				"element": "H" 
			},
			{
				"x": 0.6186916831,
				"y": 2.9200329256,
				"z": -3.2730822721,
				"element": "H" 
			},
			{
				"x": -0.0027328463,
				"y": 3.5955737848,
				"z": -1.7683838612,
				"element": "H" 
			},
			{
				"x": -0.9751293982,
				"y": 1.0912385864,
				"z": -3.1899937447,
				"element": "H" 
			},
			{
				"x": -1.8930425653,
				"y": 2.2333358624,
				"z": -2.2158286051,
				"element": "H" 
			}
		],
		 "valence_orbital": [ 
			{
				"type": "occ",
				"energy": -0.32618,
				"method": "rhf"
			},
			{
				"type": "occ",
				"energy": -0.31632,
				"method": "rhf"
			},
			{
				"type": "occ",
				"energy": -0.28496,
				"method": "rhf"
			},
			{
				"type": "occ",
				"energy": -0.26,
				"method": "rhf"
			},
			{
				"type": "occ",
				"energy": -0.22072,
				"method": "rhf"
			},
			{
				"type": "unocc",
				"energy": -0.05373,
				"method": "rhf"
			},
			{
				"type": "unocc",
				"energy": -0.00112,
				"method": "rhf"
			},
			{
				"type": "unocc",
				"energy": 0.00902,
				"method": "rhf"
			},
			{
				"type": "unocc",
				"energy": 0.01147,
				"method": "rhf"
			},
			{
				"type": "unocc",
				"energy": 0.0155,
				"method": "rhf"
			}
		],
		"cosmo_sigma_profile": { 
			"-0.025": 0.0,
			"-0.024": 0.0,
			"-0.023": 0.0,
			"-0.022": 0.0,
			"-0.021": 0.0,
			"-0.02": 0.0,
			"-0.019": 0.0,
			"-0.018": 0.0,
			"-0.017": 0.0,
			"-0.016": 0.0,
			"-0.015": 0.0,
			"-0.014": 0.0,
			"-0.013": 0.0,
			"-0.012": 0.0,
			"-0.011": 0.127018359684,
			"-0.01": 3.64700624455,
			"-0.009": 6.66205681404,
			"-0.008": 5.80316775786,
			"-0.007": 6.6969040154,
			"-0.006": 6.94195076396,
			"-0.005": 8.41357031325,
			"-0.004": 19.8625975299,
			"-0.003": 26.2412905355,
			"-0.002": 29.4077238387,
			"-0.001": 24.5984211863,
			"0.0": 22.7339269559,
			"0.001": 14.8220081863,
			"0.002": 15.3778439419,
			"0.003": 12.5087539488,
			"0.004": 10.8620111886,
			"0.005": 9.1042413699,
			"0.006": 4.71996031204,
			"0.007": 3.95955257528,
			"0.008": 4.50952676495,
			"0.009": 5.13279633249,
			"0.01": 5.61461796697,
			"0.011": 6.06582192236,
			"0.012": 4.4807983536,
			"0.013": 1.76762445473,
			"0.014": 0.0577003230654,
			"0.015": 0.0,
			"0.016": 0.0,
			"0.017": 0.0,
			"0.018": 0.0,
			"0.019": 0.0,
			"0.02": 0.0,
			"0.021": 0.0,
			"0.022": 0.0,
			"0.023": 0.0,
			"0.024": 0.0,
			"0.0": 0.0
		}
	}
}
