{
	 "smiles": "COC1=CC=CC=C1C1=CC=C(O1)C=CC(=O)C1=CC=CC=C1", 
	 "Tm": 371.65, 
	 "num_atms": 39, 
	 "gaussian": { 
		 "optdone": 1, 
		 "sigma_profile": "yes", 
		 "theory": "DFT", 
		 "functional": "B3LYP", 
		 "basiset": "6-31G**", 
		 "properties": { 
			 "R2extent": 11389.5261, 
			 "electric_dipole_moment_norm": 4.93156028149, 
			 "electric_quadrupole_moment_norm": 22.8284463028, 
			 "total_energy": -997.406669718, 
			 "HOMO_LUMO_gap": 0.1246, 
			 "cosmo_polarized_energy": -15.14, 
			 "cosmo_cavitation_energy": 44.74, 
			 "cosmo_dispersion_energy": -31.01, 
			 "cosmo_repulsion_energy": 2.33, 
			 "cosmo_total_nonelectrostatic_energy": 16.06, 
			 "SMD_solvation_energy": 9.09 
		},
		"coords": [
			{
				"x": 2.64847375,
				"y": 1.3249971101,
				"z": -0.239520978,
				"element": "C" 
			},
			{
				"x": 1.7400904657,
				"y": 1.250448248,
				"z": 0.8482400501,
				"element": "O" 
			},
			{
				"x": 2.1887054447,
				"y": 0.7895137004,
				"z": 2.0463066653,
				"element": "C" 
			},
			{
				"x": 3.5009950413,
				"y": 0.3521946871,
				"z": 2.2628389488,
				"element": "C" 
			},
			{
				"x": 3.9053293605,
				"y": -0.0770681324,
				"z": 3.5280324701,
				"element": "C" 
			},
			{
				"x": 3.0062709712,
				"y": -0.0780705216,
				"z": 4.5926251535,
				"element": "C" 
			},
			{
				"x": 1.6976583709,
				"y": 0.3459485436,
				"z": 4.3775201459,
				"element": "C" 
			},
			{
				"x": 1.2576057093,
				"y": 0.7865259347,
				"z": 3.1184306396,
				"element": "C" 
			},
			{
				"x": -0.1200266188,
				"y": 1.2532259578,
				"z": 2.9872617275,
				"element": "C" 
			},
			{
				"x": -0.9671267613,
				"y": 1.8353594506,
				"z": 3.908800851,
				"element": "C" 
			},
			{
				"x": -2.2028847893,
				"y": 2.0463896442,
				"z": 3.250576571,
				"element": "C" 
			},
			{
				"x": -2.0508230362,
				"y": 1.5859169758,
				"z": 1.9591284564,
				"element": "C" 
			},
			{
				"x": -0.7771061975,
				"y": 1.1010281026,
				"z": 1.8033642748,
				"element": "O" 
			},
			{
				"x": -2.9486920873,
				"y": 1.5463672032,
				"z": 0.8491554339,
				"element": "C" 
			},
			{
				"x": -2.6703410888,
				"y": 1.0667247199,
				"z": -0.3857691053,
				"element": "C" 
			},
			{
				"x": -3.7020343786,
				"y": 1.1060937115,
				"z": -1.4409756575,
				"element": "C" 
			},
			{
				"x": -4.8012626215,
				"y": 1.6259776283,
				"z": -1.2400013548,
				"element": "O" 
			},
			{
				"x": -3.3949619923,
				"y": 0.5133528,
				"z": -2.7884876979,
				"element": "C" 
			},
			{
				"x": -4.3028198707,
				"y": 0.7670516026,
				"z": -3.829676596,
				"element": "C" 
			},
			{
				"x": -4.0880055823,
				"y": 0.2472166102,
				"z": -5.1022267649,
				"element": "C" 
			},
			{
				"x": -2.9641310736,
				"y": -0.5459155647,
				"z": -5.3533489873,
				"element": "C" 
			},
			{
				"x": -2.0604141044,
				"y": -0.8148149357,
				"z": -4.3242422321,
				"element": "C" 
			},
			{
				"x": -2.2716735264,
				"y": -0.2865486504,
				"z": -3.0501644275,
				"element": "C" 
			},
			{
				"x": 3.4964712613,
				"y": 1.9843449942,
				"z": -0.0149774423,
				"element": "H" 
			},
			{
				"x": 3.0274723255,
				"y": 0.3339737749,
				"z": -0.5199114786,
				"element": "H" 
			},
			{
				"x": 2.0804430488,
				"y": 1.7409997198,
				"z": -1.0726492272,
				"element": "H" 
			},
			{
				"x": 4.2154432581,
				"y": 0.3513233098,
				"z": 1.4489013634,
				"element": "H" 
			},
			{
				"x": 4.9278982591,
				"y": -0.4132916219,
				"z": 3.6726419736,
				"element": "H" 
			},
			{
				"x": 3.31368713,
				"y": -0.4181527352,
				"z": 5.5762227436,
				"element": "H" 
			},
			{
				"x": 0.981826225,
				"y": 0.3194386795,
				"z": 5.1931400824,
				"element": "H" 
			},
			{
				"x": -0.7136097623,
				"y": 2.1011414902,
				"z": 4.924494685,
				"element": "H" 
			},
			{
				"x": -3.0986005263,
				"y": 2.4921512393,
				"z": 3.6594822953,
				"element": "H" 
			},
			{
				"x": -3.9469744606,
				"y": 1.9412184783,
				"z": 1.0241409579,
				"element": "H" 
			},
			{
				"x": -1.6830168762,
				"y": 0.6747140252,
				"z": -0.5987247188,
				"element": "H" 
			},
			{
				"x": -5.171561043,
				"y": 1.37728539,
				"z": -3.6071860087,
				"element": "H" 
			},
			{
				"x": -4.7952116027,
				"y": 0.4563699518,
				"z": -5.8998954724,
				"element": "H" 
			},
			{
				"x": -2.7958350216,
				"y": -0.9548114361,
				"z": -6.3457655462,
				"element": "H" 
			},
			{
				"x": -1.1910790518,
				"y": -1.4385424279,
				"z": -4.5121082698,
				"element": "H" 
			},
			{
				"x": -1.5648785481,
				"y": -0.5199776577,
				"z": -2.261273524,
				"element": "H" 
			}
		],
		 "valence_orbital": [ 
			{
				"type": "occ",
				"energy": -0.25229,
				"method": "rhf"
			},
			{
				"type": "occ",
				"energy": -0.24839,
				"method": "rhf"
			},
			{
				"type": "occ",
				"energy": -0.23694,
				"method": "rhf"
			},
			{
				"type": "occ",
				"energy": -0.23446,
				"method": "rhf"
			},
			{
				"type": "occ",
				"energy": -0.19826,
				"method": "rhf"
			},
			{
				"type": "unocc",
				"energy": -0.07366,
				"method": "rhf"
			},
			{
				"type": "unocc",
				"energy": -0.03009,
				"method": "rhf"
			},
			{
				"type": "unocc",
				"energy": -0.00595,
				"method": "rhf"
			},
			{
				"type": "unocc",
				"energy": 0.00058,
				"method": "rhf"
			},
			{
				"type": "unocc",
				"energy": 0.00401,
				"method": "rhf"
			}
		],
		"cosmo_sigma_profile": { 
			"-0.025": 0.0,
			"-0.024": 0.0,
			"-0.023": 0.0,
			"-0.022": 0.0,
			"-0.021": 0.0,
			"-0.02": 0.0,
			"-0.019": 0.0,
			"-0.018": 0.0,
			"-0.017": 0.0,
			"-0.016": 0.0,
			"-0.015": 0.0,
			"-0.014": 0.0,
			"-0.013": 0.0,
			"-0.012": 0.0,
			"-0.011": 0.0,
			"-0.01": 0.0,
			"-0.009": 0.175509996682,
			"-0.008": 3.56867960196,
			"-0.007": 9.83546889116,
			"-0.006": 25.5204895081,
			"-0.005": 30.3004888414,
			"-0.004": 31.2822637367,
			"-0.003": 25.8530489095,
			"-0.002": 20.4956505819,
			"-0.001": 17.9885432596,
			"0.0": 22.3977529306,
			"0.001": 25.6021951957,
			"0.002": 37.5795686358,
			"0.003": 33.6706947745,
			"0.004": 30.44717229,
			"0.005": 17.1491518109,
			"0.006": 5.35363033123,
			"0.007": 3.6646894137,
			"0.008": 2.56595675918,
			"0.009": 3.50983338242,
			"0.01": 3.46041250518,
			"0.011": 2.15877975689,
			"0.012": 2.94599174881,
			"0.013": 3.96362241665,
			"0.014": 0.149608615516,
			"0.015": 0.0,
			"0.016": 0.0,
			"0.017": 0.0,
			"0.018": 0.0,
			"0.019": 0.0,
			"0.02": 0.0,
			"0.021": 0.0,
			"0.022": 0.0,
			"0.023": 0.0,
			"0.024": 0.0,
			"0.025": 0.0
		}
	}
}
