{
	 "smiles": "CCC(CC)NS(=O)(=O)C1=CN=C(Cl)C=C1", 
	 "Tm": 365.15, 
	 "num_atms": 31, 
	 "gaussian": { 
		 "optdone": 1, 
		 "sigma_profile": "yes", 
		 "theory": "DFT", 
		 "functional": "B3LYP", 
		 "basiset": "6-31G**", 
		 "properties": { 
			 "R2extent": 6178.0673, 
			 "electric_dipole_moment_norm": 4.23528837507, 
			 "electric_quadrupole_moment_norm": 16.0315380054, 
			 "total_energy": -1508.37199302, 
			 "HOMO_LUMO_gap": 0.20594, 
			 "cosmo_polarized_energy": -14.12, 
			 "cosmo_cavitation_energy": 37.22, 
			 "cosmo_dispersion_energy": -25.82, 
			 "cosmo_repulsion_energy": 2.0, 
			 "cosmo_total_nonelectrostatic_energy": 13.4, 
			 "SMD_solvation_energy": 3.77 
		},
		"coords": [
			{
				"x": -1.101257556,
				"y": 0.9611273917,
				"z": 2.6985922533,
				"element": "C" 
			},
			{
				"x": 0.0791994798,
				"y": -0.0010445807,
				"z": 2.5283906212,
				"element": "C" 
			},
			{
				"x": -0.2063828013,
				"y": -1.2551906835,
				"z": 1.6769183512,
				"element": "C" 
			},
			{
				"x": -1.2724589216,
				"y": -2.1844014745,
				"z": 2.2862290627,
				"element": "C" 
			},
			{
				"x": -1.4340172089,
				"y": -3.5232035728,
				"z": 1.5591292657,
				"element": "C" 
			},
			{
				"x": -0.5714480424,
				"y": -0.8619123922,
				"z": 0.2954027207,
				"element": "N" 
			},
			{
				"x": 0.2277199195,
				"y": -1.446926818,
				"z": -1.0518442205,
				"element": "S" 
			},
			{
				"x": 1.1783708062,
				"y": -2.4841354469,
				"z": -0.6385755864,
				"element": "O" 
			},
			{
				"x": -0.8051655673,
				"y": -1.6800037185,
				"z": -2.0654777158,
				"element": "O" 
			},
			{
				"x": 1.2168224942,
				"y": -0.0601893687,
				"z": -1.6194759569,
				"element": "C" 
			},
			{
				"x": 0.6485631209,
				"y": 0.9274826365,
				"z": -2.4248902327,
				"element": "C" 
			},
			{
				"x": 1.3421235332,
				"y": 1.9846637073,
				"z": -2.8633140945,
				"element": "N" 
			},
			{
				"x": 2.6149738673,
				"y": 2.0677967953,
				"z": -2.5124145679,
				"element": "C" 
			},
			{
				"x": 3.5003671951,
				"y": 3.469230654,
				"z": -3.0927902034,
				"element": "Cl" 
			},
			{
				"x": 3.2926691312,
				"y": 1.1270628192,
				"z": -1.7293569814,
				"element": "C" 
			},
			{
				"x": 2.5663908223,
				"y": 0.0324998594,
				"z": -1.273457984,
				"element": "C" 
			},
			{
				"x": -0.7982168141,
				"y": 1.8435056978,
				"z": 3.2703921809,
				"element": "H" 
			},
			{
				"x": -1.4683630745,
				"y": 1.310281899,
				"z": 1.7277486592,
				"element": "H" 
			},
			{
				"x": -1.9374912782,
				"y": 0.498283146,
				"z": 3.2324611426,
				"element": "H" 
			},
			{
				"x": 0.9154992101,
				"y": 0.5351786385,
				"z": 2.0644869749,
				"element": "H" 
			},
			{
				"x": 0.4306107755,
				"y": -0.3349016689,
				"z": 3.5133456343,
				"element": "H" 
			},
			{
				"x": 0.7243888273,
				"y": -1.8251010995,
				"z": 1.5916701758,
				"element": "H" 
			},
			{
				"x": -0.9941794446,
				"y": -2.3637181946,
				"z": 3.3323950484,
				"element": "H" 
			},
			{
				"x": -2.2377340619,
				"y": -1.6607864525,
				"z": 2.3184442548,
				"element": "H" 
			},
			{
				"x": -0.4866792502,
				"y": -4.0696991811,
				"z": 1.5180731609,
				"element": "H" 
			},
			{
				"x": -2.1682271337,
				"y": -4.1531402217,
				"z": 2.0708373661,
				"element": "H" 
			},
			{
				"x": -1.7769270216,
				"y": -3.3876902671,
				"z": 0.5285868795,
				"element": "H" 
			},
			{
				"x": -1.563322613,
				"y": -0.7974159544,
				"z": 0.0908741361,
				"element": "H" 
			},
			{
				"x": -0.38927788,
				"y": 0.8588866899,
				"z": -2.7383969166,
				"element": "H" 
			},
			{
				"x": 4.3435487185,
				"y": 1.2511939064,
				"z": -1.4978700737,
				"element": "H" 
			},
			{
				"x": 3.0310007682,
				"y": -0.7457327456,
				"z": -0.6776133547,
				"element": "H" 
			}
		],
		 "valence_orbital": [ 
			{
				"type": "occ",
				"energy": -0.31816,
				"method": "rhf"
			},
			{
				"type": "occ",
				"energy": -0.31177,
				"method": "rhf"
			},
			{
				"type": "occ",
				"energy": -0.29027,
				"method": "rhf"
			},
			{
				"type": "occ",
				"energy": -0.28703,
				"method": "rhf"
			},
			{
				"type": "occ",
				"energy": -0.26359,
				"method": "rhf"
			},
			{
				"type": "unocc",
				"energy": -0.05765,
				"method": "rhf"
			},
			{
				"type": "unocc",
				"energy": -0.05108,
				"method": "rhf"
			},
			{
				"type": "unocc",
				"energy": 0.02293,
				"method": "rhf"
			},
			{
				"type": "unocc",
				"energy": 0.04683,
				"method": "rhf"
			},
			{
				"type": "unocc",
				"energy": 0.06906,
				"method": "rhf"
			}
		],
		"cosmo_sigma_profile": { 
			"-0.025": 0.0,
			"-0.024": 0.0,
			"-0.023": 0.0,
			"-0.022": 0.0,
			"-0.021": 0.0,
			"-0.02": 0.0,
			"-0.019": 0.0,
			"-0.018": 0.0,
			"-0.017": 0.0,
			"-0.016": 0.0,
			"-0.015": 0.039546491199,
			"-0.014": 0.345430700109,
			"-0.013": 0.581000882092,
			"-0.012": 1.08801215813,
			"-0.011": 0.794217264706,
			"-0.01": 0.902626360064,
			"-0.009": 4.18629329283,
			"-0.008": 6.68497795767,
			"-0.007": 6.49316191242,
			"-0.006": 7.31685050892,
			"-0.005": 7.52416899401,
			"-0.004": 11.279276667,
			"-0.003": 30.4367801107,
			"-0.002": 37.2897460846,
			"-0.001": 39.355691908,
			"0.0": 32.4105813294,
			"0.001": 25.9056007595,
			"0.002": 14.4148076975,
			"0.003": 12.5607708541,
			"0.004": 12.229793605,
			"0.005": 7.02313225604,
			"0.006": 4.58022644495,
			"0.007": 5.29110338285,
			"0.008": 4.4512874899,
			"0.009": 4.61331496478,
			"0.01": 7.8147366286,
			"0.011": 7.84685685146,
			"0.012": 1.52187240571,
			"0.013": 0.90587719037,
			"0.014": 0.0995683014464,
			"0.015": 0.0,
			"0.016": 0.0,
			"0.017": 0.0,
			"0.018": 0.0,
			"0.019": 0.0,
			"0.02": 0.0,
			"0.021": 0.0,
			"0.022": 0.0,
			"0.023": 0.0,
			"0.024": 0.0,
			"0.025": 0.0
		}
	}
}
