{
	 "smiles": "CC(Cl)C(=O)NCC1=C(F)C=CC=C1", 
	 "Tm": 340.15, 
	 "num_atms": 25, 
	 "gaussian": { 
		 "optdone": 1, 
		 "sigma_profile": "yes", 
		 "theory": "DFT", 
		 "functional": "B3LYP", 
		 "basiset": "6-31G**", 
		 "properties": { 
			 "R2extent": 4538.4078, 
			 "electric_dipole_moment_norm": 2.5127010427, 
			 "electric_quadrupole_moment_norm": 15.6542899235, 
			 "total_energy": -1077.71503725, 
			 "HOMO_LUMO_gap": 0.22643, 
			 "cosmo_polarized_energy": -11.94, 
			 "cosmo_cavitation_energy": 31.05, 
			 "cosmo_dispersion_energy": -21.83, 
			 "cosmo_repulsion_energy": 1.71, 
			 "cosmo_total_nonelectrostatic_energy": 10.93, 
			 "SMD_solvation_energy": 5.86 
		},
		"coords": [
			{
				"x": -0.1756071892,
				"y": -4.3794911155,
				"z": -1.2909539674,
				"element": "C" 
			},
			{
				"x": 0.0369927508,
				"y": -2.949081099,
				"z": -0.831773227,
				"element": "C" 
			},
			{
				"x": 1.2102705324,
				"y": -2.0930764767,
				"z": -1.9638694607,
				"element": "Cl" 
			},
			{
				"x": 0.6042526976,
				"y": -2.886738539,
				"z": 0.5988287901,
				"element": "C" 
			},
			{
				"x": 1.0654508174,
				"y": -3.8889792512,
				"z": 1.128349129,
				"element": "O" 
			},
			{
				"x": 0.5562237107,
				"y": -1.6907360003,
				"z": 1.2570880118,
				"element": "N" 
			},
			{
				"x": 0.0211306552,
				"y": -0.4008987315,
				"z": 0.8368974605,
				"element": "C" 
			},
			{
				"x": 0.9801073819,
				"y": 0.7375726918,
				"z": 1.1327960603,
				"element": "C" 
			},
			{
				"x": 0.5026220353,
				"y": 1.9562666374,
				"z": 1.6176547953,
				"element": "C" 
			},
			{
				"x": -0.8292327516,
				"y": 2.0960673305,
				"z": 1.8296303255,
				"element": "F" 
			},
			{
				"x": 1.3319929842,
				"y": 3.0363195937,
				"z": 1.8942268862,
				"element": "C" 
			},
			{
				"x": 2.7027802253,
				"y": 2.9004524163,
				"z": 1.6757982205,
				"element": "C" 
			},
			{
				"x": 3.2168252884,
				"y": 1.6963614452,
				"z": 1.1884098616,
				"element": "C" 
			},
			{
				"x": 2.3605278456,
				"y": 0.6282123006,
				"z": 0.9209612627,
				"element": "C" 
			},
			{
				"x": 0.75002221,
				"y": -4.9494008125,
				"z": -1.2048023707,
				"element": "H" 
			},
			{
				"x": -0.9234187588,
				"y": -4.8547702286,
				"z": -0.6481834891,
				"element": "H" 
			},
			{
				"x": -0.5307603096,
				"y": -4.3997162155,
				"z": -2.3234322373,
				"element": "H" 
			},
			{
				"x": -0.8866451865,
				"y": -2.3720650339,
				"z": -0.9114075937,
				"element": "H" 
			},
			{
				"x": 0.9344915534,
				"y": -1.7473762033,
				"z": 2.1949207698,
				"element": "H" 
			},
			{
				"x": -0.1707808243,
				"y": -0.4358603368,
				"z": -0.2380431976,
				"element": "H" 
			},
			{
				"x": -0.9362262534,
				"y": -0.2012807312,
				"z": 1.3305315292,
				"element": "H" 
			},
			{
				"x": 0.8969570579,
				"y": 3.9547747662,
				"z": 2.2731186846,
				"element": "H" 
			},
			{
				"x": 3.3652689126,
				"y": 3.7343279071,
				"z": 1.8869082851,
				"element": "H" 
			},
			{
				"x": 4.2831363961,
				"y": 1.588878168,
				"z": 1.0161288429,
				"element": "H" 
			},
			{
				"x": 2.7568182187,
				"y": -0.3097624818,
				"z": 0.5442166285,
				"element": "H" 
			}
		],
		 "valence_orbital": [ 
			{
				"type": "occ",
				"energy": -0.30493,
				"method": "rhf"
			},
			{
				"type": "occ",
				"energy": -0.27193,
				"method": "rhf"
			},
			{
				"type": "occ",
				"energy": -0.25949,
				"method": "rhf"
			},
			{
				"type": "occ",
				"energy": -0.25517,
				"method": "rhf"
			},
			{
				"type": "occ",
				"energy": -0.24869,
				"method": "rhf"
			},
			{
				"type": "unocc",
				"energy": -0.02226,
				"method": "rhf"
			},
			{
				"type": "unocc",
				"energy": -0.02051,
				"method": "rhf"
			},
			{
				"type": "unocc",
				"energy": -0.00593,
				"method": "rhf"
			},
			{
				"type": "unocc",
				"energy": 0.05266,
				"method": "rhf"
			},
			{
				"type": "unocc",
				"energy": 0.08088,
				"method": "rhf"
			}
		],
		"cosmo_sigma_profile": { 
			"-0.025": 0.0,
			"-0.024": 0.0,
			"-0.023": 0.0,
			"-0.022": 0.0,
			"-0.021": 0.0,
			"-0.02": 0.0,
			"-0.019": 0.0,
			"-0.018": 0.0,
			"-0.017": 0.0,
			"-0.016": 0.0,
			"-0.015": 0.00391475731484,
			"-0.014": 0.566323786184,
			"-0.013": 0.693276818778,
			"-0.012": 1.10331261418,
			"-0.011": 0.844886861307,
			"-0.01": 1.25813721038,
			"-0.009": 2.81880779013,
			"-0.008": 4.31185538415,
			"-0.007": 6.65837858542,
			"-0.006": 11.4277098806,
			"-0.005": 16.6377994449,
			"-0.004": 20.3636139137,
			"-0.003": 15.602316898,
			"-0.002": 15.7092871993,
			"-0.001": 19.3853099868,
			"0.0": 19.0504739671,
			"0.001": 18.2187609449,
			"0.002": 18.2410387952,
			"0.003": 17.137247024,
			"0.004": 21.9220619953,
			"0.005": 14.1012424854,
			"0.006": 5.70645235765,
			"0.007": 1.13129673425,
			"0.008": 1.86905523399,
			"0.009": 1.68184553371,
			"0.01": 1.10355495341,
			"0.011": 1.44180562171,
			"0.012": 2.90015231148,
			"0.013": 5.39124455284,
			"0.014": 1.42707524897,
			"0.015": 0.0,
			"0.016": 0.0,
			"0.017": 0.0,
			"0.018": 0.0,
			"0.019": 0.0,
			"0.02": 0.0,
			"0.021": 0.0,
			"0.022": 0.0,
			"0.023": 0.0,
			"0.024": 0.0,
			"0.025": 0.0
		}
	}
}
