{
	 "smiles": "NC1=CC(=CC(Cl)=C1N)C(F)(F)F", 
	 "Tm": 315.65, 
	 "num_atms": 19, 
	 "gaussian": { 
		 "optdone": 1, 
		 "sigma_profile": "yes", 
		 "theory": "DFT", 
		 "functional": "B3LYP", 
		 "basiset": "6-31G**", 
		 "properties": { 
			 "R2extent": 3978.4847, 
			 "electric_dipole_moment_norm": 4.11628457471, 
			 "electric_quadrupole_moment_norm": 5.66757024835, 
			 "total_energy": -1139.5949253, 
			 "HOMO_LUMO_gap": 0.19755, 
			 "cosmo_polarized_energy": -10.09, 
			 "cosmo_cavitation_energy": 26.09, 
			 "cosmo_dispersion_energy": -19.13, 
			 "cosmo_repulsion_energy": 1.46, 
			 "cosmo_total_nonelectrostatic_energy": 8.42, 
			 "SMD_solvation_energy": 5.26 
		},
		"coords": [
			{
				"x": -0.7699180417,
				"y": -1.0952486911,
				"z": -1.0482892029,
				"element": "N" 
			},
			{
				"x": -0.1650030135,
				"y": -0.3954250849,
				"z": 0.0097883646,
				"element": "C" 
			},
			{
				"x": -0.8789347357,
				"y": 0.4102450118,
				"z": 0.8916232448,
				"element": "C" 
			},
			{
				"x": -0.2285090196,
				"y": 1.0610878169,
				"z": 1.9462670626,
				"element": "C" 
			},
			{
				"x": 1.1460665261,
				"y": 0.9244462507,
				"z": 2.1172899065,
				"element": "C" 
			},
			{
				"x": 1.8534552034,
				"y": 0.1072886256,
				"z": 1.237991624,
				"element": "C" 
			},
			{
				"x": 3.5904691086,
				"y": -0.0889859079,
				"z": 1.467778123,
				"element": "Cl" 
			},
			{
				"x": 1.2320878069,
				"y": -0.5795970382,
				"z": 0.1878667768,
				"element": "C" 
			},
			{
				"x": 1.908893818,
				"y": -1.3893242228,
				"z": -0.7197460453,
				"element": "N" 
			},
			{
				"x": -1.032685166,
				"y": 1.8758011042,
				"z": 2.9168953064,
				"element": "C" 
			},
			{
				"x": -2.0343729474,
				"y": 2.5469580539,
				"z": 2.2995517375,
				"element": "F" 
			},
			{
				"x": -1.6183150046,
				"y": 1.1026481471,
				"z": 3.8635136365,
				"element": "F" 
			},
			{
				"x": -0.2757038928,
				"y": 2.7857351332,
				"z": 3.5684461105,
				"element": "F" 
			},
			{
				"x": -0.2531034397,
				"y": -1.0091784324,
				"z": -1.9187189478,
				"element": "H" 
			},
			{
				"x": -1.7413266759,
				"y": -0.8473595476,
				"z": -1.1897444986,
				"element": "H" 
			},
			{
				"x": -1.9453343229,
				"y": 0.5521300868,
				"z": 0.7461216123,
				"element": "H" 
			},
			{
				"x": 1.6625398223,
				"y": 1.4376252785,
				"z": 2.9181612668,
				"element": "H" 
			},
			{
				"x": 1.3816329592,
				"y": -2.2168869938,
				"z": -0.9772508084,
				"element": "H" 
			},
			{
				"x": 2.8591610155,
				"y": -1.6087595901,
				"z": -0.4498452693,
				"element": "H" 
			}
		],
		 "valence_orbital": [ 
			{
				"type": "occ",
				"energy": -0.32812,
				"method": "rhf"
			},
			{
				"type": "occ",
				"energy": -0.32355,
				"method": "rhf"
			},
			{
				"type": "occ",
				"energy": -0.31135,
				"method": "rhf"
			},
			{
				"type": "occ",
				"energy": -0.23859,
				"method": "rhf"
			},
			{
				"type": "occ",
				"energy": -0.21266,
				"method": "rhf"
			},
			{
				"type": "unocc",
				"energy": -0.01511,
				"method": "rhf"
			},
			{
				"type": "unocc",
				"energy": -0.0064,
				"method": "rhf"
			},
			{
				"type": "unocc",
				"energy": 0.02449,
				"method": "rhf"
			},
			{
				"type": "unocc",
				"energy": 0.06343,
				"method": "rhf"
			},
			{
				"type": "unocc",
				"energy": 0.09714,
				"method": "rhf"
			}
		],
		"cosmo_sigma_profile": { 
			"-0.025": 0.0,
			"-0.024": 0.0,
			"-0.023": 0.0,
			"-0.022": 0.0,
			"-0.021": 0.0,
			"-0.02": 0.0,
			"-0.019": 0.0,
			"-0.018": 0.0,
			"-0.017": 0.0,
			"-0.016": 0.0,
			"-0.015": 0.0,
			"-0.014": 0.00620692568436,
			"-0.013": 0.813049657658,
			"-0.012": 3.16012490479,
			"-0.011": 4.62087040224,
			"-0.01": 5.29598455723,
			"-0.009": 5.16759663413,
			"-0.008": 5.38706659846,
			"-0.007": 5.25512031187,
			"-0.006": 5.22525484563,
			"-0.005": 6.08732233715,
			"-0.004": 6.09291577012,
			"-0.003": 6.7014259019,
			"-0.002": 8.48038016474,
			"-0.001": 8.38136873495,
			"0.0": 11.8847912301,
			"0.001": 18.8479164834,
			"0.002": 25.428986305,
			"0.003": 48.5524845879,
			"0.004": 20.2962478799,
			"0.005": 5.43495610182,
			"0.006": 2.01214913261,
			"0.007": 0.824304818005,
			"0.008": 1.19659448631,
			"0.009": 1.11247508707,
			"0.01": 1.36826665679,
			"0.011": 0.937520935219,
			"0.012": 0.918044458027,
			"0.013": 0.599664089066,
			"0.014": 0.150294224273,
			"0.015": 0.0,
			"0.016": 0.0,
			"0.017": 0.0,
			"0.018": 0.0,
			"0.019": 0.0,
			"0.02": 0.0,
			"0.021": 0.0,
			"0.022": 0.0,
			"0.023": 0.0,
			"0.024": 0.0,
			"0.025": 0.0
		}
	}
}
