{
	 "smiles": "COC1=CC2=C(OC(C)C(=O)N2)C=C1", 
	 "Tm": 412.15, 
	 "num_atms": 25, 
	 "gaussian": { 
		 "optdone": 1, 
		 "sigma_profile": "yes", 
		 "theory": "DFT", 
		 "functional": "B3LYP", 
		 "basiset": "6-31G**", 
		 "properties": { 
			 "R2extent": 3748.1248, 
			 "electric_dipole_moment_norm": 3.66831941221, 
			 "electric_quadrupole_moment_norm": 8.54733027266, 
			 "total_energy": -668.116175679, 
			 "HOMO_LUMO_gap": 0.1876, 
			 "cosmo_polarized_energy": -12.72, 
			 "cosmo_cavitation_energy": 28.53, 
			 "cosmo_dispersion_energy": -21.08, 
			 "cosmo_repulsion_energy": 1.66, 
			 "cosmo_total_nonelectrostatic_energy": 9.1, 
			 "SMD_solvation_energy": 6.3 
		},
		"coords": [
			{
				"x": -4.7331091276,
				"y": -0.4066793614,
				"z": 0.5181135786,
				"element": "C" 
			},
			{
				"x": -3.5824303683,
				"y": -0.4623238836,
				"z": -0.3084411362,
				"element": "O" 
			},
			{
				"x": -2.4024708975,
				"y": -0.8561893598,
				"z": 0.2586942787,
				"element": "C" 
			},
			{
				"x": -1.3029739976,
				"y": -0.8877836319,
				"z": -0.6113183208,
				"element": "C" 
			},
			{
				"x": -0.0553047636,
				"y": -1.2827823778,
				"z": -0.1406932356,
				"element": "C" 
			},
			{
				"x": 0.1136255239,
				"y": -1.6336064318,
				"z": 1.2105121064,
				"element": "C" 
			},
			{
				"x": 1.3311399401,
				"y": -2.083079148,
				"z": 1.6616920895,
				"element": "O" 
			},
			{
				"x": 2.4868692571,
				"y": -1.5322158556,
				"z": 1.0076483365,
				"element": "C" 
			},
			{
				"x": 2.8265831628,
				"y": -0.1369756875,
				"z": 1.5406064902,
				"element": "C" 
			},
			{
				"x": 2.3528230004,
				"y": -1.510862775,
				"z": -0.5185778777,
				"element": "C" 
			},
			{
				"x": 3.3222403794,
				"y": -1.5660870679,
				"z": -1.2580408851,
				"element": "O" 
			},
			{
				"x": 1.067894347,
				"y": -1.367500315,
				"z": -0.978552124,
				"element": "N" 
			},
			{
				"x": -0.9759058743,
				"y": -1.5900944325,
				"z": 2.0684113433,
				"element": "C" 
			},
			{
				"x": -2.2404088584,
				"y": -1.2110308538,
				"z": 1.6020097512,
				"element": "C" 
			},
			{
				"x": -4.9800698121,
				"y": -1.3910576205,
				"z": 0.9368427435,
				"element": "H" 
			},
			{
				"x": -5.5505578785,
				"y": -0.0755146125,
				"z": -0.1242942379,
				"element": "H" 
			},
			{
				"x": -4.6080848933,
				"y": 0.3100688769,
				"z": 1.3403319618,
				"element": "H" 
			},
			{
				"x": -1.4465282248,
				"y": -0.6074375434,
				"z": -1.650121147,
				"element": "H" 
			},
			{
				"x": 3.2984476372,
				"y": -2.2264690367,
				"z": 1.2356757428,
				"element": "H" 
			},
			{
				"x": 2.0198907709,
				"y": 0.5718385708,
				"z": 1.3297450034,
				"element": "H" 
			},
			{
				"x": 3.743763993,
				"y": 0.2272958031,
				"z": 1.0700451294,
				"element": "H" 
			},
			{
				"x": 2.9747211235,
				"y": -0.1822971894,
				"z": 2.6228163662,
				"element": "H" 
			},
			{
				"x": 0.9594767421,
				"y": -1.2839499215,
				"z": -1.9813076944,
				"element": "H" 
			},
			{
				"x": -0.8299917099,
				"y": -1.8706038217,
				"z": 3.1063022957,
				"element": "H" 
			},
			{
				"x": -3.0744394715,
				"y": -1.1918623232,
				"z": 2.2920994415,
				"element": "H" 
			}
		],
		 "valence_orbital": [ 
			{
				"type": "occ",
				"energy": -0.31424,
				"method": "rhf"
			},
			{
				"type": "occ",
				"energy": -0.2903,
				"method": "rhf"
			},
			{
				"type": "occ",
				"energy": -0.25524,
				"method": "rhf"
			},
			{
				"type": "occ",
				"energy": -0.23371,
				"method": "rhf"
			},
			{
				"type": "occ",
				"energy": -0.20266,
				"method": "rhf"
			},
			{
				"type": "unocc",
				"energy": -0.01506,
				"method": "rhf"
			},
			{
				"type": "unocc",
				"energy": 0.00514,
				"method": "rhf"
			},
			{
				"type": "unocc",
				"energy": 0.03891,
				"method": "rhf"
			},
			{
				"type": "unocc",
				"energy": 0.08077,
				"method": "rhf"
			},
			{
				"type": "unocc",
				"energy": 0.0885,
				"method": "rhf"
			}
		],
		"cosmo_sigma_profile": { 
			"-0.025": 0.0,
			"-0.024": 0.0,
			"-0.023": 0.0,
			"-0.022": 0.0,
			"-0.021": 0.0,
			"-0.02": 0.0,
			"-0.019": 0.0,
			"-0.018": 0.0,
			"-0.017": 0.0,
			"-0.016": 0.354162424241,
			"-0.015": 1.07444484799,
			"-0.014": 1.23135754531,
			"-0.013": 1.23733875864,
			"-0.012": 0.925346226283,
			"-0.011": 1.21127201131,
			"-0.01": 0.973692849166,
			"-0.009": 1.33272243925,
			"-0.008": 1.20519542371,
			"-0.007": 4.24433393413,
			"-0.006": 10.4894379456,
			"-0.005": 17.8859994318,
			"-0.004": 22.7287951972,
			"-0.003": 21.3744772031,
			"-0.002": 17.1427651893,
			"-0.001": 17.7093581035,
			"0.0": 13.1770471644,
			"0.001": 10.0612183433,
			"0.002": 11.7368411685,
			"0.003": 11.381402548,
			"0.004": 16.1780226626,
			"0.005": 9.91761320735,
			"0.006": 4.83675840521,
			"0.007": 3.09120170193,
			"0.008": 3.18216964148,
			"0.009": 4.48072704113,
			"0.01": 4.28882465203,
			"0.011": 2.78372306917,
			"0.012": 3.53966991747,
			"0.013": 5.27197047087,
			"0.014": 0.998276563078,
			"0.015": 0.0,
			"0.016": 0.0,
			"0.017": 0.0,
			"0.018": 0.0,
			"0.019": 0.0,
			"0.02": 0.0,
			"0.021": 0.0,
			"0.022": 0.0,
			"0.023": 0.0,
			"0.024": 0.0,
			"0.025": 0.0
		}
	}
}
