{
	 "smiles": "CC(=O)C1=CC(=CC=C1)S(=O)(=O)NCCC(O)=O", 
	 "Tm": 381.15, 
	 "num_atms": 31, 
	 "gaussian": { 
		 "optdone": 1, 
		 "sigma_profile": "yes", 
		 "theory": "DFT", 
		 "functional": "B3LYP", 
		 "basiset": "6-31G**", 
		 "properties": { 
			 "R2extent": 7226.669, 
			 "electric_dipole_moment_norm": 6.28522667292, 
			 "electric_quadrupole_moment_norm": 26.0828051089, 
			 "total_energy": -1256.00701988, 
			 "HOMO_LUMO_gap": 0.18753, 
			 "cosmo_polarized_energy": -28.06, 
			 "cosmo_cavitation_energy": 37.49, 
			 "cosmo_dispersion_energy": -26.34, 
			 "cosmo_repulsion_energy": 2.03, 
			 "cosmo_total_nonelectrostatic_energy": 13.18, 
			 "SMD_solvation_energy": 6.74 
		},
		"coords": [
			{
				"x": -5.4229815287,
				"y": -0.259207787,
				"z": -0.3825538779,
				"element": "C" 
			},
			{
				"x": -4.8154615384,
				"y": 1.0276169417,
				"z": 0.1439721353,
				"element": "C" 
			},
			{
				"x": -5.4071080373,
				"y": 2.0905816343,
				"z": 0.0418017265,
				"element": "O" 
			},
			{
				"x": -3.463960891,
				"y": 0.9753360639,
				"z": 0.8014240566,
				"element": "C" 
			},
			{
				"x": -2.7238297225,
				"y": -0.2107927434,
				"z": 0.9113320488,
				"element": "C" 
			},
			{
				"x": -1.4775280115,
				"y": -0.1836705521,
				"z": 1.5329238655,
				"element": "C" 
			},
			{
				"x": -0.9521392173,
				"y": 0.9966752064,
				"z": 2.0651889204,
				"element": "C" 
			},
			{
				"x": -1.6905782341,
				"y": 2.1748929531,
				"z": 1.9535108974,
				"element": "C" 
			},
			{
				"x": -2.93421118,
				"y": 2.1641407139,
				"z": 1.3241041323,
				"element": "C" 
			},
			{
				"x": -0.5520946114,
				"y": -1.7151557939,
				"z": 1.7011498887,
				"element": "S" 
			},
			{
				"x": -0.0357051356,
				"y": -1.8121956279,
				"z": 3.0680025039,
				"element": "O" 
			},
			{
				"x": -1.3811957366,
				"y": -2.7788365493,
				"z": 1.117863789,
				"element": "O" 
			},
			{
				"x": 0.8038772201,
				"y": -1.4109169284,
				"z": 0.7412513932,
				"element": "N" 
			},
			{
				"x": 0.7058136377,
				"y": -1.7533570069,
				"z": -0.6846292345,
				"element": "C" 
			},
			{
				"x": 1.8860273191,
				"y": -1.1499748991,
				"z": -1.4486768827,
				"element": "C" 
			},
			{
				"x": 3.2318130569,
				"y": -1.7026340382,
				"z": -0.9943891898,
				"element": "C" 
			},
			{
				"x": 4.3008334727,
				"y": -1.3483735952,
				"z": -1.7460584867,
				"element": "O" 
			},
			{
				"x": 3.3846175043,
				"y": -2.4022208113,
				"z": -0.0204986529,
				"element": "O" 
			},
			{
				"x": -5.538902589,
				"y": -0.9961630627,
				"z": 0.4197328687,
				"element": "H" 
			},
			{
				"x": -4.7839124868,
				"y": -0.7121017038,
				"z": -1.1487368668,
				"element": "H" 
			},
			{
				"x": -6.3988882599,
				"y": -0.0341410171,
				"z": -0.8130531915,
				"element": "H" 
			},
			{
				"x": -3.0959323221,
				"y": -1.1560388943,
				"z": 0.5335770627,
				"element": "H" 
			},
			{
				"x": 0.0131343367,
				"y": 0.9855193553,
				"z": 2.5600643224,
				"element": "H" 
			},
			{
				"x": -1.2958293521,
				"y": 3.0996847606,
				"z": 2.36295852,
				"element": "H" 
			},
			{
				"x": -3.5246420476,
				"y": 3.0691797678,
				"z": 1.2273452443,
				"element": "H" 
			},
			{
				"x": 1.6119420054,
				"y": -1.8590447164,
				"z": 1.1759997941,
				"element": "H" 
			},
			{
				"x": 0.6642736881,
				"y": -2.8370644802,
				"z": -0.8442927553,
				"element": "H" 
			},
			{
				"x": -0.2212922326,
				"y": -1.327368533,
				"z": -1.0782496002,
				"element": "H" 
			},
			{
				"x": 1.7619418755,
				"y": -1.3420210783,
				"z": -2.5224805038,
				"element": "H" 
			},
			{
				"x": 1.9012407989,
				"y": -0.0604206478,
				"z": -1.3149214194,
				"element": "H" 
			},
			{
				"x": 4.025878219,
				"y": -0.7978269307,
				"z": -2.4931625084,
				"element": "H" 
			}
		],
		 "valence_orbital": [ 
			{
				"type": "occ",
				"energy": -0.29537,
				"method": "rhf"
			},
			{
				"type": "occ",
				"energy": -0.29202,
				"method": "rhf"
			},
			{
				"type": "occ",
				"energy": -0.28165,
				"method": "rhf"
			},
			{
				"type": "occ",
				"energy": -0.26707,
				"method": "rhf"
			},
			{
				"type": "occ",
				"energy": -0.26033,
				"method": "rhf"
			},
			{
				"type": "unocc",
				"energy": -0.0728,
				"method": "rhf"
			},
			{
				"type": "unocc",
				"energy": -0.04164,
				"method": "rhf"
			},
			{
				"type": "unocc",
				"energy": -0.01371,
				"method": "rhf"
			},
			{
				"type": "unocc",
				"energy": 0.01573,
				"method": "rhf"
			},
			{
				"type": "unocc",
				"energy": 0.03393,
				"method": "rhf"
			}
		],
		"cosmo_sigma_profile": { 
			"-0.025": 0.0,
			"-0.024": 0.0,
			"-0.023": 0.0,
			"-0.022": 0.0,
			"-0.021": 0.0,
			"-0.02": 0.153500052598,
			"-0.019": 1.02588148187,
			"-0.018": 1.30534078017,
			"-0.017": 1.14549040674,
			"-0.016": 1.04061763194,
			"-0.015": 1.33385973289,
			"-0.014": 1.12355396201,
			"-0.013": 0.998489618628,
			"-0.012": 1.24740574761,
			"-0.011": 1.2805382388,
			"-0.01": 1.59070437046,
			"-0.009": 2.24715518525,
			"-0.008": 7.68706336997,
			"-0.007": 16.2596056858,
			"-0.006": 23.1027120891,
			"-0.005": 21.2093845933,
			"-0.004": 19.7913186827,
			"-0.003": 17.1237369233,
			"-0.002": 16.0825489218,
			"-0.001": 18.451963539,
			"0.0": 17.8539925737,
			"0.001": 21.3966596055,
			"0.002": 13.8763747793,
			"0.003": 6.66290310006,
			"0.004": 6.27576038841,
			"0.005": 6.83952894822,
			"0.006": 7.49380762556,
			"0.007": 6.7773344502,
			"0.008": 7.89045718037,
			"0.009": 8.48368968678,
			"0.01": 15.1779232212,
			"0.011": 16.029907578,
			"0.012": 7.44757786411,
			"0.013": 1.27712194077,
			"0.014": 0.0,
			"0.015": 0.0,
			"0.016": 0.0,
			"0.017": 0.0,
			"0.018": 0.0,
			"0.019": 0.0,
			"0.02": 0.0,
			"0.021": 0.0,
			"0.022": 0.0,
			"0.023": 0.0,
			"0.024": 0.0,
			"0.025": 0.0
		}
	}
}
