{
	 "smiles": "OC(=O)C1CCCCN1S(=O)(=O)C1=CC=CS1", 
	 "Tm": 381.15, 
	 "num_atms": 30, 
	 "gaussian": { 
		 "optdone": 1, 
		 "sigma_profile": "yes", 
		 "theory": "DFT", 
		 "functional": "B3LYP", 
		 "basiset": "6-31G**", 
		 "properties": { 
			 "R2extent": 4773.2314, 
			 "electric_dipole_moment_norm": 7.89935260512, 
			 "electric_quadrupole_moment_norm": 11.291090376, 
			 "total_energy": -1540.83791334, 
			 "HOMO_LUMO_gap": 0.18225, 
			 "cosmo_polarized_energy": -16.83, 
			 "cosmo_cavitation_energy": 34.27, 
			 "cosmo_dispersion_energy": -25.15, 
			 "cosmo_repulsion_energy": 1.84, 
			 "cosmo_total_nonelectrostatic_energy": 10.96, 
			 "SMD_solvation_energy": 4.87 
		},
		"coords": [
			{
				"x": 2.9096169437,
				"y": 1.6557480183,
				"z": -1.7327719598,
				"element": "O" 
			},
			{
				"x": 2.8658787632,
				"y": 0.3823867418,
				"z": -2.1600819594,
				"element": "C" 
			},
			{
				"x": 3.4489611719,
				"y": 0.0553966241,
				"z": -3.1682137053,
				"element": "O" 
			},
			{
				"x": 2.0838625799,
				"y": -0.6531892148,
				"z": -1.2998086831,
				"element": "C" 
			},
			{
				"x": 1.6508369085,
				"y": -1.8836488522,
				"z": -2.1290260827,
				"element": "C" 
			},
			{
				"x": 0.1966300826,
				"y": -1.7473323972,
				"z": -2.632891253,
				"element": "C" 
			},
			{
				"x": -0.1593160457,
				"y": -0.2740892403,
				"z": -2.8645166241,
				"element": "C" 
			},
			{
				"x": -0.1240089337,
				"y": 0.5133001024,
				"z": -1.537801724,
				"element": "C" 
			},
			{
				"x": 0.8846118928,
				"y": -0.0975985939,
				"z": -0.6352708899,
				"element": "N" 
			},
			{
				"x": 1.112456459,
				"y": 0.6180332853,
				"z": 0.865008385,
				"element": "S" 
			},
			{
				"x": 2.0602032853,
				"y": -0.2204990959,
				"z": 1.600179592,
				"element": "O" 
			},
			{
				"x": 1.4085490822,
				"y": 2.0593580852,
				"z": 0.6851400369,
				"element": "O" 
			},
			{
				"x": -0.4849441057,
				"y": 0.5289962839,
				"z": 1.6044554108,
				"element": "C" 
			},
			{
				"x": -1.2661191908,
				"y": 1.6130334698,
				"z": 1.9222239441,
				"element": "C" 
			},
			{
				"x": -2.4679516957,
				"y": 1.2297327224,
				"z": 2.5802234248,
				"element": "C" 
			},
			{
				"x": -2.5647409079,
				"y": -0.1274376575,
				"z": 2.7486580242,
				"element": "C" 
			},
			{
				"x": -1.1952016547,
				"y": -0.9746505496,
				"z": 2.119007039,
				"element": "S" 
			},
			{
				"x": 2.4336626824,
				"y": 1.8289905045,
				"z": -0.8947076881,
				"element": "H" 
			},
			{
				"x": 2.7726763803,
				"y": -0.9665659611,
				"z": -0.5094057192,
				"element": "H" 
			},
			{
				"x": 2.3475907743,
				"y": -1.9694776774,
				"z": -2.9655444649,
				"element": "H" 
			},
			{
				"x": 1.75068438,
				"y": -2.7832672437,
				"z": -1.5152742418,
				"element": "H" 
			},
			{
				"x": -0.4963951196,
				"y": -2.1721077763,
				"z": -1.8971123685,
				"element": "H" 
			},
			{
				"x": 0.0668509785,
				"y": -2.3193367752,
				"z": -3.5569067219,
				"element": "H" 
			},
			{
				"x": 0.5448873557,
				"y": 0.1629780653,
				"z": -3.5806736409,
				"element": "H" 
			},
			{
				"x": -1.1569329924,
				"y": -0.1682110408,
				"z": -3.3025971642,
				"element": "H" 
			},
			{
				"x": 0.0913040909,
				"y": 1.5739274467,
				"z": -1.7194912826,
				"element": "H" 
			},
			{
				"x": -1.092455247,
				"y": 0.446354346,
				"z": -1.0335558157,
				"element": "H" 
			},
			{
				"x": -0.9727215206,
				"y": 2.629909774,
				"z": 1.6931519986,
				"element": "H" 
			},
			{
				"x": -3.2241016825,
				"y": 1.9299110418,
				"z": 2.9145238187,
				"element": "H" 
			},
			{
				"x": -3.3664747148,
				"y": -0.6857444357,
				"z": 3.2134803152,
				"element": "H" 
			}
		],
		 "valence_orbital": [ 
			{
				"type": "occ",
				"energy": -0.30656,
				"method": "rhf"
			},
			{
				"type": "occ",
				"energy": -0.28782,
				"method": "rhf"
			},
			{
				"type": "occ",
				"energy": -0.28668,
				"method": "rhf"
			},
			{
				"type": "occ",
				"energy": -0.27651,
				"method": "rhf"
			},
			{
				"type": "occ",
				"energy": -0.24878,
				"method": "rhf"
			},
			{
				"type": "unocc",
				"energy": -0.06653,
				"method": "rhf"
			},
			{
				"type": "unocc",
				"energy": -0.00281,
				"method": "rhf"
			},
			{
				"type": "unocc",
				"energy": 0.00878,
				"method": "rhf"
			},
			{
				"type": "unocc",
				"energy": 0.02329,
				"method": "rhf"
			},
			{
				"type": "unocc",
				"energy": 0.03422,
				"method": "rhf"
			}
		],
		"cosmo_sigma_profile": { 
			"-0.025": 0.0,
			"-0.024": 0.0,
			"-0.023": 0.0,
			"-0.022": 0.0,
			"-0.021": 0.0,
			"-0.02": 0.0,
			"-0.019": 0.0,
			"-0.018": 0.0,
			"-0.017": 0.0,
			"-0.016": 0.0,
			"-0.015": 0.0,
			"-0.014": 0.0,
			"-0.013": 0.00334303306281,
			"-0.012": 0.148661037388,
			"-0.011": 0.490340110981,
			"-0.01": 2.61479070759,
			"-0.009": 3.95787771581,
			"-0.008": 6.69899731712,
			"-0.007": 7.77386279361,
			"-0.006": 8.06035534689,
			"-0.005": 16.3033613171,
			"-0.004": 21.3349758337,
			"-0.003": 27.3255178201,
			"-0.002": 27.8232675061,
			"-0.001": 26.4934423739,
			"0.0": 24.4197159077,
			"0.001": 18.5645068398,
			"0.002": 15.3645404888,
			"0.003": 9.23261206739,
			"0.004": 5.56119857154,
			"0.005": 4.40427095794,
			"0.006": 4.4181692602,
			"0.007": 5.33869630223,
			"0.008": 6.19345201826,
			"0.009": 8.8291924793,
			"0.01": 9.79463390353,
			"0.011": 7.37692722938,
			"0.012": 3.71169254755,
			"0.013": 1.4652993415,
			"0.014": 0.033460563529,
			"0.015": 0.0,
			"0.016": 0.0,
			"0.017": 0.0,
			"0.018": 0.0,
			"0.019": 0.0,
			"0.02": 0.0,
			"0.021": 0.0,
			"0.022": 0.0,
			"0.023": 0.0,
			"0.024": 0.0,
			"0.025": 0.0
		}
	}
}
