{
	 "smiles": "CC1=CC=CC(C)=C1OCCC(O)=O", 
	 "Tm": 325.15, 
	 "num_atms": 28, 
	 "gaussian": { 
		 "optdone": 1, 
		 "sigma_profile": "yes", 
		 "theory": "DFT", 
		 "functional": "B3LYP", 
		 "basiset": "6-31G**", 
		 "properties": { 
			 "R2extent": 3770.757, 
			 "electric_dipole_moment_norm": 2.41512797383, 
			 "electric_quadrupole_moment_norm": 15.9136459942, 
			 "total_energy": -653.297591433, 
			 "HOMO_LUMO_gap": 0.23308, 
			 "cosmo_polarized_energy": -11.99, 
			 "cosmo_cavitation_energy": 31.2, 
			 "cosmo_dispersion_energy": -21.63, 
			 "cosmo_repulsion_energy": 1.71, 
			 "cosmo_total_nonelectrostatic_energy": 11.28, 
			 "SMD_solvation_energy": 6.57 
		},
		"coords": [
			{
				"x": 2.4937162756,
				"y": 1.6552795676,
				"z": 0.2511087224,
				"element": "C" 
			},
			{
				"x": 1.6819454741,
				"y": 0.4128826222,
				"z": -0.0276733087,
				"element": "C" 
			},
			{
				"x": 2.2872802646,
				"y": -0.7463905559,
				"z": -0.5298006966,
				"element": "C" 
			},
			{
				"x": 1.544079498,
				"y": -1.9015904633,
				"z": -0.7616756422,
				"element": "C" 
			},
			{
				"x": 0.1791974275,
				"y": -1.9195084581,
				"z": -0.4745536974,
				"element": "C" 
			},
			{
				"x": -0.4652414616,
				"y": -0.7850946027,
				"z": 0.0304433602,
				"element": "C" 
			},
			{
				"x": -1.930473025,
				"y": -0.8078389153,
				"z": 0.3921032226,
				"element": "C" 
			},
			{
				"x": 0.3021224691,
				"y": 0.3749855394,
				"z": 0.2310212822,
				"element": "C" 
			},
			{
				"x": -0.3274178779,
				"y": 1.4918564845,
				"z": 0.7682571792,
				"element": "O" 
			},
			{
				"x": -0.7231352017,
				"y": 2.4812979092,
				"z": -0.1856247043,
				"element": "C" 
			},
			{
				"x": -1.4668123843,
				"y": 3.5774167316,
				"z": 0.5687786938,
				"element": "C" 
			},
			{
				"x": -2.7443597203,
				"y": 3.1093424576,
				"z": 1.2354627817,
				"element": "C" 
			},
			{
				"x": -3.5443422627,
				"y": 2.4257847494,
				"z": 0.3746768957,
				"element": "O" 
			},
			{
				"x": -3.06455138,
				"y": 3.3306877513,
				"z": 2.3799161828,
				"element": "O" 
			},
			{
				"x": 2.09571217,
				"y": 2.1974623214,
				"z": 1.112775577,
				"element": "H" 
			},
			{
				"x": 2.4917210612,
				"y": 2.3462532512,
				"z": -0.6017574779,
				"element": "H" 
			},
			{
				"x": 3.5374670121,
				"y": 1.3985734517,
				"z": 0.4530765746,
				"element": "H" 
			},
			{
				"x": 3.3557766918,
				"y": -0.7380622615,
				"z": -0.7305859464,
				"element": "H" 
			},
			{
				"x": 2.0297482299,
				"y": -2.7919773523,
				"z": -1.1504914786,
				"element": "H" 
			},
			{
				"x": -0.3982217433,
				"y": -2.8260853162,
				"z": -0.6368359056,
				"element": "H" 
			},
			{
				"x": -2.0695557638,
				"y": -0.6440806902,
				"z": 1.4665380461,
				"element": "H" 
			},
			{
				"x": -2.4956256157,
				"y": -0.0212371716,
				"z": -0.1170999484,
				"element": "H" 
			},
			{
				"x": -2.3760968901,
				"y": -1.772371147,
				"z": 0.1340617216,
				"element": "H" 
			},
			{
				"x": -1.3666728288,
				"y": 2.0352596549,
				"z": -0.9534159202,
				"element": "H" 
			},
			{
				"x": 0.155953254,
				"y": 2.9096933496,
				"z": -0.6847696637,
				"element": "H" 
			},
			{
				"x": -0.8326134236,
				"y": 4.0078025866,
				"z": 1.3461224884,
				"element": "H" 
			},
			{
				"x": -1.7295718327,
				"y": 4.3721116731,
				"z": -0.1406837307,
				"element": "H" 
			},
			{
				"x": -4.3314284165,
				"y": 2.1733468329,
				"z": 0.8859253925,
				"element": "H" 
			}
		],
		 "valence_orbital": [ 
			{
				"type": "occ",
				"energy": -0.31995,
				"method": "rhf"
			},
			{
				"type": "occ",
				"energy": -0.27865,
				"method": "rhf"
			},
			{
				"type": "occ",
				"energy": -0.26983,
				"method": "rhf"
			},
			{
				"type": "occ",
				"energy": -0.23482,
				"method": "rhf"
			},
			{
				"type": "occ",
				"energy": -0.2302,
				"method": "rhf"
			},
			{
				"type": "unocc",
				"energy": 0.00288,
				"method": "rhf"
			},
			{
				"type": "unocc",
				"energy": 0.00525,
				"method": "rhf"
			},
			{
				"type": "unocc",
				"energy": 0.00961,
				"method": "rhf"
			},
			{
				"type": "unocc",
				"energy": 0.0667,
				"method": "rhf"
			},
			{
				"type": "unocc",
				"energy": 0.09375,
				"method": "rhf"
			}
		],
		"cosmo_sigma_profile": { 
			"-0.025": 0.0,
			"-0.024": 0.0,
			"-0.023": 0.0,
			"-0.022": 0.0,
			"-0.021": 0.0,
			"-0.02": 0.0,
			"-0.019": 0.0,
			"-0.018": 0.531114445862,
			"-0.017": 1.07056803988,
			"-0.016": 0.599216914834,
			"-0.015": 1.03504029759,
			"-0.014": 0.472414099595,
			"-0.013": 0.799444862223,
			"-0.012": 0.472995223747,
			"-0.011": 1.001707828,
			"-0.01": 0.575708169168,
			"-0.009": 0.642821048335,
			"-0.008": 1.41920706111,
			"-0.007": 3.9754152394,
			"-0.006": 5.13534835665,
			"-0.005": 15.5848518907,
			"-0.004": 24.527885769,
			"-0.003": 25.2078695813,
			"-0.002": 19.3488557567,
			"-0.001": 21.2914637504,
			"0.0": 23.4630640242,
			"0.001": 17.119787617,
			"0.002": 11.391422781,
			"0.003": 11.9113144421,
			"0.004": 11.110791372,
			"0.005": 11.5448526322,
			"0.006": 11.0436872828,
			"0.007": 5.24535066057,
			"0.008": 3.6074410957,
			"0.009": 2.60782976133,
			"0.01": 2.65226596016,
			"0.011": 4.95159173535,
			"0.012": 4.32897202083,
			"0.013": 0.893663456106,
			"0.014": 0.0,
			"0.015": 0.0,
			"0.016": 0.0,
			"0.017": 0.0,
			"0.018": 0.0,
			"0.019": 0.0,
			"0.02": 0.0,
			"0.021": 0.0,
			"0.022": 0.0,
			"0.023": 0.0,
			"0.024": 0.0,
			"0.025": 0.0
		}
	}
}
