{
	 "smiles": "CCCC(=O)NN", 
	 "Tm": 317.95, 
	 "num_atms": 17, 
	 "gaussian": { 
		 "optdone": 1, 
		 "sigma_profile": "yes", 
		 "theory": "DFT", 
		 "functional": "B3LYP", 
		 "basiset": "6-31G**", 
		 "properties": { 
			 "R2extent": 1410.1406, 
			 "electric_dipole_moment_norm": 2.19226963214, 
			 "electric_quadrupole_moment_norm": 5.08845717679, 
			 "total_energy": -343.170930652, 
			 "HOMO_LUMO_gap": 0.27648, 
			 "cosmo_polarized_energy": -11.3, 
			 "cosmo_cavitation_energy": 20.08, 
			 "cosmo_dispersion_energy": -14.6, 
			 "cosmo_repulsion_energy": 1.28, 
			 "cosmo_total_nonelectrostatic_energy": 6.76, 
			 "SMD_solvation_energy": 4.49 
		},
		"coords": [
			{
				"x": 1.1813186863,
				"y": -0.5775296918,
				"z": 0.2533728061,
				"element": "C" 
			},
			{
				"x": 0.8730319268,
				"y": 0.409011273,
				"z": 1.3837040236,
				"element": "C" 
			},
			{
				"x": -0.5046364327,
				"y": 1.0743383645,
				"z": 1.2548001652,
				"element": "C" 
			},
			{
				"x": -0.575082081,
				"y": 2.0241481371,
				"z": 0.0630815038,
				"element": "C" 
			},
			{
				"x": 0.3480225869,
				"y": 2.7637199431,
				"z": -0.2604349684,
				"element": "O" 
			},
			{
				"x": -1.7643310125,
				"y": 2.0254729288,
				"z": -0.6158667373,
				"element": "N" 
			},
			{
				"x": -1.9436149757,
				"y": 2.7895052611,
				"z": -1.7870343263,
				"element": "N" 
			},
			{
				"x": 2.1641937422,
				"y": -1.0389801107,
				"z": 0.3916426225,
				"element": "H" 
			},
			{
				"x": 1.1883969478,
				"y": -0.0722523806,
				"z": -0.7179356438,
				"element": "H" 
			},
			{
				"x": 0.4393160017,
				"y": -1.3839163482,
				"z": 0.2111926823,
				"element": "H" 
			},
			{
				"x": 1.6285735062,
				"y": 1.2010108138,
				"z": 1.3974534105,
				"element": "H" 
			},
			{
				"x": 0.9250017865,
				"y": -0.1050008878,
				"z": 2.3507577839,
				"element": "H" 
			},
			{
				"x": -0.7077245525,
				"y": 1.6763218401,
				"z": 2.1498888455,
				"element": "H" 
			},
			{
				"x": -1.2992966559,
				"y": 0.3188192871,
				"z": 1.1990629198,
				"element": "H" 
			},
			{
				"x": -2.4361635215,
				"y": 1.2839555396,
				"z": -0.4856554068,
				"element": "H" 
			},
			{
				"x": -2.0566919866,
				"y": 3.7622868036,
				"z": -1.5020627141,
				"element": "H" 
			},
			{
				"x": -1.0560139659,
				"y": 2.7640892274,
				"z": -2.2909669666,
				"element": "H" 
			}
		],
		 "valence_orbital": [ 
			{
				"type": "occ",
				"energy": -0.33618,
				"method": "rhf"
			},
			{
				"type": "occ",
				"energy": -0.33508,
				"method": "rhf"
			},
			{
				"type": "occ",
				"energy": -0.28335,
				"method": "rhf"
			},
			{
				"type": "occ",
				"energy": -0.25428,
				"method": "rhf"
			},
			{
				"type": "occ",
				"energy": -0.25105,
				"method": "rhf"
			},
			{
				"type": "unocc",
				"energy": 0.02543,
				"method": "rhf"
			},
			{
				"type": "unocc",
				"energy": 0.07731,
				"method": "rhf"
			},
			{
				"type": "unocc",
				"energy": 0.08854,
				"method": "rhf"
			},
			{
				"type": "unocc",
				"energy": 0.11553,
				"method": "rhf"
			},
			{
				"type": "unocc",
				"energy": 0.139,
				"method": "rhf"
			}
		],
		"cosmo_sigma_profile": { 
			"-0.025": 0.0,
			"-0.024": 0.0,
			"-0.023": 0.0,
			"-0.022": 0.0,
			"-0.021": 0.0,
			"-0.02": 0.0,
			"-0.019": 0.0,
			"-0.018": 0.0,
			"-0.017": 0.0,
			"-0.016": 0.0,
			"-0.015": 0.00662996830801,
			"-0.014": 0.940045188596,
			"-0.013": 1.0133886166,
			"-0.012": 1.46426851205,
			"-0.011": 2.51352205744,
			"-0.01": 3.54250133644,
			"-0.009": 3.56752743989,
			"-0.008": 2.76673181418,
			"-0.007": 3.6711957685,
			"-0.006": 3.20071165801,
			"-0.005": 5.66416337546,
			"-0.004": 5.96477570968,
			"-0.003": 12.572343898,
			"-0.002": 17.9633362641,
			"-0.001": 18.996513162,
			"0.0": 14.9449939857,
			"0.001": 15.5282726448,
			"0.002": 7.06286391624,
			"0.003": 3.34337075716,
			"0.004": 2.22995232803,
			"0.005": 3.02870608072,
			"0.006": 1.85168619738,
			"0.007": 2.61001428595,
			"0.008": 2.07610462103,
			"0.009": 1.23205304159,
			"0.01": 1.73321683477,
			"0.011": 2.5381550544,
			"0.012": 2.80450783239,
			"0.013": 2.92988342125,
			"0.014": 5.47639818136,
			"0.015": 1.21107531496,
			"0.016": 0.794308541669,
			"0.017": 0.29642875335,
			"0.018": 0.0,
			"0.019": 0.0,
			"0.02": 0.0,
			"0.021": 0.0,
			"0.022": 0.0,
			"0.023": 0.0,
			"0.024": 0.0,
			"0.025": 0.0
		}
	}
}
