{
	 "smiles": "OCCCCCCCCCCCl", 
	 "Tm": 285.65, 
	 "num_atms": 33, 
	 "gaussian": { 
		 "optdone": 1, 
		 "sigma_profile": "yes", 
		 "theory": "DFT", 
		 "functional": "B3LYP", 
		 "basiset": "6-31G**", 
		 "properties": { 
			 "R2extent": 4916.4195, 
			 "electric_dipole_moment_norm": 3.59033738526, 
			 "electric_quadrupole_moment_norm": 8.6497223389, 
			 "total_energy": -929.148450622, 
			 "HOMO_LUMO_gap": 0.29727, 
			 "cosmo_polarized_energy": -8.3, 
			 "cosmo_cavitation_energy": 34.61, 
			 "cosmo_dispersion_energy": -24.44, 
			 "cosmo_repulsion_energy": 2.04, 
			 "cosmo_total_nonelectrostatic_energy": 12.21, 
			 "SMD_solvation_energy": 4.7 
		},
		"coords": [
			{
				"x": -1.3728834989,
				"y": 1.1796052907,
				"z": 3.8692814168,
				"element": "O" 
			},
			{
				"x": -0.1761371196,
				"y": 1.3151494404,
				"z": 4.6314683447,
				"element": "C" 
			},
			{
				"x": 1.0109493116,
				"y": 1.5121438063,
				"z": 3.6933751965,
				"element": "C" 
			},
			{
				"x": 1.0579175849,
				"y": 2.8563949354,
				"z": 2.9445134166,
				"element": "C" 
			},
			{
				"x": 0.0582306406,
				"y": 3.0583023608,
				"z": 1.7892548405,
				"element": "C" 
			},
			{
				"x": 0.2465521867,
				"y": 2.0955454314,
				"z": 0.5890676266,
				"element": "C" 
			},
			{
				"x": -0.809792629,
				"y": 0.9812307785,
				"z": 0.4969756131,
				"element": "C" 
			},
			{
				"x": -0.6321137195,
				"y": 0.0309613343,
				"z": -0.6990730483,
				"element": "C" 
			},
			{
				"x": 0.6060085571,
				"y": -0.8744912963,
				"z": -0.5944771493,
				"element": "C" 
			},
			{
				"x": 0.733086058,
				"y": -1.9791942041,
				"z": -1.6583943998,
				"element": "C" 
			},
			{
				"x": 1.1668291476,
				"y": -1.5486176367,
				"z": -3.0572892167,
				"element": "C" 
			},
			{
				"x": -0.1557133499,
				"y": -0.7783278423,
				"z": -4.0533979936,
				"element": "Cl" 
			},
			{
				"x": -2.1115322016,
				"y": 1.0728383772,
				"z": 4.4811473924,
				"element": "H" 
			},
			{
				"x": -0.2433670124,
				"y": 2.1734151966,
				"z": 5.3211755061,
				"element": "H" 
			},
			{
				"x": -0.0045902332,
				"y": 0.4162433868,
				"z": 5.2459474088,
				"element": "H" 
			},
			{
				"x": 1.0434741505,
				"y": 0.6733370614,
				"z": 2.9873774272,
				"element": "H" 
			},
			{
				"x": 1.9160631557,
				"y": 1.4272901951,
				"z": 4.3096583089,
				"element": "H" 
			},
			{
				"x": 0.9216794684,
				"y": 3.6644576278,
				"z": 3.6775803569,
				"element": "H" 
			},
			{
				"x": 2.0733036821,
				"y": 2.985565065,
				"z": 2.5446459549,
				"element": "H" 
			},
			{
				"x": -0.9629262565,
				"y": 2.973121915,
				"z": 2.1736881619,
				"element": "H" 
			},
			{
				"x": 0.1748861826,
				"y": 4.0922920094,
				"z": 1.4410138111,
				"element": "H" 
			},
			{
				"x": 1.2536582695,
				"y": 1.6585728366,
				"z": 0.630916485,
				"element": "H" 
			},
			{
				"x": 0.2162204368,
				"y": 2.6683841216,
				"z": -0.3474257925,
				"element": "H" 
			},
			{
				"x": -0.8340946417,
				"y": 0.4093837096,
				"z": 1.4325146896,
				"element": "H" 
			},
			{
				"x": -1.7973655511,
				"y": 1.4555924194,
				"z": 0.4211691448,
				"element": "H" 
			},
			{
				"x": -1.5223836336,
				"y": -0.6074144995,
				"z": -0.7790886598,
				"element": "H" 
			},
			{
				"x": -0.5963754516,
				"y": 0.6119807744,
				"z": -1.6275409198,
				"element": "H" 
			},
			{
				"x": 0.5880279971,
				"y": -1.3656233187,
				"z": 0.3884332973,
				"element": "H" 
			},
			{
				"x": 1.5221868652,
				"y": -0.268806354,
				"z": -0.6081971778,
				"element": "H" 
			},
			{
				"x": -0.1971143627,
				"y": -2.5558676964,
				"z": -1.7286267338,
				"element": "H" 
			},
			{
				"x": 1.5059212784,
				"y": -2.6866131989,
				"z": -1.3241790208,
				"element": "H" 
			},
			{
				"x": 1.4930215141,
				"y": -2.4075020536,
				"z": -3.645617031,
				"element": "H" 
			},
			{
				"x": 1.9777731744,
				"y": -0.8177499733,
				"z": -3.0216972561,
				"element": "H" 
			}
		],
		 "valence_orbital": [ 
			{
				"type": "occ",
				"energy": -0.29549,
				"method": "rhf"
			},
			{
				"type": "occ",
				"energy": -0.29295,
				"method": "rhf"
			},
			{
				"type": "occ",
				"energy": -0.28566,
				"method": "rhf"
			},
			{
				"type": "occ",
				"energy": -0.27818,
				"method": "rhf"
			},
			{
				"type": "occ",
				"energy": -0.26485,
				"method": "rhf"
			},
			{
				"type": "unocc",
				"energy": 0.03242,
				"method": "rhf"
			},
			{
				"type": "unocc",
				"energy": 0.07072,
				"method": "rhf"
			},
			{
				"type": "unocc",
				"energy": 0.08527,
				"method": "rhf"
			},
			{
				"type": "unocc",
				"energy": 0.10048,
				"method": "rhf"
			},
			{
				"type": "unocc",
				"energy": 0.11308,
				"method": "rhf"
			}
		],
		"cosmo_sigma_profile": { 
			"-0.025": 0.0,
			"-0.024": 0.0,
			"-0.023": 0.0,
			"-0.022": 0.0,
			"-0.021": 0.0,
			"-0.02": 0.0,
			"-0.019": 0.0,
			"-0.018": 0.0,
			"-0.017": 0.0,
			"-0.016": 0.149730858106,
			"-0.015": 1.08096668283,
			"-0.014": 0.873481152826,
			"-0.013": 1.09544374754,
			"-0.012": 0.75110238556,
			"-0.011": 1.01092704204,
			"-0.01": 0.496476230712,
			"-0.009": 0.183751960785,
			"-0.008": 0.867877227833,
			"-0.007": 1.98432011635,
			"-0.006": 5.21882356064,
			"-0.005": 7.84683570982,
			"-0.004": 9.979471095,
			"-0.003": 18.6268442163,
			"-0.002": 32.6609812259,
			"-0.001": 42.0182856894,
			"0.0": 41.8635846112,
			"0.001": 32.9333834041,
			"0.002": 17.0703371293,
			"0.003": 7.6958460236,
			"0.004": 7.60615792354,
			"0.005": 8.62311866949,
			"0.006": 8.22549724732,
			"0.007": 9.47398398583,
			"0.008": 2.94641908516,
			"0.009": 2.50504469234,
			"0.01": 2.66127357919,
			"0.011": 1.12031435741,
			"0.012": 0.271055198725,
			"0.013": 0.0,
			"0.014": 0.0,
			"0.015": 0.0,
			"0.016": 0.0,
			"0.017": 0.0,
			"0.018": 0.0,
			"0.019": 0.0,
			"0.02": 0.0,
			"0.021": 0.0,
			"0.022": 0.0,
			"0.023": 0.0,
			"0.024": 0.0,
			"0.025": 0.0
		}
	}
}
