{
	 "smiles": "CCC1N(O)C(C)(C)N=C1C=NC(C)(C)C", 
	 "Tm": 377.15, 
	 "num_atms": 39, 
	 "gaussian": { 
		 "optdone": 1, 
		 "sigma_profile": "yes", 
		 "theory": "DFT", 
		 "functional": "B3LYP", 
		 "basiset": "6-31G**", 
		 "properties": { 
			 "R2extent": 5196.5993, 
			 "electric_dipole_moment_norm": 0.866983771474, 
			 "electric_quadrupole_moment_norm": 9.67629921664, 
			 "total_energy": -710.559239659, 
			 "HOMO_LUMO_gap": 0.17096, 
			 "cosmo_polarized_energy": -9.14, 
			 "cosmo_cavitation_energy": 39.6, 
			 "cosmo_dispersion_energy": -25.88, 
			 "cosmo_repulsion_energy": 2.05, 
			 "cosmo_total_nonelectrostatic_energy": 15.77, 
			 "SMD_solvation_energy": 3.88 
		},
		"coords": [
			{
				"x": 2.7368578546,
				"y": 1.2452375221,
				"z": 1.5660759851,
				"element": "C" 
			},
			{
				"x": 1.3916623776,
				"y": 1.8056260605,
				"z": 2.0341532714,
				"element": "C" 
			},
			{
				"x": 0.3061978561,
				"y": 0.7415299948,
				"z": 2.2578763901,
				"element": "C" 
			},
			{
				"x": 0.6906988997,
				"y": -0.2250801522,
				"z": 3.3036053061,
				"element": "N" 
			},
			{
				"x": 0.2515890194,
				"y": 0.2538697703,
				"z": 4.5829428069,
				"element": "O" 
			},
			{
				"x": 0.0451154743,
				"y": -1.5309052222,
				"z": 2.9530801764,
				"element": "C" 
			},
			{
				"x": 0.9861788083,
				"y": -2.6796590544,
				"z": 3.3224672833,
				"element": "C" 
			},
			{
				"x": -1.3452209894,
				"y": -1.7217868979,
				"z": 3.5840513218,
				"element": "C" 
			},
			{
				"x": -0.120614437,
				"y": -1.4546266438,
				"z": 1.4977221395,
				"element": "N" 
			},
			{
				"x": 0.0092604213,
				"y": -0.2307238207,
				"z": 1.1303507334,
				"element": "C" 
			},
			{
				"x": -0.2239691364,
				"y": 0.1197242552,
				"z": -0.281645257,
				"element": "C" 
			},
			{
				"x": -0.2342251306,
				"y": 1.3318221891,
				"z": -0.6741412729,
				"element": "N" 
			},
			{
				"x": -0.5039558582,
				"y": 1.6878528312,
				"z": -2.0774172413,
				"element": "C" 
			},
			{
				"x": -1.7356336722,
				"y": 2.6160244028,
				"z": -2.0428590024,
				"element": "C" 
			},
			{
				"x": -0.7641453326,
				"y": 0.5076571061,
				"z": -3.0296449371,
				"element": "C" 
			},
			{
				"x": 0.7290849047,
				"y": 2.4832281022,
				"z": -2.5531650814,
				"element": "C" 
			},
			{
				"x": 2.6576947803,
				"y": 0.8060077769,
				"z": 0.5658168911,
				"element": "H" 
			},
			{
				"x": 3.4930087476,
				"y": 2.0355794113,
				"z": 1.5198042752,
				"element": "H" 
			},
			{
				"x": 3.0937975714,
				"y": 0.468324297,
				"z": 2.2483404689,
				"element": "H" 
			},
			{
				"x": 1.5176512447,
				"y": 2.3301607215,
				"z": 2.9901026317,
				"element": "H" 
			},
			{
				"x": 1.009989593,
				"y": 2.5325859901,
				"z": 1.3123151871,
				"element": "H" 
			},
			{
				"x": -0.6300028788,
				"y": 1.2566025762,
				"z": 2.5348289957,
				"element": "H" 
			},
			{
				"x": 1.0764439023,
				"y": 0.3030862607,
				"z": 5.0836978753,
				"element": "H" 
			},
			{
				"x": 1.1567868127,
				"y": -2.6857403254,
				"z": 4.4039304314,
				"element": "H" 
			},
			{
				"x": 0.5570071927,
				"y": -3.6422860841,
				"z": 3.0305003004,
				"element": "H" 
			},
			{
				"x": 1.9482242607,
				"y": -2.553221907,
				"z": 2.8195989132,
				"element": "H" 
			},
			{
				"x": -1.2652494674,
				"y": -1.7838358956,
				"z": 4.6708755908,
				"element": "H" 
			},
			{
				"x": -2.0062306106,
				"y": -0.8865255918,
				"z": 3.3365375963,
				"element": "H" 
			},
			{
				"x": -1.7933783147,
				"y": -2.6420978314,
				"z": 3.2007468214,
				"element": "H" 
			},
			{
				"x": -0.408298022,
				"y": -0.7513749261,
				"z": -0.921321659,
				"element": "H" 
			},
			{
				"x": -1.5643138703,
				"y": 3.4511410558,
				"z": -1.3582462545,
				"element": "H" 
			},
			{
				"x": -1.941873792,
				"y": 3.0163033873,
				"z": -3.0409183009,
				"element": "H" 
			},
			{
				"x": -2.6219144147,
				"y": 2.071734961,
				"z": -1.7010995084,
				"element": "H" 
			},
			{
				"x": -0.9511510734,
				"y": 0.8844149173,
				"z": -4.0396936289,
				"element": "H" 
			},
			{
				"x": -1.6410845848,
				"y": -0.0745377487,
				"z": -2.7272892759,
				"element": "H" 
			},
			{
				"x": 0.095205788,
				"y": -0.169139458,
				"z": -3.0838813073,
				"element": "H" 
			},
			{
				"x": 0.5652227766,
				"y": 2.8763040579,
				"z": -3.5618965246,
				"element": "H" 
			},
			{
				"x": 0.9269462227,
				"y": 3.3208201772,
				"z": -1.8787825239,
				"element": "H" 
			},
			{
				"x": 1.6182370765,
				"y": 1.8448037346,
				"z": -2.573719617,
				"element": "H" 
			}
		],
		 "valence_orbital": [ 
			{
				"type": "occ",
				"energy": -0.29254,
				"method": "rhf"
			},
			{
				"type": "occ",
				"energy": -0.27079,
				"method": "rhf"
			},
			{
				"type": "occ",
				"energy": -0.26046,
				"method": "rhf"
			},
			{
				"type": "occ",
				"energy": -0.24798,
				"method": "rhf"
			},
			{
				"type": "occ",
				"energy": -0.22046,
				"method": "rhf"
			},
			{
				"type": "unocc",
				"energy": -0.0495,
				"method": "rhf"
			},
			{
				"type": "unocc",
				"energy": 0.05879,
				"method": "rhf"
			},
			{
				"type": "unocc",
				"energy": 0.06928,
				"method": "rhf"
			},
			{
				"type": "unocc",
				"energy": 0.08167,
				"method": "rhf"
			},
			{
				"type": "unocc",
				"energy": 0.10341,
				"method": "rhf"
			}
		],
		"cosmo_sigma_profile": { 
			"-0.025": 0.0,
			"-0.024": 0.0,
			"-0.023": 0.0,
			"-0.022": 0.0,
			"-0.021": 0.0,
			"-0.02": 0.0,
			"-0.019": 0.0,
			"-0.018": 0.0,
			"-0.017": 0.0,
			"-0.016": 0.638793810756,
			"-0.015": 0.981941795906,
			"-0.014": 0.650235573071,
			"-0.013": 1.01102028208,
			"-0.012": 0.518960868384,
			"-0.011": 0.454557861698,
			"-0.01": 0.443014693925,
			"-0.009": 0.531104636066,
			"-0.008": 1.06401789762,
			"-0.007": 0.658248532905,
			"-0.006": 0.488046629603,
			"-0.005": 3.40262059592,
			"-0.004": 16.1650515238,
			"-0.003": 37.9771142342,
			"-0.002": 38.7443508434,
			"-0.001": 42.8941357608,
			"0.0": 46.2809430089,
			"0.001": 45.1320010921,
			"0.002": 18.7671582096,
			"0.003": 9.13212320438,
			"0.004": 6.7996390511,
			"0.005": 6.50944439201,
			"0.006": 5.99158125042,
			"0.007": 4.26689552659,
			"0.008": 3.7827632499,
			"0.009": 3.58878493643,
			"0.01": 2.21980498705,
			"0.011": 2.67596094046,
			"0.012": 1.66293998499,
			"0.013": 0.593633099765,
			"0.014": 0.866619601097,
			"0.015": 0.557515188352,
			"0.016": 0.43842382818,
			"0.017": 0.0506561365225,
			"0.018": 0.0,
			"0.019": 0.0,
			"0.02": 0.0,
			"0.021": 0.0,
			"0.022": 0.0,
			"0.023": 0.0,
			"0.024": 0.0,
			"0.025": 0.0
		}
	}
}
