{
	 "smiles": "CC1=CC=C(C=C1)C1=CSC(CC(N)=NO)=N1", 
	 "Tm": 420.15, 
	 "num_atms": 30, 
	 "gaussian": { 
		 "optdone": 1, 
		 "sigma_profile": "yes", 
		 "theory": "DFT", 
		 "functional": "B3LYP", 
		 "basiset": "6-31G**", 
		 "properties": { 
			 "R2extent": 7394.0316, 
			 "electric_dipole_moment_norm": 2.47959162162, 
			 "electric_quadrupole_moment_norm": 4.81754619594, 
			 "total_energy": -1102.73990252, 
			 "HOMO_LUMO_gap": 0.16661, 
			 "cosmo_polarized_energy": -12.92, 
			 "cosmo_cavitation_energy": 35.99, 
			 "cosmo_dispersion_energy": -26.47, 
			 "cosmo_repulsion_energy": 2.03, 
			 "cosmo_total_nonelectrostatic_energy": 11.55, 
			 "SMD_solvation_energy": 4.93 
		},
		"coords": [
			{
				"x": 1.125649972,
				"y": 4.2832104972,
				"z": 3.6406257054,
				"element": "C" 
			},
			{
				"x": 0.4771616961,
				"y": 3.6302445096,
				"z": 2.4435136052,
				"element": "C" 
			},
			{
				"x": 1.2466169971,
				"y": 3.057804139,
				"z": 1.4226422546,
				"element": "C" 
			},
			{
				"x": 0.650919022,
				"y": 2.42909223,
				"z": 0.3318752295,
				"element": "C" 
			},
			{
				"x": -0.7463106924,
				"y": 2.354092016,
				"z": 0.2217811679,
				"element": "C" 
			},
			{
				"x": -1.5210670495,
				"y": 2.9229989974,
				"z": 1.2458606938,
				"element": "C" 
			},
			{
				"x": -0.9184621831,
				"y": 3.5515522638,
				"z": 2.3310574048,
				"element": "C" 
			},
			{
				"x": -1.3650463272,
				"y": 1.7000239319,
				"z": -0.9464596363,
				"element": "C" 
			},
			{
				"x": -2.6722137791,
				"y": 1.8172298075,
				"z": -1.3531560141,
				"element": "C" 
			},
			{
				"x": -2.9559772615,
				"y": 0.8771838908,
				"z": -2.776372776,
				"element": "S" 
			},
			{
				"x": -1.2735024981,
				"y": 0.3844291437,
				"z": -2.7511016036,
				"element": "C" 
			},
			{
				"x": -0.6928970642,
				"y": -0.5572637382,
				"z": -3.7749061254,
				"element": "C" 
			},
			{
				"x": -0.2017580063,
				"y": -1.8540827164,
				"z": -3.1674800733,
				"element": "C" 
			},
			{
				"x": 0.7786609904,
				"y": -1.7747033303,
				"z": -2.2119597772,
				"element": "N" 
			},
			{
				"x": -0.7048250221,
				"y": -2.9390580302,
				"z": -3.6515105629,
				"element": "N" 
			},
			{
				"x": -0.118199468,
				"y": -4.0614698421,
				"z": -2.9878857151,
				"element": "O" 
			},
			{
				"x": -0.5928532148,
				"y": 0.886190513,
				"z": -1.7607092922,
				"element": "N" 
			},
			{
				"x": 1.2284562664,
				"y": 3.5744198868,
				"z": 4.4722130119,
				"element": "H" 
			},
			{
				"x": 2.127881576,
				"y": 4.650988977,
				"z": 3.4016777718,
				"element": "H" 
			},
			{
				"x": 0.5330545914,
				"y": 5.1271636275,
				"z": 4.0073787249,
				"element": "H" 
			},
			{
				"x": 2.3313313987,
				"y": 3.1082992512,
				"z": 1.4799138614,
				"element": "H" 
			},
			{
				"x": 1.2631476239,
				"y": 1.998100121,
				"z": -0.4526315094,
				"element": "H" 
			},
			{
				"x": -2.6047891086,
				"y": 2.8629857745,
				"z": 1.2040070867,
				"element": "H" 
			},
			{
				"x": -1.5424681093,
				"y": 3.9834898385,
				"z": 3.1098075918,
				"element": "H" 
			},
			{
				"x": -3.4604248757,
				"y": 2.4144389178,
				"z": -0.9196045733,
				"element": "H" 
			},
			{
				"x": -1.4277864098,
				"y": -0.8045558964,
				"z": -4.542394581,
				"element": "H" 
			},
			{
				"x": 0.1518607543,
				"y": -0.051779413,
				"z": -4.2605704154,
				"element": "H" 
			},
			{
				"x": 0.7850225301,
				"y": -0.9166790141,
				"z": -1.6728228276,
				"element": "H" 
			},
			{
				"x": 0.927931423,
				"y": -2.6308984738,
				"z": -1.6960853676,
				"element": "H" 
			},
			{
				"x": -0.5931137717,
				"y": -4.7975478795,
				"z": -3.3914032593,
				"element": "H" 
			}
		],
		 "valence_orbital": [ 
			{
				"type": "occ",
				"energy": -0.27363,
				"method": "rhf"
			},
			{
				"type": "occ",
				"energy": -0.26562,
				"method": "rhf"
			},
			{
				"type": "occ",
				"energy": -0.25157,
				"method": "rhf"
			},
			{
				"type": "occ",
				"energy": -0.21769,
				"method": "rhf"
			},
			{
				"type": "occ",
				"energy": -0.20616,
				"method": "rhf"
			},
			{
				"type": "unocc",
				"energy": -0.03955,
				"method": "rhf"
			},
			{
				"type": "unocc",
				"energy": -0.015,
				"method": "rhf"
			},
			{
				"type": "unocc",
				"energy": -0.00106,
				"method": "rhf"
			},
			{
				"type": "unocc",
				"energy": 0.01116,
				"method": "rhf"
			},
			{
				"type": "unocc",
				"energy": 0.04567,
				"method": "rhf"
			}
		],
		"cosmo_sigma_profile": { 
			"-0.025": 0.0,
			"-0.024": 0.0,
			"-0.023": 0.0,
			"-0.022": 0.0,
			"-0.021": 0.0,
			"-0.02": 0.0,
			"-0.019": 0.0,
			"-0.018": 0.0,
			"-0.017": 0.149266548135,
			"-0.016": 1.0339312611,
			"-0.015": 0.839555312066,
			"-0.014": 0.714737816705,
			"-0.013": 0.792035374547,
			"-0.012": 0.850133812922,
			"-0.011": 1.35257551175,
			"-0.01": 1.32456039173,
			"-0.009": 3.84495546417,
			"-0.008": 5.80376905094,
			"-0.007": 8.27694082164,
			"-0.006": 8.97908898112,
			"-0.005": 13.7758542178,
			"-0.004": 23.3453103521,
			"-0.003": 20.4772216169,
			"-0.002": 18.9777724185,
			"-0.001": 20.3386204801,
			"0.0": 26.4758276666,
			"0.001": 22.7947582343,
			"0.002": 24.1713063235,
			"0.003": 20.8927089936,
			"0.004": 13.8262540247,
			"0.005": 14.513064685,
			"0.006": 9.71627948818,
			"0.007": 4.79621400572,
			"0.008": 4.77737628915,
			"0.009": 4.98330656493,
			"0.01": 3.62160687043,
			"0.011": 2.7795607052,
			"0.012": 2.20127464408,
			"0.013": 0.551607094311,
			"0.014": 0.652310202935,
			"0.015": 0.905138166956,
			"0.016": 0.0299599371154,
			"0.017": 0.0,
			"0.018": 0.0,
			"0.019": 0.0,
			"0.02": 0.0,
			"0.021": 0.0,
			"0.022": 0.0,
			"0.023": 0.0,
			"0.024": 0.0,
			"0.025": 0.0
		}
	}
}
