{
	 "smiles": "CC(=O)NC(C)=O", 
	 "Tm": 352.15, 
	 "num_atms": 14, 
	 "gaussian": { 
		 "optdone": 1, 
		 "sigma_profile": "yes", 
		 "theory": "DFT", 
		 "functional": "B3LYP", 
		 "basiset": "6-31G**", 
		 "properties": { 
			 "R2extent": 1717.8589, 
			 "electric_dipole_moment_norm": 2.53566331558, 
			 "electric_quadrupole_moment_norm": 15.3587740989, 
			 "total_energy": -361.874976015, 
			 "HOMO_LUMO_gap": 0.2355, 
			 "cosmo_polarized_energy": -11.83, 
			 "cosmo_cavitation_energy": 18.2, 
			 "cosmo_dispersion_energy": -13.32, 
			 "cosmo_repulsion_energy": 1.15, 
			 "cosmo_total_nonelectrostatic_energy": 6.03, 
			 "SMD_solvation_energy": 5.16 
		},
		"coords": [
			{
				"x": -1.6714480636,
				"y": 2.5503926936,
				"z": -1.1228618666,
				"element": "C" 
			},
			{
				"x": -2.0843657787,
				"y": 2.3731140534,
				"z": 0.3159975045,
				"element": "C" 
			},
			{
				"x": -3.1674685404,
				"y": 2.7128950762,
				"z": 0.7559373367,
				"element": "O" 
			},
			{
				"x": -1.1686326176,
				"y": 1.7806494255,
				"z": 1.2082824636,
				"element": "N" 
			},
			{
				"x": 0.1227075044,
				"y": 1.3017399634,
				"z": 0.9906993106,
				"element": "C" 
			},
			{
				"x": 0.7743135625,
				"y": 0.7321641028,
				"z": 2.2396642524,
				"element": "C" 
			},
			{
				"x": 0.6767691672,
				"y": 1.3353239914,
				"z": -0.0926688125,
				"element": "O" 
			},
			{
				"x": -2.5028112205,
				"y": 3.019748837,
				"z": -1.6489970111,
				"element": "H" 
			},
			{
				"x": -0.7710530126,
				"y": 3.1650555215,
				"z": -1.1973847934,
				"element": "H" 
			},
			{
				"x": -1.4200376598,
				"y": 1.5891769564,
				"z": -1.5777613261,
				"element": "H" 
			},
			{
				"x": -1.5511848875,
				"y": 1.7122162306,
				"z": 2.1442652233,
				"element": "H" 
			},
			{
				"x": 0.8470906869,
				"y": 1.494135513,
				"z": 3.0233036802,
				"element": "H" 
			},
			{
				"x": 1.7733507594,
				"y": 0.3820395949,
				"z": 1.9825240763,
				"element": "H" 
			},
			{
				"x": 0.1883701003,
				"y": -0.1028519595,
				"z": 2.638899962,
				"element": "H" 
			}
		],
		 "valence_orbital": [ 
			{
				"type": "occ",
				"energy": -0.38615,
				"method": "rhf"
			},
			{
				"type": "occ",
				"energy": -0.36587,
				"method": "rhf"
			},
			{
				"type": "occ",
				"energy": -0.28619,
				"method": "rhf"
			},
			{
				"type": "occ",
				"energy": -0.27946,
				"method": "rhf"
			},
			{
				"type": "occ",
				"energy": -0.26155,
				"method": "rhf"
			},
			{
				"type": "unocc",
				"energy": -0.02605,
				"method": "rhf"
			},
			{
				"type": "unocc",
				"energy": 0.03604,
				"method": "rhf"
			},
			{
				"type": "unocc",
				"energy": 0.0719,
				"method": "rhf"
			},
			{
				"type": "unocc",
				"energy": 0.12136,
				"method": "rhf"
			},
			{
				"type": "unocc",
				"energy": 0.1281,
				"method": "rhf"
			}
		],
		"cosmo_sigma_profile": { 
			"-0.025": 0.0,
			"-0.024": 0.0,
			"-0.023": 0.0,
			"-0.022": 0.0,
			"-0.021": 0.0,
			"-0.02": 0.0,
			"-0.019": 0.0,
			"-0.018": 0.0,
			"-0.017": 0.0,
			"-0.016": 0.0308579602451,
			"-0.015": 0.683466180159,
			"-0.014": 1.3445479641,
			"-0.013": 0.690975677243,
			"-0.012": 0.85820838064,
			"-0.011": 1.67637027254,
			"-0.01": 0.975023301108,
			"-0.009": 1.3302614742,
			"-0.008": 2.00382346244,
			"-0.007": 4.76835332571,
			"-0.006": 7.06382740654,
			"-0.005": 11.9808986992,
			"-0.004": 12.459531542,
			"-0.003": 12.8043250642,
			"-0.002": 16.1125827757,
			"-0.001": 15.6524857766,
			"0.0": 5.30268550124,
			"0.001": 3.28474659099,
			"0.002": 3.38568996477,
			"0.003": 3.50010828533,
			"0.004": 2.00621870073,
			"0.005": 2.70128730717,
			"0.006": 4.02724671176,
			"0.007": 2.56743118078,
			"0.008": 1.60835382941,
			"0.009": 3.44404290803,
			"0.01": 3.07176465614,
			"0.011": 5.18826231869,
			"0.012": 8.53516721435,
			"0.013": 3.90754514333,
			"0.014": 0.491746925652,
			"0.015": 0.0,
			"0.016": 0.0,
			"0.017": 0.0,
			"0.018": 0.0,
			"0.019": 0.0,
			"0.02": 0.0,
			"0.021": 0.0,
			"0.022": 0.0,
			"0.023": 0.0,
			"0.024": 0.0,
			"0.025": 0.0
		}
	}
}
