{
	 "smiles": "[O-][N+](=O)C1=CC(=C(C=C1)S(Cl)(=O)=O)C(F)(F)F", 
	 "Tm": 352.15, 
	 "num_atms": 20, 
	 "gaussian": { 
		 "optdone": 1, 
		 "sigma_profile": "yes", 
		 "theory": "DFT", 
		 "functional": "B3LYP", 
		 "basiset": "6-31G**", 
		 "properties": { 
			 "R2extent": 5204.3722, 
			 "electric_dipole_moment_norm": 1.5261840256, 
			 "electric_quadrupole_moment_norm": 15.0077314005, 
			 "total_energy": -1781.91170072, 
			 "HOMO_LUMO_gap": 0.19124, 
			 "cosmo_polarized_energy": -11.79, 
			 "cosmo_cavitation_energy": 29.94, 
			 "cosmo_dispersion_energy": -22.05, 
			 "cosmo_repulsion_energy": 1.59, 
			 "cosmo_total_nonelectrostatic_energy": 9.48, 
			 "SMD_solvation_energy": 7.25 
		},
		"coords": [
			{
				"x": -3.5444407958,
				"y": 2.2192322896,
				"z": 1.7491086051,
				"element": "O" 
			},
			{
				"x": -3.5974621262,
				"y": 2.2179943593,
				"z": 0.5229046646,
				"element": "N" 
			},
			{
				"x": -4.4604752632,
				"y": 2.7664031525,
				"z": -0.1562636306,
				"element": "O" 
			},
			{
				"x": -2.5301509092,
				"y": 1.4938849119,
				"z": -0.2017748881,
				"element": "C" 
			},
			{
				"x": -1.5336125651,
				"y": 0.8649143106,
				"z": 0.5338892199,
				"element": "C" 
			},
			{
				"x": -0.5142023194,
				"y": 0.1676651546,
				"z": -0.1176994623,
				"element": "C" 
			},
			{
				"x": -0.5317722899,
				"y": 0.1328759047,
				"z": -1.527775039,
				"element": "C" 
			},
			{
				"x": -1.5410414016,
				"y": 0.778208684,
				"z": -2.2495336247,
				"element": "C" 
			},
			{
				"x": -2.5542933923,
				"y": 1.4671044172,
				"z": -1.588136704,
				"element": "C" 
			},
			{
				"x": 0.6126567381,
				"y": -0.7983491146,
				"z": -2.6074564158,
				"element": "S" 
			},
			{
				"x": 2.473123433,
				"y": 0.0678517711,
				"z": -2.1342796684,
				"element": "Cl" 
			},
			{
				"x": 0.3264763992,
				"y": -0.3988383572,
				"z": -3.979422452,
				"element": "O" 
			},
			{
				"x": 0.6428150906,
				"y": -2.1995770739,
				"z": -2.2226642973,
				"element": "O" 
			},
			{
				"x": 0.5762792024,
				"y": -0.3906679254,
				"z": 0.7890384536,
				"element": "C" 
			},
			{
				"x": 0.0716861033,
				"y": -0.6652016495,
				"z": 2.0097969736,
				"element": "F" 
			},
			{
				"x": 1.1367850361,
				"y": -1.5113475764,
				"z": 0.3232119173,
				"element": "F" 
			},
			{
				"x": 1.5489725909,
				"y": 0.5275656448,
				"z": 0.956800579,
				"element": "F" 
			},
			{
				"x": -1.5589461317,
				"y": 0.9185202812,
				"z": 1.613933752,
				"element": "H" 
			},
			{
				"x": -1.5250218558,
				"y": 0.7381175066,
				"z": -3.3313198691,
				"element": "H" 
			},
			{
				"x": -3.3450755435,
				"y": 1.9718433088,
				"z": -2.128558114,
				"element": "H" 
			}
		],
		 "valence_orbital": [ 
			{
				"type": "occ",
				"energy": -0.33904,
				"method": "rhf"
			},
			{
				"type": "occ",
				"energy": -0.33287,
				"method": "rhf"
			},
			{
				"type": "occ",
				"energy": -0.32784,
				"method": "rhf"
			},
			{
				"type": "occ",
				"energy": -0.32458,
				"method": "rhf"
			},
			{
				"type": "occ",
				"energy": -0.3244,
				"method": "rhf"
			},
			{
				"type": "unocc",
				"energy": -0.13316,
				"method": "rhf"
			},
			{
				"type": "unocc",
				"energy": -0.09961,
				"method": "rhf"
			},
			{
				"type": "unocc",
				"energy": -0.0812,
				"method": "rhf"
			},
			{
				"type": "unocc",
				"energy": -0.05465,
				"method": "rhf"
			},
			{
				"type": "unocc",
				"energy": 0.02174,
				"method": "rhf"
			}
		],
		"cosmo_sigma_profile": { 
			"-0.025": 0.0,
			"-0.024": 0.0,
			"-0.023": 0.0,
			"-0.022": 0.0,
			"-0.021": 0.0,
			"-0.02": 0.0,
			"-0.019": 0.0,
			"-0.018": 0.0,
			"-0.017": 0.0,
			"-0.016": 0.0,
			"-0.015": 0.0,
			"-0.014": 0.0,
			"-0.013": 0.0,
			"-0.012": 0.0,
			"-0.011": 0.106057872298,
			"-0.01": 2.86007072228,
			"-0.009": 5.02733305425,
			"-0.008": 6.29274990525,
			"-0.007": 7.31981313406,
			"-0.006": 9.48916681094,
			"-0.005": 15.2815062925,
			"-0.004": 21.1804757458,
			"-0.003": 16.2388952761,
			"-0.002": 13.4390972376,
			"-0.001": 10.1895083874,
			"0.0": 13.0254313917,
			"0.001": 22.4218964721,
			"0.002": 35.3098623556,
			"0.003": 10.6359779597,
			"0.004": 6.97561553136,
			"0.005": 7.92302102977,
			"0.006": 12.9950458377,
			"0.007": 15.7528916907,
			"0.008": 10.0405424607,
			"0.009": 2.10724939882,
			"0.01": 0.0014325542976,
			"0.011": 0.0,
			"0.012": 0.0,
			"0.013": 0.0,
			"0.014": 0.0,
			"0.015": 0.0,
			"0.016": 0.0,
			"0.017": 0.0,
			"0.018": 0.0,
			"0.019": 0.0,
			"0.02": 0.0,
			"0.021": 0.0,
			"0.022": 0.0,
			"0.023": 0.0,
			"0.024": 0.0,
			"0.025": 0.0
		}
	}
}
