{
	 "smiles": "CC(=O)NC1=CC(NC(C)=O)=C(C=CC2=CC=CC=C2)C=C1C=CC1=CC=CC=C1", 
	 "Tm": 497.15, 
	 "num_atms": 54, 
	 "gaussian": { 
		 "optdone": 1, 
		 "sigma_profile": "yes", 
		 "theory": "DFT", 
		 "functional": "B3LYP", 
		 "basiset": "6-31G**", 
		 "properties": { 
			 "R2extent": 20655.347, 
			 "electric_dipole_moment_norm": 4.44536416731, 
			 "electric_quadrupole_moment_norm": 27.8794043525, 
			 "total_energy": -1265.21047678, 
			 "HOMO_LUMO_gap": 0.13502, 
			 "cosmo_polarized_energy": -25.72, 
			 "cosmo_cavitation_energy": 58.96, 
			 "cosmo_dispersion_energy": -40.2, 
			 "cosmo_repulsion_energy": 3.01, 
			 "cosmo_total_nonelectrostatic_energy": 21.77, 
			 "SMD_solvation_energy": 11.18 
		},
		"coords": [
			{
				"x": -1.8723670711,
				"y": 4.1777659405,
				"z": 0.0020688097,
				"element": "C" 
			},
			{
				"x": -1.096577405,
				"y": 3.1588450672,
				"z": 0.8266566591,
				"element": "C" 
			},
			{
				"x": -0.8808442777,
				"y": 3.3207580671,
				"z": 2.0163601582,
				"element": "O" 
			},
			{
				"x": -0.6908600338,
				"y": 2.0508239033,
				"z": 0.1038880115,
				"element": "N" 
			},
			{
				"x": -0.0450288437,
				"y": 0.8836934178,
				"z": 0.5470279221,
				"element": "C" 
			},
			{
				"x": 0.0289977438,
				"y": 0.563357892,
				"z": 1.9074287887,
				"element": "C" 
			},
			{
				"x": 0.5876961224,
				"y": -0.6497631466,
				"z": 2.3257682374,
				"element": "C" 
			},
			{
				"x": 0.7601575705,
				"y": -0.9447716303,
				"z": 3.6891767398,
				"element": "N" 
			},
			{
				"x": 0.2246799067,
				"y": -0.315254165,
				"z": 4.7989995213,
				"element": "C" 
			},
			{
				"x": 0.7443200232,
				"y": -0.8607261886,
				"z": 6.1227901422,
				"element": "C" 
			},
			{
				"x": -0.5764066203,
				"y": 0.6033980312,
				"z": 4.7490233845,
				"element": "O" 
			},
			{
				"x": 1.045706397,
				"y": -1.5997424542,
				"z": 1.3707998157,
				"element": "C" 
			},
			{
				"x": 1.5867851514,
				"y": -2.9303762762,
				"z": 1.6811440646,
				"element": "C" 
			},
			{
				"x": 1.2253339752,
				"y": -3.7768771524,
				"z": 2.6724753938,
				"element": "C" 
			},
			{
				"x": 1.7814944685,
				"y": -5.1136838126,
				"z": 2.9160116272,
				"element": "C" 
			},
			{
				"x": 1.0809500022,
				"y": -5.9981312707,
				"z": 3.7575498213,
				"element": "C" 
			},
			{
				"x": 1.5555062647,
				"y": -7.2838590413,
				"z": 4.0095454636,
				"element": "C" 
			},
			{
				"x": 2.7502666758,
				"y": -7.7151226753,
				"z": 3.4309595811,
				"element": "C" 
			},
			{
				"x": 3.4665033028,
				"y": -6.844851112,
				"z": 2.6036573887,
				"element": "C" 
			},
			{
				"x": 2.9930421124,
				"y": -5.5602042527,
				"z": 2.3529277645,
				"element": "C" 
			},
			{
				"x": 0.9976647917,
				"y": -1.2211683617,
				"z": 0.0244199568,
				"element": "C" 
			},
			{
				"x": 0.491620949,
				"y": 0.0013013517,
				"z": -0.4315337983,
				"element": "C" 
			},
			{
				"x": 0.5356164809,
				"y": 0.2549192147,
				"z": -1.8783812077,
				"element": "C" 
			},
			{
				"x": 0.7181174734,
				"y": 1.4301913814,
				"z": -2.5228806283,
				"element": "C" 
			},
			{
				"x": 0.7858649189,
				"y": 1.6195291863,
				"z": -3.9772568115,
				"element": "C" 
			},
			{
				"x": 1.31216731,
				"y": 2.823542386,
				"z": -4.4818097271,
				"element": "C" 
			},
			{
				"x": 1.4143818549,
				"y": 3.048720738,
				"z": -5.8531703062,
				"element": "C" 
			},
			{
				"x": 0.9837729146,
				"y": 2.0756832739,
				"z": -6.7564836254,
				"element": "C" 
			},
			{
				"x": 0.4452901254,
				"y": 0.8794426393,
				"z": -6.2729143915,
				"element": "C" 
			},
			{
				"x": 0.3421674853,
				"y": 0.65504508,
				"z": -4.9031105714,
				"element": "C" 
			},
			{
				"x": -2.9456690073,
				"y": 4.0136661915,
				"z": 0.1470409648,
				"element": "H" 
			},
			{
				"x": -1.6599750681,
				"y": 4.1289970933,
				"z": -1.0701864381,
				"element": "H" 
			},
			{
				"x": -1.6352569816,
				"y": 5.1751391052,
				"z": 0.3755877418,
				"element": "H" 
			},
			{
				"x": -0.9061065737,
				"y": 2.0562276533,
				"z": -0.8834548413,
				"element": "H" 
			},
			{
				"x": -0.3482394985,
				"y": 1.2583860043,
				"z": 2.6408407198,
				"element": "H" 
			},
			{
				"x": 1.3895725013,
				"y": -1.7143048543,
				"z": 3.8704845166,
				"element": "H" 
			},
			{
				"x": 1.1118824203,
				"y": -1.8894275519,
				"z": 6.0603140764,
				"element": "H" 
			},
			{
				"x": -0.0602836337,
				"y": -0.8051443314,
				"z": 6.8576188269,
				"element": "H" 
			},
			{
				"x": 1.5633203729,
				"y": -0.2247054002,
				"z": 6.4758644518,
				"element": "H" 
			},
			{
				"x": 2.3249015193,
				"y": -3.2831242583,
				"z": 0.9613685126,
				"element": "H" 
			},
			{
				"x": 0.4057122212,
				"y": -3.4981382638,
				"z": 3.3323242803,
				"element": "H" 
			},
			{
				"x": 0.1472083581,
				"y": -5.6705178016,
				"z": 4.2082025559,
				"element": "H" 
			},
			{
				"x": 0.9924408194,
				"y": -7.9485009719,
				"z": 4.658623994,
				"element": "H" 
			},
			{
				"x": 3.1253547769,
				"y": -8.7150162336,
				"z": 3.6282058496,
				"element": "H" 
			},
			{
				"x": 4.4046727215,
				"y": -7.1666450506,
				"z": 2.1602283005,
				"element": "H" 
			},
			{
				"x": 3.5780551774,
				"y": -4.8905755368,
				"z": 1.7297115334,
				"element": "H" 
			},
			{
				"x": 1.378029148,
				"y": -1.9219186158,
				"z": -0.7149980407,
				"element": "H" 
			},
			{
				"x": 0.4805492408,
				"y": -0.6489868053,
				"z": -2.4843857743,
				"element": "H" 
			},
			{
				"x": 0.8964236637,
				"y": 2.3309515156,
				"z": -1.9383143185,
				"element": "H" 
			},
			{
				"x": 1.6536675397,
				"y": 3.584286501,
				"z": -3.7839990454,
				"element": "H" 
			},
			{
				"x": 1.8295523096,
				"y": 3.9846757473,
				"z": -6.2160980094,
				"element": "H" 
			},
			{
				"x": 1.0580826873,
				"y": 2.2491756268,
				"z": -7.8259520474,
				"element": "H" 
			},
			{
				"x": 0.0943922295,
				"y": 0.1220273141,
				"z": -6.9682820572,
				"element": "H" 
			},
			{
				"x": -0.1040067131,
				"y": -0.2691131074,
				"z": -4.5482839363,
				"element": "H" 
			}
		],
		 "valence_orbital": [ 
			{
				"type": "occ",
				"energy": -0.25143,
				"method": "rhf"
			},
			{
				"type": "occ",
				"energy": -0.24285,
				"method": "rhf"
			},
			{
				"type": "occ",
				"energy": -0.23611,
				"method": "rhf"
			},
			{
				"type": "occ",
				"energy": -0.21671,
				"method": "rhf"
			},
			{
				"type": "occ",
				"energy": -0.19312,
				"method": "rhf"
			},
			{
				"type": "unocc",
				"energy": -0.0581,
				"method": "rhf"
			},
			{
				"type": "unocc",
				"energy": -0.04781,
				"method": "rhf"
			},
			{
				"type": "unocc",
				"energy": -0.00548,
				"method": "rhf"
			},
			{
				"type": "unocc",
				"energy": -0.00546,
				"method": "rhf"
			},
			{
				"type": "unocc",
				"energy": -0.00405,
				"method": "rhf"
			}
		],
		"cosmo_sigma_profile": { 
			"-0.025": 0.0,
			"-0.024": 0.0,
			"-0.023": 0.0,
			"-0.022": 0.0,
			"-0.021": 0.0,
			"-0.02": 0.0,
			"-0.019": 0.0,
			"-0.018": 0.0,
			"-0.017": 0.0,
			"-0.016": 0.0,
			"-0.015": 0.0,
			"-0.014": 0.0,
			"-0.013": 0.0,
			"-0.012": 0.582362752501,
			"-0.011": 2.29276946705,
			"-0.01": 3.49831584464,
			"-0.009": 2.52437801189,
			"-0.008": 3.91535167553,
			"-0.007": 8.63589533745,
			"-0.006": 33.5597404759,
			"-0.005": 39.8464323446,
			"-0.004": 40.8058859551,
			"-0.003": 38.8297446038,
			"-0.002": 34.8649858431,
			"-0.001": 32.1630559608,
			"0.0": 23.2343141812,
			"0.001": 28.0007634449,
			"0.002": 29.0395009932,
			"0.003": 32.5534557277,
			"0.004": 38.769476137,
			"0.005": 27.884214839,
			"0.006": 15.2991351887,
			"0.007": 3.82515156542,
			"0.008": 2.98986111316,
			"0.009": 3.7413084755,
			"0.01": 3.51702376991,
			"0.011": 4.37091200466,
			"0.012": 6.46109070541,
			"0.013": 7.38939441531,
			"0.014": 2.88746724879,
			"0.015": 0.230992002655,
			"0.016": 0.0,
			"0.017": 0.0,
			"0.018": 0.0,
			"0.019": 0.0,
			"0.02": 0.0,
			"0.021": 0.0,
			"0.022": 0.0,
			"0.023": 0.0,
			"0.024": 0.0,
			"0.025": 0.0
		}
	}
}
