{
	 "smiles": "OC1=CC=C(Br)C(F)=C1", 
	 "Tm": 345.15, 
	 "num_atms": 13, 
	 "gaussian": { 
		 "optdone": 1, 
		 "sigma_profile": "yes", 
		 "theory": "DFT", 
		 "functional": "B3LYP", 
		 "basiset": "6-31G**", 
		 "properties": { 
			 "R2extent": 2424.2722, 
			 "electric_dipole_moment_norm": 3.43719737722, 
			 "electric_quadrupole_moment_norm": 4.14941407792, 
			 "total_energy": -2977.50178279, 
			 "HOMO_LUMO_gap": 0.20994, 
			 "cosmo_polarized_energy": -8.76, 
			 "cosmo_cavitation_energy": 20.22, 
			 "cosmo_dispersion_energy": -15.5, 
			 "cosmo_repulsion_energy": 1.25, 
			 "cosmo_total_nonelectrostatic_energy": 5.97, 
			 "SMD_solvation_energy": 3.28 
		},
		"coords": [
			{
				"x": -2.4671686714,
				"y": 1.5992556207,
				"z": 0.8174470675,
				"element": "O" 
			},
			{
				"x": -1.5545927027,
				"y": 0.7428128555,
				"z": 0.2793565678,
				"element": "C" 
			},
			{
				"x": -0.2904021622,
				"y": 1.1544777897,
				"z": -0.1597198049,
				"element": "C" 
			},
			{
				"x": 0.5948584199,
				"y": 0.2232189864,
				"z": -0.7008609563,
				"element": "C" 
			},
			{
				"x": 0.2326469598,
				"y": -1.1174307386,
				"z": -0.8093670043,
				"element": "C" 
			},
			{
				"x": 1.4261316387,
				"y": -2.401133734,
				"z": -1.5438146654,
				"element": "Br" 
			},
			{
				"x": -1.0319191901,
				"y": -1.5105728769,
				"z": -0.3666751027,
				"element": "C" 
			},
			{
				"x": -1.4014076437,
				"y": -2.796449358,
				"z": -0.4616723623,
				"element": "F" 
			},
			{
				"x": -1.9283075612,
				"y": -0.6008487452,
				"z": 0.1749151763,
				"element": "C" 
			},
			{
				"x": -2.0967707959,
				"y": 2.4911885923,
				"z": 0.8366128551,
				"element": "H" 
			},
			{
				"x": 0.0047341238,
				"y": 2.1976509048,
				"z": -0.080668587,
				"element": "H" 
			},
			{
				"x": 1.5746797949,
				"y": 0.5376937089,
				"z": -1.0419430887,
				"element": "H" 
			},
			{
				"x": -2.90368221,
				"y": -0.9317630055,
				"z": 0.511089905,
				"element": "H" 
			}
		],
		 "valence_orbital": [ 
			{
				"type": "occ",
				"energy": -0.36056,
				"method": "rhf"
			},
			{
				"type": "occ",
				"energy": -0.2998,
				"method": "rhf"
			},
			{
				"type": "occ",
				"energy": -0.28822,
				"method": "rhf"
			},
			{
				"type": "occ",
				"energy": -0.26246,
				"method": "rhf"
			},
			{
				"type": "occ",
				"energy": -0.22797,
				"method": "rhf"
			},
			{
				"type": "unocc",
				"energy": -0.01803,
				"method": "rhf"
			},
			{
				"type": "unocc",
				"energy": -0.00299,
				"method": "rhf"
			},
			{
				"type": "unocc",
				"energy": 0.00259,
				"method": "rhf"
			},
			{
				"type": "unocc",
				"energy": 0.05856,
				"method": "rhf"
			},
			{
				"type": "unocc",
				"energy": 0.10311,
				"method": "rhf"
			}
		],
		"cosmo_sigma_profile": { 
			"-0.025": 0.0,
			"-0.024": 0.0,
			"-0.023": 0.0,
			"-0.022": 0.0,
			"-0.021": 0.0,
			"-0.02": 0.0,
			"-0.019": 0.207363153277,
			"-0.018": 0.904395174445,
			"-0.017": 1.27402755487,
			"-0.016": 1.32746376676,
			"-0.015": 0.699813366427,
			"-0.014": 0.96983065911,
			"-0.013": 0.699766289099,
			"-0.012": 1.04167557321,
			"-0.011": 1.43870174481,
			"-0.01": 1.23764944521,
			"-0.009": 1.07712841375,
			"-0.008": 3.10322139728,
			"-0.007": 5.2989624214,
			"-0.006": 5.02186494814,
			"-0.005": 6.15324366904,
			"-0.004": 5.51816093246,
			"-0.003": 5.66436156106,
			"-0.002": 5.86880109437,
			"-0.001": 7.69955820427,
			"0.0": 12.8634123502,
			"0.001": 16.19732864,
			"0.002": 22.9831059642,
			"0.003": 19.1719731658,
			"0.004": 20.9906814084,
			"0.005": 9.21931970604,
			"0.006": 2.41874020054,
			"0.007": 0.895531263994,
			"0.008": 1.13727030107,
			"0.009": 1.77807696026,
			"0.01": 1.79494893108,
			"0.011": 1.05422160457,
			"0.012": 0.0,
			"0.013": 0.0,
			"0.014": 0.0,
			"0.015": 0.0,
			"0.016": 0.0,
			"0.017": 0.0,
			"0.018": 0.0,
			"0.019": 0.0,
			"0.02": 0.0,
			"0.021": 0.0,
			"0.022": 0.0,
			"0.023": 0.0,
			"0.024": 0.0,
			"0.025": 0.0
		}
	}
}
