{
	 "smiles": "OC(=O)C1=CC(I)=C(O)C(I)=C1", 
	 "Tm": 510.15, 
	 "num_atms": 16, 
	 "gaussian": { 
		 "optdone": 1, 
		 "sigma_profile": "no", 
		 "theory": "DFT", 
		 "functional": "B3LYP", 
		 "basiset": "6-31G**", 
		 "properties": { 
			 "R2extent": 2790.0898, 
			 "electric_dipole_moment_norm": 0.253129393789, 
			 "electric_quadrupole_moment_norm": 14.8618606695, 
			 "total_energy": -517.611006968, 
			 "HOMO_LUMO_gap": 0.17638, 
			 "cosmo_polarized_energy": -193041.23, 
			 "cosmo_cavitation_energy": 27.41, 
			 "cosmo_dispersion_energy": -23.08, 
			 "cosmo_repulsion_energy": 1.78, 
			 "cosmo_total_nonelectrostatic_energy": 6.11, 
			 "SMD_solvation_energy": 4.61 
		},
		"coords": [
			{
				"x": -3.1857489151,
				"y": -1.2867603511,
				"z": 2.4027875944,
				"element": "O" 
			},
			{
				"x": -2.4944205507,
				"y": -1.8115659251,
				"z": 1.3618620613,
				"element": "C" 
			},
			{
				"x": -2.5103673007,
				"y": -2.998237088,
				"z": 1.1011270066,
				"element": "O" 
			},
			{
				"x": -1.7337106142,
				"y": -0.7895936933,
				"z": 0.5997419775,
				"element": "C" 
			},
			{
				"x": -0.9814774582,
				"y": -1.2215830874,
				"z": -0.4981126895,
				"element": "C" 
			},
			{
				"x": -0.2551396443,
				"y": -0.300823048,
				"z": -1.2388280417,
				"element": "C" 
			},
			{
				"x": 0.8843780339,
				"y": -0.9649209851,
				"z": -2.9042521553,
				"element": "I" 
			},
			{
				"x": -0.2524226411,
				"y": 1.0723482966,
				"z": -0.914605188,
				"element": "C" 
			},
			{
				"x": 0.4340406014,
				"y": 2.0005123337,
				"z": -1.6007290188,
				"element": "O" 
			},
			{
				"x": -1.0176865144,
				"y": 1.4843356719,
				"z": 0.1956518932,
				"element": "C" 
			},
			{
				"x": -1.051768737,
				"y": 3.5276286019,
				"z": 0.7285901508,
				"element": "I" 
			},
			{
				"x": -1.7479020313,
				"y": 0.5690213268,
				"z": 0.9427921237,
				"element": "C" 
			},
			{
				"x": -3.6396058377,
				"y": -2.0342571456,
				"z": 2.8256660994,
				"element": "H" 
			},
			{
				"x": -0.9827482916,
				"y": -2.2757182291,
				"z": -0.7480798957,
				"element": "H" 
			},
			{
				"x": 0.9125618876,
				"y": 1.5783687476,
				"z": -2.3341887886,
				"element": "H" 
			},
			{
				"x": -2.3304819866,
				"y": 0.9012445742,
				"z": 1.7924768707,
				"element": "H" 
			}
		],
		 "valence_orbital": [ 
			{
				"type": "occ",
				"energy": -0.29304,
				"method": "rhf"
			},
			{
				"type": "occ",
				"energy": -0.28751,
				"method": "rhf"
			},
			{
				"type": "occ",
				"energy": -0.27121,
				"method": "rhf"
			},
			{
				"type": "occ",
				"energy": -0.25611,
				"method": "rhf"
			},
			{
				"type": "occ",
				"energy": -0.24535,
				"method": "rhf"
			},
			{
				"type": "unocc",
				"energy": -0.06897,
				"method": "rhf"
			},
			{
				"type": "unocc",
				"energy": -0.05797,
				"method": "rhf"
			},
			{
				"type": "unocc",
				"energy": -0.03945,
				"method": "rhf"
			},
			{
				"type": "unocc",
				"energy": -0.03516,
				"method": "rhf"
			},
			{
				"type": "unocc",
				"energy": 0.02742,
				"method": "rhf"
			}
		],
		"cosmo_sigma_profile": { 
			"0.0": 0.0,
			"0.0": 0.0,
			"0.0": 0.0,
			"0.0": 0.0,
			"0.0": 0.0,
			"0.0": 0.0,
			"0.0": 0.0,
			"0.0": 0.0,
			"0.0": 0.0,
			"0.0": 0.0,
			"0.0": 0.0,
			"0.0": 0.0,
			"0.0": 0.0,
			"0.0": 0.0,
			"0.0": 0.0,
			"0.0": 0.0,
			"0.0": 0.0,
			"0.0": 0.0,
			"0.0": 0.0,
			"0.0": 0.0,
			"0.0": 0.0,
			"0.0": 0.0,
			"0.0": 0.0,
			"0.0": 0.0,
			"0.0": 0.0,
			"0.0": 0.0,
			"0.0": 0.0,
			"0.0": 0.0,
			"0.0": 0.0,
			"0.0": 0.0,
			"0.0": 0.0,
			"0.0": 0.0,
			"0.0": 0.0,
			"0.0": 0.0,
			"0.0": 0.0,
			"0.0": 0.0,
			"0.0": 0.0,
			"0.0": 0.0,
			"0.0": 0.0,
			"0.0": 0.0,
			"0.0": 0.0,
			"0.0": 0.0,
			"0.0": 0.0,
			"0.0": 0.0,
			"0.0": 0.0,
			"0.0": 0.0,
			"0.0": 0.0,
			"0.0": 0.0,
			"0.0": 0.0,
			"0.0": 0.0,
			"0.0": 0.0
		}
	}
}
