{
	 "smiles": "OC1=C(C=O)C(Cl)=C(C=C1)[N+]([O-])=O", 
	 "Tm": 392.15, 
	 "num_atms": 17, 
	 "gaussian": { 
		 "optdone": 1, 
		 "sigma_profile": "yes", 
		 "theory": "DFT", 
		 "functional": "B3LYP", 
		 "basiset": "6-31G**", 
		 "properties": { 
			 "R2extent": 2801.4249, 
			 "electric_dipole_moment_norm": 2.32162210534, 
			 "electric_quadrupole_moment_norm": 12.9794688832, 
			 "total_energy": -1084.87714836, 
			 "HOMO_LUMO_gap": 0.16435, 
			 "cosmo_polarized_energy": -10.28, 
			 "cosmo_cavitation_energy": 24.06, 
			 "cosmo_dispersion_energy": -18.25, 
			 "cosmo_repulsion_energy": 1.41, 
			 "cosmo_total_nonelectrostatic_energy": 7.22, 
			 "SMD_solvation_energy": 7.47 
		},
		"coords": [
			{
				"x": -0.7571644622,
				"y": -2.3229645542,
				"z": 3.1062416926,
				"element": "O" 
			},
			{
				"x": -0.281638953,
				"y": -1.4255009145,
				"z": 2.2535877464,
				"element": "C" 
			},
			{
				"x": -1.0061207301,
				"y": -1.0496438508,
				"z": 1.081030094,
				"element": "C" 
			},
			{
				"x": -2.2947157707,
				"y": -1.6956009969,
				"z": 0.8329395512,
				"element": "C" 
			},
			{
				"x": -2.7832221106,
				"y": -2.537079868,
				"z": 1.5944367731,
				"element": "O" 
			},
			{
				"x": -0.4603665912,
				"y": -0.0733458478,
				"z": 0.211028831,
				"element": "C" 
			},
			{
				"x": -1.3323337891,
				"y": 0.3281571541,
				"z": -1.2454725537,
				"element": "Cl" 
			},
			{
				"x": 0.779804451,
				"y": 0.4948529177,
				"z": 0.5067591252,
				"element": "C" 
			},
			{
				"x": 1.488452805,
				"y": 0.0853851198,
				"z": 1.6522304652,
				"element": "C" 
			},
			{
				"x": 0.9723912135,
				"y": -0.8472379656,
				"z": 2.5224058649,
				"element": "C" 
			},
			{
				"x": 1.431789787,
				"y": 1.5234832733,
				"z": -0.3159606173,
				"element": "N" 
			},
			{
				"x": 0.7288793234,
				"y": 2.2988948325,
				"z": -0.9558500881,
				"element": "O" 
			},
			{
				"x": 2.663460109,
				"y": 1.5537644878,
				"z": -0.2792429239,
				"element": "O" 
			},
			{
				"x": -1.6407664883,
				"y": -2.6265826727,
				"z": 2.7533172135,
				"element": "H" 
			},
			{
				"x": -2.841323409,
				"y": -1.4057247993,
				"z": -0.0745879149,
				"element": "H" 
			},
			{
				"x": 2.4581368325,
				"y": 0.5356695489,
				"z": 1.8263031463,
				"element": "H" 
			},
			{
				"x": 1.5074377828,
				"y": -1.1536258642,
				"z": 3.4135335946,
				"element": "H" 
			}
		],
		 "valence_orbital": [ 
			{
				"type": "occ",
				"energy": -0.31629,
				"method": "rhf"
			},
			{
				"type": "occ",
				"energy": -0.30359,
				"method": "rhf"
			},
			{
				"type": "occ",
				"energy": -0.29477,
				"method": "rhf"
			},
			{
				"type": "occ",
				"energy": -0.29146,
				"method": "rhf"
			},
			{
				"type": "occ",
				"energy": -0.26759,
				"method": "rhf"
			},
			{
				"type": "unocc",
				"energy": -0.10324,
				"method": "rhf"
			},
			{
				"type": "unocc",
				"energy": -0.09447,
				"method": "rhf"
			},
			{
				"type": "unocc",
				"energy": -0.02541,
				"method": "rhf"
			},
			{
				"type": "unocc",
				"energy": -0.00393,
				"method": "rhf"
			},
			{
				"type": "unocc",
				"energy": 0.00659,
				"method": "rhf"
			}
		],
		"cosmo_sigma_profile": { 
			"-0.025": 0.0,
			"-0.024": 0.0,
			"-0.023": 0.0,
			"-0.022": 0.0,
			"-0.021": 0.0,
			"-0.02": 0.0,
			"-0.019": 0.0,
			"-0.018": 0.0,
			"-0.017": 0.0,
			"-0.016": 0.0,
			"-0.015": 0.0,
			"-0.014": 0.0,
			"-0.013": 0.0,
			"-0.012": 0.0,
			"-0.011": 0.0,
			"-0.01": 0.100914408044,
			"-0.009": 2.29596414237,
			"-0.008": 6.7912650247,
			"-0.007": 9.01544649803,
			"-0.006": 12.1547576651,
			"-0.005": 11.601565881,
			"-0.004": 12.7497870867,
			"-0.003": 19.4233268703,
			"-0.002": 16.7521185395,
			"-0.001": 13.3882354188,
			"0.0": 14.1842482149,
			"0.001": 8.91647960519,
			"0.002": 8.62689933105,
			"0.003": 6.42028484737,
			"0.004": 6.7651353927,
			"0.005": 5.5220930466,
			"0.006": 7.82303813288,
			"0.007": 11.8979160625,
			"0.008": 10.9735729957,
			"0.009": 7.14443587164,
			"0.01": 3.17784803055,
			"0.011": 0.972035134411,
			"0.012": 0.0,
			"0.013": 0.0,
			"0.014": 0.0,
			"0.015": 0.0,
			"0.016": 0.0,
			"0.017": 0.0,
			"0.018": 0.0,
			"0.019": 0.0,
			"0.02": 0.0,
			"0.021": 0.0,
			"0.022": 0.0,
			"0.023": 0.0,
			"0.024": 0.0,
			"0.025": 0.0
		}
	}
}
