{
	 "smiles": "IC1=NN=C(S1)C1=CC=CC=C1", 
	 "Tm": 379.15, 
	 "num_atms": 17, 
	 "gaussian": { 
		 "optdone": 1, 
		 "sigma_profile": "yes", 
		 "theory": "DFT", 
		 "functional": "B3LYP", 
		 "basiset": "6-31G**", 
		 "properties": { 
			 "R2extent": 2813.0464, 
			 "electric_dipole_moment_norm": 3.52453096738, 
			 "electric_quadrupole_moment_norm": 12.6211694593, 
			 "total_energy": -826.904210845, 
			 "HOMO_LUMO_gap": 0.17146, 
			 "cosmo_polarized_energy": -8.86, 
			 "cosmo_cavitation_energy": 26.71, 
			 "cosmo_dispersion_energy": -21.95, 
			 "cosmo_repulsion_energy": 1.65, 
			 "cosmo_total_nonelectrostatic_energy": 6.42, 
			 "SMD_solvation_energy": 1.49 
		},
		"coords": [
			{
				"x": 3.7874992299,
				"y": 2.4014556679,
				"z": -2.698844982,
				"element": "I" 
			},
			{
				"x": 2.5871122885,
				"y": 1.5543754338,
				"z": -1.2176623445,
				"element": "C" 
			},
			{
				"x": 2.9178165613,
				"y": 1.5260327637,
				"z": 0.0373730953,
				"element": "N" 
			},
			{
				"x": 1.9706247299,
				"y": 0.9194624528,
				"z": 0.8107887647,
				"element": "N" 
			},
			{
				"x": 0.9267596436,
				"y": 0.489797512,
				"z": 0.1450043412,
				"element": "C" 
			},
			{
				"x": 1.0414783662,
				"y": 0.8187859505,
				"z": -1.5834659772,
				"element": "S" 
			},
			{
				"x": -0.2100019776,
				"y": -0.1912299541,
				"z": 0.7758167624,
				"element": "C" 
			},
			{
				"x": -1.3121822782,
				"y": -0.6384071952,
				"z": 0.0303383433,
				"element": "C" 
			},
			{
				"x": -2.3752786759,
				"y": -1.2814897393,
				"z": 0.6606026609,
				"element": "C" 
			},
			{
				"x": -2.3512200006,
				"y": -1.4859331496,
				"z": 2.0414577698,
				"element": "C" 
			},
			{
				"x": -1.2569558388,
				"y": -1.0433626778,
				"z": 2.790192612,
				"element": "C" 
			},
			{
				"x": -0.1921349444,
				"y": -0.40047241,
				"z": 2.1667998073,
				"element": "C" 
			},
			{
				"x": -1.3438184704,
				"y": -0.4857636173,
				"z": -1.0451003751,
				"element": "H" 
			},
			{
				"x": -3.2218753104,
				"y": -1.6225236136,
				"z": 0.0725406054,
				"element": "H" 
			},
			{
				"x": -3.180390174,
				"y": -1.9873339599,
				"z": 2.5318071053,
				"element": "H" 
			},
			{
				"x": -1.2336462735,
				"y": -1.2000641845,
				"z": 3.8644887626,
				"element": "H" 
			},
			{
				"x": 0.6621131244,
				"y": -0.0526292796,
				"z": 2.7365630485,
				"element": "H" 
			}
		],
		 "valence_orbital": [ 
			{
				"type": "occ",
				"energy": -0.28804,
				"method": "rhf"
			},
			{
				"type": "occ",
				"energy": -0.28067,
				"method": "rhf"
			},
			{
				"type": "occ",
				"energy": -0.27405,
				"method": "rhf"
			},
			{
				"type": "occ",
				"energy": -0.26773,
				"method": "rhf"
			},
			{
				"type": "occ",
				"energy": -0.24361,
				"method": "rhf"
			},
			{
				"type": "unocc",
				"energy": -0.07215,
				"method": "rhf"
			},
			{
				"type": "unocc",
				"energy": -0.06054,
				"method": "rhf"
			},
			{
				"type": "unocc",
				"energy": -0.01991,
				"method": "rhf"
			},
			{
				"type": "unocc",
				"energy": -0.01039,
				"method": "rhf"
			},
			{
				"type": "unocc",
				"energy": -0.00675,
				"method": "rhf"
			}
		],
		"cosmo_sigma_profile": { 
			"-0.025": 0.0,
			"-0.024": 0.0,
			"-0.023": 0.0,
			"-0.022": 0.0,
			"-0.021": 0.0,
			"-0.02": 0.0,
			"-0.019": 0.0,
			"-0.018": 0.0,
			"-0.017": 0.0,
			"-0.016": 0.0,
			"-0.015": 0.0,
			"-0.014": 0.0,
			"-0.013": 0.0,
			"-0.012": 0.0,
			"-0.011": 0.0,
			"-0.01": 0.515904948896,
			"-0.009": 1.32744812357,
			"-0.008": 2.48541465489,
			"-0.007": 5.08720915248,
			"-0.006": 11.8687906203,
			"-0.005": 13.2199901599,
			"-0.004": 14.9081229808,
			"-0.003": 18.3535399942,
			"-0.002": 20.0097513264,
			"-0.001": 16.6720122933,
			"0.0": 18.9874188846,
			"0.001": 21.3189742296,
			"0.002": 23.7303032488,
			"0.003": 19.5590852913,
			"0.004": 13.2609086791,
			"0.005": 3.00235809248,
			"0.006": 2.52141004227,
			"0.007": 2.67655395212,
			"0.008": 1.87349704436,
			"0.009": 2.52038402954,
			"0.01": 2.83602997174,
			"0.011": 3.21770612808,
			"0.012": 2.15791300661,
			"0.013": 1.03452515045,
			"0.014": 0.555568140259,
			"0.015": 0.0,
			"0.016": 0.0,
			"0.017": 0.0,
			"0.018": 0.0,
			"0.019": 0.0,
			"0.02": 0.0,
			"0.021": 0.0,
			"0.022": 0.0,
			"0.023": 0.0,
			"0.024": 0.0,
			"0.025": 0.0
		}
	}
}
