{
	 "smiles": "CC1CC(=O)C2=C(O)C=CC(Cl)=C12", 
	 "Tm": 329.15, 
	 "num_atms": 22, 
	 "gaussian": { 
		 "optdone": 1, 
		 "sigma_profile": "yes", 
		 "theory": "DFT", 
		 "functional": "B3LYP", 
		 "basiset": "6-31G**", 
		 "properties": { 
			 "R2extent": 4027.6357, 
			 "electric_dipole_moment_norm": 1.66955486882, 
			 "electric_quadrupole_moment_norm": 9.79364232296, 
			 "total_energy": -997.149778365, 
			 "HOMO_LUMO_gap": 0.16551, 
			 "cosmo_polarized_energy": -7.45, 
			 "cosmo_cavitation_energy": 26.58, 
			 "cosmo_dispersion_energy": -19.88, 
			 "cosmo_repulsion_energy": 1.56, 
			 "cosmo_total_nonelectrostatic_energy": 8.26, 
			 "SMD_solvation_energy": 4.8 
		},
		"coords": [
			{
				"x": 1.2942079647,
				"y": -1.9546630164,
				"z": 0.1718494849,
				"element": "C" 
			},
			{
				"x": 0.7493351672,
				"y": -0.5183222877,
				"z": 0.2856316112,
				"element": "C" 
			},
			{
				"x": -0.5297167357,
				"y": -0.3047818608,
				"z": -0.5791013134,
				"element": "C" 
			},
			{
				"x": -0.1357190085,
				"y": 0.6752275886,
				"z": -1.6828431624,
				"element": "C" 
			},
			{
				"x": -0.8220071255,
				"y": 1.0446627482,
				"z": -2.6361011498,
				"element": "O" 
			},
			{
				"x": 1.2129904409,
				"y": 1.1413292755,
				"z": -1.3963692858,
				"element": "C" 
			},
			{
				"x": 1.9061379176,
				"y": 2.1180095214,
				"z": -2.1297240354,
				"element": "C" 
			},
			{
				"x": 1.3624640244,
				"y": 2.6815994468,
				"z": -3.2212734511,
				"element": "O" 
			},
			{
				"x": 3.1786266999,
				"y": 2.4884267241,
				"z": -1.6734762306,
				"element": "C" 
			},
			{
				"x": 3.6967620914,
				"y": 1.8912907026,
				"z": -0.5242867304,
				"element": "C" 
			},
			{
				"x": 2.9841361058,
				"y": 0.9143388701,
				"z": 0.1905894318,
				"element": "C" 
			},
			{
				"x": 3.6963632623,
				"y": 0.2355467379,
				"z": 1.6521050213,
				"element": "Cl" 
			},
			{
				"x": 1.7279741058,
				"y": 0.5200101191,
				"z": -0.2513456759,
				"element": "C" 
			},
			{
				"x": 1.5040516321,
				"y": -2.2069661544,
				"z": -0.8731364461,
				"element": "H" 
			},
			{
				"x": 0.5580567328,
				"y": -2.6696460313,
				"z": 0.5530840717,
				"element": "H" 
			},
			{
				"x": 2.2164548611,
				"y": -2.0775797814,
				"z": 0.7440650888,
				"element": "H" 
			},
			{
				"x": 0.5417439661,
				"y": -0.310977883,
				"z": 1.3419863026,
				"element": "H" 
			},
			{
				"x": -0.9125320401,
				"y": -1.2331843527,
				"z": -1.0143108425,
				"element": "H" 
			},
			{
				"x": -1.3513049261,
				"y": 0.1358770432,
				"z": -0.0027769665,
				"element": "H" 
			},
			{
				"x": 0.4723171678,
				"y": 2.2805133127,
				"z": -3.3414514946,
				"element": "H" 
			},
			{
				"x": 3.7442173609,
				"y": 3.2422498675,
				"z": -2.2101284149,
				"element": "H" 
			},
			{
				"x": 4.6769403353,
				"y": 2.1881394101,
				"z": -0.1655858128,
				"element": "H" 
			}
		],
		 "valence_orbital": [ 
			{
				"type": "occ",
				"energy": -0.31985,
				"method": "rhf"
			},
			{
				"type": "occ",
				"energy": -0.31665,
				"method": "rhf"
			},
			{
				"type": "occ",
				"energy": -0.27165,
				"method": "rhf"
			},
			{
				"type": "occ",
				"energy": -0.2639,
				"method": "rhf"
			},
			{
				"type": "occ",
				"energy": -0.23213,
				"method": "rhf"
			},
			{
				"type": "unocc",
				"energy": -0.06662,
				"method": "rhf"
			},
			{
				"type": "unocc",
				"energy": -0.0145,
				"method": "rhf"
			},
			{
				"type": "unocc",
				"energy": 0.02548,
				"method": "rhf"
			},
			{
				"type": "unocc",
				"energy": 0.03131,
				"method": "rhf"
			},
			{
				"type": "unocc",
				"energy": 0.09014,
				"method": "rhf"
			}
		],
		"cosmo_sigma_profile": { 
			"-0.025": 0.0,
			"-0.024": 0.0,
			"-0.023": 0.0,
			"-0.022": 0.0,
			"-0.021": 0.0,
			"-0.02": 0.0,
			"-0.019": 0.0,
			"-0.018": 0.0,
			"-0.017": 0.0,
			"-0.016": 0.0,
			"-0.015": 0.0,
			"-0.014": 0.0,
			"-0.013": 0.0,
			"-0.012": 0.0,
			"-0.011": 0.0,
			"-0.01": 0.00777482021028,
			"-0.009": 0.55557789474,
			"-0.008": 1.95505417187,
			"-0.007": 5.03448813992,
			"-0.006": 9.20677144436,
			"-0.005": 14.8239161459,
			"-0.004": 17.7890608639,
			"-0.003": 17.4874370993,
			"-0.002": 18.1735859894,
			"-0.001": 15.6557025104,
			"0.0": 22.3279320719,
			"0.001": 22.838794992,
			"0.002": 18.4512636485,
			"0.003": 11.6220505926,
			"0.004": 9.95870015299,
			"0.005": 6.95802837702,
			"0.006": 2.42261245883,
			"0.007": 3.68058754628,
			"0.008": 2.06658288715,
			"0.009": 3.05605529254,
			"0.01": 3.95281138178,
			"0.011": 3.02147137264,
			"0.012": 1.64680208742,
			"0.013": 1.01281766801,
			"0.014": 0.0267743023544,
			"0.015": 0.0,
			"0.016": 0.0,
			"0.017": 0.0,
			"0.018": 0.0,
			"0.019": 0.0,
			"0.02": 0.0,
			"0.021": 0.0,
			"0.022": 0.0,
			"0.023": 0.0,
			"0.024": 0.0,
			"0.025": 0.0
		}
	}
}
