{
	 "smiles": "CN1N=C(O)C=C1C(F)(F)F", 
	 "Tm": 387.15, 
	 "num_atms": 16, 
	 "gaussian": { 
		 "optdone": 1, 
		 "sigma_profile": "yes", 
		 "theory": "DFT", 
		 "functional": "B3LYP", 
		 "basiset": "6-31G**", 
		 "properties": { 
			 "R2extent": 1885.2212, 
			 "electric_dipole_moment_norm": 1.0987502719, 
			 "electric_quadrupole_moment_norm": 15.8509988158, 
			 "total_energy": -677.763371905, 
			 "HOMO_LUMO_gap": 0.22153, 
			 "cosmo_polarized_energy": -11.26, 
			 "cosmo_cavitation_energy": 21.81, 
			 "cosmo_dispersion_energy": -15.72, 
			 "cosmo_repulsion_energy": 1.21, 
			 "cosmo_total_nonelectrostatic_energy": 7.31, 
			 "SMD_solvation_energy": 4.53 
		},
		"coords": [
			{
				"x": -0.4778236382,
				"y": 1.2200567702,
				"z": 2.0161070407,
				"element": "C" 
			},
			{
				"x": -0.313123798,
				"y": 0.2778289099,
				"z": 0.9215631025,
				"element": "N" 
			},
			{
				"x": -1.4027887031,
				"y": -0.1165161952,
				"z": 0.2203428245,
				"element": "N" 
			},
			{
				"x": -0.9205629808,
				"y": -0.8868826311,
				"z": -0.7494172291,
				"element": "C" 
			},
			{
				"x": -1.7929720967,
				"y": -1.4512896166,
				"z": -1.6196270388,
				"element": "O" 
			},
			{
				"x": 0.4877690761,
				"y": -0.9960775485,
				"z": -0.7003080548,
				"element": "C" 
			},
			{
				"x": 0.8344963096,
				"y": -0.2215671884,
				"z": 0.3934621273,
				"element": "C" 
			},
			{
				"x": 2.1848577292,
				"y": 0.0666641714,
				"z": 0.9522478931,
				"element": "C" 
			},
			{
				"x": 3.1390318433,
				"y": -0.5415599194,
				"z": 0.2262580127,
				"element": "F" 
			},
			{
				"x": 2.3072691344,
				"y": -0.3580928726,
				"z": 2.2347635593,
				"element": "F" 
			},
			{
				"x": 2.4540144845,
				"y": 1.3942812638,
				"z": 0.9653231113,
				"element": "F" 
			},
			{
				"x": -0.436773835,
				"y": 2.2527806458,
				"z": 1.6557790393,
				"element": "H" 
			},
			{
				"x": -1.4517994889,
				"y": 1.0345917134,
				"z": 2.4684799328,
				"element": "H" 
			},
			{
				"x": 0.3074220067,
				"y": 1.0607073716,
				"z": 2.7552759032,
				"element": "H" 
			},
			{
				"x": -1.2956410694,
				"y": -1.9750569313,
				"z": -2.2589091749,
				"element": "H" 
			},
			{
				"x": 1.1534250264,
				"y": -1.5540679429,
				"z": -1.3409410491,
				"element": "H" 
			}
		],
		 "valence_orbital": [ 
			{
				"type": "occ",
				"energy": -0.37254,
				"method": "rhf"
			},
			{
				"type": "occ",
				"energy": -0.36327,
				"method": "rhf"
			},
			{
				"type": "occ",
				"energy": -0.29899,
				"method": "rhf"
			},
			{
				"type": "occ",
				"energy": -0.26385,
				"method": "rhf"
			},
			{
				"type": "occ",
				"energy": -0.23139,
				"method": "rhf"
			},
			{
				"type": "unocc",
				"energy": -0.00986,
				"method": "rhf"
			},
			{
				"type": "unocc",
				"energy": 0.06011,
				"method": "rhf"
			},
			{
				"type": "unocc",
				"energy": 0.07461,
				"method": "rhf"
			},
			{
				"type": "unocc",
				"energy": 0.10092,
				"method": "rhf"
			},
			{
				"type": "unocc",
				"energy": 0.11471,
				"method": "rhf"
			}
		],
		"cosmo_sigma_profile": { 
			"-0.025": 0.0,
			"-0.024": 0.0,
			"-0.023": 0.0,
			"-0.022": 0.0,
			"-0.021": 0.0,
			"-0.02": 0.0,
			"-0.019": 0.64516725309,
			"-0.018": 1.16254849101,
			"-0.017": 0.802902652567,
			"-0.016": 1.19591429517,
			"-0.015": 0.744791633821,
			"-0.014": 0.741645160802,
			"-0.013": 0.51108378459,
			"-0.012": 0.981957482963,
			"-0.011": 1.66225383456,
			"-0.01": 1.45047471051,
			"-0.009": 0.977772649209,
			"-0.008": 2.11869988058,
			"-0.007": 3.80449062601,
			"-0.006": 7.89620422958,
			"-0.005": 7.77493292388,
			"-0.004": 10.2866637957,
			"-0.003": 10.2634389578,
			"-0.002": 9.17776196327,
			"-0.001": 10.6426684333,
			"0.0": 10.9345962856,
			"0.001": 14.3807500376,
			"0.002": 32.6127818477,
			"0.003": 15.218544843,
			"0.004": 2.88179242897,
			"0.005": 1.98534784347,
			"0.006": 2.41042090813,
			"0.007": 2.4288658131,
			"0.008": 2.28273349374,
			"0.009": 3.11249825517,
			"0.01": 4.34917680774,
			"0.011": 4.37374075373,
			"0.012": 1.5617127153,
			"0.013": 1.21194331528,
			"0.014": 1.1917485225,
			"0.015": 0.522154512452,
			"0.016": 0.0,
			"0.017": 0.0,
			"0.018": 0.0,
			"0.019": 0.0,
			"0.02": 0.0,
			"0.021": 0.0,
			"0.022": 0.0,
			"0.023": 0.0,
			"0.024": 0.0,
			"0.025": 0.0
		}
	}
}
