{
	 "smiles": "O=C1NC(=O)C2(CCC3=C2C=CC=C3)N1", 
	 "Tm": 503.15, 
	 "num_atms": 25, 
	 "gaussian": { 
		 "optdone": 1, 
		 "sigma_profile": "yes", 
		 "theory": "DFT", 
		 "functional": "B3LYP", 
		 "basiset": "6-31G**", 
		 "properties": { 
			 "R2extent": 3253.3912, 
			 "electric_dipole_moment_norm": 2.86595957055, 
			 "electric_quadrupole_moment_norm": 11.6863715776, 
			 "total_energy": -685.196319322, 
			 "HOMO_LUMO_gap": 0.22469, 
			 "cosmo_polarized_energy": -16.17, 
			 "cosmo_cavitation_energy": 28.68, 
			 "cosmo_dispersion_energy": -20.64, 
			 "cosmo_repulsion_energy": 1.62, 
			 "cosmo_total_nonelectrostatic_energy": 9.66, 
			 "SMD_solvation_energy": 5.58 
		},
		"coords": [
			{
				"x": 2.2507198768,
				"y": 0.3244244914,
				"z": -4.0852221149,
				"element": "O" 
			},
			{
				"x": 1.8200884485,
				"y": 0.6662311246,
				"z": -3.0041787668,
				"element": "C" 
			},
			{
				"x": 0.6887456035,
				"y": 1.4801255393,
				"z": -2.7800058668,
				"element": "N" 
			},
			{
				"x": 0.4124272367,
				"y": 1.6766702563,
				"z": -1.4438754235,
				"element": "C" 
			},
			{
				"x": -0.4636835327,
				"y": 2.3667762954,
				"z": -0.9683457336,
				"element": "O" 
			},
			{
				"x": 1.4663894911,
				"y": 0.848649179,
				"z": -0.6642916196,
				"element": "C" 
			},
			{
				"x": 2.1882881813,
				"y": 1.7244502265,
				"z": 0.4012319003,
				"element": "C" 
			},
			{
				"x": 1.3712006318,
				"y": 1.5376506563,
				"z": 1.7007658277,
				"element": "C" 
			},
			{
				"x": 0.7585124863,
				"y": 0.1647236049,
				"z": 1.5255040144,
				"element": "C" 
			},
			{
				"x": 0.8093489532,
				"y": -0.2324743499,
				"z": 0.18549714,
				"element": "C" 
			},
			{
				"x": 0.2943835986,
				"y": -1.4583793925,
				"z": -0.2289227262,
				"element": "C" 
			},
			{
				"x": -0.2752980352,
				"y": -2.3022972387,
				"z": 0.7284813925,
				"element": "C" 
			},
			{
				"x": -0.3287433387,
				"y": -1.9126578589,
				"z": 2.0709084389,
				"element": "C" 
			},
			{
				"x": 0.1861273639,
				"y": -0.6776269248,
				"z": 2.477211231,
				"element": "C" 
			},
			{
				"x": 2.3064131491,
				"y": 0.3712400104,
				"z": -1.7535705812,
				"element": "N" 
			},
			{
				"x": 0.1720459735,
				"y": 1.9044143182,
				"z": -3.5369646131,
				"element": "H" 
			},
			{
				"x": 2.2794308344,
				"y": 2.7674440031,
				"z": 0.0887687945,
				"element": "H" 
			},
			{
				"x": 3.1992682033,
				"y": 1.3222072637,
				"z": 0.5293129771,
				"element": "H" 
			},
			{
				"x": 1.987504805,
				"y": 1.6235679031,
				"z": 2.6017049513,
				"element": "H" 
			},
			{
				"x": 0.5827876097,
				"y": 2.2961874466,
				"z": 1.7654399717,
				"element": "H" 
			},
			{
				"x": 0.3431383792,
				"y": -1.7596186165,
				"z": -1.2721027313,
				"element": "H" 
			},
			{
				"x": -0.675775057,
				"y": -3.2663540389,
				"z": 0.4290847099,
				"element": "H" 
			},
			{
				"x": -0.7702790766,
				"y": -2.5792091133,
				"z": 2.8063043461,
				"element": "H" 
			},
			{
				"x": 0.1459898292,
				"y": -0.3847947837,
				"z": 3.5230829893,
				"element": "H" 
			},
			{
				"x": 2.994168385,
				"y": -0.3587500016,
				"z": -1.6451185076,
				"element": "H" 
			}
		],
		 "valence_orbital": [ 
			{
				"type": "occ",
				"energy": -0.28945,
				"method": "rhf"
			},
			{
				"type": "occ",
				"energy": -0.27022,
				"method": "rhf"
			},
			{
				"type": "occ",
				"energy": -0.26628,
				"method": "rhf"
			},
			{
				"type": "occ",
				"energy": -0.2548,
				"method": "rhf"
			},
			{
				"type": "occ",
				"energy": -0.24437,
				"method": "rhf"
			},
			{
				"type": "unocc",
				"energy": -0.01968,
				"method": "rhf"
			},
			{
				"type": "unocc",
				"energy": -0.01392,
				"method": "rhf"
			},
			{
				"type": "unocc",
				"energy": -0.00201,
				"method": "rhf"
			},
			{
				"type": "unocc",
				"energy": 0.06457,
				"method": "rhf"
			},
			{
				"type": "unocc",
				"energy": 0.07947,
				"method": "rhf"
			}
		],
		"cosmo_sigma_profile": { 
			"-0.025": 0.0,
			"-0.024": 0.0,
			"-0.023": 0.0,
			"-0.022": 0.0,
			"-0.021": 0.0,
			"-0.02": 0.0,
			"-0.019": 0.0,
			"-0.018": 0.0,
			"-0.017": 0.349538635207,
			"-0.016": 1.41372348781,
			"-0.015": 2.07111831786,
			"-0.014": 2.14426762506,
			"-0.013": 1.66086910763,
			"-0.012": 1.43161484191,
			"-0.011": 2.0296338399,
			"-0.01": 2.56974140476,
			"-0.009": 1.2959866157,
			"-0.008": 2.11616963423,
			"-0.007": 1.99627243114,
			"-0.006": 9.10197715096,
			"-0.005": 16.8001375428,
			"-0.004": 21.0065968785,
			"-0.003": 21.5971541152,
			"-0.002": 19.4670141901,
			"-0.001": 18.310772879,
			"0.0": 11.4137885251,
			"0.001": 8.58076341421,
			"0.002": 9.24592335248,
			"0.003": 10.9249040906,
			"0.004": 10.0704504648,
			"0.005": 12.6344223236,
			"0.006": 6.51292012505,
			"0.007": 3.20197473482,
			"0.008": 2.00184639944,
			"0.009": 3.1262685312,
			"0.01": 3.01473413768,
			"0.011": 5.85033114368,
			"0.012": 8.87184380964,
			"0.013": 6.38548456464,
			"0.014": 0.62578613825,
			"0.015": 0.0,
			"0.016": 0.0,
			"0.017": 0.0,
			"0.018": 0.0,
			"0.019": 0.0,
			"0.02": 0.0,
			"0.021": 0.0,
			"0.022": 0.0,
			"0.023": 0.0,
			"0.024": 0.0,
			"0.025": 0.0
		}
	}
}
