{
	 "smiles": "OCC(Br)=C(Br)CO", 
	 "Tm": 387.15, 
	 "num_atms": 14, 
	 "gaussian": { 
		 "optdone": 1, 
		 "sigma_profile": "yes", 
		 "theory": "DFT", 
		 "functional": "B3LYP", 
		 "basiset": "6-31G**", 
		 "properties": { 
			 "R2extent": 3141.6869, 
			 "electric_dipole_moment_norm": 2.1468196594, 
			 "electric_quadrupole_moment_norm": 8.0400008352, 
			 "total_energy": -5449.24726601, 
			 "HOMO_LUMO_gap": 0.2117, 
			 "cosmo_polarized_energy": -10.81, 
			 "cosmo_cavitation_energy": 22.15, 
			 "cosmo_dispersion_energy": -17.03, 
			 "cosmo_repulsion_energy": 1.44, 
			 "cosmo_total_nonelectrostatic_energy": 6.56, 
			 "SMD_solvation_energy": 2.08 
		},
		"coords": [
			{
				"x": 1.3383511951,
				"y": -1.7431090122,
				"z": -2.1003885152,
				"element": "O" 
			},
			{
				"x": 0.3450185879,
				"y": -0.9554692201,
				"z": -1.4713726949,
				"element": "C" 
			},
			{
				"x": 0.9166198616,
				"y": 0.139700369,
				"z": -0.5999017521,
				"element": "C" 
			},
			{
				"x": 2.0613260641,
				"y": -0.55296256,
				"z": 0.7862813626,
				"element": "Br" 
			},
			{
				"x": 0.7458798748,
				"y": 1.4618824957,
				"z": -0.6991772839,
				"element": "C" 
			},
			{
				"x": -0.3683122518,
				"y": 2.1743121659,
				"z": -2.1209398661,
				"element": "Br" 
			},
			{
				"x": 1.3180057968,
				"y": 2.5745346135,
				"z": 0.1522515339,
				"element": "C" 
			},
			{
				"x": 0.3339867462,
				"y": 3.4125622803,
				"z": 0.7195384735,
				"element": "O" 
			},
			{
				"x": 1.8371390664,
				"y": -1.1714534464,
				"z": -2.699236631,
				"element": "H" 
			},
			{
				"x": -0.2254236877,
				"y": -1.6436963985,
				"z": -0.8399985626,
				"element": "H" 
			},
			{
				"x": -0.3454746649,
				"y": -0.5068606313,
				"z": -2.1944384732,
				"element": "H" 
			},
			{
				"x": 2.0341782266,
				"y": 3.141907083,
				"z": -0.4637044427,
				"element": "H" 
			},
			{
				"x": 1.8664458936,
				"y": 2.1302415845,
				"z": 0.9837616844,
				"element": "H" 
			},
			{
				"x": -0.1485407088,
				"y": 3.8351106765,
				"z": -0.0050748325,
				"element": "H" 
			}
		],
		 "valence_orbital": [ 
			{
				"type": "occ",
				"energy": -0.3145,
				"method": "rhf"
			},
			{
				"type": "occ",
				"energy": -0.2948,
				"method": "rhf"
			},
			{
				"type": "occ",
				"energy": -0.29021,
				"method": "rhf"
			},
			{
				"type": "occ",
				"energy": -0.28086,
				"method": "rhf"
			},
			{
				"type": "occ",
				"energy": -0.25557,
				"method": "rhf"
			},
			{
				"type": "unocc",
				"energy": -0.04387,
				"method": "rhf"
			},
			{
				"type": "unocc",
				"energy": -0.03056,
				"method": "rhf"
			},
			{
				"type": "unocc",
				"energy": 0.03295,
				"method": "rhf"
			},
			{
				"type": "unocc",
				"energy": 0.07969,
				"method": "rhf"
			},
			{
				"type": "unocc",
				"energy": 0.08754,
				"method": "rhf"
			}
		],
		"cosmo_sigma_profile": { 
			"-0.025": 0.0,
			"-0.024": 0.0,
			"-0.023": 0.0,
			"-0.022": 0.0,
			"-0.021": 0.0,
			"-0.02": 0.0,
			"-0.019": 0.0,
			"-0.018": 0.0,
			"-0.017": 0.0459058735977,
			"-0.016": 0.879010412578,
			"-0.015": 1.03088535057,
			"-0.014": 1.27874241649,
			"-0.013": 1.66678422135,
			"-0.012": 1.95196526162,
			"-0.011": 1.43095202608,
			"-0.01": 1.34450496546,
			"-0.009": 1.63049758615,
			"-0.008": 1.84353505571,
			"-0.007": 3.08678974834,
			"-0.006": 7.21732220158,
			"-0.005": 11.5494582265,
			"-0.004": 14.0620116736,
			"-0.003": 13.4063173076,
			"-0.002": 11.8271615055,
			"-0.001": 12.6689051044,
			"0.0": 12.4760288639,
			"0.001": 14.5525945317,
			"0.002": 12.6218746369,
			"0.003": 12.3532320765,
			"0.004": 12.66116233,
			"0.005": 4.12070706717,
			"0.006": 2.44476793744,
			"0.007": 3.12668374907,
			"0.008": 3.38259735628,
			"0.009": 2.21906076021,
			"0.01": 1.89945008022,
			"0.011": 3.47683688172,
			"0.012": 3.25140507516,
			"0.013": 4.4208513718,
			"0.014": 1.32815737868,
			"0.015": 0.0,
			"0.016": 0.0,
			"0.017": 0.0,
			"0.018": 0.0,
			"0.019": 0.0,
			"0.02": 0.0,
			"0.021": 0.0,
			"0.022": 0.0,
			"0.023": 0.0,
			"0.024": 0.0,
			"0.025": 0.0
		}
	}
}
