{
	 "smiles": "NC1=NC(C2=CC=CS2)=C(S1)C1=CC=CS1", 
	 "Tm": 413.15, 
	 "num_atms": 24, 
	 "gaussian": { 
		 "optdone": 1, 
		 "sigma_profile": "yes", 
		 "theory": "DFT", 
		 "functional": "B3LYP", 
		 "basiset": "6-31G**", 
		 "properties": { 
			 "R2extent": 5019.5495, 
			 "electric_dipole_moment_norm": 1.45420660843, 
			 "electric_quadrupole_moment_norm": 15.9557853959, 
			 "total_energy": -1728.02901246, 
			 "HOMO_LUMO_gap": 0.15706, 
			 "cosmo_polarized_energy": -12.97, 
			 "cosmo_cavitation_energy": 33.49, 
			 "cosmo_dispersion_energy": -25.26, 
			 "cosmo_repulsion_energy": 1.86, 
			 "cosmo_total_nonelectrostatic_energy": 10.09, 
			 "SMD_solvation_energy": 3.79 
		},
		"coords": [
			{
				"x": 1.1157579332,
				"y": -2.4766271622,
				"z": 3.2332239186,
				"element": "N" 
			},
			{
				"x": 0.7736534226,
				"y": -1.4815702909,
				"z": 2.3496079482,
				"element": "C" 
			},
			{
				"x": 1.4726268343,
				"y": -1.1855923155,
				"z": 1.2937752062,
				"element": "N" 
			},
			{
				"x": 0.8595208787,
				"y": -0.204462867,
				"z": 0.5311534877,
				"element": "C" 
			},
			{
				"x": 1.5429211815,
				"y": 0.2060782368,
				"z": -0.6903830563,
				"element": "C" 
			},
			{
				"x": 1.1395236212,
				"y": 1.0325387987,
				"z": -1.7177748893,
				"element": "C" 
			},
			{
				"x": 2.117279982,
				"y": 1.1719069369,
				"z": -2.7422967557,
				"element": "C" 
			},
			{
				"x": 3.2549267298,
				"y": 0.4514707714,
				"z": -2.491483758,
				"element": "C" 
			},
			{
				"x": 3.1528250203,
				"y": -0.4169032213,
				"z": -0.9981593977,
				"element": "S" 
			},
			{
				"x": -0.3365809835,
				"y": 0.2789480064,
				"z": 1.0217308597,
				"element": "C" 
			},
			{
				"x": -0.7283753489,
				"y": -0.5779160992,
				"z": 2.5225776242,
				"element": "S" 
			},
			{
				"x": -1.2151121039,
				"y": 1.3380601313,
				"z": 0.5320390836,
				"element": "C" 
			},
			{
				"x": -2.3913490265,
				"y": 1.224576683,
				"z": -0.1719166538,
				"element": "C" 
			},
			{
				"x": -3.0017837004,
				"y": 2.4775054586,
				"z": -0.4735429226,
				"element": "C" 
			},
			{
				"x": -2.2893924583,
				"y": 3.5419721159,
				"z": 0.0097375136,
				"element": "C" 
			},
			{
				"x": -0.8631716609,
				"y": 3.0328271284,
				"z": 0.8471197026,
				"element": "S" 
			},
			{
				"x": 0.8243055939,
				"y": -2.363016934,
				"z": 4.1932154445,
				"element": "H" 
			},
			{
				"x": 2.0694579137,
				"y": -2.795668897,
				"z": 3.1217201354,
				"element": "H" 
			},
			{
				"x": 0.1703680585,
				"y": 1.5131150398,
				"z": -1.7424988165,
				"element": "H" 
			},
			{
				"x": 1.9757212423,
				"y": 1.779966652,
				"z": -3.6287264434,
				"element": "H" 
			},
			{
				"x": 4.1452344171,
				"y": 0.3763446714,
				"z": -3.1008113875,
				"element": "H" 
			},
			{
				"x": -2.7955089724,
				"y": 0.2636168562,
				"z": -0.4696979218,
				"element": "H" 
			},
			{
				"x": -3.9273899028,
				"y": 2.5802980967,
				"z": -1.0283813203,
				"element": "H" 
			},
			{
				"x": -2.5190586714,
				"y": 4.5950322036,
				"z": -0.0807276014,
				"element": "H" 
			}
		],
		 "valence_orbital": [ 
			{
				"type": "occ",
				"energy": -0.25387,
				"method": "rhf"
			},
			{
				"type": "occ",
				"energy": -0.24258,
				"method": "rhf"
			},
			{
				"type": "occ",
				"energy": -0.23798,
				"method": "rhf"
			},
			{
				"type": "occ",
				"energy": -0.23366,
				"method": "rhf"
			},
			{
				"type": "occ",
				"energy": -0.19459,
				"method": "rhf"
			},
			{
				"type": "unocc",
				"energy": -0.03753,
				"method": "rhf"
			},
			{
				"type": "unocc",
				"energy": -0.02378,
				"method": "rhf"
			},
			{
				"type": "unocc",
				"energy": 0.0035,
				"method": "rhf"
			},
			{
				"type": "unocc",
				"energy": 0.01095,
				"method": "rhf"
			},
			{
				"type": "unocc",
				"energy": 0.03169,
				"method": "rhf"
			}
		],
		"cosmo_sigma_profile": { 
			"-0.025": 0.0,
			"-0.024": 0.0,
			"-0.023": 0.0,
			"-0.022": 0.0,
			"-0.021": 0.0,
			"-0.02": 0.0,
			"-0.019": 0.0,
			"-0.018": 0.0,
			"-0.017": 0.0,
			"-0.016": 0.0,
			"-0.015": 0.794862806954,
			"-0.014": 2.45570227352,
			"-0.013": 2.51824537453,
			"-0.012": 2.41699849236,
			"-0.011": 3.38201539712,
			"-0.01": 2.18252277816,
			"-0.009": 2.43818627652,
			"-0.008": 5.41751299676,
			"-0.007": 7.91660085482,
			"-0.006": 11.5778182236,
			"-0.005": 10.4150481366,
			"-0.004": 12.7685237736,
			"-0.003": 13.1455299925,
			"-0.002": 12.8251884505,
			"-0.001": 13.8881053519,
			"0.0": 22.3163353135,
			"0.001": 23.5958069272,
			"0.002": 27.1146952979,
			"0.003": 29.0047819349,
			"0.004": 32.087340867,
			"0.005": 20.4848327937,
			"0.006": 5.41545491924,
			"0.007": 2.09957701491,
			"0.008": 2.9418022644,
			"0.009": 2.31833096842,
			"0.01": 1.95451110134,
			"0.011": 2.02717092809,
			"0.012": 0.630702927759,
			"0.013": 0.0,
			"0.014": 0.0,
			"0.015": 0.0,
			"0.016": 0.0,
			"0.017": 0.0,
			"0.018": 0.0,
			"0.019": 0.0,
			"0.02": 0.0,
			"0.021": 0.0,
			"0.022": 0.0,
			"0.023": 0.0,
			"0.024": 0.0,
			"0.025": 0.0
		}
	}
}
