{
	 "smiles": "CCC1(CC)C(=O)NC(=S)NC1=O", 
	 "Tm": 453.15, 
	 "num_atms": 25, 
	 "gaussian": { 
		 "optdone": 1, 
		 "sigma_profile": "yes", 
		 "theory": "DFT", 
		 "functional": "B3LYP", 
		 "basiset": "6-31G**", 
		 "properties": { 
			 "R2extent": 3345.4974, 
			 "electric_dipole_moment_norm": 1.92464425284, 
			 "electric_quadrupole_moment_norm": 10.3627179041, 
			 "total_energy": -970.27605821, 
			 "HOMO_LUMO_gap": 0.16139, 
			 "cosmo_polarized_energy": -14.38, 
			 "cosmo_cavitation_energy": 29.22, 
			 "cosmo_dispersion_energy": -21.09, 
			 "cosmo_repulsion_energy": 1.63, 
			 "cosmo_total_nonelectrostatic_energy": 9.77, 
			 "SMD_solvation_energy": 4.97 
		},
		"coords": [
			{
				"x": -1.0200120826,
				"y": -2.1980423994,
				"z": -0.5768038554,
				"element": "C" 
			},
			{
				"x": -1.0506527493,
				"y": -0.8049835689,
				"z": 0.0613404278,
				"element": "C" 
			},
			{
				"x": 0.248627275,
				"y": 0.0133757058,
				"z": -0.1258464062,
				"element": "C" 
			},
			{
				"x": 0.1769298054,
				"y": 1.3887520456,
				"z": 0.6440761707,
				"element": "C" 
			},
			{
				"x": -0.9931549045,
				"y": 2.3051907297,
				"z": 0.2762829829,
				"element": "C" 
			},
			{
				"x": 1.4225065642,
				"y": -0.7259145762,
				"z": 0.518740234,
				"element": "C" 
			},
			{
				"x": 1.3482658092,
				"y": -1.2755005126,
				"z": 1.6002978971,
				"element": "O" 
			},
			{
				"x": 2.6447909932,
				"y": -0.682832511,
				"z": -0.155012937,
				"element": "N" 
			},
			{
				"x": 2.8934281942,
				"y": -0.2041197118,
				"z": -1.4196399345,
				"element": "C" 
			},
			{
				"x": 4.3985177088,
				"y": -0.2390933933,
				"z": -2.1133859726,
				"element": "S" 
			},
			{
				"x": 1.7860371971,
				"y": 0.2918847136,
				"z": -2.0661214619,
				"element": "N" 
			},
			{
				"x": 0.4668442924,
				"y": 0.3207308906,
				"z": -1.6048820915,
				"element": "C" 
			},
			{
				"x": -0.4269516968,
				"y": 0.6422902156,
				"z": -2.3646426572,
				"element": "O" 
			},
			{
				"x": -1.9728945088,
				"y": -2.7088138341,
				"z": -0.409517661,
				"element": "H" 
			},
			{
				"x": -0.8669215995,
				"y": -2.1407387873,
				"z": -1.6594566828,
				"element": "H" 
			},
			{
				"x": -0.2331933252,
				"y": -2.8237344536,
				"z": -0.1442774235,
				"element": "H" 
			},
			{
				"x": -1.8700947608,
				"y": -0.2266636577,
				"z": -0.3702419234,
				"element": "H" 
			},
			{
				"x": -1.2278474566,
				"y": -0.8927813768,
				"z": 1.1371718959,
				"element": "H" 
			},
			{
				"x": 1.1233729437,
				"y": 1.9211460219,
				"z": 0.4857770335,
				"element": "H" 
			},
			{
				"x": 0.1361710142,
				"y": 1.1342509579,
				"z": 1.7084664404,
				"element": "H" 
			},
			{
				"x": -0.8985122645,
				"y": 3.2459491655,
				"z": 0.8277210136,
				"element": "H" 
			},
			{
				"x": -1.0150238932,
				"y": 2.5356942991,
				"z": -0.7913875676,
				"element": "H" 
			},
			{
				"x": -1.9557603953,
				"y": 1.862295602,
				"z": 0.5447228212,
				"element": "H" 
			},
			{
				"x": 3.4314489737,
				"y": -1.1048755832,
				"z": 0.3253991486,
				"element": "H" 
			},
			{
				"x": 1.9247788659,
				"y": 0.5829340186,
				"z": -3.027279491,
				"element": "H" 
			}
		],
		 "valence_orbital": [ 
			{
				"type": "occ",
				"energy": -0.31197,
				"method": "rhf"
			},
			{
				"type": "occ",
				"energy": -0.29875,
				"method": "rhf"
			},
			{
				"type": "occ",
				"energy": -0.2874,
				"method": "rhf"
			},
			{
				"type": "occ",
				"energy": -0.25704,
				"method": "rhf"
			},
			{
				"type": "occ",
				"energy": -0.24108,
				"method": "rhf"
			},
			{
				"type": "unocc",
				"energy": -0.07969,
				"method": "rhf"
			},
			{
				"type": "unocc",
				"energy": -0.01487,
				"method": "rhf"
			},
			{
				"type": "unocc",
				"energy": 0.01748,
				"method": "rhf"
			},
			{
				"type": "unocc",
				"energy": 0.0477,
				"method": "rhf"
			},
			{
				"type": "unocc",
				"energy": 0.08441,
				"method": "rhf"
			}
		],
		"cosmo_sigma_profile": { 
			"-0.025": 0.0,
			"-0.024": 0.0,
			"-0.023": 0.0,
			"-0.022": 0.0,
			"-0.021": 0.0,
			"-0.02": 0.0,
			"-0.019": 0.0,
			"-0.018": 0.0,
			"-0.017": 0.1560608981,
			"-0.016": 1.30049627293,
			"-0.015": 1.56728801383,
			"-0.014": 2.40817071331,
			"-0.013": 0.64262142169,
			"-0.012": 1.08297876323,
			"-0.011": 1.64493446806,
			"-0.01": 2.54907615451,
			"-0.009": 3.17922008001,
			"-0.008": 2.53913786944,
			"-0.007": 4.50528023546,
			"-0.006": 5.74933064015,
			"-0.005": 8.38616699971,
			"-0.004": 18.7475133767,
			"-0.003": 24.4253868863,
			"-0.002": 25.1238577165,
			"-0.001": 19.6153904909,
			"0.0": 18.2909588475,
			"0.001": 14.1015907909,
			"0.002": 7.6013981281,
			"0.003": 6.51301378596,
			"0.004": 7.26500822085,
			"0.005": 6.64843877827,
			"0.006": 8.75417791473,
			"0.007": 9.691856617,
			"0.008": 7.63343513203,
			"0.009": 6.6854390793,
			"0.01": 5.24457301063,
			"0.011": 8.66952404722,
			"0.012": 1.46124929458,
			"0.013": 0.0,
			"0.014": 0.0,
			"0.015": 0.0,
			"0.016": 0.0,
			"0.017": 0.0,
			"0.018": 0.0,
			"0.019": 0.0,
			"0.02": 0.0,
			"0.021": 0.0,
			"0.022": 0.0,
			"0.023": 0.0,
			"0.024": 0.0,
			"0.025": 0.0
		}
	}
}
