{
	 "smiles": "CCOC(=O)C(CC)CC", 
	 "Tm": 423.65, 
	 "num_atms": 26, 
	 "gaussian": { 
		 "optdone": 1, 
		 "sigma_profile": "yes", 
		 "theory": "DFT", 
		 "functional": "B3LYP", 
		 "basiset": "6-31G**", 
		 "properties": { 
			 "R2extent": 1879.4055, 
			 "electric_dipole_moment_norm": 1.75531653556, 
			 "electric_quadrupole_moment_norm": 9.16730119937, 
			 "total_energy": -464.973505821, 
			 "HOMO_LUMO_gap": 0.27593, 
			 "cosmo_polarized_energy": -5.97, 
			 "cosmo_cavitation_energy": 27.71, 
			 "cosmo_dispersion_energy": -19.01, 
			 "cosmo_repulsion_energy": 1.58, 
			 "cosmo_total_nonelectrostatic_energy": 10.28, 
			 "SMD_solvation_energy": 5.68 
		},
		"coords": [
			{
				"x": -0.0524773796,
				"y": -0.4871975586,
				"z": -2.8278622447,
				"element": "C" 
			},
			{
				"x": 0.0839690206,
				"y": 0.9231072715,
				"z": -2.2740432829,
				"element": "C" 
			},
			{
				"x": -0.2254687769,
				"y": 0.9723742494,
				"z": -0.8598556248,
				"element": "O" 
			},
			{
				"x": 0.7871457051,
				"y": 0.6781300238,
				"z": -0.0089540295,
				"element": "C" 
			},
			{
				"x": 1.9006742311,
				"y": 0.3668901255,
				"z": -0.379449214,
				"element": "O" 
			},
			{
				"x": 0.3697008043,
				"y": 0.7351581857,
				"z": 1.4574876804,
				"element": "C" 
			},
			{
				"x": -0.7712307646,
				"y": 1.7195293533,
				"z": 1.7669097142,
				"element": "C" 
			},
			{
				"x": -0.398083158,
				"y": 3.1869569463,
				"z": 1.5290965047,
				"element": "C" 
			},
			{
				"x": 0.0931798274,
				"y": -0.7074410591,
				"z": 1.9632022519,
				"element": "C" 
			},
			{
				"x": -1.1483121238,
				"y": -1.3888476235,
				"z": 1.3761374147,
				"element": "C" 
			},
			{
				"x": 0.6835358546,
				"y": -1.1513630359,
				"z": -2.3686954112,
				"element": "H" 
			},
			{
				"x": 0.1200853307,
				"y": -0.4795901656,
				"z": -3.9094188127,
				"element": "H" 
			},
			{
				"x": -1.0555699611,
				"y": -0.8840971347,
				"z": -2.6446781799,
				"element": "H" 
			},
			{
				"x": 1.0958380657,
				"y": 1.3066662111,
				"z": -2.4248700156,
				"element": "H" 
			},
			{
				"x": -0.6364976716,
				"y": 1.6044533217,
				"z": -2.733167844,
				"element": "H" 
			},
			{
				"x": 1.2751148957,
				"y": 1.0736756859,
				"z": 1.9765003789,
				"element": "H" 
			},
			{
				"x": -1.6522852384,
				"y": 1.4654662312,
				"z": 1.1701258472,
				"element": "H" 
			},
			{
				"x": -1.0536945311,
				"y": 1.5831178874,
				"z": 2.8191237133,
				"element": "H" 
			},
			{
				"x": 0.470374684,
				"y": 3.4796326688,
				"z": 2.1303671894,
				"element": "H" 
			},
			{
				"x": -1.2262787508,
				"y": 3.8510602915,
				"z": 1.7966813843,
				"element": "H" 
			},
			{
				"x": -0.1553294125,
				"y": 3.3684415019,
				"z": 0.4773965025,
				"element": "H" 
			},
			{
				"x": 0.0004950909,
				"y": -0.6607984266,
				"z": 3.05548036,
				"element": "H" 
			},
			{
				"x": 0.9810685745,
				"y": -1.3141544258,
				"z": 1.7520527617,
				"element": "H" 
			},
			{
				"x": -1.2444153687,
				"y": -2.4065338119,
				"z": 1.7680090349,
				"element": "H" 
			},
			{
				"x": -2.0666758147,
				"y": -0.8504448827,
				"z": 1.6300787609,
				"element": "H" 
			},
			{
				"x": -1.0961631328,
				"y": -1.4561918305,
				"z": 0.2850451603,
				"element": "H" 
			}
		],
		 "valence_orbital": [ 
			{
				"type": "occ",
				"energy": -0.33152,
				"method": "rhf"
			},
			{
				"type": "occ",
				"energy": -0.32332,
				"method": "rhf"
			},
			{
				"type": "occ",
				"energy": -0.31691,
				"method": "rhf"
			},
			{
				"type": "occ",
				"energy": -0.29337,
				"method": "rhf"
			},
			{
				"type": "occ",
				"energy": -0.26079,
				"method": "rhf"
			},
			{
				"type": "unocc",
				"energy": 0.01514,
				"method": "rhf"
			},
			{
				"type": "unocc",
				"energy": 0.08439,
				"method": "rhf"
			},
			{
				"type": "unocc",
				"energy": 0.09953,
				"method": "rhf"
			},
			{
				"type": "unocc",
				"energy": 0.11589,
				"method": "rhf"
			},
			{
				"type": "unocc",
				"energy": 0.12709,
				"method": "rhf"
			}
		],
		"cosmo_sigma_profile": { 
			"-0.025": 0.0,
			"-0.024": 0.0,
			"-0.023": 0.0,
			"-0.022": 0.0,
			"-0.021": 0.0,
			"-0.02": 0.0,
			"-0.019": 0.0,
			"-0.018": 0.0,
			"-0.017": 0.0,
			"-0.016": 0.0,
			"-0.015": 0.0,
			"-0.014": 0.0,
			"-0.013": 0.0,
			"-0.012": 0.0,
			"-0.011": 0.0,
			"-0.01": 0.0,
			"-0.009": 0.0,
			"-0.008": 0.0,
			"-0.007": 0.0,
			"-0.006": 0.806476288602,
			"-0.005": 4.28005905286,
			"-0.004": 11.5150929809,
			"-0.003": 28.7554359916,
			"-0.002": 37.0800608323,
			"-0.001": 36.4307906702,
			"0.0": 32.1446255685,
			"0.001": 23.2103232858,
			"0.002": 9.79399245741,
			"0.003": 3.915049893,
			"0.004": 4.30983691625,
			"0.005": 3.30792681204,
			"0.006": 2.41482763837,
			"0.007": 3.10029187117,
			"0.008": 1.74075475458,
			"0.009": 1.65087887606,
			"0.01": 1.12025716607,
			"0.011": 2.03972864095,
			"0.012": 4.16249495668,
			"0.013": 2.32970271934,
			"0.014": 0.216344077399,
			"0.015": 0.0,
			"0.016": 0.0,
			"0.017": 0.0,
			"0.018": 0.0,
			"0.019": 0.0,
			"0.02": 0.0,
			"0.021": 0.0,
			"0.022": 0.0,
			"0.023": 0.0,
			"0.024": 0.0,
			"0.025": 0.0
		}
	}
}
