{
	 "smiles": "OC(=O)C1=CC=C(OC2=CC(F)=C(F)C=C2)C=C1", 
	 "Tm": 430.15, 
	 "num_atms": 26, 
	 "gaussian": { 
		 "optdone": 1, 
		 "sigma_profile": "yes", 
		 "theory": "DFT", 
		 "functional": "B3LYP", 
		 "basiset": "6-31G**", 
		 "properties": { 
			 "R2extent": 6889.5852, 
			 "electric_dipole_moment_norm": 3.57468453573, 
			 "electric_quadrupole_moment_norm": 32.8972318112, 
			 "total_energy": -925.53444324, 
			 "HOMO_LUMO_gap": 0.19034, 
			 "cosmo_polarized_energy": -15.98, 
			 "cosmo_cavitation_energy": 33.0, 
			 "cosmo_dispersion_energy": -23.51, 
			 "cosmo_repulsion_energy": 1.76, 
			 "cosmo_total_nonelectrostatic_energy": 11.25, 
			 "SMD_solvation_energy": 8.01 
		},
		"coords": [
			{
				"x": 1.6232924668,
				"y": -0.2912616875,
				"z": -5.2725527131,
				"element": "O" 
			},
			{
				"x": 0.9311953976,
				"y": -1.0362976824,
				"z": -4.3668192036,
				"element": "C" 
			},
			{
				"x": 0.4865872972,
				"y": -2.1134536226,
				"z": -4.68962158,
				"element": "O" 
			},
			{
				"x": 0.7654977783,
				"y": -0.4548158056,
				"z": -2.9989285784,
				"element": "C" 
			},
			{
				"x": 0.4187430633,
				"y": -1.3268821285,
				"z": -1.9577787957,
				"element": "C" 
			},
			{
				"x": 0.2401667206,
				"y": -0.8624106002,
				"z": -0.6595555226,
				"element": "C" 
			},
			{
				"x": 0.3883817093,
				"y": 0.5049777084,
				"z": -0.3955964496,
				"element": "C" 
			},
			{
				"x": 0.2745994431,
				"y": 1.0581097249,
				"z": 0.8566071741,
				"element": "O" 
			},
			{
				"x": -0.4220501748,
				"y": 0.405471281,
				"z": 1.8599677262,
				"element": "C" 
			},
			{
				"x": 0.2488625105,
				"y": 0.1929143608,
				"z": 3.0657019817,
				"element": "C" 
			},
			{
				"x": -0.4458296107,
				"y": -0.3721828723,
				"z": 4.12633415,
				"element": "C" 
			},
			{
				"x": 0.1704520981,
				"y": -0.5849952954,
				"z": 5.2987779711,
				"element": "F" 
			},
			{
				"x": -1.7866326689,
				"y": -0.7322178116,
				"z": 3.9890457961,
				"element": "C" 
			},
			{
				"x": -2.4272041894,
				"y": -1.2812660802,
				"z": 5.0340648208,
				"element": "F" 
			},
			{
				"x": -2.4461555726,
				"y": -0.5194716885,
				"z": 2.7857134438,
				"element": "C" 
			},
			{
				"x": -1.7667192543,
				"y": 0.0585111491,
				"z": 1.7120176819,
				"element": "C" 
			},
			{
				"x": 0.7159960538,
				"y": 1.3945898856,
				"z": -1.4248560749,
				"element": "C" 
			},
			{
				"x": 0.9042201899,
				"y": 0.9129749548,
				"z": -2.7149930548,
				"element": "C" 
			},
			{
				"x": 2.0627619713,
				"y": 0.4484822926,
				"z": -4.8315611796,
				"element": "H" 
			},
			{
				"x": 0.2990715831,
				"y": -2.380070125,
				"z": -2.1880636234,
				"element": "H" 
			},
			{
				"x": -0.0095540363,
				"y": -1.5501256906,
				"z": 0.1399389944,
				"element": "H" 
			},
			{
				"x": 1.2901719486,
				"y": 0.469775951,
				"z": 3.179451798,
				"element": "H" 
			},
			{
				"x": -3.4905529314,
				"y": -0.8002545254,
				"z": 2.7051444723,
				"element": "H" 
			},
			{
				"x": -2.275815928,
				"y": 0.2424955023,
				"z": 0.7727933231,
				"element": "H" 
			},
			{
				"x": 0.8084839206,
				"y": 2.4504735821,
				"z": -1.1951593447,
				"element": "H" 
			},
			{
				"x": 1.1180302144,
				"y": 1.6283292234,
				"z": -3.5055732131,
				"element": "H" 
			}
		],
		 "valence_orbital": [ 
			{
				"type": "occ",
				"energy": -0.28049,
				"method": "rhf"
			},
			{
				"type": "occ",
				"energy": -0.27652,
				"method": "rhf"
			},
			{
				"type": "occ",
				"energy": -0.27503,
				"method": "rhf"
			},
			{
				"type": "occ",
				"energy": -0.26351,
				"method": "rhf"
			},
			{
				"type": "occ",
				"energy": -0.24069,
				"method": "rhf"
			},
			{
				"type": "unocc",
				"energy": -0.05035,
				"method": "rhf"
			},
			{
				"type": "unocc",
				"energy": -0.03461,
				"method": "rhf"
			},
			{
				"type": "unocc",
				"energy": -0.02366,
				"method": "rhf"
			},
			{
				"type": "unocc",
				"energy": -0.01515,
				"method": "rhf"
			},
			{
				"type": "unocc",
				"energy": 0.04788,
				"method": "rhf"
			}
		],
		"cosmo_sigma_profile": { 
			"-0.025": 0.0,
			"-0.024": 0.0,
			"-0.023": 0.0,
			"-0.022": 0.0,
			"-0.021": 0.0,
			"-0.02": 0.0,
			"-0.019": 0.240654797071,
			"-0.018": 0.800978169388,
			"-0.017": 0.80054479299,
			"-0.016": 1.41681671034,
			"-0.015": 1.09384437468,
			"-0.014": 0.653173887265,
			"-0.013": 0.805328620326,
			"-0.012": 1.2329024943,
			"-0.011": 1.59183883183,
			"-0.01": 0.82818410623,
			"-0.009": 2.56978897982,
			"-0.008": 6.44417032201,
			"-0.007": 9.39303459476,
			"-0.006": 12.9583436334,
			"-0.005": 11.9053676787,
			"-0.004": 10.8888398766,
			"-0.003": 12.9468238379,
			"-0.002": 15.4444629345,
			"-0.001": 21.1735696725,
			"0.0": 23.9553519728,
			"0.001": 25.0778536565,
			"0.002": 24.2054968456,
			"0.003": 28.320799931,
			"0.004": 16.9419411103,
			"0.005": 3.72572723016,
			"0.006": 3.88454367429,
			"0.007": 3.42753794577,
			"0.008": 3.47587328509,
			"0.009": 2.91736436762,
			"0.01": 4.19012040197,
			"0.011": 5.47444787993,
			"0.012": 5.31604092043,
			"0.013": 1.99751092729,
			"0.014": 0.142257222585,
			"0.015": 0.0,
			"0.016": 0.0,
			"0.017": 0.0,
			"0.018": 0.0,
			"0.019": 0.0,
			"0.02": 0.0,
			"0.021": 0.0,
			"0.022": 0.0,
			"0.023": 0.0,
			"0.024": 0.0,
			"0.025": 0.0
		}
	}
}
