{
	 "smiles": "FC(F)(F)C1=CC(=CC=C1)C(=O)NC1=CC=C(C=C1)C1=NNC(=O)CC1", 
	 "Tm": 507.15, 
	 "num_atms": 40, 
	 "gaussian": { 
		 "optdone": 1, 
		 "sigma_profile": "yes", 
		 "theory": "DFT", 
		 "functional": "B3LYP", 
		 "basiset": "6-31G**", 
		 "properties": { 
			 "R2extent": 15847.0598, 
			 "electric_dipole_moment_norm": 3.93914512934, 
			 "electric_quadrupole_moment_norm": 39.8057186503, 
			 "total_energy": -1308.58667035, 
			 "HOMO_LUMO_gap": 0.15489, 
			 "cosmo_polarized_energy": -21.42, 
			 "cosmo_cavitation_energy": 46.55, 
			 "cosmo_dispersion_energy": -32.44, 
			 "cosmo_repulsion_energy": 2.4, 
			 "cosmo_total_nonelectrostatic_energy": 16.51, 
			 "SMD_solvation_energy": 9.32 
		},
		"coords": [
			{
				"x": -4.5867857005,
				"y": -4.6932738327,
				"z": -1.9330660833,
				"element": "F" 
			},
			{
				"x": -3.5956507409,
				"y": -4.4742242776,
				"z": -2.8269234721,
				"element": "C" 
			},
			{
				"x": -3.2225376183,
				"y": -5.6844733992,
				"z": -3.3013640011,
				"element": "F" 
			},
			{
				"x": -4.1242413309,
				"y": -3.7883026448,
				"z": -3.8621437412,
				"element": "F" 
			},
			{
				"x": -2.4366551407,
				"y": -3.743966921,
				"z": -2.2005537123,
				"element": "C" 
			},
			{
				"x": -1.6693047109,
				"y": -2.8671001628,
				"z": -2.9646466392,
				"element": "C" 
			},
			{
				"x": -0.5733775731,
				"y": -2.2111241518,
				"z": -2.3912223977,
				"element": "C" 
			},
			{
				"x": -0.2310925553,
				"y": -2.4748763756,
				"z": -1.0580356685,
				"element": "C" 
			},
			{
				"x": -0.990795906,
				"y": -3.3688236186,
				"z": -0.3033761601,
				"element": "C" 
			},
			{
				"x": -2.0997040929,
				"y": -3.9976055559,
				"z": -0.8668658538,
				"element": "C" 
			},
			{
				"x": 0.2515509727,
				"y": -1.3411241657,
				"z": -3.2947696962,
				"element": "C" 
			},
			{
				"x": 0.3730777827,
				"y": -1.6094984446,
				"z": -4.4837061365,
				"element": "O" 
			},
			{
				"x": 0.9470595186,
				"y": -0.2676253579,
				"z": -2.7596165773,
				"element": "N" 
			},
			{
				"x": 0.695114714,
				"y": 0.5338628332,
				"z": -1.6217335325,
				"element": "C" 
			},
			{
				"x": -0.5991925249,
				"y": 0.7531117639,
				"z": -1.1198585888,
				"element": "C" 
			},
			{
				"x": -0.7921241595,
				"y": 1.5737996176,
				"z": -0.0183489899,
				"element": "C" 
			},
			{
				"x": 0.2852886628,
				"y": 2.2300003609,
				"z": 0.608330577,
				"element": "C" 
			},
			{
				"x": 1.5702571585,
				"y": 2.024179278,
				"z": 0.0805430956,
				"element": "C" 
			},
			{
				"x": 1.7748469817,
				"y": 1.1819444961,
				"z": -1.0093241521,
				"element": "C" 
			},
			{
				"x": 0.0552959379,
				"y": 3.0922559706,
				"z": 1.7871466725,
				"element": "C" 
			},
			{
				"x": -1.1014653261,
				"y": 3.0132443929,
				"z": 2.3598405914,
				"element": "N" 
			},
			{
				"x": -1.3243921191,
				"y": 3.7967950321,
				"z": 3.4677855807,
				"element": "N" 
			},
			{
				"x": -0.6536314648,
				"y": 4.9500824057,
				"z": 3.8331596761,
				"element": "C" 
			},
			{
				"x": -1.0309346937,
				"y": 5.6362897516,
				"z": 4.768029339,
				"element": "O" 
			},
			{
				"x": 0.525508429,
				"y": 5.2680319332,
				"z": 2.935543216,
				"element": "C" 
			},
			{
				"x": 1.1404790638,
				"y": 3.9982923429,
				"z": 2.3328967636,
				"element": "C" 
			},
			{
				"x": -1.9065935455,
				"y": -2.6828274406,
				"z": -4.0059199286,
				"element": "H" 
			},
			{
				"x": 0.6319963496,
				"y": -1.9923843376,
				"z": -0.6129202677,
				"element": "H" 
			},
			{
				"x": -0.7186220585,
				"y": -3.5735021471,
				"z": 0.7272897083,
				"element": "H" 
			},
			{
				"x": -2.7038699565,
				"y": -4.6799596208,
				"z": -0.2785095084,
				"element": "H" 
			},
			{
				"x": 1.5981660966,
				"y": 0.1129446853,
				"z": -3.4368022544,
				"element": "H" 
			},
			{
				"x": -1.4525362777,
				"y": 0.2923747747,
				"z": -1.6040785658,
				"element": "H" 
			},
			{
				"x": -1.7930206329,
				"y": 1.7391943407,
				"z": 0.3636716101,
				"element": "H" 
			},
			{
				"x": 2.43419979,
				"y": 2.4999019558,
				"z": 0.5322769971,
				"element": "H" 
			},
			{
				"x": 2.7802424491,
				"y": 1.0170310915,
				"z": -1.3865175775,
				"element": "H" 
			},
			{
				"x": -2.2099919858,
				"y": 3.6254819467,
				"z": 3.9253680939,
				"element": "H" 
			},
			{
				"x": 0.1510036061,
				"y": 5.9227202378,
				"z": 2.1370251856,
				"element": "H" 
			},
			{
				"x": 1.2507840604,
				"y": 5.8460193065,
				"z": 3.5116234392,
				"element": "H" 
			},
			{
				"x": 1.8635570684,
				"y": 4.2650410382,
				"z": 1.5594113428,
				"element": "H" 
			},
			{
				"x": 1.6940914726,
				"y": 3.4484928985,
				"z": 3.1083616165,
				"element": "H" 
			}
		],
		 "valence_orbital": [ 
			{
				"type": "occ",
				"energy": -0.2701,
				"method": "rhf"
			},
			{
				"type": "occ",
				"energy": -0.26449,
				"method": "rhf"
			},
			{
				"type": "occ",
				"energy": -0.26112,
				"method": "rhf"
			},
			{
				"type": "occ",
				"energy": -0.25444,
				"method": "rhf"
			},
			{
				"type": "occ",
				"energy": -0.22081,
				"method": "rhf"
			},
			{
				"type": "unocc",
				"energy": -0.06592,
				"method": "rhf"
			},
			{
				"type": "unocc",
				"energy": -0.05036,
				"method": "rhf"
			},
			{
				"type": "unocc",
				"energy": -0.03439,
				"method": "rhf"
			},
			{
				"type": "unocc",
				"energy": -0.0188,
				"method": "rhf"
			},
			{
				"type": "unocc",
				"energy": 0.00404,
				"method": "rhf"
			}
		],
		"cosmo_sigma_profile": { 
			"-0.025": 0.0,
			"-0.024": 0.0,
			"-0.023": 0.0,
			"-0.022": 0.0,
			"-0.021": 0.0,
			"-0.02": 0.0,
			"-0.019": 0.0,
			"-0.018": 0.0,
			"-0.017": 0.0,
			"-0.016": 0.0,
			"-0.015": 0.882606824227,
			"-0.014": 2.33192638205,
			"-0.013": 1.43861103948,
			"-0.012": 2.0406953745,
			"-0.011": 1.61332349374,
			"-0.01": 2.20208356659,
			"-0.009": 2.03870258648,
			"-0.008": 3.1408751274,
			"-0.007": 12.4359094142,
			"-0.006": 25.0883473066,
			"-0.005": 28.2386285637,
			"-0.004": 25.2945071978,
			"-0.003": 23.8892937382,
			"-0.002": 19.8763024151,
			"-0.001": 20.8499346641,
			"0.0": 25.3129661372,
			"0.001": 27.5752985284,
			"0.002": 40.8589702924,
			"0.003": 42.4764226236,
			"0.004": 14.9367602498,
			"0.005": 5.78306016616,
			"0.006": 4.48212788054,
			"0.007": 4.61015251264,
			"0.008": 3.83031164762,
			"0.009": 3.26954903531,
			"0.01": 4.11504894048,
			"0.011": 4.42464471035,
			"0.012": 7.41223676903,
			"0.013": 9.67567542501,
			"0.014": 2.18481576116,
			"0.015": 0.0385930290844,
			"0.016": 0.0,
			"0.017": 0.0,
			"0.018": 0.0,
			"0.019": 0.0,
			"0.02": 0.0,
			"0.021": 0.0,
			"0.022": 0.0,
			"0.023": 0.0,
			"0.024": 0.0,
			"0.025": 0.0
		}
	}
}
