{
	 "smiles": "CCC1=C(C=C(N)C=C1)S(N)(=O)=O", 
	 "Tm": 410.15, 
	 "num_atms": 25, 
	 "gaussian": { 
		 "optdone": 1, 
		 "sigma_profile": "yes", 
		 "theory": "DFT", 
		 "functional": "B3LYP", 
		 "basiset": "6-31G**", 
		 "properties": { 
			 "R2extent": 2866.8874, 
			 "electric_dipole_moment_norm": 6.82948843326, 
			 "electric_quadrupole_moment_norm": 17.6198126625, 
			 "total_energy": -970.161782751, 
			 "HOMO_LUMO_gap": 0.18528, 
			 "cosmo_polarized_energy": -21.78, 
			 "cosmo_cavitation_energy": 28.85, 
			 "cosmo_dispersion_energy": -21.55, 
			 "cosmo_repulsion_energy": 1.66, 
			 "cosmo_total_nonelectrostatic_energy": 8.96, 
			 "SMD_solvation_energy": 4.36 
		},
		"coords": [
			{
				"x": -1.4880065746,
				"y": 1.0892312188,
				"z": 2.2105943801,
				"element": "C" 
			},
			{
				"x": -1.0758576151,
				"y": 1.3011979411,
				"z": 0.741031222,
				"element": "C" 
			},
			{
				"x": -0.9428289497,
				"y": 0.0041835903,
				"z": -0.0366252303,
				"element": "C" 
			},
			{
				"x": 0.2691602772,
				"y": -0.6265716387,
				"z": -0.3780643778,
				"element": "C" 
			},
			{
				"x": 0.3120706667,
				"y": -1.8325438879,
				"z": -1.0793408357,
				"element": "C" 
			},
			{
				"x": -0.872108855,
				"y": -2.4737218604,
				"z": -1.4722698939,
				"element": "C" 
			},
			{
				"x": -0.8330104484,
				"y": -3.6429922617,
				"z": -2.2245382607,
				"element": "N" 
			},
			{
				"x": -2.0923456042,
				"y": -1.8635136322,
				"z": -1.137502395,
				"element": "C" 
			},
			{
				"x": -2.1101771181,
				"y": -0.660712052,
				"z": -0.4419521872,
				"element": "C" 
			},
			{
				"x": 1.8912393574,
				"y": 0.0799485705,
				"z": 0.0212629683,
				"element": "S" 
			},
			{
				"x": 2.0355927232,
				"y": 0.08100624,
				"z": 1.6984984954,
				"element": "N" 
			},
			{
				"x": 2.9033751718,
				"y": -0.8658135065,
				"z": -0.4495463613,
				"element": "O" 
			},
			{
				"x": 1.9064826239,
				"y": 1.4871958933,
				"z": -0.3800730404,
				"element": "O" 
			},
			{
				"x": -2.4494786276,
				"y": 0.5708816648,
				"z": 2.281828051,
				"element": "H" 
			},
			{
				"x": -0.7575056009,
				"y": 0.4787089183,
				"z": 2.7538451619,
				"element": "H" 
			},
			{
				"x": -1.5821390204,
				"y": 2.0476120784,
				"z": 2.7315563456,
				"element": "H" 
			},
			{
				"x": -1.8420588077,
				"y": 1.91499547,
				"z": 0.2525717787,
				"element": "H" 
			},
			{
				"x": -0.154046267,
				"y": 1.8833028297,
				"z": 0.6805486158,
				"element": "H" 
			},
			{
				"x": 1.2782256733,
				"y": -2.2579981222,
				"z": -1.3283969558,
				"element": "H" 
			},
			{
				"x": -1.6556797929,
				"y": -4.226934673,
				"z": -2.178281389,
				"element": "H" 
			},
			{
				"x": 0.0251393505,
				"y": -4.1730177275,
				"z": -2.1723151253,
				"element": "H" 
			},
			{
				"x": -3.0277158201,
				"y": -2.3290961837,
				"z": -1.437753297,
				"element": "H" 
			},
			{
				"x": -3.0707448708,
				"y": -0.2081849989,
				"z": -0.2067564653,
				"element": "H" 
			},
			{
				"x": 1.3850511945,
				"y": 0.7105722586,
				"z": 2.1565842936,
				"element": "H" 
			},
			{
				"x": 2.0231669341,
				"y": -0.8558361292,
				"z": 2.0894945025,
				"element": "H" 
			}
		],
		 "valence_orbital": [ 
			{
				"type": "occ",
				"energy": -0.30182,
				"method": "rhf"
			},
			{
				"type": "occ",
				"energy": -0.29769,
				"method": "rhf"
			},
			{
				"type": "occ",
				"energy": -0.29279,
				"method": "rhf"
			},
			{
				"type": "occ",
				"energy": -0.26257,
				"method": "rhf"
			},
			{
				"type": "occ",
				"energy": -0.2139,
				"method": "rhf"
			},
			{
				"type": "unocc",
				"energy": -0.02862,
				"method": "rhf"
			},
			{
				"type": "unocc",
				"energy": -0.00441,
				"method": "rhf"
			},
			{
				"type": "unocc",
				"energy": 0.04935,
				"method": "rhf"
			},
			{
				"type": "unocc",
				"energy": 0.06949,
				"method": "rhf"
			},
			{
				"type": "unocc",
				"energy": 0.07613,
				"method": "rhf"
			}
		],
		"cosmo_sigma_profile": { 
			"-0.025": 0.0,
			"-0.024": 0.0,
			"-0.023": 0.0,
			"-0.022": 0.0,
			"-0.021": 0.0,
			"-0.02": 0.0,
			"-0.019": 0.0,
			"-0.018": 0.0,
			"-0.017": 0.0,
			"-0.016": 0.16048411555,
			"-0.015": 0.936365871664,
			"-0.014": 1.44182753497,
			"-0.013": 2.8853676705,
			"-0.012": 4.63112207728,
			"-0.011": 6.51605417412,
			"-0.01": 6.65810782944,
			"-0.009": 5.46754538193,
			"-0.008": 3.76550981547,
			"-0.007": 6.55618910951,
			"-0.006": 8.21854700139,
			"-0.005": 8.23059645838,
			"-0.004": 11.8380021592,
			"-0.003": 13.2683968999,
			"-0.002": 13.8564703615,
			"-0.001": 16.281289783,
			"0.0": 13.8268921679,
			"0.001": 14.502339236,
			"0.002": 8.86953742028,
			"0.003": 9.78616337378,
			"0.004": 13.6911822226,
			"0.005": 8.85454132574,
			"0.006": 5.22091666797,
			"0.007": 3.96481086735,
			"0.008": 6.68403600992,
			"0.009": 5.29951032914,
			"0.01": 7.12567887676,
			"0.011": 10.8897920158,
			"0.012": 6.74443675327,
			"0.013": 1.3504622678,
			"0.014": 0.046700285958,
			"0.015": 0.0,
			"0.016": 0.0,
			"0.017": 0.0,
			"0.018": 0.0,
			"0.019": 0.0,
			"0.02": 0.0,
			"0.021": 0.0,
			"0.022": 0.0,
			"0.023": 0.0,
			"0.024": 0.0,
			"0.025": 0.0
		}
	}
}
