{
	 "smiles": "[O-][N+](=O)C1=CC=CC2=C1C=CC=C2C=O", 
	 "Tm": 409.15, 
	 "num_atms": 22, 
	 "gaussian": { 
		 "optdone": 1, 
		 "sigma_profile": "yes", 
		 "theory": "DFT", 
		 "functional": "B3LYP", 
		 "basiset": "6-31G**", 
		 "properties": { 
			 "R2extent": 3654.681, 
			 "electric_dipole_moment_norm": 2.14483542725, 
			 "electric_quadrupole_moment_norm": 23.1460969589, 
			 "total_energy": -703.702053352, 
			 "HOMO_LUMO_gap": 0.14591, 
			 "cosmo_polarized_energy": -11.94, 
			 "cosmo_cavitation_energy": 27.0, 
			 "cosmo_dispersion_energy": -20.01, 
			 "cosmo_repulsion_energy": 1.51, 
			 "cosmo_total_nonelectrostatic_energy": 8.5, 
			 "SMD_solvation_energy": 7.62 
		},
		"coords": [
			{
				"x": 2.2435548074,
				"y": 1.1564541373,
				"z": -3.238021886,
				"element": "O" 
			},
			{
				"x": 2.6918493945,
				"y": 1.0151367895,
				"z": -2.0991204713,
				"element": "N" 
			},
			{
				"x": 3.8841749397,
				"y": 1.1079766959,
				"z": -1.8101882296,
				"element": "O" 
			},
			{
				"x": 1.757962528,
				"y": 0.6747143309,
				"z": -1.0071313588,
				"element": "C" 
			},
			{
				"x": 2.3060577263,
				"y": -0.0511687988,
				"z": 0.0270091909,
				"element": "C" 
			},
			{
				"x": 1.4921128861,
				"y": -0.4673860154,
				"z": 1.095237451,
				"element": "C" 
			},
			{
				"x": 0.1575362943,
				"y": -0.1326550872,
				"z": 1.1201407099,
				"element": "C" 
			},
			{
				"x": -0.4355341459,
				"y": 0.6421783102,
				"z": 0.0852435622,
				"element": "C" 
			},
			{
				"x": 0.3795869052,
				"y": 1.0640482529,
				"z": -1.0288370372,
				"element": "C" 
			},
			{
				"x": -0.2109820318,
				"y": 1.8660521818,
				"z": -2.0442893821,
				"element": "C" 
			},
			{
				"x": -1.5398315772,
				"y": 2.2268420318,
				"z": -1.9794094168,
				"element": "C" 
			},
			{
				"x": -2.3447617991,
				"y": 1.8034046124,
				"z": -0.9097101055,
				"element": "C" 
			},
			{
				"x": -1.8195184099,
				"y": 1.0286734714,
				"z": 0.1107331751,
				"element": "C" 
			},
			{
				"x": -2.7524200338,
				"y": 0.6406363964,
				"z": 1.2025419131,
				"element": "C" 
			},
			{
				"x": -3.9255036484,
				"y": 0.9662074514,
				"z": 1.2287146824,
				"element": "O" 
			},
			{
				"x": 3.3596275259,
				"y": -0.2978492449,
				"z": -0.006157082,
				"element": "H" 
			},
			{
				"x": 1.9234073374,
				"y": -1.0561291243,
				"z": 1.8980949334,
				"element": "H" 
			},
			{
				"x": -0.4446927944,
				"y": -0.4683820181,
				"z": 1.9550566533,
				"element": "H" 
			},
			{
				"x": 0.395739367,
				"y": 2.1883737032,
				"z": -2.8775409389,
				"element": "H" 
			},
			{
				"x": -1.9659850593,
				"y": 2.8424986878,
				"z": -2.7654489485,
				"element": "H" 
			},
			{
				"x": -3.3936145248,
				"y": 2.075774819,
				"z": -0.8518433965,
				"element": "H" 
			},
			{
				"x": -2.340165687,
				"y": 0.0230984167,
				"z": 2.0229259819,
				"element": "H" 
			}
		],
		 "valence_orbital": [ 
			{
				"type": "occ",
				"energy": -0.31351,
				"method": "rhf"
			},
			{
				"type": "occ",
				"energy": -0.29346,
				"method": "rhf"
			},
			{
				"type": "occ",
				"energy": -0.27799,
				"method": "rhf"
			},
			{
				"type": "occ",
				"energy": -0.267,
				"method": "rhf"
			},
			{
				"type": "occ",
				"energy": -0.25132,
				"method": "rhf"
			},
			{
				"type": "unocc",
				"energy": -0.10541,
				"method": "rhf"
			},
			{
				"type": "unocc",
				"energy": -0.07732,
				"method": "rhf"
			},
			{
				"type": "unocc",
				"energy": -0.04184,
				"method": "rhf"
			},
			{
				"type": "unocc",
				"energy": -0.02564,
				"method": "rhf"
			},
			{
				"type": "unocc",
				"energy": 0.03615,
				"method": "rhf"
			}
		],
		"cosmo_sigma_profile": { 
			"-0.025": 0.0,
			"-0.024": 0.0,
			"-0.023": 0.0,
			"-0.022": 0.0,
			"-0.021": 0.0,
			"-0.02": 0.0,
			"-0.019": 0.0,
			"-0.018": 0.0,
			"-0.017": 0.0,
			"-0.016": 0.0,
			"-0.015": 0.0,
			"-0.014": 0.0,
			"-0.013": 0.0,
			"-0.012": 0.0,
			"-0.011": 0.273461325541,
			"-0.01": 2.00903033448,
			"-0.009": 2.49687658361,
			"-0.008": 5.21930480802,
			"-0.007": 12.4118445606,
			"-0.006": 13.3329390473,
			"-0.005": 15.3991440183,
			"-0.004": 12.1151082548,
			"-0.003": 10.2155349328,
			"-0.002": 12.6863707818,
			"-0.001": 15.8438928451,
			"0.0": 25.1284161979,
			"0.001": 21.6704634808,
			"0.002": 14.0292881311,
			"0.003": 6.13945653735,
			"0.004": 5.54958305237,
			"0.005": 3.93986183504,
			"0.006": 4.53457217898,
			"0.007": 9.81897062316,
			"0.008": 8.5407330685,
			"0.009": 5.79716560615,
			"0.01": 5.15276038218,
			"0.011": 3.95065969132,
			"0.012": 2.02765115339,
			"0.013": 0.349008240487,
			"0.014": 0.0,
			"0.015": 0.0,
			"0.016": 0.0,
			"0.017": 0.0,
			"0.018": 0.0,
			"0.019": 0.0,
			"0.02": 0.0,
			"0.021": 0.0,
			"0.022": 0.0,
			"0.023": 0.0,
			"0.024": 0.0,
			"0.025": 0.0
		}
	}
}
