{
	 "smiles": "COC(=O)C1=CC=C(NS(=O)(=O)C2=CC=C(C)C=C2)C=C1", 
	 "Tm": 424.15, 
	 "num_atms": 36, 
	 "gaussian": { 
		 "optdone": 1, 
		 "sigma_profile": "yes", 
		 "theory": "DFT", 
		 "functional": "B3LYP", 
		 "basiset": "6-31G**", 
		 "properties": { 
			 "R2extent": 9192.9017, 
			 "electric_dipole_moment_norm": 6.48686778731, 
			 "electric_quadrupole_moment_norm": 21.3607532341, 
			 "total_energy": -1334.4228731, 
			 "HOMO_LUMO_gap": 0.18417, 
			 "cosmo_polarized_energy": -19.15, 
			 "cosmo_cavitation_energy": 42.28, 
			 "cosmo_dispersion_energy": -29.81, 
			 "cosmo_repulsion_energy": 2.25, 
			 "cosmo_total_nonelectrostatic_energy": 14.72, 
			 "SMD_solvation_energy": 7.94 
		},
		"coords": [
			{
				"x": 0.1919845917,
				"y": 4.0710272161,
				"z": -4.8430470977,
				"element": "C" 
			},
			{
				"x": 0.3987074805,
				"y": 3.4409582566,
				"z": -3.5703170053,
				"element": "O" 
			},
			{
				"x": -0.6272920834,
				"y": 3.5646399205,
				"z": -2.6938873124,
				"element": "C" 
			},
			{
				"x": -1.6536581866,
				"y": 4.1618331736,
				"z": -2.9575823113,
				"element": "O" 
			},
			{
				"x": -0.3507159755,
				"y": 2.893270487,
				"z": -1.3972698155,
				"element": "C" 
			},
			{
				"x": 0.8415019201,
				"y": 2.2023848765,
				"z": -1.140961016,
				"element": "C" 
			},
			{
				"x": 1.0400948322,
				"y": 1.5816768225,
				"z": 0.0863343132,
				"element": "C" 
			},
			{
				"x": 0.0604775414,
				"y": 1.6594587779,
				"z": 1.0898030829,
				"element": "C" 
			},
			{
				"x": 0.3243385828,
				"y": 1.065013722,
				"z": 2.3442120051,
				"element": "N" 
			},
			{
				"x": -0.7805390009,
				"y": 0.1313089262,
				"z": 3.2451111722,
				"element": "S" 
			},
			{
				"x": 0.0256495705,
				"y": -0.3462207534,
				"z": 4.3682125042,
				"element": "O" 
			},
			{
				"x": -1.9866457033,
				"y": 0.9367183085,
				"z": 3.4262337523,
				"element": "O" 
			},
			{
				"x": -1.20686667,
				"y": -1.2737900025,
				"z": 2.2199913216,
				"element": "C" 
			},
			{
				"x": -2.2848278311,
				"y": -1.1865743221,
				"z": 1.3359551492,
				"element": "C" 
			},
			{
				"x": -2.5828253901,
				"y": -2.2789466188,
				"z": 0.524025208,
				"element": "C" 
			},
			{
				"x": -1.8274455157,
				"y": -3.4587802274,
				"z": 0.5859028601,
				"element": "C" 
			},
			{
				"x": -2.1821070398,
				"y": -4.6483137035,
				"z": -0.2728809546,
				"element": "C" 
			},
			{
				"x": -0.7549553201,
				"y": -3.5194789091,
				"z": 1.4883395887,
				"element": "C" 
			},
			{
				"x": -0.438108254,
				"y": -2.4371808615,
				"z": 2.3055174617,
				"element": "C" 
			},
			{
				"x": -1.1279330893,
				"y": 2.368480117,
				"z": 0.8454393012,
				"element": "C" 
			},
			{
				"x": -1.3268383807,
				"y": 2.9647170078,
				"z": -0.3935386022,
				"element": "C" 
			},
			{
				"x": 1.0985974878,
				"y": 3.8796964326,
				"z": -5.4172829084,
				"element": "H" 
			},
			{
				"x": 0.0349968319,
				"y": 5.1456681548,
				"z": -4.7204390614,
				"element": "H" 
			},
			{
				"x": -0.6791253258,
				"y": 3.6453235009,
				"z": -5.3476593506,
				"element": "H" 
			},
			{
				"x": 1.6034964871,
				"y": 2.1428448789,
				"z": -1.9093711828,
				"element": "H" 
			},
			{
				"x": 1.959097805,
				"y": 1.031952669,
				"z": 0.273396635,
				"element": "H" 
			},
			{
				"x": 1.2576976984,
				"y": 0.6838280574,
				"z": 2.4581087545,
				"element": "H" 
			},
			{
				"x": -2.8848139154,
				"y": -0.2848149043,
				"z": 1.2980155098,
				"element": "H" 
			},
			{
				"x": -3.4202698765,
				"y": -2.2154445325,
				"z": -0.1655381931,
				"element": "H" 
			},
			{
				"x": -1.3016806258,
				"y": -5.2571186999,
				"z": -0.4975082459,
				"element": "H" 
			},
			{
				"x": -2.6345803776,
				"y": -4.3382504281,
				"z": -1.2191247194,
				"element": "H" 
			},
			{
				"x": -2.9053321033,
				"y": -5.296164791,
				"z": 0.2377826355,
				"element": "H" 
			},
			{
				"x": -0.1635024827,
				"y": -4.428709536,
				"z": 1.5557085638,
				"element": "H" 
			},
			{
				"x": 0.3794792278,
				"y": -2.4940355065,
				"z": 3.0161476509,
				"element": "H" 
			},
			{
				"x": -1.8696004121,
				"y": 2.4557839313,
				"z": 1.6296159658,
				"element": "H" 
			},
			{
				"x": -2.2390564977,
				"y": 3.5146385595,
				"z": -0.5991456589,
				"element": "H" 
			}
		],
		 "valence_orbital": [ 
			{
				"type": "occ",
				"energy": -0.27445,
				"method": "rhf"
			},
			{
				"type": "occ",
				"energy": -0.27333,
				"method": "rhf"
			},
			{
				"type": "occ",
				"energy": -0.26846,
				"method": "rhf"
			},
			{
				"type": "occ",
				"energy": -0.26534,
				"method": "rhf"
			},
			{
				"type": "occ",
				"energy": -0.23615,
				"method": "rhf"
			},
			{
				"type": "unocc",
				"energy": -0.05198,
				"method": "rhf"
			},
			{
				"type": "unocc",
				"energy": -0.03703,
				"method": "rhf"
			},
			{
				"type": "unocc",
				"energy": -0.02566,
				"method": "rhf"
			},
			{
				"type": "unocc",
				"energy": -0.0142,
				"method": "rhf"
			},
			{
				"type": "unocc",
				"energy": 0.0425,
				"method": "rhf"
			}
		],
		"cosmo_sigma_profile": { 
			"-0.025": 0.0,
			"-0.024": 0.0,
			"-0.023": 0.0,
			"-0.022": 0.0,
			"-0.021": 0.0,
			"-0.02": 0.0,
			"-0.019": 0.0,
			"-0.018": 0.0,
			"-0.017": 0.021622282351,
			"-0.016": 0.691711765125,
			"-0.015": 0.998065923376,
			"-0.014": 1.79506926267,
			"-0.013": 0.655340920465,
			"-0.012": 1.18046705509,
			"-0.011": 1.38439211377,
			"-0.01": 1.21112166487,
			"-0.009": 1.80820270602,
			"-0.008": 1.94310249496,
			"-0.007": 6.43676319724,
			"-0.006": 18.3985243489,
			"-0.005": 26.4198660398,
			"-0.004": 25.5444960777,
			"-0.003": 26.1328253411,
			"-0.002": 25.7429317788,
			"-0.001": 25.9657216898,
			"0.0": 24.431669875,
			"0.001": 24.028782631,
			"0.002": 27.1247287085,
			"0.003": 31.9468579507,
			"0.004": 10.0601443662,
			"0.005": 7.51580111061,
			"0.006": 6.82482175885,
			"0.007": 4.23363188219,
			"0.008": 5.38988476487,
			"0.009": 5.78518436447,
			"0.01": 9.78384950124,
			"0.011": 8.87514370715,
			"0.012": 4.93492333925,
			"0.013": 0.453777797046,
			"0.014": 0.0,
			"0.015": 0.0,
			"0.016": 0.0,
			"0.017": 0.0,
			"0.018": 0.0,
			"0.019": 0.0,
			"0.02": 0.0,
			"0.021": 0.0,
			"0.022": 0.0,
			"0.023": 0.0,
			"0.024": 0.0,
			"0.025": 0.0
		}
	}
}
