{
	 "smiles": "OC(=O)C1CCN(CC1)C1=C(C=C(C=C1)S(=O)(=O)N1CCOCC1)[N+]([O-])=O", 
	 "Tm": 499.15, 
	 "num_atms": 48, 
	 "gaussian": { 
		 "optdone": 1, 
		 "sigma_profile": "yes", 
		 "theory": "DFT", 
		 "functional": "B3LYP", 
		 "basiset": "6-31G**", 
		 "properties": { 
			 "R2extent": 9400.8908, 
			 "electric_dipole_moment_norm": 8.58980219912, 
			 "electric_quadrupole_moment_norm": 27.5977866699, 
			 "total_energy": -1711.18349178, 
			 "HOMO_LUMO_gap": 0.13926, 
			 "cosmo_polarized_energy": -25.89, 
			 "cosmo_cavitation_energy": 46.68, 
			 "cosmo_dispersion_energy": -32.52, 
			 "cosmo_repulsion_energy": 2.31, 
			 "cosmo_total_nonelectrostatic_energy": 16.46, 
			 "SMD_solvation_energy": 7.47 
		},
		"coords": [
			{
				"x": -1.2293457925,
				"y": -0.8319102138,
				"z": -2.2282906633,
				"element": "O" 
			},
			{
				"x": -1.9763339114,
				"y": -1.5840478414,
				"z": -1.4108021313,
				"element": "C" 
			},
			{
				"x": -2.5910305686,
				"y": -1.1270827139,
				"z": -0.4624766819,
				"element": "O" 
			},
			{
				"x": -2.0005072185,
				"y": -3.0656781259,
				"z": -1.7995018097,
				"element": "C" 
			},
			{
				"x": -2.5222487744,
				"y": -3.9150225343,
				"z": -0.6278268239,
				"element": "C" 
			},
			{
				"x": -1.6065837375,
				"y": -3.767156627,
				"z": 0.6143163079,
				"element": "C" 
			},
			{
				"x": -0.2176073976,
				"y": -3.4941458469,
				"z": 0.2001521909,
				"element": "N" 
			},
			{
				"x": 0.1419054619,
				"y": -4.1857423139,
				"z": -1.0389887307,
				"element": "C" 
			},
			{
				"x": -0.622699701,
				"y": -3.6117070567,
				"z": -2.256592385,
				"element": "C" 
			},
			{
				"x": 0.4586013571,
				"y": -2.3810254714,
				"z": 0.6223642027,
				"element": "C" 
			},
			{
				"x": 0.2272286297,
				"y": -1.7489351178,
				"z": 1.8833090519,
				"element": "C" 
			},
			{
				"x": 0.6788992165,
				"y": -0.4558570018,
				"z": 2.15084375,
				"element": "C" 
			},
			{
				"x": 1.4804254876,
				"y": 0.2009784577,
				"z": 1.2287695449,
				"element": "C" 
			},
			{
				"x": 1.8990486006,
				"y": -0.474910571,
				"z": 0.0717163858,
				"element": "C" 
			},
			{
				"x": 1.404368056,
				"y": -1.7304621093,
				"z": -0.2190895278,
				"element": "C" 
			},
			{
				"x": 1.9054358772,
				"y": 1.9177413683,
				"z": 1.4710231472,
				"element": "S" 
			},
			{
				"x": 3.2086356208,
				"y": 2.144599716,
				"z": 0.8419507581,
				"element": "O" 
			},
			{
				"x": 1.6302297716,
				"y": 2.2358306973,
				"z": 2.8731789046,
				"element": "O" 
			},
			{
				"x": 0.815311984,
				"y": 2.8325501568,
				"z": 0.5670210331,
				"element": "N" 
			},
			{
				"x": 1.0592495931,
				"y": 3.0371020178,
				"z": -0.8703604547,
				"element": "C" 
			},
			{
				"x": -0.2393715753,
				"y": 2.7933682702,
				"z": -1.6589122722,
				"element": "C" 
			},
			{
				"x": -0.9356898559,
				"y": 1.6771111734,
				"z": -1.117090781,
				"element": "O" 
			},
			{
				"x": -1.4864547179,
				"y": 1.943636119,
				"z": 0.1865525992,
				"element": "C" 
			},
			{
				"x": -0.5844921192,
				"y": 2.9129410938,
				"z": 0.9852073888,
				"element": "C" 
			},
			{
				"x": -0.3886147232,
				"y": -2.4485748984,
				"z": 3.0133764906,
				"element": "N" 
			},
			{
				"x": -0.2814967662,
				"y": -3.6768059762,
				"z": 3.0588260059,
				"element": "O" 
			},
			{
				"x": -0.9257330375,
				"y": -1.7662775787,
				"z": 3.8883444044,
				"element": "O" 
			},
			{
				"x": -1.2113215219,
				"y": 0.0908141234,
				"z": -1.8688639113,
				"element": "H" 
			},
			{
				"x": -2.6985092019,
				"y": -3.1307473383,
				"z": -2.6442899862,
				"element": "H" 
			},
			{
				"x": -2.5783184629,
				"y": -4.9598119738,
				"z": -0.9530355174,
				"element": "H" 
			},
			{
				"x": -3.5322043026,
				"y": -3.6089890484,
				"z": -0.3453875531,
				"element": "H" 
			},
			{
				"x": -1.6485689703,
				"y": -4.6542859007,
				"z": 1.2549046879,
				"element": "H" 
			},
			{
				"x": -1.9634259147,
				"y": -2.9162036436,
				"z": 1.1911031933,
				"element": "H" 
			},
			{
				"x": -0.1231591517,
				"y": -5.2383566672,
				"z": -0.8923321866,
				"element": "H" 
			},
			{
				"x": 1.2232041212,
				"y": -4.1658439286,
				"z": -1.1826713847,
				"element": "H" 
			},
			{
				"x": -0.7660163958,
				"y": -4.4103575355,
				"z": -2.9924428176,
				"element": "H" 
			},
			{
				"x": -0.0550240777,
				"y": -2.8186984715,
				"z": -2.7472841455,
				"element": "H" 
			},
			{
				"x": 0.4263235273,
				"y": 0.0021398259,
				"z": 3.0991390999,
				"element": "H" 
			},
			{
				"x": 2.6008936917,
				"y": -0.0012599676,
				"z": -0.6059068086,
				"element": "H" 
			},
			{
				"x": 1.6921051605,
				"y": -2.1903772308,
				"z": -1.154878878,
				"element": "H" 
			},
			{
				"x": 1.4248849832,
				"y": 4.0564664541,
				"z": -1.0541194469,
				"element": "H" 
			},
			{
				"x": 1.839863965,
				"y": 2.352147333,
				"z": -1.2054018812,
				"element": "H" 
			},
			{
				"x": -0.0143892283,
				"y": 2.5586949965,
				"z": -2.7024066914,
				"element": "H" 
			},
			{
				"x": -0.8866830866,
				"y": 3.6819266282,
				"z": -1.6490313155,
				"element": "H" 
			},
			{
				"x": -1.5811155991,
				"y": 0.9680491795,
				"z": 0.663542029,
				"element": "H" 
			},
			{
				"x": -2.4936596478,
				"y": 2.3711758048,
				"z": 0.0794799253,
				"element": "H" 
			},
			{
				"x": -0.9124219985,
				"y": 3.9496769648,
				"z": 0.8426245398,
				"element": "H" 
			},
			{
				"x": -0.6467876486,
				"y": 2.7137233242,
				"z": 2.056339144,
				"element": "H" 
			}
		],
		 "valence_orbital": [ 
			{
				"type": "occ",
				"energy": -0.29011,
				"method": "rhf"
			},
			{
				"type": "occ",
				"energy": -0.27528,
				"method": "rhf"
			},
			{
				"type": "occ",
				"energy": -0.27396,
				"method": "rhf"
			},
			{
				"type": "occ",
				"energy": -0.25759,
				"method": "rhf"
			},
			{
				"type": "occ",
				"energy": -0.22108,
				"method": "rhf"
			},
			{
				"type": "unocc",
				"energy": -0.08182,
				"method": "rhf"
			},
			{
				"type": "unocc",
				"energy": -0.03681,
				"method": "rhf"
			},
			{
				"type": "unocc",
				"energy": -0.01466,
				"method": "rhf"
			},
			{
				"type": "unocc",
				"energy": 0.00216,
				"method": "rhf"
			},
			{
				"type": "unocc",
				"energy": 0.04254,
				"method": "rhf"
			}
		],
		"cosmo_sigma_profile": { 
			"-0.025": 0.0,
			"-0.024": 0.0,
			"-0.023": 0.0,
			"-0.022": 0.0,
			"-0.021": 0.0,
			"-0.02": 0.0,
			"-0.019": 0.0,
			"-0.018": 0.0,
			"-0.017": 0.0,
			"-0.016": 0.0,
			"-0.015": 0.0,
			"-0.014": 0.0,
			"-0.013": 0.0,
			"-0.012": 0.0,
			"-0.011": 0.0,
			"-0.01": 0.0972406731719,
			"-0.009": 1.55257577908,
			"-0.008": 4.47492014753,
			"-0.007": 14.4185179374,
			"-0.006": 31.2506589395,
			"-0.005": 38.7057287687,
			"-0.004": 38.9807787671,
			"-0.003": 28.643128056,
			"-0.002": 22.2741284016,
			"-0.001": 23.1738966683,
			"0.0": 19.529258787,
			"0.001": 18.6034166687,
			"0.002": 16.7611427271,
			"0.003": 11.3242387435,
			"0.004": 10.6952059781,
			"0.005": 11.2736693267,
			"0.006": 9.9051637555,
			"0.007": 10.4479716666,
			"0.008": 15.6333606262,
			"0.009": 11.9492369783,
			"0.01": 12.1931879667,
			"0.011": 10.852249157,
			"0.012": 4.53582233275,
			"0.013": 0.143092962479,
			"0.014": 0.0,
			"0.015": 0.0,
			"0.016": 0.0,
			"0.017": 0.0,
			"0.018": 0.0,
			"0.019": 0.0,
			"0.02": 0.0,
			"0.021": 0.0,
			"0.022": 0.0,
			"0.023": 0.0,
			"0.024": 0.0,
			"0.025": 0.0
		}
	}
}
