{
	 "smiles": "CC(C)(C)C1=CC=C(C=C[N+]([O-])=O)C=C1", 
	 "Tm": 318.15, 
	 "num_atms": 30, 
	 "gaussian": { 
		 "optdone": 1, 
		 "sigma_profile": "yes", 
		 "theory": "DFT", 
		 "functional": "B3LYP", 
		 "basiset": "6-31G**", 
		 "properties": { 
			 "R2extent": 5678.2761, 
			 "electric_dipole_moment_norm": 5.48193204628, 
			 "electric_quadrupole_moment_norm": 26.8660886178, 
			 "total_energy": -671.407491944, 
			 "HOMO_LUMO_gap": 0.15061, 
			 "cosmo_polarized_energy": -10.04, 
			 "cosmo_cavitation_energy": 32.82, 
			 "cosmo_dispersion_energy": -23.4, 
			 "cosmo_repulsion_energy": 1.81, 
			 "cosmo_total_nonelectrostatic_energy": 11.23, 
			 "SMD_solvation_energy": 8.26 
		},
		"coords": [
			{
				"x": 3.0119430722,
				"y": 0.7328758178,
				"z": -0.6187674205,
				"element": "C" 
			},
			{
				"x": 1.9641981324,
				"y": -0.403764475,
				"z": -0.5372436747,
				"element": "C" 
			},
			{
				"x": 2.4315529879,
				"y": -1.4600805184,
				"z": 0.4933448327,
				"element": "C" 
			},
			{
				"x": 1.8785043035,
				"y": -1.0813553506,
				"z": -1.9179553614,
				"element": "C" 
			},
			{
				"x": 0.6157987292,
				"y": 0.1814180063,
				"z": -0.0877653086,
				"element": "C" 
			},
			{
				"x": 0.509855377,
				"y": 0.838240522,
				"z": 1.1524896956,
				"element": "C" 
			},
			{
				"x": -0.6818224322,
				"y": 1.3865105749,
				"z": 1.6068169903,
				"element": "C" 
			},
			{
				"x": -1.8534413123,
				"y": 1.3009168917,
				"z": 0.8243567212,
				"element": "C" 
			},
			{
				"x": -3.1778091467,
				"y": 1.8176413156,
				"z": 1.1558498416,
				"element": "C" 
			},
			{
				"x": -3.7970915638,
				"y": 2.4999805286,
				"z": 2.145139611,
				"element": "C" 
			},
			{
				"x": -3.28453956,
				"y": 3.0304011484,
				"z": 3.3860183092,
				"element": "N" 
			},
			{
				"x": -4.1185977078,
				"y": 3.6038143699,
				"z": 4.0946522909,
				"element": "O" 
			},
			{
				"x": -2.0931619427,
				"y": 2.9070796169,
				"z": 3.6882422429,
				"element": "O" 
			},
			{
				"x": -1.7498057093,
				"y": 0.6406674912,
				"z": -0.4182263812,
				"element": "C" 
			},
			{
				"x": -0.5499188047,
				"y": 0.0970478114,
				"z": -0.8633226118,
				"element": "C" 
			},
			{
				"x": 2.7097726527,
				"y": 1.4940946491,
				"z": -1.3453833293,
				"element": "H" 
			},
			{
				"x": 3.1528473594,
				"y": 1.2286197386,
				"z": 0.345951329,
				"element": "H" 
			},
			{
				"x": 3.9817506962,
				"y": 0.3305157911,
				"z": -0.9316410908,
				"element": "H" 
			},
			{
				"x": 3.3961893085,
				"y": -1.8819411875,
				"z": 0.190335399,
				"element": "H" 
			},
			{
				"x": 2.5550511927,
				"y": -1.0304913332,
				"z": 1.4915843038,
				"element": "H" 
			},
			{
				"x": 1.7107988756,
				"y": -2.2807887493,
				"z": 0.5688728298,
				"element": "H" 
			},
			{
				"x": 1.1712514473,
				"y": -1.917313558,
				"z": -1.9196850883,
				"element": "H" 
			},
			{
				"x": 1.5797825448,
				"y": -0.3767383978,
				"z": -2.7010983796,
				"element": "H" 
			},
			{
				"x": 2.8598962407,
				"y": -1.4807939532,
				"z": -2.1924437134,
				"element": "H" 
			},
			{
				"x": 1.3853968144,
				"y": 0.9275179608,
				"z": 1.7883761434,
				"element": "H" 
			},
			{
				"x": -0.7207932001,
				"y": 1.8834056272,
				"z": 2.5639551677,
				"element": "H" 
			},
			{
				"x": -3.8983102807,
				"y": 1.5876584842,
				"z": 0.3706385783,
				"element": "H" 
			},
			{
				"x": -4.8515210886,
				"y": 2.7274028288,
				"z": 2.0698606066,
				"element": "H" 
			},
			{
				"x": -2.6319838998,
				"y": 0.5536395927,
				"z": -1.0478057736,
				"element": "H" 
			},
			{
				"x": -0.5329930858,
				"y": -0.3971812443,
				"z": -1.8274467596,
				"element": "H" 
			}
		],
		 "valence_orbital": [ 
			{
				"type": "occ",
				"energy": -0.29924,
				"method": "rhf"
			},
			{
				"type": "occ",
				"energy": -0.29787,
				"method": "rhf"
			},
			{
				"type": "occ",
				"energy": -0.27655,
				"method": "rhf"
			},
			{
				"type": "occ",
				"energy": -0.2628,
				"method": "rhf"
			},
			{
				"type": "occ",
				"energy": -0.24443,
				"method": "rhf"
			},
			{
				"type": "unocc",
				"energy": -0.09382,
				"method": "rhf"
			},
			{
				"type": "unocc",
				"energy": -0.02133,
				"method": "rhf"
			},
			{
				"type": "unocc",
				"energy": -0.01272,
				"method": "rhf"
			},
			{
				"type": "unocc",
				"energy": 0.05482,
				"method": "rhf"
			},
			{
				"type": "unocc",
				"energy": 0.07025,
				"method": "rhf"
			}
		],
		"cosmo_sigma_profile": { 
			"-0.025": 0.0,
			"-0.024": 0.0,
			"-0.023": 0.0,
			"-0.022": 0.0,
			"-0.021": 0.0,
			"-0.02": 0.0,
			"-0.019": 0.0,
			"-0.018": 0.0,
			"-0.017": 0.0,
			"-0.016": 0.0,
			"-0.015": 0.0,
			"-0.014": 0.0,
			"-0.013": 0.0,
			"-0.012": 0.0,
			"-0.011": 0.0,
			"-0.01": 0.0855026932691,
			"-0.009": 3.68388065248,
			"-0.008": 5.00264232419,
			"-0.007": 4.4067861797,
			"-0.006": 6.35718433665,
			"-0.005": 10.3010558712,
			"-0.004": 12.2658711977,
			"-0.003": 28.4720430848,
			"-0.002": 27.0541614201,
			"-0.001": 27.2268472121,
			"0.0": 26.7279376393,
			"0.001": 34.2343617621,
			"0.002": 16.2596701059,
			"0.003": 12.3616653316,
			"0.004": 13.999383183,
			"0.005": 3.95064799376,
			"0.006": 2.6839946893,
			"0.007": 3.28374877816,
			"0.008": 6.57289232673,
			"0.009": 6.95363884226,
			"0.01": 4.72370341885,
			"0.011": 2.36444145171,
			"0.012": 0.0914975242583,
			"0.013": 0.0,
			"0.014": 0.0,
			"0.015": 0.0,
			"0.016": 0.0,
			"0.017": 0.0,
			"0.018": 0.0,
			"0.019": 0.0,
			"0.02": 0.0,
			"0.021": 0.0,
			"0.022": 0.0,
			"0.023": 0.0,
			"0.024": 0.0,
			"0.025": 0.0
		}
	}
}
