{
	 "smiles": "NC1=C(C#N)C(=NN1C1=CC=CC=C1)C1=CC=CC=C1", 
	 "Tm": 434.15, 
	 "num_atms": 32, 
	 "gaussian": { 
		 "optdone": 1, 
		 "sigma_profile": "yes", 
		 "theory": "DFT", 
		 "functional": "B3LYP", 
		 "basiset": "6-31G**", 
		 "properties": { 
			 "R2extent": 7793.8514, 
			 "electric_dipole_moment_norm": 5.20693010324, 
			 "electric_quadrupole_moment_norm": 18.1555575717, 
			 "total_energy": -835.919303846, 
			 "HOMO_LUMO_gap": 0.17921, 
			 "cosmo_polarized_energy": -16.17, 
			 "cosmo_cavitation_energy": 37.43, 
			 "cosmo_dispersion_energy": -26.54, 
			 "cosmo_repulsion_energy": 2.01, 
			 "cosmo_total_nonelectrostatic_energy": 12.89, 
			 "SMD_solvation_energy": 6.61 
		},
		"coords": [
			{
				"x": 1.6960661903,
				"y": -1.875800244,
				"z": -0.3868026756,
				"element": "N" 
			},
			{
				"x": 0.865301306,
				"y": -1.3641132262,
				"z": 0.5828307875,
				"element": "C" 
			},
			{
				"x": 0.5980816559,
				"y": -1.8629989762,
				"z": 1.8614850674,
				"element": "C" 
			},
			{
				"x": 1.2249504974,
				"y": -3.0180339704,
				"z": 2.3769615297,
				"element": "C" 
			},
			{
				"x": 1.7863134107,
				"y": -3.9727426231,
				"z": 2.7447883639,
				"element": "N" 
			},
			{
				"x": -0.3570897565,
				"y": -0.9498354152,
				"z": 2.428433168,
				"element": "C" 
			},
			{
				"x": -0.6386078043,
				"y": 0.0163538356,
				"z": 1.5659067643,
				"element": "N" 
			},
			{
				"x": 0.0951878052,
				"y": -0.2502614483,
				"z": 0.4337520745,
				"element": "N" 
			},
			{
				"x": 0.0362327808,
				"y": 0.6507462526,
				"z": -0.6649640454,
				"element": "C" 
			},
			{
				"x": -0.0975476773,
				"y": 2.0203970168,
				"z": -0.4082974175,
				"element": "C" 
			},
			{
				"x": -0.1646653375,
				"y": 2.9132167792,
				"z": -1.4749410739,
				"element": "C" 
			},
			{
				"x": -0.0902434122,
				"y": 2.4529263451,
				"z": -2.7925101824,
				"element": "C" 
			},
			{
				"x": 0.0340209022,
				"y": 1.0857236896,
				"z": -3.0396963872,
				"element": "C" 
			},
			{
				"x": 0.0873370231,
				"y": 0.1764695282,
				"z": -1.9816493664,
				"element": "C" 
			},
			{
				"x": -1.0071698473,
				"y": -0.9743623294,
				"z": 3.7506917509,
				"element": "C" 
			},
			{
				"x": -0.6286560714,
				"y": -1.8885217532,
				"z": 4.7464317251,
				"element": "C" 
			},
			{
				"x": -1.2622937167,
				"y": -1.8817522476,
				"z": 5.9893411753,
				"element": "C" 
			},
			{
				"x": -2.2788762518,
				"y": -0.9654439821,
				"z": 6.2586126663,
				"element": "C" 
			},
			{
				"x": -2.661251714,
				"y": -0.0510035759,
				"z": 5.2728143258,
				"element": "C" 
			},
			{
				"x": -2.0340136575,
				"y": -0.0544894485,
				"z": 4.0310996057,
				"element": "C" 
			},
			{
				"x": 2.1293561102,
				"y": -1.1972920931,
				"z": -1.0001304523,
				"element": "H" 
			},
			{
				"x": 2.3454596284,
				"y": -2.5682470296,
				"z": -0.034873532,
				"element": "H" 
			},
			{
				"x": -0.1568916548,
				"y": 2.3593912347,
				"z": 0.6189649854,
				"element": "H" 
			},
			{
				"x": -0.2694717938,
				"y": 3.9753313016,
				"z": -1.2746047992,
				"element": "H" 
			},
			{
				"x": -0.1369784214,
				"y": 3.1548712119,
				"z": -3.6193856907,
				"element": "H" 
			},
			{
				"x": 0.0719039097,
				"y": 0.7163653626,
				"z": -4.0601585074,
				"element": "H" 
			},
			{
				"x": 0.1385960861,
				"y": -0.8891878917,
				"z": -2.1756680676,
				"element": "H" 
			},
			{
				"x": 0.161973757,
				"y": -2.60663754,
				"z": 4.5611011799,
				"element": "H" 
			},
			{
				"x": -0.9563929792,
				"y": -2.5963244251,
				"z": 6.7479208569,
				"element": "H" 
			},
			{
				"x": -2.7708846432,
				"y": -0.9633095897,
				"z": 7.2270237563,
				"element": "H" 
			},
			{
				"x": -3.4536613488,
				"y": 0.6649606297,
				"z": 5.4720430142,
				"element": "H" 
			},
			{
				"x": -2.3301849753,
				"y": 0.6493046215,
				"z": 3.2611794005,
				"element": "H" 
			}
		],
		 "valence_orbital": [ 
			{
				"type": "occ",
				"energy": -0.27049,
				"method": "rhf"
			},
			{
				"type": "occ",
				"energy": -0.26072,
				"method": "rhf"
			},
			{
				"type": "occ",
				"energy": -0.24803,
				"method": "rhf"
			},
			{
				"type": "occ",
				"energy": -0.23165,
				"method": "rhf"
			},
			{
				"type": "occ",
				"energy": -0.21806,
				"method": "rhf"
			},
			{
				"type": "unocc",
				"energy": -0.03885,
				"method": "rhf"
			},
			{
				"type": "unocc",
				"energy": -0.02649,
				"method": "rhf"
			},
			{
				"type": "unocc",
				"energy": -0.02249,
				"method": "rhf"
			},
			{
				"type": "unocc",
				"energy": 0.00191,
				"method": "rhf"
			},
			{
				"type": "unocc",
				"energy": 0.01687,
				"method": "rhf"
			}
		],
		"cosmo_sigma_profile": { 
			"-0.025": 0.0,
			"-0.024": 0.0,
			"-0.023": 0.0,
			"-0.022": 0.0,
			"-0.021": 0.0,
			"-0.02": 0.0,
			"-0.019": 0.0,
			"-0.018": 0.0,
			"-0.017": 0.0,
			"-0.016": 0.0,
			"-0.015": 0.227240640738,
			"-0.014": 1.67025424992,
			"-0.013": 2.43996188792,
			"-0.012": 2.86140993106,
			"-0.011": 2.45156674189,
			"-0.01": 2.24394365782,
			"-0.009": 2.23671338319,
			"-0.008": 2.60699103903,
			"-0.007": 4.04523383264,
			"-0.006": 15.4081812086,
			"-0.005": 20.7850409183,
			"-0.004": 22.9887053088,
			"-0.003": 17.4144828624,
			"-0.002": 20.4973693367,
			"-0.001": 20.4099301846,
			"0.0": 20.7733266125,
			"0.001": 23.8707641433,
			"0.002": 20.6036063596,
			"0.003": 23.8779867713,
			"0.004": 25.8573818224,
			"0.005": 17.8665432136,
			"0.006": 4.93398617384,
			"0.007": 5.19025957647,
			"0.008": 4.334350666,
			"0.009": 4.0156895675,
			"0.01": 4.13880798998,
			"0.011": 2.94467397166,
			"0.012": 2.93784534791,
			"0.013": 2.22530086887,
			"0.014": 0.491549528284,
			"0.015": 0.0,
			"0.016": 0.0,
			"0.017": 0.0,
			"0.018": 0.0,
			"0.019": 0.0,
			"0.02": 0.0,
			"0.021": 0.0,
			"0.022": 0.0,
			"0.023": 0.0,
			"0.024": 0.0,
			"0.025": 0.0
		}
	}
}
