{
	 "smiles": "OC(=O)C1=CN=NS1", 
	 "Tm": 377.15, 
	 "num_atms": 10, 
	 "gaussian": { 
		 "optdone": 1, 
		 "sigma_profile": "yes", 
		 "theory": "DFT", 
		 "functional": "B3LYP", 
		 "basiset": "6-31G**", 
		 "properties": { 
			 "R2extent": 1317.4319, 
			 "electric_dipole_moment_norm": 3.03346424406, 
			 "electric_quadrupole_moment_norm": 8.82286672913, 
			 "total_energy": -773.621249171, 
			 "HOMO_LUMO_gap": 0.17819, 
			 "cosmo_polarized_energy": -10.64, 
			 "cosmo_cavitation_energy": 17.3, 
			 "cosmo_dispersion_energy": -13.48, 
			 "cosmo_repulsion_energy": 1.07, 
			 "cosmo_total_nonelectrostatic_energy": 4.89, 
			 "SMD_solvation_energy": 2.68 
		},
		"coords": [
			{
				"x": -2.2155618503,
				"y": 0.2552269951,
				"z": 1.014737965,
				"element": "O" 
			},
			{
				"x": -1.1098260139,
				"y": -0.1904807658,
				"z": 0.3798018478,
				"element": "C" 
			},
			{
				"x": -1.0215397494,
				"y": -1.2825676762,
				"z": -0.1371012969,
				"element": "O" 
			},
			{
				"x": -0.0219517776,
				"y": 0.8103060115,
				"z": 0.3907099661,
				"element": "C" 
			},
			{
				"x": 1.2170543998,
				"y": 0.6288618051,
				"z": -0.1804408551,
				"element": "C" 
			},
			{
				"x": 2.0588241959,
				"y": 1.6950787798,
				"z": -0.0428091399,
				"element": "N" 
			},
			{
				"x": 1.5655452462,
				"y": 2.6911627671,
				"z": 0.5929892482,
				"element": "N" 
			},
			{
				"x": -0.0657717089,
				"y": 2.3705446841,
				"z": 1.0969670189,
				"element": "S" 
			},
			{
				"x": -2.8754633033,
				"y": -0.4566786849,
				"z": 0.961982709,
				"element": "H" 
			},
			{
				"x": 1.5412905616,
				"y": -0.2616539159,
				"z": -0.7023374629,
				"element": "H" 
			}
		],
		 "valence_orbital": [ 
			{
				"type": "occ",
				"energy": -0.34947,
				"method": "rhf"
			},
			{
				"type": "occ",
				"energy": -0.32296,
				"method": "rhf"
			},
			{
				"type": "occ",
				"energy": -0.30919,
				"method": "rhf"
			},
			{
				"type": "occ",
				"energy": -0.29352,
				"method": "rhf"
			},
			{
				"type": "occ",
				"energy": -0.27654,
				"method": "rhf"
			},
			{
				"type": "unocc",
				"energy": -0.09835,
				"method": "rhf"
			},
			{
				"type": "unocc",
				"energy": -0.02192,
				"method": "rhf"
			},
			{
				"type": "unocc",
				"energy": -0.01512,
				"method": "rhf"
			},
			{
				"type": "unocc",
				"energy": 0.05713,
				"method": "rhf"
			},
			{
				"type": "unocc",
				"energy": 0.06293,
				"method": "rhf"
			}
		],
		"cosmo_sigma_profile": { 
			"-0.025": 0.0,
			"-0.024": 0.0,
			"-0.023": 0.0,
			"-0.022": 0.0,
			"-0.021": 0.0,
			"-0.02": 0.23437484787,
			"-0.019": 0.861601951228,
			"-0.018": 1.01546625454,
			"-0.017": 1.41001373677,
			"-0.016": 0.649267918285,
			"-0.015": 0.313055996316,
			"-0.014": 0.193279746414,
			"-0.013": 1.40373577619,
			"-0.012": 1.08362441547,
			"-0.011": 0.659978086828,
			"-0.01": 1.53394664025,
			"-0.009": 2.16215915594,
			"-0.008": 2.47966135015,
			"-0.007": 1.56115850405,
			"-0.006": 2.95942417635,
			"-0.005": 6.68241000359,
			"-0.004": 10.0596572109,
			"-0.003": 11.4789290409,
			"-0.002": 16.0169337712,
			"-0.001": 15.1240287095,
			"0.0": 8.24471252443,
			"0.001": 4.95207529805,
			"0.002": 4.58370009995,
			"0.003": 4.93441130642,
			"0.004": 4.43975948679,
			"0.005": 4.11863733397,
			"0.006": 5.3286450842,
			"0.007": 4.15417483956,
			"0.008": 4.48083704326,
			"0.009": 5.4076157743,
			"0.01": 7.62566062005,
			"0.011": 4.5126681483,
			"0.012": 1.35145928256,
			"0.013": 0.102840540393,
			"0.014": 0.0,
			"0.015": 0.0,
			"0.016": 0.0,
			"0.017": 0.0,
			"0.018": 0.0,
			"0.019": 0.0,
			"0.02": 0.0,
			"0.021": 0.0,
			"0.022": 0.0,
			"0.023": 0.0,
			"0.024": 0.0,
			"0.025": 0.0
		}
	}
}
