{
	 "smiles": "CN1C2=C(C=CC=C2)C(Br)=C1C1=CC=CC=C1", 
	 "Tm": 333.15, 
	 "num_atms": 29, 
	 "gaussian": { 
		 "optdone": 1, 
		 "sigma_profile": "yes", 
		 "theory": "DFT", 
		 "functional": "B3LYP", 
		 "basiset": "6-31G**", 
		 "properties": { 
			 "R2extent": 5507.4891, 
			 "electric_dipole_moment_norm": 3.33350441878, 
			 "electric_quadrupole_moment_norm": 7.53127246287, 
			 "total_energy": -3204.99253354, 
			 "HOMO_LUMO_gap": 0.16312, 
			 "cosmo_polarized_energy": -8.04, 
			 "cosmo_cavitation_energy": 34.35, 
			 "cosmo_dispersion_energy": -24.88, 
			 "cosmo_repulsion_energy": 1.9, 
			 "cosmo_total_nonelectrostatic_energy": 11.38, 
			 "SMD_solvation_energy": 4.22 
		},
		"coords": [
			{
				"x": 0.2210246964,
				"y": -2.3203346208,
				"z": 0.1192656033,
				"element": "C" 
			},
			{
				"x": 0.2904730277,
				"y": -1.001709873,
				"z": 0.7257253438,
				"element": "N" 
			},
			{
				"x": 0.4871197596,
				"y": -0.799781728,
				"z": 2.0789319557,
				"element": "C" 
			},
			{
				"x": 0.3050593564,
				"y": 0.5805106363,
				"z": 2.3594439349,
				"element": "C" 
			},
			{
				"x": 0.4628531253,
				"y": 1.0487892005,
				"z": 3.6731924986,
				"element": "C" 
			},
			{
				"x": 0.7826965924,
				"y": 0.1382342331,
				"z": 4.6711576312,
				"element": "C" 
			},
			{
				"x": 0.948440319,
				"y": -1.2322059996,
				"z": 4.3806636991,
				"element": "C" 
			},
			{
				"x": 0.8036719461,
				"y": -1.7197204139,
				"z": 3.0864842924,
				"element": "C" 
			},
			{
				"x": -0.023843866,
				"y": 1.1885387108,
				"z": 1.1104724208,
				"element": "C" 
			},
			{
				"x": -0.3066624666,
				"y": 3.0411878533,
				"z": 0.8718084622,
				"element": "Br" 
			},
			{
				"x": -0.0276229159,
				"y": 0.2216804578,
				"z": 0.1238727396,
				"element": "C" 
			},
			{
				"x": -0.2636042588,
				"y": 0.3576198,
				"z": -1.3236462499,
				"element": "C" 
			},
			{
				"x": 0.6554553551,
				"y": -0.1501458999,
				"z": -2.2595987231,
				"element": "C" 
			},
			{
				"x": 0.4310473825,
				"y": -0.0050030253,
				"z": -3.6279933171,
				"element": "C" 
			},
			{
				"x": -0.7104248415,
				"y": 0.6562032314,
				"z": -4.0854981505,
				"element": "C" 
			},
			{
				"x": -1.6253834785,
				"y": 1.1721793571,
				"z": -3.1654553455,
				"element": "C" 
			},
			{
				"x": -1.4069478071,
				"y": 1.0232121286,
				"z": -1.796840115,
				"element": "C" 
			},
			{
				"x": 1.2125688957,
				"y": -2.7840676403,
				"z": 0.061327552,
				"element": "H" 
			},
			{
				"x": -0.4337576957,
				"y": -2.9698557918,
				"z": 0.7096758802,
				"element": "H" 
			},
			{
				"x": -0.1849305443,
				"y": -2.2386680186,
				"z": -0.8877589362,
				"element": "H" 
			},
			{
				"x": 0.3317732949,
				"y": 2.1037387171,
				"z": 3.8933310918,
				"element": "H" 
			},
			{
				"x": 0.9070147684,
				"y": 0.4829411517,
				"z": 5.6934092804,
				"element": "H" 
			},
			{
				"x": 1.1977551533,
				"y": -1.9205583923,
				"z": 5.1828546334,
				"element": "H" 
			},
			{
				"x": 0.9399276613,
				"y": -2.7744328876,
				"z": 2.868648497,
				"element": "H" 
			},
			{
				"x": 1.5600580787,
				"y": -0.6389982009,
				"z": -1.909908653,
				"element": "H" 
			},
			{
				"x": 1.1540803347,
				"y": -0.3990919182,
				"z": -4.3364089986,
				"element": "H" 
			},
			{
				"x": -0.8836565994,
				"y": 0.7715959851,
				"z": -5.1514846156,
				"element": "H" 
			},
			{
				"x": -2.515583905,
				"y": 1.6880213489,
				"z": -3.5136238287,
				"element": "H" 
			},
			{
				"x": -2.1230013685,
				"y": 1.4186215985,
				"z": -1.0845485834,
				"element": "H" 
			}
		],
		 "valence_orbital": [ 
			{
				"type": "occ",
				"energy": -0.26494,
				"method": "rhf"
			},
			{
				"type": "occ",
				"energy": -0.25772,
				"method": "rhf"
			},
			{
				"type": "occ",
				"energy": -0.25545,
				"method": "rhf"
			},
			{
				"type": "occ",
				"energy": -0.21852,
				"method": "rhf"
			},
			{
				"type": "occ",
				"energy": -0.19557,
				"method": "rhf"
			},
			{
				"type": "unocc",
				"energy": -0.03245,
				"method": "rhf"
			},
			{
				"type": "unocc",
				"energy": -0.00795,
				"method": "rhf"
			},
			{
				"type": "unocc",
				"energy": 0.00479,
				"method": "rhf"
			},
			{
				"type": "unocc",
				"energy": 0.02341,
				"method": "rhf"
			},
			{
				"type": "unocc",
				"energy": 0.0282,
				"method": "rhf"
			}
		],
		"cosmo_sigma_profile": { 
			"-0.025": 0.0,
			"-0.024": 0.0,
			"-0.023": 0.0,
			"-0.022": 0.0,
			"-0.021": 0.0,
			"-0.02": 0.0,
			"-0.019": 0.0,
			"-0.018": 0.0,
			"-0.017": 0.0,
			"-0.016": 0.0,
			"-0.015": 0.0,
			"-0.014": 0.0,
			"-0.013": 0.0,
			"-0.012": 0.0,
			"-0.011": 0.0,
			"-0.01": 0.0,
			"-0.009": 0.0,
			"-0.008": 0.0,
			"-0.007": 0.461662032029,
			"-0.006": 12.3779860786,
			"-0.005": 26.1175273609,
			"-0.004": 28.1108706271,
			"-0.003": 28.6511074052,
			"-0.002": 19.8652967551,
			"-0.001": 15.6441475491,
			"0.0": 15.9191448429,
			"0.001": 18.3558684823,
			"0.002": 18.9392747103,
			"0.003": 25.7587477256,
			"0.004": 28.8236793912,
			"0.005": 27.2899619846,
			"0.006": 10.1052690857,
			"0.007": 2.18229107728,
			"0.008": 0.0,
			"0.009": 0.0,
			"0.01": 0.0,
			"0.011": 0.0,
			"0.012": 0.0,
			"0.013": 0.0,
			"0.014": 0.0,
			"0.015": 0.0,
			"0.016": 0.0,
			"0.017": 0.0,
			"0.018": 0.0,
			"0.019": 0.0,
			"0.02": 0.0,
			"0.021": 0.0,
			"0.022": 0.0,
			"0.023": 0.0,
			"0.024": 0.0,
			"0.025": 0.0
		}
	}
}
