{
	 "smiles": "CC1=C(C)C(=NN1)C1=CC=CC=C1", 
	 "Tm": 377.15, 
	 "num_atms": 25, 
	 "gaussian": { 
		 "optdone": 1, 
		 "sigma_profile": "yes", 
		 "theory": "DFT", 
		 "functional": "B3LYP", 
		 "basiset": "6-31G**", 
		 "properties": { 
			 "R2extent": 3457.2806, 
			 "electric_dipole_moment_norm": 2.95832347623, 
			 "electric_quadrupole_moment_norm": 12.9756128892, 
			 "total_energy": -535.904909129, 
			 "HOMO_LUMO_gap": 0.20254, 
			 "cosmo_polarized_energy": -11.03, 
			 "cosmo_cavitation_energy": 28.07, 
			 "cosmo_dispersion_energy": -20.73, 
			 "cosmo_repulsion_energy": 1.64, 
			 "cosmo_total_nonelectrostatic_energy": 8.98, 
			 "SMD_solvation_energy": 3.93 
		},
		"coords": [
			{
				"x": 0.0728892745,
				"y": -3.0255501212,
				"z": -2.6748792208,
				"element": "C" 
			},
			{
				"x": 0.5563486544,
				"y": -2.4701569543,
				"z": -1.3729284879,
				"element": "C" 
			},
			{
				"x": 0.1641649705,
				"y": -1.361564271,
				"z": -0.6358297014,
				"element": "C" 
			},
			{
				"x": -0.8766037637,
				"y": -0.3566483275,
				"z": -1.0349769927,
				"element": "C" 
			},
			{
				"x": 1.0016663012,
				"y": -1.3840802468,
				"z": 0.5245798136,
				"element": "C" 
			},
			{
				"x": 1.8426309545,
				"y": -2.4263550866,
				"z": 0.4941258458,
				"element": "N" 
			},
			{
				"x": 1.5517169128,
				"y": -3.0620151954,
				"z": -0.6551317767,
				"element": "N" 
			},
			{
				"x": 1.0691174071,
				"y": -0.4374110879,
				"z": 1.6545188496,
				"element": "C" 
			},
			{
				"x": -0.0471448892,
				"y": 0.305810779,
				"z": 2.0719263918,
				"element": "C" 
			},
			{
				"x": 0.0452512528,
				"y": 1.1906773296,
				"z": 3.1473894555,
				"element": "C" 
			},
			{
				"x": 1.2512122475,
				"y": 1.345013709,
				"z": 3.8311203447,
				"element": "C" 
			},
			{
				"x": 2.3660172557,
				"y": 0.601903236,
				"z": 3.4326622003,
				"element": "C" 
			},
			{
				"x": 2.2775743957,
				"y": -0.2769182552,
				"z": 2.3566023566,
				"element": "C" 
			},
			{
				"x": 0.8808306752,
				"y": -3.5243247417,
				"z": -3.2209380454,
				"element": "H" 
			},
			{
				"x": -0.7349921297,
				"y": -3.7548488187,
				"z": -2.5374601468,
				"element": "H" 
			},
			{
				"x": -0.3134976047,
				"y": -2.2281316422,
				"z": -3.3153222122,
				"element": "H" 
			},
			{
				"x": -0.5714443904,
				"y": 0.6598790379,
				"z": -0.7685861366,
				"element": "H" 
			},
			{
				"x": -1.8463954913,
				"y": -0.5404560738,
				"z": -0.5548872983,
				"element": "H" 
			},
			{
				"x": -1.0482885099,
				"y": -0.3772461933,
				"z": -2.1161261599,
				"element": "H" 
			},
			{
				"x": 2.0606665014,
				"y": -3.8995905912,
				"z": -0.8919206757,
				"element": "H" 
			},
			{
				"x": -1.0006963826,
				"y": 0.1766084327,
				"z": 1.5721249897,
				"element": "H" 
			},
			{
				"x": -0.8317379562,
				"y": 1.7534485275,
				"z": 3.4554669846,
				"element": "H" 
			},
			{
				"x": 1.3224306081,
				"y": 2.0345252352,
				"z": 4.6675479471,
				"element": "H" 
			},
			{
				"x": 3.3097569414,
				"y": 0.7124520365,
				"z": 3.9598871377,
				"element": "H" 
			},
			{
				"x": 3.1409267647,
				"y": -0.8534207167,
				"z": 2.0421345374,
				"element": "H" 
			}
		],
		 "valence_orbital": [ 
			{
				"type": "occ",
				"energy": -0.27745,
				"method": "rhf"
			},
			{
				"type": "occ",
				"energy": -0.27234,
				"method": "rhf"
			},
			{
				"type": "occ",
				"energy": -0.23927,
				"method": "rhf"
			},
			{
				"type": "occ",
				"energy": -0.22574,
				"method": "rhf"
			},
			{
				"type": "occ",
				"energy": -0.21108,
				"method": "rhf"
			},
			{
				"type": "unocc",
				"energy": -0.00854,
				"method": "rhf"
			},
			{
				"type": "unocc",
				"energy": 0.00998,
				"method": "rhf"
			},
			{
				"type": "unocc",
				"energy": 0.03513,
				"method": "rhf"
			},
			{
				"type": "unocc",
				"energy": 0.07848,
				"method": "rhf"
			},
			{
				"type": "unocc",
				"energy": 0.08844,
				"method": "rhf"
			}
		],
		"cosmo_sigma_profile": { 
			"-0.025": 0.0,
			"-0.024": 0.0,
			"-0.023": 0.0,
			"-0.022": 0.0,
			"-0.021": 0.0,
			"-0.02": 0.0,
			"-0.019": 0.0,
			"-0.018": 0.0,
			"-0.017": 0.0,
			"-0.016": 0.800196299694,
			"-0.015": 1.42365936128,
			"-0.014": 0.987160447061,
			"-0.013": 1.13428437372,
			"-0.012": 1.09971818283,
			"-0.011": 1.08123921159,
			"-0.01": 0.833952946268,
			"-0.009": 1.3716629938,
			"-0.008": 1.21559034807,
			"-0.007": 0.995059727618,
			"-0.006": 3.78132964352,
			"-0.005": 15.572091345,
			"-0.004": 19.7628505253,
			"-0.003": 22.2039156761,
			"-0.002": 18.5105240119,
			"-0.001": 21.0672769461,
			"0.0": 18.7486466021,
			"0.001": 12.6153498311,
			"0.002": 10.9326467236,
			"0.003": 11.7840003266,
			"0.004": 13.4191327347,
			"0.005": 16.6812145717,
			"0.006": 12.8386469017,
			"0.007": 3.44044413751,
			"0.008": 2.0092620218,
			"0.009": 2.15070984718,
			"0.01": 1.18676870605,
			"0.011": 1.00953723461,
			"0.012": 1.14597184132,
			"0.013": 1.36415508605,
			"0.014": 0.865584176737,
			"0.015": 0.642445239394,
			"0.016": 0.48263056119,
			"0.017": 0.0,
			"0.018": 0.0,
			"0.019": 0.0,
			"0.02": 0.0,
			"0.021": 0.0,
			"0.022": 0.0,
			"0.023": 0.0,
			"0.024": 0.0,
			"0.025": 0.0
		}
	}
}
