{
	 "smiles": "C1CCC(CC1)N1N=C2C=CC=CC2=N1", 
	 "Tm": 319.65, 
	 "num_atms": 30, 
	 "gaussian": { 
		 "optdone": 1, 
		 "sigma_profile": "yes", 
		 "theory": "DFT", 
		 "functional": "B3LYP", 
		 "basiset": "6-31G**", 
		 "properties": { 
			 "R2extent": 3806.0283, 
			 "electric_dipole_moment_norm": 0.865419095005, 
			 "electric_quadrupole_moment_norm": 7.35793709133, 
			 "total_energy": -630.552573043, 
			 "HOMO_LUMO_gap": 0.18071, 
			 "cosmo_polarized_energy": -6.46, 
			 "cosmo_cavitation_energy": 31.04, 
			 "cosmo_dispersion_energy": -23.08, 
			 "cosmo_repulsion_energy": 1.8, 
			 "cosmo_total_nonelectrostatic_energy": 9.76, 
			 "SMD_solvation_energy": 2.5 
		},
		"coords": [
			{
				"x": -1.5494229727,
				"y": -2.2588881541,
				"z": -0.4429861133,
				"element": "C" 
			},
			{
				"x": -2.5310843303,
				"y": -1.0554960185,
				"z": -0.4580317945,
				"element": "C" 
			},
			{
				"x": -2.6311786682,
				"y": -0.3496642666,
				"z": 0.9078233208,
				"element": "C" 
			},
			{
				"x": -1.2796691845,
				"y": -0.1984834405,
				"z": 1.631019686,
				"element": "C" 
			},
			{
				"x": -0.5347991297,
				"y": -1.5558138928,
				"z": 1.7721726855,
				"element": "C" 
			},
			{
				"x": -1.2045901739,
				"y": -2.6983923817,
				"z": 0.9864586665,
				"element": "C" 
			},
			{
				"x": -0.4453351512,
				"y": 0.8183481063,
				"z": 0.9572912448,
				"element": "N" 
			},
			{
				"x": 0.2766421937,
				"y": 0.5483541354,
				"z": -0.1246570093,
				"element": "N" 
			},
			{
				"x": 0.8041867194,
				"y": 1.7537178413,
				"z": -0.4468842837,
				"element": "C" 
			},
			{
				"x": 1.6714590912,
				"y": 2.1280263551,
				"z": -1.4985864105,
				"element": "C" 
			},
			{
				"x": 2.0409617037,
				"y": 3.4547548643,
				"z": -1.5615350259,
				"element": "C" 
			},
			{
				"x": 1.5769804881,
				"y": 4.413678175,
				"z": -0.6118227231,
				"element": "C" 
			},
			{
				"x": 0.7325799219,
				"y": 4.0669308499,
				"z": 0.4212405889,
				"element": "C" 
			},
			{
				"x": 0.3394486098,
				"y": 2.7112695392,
				"z": 0.5008043502,
				"element": "C" 
			},
			{
				"x": -0.4635695611,
				"y": 2.0759359968,
				"z": 1.3871129698,
				"element": "N" 
			},
			{
				"x": -1.9692019725,
				"y": -3.0994983561,
				"z": -1.006214053,
				"element": "H" 
			},
			{
				"x": -0.6205089637,
				"y": -1.9700535524,
				"z": -0.9451703529,
				"element": "H" 
			},
			{
				"x": -2.2133754953,
				"y": -0.3359666844,
				"z": -1.2184593706,
				"element": "H" 
			},
			{
				"x": -3.5370666754,
				"y": -1.3835691314,
				"z": -0.7438140985,
				"element": "H" 
			},
			{
				"x": -3.2749105845,
				"y": -0.9300741361,
				"z": 1.5798812255,
				"element": "H" 
			},
			{
				"x": -3.0985848047,
				"y": 0.6352130049,
				"z": 0.8057706528,
				"element": "H" 
			},
			{
				"x": -1.4565286137,
				"y": 0.2466763175,
				"z": 2.6115778802,
				"element": "H" 
			},
			{
				"x": -0.4726917716,
				"y": -1.8171024041,
				"z": 2.8339080666,
				"element": "H" 
			},
			{
				"x": 0.4906776078,
				"y": -1.428448659,
				"z": 1.4157162762,
				"element": "H" 
			},
			{
				"x": -0.5306017042,
				"y": -3.5622205657,
				"z": 0.9678262962,
				"element": "H" 
			},
			{
				"x": -2.1124888024,
				"y": -3.0323340119,
				"z": 1.5062526341,
				"element": "H" 
			},
			{
				"x": 2.0239179607,
				"y": 1.39719723,
				"z": -2.2187255294,
				"element": "H" 
			},
			{
				"x": 2.7051819637,
				"y": 3.7880471026,
				"z": -2.3536173374,
				"element": "H" 
			},
			{
				"x": 1.9035889687,
				"y": 5.4445566043,
				"z": -0.713062848,
				"element": "H" 
			},
			{
				"x": 0.3788833308,
				"y": 4.793499533,
				"z": 1.1450104061,
				"element": "H" 
			}
		],
		 "valence_orbital": [ 
			{
				"type": "occ",
				"energy": -0.30311,
				"method": "rhf"
			},
			{
				"type": "occ",
				"energy": -0.30221,
				"method": "rhf"
			},
			{
				"type": "occ",
				"energy": -0.28889,
				"method": "rhf"
			},
			{
				"type": "occ",
				"energy": -0.24439,
				"method": "rhf"
			},
			{
				"type": "occ",
				"energy": -0.22377,
				"method": "rhf"
			},
			{
				"type": "unocc",
				"energy": -0.04306,
				"method": "rhf"
			},
			{
				"type": "unocc",
				"energy": 0.02641,
				"method": "rhf"
			},
			{
				"type": "unocc",
				"energy": 0.03585,
				"method": "rhf"
			},
			{
				"type": "unocc",
				"energy": 0.07562,
				"method": "rhf"
			},
			{
				"type": "unocc",
				"energy": 0.10226,
				"method": "rhf"
			}
		],
		"cosmo_sigma_profile": { 
			"-0.025": 0.0,
			"-0.024": 0.0,
			"-0.023": 0.0,
			"-0.022": 0.0,
			"-0.021": 0.0,
			"-0.02": 0.0,
			"-0.019": 0.0,
			"-0.018": 0.0,
			"-0.017": 0.0,
			"-0.016": 0.0,
			"-0.015": 0.0,
			"-0.014": 0.0,
			"-0.013": 0.0,
			"-0.012": 0.0,
			"-0.011": 0.0,
			"-0.01": 0.0,
			"-0.009": 0.0,
			"-0.008": 0.0,
			"-0.007": 1.2416995519,
			"-0.006": 9.15930534598,
			"-0.005": 10.2311384758,
			"-0.004": 18.851519065,
			"-0.003": 21.2210738815,
			"-0.002": 29.2338781338,
			"-0.001": 31.6410690038,
			"0.0": 29.4276380024,
			"0.001": 23.0309598548,
			"0.002": 13.8760986002,
			"0.003": 17.5852997398,
			"0.004": 13.7490363505,
			"0.005": 8.60093463619,
			"0.006": 3.05391568552,
			"0.007": 3.29580995206,
			"0.008": 2.83543893786,
			"0.009": 2.2141694589,
			"0.01": 1.40801831392,
			"0.011": 0.98495780324,
			"0.012": 0.913119899543,
			"0.013": 1.0876131294,
			"0.014": 0.635446022232,
			"0.015": 0.0559248566674,
			"0.016": 0.0,
			"0.017": 0.0,
			"0.018": 0.0,
			"0.019": 0.0,
			"0.02": 0.0,
			"0.021": 0.0,
			"0.022": 0.0,
			"0.023": 0.0,
			"0.024": 0.0,
			"0.025": 0.0
		}
	}
}
