{
	 "smiles": "N1C=CN=C1C1=CC=NC=C1", 
	 "Tm": 482.15, 
	 "num_atms": 18, 
	 "gaussian": { 
		 "optdone": 1, 
		 "sigma_profile": "yes", 
		 "theory": "DFT", 
		 "functional": "B3LYP", 
		 "basiset": "6-31G**", 
		 "properties": { 
			 "R2extent": 2869.6396, 
			 "electric_dipole_moment_norm": 4.2763113895, 
			 "electric_quadrupole_moment_norm": 1.91619665744, 
			 "total_energy": -473.317984216, 
			 "HOMO_LUMO_gap": 0.17665, 
			 "cosmo_polarized_energy": -15.16, 
			 "cosmo_cavitation_energy": 22.4, 
			 "cosmo_dispersion_energy": -16.96, 
			 "cosmo_repulsion_energy": 1.33, 
			 "cosmo_total_nonelectrostatic_energy": 6.77, 
			 "SMD_solvation_energy": 1.31 
		},
		"coords": [
			{
				"x": 1.2921515435,
				"y": 0.8534726559,
				"z": 0.6030892057,
				"element": "N" 
			},
			{
				"x": 2.2399568776,
				"y": 1.7839639267,
				"z": 0.9589836643,
				"element": "C" 
			},
			{
				"x": 3.0979974965,
				"y": 1.1179882721,
				"z": 1.8040149309,
				"element": "C" 
			},
			{
				"x": 2.7004647007,
				"y": -0.1813103109,
				"z": 1.9696351659,
				"element": "N" 
			},
			{
				"x": 1.6058572912,
				"y": -0.3254915896,
				"z": 1.2360902647,
				"element": "C" 
			},
			{
				"x": 0.8329758611,
				"y": -1.5604752077,
				"z": 1.1107206454,
				"element": "C" 
			},
			{
				"x": -0.3223253944,
				"y": -1.6710834558,
				"z": 0.3221243612,
				"element": "C" 
			},
			{
				"x": -0.9907975888,
				"y": -2.8927013419,
				"z": 0.2668258584,
				"element": "C" 
			},
			{
				"x": -0.6017291122,
				"y": -3.9905338116,
				"z": 0.9255995049,
				"element": "N" 
			},
			{
				"x": 0.5037606156,
				"y": -3.8774759968,
				"z": 1.6776848301,
				"element": "C" 
			},
			{
				"x": 1.2468251272,
				"y": -2.7084356948,
				"z": 1.804578944,
				"element": "C" 
			},
			{
				"x": 0.5107953434,
				"y": 1.0162746436,
				"z": -0.0126088346,
				"element": "H" 
			},
			{
				"x": 2.2175086588,
				"y": 2.7981906876,
				"z": 0.5914255177,
				"element": "H" 
			},
			{
				"x": 3.9769133573,
				"y": 1.5079309749,
				"z": 2.2980498604,
				"element": "H" 
			},
			{
				"x": -0.7119238413,
				"y": -0.8317340715,
				"z": -0.247512776,
				"element": "H" 
			},
			{
				"x": -1.888397539,
				"y": -2.9902121965,
				"z": -0.3418946093,
				"element": "H" 
			},
			{
				"x": 0.8125788922,
				"y": -4.7755730707,
				"z": 2.2098253533,
				"element": "H" 
			},
			{
				"x": 2.1343877106,
				"y": -2.6663944128,
				"z": 2.4252681129,
				"element": "H" 
			}
		],
		 "valence_orbital": [ 
			{
				"type": "occ",
				"energy": -0.28956,
				"method": "rhf"
			},
			{
				"type": "occ",
				"energy": -0.27701,
				"method": "rhf"
			},
			{
				"type": "occ",
				"energy": -0.26248,
				"method": "rhf"
			},
			{
				"type": "occ",
				"energy": -0.25331,
				"method": "rhf"
			},
			{
				"type": "occ",
				"energy": -0.22358,
				"method": "rhf"
			},
			{
				"type": "unocc",
				"energy": -0.04693,
				"method": "rhf"
			},
			{
				"type": "unocc",
				"energy": -0.01037,
				"method": "rhf"
			},
			{
				"type": "unocc",
				"energy": 0.04204,
				"method": "rhf"
			},
			{
				"type": "unocc",
				"energy": 0.05198,
				"method": "rhf"
			},
			{
				"type": "unocc",
				"energy": 0.07208,
				"method": "rhf"
			}
		],
		"cosmo_sigma_profile": { 
			"-0.025": 0.0,
			"-0.024": 0.0,
			"-0.023": 0.0,
			"-0.022": 0.0,
			"-0.021": 0.0,
			"-0.02": 0.0,
			"-0.019": 0.0,
			"-0.018": 0.0,
			"-0.017": 0.951760898106,
			"-0.016": 1.7814922819,
			"-0.015": 1.25164931149,
			"-0.014": 1.61686783938,
			"-0.013": 1.37832063303,
			"-0.012": 1.41706792914,
			"-0.011": 1.54226192595,
			"-0.01": 0.916240595949,
			"-0.009": 3.44871096243,
			"-0.008": 3.83643208953,
			"-0.007": 5.26166691228,
			"-0.006": 10.0206078066,
			"-0.005": 10.2734240437,
			"-0.004": 10.3501101075,
			"-0.003": 8.82261043572,
			"-0.002": 7.73981625275,
			"-0.001": 8.59149102877,
			"0.0": 9.77507519911,
			"0.001": 11.8085358452,
			"0.002": 22.5407580277,
			"0.003": 14.5637702798,
			"0.004": 8.27588477624,
			"0.005": 7.80025023229,
			"0.006": 3.44546079626,
			"0.007": 3.47885510569,
			"0.008": 2.5976171605,
			"0.009": 3.41752892861,
			"0.01": 2.40252031179,
			"0.011": 2.09784005608,
			"0.012": 1.81998976024,
			"0.013": 2.56539405632,
			"0.014": 1.77467074914,
			"0.015": 1.52145018263,
			"0.016": 1.3219565958,
			"0.017": 0.406131236608,
			"0.018": 0.0,
			"0.019": 0.0,
			"0.02": 0.0,
			"0.021": 0.0,
			"0.022": 0.0,
			"0.023": 0.0,
			"0.024": 0.0,
			"0.025": 0.0
		}
	}
}
