{
	 "smiles": "CCNC1=CC=CC(O)=C1", 
	 "Tm": 335.15, 
	 "num_atms": 21, 
	 "gaussian": { 
		 "optdone": 1, 
		 "sigma_profile": "yes", 
		 "theory": "DFT", 
		 "functional": "B3LYP", 
		 "basiset": "6-31G**", 
		 "properties": { 
			 "R2extent": 1955.7014, 
			 "electric_dipole_moment_norm": 3.07193637629, 
			 "electric_quadrupole_moment_norm": 9.04355077776, 
			 "total_energy": -441.454648154, 
			 "HOMO_LUMO_gap": 0.20291, 
			 "cosmo_polarized_energy": -11.13, 
			 "cosmo_cavitation_energy": 23.92, 
			 "cosmo_dispersion_energy": -17.79, 
			 "cosmo_repulsion_energy": 1.46, 
			 "cosmo_total_nonelectrostatic_energy": 7.6, 
			 "SMD_solvation_energy": 3.86 
		},
		"coords": [
			{
				"x": 1.353294931,
				"y": -1.8336933221,
				"z": -1.2420803969,
				"element": "C" 
			},
			{
				"x": 0.232381185,
				"y": -1.8178409027,
				"z": -0.1942798906,
				"element": "C" 
			},
			{
				"x": -0.8994421783,
				"y": -0.9846740279,
				"z": -0.5647709692,
				"element": "N" 
			},
			{
				"x": -1.0095221828,
				"y": 0.366858359,
				"z": -0.2808440955,
				"element": "C" 
			},
			{
				"x": -2.2451268566,
				"y": 1.0177409712,
				"z": -0.4796162333,
				"element": "C" 
			},
			{
				"x": -2.3702561808,
				"y": 2.3766052103,
				"z": -0.2117969308,
				"element": "C" 
			},
			{
				"x": -1.2950435802,
				"y": 3.1320589952,
				"z": 0.2562751189,
				"element": "C" 
			},
			{
				"x": -0.070936875,
				"y": 2.488432332,
				"z": 0.4527521008,
				"element": "C" 
			},
			{
				"x": 0.9712749309,
				"y": 3.2481616959,
				"z": 0.9114956422,
				"element": "O" 
			},
			{
				"x": 0.0806625061,
				"y": 1.1231625034,
				"z": 0.1889862323,
				"element": "C" 
			},
			{
				"x": 0.9824256829,
				"y": -2.220992508,
				"z": -2.1958457803,
				"element": "H" 
			},
			{
				"x": 1.7419999839,
				"y": -0.8271550962,
				"z": -1.421879651,
				"element": "H" 
			},
			{
				"x": 2.1831254378,
				"y": -2.4675046251,
				"z": -0.9099068244,
				"element": "H" 
			},
			{
				"x": 0.6310419056,
				"y": -1.4989198492,
				"z": 0.7795801013,
				"element": "H" 
			},
			{
				"x": -0.1414807655,
				"y": -2.8373410063,
				"z": -0.0503587746,
				"element": "H" 
			},
			{
				"x": -1.7721027182,
				"y": -1.4601917347,
				"z": -0.7293195311,
				"element": "H" 
			},
			{
				"x": -3.0970405771,
				"y": 0.4486076433,
				"z": -0.8428120149,
				"element": "H" 
			},
			{
				"x": -3.3308568675,
				"y": 2.8598032621,
				"z": -0.3691400895,
				"element": "H" 
			},
			{
				"x": -1.3824711635,
				"y": 4.1916523952,
				"z": 0.4667447921,
				"element": "H" 
			},
			{
				"x": 1.7525171536,
				"y": 2.6876161489,
				"z": 1.0011537146,
				"element": "H" 
			},
			{
				"x": 1.0495562288,
				"y": 0.6576135556,
				"z": 0.3444634799,
				"element": "H" 
			}
		],
		 "valence_orbital": [ 
			{
				"type": "occ",
				"energy": -0.33724,
				"method": "rhf"
			},
			{
				"type": "occ",
				"energy": -0.33411,
				"method": "rhf"
			},
			{
				"type": "occ",
				"energy": -0.27625,
				"method": "rhf"
			},
			{
				"type": "occ",
				"energy": -0.21856,
				"method": "rhf"
			},
			{
				"type": "occ",
				"energy": -0.18443,
				"method": "rhf"
			},
			{
				"type": "unocc",
				"energy": 0.01848,
				"method": "rhf"
			},
			{
				"type": "unocc",
				"energy": 0.0335,
				"method": "rhf"
			},
			{
				"type": "unocc",
				"energy": 0.07638,
				"method": "rhf"
			},
			{
				"type": "unocc",
				"energy": 0.07861,
				"method": "rhf"
			},
			{
				"type": "unocc",
				"energy": 0.10234,
				"method": "rhf"
			}
		],
		"cosmo_sigma_profile": { 
			"-0.025": 0.0,
			"-0.024": 0.0,
			"-0.023": 0.0,
			"-0.022": 0.0,
			"-0.021": 0.0,
			"-0.02": 0.0,
			"-0.019": 0.0,
			"-0.018": 0.00448252991921,
			"-0.017": 0.658372808283,
			"-0.016": 0.979656785623,
			"-0.015": 1.44933019905,
			"-0.014": 0.879700669636,
			"-0.013": 0.91251200928,
			"-0.012": 2.68380478705,
			"-0.011": 1.73397712146,
			"-0.01": 2.05935518942,
			"-0.009": 2.91835158671,
			"-0.008": 2.47331266267,
			"-0.007": 2.21685759034,
			"-0.006": 3.07034432336,
			"-0.005": 9.10933737323,
			"-0.004": 11.2879015484,
			"-0.003": 16.0890231779,
			"-0.002": 16.6643976267,
			"-0.001": 17.8005451064,
			"0.0": 12.3939267464,
			"0.001": 12.1504540854,
			"0.002": 9.29010216148,
			"0.003": 7.04591306219,
			"0.004": 7.04485940552,
			"0.005": 10.5063980408,
			"0.006": 11.4020929732,
			"0.007": 11.7430184657,
			"0.008": 6.4362683174,
			"0.009": 1.78642574758,
			"0.01": 1.73313908838,
			"0.011": 1.74669356171,
			"0.012": 1.8547303949,
			"0.013": 0.146241859879,
			"0.014": 0.0,
			"0.015": 0.0,
			"0.016": 0.0,
			"0.017": 0.0,
			"0.018": 0.0,
			"0.019": 0.0,
			"0.02": 0.0,
			"0.021": 0.0,
			"0.022": 0.0,
			"0.023": 0.0,
			"0.024": 0.0,
			"0.025": 0.0
		}
	}
}
