{
	 "smiles": "[O-][N+](=O)C1=CC=C(NCC2=NC=CC=C2)C=C1", 
	 "Tm": 393.15, 
	 "num_atms": 28, 
	 "gaussian": { 
		 "optdone": 1, 
		 "sigma_profile": "yes", 
		 "theory": "DFT", 
		 "functional": "B3LYP", 
		 "basiset": "6-31G**", 
		 "properties": { 
			 "R2extent": 7242.1258, 
			 "electric_dipole_moment_norm": 10.4540682239, 
			 "electric_quadrupole_moment_norm": 13.6204412873, 
			 "total_energy": -778.514963394, 
			 "HOMO_LUMO_gap": 0.14818, 
			 "cosmo_polarized_energy": -15.42, 
			 "cosmo_cavitation_energy": 33.24, 
			 "cosmo_dispersion_energy": -24.49, 
			 "cosmo_repulsion_energy": 1.88, 
			 "cosmo_total_nonelectrostatic_energy": 10.63, 
			 "SMD_solvation_energy": 6.09 
		},
		"coords": [
			{
				"x": 2.9601206234,
				"y": 0.5610076982,
				"z": -4.7541858022,
				"element": "O" 
			},
			{
				"x": 3.1993953573,
				"y": 0.4976033077,
				"z": -3.5436045377,
				"element": "N" 
			},
			{
				"x": 4.3325391824,
				"y": 0.3677619472,
				"z": -3.0680868573,
				"element": "O" 
			},
			{
				"x": 2.0794158243,
				"y": 0.580902153,
				"z": -2.62375504,
				"element": "C" 
			},
			{
				"x": 0.7803424238,
				"y": 0.7285564995,
				"z": -3.126282571,
				"element": "C" 
			},
			{
				"x": -0.2840179481,
				"y": 0.8076990664,
				"z": -2.2500395996,
				"element": "C" 
			},
			{
				"x": -0.0806412303,
				"y": 0.741635709,
				"z": -0.8473313313,
				"element": "C" 
			},
			{
				"x": -1.1515615106,
				"y": 0.8228519009,
				"z": -0.0084210439,
				"element": "N" 
			},
			{
				"x": -1.0852901651,
				"y": 0.7707032266,
				"z": 1.42762906,
				"element": "C" 
			},
			{
				"x": -2.4761197259,
				"y": 0.893769541,
				"z": 2.0306934841,
				"element": "C" 
			},
			{
				"x": -3.5003719125,
				"y": 1.0237337357,
				"z": 1.1811938016,
				"element": "N" 
			},
			{
				"x": -4.7377653462,
				"y": 1.1340408889,
				"z": 1.6856595305,
				"element": "C" 
			},
			{
				"x": -5.0096813975,
				"y": 1.12005247,
				"z": 3.0505825482,
				"element": "C" 
			},
			{
				"x": -3.9370695484,
				"y": 0.9841835949,
				"z": 3.9351933971,
				"element": "C" 
			},
			{
				"x": -2.6501244211,
				"y": 0.8691654245,
				"z": 3.4199987373,
				"element": "C" 
			},
			{
				"x": 1.2428872514,
				"y": 0.5921292396,
				"z": -0.3659003186,
				"element": "C" 
			},
			{
				"x": 2.3091619131,
				"y": 0.5129908804,
				"z": -1.2486057955,
				"element": "C" 
			},
			{
				"x": 0.6329141843,
				"y": 0.7783193476,
				"z": -4.1980109515,
				"element": "H" 
			},
			{
				"x": -1.2943834047,
				"y": 0.9223291811,
				"z": -2.6327030909,
				"element": "H" 
			},
			{
				"x": -2.0891663485,
				"y": 0.9296070038,
				"z": -0.3775546585,
				"element": "H" 
			},
			{
				"x": -0.4521674001,
				"y": 1.5790610063,
				"z": 1.8286587839,
				"element": "H" 
			},
			{
				"x": -0.6311417108,
				"y": -0.1723310994,
				"z": 1.7734648461,
				"element": "H" 
			},
			{
				"x": -5.5417268351,
				"y": 1.2378584703,
				"z": 0.9601433031,
				"element": "H" 
			},
			{
				"x": -6.0295828979,
				"y": 1.21273421,
				"z": 3.4087325737,
				"element": "H" 
			},
			{
				"x": -4.1028956548,
				"y": 0.9683759171,
				"z": 5.0083584677,
				"element": "H" 
			},
			{
				"x": -1.7917860493,
				"y": 0.7620154934,
				"z": 4.0771352876,
				"element": "H" 
			},
			{
				"x": 1.4323773684,
				"y": 0.5382806264,
				"z": 0.7000469175,
				"element": "H" 
			},
			{
				"x": 3.325139378,
				"y": 0.3986625598,
				"z": -0.8911091405,
				"element": "H" 
			}
		],
		 "valence_orbital": [ 
			{
				"type": "occ",
				"energy": -0.28319,
				"method": "rhf"
			},
			{
				"type": "occ",
				"energy": -0.27718,
				"method": "rhf"
			},
			{
				"type": "occ",
				"energy": -0.2643,
				"method": "rhf"
			},
			{
				"type": "occ",
				"energy": -0.2632,
				"method": "rhf"
			},
			{
				"type": "occ",
				"energy": -0.2105,
				"method": "rhf"
			},
			{
				"type": "unocc",
				"energy": -0.06232,
				"method": "rhf"
			},
			{
				"type": "unocc",
				"energy": -0.04509,
				"method": "rhf"
			},
			{
				"type": "unocc",
				"energy": -0.03466,
				"method": "rhf"
			},
			{
				"type": "unocc",
				"energy": -0.00954,
				"method": "rhf"
			},
			{
				"type": "unocc",
				"energy": 0.03289,
				"method": "rhf"
			}
		],
		"cosmo_sigma_profile": { 
			"-0.025": 0.0,
			"-0.024": 0.0,
			"-0.023": 0.0,
			"-0.022": 0.0,
			"-0.021": 0.0,
			"-0.02": 0.0,
			"-0.019": 0.0,
			"-0.018": 0.0,
			"-0.017": 0.0,
			"-0.016": 0.0,
			"-0.015": 0.0,
			"-0.014": 0.0,
			"-0.013": 0.0,
			"-0.012": 0.0256023595226,
			"-0.011": 0.57263613936,
			"-0.01": 1.02458137459,
			"-0.009": 0.630260506022,
			"-0.008": 1.89619047644,
			"-0.007": 12.7137750353,
			"-0.006": 24.7588751014,
			"-0.005": 22.4556040865,
			"-0.004": 16.4939308887,
			"-0.003": 13.3254907468,
			"-0.002": 14.0336305384,
			"-0.001": 14.1571766812,
			"0.0": 18.5593493737,
			"0.001": 21.3056086188,
			"0.002": 27.3800167394,
			"0.003": 26.0797269103,
			"0.004": 10.362075056,
			"0.005": 3.82242165242,
			"0.006": 4.36058986458,
			"0.007": 5.44826776605,
			"0.008": 6.48309302855,
			"0.009": 10.4993360949,
			"0.01": 4.54276807129,
			"0.011": 4.39254286092,
			"0.012": 1.13940222684,
			"0.013": 0.0,
			"0.014": 0.0,
			"0.015": 0.0,
			"0.016": 0.0,
			"0.017": 0.0,
			"0.018": 0.0,
			"0.019": 0.0,
			"0.02": 0.0,
			"0.021": 0.0,
			"0.022": 0.0,
			"0.023": 0.0,
			"0.024": 0.0,
			"0.025": 0.0
		}
	}
}
