{
	 "smiles": "CC1=CC=C(NC(=O)C=CC(O)=O)C=C1", 
	 "Tm": 478.15, 
	 "num_atms": 26, 
	 "gaussian": { 
		 "optdone": 1, 
		 "sigma_profile": "yes", 
		 "theory": "DFT", 
		 "functional": "B3LYP", 
		 "basiset": "6-31G**", 
		 "properties": { 
			 "R2extent": 4237.6475, 
			 "electric_dipole_moment_norm": 3.18231693739, 
			 "electric_quadrupole_moment_norm": 14.9050250654, 
			 "total_energy": -706.231470481, 
			 "HOMO_LUMO_gap": 0.15707, 
			 "cosmo_polarized_energy": -16.21, 
			 "cosmo_cavitation_energy": 31.68, 
			 "cosmo_dispersion_energy": -21.96, 
			 "cosmo_repulsion_energy": 1.78, 
			 "cosmo_total_nonelectrostatic_energy": 11.5, 
			 "SMD_solvation_energy": 7.67 
		},
		"coords": [
			{
				"x": -3.252989125,
				"y": -1.5354073334,
				"z": -2.0670746969,
				"element": "C" 
			},
			{
				"x": -2.3658349696,
				"y": -0.7402996318,
				"z": -1.1387531767,
				"element": "C" 
			},
			{
				"x": -1.723388318,
				"y": 0.4261250342,
				"z": -1.57364109,
				"element": "C" 
			},
			{
				"x": -0.9162422293,
				"y": 1.170768427,
				"z": -0.7158473145,
				"element": "C" 
			},
			{
				"x": -0.7437998497,
				"y": 0.7718251973,
				"z": 0.6149216612,
				"element": "C" 
			},
			{
				"x": 0.0502993118,
				"y": 1.5771949025,
				"z": 1.4762982153,
				"element": "N" 
			},
			{
				"x": 0.926695081,
				"y": 1.2258438537,
				"z": 2.4793359882,
				"element": "C" 
			},
			{
				"x": 1.3008088842,
				"y": 2.0497020973,
				"z": 3.3065477355,
				"element": "O" 
			},
			{
				"x": 1.5105066869,
				"y": -0.1505593231,
				"z": 2.521296982,
				"element": "C" 
			},
			{
				"x": 1.9276233337,
				"y": -0.846176295,
				"z": 1.4550086309,
				"element": "C" 
			},
			{
				"x": 2.6595026904,
				"y": -2.1300517001,
				"z": 1.5432659697,
				"element": "C" 
			},
			{
				"x": 2.8580606236,
				"y": -2.5576032338,
				"z": 2.8151288015,
				"element": "O" 
			},
			{
				"x": 3.0457766982,
				"y": -2.7538574733,
				"z": 0.5753162472,
				"element": "O" 
			},
			{
				"x": -1.3979778165,
				"y": -0.3793433499,
				"z": 1.070494238,
				"element": "C" 
			},
			{
				"x": -2.1814912694,
				"y": -1.1281818028,
				"z": 0.1953103608,
				"element": "C" 
			},
			{
				"x": -2.9261987377,
				"y": -1.4448791483,
				"z": -3.1072766289,
				"element": "H" 
			},
			{
				"x": -4.2919645758,
				"y": -1.1853126833,
				"z": -2.0207432681,
				"element": "H" 
			},
			{
				"x": -3.2564227319,
				"y": -2.597584395,
				"z": -1.8050764479,
				"element": "H" 
			},
			{
				"x": -1.8439256562,
				"y": 0.7517200148,
				"z": -2.6037643149,
				"element": "H" 
			},
			{
				"x": -0.4064992532,
				"y": 2.0596580931,
				"z": -1.0771823796,
				"element": "H" 
			},
			{
				"x": -0.1429407024,
				"y": 2.5720723742,
				"z": 1.4815358293,
				"element": "H" 
			},
			{
				"x": 1.7309140171,
				"y": -0.5019735917,
				"z": 3.5244829684,
				"element": "H" 
			},
			{
				"x": 1.7595666419,
				"y": -0.5064617316,
				"z": 0.438956821,
				"element": "H" 
			},
			{
				"x": 3.3431268291,
				"y": -3.3955545268,
				"z": 2.7406190092,
				"element": "H" 
			},
			{
				"x": -1.2950448239,
				"y": -0.6851224675,
				"z": 2.1061687256,
				"element": "H" 
			},
			{
				"x": -2.6736607392,
				"y": -2.0247413069,
				"z": 0.5636711335,
				"element": "H" 
			}
		],
		 "valence_orbital": [ 
			{
				"type": "occ",
				"energy": -0.29217,
				"method": "rhf"
			},
			{
				"type": "occ",
				"energy": -0.28334,
				"method": "rhf"
			},
			{
				"type": "occ",
				"energy": -0.26146,
				"method": "rhf"
			},
			{
				"type": "occ",
				"energy": -0.25901,
				"method": "rhf"
			},
			{
				"type": "occ",
				"energy": -0.23058,
				"method": "rhf"
			},
			{
				"type": "unocc",
				"energy": -0.07351,
				"method": "rhf"
			},
			{
				"type": "unocc",
				"energy": -0.01418,
				"method": "rhf"
			},
			{
				"type": "unocc",
				"energy": -0.01353,
				"method": "rhf"
			},
			{
				"type": "unocc",
				"energy": 0.03553,
				"method": "rhf"
			},
			{
				"type": "unocc",
				"energy": 0.07341,
				"method": "rhf"
			}
		],
		"cosmo_sigma_profile": { 
			"-0.025": 0.0,
			"-0.024": 0.0,
			"-0.023": 0.0,
			"-0.022": 0.0,
			"-0.021": 0.0,
			"-0.02": 0.0,
			"-0.019": 0.130000166631,
			"-0.018": 0.851169214634,
			"-0.017": 1.27626872809,
			"-0.016": 0.469669461604,
			"-0.015": 1.17892295097,
			"-0.014": 1.36398937577,
			"-0.013": 1.20227410611,
			"-0.012": 2.2708903638,
			"-0.011": 2.00507323906,
			"-0.01": 1.75211053976,
			"-0.009": 1.56972304628,
			"-0.008": 1.93753303237,
			"-0.007": 5.59830662736,
			"-0.006": 9.76855523049,
			"-0.005": 14.6082650305,
			"-0.004": 19.9306919451,
			"-0.003": 19.9910979225,
			"-0.002": 19.9525493309,
			"-0.001": 21.0140620761,
			"0.0": 24.9827828384,
			"0.001": 15.8065119918,
			"0.002": 12.0858777811,
			"0.003": 10.4471940412,
			"0.004": 11.1829293582,
			"0.005": 12.6103602473,
			"0.006": 3.95518955538,
			"0.007": 4.04772211539,
			"0.008": 2.49369715827,
			"0.009": 3.21062365594,
			"0.01": 3.31236320884,
			"0.011": 6.50538846656,
			"0.012": 7.85319579585,
			"0.013": 5.43325748476,
			"0.014": 1.06008719912,
			"0.015": 0.0,
			"0.016": 0.0,
			"0.017": 0.0,
			"0.018": 0.0,
			"0.019": 0.0,
			"0.02": 0.0,
			"0.021": 0.0,
			"0.022": 0.0,
			"0.023": 0.0,
			"0.024": 0.0,
			"0.025": 0.0
		}
	}
}
