{
	 "smiles": "O=C(CC#N)NC1=NC=CS1", 
	 "Tm": 502.15, 
	 "num_atms": 16, 
	 "gaussian": { 
		 "optdone": 1, 
		 "sigma_profile": "yes", 
		 "theory": "DFT", 
		 "functional": "B3LYP", 
		 "basiset": "6-31G**", 
		 "properties": { 
			 "R2extent": 2432.8282, 
			 "electric_dipole_moment_norm": 4.14598906897, 
			 "electric_quadrupole_moment_norm": 13.3092592551, 
			 "total_energy": -869.28568905, 
			 "HOMO_LUMO_gap": 0.19164, 
			 "cosmo_polarized_energy": -15.59, 
			 "cosmo_cavitation_energy": 23.47, 
			 "cosmo_dispersion_energy": -17.2, 
			 "cosmo_repulsion_energy": 1.34, 
			 "cosmo_total_nonelectrostatic_energy": 7.62, 
			 "SMD_solvation_energy": 4.86 
		},
		"coords": [
			{
				"x": 3.4841927662,
				"y": -0.0864943335,
				"z": 2.1233359817,
				"element": "O" 
			},
			{
				"x": 2.3028020954,
				"y": -0.0556415612,
				"z": 1.8378665581,
				"element": "C" 
			},
			{
				"x": 1.2572364439,
				"y": 0.4194351254,
				"z": 2.8618372599,
				"element": "C" 
			},
			{
				"x": 0.6127659389,
				"y": -0.6935937555,
				"z": 3.5610063235,
				"element": "C" 
			},
			{
				"x": 0.1042694146,
				"y": -1.5804356723,
				"z": 4.1102732625,
				"element": "N" 
			},
			{
				"x": 1.8796500091,
				"y": -0.4383928267,
				"z": 0.5778248432,
				"element": "N" 
			},
			{
				"x": 0.6589983664,
				"y": -0.4039938592,
				"z": -0.0943979211,
				"element": "C" 
			},
			{
				"x": 0.640687444,
				"y": -0.3302846955,
				"z": -1.3962327305,
				"element": "N" 
			},
			{
				"x": -0.6495743603,
				"y": -0.3828959393,
				"z": -1.8678752342,
				"element": "C" 
			},
			{
				"x": -1.6313662716,
				"y": -0.4968554239,
				"z": -0.9308820249,
				"element": "C" 
			},
			{
				"x": -0.9250843108,
				"y": -0.5834063064,
				"z": 0.656773698,
				"element": "S" 
			},
			{
				"x": 0.4887203329,
				"y": 1.0477729752,
				"z": 2.3991341172,
				"element": "H" 
			},
			{
				"x": 1.8108146369,
				"y": 1.0222406486,
				"z": 3.5863443281,
				"element": "H" 
			},
			{
				"x": 2.6581829248,
				"y": -0.6323296633,
				"z": -0.0447731069,
				"element": "H" 
			},
			{
				"x": -0.8195504261,
				"y": -0.3211065788,
				"z": -2.9361390317,
				"element": "H" 
			},
			{
				"x": -2.7032450044,
				"y": -0.5284181337,
				"z": -1.0613963228,
				"element": "H" 
			}
		],
		 "valence_orbital": [ 
			{
				"type": "occ",
				"energy": -0.33293,
				"method": "rhf"
			},
			{
				"type": "occ",
				"energy": -0.30257,
				"method": "rhf"
			},
			{
				"type": "occ",
				"energy": -0.30119,
				"method": "rhf"
			},
			{
				"type": "occ",
				"energy": -0.28802,
				"method": "rhf"
			},
			{
				"type": "occ",
				"energy": -0.24453,
				"method": "rhf"
			},
			{
				"type": "unocc",
				"energy": -0.05289,
				"method": "rhf"
			},
			{
				"type": "unocc",
				"energy": -0.01536,
				"method": "rhf"
			},
			{
				"type": "unocc",
				"energy": -0.00239,
				"method": "rhf"
			},
			{
				"type": "unocc",
				"energy": 0.02665,
				"method": "rhf"
			},
			{
				"type": "unocc",
				"energy": 0.02929,
				"method": "rhf"
			}
		],
		"cosmo_sigma_profile": { 
			"-0.025": 0.0,
			"-0.024": 0.0,
			"-0.023": 0.0,
			"-0.022": 0.0,
			"-0.021": 0.0,
			"-0.02": 0.0,
			"-0.019": 0.0,
			"-0.018": 0.0,
			"-0.017": 0.0,
			"-0.016": 0.388840716328,
			"-0.015": 0.870292443039,
			"-0.014": 0.379639897123,
			"-0.013": 0.887659578104,
			"-0.012": 0.922889032102,
			"-0.011": 2.10751332952,
			"-0.01": 6.67879578169,
			"-0.009": 7.35604120549,
			"-0.008": 8.78529071948,
			"-0.007": 9.20924512173,
			"-0.006": 7.87583431853,
			"-0.005": 9.03263287004,
			"-0.004": 8.28781746463,
			"-0.003": 8.66403891068,
			"-0.002": 9.89057932914,
			"-0.001": 11.0104700511,
			"0.0": 11.1867166912,
			"0.001": 11.3176324908,
			"0.002": 12.1444236632,
			"0.003": 10.4434366109,
			"0.004": 6.30763941976,
			"0.005": 3.96149302382,
			"0.006": 6.38974115978,
			"0.007": 5.20017115725,
			"0.008": 5.08794499983,
			"0.009": 5.47118162654,
			"0.01": 6.03849805432,
			"0.011": 8.57989813079,
			"0.012": 5.37188976177,
			"0.013": 1.20019929837,
			"0.014": 0.449460895911,
			"0.015": 0.0,
			"0.016": 0.0,
			"0.017": 0.0,
			"0.018": 0.0,
			"0.019": 0.0,
			"0.02": 0.0,
			"0.021": 0.0,
			"0.022": 0.0,
			"0.023": 0.0,
			"0.024": 0.0,
			"0.0": 0.0
		}
	}
}
