{
	 "smiles": "[O-][N+](=O)C1=CN=CC=C1", 
	 "Tm": 313.15, 
	 "num_atms": 13, 
	 "gaussian": { 
		 "optdone": 1, 
		 "sigma_profile": "yes", 
		 "theory": "DFT", 
		 "functional": "B3LYP", 
		 "basiset": "6-31G**", 
		 "properties": { 
			 "R2extent": 1372.8117, 
			 "electric_dipole_moment_norm": 3.81981816321, 
			 "electric_quadrupole_moment_norm": 8.37630068586, 
			 "total_energy": -452.779571156, 
			 "HOMO_LUMO_gap": 0.18001, 
			 "cosmo_polarized_energy": -8.86, 
			 "cosmo_cavitation_energy": 18.25, 
			 "cosmo_dispersion_energy": -13.67, 
			 "cosmo_repulsion_energy": 1.11, 
			 "cosmo_total_nonelectrostatic_energy": 5.7, 
			 "SMD_solvation_energy": 4.22 
		},
		"coords": [
			{
				"x": 0.4953579917,
				"y": -1.0550211959,
				"z": -2.6688958889,
				"element": "O" 
			},
			{
				"x": -0.1749885104,
				"y": -0.2263721066,
				"z": -2.0560473957,
				"element": "N" 
			},
			{
				"x": -0.4734267452,
				"y": 0.891498634,
				"z": -2.4739484354,
				"element": "O" 
			},
			{
				"x": -0.6573883792,
				"y": -0.5995476369,
				"z": -0.7193768244,
				"element": "C" 
			},
			{
				"x": -0.3466200763,
				"y": -1.8565579062,
				"z": -0.1980353202,
				"element": "C" 
			},
			{
				"x": -0.7609406819,
				"y": -2.243772907,
				"z": 1.011352176,
				"element": "N" 
			},
			{
				"x": -1.4955477411,
				"y": -1.3770142426,
				"z": 1.7217962197,
				"element": "C" 
			},
			{
				"x": -1.8499536901,
				"y": -0.1012420887,
				"z": 1.2729745836,
				"element": "C" 
			},
			{
				"x": -1.4199611048,
				"y": 0.3048313191,
				"z": 0.0139563048,
				"element": "C" 
			},
			{
				"x": 0.2487853217,
				"y": -2.5532505848,
				"z": -0.7792115592,
				"element": "H" 
			},
			{
				"x": -1.8184806868,
				"y": -1.7201979732,
				"z": 2.7025694468,
				"element": "H" 
			},
			{
				"x": -2.4477746384,
				"y": 0.5546629085,
				"z": 1.8968506383,
				"element": "H" 
			},
			{
				"x": -1.6539610592,
				"y": 1.2771837802,
				"z": -0.4023839455,
				"element": "H" 
			}
		],
		 "valence_orbital": [ 
			{
				"type": "occ",
				"energy": -0.32175,
				"method": "rhf"
			},
			{
				"type": "occ",
				"energy": -0.31697,
				"method": "rhf"
			},
			{
				"type": "occ",
				"energy": -0.30272,
				"method": "rhf"
			},
			{
				"type": "occ",
				"energy": -0.29672,
				"method": "rhf"
			},
			{
				"type": "occ",
				"energy": -0.28142,
				"method": "rhf"
			},
			{
				"type": "unocc",
				"energy": -0.10141,
				"method": "rhf"
			},
			{
				"type": "unocc",
				"energy": -0.05203,
				"method": "rhf"
			},
			{
				"type": "unocc",
				"energy": -0.01473,
				"method": "rhf"
			},
			{
				"type": "unocc",
				"energy": 0.07649,
				"method": "rhf"
			},
			{
				"type": "unocc",
				"energy": 0.12357,
				"method": "rhf"
			}
		],
		"cosmo_sigma_profile": { 
			"-0.025": 0.0,
			"-0.024": 0.0,
			"-0.023": 0.0,
			"-0.022": 0.0,
			"-0.021": 0.0,
			"-0.02": 0.0,
			"-0.019": 0.0,
			"-0.018": 0.0,
			"-0.017": 0.0,
			"-0.016": 0.0,
			"-0.015": 0.0,
			"-0.014": 0.0,
			"-0.013": 0.0,
			"-0.012": 0.0,
			"-0.011": 0.0,
			"-0.01": 0.0220530158081,
			"-0.009": 1.19799020474,
			"-0.008": 7.47991327197,
			"-0.007": 10.553562965,
			"-0.006": 8.21492032684,
			"-0.005": 7.71798173814,
			"-0.004": 7.93314622728,
			"-0.003": 11.9878600044,
			"-0.002": 13.559494825,
			"-0.001": 12.2342494721,
			"0.0": 11.3296434423,
			"0.001": 4.9448079601,
			"0.002": 4.5024171952,
			"0.003": 4.08069474643,
			"0.004": 3.34934367813,
			"0.005": 4.79972297406,
			"0.006": 5.69952344111,
			"0.007": 10.5694584272,
			"0.008": 6.34928513589,
			"0.009": 4.5076137303,
			"0.01": 2.4606378367,
			"0.011": 1.11997569118,
			"0.012": 0.611519453929,
			"0.013": 0.816609804497,
			"0.014": 0.901519067788,
			"0.015": 0.570989974865,
			"0.016": 0.0,
			"0.017": 0.0,
			"0.018": 0.0,
			"0.019": 0.0,
			"0.02": 0.0,
			"0.021": 0.0,
			"0.022": 0.0,
			"0.023": 0.0,
			"0.024": 0.0,
			"0.025": 0.0
		}
	}
}
