{
	 "smiles": "COC1=CC=C(C=C1)C(C(=O)C1=CC=CC=C1)=C1C(=O)N(C(C)=O)C2=CC=CC=C12", 
	 "Tm": 453.0, 
	 "num_atms": 49, 
	 "gaussian": { 
		 "optdone": 1, 
		 "sigma_profile": "yes", 
		 "theory": "DFT", 
		 "functional": "B3LYP", 
		 "basiset": "6-31G**", 
		 "properties": { 
			 "R2extent": 13445.913, 
			 "electric_dipole_moment_norm": 5.88650429117, 
			 "electric_quadrupole_moment_norm": 21.4983518333, 
			 "total_energy": -1319.76547505, 
			 "HOMO_LUMO_gap": 0.13648, 
			 "cosmo_polarized_energy": -17.96, 
			 "cosmo_cavitation_energy": 53.15, 
			 "cosmo_dispersion_energy": -35.96, 
			 "cosmo_repulsion_energy": 2.7, 
			 "cosmo_total_nonelectrostatic_energy": 19.88, 
			 "SMD_solvation_energy": 11.01 
		},
		"coords": [
			{
				"x": 4.1591679925,
				"y": 3.8449254657,
				"z": 3.4263089803,
				"element": "C" 
			},
			{
				"x": 3.7132630767,
				"y": 4.1649965554,
				"z": 2.115891142,
				"element": "O" 
			},
			{
				"x": 2.7131163355,
				"y": 3.4227165172,
				"z": 1.5710768551,
				"element": "C" 
			},
			{
				"x": 2.3205122294,
				"y": 3.7851948907,
				"z": 0.2723892711,
				"element": "C" 
			},
			{
				"x": 1.3159851641,
				"y": 3.0857452686,
				"z": -0.377532504,
				"element": "C" 
			},
			{
				"x": 0.6469191476,
				"y": 2.0187988953,
				"z": 0.2586768709,
				"element": "C" 
			},
			{
				"x": 1.0561854939,
				"y": 1.663499207,
				"z": 1.5531935293,
				"element": "C" 
			},
			{
				"x": 2.0775688018,
				"y": 2.3487892061,
				"z": 2.2098678064,
				"element": "C" 
			},
			{
				"x": -0.3933408362,
				"y": 1.2406971651,
				"z": -0.451347089,
				"element": "C" 
			},
			{
				"x": 0.0000552299,
				"y": 0.8829517754,
				"z": -1.8840736371,
				"element": "C" 
			},
			{
				"x": -0.208835686,
				"y": 1.7175656537,
				"z": -2.7528276992,
				"element": "O" 
			},
			{
				"x": 0.7649026627,
				"y": -0.3685794238,
				"z": -2.1485557352,
				"element": "C" 
			},
			{
				"x": 1.0427542697,
				"y": -1.3032370869,
				"z": -1.1419691753,
				"element": "C" 
			},
			{
				"x": 1.7733554503,
				"y": -2.4535303863,
				"z": -1.4356188092,
				"element": "C" 
			},
			{
				"x": 2.2299002142,
				"y": -2.6769626217,
				"z": -2.7364621686,
				"element": "C" 
			},
			{
				"x": 1.9546293805,
				"y": -1.7482825499,
				"z": -3.7453982937,
				"element": "C" 
			},
			{
				"x": 1.2265301681,
				"y": -0.5992624343,
				"z": -3.4532998569,
				"element": "C" 
			},
			{
				"x": -1.6115993324,
				"y": 0.9030806597,
				"z": 0.048276866,
				"element": "C" 
			},
			{
				"x": -2.506850455,
				"y": -0.0173559401,
				"z": -0.7142025773,
				"element": "C" 
			},
			{
				"x": -2.2772696653,
				"y": -0.548322108,
				"z": -1.7865987033,
				"element": "O" 
			},
			{
				"x": -3.6879660616,
				"y": -0.1856043788,
				"z": 0.0555867516,
				"element": "N" 
			},
			{
				"x": -4.7942781018,
				"y": -1.0015190879,
				"z": -0.2806123011,
				"element": "C" 
			},
			{
				"x": -4.7485633312,
				"y": -1.757333712,
				"z": -1.5877796438,
				"element": "C" 
			},
			{
				"x": -5.7467373749,
				"y": -1.0791456137,
				"z": 0.4747923517,
				"element": "O" 
			},
			{
				"x": -3.5971390911,
				"y": 0.6173055513,
				"z": 1.2329544352,
				"element": "C" 
			},
			{
				"x": -4.5455938574,
				"y": 0.8004507162,
				"z": 2.2359919405,
				"element": "C" 
			},
			{
				"x": -4.2375399623,
				"y": 1.6892575609,
				"z": 3.2710936807,
				"element": "C" 
			},
			{
				"x": -3.024613552,
				"y": 2.3809914385,
				"z": 3.2963710256,
				"element": "C" 
			},
			{
				"x": -2.077583399,
				"y": 2.1842836308,
				"z": 2.2903898089,
				"element": "C" 
			},
			{
				"x": -2.3523261944,
				"y": 1.2869611522,
				"z": 1.2544110683,
				"element": "C" 
			},
			{
				"x": 4.950519433,
				"y": 4.5593207923,
				"z": 3.6566456739,
				"element": "H" 
			},
			{
				"x": 3.3530173117,
				"y": 3.9485335201,
				"z": 4.163431974,
				"element": "H" 
			},
			{
				"x": 4.565548314,
				"y": 2.8269755475,
				"z": 3.4769739214,
				"element": "H" 
			},
			{
				"x": 2.8244240171,
				"y": 4.6181229344,
				"z": -0.2065348139,
				"element": "H" 
			},
			{
				"x": 1.0234772563,
				"y": 3.3691355553,
				"z": -1.3827031635,
				"element": "H" 
			},
			{
				"x": 0.5755878939,
				"y": 0.82908801,
				"z": 2.054528854,
				"element": "H" 
			},
			{
				"x": 2.3713483116,
				"y": 2.0358628167,
				"z": 3.2046047218,
				"element": "H" 
			},
			{
				"x": 0.6845905302,
				"y": -1.1322772115,
				"z": -0.1317582586,
				"element": "H" 
			},
			{
				"x": 1.9857072521,
				"y": -3.175319515,
				"z": -0.6524046021,
				"element": "H" 
			},
			{
				"x": 2.7990734119,
				"y": -3.5737618089,
				"z": -2.964670472,
				"element": "H" 
			},
			{
				"x": 2.3089463249,
				"y": -1.923813047,
				"z": -4.7569939801,
				"element": "H" 
			},
			{
				"x": 0.9987118345,
				"y": 0.1361324494,
				"z": -4.217589977,
				"element": "H" 
			},
			{
				"x": -4.6376225967,
				"y": -1.0791382515,
				"z": -2.4368889122,
				"element": "H" 
			},
			{
				"x": -5.683088124,
				"y": -2.3139179981,
				"z": -1.6612626453,
				"element": "H" 
			},
			{
				"x": -3.8935589383,
				"y": -2.4359820437,
				"z": -1.6276090323,
				"element": "H" 
			},
			{
				"x": -5.4867622134,
				"y": 0.2734843763,
				"z": 2.2025384802,
				"element": "H" 
			},
			{
				"x": -4.9643873625,
				"y": 1.8440638966,
				"z": 4.0630716771,
				"element": "H" 
			},
			{
				"x": -2.8133870703,
				"y": 3.0771214027,
				"z": 4.102469845,
				"element": "H" 
			},
			{
				"x": -1.1409543024,
				"y": 2.7266926083,
				"z": 2.3127565195,
				"element": "H" 
			}
		],
		 "valence_orbital": [ 
			{
				"type": "occ",
				"energy": -0.25717,
				"method": "rhf"
			},
			{
				"type": "occ",
				"energy": -0.25449,
				"method": "rhf"
			},
			{
				"type": "occ",
				"energy": -0.24453,
				"method": "rhf"
			},
			{
				"type": "occ",
				"energy": -0.23286,
				"method": "rhf"
			},
			{
				"type": "occ",
				"energy": -0.21629,
				"method": "rhf"
			},
			{
				"type": "unocc",
				"energy": -0.07981,
				"method": "rhf"
			},
			{
				"type": "unocc",
				"energy": -0.05663,
				"method": "rhf"
			},
			{
				"type": "unocc",
				"energy": -0.02116,
				"method": "rhf"
			},
			{
				"type": "unocc",
				"energy": -0.01599,
				"method": "rhf"
			},
			{
				"type": "unocc",
				"energy": -0.00743,
				"method": "rhf"
			}
		],
		"cosmo_sigma_profile": { 
			"-0.025": 0.0,
			"-0.024": 0.0,
			"-0.023": 0.0,
			"-0.022": 0.0,
			"-0.021": 0.0,
			"-0.02": 0.0,
			"-0.019": 0.0,
			"-0.018": 0.0,
			"-0.017": 0.0,
			"-0.016": 0.0,
			"-0.015": 0.0,
			"-0.014": 0.0,
			"-0.013": 0.0,
			"-0.012": 0.0,
			"-0.011": 0.0,
			"-0.01": 0.0,
			"-0.009": 0.0,
			"-0.008": 0.020816622675,
			"-0.007": 5.56750312749,
			"-0.006": 29.376023295,
			"-0.005": 41.7419390271,
			"-0.004": 41.6186987414,
			"-0.003": 36.0516769813,
			"-0.002": 30.3015139681,
			"-0.001": 28.5496444337,
			"0.0": 27.437888204,
			"0.001": 29.8086677884,
			"0.002": 32.9665221156,
			"0.003": 33.7426743012,
			"0.004": 31.0091290912,
			"0.005": 12.2816901763,
			"0.006": 7.33292956912,
			"0.007": 4.94852145752,
			"0.008": 7.779345861,
			"0.009": 8.69771226981,
			"0.01": 7.28654016861,
			"0.011": 6.70826044434,
			"0.012": 2.97099902443,
			"0.013": 0.424476602662,
			"0.014": 0.0,
			"0.015": 0.0,
			"0.016": 0.0,
			"0.017": 0.0,
			"0.018": 0.0,
			"0.019": 0.0,
			"0.02": 0.0,
			"0.021": 0.0,
			"0.022": 0.0,
			"0.023": 0.0,
			"0.024": 0.0,
			"0.025": 0.0
		}
	}
}
