{
	 "smiles": "COC(=O)C1=NN(CN(CN2N=C(C=C2C)C(=O)OC)C2=CC=CC=C2)C(C)=C1", 
	 "Tm": 398.15, 
	 "num_atms": 52, 
	 "gaussian": { 
		 "optdone": 1, 
		 "sigma_profile": "yes", 
		 "theory": "DFT", 
		 "functional": "B3LYP", 
		 "basiset": "6-31G**", 
		 "properties": { 
			 "R2extent": 14550.0707, 
			 "electric_dipole_moment_norm": 4.46084996497, 
			 "electric_quadrupole_moment_norm": 15.0353468769, 
			 "total_energy": -1350.61934862, 
			 "HOMO_LUMO_gap": 0.18297, 
			 "cosmo_polarized_energy": -23.65, 
			 "cosmo_cavitation_energy": 56.42, 
			 "cosmo_dispersion_energy": -36.37, 
			 "cosmo_repulsion_energy": 2.76, 
			 "cosmo_total_nonelectrostatic_energy": 22.81, 
			 "SMD_solvation_energy": 11.6 
		},
		"coords": [
			{
				"x": -7.5351935007,
				"y": -1.6806395165,
				"z": 0.5804394875,
				"element": "C" 
			},
			{
				"x": -6.183006748,
				"y": -1.2641536949,
				"z": 0.3464427795,
				"element": "O" 
			},
			{
				"x": -5.6939747559,
				"y": -0.3905134057,
				"z": 1.2517457015,
				"element": "C" 
			},
			{
				"x": -6.3304958583,
				"y": 0.023280267,
				"z": 2.2026758061,
				"element": "O" 
			},
			{
				"x": -4.3016848112,
				"y": 0.013948174,
				"z": 0.9703679122,
				"element": "C" 
			},
			{
				"x": -3.6084757138,
				"y": -0.4338746895,
				"z": -0.0790048755,
				"element": "N" 
			},
			{
				"x": -2.4031398515,
				"y": 0.1643845141,
				"z": 0.0305377922,
				"element": "N" 
			},
			{
				"x": -1.4226835021,
				"y": -0.0813708499,
				"z": -1.0143016015,
				"element": "C" 
			},
			{
				"x": -0.2069027839,
				"y": -0.7364890689,
				"z": -0.5318895284,
				"element": "N" 
			},
			{
				"x": 0.9403430883,
				"y": -0.5208172391,
				"z": -1.3980106892,
				"element": "C" 
			},
			{
				"x": 1.7492300342,
				"y": 0.6526250348,
				"z": -1.0536513308,
				"element": "N" 
			},
			{
				"x": 1.1687071667,
				"y": 1.8637325795,
				"z": -1.1223247402,
				"element": "N" 
			},
			{
				"x": 2.1340405634,
				"y": 2.7242753888,
				"z": -0.7856219311,
				"element": "C" 
			},
			{
				"x": 3.3508192269,
				"y": 2.0579395338,
				"z": -0.5174886517,
				"element": "C" 
			},
			{
				"x": 3.0775716055,
				"y": 0.7164927013,
				"z": -0.7000971657,
				"element": "C" 
			},
			{
				"x": 3.9789272738,
				"y": -0.47444134,
				"z": -0.6009542673,
				"element": "C" 
			},
			{
				"x": 1.9202649494,
				"y": 4.1845358917,
				"z": -0.7073153556,
				"element": "C" 
			},
			{
				"x": 2.8095052998,
				"y": 4.9779191717,
				"z": -0.4666052633,
				"element": "O" 
			},
			{
				"x": 0.6346337967,
				"y": 4.5361070164,
				"z": -0.9204771766,
				"element": "O" 
			},
			{
				"x": 0.3740307921,
				"y": 5.9472006144,
				"z": -0.8576553264,
				"element": "C" 
			},
			{
				"x": -0.2954013875,
				"y": -1.9961578687,
				"z": 0.1299135182,
				"element": "C" 
			},
			{
				"x": -1.4287939078,
				"y": -2.8196585969,
				"z": 0.0440088082,
				"element": "C" 
			},
			{
				"x": -1.4520832493,
				"y": -4.046692138,
				"z": 0.7100082131,
				"element": "C" 
			},
			{
				"x": -0.3578692616,
				"y": -4.4814295406,
				"z": 1.4570519102,
				"element": "C" 
			},
			{
				"x": 0.7654946716,
				"y": -3.6580547599,
				"z": 1.5563276149,
				"element": "C" 
			},
			{
				"x": 0.7913314269,
				"y": -2.4228379402,
				"z": 0.9134884129,
				"element": "C" 
			},
			{
				"x": -2.3128863009,
				"y": 0.9938873195,
				"z": 1.1258748921,
				"element": "C" 
			},
			{
				"x": -1.0926047535,
				"y": 1.7841140571,
				"z": 1.469979763,
				"element": "C" 
			},
			{
				"x": -3.5374470308,
				"y": 0.9083961652,
				"z": 1.7556787876,
				"element": "C" 
			},
			{
				"x": -7.7730545825,
				"y": -2.3724603856,
				"z": -0.2277955043,
				"element": "H" 
			},
			{
				"x": -8.2139671854,
				"y": -0.8237159929,
				"z": 0.563192499,
				"element": "H" 
			},
			{
				"x": -7.626247046,
				"y": -2.1778325971,
				"z": 1.5499298398,
				"element": "H" 
			},
			{
				"x": -1.1091926882,
				"y": 0.8721177581,
				"z": -1.4443150664,
				"element": "H" 
			},
			{
				"x": -1.9610141293,
				"y": -0.6609179998,
				"z": -1.7754730714,
				"element": "H" 
			},
			{
				"x": 0.6176597121,
				"y": -0.3857440077,
				"z": -2.4386535067,
				"element": "H" 
			},
			{
				"x": 1.5931811575,
				"y": -1.390916617,
				"z": -1.3586911359,
				"element": "H" 
			},
			{
				"x": 4.2896656309,
				"y": 2.5082463361,
				"z": -0.2346206472,
				"element": "H" 
			},
			{
				"x": 4.974598079,
				"y": -0.1466651768,
				"z": -0.2955127439,
				"element": "H" 
			},
			{
				"x": 4.081830187,
				"y": -0.9929063227,
				"z": -1.5613238339,
				"element": "H" 
			},
			{
				"x": 3.6308463143,
				"y": -1.2074417838,
				"z": 0.1342866542,
				"element": "H" 
			},
			{
				"x": -0.6927952097,
				"y": 6.0566439244,
				"z": -1.0514551719,
				"element": "H" 
			},
			{
				"x": 0.9581834008,
				"y": 6.4812385854,
				"z": -1.6114410161,
				"element": "H" 
			},
			{
				"x": 0.6283326713,
				"y": 6.3434853186,
				"z": 0.1287506265,
				"element": "H" 
			},
			{
				"x": -2.3029798377,
				"y": -2.5049120745,
				"z": -0.5127383194,
				"element": "H" 
			},
			{
				"x": -2.3399384639,
				"y": -4.6679816006,
				"z": 0.6339127786,
				"element": "H" 
			},
			{
				"x": -0.384548626,
				"y": -5.4395359123,
				"z": 1.966860016,
				"element": "H" 
			},
			{
				"x": 1.6187120048,
				"y": -3.966389286,
				"z": 2.1541008258,
				"element": "H" 
			},
			{
				"x": 1.6444549441,
				"y": -1.7640244951,
				"z": 1.0424980486,
				"element": "H" 
			},
			{
				"x": -0.781220771,
				"y": 2.4392054325,
				"z": 0.6503733976,
				"element": "H" 
			},
			{
				"x": -1.2982563906,
				"y": 2.4005350687,
				"z": 2.3479175738,
				"element": "H" 
			},
			{
				"x": -0.2446043107,
				"y": 1.1301047592,
				"z": 1.6962376454,
				"element": "H" 
			},
			{
				"x": -3.8527013397,
				"y": 1.4148592884,
				"z": 2.654816616,
				"element": "H" 
			}
		],
		 "valence_orbital": [ 
			{
				"type": "occ",
				"energy": -0.25595,
				"method": "rhf"
			},
			{
				"type": "occ",
				"energy": -0.25452,
				"method": "rhf"
			},
			{
				"type": "occ",
				"energy": -0.25059,
				"method": "rhf"
			},
			{
				"type": "occ",
				"energy": -0.23843,
				"method": "rhf"
			},
			{
				"type": "occ",
				"energy": -0.21852,
				"method": "rhf"
			},
			{
				"type": "unocc",
				"energy": -0.03555,
				"method": "rhf"
			},
			{
				"type": "unocc",
				"energy": -0.01984,
				"method": "rhf"
			},
			{
				"type": "unocc",
				"energy": -0.00718,
				"method": "rhf"
			},
			{
				"type": "unocc",
				"energy": 0.00079,
				"method": "rhf"
			},
			{
				"type": "unocc",
				"energy": 0.01702,
				"method": "rhf"
			}
		],
		"cosmo_sigma_profile": { 
			"-0.025": 0.0,
			"-0.024": 0.0,
			"-0.023": 0.0,
			"-0.022": 0.0,
			"-0.021": 0.0,
			"-0.02": 0.0,
			"-0.019": 0.0,
			"-0.018": 0.0,
			"-0.017": 0.0,
			"-0.016": 0.0,
			"-0.015": 0.0,
			"-0.014": 0.00530025466966,
			"-0.013": 0.0412599289052,
			"-0.012": 0.125635447125,
			"-0.011": 0.139515396329,
			"-0.01": 0.132222461683,
			"-0.009": 0.141427378185,
			"-0.008": 5.23511953406,
			"-0.007": 13.4440491501,
			"-0.006": 29.4272537418,
			"-0.005": 41.1169000609,
			"-0.004": 39.606507976,
			"-0.003": 42.5622341001,
			"-0.002": 33.1063400906,
			"-0.001": 31.8743011772,
			"0.0": 26.9293427583,
			"0.001": 25.8263746063,
			"0.002": 31.3532195238,
			"0.003": 28.882112411,
			"0.004": 21.6118559455,
			"0.005": 15.9704706154,
			"0.006": 13.793595377,
			"0.007": 5.4031794283,
			"0.008": 7.0978980116,
			"0.009": 5.69715254752,
			"0.01": 5.46202073424,
			"0.011": 8.30689922901,
			"0.012": 11.9487753996,
			"0.013": 2.59984096341,
			"0.014": 0.945520095065,
			"0.015": 0.353386767548,
			"0.016": 0.0,
			"0.017": 0.0,
			"0.018": 0.0,
			"0.019": 0.0,
			"0.02": 0.0,
			"0.021": 0.0,
			"0.022": 0.0,
			"0.023": 0.0,
			"0.024": 0.0,
			"0.025": 0.0
		}
	}
}
