{
	 "smiles": "CN(CC(O)=O)C1CCCC1O", 
	 "Tm": 424.15, 
	 "num_atms": 27, 
	 "gaussian": { 
		 "optdone": 1, 
		 "sigma_profile": "yes", 
		 "theory": "DFT", 
		 "functional": "B3LYP", 
		 "basiset": "6-31G**", 
		 "properties": { 
			 "R2extent": 2656.8357, 
			 "electric_dipole_moment_norm": 1.06331231066, 
			 "electric_quadrupole_moment_norm": 10.4472800355, 
			 "total_energy": -594.304639682, 
			 "HOMO_LUMO_gap": 0.21466, 
			 "cosmo_polarized_energy": -14.36, 
			 "cosmo_cavitation_energy": 28.15, 
			 "cosmo_dispersion_energy": -20.33, 
			 "cosmo_repulsion_energy": 1.64, 
			 "cosmo_total_nonelectrostatic_energy": 9.45, 
			 "SMD_solvation_energy": 4.21 
		},
		"coords": [
			{
				"x": -0.9188192956,
				"y": -1.7869880539,
				"z": 1.4588860966,
				"element": "C" 
			},
			{
				"x": -0.5020956048,
				"y": -0.8047583373,
				"z": 0.4706678016,
				"element": "N" 
			},
			{
				"x": -1.0753607154,
				"y": -1.0287201062,
				"z": -0.8347173437,
				"element": "C" 
			},
			{
				"x": -2.5397321699,
				"y": -0.6057223938,
				"z": -0.9141695319,
				"element": "C" 
			},
			{
				"x": -3.0096944827,
				"y": -0.7959089907,
				"z": -2.1740212149,
				"element": "O" 
			},
			{
				"x": -3.2276392403,
				"y": -0.1750237086,
				"z": -0.0186299364,
				"element": "O" 
			},
			{
				"x": 0.8942501743,
				"y": -0.3909294195,
				"z": 0.570628002,
				"element": "C" 
			},
			{
				"x": 1.288254841,
				"y": 0.8709425821,
				"z": -0.2157590078,
				"element": "C" 
			},
			{
				"x": 2.808919413,
				"y": 0.9508491088,
				"z": 0.0115454572,
				"element": "C" 
			},
			{
				"x": 3.2868312223,
				"y": -0.5289797677,
				"z": 0.1077661748,
				"element": "C" 
			},
			{
				"x": 2.0161905667,
				"y": -1.3999050652,
				"z": 0.1858679153,
				"element": "C" 
			},
			{
				"x": 1.800469943,
				"y": -1.9597965697,
				"z": -1.1150079888,
				"element": "O" 
			},
			{
				"x": -0.5622304965,
				"y": -1.4869031105,
				"z": 2.4490774591,
				"element": "H" 
			},
			{
				"x": -0.5429586163,
				"y": -2.8102282459,
				"z": 1.2600521779,
				"element": "H" 
			},
			{
				"x": -2.0101645492,
				"y": -1.8263650031,
				"z": 1.4974294424,
				"element": "H" 
			},
			{
				"x": -0.5357359751,
				"y": -0.4666879982,
				"z": -1.5988887303,
				"element": "H" 
			},
			{
				"x": -1.0469017352,
				"y": -2.0829440758,
				"z": -1.17533127,
				"element": "H" 
			},
			{
				"x": -3.9409298719,
				"y": -0.5187718077,
				"z": -2.158278927,
				"element": "H" 
			},
			{
				"x": 1.0497881073,
				"y": -0.1595405327,
				"z": 1.6356451813,
				"element": "H" 
			},
			{
				"x": 1.0855845262,
				"y": 0.7345044303,
				"z": -1.283422333,
				"element": "H" 
			},
			{
				"x": 0.7443393402,
				"y": 1.7571778617,
				"z": 0.121990945,
				"element": "H" 
			},
			{
				"x": 3.3218472722,
				"y": 1.5026410527,
				"z": -0.7808875989,
				"element": "H" 
			},
			{
				"x": 3.0157224321,
				"y": 1.4769277737,
				"z": 0.9505060554,
				"element": "H" 
			},
			{
				"x": 3.8557603834,
				"y": -0.8389084922,
				"z": -0.7727215617,
				"element": "H" 
			},
			{
				"x": 3.9280432702,
				"y": -0.6851260917,
				"z": 0.9804020522,
				"element": "H" 
			},
			{
				"x": 2.1142380279,
				"y": -2.2057609119,
				"z": 0.9266620731,
				"element": "H" 
			},
			{
				"x": 1.1080232332,
				"y": -2.6277741268,
				"z": -1.0397913892,
				"element": "H" 
			}
		],
		 "valence_orbital": [ 
			{
				"type": "occ",
				"energy": -0.31743,
				"method": "rhf"
			},
			{
				"type": "occ",
				"energy": -0.31176,
				"method": "rhf"
			},
			{
				"type": "occ",
				"energy": -0.2758,
				"method": "rhf"
			},
			{
				"type": "occ",
				"energy": -0.27398,
				"method": "rhf"
			},
			{
				"type": "occ",
				"energy": -0.20436,
				"method": "rhf"
			},
			{
				"type": "unocc",
				"energy": 0.0103,
				"method": "rhf"
			},
			{
				"type": "unocc",
				"energy": 0.05376,
				"method": "rhf"
			},
			{
				"type": "unocc",
				"energy": 0.0789,
				"method": "rhf"
			},
			{
				"type": "unocc",
				"energy": 0.09226,
				"method": "rhf"
			},
			{
				"type": "unocc",
				"energy": 0.10427,
				"method": "rhf"
			}
		],
		"cosmo_sigma_profile": { 
			"-0.025": 0.0,
			"-0.024": 0.0,
			"-0.023": 0.0,
			"-0.022": 0.0,
			"-0.021": 0.0,
			"-0.02": 0.0,
			"-0.019": 0.0769588807317,
			"-0.018": 0.708165426071,
			"-0.017": 0.860287710978,
			"-0.016": 0.91212460922,
			"-0.015": 0.483139352278,
			"-0.014": 1.01937005639,
			"-0.013": 1.17612391269,
			"-0.012": 1.93314896449,
			"-0.011": 2.56389177041,
			"-0.01": 2.31542216088,
			"-0.009": 1.83888950778,
			"-0.008": 1.79223715205,
			"-0.007": 2.83200193316,
			"-0.006": 4.69892347185,
			"-0.005": 6.67670539179,
			"-0.004": 11.3160689633,
			"-0.003": 24.0925621702,
			"-0.002": 30.0248356686,
			"-0.001": 25.1948660803,
			"0.0": 21.6342523725,
			"0.001": 15.6639498729,
			"0.002": 7.83449627054,
			"0.003": 4.73564712931,
			"0.004": 4.92508309843,
			"0.005": 3.72241350474,
			"0.006": 4.25593634596,
			"0.007": 4.33884337191,
			"0.008": 4.23345183033,
			"0.009": 4.78990630823,
			"0.01": 3.69820301646,
			"0.011": 5.42497818507,
			"0.012": 5.09100561395,
			"0.013": 2.79685563381,
			"0.014": 2.34238381088,
			"0.015": 0.810843733081,
			"0.016": 0.745365061679,
			"0.017": 0.11247756011,
			"0.018": 0.0,
			"0.019": 0.0,
			"0.02": 0.0,
			"0.021": 0.0,
			"0.022": 0.0,
			"0.023": 0.0,
			"0.024": 0.0,
			"0.025": 0.0
		}
	}
}
