{
	 "smiles": "COC1=CC=C2NC(=O)C(=O)C2=C1", 
	 "Tm": 473.65, 
	 "num_atms": 20, 
	 "gaussian": { 
		 "optdone": 1, 
		 "sigma_profile": "yes", 
		 "theory": "DFT", 
		 "functional": "B3LYP", 
		 "basiset": "6-31G**", 
		 "properties": { 
			 "R2extent": 2749.8776, 
			 "electric_dipole_moment_norm": 7.34021237704, 
			 "electric_quadrupole_moment_norm": 11.4828122535, 
			 "total_energy": -627.583795383, 
			 "HOMO_LUMO_gap": 0.12512, 
			 "cosmo_polarized_energy": -17.26, 
			 "cosmo_cavitation_energy": 25.31, 
			 "cosmo_dispersion_energy": -18.75, 
			 "cosmo_repulsion_energy": 1.47, 
			 "cosmo_total_nonelectrostatic_energy": 8.03, 
			 "SMD_solvation_energy": 6.47 
		},
		"coords": [
			{
				"x": -2.2754362936,
				"y": 3.4207358629,
				"z": 1.0959407887,
				"element": "C" 
			},
			{
				"x": -2.4287115497,
				"y": 2.1361943627,
				"z": 0.5138168494,
				"element": "O" 
			},
			{
				"x": -1.3391485557,
				"y": 1.3165680513,
				"z": 0.4517803515,
				"element": "C" 
			},
			{
				"x": -0.0618117554,
				"y": 1.6517523359,
				"z": 0.9258152694,
				"element": "C" 
			},
			{
				"x": 1.0155653139,
				"y": 0.7545083606,
				"z": 0.8279051214,
				"element": "C" 
			},
			{
				"x": 0.7903810876,
				"y": -0.4820080981,
				"z": 0.2476876059,
				"element": "C" 
			},
			{
				"x": 1.6872585575,
				"y": -1.5452463288,
				"z": 0.0328041269,
				"element": "N" 
			},
			{
				"x": 1.0796765823,
				"y": -2.6263092204,
				"z": -0.5813304893,
				"element": "C" 
			},
			{
				"x": 1.5913544808,
				"y": -3.6786744109,
				"z": -0.8919366412,
				"element": "O" 
			},
			{
				"x": -0.4152536992,
				"y": -2.1871006056,
				"z": -0.7854940353,
				"element": "C" 
			},
			{
				"x": -1.2694110138,
				"y": -2.8752688203,
				"z": -1.2981907022,
				"element": "O" 
			},
			{
				"x": -0.4913805183,
				"y": -0.8228748491,
				"z": -0.2299079558,
				"element": "C" 
			},
			{
				"x": -1.5566748571,
				"y": 0.0592267488,
				"z": -0.1352461545,
				"element": "C" 
			},
			{
				"x": -1.5485892064,
				"y": 4.0318515723,
				"z": 0.5447695009,
				"element": "H" 
			},
			{
				"x": -1.9657210177,
				"y": 3.3553478801,
				"z": 2.1472985846,
				"element": "H" 
			},
			{
				"x": -3.2562050804,
				"y": 3.8947644451,
				"z": 1.0407449959,
				"element": "H" 
			},
			{
				"x": 0.1146047403,
				"y": 2.6194465439,
				"z": 1.3799945976,
				"element": "H" 
			},
			{
				"x": 1.9941196968,
				"y": 1.0384452455,
				"z": 1.2025292965,
				"element": "H" 
			},
			{
				"x": 2.6636035552,
				"y": -1.5419370282,
				"z": 0.2884389452,
				"element": "H" 
			},
			{
				"x": -2.541820467,
				"y": -0.2064220476,
				"z": -0.5038200558,
				"element": "H" 
			}
		],
		 "valence_orbital": [ 
			{
				"type": "occ",
				"energy": -0.30627,
				"method": "rhf"
			},
			{
				"type": "occ",
				"energy": -0.29912,
				"method": "rhf"
			},
			{
				"type": "occ",
				"energy": -0.27735,
				"method": "rhf"
			},
			{
				"type": "occ",
				"energy": -0.24378,
				"method": "rhf"
			},
			{
				"type": "occ",
				"energy": -0.21945,
				"method": "rhf"
			},
			{
				"type": "unocc",
				"energy": -0.09433,
				"method": "rhf"
			},
			{
				"type": "unocc",
				"energy": -0.0192,
				"method": "rhf"
			},
			{
				"type": "unocc",
				"energy": 0.01914,
				"method": "rhf"
			},
			{
				"type": "unocc",
				"energy": 0.07763,
				"method": "rhf"
			},
			{
				"type": "unocc",
				"energy": 0.07917,
				"method": "rhf"
			}
		],
		"cosmo_sigma_profile": { 
			"-0.025": 0.0,
			"-0.024": 0.0,
			"-0.023": 0.0,
			"-0.022": 0.0,
			"-0.021": 0.0,
			"-0.02": 0.0,
			"-0.019": 0.0,
			"-0.018": 0.0,
			"-0.017": 0.266957027537,
			"-0.016": 1.44869689223,
			"-0.015": 1.45261091027,
			"-0.014": 1.2024602743,
			"-0.013": 0.877744396408,
			"-0.012": 0.902469481415,
			"-0.011": 1.4100109331,
			"-0.01": 1.19510659677,
			"-0.009": 1.67334129218,
			"-0.008": 3.20615988157,
			"-0.007": 8.49853813249,
			"-0.006": 13.6335779869,
			"-0.005": 15.2539764892,
			"-0.004": 14.2554396173,
			"-0.003": 14.104708895,
			"-0.002": 11.0298127323,
			"-0.001": 11.3789480368,
			"0.0": 12.5117050344,
			"0.001": 12.4570115589,
			"0.002": 17.4546612212,
			"0.003": 9.05853828568,
			"0.004": 4.71545770572,
			"0.005": 3.6001518793,
			"0.006": 3.95063611493,
			"0.007": 3.71883422903,
			"0.008": 5.44778996052,
			"0.009": 5.5342371416,
			"0.01": 8.30509237874,
			"0.011": 8.79875359696,
			"0.012": 5.03017775679,
			"0.013": 0.743201664383,
			"0.014": 0.0,
			"0.015": 0.0,
			"0.016": 0.0,
			"0.017": 0.0,
			"0.018": 0.0,
			"0.019": 0.0,
			"0.02": 0.0,
			"0.021": 0.0,
			"0.022": 0.0,
			"0.023": 0.0,
			"0.024": 0.0,
			"0.025": 0.0
		}
	}
}
