{
	 "smiles": "NC1=CC=C(CCO)C=C1", 
	 "Tm": 382.15, 
	 "num_atms": 21, 
	 "gaussian": { 
		 "optdone": 1, 
		 "sigma_profile": "yes", 
		 "theory": "DFT", 
		 "functional": "B3LYP", 
		 "basiset": "6-31G**", 
		 "properties": { 
			 "R2extent": 2312.4707, 
			 "electric_dipole_moment_norm": 2.76723184609, 
			 "electric_quadrupole_moment_norm": 12.9758125549, 
			 "total_energy": -441.454834775, 
			 "HOMO_LUMO_gap": 0.1989, 
			 "cosmo_polarized_energy": -11.04, 
			 "cosmo_cavitation_energy": 23.91, 
			 "cosmo_dispersion_energy": -17.61, 
			 "cosmo_repulsion_energy": 1.45, 
			 "cosmo_total_nonelectrostatic_energy": 7.74, 
			 "SMD_solvation_energy": 3.79 
		},
		"coords": [
			{
				"x": -0.1419803912,
				"y": -1.0918784185,
				"z": -3.5971442814,
				"element": "N" 
			},
			{
				"x": -0.6927993837,
				"y": -0.6515081708,
				"z": -2.3911076633,
				"element": "C" 
			},
			{
				"x": -0.5795224951,
				"y": -1.4247138444,
				"z": -1.2223483589,
				"element": "C" 
			},
			{
				"x": -1.181567449,
				"y": -1.0117139528,
				"z": -0.0376303717,
				"element": "C" 
			},
			{
				"x": -1.9218412498,
				"y": 0.1771529973,
				"z": 0.0377828455,
				"element": "C" 
			},
			{
				"x": -2.5240985464,
				"y": 0.6524726398,
				"z": 1.3416207715,
				"element": "C" 
			},
			{
				"x": -1.5768647762,
				"y": 1.5795371421,
				"z": 2.1270558332,
				"element": "C" 
			},
			{
				"x": -1.2464185486,
				"y": 2.7601125576,
				"z": 1.4142347405,
				"element": "O" 
			},
			{
				"x": -2.0302900277,
				"y": 0.9418889411,
				"z": -1.1340421059,
				"element": "C" 
			},
			{
				"x": -1.4300164381,
				"y": 0.5420617747,
				"z": -2.3267796761,
				"element": "C" 
			},
			{
				"x": 0.0430570952,
				"y": -0.3648834549,
				"z": -4.2745191094,
				"element": "H" 
			},
			{
				"x": 0.6394296128,
				"y": -1.7263365066,
				"z": -3.5052148426,
				"element": "H" 
			},
			{
				"x": -0.0227303525,
				"y": -2.3585237035,
				"z": -1.2506158619,
				"element": "H" 
			},
			{
				"x": -1.0765813051,
				"y": -1.6318785162,
				"z": 0.849892846,
				"element": "H" 
			},
			{
				"x": -2.7773603941,
				"y": -0.2053766469,
				"z": 1.9772361092,
				"element": "H" 
			},
			{
				"x": -3.4549834234,
				"y": 1.1984198542,
				"z": 1.149075802,
				"element": "H" 
			},
			{
				"x": -0.6718163808,
				"y": 1.0186009972,
				"z": 2.4131174225,
				"element": "H" 
			},
			{
				"x": -2.0638233911,
				"y": 1.9106969345,
				"z": 3.0505127488,
				"element": "H" 
			},
			{
				"x": -0.8285660836,
				"y": 2.4818263244,
				"z": 0.5870634875,
				"element": "H" 
			},
			{
				"x": -2.6063420251,
				"y": 1.8639594091,
				"z": -1.1157305982,
				"element": "H" 
			},
			{
				"x": -1.5423840465,
				"y": 1.1516836425,
				"z": -3.2203597374,
				"element": "H" 
			}
		],
		 "valence_orbital": [ 
			{
				"type": "occ",
				"energy": -0.31404,
				"method": "rhf"
			},
			{
				"type": "occ",
				"energy": -0.30289,
				"method": "rhf"
			},
			{
				"type": "occ",
				"energy": -0.25791,
				"method": "rhf"
			},
			{
				"type": "occ",
				"energy": -0.24775,
				"method": "rhf"
			},
			{
				"type": "occ",
				"energy": -0.20032,
				"method": "rhf"
			},
			{
				"type": "unocc",
				"energy": -0.00142,
				"method": "rhf"
			},
			{
				"type": "unocc",
				"energy": 0.01496,
				"method": "rhf"
			},
			{
				"type": "unocc",
				"energy": 0.07946,
				"method": "rhf"
			},
			{
				"type": "unocc",
				"energy": 0.099,
				"method": "rhf"
			},
			{
				"type": "unocc",
				"energy": 0.11434,
				"method": "rhf"
			}
		],
		"cosmo_sigma_profile": { 
			"-0.025": 0.0,
			"-0.024": 0.0,
			"-0.023": 0.0,
			"-0.022": 0.0,
			"-0.021": 0.0,
			"-0.02": 0.0,
			"-0.019": 0.0,
			"-0.018": 0.0,
			"-0.017": 0.0,
			"-0.016": 0.0,
			"-0.015": 0.0,
			"-0.014": 0.0,
			"-0.013": 0.0509059479917,
			"-0.012": 2.26602309889,
			"-0.011": 3.41686596437,
			"-0.01": 3.15099379378,
			"-0.009": 4.28165863907,
			"-0.008": 3.00504218255,
			"-0.007": 3.87669125613,
			"-0.006": 5.49692257141,
			"-0.005": 8.20331800265,
			"-0.004": 14.4323621488,
			"-0.003": 19.878314578,
			"-0.002": 19.3169933601,
			"-0.001": 14.3848143887,
			"0.0": 11.6928366629,
			"0.001": 7.83028163373,
			"0.002": 8.2607909385,
			"0.003": 8.3427174194,
			"0.004": 7.40960515479,
			"0.005": 7.7103066879,
			"0.006": 9.50860758509,
			"0.007": 7.99940804304,
			"0.008": 2.41835426168,
			"0.009": 1.39834400905,
			"0.01": 2.08849452319,
			"0.011": 2.55122806042,
			"0.012": 1.18565634097,
			"0.013": 2.38502680986,
			"0.014": 3.10835736334,
			"0.015": 1.7959882347,
			"0.016": 0.0,
			"0.017": 0.0,
			"0.018": 0.0,
			"0.019": 0.0,
			"0.02": 0.0,
			"0.021": 0.0,
			"0.022": 0.0,
			"0.023": 0.0,
			"0.024": 0.0,
			"0.025": 0.0
		}
	}
}
