{
	 "smiles": "CN1C(NCCO)=NC2=C1C=CC=C2", 
	 "Tm": 349.15, 
	 "num_atms": 27, 
	 "gaussian": { 
		 "optdone": 1, 
		 "sigma_profile": "yes", 
		 "theory": "DFT", 
		 "functional": "B3LYP", 
		 "basiset": "6-31G**", 
		 "properties": { 
			 "R2extent": 4713.5867, 
			 "electric_dipole_moment_norm": 4.14618001659, 
			 "electric_quadrupole_moment_norm": 12.0772223884, 
			 "total_energy": -628.379072548, 
			 "HOMO_LUMO_gap": 0.20071, 
			 "cosmo_polarized_energy": -15.85, 
			 "cosmo_cavitation_energy": 30.05, 
			 "cosmo_dispersion_energy": -21.94, 
			 "cosmo_repulsion_energy": 1.73, 
			 "cosmo_total_nonelectrostatic_energy": 9.83, 
			 "SMD_solvation_energy": 1.89 
		},
		"coords": [
			{
				"x": -1.8878418996,
				"y": -0.6549657983,
				"z": 0.3460178664,
				"element": "C" 
			},
			{
				"x": -1.6225498505,
				"y": 0.6927372461,
				"z": -0.1158453507,
				"element": "N" 
			},
			{
				"x": -0.7204922983,
				"y": 1.595217896,
				"z": 0.4248334217,
				"element": "C" 
			},
			{
				"x": 0.1555168884,
				"y": 1.2103830906,
				"z": 1.4360962539,
				"element": "N" 
			},
			{
				"x": 1.2661302494,
				"y": 0.3161680161,
				"z": 1.0749739178,
				"element": "C" 
			},
			{
				"x": 2.2482732178,
				"y": 0.2551615296,
				"z": 2.2420016815,
				"element": "C" 
			},
			{
				"x": 2.715861557,
				"y": 1.5487384702,
				"z": 2.6070955389,
				"element": "O" 
			},
			{
				"x": -0.8191487192,
				"y": 2.8078879743,
				"z": -0.0706021494,
				"element": "N" 
			},
			{
				"x": -1.8540110327,
				"y": 2.7284193826,
				"z": -0.9926941466,
				"element": "C" 
			},
			{
				"x": -2.3632189097,
				"y": 1.4078363204,
				"z": -1.0499903856,
				"element": "C" 
			},
			{
				"x": -3.4007277001,
				"y": 1.0382740494,
				"z": -1.9046935671,
				"element": "C" 
			},
			{
				"x": -3.9354104513,
				"y": 2.0403219242,
				"z": -2.7162219773,
				"element": "C" 
			},
			{
				"x": -3.4416053859,
				"y": 3.3569895006,
				"z": -2.6741360345,
				"element": "C" 
			},
			{
				"x": -2.401652062,
				"y": 3.7160211221,
				"z": -1.8180514073,
				"element": "C" 
			},
			{
				"x": -1.5016809418,
				"y": -0.7578615079,
				"z": 1.3619693989,
				"element": "H" 
			},
			{
				"x": -2.9675487269,
				"y": -0.8292787343,
				"z": 0.3628127368,
				"element": "H" 
			},
			{
				"x": -1.4223139958,
				"y": -1.4114985913,
				"z": -0.2971523063,
				"element": "H" 
			},
			{
				"x": 0.5455174595,
				"y": 2.0500588309,
				"z": 1.857634658,
				"element": "H" 
			},
			{
				"x": 1.7915211682,
				"y": 0.6633058224,
				"z": 0.1681868221,
				"element": "H" 
			},
			{
				"x": 0.8911227787,
				"y": -0.6915862407,
				"z": 0.8636588301,
				"element": "H" 
			},
			{
				"x": 1.7420173263,
				"y": -0.1357719622,
				"z": 3.1296556641,
				"element": "H" 
			},
			{
				"x": 3.076352126,
				"y": -0.4246926659,
				"z": 1.9934424274,
				"element": "H" 
			},
			{
				"x": 3.2670444354,
				"y": 1.883856442,
				"z": 1.886928458,
				"element": "H" 
			},
			{
				"x": -3.7795242937,
				"y": 0.0212067605,
				"z": -1.944821857,
				"element": "H" 
			},
			{
				"x": -4.7471436797,
				"y": 1.7965172956,
				"z": -3.3953244818,
				"element": "H" 
			},
			{
				"x": -3.8818290475,
				"y": 4.1075716675,
				"z": -3.3242638306,
				"element": "H" 
			},
			{
				"x": -2.018658212,
				"y": 4.7309821593,
				"z": -1.7825101812,
				"element": "H" 
			}
		],
		 "valence_orbital": [ 
			{
				"type": "occ",
				"energy": -0.28621,
				"method": "rhf"
			},
			{
				"type": "occ",
				"energy": -0.26912,
				"method": "rhf"
			},
			{
				"type": "occ",
				"energy": -0.26057,
				"method": "rhf"
			},
			{
				"type": "occ",
				"energy": -0.21413,
				"method": "rhf"
			},
			{
				"type": "occ",
				"energy": -0.20135,
				"method": "rhf"
			},
			{
				"type": "unocc",
				"energy": -0.00064,
				"method": "rhf"
			},
			{
				"type": "unocc",
				"energy": 0.03031,
				"method": "rhf"
			},
			{
				"type": "unocc",
				"energy": 0.05938,
				"method": "rhf"
			},
			{
				"type": "unocc",
				"energy": 0.06688,
				"method": "rhf"
			},
			{
				"type": "unocc",
				"energy": 0.08655,
				"method": "rhf"
			}
		],
		"cosmo_sigma_profile": { 
			"-0.025": 0.0,
			"-0.024": 0.0,
			"-0.023": 0.0,
			"-0.022": 0.0,
			"-0.021": 0.0,
			"-0.02": 0.0,
			"-0.019": 0.0,
			"-0.018": 0.0,
			"-0.017": 0.0,
			"-0.016": 0.41317696794,
			"-0.015": 1.41860993415,
			"-0.014": 0.899672965053,
			"-0.013": 0.928623084185,
			"-0.012": 1.11621530807,
			"-0.011": 0.949020524608,
			"-0.01": 1.3412667501,
			"-0.009": 0.893812678492,
			"-0.008": 1.93558157343,
			"-0.007": 1.34343089901,
			"-0.006": 9.17756657724,
			"-0.005": 27.1417929058,
			"-0.004": 27.9585685133,
			"-0.003": 25.3053398945,
			"-0.002": 18.2837811199,
			"-0.001": 12.1673059215,
			"0.0": 10.1521407462,
			"0.001": 10.4132074389,
			"0.002": 9.97480324508,
			"0.003": 11.2170194322,
			"0.004": 9.93776652144,
			"0.005": 12.9762110361,
			"0.006": 11.7382381986,
			"0.007": 8.25164127885,
			"0.008": 3.31808761684,
			"0.009": 2.28908795093,
			"0.01": 2.60500099031,
			"0.011": 2.85970615122,
			"0.012": 2.56322087353,
			"0.013": 2.20134384013,
			"0.014": 2.40680736469,
			"0.015": 0.773269435126,
			"0.016": 1.16522139151,
			"0.017": 0.801530255952,
			"0.018": 0.52906389097,
			"0.019": 0.0,
			"0.02": 0.0,
			"0.021": 0.0,
			"0.022": 0.0,
			"0.023": 0.0,
			"0.024": 0.0,
			"0.025": 0.0
		}
	}
}
