{
	 "smiles": "COC1=C(OC)C(=O)OC1C(COS(=O)(=O)C1=CC=C(C)C=C1)OS(=O)(=O)C1=CC=C(C)C=C1", 
	 "Tm": 419.15, 
	 "num_atms": 58, 
	 "gaussian": { 
		 "optdone": 1, 
		 "sigma_profile": "yes", 
		 "theory": "DFT", 
		 "functional": "B3LYP", 
		 "basiset": "6-31G**", 
		 "properties": { 
			 "R2extent": 16781.9689, 
			 "electric_dipole_moment_norm": 5.76663507169, 
			 "electric_quadrupole_moment_norm": 31.8940682596, 
			 "total_energy": -2401.23480913, 
			 "HOMO_LUMO_gap": 0.1748, 
			 "cosmo_polarized_energy": -27.94, 
			 "cosmo_cavitation_energy": 63.65, 
			 "cosmo_dispersion_energy": -38.83, 
			 "cosmo_repulsion_energy": 2.8, 
			 "cosmo_total_nonelectrostatic_energy": 27.61, 
			 "SMD_solvation_energy": 10.94 
		},
		"coords": [
			{
				"x": 4.6483174315,
				"y": 4.5976151301,
				"z": -1.158185809,
				"element": "C" 
			},
			{
				"x": 4.7147008668,
				"y": 3.1987720976,
				"z": -1.4769687422,
				"element": "O" 
			},
			{
				"x": 4.1524716917,
				"y": 2.3415998448,
				"z": -0.6069048824,
				"element": "C" 
			},
			{
				"x": 4.6159455927,
				"y": 1.1214402745,
				"z": -0.2683719074,
				"element": "C" 
			},
			{
				"x": 5.7894319014,
				"y": 0.5686694129,
				"z": -0.6374475902,
				"element": "O" 
			},
			{
				"x": 5.7248005028,
				"y": -0.7860355628,
				"z": -1.1257366178,
				"element": "C" 
			},
			{
				"x": 3.6380639899,
				"y": 0.5012890146,
				"z": 0.6440160221,
				"element": "C" 
			},
			{
				"x": 3.6413373449,
				"y": -0.5884310251,
				"z": 1.171748375,
				"element": "O" 
			},
			{
				"x": 2.6089746555,
				"y": 1.4009371383,
				"z": 0.8582823095,
				"element": "O" 
			},
			{
				"x": 2.8228429355,
				"y": 2.5814919597,
				"z": 0.0697322379,
				"element": "C" 
			},
			{
				"x": 1.6731356588,
				"y": 2.79129303,
				"z": -0.9540352304,
				"element": "C" 
			},
			{
				"x": 0.9102202293,
				"y": 1.5194582831,
				"z": -1.3442792242,
				"element": "C" 
			},
			{
				"x": 1.8810575043,
				"y": 0.6191709931,
				"z": -1.9145444425,
				"element": "O" 
			},
			{
				"x": 1.3395733115,
				"y": -0.6123255043,
				"z": -2.8687806103,
				"element": "S" 
			},
			{
				"x": 2.5744405601,
				"y": -1.2191714504,
				"z": -3.3454940417,
				"element": "O" 
			},
			{
				"x": 0.3347810115,
				"y": -0.084064082,
				"z": -3.7895955561,
				"element": "O" 
			},
			{
				"x": 0.5280783057,
				"y": -1.697759691,
				"z": -1.7053475167,
				"element": "C" 
			},
			{
				"x": -0.7810926895,
				"y": -2.1016955965,
				"z": -1.9689583706,
				"element": "C" 
			},
			{
				"x": -1.3966482884,
				"y": -3.0051019318,
				"z": -1.10227797,
				"element": "C" 
			},
			{
				"x": -0.7251458843,
				"y": -3.5023575899,
				"z": 0.0228325484,
				"element": "C" 
			},
			{
				"x": -1.3803025909,
				"y": -4.5072703051,
				"z": 0.9393022181,
				"element": "C" 
			},
			{
				"x": 0.5860056474,
				"y": -3.0631042736,
				"z": 0.268859781,
				"element": "C" 
			},
			{
				"x": 1.2245508156,
				"y": -2.1729482954,
				"z": -0.588903346,
				"element": "C" 
			},
			{
				"x": 0.7115782452,
				"y": 3.8222793573,
				"z": -0.5986596118,
				"element": "O" 
			},
			{
				"x": 0.0189929424,
				"y": 4.0794885558,
				"z": 0.8887112039,
				"element": "S" 
			},
			{
				"x": 1.06073218,
				"y": 4.0438617431,
				"z": 1.9141606714,
				"element": "O" 
			},
			{
				"x": -0.7677325286,
				"y": 5.2779209748,
				"z": 0.6455292239,
				"element": "O" 
			},
			{
				"x": -1.0770395929,
				"y": 2.6975086483,
				"z": 1.140598441,
				"element": "C" 
			},
			{
				"x": -0.663917066,
				"y": 1.6261000367,
				"z": 1.937640409,
				"element": "C" 
			},
			{
				"x": -1.533099307,
				"y": 0.5529219665,
				"z": 2.1162501579,
				"element": "C" 
			},
			{
				"x": -2.8021112983,
				"y": 0.5356206185,
				"z": 1.5169829408,
				"element": "C" 
			},
			{
				"x": -3.7142470687,
				"y": -0.6535499746,
				"z": 1.6906784243,
				"element": "C" 
			},
			{
				"x": -3.1919277083,
				"y": 1.6349333262,
				"z": 0.7379004924,
				"element": "C" 
			},
			{
				"x": -2.3394106391,
				"y": 2.7191108587,
				"z": 0.5436746219,
				"element": "C" 
			},
			{
				"x": 5.1606558218,
				"y": 4.8036589296,
				"z": -0.2120882206,
				"element": "H" 
			},
			{
				"x": 3.6159429139,
				"y": 4.9600521727,
				"z": -1.1021277102,
				"element": "H" 
			},
			{
				"x": 5.1629396444,
				"y": 5.1102937414,
				"z": -1.9708055811,
				"element": "H" 
			},
			{
				"x": 6.7357171237,
				"y": -1.022755369,
				"z": -1.4602156455,
				"element": "H" 
			},
			{
				"x": 5.0292905204,
				"y": -0.8607098504,
				"z": -1.9685821841,
				"element": "H" 
			},
			{
				"x": 5.4226033245,
				"y": -1.4714724623,
				"z": -0.3305655971,
				"element": "H" 
			},
			{
				"x": 2.8430305078,
				"y": 3.4338359063,
				"z": 0.7528760716,
				"element": "H" 
			},
			{
				"x": 2.115881858,
				"y": 3.2039495624,
				"z": -1.8650303844,
				"element": "H" 
			},
			{
				"x": 0.4447948933,
				"y": 1.0479921903,
				"z": -0.4775496222,
				"element": "H" 
			},
			{
				"x": 0.1513892252,
				"y": 1.7796039779,
				"z": -2.0866890779,
				"element": "H" 
			},
			{
				"x": -1.2999955602,
				"y": -1.7146418847,
				"z": -2.8387346126,
				"element": "H" 
			},
			{
				"x": -2.4119848501,
				"y": -3.3327584598,
				"z": -1.3093646056,
				"element": "H" 
			},
			{
				"x": -1.1672966911,
				"y": -4.2886374525,
				"z": 1.9903675308,
				"element": "H" 
			},
			{
				"x": -2.4653630515,
				"y": -4.527734236,
				"z": 0.8060304084,
				"element": "H" 
			},
			{
				"x": -1.0050863299,
				"y": -5.5181635014,
				"z": 0.7389852698,
				"element": "H" 
			},
			{
				"x": 1.1195667336,
				"y": -3.4236971344,
				"z": 1.1439393192,
				"element": "H" 
			},
			{
				"x": 2.2351661604,
				"y": -1.8449423162,
				"z": -0.3733661279,
				"element": "H" 
			},
			{
				"x": 0.3195093892,
				"y": 1.6331530031,
				"z": 2.3935593319,
				"element": "H" 
			},
			{
				"x": -1.2193988882,
				"y": -0.2853951259,
				"z": 2.7319039944,
				"element": "H" 
			},
			{
				"x": -4.7513783491,
				"y": -0.4040141596,
				"z": 1.4518746261,
				"element": "H" 
			},
			{
				"x": -3.4068379053,
				"y": -1.4711569987,
				"z": 1.0271711344,
				"element": "H" 
			},
			{
				"x": -3.6808861106,
				"y": -1.0363617446,
				"z": 2.7152722079,
				"element": "H" 
			},
			{
				"x": -4.1773407841,
				"y": 1.6444547952,
				"z": 0.2805814588,
				"element": "H" 
			},
			{
				"x": -2.6477782586,
				"y": 3.5758784347,
				"z": -0.0454505931,
				"element": "H" 
			}
		],
		 "valence_orbital": [ 
			{
				"type": "occ",
				"energy": -0.27663,
				"method": "rhf"
			},
			{
				"type": "occ",
				"energy": -0.27394,
				"method": "rhf"
			},
			{
				"type": "occ",
				"energy": -0.27036,
				"method": "rhf"
			},
			{
				"type": "occ",
				"energy": -0.26613,
				"method": "rhf"
			},
			{
				"type": "occ",
				"energy": -0.2299,
				"method": "rhf"
			},
			{
				"type": "unocc",
				"energy": -0.0551,
				"method": "rhf"
			},
			{
				"type": "unocc",
				"energy": -0.04697,
				"method": "rhf"
			},
			{
				"type": "unocc",
				"energy": -0.03556,
				"method": "rhf"
			},
			{
				"type": "unocc",
				"energy": -0.03186,
				"method": "rhf"
			},
			{
				"type": "unocc",
				"energy": -0.0282,
				"method": "rhf"
			}
		],
		"cosmo_sigma_profile": { 
			"-0.025": 0.0,
			"-0.024": 0.0,
			"-0.023": 0.0,
			"-0.022": 0.0,
			"-0.021": 0.0,
			"-0.02": 0.020755692195,
			"-0.019": 0.027019969563,
			"-0.018": 0.0477058595296,
			"-0.017": 0.0580720318435,
			"-0.016": 0.080946023869,
			"-0.015": 0.0,
			"-0.014": 0.0218061310691,
			"-0.013": 0.00231909331667,
			"-0.012": 0.026568925642,
			"-0.011": 0.0319863229723,
			"-0.01": 0.425859409508,
			"-0.009": 3.53120599209,
			"-0.008": 5.40924233212,
			"-0.007": 18.1590017549,
			"-0.006": 30.4092317103,
			"-0.005": 37.9480504534,
			"-0.004": 41.6134441229,
			"-0.003": 44.1032513078,
			"-0.002": 41.4881122016,
			"-0.001": 45.5017388257,
			"0.0": 37.6361754152,
			"0.001": 29.9843115418,
			"0.002": 36.6602242581,
			"0.003": 21.8706492323,
			"0.004": 12.877689301,
			"0.005": 13.8273273696,
			"0.006": 12.3758003353,
			"0.007": 10.5043520287,
			"0.008": 14.2563302987,
			"0.009": 20.9129680063,
			"0.01": 19.1922392763,
			"0.011": 6.41488093165,
			"0.012": 1.47996165014,
			"0.013": 0.0310648747648,
			"0.014": 0.0,
			"0.015": 0.0,
			"0.016": 0.0,
			"0.017": 0.0,
			"0.018": 0.0,
			"0.019": 0.0,
			"0.02": 0.0,
			"0.021": 0.0,
			"0.022": 0.0,
			"0.023": 0.0,
			"0.024": 0.0,
			"0.025": 0.0
		}
	}
}
