{
	 "smiles": "OC(=O)C1=CC=NC(=C1)C(O)=O", 
	 "Tm": 522.15, 
	 "num_atms": 17, 
	 "gaussian": { 
		 "optdone": 1, 
		 "sigma_profile": "yes", 
		 "theory": "DFT", 
		 "functional": "B3LYP", 
		 "basiset": "6-31G**", 
		 "properties": { 
			 "R2extent": 2586.3982, 
			 "electric_dipole_moment_norm": 3.87230690545, 
			 "electric_quadrupole_moment_norm": 20.5895266165, 
			 "total_energy": -625.431904742, 
			 "HOMO_LUMO_gap": 0.18052, 
			 "cosmo_polarized_energy": -15.23, 
			 "cosmo_cavitation_energy": 22.99, 
			 "cosmo_dispersion_energy": -17.11, 
			 "cosmo_repulsion_energy": 1.36, 
			 "cosmo_total_nonelectrostatic_energy": 7.24, 
			 "SMD_solvation_energy": 5.93 
		},
		"coords": [
			{
				"x": 0.3680824318,
				"y": 1.4688059345,
				"z": 1.5640175326,
				"element": "O" 
			},
			{
				"x": 1.2231202758,
				"y": 0.4257850169,
				"z": 1.5936747101,
				"element": "C" 
			},
			{
				"x": 2.1437584068,
				"y": 0.3409282919,
				"z": 2.3784904231,
				"element": "O" 
			},
			{
				"x": 0.9086225406,
				"y": -0.6057825715,
				"z": 0.5567510784,
				"element": "C" 
			},
			{
				"x": 1.7234456706,
				"y": -1.740338727,
				"z": 0.4832582593,
				"element": "C" 
			},
			{
				"x": 1.4398805357,
				"y": -2.7083808629,
				"z": -0.4790508628,
				"element": "C" 
			},
			{
				"x": 0.4191902998,
				"y": -2.5970720105,
				"z": -1.3364989845,
				"element": "N" 
			},
			{
				"x": -0.3569133602,
				"y": -1.5059926647,
				"z": -1.2589947532,
				"element": "C" 
			},
			{
				"x": -0.1593178185,
				"y": -0.4808453032,
				"z": -0.334314656,
				"element": "C" 
			},
			{
				"x": -1.49343914,
				"y": -1.4344895962,
				"z": -2.2516620455,
				"element": "C" 
			},
			{
				"x": -1.5560854281,
				"y": -2.49054183,
				"z": -3.0750853233,
				"element": "O" 
			},
			{
				"x": -2.2700780583,
				"y": -0.5079211737,
				"z": -2.2943756865,
				"element": "O" 
			},
			{
				"x": 0.650125822,
				"y": 2.0790136786,
				"z": 2.2657024902,
				"element": "H" 
			},
			{
				"x": 2.5558279109,
				"y": -1.8495856622,
				"z": 1.1690980163,
				"element": "H" 
			},
			{
				"x": 2.051438462,
				"y": -3.6028219594,
				"z": -0.5653019571,
				"element": "H" 
			},
			{
				"x": -0.8252698844,
				"y": 0.3727433233,
				"z": -0.3276794951,
				"element": "H" 
			},
			{
				"x": -0.8160886663,
				"y": -3.0817038838,
				"z": -2.8233287459,
				"element": "H" 
			}
		],
		 "valence_orbital": [ 
			{
				"type": "occ",
				"energy": -0.3163,
				"method": "rhf"
			},
			{
				"type": "occ",
				"energy": -0.31352,
				"method": "rhf"
			},
			{
				"type": "occ",
				"energy": -0.30402,
				"method": "rhf"
			},
			{
				"type": "occ",
				"energy": -0.29313,
				"method": "rhf"
			},
			{
				"type": "occ",
				"energy": -0.27421,
				"method": "rhf"
			},
			{
				"type": "unocc",
				"energy": -0.09369,
				"method": "rhf"
			},
			{
				"type": "unocc",
				"energy": -0.06282,
				"method": "rhf"
			},
			{
				"type": "unocc",
				"energy": 0.00523,
				"method": "rhf"
			},
			{
				"type": "unocc",
				"energy": 0.05818,
				"method": "rhf"
			},
			{
				"type": "unocc",
				"energy": 0.06383,
				"method": "rhf"
			}
		],
		"cosmo_sigma_profile": { 
			"-0.025": 0.0,
			"-0.024": 0.0,
			"-0.023": 0.0,
			"-0.022": 0.0,
			"-0.021": 0.0,
			"-0.02": 0.0,
			"-0.019": 0.70685733994,
			"-0.018": 1.09444377611,
			"-0.017": 0.878542751762,
			"-0.016": 0.643914238441,
			"-0.015": 0.861545787661,
			"-0.014": 0.882108789081,
			"-0.013": 1.26357518481,
			"-0.012": 1.1185691303,
			"-0.011": 1.33940845333,
			"-0.01": 1.097963516,
			"-0.009": 2.30027283521,
			"-0.008": 5.74447624698,
			"-0.007": 5.91567763693,
			"-0.006": 5.87906885447,
			"-0.005": 9.84848380003,
			"-0.004": 11.4781905915,
			"-0.003": 14.7038863876,
			"-0.002": 20.199353634,
			"-0.001": 16.8375064088,
			"0.0": 9.1781781982,
			"0.001": 7.38662494599,
			"0.002": 5.57838519608,
			"0.003": 6.33563524604,
			"0.004": 5.80705118161,
			"0.005": 6.3718202246,
			"0.006": 5.55273117018,
			"0.007": 3.3957485396,
			"0.008": 5.30283357878,
			"0.009": 5.88596012056,
			"0.01": 8.51947960611,
			"0.011": 9.07998827887,
			"0.012": 3.04777518644,
			"0.013": 0.795539578057,
			"0.014": 0.0,
			"0.015": 0.0,
			"0.016": 0.0,
			"0.017": 0.0,
			"0.018": 0.0,
			"0.019": 0.0,
			"0.02": 0.0,
			"0.021": 0.0,
			"0.022": 0.0,
			"0.023": 0.0,
			"0.024": 0.0,
			"0.025": 0.0
		}
	}
}
