{
	 "smiles": "OC(=O)CCN1C(=O)NC2(CCCCC2)C1=O", 
	 "Tm": 374.15, 
	 "num_atms": 33, 
	 "gaussian": { 
		 "optdone": 1, 
		 "sigma_profile": "yes", 
		 "theory": "DFT", 
		 "functional": "B3LYP", 
		 "basiset": "6-31G**", 
		 "properties": { 
			 "R2extent": 4172.4395, 
			 "electric_dipole_moment_norm": 1.04333050372, 
			 "electric_quadrupole_moment_norm": 13.1523400925, 
			 "total_energy": -839.285670988, 
			 "HOMO_LUMO_gap": 0.24929, 
			 "cosmo_polarized_energy": -17.77, 
			 "cosmo_cavitation_energy": 34.46, 
			 "cosmo_dispersion_energy": -24.08, 
			 "cosmo_repulsion_energy": 1.87, 
			 "cosmo_total_nonelectrostatic_energy": 12.25, 
			 "SMD_solvation_energy": 6.5 
		},
		"coords": [
			{
				"x": 2.9554867744,
				"y": -0.7454784112,
				"z": -3.0242266202,
				"element": "O" 
			},
			{
				"x": 2.3275799065,
				"y": -0.7611552215,
				"z": -1.8284624033,
				"element": "C" 
			},
			{
				"x": 2.4445425255,
				"y": 0.1324502399,
				"z": -1.0148640253,
				"element": "O" 
			},
			{
				"x": 1.4494638063,
				"y": -1.9798177103,
				"z": -1.6570020171,
				"element": "C" 
			},
			{
				"x": -0.0187914295,
				"y": -1.6700151103,
				"z": -2.0286109925,
				"element": "C" 
			},
			{
				"x": -0.5690919115,
				"y": -0.5803826867,
				"z": -1.2432811692,
				"element": "N" 
			},
			{
				"x": -0.7190245998,
				"y": 0.7320111795,
				"z": -1.7506365559,
				"element": "C" 
			},
			{
				"x": -0.4623345511,
				"y": 1.0740097651,
				"z": -2.8888612039,
				"element": "O" 
			},
			{
				"x": -1.2201165222,
				"y": 1.4831910284,
				"z": -0.7185010416,
				"element": "N" 
			},
			{
				"x": -1.174606931,
				"y": 0.7837983092,
				"z": 0.5713243214,
				"element": "C" 
			},
			{
				"x": -2.5272780839,
				"y": 0.7914065498,
				"z": 1.3320962442,
				"element": "C" 
			},
			{
				"x": -2.5738179337,
				"y": 1.8796200619,
				"z": 2.4115146464,
				"element": "C" 
			},
			{
				"x": -1.5084407053,
				"y": 1.629674578,
				"z": 3.50505618,
				"element": "C" 
			},
			{
				"x": -0.2338163172,
				"y": 0.9597134807,
				"z": 2.934706775,
				"element": "C" 
			},
			{
				"x": -0.0212580243,
				"y": 1.3331160029,
				"z": 1.4635162769,
				"element": "C" 
			},
			{
				"x": -0.8240266637,
				"y": -0.6409151425,
				"z": 0.1086766378,
				"element": "C" 
			},
			{
				"x": -0.7598242711,
				"y": -1.6407412448,
				"z": 0.8023279119,
				"element": "O" 
			},
			{
				"x": 3.436155022,
				"y": 0.0986294259,
				"z": -3.0708345624,
				"element": "H" 
			},
			{
				"x": 1.4906876132,
				"y": -2.2861104764,
				"z": -0.6094721161,
				"element": "H" 
			},
			{
				"x": 1.807905926,
				"y": -2.7964260525,
				"z": -2.2886948492,
				"element": "H" 
			},
			{
				"x": -0.102058714,
				"y": -1.3732963216,
				"z": -3.0761701299,
				"element": "H" 
			},
			{
				"x": -0.6226856522,
				"y": -2.5649784583,
				"z": -1.8570562688,
				"element": "H" 
			},
			{
				"x": -1.138073458,
				"y": 2.4872130434,
				"z": -0.7875629437,
				"element": "H" 
			},
			{
				"x": -3.3362691388,
				"y": 0.9102435342,
				"z": 0.6046653569,
				"element": "H" 
			},
			{
				"x": -2.6534781896,
				"y": -0.1907090527,
				"z": 1.8024303354,
				"element": "H" 
			},
			{
				"x": -3.5737546739,
				"y": 1.9219385354,
				"z": 2.8563193587,
				"element": "H" 
			},
			{
				"x": -2.4117986464,
				"y": 2.8606324842,
				"z": 1.9454632417,
				"element": "H" 
			},
			{
				"x": -1.2521799539,
				"y": 2.5826554252,
				"z": 3.9826174765,
				"element": "H" 
			},
			{
				"x": -1.9293150756,
				"y": 0.9945541338,
				"z": 4.2928689346,
				"element": "H" 
			},
			{
				"x": -0.3106733906,
				"y": -0.1303995906,
				"z": 3.0051850646,
				"element": "H" 
			},
			{
				"x": 0.6439095279,
				"y": 1.2479922312,
				"z": 3.5225431011,
				"element": "H" 
			},
			{
				"x": -0.0088806935,
				"y": 2.4266371224,
				"z": 1.3586845056,
				"element": "H" 
			},
			{
				"x": 0.9386644291,
				"y": 0.9732383483,
				"z": 1.0802405303,
				"element": "H" 
			}
		],
		 "valence_orbital": [ 
			{
				"type": "occ",
				"energy": -0.28447,
				"method": "rhf"
			},
			{
				"type": "occ",
				"energy": -0.28321,
				"method": "rhf"
			},
			{
				"type": "occ",
				"energy": -0.26973,
				"method": "rhf"
			},
			{
				"type": "occ",
				"energy": -0.26189,
				"method": "rhf"
			},
			{
				"type": "occ",
				"energy": -0.25564,
				"method": "rhf"
			},
			{
				"type": "unocc",
				"energy": -0.00635,
				"method": "rhf"
			},
			{
				"type": "unocc",
				"energy": 0.00054,
				"method": "rhf"
			},
			{
				"type": "unocc",
				"energy": 0.05666,
				"method": "rhf"
			},
			{
				"type": "unocc",
				"energy": 0.06883,
				"method": "rhf"
			},
			{
				"type": "unocc",
				"energy": 0.07681,
				"method": "rhf"
			}
		],
		"cosmo_sigma_profile": { 
			"-0.025": 0.0,
			"-0.024": 0.0,
			"-0.023": 0.0,
			"-0.022": 0.0,
			"-0.021": 0.0,
			"-0.02": 0.0,
			"-0.019": 0.0232093743546,
			"-0.018": 0.634078505817,
			"-0.017": 1.36008975944,
			"-0.016": 0.743000212178,
			"-0.015": 1.08786713182,
			"-0.014": 1.64423225129,
			"-0.013": 1.34086538346,
			"-0.012": 1.95460361255,
			"-0.011": 2.51956854741,
			"-0.01": 2.49113031827,
			"-0.009": 1.59843693311,
			"-0.008": 1.71183601572,
			"-0.007": 5.46658021632,
			"-0.006": 10.248930159,
			"-0.005": 11.2552697607,
			"-0.004": 15.783016406,
			"-0.003": 23.2316438651,
			"-0.002": 28.8335680972,
			"-0.001": 33.9866871236,
			"0.0": 24.1012754167,
			"0.001": 16.8477233295,
			"0.002": 9.28151167604,
			"0.003": 8.70839880315,
			"0.004": 8.68214127726,
			"0.005": 6.96991963356,
			"0.006": 6.19952893265,
			"0.007": 5.11011965053,
			"0.008": 6.07415215127,
			"0.009": 5.70426414493,
			"0.01": 5.54334440946,
			"0.011": 5.60025963311,
			"0.012": 9.3908532303,
			"0.013": 4.03923516229,
			"0.014": 0.357252344896,
			"0.015": 0.0,
			"0.016": 0.0,
			"0.017": 0.0,
			"0.018": 0.0,
			"0.019": 0.0,
			"0.02": 0.0,
			"0.021": 0.0,
			"0.022": 0.0,
			"0.023": 0.0,
			"0.024": 0.0,
			"0.025": 0.0
		}
	}
}
