{
	 "smiles": "[O-][N+](=O)C=CC1=CC(C=C[N+]([O-])=O)=CC=C1", 
	 "Tm": 477.15, 
	 "num_atms": 24, 
	 "gaussian": { 
		 "optdone": 1, 
		 "sigma_profile": "yes", 
		 "theory": "DFT", 
		 "functional": "B3LYP", 
		 "basiset": "6-31G**", 
		 "properties": { 
			 "R2extent": 7052.5528, 
			 "electric_dipole_moment_norm": 4.87127487728, 
			 "electric_quadrupole_moment_norm": 44.8633620372, 
			 "total_energy": -796.047857918, 
			 "HOMO_LUMO_gap": 0.15192, 
			 "cosmo_polarized_energy": -19.23, 
			 "cosmo_cavitation_energy": 31.67, 
			 "cosmo_dispersion_energy": -22.51, 
			 "cosmo_repulsion_energy": 1.74, 
			 "cosmo_total_nonelectrostatic_energy": 10.9, 
			 "SMD_solvation_energy": 10.87 
		},
		"coords": [
			{
				"x": -1.8097262481,
				"y": -6.2505613289,
				"z": 1.6271501872,
				"element": "O" 
			},
			{
				"x": -1.897642489,
				"y": -5.0644775527,
				"z": 1.3010786052,
				"element": "N" 
			},
			{
				"x": -2.9497335434,
				"y": -4.4690202745,
				"z": 1.064159319,
				"element": "O" 
			},
			{
				"x": -0.6364974933,
				"y": -4.3467275383,
				"z": 1.199223125,
				"element": "C" 
			},
			{
				"x": -0.6199024331,
				"y": -3.0537503086,
				"z": 0.8516311386,
				"element": "C" 
			},
			{
				"x": 0.5586404208,
				"y": -2.2003945163,
				"z": 0.7071241145,
				"element": "C" 
			},
			{
				"x": 0.3688658304,
				"y": -0.860812184,
				"z": 0.3333807101,
				"element": "C" 
			},
			{
				"x": 1.4464930987,
				"y": 0.0242215386,
				"z": 0.1733037061,
				"element": "C" 
			},
			{
				"x": 1.1589912594,
				"y": 1.4035309515,
				"z": -0.2177370238,
				"element": "C" 
			},
			{
				"x": 2.0496381765,
				"y": 2.3835419031,
				"z": -0.4157652896,
				"element": "C" 
			},
			{
				"x": 1.6055235792,
				"y": 3.7130143376,
				"z": -0.8047051334,
				"element": "N" 
			},
			{
				"x": 0.400953086,
				"y": 3.9266483193,
				"z": -0.949512908,
				"element": "O" 
			},
			{
				"x": 2.4998061768,
				"y": 4.5472061119,
				"z": -0.9635389853,
				"element": "O" 
			},
			{
				"x": 2.7486178121,
				"y": -0.460740011,
				"z": 0.3973833631,
				"element": "C" 
			},
			{
				"x": 2.9525891491,
				"y": -1.7875515026,
				"z": 0.7685996514,
				"element": "C" 
			},
			{
				"x": 1.8732540986,
				"y": -2.6540428482,
				"z": 0.9237481182,
				"element": "C" 
			},
			{
				"x": 0.2049801506,
				"y": -4.9833897814,
				"z": 1.4321885649,
				"element": "H" 
			},
			{
				"x": -1.588112107,
				"y": -2.598200948,
				"z": 0.6584221472,
				"element": "H" 
			},
			{
				"x": -0.6415791193,
				"y": -0.4983919548,
				"z": 0.1631614996,
				"element": "H" 
			},
			{
				"x": 0.114999572,
				"y": 1.6693947357,
				"z": -0.3649820317,
				"element": "H" 
			},
			{
				"x": 3.1251398874,
				"y": 2.3330123767,
				"z": -0.3238923194,
				"element": "H" 
			},
			{
				"x": 3.6037857089,
				"y": 0.1971752735,
				"z": 0.2821249164,
				"element": "H" 
			},
			{
				"x": 3.961693949,
				"y": -2.149518875,
				"z": 0.9384759422,
				"element": "H" 
			},
			{
				"x": 2.0548214779,
				"y": -3.6838659235,
				"z": 1.2134785824,
				"element": "H" 
			}
		],
		 "valence_orbital": [ 
			{
				"type": "occ",
				"energy": -0.31094,
				"method": "rhf"
			},
			{
				"type": "occ",
				"energy": -0.29487,
				"method": "rhf"
			},
			{
				"type": "occ",
				"energy": -0.29462,
				"method": "rhf"
			},
			{
				"type": "occ",
				"energy": -0.28334,
				"method": "rhf"
			},
			{
				"type": "occ",
				"energy": -0.26872,
				"method": "rhf"
			},
			{
				"type": "unocc",
				"energy": -0.1168,
				"method": "rhf"
			},
			{
				"type": "unocc",
				"energy": -0.1043,
				"method": "rhf"
			},
			{
				"type": "unocc",
				"energy": -0.04169,
				"method": "rhf"
			},
			{
				"type": "unocc",
				"energy": -0.03882,
				"method": "rhf"
			},
			{
				"type": "unocc",
				"energy": 0.00746,
				"method": "rhf"
			}
		],
		"cosmo_sigma_profile": { 
			"-0.025": 0.0,
			"-0.024": 0.0,
			"-0.023": 0.0,
			"-0.022": 0.0,
			"-0.021": 0.0,
			"-0.02": 0.0,
			"-0.019": 0.0,
			"-0.018": 0.0,
			"-0.017": 0.0,
			"-0.016": 0.0,
			"-0.015": 0.0,
			"-0.014": 0.12839720919,
			"-0.013": 0.396014101371,
			"-0.012": 1.01805997837,
			"-0.011": 2.23443508653,
			"-0.01": 5.00084662446,
			"-0.009": 7.6495352404,
			"-0.008": 8.99057309953,
			"-0.007": 10.4996134346,
			"-0.006": 11.6090695836,
			"-0.005": 12.5194195249,
			"-0.004": 13.6624358753,
			"-0.003": 16.2370263601,
			"-0.002": 17.7175799048,
			"-0.001": 21.8087739644,
			"0.0": 20.1529176083,
			"0.001": 19.056809059,
			"0.002": 11.9474672603,
			"0.003": 4.60059238254,
			"0.004": 3.54055713791,
			"0.005": 5.83884848997,
			"0.006": 6.11353500493,
			"0.007": 9.60445518352,
			"0.008": 21.8603352905,
			"0.009": 12.8963399027,
			"0.01": 7.85510570169,
			"0.011": 1.9358798609,
			"0.012": 0.0,
			"0.013": 0.0,
			"0.014": 0.0,
			"0.015": 0.0,
			"0.016": 0.0,
			"0.017": 0.0,
			"0.018": 0.0,
			"0.019": 0.0,
			"0.02": 0.0,
			"0.021": 0.0,
			"0.022": 0.0,
			"0.023": 0.0,
			"0.024": 0.0,
			"0.025": 0.0
		}
	}
}
