{
	 "smiles": "COC1=CC(=CC(OC)=C1OC)C(=O)CCC(O)=O", 
	 "Tm": 383.15, 
	 "num_atms": 35, 
	 "gaussian": { 
		 "optdone": 1, 
		 "sigma_profile": "yes", 
		 "theory": "DFT", 
		 "functional": "B3LYP", 
		 "basiset": "6-31G**", 
		 "properties": { 
			 "R2extent": 8527.262, 
			 "electric_dipole_moment_norm": 3.5130653239, 
			 "electric_quadrupole_moment_norm": 27.9889314801, 
			 "total_energy": -956.330550702, 
			 "HOMO_LUMO_gap": 0.18226, 
			 "cosmo_polarized_energy": -20.67, 
			 "cosmo_cavitation_energy": 39.78, 
			 "cosmo_dispersion_energy": -27.45, 
			 "cosmo_repulsion_energy": 2.17, 
			 "cosmo_total_nonelectrostatic_energy": 14.49, 
			 "SMD_solvation_energy": 10.63 
		},
		"coords": [
			{
				"x": 0.9204425107,
				"y": 3.3974611217,
				"z": -1.4080680387,
				"element": "C" 
			},
			{
				"x": 1.1447443549,
				"y": 2.5132400372,
				"z": -0.3043642282,
				"element": "O" 
			},
			{
				"x": 0.3891811725,
				"y": 1.369176192,
				"z": -0.288351149,
				"element": "C" 
			},
			{
				"x": -0.5268081908,
				"y": 1.1806229685,
				"z": 0.7427159021,
				"element": "C" 
			},
			{
				"x": -1.252551434,
				"y": -0.0145639693,
				"z": 0.8451733954,
				"element": "C" 
			},
			{
				"x": -1.0721907377,
				"y": -1.017303882,
				"z": -0.1187993044,
				"element": "C" 
			},
			{
				"x": -0.1635241994,
				"y": -0.8342646952,
				"z": -1.1597049972,
				"element": "C" 
			},
			{
				"x": 0.0393968121,
				"y": -1.8590093648,
				"z": -2.054090231,
				"element": "O" 
			},
			{
				"x": -0.4164447067,
				"y": -1.6044117908,
				"z": -3.3892134462,
				"element": "C" 
			},
			{
				"x": 0.5838300309,
				"y": 0.3548531671,
				"z": -1.2471492492,
				"element": "C" 
			},
			{
				"x": 1.489528843,
				"y": 0.5428964649,
				"z": -2.2621995866,
				"element": "O" 
			},
			{
				"x": 2.7271308196,
				"y": -0.1657767925,
				"z": -2.087794712,
				"element": "C" 
			},
			{
				"x": -2.2104785774,
				"y": -0.1564898513,
				"z": 1.9859271183,
				"element": "C" 
			},
			{
				"x": -2.3659684787,
				"y": 0.7513696468,
				"z": 2.7922118838,
				"element": "O" 
			},
			{
				"x": -2.994576524,
				"y": -1.4558570688,
				"z": 2.1234049756,
				"element": "C" 
			},
			{
				"x": -3.8911576181,
				"y": -1.4623777853,
				"z": 3.356619107,
				"element": "C" 
			},
			{
				"x": -4.7885195388,
				"y": -2.6888141214,
				"z": 3.4153475244,
				"element": "C" 
			},
			{
				"x": -5.5557158557,
				"y": -2.7906628208,
				"z": 4.5346872762,
				"element": "O" 
			},
			{
				"x": -4.8596995121,
				"y": -3.5335823045,
				"z": 2.5573083866,
				"element": "O" 
			},
			{
				"x": 1.5824391037,
				"y": 4.2510829666,
				"z": -1.2499361239,
				"element": "H" 
			},
			{
				"x": 1.1600986413,
				"y": 2.9165590945,
				"z": -2.3604725696,
				"element": "H" 
			},
			{
				"x": -0.1199882286,
				"y": 3.7464698563,
				"z": -1.4209312884,
				"element": "H" 
			},
			{
				"x": -0.665720045,
				"y": 1.9563716805,
				"z": 1.486778341,
				"element": "H" 
			},
			{
				"x": -1.615541261,
				"y": -1.9547503767,
				"z": -0.0857804217,
				"element": "H" 
			},
			{
				"x": -1.4998973599,
				"y": -1.4323142166,
				"z": -3.4022281037,
				"element": "H" 
			},
			{
				"x": -0.1883583053,
				"y": -2.5037597805,
				"z": -3.9643824459,
				"element": "H" 
			},
			{
				"x": 0.0973077335,
				"y": -0.7440603268,
				"z": -3.8281590116,
				"element": "H" 
			},
			{
				"x": 2.5534512243,
				"y": -1.2449621123,
				"z": -2.0351658797,
				"element": "H" 
			},
			{
				"x": 3.2404114335,
				"y": 0.175344785,
				"z": -1.1818976029,
				"element": "H" 
			},
			{
				"x": 3.3373936739,
				"y": 0.0680055659,
				"z": -2.9620966722,
				"element": "H" 
			},
			{
				"x": -2.2996121625,
				"y": -2.3030871009,
				"z": 2.1526921031,
				"element": "H" 
			},
			{
				"x": -3.6000618403,
				"y": -1.61597543,
				"z": 1.2235304056,
				"element": "H" 
			},
			{
				"x": -3.2873037027,
				"y": -1.4099118641,
				"z": 4.2711432874,
				"element": "H" 
			},
			{
				"x": -4.516523053,
				"y": -0.5611389447,
				"z": 3.3715460733,
				"element": "H" 
			},
			{
				"x": -5.3887150221,
				"y": -2.0405789478,
				"z": 5.1232992825,
				"element": "H" 
			}
		],
		 "valence_orbital": [ 
			{
				"type": "occ",
				"energy": -0.27329,
				"method": "rhf"
			},
			{
				"type": "occ",
				"energy": -0.27138,
				"method": "rhf"
			},
			{
				"type": "occ",
				"energy": -0.25371,
				"method": "rhf"
			},
			{
				"type": "occ",
				"energy": -0.24254,
				"method": "rhf"
			},
			{
				"type": "occ",
				"energy": -0.24089,
				"method": "rhf"
			},
			{
				"type": "unocc",
				"energy": -0.05863,
				"method": "rhf"
			},
			{
				"type": "unocc",
				"energy": -0.00565,
				"method": "rhf"
			},
			{
				"type": "unocc",
				"energy": 0.01086,
				"method": "rhf"
			},
			{
				"type": "unocc",
				"energy": 0.03668,
				"method": "rhf"
			},
			{
				"type": "unocc",
				"energy": 0.05648,
				"method": "rhf"
			}
		],
		"cosmo_sigma_profile": { 
			"-0.025": 0.0,
			"-0.024": 0.0,
			"-0.023": 0.0,
			"-0.022": 0.0,
			"-0.021": 0.0,
			"-0.02": 0.0,
			"-0.019": 0.63660182501,
			"-0.018": 1.07671966583,
			"-0.017": 1.09744602382,
			"-0.016": 1.3399427087,
			"-0.015": 1.0789715983,
			"-0.014": 1.02490037508,
			"-0.013": 0.899947178302,
			"-0.012": 0.87360830588,
			"-0.011": 1.35653223232,
			"-0.01": 1.81225958261,
			"-0.009": 0.985910471148,
			"-0.008": 2.04099556713,
			"-0.007": 6.57316383185,
			"-0.006": 16.5210395865,
			"-0.005": 24.1511471312,
			"-0.004": 26.2824084966,
			"-0.003": 33.9571906907,
			"-0.002": 27.6117985906,
			"-0.001": 20.0588607527,
			"0.0": 17.4399049727,
			"0.001": 16.6382068412,
			"0.002": 19.0368127803,
			"0.003": 14.5822602445,
			"0.004": 9.96885479299,
			"0.005": 8.83555173827,
			"0.006": 7.74231535253,
			"0.007": 6.03479725376,
			"0.008": 6.43011698662,
			"0.009": 8.10870894334,
			"0.01": 7.92347872597,
			"0.011": 11.1977470925,
			"0.012": 8.94924001892,
			"0.013": 1.85122892283,
			"0.014": 0.119822376171,
			"0.015": 0.0,
			"0.016": 0.0,
			"0.017": 0.0,
			"0.018": 0.0,
			"0.019": 0.0,
			"0.02": 0.0,
			"0.021": 0.0,
			"0.022": 0.0,
			"0.023": 0.0,
			"0.024": 0.0,
			"0.025": 0.0
		}
	}
}
