{
	 "smiles": "OC(=O)COC1=C(F)C=CC=C1", 
	 "Tm": 412.15, 
	 "num_atms": 19, 
	 "gaussian": { 
		 "optdone": 1, 
		 "sigma_profile": "yes", 
		 "theory": "DFT", 
		 "functional": "B3LYP", 
		 "basiset": "6-31G**", 
		 "properties": { 
			 "R2extent": 3191.969, 
			 "electric_dipole_moment_norm": 1.85891818271, 
			 "electric_quadrupole_moment_norm": 6.43537694856, 
			 "total_energy": -634.565839971, 
			 "HOMO_LUMO_gap": 0.21987, 
			 "cosmo_polarized_energy": -11.09, 
			 "cosmo_cavitation_energy": 23.98, 
			 "cosmo_dispersion_energy": -17.59, 
			 "cosmo_repulsion_energy": 1.4, 
			 "cosmo_total_nonelectrostatic_energy": 7.79, 
			 "SMD_solvation_energy": 6.03 
		},
		"coords": [
			{
				"x": 1.5435446836,
				"y": -1.4320972815,
				"z": -3.272229234,
				"element": "O" 
			},
			{
				"x": 0.6442432752,
				"y": -2.0902507008,
				"z": -2.5187830229,
				"element": "C" 
			},
			{
				"x": -0.0154879875,
				"y": -3.0254392387,
				"z": -2.910902363,
				"element": "O" 
			},
			{
				"x": 0.5602941731,
				"y": -1.5763532332,
				"z": -1.0875673679,
				"element": "C" 
			},
			{
				"x": 1.3450586627,
				"y": -0.4325122024,
				"z": -0.7973504436,
				"element": "O" 
			},
			{
				"x": 0.896411347,
				"y": 0.8297253146,
				"z": -1.0732921446,
				"element": "C" 
			},
			{
				"x": -0.1654021767,
				"y": 1.1749667814,
				"z": -1.9195613228,
				"element": "C" 
			},
			{
				"x": -0.8704583665,
				"y": 0.2076375362,
				"z": -2.5655929012,
				"element": "F" 
			},
			{
				"x": -0.5299864801,
				"y": 2.498343491,
				"z": -2.1332873036,
				"element": "C" 
			},
			{
				"x": 0.1748407037,
				"y": 3.5230912108,
				"z": -1.5043363978,
				"element": "C" 
			},
			{
				"x": 1.243787299,
				"y": 3.2028799218,
				"z": -0.6640643589,
				"element": "C" 
			},
			{
				"x": 1.594766726,
				"y": 1.8726786614,
				"z": -0.450693594,
				"element": "C" 
			},
			{
				"x": 1.5081593286,
				"y": -1.8426241234,
				"z": -4.1528604706,
				"element": "H" 
			},
			{
				"x": 0.9492814705,
				"y": -2.3695512442,
				"z": -0.4414907995,
				"element": "H" 
			},
			{
				"x": -0.496224633,
				"y": -1.4350478422,
				"z": -0.8456316692,
				"element": "H" 
			},
			{
				"x": -1.3627259174,
				"y": 2.6980104874,
				"z": -2.7995691902,
				"element": "H" 
			},
			{
				"x": -0.1080140824,
				"y": 4.5570025207,
				"z": -1.6724905441,
				"element": "H" 
			},
			{
				"x": 1.8041904231,
				"y": 3.9888051037,
				"z": -0.1674519279,
				"element": "H" 
			},
			{
				"x": 2.4188215513,
				"y": 1.6023348376,
				"z": 0.2013550559,
				"element": "H" 
			}
		],
		 "valence_orbital": [ 
			{
				"type": "occ",
				"energy": -0.33722,
				"method": "rhf"
			},
			{
				"type": "occ",
				"energy": -0.31987,
				"method": "rhf"
			},
			{
				"type": "occ",
				"energy": -0.279,
				"method": "rhf"
			},
			{
				"type": "occ",
				"energy": -0.25358,
				"method": "rhf"
			},
			{
				"type": "occ",
				"energy": -0.22809,
				"method": "rhf"
			},
			{
				"type": "unocc",
				"energy": -0.00822,
				"method": "rhf"
			},
			{
				"type": "unocc",
				"energy": 0.00152,
				"method": "rhf"
			},
			{
				"type": "unocc",
				"energy": 0.00938,
				"method": "rhf"
			},
			{
				"type": "unocc",
				"energy": 0.06232,
				"method": "rhf"
			},
			{
				"type": "unocc",
				"energy": 0.07986,
				"method": "rhf"
			}
		],
		"cosmo_sigma_profile": { 
			"-0.025": 0.0,
			"-0.024": 0.0,
			"-0.023": 0.0,
			"-0.022": 0.0,
			"-0.021": 0.0,
			"-0.02": 0.0,
			"-0.019": 0.359062511249,
			"-0.018": 0.985395368475,
			"-0.017": 1.23349995992,
			"-0.016": 0.416362099357,
			"-0.015": 0.399515908369,
			"-0.014": 0.925894410544,
			"-0.013": 0.52419299792,
			"-0.012": 1.19829920035,
			"-0.011": 1.01256912108,
			"-0.01": 0.483312455354,
			"-0.009": 1.68277435973,
			"-0.008": 4.91771390412,
			"-0.007": 7.44635715262,
			"-0.006": 12.2042961016,
			"-0.005": 12.5975168924,
			"-0.004": 12.452310937,
			"-0.003": 9.66162975439,
			"-0.002": 7.78975931406,
			"-0.001": 8.25355236625,
			"0.0": 9.24236326099,
			"0.001": 12.469551916,
			"0.002": 14.3684198426,
			"0.003": 18.4509915661,
			"0.004": 16.4320375533,
			"0.005": 8.35589175718,
			"0.006": 3.7586281222,
			"0.007": 4.45718465957,
			"0.008": 3.87205216932,
			"0.009": 3.7109309109,
			"0.01": 3.58125525306,
			"0.011": 4.67722841576,
			"0.012": 3.47031976619,
			"0.013": 0.13077177818,
			"0.014": 0.0,
			"0.015": 0.0,
			"0.016": 0.0,
			"0.017": 0.0,
			"0.018": 0.0,
			"0.019": 0.0,
			"0.02": 0.0,
			"0.021": 0.0,
			"0.022": 0.0,
			"0.023": 0.0,
			"0.024": 0.0,
			"0.0": 0.0
		}
	}
}
