{
	 "smiles": "CN(C)C1=CC=C(C=C1)C(C=C1NC2=CC=CC=C2C=C1)C1=CC=CC=C1", 
	 "Tm": 398.15, 
	 "num_atms": 51, 
	 "gaussian": { 
		 "optdone": 1, 
		 "sigma_profile": "yes", 
		 "theory": "DFT", 
		 "functional": "B3LYP", 
		 "basiset": "6-31G**", 
		 "properties": { 
			 "R2extent": 14267.0907, 
			 "electric_dipole_moment_norm": 2.41831745228, 
			 "electric_quadrupole_moment_norm": 10.5058827383, 
			 "total_energy": -1076.6146165, 
			 "HOMO_LUMO_gap": 0.12819, 
			 "cosmo_polarized_energy": -13.53, 
			 "cosmo_cavitation_energy": 53.26, 
			 "cosmo_dispersion_energy": -36.98, 
			 "cosmo_repulsion_energy": 2.78, 
			 "cosmo_total_nonelectrostatic_energy": 19.06, 
			 "SMD_solvation_energy": 7.73 
		},
		"coords": [
			{
				"x": -5.8013226273,
				"y": 1.6560971001,
				"z": -2.3154806349,
				"element": "C" 
			},
			{
				"x": -4.8322742507,
				"y": 0.7407888068,
				"z": -2.8926526899,
				"element": "N" 
			},
			{
				"x": -5.3433264991,
				"y": -0.399554368,
				"z": -3.6333116353,
				"element": "C" 
			},
			{
				"x": -3.5579980392,
				"y": 0.6647593976,
				"z": -2.3299474967,
				"element": "C" 
			},
			{
				"x": -3.1031269769,
				"y": 1.6252258558,
				"z": -1.4000963341,
				"element": "C" 
			},
			{
				"x": -1.8154755463,
				"y": 1.5590558313,
				"z": -0.8737273059,
				"element": "C" 
			},
			{
				"x": -0.9185837487,
				"y": 0.5474141828,
				"z": -1.2309280849,
				"element": "C" 
			},
			{
				"x": -1.3734151977,
				"y": -0.4120397151,
				"z": -2.1438952093,
				"element": "C" 
			},
			{
				"x": -2.6574848738,
				"y": -0.3670572388,
				"z": -2.6785166746,
				"element": "C" 
			},
			{
				"x": 0.4691981982,
				"y": 0.4600642255,
				"z": -0.5890029076,
				"element": "C" 
			},
			{
				"x": 0.4228125092,
				"y": -0.517924639,
				"z": 0.5638578161,
				"element": "C" 
			},
			{
				"x": 0.8867032778,
				"y": -0.3111843403,
				"z": 1.8240918834,
				"element": "C" 
			},
			{
				"x": 0.700918268,
				"y": -1.2892794859,
				"z": 2.8182075691,
				"element": "N" 
			},
			{
				"x": 1.1286994723,
				"y": -1.2042486039,
				"z": 4.1267915191,
				"element": "C" 
			},
			{
				"x": 0.8928503199,
				"y": -2.2425511187,
				"z": 5.0414700968,
				"element": "C" 
			},
			{
				"x": 1.3363756515,
				"y": -2.1256704608,
				"z": 6.3563241111,
				"element": "C" 
			},
			{
				"x": 2.0194764373,
				"y": -0.9814652663,
				"z": 6.7836524624,
				"element": "C" 
			},
			{
				"x": 2.2545749925,
				"y": 0.0496110784,
				"z": 5.8773216104,
				"element": "C" 
			},
			{
				"x": 1.8187501268,
				"y": -0.0394324655,
				"z": 4.5482934662,
				"element": "C" 
			},
			{
				"x": 2.0336245535,
				"y": 0.9991408311,
				"z": 3.5609281234,
				"element": "C" 
			},
			{
				"x": 1.5981193302,
				"y": 0.8726940776,
				"z": 2.2874235515,
				"element": "C" 
			},
			{
				"x": 1.5732284077,
				"y": 0.1803460568,
				"z": -1.6248092206,
				"element": "C" 
			},
			{
				"x": 2.5182910045,
				"y": -0.8358621939,
				"z": -1.4536869415,
				"element": "C" 
			},
			{
				"x": 3.529359601,
				"y": -1.0431814193,
				"z": -2.397200162,
				"element": "C" 
			},
			{
				"x": 3.6149990876,
				"y": -0.2303023109,
				"z": -3.5261178786,
				"element": "C" 
			},
			{
				"x": 2.67933158,
				"y": 0.7928300621,
				"z": -3.7060476571,
				"element": "C" 
			},
			{
				"x": 1.6694155971,
				"y": 0.9915587837,
				"z": -2.7670626237,
				"element": "C" 
			},
			{
				"x": -5.4468259809,
				"y": 2.6910973601,
				"z": -2.3751298515,
				"element": "H" 
			},
			{
				"x": -6.0297113617,
				"y": 1.4377400148,
				"z": -1.2594481554,
				"element": "H" 
			},
			{
				"x": -6.7309259726,
				"y": 1.5978391151,
				"z": -2.8846429832,
				"element": "H" 
			},
			{
				"x": -4.7075225742,
				"y": -0.6228809179,
				"z": -4.4971103639,
				"element": "H" 
			},
			{
				"x": -6.3377159286,
				"y": -0.1608061963,
				"z": -4.0150450191,
				"element": "H" 
			},
			{
				"x": -5.4191304493,
				"y": -1.3150327217,
				"z": -3.0240006174,
				"element": "H" 
			},
			{
				"x": -3.7514704374,
				"y": 2.4324807488,
				"z": -1.0819367059,
				"element": "H" 
			},
			{
				"x": -1.5073388839,
				"y": 2.3165579927,
				"z": -0.1560205526,
				"element": "H" 
			},
			{
				"x": -0.7070553056,
				"y": -1.2129068959,
				"z": -2.454097844,
				"element": "H" 
			},
			{
				"x": -2.9533652364,
				"y": -1.1400650265,
				"z": -3.3772892869,
				"element": "H" 
			},
			{
				"x": 0.6784725057,
				"y": 1.4590980225,
				"z": -0.1861428371,
				"element": "H" 
			},
			{
				"x": -0.0787890125,
				"y": -1.4624635925,
				"z": 0.3563107939,
				"element": "H" 
			},
			{
				"x": 0.1999074592,
				"y": -2.1230166871,
				"z": 2.5474286708,
				"element": "H" 
			},
			{
				"x": 0.3633889698,
				"y": -3.1350009277,
				"z": 4.7167096771,
				"element": "H" 
			},
			{
				"x": 1.1467577843,
				"y": -2.9367926904,
				"z": 7.0536052657,
				"element": "H" 
			},
			{
				"x": 2.3622817934,
				"y": -0.8983629816,
				"z": 7.8099181978,
				"element": "H" 
			},
			{
				"x": 2.7838631,
				"y": 0.945621372,
				"z": 6.1921826896,
				"element": "H" 
			},
			{
				"x": 2.5663421999,
				"y": 1.8957193709,
				"z": 3.8672930248,
				"element": "H" 
			},
			{
				"x": 1.788236649,
				"y": 1.6594490124,
				"z": 1.567537736,
				"element": "H" 
			},
			{
				"x": 2.4646392556,
				"y": -1.4619555168,
				"z": -0.5685199535,
				"element": "H" 
			},
			{
				"x": 4.2514873733,
				"y": -1.8409592497,
				"z": -2.2441402035,
				"element": "H" 
			},
			{
				"x": 4.4013822032,
				"y": -0.3886797365,
				"z": -4.258885833,
				"element": "H" 
			},
			{
				"x": 2.7361423774,
				"y": 1.435147268,
				"z": -4.5809310817,
				"element": "H" 
			},
			{
				"x": 0.9384288166,
				"y": 1.7811402,
				"z": -2.9208235199,
				"element": "H" 
			}
		],
		 "valence_orbital": [ 
			{
				"type": "occ",
				"energy": -0.23479,
				"method": "rhf"
			},
			{
				"type": "occ",
				"energy": -0.23173,
				"method": "rhf"
			},
			{
				"type": "occ",
				"energy": -0.22791,
				"method": "rhf"
			},
			{
				"type": "occ",
				"energy": -0.18386,
				"method": "rhf"
			},
			{
				"type": "occ",
				"energy": -0.1646,
				"method": "rhf"
			},
			{
				"type": "unocc",
				"energy": -0.03641,
				"method": "rhf"
			},
			{
				"type": "unocc",
				"energy": 0.00574,
				"method": "rhf"
			},
			{
				"type": "unocc",
				"energy": 0.00874,
				"method": "rhf"
			},
			{
				"type": "unocc",
				"energy": 0.01099,
				"method": "rhf"
			},
			{
				"type": "unocc",
				"energy": 0.01805,
				"method": "rhf"
			}
		],
		"cosmo_sigma_profile": { 
			"-0.025": 0.0,
			"-0.024": 0.0,
			"-0.023": 0.0,
			"-0.022": 0.0,
			"-0.021": 0.0,
			"-0.02": 0.0,
			"-0.019": 0.0,
			"-0.018": 0.0,
			"-0.017": 0.0,
			"-0.016": 0.0,
			"-0.015": 0.0402215611036,
			"-0.014": 0.814620855935,
			"-0.013": 1.40210356773,
			"-0.012": 1.02792598395,
			"-0.011": 1.16917695806,
			"-0.01": 1.35328333294,
			"-0.009": 1.41146966579,
			"-0.008": 2.09904364444,
			"-0.007": 2.9867391788,
			"-0.006": 13.1452782765,
			"-0.005": 29.3858978678,
			"-0.004": 36.6069027944,
			"-0.003": 41.8375744475,
			"-0.002": 40.5307487007,
			"-0.001": 39.4211868197,
			"0.0": 26.7619933113,
			"0.001": 20.9100291311,
			"0.002": 25.7859573177,
			"0.003": 32.0185991309,
			"0.004": 32.2986663991,
			"0.005": 28.0785920166,
			"0.006": 24.2515422095,
			"0.007": 15.6502666613,
			"0.008": 4.39835595781,
			"0.009": 0.39716050544,
			"0.01": 0.0281511269247,
			"0.011": 0.0,
			"0.012": 0.0,
			"0.013": 0.0,
			"0.014": 0.0,
			"0.015": 0.0,
			"0.016": 0.0,
			"0.017": 0.0,
			"0.018": 0.0,
			"0.019": 0.0,
			"0.02": 0.0,
			"0.021": 0.0,
			"0.022": 0.0,
			"0.023": 0.0,
			"0.024": 0.0,
			"0.025": 0.0
		}
	}
}
