{
	 "smiles": "COC1=C(C=CC(Br)=C1)C(O)=O", 
	 "Tm": 428.15, 
	 "num_atms": 19, 
	 "gaussian": { 
		 "optdone": 1, 
		 "sigma_profile": "yes", 
		 "theory": "DFT", 
		 "functional": "B3LYP", 
		 "basiset": "6-31G**", 
		 "properties": { 
			 "R2extent": 4047.552, 
			 "electric_dipole_moment_norm": 1.55919692791, 
			 "electric_quadrupole_moment_norm": 9.21036714741, 
			 "total_energy": -3106.1421287, 
			 "HOMO_LUMO_gap": 0.19504, 
			 "cosmo_polarized_energy": -9.79, 
			 "cosmo_cavitation_energy": 25.95, 
			 "cosmo_dispersion_energy": -19.46, 
			 "cosmo_repulsion_energy": 1.56, 
			 "cosmo_total_nonelectrostatic_energy": 8.05, 
			 "SMD_solvation_energy": 5.24 
		},
		"coords": [
			{
				"x": 0.6344067933,
				"y": -1.5804391584,
				"z": 1.5001354956,
				"element": "C" 
			},
			{
				"x": -0.1744964247,
				"y": -1.4925791039,
				"z": 0.3195460296,
				"element": "O" 
			},
			{
				"x": -0.2183683382,
				"y": -0.2719766838,
				"z": -0.2893082894,
				"element": "C" 
			},
			{
				"x": 0.711815792,
				"y": 0.124843557,
				"z": -1.277670972,
				"element": "C" 
			},
			{
				"x": 0.5236295587,
				"y": 1.3615093856,
				"z": -1.9183481427,
				"element": "C" 
			},
			{
				"x": -0.5324760614,
				"y": 2.2036841775,
				"z": -1.5907577797,
				"element": "C" 
			},
			{
				"x": -1.4352018317,
				"y": 1.7907982337,
				"z": -0.6105822803,
				"element": "C" 
			},
			{
				"x": -2.9014517909,
				"y": 2.9215493304,
				"z": -0.1501183346,
				"element": "Br" 
			},
			{
				"x": -1.2907204949,
				"y": 0.5676237353,
				"z": 0.0342633178,
				"element": "C" 
			},
			{
				"x": 1.8621937764,
				"y": -0.7369140421,
				"z": -1.6587715891,
				"element": "C" 
			},
			{
				"x": 2.4127290187,
				"y": -0.3605611357,
				"z": -2.8439917014,
				"element": "O" 
			},
			{
				"x": 2.3103014096,
				"y": -1.6703200813,
				"z": -1.0233109612,
				"element": "O" 
			},
			{
				"x": 0.5036057493,
				"y": -2.5960687394,
				"z": 1.8766964924,
				"element": "H" 
			},
			{
				"x": 1.6874256559,
				"y": -1.4142841284,
				"z": 1.261389626,
				"element": "H" 
			},
			{
				"x": 0.2940758441,
				"y": -0.8636765998,
				"z": 2.2583551822,
				"element": "H" 
			},
			{
				"x": 1.2273412948,
				"y": 1.6615947636,
				"z": -2.6856852711,
				"element": "H" 
			},
			{
				"x": -0.6586071327,
				"y": 3.1570886046,
				"z": -2.0894652905,
				"element": "H" 
			},
			{
				"x": -2.003874153,
				"y": 0.2350673459,
				"z": 0.7787376804,
				"element": "H" 
			},
			{
				"x": 3.1619713347,
				"y": -0.9628394609,
				"z": -2.9829132121,
				"element": "H" 
			}
		],
		 "valence_orbital": [ 
			{
				"type": "occ",
				"energy": -0.29669,
				"method": "rhf"
			},
			{
				"type": "occ",
				"energy": -0.28459,
				"method": "rhf"
			},
			{
				"type": "occ",
				"energy": -0.27269,
				"method": "rhf"
			},
			{
				"type": "occ",
				"energy": -0.26399,
				"method": "rhf"
			},
			{
				"type": "occ",
				"energy": -0.25249,
				"method": "rhf"
			},
			{
				"type": "unocc",
				"energy": -0.05745,
				"method": "rhf"
			},
			{
				"type": "unocc",
				"energy": -0.02032,
				"method": "rhf"
			},
			{
				"type": "unocc",
				"energy": -0.00116,
				"method": "rhf"
			},
			{
				"type": "unocc",
				"energy": 0.04197,
				"method": "rhf"
			},
			{
				"type": "unocc",
				"energy": 0.07648,
				"method": "rhf"
			}
		],
		"cosmo_sigma_profile": { 
			"-0.025": 0.0,
			"-0.024": 0.0,
			"-0.023": 0.0,
			"-0.022": 0.0,
			"-0.021": 0.0,
			"-0.02": 0.0,
			"-0.019": 0.0,
			"-0.018": 1.04829194814,
			"-0.017": 0.659235233894,
			"-0.016": 0.622787992963,
			"-0.015": 0.685944499414,
			"-0.014": 0.779589018149,
			"-0.013": 0.664569386751,
			"-0.012": 0.856008626371,
			"-0.011": 0.665466714253,
			"-0.01": 0.747116537658,
			"-0.009": 0.345888006912,
			"-0.008": 2.0334133499,
			"-0.007": 5.59205568394,
			"-0.006": 7.06818251706,
			"-0.005": 10.5639243562,
			"-0.004": 12.2417970803,
			"-0.003": 18.6615053383,
			"-0.002": 18.2334538914,
			"-0.001": 12.9567654164,
			"0.0": 17.8679629254,
			"0.001": 25.1601769643,
			"0.002": 16.9123907012,
			"0.003": 13.0049356716,
			"0.004": 14.0973849289,
			"0.005": 3.92192613587,
			"0.006": 4.79523478486,
			"0.007": 2.79656027325,
			"0.008": 3.65162688016,
			"0.009": 2.17055881763,
			"0.01": 3.75525905219,
			"0.011": 5.70687955906,
			"0.012": 2.54839203397,
			"0.013": 0.0230911036245,
			"0.014": 0.0,
			"0.015": 0.0,
			"0.016": 0.0,
			"0.017": 0.0,
			"0.018": 0.0,
			"0.019": 0.0,
			"0.02": 0.0,
			"0.021": 0.0,
			"0.022": 0.0,
			"0.023": 0.0,
			"0.024": 0.0,
			"0.025": 0.0
		}
	}
}
