{
	 "smiles": "OC1=CC=C(C=C1)N1C(=O)C2ON=C(C2C1=O)C(=O)C1=CC=CC=C1", 
	 "Tm": 372.15, 
	 "num_atms": 37, 
	 "gaussian": { 
		 "optdone": 1, 
		 "sigma_profile": "yes", 
		 "theory": "DFT", 
		 "functional": "B3LYP", 
		 "basiset": "6-31G**", 
		 "properties": { 
			 "R2extent": 10797.6027, 
			 "electric_dipole_moment_norm": 0.903835338986, 
			 "electric_quadrupole_moment_norm": 29.3096953783, 
			 "total_energy": -1178.71514496, 
			 "HOMO_LUMO_gap": 0.14113, 
			 "cosmo_polarized_energy": -23.34, 
			 "cosmo_cavitation_energy": 43.15, 
			 "cosmo_dispersion_energy": -30.54, 
			 "cosmo_repulsion_energy": 2.29, 
			 "cosmo_total_nonelectrostatic_energy": 14.91, 
			 "SMD_solvation_energy": 9.06 
		},
		"coords": [
			{
				"x": -2.8884154456,
				"y": 5.7863431954,
				"z": -0.9195444029,
				"element": "O" 
			},
			{
				"x": -2.5330287244,
				"y": 4.471062455,
				"z": -0.8786150619,
				"element": "C" 
			},
			{
				"x": -1.6979064928,
				"y": 4.0616021085,
				"z": 0.1676682391,
				"element": "C" 
			},
			{
				"x": -1.2959890444,
				"y": 2.7347892126,
				"z": 0.2589730369,
				"element": "C" 
			},
			{
				"x": -1.7335461194,
				"y": 1.8016968216,
				"z": -0.6889177965,
				"element": "C" 
			},
			{
				"x": -2.5716863434,
				"y": 2.2062028683,
				"z": -1.7307160295,
				"element": "C" 
			},
			{
				"x": -2.965637404,
				"y": 3.5385025515,
				"z": -1.8274947753,
				"element": "C" 
			},
			{
				"x": -1.3181117341,
				"y": 0.4326894137,
				"z": -0.5920705647,
				"element": "N" 
			},
			{
				"x": -0.898550218,
				"y": -0.3304452068,
				"z": -1.6924595519,
				"element": "C" 
			},
			{
				"x": -0.8686454979,
				"y": 0.0320157171,
				"z": -2.8453107874,
				"element": "O" 
			},
			{
				"x": -0.4868066421,
				"y": -1.7127212697,
				"z": -1.1738920404,
				"element": "C" 
			},
			{
				"x": 0.9672867084,
				"y": -1.8466790674,
				"z": -1.2667919843,
				"element": "O" 
			},
			{
				"x": 1.5025687092,
				"y": -2.0011855179,
				"z": -0.0029999512,
				"element": "N" 
			},
			{
				"x": 0.5807585858,
				"y": -1.9547797496,
				"z": 0.8922419288,
				"element": "C" 
			},
			{
				"x": -0.7980430176,
				"y": -1.7089584032,
				"z": 0.3161970623,
				"element": "C" 
			},
			{
				"x": -1.3065553405,
				"y": -0.2879578584,
				"z": 0.6179254223,
				"element": "C" 
			},
			{
				"x": -1.6282268969,
				"y": 0.1450789043,
				"z": 1.6979198304,
				"element": "O" 
			},
			{
				"x": 0.7803195555,
				"y": -2.2743733478,
				"z": 2.3431504931,
				"element": "C" 
			},
			{
				"x": -0.2084926124,
				"y": -2.6891502194,
				"z": 2.9379235239,
				"element": "O" 
			},
			{
				"x": 2.0988304778,
				"y": -2.119217976,
				"z": 3.0176949681,
				"element": "C" 
			},
			{
				"x": 3.2116104927,
				"y": -1.4959107352,
				"z": 2.4293334331,
				"element": "C" 
			},
			{
				"x": 4.4009662295,
				"y": -1.3723550132,
				"z": 3.1466422235,
				"element": "C" 
			},
			{
				"x": 4.4913683809,
				"y": -1.86429813,
				"z": 4.4498067309,
				"element": "C" 
			},
			{
				"x": 3.3856637833,
				"y": -2.482229494,
				"z": 5.0431828644,
				"element": "C" 
			},
			{
				"x": 2.1966481766,
				"y": -2.6055026919,
				"z": 4.3338472041,
				"element": "C" 
			},
			{
				"x": -3.4602488263,
				"y": 5.9401070413,
				"z": -1.682859149,
				"element": "H" 
			},
			{
				"x": -1.3709957336,
				"y": 4.7947640554,
				"z": 0.8968363884,
				"element": "H" 
			},
			{
				"x": -0.6547083004,
				"y": 2.4208458753,
				"z": 1.0729907948,
				"element": "H" 
			},
			{
				"x": -2.9026287028,
				"y": 1.4908205335,
				"z": -2.4728253892,
				"element": "H" 
			},
			{
				"x": -3.6129439013,
				"y": 3.8500054585,
				"z": -2.6440421258,
				"element": "H" 
			},
			{
				"x": -0.9340157625,
				"y": -2.5038436734,
				"z": -1.7792540813,
				"element": "H" 
			},
			{
				"x": -1.5232834113,
				"y": -2.4382061467,
				"z": 0.6824870416,
				"element": "H" 
			},
			{
				"x": 3.1517817637,
				"y": -1.1183656684,
				"z": 1.4165187622,
				"element": "H" 
			},
			{
				"x": 5.2576354628,
				"y": -0.88937914,
				"z": 2.6863202764,
				"element": "H" 
			},
			{
				"x": 5.42051528,
				"y": -1.7654725513,
				"z": 5.0039906898,
				"element": "H" 
			},
			{
				"x": 3.4538598849,
				"y": -2.8639516962,
				"z": 6.0575300847,
				"element": "H" 
			},
			{
				"x": 1.3242526806,
				"y": -3.0749426552,
				"z": 4.7751126923,
				"element": "H" 
			}
		],
		 "valence_orbital": [ 
			{
				"type": "occ",
				"energy": -0.26596,
				"method": "rhf"
			},
			{
				"type": "occ",
				"energy": -0.26334,
				"method": "rhf"
			},
			{
				"type": "occ",
				"energy": -0.26246,
				"method": "rhf"
			},
			{
				"type": "occ",
				"energy": -0.26058,
				"method": "rhf"
			},
			{
				"type": "occ",
				"energy": -0.22789,
				"method": "rhf"
			},
			{
				"type": "unocc",
				"energy": -0.08676,
				"method": "rhf"
			},
			{
				"type": "unocc",
				"energy": -0.04659,
				"method": "rhf"
			},
			{
				"type": "unocc",
				"energy": -0.03246,
				"method": "rhf"
			},
			{
				"type": "unocc",
				"energy": -0.01476,
				"method": "rhf"
			},
			{
				"type": "unocc",
				"energy": -0.01319,
				"method": "rhf"
			}
		],
		"cosmo_sigma_profile": { 
			"-0.025": 0.0,
			"-0.024": 0.0,
			"-0.023": 0.0,
			"-0.022": 0.0,
			"-0.021": 0.0,
			"-0.02": 0.0,
			"-0.019": 0.0179567058108,
			"-0.018": 0.748916698088,
			"-0.017": 1.41027006731,
			"-0.016": 0.909633527009,
			"-0.015": 1.02300055802,
			"-0.014": 0.912460503993,
			"-0.013": 1.11300009767,
			"-0.012": 1.74494837269,
			"-0.011": 2.3815369025,
			"-0.01": 8.36704284659,
			"-0.009": 8.58855558256,
			"-0.008": 5.36137839632,
			"-0.007": 10.7313934151,
			"-0.006": 22.1461663925,
			"-0.005": 23.8349993037,
			"-0.004": 20.6608025443,
			"-0.003": 17.3276775307,
			"-0.002": 16.5412547798,
			"-0.001": 14.9635856675,
			"0.0": 16.3311635697,
			"0.001": 19.1280898216,
			"0.002": 23.6720648353,
			"0.003": 31.1162702832,
			"0.004": 23.3136230345,
			"0.005": 10.3797998872,
			"0.006": 9.59515351366,
			"0.007": 10.6839389184,
			"0.008": 11.6840192278,
			"0.009": 9.74967836188,
			"0.01": 14.5003720356,
			"0.011": 8.20594600136,
			"0.012": 0.176000459421,
			"0.013": 0.0,
			"0.014": 0.0,
			"0.015": 0.0,
			"0.016": 0.0,
			"0.017": 0.0,
			"0.018": 0.0,
			"0.019": 0.0,
			"0.02": 0.0,
			"0.021": 0.0,
			"0.022": 0.0,
			"0.023": 0.0,
			"0.024": 0.0,
			"0.025": 0.0
		}
	}
}
