{
	 "smiles": "[O-][N+](=O)C1=CC(=CC=C1C=CC1=CC=CC=C1C=O)C#N", 
	 "Tm": 483.15, 
	 "num_atms": 31, 
	 "gaussian": { 
		 "optdone": 1, 
		 "sigma_profile": "yes", 
		 "theory": "DFT", 
		 "functional": "B3LYP", 
		 "basiset": "6-31G**", 
		 "properties": { 
			 "R2extent": 8349.7491, 
			 "electric_dipole_moment_norm": 7.32549368029, 
			 "electric_quadrupole_moment_norm": 9.34790528407, 
			 "total_energy": -950.761079358, 
			 "HOMO_LUMO_gap": 0.12781, 
			 "cosmo_polarized_energy": -16.34, 
			 "cosmo_cavitation_energy": 38.48, 
			 "cosmo_dispersion_energy": -26.6, 
			 "cosmo_repulsion_energy": 1.98, 
			 "cosmo_total_nonelectrostatic_energy": 13.85, 
			 "SMD_solvation_energy": 11.02 
		},
		"coords": [
			{
				"x": 1.3156062979,
				"y": -0.2493240119,
				"z": -3.1560523024,
				"element": "O" 
			},
			{
				"x": 0.445779022,
				"y": -1.1069462889,
				"z": -3.3154598138,
				"element": "N" 
			},
			{
				"x": 0.0632011494,
				"y": -1.5078700409,
				"z": -4.4125606125,
				"element": "O" 
			},
			{
				"x": -0.1600829532,
				"y": -1.7344548655,
				"z": -2.1220740022,
				"element": "C" 
			},
			{
				"x": -0.5711508869,
				"y": -3.0517529638,
				"z": -2.311163603,
				"element": "C" 
			},
			{
				"x": -1.1373384498,
				"y": -3.7643163772,
				"z": -1.2517622901,
				"element": "C" 
			},
			{
				"x": -1.3008922087,
				"y": -3.1245156237,
				"z": -0.0086525056,
				"element": "C" 
			},
			{
				"x": -0.9061842802,
				"y": -1.8083678633,
				"z": 0.1520284774,
				"element": "C" 
			},
			{
				"x": -0.3242397566,
				"y": -1.0494093572,
				"z": -0.8906456209,
				"element": "C" 
			},
			{
				"x": 0.0364938954,
				"y": 0.3550329528,
				"z": -0.6793925466,
				"element": "C" 
			},
			{
				"x": -0.4335470209,
				"y": 1.1081162817,
				"z": 0.3414037179,
				"element": "C" 
			},
			{
				"x": -0.0852507079,
				"y": 2.512172044,
				"z": 0.5829916556,
				"element": "C" 
			},
			{
				"x": 0.9722013369,
				"y": 3.1357372243,
				"z": -0.1059330055,
				"element": "C" 
			},
			{
				"x": 1.3007720957,
				"y": 4.4709906168,
				"z": 0.1070054879,
				"element": "C" 
			},
			{
				"x": 0.5839511408,
				"y": 5.2370959296,
				"z": 1.0298240334,
				"element": "C" 
			},
			{
				"x": -0.4551805313,
				"y": 4.6409521656,
				"z": 1.7348691599,
				"element": "C" 
			},
			{
				"x": -0.8029692812,
				"y": 3.2951897699,
				"z": 1.53526456,
				"element": "C" 
			},
			{
				"x": -1.9231600348,
				"y": 2.8081038783,
				"z": 2.3776701174,
				"element": "C" 
			},
			{
				"x": -2.3990595388,
				"y": 1.6865144995,
				"z": 2.4164416082,
				"element": "O" 
			},
			{
				"x": -1.5384106885,
				"y": -5.1277892984,
				"z": -1.4291579931,
				"element": "C" 
			},
			{
				"x": -1.866172452,
				"y": -6.235656571,
				"z": -1.564282465,
				"element": "N" 
			},
			{
				"x": -0.4438012869,
				"y": -3.5079163374,
				"z": -3.2842365537,
				"element": "H" 
			},
			{
				"x": -1.7324277366,
				"y": -3.669879254,
				"z": 0.8236969806,
				"element": "H" 
			},
			{
				"x": -1.0330571707,
				"y": -1.3448432932,
				"z": 1.1228832667,
				"element": "H" 
			},
			{
				"x": 0.6914445569,
				"y": 0.7859700326,
				"z": -1.4220998867,
				"element": "H" 
			},
			{
				"x": -1.1559426178,
				"y": 0.7000014401,
				"z": 1.0366890031,
				"element": "H" 
			},
			{
				"x": 1.5594615796,
				"y": 2.5608630794,
				"z": -0.8135021344,
				"element": "H" 
			},
			{
				"x": 2.1237862954,
				"y": 4.9136429757,
				"z": -0.4462949859,
				"element": "H" 
			},
			{
				"x": 0.8377836732,
				"y": 6.2787216051,
				"z": 1.1987145809,
				"element": "H" 
			},
			{
				"x": -1.0177385242,
				"y": 5.2215676409,
				"z": 2.4620974539,
				"element": "H" 
			},
			{
				"x": -2.3359749164,
				"y": 3.6010700102,
				"z": 3.0393902185,
				"element": "H" 
			}
		],
		 "valence_orbital": [ 
			{
				"type": "occ",
				"energy": -0.29261,
				"method": "rhf"
			},
			{
				"type": "occ",
				"energy": -0.29116,
				"method": "rhf"
			},
			{
				"type": "occ",
				"energy": -0.28271,
				"method": "rhf"
			},
			{
				"type": "occ",
				"energy": -0.26826,
				"method": "rhf"
			},
			{
				"type": "occ",
				"energy": -0.24027,
				"method": "rhf"
			},
			{
				"type": "unocc",
				"energy": -0.11246,
				"method": "rhf"
			},
			{
				"type": "unocc",
				"energy": -0.08904,
				"method": "rhf"
			},
			{
				"type": "unocc",
				"energy": -0.06835,
				"method": "rhf"
			},
			{
				"type": "unocc",
				"energy": -0.0372,
				"method": "rhf"
			},
			{
				"type": "unocc",
				"energy": -0.02735,
				"method": "rhf"
			}
		],
		"cosmo_sigma_profile": { 
			"-0.025": 0.0,
			"-0.024": 0.0,
			"-0.023": 0.0,
			"-0.022": 0.0,
			"-0.021": 0.0,
			"-0.02": 0.0,
			"-0.019": 0.0,
			"-0.018": 0.0,
			"-0.017": 0.0,
			"-0.016": 0.0,
			"-0.015": 0.0,
			"-0.014": 0.0,
			"-0.013": 0.0,
			"-0.012": 0.0,
			"-0.011": 0.0,
			"-0.01": 0.446396443876,
			"-0.009": 4.20314824021,
			"-0.008": 9.93010394707,
			"-0.007": 17.7614463555,
			"-0.006": 19.271216019,
			"-0.005": 17.6116489333,
			"-0.004": 17.4241287459,
			"-0.003": 19.7475610365,
			"-0.002": 24.8453337773,
			"-0.001": 27.4310881921,
			"0.0": 24.5304301226,
			"0.001": 21.6032114291,
			"0.002": 22.4172982269,
			"0.003": 16.0772595151,
			"0.004": 5.79111942281,
			"0.005": 8.16987325073,
			"0.006": 8.55053531166,
			"0.007": 12.6814824494,
			"0.008": 9.50344265422,
			"0.009": 8.91184817618,
			"0.01": 5.81077086978,
			"0.011": 5.1484182638,
			"0.012": 3.92672590184,
			"0.013": 0.913660315089,
			"0.014": 0.0,
			"0.015": 0.0,
			"0.016": 0.0,
			"0.017": 0.0,
			"0.018": 0.0,
			"0.019": 0.0,
			"0.02": 0.0,
			"0.021": 0.0,
			"0.022": 0.0,
			"0.023": 0.0,
			"0.024": 0.0,
			"0.025": 0.0
		}
	}
}
