{
	 "smiles": "CNC1=C(N)C=C(Br)C=C1", 
	 "Tm": 323.15, 
	 "num_atms": 19, 
	 "gaussian": { 
		 "optdone": 1, 
		 "sigma_profile": "yes", 
		 "theory": "DFT", 
		 "functional": "B3LYP", 
		 "basiset": "6-31G**", 
		 "properties": { 
			 "R2extent": 4216.2337, 
			 "electric_dipole_moment_norm": 3.705431373, 
			 "electric_quadrupole_moment_norm": 9.92934651022, 
			 "total_energy": -2953.07869369, 
			 "HOMO_LUMO_gap": 0.1964, 
			 "cosmo_polarized_energy": -9.6, 
			 "cosmo_cavitation_energy": 24.45, 
			 "cosmo_dispersion_energy": -18.76, 
			 "cosmo_repulsion_energy": 1.52, 
			 "cosmo_total_nonelectrostatic_energy": 7.22, 
			 "SMD_solvation_energy": 2.46 
		},
		"coords": [
			{
				"x": -1.1408454162,
				"y": -0.9538615207,
				"z": 1.7321180518,
				"element": "C" 
			},
			{
				"x": -0.6066825304,
				"y": -1.2680216336,
				"z": 0.4182227075,
				"element": "N" 
			},
			{
				"x": -0.114392734,
				"y": -0.240239577,
				"z": -0.3975520768,
				"element": "C" 
			},
			{
				"x": 0.2598266272,
				"y": -0.5912721928,
				"z": -1.7219551317,
				"element": "C" 
			},
			{
				"x": 0.0675274723,
				"y": -1.9282217023,
				"z": -2.1219006613,
				"element": "N" 
			},
			{
				"x": 0.7517478745,
				"y": 0.3855396863,
				"z": -2.5859264798,
				"element": "C" 
			},
			{
				"x": 0.889258983,
				"y": 1.7022544734,
				"z": -2.1417208672,
				"element": "C" 
			},
			{
				"x": 1.5672609696,
				"y": 3.0244941998,
				"z": -3.3511922352,
				"element": "Br" 
			},
			{
				"x": 0.5607971584,
				"y": 2.0593555471,
				"z": -0.8419817649,
				"element": "C" 
			},
			{
				"x": 0.0542185527,
				"y": 1.0820913843,
				"z": 0.0227345264,
				"element": "C" 
			},
			{
				"x": -1.5246353702,
				"y": -1.871483815,
				"z": 2.1843787935,
				"element": "H" 
			},
			{
				"x": -0.3446467018,
				"y": -0.5722778947,
				"z": 2.3796225424,
				"element": "H" 
			},
			{
				"x": -1.9515821156,
				"y": -0.2076280938,
				"z": 1.7159386809,
				"element": "H" 
			},
			{
				"x": -1.195530962,
				"y": -1.9024574682,
				"z": -0.1118826521,
				"element": "H" 
			},
			{
				"x": 0.4295727909,
				"y": -2.5870159282,
				"z": -1.4378928837,
				"element": "H" 
			},
			{
				"x": 0.4522213968,
				"y": -2.1292748057,
				"z": -3.0369421404,
				"element": "H" 
			},
			{
				"x": 1.0379236077,
				"y": 0.1189741863,
				"z": -3.598303987,
				"element": "H" 
			},
			{
				"x": 0.6803319743,
				"y": 3.0815835454,
				"z": -0.5031723891,
				"element": "H" 
			},
			{
				"x": -0.2218715771,
				"y": 1.3687616095,
				"z": 1.0313079668,
				"element": "H" 
			}
		],
		 "valence_orbital": [ 
			{
				"type": "occ",
				"energy": -0.30412,
				"method": "rhf"
			},
			{
				"type": "occ",
				"energy": -0.27426,
				"method": "rhf"
			},
			{
				"type": "occ",
				"energy": -0.26655,
				"method": "rhf"
			},
			{
				"type": "occ",
				"energy": -0.22711,
				"method": "rhf"
			},
			{
				"type": "occ",
				"energy": -0.1895,
				"method": "rhf"
			},
			{
				"type": "unocc",
				"energy": 0.0069,
				"method": "rhf"
			},
			{
				"type": "unocc",
				"energy": 0.01389,
				"method": "rhf"
			},
			{
				"type": "unocc",
				"energy": 0.01993,
				"method": "rhf"
			},
			{
				"type": "unocc",
				"energy": 0.07398,
				"method": "rhf"
			},
			{
				"type": "unocc",
				"energy": 0.09657,
				"method": "rhf"
			}
		],
		"cosmo_sigma_profile": { 
			"-0.025": 0.0,
			"-0.024": 0.0,
			"-0.023": 0.0,
			"-0.022": 0.0,
			"-0.021": 0.0,
			"-0.02": 0.0,
			"-0.019": 0.0,
			"-0.018": 0.0,
			"-0.017": 0.0,
			"-0.016": 0.0,
			"-0.015": 0.0,
			"-0.014": 0.0,
			"-0.013": 0.0890681939741,
			"-0.012": 1.47744642455,
			"-0.011": 2.90551730098,
			"-0.01": 3.7989739221,
			"-0.009": 4.29143344719,
			"-0.008": 3.27907598275,
			"-0.007": 4.12697964313,
			"-0.006": 6.49247900136,
			"-0.005": 10.3001966996,
			"-0.004": 12.4662118624,
			"-0.003": 15.3506140802,
			"-0.002": 14.3807408595,
			"-0.001": 14.8420998016,
			"0.0": 9.57257655238,
			"0.001": 8.90182073266,
			"0.002": 9.54818789539,
			"0.003": 12.2718718554,
			"0.004": 18.6938405684,
			"0.005": 23.9503146348,
			"0.006": 11.7796121237,
			"0.007": 2.17504731236,
			"0.008": 0.949289648528,
			"0.009": 1.35945837302,
			"0.01": 1.31474741808,
			"0.011": 0.825984086057,
			"0.012": 0.829407396414,
			"0.013": 0.488946999582,
			"0.014": 0.313594513281,
			"0.015": 0.0392242956664,
			"0.016": 0.0,
			"0.017": 0.0,
			"0.018": 0.0,
			"0.019": 0.0,
			"0.02": 0.0,
			"0.021": 0.0,
			"0.022": 0.0,
			"0.023": 0.0,
			"0.024": 0.0,
			"0.025": 0.0
		}
	}
}
