{
	 "smiles": "O=C(C1CC1)C1=CC2=C(O1)C=CC=C2", 
	 "Tm": 337.15, 
	 "num_atms": 24, 
	 "gaussian": { 
		 "optdone": 1, 
		 "sigma_profile": "yes", 
		 "theory": "DFT", 
		 "functional": "B3LYP", 
		 "basiset": "6-31G**", 
		 "properties": { 
			 "R2extent": 3498.6921, 
			 "electric_dipole_moment_norm": 2.56196268903, 
			 "electric_quadrupole_moment_norm": 8.46125129871, 
			 "total_energy": -613.716676723, 
			 "HOMO_LUMO_gap": 0.1651, 
			 "cosmo_polarized_energy": -8.09, 
			 "cosmo_cavitation_energy": 28.46, 
			 "cosmo_dispersion_energy": -20.95, 
			 "cosmo_repulsion_energy": 1.64, 
			 "cosmo_total_nonelectrostatic_energy": 9.14, 
			 "SMD_solvation_energy": 5.2 
		},
		"coords": [
			{
				"x": -0.0695400707,
				"y": -3.0127521772,
				"z": -0.8802804024,
				"element": "O" 
			},
			{
				"x": -0.6542762302,
				"y": -2.2120319548,
				"z": -0.15511752,
				"element": "C" 
			},
			{
				"x": -1.6752415744,
				"y": -2.6357835926,
				"z": 0.8420954469,
				"element": "C" 
			},
			{
				"x": -1.4661157263,
				"y": -3.9941088081,
				"z": 1.5023076711,
				"element": "C" 
			},
			{
				"x": -2.5325739625,
				"y": -3.8419358517,
				"z": 0.4746891601,
				"element": "C" 
			},
			{
				"x": -0.341877191,
				"y": -0.7763011168,
				"z": -0.2678019682,
				"element": "C" 
			},
			{
				"x": 0.5408085779,
				"y": -0.1385467204,
				"z": -1.0920026814,
				"element": "C" 
			},
			{
				"x": 0.4467504965,
				"y": 1.2597774707,
				"z": -0.7883545698,
				"element": "C" 
			},
			{
				"x": -0.5218023804,
				"y": 1.3570404102,
				"z": 0.2335572558,
				"element": "C" 
			},
			{
				"x": -1.0033824954,
				"y": 0.1210914417,
				"z": 0.5525483326,
				"element": "O" 
			},
			{
				"x": -0.9098714004,
				"y": 2.5604074662,
				"z": 0.8143762008,
				"element": "C" 
			},
			{
				"x": -0.2851277163,
				"y": 3.7082695458,
				"z": 0.3333139976,
				"element": "C" 
			},
			{
				"x": 0.6870095511,
				"y": 3.6461032616,
				"z": -0.6871842698,
				"element": "C" 
			},
			{
				"x": 1.0618952167,
				"y": 2.4351595657,
				"z": -1.2553603533,
				"element": "C" 
			},
			{
				"x": -2.1327859884,
				"y": -1.8513005263,
				"z": 1.4331059535,
				"element": "H" 
			},
			{
				"x": -1.7462950671,
				"y": -4.0795962266,
				"z": 2.5473339843,
				"element": "H" 
			},
			{
				"x": -0.563081919,
				"y": -4.5208118331,
				"z": 1.2111570795,
				"element": "H" 
			},
			{
				"x": -2.3456310651,
				"y": -4.2667833828,
				"z": -0.5062126309,
				"element": "H" 
			},
			{
				"x": -3.5710825844,
				"y": -3.8187725528,
				"z": 0.7891149121,
				"element": "H" 
			},
			{
				"x": 1.1701291967,
				"y": -0.630080775,
				"z": -1.8190149243,
				"element": "H" 
			},
			{
				"x": -1.6585420925,
				"y": 2.5938831163,
				"z": 1.598148694,
				"element": "H" 
			},
			{
				"x": -0.552378512,
				"y": 4.6732228735,
				"z": 0.7532961815,
				"element": "H" 
			},
			{
				"x": 1.1488695257,
				"y": 4.566156798,
				"z": -1.0322795807,
				"element": "H" 
			},
			{
				"x": 1.8108434119,
				"y": 2.3951935685,
				"z": -2.040335969,
				"element": "H" 
			}
		],
		 "valence_orbital": [ 
			{
				"type": "occ",
				"energy": -0.30205,
				"method": "rhf"
			},
			{
				"type": "occ",
				"energy": -0.28913,
				"method": "rhf"
			},
			{
				"type": "occ",
				"energy": -0.25302,
				"method": "rhf"
			},
			{
				"type": "occ",
				"energy": -0.24725,
				"method": "rhf"
			},
			{
				"type": "occ",
				"energy": -0.23003,
				"method": "rhf"
			},
			{
				"type": "unocc",
				"energy": -0.06493,
				"method": "rhf"
			},
			{
				"type": "unocc",
				"energy": -0.00036,
				"method": "rhf"
			},
			{
				"type": "unocc",
				"energy": 0.01191,
				"method": "rhf"
			},
			{
				"type": "unocc",
				"energy": 0.08387,
				"method": "rhf"
			},
			{
				"type": "unocc",
				"energy": 0.09058,
				"method": "rhf"
			}
		],
		"cosmo_sigma_profile": { 
			"-0.025": 0.0,
			"-0.024": 0.0,
			"-0.023": 0.0,
			"-0.022": 0.0,
			"-0.021": 0.0,
			"-0.02": 0.0,
			"-0.019": 0.0,
			"-0.018": 0.0,
			"-0.017": 0.0,
			"-0.016": 0.0,
			"-0.015": 0.0,
			"-0.014": 0.0,
			"-0.013": 0.0,
			"-0.012": 0.0,
			"-0.011": 0.0,
			"-0.01": 0.0,
			"-0.009": 0.0912545066444,
			"-0.008": 1.41119679406,
			"-0.007": 4.70772519951,
			"-0.006": 12.0406854707,
			"-0.005": 18.5929862565,
			"-0.004": 18.5300032967,
			"-0.003": 13.6112501511,
			"-0.002": 16.3300618088,
			"-0.001": 19.0156173123,
			"0.0": 22.8791006696,
			"0.001": 22.7160602673,
			"0.002": 23.1073837193,
			"0.003": 16.6378961031,
			"0.004": 14.3112903877,
			"0.005": 7.54425268421,
			"0.006": 2.22404113546,
			"0.007": 1.48128297303,
			"0.008": 1.48186962134,
			"0.009": 1.90757464891,
			"0.01": 1.45222908552,
			"0.011": 2.0785959016,
			"0.012": 4.29539999443,
			"0.013": 1.73388217927,
			"0.014": 0.0,
			"0.015": 0.0,
			"0.016": 0.0,
			"0.017": 0.0,
			"0.018": 0.0,
			"0.019": 0.0,
			"0.02": 0.0,
			"0.021": 0.0,
			"0.022": 0.0,
			"0.023": 0.0,
			"0.024": 0.0,
			"0.025": 0.0
		}
	}
}
