{
	 "smiles": "CC(C)(C)OC(=O)N1CCC2=C(C1)SC(N)=N2", 
	 "Tm": 500.15, 
	 "num_atms": 34, 
	 "gaussian": { 
		 "optdone": 1, 
		 "sigma_profile": "yes", 
		 "theory": "DFT", 
		 "functional": "B3LYP", 
		 "basiset": "6-31G**", 
		 "properties": { 
			 "R2extent": 6179.2119, 
			 "electric_dipole_moment_norm": 3.13750016414, 
			 "electric_quadrupole_moment_norm": 12.3611903112, 
			 "total_energy": -1142.3427132, 
			 "HOMO_LUMO_gap": 0.20146, 
			 "cosmo_polarized_energy": -14.23, 
			 "cosmo_cavitation_energy": 37.2, 
			 "cosmo_dispersion_energy": -27.07, 
			 "cosmo_repulsion_energy": 2.09, 
			 "cosmo_total_nonelectrostatic_energy": 12.21, 
			 "SMD_solvation_energy": 4.41 
		},
		"coords": [
			{
				"x": 0.0121023167,
				"y": 1.888994313,
				"z": -3.4699505591,
				"element": "C" 
			},
			{
				"x": -1.1825283703,
				"y": 1.6793601687,
				"z": -2.5352370015,
				"element": "C" 
			},
			{
				"x": -2.0958839488,
				"y": 0.5681165755,
				"z": -3.0636822895,
				"element": "C" 
			},
			{
				"x": -1.9353467413,
				"y": 2.995806579,
				"z": -2.3144357668,
				"element": "C" 
			},
			{
				"x": -0.535761984,
				"y": 1.252780474,
				"z": -1.2843289612,
				"element": "O" 
			},
			{
				"x": -1.2747559289,
				"y": 0.9476958833,
				"z": -0.188307449,
				"element": "C" 
			},
			{
				"x": -2.4939150371,
				"y": 1.0202257844,
				"z": -0.1152346299,
				"element": "O" 
			},
			{
				"x": -0.4711907623,
				"y": 0.5395934356,
				"z": 0.8472016476,
				"element": "N" 
			},
			{
				"x": -1.0755181856,
				"y": 0.2616230823,
				"z": 2.1513414398,
				"element": "C" 
			},
			{
				"x": -0.7244441377,
				"y": -1.1542029049,
				"z": 2.6296141354,
				"element": "C" 
			},
			{
				"x": 0.7484768023,
				"y": -1.3927933187,
				"z": 2.4549210238,
				"element": "C" 
			},
			{
				"x": 1.4987577616,
				"y": -0.6195059237,
				"z": 1.6230529113,
				"element": "C" 
			},
			{
				"x": 0.9898360092,
				"y": 0.5091136745,
				"z": 0.7698901247,
				"element": "C" 
			},
			{
				"x": 3.1726230505,
				"y": -1.152971916,
				"z": 1.6705721948,
				"element": "S" 
			},
			{
				"x": 2.6710624446,
				"y": -2.4143871436,
				"z": 2.816343426,
				"element": "C" 
			},
			{
				"x": 3.602378461,
				"y": -3.2592511702,
				"z": 3.3801234625,
				"element": "N" 
			},
			{
				"x": 1.4078982198,
				"y": -2.4120405133,
				"z": 3.121321183,
				"element": "N" 
			},
			{
				"x": 0.6891439402,
				"y": 2.6482224811,
				"z": -3.0674794167,
				"element": "H" 
			},
			{
				"x": -0.334075693,
				"y": 2.2203587445,
				"z": -4.4534539631,
				"element": "H" 
			},
			{
				"x": 0.5727800097,
				"y": 0.9580640307,
				"z": -3.5964735142,
				"element": "H" 
			},
			{
				"x": -2.4777892177,
				"y": 0.8459355569,
				"z": -4.0515604395,
				"element": "H" 
			},
			{
				"x": -2.9385047926,
				"y": 0.40323443,
				"z": -2.3922192111,
				"element": "H" 
			},
			{
				"x": -1.5354248598,
				"y": -0.3665596656,
				"z": -3.1673553835,
				"element": "H" 
			},
			{
				"x": -2.3158825076,
				"y": 3.3662455217,
				"z": -3.2719796656,
				"element": "H" 
			},
			{
				"x": -2.7726214202,
				"y": 2.8557453534,
				"z": -1.6308292905,
				"element": "H" 
			},
			{
				"x": -1.2615781303,
				"y": 3.7532908642,
				"z": -1.9012423158,
				"element": "H" 
			},
			{
				"x": -0.7043642813,
				"y": 0.9955494641,
				"z": 2.8811542441,
				"element": "H" 
			},
			{
				"x": -2.1507460235,
				"y": 0.3971295942,
				"z": 2.0451929803,
				"element": "H" 
			},
			{
				"x": -1.3004225179,
				"y": -1.8991626445,
				"z": 2.0650247642,
				"element": "H" 
			},
			{
				"x": -0.998445628,
				"y": -1.2733559041,
				"z": 3.6840618642,
				"element": "H" 
			},
			{
				"x": 1.4159077108,
				"y": 1.4715069755,
				"z": 1.1005407986,
				"element": "H" 
			},
			{
				"x": 1.2775912304,
				"y": 0.3774859789,
				"z": -0.2743503132,
				"element": "H" 
			},
			{
				"x": 3.1747905796,
				"y": -4.0365112967,
				"z": 3.8674198962,
				"element": "H" 
			},
			{
				"x": 4.3840516314,
				"y": -3.5261365642,
				"z": 2.7983440739,
				"element": "H" 
			}
		],
		 "valence_orbital": [ 
			{
				"type": "occ",
				"energy": -0.27158,
				"method": "rhf"
			},
			{
				"type": "occ",
				"energy": -0.27063,
				"method": "rhf"
			},
			{
				"type": "occ",
				"energy": -0.25743,
				"method": "rhf"
			},
			{
				"type": "occ",
				"energy": -0.2359,
				"method": "rhf"
			},
			{
				"type": "occ",
				"energy": -0.20435,
				"method": "rhf"
			},
			{
				"type": "unocc",
				"energy": -0.00289,
				"method": "rhf"
			},
			{
				"type": "unocc",
				"energy": 0.00854,
				"method": "rhf"
			},
			{
				"type": "unocc",
				"energy": 0.05638,
				"method": "rhf"
			},
			{
				"type": "unocc",
				"energy": 0.06406,
				"method": "rhf"
			},
			{
				"type": "unocc",
				"energy": 0.06847,
				"method": "rhf"
			}
		],
		"cosmo_sigma_profile": { 
			"-0.025": 0.0,
			"-0.024": 0.0,
			"-0.023": 0.0,
			"-0.022": 0.0,
			"-0.021": 0.0,
			"-0.02": 0.0,
			"-0.019": 0.0,
			"-0.018": 0.0,
			"-0.017": 0.0,
			"-0.016": 0.0,
			"-0.015": 0.217109070133,
			"-0.014": 1.89261314923,
			"-0.013": 2.45648677842,
			"-0.012": 2.7816317298,
			"-0.011": 2.19737501002,
			"-0.01": 2.87696638258,
			"-0.009": 1.93406116116,
			"-0.008": 1.70127264102,
			"-0.007": 2.19964142286,
			"-0.006": 2.7150294929,
			"-0.005": 8.93418263591,
			"-0.004": 25.8280345914,
			"-0.003": 32.4536014355,
			"-0.002": 26.8913835933,
			"-0.001": 26.3264949274,
			"0.0": 32.2903105495,
			"0.001": 29.7249088671,
			"0.002": 18.0054186759,
			"0.003": 15.9861987157,
			"0.004": 14.2832305969,
			"0.005": 9.18051960668,
			"0.006": 5.69013930304,
			"0.007": 3.73341272451,
			"0.008": 3.00237790194,
			"0.009": 4.12450620599,
			"0.01": 2.97810062709,
			"0.011": 3.47335246298,
			"0.012": 2.76001973746,
			"0.013": 4.25632245462,
			"0.014": 1.70879004662,
			"0.015": 0.61731625254,
			"0.016": 0.42602358288,
			"0.017": 0.0,
			"0.018": 0.0,
			"0.019": 0.0,
			"0.02": 0.0,
			"0.021": 0.0,
			"0.022": 0.0,
			"0.023": 0.0,
			"0.024": 0.0,
			"0.025": 0.0
		}
	}
}
