{
	 "smiles": "CSC(SC)=C(C#N)C#N", 
	 "Tm": 356.15, 
	 "num_atms": 16, 
	 "gaussian": { 
		 "optdone": 1, 
		 "sigma_profile": "yes", 
		 "theory": "DFT", 
		 "functional": "B3LYP", 
		 "basiset": "6-31G**", 
		 "properties": { 
			 "R2extent": 2185.5577, 
			 "electric_dipole_moment_norm": 7.60438458391, 
			 "electric_quadrupole_moment_norm": 9.00266832667, 
			 "total_energy": -1138.06308953, 
			 "HOMO_LUMO_gap": 0.15568, 
			 "cosmo_polarized_energy": -15.74, 
			 "cosmo_cavitation_energy": 25.38, 
			 "cosmo_dispersion_energy": -17.71, 
			 "cosmo_repulsion_energy": 1.38, 
			 "cosmo_total_nonelectrostatic_energy": 9.05, 
			 "SMD_solvation_energy": 7.57 
		},
		"coords": [
			{
				"x": -0.550514318,
				"y": 2.9022269779,
				"z": -1.1000911729,
				"element": "C" 
			},
			{
				"x": -1.0278772695,
				"y": 1.4537799418,
				"z": -0.0843426394,
				"element": "S" 
			},
			{
				"x": -0.0339530478,
				"y": 0.1533226028,
				"z": -0.7516507112,
				"element": "C" 
			},
			{
				"x": 0.158474601,
				"y": -0.0912184989,
				"z": -2.491635219,
				"element": "S" 
			},
			{
				"x": -1.5518432379,
				"y": 0.0831362184,
				"z": -3.1256546341,
				"element": "C" 
			},
			{
				"x": 0.6134852019,
				"y": -0.6989653105,
				"z": 0.114419964,
				"element": "C" 
			},
			{
				"x": 0.6900656008,
				"y": -0.4462803705,
				"z": 1.5230786712,
				"element": "C" 
			},
			{
				"x": 0.7758559023,
				"y": -0.281589132,
				"z": 2.6718861162,
				"element": "N" 
			},
			{
				"x": 1.2572195744,
				"y": -1.8994791371,
				"z": -0.3310004145,
				"element": "C" 
			},
			{
				"x": 1.7932278049,
				"y": -2.8824354112,
				"z": -0.6483904677,
				"element": "N" 
			},
			{
				"x": 0.5117982063,
				"y": 3.1162541334,
				"z": -0.9789566525,
				"element": "H" 
			},
			{
				"x": -0.7907436288,
				"y": 2.7686044974,
				"z": -2.1546479603,
				"element": "H" 
			},
			{
				"x": -1.1356633537,
				"y": 3.7318967471,
				"z": -0.6975208627,
				"element": "H" 
			},
			{
				"x": -1.4697631572,
				"y": -0.0809305047,
				"z": -4.2022957038,
				"element": "H" 
			},
			{
				"x": -2.1966663229,
				"y": -0.6813213685,
				"z": -2.6911381959,
				"element": "H" 
			},
			{
				"x": -1.9650025557,
				"y": 1.0745986146,
				"z": -2.9414601174,
				"element": "H" 
			}
		],
		 "valence_orbital": [ 
			{
				"type": "occ",
				"energy": -0.34948,
				"method": "rhf"
			},
			{
				"type": "occ",
				"energy": -0.34226,
				"method": "rhf"
			},
			{
				"type": "occ",
				"energy": -0.31323,
				"method": "rhf"
			},
			{
				"type": "occ",
				"energy": -0.2774,
				"method": "rhf"
			},
			{
				"type": "occ",
				"energy": -0.25364,
				"method": "rhf"
			},
			{
				"type": "unocc",
				"energy": -0.09796,
				"method": "rhf"
			},
			{
				"type": "unocc",
				"energy": -0.03018,
				"method": "rhf"
			},
			{
				"type": "unocc",
				"energy": 0.00282,
				"method": "rhf"
			},
			{
				"type": "unocc",
				"energy": 0.02379,
				"method": "rhf"
			},
			{
				"type": "unocc",
				"energy": 0.03726,
				"method": "rhf"
			}
		],
		"cosmo_sigma_profile": { 
			"-0.025": 0.0,
			"-0.024": 0.0,
			"-0.023": 0.0,
			"-0.022": 0.0,
			"-0.021": 0.0,
			"-0.02": 0.0,
			"-0.019": 0.0,
			"-0.018": 0.0,
			"-0.017": 0.0,
			"-0.016": 0.0,
			"-0.015": 0.0,
			"-0.014": 0.0,
			"-0.013": 0.0,
			"-0.012": 0.0,
			"-0.011": 0.0,
			"-0.01": 0.0878045590832,
			"-0.009": 2.19887490323,
			"-0.008": 7.76634221963,
			"-0.007": 10.7172721912,
			"-0.006": 12.4049848112,
			"-0.005": 14.8477907211,
			"-0.004": 23.6784679534,
			"-0.003": 20.8283261563,
			"-0.002": 12.0225876301,
			"-0.001": 8.55349815995,
			"0.0": 8.07926833465,
			"0.001": 9.48926038831,
			"0.002": 9.82614222291,
			"0.003": 8.91008852037,
			"0.004": 8.93459465334,
			"0.005": 9.53918229419,
			"0.006": 6.54767822742,
			"0.007": 6.70394893835,
			"0.008": 6.8502759459,
			"0.009": 6.21965573426,
			"0.01": 5.57692754194,
			"0.011": 5.05963713472,
			"0.012": 3.53477806017,
			"0.013": 0.251555913364,
			"0.014": 0.0,
			"0.015": 0.0,
			"0.016": 0.0,
			"0.017": 0.0,
			"0.018": 0.0,
			"0.019": 0.0,
			"0.02": 0.0,
			"0.021": 0.0,
			"0.022": 0.0,
			"0.023": 0.0,
			"0.024": 0.0,
			"0.025": 0.0
		}
	}
}
