{
	 "smiles": "CC(C)OCC1=C(F)C=CC(=C1)C(O)=O", 
	 "Tm": 358.15, 
	 "num_atms": 28, 
	 "gaussian": { 
		 "optdone": 1, 
		 "sigma_profile": "yes", 
		 "theory": "DFT", 
		 "functional": "B3LYP", 
		 "basiset": "6-31G**", 
		 "properties": { 
			 "R2extent": 4268.8566, 
			 "electric_dipole_moment_norm": 1.82211888471, 
			 "electric_quadrupole_moment_norm": 10.3017613373, 
			 "total_energy": -752.527632573, 
			 "HOMO_LUMO_gap": 0.20555, 
			 "cosmo_polarized_energy": -10.86, 
			 "cosmo_cavitation_energy": 32.06, 
			 "cosmo_dispersion_energy": -22.33, 
			 "cosmo_repulsion_energy": 1.75, 
			 "cosmo_total_nonelectrostatic_energy": 11.49, 
			 "SMD_solvation_energy": 7.12 
		},
		"coords": [
			{
				"x": 2.3345872366,
				"y": -0.3298207316,
				"z": 3.4928551175,
				"element": "C" 
			},
			{
				"x": 1.8286501534,
				"y": 0.2321302863,
				"z": 2.1607354167,
				"element": "C" 
			},
			{
				"x": 2.6419992623,
				"y": -0.2608397794,
				"z": 0.9608586502,
				"element": "C" 
			},
			{
				"x": 0.4120477255,
				"y": 0.0300895147,
				"z": 2.0060758165,
				"element": "O" 
			},
			{
				"x": -0.0453288311,
				"y": -1.294741589,
				"z": 1.8143436162,
				"element": "C" 
			},
			{
				"x": -0.5366582926,
				"y": -1.5377220735,
				"z": 0.3977304313,
				"element": "C" 
			},
			{
				"x": -0.8364972861,
				"y": -2.8347415754,
				"z": -0.02524604,
				"element": "C" 
			},
			{
				"x": -0.6476261912,
				"y": -3.8474975508,
				"z": 0.8523040713,
				"element": "F" 
			},
			{
				"x": -1.3120341026,
				"y": -3.1322916822,
				"z": -1.2962856293,
				"element": "C" 
			},
			{
				"x": -1.5070553438,
				"y": -2.0876821827,
				"z": -2.1965151225,
				"element": "C" 
			},
			{
				"x": -1.222170853,
				"y": -0.7712362804,
				"z": -1.807788904,
				"element": "C" 
			},
			{
				"x": -0.7433067245,
				"y": -0.5074678697,
				"z": -0.515962849,
				"element": "C" 
			},
			{
				"x": -1.4084410621,
				"y": 0.3796880866,
				"z": -2.7271271124,
				"element": "C" 
			},
			{
				"x": -1.8904815047,
				"y": 0.0156070741,
				"z": -3.9442021942,
				"element": "O" 
			},
			{
				"x": -1.1646149139,
				"y": 1.538775301,
				"z": -2.454305668,
				"element": "O" 
			},
			{
				"x": 1.721465429,
				"y": 0.0427077431,
				"z": 4.3182509761,
				"element": "H" 
			},
			{
				"x": 2.3097572232,
				"y": -1.4248843704,
				"z": 3.5111897054,
				"element": "H" 
			},
			{
				"x": 3.3713497859,
				"y": -0.0228289079,
				"z": 3.6657266766,
				"element": "H" 
			},
			{
				"x": 1.9065834117,
				"y": 1.3245671008,
				"z": 2.2005875812,
				"element": "H" 
			},
			{
				"x": 3.691900413,
				"y": 0.0268358676,
				"z": 1.0789103581,
				"element": "H" 
			},
			{
				"x": 2.2688131633,
				"y": 0.1769247302,
				"z": 0.031383348,
				"element": "H" 
			},
			{
				"x": 2.6101154251,
				"y": -1.351476679,
				"z": 0.8649729577,
				"element": "H" 
			},
			{
				"x": 0.7157418308,
				"y": -2.0426174254,
				"z": 2.0664400823,
				"element": "H" 
			},
			{
				"x": -0.8775533564,
				"y": -1.4610047118,
				"z": 2.5126128097,
				"element": "H" 
			},
			{
				"x": -1.5189486183,
				"y": -4.1636486895,
				"z": -1.5601308058,
				"element": "H" 
			},
			{
				"x": -1.8766942299,
				"y": -2.2886349074,
				"z": -3.1950416712,
				"element": "H" 
			},
			{
				"x": -0.5280309717,
				"y": 0.5133694667,
				"z": -0.2236883446,
				"element": "H" 
			},
			{
				"x": -1.968868778,
				"y": 0.840441835,
				"z": -4.4506832737,
				"element": "H" 
			}
		],
		 "valence_orbital": [ 
			{
				"type": "occ",
				"energy": -0.30293,
				"method": "rhf"
			},
			{
				"type": "occ",
				"energy": -0.27527,
				"method": "rhf"
			},
			{
				"type": "occ",
				"energy": -0.26175,
				"method": "rhf"
			},
			{
				"type": "occ",
				"energy": -0.25961,
				"method": "rhf"
			},
			{
				"type": "occ",
				"energy": -0.25073,
				"method": "rhf"
			},
			{
				"type": "unocc",
				"energy": -0.04518,
				"method": "rhf"
			},
			{
				"type": "unocc",
				"energy": -0.01453,
				"method": "rhf"
			},
			{
				"type": "unocc",
				"energy": 0.0573,
				"method": "rhf"
			},
			{
				"type": "unocc",
				"energy": 0.07656,
				"method": "rhf"
			},
			{
				"type": "unocc",
				"energy": 0.08099,
				"method": "rhf"
			}
		],
		"cosmo_sigma_profile": { 
			"-0.025": 0.0,
			"-0.024": 0.0,
			"-0.023": 0.0,
			"-0.022": 0.0,
			"-0.021": 0.0,
			"-0.02": 0.0,
			"-0.019": 0.0653862773236,
			"-0.018": 0.706069861495,
			"-0.017": 0.934014820224,
			"-0.016": 0.729819110765,
			"-0.015": 0.999604711159,
			"-0.014": 0.425677166034,
			"-0.013": 0.0992954424111,
			"-0.012": 1.09227086891,
			"-0.011": 1.00004499168,
			"-0.01": 0.832590728096,
			"-0.009": 0.258158866888,
			"-0.008": 1.49298418904,
			"-0.007": 3.51659721041,
			"-0.006": 7.5633386864,
			"-0.005": 10.7633086828,
			"-0.004": 14.7212523043,
			"-0.003": 22.0349977073,
			"-0.002": 22.932518655,
			"-0.001": 27.4719987781,
			"0.0": 30.0242233285,
			"0.001": 28.2533847851,
			"0.002": 19.5003286449,
			"0.003": 15.2187962417,
			"0.004": 11.4076991082,
			"0.005": 3.80398171184,
			"0.006": 3.98563443607,
			"0.007": 4.35503994862,
			"0.008": 2.89494919212,
			"0.009": 3.06465812404,
			"0.01": 1.8912006769,
			"0.011": 4.20426806758,
			"0.012": 5.6400865593,
			"0.013": 1.08294115504,
			"0.014": 0.112526961759,
			"0.015": 0.0,
			"0.016": 0.0,
			"0.017": 0.0,
			"0.018": 0.0,
			"0.019": 0.0,
			"0.02": 0.0,
			"0.021": 0.0,
			"0.022": 0.0,
			"0.023": 0.0,
			"0.024": 0.0,
			"0.025": 0.0
		}
	}
}
