{
	 "smiles": "CC1=CC(O)=C(C=C1)C(N)=O", 
	 "Tm": 455.15, 
	 "num_atms": 20, 
	 "gaussian": { 
		 "optdone": 1, 
		 "sigma_profile": "yes", 
		 "theory": "DFT", 
		 "functional": "B3LYP", 
		 "basiset": "6-31G**", 
		 "properties": { 
			 "R2extent": 2976.8714, 
			 "electric_dipole_moment_norm": 4.11998480701, 
			 "electric_quadrupole_moment_norm": 18.6953222714, 
			 "total_energy": -515.512111849, 
			 "HOMO_LUMO_gap": 0.17939, 
			 "cosmo_polarized_energy": -12.65, 
			 "cosmo_cavitation_energy": 23.47, 
			 "cosmo_dispersion_energy": -17.9, 
			 "cosmo_repulsion_energy": 1.43, 
			 "cosmo_total_nonelectrostatic_energy": 7.0, 
			 "SMD_solvation_energy": 5.02 
		},
		"coords": [
			{
				"x": 1.9488792123,
				"y": 2.050672144,
				"z": -0.8476327491,
				"element": "C" 
			},
			{
				"x": 0.6666512658,
				"y": 1.2767641673,
				"z": -1.035921939,
				"element": "C" 
			},
			{
				"x": -0.1003599538,
				"y": 1.4330357969,
				"z": -2.1836793451,
				"element": "C" 
			},
			{
				"x": -1.2977601776,
				"y": 0.718773163,
				"z": -2.3700405933,
				"element": "C" 
			},
			{
				"x": -1.9905245152,
				"y": 0.9385551058,
				"z": -3.4943916145,
				"element": "O" 
			},
			{
				"x": -1.7273141721,
				"y": -0.2006740894,
				"z": -1.3766874611,
				"element": "C" 
			},
			{
				"x": -0.9448684549,
				"y": -0.3341174965,
				"z": -0.2123395665,
				"element": "C" 
			},
			{
				"x": 0.2256094099,
				"y": 0.3826283321,
				"z": -0.0372628031,
				"element": "C" 
			},
			{
				"x": -2.9689442751,
				"y": -0.9647412445,
				"z": -1.6211936824,
				"element": "C" 
			},
			{
				"x": -3.3334667534,
				"y": -1.9330221197,
				"z": -0.7310791448,
				"element": "N" 
			},
			{
				"x": -3.6960293381,
				"y": -0.7374080822,
				"z": -2.6082547691,
				"element": "O" 
			},
			{
				"x": 1.9210565104,
				"y": 2.641436633,
				"z": 0.0750370407,
				"element": "H" 
			},
			{
				"x": 2.8081435828,
				"y": 1.3743729249,
				"z": -0.7687790582,
				"element": "H" 
			},
			{
				"x": 2.1329728538,
				"y": 2.7330827571,
				"z": -1.681036069,
				"element": "H" 
			},
			{
				"x": 0.1999494058,
				"y": 2.120162277,
				"z": -2.9686487132,
				"element": "H" 
			},
			{
				"x": -2.8102378079,
				"y": 0.3762145499,
				"z": -3.4241764795,
				"element": "H" 
			},
			{
				"x": -1.272573448,
				"y": -0.9928363127,
				"z": 0.5874081087,
				"element": "H" 
			},
			{
				"x": 0.804346374,
				"y": 0.2626928492,
				"z": 0.8740749573,
				"element": "H" 
			},
			{
				"x": -2.6722402532,
				"y": -2.3302197584,
				"z": -0.08479748,
				"element": "H" 
			},
			{
				"x": -4.1246894653,
				"y": -2.4988715966,
				"z": -0.9999986389,
				"element": "H" 
			}
		],
		 "valence_orbital": [ 
			{
				"type": "occ",
				"energy": -0.32615,
				"method": "rhf"
			},
			{
				"type": "occ",
				"energy": -0.28247,
				"method": "rhf"
			},
			{
				"type": "occ",
				"energy": -0.26609,
				"method": "rhf"
			},
			{
				"type": "occ",
				"energy": -0.2512,
				"method": "rhf"
			},
			{
				"type": "occ",
				"energy": -0.21854,
				"method": "rhf"
			},
			{
				"type": "unocc",
				"energy": -0.03915,
				"method": "rhf"
			},
			{
				"type": "unocc",
				"energy": 0.00738,
				"method": "rhf"
			},
			{
				"type": "unocc",
				"energy": 0.05434,
				"method": "rhf"
			},
			{
				"type": "unocc",
				"energy": 0.0681,
				"method": "rhf"
			},
			{
				"type": "unocc",
				"energy": 0.105,
				"method": "rhf"
			}
		],
		"cosmo_sigma_profile": { 
			"-0.025": 0.0,
			"-0.024": 0.0,
			"-0.023": 0.0,
			"-0.022": 0.0,
			"-0.021": 0.0,
			"-0.02": 0.0,
			"-0.019": 0.0,
			"-0.018": 0.0,
			"-0.017": 0.0,
			"-0.016": 0.0,
			"-0.015": 0.916185487793,
			"-0.014": 2.55761279579,
			"-0.013": 2.05170489627,
			"-0.012": 2.4908468783,
			"-0.011": 3.12436163388,
			"-0.01": 2.41507444517,
			"-0.009": 1.47028022099,
			"-0.008": 2.28371997834,
			"-0.007": 2.23683990149,
			"-0.006": 3.23043965031,
			"-0.005": 9.44081768802,
			"-0.004": 13.0062533558,
			"-0.003": 13.4493338265,
			"-0.002": 12.1677632839,
			"-0.001": 15.0338986321,
			"0.0": 17.9654627004,
			"0.001": 11.9145372007,
			"0.002": 10.5868340278,
			"0.003": 11.3913960105,
			"0.004": 13.7868969244,
			"0.005": 10.0205107462,
			"0.006": 3.69300379704,
			"0.007": 3.18653544856,
			"0.008": 2.9541600671,
			"0.009": 2.34751277543,
			"0.01": 3.84412704964,
			"0.011": 3.12777074592,
			"0.012": 3.27667771262,
			"0.013": 2.07654203706,
			"0.014": 0.322631605852,
			"0.015": 0.0,
			"0.016": 0.0,
			"0.017": 0.0,
			"0.018": 0.0,
			"0.019": 0.0,
			"0.02": 0.0,
			"0.021": 0.0,
			"0.022": 0.0,
			"0.023": 0.0,
			"0.024": 0.0,
			"0.025": 0.0
		}
	}
}
