{
	 "smiles": "CS(=O)(=O)C1=CC=C(C=C1)C1CO1", 
	 "Tm": 371.15, 
	 "num_atms": 23, 
	 "gaussian": { 
		 "optdone": 1, 
		 "sigma_profile": "yes", 
		 "theory": "DFT", 
		 "functional": "B3LYP", 
		 "basiset": "6-31G**", 
		 "properties": { 
			 "R2extent": 3979.3661, 
			 "electric_dipole_moment_norm": 6.01928864983, 
			 "electric_quadrupole_moment_norm": 18.6444192066, 
			 "total_energy": -972.733746688, 
			 "HOMO_LUMO_gap": 0.2179, 
			 "cosmo_polarized_energy": -17.34, 
			 "cosmo_cavitation_energy": 28.51, 
			 "cosmo_dispersion_energy": -21.06, 
			 "cosmo_repulsion_energy": 1.61, 
			 "cosmo_total_nonelectrostatic_energy": 9.07, 
			 "SMD_solvation_energy": 4.64 
		},
		"coords": [
			{
				"x": 3.3225961307,
				"y": 0.709048336,
				"z": 0.8660254813,
				"element": "C" 
			},
			{
				"x": 2.3252320271,
				"y": 2.1669758005,
				"z": 0.4725472672,
				"element": "S" 
			},
			{
				"x": 3.0600674202,
				"y": 2.9414666276,
				"z": -0.5399243203,
				"element": "O" 
			},
			{
				"x": 1.9129578855,
				"y": 2.7737049332,
				"z": 1.7477163642,
				"element": "O" 
			},
			{
				"x": 0.8604491113,
				"y": 1.477717636,
				"z": -0.313669494,
				"element": "C" 
			},
			{
				"x": 0.8393667514,
				"y": 1.3217785437,
				"z": -1.7008273879,
				"element": "C" 
			},
			{
				"x": -0.2974588753,
				"y": 0.7874897961,
				"z": -2.3036980754,
				"element": "C" 
			},
			{
				"x": -1.4018976551,
				"y": 0.4069729,
				"z": -1.5296935859,
				"element": "C" 
			},
			{
				"x": -1.3699638773,
				"y": 0.5918033287,
				"z": -0.1408155333,
				"element": "C" 
			},
			{
				"x": -0.240389968,
				"y": 1.1288630312,
				"z": 0.4720945161,
				"element": "C" 
			},
			{
				"x": -2.6000751628,
				"y": -0.1891622454,
				"z": -2.189798446,
				"element": "C" 
			},
			{
				"x": -3.1267576375,
				"y": -1.5142027514,
				"z": -1.7958998374,
				"element": "C" 
			},
			{
				"x": -3.790238372,
				"y": -0.311352688,
				"z": -1.4044433693,
				"element": "O" 
			},
			{
				"x": 3.5724365173,
				"y": 0.1841204367,
				"z": -0.0569816374,
				"element": "H" 
			},
			{
				"x": 2.7655810795,
				"y": 0.0654971019,
				"z": 1.5482883445,
				"element": "H" 
			},
			{
				"x": 4.2285475991,
				"y": 1.0811521656,
				"z": 1.3490213472,
				"element": "H" 
			},
			{
				"x": 1.6915766368,
				"y": 1.6400292423,
				"z": -2.2919048572,
				"element": "H" 
			},
			{
				"x": -0.3297544377,
				"y": 0.6729247471,
				"z": -3.3840992476,
				"element": "H" 
			},
			{
				"x": -2.2483831898,
				"y": 0.3356078401,
				"z": 0.4422875153,
				"element": "H" 
			},
			{
				"x": -0.2146283765,
				"y": 1.3043601017,
				"z": 1.5425363662,
				"element": "H" 
			},
			{
				"x": -2.7706661761,
				"y": 0.1302104396,
				"z": -3.2194129742,
				"element": "H" 
			},
			{
				"x": -3.6525939404,
				"y": -2.1257285871,
				"z": -2.5291750018,
				"element": "H" 
			},
			{
				"x": -2.6311034902,
				"y": -2.059576736,
				"z": -0.9930734343,
				"element": "H" 
			}
		],
		 "valence_orbital": [ 
			{
				"type": "occ",
				"energy": -0.29479,
				"method": "rhf"
			},
			{
				"type": "occ",
				"energy": -0.29171,
				"method": "rhf"
			},
			{
				"type": "occ",
				"energy": -0.28719,
				"method": "rhf"
			},
			{
				"type": "occ",
				"energy": -0.27559,
				"method": "rhf"
			},
			{
				"type": "occ",
				"energy": -0.26459,
				"method": "rhf"
			},
			{
				"type": "unocc",
				"energy": -0.04669,
				"method": "rhf"
			},
			{
				"type": "unocc",
				"energy": -0.02689,
				"method": "rhf"
			},
			{
				"type": "unocc",
				"energy": 0.06513,
				"method": "rhf"
			},
			{
				"type": "unocc",
				"energy": 0.07072,
				"method": "rhf"
			},
			{
				"type": "unocc",
				"energy": 0.08745,
				"method": "rhf"
			}
		],
		"cosmo_sigma_profile": { 
			"-0.025": 0.0,
			"-0.024": 0.0,
			"-0.023": 0.0,
			"-0.022": 0.0,
			"-0.021": 0.0,
			"-0.02": 0.0,
			"-0.019": 0.0,
			"-0.018": 0.0,
			"-0.017": 0.0,
			"-0.016": 0.0,
			"-0.015": 0.0,
			"-0.014": 0.0,
			"-0.013": 0.0,
			"-0.012": 0.0,
			"-0.011": 0.0,
			"-0.01": 0.0,
			"-0.009": 1.58428739999,
			"-0.008": 8.39737592341,
			"-0.007": 15.8889802035,
			"-0.006": 19.6680170946,
			"-0.005": 19.9029557436,
			"-0.004": 18.7897843389,
			"-0.003": 15.9988848857,
			"-0.002": 11.3595130651,
			"-0.001": 12.4197625074,
			"0.0": 9.76674896625,
			"0.001": 12.04097999,
			"0.002": 16.7084111357,
			"0.003": 10.7411471014,
			"0.004": 3.85401165101,
			"0.005": 4.68912927746,
			"0.006": 3.54563908711,
			"0.007": 3.34554192761,
			"0.008": 4.26421335205,
			"0.009": 5.94304817929,
			"0.01": 6.92929571597,
			"0.011": 10.2704569776,
			"0.012": 9.87658533624,
			"0.013": 1.39560883804,
			"0.014": 0.0,
			"0.015": 0.0,
			"0.016": 0.0,
			"0.017": 0.0,
			"0.018": 0.0,
			"0.019": 0.0,
			"0.02": 0.0,
			"0.021": 0.0,
			"0.022": 0.0,
			"0.023": 0.0,
			"0.024": 0.0,
			"0.025": 0.0
		}
	}
}
