{
	 "smiles": "CCOC1OC2=C(C=C(OS(C)(=O)=O)C=C2)C1(C)C", 
	 "Tm": 344.15, 
	 "num_atms": 37, 
	 "gaussian": { 
		 "optdone": 1, 
		 "sigma_profile": "yes", 
		 "theory": "DFT", 
		 "functional": "B3LYP", 
		 "basiset": "6-31G**", 
		 "properties": { 
			 "R2extent": 7365.3025, 
			 "electric_dipole_moment_norm": 5.03359265237, 
			 "electric_quadrupole_moment_norm": 27.8201602423, 
			 "total_energy": -1280.47097602, 
			 "HOMO_LUMO_gap": 0.20658, 
			 "cosmo_polarized_energy": -16.17, 
			 "cosmo_cavitation_energy": 40.67, 
			 "cosmo_dispersion_energy": -28.23, 
			 "cosmo_repulsion_energy": 2.16, 
			 "cosmo_total_nonelectrostatic_energy": 14.61, 
			 "SMD_solvation_energy": 6.7 
		},
		"coords": [
			{
				"x": 3.8083170846,
				"y": -1.1297826664,
				"z": 0.8916800831,
				"element": "C" 
			},
			{
				"x": 3.0474972689,
				"y": -1.7337119797,
				"z": 2.0670056513,
				"element": "C" 
			},
			{
				"x": 1.6594521919,
				"y": -1.3767134837,
				"z": 2.080849081,
				"element": "O" 
			},
			{
				"x": 0.7949877522,
				"y": -2.2209964754,
				"z": 1.4022561507,
				"element": "C" 
			},
			{
				"x": 0.9279087216,
				"y": -2.0604272388,
				"z": -0.0401863864,
				"element": "O" 
			},
			{
				"x": -0.0656841398,
				"y": -1.2144536759,
				"z": -0.4514849098,
				"element": "C" 
			},
			{
				"x": -1.0432777825,
				"y": -1.0148830559,
				"z": 0.5266706404,
				"element": "C" 
			},
			{
				"x": -2.1324748421,
				"y": -0.196664091,
				"z": 0.2671975133,
				"element": "C" 
			},
			{
				"x": -2.2020441439,
				"y": 0.4197071157,
				"z": -0.9890929531,
				"element": "C" 
			},
			{
				"x": -3.3153349822,
				"y": 1.2027780741,
				"z": -1.338304334,
				"element": "O" 
			},
			{
				"x": -3.5336386092,
				"y": 2.6864456505,
				"z": -0.6182534287,
				"element": "S" 
			},
			{
				"x": -2.2851099394,
				"y": 3.6719646934,
				"z": -1.4569168768,
				"element": "C" 
			},
			{
				"x": -4.8573867636,
				"y": 3.0965102705,
				"z": -1.0581916455,
				"element": "O" 
			},
			{
				"x": -3.1880990134,
				"y": 2.6025573294,
				"z": 0.7972492294,
				"element": "O" 
			},
			{
				"x": -1.2277747858,
				"y": 0.2120055162,
				"z": -1.9660447518,
				"element": "C" 
			},
			{
				"x": -0.1333004915,
				"y": -0.6207745377,
				"z": -1.7054347385,
				"element": "C" 
			},
			{
				"x": -0.6916381462,
				"y": -1.8668850132,
				"z": 1.7355491249,
				"element": "C" 
			},
			{
				"x": -1.5297898639,
				"y": -3.1655471608,
				"z": 1.7203397151,
				"element": "C" 
			},
			{
				"x": -0.8548839899,
				"y": -1.1388675967,
				"z": 3.0761770883,
				"element": "C" 
			},
			{
				"x": 3.4474656073,
				"y": -1.5293567403,
				"z": -0.058109478,
				"element": "H" 
			},
			{
				"x": 3.6836856082,
				"y": -0.0429370905,
				"z": 0.8787101203,
				"element": "H" 
			},
			{
				"x": 4.87722137,
				"y": -1.3518268925,
				"z": 0.9857700554,
				"element": "H" 
			},
			{
				"x": 3.1443516057,
				"y": -2.8296843888,
				"z": 2.0740372436,
				"element": "H" 
			},
			{
				"x": 3.4498890864,
				"y": -1.3591882795,
				"z": 3.0139850214,
				"element": "H" 
			},
			{
				"x": 1.0452524562,
				"y": -3.2721826416,
				"z": 1.5972565681,
				"element": "H" 
			},
			{
				"x": -2.9110137542,
				"y": -0.0168012393,
				"z": 0.9991504839,
				"element": "H" 
			},
			{
				"x": -2.5261049908,
				"y": 3.7031637301,
				"z": -2.5194290722,
				"element": "H" 
			},
			{
				"x": -1.3079990415,
				"y": 3.2192991026,
				"z": -1.2843580007,
				"element": "H" 
			},
			{
				"x": -2.323560091,
				"y": 4.6721030965,
				"z": -1.0226099158,
				"element": "H" 
			},
			{
				"x": -1.3394063155,
				"y": 0.6928172537,
				"z": -2.9323484055,
				"element": "H" 
			},
			{
				"x": 0.633642921,
				"y": -0.7979574827,
				"z": -2.4511781171,
				"element": "H" 
			},
			{
				"x": -1.2485017308,
				"y": -3.8174148451,
				"z": 2.5552788272,
				"element": "H" 
			},
			{
				"x": -1.387512551,
				"y": -3.7197347313,
				"z": 0.7872453266,
				"element": "H" 
			},
			{
				"x": -2.5946127167,
				"y": -2.9331539729,
				"z": 1.8147251074,
				"element": "H" 
			},
			{
				"x": -0.2798754776,
				"y": -0.2124738054,
				"z": 3.0981203928,
				"element": "H" 
			},
			{
				"x": -0.5192813191,
				"y": -1.7694654448,
				"z": 3.9054433433,
				"element": "H" 
			},
			{
				"x": -1.9101661924,
				"y": -0.899667303,
				"z": 3.2429462463,
				"element": "H" 
			}
		],
		 "valence_orbital": [ 
			{
				"type": "occ",
				"energy": -0.31148,
				"method": "rhf"
			},
			{
				"type": "occ",
				"energy": -0.30399,
				"method": "rhf"
			},
			{
				"type": "occ",
				"energy": -0.28291,
				"method": "rhf"
			},
			{
				"type": "occ",
				"energy": -0.25823,
				"method": "rhf"
			},
			{
				"type": "occ",
				"energy": -0.22193,
				"method": "rhf"
			},
			{
				"type": "unocc",
				"energy": -0.01535,
				"method": "rhf"
			},
			{
				"type": "unocc",
				"energy": -0.00464,
				"method": "rhf"
			},
			{
				"type": "unocc",
				"energy": 0.04677,
				"method": "rhf"
			},
			{
				"type": "unocc",
				"energy": 0.06673,
				"method": "rhf"
			},
			{
				"type": "unocc",
				"energy": 0.08171,
				"method": "rhf"
			}
		],
		"cosmo_sigma_profile": { 
			"-0.025": 0.0,
			"-0.024": 0.0,
			"-0.023": 0.0,
			"-0.022": 0.0,
			"-0.021": 0.0,
			"-0.02": 0.0,
			"-0.019": 0.0,
			"-0.018": 0.0,
			"-0.017": 0.0,
			"-0.016": 0.0,
			"-0.015": 0.0,
			"-0.014": 0.0,
			"-0.013": 0.0,
			"-0.012": 0.0,
			"-0.011": 0.168338315695,
			"-0.01": 1.71286007245,
			"-0.009": 4.12542882411,
			"-0.008": 4.81634847383,
			"-0.007": 8.86360156795,
			"-0.006": 15.4320239726,
			"-0.005": 21.3154647414,
			"-0.004": 27.0493699242,
			"-0.003": 29.0832648908,
			"-0.002": 25.6668457412,
			"-0.001": 25.1974273193,
			"0.0": 27.3912815747,
			"0.001": 23.8505616573,
			"0.002": 14.9730930681,
			"0.003": 19.323669454,
			"0.004": 12.991228364,
			"0.005": 8.02834549485,
			"0.006": 8.0985348125,
			"0.007": 6.81941013158,
			"0.008": 8.97365530314,
			"0.009": 8.96851677733,
			"0.01": 13.42630657,
			"0.011": 3.81726969497,
			"0.012": 0.0,
			"0.013": 0.0,
			"0.014": 0.0,
			"0.015": 0.0,
			"0.016": 0.0,
			"0.017": 0.0,
			"0.018": 0.0,
			"0.019": 0.0,
			"0.02": 0.0,
			"0.021": 0.0,
			"0.022": 0.0,
			"0.023": 0.0,
			"0.024": 0.0,
			"0.025": 0.0
		}
	}
}
