{
	 "smiles": "SC1=NN=NN1C1=CC=C(Cl)C=C1", 
	 "Tm": 436.15, 
	 "num_atms": 18, 
	 "gaussian": { 
		 "optdone": 1, 
		 "sigma_profile": "yes", 
		 "theory": "DFT", 
		 "functional": "B3LYP", 
		 "basiset": "6-31G**", 
		 "properties": { 
			 "R2extent": 4805.0446, 
			 "electric_dipole_moment_norm": 5.12974267971, 
			 "electric_quadrupole_moment_norm": 18.9071899538, 
			 "total_energy": -1347.07289599, 
			 "HOMO_LUMO_gap": 0.20412, 
			 "cosmo_polarized_energy": -15.05, 
			 "cosmo_cavitation_energy": 26.92, 
			 "cosmo_dispersion_energy": -20.17, 
			 "cosmo_repulsion_energy": 1.54, 
			 "cosmo_total_nonelectrostatic_energy": 8.29, 
			 "SMD_solvation_energy": 1.96 
		},
		"coords": [
			{
				"x": -3.4745943792,
				"y": -1.0360438411,
				"z": 2.0729842037,
				"element": "S" 
			},
			{
				"x": -2.3588250697,
				"y": 0.3195381147,
				"z": 2.1682603416,
				"element": "C" 
			},
			{
				"x": -2.7405766187,
				"y": 1.5261377808,
				"z": 2.5432573564,
				"element": "N" 
			},
			{
				"x": -1.6274541837,
				"y": 2.3048383695,
				"z": 2.4804611631,
				"element": "N" 
			},
			{
				"x": -0.6015050402,
				"y": 1.6383218465,
				"z": 2.0847606676,
				"element": "N" 
			},
			{
				"x": -1.0275849304,
				"y": 0.3495359412,
				"z": 1.8846230974,
				"element": "N" 
			},
			{
				"x": -0.1267175549,
				"y": -0.6528063728,
				"z": 1.4249908528,
				"element": "C" 
			},
			{
				"x": -0.027482179,
				"y": -1.87459053,
				"z": 2.0971404358,
				"element": "C" 
			},
			{
				"x": 0.8624742938,
				"y": -2.8445195414,
				"z": 1.637851604,
				"element": "C" 
			},
			{
				"x": 1.6568727144,
				"y": -2.5715195292,
				"z": 0.5239920377,
				"element": "C" 
			},
			{
				"x": 2.7792631746,
				"y": -3.7869611514,
				"z": -0.0508947996,
				"element": "Cl" 
			},
			{
				"x": 1.5767944891,
				"y": -1.3438326566,
				"z": -0.1366465701,
				"element": "C" 
			},
			{
				"x": 0.6762543155,
				"y": -0.3822312713,
				"z": 0.3133348556,
				"element": "C" 
			},
			{
				"x": -2.6493899626,
				"y": -1.8428734163,
				"z": 1.3759064981,
				"element": "H" 
			},
			{
				"x": -0.6237848318,
				"y": -2.060020462,
				"z": 2.984195282,
				"element": "H" 
			},
			{
				"x": 0.9503701124,
				"y": -3.7960240145,
				"z": 2.1496281103,
				"element": "H" 
			},
			{
				"x": 2.2074000241,
				"y": -1.1468127101,
				"z": -0.9960166156,
				"element": "H" 
			},
			{
				"x": 0.5960856261,
				"y": 0.5781634439,
				"z": -0.1830285206,
				"element": "H" 
			}
		],
		 "valence_orbital": [ 
			{
				"type": "occ",
				"energy": -0.30545,
				"method": "rhf"
			},
			{
				"type": "occ",
				"energy": -0.29688,
				"method": "rhf"
			},
			{
				"type": "occ",
				"energy": -0.29554,
				"method": "rhf"
			},
			{
				"type": "occ",
				"energy": -0.27205,
				"method": "rhf"
			},
			{
				"type": "occ",
				"energy": -0.2632,
				"method": "rhf"
			},
			{
				"type": "unocc",
				"energy": -0.05908,
				"method": "rhf"
			},
			{
				"type": "unocc",
				"energy": -0.04857,
				"method": "rhf"
			},
			{
				"type": "unocc",
				"energy": -0.01534,
				"method": "rhf"
			},
			{
				"type": "unocc",
				"energy": -0.00576,
				"method": "rhf"
			},
			{
				"type": "unocc",
				"energy": 0.00692,
				"method": "rhf"
			}
		],
		"cosmo_sigma_profile": { 
			"-0.025": 0.0,
			"-0.024": 0.0,
			"-0.023": 0.0,
			"-0.022": 0.0,
			"-0.021": 0.0,
			"-0.02": 0.0,
			"-0.019": 0.0,
			"-0.018": 0.0,
			"-0.017": 0.0,
			"-0.016": 0.0,
			"-0.015": 0.0,
			"-0.014": 0.04032244317,
			"-0.013": 0.816549088347,
			"-0.012": 1.340660663,
			"-0.011": 1.36163586525,
			"-0.01": 2.04483264886,
			"-0.009": 3.21228045049,
			"-0.008": 11.0889631098,
			"-0.007": 11.9217085092,
			"-0.006": 10.9063991711,
			"-0.005": 9.61014786385,
			"-0.004": 9.2720867865,
			"-0.003": 9.11167200363,
			"-0.002": 11.5153535814,
			"-0.001": 14.7365696447,
			"0.0": 20.379809338,
			"0.001": 24.8310763263,
			"0.002": 14.3078937714,
			"0.003": 14.2037644615,
			"0.004": 13.7347057174,
			"0.005": 6.38720895277,
			"0.006": 3.97158096817,
			"0.007": 5.32336086791,
			"0.008": 3.8357727925,
			"0.009": 5.97925767901,
			"0.01": 3.96413913522,
			"0.011": 3.29877387134,
			"0.012": 2.6268826279,
			"0.013": 2.0618721438,
			"0.014": 0.857011292292,
			"0.015": 0.0308286840874,
			"0.016": 0.0,
			"0.017": 0.0,
			"0.018": 0.0,
			"0.019": 0.0,
			"0.02": 0.0,
			"0.021": 0.0,
			"0.022": 0.0,
			"0.023": 0.0,
			"0.024": 0.0,
			"0.025": 0.0
		}
	}
}
