{
	 "smiles": "NS(=O)(=O)CC1=CC=CC=C1", 
	 "Tm": 376.15, 
	 "num_atms": 20, 
	 "gaussian": { 
		 "optdone": 1, 
		 "sigma_profile": "yes", 
		 "theory": "DFT", 
		 "functional": "B3LYP", 
		 "basiset": "6-31G**", 
		 "properties": { 
			 "R2extent": 2426.5427, 
			 "electric_dipole_moment_norm": 2.90966965135, 
			 "electric_quadrupole_moment_norm": 18.3925913237, 
			 "total_energy": -875.494377682, 
			 "HOMO_LUMO_gap": 0.23193, 
			 "cosmo_polarized_energy": -16.66, 
			 "cosmo_cavitation_energy": 25.36, 
			 "cosmo_dispersion_energy": -18.89, 
			 "cosmo_repulsion_energy": 1.48, 
			 "cosmo_total_nonelectrostatic_energy": 7.95, 
			 "SMD_solvation_energy": 3.79 
		},
		"coords": [
			{
				"x": 3.6909742133,
				"y": 1.1749218352,
				"z": -1.181200208,
				"element": "N" 
			},
			{
				"x": 2.2538461687,
				"y": 1.3395432617,
				"z": -0.2883363593,
				"element": "S" 
			},
			{
				"x": 1.4373769002,
				"y": 2.3616176181,
				"z": -0.9512230741,
				"element": "O" 
			},
			{
				"x": 2.623197012,
				"y": 1.4386311613,
				"z": 1.1274481691,
				"element": "O" 
			},
			{
				"x": 1.4769116539,
				"y": -0.2897060314,
				"z": -0.5686101737,
				"element": "C" 
			},
			{
				"x": 0.1520907678,
				"y": -0.4063631193,
				"z": 0.1340502001,
				"element": "C" 
			},
			{
				"x": -1.0286802281,
				"y": -0.0135682385,
				"z": -0.5096652065,
				"element": "C" 
			},
			{
				"x": -2.2554555382,
				"y": -0.1103113303,
				"z": 0.1461830608,
				"element": "C" 
			},
			{
				"x": -2.3135047609,
				"y": -0.5947227426,
				"z": 1.4544074715,
				"element": "C" 
			},
			{
				"x": -1.1396929817,
				"y": -0.9784431722,
				"z": 2.1058617603,
				"element": "C" 
			},
			{
				"x": 0.0872677088,
				"y": -0.8818440862,
				"z": 1.4503349181,
				"element": "C" 
			},
			{
				"x": 4.4838339776,
				"y": 1.2802253947,
				"z": -0.5531951093,
				"element": "H" 
			},
			{
				"x": 3.7092761968,
				"y": 1.8827700623,
				"z": -1.9110817011,
				"element": "H" 
			},
			{
				"x": 1.3864600101,
				"y": -0.38079135,
				"z": -1.6536136271,
				"element": "H" 
			},
			{
				"x": 2.207218448,
				"y": -1.020099039,
				"z": -0.2123905846,
				"element": "H" 
			},
			{
				"x": -0.9833500251,
				"y": 0.3728732765,
				"z": -1.523833656,
				"element": "H" 
			},
			{
				"x": -3.1649094371,
				"y": 0.1937231982,
				"z": -0.3636723114,
				"element": "H" 
			},
			{
				"x": -3.2693895446,
				"y": -0.6720718764,
				"z": 1.9643847719,
				"element": "H" 
			},
			{
				"x": -1.1786157305,
				"y": -1.3517703568,
				"z": 3.1249836835,
				"element": "H" 
			},
			{
				"x": 1.0010451892,
				"y": -1.171114465,
				"z": 1.9614679758,
				"element": "H" 
			}
		],
		 "valence_orbital": [ 
			{
				"type": "occ",
				"energy": -0.31576,
				"method": "rhf"
			},
			{
				"type": "occ",
				"energy": -0.30027,
				"method": "rhf"
			},
			{
				"type": "occ",
				"energy": -0.29178,
				"method": "rhf"
			},
			{
				"type": "occ",
				"energy": -0.25397,
				"method": "rhf"
			},
			{
				"type": "occ",
				"energy": -0.24979,
				"method": "rhf"
			},
			{
				"type": "unocc",
				"energy": -0.01786,
				"method": "rhf"
			},
			{
				"type": "unocc",
				"energy": -0.00565,
				"method": "rhf"
			},
			{
				"type": "unocc",
				"energy": 0.05971,
				"method": "rhf"
			},
			{
				"type": "unocc",
				"energy": 0.07155,
				"method": "rhf"
			},
			{
				"type": "unocc",
				"energy": 0.09216,
				"method": "rhf"
			}
		],
		"cosmo_sigma_profile": { 
			"-0.025": 0.0,
			"-0.024": 0.0,
			"-0.023": 0.0,
			"-0.022": 0.0,
			"-0.021": 0.0,
			"-0.02": 0.0,
			"-0.019": 0.0,
			"-0.018": 0.0,
			"-0.017": 0.0,
			"-0.016": 0.0,
			"-0.015": 0.743263890402,
			"-0.014": 2.4973464022,
			"-0.013": 2.44426034752,
			"-0.012": 2.56701797143,
			"-0.011": 2.7255241364,
			"-0.01": 1.77368056795,
			"-0.009": 2.18007572183,
			"-0.008": 5.38625677581,
			"-0.007": 7.4578507441,
			"-0.006": 13.8816620308,
			"-0.005": 14.9715734557,
			"-0.004": 14.4432639434,
			"-0.003": 12.3378068603,
			"-0.002": 9.21957372862,
			"-0.001": 8.16862183533,
			"0.0": 7.78945042891,
			"0.001": 8.65273700911,
			"0.002": 8.84474901134,
			"0.003": 9.66059654504,
			"0.004": 11.4998541302,
			"0.005": 13.7218152917,
			"0.006": 5.2482571148,
			"0.007": 3.7371265834,
			"0.008": 4.08078576877,
			"0.009": 4.50976097064,
			"0.01": 5.86431399759,
			"0.011": 11.476539983,
			"0.012": 5.26523230872,
			"0.013": 0.115429482047,
			"0.014": 0.0,
			"0.015": 0.0,
			"0.016": 0.0,
			"0.017": 0.0,
			"0.018": 0.0,
			"0.019": 0.0,
			"0.02": 0.0,
			"0.021": 0.0,
			"0.022": 0.0,
			"0.023": 0.0,
			"0.024": 0.0,
			"0.025": 0.0
		}
	}
}
