{
	 "smiles": "CC1=CC=C(CO)C=C1F", 
	 "Tm": 308.15, 
	 "num_atms": 19, 
	 "gaussian": { 
		 "optdone": 1, 
		 "sigma_profile": "yes", 
		 "theory": "DFT", 
		 "functional": "B3LYP", 
		 "basiset": "6-31G**", 
		 "properties": { 
			 "R2extent": 2792.3362, 
			 "electric_dipole_moment_norm": 0.996572330541, 
			 "electric_quadrupole_moment_norm": 9.13273772371, 
			 "total_energy": -485.332243231, 
			 "HOMO_LUMO_gap": 0.22657, 
			 "cosmo_polarized_energy": -7.13, 
			 "cosmo_cavitation_energy": 22.91, 
			 "cosmo_dispersion_energy": -16.77, 
			 "cosmo_repulsion_energy": 1.35, 
			 "cosmo_total_nonelectrostatic_energy": 7.49, 
			 "SMD_solvation_energy": 4.5 
		},
		"coords": [
			{
				"x": 0.9926398081,
				"y": 0.2027056991,
				"z": 1.9830181786,
				"element": "C" 
			},
			{
				"x": -0.1905850439,
				"y": -0.5094887693,
				"z": 1.3803242709,
				"element": "C" 
			},
			{
				"x": -0.1534380939,
				"y": -1.8474926839,
				"z": 0.9723786922,
				"element": "C" 
			},
			{
				"x": -1.2690028401,
				"y": -2.476413999,
				"z": 0.4162150007,
				"element": "C" 
			},
			{
				"x": -2.467506406,
				"y": -1.7756880352,
				"z": 0.2457530365,
				"element": "C" 
			},
			{
				"x": -3.6925417168,
				"y": -2.4613825849,
				"z": -0.3302325887,
				"element": "C" 
			},
			{
				"x": -3.3868650286,
				"y": -3.5184766532,
				"z": -1.2269955583,
				"element": "O" 
			},
			{
				"x": -2.5261114531,
				"y": -0.4337106164,
				"z": 0.6400703453,
				"element": "C" 
			},
			{
				"x": -1.4027814389,
				"y": 0.1601832741,
				"z": 1.196040439,
				"element": "C" 
			},
			{
				"x": -1.4758520635,
				"y": 1.4601865316,
				"z": 1.5712970242,
				"element": "F" 
			},
			{
				"x": 1.8531472595,
				"y": -0.466785671,
				"z": 2.0573798823,
				"element": "H" 
			},
			{
				"x": 1.2854109158,
				"y": 1.070109058,
				"z": 1.3812869652,
				"element": "H" 
			},
			{
				"x": 0.7633538467,
				"y": 0.5778545462,
				"z": 2.9863302128,
				"element": "H" 
			},
			{
				"x": 0.771163004,
				"y": -2.4056962631,
				"z": 1.0967535067,
				"element": "H" 
			},
			{
				"x": -1.2180600457,
				"y": -3.5150770148,
				"z": 0.1064717588,
				"element": "H" 
			},
			{
				"x": -4.2724288088,
				"y": -2.9288615631,
				"z": 0.4748633255,
				"element": "H" 
			},
			{
				"x": -4.3494269598,
				"y": -1.7101426508,
				"z": -0.7969847099,
				"element": "H" 
			},
			{
				"x": -2.8506301251,
				"y": -3.1470711738,
				"z": -1.9404213157,
				"element": "H" 
			},
			{
				"x": -3.4294848099,
				"y": 0.1568485693,
				"z": 0.5182515339,
				"element": "H" 
			}
		],
		 "valence_orbital": [ 
			{
				"type": "occ",
				"energy": -0.34722,
				"method": "rhf"
			},
			{
				"type": "occ",
				"energy": -0.32804,
				"method": "rhf"
			},
			{
				"type": "occ",
				"energy": -0.27906,
				"method": "rhf"
			},
			{
				"type": "occ",
				"energy": -0.25009,
				"method": "rhf"
			},
			{
				"type": "occ",
				"energy": -0.23501,
				"method": "rhf"
			},
			{
				"type": "unocc",
				"energy": -0.00844,
				"method": "rhf"
			},
			{
				"type": "unocc",
				"energy": 0.00122,
				"method": "rhf"
			},
			{
				"type": "unocc",
				"energy": 0.08389,
				"method": "rhf"
			},
			{
				"type": "unocc",
				"energy": 0.10213,
				"method": "rhf"
			},
			{
				"type": "unocc",
				"energy": 0.11058,
				"method": "rhf"
			}
		],
		"cosmo_sigma_profile": { 
			"-0.025": 0.0,
			"-0.024": 0.0,
			"-0.023": 0.0,
			"-0.022": 0.0,
			"-0.021": 0.0,
			"-0.02": 0.0,
			"-0.019": 0.0,
			"-0.018": 0.0,
			"-0.017": 0.0,
			"-0.016": 0.123632742532,
			"-0.015": 1.04311757245,
			"-0.014": 0.700934354063,
			"-0.013": 1.10266575361,
			"-0.012": 0.760049768431,
			"-0.011": 0.683243080394,
			"-0.01": 0.440076636874,
			"-0.009": 0.845727937556,
			"-0.008": 1.00581323719,
			"-0.007": 1.77960607525,
			"-0.006": 5.33759427001,
			"-0.005": 11.3603632005,
			"-0.004": 16.7933167936,
			"-0.003": 15.4296420134,
			"-0.002": 13.6016482428,
			"-0.001": 14.4917588761,
			"0.0": 15.6809157529,
			"0.001": 14.2924982755,
			"0.002": 12.3356054582,
			"0.003": 10.6027376174,
			"0.004": 16.1684925366,
			"0.005": 14.1777571452,
			"0.006": 1.45944112707,
			"0.007": 1.69979153635,
			"0.008": 0.425250254379,
			"0.009": 1.5940877389,
			"0.01": 0.969557233006,
			"0.011": 1.08184164686,
			"0.012": 1.71233372458,
			"0.013": 1.35713368345,
			"0.014": 1.99444074758,
			"0.015": 0.0501500082658,
			"0.016": 0.0,
			"0.017": 0.0,
			"0.018": 0.0,
			"0.019": 0.0,
			"0.02": 0.0,
			"0.021": 0.0,
			"0.022": 0.0,
			"0.023": 0.0,
			"0.024": 0.0,
			"0.025": 0.0
		}
	}
}
