{
	 "smiles": "C(CC1=CC=CC=C1)NC1=CC=CC2=C1N=CC=C2", 
	 "Tm": 330.75, 
	 "num_atms": 35, 
	 "gaussian": { 
		 "optdone": 1, 
		 "sigma_profile": "yes", 
		 "theory": "DFT", 
		 "functional": "B3LYP", 
		 "basiset": "6-31G**", 
		 "properties": { 
			 "R2extent": 6878.6811, 
			 "electric_dipole_moment_norm": 0.895283050214, 
			 "electric_quadrupole_moment_norm": 12.8096225085, 
			 "total_energy": -766.965665643, 
			 "HOMO_LUMO_gap": 0.14257, 
			 "cosmo_polarized_energy": -10.05, 
			 "cosmo_cavitation_energy": 38.2, 
			 "cosmo_dispersion_energy": -26.86, 
			 "cosmo_repulsion_energy": 2.03, 
			 "cosmo_total_nonelectrostatic_energy": 13.38, 
			 "SMD_solvation_energy": 4.68 
		},
		"coords": [
			{
				"x": 0.5395132246,
				"y": 0.4750285115,
				"z": 0.15063443,
				"element": "C" 
			},
			{
				"x": -0.4944672349,
				"y": 0.0804029834,
				"z": -0.9303415718,
				"element": "C" 
			},
			{
				"x": -1.5998735423,
				"y": 1.103726712,
				"z": -1.057397891,
				"element": "C" 
			},
			{
				"x": -1.5674695414,
				"y": 2.0880237861,
				"z": -2.0543131439,
				"element": "C" 
			},
			{
				"x": -2.5709719835,
				"y": 3.0546131129,
				"z": -2.142881246,
				"element": "C" 
			},
			{
				"x": -3.6263318458,
				"y": 3.053599909,
				"z": -1.2295749503,
				"element": "C" 
			},
			{
				"x": -3.6702504922,
				"y": 2.0795017526,
				"z": -0.2294202912,
				"element": "C" 
			},
			{
				"x": -2.6659778949,
				"y": 1.1150933122,
				"z": -0.1453790896,
				"element": "C" 
			},
			{
				"x": 1.6402778604,
				"y": -0.475810204,
				"z": 0.3023253986,
				"element": "N" 
			},
			{
				"x": 1.5590127093,
				"y": -1.799650981,
				"z": 0.7101458368,
				"element": "C" 
			},
			{
				"x": 2.5182418774,
				"y": -2.6995879288,
				"z": 0.2392292123,
				"element": "C" 
			},
			{
				"x": 2.56670126,
				"y": -4.0396475815,
				"z": 0.659101119,
				"element": "C" 
			},
			{
				"x": 1.6471213533,
				"y": -4.5348623037,
				"z": 1.5576099126,
				"element": "C" 
			},
			{
				"x": 0.6487341107,
				"y": -3.6701133689,
				"z": 2.0668719754,
				"element": "C" 
			},
			{
				"x": 0.5867683612,
				"y": -2.2932798851,
				"z": 1.6584309745,
				"element": "C" 
			},
			{
				"x": -0.3572471496,
				"y": -1.4444253015,
				"z": 2.1547288288,
				"element": "N" 
			},
			{
				"x": -1.2311905419,
				"y": -1.8984647285,
				"z": 3.0310257517,
				"element": "C" 
			},
			{
				"x": -1.2584697567,
				"y": -3.2345211876,
				"z": 3.4946555414,
				"element": "C" 
			},
			{
				"x": -0.320274476,
				"y": -4.1109261972,
				"z": 3.0065938675,
				"element": "C" 
			},
			{
				"x": 0.0353581528,
				"y": 0.5919575891,
				"z": 1.1074884902,
				"element": "H" 
			},
			{
				"x": 0.9934921304,
				"y": 1.4364291011,
				"z": -0.1139832469,
				"element": "H" 
			},
			{
				"x": 0.0179424569,
				"y": -0.04321552,
				"z": -1.8925066831,
				"element": "H" 
			},
			{
				"x": -0.9137990128,
				"y": -0.8949192427,
				"z": -0.6604439701,
				"element": "H" 
			},
			{
				"x": -0.7506777753,
				"y": 2.0923438359,
				"z": -2.7727636048,
				"element": "H" 
			},
			{
				"x": -2.5298130551,
				"y": 3.8056189201,
				"z": -2.927170577,
				"element": "H" 
			},
			{
				"x": -4.4098701456,
				"y": 3.8029035931,
				"z": -1.2981990043,
				"element": "H" 
			},
			{
				"x": -4.4901928366,
				"y": 2.0688078783,
				"z": 0.4836518682,
				"element": "H" 
			},
			{
				"x": -2.7038368425,
				"y": 0.3565846707,
				"z": 0.6326266074,
				"element": "H" 
			},
			{
				"x": 2.3572009047,
				"y": -0.3512835926,
				"z": -0.4003087546,
				"element": "H" 
			},
			{
				"x": 3.2559513529,
				"y": -2.3448765764,
				"z": -0.477313937,
				"element": "H" 
			},
			{
				"x": 3.3403189645,
				"y": -4.687196417,
				"z": 0.2558446391,
				"element": "H" 
			},
			{
				"x": 1.6760296357,
				"y": -5.5698694485,
				"z": 1.8848556659,
				"element": "H" 
			},
			{
				"x": -1.9628924852,
				"y": -1.1810364142,
				"z": 3.4012901316,
				"element": "H" 
			},
			{
				"x": -2.0068802496,
				"y": -3.5461372527,
				"z": 4.2165340979,
				"element": "H" 
			},
			{
				"x": -0.2999774929,
				"y": -5.148111536,
				"z": 3.332053613,
				"element": "H" 
			}
		],
		 "valence_orbital": [ 
			{
				"type": "occ",
				"energy": -0.24883,
				"method": "rhf"
			},
			{
				"type": "occ",
				"energy": -0.2464,
				"method": "rhf"
			},
			{
				"type": "occ",
				"energy": -0.24255,
				"method": "rhf"
			},
			{
				"type": "occ",
				"energy": -0.2357,
				"method": "rhf"
			},
			{
				"type": "occ",
				"energy": -0.18572,
				"method": "rhf"
			},
			{
				"type": "unocc",
				"energy": -0.04315,
				"method": "rhf"
			},
			{
				"type": "unocc",
				"energy": -0.01087,
				"method": "rhf"
			},
			{
				"type": "unocc",
				"energy": 0.00493,
				"method": "rhf"
			},
			{
				"type": "unocc",
				"energy": 0.00618,
				"method": "rhf"
			},
			{
				"type": "unocc",
				"energy": 0.03625,
				"method": "rhf"
			}
		],
		"cosmo_sigma_profile": { 
			"-0.025": 0.0,
			"-0.024": 0.0,
			"-0.023": 0.0,
			"-0.022": 0.0,
			"-0.021": 0.0,
			"-0.02": 0.0,
			"-0.019": 0.0,
			"-0.018": 0.0,
			"-0.017": 0.0,
			"-0.016": 0.0,
			"-0.015": 0.0,
			"-0.014": 0.0,
			"-0.013": 0.0783718670617,
			"-0.012": 1.42356066937,
			"-0.011": 1.24542426482,
			"-0.01": 1.40756332763,
			"-0.009": 1.50401201126,
			"-0.008": 1.66348918425,
			"-0.007": 3.26214467167,
			"-0.006": 11.9542555454,
			"-0.005": 22.3316455004,
			"-0.004": 26.6450602782,
			"-0.003": 27.0597501085,
			"-0.002": 21.4851031272,
			"-0.001": 20.144641319,
			"0.0": 20.8476826141,
			"0.001": 21.1010146161,
			"0.002": 25.7775143178,
			"0.003": 28.7213999232,
			"0.004": 21.0530901202,
			"0.005": 18.7690733562,
			"0.006": 16.0181541308,
			"0.007": 6.10995233744,
			"0.008": 2.60816216003,
			"0.009": 1.96297604845,
			"0.01": 0.964940638329,
			"0.011": 0.419965983287,
			"0.012": 0.0259994154487,
			"0.013": 0.0,
			"0.014": 0.0,
			"0.015": 0.0,
			"0.016": 0.0,
			"0.017": 0.0,
			"0.018": 0.0,
			"0.019": 0.0,
			"0.02": 0.0,
			"0.021": 0.0,
			"0.022": 0.0,
			"0.023": 0.0,
			"0.024": 0.0,
			"0.025": 0.0
		}
	}
}
