{
	 "smiles": "[O-][N+](=O)C1=C(C=C(Cl)C=C1)C#N", 
	 "Tm": 364.65, 
	 "num_atms": 15, 
	 "gaussian": { 
		 "optdone": 1, 
		 "sigma_profile": "yes", 
		 "theory": "DFT", 
		 "functional": "B3LYP", 
		 "basiset": "6-31G**", 
		 "properties": { 
			 "R2extent": 3227.036, 
			 "electric_dipole_moment_norm": 5.5041413145, 
			 "electric_quadrupole_moment_norm": 12.3696782525, 
			 "total_energy": -988.563375464, 
			 "HOMO_LUMO_gap": 0.17652, 
			 "cosmo_polarized_energy": -13.18, 
			 "cosmo_cavitation_energy": 23.61, 
			 "cosmo_dispersion_energy": -16.99, 
			 "cosmo_repulsion_energy": 1.35, 
			 "cosmo_total_nonelectrostatic_energy": 7.97, 
			 "SMD_solvation_energy": 7.16 
		},
		"coords": [
			{
				"x": 1.4949532293,
				"y": 1.2333788453,
				"z": 0.7340515778,
				"element": "O" 
			},
			{
				"x": 0.5387177358,
				"y": 0.7320131528,
				"z": 1.3227245943,
				"element": "N" 
			},
			{
				"x": 0.4276103198,
				"y": 0.6383232782,
				"z": 2.5411049929,
				"element": "O" 
			},
			{
				"x": -0.5590648325,
				"y": 0.2026996189,
				"z": 0.4950323348,
				"element": "C" 
			},
			{
				"x": -1.695309506,
				"y": -0.3879869831,
				"z": 1.0799712715,
				"element": "C" 
			},
			{
				"x": -2.704434512,
				"y": -0.8717228713,
				"z": 0.230925039,
				"element": "C" 
			},
			{
				"x": -2.5684089384,
				"y": -0.7619800448,
				"z": -1.1512912756,
				"element": "C" 
			},
			{
				"x": -3.8361564404,
				"y": -1.3708745376,
				"z": -2.1822379872,
				"element": "Cl" 
			},
			{
				"x": -1.4367608173,
				"y": -0.1741989319,
				"z": -1.7209062131,
				"element": "C" 
			},
			{
				"x": -0.4331907114,
				"y": 0.3073559913,
				"z": -0.8876000868,
				"element": "C" 
			},
			{
				"x": -1.9170346228,
				"y": -0.5416997675,
				"z": 2.4891947533,
				"element": "C" 
			},
			{
				"x": -2.2432489218,
				"y": -0.7389476314,
				"z": 3.5875537645,
				"element": "N" 
			},
			{
				"x": -3.5866592181,
				"y": -1.3295285922,
				"z": 0.661334626,
				"element": "H" 
			},
			{
				"x": -1.3449427502,
				"y": -0.0959328439,
				"z": -2.7978980695,
				"element": "H" 
			},
			{
				"x": 0.458829986,
				"y": 0.7695013172,
				"z": -1.2907593218,
				"element": "H" 
			}
		],
		 "valence_orbital": [ 
			{
				"type": "occ",
				"energy": -0.32978,
				"method": "rhf"
			},
			{
				"type": "occ",
				"energy": -0.32592,
				"method": "rhf"
			},
			{
				"type": "occ",
				"energy": -0.30838,
				"method": "rhf"
			},
			{
				"type": "occ",
				"energy": -0.30434,
				"method": "rhf"
			},
			{
				"type": "occ",
				"energy": -0.29644,
				"method": "rhf"
			},
			{
				"type": "unocc",
				"energy": -0.11992,
				"method": "rhf"
			},
			{
				"type": "unocc",
				"energy": -0.07893,
				"method": "rhf"
			},
			{
				"type": "unocc",
				"energy": -0.03302,
				"method": "rhf"
			},
			{
				"type": "unocc",
				"energy": -0.00916,
				"method": "rhf"
			},
			{
				"type": "unocc",
				"energy": 0.02312,
				"method": "rhf"
			}
		],
		"cosmo_sigma_profile": { 
			"-0.025": 0.0,
			"-0.024": 0.0,
			"-0.023": 0.0,
			"-0.022": 0.0,
			"-0.021": 0.0,
			"-0.02": 0.0,
			"-0.019": 0.0,
			"-0.018": 0.0,
			"-0.017": 0.0,
			"-0.016": 0.0,
			"-0.015": 0.0,
			"-0.014": 0.0,
			"-0.013": 0.0,
			"-0.012": 0.0,
			"-0.011": 0.372655909331,
			"-0.01": 3.0974921318,
			"-0.009": 6.3390714152,
			"-0.008": 8.1571120164,
			"-0.007": 6.40195014315,
			"-0.006": 7.12142550916,
			"-0.005": 9.3002059085,
			"-0.004": 13.9116685649,
			"-0.003": 17.8655505842,
			"-0.002": 19.7677243205,
			"-0.001": 12.2405974979,
			"0.0": 6.49093714148,
			"0.001": 8.01040203807,
			"0.002": 10.5154850958,
			"0.003": 11.1458504147,
			"0.004": 5.19025345883,
			"0.005": 5.79136071328,
			"0.006": 8.7024470464,
			"0.007": 12.0886021753,
			"0.008": 9.25148459871,
			"0.009": 5.49139464394,
			"0.01": 3.00740026945,
			"0.011": 2.30314661656,
			"0.012": 1.75362478919,
			"0.013": 0.112708842292,
			"0.014": 0.0,
			"0.015": 0.0,
			"0.016": 0.0,
			"0.017": 0.0,
			"0.018": 0.0,
			"0.019": 0.0,
			"0.02": 0.0,
			"0.021": 0.0,
			"0.022": 0.0,
			"0.023": 0.0,
			"0.024": 0.0,
			"0.025": 0.0
		}
	}
}
