{
	 "smiles": "COC1=CC=C2C=C(C=CC2=C1)C(C)C(O)=O", 
	 "Tm": 425.15, 
	 "num_atms": 31, 
	 "gaussian": { 
		 "optdone": 1, 
		 "sigma_profile": "yes", 
		 "theory": "DFT", 
		 "functional": "B3LYP", 
		 "basiset": "6-31G**", 
		 "properties": { 
			 "R2extent": 5637.3742, 
			 "electric_dipole_moment_norm": 5.36713718103, 
			 "electric_quadrupole_moment_norm": 23.1341368155, 
			 "total_energy": -767.616724061, 
			 "HOMO_LUMO_gap": 0.17066, 
			 "cosmo_polarized_energy": -15.23, 
			 "cosmo_cavitation_energy": 34.57, 
			 "cosmo_dispersion_energy": -24.71, 
			 "cosmo_repulsion_energy": 1.9, 
			 "cosmo_total_nonelectrostatic_energy": 11.77, 
			 "SMD_solvation_energy": 7.49 
		},
		"coords": [
			{
				"x": -0.5676009264,
				"y": 3.3321527622,
				"z": 4.1577010469,
				"element": "C" 
			},
			{
				"x": -0.3431863576,
				"y": 3.8280746352,
				"z": 2.846443329,
				"element": "O" 
			},
			{
				"x": -0.2076515324,
				"y": 2.9273286806,
				"z": 1.8343488103,
				"element": "C" 
			},
			{
				"x": 0.0146910255,
				"y": 3.5076330149,
				"z": 0.5539932674,
				"element": "C" 
			},
			{
				"x": 0.1677805611,
				"y": 2.7114688544,
				"z": -0.5515709672,
				"element": "C" 
			},
			{
				"x": 0.1090872938,
				"y": 1.2932959466,
				"z": -0.4487559473,
				"element": "C" 
			},
			{
				"x": 0.2644900584,
				"y": 0.4424727156,
				"z": -1.5742506274,
				"element": "C" 
			},
			{
				"x": 0.2114746175,
				"y": -0.9353806956,
				"z": -1.4609991821,
				"element": "C" 
			},
			{
				"x": -0.0155476845,
				"y": -1.5014007304,
				"z": -0.1737851709,
				"element": "C" 
			},
			{
				"x": -0.1717213005,
				"y": -0.7044429779,
				"z": 0.9360315989,
				"element": "C" 
			},
			{
				"x": -0.1133206429,
				"y": 0.7130810606,
				"z": 0.8392511253,
				"element": "C" 
			},
			{
				"x": -0.270755073,
				"y": 1.5540241409,
				"z": 1.9743577386,
				"element": "C" 
			},
			{
				"x": 0.384583758,
				"y": -1.8349524126,
				"z": -2.6763018313,
				"element": "C" 
			},
			{
				"x": 1.5914924832,
				"y": -2.7784254113,
				"z": -2.5788932161,
				"element": "C" 
			},
			{
				"x": -0.8995166459,
				"y": -2.6265119022,
				"z": -2.9973777305,
				"element": "C" 
			},
			{
				"x": -2.0577006984,
				"y": -1.9376231108,
				"z": -2.8505662803,
				"element": "O" 
			},
			{
				"x": -0.9101137488,
				"y": -3.7639218157,
				"z": -3.3991811898,
				"element": "O" 
			},
			{
				"x": -1.4996379346,
				"y": 2.7556277655,
				"z": 4.2156007887,
				"element": "H" 
			},
			{
				"x": -0.6447483409,
				"y": 4.208303951,
				"z": 4.8029006487,
				"element": "H" 
			},
			{
				"x": 0.2650116497,
				"y": 2.7032011606,
				"z": 4.4977096706,
				"element": "H" 
			},
			{
				"x": 0.0578765017,
				"y": 4.5897331721,
				"z": 0.4871463147,
				"element": "H" 
			},
			{
				"x": 0.3377624607,
				"y": 3.1622980583,
				"z": -1.5257980038,
				"element": "H" 
			},
			{
				"x": 0.4440853874,
				"y": 0.8985764879,
				"z": -2.5462047936,
				"element": "H" 
			},
			{
				"x": -0.071071645,
				"y": -2.5817611817,
				"z": -0.0703878506,
				"element": "H" 
			},
			{
				"x": -0.3460026294,
				"y": -1.1564603368,
				"z": 1.9090944468,
				"element": "H" 
			},
			{
				"x": -0.4391923613,
				"y": 1.0923406331,
				"z": 2.9404697528,
				"element": "H" 
			},
			{
				"x": 0.5303726356,
				"y": -1.1802942927,
				"z": -3.5481917668,
				"element": "H" 
			},
			{
				"x": 1.5000013042,
				"y": -3.4511480979,
				"z": -1.7217387299,
				"element": "H" 
			},
			{
				"x": 1.6589633846,
				"y": -3.396953512,
				"z": -3.4758886849,
				"element": "H" 
			},
			{
				"x": 2.5138361992,
				"y": -2.2021499348,
				"z": -2.4666820143,
				"element": "H" 
			},
			{
				"x": -1.8664417989,
				"y": -1.0758866268,
				"z": -2.4459745519,
				"element": "H" 
			}
		],
		 "valence_orbital": [ 
			{
				"type": "occ",
				"energy": -0.3066,
				"method": "rhf"
			},
			{
				"type": "occ",
				"energy": -0.29284,
				"method": "rhf"
			},
			{
				"type": "occ",
				"energy": -0.26285,
				"method": "rhf"
			},
			{
				"type": "occ",
				"energy": -0.23998,
				"method": "rhf"
			},
			{
				"type": "occ",
				"energy": -0.21735,
				"method": "rhf"
			},
			{
				"type": "unocc",
				"energy": -0.04669,
				"method": "rhf"
			},
			{
				"type": "unocc",
				"energy": -0.01825,
				"method": "rhf"
			},
			{
				"type": "unocc",
				"energy": 0.01288,
				"method": "rhf"
			},
			{
				"type": "unocc",
				"energy": 0.02453,
				"method": "rhf"
			},
			{
				"type": "unocc",
				"energy": 0.08466,
				"method": "rhf"
			}
		],
		"cosmo_sigma_profile": { 
			"-0.025": 0.0,
			"-0.024": 0.0,
			"-0.023": 0.0,
			"-0.022": 0.0,
			"-0.021": 0.0,
			"-0.02": 0.0,
			"-0.019": 0.0,
			"-0.018": 0.0,
			"-0.017": 0.0,
			"-0.016": 0.0,
			"-0.015": 0.0153479226117,
			"-0.014": 0.724809355369,
			"-0.013": 0.506735759548,
			"-0.012": 0.773986689725,
			"-0.011": 1.73526171809,
			"-0.01": 1.32635605901,
			"-0.009": 1.08230234547,
			"-0.008": 1.72520013439,
			"-0.007": 7.8177761858,
			"-0.006": 21.1346838687,
			"-0.005": 22.2060615576,
			"-0.004": 23.2578777422,
			"-0.003": 23.6533847258,
			"-0.002": 18.3784588662,
			"-0.001": 15.5215593853,
			"0.0": 16.6774746211,
			"0.001": 15.0837818413,
			"0.002": 12.1980495796,
			"0.003": 19.0667881668,
			"0.004": 26.3828226999,
			"0.005": 9.60882741143,
			"0.006": 3.70339224925,
			"0.007": 3.61259704504,
			"0.008": 4.66358480081,
			"0.009": 4.58109039734,
			"0.01": 6.06183683504,
			"0.011": 5.36442338915,
			"0.012": 5.3467966269,
			"0.013": 1.93065857245,
			"0.014": 0.105667743149,
			"0.015": 0.0,
			"0.016": 0.0,
			"0.017": 0.0,
			"0.018": 0.0,
			"0.019": 0.0,
			"0.02": 0.0,
			"0.021": 0.0,
			"0.022": 0.0,
			"0.023": 0.0,
			"0.024": 0.0,
			"0.025": 0.0
		}
	}
}
