{
	 "smiles": "CN1C=C(C=N1)C1CC1C(O)=O", 
	 "Tm": 412.15, 
	 "num_atms": 22, 
	 "gaussian": { 
		 "optdone": 1, 
		 "sigma_profile": "yes", 
		 "theory": "DFT", 
		 "functional": "B3LYP", 
		 "basiset": "6-31G**", 
		 "properties": { 
			 "R2extent": 3189.5909, 
			 "electric_dipole_moment_norm": 1.92783047491, 
			 "electric_quadrupole_moment_norm": 18.9776588933, 
			 "total_energy": -570.795655087, 
			 "HOMO_LUMO_gap": 0.22956, 
			 "cosmo_polarized_energy": -14.05, 
			 "cosmo_cavitation_energy": 26.68, 
			 "cosmo_dispersion_energy": -19.21, 
			 "cosmo_repulsion_energy": 1.55, 
			 "cosmo_total_nonelectrostatic_energy": 9.01, 
			 "SMD_solvation_energy": 4.96 
		},
		"coords": [
			{
				"x": -0.9228461422,
				"y": -4.0439735875,
				"z": 2.0883048142,
				"element": "C" 
			},
			{
				"x": -1.1848722109,
				"y": -2.7405380346,
				"z": 1.5090098356,
				"element": "N" 
			},
			{
				"x": -1.1662493332,
				"y": -2.3897907099,
				"z": 0.1948235301,
				"element": "C" 
			},
			{
				"x": -1.3943262829,
				"y": -1.0239453797,
				"z": 0.1301005393,
				"element": "C" 
			},
			{
				"x": -1.5306134588,
				"y": -0.6456022143,
				"z": 1.489899876,
				"element": "C" 
			},
			{
				"x": -1.3987988578,
				"y": -1.6819482228,
				"z": 2.3174042829,
				"element": "N" 
			},
			{
				"x": -1.4752053086,
				"y": -0.1979501495,
				"z": -1.0942039906,
				"element": "C" 
			},
			{
				"x": -2.2293632205,
				"y": 1.0941574366,
				"z": -1.1379141459,
				"element": "C" 
			},
			{
				"x": -0.7150221014,
				"y": 1.1378279177,
				"z": -1.1746048052,
				"element": "C" 
			},
			{
				"x": -0.0734272568,
				"y": 1.4597078286,
				"z": -2.4703771186,
				"element": "C" 
			},
			{
				"x": 1.1130034511,
				"y": 2.0956239883,
				"z": -2.3101584034,
				"element": "O" 
			},
			{
				"x": -0.5267291941,
				"y": 1.1905736178,
				"z": -3.5663924911,
				"element": "O" 
			},
			{
				"x": -1.5647542373,
				"y": -4.1741731506,
				"z": 2.9607418127,
				"element": "H" 
			},
			{
				"x": -1.1485559261,
				"y": -4.8182414475,
				"z": 1.3522004931,
				"element": "H" 
			},
			{
				"x": 0.1232681891,
				"y": -4.1363683463,
				"z": 2.3991571145,
				"element": "H" 
			},
			{
				"x": -1.0052212028,
				"y": -3.1192930471,
				"z": -0.5861664886,
				"element": "H" 
			},
			{
				"x": -1.7275542531,
				"y": 0.3368687729,
				"z": 1.8993617326,
				"element": "H" 
			},
			{
				"x": -1.462139026,
				"y": -0.7522373836,
				"z": -2.0285372491,
				"element": "H" 
			},
			{
				"x": -2.7366359624,
				"y": 1.3468851376,
				"z": -2.0631541815,
				"element": "H" 
			},
			{
				"x": -2.7109436895,
				"y": 1.4417296447,
				"z": -0.2293713159,
				"element": "H" 
			},
			{
				"x": -0.1829039834,
				"y": 1.4581633987,
				"z": -0.2860769317,
				"element": "H" 
			},
			{
				"x": 1.4523900077,
				"y": 2.2541239305,
				"z": -3.2071469094,
				"element": "H" 
			}
		],
		 "valence_orbital": [ 
			{
				"type": "occ",
				"energy": -0.30145,
				"method": "rhf"
			},
			{
				"type": "occ",
				"energy": -0.28408,
				"method": "rhf"
			},
			{
				"type": "occ",
				"energy": -0.27444,
				"method": "rhf"
			},
			{
				"type": "occ",
				"energy": -0.24869,
				"method": "rhf"
			},
			{
				"type": "occ",
				"energy": -0.22567,
				"method": "rhf"
			},
			{
				"type": "unocc",
				"energy": 0.00389,
				"method": "rhf"
			},
			{
				"type": "unocc",
				"energy": 0.01902,
				"method": "rhf"
			},
			{
				"type": "unocc",
				"energy": 0.06874,
				"method": "rhf"
			},
			{
				"type": "unocc",
				"energy": 0.08324,
				"method": "rhf"
			},
			{
				"type": "unocc",
				"energy": 0.0967,
				"method": "rhf"
			}
		],
		"cosmo_sigma_profile": { 
			"-0.025": 0.0,
			"-0.024": 0.0,
			"-0.023": 0.0,
			"-0.022": 0.0,
			"-0.021": 0.0,
			"-0.02": 0.0,
			"-0.019": 0.0,
			"-0.018": 0.51006731563,
			"-0.017": 1.16101149124,
			"-0.016": 0.575241408497,
			"-0.015": 1.02200973798,
			"-0.014": 0.749387611002,
			"-0.013": 0.5065552622,
			"-0.012": 0.519152849638,
			"-0.011": 0.721641131768,
			"-0.01": 0.868070001802,
			"-0.009": 1.52761510912,
			"-0.008": 3.75955731391,
			"-0.007": 7.74225197394,
			"-0.006": 15.7698060442,
			"-0.005": 14.8589138335,
			"-0.004": 15.1747741261,
			"-0.003": 16.6176998134,
			"-0.002": 14.8744366722,
			"-0.001": 14.0468834361,
			"0.0": 12.5944175002,
			"0.001": 11.5264731437,
			"0.002": 10.0776594354,
			"0.003": 8.98290214982,
			"0.004": 9.18273736945,
			"0.005": 10.0663802188,
			"0.006": 5.79234084903,
			"0.007": 5.10049303223,
			"0.008": 4.23789547519,
			"0.009": 4.08135921906,
			"0.01": 3.58293359468,
			"0.011": 4.09605927037,
			"0.012": 6.06708116258,
			"0.013": 2.24432537515,
			"0.014": 0.85336979168,
			"0.015": 1.30481903602,
			"0.016": 0.673256123383,
			"0.017": 0.0,
			"0.018": 0.0,
			"0.019": 0.0,
			"0.02": 0.0,
			"0.021": 0.0,
			"0.022": 0.0,
			"0.023": 0.0,
			"0.024": 0.0,
			"0.025": 0.0
		}
	}
}
