{
	 "smiles": "CN(C(=O)CCl)C1=NC=CS1", 
	 "Tm": 397.15, 
	 "num_atms": 18, 
	 "gaussian": { 
		 "optdone": 1, 
		 "sigma_profile": "yes", 
		 "theory": "DFT", 
		 "functional": "B3LYP", 
		 "basiset": "6-31G**", 
		 "properties": { 
			 "R2extent": 3554.619, 
			 "electric_dipole_moment_norm": 5.09978889857, 
			 "electric_quadrupole_moment_norm": 14.8797467912, 
			 "total_energy": -1275.95420166, 
			 "HOMO_LUMO_gap": 0.19391, 
			 "cosmo_polarized_energy": -10.7, 
			 "cosmo_cavitation_energy": 25.02, 
			 "cosmo_dispersion_energy": -19.44, 
			 "cosmo_repulsion_energy": 1.51, 
			 "cosmo_total_nonelectrostatic_energy": 7.1, 
			 "SMD_solvation_energy": 4.41 
		},
		"coords": [
			{
				"x": 1.43378282,
				"y": -1.2959503787,
				"z": -2.3263223391,
				"element": "C" 
			},
			{
				"x": 1.4124588009,
				"y": -1.1251153713,
				"z": -0.8678738425,
				"element": "N" 
			},
			{
				"x": 1.7838228978,
				"y": -2.2527463193,
				"z": -0.0946751656,
				"element": "C" 
			},
			{
				"x": 2.0964871498,
				"y": -3.2872311232,
				"z": -0.6476502667,
				"element": "O" 
			},
			{
				"x": 1.7703564654,
				"y": -2.1024250195,
				"z": 1.4250365618,
				"element": "C" 
			},
			{
				"x": 2.2660013279,
				"y": -3.623300413,
				"z": 2.2390368763,
				"element": "Cl" 
			},
			{
				"x": 1.0327605072,
				"y": 0.1182190767,
				"z": -0.3742859329,
				"element": "C" 
			},
			{
				"x": 0.9540932864,
				"y": 0.4567678196,
				"z": 0.8818785333,
				"element": "N" 
			},
			{
				"x": 0.5464284974,
				"y": 1.7638808143,
				"z": 1.0195407278,
				"element": "C" 
			},
			{
				"x": 0.3060922165,
				"y": 2.4479750538,
				"z": -0.1312822414,
				"element": "C" 
			},
			{
				"x": 0.5994915193,
				"y": 1.417986253,
				"z": -1.5028538381,
				"element": "S" 
			},
			{
				"x": 1.7494159999,
				"y": -2.3150999994,
				"z": -2.5329636069,
				"element": "H" 
			},
			{
				"x": 2.1393967593,
				"y": -0.5937424227,
				"z": -2.7816510163,
				"element": "H" 
			},
			{
				"x": 0.4356771236,
				"y": -1.1291103586,
				"z": -2.7437868395,
				"element": "H" 
			},
			{
				"x": 0.7765779988,
				"y": -1.8323547376,
				"z": 1.7793673378,
				"element": "H" 
			},
			{
				"x": 2.4450422817,
				"y": -1.3085403663,
				"z": 1.7423141791,
				"element": "H" 
			},
			{
				"x": 0.439512874,
				"y": 2.1740864401,
				"z": 2.0167095947,
				"element": "H" 
			},
			{
				"x": -0.0178985259,
				"y": 3.470001052,
				"z": -0.2616387218,
				"element": "H" 
			}
		],
		 "valence_orbital": [ 
			{
				"type": "occ",
				"energy": -0.29525,
				"method": "rhf"
			},
			{
				"type": "occ",
				"energy": -0.2911,
				"method": "rhf"
			},
			{
				"type": "occ",
				"energy": -0.2886,
				"method": "rhf"
			},
			{
				"type": "occ",
				"energy": -0.28059,
				"method": "rhf"
			},
			{
				"type": "occ",
				"energy": -0.23453,
				"method": "rhf"
			},
			{
				"type": "unocc",
				"energy": -0.04062,
				"method": "rhf"
			},
			{
				"type": "unocc",
				"energy": 7e-05,
				"method": "rhf"
			},
			{
				"type": "unocc",
				"energy": 0.01085,
				"method": "rhf"
			},
			{
				"type": "unocc",
				"energy": 0.03135,
				"method": "rhf"
			},
			{
				"type": "unocc",
				"energy": 0.04279,
				"method": "rhf"
			}
		],
		"cosmo_sigma_profile": { 
			"-0.025": 0.0,
			"-0.024": 0.0,
			"-0.023": 0.0,
			"-0.022": 0.0,
			"-0.021": 0.0,
			"-0.02": 0.0,
			"-0.019": 0.0,
			"-0.018": 0.0,
			"-0.017": 0.0,
			"-0.016": 0.0,
			"-0.015": 0.0,
			"-0.014": 0.0,
			"-0.013": 0.0,
			"-0.012": 0.0,
			"-0.011": 0.0,
			"-0.01": 0.34726827199,
			"-0.009": 2.36124963103,
			"-0.008": 6.00557418264,
			"-0.007": 8.32008604313,
			"-0.006": 11.5328332773,
			"-0.005": 14.1404712531,
			"-0.004": 15.6950115708,
			"-0.003": 16.4197124335,
			"-0.002": 13.0004675774,
			"-0.001": 11.8402366429,
			"0.0": 12.60633527,
			"0.001": 13.2874423171,
			"0.002": 15.4911862937,
			"0.003": 13.6744177479,
			"0.004": 11.343082515,
			"0.005": 9.2243122558,
			"0.006": 10.4479561388,
			"0.007": 3.77696659609,
			"0.008": 2.54968689236,
			"0.009": 2.05900914868,
			"0.01": 2.66998263009,
			"0.011": 3.52091424363,
			"0.012": 2.67642501833,
			"0.013": 1.42254295503,
			"0.014": 0.0847935986839,
			"0.015": 0.0,
			"0.016": 0.0,
			"0.017": 0.0,
			"0.018": 0.0,
			"0.019": 0.0,
			"0.02": 0.0,
			"0.021": 0.0,
			"0.022": 0.0,
			"0.023": 0.0,
			"0.024": 0.0,
			"0.025": 0.0
		}
	}
}
