{
	 "smiles": "CCOC1=CC=C(C=C1)C(=O)OCCN(CC)CC", 
	 "Tm": 446.15, 
	 "num_atms": 42, 
	 "gaussian": { 
		 "optdone": 1, 
		 "sigma_profile": "yes", 
		 "theory": "DFT", 
		 "functional": "B3LYP", 
		 "basiset": "6-31G**", 
		 "properties": { 
			 "R2extent": 9260.0877, 
			 "electric_dipole_moment_norm": 2.30100815296, 
			 "electric_quadrupole_moment_norm": 21.6918334108, 
			 "total_energy": -865.89109827, 
			 "HOMO_LUMO_gap": 0.16822, 
			 "cosmo_polarized_energy": -10.26, 
			 "cosmo_cavitation_energy": 44.06, 
			 "cosmo_dispersion_energy": -30.48, 
			 "cosmo_repulsion_energy": 2.4, 
			 "cosmo_total_nonelectrostatic_energy": 15.99, 
			 "SMD_solvation_energy": 6.8 
		},
		"coords": [
			{
				"x": 3.5356312023,
				"y": -1.373956325,
				"z": 6.1199827663,
				"element": "C" 
			},
			{
				"x": 2.4686080399,
				"y": -0.6076662082,
				"z": 5.3586007869,
				"element": "C" 
			},
			{
				"x": 2.1523108597,
				"y": -1.3621808496,
				"z": 4.1859070951,
				"element": "O" 
			},
			{
				"x": 1.2138918954,
				"y": -0.885635613,
				"z": 3.3270975863,
				"element": "C" 
			},
			{
				"x": 0.9587253758,
				"y": -1.6861340589,
				"z": 2.1997921423,
				"element": "C" 
			},
			{
				"x": 0.0199359407,
				"y": -1.2903008128,
				"z": 1.2604447849,
				"element": "C" 
			},
			{
				"x": -0.6868477019,
				"y": -0.0855447203,
				"z": 1.4235892604,
				"element": "C" 
			},
			{
				"x": -0.4290972359,
				"y": 0.7039193522,
				"z": 2.5498753312,
				"element": "C" 
			},
			{
				"x": 0.5122726367,
				"y": 0.3173785082,
				"z": 3.5002711238,
				"element": "C" 
			},
			{
				"x": -1.7045073966,
				"y": 0.3909882113,
				"z": 0.4545367944,
				"element": "C" 
			},
			{
				"x": -2.3627686982,
				"y": 1.4066569201,
				"z": 0.5907106804,
				"element": "O" 
			},
			{
				"x": -1.8269549165,
				"y": -0.4379897694,
				"z": -0.6143986917,
				"element": "O" 
			},
			{
				"x": -2.8129230661,
				"y": -0.0702243829,
				"z": -1.6066701539,
				"element": "C" 
			},
			{
				"x": -2.2861352408,
				"y": 0.8915376379,
				"z": -2.6748857383,
				"element": "C" 
			},
			{
				"x": -1.4475862876,
				"y": 0.2558733652,
				"z": -3.692405969,
				"element": "N" 
			},
			{
				"x": -0.0666195735,
				"y": 0.0372360225,
				"z": -3.2421116105,
				"element": "C" 
			},
			{
				"x": 0.7229539865,
				"y": -0.9134734965,
				"z": -4.1439076127,
				"element": "C" 
			},
			{
				"x": -1.566794089,
				"y": 0.8928715003,
				"z": -5.0096917379,
				"element": "C" 
			},
			{
				"x": -1.0329268724,
				"y": 2.3304628674,
				"z": -5.1460965413,
				"element": "C" 
			},
			{
				"x": 3.8101343857,
				"y": -0.8310148217,
				"z": 7.0294986349,
				"element": "H" 
			},
			{
				"x": 4.4320590929,
				"y": -1.4995019629,
				"z": 5.5064918379,
				"element": "H" 
			},
			{
				"x": 3.1703500301,
				"y": -2.3647678737,
				"z": 6.4038192792,
				"element": "H" 
			},
			{
				"x": 2.8297887463,
				"y": 0.389816786,
				"z": 5.0725891422,
				"element": "H" 
			},
			{
				"x": 1.5659620613,
				"y": -0.4770431634,
				"z": 5.9712658045,
				"element": "H" 
			},
			{
				"x": 1.5119387164,
				"y": -2.6129949107,
				"z": 2.0902302828,
				"element": "H" 
			},
			{
				"x": -0.1772351969,
				"y": -1.9127185343,
				"z": 0.3952287349,
				"element": "H" 
			},
			{
				"x": -0.9816836525,
				"y": 1.6300094322,
				"z": 2.668408212,
				"element": "H" 
			},
			{
				"x": 0.6918448176,
				"y": 0.949342682,
				"z": 4.3614278178,
				"element": "H" 
			},
			{
				"x": -3.6624122526,
				"y": 0.3845314036,
				"z": -1.0914279907,
				"element": "H" 
			},
			{
				"x": -3.1088065039,
				"y": -1.0130683151,
				"z": -2.071326651,
				"element": "H" 
			},
			{
				"x": -1.8021309428,
				"y": 1.7469179577,
				"z": -2.1733811781,
				"element": "H" 
			},
			{
				"x": -3.1738544511,
				"y": 1.2928417428,
				"z": -3.1785630994,
				"element": "H" 
			},
			{
				"x": 0.4896946055,
				"y": 0.9876272177,
				"z": -3.1300045718,
				"element": "H" 
			},
			{
				"x": -0.1225379015,
				"y": -0.3992035609,
				"z": -2.2425909807,
				"element": "H" 
			},
			{
				"x": 0.9297270845,
				"y": -0.4853737661,
				"z": -5.1297333082,
				"element": "H" 
			},
			{
				"x": 1.6883454883,
				"y": -1.1472758613,
				"z": -3.6832779692,
				"element": "H" 
			},
			{
				"x": 0.1731739966,
				"y": -1.8489101475,
				"z": -4.2878749998,
				"element": "H" 
			},
			{
				"x": -1.0643373556,
				"y": 0.2526161714,
				"z": -5.7423871027,
				"element": "H" 
			},
			{
				"x": -2.6298604751,
				"y": 0.8786356152,
				"z": -5.2805842989,
				"element": "H" 
			},
			{
				"x": -1.5376358883,
				"y": 3.0173299436,
				"z": -4.4586486613,
				"element": "H" 
			},
			{
				"x": -1.1998503652,
				"y": 2.6978923482,
				"z": -6.1645279945,
				"element": "H" 
			},
			{
				"x": 0.041957102,
				"y": 2.3884934685,
				"z": -4.9474712364,
				"element": "H" 
			}
		],
		 "valence_orbital": [ 
			{
				"type": "occ",
				"energy": -0.28888,
				"method": "rhf"
			},
			{
				"type": "occ",
				"energy": -0.2656,
				"method": "rhf"
			},
			{
				"type": "occ",
				"energy": -0.25721,
				"method": "rhf"
			},
			{
				"type": "occ",
				"energy": -0.22654,
				"method": "rhf"
			},
			{
				"type": "occ",
				"energy": -0.20061,
				"method": "rhf"
			},
			{
				"type": "unocc",
				"energy": -0.03239,
				"method": "rhf"
			},
			{
				"type": "unocc",
				"energy": -0.00541,
				"method": "rhf"
			},
			{
				"type": "unocc",
				"energy": 0.06964,
				"method": "rhf"
			},
			{
				"type": "unocc",
				"energy": 0.08474,
				"method": "rhf"
			},
			{
				"type": "unocc",
				"energy": 0.09216,
				"method": "rhf"
			}
		],
		"cosmo_sigma_profile": { 
			"-0.025": 0.0,
			"-0.024": 0.0,
			"-0.023": 0.0,
			"-0.022": 0.0,
			"-0.021": 0.0,
			"-0.02": 0.0,
			"-0.019": 0.0,
			"-0.018": 0.0,
			"-0.017": 0.0,
			"-0.016": 0.0,
			"-0.015": 0.0,
			"-0.014": 0.0,
			"-0.013": 0.0,
			"-0.012": 0.0,
			"-0.011": 0.0,
			"-0.01": 0.0,
			"-0.009": 0.0,
			"-0.008": 0.0,
			"-0.007": 1.77357921967,
			"-0.006": 6.6271976231,
			"-0.005": 20.5245100825,
			"-0.004": 26.0420324515,
			"-0.003": 34.4431332578,
			"-0.002": 41.0780439619,
			"-0.001": 45.6015220309,
			"0.0": 41.6572135854,
			"0.001": 34.3685555911,
			"0.002": 23.2570171846,
			"0.003": 18.7683038945,
			"0.004": 17.4965784471,
			"0.005": 6.02559890488,
			"0.006": 5.10950472327,
			"0.007": 3.22028705474,
			"0.008": 3.06310069564,
			"0.009": 4.27643497944,
			"0.01": 2.43668783561,
			"0.011": 2.64255374053,
			"0.012": 4.60903999446,
			"0.013": 1.48385584815,
			"0.014": 0.603648738661,
			"0.015": 0.0131220035153,
			"0.016": 0.0,
			"0.017": 0.0,
			"0.018": 0.0,
			"0.019": 0.0,
			"0.02": 0.0,
			"0.021": 0.0,
			"0.022": 0.0,
			"0.023": 0.0,
			"0.024": 0.0,
			"0.025": 0.0
		}
	}
}
