{
	 "smiles": "OC(=O)C1=C(SC2=CC=C(Cl)C=C2)N=CC=C1", 
	 "Tm": 493.15, 
	 "num_atms": 25, 
	 "gaussian": { 
		 "optdone": 1, 
		 "sigma_profile": "yes", 
		 "theory": "DFT", 
		 "functional": "B3LYP", 
		 "basiset": "6-31G**", 
		 "properties": { 
			 "R2extent": 6248.7267, 
			 "electric_dipole_moment_norm": 3.82335470889, 
			 "electric_quadrupole_moment_norm": 21.3982192404, 
			 "total_energy": -1525.6766596, 
			 "HOMO_LUMO_gap": 0.189, 
			 "cosmo_polarized_energy": -13.07, 
			 "cosmo_cavitation_energy": 33.63, 
			 "cosmo_dispersion_energy": -24.69, 
			 "cosmo_repulsion_energy": 1.86, 
			 "cosmo_total_nonelectrostatic_energy": 10.81, 
			 "SMD_solvation_energy": 5.66 
		},
		"coords": [
			{
				"x": 1.3702595738,
				"y": -0.2410457146,
				"z": -3.1553492938,
				"element": "O" 
			},
			{
				"x": 2.4264862167,
				"y": -0.591258166,
				"z": -2.4058281486,
				"element": "C" 
			},
			{
				"x": 3.4035604609,
				"y": -1.089156792,
				"z": -2.9208956626,
				"element": "O" 
			},
			{
				"x": 2.3674665401,
				"y": -0.3921532784,
				"z": -0.9025373606,
				"element": "C" 
			},
			{
				"x": 1.4348006852,
				"y": 0.3451868546,
				"z": -0.1397345898,
				"element": "C" 
			},
			{
				"x": 0.1612300371,
				"y": 1.371809199,
				"z": -0.9326202008,
				"element": "S" 
			},
			{
				"x": -1.2867945307,
				"y": 1.0705628011,
				"z": 0.0821435862,
				"element": "C" 
			},
			{
				"x": -2.3162383641,
				"y": 0.2585659774,
				"z": -0.4070164216,
				"element": "C" 
			},
			{
				"x": -3.4757640756,
				"y": 0.0668220732,
				"z": 0.3437438095,
				"element": "C" 
			},
			{
				"x": -3.5898231133,
				"y": 0.6890363402,
				"z": 1.5867755838,
				"element": "C" 
			},
			{
				"x": -5.0441739954,
				"y": 0.4490864654,
				"z": 2.5381414019,
				"element": "Cl" 
			},
			{
				"x": -2.571574561,
				"y": 1.5017978313,
				"z": 2.0867011545,
				"element": "C" 
			},
			{
				"x": -1.4197845748,
				"y": 1.6974130761,
				"z": 1.3267305344,
				"element": "C" 
			},
			{
				"x": 1.4598082246,
				"y": 0.4045591998,
				"z": 1.1901565187,
				"element": "N" 
			},
			{
				"x": 2.4073537241,
				"y": -0.2687793746,
				"z": 1.8476620514,
				"element": "C" 
			},
			{
				"x": 3.403051557,
				"y": -1.0020152226,
				"z": 1.2030092251,
				"element": "C" 
			},
			{
				"x": 3.3754456751,
				"y": -1.0541427737,
				"z": -0.18383311,
				"element": "C" 
			},
			{
				"x": 0.6567076162,
				"y": 0.1508067833,
				"z": -2.6097493376,
				"element": "H" 
			},
			{
				"x": -2.215807554,
				"y": -0.2250023843,
				"z": -1.3731298018,
				"element": "H" 
			},
			{
				"x": -4.2780269957,
				"y": -0.5602928724,
				"z": -0.028395657,
				"element": "H" 
			},
			{
				"x": -2.6823034829,
				"y": 1.9793253343,
				"z": 3.053768024,
				"element": "H" 
			},
			{
				"x": -0.6210932904,
				"y": 2.325580818,
				"z": 1.7015232153,
				"element": "H" 
			},
			{
				"x": 2.3717008086,
				"y": -0.2047965663,
				"z": 2.9332853283,
				"element": "H" 
			},
			{
				"x": 4.1702745228,
				"y": -1.5157762685,
				"z": 1.7722462294,
				"element": "H" 
			},
			{
				"x": 4.1124388958,
				"y": -1.6100333401,
				"z": -0.7528970782,
				"element": "H" 
			}
		],
		 "valence_orbital": [ 
			{
				"type": "occ",
				"energy": -0.29346,
				"method": "rhf"
			},
			{
				"type": "occ",
				"energy": -0.27987,
				"method": "rhf"
			},
			{
				"type": "occ",
				"energy": -0.27079,
				"method": "rhf"
			},
			{
				"type": "occ",
				"energy": -0.26589,
				"method": "rhf"
			},
			{
				"type": "occ",
				"energy": -0.25542,
				"method": "rhf"
			},
			{
				"type": "unocc",
				"energy": -0.06642,
				"method": "rhf"
			},
			{
				"type": "unocc",
				"energy": -0.05128,
				"method": "rhf"
			},
			{
				"type": "unocc",
				"energy": -0.04383,
				"method": "rhf"
			},
			{
				"type": "unocc",
				"energy": -0.02939,
				"method": "rhf"
			},
			{
				"type": "unocc",
				"energy": 0.01372,
				"method": "rhf"
			}
		],
		"cosmo_sigma_profile": { 
			"-0.025": 0.0,
			"-0.024": 0.0,
			"-0.023": 0.0,
			"-0.022": 0.0,
			"-0.021": 0.0,
			"-0.02": 0.0,
			"-0.019": 0.0,
			"-0.018": 0.0,
			"-0.017": 0.0,
			"-0.016": 0.0,
			"-0.015": 0.0,
			"-0.014": 0.0,
			"-0.013": 0.0,
			"-0.012": 0.0,
			"-0.011": 0.0111278521255,
			"-0.01": 0.26679777123,
			"-0.009": 1.55659938764,
			"-0.008": 7.98498391784,
			"-0.007": 17.8395234599,
			"-0.006": 16.1221446421,
			"-0.005": 13.0885091358,
			"-0.004": 14.1686029832,
			"-0.003": 13.7917269292,
			"-0.002": 19.1741174681,
			"-0.001": 22.3449648964,
			"0.0": 26.9777606483,
			"0.001": 24.7408014919,
			"0.002": 23.5004960248,
			"0.003": 17.423960136,
			"0.004": 16.0115915615,
			"0.005": 7.67728660214,
			"0.006": 4.95162650587,
			"0.007": 4.64333286366,
			"0.008": 5.06039957959,
			"0.009": 3.35401426255,
			"0.01": 4.57637847311,
			"0.011": 5.70790998296,
			"0.012": 3.17689237899,
			"0.013": 1.466827651,
			"0.014": 0.035851924115,
			"0.015": 0.0,
			"0.016": 0.0,
			"0.017": 0.0,
			"0.018": 0.0,
			"0.019": 0.0,
			"0.02": 0.0,
			"0.021": 0.0,
			"0.022": 0.0,
			"0.023": 0.0,
			"0.024": 0.0,
			"0.025": 0.0
		}
	}
}
