{
	 "smiles": "OC(=O)C1CSCN1C(=O)C1=CNC2=C1C=CC=C2", 
	 "Tm": 433.15, 
	 "num_atms": 31, 
	 "gaussian": { 
		 "optdone": 1, 
		 "sigma_profile": "yes", 
		 "theory": "DFT", 
		 "functional": "B3LYP", 
		 "basiset": "6-31G**", 
		 "properties": { 
			 "R2extent": 5668.0593, 
			 "electric_dipole_moment_norm": 2.3099262564, 
			 "electric_quadrupole_moment_norm": 30.7399609915, 
			 "total_energy": -1236.00080083, 
			 "HOMO_LUMO_gap": 0.18608, 
			 "cosmo_polarized_energy": -20.73, 
			 "cosmo_cavitation_energy": 36.08, 
			 "cosmo_dispersion_energy": -25.99, 
			 "cosmo_repulsion_energy": 1.94, 
			 "cosmo_total_nonelectrostatic_energy": 12.04, 
			 "SMD_solvation_energy": 6.86 
		},
		"coords": [
			{
				"x": -0.9342831207,
				"y": 4.4894694519,
				"z": -0.4762743785,
				"element": "O" 
			},
			{
				"x": -0.9795233786,
				"y": 3.142514252,
				"z": -0.5939392291,
				"element": "C" 
			},
			{
				"x": -1.6942743988,
				"y": 2.5743427768,
				"z": -1.3877367596,
				"element": "O" 
			},
			{
				"x": -0.0414527612,
				"y": 2.4789735548,
				"z": 0.4125685449,
				"element": "C" 
			},
			{
				"x": 1.4271394267,
				"y": 2.9348545041,
				"z": 0.256300589,
				"element": "C" 
			},
			{
				"x": 2.1528454437,
				"y": 1.8307607705,
				"z": -1.0298043402,
				"element": "S" 
			},
			{
				"x": 0.7000925302,
				"y": 0.6450407757,
				"z": -0.9262871903,
				"element": "C" 
			},
			{
				"x": -0.0639547004,
				"y": 1.0360333264,
				"z": 0.244496136,
				"element": "N" 
			},
			{
				"x": -0.1227872941,
				"y": 0.256812384,
				"z": 1.4071839542,
				"element": "C" 
			},
			{
				"x": -0.1466784493,
				"y": 0.7754283754,
				"z": 2.5209986063,
				"element": "O" 
			},
			{
				"x": -0.2137037716,
				"y": -1.2023267708,
				"z": 1.2169006429,
				"element": "C" 
			},
			{
				"x": 0.2826128495,
				"y": -2.1003861871,
				"z": 2.1379104787,
				"element": "C" 
			},
			{
				"x": 0.0048206402,
				"y": -3.3783148977,
				"z": 1.7330800937,
				"element": "N" 
			},
			{
				"x": -0.711295516,
				"y": -3.3458001884,
				"z": 0.5462622869,
				"element": "C" 
			},
			{
				"x": -0.8744838882,
				"y": -1.9806986314,
				"z": 0.1884267978,
				"element": "C" 
			},
			{
				"x": -1.6287807065,
				"y": -1.6661890667,
				"z": -0.9567747264,
				"element": "C" 
			},
			{
				"x": -2.1564121933,
				"y": -2.7034541385,
				"z": -1.7158424844,
				"element": "C" 
			},
			{
				"x": -1.957338761,
				"y": -4.051823052,
				"z": -1.3559845663,
				"element": "C" 
			},
			{
				"x": -1.2376934446,
				"y": -4.392390375,
				"z": -0.2165174303,
				"element": "C" 
			},
			{
				"x": -1.5551166758,
				"y": 4.8428563677,
				"z": -1.1354453643,
				"element": "H" 
			},
			{
				"x": -0.3956176995,
				"y": 2.7101290458,
				"z": 1.4209482931,
				"element": "H" 
			},
			{
				"x": 1.5054152238,
				"y": 3.9764315929,
				"z": -0.0558600881,
				"element": "H" 
			},
			{
				"x": 1.9524317122,
				"y": 2.795347077,
				"z": 1.2030435441,
				"element": "H" 
			},
			{
				"x": 1.0628908466,
				"y": -0.3759903732,
				"z": -0.8329314846,
				"element": "H" 
			},
			{
				"x": 0.110200669,
				"y": 0.7569724441,
				"z": -1.8359895175,
				"element": "H" 
			},
			{
				"x": 0.821558082,
				"y": -1.8987530062,
				"z": 3.0519171262,
				"element": "H" 
			},
			{
				"x": 0.2781368298,
				"y": -4.2137878523,
				"z": 2.2253671059,
				"element": "H" 
			},
			{
				"x": -1.8088681039,
				"y": -0.6309579056,
				"z": -1.228713917,
				"element": "H" 
			},
			{
				"x": -2.7400955892,
				"y": -2.472371589,
				"z": -2.6019125678,
				"element": "H" 
			},
			{
				"x": -2.3821833246,
				"y": -4.8379238452,
				"z": -1.9729600508,
				"element": "H" 
			},
			{
				"x": -1.0981004767,
				"y": -5.4298988204,
				"z": 0.0735698953,
				"element": "H" 
			}
		],
		 "valence_orbital": [ 
			{
				"type": "occ",
				"energy": -0.26122,
				"method": "rhf"
			},
			{
				"type": "occ",
				"energy": -0.24808,
				"method": "rhf"
			},
			{
				"type": "occ",
				"energy": -0.23257,
				"method": "rhf"
			},
			{
				"type": "occ",
				"energy": -0.22346,
				"method": "rhf"
			},
			{
				"type": "occ",
				"energy": -0.21454,
				"method": "rhf"
			},
			{
				"type": "unocc",
				"energy": -0.02846,
				"method": "rhf"
			},
			{
				"type": "unocc",
				"energy": -0.00817,
				"method": "rhf"
			},
			{
				"type": "unocc",
				"energy": -0.00053,
				"method": "rhf"
			},
			{
				"type": "unocc",
				"energy": 0.01715,
				"method": "rhf"
			},
			{
				"type": "unocc",
				"energy": 0.03088,
				"method": "rhf"
			}
		],
		"cosmo_sigma_profile": { 
			"-0.025": 0.0,
			"-0.024": 0.0,
			"-0.023": 0.0,
			"-0.022": 0.0,
			"-0.021": 0.0,
			"-0.02": 0.0,
			"-0.019": 0.320272681352,
			"-0.018": 1.04742009897,
			"-0.017": 1.17591572984,
			"-0.016": 3.19186237446,
			"-0.015": 1.82564330657,
			"-0.014": 1.50602566177,
			"-0.013": 2.4003919132,
			"-0.012": 1.74696755477,
			"-0.011": 2.48597304487,
			"-0.01": 2.02574426465,
			"-0.009": 3.78555285879,
			"-0.008": 4.16881413651,
			"-0.007": 7.21264404754,
			"-0.006": 12.0068394241,
			"-0.005": 15.9367455641,
			"-0.004": 18.7748630547,
			"-0.003": 21.004255766,
			"-0.002": 19.2607669352,
			"-0.001": 15.4516924791,
			"0.0": 18.0765444249,
			"0.001": 15.7399156475,
			"0.002": 18.2070575953,
			"0.003": 16.122396878,
			"0.004": 17.6503053512,
			"0.005": 15.8134251512,
			"0.006": 14.8089948199,
			"0.007": 7.10370702751,
			"0.008": 6.73084447397,
			"0.009": 5.47276719712,
			"0.01": 5.66221009717,
			"0.011": 5.22306097978,
			"0.012": 3.01503084278,
			"0.013": 3.79886171287,
			"0.014": 0.903496738407,
			"0.015": 0.0,
			"0.016": 0.0,
			"0.017": 0.0,
			"0.018": 0.0,
			"0.019": 0.0,
			"0.02": 0.0,
			"0.021": 0.0,
			"0.022": 0.0,
			"0.023": 0.0,
			"0.024": 0.0,
			"0.025": 0.0
		}
	}
}
