{
	 "smiles": "COC(=O)C1CC2=CC=CC=C2C(=O)C1C(=O)OC", 
	 "Tm": 361.15, 
	 "num_atms": 33, 
	 "gaussian": { 
		 "optdone": 1, 
		 "sigma_profile": "yes", 
		 "theory": "DFT", 
		 "functional": "B3LYP", 
		 "basiset": "6-31G**", 
		 "properties": { 
			 "R2extent": 5005.0839, 
			 "electric_dipole_moment_norm": 3.39216839352, 
			 "electric_quadrupole_moment_norm": 16.6600042056, 
			 "total_energy": -918.063894639, 
			 "HOMO_LUMO_gap": 0.19252, 
			 "cosmo_polarized_energy": -17.98, 
			 "cosmo_cavitation_energy": 36.73, 
			 "cosmo_dispersion_energy": -24.46, 
			 "cosmo_repulsion_energy": 1.89, 
			 "cosmo_total_nonelectrostatic_energy": 14.16, 
			 "SMD_solvation_energy": 9.3 
		},
		"coords": [
			{
				"x": 1.3921444019,
				"y": -3.0730893219,
				"z": 1.2529387513,
				"element": "C" 
			},
			{
				"x": 0.9244757354,
				"y": -1.7338376373,
				"z": 1.0244156453,
				"element": "O" 
			},
			{
				"x": -0.3814967752,
				"y": -1.6146393524,
				"z": 0.7200893714,
				"element": "C" 
			},
			{
				"x": -1.1572493357,
				"y": -2.5450794027,
				"z": 0.6996025209,
				"element": "O" 
			},
			{
				"x": -0.7932544629,
				"y": -0.1641139962,
				"z": 0.4761207986,
				"element": "C" 
			},
			{
				"x": -0.9237241075,
				"y": 0.6096111763,
				"z": 1.8097255334,
				"element": "C" 
			},
			{
				"x": 0.3976087821,
				"y": 1.0569150001,
				"z": 2.4017896366,
				"element": "C" 
			},
			{
				"x": 0.4926939216,
				"y": 1.3475676479,
				"z": 3.7673988419,
				"element": "C" 
			},
			{
				"x": 1.6917013938,
				"y": 1.7918542603,
				"z": 4.3234611046,
				"element": "C" 
			},
			{
				"x": 2.8268804317,
				"y": 1.946886836,
				"z": 3.5208822817,
				"element": "C" 
			},
			{
				"x": 2.750734229,
				"y": 1.6526769789,
				"z": 2.1648056374,
				"element": "C" 
			},
			{
				"x": 1.544234523,
				"y": 1.2143850219,
				"z": 1.5989734543,
				"element": "C" 
			},
			{
				"x": 1.516472439,
				"y": 0.9063990687,
				"z": 0.1411503794,
				"element": "C" 
			},
			{
				"x": 2.516392677,
				"y": 0.9311956163,
				"z": -0.5556467712,
				"element": "O" 
			},
			{
				"x": 0.130284804,
				"y": 0.6414937218,
				"z": -0.4676035443,
				"element": "C" 
			},
			{
				"x": 0.2432246462,
				"y": 0.106412367,
				"z": -1.8886741548,
				"element": "C" 
			},
			{
				"x": 0.0656466245,
				"y": 0.7745589273,
				"z": -2.8815576623,
				"element": "O" 
			},
			{
				"x": 0.5463855705,
				"y": -1.2061237919,
				"z": -1.9087682958,
				"element": "O" 
			},
			{
				"x": 0.6892422853,
				"y": -1.7840430992,
				"z": -3.2184587417,
				"element": "C" 
			},
			{
				"x": 2.4494749446,
				"y": -2.9768446313,
				"z": 1.4973678492,
				"element": "H" 
			},
			{
				"x": 1.2593792593,
				"y": -3.6777674354,
				"z": 0.3526497551,
				"element": "H" 
			},
			{
				"x": 0.8442904791,
				"y": -3.5361939659,
				"z": 2.0769743327,
				"element": "H" 
			},
			{
				"x": -1.7870402433,
				"y": -0.2374793378,
				"z": 0.0264877595,
				"element": "H" 
			},
			{
				"x": -1.4782324775,
				"y": 0.0075461824,
				"z": 2.5376621977,
				"element": "H" 
			},
			{
				"x": -1.5443669782,
				"y": 1.496190747,
				"z": 1.6161429027,
				"element": "H" 
			},
			{
				"x": -0.3813619619,
				"y": 1.2201145759,
				"z": 4.4013156422,
				"element": "H" 
			},
			{
				"x": 1.7426980899,
				"y": 2.0115907568,
				"z": 5.3861898428,
				"element": "H" 
			},
			{
				"x": 3.7609143002,
				"y": 2.2906999068,
				"z": 3.9549557324,
				"element": "H" 
			},
			{
				"x": 3.6119808141,
				"y": 1.7521910556,
				"z": 1.5123008831,
				"element": "H" 
			},
			{
				"x": -0.3257039458,
				"y": 1.6344383318,
				"z": -0.5824239556,
				"element": "H" 
			},
			{
				"x": -0.231626705,
				"y": -1.6627136063,
				"z": -3.79357577,
				"element": "H" 
			},
			{
				"x": 1.5109264736,
				"y": -1.3039420016,
				"z": -3.754717581,
				"element": "H" 
			},
			{
				"x": 0.9021701675,
				"y": -2.839560599,
				"z": -3.0521743776,
				"element": "H" 
			}
		],
		 "valence_orbital": [ 
			{
				"type": "occ",
				"energy": -0.27498,
				"method": "rhf"
			},
			{
				"type": "occ",
				"energy": -0.2732,
				"method": "rhf"
			},
			{
				"type": "occ",
				"energy": -0.26186,
				"method": "rhf"
			},
			{
				"type": "occ",
				"energy": -0.25662,
				"method": "rhf"
			},
			{
				"type": "occ",
				"energy": -0.2517,
				"method": "rhf"
			},
			{
				"type": "unocc",
				"energy": -0.05918,
				"method": "rhf"
			},
			{
				"type": "unocc",
				"energy": -0.01532,
				"method": "rhf"
			},
			{
				"type": "unocc",
				"energy": 0.00104,
				"method": "rhf"
			},
			{
				"type": "unocc",
				"energy": 0.01484,
				"method": "rhf"
			},
			{
				"type": "unocc",
				"energy": 0.03478,
				"method": "rhf"
			}
		],
		"cosmo_sigma_profile": { 
			"-0.025": 0.0,
			"-0.024": 0.0,
			"-0.023": 0.0,
			"-0.022": 0.0,
			"-0.021": 0.0,
			"-0.02": 0.0,
			"-0.019": 0.0,
			"-0.018": 0.0,
			"-0.017": 0.0,
			"-0.016": 0.0,
			"-0.015": 0.0,
			"-0.014": 0.0,
			"-0.013": 0.0,
			"-0.012": 0.0,
			"-0.011": 0.0,
			"-0.01": 0.0,
			"-0.009": 1.9843433919,
			"-0.008": 4.76211924515,
			"-0.007": 10.2594074281,
			"-0.006": 26.9298322823,
			"-0.005": 28.7345067086,
			"-0.004": 31.8560950551,
			"-0.003": 27.2120453982,
			"-0.002": 16.2419744362,
			"-0.001": 11.6932240168,
			"0.0": 11.4229326121,
			"0.001": 14.1271454937,
			"0.002": 13.0446257332,
			"0.003": 14.2640998599,
			"0.004": 16.3742022233,
			"0.005": 9.49121819985,
			"0.006": 6.16458377774,
			"0.007": 7.82543196448,
			"0.008": 5.00925827982,
			"0.009": 4.84604909651,
			"0.01": 7.66115184443,
			"0.011": 11.3497685057,
			"0.012": 8.77167266643,
			"0.013": 0.797670787446,
			"0.014": 0.0,
			"0.015": 0.0,
			"0.016": 0.0,
			"0.017": 0.0,
			"0.018": 0.0,
			"0.019": 0.0,
			"0.02": 0.0,
			"0.021": 0.0,
			"0.022": 0.0,
			"0.023": 0.0,
			"0.024": 0.0,
			"0.025": 0.0
		}
	}
}
