{
	 "smiles": "NNC(=O)C1=C2C=CC=CC2=NC(=C1)C1=CC=NC=C1", 
	 "Tm": 500.15, 
	 "num_atms": 32, 
	 "gaussian": { 
		 "optdone": 1, 
		 "sigma_profile": "yes", 
		 "theory": "DFT", 
		 "functional": "B3LYP", 
		 "basiset": "6-31G**", 
		 "properties": { 
			 "R2extent": 6205.3056, 
			 "electric_dipole_moment_norm": 4.39735687317, 
			 "electric_quadrupole_moment_norm": 13.7695812671, 
			 "total_energy": -873.039678197, 
			 "HOMO_LUMO_gap": 0.15979, 
			 "cosmo_polarized_energy": -18.56, 
			 "cosmo_cavitation_energy": 36.52, 
			 "cosmo_dispersion_energy": -26.3, 
			 "cosmo_repulsion_energy": 1.99, 
			 "cosmo_total_nonelectrostatic_energy": 12.22, 
			 "SMD_solvation_energy": 4.54 
		},
		"coords": [
			{
				"x": -0.6244158245,
				"y": -3.6631183172,
				"z": -0.0228771007,
				"element": "N" 
			},
			{
				"x": -1.5589599241,
				"y": -3.134899483,
				"z": 0.8892201252,
				"element": "N" 
			},
			{
				"x": -1.7753260909,
				"y": -1.8017257197,
				"z": 1.1540708655,
				"element": "C" 
			},
			{
				"x": -2.8176973055,
				"y": -1.4117724694,
				"z": 1.6611822261,
				"element": "O" 
			},
			{
				"x": -0.6722160753,
				"y": -0.8387198898,
				"z": 0.7789326575,
				"element": "C" 
			},
			{
				"x": 0.6643529394,
				"y": -0.935690995,
				"z": 1.2733938511,
				"element": "C" 
			},
			{
				"x": 1.1226123231,
				"y": -1.9447518551,
				"z": 2.1634105073,
				"element": "C" 
			},
			{
				"x": 2.4303973637,
				"y": -1.9530343046,
				"z": 2.5985282576,
				"element": "C" 
			},
			{
				"x": 3.3394933404,
				"y": -0.9551400456,
				"z": 2.1691226037,
				"element": "C" 
			},
			{
				"x": 2.9224417883,
				"y": 0.04398204,
				"z": 1.320498284,
				"element": "C" 
			},
			{
				"x": 1.5787716565,
				"y": 0.0865006195,
				"z": 0.8570326548,
				"element": "C" 
			},
			{
				"x": 1.2229066659,
				"y": 1.107808991,
				"z": 0.03364824,
				"element": "N" 
			},
			{
				"x": -0.0294728865,
				"y": 1.1907400877,
				"z": -0.3902711664,
				"element": "C" 
			},
			{
				"x": -1.0139435738,
				"y": 0.2337360228,
				"z": -0.0144087596,
				"element": "C" 
			},
			{
				"x": -0.3631847731,
				"y": 2.3399120897,
				"z": -1.2768640741,
				"element": "C" 
			},
			{
				"x": -1.5535392577,
				"y": 2.4135431151,
				"z": -2.0138135968,
				"element": "C" 
			},
			{
				"x": -1.7860487255,
				"y": 3.5270212055,
				"z": -2.8213425563,
				"element": "C" 
			},
			{
				"x": -0.9359340908,
				"y": 4.5523997102,
				"z": -2.9457500188,
				"element": "N" 
			},
			{
				"x": 0.2029845649,
				"y": 4.4751046402,
				"z": -2.242192986,
				"element": "C" 
			},
			{
				"x": 0.5339421452,
				"y": 3.4100952926,
				"z": -1.4092738077,
				"element": "C" 
			},
			{
				"x": -0.6059521776,
				"y": -3.1048572165,
				"z": -0.8731270667,
				"element": "H" 
			},
			{
				"x": 0.3042652934,
				"y": -3.642926961,
				"z": 0.3903933992,
				"element": "H" 
			},
			{
				"x": -2.3602590355,
				"y": -3.7298089493,
				"z": 1.0637747662,
				"element": "H" 
			},
			{
				"x": 0.4235826717,
				"y": -2.6959850318,
				"z": 2.5193301032,
				"element": "H" 
			},
			{
				"x": 2.766026121,
				"y": -2.7259829761,
				"z": 3.2834597837,
				"element": "H" 
			},
			{
				"x": 4.3665736604,
				"y": -0.9782414242,
				"z": 2.5208448938,
				"element": "H" 
			},
			{
				"x": 3.5917889536,
				"y": 0.8287783824,
				"z": 0.9840660416,
				"element": "H" 
			},
			{
				"x": -2.0443074128,
				"y": 0.3421025266,
				"z": -0.3309514044,
				"element": "H" 
			},
			{
				"x": -2.2928100038,
				"y": 1.62051718,
				"z": -1.9853210656,
				"element": "H" 
			},
			{
				"x": -2.706199958,
				"y": 3.5932319492,
				"z": -3.399499968,
				"element": "H" 
			},
			{
				"x": 0.8888006804,
				"y": 5.3136068557,
				"z": -2.3504341844,
				"element": "H" 
			},
			{
				"x": 1.4696269475,
				"y": 3.39377493,
				"z": -0.863481505,
				"element": "H" 
			}
		],
		 "valence_orbital": [ 
			{
				"type": "occ",
				"energy": -0.26306,
				"method": "rhf"
			},
			{
				"type": "occ",
				"energy": -0.26158,
				"method": "rhf"
			},
			{
				"type": "occ",
				"energy": -0.25553,
				"method": "rhf"
			},
			{
				"type": "occ",
				"energy": -0.25382,
				"method": "rhf"
			},
			{
				"type": "occ",
				"energy": -0.243,
				"method": "rhf"
			},
			{
				"type": "unocc",
				"energy": -0.08321,
				"method": "rhf"
			},
			{
				"type": "unocc",
				"energy": -0.05075,
				"method": "rhf"
			},
			{
				"type": "unocc",
				"energy": -0.015,
				"method": "rhf"
			},
			{
				"type": "unocc",
				"energy": -0.00966,
				"method": "rhf"
			},
			{
				"type": "unocc",
				"energy": -0.00463,
				"method": "rhf"
			}
		],
		"cosmo_sigma_profile": { 
			"-0.025": 0.0,
			"-0.024": 0.0,
			"-0.023": 0.0,
			"-0.022": 0.0,
			"-0.021": 0.0,
			"-0.02": 0.0,
			"-0.019": 0.0,
			"-0.018": 0.0,
			"-0.017": 0.0,
			"-0.016": 0.0,
			"-0.015": 0.00171917800316,
			"-0.014": 0.661509434079,
			"-0.013": 1.07345923438,
			"-0.012": 1.61668068361,
			"-0.011": 3.05529466864,
			"-0.01": 3.3010311643,
			"-0.009": 5.25664312047,
			"-0.008": 5.33876882398,
			"-0.007": 9.46231843837,
			"-0.006": 19.9387932188,
			"-0.005": 20.82701477,
			"-0.004": 18.6429007314,
			"-0.003": 15.5846808334,
			"-0.002": 15.1188286361,
			"-0.001": 18.097824303,
			"0.0": 21.3156033362,
			"0.001": 24.7019130948,
			"0.002": 31.1812174155,
			"0.003": 19.6249808296,
			"0.004": 9.96040630338,
			"0.005": 5.43148859313,
			"0.006": 4.62274196815,
			"0.007": 5.19696799485,
			"0.008": 4.71331657843,
			"0.009": 4.26244810206,
			"0.01": 3.16464889527,
			"0.011": 4.25464710971,
			"0.012": 5.07152632544,
			"0.013": 6.46802487248,
			"0.014": 2.73014846104,
			"0.015": 1.28860880074,
			"0.016": 1.02786936258,
			"0.017": 0.366473544037,
			"0.018": 0.0,
			"0.019": 0.0,
			"0.02": 0.0,
			"0.021": 0.0,
			"0.022": 0.0,
			"0.023": 0.0,
			"0.024": 0.0,
			"0.025": 0.0
		}
	}
}
