{
	 "smiles": "CCOC(=O)C1=NOC(N)=C1C1=CC=CC=C1", 
	 "Tm": 384.15, 
	 "num_atms": 29, 
	 "gaussian": { 
		 "optdone": 1, 
		 "sigma_profile": "yes", 
		 "theory": "DFT", 
		 "functional": "B3LYP", 
		 "basiset": "6-31G**", 
		 "properties": { 
			 "R2extent": 5217.0138, 
			 "electric_dipole_moment_norm": 5.25381200653, 
			 "electric_quadrupole_moment_norm": 28.0847673003, 
			 "total_energy": -799.645110432, 
			 "HOMO_LUMO_gap": 0.17833, 
			 "cosmo_polarized_energy": -17.93, 
			 "cosmo_cavitation_energy": 33.94, 
			 "cosmo_dispersion_energy": -23.43, 
			 "cosmo_repulsion_energy": 1.84, 
			 "cosmo_total_nonelectrostatic_energy": 12.35, 
			 "SMD_solvation_energy": 6.75 
		},
		"coords": [
			{
				"x": 1.1717417353,
				"y": 1.9678140951,
				"z": -3.4803641381,
				"element": "C" 
			},
			{
				"x": 2.171672109,
				"y": 1.650971971,
				"z": -2.3785872358,
				"element": "C" 
			},
			{
				"x": 1.8455797987,
				"y": 0.4073589931,
				"z": -1.7093090844,
				"element": "O" 
			},
			{
				"x": 2.3095086454,
				"y": -0.7212744541,
				"z": -2.2830138615,
				"element": "C" 
			},
			{
				"x": 2.9684167994,
				"y": -0.7626089984,
				"z": -3.2976930864,
				"element": "O" 
			},
			{
				"x": 1.9271112523,
				"y": -1.9206791993,
				"z": -1.47331394,
				"element": "C" 
			},
			{
				"x": 2.7387535657,
				"y": -2.95644429,
				"z": -1.545505823,
				"element": "N" 
			},
			{
				"x": 2.1882252182,
				"y": -3.9033148869,
				"z": -0.6651013692,
				"element": "O" 
			},
			{
				"x": 1.0748129008,
				"y": -3.3986237892,
				"z": -0.1092743979,
				"element": "C" 
			},
			{
				"x": 0.4274264365,
				"y": -4.1962879398,
				"z": 0.7974827088,
				"element": "N" 
			},
			{
				"x": 0.8308414834,
				"y": -2.1210631594,
				"z": -0.5714644203,
				"element": "C" 
			},
			{
				"x": -0.3349093152,
				"y": -1.2871330995,
				"z": -0.2306837159,
				"element": "C" 
			},
			{
				"x": -0.7571588266,
				"y": -1.1744007323,
				"z": 1.105998091,
				"element": "C" 
			},
			{
				"x": -1.8918640929,
				"y": -0.4322892711,
				"z": 1.4387857485,
				"element": "C" 
			},
			{
				"x": -2.6218068887,
				"y": 0.2181079999,
				"z": 0.4440138173,
				"element": "C" 
			},
			{
				"x": -2.2102447481,
				"y": 0.1172905107,
				"z": -0.8879445308,
				"element": "C" 
			},
			{
				"x": -1.0841110596,
				"y": -0.6307696969,
				"z": -1.2230793308,
				"element": "C" 
			},
			{
				"x": 1.3991675296,
				"y": 2.9465364233,
				"z": -3.9158274454,
				"element": "H" 
			},
			{
				"x": 1.2252270529,
				"y": 1.2199277368,
				"z": -4.2753947169,
				"element": "H" 
			},
			{
				"x": 0.1528961656,
				"y": 1.9965851143,
				"z": -3.0834114394,
				"element": "H" 
			},
			{
				"x": 2.1418674689,
				"y": 2.3981461427,
				"z": -1.5825383344,
				"element": "H" 
			},
			{
				"x": 3.1871943116,
				"y": 1.5794011044,
				"z": -2.7748320083,
				"element": "H" 
			},
			{
				"x": 0.5824077241,
				"y": -5.1889040165,
				"z": 0.6797400932,
				"element": "H" 
			},
			{
				"x": -0.537791205,
				"y": -3.9437343664,
				"z": 0.9630579411,
				"element": "H" 
			},
			{
				"x": -0.1748017323,
				"y": -1.6497742147,
				"z": 1.8906719539,
				"element": "H" 
			},
			{
				"x": -2.1967099208,
				"y": -0.3544849221,
				"z": 2.4786611387,
				"element": "H" 
			},
			{
				"x": -3.503041271,
				"y": 0.7981832088,
				"z": 0.7017550032,
				"element": "H" 
			},
			{
				"x": -2.776727462,
				"y": 0.6142696383,
				"z": -1.670615398,
				"element": "H" 
			},
			{
				"x": -0.7857836754,
				"y": -0.7207059017,
				"z": -2.2627122193,
				"element": "H" 
			}
		],
		 "valence_orbital": [ 
			{
				"type": "occ",
				"energy": -0.29915,
				"method": "rhf"
			},
			{
				"type": "occ",
				"energy": -0.27604,
				"method": "rhf"
			},
			{
				"type": "occ",
				"energy": -0.26111,
				"method": "rhf"
			},
			{
				"type": "occ",
				"energy": -0.25726,
				"method": "rhf"
			},
			{
				"type": "occ",
				"energy": -0.21503,
				"method": "rhf"
			},
			{
				"type": "unocc",
				"energy": -0.0367,
				"method": "rhf"
			},
			{
				"type": "unocc",
				"energy": -0.01683,
				"method": "rhf"
			},
			{
				"type": "unocc",
				"energy": -0.00973,
				"method": "rhf"
			},
			{
				"type": "unocc",
				"energy": 0.03712,
				"method": "rhf"
			},
			{
				"type": "unocc",
				"energy": 0.06464,
				"method": "rhf"
			}
		],
		"cosmo_sigma_profile": { 
			"-0.025": 0.0,
			"-0.024": 0.0,
			"-0.023": 0.0,
			"-0.022": 0.0,
			"-0.021": 0.0,
			"-0.02": 0.0,
			"-0.019": 0.0,
			"-0.018": 0.0,
			"-0.017": 0.0,
			"-0.016": 0.0669192704606,
			"-0.015": 1.15025484653,
			"-0.014": 1.63730243146,
			"-0.013": 2.14859733941,
			"-0.012": 2.86772744939,
			"-0.011": 2.16746973635,
			"-0.01": 2.14556504859,
			"-0.009": 2.02331135262,
			"-0.008": 1.78491811885,
			"-0.007": 3.02583854206,
			"-0.006": 10.0894985174,
			"-0.005": 19.2110531813,
			"-0.004": 23.5012194009,
			"-0.003": 25.4252088029,
			"-0.002": 20.8167153424,
			"-0.001": 22.2073431174,
			"0.0": 19.719352331,
			"0.001": 15.7820366492,
			"0.002": 12.057943103,
			"0.003": 12.7048561734,
			"0.004": 11.7351337786,
			"0.005": 12.5372609665,
			"0.006": 9.62806952517,
			"0.007": 7.81590088713,
			"0.008": 6.18906931152,
			"0.009": 4.07723772337,
			"0.01": 3.9971895523,
			"0.011": 6.0728988331,
			"0.012": 4.15212708601,
			"0.013": 2.66500567951,
			"0.014": 0.934666385967,
			"0.015": 0.0377204833271,
			"0.016": 0.0,
			"0.017": 0.0,
			"0.018": 0.0,
			"0.019": 0.0,
			"0.02": 0.0,
			"0.021": 0.0,
			"0.022": 0.0,
			"0.023": 0.0,
			"0.024": 0.0,
			"0.025": 0.0
		}
	}
}
