{
	 "smiles": "CC1=C2C=CC3=C(C=CC=C3)C2=C(C)C2=C1C=CC=C2", 
	 "Tm": 395.15, 
	 "num_atms": 36, 
	 "gaussian": { 
		 "optdone": 1, 
		 "sigma_profile": "yes", 
		 "theory": "DFT", 
		 "functional": "B3LYP", 
		 "basiset": "6-31G**", 
		 "properties": { 
			 "R2extent": 6784.3116, 
			 "electric_dipole_moment_norm": 0.161635670568, 
			 "electric_quadrupole_moment_norm": 13.00042405, 
			 "total_energy": -771.799171518, 
			 "HOMO_LUMO_gap": 0.13169, 
			 "cosmo_polarized_energy": -6.97, 
			 "cosmo_cavitation_energy": 36.51, 
			 "cosmo_dispersion_energy": -27.31, 
			 "cosmo_repulsion_energy": 1.99, 
			 "cosmo_total_nonelectrostatic_energy": 11.19, 
			 "SMD_solvation_energy": 5.22 
		},
		"coords": [
			{
				"x": -0.3784139173,
				"y": 1.9765125729,
				"z": 0.1718309662,
				"element": "C" 
			},
			{
				"x": -0.2991839886,
				"y": 0.4948070309,
				"z": 0.4745617065,
				"element": "C" 
			},
			{
				"x": 0.0633730152,
				"y": -0.4464577365,
				"z": -0.5012405923,
				"element": "C" 
			},
			{
				"x": 0.2078696213,
				"y": -0.0623083415,
				"z": -1.8894827312,
				"element": "C" 
			},
			{
				"x": 0.5557736768,
				"y": -0.9448623917,
				"z": -2.8554152737,
				"element": "C" 
			},
			{
				"x": 0.9461623065,
				"y": -2.2880213097,
				"z": -2.5242309977,
				"element": "C" 
			},
			{
				"x": 0.8466728008,
				"y": -2.726736693,
				"z": -1.1718414648,
				"element": "C" 
			},
			{
				"x": 1.4578090045,
				"y": -3.9622850568,
				"z": -0.856519843,
				"element": "C" 
			},
			{
				"x": 2.0257998563,
				"y": -4.7706295988,
				"z": -1.8324491216,
				"element": "C" 
			},
			{
				"x": 2.0208158787,
				"y": -4.3718857851,
				"z": -3.176173211,
				"element": "C" 
			},
			{
				"x": 1.5006984945,
				"y": -3.1323371042,
				"z": -3.5077715644,
				"element": "C" 
			},
			{
				"x": 0.2157988164,
				"y": -1.8519068269,
				"z": -0.1660763809,
				"element": "C" 
			},
			{
				"x": -0.258578823,
				"y": -2.3100583448,
				"z": 1.0750538652,
				"element": "C" 
			},
			{
				"x": -0.5085805412,
				"y": -3.7766556089,
				"z": 1.3724242595,
				"element": "C" 
			},
			{
				"x": -0.628108624,
				"y": -1.3605559664,
				"z": 2.0744241565,
				"element": "C" 
			},
			{
				"x": -0.6099622855,
				"y": 0.0481070356,
				"z": 1.7873427309,
				"element": "C" 
			},
			{
				"x": -0.9684580114,
				"y": 0.9583490025,
				"z": 2.8278762583,
				"element": "C" 
			},
			{
				"x": -1.316597798,
				"y": 0.5210049058,
				"z": 4.0826370139,
				"element": "C" 
			},
			{
				"x": -1.3264601728,
				"y": -0.8642701185,
				"z": 4.3696209121,
				"element": "C" 
			},
			{
				"x": -0.9979904949,
				"y": -1.7718674522,
				"z": 3.3914229005,
				"element": "C" 
			},
			{
				"x": 0.0772155158,
				"y": 2.2386966979,
				"z": -0.7814019681,
				"element": "H" 
			},
			{
				"x": -1.4146719208,
				"y": 2.3368761173,
				"z": 0.157669011,
				"element": "H" 
			},
			{
				"x": 0.1514821101,
				"y": 2.5553909627,
				"z": 0.9346276887,
				"element": "H" 
			},
			{
				"x": -0.0236411495,
				"y": 0.9556157294,
				"z": -2.1760172273,
				"element": "H" 
			},
			{
				"x": 0.6092958268,
				"y": -0.6308927577,
				"z": -3.8946184951,
				"element": "H" 
			},
			{
				"x": 1.5333160221,
				"y": -4.2780660335,
				"z": 0.1745164072,
				"element": "H" 
			},
			{
				"x": 2.4885165989,
				"y": -5.7102836361,
				"z": -1.544594722,
				"element": "H" 
			},
			{
				"x": 2.4525061742,
				"y": -5.0103565767,
				"z": -3.9413772289,
				"element": "H" 
			},
			{
				"x": 1.540350399,
				"y": -2.7766780544,
				"z": -4.5343431567,
				"element": "H" 
			},
			{
				"x": 0.2677789258,
				"y": -4.2374378568,
				"z": 1.9971027011,
				"element": "H" 
			},
			{
				"x": -0.5892930098,
				"y": -4.3622631565,
				"z": 0.4572962361,
				"element": "H" 
			},
			{
				"x": -1.4546536343,
				"y": -3.8875010155,
				"z": 1.9092802394,
				"element": "H" 
			},
			{
				"x": -0.9724849184,
				"y": 2.0223254861,
				"z": 2.6235695516,
				"element": "H" 
			},
			{
				"x": -1.5825459164,
				"y": 1.2374489281,
				"z": 4.8545877953,
				"element": "H" 
			},
			{
				"x": -1.5886379262,
				"y": -1.2103228383,
				"z": 5.3653290567,
				"element": "H" 
			},
			{
				"x": -0.9935719117,
				"y": -2.8262942085,
				"z": 3.6396805218,
				"element": "H" 
			}
		],
		 "valence_orbital": [ 
			{
				"type": "occ",
				"energy": -0.27223,
				"method": "rhf"
			},
			{
				"type": "occ",
				"energy": -0.25842,
				"method": "rhf"
			},
			{
				"type": "occ",
				"energy": -0.24202,
				"method": "rhf"
			},
			{
				"type": "occ",
				"energy": -0.2156,
				"method": "rhf"
			},
			{
				"type": "occ",
				"energy": -0.18846,
				"method": "rhf"
			},
			{
				"type": "unocc",
				"energy": -0.05677,
				"method": "rhf"
			},
			{
				"type": "unocc",
				"energy": -0.03085,
				"method": "rhf"
			},
			{
				"type": "unocc",
				"energy": 0.00074,
				"method": "rhf"
			},
			{
				"type": "unocc",
				"energy": 0.01639,
				"method": "rhf"
			},
			{
				"type": "unocc",
				"energy": 0.04363,
				"method": "rhf"
			}
		],
		"cosmo_sigma_profile": { 
			"-0.025": 0.0,
			"-0.024": 0.0,
			"-0.023": 0.0,
			"-0.022": 0.0,
			"-0.021": 0.0,
			"-0.02": 0.0,
			"-0.019": 0.0,
			"-0.018": 0.0,
			"-0.017": 0.0,
			"-0.016": 0.0,
			"-0.015": 0.0,
			"-0.014": 0.0,
			"-0.013": 0.0,
			"-0.012": 0.0,
			"-0.011": 0.0,
			"-0.01": 0.0,
			"-0.009": 0.0,
			"-0.008": 0.0,
			"-0.007": 0.785803640388,
			"-0.006": 10.2662407378,
			"-0.005": 24.052860041,
			"-0.004": 27.4323983928,
			"-0.003": 30.3671832128,
			"-0.002": 22.7015683631,
			"-0.001": 24.1477052963,
			"0.0": 20.9426832487,
			"0.001": 19.2672345966,
			"0.002": 16.5904814578,
			"0.003": 23.1111115569,
			"0.004": 39.2747799333,
			"0.005": 26.386468762,
			"0.006": 7.1795938925,
			"0.007": 0.0,
			"0.008": 0.0,
			"0.009": 0.0,
			"0.01": 0.0,
			"0.011": 0.0,
			"0.012": 0.0,
			"0.013": 0.0,
			"0.014": 0.0,
			"0.015": 0.0,
			"0.016": 0.0,
			"0.017": 0.0,
			"0.018": 0.0,
			"0.019": 0.0,
			"0.02": 0.0,
			"0.021": 0.0,
			"0.022": 0.0,
			"0.023": 0.0,
			"0.024": 0.0,
			"0.025": 0.0
		}
	}
}
