{
	 "smiles": "OC(C(=O)C1=CC=CS1)C1=CC=CS1", 
	 "Tm": 387.15, 
	 "num_atms": 22, 
	 "gaussian": { 
		 "optdone": 1, 
		 "sigma_profile": "yes", 
		 "theory": "DFT", 
		 "functional": "B3LYP", 
		 "basiset": "6-31G**", 
		 "properties": { 
			 "R2extent": 4168.3977, 
			 "electric_dipole_moment_norm": 4.69987954314, 
			 "electric_quadrupole_moment_norm": 11.2408145176, 
			 "total_energy": -1332.66728013, 
			 "HOMO_LUMO_gap": 0.1536, 
			 "cosmo_polarized_energy": -12.47, 
			 "cosmo_cavitation_energy": 29.56, 
			 "cosmo_dispersion_energy": -22.01, 
			 "cosmo_repulsion_energy": 1.64, 
			 "cosmo_total_nonelectrostatic_energy": 9.2, 
			 "SMD_solvation_energy": 5.28 
		},
		"coords": [
			{
				"x": -2.5794091989,
				"y": 0.4350906019,
				"z": -2.9308782463,
				"element": "O" 
			},
			{
				"x": -2.1576957341,
				"y": 0.383220903,
				"z": -1.591688755,
				"element": "C" 
			},
			{
				"x": -2.0579172782,
				"y": -1.1088486915,
				"z": -1.1715647373,
				"element": "C" 
			},
			{
				"x": -2.209665509,
				"y": -1.9557545914,
				"z": -2.0491477291,
				"element": "O" 
			},
			{
				"x": -1.8268073357,
				"y": -1.4828776894,
				"z": 0.2192906147,
				"element": "C" 
			},
			{
				"x": -1.6332642662,
				"y": -0.7005404218,
				"z": 1.3421974286,
				"element": "C" 
			},
			{
				"x": -1.4680612911,
				"y": -1.4623302804,
				"z": 2.5262048693,
				"element": "C" 
			},
			{
				"x": -1.5373213774,
				"y": -2.8148434867,
				"z": 2.2905152509,
				"element": "C" 
			},
			{
				"x": -1.8031410837,
				"y": -3.1844101883,
				"z": 0.6291609954,
				"element": "S" 
			},
			{
				"x": -0.8627689892,
				"y": 1.1288134738,
				"z": -1.3809421017,
				"element": "C" 
			},
			{
				"x": -0.6537471098,
				"y": 2.2608407244,
				"z": -0.6358539346,
				"element": "C" 
			},
			{
				"x": 0.6938982021,
				"y": 2.7309783656,
				"z": -0.6849067243,
				"element": "C" 
			},
			{
				"x": 1.4905187995,
				"y": 1.9528426845,
				"z": -1.478294618,
				"element": "C" 
			},
			{
				"x": 0.6091034371,
				"y": 0.6351718641,
				"z": -2.1802559142,
				"element": "S" 
			},
			{
				"x": -2.5944801621,
				"y": -0.4959614242,
				"z": -3.2254868602,
				"element": "H" 
			},
			{
				"x": -2.9091178909,
				"y": 0.8582872293,
				"z": -0.9410475934,
				"element": "H" 
			},
			{
				"x": -1.5907783531,
				"y": 0.3805763331,
				"z": 1.3081767017,
				"element": "H" 
			},
			{
				"x": -1.3024785698,
				"y": -1.031693849,
				"z": 3.5066843864,
				"element": "H" 
			},
			{
				"x": -1.4443073001,
				"y": -3.6151809234,
				"z": 3.0125976721,
				"element": "H" 
			},
			{
				"x": -1.446613992,
				"y": 2.7528404813,
				"z": -0.0814303523,
				"element": "H" 
			},
			{
				"x": 1.0473493462,
				"y": 3.6130142778,
				"z": -0.1631408314,
				"element": "H" 
			},
			{
				"x": 2.5404056564,
				"y": 2.0794646073,
				"z": -1.7038895211,
				"element": "H" 
			}
		],
		 "valence_orbital": [ 
			{
				"type": "occ",
				"energy": -0.27837,
				"method": "rhf"
			},
			{
				"type": "occ",
				"energy": -0.27048,
				"method": "rhf"
			},
			{
				"type": "occ",
				"energy": -0.25595,
				"method": "rhf"
			},
			{
				"type": "occ",
				"energy": -0.2528,
				"method": "rhf"
			},
			{
				"type": "occ",
				"energy": -0.23156,
				"method": "rhf"
			},
			{
				"type": "unocc",
				"energy": -0.07796,
				"method": "rhf"
			},
			{
				"type": "unocc",
				"energy": -0.01858,
				"method": "rhf"
			},
			{
				"type": "unocc",
				"energy": 0.01078,
				"method": "rhf"
			},
			{
				"type": "unocc",
				"energy": 0.02124,
				"method": "rhf"
			},
			{
				"type": "unocc",
				"energy": 0.03226,
				"method": "rhf"
			}
		],
		"cosmo_sigma_profile": { 
			"-0.025": 0.0,
			"-0.024": 0.0,
			"-0.023": 0.0,
			"-0.022": 0.0,
			"-0.021": 0.0,
			"-0.02": 0.0,
			"-0.019": 0.0,
			"-0.018": 0.0,
			"-0.017": 0.0,
			"-0.016": 0.0,
			"-0.015": 0.0,
			"-0.014": 0.0,
			"-0.013": 0.0,
			"-0.012": 0.0,
			"-0.011": 0.0166243483774,
			"-0.01": 0.973236633542,
			"-0.009": 4.13104588975,
			"-0.008": 8.02610794827,
			"-0.007": 15.1369063077,
			"-0.006": 13.0968778147,
			"-0.005": 14.2266421646,
			"-0.004": 12.2332452461,
			"-0.003": 12.833227989,
			"-0.002": 12.1251418704,
			"-0.001": 12.3607335006,
			"0.0": 15.4804870421,
			"0.001": 20.8737525084,
			"0.002": 27.4436253125,
			"0.003": 22.5541332488,
			"0.004": 13.6207527951,
			"0.005": 9.8428104639,
			"0.006": 5.25827751645,
			"0.007": 3.26297588212,
			"0.008": 3.33407578529,
			"0.009": 3.44823593684,
			"0.01": 3.84886115413,
			"0.011": 2.35359112167,
			"0.012": 2.08893909907,
			"0.013": 1.84324119669,
			"0.014": 1.20941434174,
			"0.015": 0.0,
			"0.016": 0.0,
			"0.017": 0.0,
			"0.018": 0.0,
			"0.019": 0.0,
			"0.02": 0.0,
			"0.021": 0.0,
			"0.022": 0.0,
			"0.023": 0.0,
			"0.024": 0.0,
			"0.025": 0.0
		}
	}
}
