{
	 "smiles": "CC1=NN=C(O1)C1=CC=C(C=C1)C(O)=O", 
	 "Tm": 558.15, 
	 "num_atms": 23, 
	 "gaussian": { 
		 "optdone": 1, 
		 "sigma_profile": "yes", 
		 "theory": "DFT", 
		 "functional": "B3LYP", 
		 "basiset": "6-31G**", 
		 "properties": { 
			 "R2extent": 4648.0349, 
			 "electric_dipole_moment_norm": 3.40067184245, 
			 "electric_quadrupole_moment_norm": 33.6981291815, 
			 "total_energy": -721.05011617, 
			 "HOMO_LUMO_gap": 0.17358, 
			 "cosmo_polarized_energy": -19.76, 
			 "cosmo_cavitation_energy": 28.9, 
			 "cosmo_dispersion_energy": -21.38, 
			 "cosmo_repulsion_energy": 1.66, 
			 "cosmo_total_nonelectrostatic_energy": 9.18, 
			 "SMD_solvation_energy": 4.77 
		},
		"coords": [
			{
				"x": 4.5974959059,
				"y": -0.3081123809,
				"z": -1.9239495163,
				"element": "C" 
			},
			{
				"x": 3.1212803115,
				"y": -0.4029197068,
				"z": -1.8089227346,
				"element": "C" 
			},
			{
				"x": 2.2843095006,
				"y": -1.0326355102,
				"z": -2.5741139161,
				"element": "N" 
			},
			{
				"x": 1.0162917849,
				"y": -0.8128814742,
				"z": -2.0420327255,
				"element": "N" 
			},
			{
				"x": 1.1788301119,
				"y": -0.0644686915,
				"z": -0.9913504481,
				"element": "C" 
			},
			{
				"x": 2.4949650336,
				"y": 0.2381386665,
				"z": -0.7777326234,
				"element": "O" 
			},
			{
				"x": 0.1632218832,
				"y": 0.4482532436,
				"z": -0.0795756401,
				"element": "C" 
			},
			{
				"x": -1.1857937903,
				"y": 0.1416515323,
				"z": -0.320691211,
				"element": "C" 
			},
			{
				"x": -2.1684032753,
				"y": 0.6134363532,
				"z": 0.5412197291,
				"element": "C" 
			},
			{
				"x": -1.8262274585,
				"y": 1.398018867,
				"z": 1.6539677258,
				"element": "C" 
			},
			{
				"x": -0.4806775029,
				"y": 1.7206759197,
				"z": 1.8755480255,
				"element": "C" 
			},
			{
				"x": 0.5089453275,
				"y": 1.244773215,
				"z": 1.0241351098,
				"element": "C" 
			},
			{
				"x": -2.8390708783,
				"y": 1.9496275346,
				"z": 2.6134084731,
				"element": "C" 
			},
			{
				"x": -4.0493806573,
				"y": 1.3320522351,
				"z": 2.6510658947,
				"element": "O" 
			},
			{
				"x": -2.6199951569,
				"y": 2.895883628,
				"z": 3.332310425,
				"element": "O" 
			},
			{
				"x": 5.0865191422,
				"y": -0.7138233477,
				"z": -1.0324986901,
				"element": "H" 
			},
			{
				"x": 4.9177837648,
				"y": -0.8763128057,
				"z": -2.7977220544,
				"element": "H" 
			},
			{
				"x": 4.9151731956,
				"y": 0.7334401745,
				"z": -2.0364704424,
				"element": "H" 
			},
			{
				"x": -1.4438863421,
				"y": -0.4578719922,
				"z": -1.1866543526,
				"element": "H" 
			},
			{
				"x": -3.2084238625,
				"y": 0.3946839113,
				"z": 0.3119753967,
				"element": "H" 
			},
			{
				"x": -0.2335442391,
				"y": 2.3473445631,
				"z": 2.7253332069,
				"element": "H" 
			},
			{
				"x": 1.5498135135,
				"y": 1.4885871166,
				"z": 1.2067176298,
				"element": "H" 
			},
			{
				"x": -4.0220263117,
				"y": 0.5046589488,
				"z": 2.1511327382,
				"element": "H" 
			}
		],
		 "valence_orbital": [ 
			{
				"type": "occ",
				"energy": -0.31216,
				"method": "rhf"
			},
			{
				"type": "occ",
				"energy": -0.28552,
				"method": "rhf"
			},
			{
				"type": "occ",
				"energy": -0.28349,
				"method": "rhf"
			},
			{
				"type": "occ",
				"energy": -0.27932,
				"method": "rhf"
			},
			{
				"type": "occ",
				"energy": -0.25361,
				"method": "rhf"
			},
			{
				"type": "unocc",
				"energy": -0.08003,
				"method": "rhf"
			},
			{
				"type": "unocc",
				"energy": -0.03252,
				"method": "rhf"
			},
			{
				"type": "unocc",
				"energy": -0.00835,
				"method": "rhf"
			},
			{
				"type": "unocc",
				"energy": 0.01877,
				"method": "rhf"
			},
			{
				"type": "unocc",
				"energy": 0.05406,
				"method": "rhf"
			}
		],
		"cosmo_sigma_profile": { 
			"-0.025": 0.0,
			"-0.024": 0.0,
			"-0.023": 0.0,
			"-0.022": 0.0,
			"-0.021": 0.0,
			"-0.02": 0.0,
			"-0.019": 0.361972483825,
			"-0.018": 1.2800329219,
			"-0.017": 0.806944054643,
			"-0.016": 1.27250007126,
			"-0.015": 0.379905787432,
			"-0.014": 1.25535604077,
			"-0.013": 1.37834548699,
			"-0.012": 0.900171901407,
			"-0.011": 1.44516953083,
			"-0.01": 1.16848258266,
			"-0.009": 1.27821871091,
			"-0.008": 2.34658661301,
			"-0.007": 12.0499260305,
			"-0.006": 13.8045160482,
			"-0.005": 14.4422534058,
			"-0.004": 16.9108851381,
			"-0.003": 19.3861402931,
			"-0.002": 17.8419298322,
			"-0.001": 14.1666499582,
			"0.0": 14.0944211077,
			"0.001": 20.1186008147,
			"0.002": 12.9383093135,
			"0.003": 6.6567092316,
			"0.004": 3.55145134857,
			"0.005": 4.49005581044,
			"0.006": 3.91870299517,
			"0.007": 4.6956608208,
			"0.008": 4.48844114689,
			"0.009": 5.8399361381,
			"0.01": 7.67039626676,
			"0.011": 8.66198894659,
			"0.012": 7.01941519695,
			"0.013": 3.19439141932,
			"0.014": 1.89077649342,
			"0.015": 0.847143427095,
			"0.016": 0.0462868966237,
			"0.017": 0.0,
			"0.018": 0.0,
			"0.019": 0.0,
			"0.02": 0.0,
			"0.021": 0.0,
			"0.022": 0.0,
			"0.023": 0.0,
			"0.024": 0.0,
			"0.025": 0.0
		}
	}
}
