{
	 "smiles": "COC1=C(CC(O)=O)C=C(C)C=C1", 
	 "Tm": 405.15, 
	 "num_atms": 25, 
	 "gaussian": { 
		 "optdone": 1, 
		 "sigma_profile": "yes", 
		 "theory": "DFT", 
		 "functional": "B3LYP", 
		 "basiset": "6-31G**", 
		 "properties": { 
			 "R2extent": 2873.6506, 
			 "electric_dipole_moment_norm": 2.39821300555, 
			 "electric_quadrupole_moment_norm": 12.5052781624, 
			 "total_energy": -613.980181984, 
			 "HOMO_LUMO_gap": 0.21038, 
			 "cosmo_polarized_energy": -12.35, 
			 "cosmo_cavitation_energy": 28.92, 
			 "cosmo_dispersion_energy": -20.38, 
			 "cosmo_repulsion_energy": 1.65, 
			 "cosmo_total_nonelectrostatic_energy": 10.19, 
			 "SMD_solvation_energy": 6.89 
		},
		"coords": [
			{
				"x": -1.1126003039,
				"y": 1.4554911482,
				"z": 3.1470010425,
				"element": "C" 
			},
			{
				"x": -0.2366679113,
				"y": 1.3587882487,
				"z": 2.0358676991,
				"element": "O" 
			},
			{
				"x": -0.5328484201,
				"y": 0.4599287195,
				"z": 1.0478252541,
				"element": "C" 
			},
			{
				"x": 0.3743048546,
				"y": 0.4390307188,
				"z": -0.0320640243,
				"element": "C" 
			},
			{
				"x": 1.5779837493,
				"y": 1.3509003227,
				"z": -0.0099186265,
				"element": "C" 
			},
			{
				"x": 1.2865610445,
				"y": 2.8439304605,
				"z": -0.0574944987,
				"element": "C" 
			},
			{
				"x": 0.2206290755,
				"y": 3.1428049307,
				"z": -0.8376268427,
				"element": "O" 
			},
			{
				"x": 1.9524405906,
				"y": 3.695601667,
				"z": 0.4873499224,
				"element": "O" 
			},
			{
				"x": 0.1418645547,
				"y": -0.4473205501,
				"z": -1.0789653125,
				"element": "C" 
			},
			{
				"x": -0.9603390933,
				"y": -1.3179828517,
				"z": -1.0981376773,
				"element": "C" 
			},
			{
				"x": -1.17837834,
				"y": -2.2614368869,
				"z": -2.2580048143,
				"element": "C" 
			},
			{
				"x": -1.8374329673,
				"y": -1.2735328985,
				"z": -0.0151061497,
				"element": "C" 
			},
			{
				"x": -1.6347077718,
				"y": -0.3947828555,
				"z": 1.055211104,
				"element": "C" 
			},
			{
				"x": -2.1242593511,
				"y": 1.7491781235,
				"z": 2.8388383518,
				"element": "H" 
			},
			{
				"x": -0.6944067211,
				"y": 2.2277354365,
				"z": 3.7942685418,
				"element": "H" 
			},
			{
				"x": -1.1676224372,
				"y": 0.5095656258,
				"z": 3.7011152057,
				"element": "H" 
			},
			{
				"x": 2.182815175,
				"y": 1.1964400049,
				"z": 0.887442854,
				"element": "H" 
			},
			{
				"x": 2.2162452018,
				"y": 1.1312623992,
				"z": -0.8744591818,
				"element": "H" 
			},
			{
				"x": 0.1463105297,
				"y": 4.1117130321,
				"z": -0.8185427191,
				"element": "H" 
			},
			{
				"x": 0.8431504367,
				"y": -0.4619951113,
				"z": -1.9111809175,
				"element": "H" 
			},
			{
				"x": -1.3333748024,
				"y": -1.7162001829,
				"z": -3.1967216108,
				"element": "H" 
			},
			{
				"x": -0.3156059638,
				"y": -2.9207390717,
				"z": -2.4092565975,
				"element": "H" 
			},
			{
				"x": -2.0549964613,
				"y": -2.8948408947,
				"z": -2.0952698288,
				"element": "H" 
			},
			{
				"x": -2.700547449,
				"y": -1.9342924767,
				"z": 0.0043089857,
				"element": "H" 
			},
			{
				"x": -2.3379172188,
				"y": -0.3881470581,
				"z": 1.8797198404,
				"element": "H" 
			}
		],
		 "valence_orbital": [ 
			{
				"type": "occ",
				"energy": -0.31103,
				"method": "rhf"
			},
			{
				"type": "occ",
				"energy": -0.30756,
				"method": "rhf"
			},
			{
				"type": "occ",
				"energy": -0.26917,
				"method": "rhf"
			},
			{
				"type": "occ",
				"energy": -0.2423,
				"method": "rhf"
			},
			{
				"type": "occ",
				"energy": -0.21154,
				"method": "rhf"
			},
			{
				"type": "unocc",
				"energy": -0.00116,
				"method": "rhf"
			},
			{
				"type": "unocc",
				"energy": 0.01332,
				"method": "rhf"
			},
			{
				"type": "unocc",
				"energy": 0.02171,
				"method": "rhf"
			},
			{
				"type": "unocc",
				"energy": 0.08462,
				"method": "rhf"
			},
			{
				"type": "unocc",
				"energy": 0.09382,
				"method": "rhf"
			}
		],
		"cosmo_sigma_profile": { 
			"-0.025": 0.0,
			"-0.024": 0.0,
			"-0.023": 0.0,
			"-0.022": 0.0,
			"-0.021": 0.0,
			"-0.02": 0.0,
			"-0.019": 0.0176620095,
			"-0.018": 0.710834160529,
			"-0.017": 0.560498276139,
			"-0.016": 1.07437546176,
			"-0.015": 0.77949166038,
			"-0.014": 1.03227796228,
			"-0.013": 0.361995241219,
			"-0.012": 0.522558594138,
			"-0.011": 0.907147275569,
			"-0.01": 0.808310956269,
			"-0.009": 0.330629755677,
			"-0.008": 0.51512951286,
			"-0.007": 4.70198384984,
			"-0.006": 9.71634473399,
			"-0.005": 18.3014724552,
			"-0.004": 21.6015414539,
			"-0.003": 23.4403172589,
			"-0.002": 19.0128578385,
			"-0.001": 15.0341604587,
			"0.0": 15.0232720009,
			"0.001": 13.4012623603,
			"0.002": 9.97356293384,
			"0.003": 8.87039826962,
			"0.004": 10.6770629113,
			"0.005": 11.3417459052,
			"0.006": 11.6403180929,
			"0.007": 6.02761331203,
			"0.008": 4.23776809326,
			"0.009": 3.98865870776,
			"0.01": 3.61640334074,
			"0.011": 3.09642787349,
			"0.012": 5.36835346507,
			"0.013": 1.41092600208,
			"0.014": 0.00708015927796,
			"0.015": 0.0,
			"0.016": 0.0,
			"0.017": 0.0,
			"0.018": 0.0,
			"0.019": 0.0,
			"0.02": 0.0,
			"0.021": 0.0,
			"0.022": 0.0,
			"0.023": 0.0,
			"0.024": 0.0,
			"0.025": 0.0
		}
	}
}
