{
	 "smiles": "CC1=CC=C(C=N1)C#N", 
	 "Tm": 358.15, 
	 "num_atms": 15, 
	 "gaussian": { 
		 "optdone": 1, 
		 "sigma_profile": "yes", 
		 "theory": "DFT", 
		 "functional": "B3LYP", 
		 "basiset": "6-31G**", 
		 "properties": { 
			 "R2extent": 1843.8623, 
			 "electric_dipole_moment_norm": 4.4676464699, 
			 "electric_quadrupole_moment_norm": 11.7203687271, 
			 "total_energy": -379.847667886, 
			 "HOMO_LUMO_gap": 0.2094, 
			 "cosmo_polarized_energy": -9.81, 
			 "cosmo_cavitation_energy": 20.4, 
			 "cosmo_dispersion_energy": -14.54, 
			 "cosmo_repulsion_energy": 1.2, 
			 "cosmo_total_nonelectrostatic_energy": 7.06, 
			 "SMD_solvation_energy": 3.83 
		},
		"coords": [
			{
				"x": 1.0386258044,
				"y": 2.8752747796,
				"z": 0.1366441773,
				"element": "C" 
			},
			{
				"x": 0.8816248467,
				"y": 1.4945627433,
				"z": 0.7192802036,
				"element": "C" 
			},
			{
				"x": -0.2753116934,
				"y": 0.7327516637,
				"z": 0.4804331157,
				"element": "C" 
			},
			{
				"x": -0.3864022822,
				"y": -0.5341603485,
				"z": 1.0322784245,
				"element": "C" 
			},
			{
				"x": 0.6718817142,
				"y": -1.0183523892,
				"z": 1.8194496079,
				"element": "C" 
			},
			{
				"x": 1.7884196818,
				"y": -0.1872181219,
				"z": 2.0038166439,
				"element": "C" 
			},
			{
				"x": 1.8935576632,
				"y": 1.0310609847,
				"z": 1.4722368381,
				"element": "N" 
			},
			{
				"x": 0.6227935683,
				"y": -2.3169500982,
				"z": 2.4189635205,
				"element": "C" 
			},
			{
				"x": 0.5865489677,
				"y": -3.3719712493,
				"z": 2.9079069724,
				"element": "N" 
			},
			{
				"x": 0.2380624253,
				"y": 3.5406368028,
				"z": 0.4792757814,
				"element": "H" 
			},
			{
				"x": 0.9903970511,
				"y": 2.8486342822,
				"z": -0.9578731823,
				"element": "H" 
			},
			{
				"x": 1.9993064223,
				"y": 3.294720725,
				"z": 0.4375916868,
				"element": "H" 
			},
			{
				"x": -1.0746850396,
				"y": 1.1373044639,
				"z": -0.1328336045,
				"element": "H" 
			},
			{
				"x": -1.2669804376,
				"y": -1.1460253749,
				"z": 0.8658825002,
				"element": "H" 
			},
			{
				"x": 2.6253613079,
				"y": -0.5310688632,
				"z": 2.6075473143,
				"element": "H" 
			}
		],
		 "valence_orbital": [ 
			{
				"type": "occ",
				"energy": -0.3579,
				"method": "rhf"
			},
			{
				"type": "occ",
				"energy": -0.34027,
				"method": "rhf"
			},
			{
				"type": "occ",
				"energy": -0.30663,
				"method": "rhf"
			},
			{
				"type": "occ",
				"energy": -0.27421,
				"method": "rhf"
			},
			{
				"type": "occ",
				"energy": -0.27015,
				"method": "rhf"
			},
			{
				"type": "unocc",
				"energy": -0.06075,
				"method": "rhf"
			},
			{
				"type": "unocc",
				"energy": -0.04304,
				"method": "rhf"
			},
			{
				"type": "unocc",
				"energy": 0.02866,
				"method": "rhf"
			},
			{
				"type": "unocc",
				"energy": 0.06192,
				"method": "rhf"
			},
			{
				"type": "unocc",
				"energy": 0.08342,
				"method": "rhf"
			}
		],
		"cosmo_sigma_profile": { 
			"-0.025": 0.0,
			"-0.024": 0.0,
			"-0.023": 0.0,
			"-0.022": 0.0,
			"-0.021": 0.0,
			"-0.02": 0.0,
			"-0.019": 0.0,
			"-0.018": 0.0,
			"-0.017": 0.0,
			"-0.016": 0.0,
			"-0.015": 0.0,
			"-0.014": 0.0,
			"-0.013": 0.0,
			"-0.012": 0.0,
			"-0.011": 0.0,
			"-0.01": 0.0,
			"-0.009": 1.69091319746,
			"-0.008": 5.48796407668,
			"-0.007": 7.5750703032,
			"-0.006": 7.76619569606,
			"-0.005": 12.1814154621,
			"-0.004": 11.177799249,
			"-0.003": 12.855927256,
			"-0.002": 14.4971811014,
			"-0.001": 20.4381157697,
			"0.0": 15.1937432129,
			"0.001": 9.44906411585,
			"0.002": 3.76212090792,
			"0.003": 4.67086934214,
			"0.004": 3.37272484227,
			"0.005": 4.206261888,
			"0.006": 3.54710923874,
			"0.007": 4.42315978511,
			"0.008": 4.46735900301,
			"0.009": 3.85067979967,
			"0.01": 4.29017493886,
			"0.011": 3.71024667916,
			"0.012": 3.02098371062,
			"0.013": 2.0484661404,
			"0.014": 0.595865036893,
			"0.015": 0.470585820788,
			"0.016": 0.0284318181674,
			"0.017": 0.0,
			"0.018": 0.0,
			"0.019": 0.0,
			"0.02": 0.0,
			"0.021": 0.0,
			"0.022": 0.0,
			"0.023": 0.0,
			"0.024": 0.0,
			"0.025": 0.0
		}
	}
}
