{
	 "smiles": "CC1CC(O)CC(C)(C)C1", 
	 "Tm": 328.95, 
	 "num_atms": 28, 
	 "gaussian": { 
		 "optdone": 1, 
		 "sigma_profile": "yes", 
		 "theory": "DFT", 
		 "functional": "B3LYP", 
		 "basiset": "6-31G**", 
		 "properties": { 
			 "R2extent": 1552.673, 
			 "electric_dipole_moment_norm": 1.53972253669, 
			 "electric_quadrupole_moment_norm": 4.13216903575, 
			 "total_energy": -429.045089044, 
			 "HOMO_LUMO_gap": 0.31555, 
			 "cosmo_polarized_energy": -4.91, 
			 "cosmo_cavitation_energy": 26.02, 
			 "cosmo_dispersion_energy": -19.14, 
			 "cosmo_repulsion_energy": 1.52, 
			 "cosmo_total_nonelectrostatic_energy": 8.39, 
			 "SMD_solvation_energy": 4.1 
		},
		"coords": [
			{
				"x": -0.862977553,
				"y": 1.9013824579,
				"z": -1.5931577845,
				"element": "C" 
			},
			{
				"x": -1.5317131498,
				"y": 1.3080999722,
				"z": -0.3403102818,
				"element": "C" 
			},
			{
				"x": -2.2895349089,
				"y": -0.0072114778,
				"z": -0.6220109934,
				"element": "C" 
			},
			{
				"x": -1.396150822,
				"y": -1.2549579485,
				"z": -0.7072396647,
				"element": "C" 
			},
			{
				"x": -0.5715395249,
				"y": -1.2671973879,
				"z": -1.8795825052,
				"element": "O" 
			},
			{
				"x": -0.4865324849,
				"y": -1.3791689238,
				"z": 0.5207493692,
				"element": "C" 
			},
			{
				"x": 0.3368664888,
				"y": -0.1173392566,
				"z": 0.8881114475,
				"element": "C" 
			},
			{
				"x": 1.5538739718,
				"y": 0.048623991,
				"z": -0.0477965929,
				"element": "C" 
			},
			{
				"x": 0.8789002856,
				"y": -0.2934160999,
				"z": 2.3221495825,
				"element": "C" 
			},
			{
				"x": -0.5949191938,
				"y": 1.1251456277,
				"z": 0.8781397151,
				"element": "C" 
			},
			{
				"x": -1.6248536964,
				"y": 2.1644158591,
				"z": -2.337179875,
				"element": "H" 
			},
			{
				"x": -0.1691377695,
				"y": 1.2052924191,
				"z": -2.0651215866,
				"element": "H" 
			},
			{
				"x": -0.3167101466,
				"y": 2.8185233306,
				"z": -1.3458463332,
				"element": "H" 
			},
			{
				"x": -2.2868237581,
				"y": 2.0433425237,
				"z": -0.0276730253,
				"element": "H" 
			},
			{
				"x": -2.883780223,
				"y": 0.0837760247,
				"z": -1.5428565674,
				"element": "H" 
			},
			{
				"x": -3.0127807794,
				"y": -0.1814841598,
				"z": 0.1866633788,
				"element": "H" 
			},
			{
				"x": -2.0516392804,
				"y": -2.1421614653,
				"z": -0.7262810738,
				"element": "H" 
			},
			{
				"x": -1.1500555602,
				"y": -1.1575448742,
				"z": -2.645391269,
				"element": "H" 
			},
			{
				"x": -1.1370768676,
				"y": -1.6298890232,
				"z": 1.3698406756,
				"element": "H" 
			},
			{
				"x": 0.1836013631,
				"y": -2.2351868772,
				"z": 0.376645868,
				"element": "H" 
			},
			{
				"x": 2.2515376802,
				"y": -0.7853285855,
				"z": 0.0939004186,
				"element": "H" 
			},
			{
				"x": 2.0944439454,
				"y": 0.9741318899,
				"z": 0.1835718216,
				"element": "H" 
			},
			{
				"x": 1.2733841678,
				"y": 0.0568452369,
				"z": -1.0995556926,
				"element": "H" 
			},
			{
				"x": 1.521646311,
				"y": -1.1785421333,
				"z": 2.3928732164,
				"element": "H" 
			},
			{
				"x": 1.4762962416,
				"y": 0.5747081515,
				"z": 2.6244711538,
				"element": "H" 
			},
			{
				"x": 0.0664845813,
				"y": -0.4097812301,
				"z": 3.0488728451,
				"element": "H" 
			},
			{
				"x": -1.2386505676,
				"y": 1.0531520024,
				"z": 1.7667161812,
				"element": "H" 
			},
			{
				"x": 0.0090412494,
				"y": 2.0315699566,
				"z": 1.0180975722,
				"element": "H" 
			}
		],
		 "valence_orbital": [ 
			{
				"type": "occ",
				"energy": -0.31882,
				"method": "rhf"
			},
			{
				"type": "occ",
				"energy": -0.30361,
				"method": "rhf"
			},
			{
				"type": "occ",
				"energy": -0.29698,
				"method": "rhf"
			},
			{
				"type": "occ",
				"energy": -0.28181,
				"method": "rhf"
			},
			{
				"type": "occ",
				"energy": -0.2545,
				"method": "rhf"
			},
			{
				"type": "unocc",
				"energy": 0.06105,
				"method": "rhf"
			},
			{
				"type": "unocc",
				"energy": 0.09815,
				"method": "rhf"
			},
			{
				"type": "unocc",
				"energy": 0.11247,
				"method": "rhf"
			},
			{
				"type": "unocc",
				"energy": 0.1208,
				"method": "rhf"
			},
			{
				"type": "unocc",
				"energy": 0.13239,
				"method": "rhf"
			}
		],
		"cosmo_sigma_profile": { 
			"-0.025": 0.0,
			"-0.024": 0.0,
			"-0.023": 0.0,
			"-0.022": 0.0,
			"-0.021": 0.0,
			"-0.02": 0.0,
			"-0.019": 0.0,
			"-0.018": 0.0,
			"-0.017": 0.0,
			"-0.016": 0.0,
			"-0.015": 0.14356664948,
			"-0.014": 0.857416412102,
			"-0.013": 0.801828854454,
			"-0.012": 0.828748817063,
			"-0.011": 1.11137438634,
			"-0.01": 1.11999404082,
			"-0.009": 0.900618588988,
			"-0.008": 0.41733315423,
			"-0.007": 0.693911895251,
			"-0.006": 1.48665813298,
			"-0.005": 1.50325415313,
			"-0.004": 1.4490281643,
			"-0.003": 5.02627119824,
			"-0.002": 31.536656445,
			"-0.001": 42.6439198453,
			"0.0": 33.8050716334,
			"0.001": 28.84464888,
			"0.002": 24.3316500817,
			"0.003": 6.9545361388,
			"0.004": 1.5202177782,
			"0.005": 1.45480396554,
			"0.006": 1.4876861448,
			"0.007": 1.23973901525,
			"0.008": 0.972005972254,
			"0.009": 1.24589603046,
			"0.01": 1.28375092241,
			"0.011": 1.3614876759,
			"0.012": 0.842370641303,
			"0.013": 0.466418929373,
			"0.014": 1.33944738606,
			"0.015": 0.465892584942,
			"0.016": 0.0,
			"0.017": 0.0,
			"0.018": 0.0,
			"0.019": 0.0,
			"0.02": 0.0,
			"0.021": 0.0,
			"0.022": 0.0,
			"0.023": 0.0,
			"0.024": 0.0,
			"0.025": 0.0
		}
	}
}
