{
	 "smiles": "COC(=O)C[C@H](NC(=O)OCC1C2=C(C=CC=C2)C2=C1C=CC=C2)C(O)=O", 
	 "Tm": 389.15, 
	 "num_atms": 46, 
	 "gaussian": { 
		 "optdone": 1, 
		 "sigma_profile": "yes", 
		 "theory": "DFT", 
		 "functional": "B3LYP", 
		 "basiset": "6-31G**", 
		 "properties": { 
			 "R2extent": 11346.5186, 
			 "electric_dipole_moment_norm": 5.49012295855, 
			 "electric_quadrupole_moment_norm": 27.5716292901, 
			 "total_energy": -1279.72947991, 
			 "HOMO_LUMO_gap": 0.18436, 
			 "cosmo_polarized_energy": -23.82, 
			 "cosmo_cavitation_energy": 50.72, 
			 "cosmo_dispersion_energy": -32.8, 
			 "cosmo_repulsion_energy": 2.44, 
			 "cosmo_total_nonelectrostatic_energy": 20.36, 
			 "SMD_solvation_energy": 10.65 
		},
		"coords": [
			{
				"x": -0.294817661,
				"y": -3.1301743392,
				"z": 3.2894920596,
				"element": "C" 
			},
			{
				"x": -1.4488510516,
				"y": -2.6840326934,
				"z": 2.539914407,
				"element": "O" 
			},
			{
				"x": -1.5492382804,
				"y": -1.3319634982,
				"z": 2.347599047,
				"element": "C" 
			},
			{
				"x": -0.7444432839,
				"y": -0.5525091845,
				"z": 2.794192789,
				"element": "O" 
			},
			{
				"x": -2.7726938224,
				"y": -0.9810506158,
				"z": 1.5299798509,
				"element": "C" 
			},
			{
				"x": -2.9911181491,
				"y": -1.8780910728,
				"z": 0.2648900227,
				"element": "C" 
			},
			{
				"x": -3.3951278593,
				"y": -1.1051695125,
				"z": -0.8854080045,
				"element": "N" 
			},
			{
				"x": -2.5503113198,
				"y": -0.3260372463,
				"z": -1.626339808,
				"element": "C" 
			},
			{
				"x": -2.8437995998,
				"y": 0.2481142135,
				"z": -2.6552796296,
				"element": "O" 
			},
			{
				"x": -1.3241567206,
				"y": -0.2592014992,
				"z": -1.0266417299,
				"element": "O" 
			},
			{
				"x": -0.3635728357,
				"y": 0.601783499,
				"z": -1.6721766796,
				"element": "C" 
			},
			{
				"x": 0.8911683919,
				"y": 0.6361150703,
				"z": -0.7933831346,
				"element": "C" 
			},
			{
				"x": 1.7305600111,
				"y": -0.6341735237,
				"z": -0.8268724026,
				"element": "C" 
			},
			{
				"x": 3.0407246063,
				"y": -0.3415731736,
				"z": -1.2610679085,
				"element": "C" 
			},
			{
				"x": 3.9975551702,
				"y": -1.353523952,
				"z": -1.3657552869,
				"element": "C" 
			},
			{
				"x": 3.6358267648,
				"y": -2.6615296123,
				"z": -1.0369458701,
				"element": "C" 
			},
			{
				"x": 2.3366824333,
				"y": -2.953762245,
				"z": -0.6083454277,
				"element": "C" 
			},
			{
				"x": 1.3775713725,
				"y": -1.9395841601,
				"z": -0.4991780233,
				"element": "C" 
			},
			{
				"x": 3.1348802384,
				"y": 1.098316299,
				"z": -1.5349117298,
				"element": "C" 
			},
			{
				"x": 1.88360643,
				"y": 1.6890854688,
				"z": -1.2661808082,
				"element": "C" 
			},
			{
				"x": 1.6973743905,
				"y": 3.056466177,
				"z": -1.4386680668,
				"element": "C" 
			},
			{
				"x": 2.7705505767,
				"y": 3.8364297322,
				"z": -1.8852898426,
				"element": "C" 
			},
			{
				"x": 4.0125551896,
				"y": 3.2504324863,
				"z": -2.1521314964,
				"element": "C" 
			},
			{
				"x": 4.2052079093,
				"y": 1.8781315497,
				"z": -1.9778602719,
				"element": "C" 
			},
			{
				"x": -4.0642401412,
				"y": -2.9532620663,
				"z": 0.5085865021,
				"element": "C" 
			},
			{
				"x": -3.8196648904,
				"y": -3.7860236035,
				"z": 1.5307419888,
				"element": "O" 
			},
			{
				"x": -5.0638121804,
				"y": -3.0445664902,
				"z": -0.1646354818,
				"element": "O" 
			},
			{
				"x": -0.2937030843,
				"y": -2.6753089662,
				"z": 4.2814505869,
				"element": "H" 
			},
			{
				"x": -0.390470674,
				"y": -4.2129500857,
				"z": 3.3587048715,
				"element": "H" 
			},
			{
				"x": 0.619270313,
				"y": -2.853039451,
				"z": 2.7609061037,
				"element": "H" 
			},
			{
				"x": -2.6445898635,
				"y": 0.0514896547,
				"z": 1.2109422275,
				"element": "H" 
			},
			{
				"x": -3.6500273157,
				"y": -1.0166824954,
				"z": 2.1874387427,
				"element": "H" 
			},
			{
				"x": -2.0528386709,
				"y": -2.4039452845,
				"z": 0.0487272767,
				"element": "H" 
			},
			{
				"x": -4.2914692533,
				"y": -1.3402462219,
				"z": -1.2937661507,
				"element": "H" 
			},
			{
				"x": -0.7998738678,
				"y": 1.5990652002,
				"z": -1.7771872418,
				"element": "H" 
			},
			{
				"x": -0.1426800468,
				"y": 0.2218850363,
				"z": -2.6736391584,
				"element": "H" 
			},
			{
				"x": 0.5653581566,
				"y": 0.8477033364,
				"z": 0.2354318431,
				"element": "H" 
			},
			{
				"x": 5.0078962056,
				"y": -1.1314867028,
				"z": -1.6979593603,
				"element": "H" 
			},
			{
				"x": 4.3690007947,
				"y": -3.4591810597,
				"z": -1.1156618456,
				"element": "H" 
			},
			{
				"x": 2.0692012159,
				"y": -3.9776920245,
				"z": -0.3624885006,
				"element": "H" 
			},
			{
				"x": 0.3696801484,
				"y": -2.1715225742,
				"z": -0.1711621867,
				"element": "H" 
			},
			{
				"x": 0.7375227291,
				"y": 3.5213592498,
				"z": -1.2285643298,
				"element": "H" 
			},
			{
				"x": 2.6380042425,
				"y": 4.9053710959,
				"z": -2.024142287,
				"element": "H" 
			},
			{
				"x": 4.835566569,
				"y": 3.8696354024,
				"z": -2.4973274837,
				"element": "H" 
			},
			{
				"x": 5.1728590103,
				"y": 1.4297837045,
				"z": -2.1853900708,
				"element": "H" 
			},
			{
				"x": -2.9640222977,
				"y": -3.5728838216,
				"z": 1.9545618989,
				"element": "H" 
			}
		],
		 "valence_orbital": [ 
			{
				"type": "occ",
				"energy": -0.27592,
				"method": "rhf"
			},
			{
				"type": "occ",
				"energy": -0.26471,
				"method": "rhf"
			},
			{
				"type": "occ",
				"energy": -0.25529,
				"method": "rhf"
			},
			{
				"type": "occ",
				"energy": -0.2495,
				"method": "rhf"
			},
			{
				"type": "occ",
				"energy": -0.22044,
				"method": "rhf"
			},
			{
				"type": "unocc",
				"energy": -0.03608,
				"method": "rhf"
			},
			{
				"type": "unocc",
				"energy": -0.02239,
				"method": "rhf"
			},
			{
				"type": "unocc",
				"energy": -0.01767,
				"method": "rhf"
			},
			{
				"type": "unocc",
				"energy": -0.00614,
				"method": "rhf"
			},
			{
				"type": "unocc",
				"energy": 0.00212,
				"method": "rhf"
			}
		],
		"cosmo_sigma_profile": { 
			"-0.025": 0.0,
			"-0.024": 0.0,
			"-0.023": 0.0,
			"-0.022": 0.0,
			"-0.021": 0.0,
			"-0.02": 0.0,
			"-0.019": 0.0,
			"-0.018": 0.0,
			"-0.017": 0.0,
			"-0.016": 0.0,
			"-0.015": 0.0,
			"-0.014": 0.0,
			"-0.013": 0.0,
			"-0.012": 0.0197137385906,
			"-0.011": 0.607538294236,
			"-0.01": 2.2877886395,
			"-0.009": 7.18823801714,
			"-0.008": 7.75430792617,
			"-0.007": 11.07954852,
			"-0.006": 24.4589837754,
			"-0.005": 34.3123396085,
			"-0.004": 40.1297057584,
			"-0.003": 36.0033507419,
			"-0.002": 29.233806067,
			"-0.001": 22.0666996949,
			"0.0": 20.1785139367,
			"0.001": 21.8034075506,
			"0.002": 20.5181352954,
			"0.003": 20.3153396435,
			"0.004": 21.3020584606,
			"0.005": 21.5205681473,
			"0.006": 15.0963434342,
			"0.007": 4.13515585754,
			"0.008": 6.40073635791,
			"0.009": 7.19670479594,
			"0.01": 9.63827185018,
			"0.011": 8.72000323947,
			"0.012": 5.78325749063,
			"0.013": 5.64034213348,
			"0.014": 0.488163025755,
			"0.015": 0.0,
			"0.016": 0.0,
			"0.017": 0.0,
			"0.018": 0.0,
			"0.019": 0.0,
			"0.02": 0.0,
			"0.021": 0.0,
			"0.022": 0.0,
			"0.023": 0.0,
			"0.024": 0.0,
			"0.025": 0.0
		}
	}
}
