{
	 "smiles": "CC(C)(C)OC(=O)N1CCCC(C1)OC1=CC=CC=C1[N+]([O-])=O", 
	 "Tm": 347.65, 
	 "num_atms": 45, 
	 "gaussian": { 
		 "optdone": 1, 
		 "sigma_profile": "yes", 
		 "theory": "DFT", 
		 "functional": "B3LYP", 
		 "basiset": "6-31G**", 
		 "properties": { 
			 "R2extent": 11295.5559, 
			 "electric_dipole_moment_norm": 5.95897203467, 
			 "electric_quadrupole_moment_norm": 30.382846603, 
			 "total_energy": -1108.51603132, 
			 "HOMO_LUMO_gap": 0.16289, 
			 "cosmo_polarized_energy": -14.85, 
			 "cosmo_cavitation_energy": 46.5, 
			 "cosmo_dispersion_energy": -31.46, 
			 "cosmo_repulsion_energy": 2.4, 
			 "cosmo_total_nonelectrostatic_energy": 17.44, 
			 "SMD_solvation_energy": 9.68 
		},
		"coords": [
			{
				"x": 4.6601198383,
				"y": 2.605824783,
				"z": 0.7786321877,
				"element": "C" 
			},
			{
				"x": 3.4283146685,
				"y": 1.7581719531,
				"z": 1.1070211946,
				"element": "C" 
			},
			{
				"x": 3.8343963868,
				"y": 0.4563206864,
				"z": 1.805013884,
				"element": "C" 
			},
			{
				"x": 2.4148131017,
				"y": 2.5665271087,
				"z": 1.9237427161,
				"element": "C" 
			},
			{
				"x": 2.8812317359,
				"y": 1.4631574419,
				"z": -0.2296327857,
				"element": "O" 
			},
			{
				"x": 1.7670422846,
				"y": 0.7132689978,
				"z": -0.3770753933,
				"element": "C" 
			},
			{
				"x": 1.1065960192,
				"y": 0.2334433687,
				"z": 0.5377980409,
				"element": "O" 
			},
			{
				"x": 1.4651705621,
				"y": 0.5218340663,
				"z": -1.7074230155,
				"element": "N" 
			},
			{
				"x": 1.9728588277,
				"y": 1.3755746384,
				"z": -2.7870477165,
				"element": "C" 
			},
			{
				"x": 0.9431406987,
				"y": 2.4615786758,
				"z": -3.1421130972,
				"element": "C" 
			},
			{
				"x": -0.4489407481,
				"y": 1.8597962059,
				"z": -3.4078968444,
				"element": "C" 
			},
			{
				"x": -0.8768595861,
				"y": 0.9468734646,
				"z": -2.2566306878,
				"element": "C" 
			},
			{
				"x": 0.1950375614,
				"y": -0.1285378667,
				"z": -2.0137731116,
				"element": "C" 
			},
			{
				"x": -2.1265482339,
				"y": 0.3553257293,
				"z": -2.6362264991,
				"element": "O" 
			},
			{
				"x": -2.9647055827,
				"y": -0.1387826489,
				"z": -1.6976474734,
				"element": "C" 
			},
			{
				"x": -2.6681980294,
				"y": -0.1957758649,
				"z": -0.3238853988,
				"element": "C" 
			},
			{
				"x": -3.6078279407,
				"y": -0.674648348,
				"z": 0.586685687,
				"element": "C" 
			},
			{
				"x": -4.8705841823,
				"y": -1.0977820625,
				"z": 0.1678274417,
				"element": "C" 
			},
			{
				"x": -5.1832092002,
				"y": -1.0443221807,
				"z": -1.1846959952,
				"element": "C" 
			},
			{
				"x": -4.2427948216,
				"y": -0.5876455292,
				"z": -2.1092186173,
				"element": "C" 
			},
			{
				"x": -4.6464127952,
				"y": -0.600826431,
				"z": -3.5203752954,
				"element": "N" 
			},
			{
				"x": -5.8555342839,
				"y": -0.5196762523,
				"z": -3.7562939289,
				"element": "O" 
			},
			{
				"x": -3.7770923229,
				"y": -0.7186500626,
				"z": -4.3802830191,
				"element": "O" 
			},
			{
				"x": 5.3621297949,
				"y": 2.0429391627,
				"z": 0.156676324,
				"element": "H" 
			},
			{
				"x": 5.1714267418,
				"y": 2.8971210219,
				"z": 1.700798062,
				"element": "H" 
			},
			{
				"x": 4.3731437263,
				"y": 3.5143892843,
				"z": 0.2409896364,
				"element": "H" 
			},
			{
				"x": 2.961724272,
				"y": -0.1602173103,
				"z": 2.0207880912,
				"element": "H" 
			},
			{
				"x": 4.525168855,
				"y": -0.1127650261,
				"z": 1.1749378144,
				"element": "H" 
			},
			{
				"x": 4.3454913069,
				"y": 0.6888353971,
				"z": 2.7448840792,
				"element": "H" 
			},
			{
				"x": 2.1149326023,
				"y": 3.4654324913,
				"z": 1.3753730616,
				"element": "H" 
			},
			{
				"x": 1.5279161409,
				"y": 1.9728768031,
				"z": 2.1452395469,
				"element": "H" 
			},
			{
				"x": 2.8733809247,
				"y": 2.8829937184,
				"z": 2.8661176149,
				"element": "H" 
			},
			{
				"x": 2.1599915305,
				"y": 0.7352631895,
				"z": -3.6591317044,
				"element": "H" 
			},
			{
				"x": 2.9221447742,
				"y": 1.8094629308,
				"z": -2.4791811621,
				"element": "H" 
			},
			{
				"x": 0.8873918435,
				"y": 3.1754986127,
				"z": -2.3102033146,
				"element": "H" 
			},
			{
				"x": 1.2828605166,
				"y": 3.0216875817,
				"z": -4.0207232503,
				"element": "H" 
			},
			{
				"x": -1.1943283091,
				"y": 2.6487647832,
				"z": -3.5503059406,
				"element": "H" 
			},
			{
				"x": -0.4361629073,
				"y": 1.2623924397,
				"z": -4.3283159013,
				"element": "H" 
			},
			{
				"x": -1.0080237356,
				"y": 1.5404872776,
				"z": -1.3424996347,
				"element": "H" 
			},
			{
				"x": 0.3097250372,
				"y": -0.7265342281,
				"z": -2.9257480566,
				"element": "H" 
			},
			{
				"x": -0.0654718418,
				"y": -0.7929365705,
				"z": -1.1923893176,
				"element": "H" 
			},
			{
				"x": -1.6975230708,
				"y": 0.1168665385,
				"z": 0.0414989708,
				"element": "H" 
			},
			{
				"x": -3.3409129536,
				"y": -0.7146276255,
				"z": 1.6386532127,
				"element": "H" 
			},
			{
				"x": -5.5982026945,
				"y": -1.4676868481,
				"z": 0.8820621806,
				"element": "H" 
			},
			{
				"x": -6.151516512,
				"y": -1.3526934973,
				"z": -1.5592225852,
				"element": "H" 
			}
		],
		 "valence_orbital": [ 
			{
				"type": "occ",
				"energy": -0.28029,
				"method": "rhf"
			},
			{
				"type": "occ",
				"energy": -0.27231,
				"method": "rhf"
			},
			{
				"type": "occ",
				"energy": -0.26331,
				"method": "rhf"
			},
			{
				"type": "occ",
				"energy": -0.2506,
				"method": "rhf"
			},
			{
				"type": "occ",
				"energy": -0.23417,
				"method": "rhf"
			},
			{
				"type": "unocc",
				"energy": -0.07128,
				"method": "rhf"
			},
			{
				"type": "unocc",
				"energy": -0.00919,
				"method": "rhf"
			},
			{
				"type": "unocc",
				"energy": 0.00605,
				"method": "rhf"
			},
			{
				"type": "unocc",
				"energy": 0.0399,
				"method": "rhf"
			},
			{
				"type": "unocc",
				"energy": 0.06688,
				"method": "rhf"
			}
		],
		"cosmo_sigma_profile": { 
			"-0.025": 0.0,
			"-0.024": 0.0,
			"-0.023": 0.0,
			"-0.022": 0.0,
			"-0.021": 0.0,
			"-0.02": 0.0,
			"-0.019": 0.0,
			"-0.018": 0.0,
			"-0.017": 0.0,
			"-0.016": 0.0,
			"-0.015": 0.0,
			"-0.014": 0.0,
			"-0.013": 0.0,
			"-0.012": 0.0,
			"-0.011": 0.0,
			"-0.01": 0.0,
			"-0.009": 0.0,
			"-0.008": 0.417553705191,
			"-0.007": 4.82168209994,
			"-0.006": 11.6343701171,
			"-0.005": 20.2474816833,
			"-0.004": 37.1098702188,
			"-0.003": 42.4088615907,
			"-0.002": 38.5380629833,
			"-0.001": 36.0510999068,
			"0.0": 40.6182411773,
			"0.001": 32.7964423067,
			"0.002": 19.5267956846,
			"0.003": 17.2804274664,
			"0.004": 9.47691517421,
			"0.005": 7.56125486838,
			"0.006": 6.51370536993,
			"0.007": 6.11959034261,
			"0.008": 11.4878520117,
			"0.009": 9.0798619526,
			"0.01": 6.98274883739,
			"0.011": 3.67970017806,
			"0.012": 1.51578669868,
			"0.013": 1.35379967566,
			"0.014": 0.0166331568029,
			"0.015": 0.0,
			"0.016": 0.0,
			"0.017": 0.0,
			"0.018": 0.0,
			"0.019": 0.0,
			"0.02": 0.0,
			"0.021": 0.0,
			"0.022": 0.0,
			"0.023": 0.0,
			"0.024": 0.0,
			"0.025": 0.0
		}
	}
}
