{
	 "smiles": "CCC(N1CCCC1=O)C(O)=O", 
	 "Tm": 430.15, 
	 "num_atms": 25, 
	 "gaussian": { 
		 "optdone": 1, 
		 "sigma_profile": "yes", 
		 "theory": "DFT", 
		 "functional": "B3LYP", 
		 "basiset": "6-31G**", 
		 "properties": { 
			 "R2extent": 2153.2978, 
			 "electric_dipole_moment_norm": 3.40026605724, 
			 "electric_quadrupole_moment_norm": 8.64625802356, 
			 "total_energy": -593.145173721, 
			 "HOMO_LUMO_gap": 0.24538, 
			 "cosmo_polarized_energy": -15.48, 
			 "cosmo_cavitation_energy": 27.43, 
			 "cosmo_dispersion_energy": -19.26, 
			 "cosmo_repulsion_energy": 1.57, 
			 "cosmo_total_nonelectrostatic_energy": 9.74, 
			 "SMD_solvation_energy": 6.36 
		},
		"coords": [
			{
				"x": 1.5163375373,
				"y": 2.4005727984,
				"z": 0.3687598458,
				"element": "C" 
			},
			{
				"x": 0.0242471005,
				"y": 2.2993807234,
				"z": 0.0433225922,
				"element": "C" 
			},
			{
				"x": -0.2924941313,
				"y": 1.1393521998,
				"z": -0.9246021199,
				"element": "C" 
			},
			{
				"x": 0.0955332526,
				"y": -0.1711553401,
				"z": -0.4323086158,
				"element": "N" 
			},
			{
				"x": 0.7848743611,
				"y": -1.1482945747,
				"z": -1.2744126108,
				"element": "C" 
			},
			{
				"x": 0.4630932118,
				"y": -2.5053952292,
				"z": -0.6078340037,
				"element": "C" 
			},
			{
				"x": 0.1026698036,
				"y": -2.1371875733,
				"z": 0.8395364975,
				"element": "C" 
			},
			{
				"x": -0.4071009978,
				"y": -0.700064403,
				"z": 0.7347801669,
				"element": "C" 
			},
			{
				"x": -1.1096640326,
				"y": -0.1067295908,
				"z": 1.53915113,
				"element": "O" 
			},
			{
				"x": -1.7583748036,
				"y": 1.0898932377,
				"z": -1.3874532587,
				"element": "C" 
			},
			{
				"x": -2.2699839186,
				"y": 2.3248313235,
				"z": -1.5935518272,
				"element": "O" 
			},
			{
				"x": -2.3802182787,
				"y": 0.0770463517,
				"z": -1.6114339496,
				"element": "O" 
			},
			{
				"x": 1.8804642698,
				"y": 1.4930373082,
				"z": 0.8594924581,
				"element": "H" 
			},
			{
				"x": 2.1174985595,
				"y": 2.5590941945,
				"z": -0.5349362184,
				"element": "H" 
			},
			{
				"x": 1.7048859891,
				"y": 3.2413510108,
				"z": 1.0432520341,
				"element": "H" 
			},
			{
				"x": -0.3208155472,
				"y": 3.2245311965,
				"z": -0.4269879092,
				"element": "H" 
			},
			{
				"x": -0.5550842874,
				"y": 2.1562616541,
				"z": 0.9573687287,
				"element": "H" 
			},
			{
				"x": 0.2861894892,
				"y": 1.3137114935,
				"z": -1.84270719,
				"element": "H" 
			},
			{
				"x": 1.8654826291,
				"y": -0.9463182055,
				"z": -1.2976765253,
				"element": "H" 
			},
			{
				"x": 0.4112506481,
				"y": -1.1003558418,
				"z": -2.3028537431,
				"element": "H" 
			},
			{
				"x": -0.4062210331,
				"y": -2.9505683541,
				"z": -1.1005544681,
				"element": "H" 
			},
			{
				"x": 1.2937067329,
				"y": -3.2105858307,
				"z": -0.6889543822,
				"element": "H" 
			},
			{
				"x": -0.6608879876,
				"y": -2.7737467421,
				"z": 1.290188488,
				"element": "H" 
			},
			{
				"x": 0.9765064907,
				"y": -2.1476782662,
				"z": 1.5029928094,
				"element": "H" 
			},
			{
				"x": -3.1779950573,
				"y": 2.1888164595,
				"z": -1.9133779286,
				"element": "H" 
			}
		],
		 "valence_orbital": [ 
			{
				"type": "occ",
				"energy": -0.33093,
				"method": "rhf"
			},
			{
				"type": "occ",
				"energy": -0.31921,
				"method": "rhf"
			},
			{
				"type": "occ",
				"energy": -0.27756,
				"method": "rhf"
			},
			{
				"type": "occ",
				"energy": -0.24094,
				"method": "rhf"
			},
			{
				"type": "occ",
				"energy": -0.23883,
				"method": "rhf"
			},
			{
				"type": "unocc",
				"energy": 0.00655,
				"method": "rhf"
			},
			{
				"type": "unocc",
				"energy": 0.02961,
				"method": "rhf"
			},
			{
				"type": "unocc",
				"energy": 0.07554,
				"method": "rhf"
			},
			{
				"type": "unocc",
				"energy": 0.0797,
				"method": "rhf"
			},
			{
				"type": "unocc",
				"energy": 0.10122,
				"method": "rhf"
			}
		],
		"cosmo_sigma_profile": { 
			"-0.025": 0.0,
			"-0.024": 0.0,
			"-0.023": 0.0,
			"-0.022": 0.0,
			"-0.021": 0.0,
			"-0.02": 0.0,
			"-0.019": 0.312029665456,
			"-0.018": 0.830952473279,
			"-0.017": 0.670787530758,
			"-0.016": 1.56490973323,
			"-0.015": 0.33132491536,
			"-0.014": 0.112426487945,
			"-0.013": 0.230288439432,
			"-0.012": 1.04848776115,
			"-0.011": 1.36244389455,
			"-0.01": 0.407306662535,
			"-0.009": 1.15831865136,
			"-0.008": 3.10037218595,
			"-0.007": 3.67231950198,
			"-0.006": 4.45963747215,
			"-0.005": 10.9359802854,
			"-0.004": 20.0169630529,
			"-0.003": 27.5184992761,
			"-0.002": 22.9197118744,
			"-0.001": 22.612742334,
			"0.0": 17.9971493659,
			"0.001": 13.2120280864,
			"0.002": 6.43348227647,
			"0.003": 4.87568724446,
			"0.004": 4.05666110041,
			"0.005": 4.00612302054,
			"0.006": 4.52604619391,
			"0.007": 4.78824006005,
			"0.008": 5.45511321092,
			"0.009": 4.20453850743,
			"0.01": 3.21844585871,
			"0.011": 5.57660243115,
			"0.012": 4.44543982029,
			"0.013": 3.2425510198,
			"0.014": 3.15632665924,
			"0.015": 1.31887346736,
			"0.016": 0.0405727429105,
			"0.017": 0.0,
			"0.018": 0.0,
			"0.019": 0.0,
			"0.02": 0.0,
			"0.021": 0.0,
			"0.022": 0.0,
			"0.023": 0.0,
			"0.024": 0.0,
			"0.025": 0.0
		}
	}
}
