{
	 "smiles": "C(SC1=NN=C(SCC2=CC=CC=C2)N=N1)C1=CC=CC=C1", 
	 "Tm": 411.15, 
	 "num_atms": 36, 
	 "gaussian": { 
		 "optdone": 1, 
		 "sigma_profile": "yes", 
		 "theory": "DFT", 
		 "functional": "B3LYP", 
		 "basiset": "6-31G**", 
		 "properties": { 
			 "R2extent": 10087.4504, 
			 "electric_dipole_moment_norm": 3.45698430572, 
			 "electric_quadrupole_moment_norm": 17.811200788, 
			 "total_energy": -1633.43096025, 
			 "HOMO_LUMO_gap": 0.12535, 
			 "cosmo_polarized_energy": -12.59, 
			 "cosmo_cavitation_energy": 44.38, 
			 "cosmo_dispersion_energy": -30.99, 
			 "cosmo_repulsion_energy": 2.26, 
			 "cosmo_total_nonelectrostatic_energy": 15.64, 
			 "SMD_solvation_energy": 3.73 
		},
		"coords": [
			{
				"x": 2.6269198415,
				"y": -2.6204197959,
				"z": 2.7845258024,
				"element": "C" 
			},
			{
				"x": 3.5362406039,
				"y": -1.0097264152,
				"z": 2.9279076137,
				"element": "S" 
			},
			{
				"x": 2.2749667655,
				"y": 0.1685448591,
				"z": 2.5720631877,
				"element": "C" 
			},
			{
				"x": 2.7242403788,
				"y": 1.4505508019,
				"z": 2.5236557929,
				"element": "N" 
			},
			{
				"x": 1.8500483868,
				"y": 2.389675123,
				"z": 2.2904881861,
				"element": "N" 
			},
			{
				"x": 0.555152966,
				"y": 2.0160883114,
				"z": 2.1130553388,
				"element": "C" 
			},
			{
				"x": -0.5398783618,
				"y": 3.3695864178,
				"z": 1.8395742303,
				"element": "S" 
			},
			{
				"x": -2.1534609729,
				"y": 2.5152465541,
				"z": 1.5093126043,
				"element": "C" 
			},
			{
				"x": -2.3456114623,
				"y": 2.0517029292,
				"z": 0.0871654746,
				"element": "C" 
			},
			{
				"x": -2.2131111785,
				"y": 0.6979654218,
				"z": -0.2478077414,
				"element": "C" 
			},
			{
				"x": -2.4088062061,
				"y": 0.2720900962,
				"z": -1.5629798939,
				"element": "C" 
			},
			{
				"x": -2.7375955089,
				"y": 1.1927521782,
				"z": -2.558394085,
				"element": "C" 
			},
			{
				"x": -2.872399012,
				"y": 2.5448026907,
				"z": -2.232798252,
				"element": "C" 
			},
			{
				"x": -2.6785247651,
				"y": 2.9692657046,
				"z": -0.9195992705,
				"element": "C" 
			},
			{
				"x": 0.1114459895,
				"y": 0.7569879814,
				"z": 2.1614790753,
				"element": "N" 
			},
			{
				"x": 1.002784992,
				"y": -0.2005998087,
				"z": 2.3995403966,
				"element": "N" 
			},
			{
				"x": 2.4929179617,
				"y": -3.1504750829,
				"z": 1.3789532654,
				"element": "C" 
			},
			{
				"x": 3.586478403,
				"y": -3.7518052728,
				"z": 0.7395064844,
				"element": "C" 
			},
			{
				"x": 3.4638548117,
				"y": -4.2584547175,
				"z": -0.5529449318,
				"element": "C" 
			},
			{
				"x": 2.2421058382,
				"y": -4.1724443263,
				"z": -1.2254527528,
				"element": "C" 
			},
			{
				"x": 1.1479466203,
				"y": -3.5776296595,
				"z": -0.5965660851,
				"element": "C" 
			},
			{
				"x": 1.2717204757,
				"y": -3.0685914763,
				"z": 0.6976486272,
				"element": "C" 
			},
			{
				"x": 3.233504737,
				"y": -3.2882774308,
				"z": 3.402769561,
				"element": "H" 
			},
			{
				"x": 1.6569775998,
				"y": -2.4918984907,
				"z": 3.2659266766,
				"element": "H" 
			},
			{
				"x": -2.8851218482,
				"y": 3.2827091209,
				"z": 1.7772233882,
				"element": "H" 
			},
			{
				"x": -2.2393027312,
				"y": 1.6938484905,
				"z": 2.2213281194,
				"element": "H" 
			},
			{
				"x": -1.9487231838,
				"y": -0.0159983732,
				"z": 0.5256619904,
				"element": "H" 
			},
			{
				"x": -2.304685375,
				"y": -0.7810000195,
				"z": -1.8086621171,
				"element": "H" 
			},
			{
				"x": -2.8904099365,
				"y": 0.8605317701,
				"z": -3.5811723458,
				"element": "H" 
			},
			{
				"x": -3.132087952,
				"y": 3.2673721039,
				"z": -3.0011498416,
				"element": "H" 
			},
			{
				"x": -2.7853867788,
				"y": 4.0227770348,
				"z": -0.6719552765,
				"element": "H" 
			},
			{
				"x": 4.5396925306,
				"y": -3.8219962459,
				"z": 1.2582192266,
				"element": "H" 
			},
			{
				"x": 4.3194865708,
				"y": -4.7234916545,
				"z": -1.0341339916,
				"element": "H" 
			},
			{
				"x": 2.1448986456,
				"y": -4.5688771905,
				"z": -2.232026601,
				"element": "H" 
			},
			{
				"x": 0.1944721418,
				"y": -3.5093349673,
				"z": -1.1127317565,
				"element": "H" 
			},
			{
				"x": 0.4237490128,
				"y": -2.5975766619,
				"z": 1.184469901,
				"element": "H" 
			}
		],
		 "valence_orbital": [ 
			{
				"type": "occ",
				"energy": -0.25411,
				"method": "rhf"
			},
			{
				"type": "occ",
				"energy": -0.25255,
				"method": "rhf"
			},
			{
				"type": "occ",
				"energy": -0.24734,
				"method": "rhf"
			},
			{
				"type": "occ",
				"energy": -0.2393,
				"method": "rhf"
			},
			{
				"type": "occ",
				"energy": -0.23118,
				"method": "rhf"
			},
			{
				"type": "unocc",
				"energy": -0.10583,
				"method": "rhf"
			},
			{
				"type": "unocc",
				"energy": -0.05335,
				"method": "rhf"
			},
			{
				"type": "unocc",
				"energy": -0.02018,
				"method": "rhf"
			},
			{
				"type": "unocc",
				"energy": -0.01893,
				"method": "rhf"
			},
			{
				"type": "unocc",
				"energy": -0.00537,
				"method": "rhf"
			}
		],
		"cosmo_sigma_profile": { 
			"-0.025": 0.0,
			"-0.024": 0.0,
			"-0.023": 0.0,
			"-0.022": 0.0,
			"-0.021": 0.0,
			"-0.02": 0.0,
			"-0.019": 0.0,
			"-0.018": 0.0,
			"-0.017": 0.0,
			"-0.016": 0.0,
			"-0.015": 0.0,
			"-0.014": 0.0,
			"-0.013": 0.0,
			"-0.012": 0.0,
			"-0.011": 0.0,
			"-0.01": 0.489329214972,
			"-0.009": 1.10535335762,
			"-0.008": 6.11366732957,
			"-0.007": 8.51701422534,
			"-0.006": 18.5075974934,
			"-0.005": 26.7834274917,
			"-0.004": 32.5480952896,
			"-0.003": 32.0359631589,
			"-0.002": 22.6175160864,
			"-0.001": 20.8136945556,
			"0.0": 22.6233262568,
			"0.001": 21.5061534904,
			"0.002": 26.4260143783,
			"0.003": 30.1062608361,
			"0.004": 27.9465456476,
			"0.005": 30.2043758805,
			"0.006": 18.0741109126,
			"0.007": 3.48436245551,
			"0.008": 3.2632000893,
			"0.009": 2.75536593969,
			"0.01": 2.27104787215,
			"0.011": 1.73163896401,
			"0.012": 0.537732165911,
			"0.013": 0.0,
			"0.014": 0.0,
			"0.015": 0.0,
			"0.016": 0.0,
			"0.017": 0.0,
			"0.018": 0.0,
			"0.019": 0.0,
			"0.02": 0.0,
			"0.021": 0.0,
			"0.022": 0.0,
			"0.023": 0.0,
			"0.024": 0.0,
			"0.025": 0.0
		}
	}
}
