{
	 "smiles": "CCOC1=NN=C(N1C1=CC=CC=C1)C1=CC=CC=C1", 
	 "Tm": 428.15, 
	 "num_atms": 35, 
	 "gaussian": { 
		 "optdone": 1, 
		 "sigma_profile": "yes", 
		 "theory": "DFT", 
		 "functional": "B3LYP", 
		 "basiset": "6-31G**", 
		 "properties": { 
			 "R2extent": 6192.1166, 
			 "electric_dipole_moment_norm": 4.42338650131, 
			 "electric_quadrupole_moment_norm": 9.88219992006, 
			 "total_energy": -858.201488251, 
			 "HOMO_LUMO_gap": 0.182, 
			 "cosmo_polarized_energy": -14.74, 
			 "cosmo_cavitation_energy": 38.99, 
			 "cosmo_dispersion_energy": -27.06, 
			 "cosmo_repulsion_energy": 2.11, 
			 "cosmo_total_nonelectrostatic_energy": 14.03, 
			 "SMD_solvation_energy": 5.36 
		},
		"coords": [
			{
				"x": -1.3414481524,
				"y": -2.5826527694,
				"z": 2.894034916,
				"element": "C" 
			},
			{
				"x": -2.0211990064,
				"y": -2.3950026763,
				"z": 1.547006075,
				"element": "C" 
			},
			{
				"x": -1.682160102,
				"y": -1.1208328969,
				"z": 0.9411798893,
				"element": "O" 
			},
			{
				"x": -0.5047228977,
				"y": -1.0731443322,
				"z": 0.3141453272,
				"element": "C" 
			},
			{
				"x": 0.3991901816,
				"y": -2.0124102137,
				"z": 0.207880135,
				"element": "N" 
			},
			{
				"x": 1.4273109271,
				"y": -1.4854436669,
				"z": -0.5537341171,
				"element": "N" 
			},
			{
				"x": 1.1152266883,
				"y": -0.2539596288,
				"z": -0.8863670437,
				"element": "C" 
			},
			{
				"x": -0.1317947386,
				"y": 0.0761094685,
				"z": -0.3465755908,
				"element": "N" 
			},
			{
				"x": -0.9668845289,
				"y": 1.2150511271,
				"z": -0.5728047737,
				"element": "C" 
			},
			{
				"x": -1.3168488609,
				"y": 1.5733894192,
				"z": -1.8783069839,
				"element": "C" 
			},
			{
				"x": -2.1348812574,
				"y": 2.6823476705,
				"z": -2.0905868932,
				"element": "C" 
			},
			{
				"x": -2.6159332133,
				"y": 3.4204749279,
				"z": -1.0069185757,
				"element": "C" 
			},
			{
				"x": -2.2728733065,
				"y": 3.0489296595,
				"z": 0.2945028247,
				"element": "C" 
			},
			{
				"x": -1.4438462163,
				"y": 1.9492384245,
				"z": 0.5165621213,
				"element": "C" 
			},
			{
				"x": 1.9924774529,
				"y": 0.627676749,
				"z": -1.6688558264,
				"element": "C" 
			},
			{
				"x": 2.0143955771,
				"y": 2.0227915276,
				"z": -1.5076863305,
				"element": "C" 
			},
			{
				"x": 2.8998667643,
				"y": 2.8029597514,
				"z": -2.2510563222,
				"element": "C" 
			},
			{
				"x": 3.7778819784,
				"y": 2.2058757396,
				"z": -3.1567363161,
				"element": "C" 
			},
			{
				"x": 3.7704888936,
				"y": 0.8170739437,
				"z": -3.3123273589,
				"element": "C" 
			},
			{
				"x": 2.8854335101,
				"y": 0.0329675701,
				"z": -2.5777940822,
				"element": "C" 
			},
			{
				"x": -1.5879655353,
				"y": -1.760571365,
				"z": 3.5727804525,
				"element": "H" 
			},
			{
				"x": -1.6844504286,
				"y": -3.5178671365,
				"z": 3.3492890926,
				"element": "H" 
			},
			{
				"x": -0.2576858549,
				"y": -2.6369561765,
				"z": 2.7711782788,
				"element": "H" 
			},
			{
				"x": -3.1083282542,
				"y": -2.3545558495,
				"z": 1.6473965166,
				"element": "H" 
			},
			{
				"x": -1.7502343696,
				"y": -3.1947126659,
				"z": 0.8521553765,
				"element": "H" 
			},
			{
				"x": -0.9461336651,
				"y": 0.9876020506,
				"z": -2.7126440926,
				"element": "H" 
			},
			{
				"x": -2.402450917,
				"y": 2.9637283973,
				"z": -3.1045954741,
				"element": "H" 
			},
			{
				"x": -3.257153353,
				"y": 4.2802786652,
				"z": -1.1761609396,
				"element": "H" 
			},
			{
				"x": -2.6460709909,
				"y": 3.617783824,
				"z": 1.1407934394,
				"element": "H" 
			},
			{
				"x": -1.1681248162,
				"y": 1.6532582343,
				"z": 1.5227941675,
				"element": "H" 
			},
			{
				"x": 1.3536453705,
				"y": 2.499467557,
				"z": -0.7923700351,
				"element": "H" 
			},
			{
				"x": 2.9076390314,
				"y": 3.8805030754,
				"z": -2.1140179197,
				"element": "H" 
			},
			{
				"x": 4.4656169711,
				"y": 2.8169961169,
				"z": -3.7341093659,
				"element": "H" 
			},
			{
				"x": 4.4537167628,
				"y": 0.343618374,
				"z": -4.0115922116,
				"element": "H" 
			},
			{
				"x": 2.873600356,
				"y": -1.0460128958,
				"z": -2.6866583593,
				"element": "H" 
			}
		],
		 "valence_orbital": [ 
			{
				"type": "occ",
				"energy": -0.26595,
				"method": "rhf"
			},
			{
				"type": "occ",
				"energy": -0.25685,
				"method": "rhf"
			},
			{
				"type": "occ",
				"energy": -0.24863,
				"method": "rhf"
			},
			{
				"type": "occ",
				"energy": -0.24225,
				"method": "rhf"
			},
			{
				"type": "occ",
				"energy": -0.21196,
				"method": "rhf"
			},
			{
				"type": "unocc",
				"energy": -0.02996,
				"method": "rhf"
			},
			{
				"type": "unocc",
				"energy": -0.01888,
				"method": "rhf"
			},
			{
				"type": "unocc",
				"energy": -0.01645,
				"method": "rhf"
			},
			{
				"type": "unocc",
				"energy": 0.00148,
				"method": "rhf"
			},
			{
				"type": "unocc",
				"energy": 0.05801,
				"method": "rhf"
			}
		],
		"cosmo_sigma_profile": { 
			"-0.025": 0.0,
			"-0.024": 0.0,
			"-0.023": 0.0,
			"-0.022": 0.0,
			"-0.021": 0.0,
			"-0.02": 0.0,
			"-0.019": 0.0,
			"-0.018": 0.0,
			"-0.017": 0.0,
			"-0.016": 0.0,
			"-0.015": 0.0,
			"-0.014": 0.0,
			"-0.013": 0.0,
			"-0.012": 0.0,
			"-0.011": 0.0,
			"-0.01": 0.0,
			"-0.009": 0.0,
			"-0.008": 0.0392320666239,
			"-0.007": 4.17417311789,
			"-0.006": 19.3739497306,
			"-0.005": 27.6695831518,
			"-0.004": 34.9530823573,
			"-0.003": 27.3926382651,
			"-0.002": 25.5037820026,
			"-0.001": 22.7850148324,
			"0.0": 24.7637298928,
			"0.001": 20.267251086,
			"0.002": 17.8816606825,
			"0.003": 20.8913301118,
			"0.004": 24.3672798698,
			"0.005": 12.9081323621,
			"0.006": 3.73940931302,
			"0.007": 4.07806206631,
			"0.008": 3.19396232647,
			"0.009": 1.78693435688,
			"0.01": 1.78918342021,
			"0.011": 2.25084171268,
			"0.012": 2.51233603789,
			"0.013": 2.92171331292,
			"0.014": 3.09217612256,
			"0.015": 2.10593626556,
			"0.016": 1.35792544245,
			"0.017": 0.0790291698179,
			"0.018": 0.0,
			"0.019": 0.0,
			"0.02": 0.0,
			"0.021": 0.0,
			"0.022": 0.0,
			"0.023": 0.0,
			"0.024": 0.0,
			"0.025": 0.0
		}
	}
}
