{
	 "smiles": "OC1=CC(=NC2=CC=C(C=C12)C(F)(F)F)C(F)(F)F", 
	 "Tm": 549.15, 
	 "num_atms": 24, 
	 "gaussian": { 
		 "optdone": 1, 
		 "sigma_profile": "yes", 
		 "theory": "DFT", 
		 "functional": "B3LYP", 
		 "basiset": "6-31G**", 
		 "properties": { 
			 "R2extent": 6366.7268, 
			 "electric_dipole_moment_norm": 2.77015875538, 
			 "electric_quadrupole_moment_norm": 12.8204402011, 
			 "total_energy": -1151.21638373, 
			 "HOMO_LUMO_gap": 0.17317, 
			 "cosmo_polarized_energy": -11.81, 
			 "cosmo_cavitation_energy": 32.02, 
			 "cosmo_dispersion_energy": -22.6, 
			 "cosmo_repulsion_energy": 1.59, 
			 "cosmo_total_nonelectrostatic_energy": 11.02, 
			 "SMD_solvation_energy": 6.61 
		},
		"coords": [
			{
				"x": 1.2737661266,
				"y": 0.9440576433,
				"z": 2.4219394031,
				"element": "O" 
			},
			{
				"x": 1.0413567872,
				"y": 0.27716513,
				"z": 1.2702898012,
				"element": "C" 
			},
			{
				"x": 1.9513249867,
				"y": -0.6945651008,
				"z": 0.8951104439,
				"element": "C" 
			},
			{
				"x": 1.7200874934,
				"y": -1.3954234309,
				"z": -0.3016327397,
				"element": "C" 
			},
			{
				"x": 0.6963590771,
				"y": -1.2061251309,
				"z": -1.1117294627,
				"element": "N" 
			},
			{
				"x": -0.2058157096,
				"y": -0.2555111487,
				"z": -0.7569869236,
				"element": "C" 
			},
			{
				"x": -1.3186763372,
				"y": -0.0339448401,
				"z": -1.6156039498,
				"element": "C" 
			},
			{
				"x": -2.2654862541,
				"y": 0.9120529016,
				"z": -1.3134543393,
				"element": "C" 
			},
			{
				"x": -2.1444365756,
				"y": 1.6872357208,
				"z": -0.1306232316,
				"element": "C" 
			},
			{
				"x": -1.0820201892,
				"y": 1.5011091047,
				"z": 0.7235621009,
				"element": "C" 
			},
			{
				"x": -0.0893603913,
				"y": 0.5303031139,
				"z": 0.4356444435,
				"element": "C" 
			},
			{
				"x": -3.2038029216,
				"y": 2.7141059774,
				"z": 0.164907823,
				"element": "C" 
			},
			{
				"x": -4.4241864726,
				"y": 2.1434051868,
				"z": 0.2699640859,
				"element": "F" 
			},
			{
				"x": -3.2865675181,
				"y": 3.6318598048,
				"z": -0.823482881,
				"element": "F" 
			},
			{
				"x": -2.9667762298,
				"y": 3.3792247121,
				"z": 1.3169371406,
				"element": "F" 
			},
			{
				"x": 2.6956088033,
				"y": -2.4716816921,
				"z": -0.7520174842,
				"element": "C" 
			},
			{
				"x": 3.7151541802,
				"y": -2.6138372001,
				"z": 0.1254156829,
				"element": "F" 
			},
			{
				"x": 3.2295105491,
				"y": -2.1725945859,
				"z": -1.9499322839,
				"element": "F" 
			},
			{
				"x": 2.0851774776,
				"y": -3.6652186444,
				"z": -0.862157542,
				"element": "F" 
			},
			{
				"x": 0.5807458627,
				"y": 1.5957865537,
				"z": 2.5878622957,
				"element": "H" 
			},
			{
				"x": 2.8140636501,
				"y": -0.9008755383,
				"z": 1.5142767287,
				"element": "H" 
			},
			{
				"x": -1.3839579806,
				"y": -0.6413469232,
				"z": -2.5116123239,
				"element": "H" 
			},
			{
				"x": -3.111516455,
				"y": 1.0754610861,
				"z": -1.9729678631,
				"element": "H" 
			},
			{
				"x": -1.0307519593,
				"y": 2.1170573,
				"z": 1.6163910755,
				"element": "H" 
			}
		],
		 "valence_orbital": [ 
			{
				"type": "occ",
				"energy": -0.36718,
				"method": "rhf"
			},
			{
				"type": "occ",
				"energy": -0.30601,
				"method": "rhf"
			},
			{
				"type": "occ",
				"energy": -0.28351,
				"method": "rhf"
			},
			{
				"type": "occ",
				"energy": -0.28247,
				"method": "rhf"
			},
			{
				"type": "occ",
				"energy": -0.25114,
				"method": "rhf"
			},
			{
				"type": "unocc",
				"energy": -0.07797,
				"method": "rhf"
			},
			{
				"type": "unocc",
				"energy": -0.05107,
				"method": "rhf"
			},
			{
				"type": "unocc",
				"energy": -0.00414,
				"method": "rhf"
			},
			{
				"type": "unocc",
				"energy": 0.03082,
				"method": "rhf"
			},
			{
				"type": "unocc",
				"energy": 0.05028,
				"method": "rhf"
			}
		],
		"cosmo_sigma_profile": { 
			"-0.025": 0.0,
			"-0.024": 0.0,
			"-0.023": 0.0,
			"-0.022": 0.0,
			"-0.021": 0.0,
			"-0.02": 0.403854975583,
			"-0.019": 1.22842052214,
			"-0.018": 0.808724522587,
			"-0.017": 1.33577386842,
			"-0.016": 0.560279849411,
			"-0.015": 0.791591289341,
			"-0.014": 0.956879255524,
			"-0.013": 1.71090952622,
			"-0.012": 0.809303357684,
			"-0.011": 0.755828882642,
			"-0.01": 0.83011918535,
			"-0.009": 1.18679569535,
			"-0.008": 3.91120279341,
			"-0.007": 5.94842163738,
			"-0.006": 6.23726136921,
			"-0.005": 6.27947699439,
			"-0.004": 8.81343571531,
			"-0.003": 12.1668174942,
			"-0.002": 13.8025430341,
			"-0.001": 20.1237678138,
			"0.0": 28.0359756943,
			"0.001": 25.8056192413,
			"0.002": 48.2033540443,
			"0.003": 43.8930224786,
			"0.004": 4.53116169067,
			"0.005": 3.40242388841,
			"0.006": 4.43805789396,
			"0.007": 2.90521841332,
			"0.008": 2.45891440711,
			"0.009": 3.04026627436,
			"0.01": 1.42093952354,
			"0.011": 0.649750131045,
			"0.012": 0.793696181824,
			"0.013": 0.421970797226,
			"0.014": 0.0,
			"0.015": 0.0,
			"0.016": 0.0,
			"0.017": 0.0,
			"0.018": 0.0,
			"0.019": 0.0,
			"0.02": 0.0,
			"0.021": 0.0,
			"0.022": 0.0,
			"0.023": 0.0,
			"0.024": 0.0,
			"0.025": 0.0
		}
	}
}
