{
	 "smiles": "[O-][N+](=O)C1=CC=C(CCBr)C=C1", 
	 "Tm": 342.15, 
	 "num_atms": 20, 
	 "gaussian": { 
		 "optdone": 1, 
		 "sigma_profile": "yes", 
		 "theory": "DFT", 
		 "functional": "B3LYP", 
		 "basiset": "6-31G**", 
		 "properties": { 
			 "R2extent": 4701.1735, 
			 "electric_dipole_moment_norm": 5.34412566563, 
			 "electric_quadrupole_moment_norm": 12.972632601, 
			 "total_energy": -3086.18538054, 
			 "HOMO_LUMO_gap": 0.18611, 
			 "cosmo_polarized_energy": -11.41, 
			 "cosmo_cavitation_energy": 26.97, 
			 "cosmo_dispersion_energy": -19.72, 
			 "cosmo_repulsion_energy": 1.58, 
			 "cosmo_total_nonelectrostatic_energy": 8.83, 
			 "SMD_solvation_energy": 5.56 
		},
		"coords": [
			{
				"x": -3.9034241193,
				"y": -0.6199406717,
				"z": 1.5850727168,
				"element": "O" 
			},
			{
				"x": -2.9924046194,
				"y": 0.1645042732,
				"z": 1.8492822484,
				"element": "N" 
			},
			{
				"x": -2.9771527759,
				"y": 0.9192493749,
				"z": 2.8210576057,
				"element": "O" 
			},
			{
				"x": -1.8386923819,
				"y": 0.202085148,
				"z": 0.9372925532,
				"element": "C" 
			},
			{
				"x": -0.7914265304,
				"y": 1.0802116878,
				"z": 1.2063385173,
				"element": "C" 
			},
			{
				"x": 0.2984657285,
				"y": 1.1052773235,
				"z": 0.3404642575,
				"element": "C" 
			},
			{
				"x": 0.3479471784,
				"y": 0.2658060726,
				"z": -0.7816529231,
				"element": "C" 
			},
			{
				"x": 1.5236874437,
				"y": 0.3054311224,
				"z": -1.7328042898,
				"element": "C" 
			},
			{
				"x": 1.2996806452,
				"y": 1.1563328184,
				"z": -2.9848018707,
				"element": "C" 
			},
			{
				"x": 1.1743537924,
				"y": 3.091086706,
				"z": -2.5833243584,
				"element": "Br" 
			},
			{
				"x": -0.7243699554,
				"y": -0.607793813,
				"z": -1.0198324906,
				"element": "C" 
			},
			{
				"x": -1.8234605943,
				"y": -0.6468736364,
				"z": -0.1676483478,
				"element": "C" 
			},
			{
				"x": -0.8439199557,
				"y": 1.7212348603,
				"z": 2.0773154297,
				"element": "H" 
			},
			{
				"x": 1.1195515069,
				"y": 1.7878984143,
				"z": 0.534397639,
				"element": "H" 
			},
			{
				"x": 2.4216693981,
				"y": 0.6567738375,
				"z": -1.215802387,
				"element": "H" 
			},
			{
				"x": 1.7376917412,
				"y": -0.7129258382,
				"z": -2.0856227332,
				"element": "H" 
			},
			{
				"x": 0.3680243169,
				"y": 0.905465336,
				"z": -3.4917029979,
				"element": "H" 
			},
			{
				"x": 2.1331355889,
				"y": 1.0642447904,
				"z": -3.680485714,
				"element": "H" 
			},
			{
				"x": -0.6962103732,
				"y": -1.2718310936,
				"z": -1.8799125958,
				"element": "H" 
			},
			{
				"x": -2.6562460347,
				"y": -1.3179367126,
				"z": -0.3361302592,
				"element": "H" 
			}
		],
		 "valence_orbital": [ 
			{
				"type": "occ",
				"energy": -0.28994,
				"method": "rhf"
			},
			{
				"type": "occ",
				"energy": -0.2866,
				"method": "rhf"
			},
			{
				"type": "occ",
				"energy": -0.28407,
				"method": "rhf"
			},
			{
				"type": "occ",
				"energy": -0.27658,
				"method": "rhf"
			},
			{
				"type": "occ",
				"energy": -0.27502,
				"method": "rhf"
			},
			{
				"type": "unocc",
				"energy": -0.08891,
				"method": "rhf"
			},
			{
				"type": "unocc",
				"energy": -0.02958,
				"method": "rhf"
			},
			{
				"type": "unocc",
				"energy": -0.00932,
				"method": "rhf"
			},
			{
				"type": "unocc",
				"energy": -0.0006,
				"method": "rhf"
			},
			{
				"type": "unocc",
				"energy": 0.07236,
				"method": "rhf"
			}
		],
		"cosmo_sigma_profile": { 
			"-0.025": 0.0,
			"-0.024": 0.0,
			"-0.023": 0.0,
			"-0.022": 0.0,
			"-0.021": 0.0,
			"-0.02": 0.0,
			"-0.019": 0.0,
			"-0.018": 0.0,
			"-0.017": 0.0,
			"-0.016": 0.0,
			"-0.015": 0.0,
			"-0.014": 0.0,
			"-0.013": 0.0,
			"-0.012": 0.0,
			"-0.011": 0.0,
			"-0.01": 0.0,
			"-0.009": 0.0,
			"-0.008": 1.30857975149,
			"-0.007": 12.8930262641,
			"-0.006": 20.2968678734,
			"-0.005": 17.3279497017,
			"-0.004": 14.4935467498,
			"-0.003": 13.5347528472,
			"-0.002": 11.5318120481,
			"-0.001": 14.9956507868,
			"0.0": 14.1058306304,
			"0.001": 13.9978834514,
			"0.002": 16.6748886281,
			"0.003": 9.64870626592,
			"0.004": 9.3384126705,
			"0.005": 9.31981315803,
			"0.006": 13.1431520784,
			"0.007": 8.94950328466,
			"0.008": 8.53238843857,
			"0.009": 4.75368038897,
			"0.01": 2.88988010258,
			"0.011": 0.344641854883,
			"0.012": 0.0,
			"0.013": 0.0,
			"0.014": 0.0,
			"0.015": 0.0,
			"0.016": 0.0,
			"0.017": 0.0,
			"0.018": 0.0,
			"0.019": 0.0,
			"0.02": 0.0,
			"0.021": 0.0,
			"0.022": 0.0,
			"0.023": 0.0,
			"0.024": 0.0,
			"0.025": 0.0
		}
	}
}
