{
	 "smiles": "CCN(CC)CCCN", 
	 "Tm": 213.15, 
	 "num_atms": 27, 
	 "gaussian": { 
		 "optdone": 1, 
		 "sigma_profile": "yes", 
		 "theory": "DFT", 
		 "functional": "B3LYP", 
		 "basiset": "6-31G**", 
		 "properties": { 
			 "R2extent": 1741.5297, 
			 "electric_dipole_moment_norm": 1.21776429575, 
			 "electric_quadrupole_moment_norm": 6.37318619216, 
			 "total_energy": -387.083320166, 
			 "HOMO_LUMO_gap": 0.26469, 
			 "cosmo_polarized_energy": -6.17, 
			 "cosmo_cavitation_energy": 26.86, 
			 "cosmo_dispersion_energy": -19.12, 
			 "cosmo_repulsion_energy": 1.6, 
			 "cosmo_total_nonelectrostatic_energy": 9.34, 
			 "SMD_solvation_energy": 1.83 
		},
		"coords": [
			{
				"x": 1.628480873,
				"y": 1.9569637974,
				"z": 0.5230294825,
				"element": "C" 
			},
			{
				"x": 1.5663713438,
				"y": 0.7052657144,
				"z": -0.3596190578,
				"element": "C" 
			},
			{
				"x": 1.2637872928,
				"y": -0.5168766551,
				"z": 0.3760566983,
				"element": "N" 
			},
			{
				"x": 1.8391847497,
				"y": -1.7411240165,
				"z": -0.1651933919,
				"element": "C" 
			},
			{
				"x": 1.4306459441,
				"y": -2.1597212054,
				"z": -1.5914984802,
				"element": "C" 
			},
			{
				"x": -0.0040455752,
				"y": -0.6302257648,
				"z": 1.0857836946,
				"element": "C" 
			},
			{
				"x": -1.2724365242,
				"y": -1.0970414994,
				"z": 0.3342655673,
				"element": "C" 
			},
			{
				"x": -1.7565773736,
				"y": -0.1856070202,
				"z": -0.7956362572,
				"element": "C" 
			},
			{
				"x": -3.0061447126,
				"y": -0.7041890951,
				"z": -1.3643060039,
				"element": "N" 
			},
			{
				"x": 2.3184750666,
				"y": 1.8036927677,
				"z": 1.3584236479,
				"element": "H" 
			},
			{
				"x": 0.6507643266,
				"y": 2.225412899,
				"z": 0.9351941794,
				"element": "H" 
			},
			{
				"x": 1.9763136113,
				"y": 2.8128184278,
				"z": -0.0654390034,
				"element": "H" 
			},
			{
				"x": 0.8815503669,
				"y": 0.8992524062,
				"z": -1.2048330271,
				"element": "H" 
			},
			{
				"x": 2.5564858034,
				"y": 0.5589300019,
				"z": -0.8095867387,
				"element": "H" 
			},
			{
				"x": 1.5991402365,
				"y": -2.5535173739,
				"z": 0.5323201844,
				"element": "H" 
			},
			{
				"x": 2.934504506,
				"y": -1.6358998246,
				"z": -0.1459096259,
				"element": "H" 
			},
			{
				"x": 1.9725058507,
				"y": -3.0662054949,
				"z": -1.885578578,
				"element": "H" 
			},
			{
				"x": 0.3603284545,
				"y": -2.3672345778,
				"z": -1.6737200929,
				"element": "H" 
			},
			{
				"x": 1.6790087511,
				"y": -1.3801300131,
				"z": -2.3196463438,
				"element": "H" 
			},
			{
				"x": -0.2132117175,
				"y": 0.3396359247,
				"z": 1.5516920886,
				"element": "H" 
			},
			{
				"x": 0.14978904,
				"y": -1.3306145848,
				"z": 1.9193656033,
				"element": "H" 
			},
			{
				"x": -2.0739873551,
				"y": -1.1746670601,
				"z": 1.0855837361,
				"element": "H" 
			},
			{
				"x": -1.1381912173,
				"y": -2.1095461933,
				"z": -0.0619025951,
				"element": "H" 
			},
			{
				"x": -1.0131262681,
				"y": -0.1685988089,
				"z": -1.5999243647,
				"element": "H" 
			},
			{
				"x": -1.8309515051,
				"y": 0.8511021965,
				"z": -0.4157853935,
				"element": "H" 
			},
			{
				"x": -3.7464918475,
				"y": -0.6524282434,
				"z": -0.667332142,
				"element": "H" 
			},
			{
				"x": -3.3065721207,
				"y": -0.1186467043,
				"z": -2.1399037864,
				"element": "H" 
			}
		],
		 "valence_orbital": [ 
			{
				"type": "occ",
				"energy": -0.32905,
				"method": "rhf"
			},
			{
				"type": "occ",
				"energy": -0.3228,
				"method": "rhf"
			},
			{
				"type": "occ",
				"energy": -0.31534,
				"method": "rhf"
			},
			{
				"type": "occ",
				"energy": -0.22909,
				"method": "rhf"
			},
			{
				"type": "occ",
				"energy": -0.18711,
				"method": "rhf"
			},
			{
				"type": "unocc",
				"energy": 0.07758,
				"method": "rhf"
			},
			{
				"type": "unocc",
				"energy": 0.0903,
				"method": "rhf"
			},
			{
				"type": "unocc",
				"energy": 0.10442,
				"method": "rhf"
			},
			{
				"type": "unocc",
				"energy": 0.11272,
				"method": "rhf"
			},
			{
				"type": "unocc",
				"energy": 0.12605,
				"method": "rhf"
			}
		],
		"cosmo_sigma_profile": { 
			"-0.025": 0.0,
			"-0.024": 0.0,
			"-0.023": 0.0,
			"-0.022": 0.0,
			"-0.021": 0.0,
			"-0.02": 0.0,
			"-0.019": 0.0,
			"-0.018": 0.0,
			"-0.017": 0.0,
			"-0.016": 0.0,
			"-0.015": 0.0,
			"-0.014": 0.0,
			"-0.013": 0.0,
			"-0.012": 0.0,
			"-0.011": 0.0,
			"-0.01": 0.191222895207,
			"-0.009": 2.10405846318,
			"-0.008": 2.7506127971,
			"-0.007": 2.47918488104,
			"-0.006": 2.83218282359,
			"-0.005": 3.52674856876,
			"-0.004": 3.61270778596,
			"-0.003": 13.746297919,
			"-0.002": 33.5210976574,
			"-0.001": 41.8792084714,
			"0.0": 38.9399094534,
			"0.001": 24.3210115412,
			"0.002": 11.8196375592,
			"0.003": 3.46837934701,
			"0.004": 2.25139395908,
			"0.005": 2.34914387279,
			"0.006": 1.59531161211,
			"0.007": 2.41196133842,
			"0.008": 1.05111568958,
			"0.009": 1.50135096932,
			"0.01": 1.3918075466,
			"0.011": 1.14404212662,
			"0.012": 1.12261247417,
			"0.013": 1.36876451773,
			"0.014": 0.858712943441,
			"0.015": 0.614967827414,
			"0.016": 0.584480287226,
			"0.017": 0.521601879948,
			"0.018": 0.307857723064,
			"0.019": 0.943110962317,
			"0.02": 0.384886021943,
			"0.021": 0.0665207237945,
			"0.022": 0.0,
			"0.023": 0.0,
			"0.024": 0.0,
			"0.025": 0.0
		}
	}
}
