{
	 "smiles": "CC1=C(OC2=C1C(=O)CCC2)C(O)=O", 
	 "Tm": 501.15, 
	 "num_atms": 24, 
	 "gaussian": { 
		 "optdone": 1, 
		 "sigma_profile": "yes", 
		 "theory": "DFT", 
		 "functional": "B3LYP", 
		 "basiset": "6-31G**", 
		 "properties": { 
			 "R2extent": 3416.4799, 
			 "electric_dipole_moment_norm": 4.07423392799, 
			 "electric_quadrupole_moment_norm": 27.0950645561, 
			 "total_energy": -687.989697358, 
			 "HOMO_LUMO_gap": 0.19861, 
			 "cosmo_polarized_energy": -18.53, 
			 "cosmo_cavitation_energy": 27.43, 
			 "cosmo_dispersion_energy": -20.51, 
			 "cosmo_repulsion_energy": 1.61, 
			 "cosmo_total_nonelectrostatic_energy": 8.54, 
			 "SMD_solvation_energy": 6.3 
		},
		"coords": [
			{
				"x": -2.1520572045,
				"y": -1.5355823112,
				"z": 0.573090094,
				"element": "C" 
			},
			{
				"x": -1.6560559732,
				"y": -0.233916172,
				"z": 0.0060945102,
				"element": "C" 
			},
			{
				"x": -2.3710807081,
				"y": 0.7995922861,
				"z": -0.5528515328,
				"element": "C" 
			},
			{
				"x": -1.5167635797,
				"y": 1.8123131021,
				"z": -0.9553329206,
				"element": "O" 
			},
			{
				"x": -0.2716116776,
				"y": 1.423409014,
				"z": -0.6528461766,
				"element": "C" 
			},
			{
				"x": -0.279161936,
				"y": 0.1790464738,
				"z": -0.0648651993,
				"element": "C" 
			},
			{
				"x": 0.9682807957,
				"y": -0.487437708,
				"z": 0.3324707346,
				"element": "C" 
			},
			{
				"x": 1.0100867112,
				"y": -1.5818347133,
				"z": 0.8787608211,
				"element": "O" 
			},
			{
				"x": 2.2411596718,
				"y": 0.2808146027,
				"z": -0.038729539,
				"element": "C" 
			},
			{
				"x": 2.0734030118,
				"y": 1.8121512766,
				"z": -0.0407952748,
				"element": "C" 
			},
			{
				"x": 0.9118087059,
				"y": 2.2759308606,
				"z": -0.9448675082,
				"element": "C" 
			},
			{
				"x": -3.7981990523,
				"y": 1.0585161253,
				"z": -0.8244777852,
				"element": "C" 
			},
			{
				"x": -4.667523602,
				"y": 0.1135791394,
				"z": -0.3738647721,
				"element": "O" 
			},
			{
				"x": -4.1989568243,
				"y": 2.0340211773,
				"z": -1.4117343525,
				"element": "O" 
			},
			{
				"x": -2.7648783473,
				"y": -2.0885169329,
				"z": -0.1491732877,
				"element": "H" 
			},
			{
				"x": -1.3005548847,
				"y": -2.1607732714,
				"z": 0.8435825169,
				"element": "H" 
			},
			{
				"x": -2.7438112471,
				"y": -1.381661174,
				"z": 1.4851929617,
				"element": "H" 
			},
			{
				"x": 2.5357313192,
				"y": -0.0625969997,
				"z": -1.0417721632,
				"element": "H" 
			},
			{
				"x": 3.0324828544,
				"y": -0.0362504053,
				"z": 0.6457778735,
				"element": "H" 
			},
			{
				"x": 1.8807088764,
				"y": 2.1535394603,
				"z": 0.9832253724,
				"element": "H" 
			},
			{
				"x": 3.0048103813,
				"y": 2.2874427389,
				"z": -0.3632192828,
				"element": "H" 
			},
			{
				"x": 1.186056669,
				"y": 2.1755060225,
				"z": -2.0051852961,
				"element": "H" 
			},
			{
				"x": 0.6725088981,
				"y": 3.3320959428,
				"z": -0.7828888877,
				"element": "H" 
			},
			{
				"x": -4.2112828579,
				"y": -0.5812885343,
				"z": 0.1203090944,
				"element": "H" 
			}
		],
		 "valence_orbital": [ 
			{
				"type": "occ",
				"energy": -0.31635,
				"method": "rhf"
			},
			{
				"type": "occ",
				"energy": -0.29584,
				"method": "rhf"
			},
			{
				"type": "occ",
				"energy": -0.27727,
				"method": "rhf"
			},
			{
				"type": "occ",
				"energy": -0.25672,
				"method": "rhf"
			},
			{
				"type": "occ",
				"energy": -0.25057,
				"method": "rhf"
			},
			{
				"type": "unocc",
				"energy": -0.05196,
				"method": "rhf"
			},
			{
				"type": "unocc",
				"energy": -0.05028,
				"method": "rhf"
			},
			{
				"type": "unocc",
				"energy": 0.05772,
				"method": "rhf"
			},
			{
				"type": "unocc",
				"energy": 0.06106,
				"method": "rhf"
			},
			{
				"type": "unocc",
				"energy": 0.07915,
				"method": "rhf"
			}
		],
		"cosmo_sigma_profile": { 
			"-0.025": 0.0,
			"-0.024": 0.0,
			"-0.023": 0.0,
			"-0.022": 0.0,
			"-0.021": 0.0,
			"-0.02": 0.0,
			"-0.019": 0.0,
			"-0.018": 0.0,
			"-0.017": 0.0,
			"-0.016": 0.0761233476778,
			"-0.015": 0.867660314027,
			"-0.014": 1.33747129446,
			"-0.013": 1.27069415358,
			"-0.012": 1.4905692139,
			"-0.011": 2.02050919634,
			"-0.01": 1.6084880025,
			"-0.009": 1.53202809702,
			"-0.008": 2.41215784307,
			"-0.007": 3.8924085372,
			"-0.006": 12.9262685323,
			"-0.005": 17.3458078685,
			"-0.004": 22.336295998,
			"-0.003": 23.1429526934,
			"-0.002": 21.7774336807,
			"-0.001": 19.1017335909,
			"0.0": 12.2114515329,
			"0.001": 5.45324599907,
			"0.002": 4.51523339432,
			"0.003": 4.82913557187,
			"0.004": 3.95346799102,
			"0.005": 4.48045076763,
			"0.006": 5.53819805778,
			"0.007": 3.90924090292,
			"0.008": 4.18412438039,
			"0.009": 5.90922536301,
			"0.01": 7.49252442116,
			"0.011": 8.47170381363,
			"0.012": 9.21043463722,
			"0.013": 4.14936141146,
			"0.014": 0.224476408168,
			"0.015": 0.0,
			"0.016": 0.0,
			"0.017": 0.0,
			"0.018": 0.0,
			"0.019": 0.0,
			"0.02": 0.0,
			"0.021": 0.0,
			"0.022": 0.0,
			"0.023": 0.0,
			"0.024": 0.0,
			"0.025": 0.0
		}
	}
}
