{
	 "smiles": "FC1=CC(Cl)=C(CBr)C=C1", 
	 "Tm": 310.15, 
	 "num_atms": 15, 
	 "gaussian": { 
		 "optdone": 1, 
		 "sigma_profile": "yes", 
		 "theory": "DFT", 
		 "functional": "B3LYP", 
		 "basiset": "6-31G**", 
		 "properties": { 
			 "R2extent": 2902.7244, 
			 "electric_dipole_moment_norm": 2.36634956632, 
			 "electric_quadrupole_moment_norm": 9.18135581927, 
			 "total_energy": -3401.19235995, 
			 "HOMO_LUMO_gap": 0.20742, 
			 "cosmo_polarized_energy": -6.31, 
			 "cosmo_cavitation_energy": 23.74, 
			 "cosmo_dispersion_energy": -17.58, 
			 "cosmo_repulsion_energy": 1.4, 
			 "cosmo_total_nonelectrostatic_energy": 7.56, 
			 "SMD_solvation_energy": 3.1 
		},
		"coords": [
			{
				"x": 3.0855868399,
				"y": 1.6407047171,
				"z": 1.9982802332,
				"element": "F" 
			},
			{
				"x": 2.0322024373,
				"y": 1.3645213568,
				"z": 1.2087979185,
				"element": "C" 
			},
			{
				"x": 1.632925588,
				"y": 0.0406936351,
				"z": 1.0726156451,
				"element": "C" 
			},
			{
				"x": 0.541007565,
				"y": -0.2394555051,
				"z": 0.2532995059,
				"element": "C" 
			},
			{
				"x": 0.0507544625,
				"y": -1.9177816854,
				"z": 0.0977904002,
				"element": "Cl" 
			},
			{
				"x": -0.1524596409,
				"y": 0.772883859,
				"z": -0.4328547847,
				"element": "C" 
			},
			{
				"x": -1.3133111298,
				"y": 0.4972852185,
				"z": -1.3277160896,
				"element": "C" 
			},
			{
				"x": -3.055417485,
				"y": 0.4956127425,
				"z": -0.3350289427,
				"element": "Br" 
			},
			{
				"x": 0.2951853391,
				"y": 2.092116695,
				"z": -0.2563272947,
				"element": "C" 
			},
			{
				"x": 1.3803261475,
				"y": 2.4045507507,
				"z": 0.555762743,
				"element": "C" 
			},
			{
				"x": 2.1632013866,
				"y": -0.7461456064,
				"z": 1.5945680523,
				"element": "H" 
			},
			{
				"x": -1.4352658453,
				"y": 1.2722060893,
				"z": -2.0813602045,
				"element": "H" 
			},
			{
				"x": -1.2690498173,
				"y": -0.4826035476,
				"z": -1.7954452431,
				"element": "H" 
			},
			{
				"x": -0.2310973373,
				"y": 2.8912531386,
				"z": -0.7704517172,
				"element": "H" 
			},
			{
				"x": 1.7226114897,
				"y": 3.424558142,
				"z": 0.6870697783,
				"element": "H" 
			}
		],
		 "valence_orbital": [ 
			{
				"type": "occ",
				"energy": -0.32666,
				"method": "rhf"
			},
			{
				"type": "occ",
				"energy": -0.27873,
				"method": "rhf"
			},
			{
				"type": "occ",
				"energy": -0.27286,
				"method": "rhf"
			},
			{
				"type": "occ",
				"energy": -0.26978,
				"method": "rhf"
			},
			{
				"type": "occ",
				"energy": -0.25439,
				"method": "rhf"
			},
			{
				"type": "unocc",
				"energy": -0.04697,
				"method": "rhf"
			},
			{
				"type": "unocc",
				"energy": -0.03207,
				"method": "rhf"
			},
			{
				"type": "unocc",
				"energy": 0.01516,
				"method": "rhf"
			},
			{
				"type": "unocc",
				"energy": 0.02254,
				"method": "rhf"
			},
			{
				"type": "unocc",
				"energy": 0.08895,
				"method": "rhf"
			}
		],
		"cosmo_sigma_profile": { 
			"-0.025": 0.0,
			"-0.024": 0.0,
			"-0.023": 0.0,
			"-0.022": 0.0,
			"-0.021": 0.0,
			"-0.02": 0.0,
			"-0.019": 0.0,
			"-0.018": 0.0,
			"-0.017": 0.0,
			"-0.016": 0.0,
			"-0.015": 0.0,
			"-0.014": 0.0,
			"-0.013": 0.0,
			"-0.012": 0.0,
			"-0.011": 0.0,
			"-0.01": 0.0,
			"-0.009": 1.93570826993,
			"-0.008": 7.51917811379,
			"-0.007": 9.13683521635,
			"-0.006": 8.59992705167,
			"-0.005": 8.27602920756,
			"-0.004": 7.76248333575,
			"-0.003": 8.00207096988,
			"-0.002": 10.4124793182,
			"-0.001": 14.235949931,
			"0.0": 18.4312872953,
			"0.001": 21.5213877281,
			"0.002": 19.3089314982,
			"0.003": 19.1953584353,
			"0.004": 19.1773277394,
			"0.005": 9.15813578482,
			"0.006": 11.4540423528,
			"0.007": 1.98544190488,
			"0.008": 0.0,
			"0.009": 0.0,
			"0.01": 0.0,
			"0.011": 0.0,
			"0.012": 0.0,
			"0.013": 0.0,
			"0.014": 0.0,
			"0.015": 0.0,
			"0.016": 0.0,
			"0.017": 0.0,
			"0.018": 0.0,
			"0.019": 0.0,
			"0.02": 0.0,
			"0.021": 0.0,
			"0.022": 0.0,
			"0.023": 0.0,
			"0.024": 0.0,
			"0.025": 0.0
		}
	}
}
