{
	 "smiles": "OC1C(O)C(O)C(OP(O)(O)=O)C(O)C1O", 
	 "Tm": 468.15, 
	 "num_atms": 29, 
	 "gaussian": { 
		 "optdone": 1, 
		 "sigma_profile": "yes", 
		 "theory": "DFT", 
		 "functional": "B3LYP", 
		 "basiset": "6-31G**", 
		 "properties": { 
			 "R2extent": 4103.6408, 
			 "electric_dipole_moment_norm": 3.21838221782, 
			 "electric_quadrupole_moment_norm": 16.90028531, 
			 "total_energy": -1254.88256864, 
			 "HOMO_LUMO_gap": 0.2836, 
			 "cosmo_polarized_energy": -33.58, 
			 "cosmo_cavitation_energy": 32.71, 
			 "cosmo_dispersion_energy": -23.33, 
			 "cosmo_repulsion_energy": 1.81, 
			 "cosmo_total_nonelectrostatic_energy": 11.19, 
			 "SMD_solvation_energy": 7.28 
		},
		"coords": [
			{
				"x": -1.4199589622,
				"y": 1.6629703584,
				"z": -1.9023438472,
				"element": "O" 
			},
			{
				"x": -0.7546169038,
				"y": 0.800535208,
				"z": -1.0008330005,
				"element": "C" 
			},
			{
				"x": -1.0645657929,
				"y": 1.2568198631,
				"z": 0.4388151391,
				"element": "C" 
			},
			{
				"x": -2.1954205936,
				"y": 0.5897786887,
				"z": 1.0004784788,
				"element": "O" 
			},
			{
				"x": 0.1529710515,
				"y": 1.0953915151,
				"z": 1.3973265837,
				"element": "C" 
			},
			{
				"x": -0.2659275088,
				"y": 1.1602028791,
				"z": 2.737403583,
				"element": "O" 
			},
			{
				"x": 0.9303807699,
				"y": -0.1899810222,
				"z": 1.0895400043,
				"element": "C" 
			},
			{
				"x": -0.0233902482,
				"y": -1.283244401,
				"z": 1.2746535244,
				"element": "O" 
			},
			{
				"x": 0.4548636209,
				"y": -2.8200790703,
				"z": 1.40081738,
				"element": "P" 
			},
			{
				"x": 1.4935349064,
				"y": -2.73955847,
				"z": 2.6421921527,
				"element": "O" 
			},
			{
				"x": -0.8830292087,
				"y": -3.4853989678,
				"z": 1.9885114201,
				"element": "O" 
			},
			{
				"x": 0.9745400598,
				"y": -3.4932370542,
				"z": 0.1967702894,
				"element": "O" 
			},
			{
				"x": 1.4921521891,
				"y": -0.1893462423,
				"z": -0.3570238056,
				"element": "C" 
			},
			{
				"x": 2.8984296869,
				"y": 0.0494465734,
				"z": -0.3991094579,
				"element": "O" 
			},
			{
				"x": 0.7534887871,
				"y": 0.8050788688,
				"z": -1.263468133,
				"element": "C" 
			},
			{
				"x": 0.936230753,
				"y": 0.4915501543,
				"z": -2.6355291857,
				"element": "O" 
			},
			{
				"x": -1.0778853482,
				"y": 1.4468018361,
				"z": -2.7826284298,
				"element": "H" 
			},
			{
				"x": -1.1087630355,
				"y": -0.237373489,
				"z": -1.1233847277,
				"element": "H" 
			},
			{
				"x": -1.3445047732,
				"y": 2.3129015441,
				"z": 0.3994349565,
				"element": "H" 
			},
			{
				"x": -2.0181971269,
				"y": -0.3610025877,
				"z": 0.9371576274,
				"element": "H" 
			},
			{
				"x": 0.8486514452,
				"y": 1.929113083,
				"z": 1.2233580446,
				"element": "H" 
			},
			{
				"x": -1.2017878749,
				"y": 0.8949007766,
				"z": 2.7145405083,
				"element": "H" 
			},
			{
				"x": 1.7475587053,
				"y": -0.3270073096,
				"z": 1.8031695107,
				"element": "H" 
			},
			{
				"x": 2.2285123957,
				"y": -3.3534407646,
				"z": 2.4993713716,
				"element": "H" 
			},
			{
				"x": -1.1551154909,
				"y": -3.1013539059,
				"z": 2.8345326607,
				"element": "H" 
			},
			{
				"x": 1.3631501024,
				"y": -1.1918171995,
				"z": -0.7735941576,
				"element": "H" 
			},
			{
				"x": 3.0656784389,
				"y": 0.9462032171,
				"z": -0.0760768038,
				"element": "H" 
			},
			{
				"x": 1.1317817106,
				"y": 1.8241897205,
				"z": -1.0628435511,
				"element": "H" 
			},
			{
				"x": 1.886838245,
				"y": 0.4003561979,
				"z": -2.7888381355,
				"element": "H" 
			}
		],
		 "valence_orbital": [ 
			{
				"type": "occ",
				"energy": -0.30485,
				"method": "rhf"
			},
			{
				"type": "occ",
				"energy": -0.29424,
				"method": "rhf"
			},
			{
				"type": "occ",
				"energy": -0.27969,
				"method": "rhf"
			},
			{
				"type": "occ",
				"energy": -0.27225,
				"method": "rhf"
			},
			{
				"type": "occ",
				"energy": -0.26773,
				"method": "rhf"
			},
			{
				"type": "unocc",
				"energy": 0.01587,
				"method": "rhf"
			},
			{
				"type": "unocc",
				"energy": 0.03947,
				"method": "rhf"
			},
			{
				"type": "unocc",
				"energy": 0.06094,
				"method": "rhf"
			},
			{
				"type": "unocc",
				"energy": 0.0627,
				"method": "rhf"
			},
			{
				"type": "unocc",
				"energy": 0.07321,
				"method": "rhf"
			}
		],
		"cosmo_sigma_profile": { 
			"-0.025": 0.0,
			"-0.024": 0.0,
			"-0.023": 0.0,
			"-0.022": 0.0,
			"-0.021": 0.0615786859774,
			"-0.02": 1.18275559472,
			"-0.019": 2.15164614572,
			"-0.018": 1.29611506387,
			"-0.017": 1.80634634185,
			"-0.016": 2.99800907149,
			"-0.015": 4.02072957512,
			"-0.014": 2.99251987545,
			"-0.013": 3.64400069585,
			"-0.012": 4.80813358491,
			"-0.011": 5.06578145411,
			"-0.01": 4.85570234462,
			"-0.009": 6.2930974723,
			"-0.008": 7.87862749943,
			"-0.007": 8.8411841245,
			"-0.006": 10.8954700158,
			"-0.005": 11.4219760087,
			"-0.004": 11.389026681,
			"-0.003": 11.3679307864,
			"-0.002": 11.0406128101,
			"-0.001": 9.49487262618,
			"0.0": 7.46057065443,
			"0.001": 9.11046943588,
			"0.002": 8.28197277671,
			"0.003": 9.0434883796,
			"0.004": 8.65222980393,
			"0.005": 7.11599255997,
			"0.006": 8.32760004414,
			"0.007": 8.06047727186,
			"0.008": 10.8695228196,
			"0.009": 9.35161610866,
			"0.01": 8.27560844029,
			"0.011": 6.82311539694,
			"0.012": 8.08208984752,
			"0.013": 11.1522370576,
			"0.014": 6.2739500445,
			"0.015": 0.0945847041489,
			"0.016": 0.0,
			"0.017": 0.0,
			"0.018": 0.0,
			"0.019": 0.0,
			"0.02": 0.0,
			"0.021": 0.0,
			"0.022": 0.0,
			"0.023": 0.0,
			"0.024": 0.0,
			"0.025": 0.0
		}
	}
}
