{
	 "smiles": "COC1=C(S)C=CC(=C1)C(C)=O", 
	 "Tm": 332.15, 
	 "num_atms": 22, 
	 "gaussian": { 
		 "optdone": 1, 
		 "sigma_profile": "yes", 
		 "theory": "DFT", 
		 "functional": "B3LYP", 
		 "basiset": "6-31G**", 
		 "properties": { 
			 "R2extent": 2959.151, 
			 "electric_dipole_moment_norm": 0.700098185971, 
			 "electric_quadrupole_moment_norm": 20.4995388487, 
			 "total_energy": -897.611277313, 
			 "HOMO_LUMO_gap": 0.16301, 
			 "cosmo_polarized_energy": -9.86, 
			 "cosmo_cavitation_energy": 27.45, 
			 "cosmo_dispersion_energy": -20.48, 
			 "cosmo_repulsion_energy": 1.58, 
			 "cosmo_total_nonelectrostatic_energy": 8.55, 
			 "SMD_solvation_energy": 5.61 
		},
		"coords": [
			{
				"x": 0.1456231907,
				"y": -1.8393856592,
				"z": 3.3873726129,
				"element": "C" 
			},
			{
				"x": -0.9154943312,
				"y": -1.5503255514,
				"z": 2.4853018226,
				"element": "O" 
			},
			{
				"x": -0.6193357991,
				"y": -0.8990117743,
				"z": 1.3223057146,
				"element": "C" 
			},
			{
				"x": -1.71204437,
				"y": -0.6360946685,
				"z": 0.4601424934,
				"element": "C" 
			},
			{
				"x": -3.3717651979,
				"y": -1.122715612,
				"z": 0.8637131266,
				"element": "S" 
			},
			{
				"x": -1.4790388751,
				"y": 0.027499675,
				"z": -0.7473412224,
				"element": "C" 
			},
			{
				"x": -0.1953272775,
				"y": 0.4299462335,
				"z": -1.1096437428,
				"element": "C" 
			},
			{
				"x": 0.8860519664,
				"y": 0.1716219286,
				"z": -0.2598952464,
				"element": "C" 
			},
			{
				"x": 0.6593756107,
				"y": -0.4952114518,
				"z": 0.9559135585,
				"element": "C" 
			},
			{
				"x": 2.2918133579,
				"y": 0.5707369473,
				"z": -0.5763003244,
				"element": "C" 
			},
			{
				"x": 2.5727620207,
				"y": 1.2930858167,
				"z": -1.8837340104,
				"element": "C" 
			},
			{
				"x": 3.2025535693,
				"y": 0.3207335828,
				"z": 0.2018365893,
				"element": "O" 
			},
			{
				"x": 0.8959811395,
				"y": -2.4925292589,
				"z": 2.9262597604,
				"element": "H" 
			},
			{
				"x": -0.3131798276,
				"y": -2.3537755455,
				"z": 4.2325699866,
				"element": "H" 
			},
			{
				"x": 0.6327629374,
				"y": -0.9221989638,
				"z": 3.7391167696,
				"element": "H" 
			},
			{
				"x": -3.0693241673,
				"y": -1.6858999204,
				"z": 2.0470967748,
				"element": "H" 
			},
			{
				"x": -2.3162807231,
				"y": 0.2294504793,
				"z": -1.4090627446,
				"element": "H" 
			},
			{
				"x": -0.0501489759,
				"y": 0.9426948836,
				"z": -2.0541204504,
				"element": "H" 
			},
			{
				"x": 1.5193630724,
				"y": -0.6781529446,
				"z": 1.5883165179,
				"element": "H" 
			},
			{
				"x": 3.6410314116,
				"y": 1.5023953503,
				"z": -1.9435703977,
				"element": "H" 
			},
			{
				"x": 2.2731179015,
				"y": 0.6825877282,
				"z": -2.7426671846,
				"element": "H" 
			},
			{
				"x": 2.0141033667,
				"y": 2.2337487253,
				"z": -1.9413104034,
				"element": "H" 
			}
		],
		 "valence_orbital": [ 
			{
				"type": "occ",
				"energy": -0.33049,
				"method": "rhf"
			},
			{
				"type": "occ",
				"energy": -0.29838,
				"method": "rhf"
			},
			{
				"type": "occ",
				"energy": -0.24706,
				"method": "rhf"
			},
			{
				"type": "occ",
				"energy": -0.24513,
				"method": "rhf"
			},
			{
				"type": "occ",
				"energy": -0.21727,
				"method": "rhf"
			},
			{
				"type": "unocc",
				"energy": -0.05426,
				"method": "rhf"
			},
			{
				"type": "unocc",
				"energy": -0.00267,
				"method": "rhf"
			},
			{
				"type": "unocc",
				"energy": 0.0253,
				"method": "rhf"
			},
			{
				"type": "unocc",
				"energy": 0.04164,
				"method": "rhf"
			},
			{
				"type": "unocc",
				"energy": 0.06596,
				"method": "rhf"
			}
		],
		"cosmo_sigma_profile": { 
			"-0.025": 0.0,
			"-0.024": 0.0,
			"-0.023": 0.0,
			"-0.022": 0.0,
			"-0.021": 0.0,
			"-0.02": 0.0,
			"-0.019": 0.0,
			"-0.018": 0.0,
			"-0.017": 0.0,
			"-0.016": 0.0,
			"-0.015": 0.0,
			"-0.014": 0.0,
			"-0.013": 0.0,
			"-0.012": 0.0,
			"-0.011": 0.0,
			"-0.01": 0.580788243095,
			"-0.009": 0.801462506668,
			"-0.008": 1.51982713308,
			"-0.007": 3.90174093779,
			"-0.006": 17.5722737422,
			"-0.005": 22.2192709908,
			"-0.004": 19.1007100888,
			"-0.003": 17.2167509158,
			"-0.002": 12.1656011964,
			"-0.001": 15.5954803496,
			"0.0": 12.6771422534,
			"0.001": 13.658274495,
			"0.002": 16.7064113972,
			"0.003": 19.923130067,
			"0.004": 14.8424288565,
			"0.005": 6.3864341636,
			"0.006": 5.18266921481,
			"0.007": 4.2563264477,
			"0.008": 3.63895532613,
			"0.009": 2.10648300362,
			"0.01": 1.97519773247,
			"0.011": 2.69045620438,
			"0.012": 4.07499740022,
			"0.013": 1.90534574061,
			"0.014": 0.310280609934,
			"0.015": 0.0,
			"0.016": 0.0,
			"0.017": 0.0,
			"0.018": 0.0,
			"0.019": 0.0,
			"0.02": 0.0,
			"0.021": 0.0,
			"0.022": 0.0,
			"0.023": 0.0,
			"0.024": 0.0,
			"0.025": 0.0
		}
	}
}
