{
	 "smiles": "CSC1=NC(N)=C(S1)C#N", 
	 "Tm": 481.15, 
	 "num_atms": 15, 
	 "gaussian": { 
		 "optdone": 1, 
		 "sigma_profile": "yes", 
		 "theory": "DFT", 
		 "functional": "B3LYP", 
		 "basiset": "6-31G**", 
		 "properties": { 
			 "R2extent": 2956.0867, 
			 "electric_dipole_moment_norm": 5.50555014145, 
			 "electric_quadrupole_moment_norm": 19.5752932096, 
			 "total_energy": -1154.15219623, 
			 "HOMO_LUMO_gap": 0.16097, 
			 "cosmo_polarized_energy": -13.05, 
			 "cosmo_cavitation_energy": 23.97, 
			 "cosmo_dispersion_energy": -18.14, 
			 "cosmo_repulsion_energy": 1.41, 
			 "cosmo_total_nonelectrostatic_energy": 7.23, 
			 "SMD_solvation_energy": 4.09 
		},
		"coords": [
			{
				"x": 1.6762560118,
				"y": 0.8063425993,
				"z": 1.6264496314,
				"element": "C" 
			},
			{
				"x": 2.1424730527,
				"y": -0.8391972052,
				"z": 0.9866767728,
				"element": "S" 
			},
			{
				"x": 1.0661069834,
				"y": -0.9436564503,
				"z": -0.3985415789,
				"element": "C" 
			},
			{
				"x": 0.1950965283,
				"y": -0.0281207296,
				"z": -0.7288625544,
				"element": "N" 
			},
			{
				"x": -0.5005466945,
				"y": -0.3910427816,
				"z": -1.856264391,
				"element": "C" 
			},
			{
				"x": -1.4183024788,
				"y": 0.4866478791,
				"z": -2.3629141021,
				"element": "N" 
			},
			{
				"x": -0.1609116065,
				"y": -1.6242225027,
				"z": -2.3995626862,
				"element": "C" 
			},
			{
				"x": 1.1283556794,
				"y": -2.3542560852,
				"z": -1.4411001308,
				"element": "S" 
			},
			{
				"x": -0.7408276034,
				"y": -2.2281994747,
				"z": -3.5265821932,
				"element": "C" 
			},
			{
				"x": -1.2573775943,
				"y": -2.6942481247,
				"z": -4.4651300586,
				"element": "N" 
			},
			{
				"x": 1.8662209245,
				"y": 1.5730702387,
				"z": 0.8753177795,
				"element": "H" 
			},
			{
				"x": 2.3082977005,
				"y": 0.9692420573,
				"z": 2.5014744523,
				"element": "H" 
			},
			{
				"x": 0.6247321319,
				"y": 0.8187034511,
				"z": 1.9130050483,
				"element": "H" 
			},
			{
				"x": -2.0829703748,
				"y": 0.1335699836,
				"z": -3.0351908656,
				"element": "H" 
			},
			{
				"x": -1.7611026603,
				"y": 1.184167145,
				"z": -1.7200751233,
				"element": "H" 
			}
		],
		 "valence_orbital": [ 
			{
				"type": "occ",
				"energy": -0.33025,
				"method": "rhf"
			},
			{
				"type": "occ",
				"energy": -0.30123,
				"method": "rhf"
			},
			{
				"type": "occ",
				"energy": -0.29273,
				"method": "rhf"
			},
			{
				"type": "occ",
				"energy": -0.26839,
				"method": "rhf"
			},
			{
				"type": "occ",
				"energy": -0.21352,
				"method": "rhf"
			},
			{
				"type": "unocc",
				"energy": -0.05255,
				"method": "rhf"
			},
			{
				"type": "unocc",
				"energy": -0.02227,
				"method": "rhf"
			},
			{
				"type": "unocc",
				"energy": 0.00938,
				"method": "rhf"
			},
			{
				"type": "unocc",
				"energy": 0.01903,
				"method": "rhf"
			},
			{
				"type": "unocc",
				"energy": 0.02372,
				"method": "rhf"
			}
		],
		"cosmo_sigma_profile": { 
			"-0.025": 0.0,
			"-0.024": 0.0,
			"-0.023": 0.0,
			"-0.022": 0.0,
			"-0.021": 0.0,
			"-0.02": 0.0,
			"-0.019": 0.0,
			"-0.018": 0.0,
			"-0.017": 0.0,
			"-0.016": 0.0,
			"-0.015": 0.323303746035,
			"-0.014": 1.98361916349,
			"-0.013": 2.28595429787,
			"-0.012": 1.94469961045,
			"-0.011": 2.70860249898,
			"-0.01": 2.19065413194,
			"-0.009": 1.86838727923,
			"-0.008": 3.84429562283,
			"-0.007": 5.02369742909,
			"-0.006": 7.35172730262,
			"-0.005": 9.43502799242,
			"-0.004": 10.7443659201,
			"-0.003": 12.3752056518,
			"-0.002": 13.7381296589,
			"-0.001": 15.5383451182,
			"0.0": 17.7237641921,
			"0.001": 17.875661366,
			"0.002": 13.0383436631,
			"0.003": 10.8314306841,
			"0.004": 6.89945568327,
			"0.005": 7.59656410353,
			"0.006": 5.11075759926,
			"0.007": 5.09072812762,
			"0.008": 4.54805054193,
			"0.009": 4.32969326287,
			"0.01": 3.6461044207,
			"0.011": 3.08111559326,
			"0.012": 2.94098655064,
			"0.013": 2.29633131708,
			"0.014": 0.736723895531,
			"0.015": 0.0,
			"0.016": 0.0,
			"0.017": 0.0,
			"0.018": 0.0,
			"0.019": 0.0,
			"0.02": 0.0,
			"0.021": 0.0,
			"0.022": 0.0,
			"0.023": 0.0,
			"0.024": 0.0,
			"0.025": 0.0
		}
	}
}
