{
	 "smiles": "OC(=O)CCCCC1CCSS1", 
	 "Tm": 333.65, 
	 "num_atms": 26, 
	 "gaussian": { 
		 "optdone": 1, 
		 "sigma_profile": "yes", 
		 "theory": "DFT", 
		 "functional": "B3LYP", 
		 "basiset": "6-31G**", 
		 "properties": { 
			 "R2extent": 4823.8969, 
			 "electric_dipole_moment_norm": 4.99288785073, 
			 "electric_quadrupole_moment_norm": 26.4519886247, 
			 "total_energy": -1260.12405223, 
			 "HOMO_LUMO_gap": 0.16902, 
			 "cosmo_polarized_energy": -19.78, 
			 "cosmo_cavitation_energy": 31.09, 
			 "cosmo_dispersion_energy": -23.25, 
			 "cosmo_repulsion_energy": 1.78, 
			 "cosmo_total_nonelectrostatic_energy": 9.62, 
			 "SMD_solvation_energy": 4.13 
		},
		"coords": [
			{
				"x": -1.2222562858,
				"y": 4.5011466603,
				"z": 0.9513746063,
				"element": "O" 
			},
			{
				"x": -0.5765962359,
				"y": 3.6527388806,
				"z": 1.8021766271,
				"element": "C" 
			},
			{
				"x": 0.3954490106,
				"y": 4.0324710586,
				"z": 2.4047240509,
				"element": "O" 
			},
			{
				"x": -1.1453932903,
				"y": 2.2418281723,
				"z": 1.8784911559,
				"element": "C" 
			},
			{
				"x": -0.8732843538,
				"y": 1.4193690453,
				"z": 0.5982748966,
				"element": "C" 
			},
			{
				"x": 0.6223605884,
				"y": 1.1669295398,
				"z": 0.3583920727,
				"element": "C" 
			},
			{
				"x": 0.9968224451,
				"y": 0.5180827689,
				"z": -0.9878328652,
				"element": "C" 
			},
			{
				"x": 0.5341311166,
				"y": -0.9389575731,
				"z": -1.1823618707,
				"element": "C" 
			},
			{
				"x": -0.8832093349,
				"y": -1.114705058,
				"z": -1.7588594384,
				"element": "C" 
			},
			{
				"x": -1.170858433,
				"y": -2.5712519433,
				"z": -2.180131684,
				"element": "C" 
			},
			{
				"x": 0.4240770286,
				"y": -3.4926990601,
				"z": -2.459034163,
				"element": "S" 
			},
			{
				"x": 1.6417795232,
				"y": -1.7703121394,
				"z": -2.4131855256,
				"element": "S" 
			},
			{
				"x": -1.9918265712,
				"y": 4.0642539916,
				"z": 0.5603820755,
				"element": "H" 
			},
			{
				"x": -0.6853623647,
				"y": 1.7580081585,
				"z": 2.7432941808,
				"element": "H" 
			},
			{
				"x": -2.2265597494,
				"y": 2.2940292387,
				"z": 2.0623716638,
				"element": "H" 
			},
			{
				"x": -1.4117058581,
				"y": 0.4704766038,
				"z": 0.6931041509,
				"element": "H" 
			},
			{
				"x": -1.305819145,
				"y": 1.932246176,
				"z": -0.2726019678,
				"element": "H" 
			},
			{
				"x": 1.0160241937,
				"y": 0.5514841443,
				"z": 1.1783003391,
				"element": "H" 
			},
			{
				"x": 1.1569300861,
				"y": 2.1220986824,
				"z": 0.4228167371,
				"element": "H" 
			},
			{
				"x": 0.6249703757,
				"y": 1.1308501331,
				"z": -1.8191026241,
				"element": "H" 
			},
			{
				"x": 2.0905222658,
				"y": 0.5459661011,
				"z": -1.0556521174,
				"element": "H" 
			},
			{
				"x": 0.6324711197,
				"y": -1.4952386651,
				"z": -0.2425014922,
				"element": "H" 
			},
			{
				"x": -0.9739843618,
				"y": -0.461105378,
				"z": -2.6321865211,
				"element": "H" 
			},
			{
				"x": -1.6391231748,
				"y": -0.7979193071,
				"z": -1.0321836928,
				"element": "H" 
			},
			{
				"x": -1.6913153842,
				"y": -3.126043466,
				"z": -1.395862317,
				"element": "H" 
			},
			{
				"x": -1.7747432106,
				"y": -2.6029467652,
				"z": -3.0895062774,
				"element": "H" 
			}
		],
		 "valence_orbital": [ 
			{
				"type": "occ",
				"energy": -0.32264,
				"method": "rhf"
			},
			{
				"type": "occ",
				"energy": -0.31907,
				"method": "rhf"
			},
			{
				"type": "occ",
				"energy": -0.27672,
				"method": "rhf"
			},
			{
				"type": "occ",
				"energy": -0.27275,
				"method": "rhf"
			},
			{
				"type": "occ",
				"energy": -0.20705,
				"method": "rhf"
			},
			{
				"type": "unocc",
				"energy": -0.03803,
				"method": "rhf"
			},
			{
				"type": "unocc",
				"energy": 0.00038,
				"method": "rhf"
			},
			{
				"type": "unocc",
				"energy": 0.01769,
				"method": "rhf"
			},
			{
				"type": "unocc",
				"energy": 0.0399,
				"method": "rhf"
			},
			{
				"type": "unocc",
				"energy": 0.05661,
				"method": "rhf"
			}
		],
		"cosmo_sigma_profile": { 
			"-0.025": 0.0,
			"-0.024": 0.0,
			"-0.023": 0.0,
			"-0.022": 0.0,
			"-0.021": 0.0,
			"-0.02": 0.0,
			"-0.019": 0.108138164666,
			"-0.018": 0.894815914919,
			"-0.017": 0.99769978798,
			"-0.016": 0.944463366794,
			"-0.015": 1.03651605349,
			"-0.014": 1.03188252242,
			"-0.013": 1.26709214444,
			"-0.012": 1.09936178694,
			"-0.011": 1.44898646029,
			"-0.01": 1.21768511248,
			"-0.009": 0.911070674564,
			"-0.008": 1.61044835467,
			"-0.007": 1.8219830577,
			"-0.006": 7.52437169997,
			"-0.005": 17.0838794414,
			"-0.004": 30.2021628337,
			"-0.003": 34.5107324771,
			"-0.002": 27.2742982034,
			"-0.001": 13.8351997339,
			"0.0": 9.09088877817,
			"0.001": 7.499192023,
			"0.002": 8.13668006096,
			"0.003": 8.59916599665,
			"0.004": 9.62789012067,
			"0.005": 7.29709799321,
			"0.006": 8.23586859057,
			"0.007": 8.32942487384,
			"0.008": 6.27253283053,
			"0.009": 7.56281973574,
			"0.01": 5.96988015904,
			"0.011": 5.9502246619,
			"0.012": 5.49528294569,
			"0.013": 3.36312062206,
			"0.014": 0.309008165149,
			"0.015": 0.0,
			"0.016": 0.0,
			"0.017": 0.0,
			"0.018": 0.0,
			"0.019": 0.0,
			"0.02": 0.0,
			"0.021": 0.0,
			"0.022": 0.0,
			"0.023": 0.0,
			"0.024": 0.0,
			"0.025": 0.0
		}
	}
}
