{
	 "smiles": "CCCCC(CC)COC(=O)OOC(C)(C)C", 
	 "Tm": 223.15, 
	 "num_atms": 43, 
	 "gaussian": { 
		 "optdone": 1, 
		 "sigma_profile": "yes", 
		 "theory": "DFT", 
		 "functional": "B3LYP", 
		 "basiset": "6-31G**", 
		 "properties": { 
			 "R2extent": 7606.5658, 
			 "electric_dipole_moment_norm": 1.91112032327, 
			 "electric_quadrupole_moment_norm": 13.2916901935, 
			 "total_energy": -811.904309985, 
			 "HOMO_LUMO_gap": 0.27956, 
			 "cosmo_polarized_energy": -8.85, 
			 "cosmo_cavitation_energy": 43.78, 
			 "cosmo_dispersion_energy": -28.89, 
			 "cosmo_repulsion_energy": 2.29, 
			 "cosmo_total_nonelectrostatic_energy": 17.18, 
			 "SMD_solvation_energy": 8.16 
		},
		"coords": [
			{
				"x": -5.8462247189,
				"y": -0.3528574199,
				"z": -0.2978070953,
				"element": "C" 
			},
			{
				"x": -5.0614117375,
				"y": 0.8661949834,
				"z": 0.2018253918,
				"element": "C" 
			},
			{
				"x": -3.7649474773,
				"y": 0.5266547838,
				"z": 0.9586707692,
				"element": "C" 
			},
			{
				"x": -2.6839936972,
				"y": -0.1239832987,
				"z": 0.0784818187,
				"element": "C" 
			},
			{
				"x": -1.3438380171,
				"y": -0.4606875618,
				"z": 0.7785704144,
				"element": "C" 
			},
			{
				"x": -1.5195568759,
				"y": -1.5156282611,
				"z": 1.8927719821,
				"element": "C" 
			},
			{
				"x": -0.2307227367,
				"y": -2.2071777408,
				"z": 2.3568812409,
				"element": "C" 
			},
			{
				"x": -0.6676437808,
				"y": 0.8325718195,
				"z": 1.2535327447,
				"element": "C" 
			},
			{
				"x": 0.7306513221,
				"y": 0.6504999517,
				"z": 1.59773219,
				"element": "O" 
			},
			{
				"x": 1.5908480638,
				"y": 0.7106690716,
				"z": 0.5704909666,
				"element": "C" 
			},
			{
				"x": 1.3418832385,
				"y": 0.9386299778,
				"z": -0.5848782234,
				"element": "O" 
			},
			{
				"x": 2.8150610978,
				"y": 0.4563965454,
				"z": 1.1245529953,
				"element": "O" 
			},
			{
				"x": 3.8468842002,
				"y": 0.6516182204,
				"z": 0.1241738933,
				"element": "O" 
			},
			{
				"x": 4.5110561776,
				"y": -0.6180728637,
				"z": -0.1310132572,
				"element": "C" 
			},
			{
				"x": 3.5247735297,
				"y": -1.6416139586,
				"z": -0.7005441091,
				"element": "C" 
			},
			{
				"x": 5.1907635822,
				"y": -1.1190479847,
				"z": 1.1467637098,
				"element": "C" 
			},
			{
				"x": 5.5398491247,
				"y": -0.1899715644,
				"z": -1.1852384005,
				"element": "C" 
			},
			{
				"x": -6.782705561,
				"y": -0.0470092548,
				"z": -0.7756041337,
				"element": "H" 
			},
			{
				"x": -6.1006816859,
				"y": -1.0244148369,
				"z": 0.5306614519,
				"element": "H" 
			},
			{
				"x": -5.2801918532,
				"y": -0.9337992679,
				"z": -1.0330076097,
				"element": "H" 
			},
			{
				"x": -4.8220318001,
				"y": 1.5208111798,
				"z": -0.6474425412,
				"element": "H" 
			},
			{
				"x": -5.7071690816,
				"y": 1.4555729823,
				"z": 0.8650704071,
				"element": "H" 
			},
			{
				"x": -3.3728989027,
				"y": 1.4526381082,
				"z": 1.3992191947,
				"element": "H" 
			},
			{
				"x": -4.0082104211,
				"y": -0.1333268704,
				"z": 1.8018918191,
				"element": "H" 
			},
			{
				"x": -2.475975536,
				"y": 0.5383977852,
				"z": -0.7731853213,
				"element": "H" 
			},
			{
				"x": -3.0753385778,
				"y": -1.0541907277,
				"z": -0.3503194781,
				"element": "H" 
			},
			{
				"x": -0.6922355374,
				"y": -0.885358873,
				"z": 0.0027825472,
				"element": "H" 
			},
			{
				"x": -2.0148465195,
				"y": -1.0544547762,
				"z": 2.7577139114,
				"element": "H" 
			},
			{
				"x": -2.2139188082,
				"y": -2.2822751676,
				"z": 1.5239529561,
				"element": "H" 
			},
			{
				"x": 0.4730537972,
				"y": -1.5021961069,
				"z": 2.8050211884,
				"element": "H" 
			},
			{
				"x": -0.4545106503,
				"y": -2.9817867847,
				"z": 3.0981209656,
				"element": "H" 
			},
			{
				"x": 0.276821547,
				"y": -2.6939930955,
				"z": 1.5153824429,
				"element": "H" 
			},
			{
				"x": -1.1150827492,
				"y": 1.207750405,
				"z": 2.1767964962,
				"element": "H" 
			},
			{
				"x": -0.7297019978,
				"y": 1.6028967039,
				"z": 0.4806735149,
				"element": "H" 
			},
			{
				"x": 2.9837539417,
				"y": -1.217067711,
				"z": -1.5495258417,
				"element": "H" 
			},
			{
				"x": 4.0623253798,
				"y": -2.5354998359,
				"z": -1.0324006775,
				"element": "H" 
			},
			{
				"x": 2.7993187084,
				"y": -1.952098789,
				"z": 0.0566337023,
				"element": "H" 
			},
			{
				"x": 5.8807402571,
				"y": -0.3638902725,
				"z": 1.5341332068,
				"element": "H" 
			},
			{
				"x": 5.7554802737,
				"y": -2.0344422108,
				"z": 0.9427386262,
				"element": "H" 
			},
			{
				"x": 4.4499284824,
				"y": -1.339057628,
				"z": 1.919242354,
				"element": "H" 
			},
			{
				"x": 6.1557297299,
				"y": -1.0497290447,
				"z": -1.4644303645,
				"element": "H" 
			},
			{
				"x": 6.1943961068,
				"y": 0.5923502034,
				"z": -0.7911833121,
				"element": "H" 
			},
			{
				"x": 5.0414201626,
				"y": 0.1895791858,
				"z": -2.0811025364,
				"element": "H" 
			}
		],
		 "valence_orbital": [ 
			{
				"type": "occ",
				"energy": -0.3107,
				"method": "rhf"
			},
			{
				"type": "occ",
				"energy": -0.30716,
				"method": "rhf"
			},
			{
				"type": "occ",
				"energy": -0.29232,
				"method": "rhf"
			},
			{
				"type": "occ",
				"energy": -0.28602,
				"method": "rhf"
			},
			{
				"type": "occ",
				"energy": -0.2716,
				"method": "rhf"
			},
			{
				"type": "unocc",
				"energy": 0.00796,
				"method": "rhf"
			},
			{
				"type": "unocc",
				"energy": 0.04128,
				"method": "rhf"
			},
			{
				"type": "unocc",
				"energy": 0.07561,
				"method": "rhf"
			},
			{
				"type": "unocc",
				"energy": 0.08132,
				"method": "rhf"
			},
			{
				"type": "unocc",
				"energy": 0.09933,
				"method": "rhf"
			}
		],
		"cosmo_sigma_profile": { 
			"-0.025": 0.0,
			"-0.024": 0.0,
			"-0.023": 0.0,
			"-0.022": 0.0,
			"-0.021": 0.0,
			"-0.02": 0.0,
			"-0.019": 0.0,
			"-0.018": 0.0,
			"-0.017": 0.0,
			"-0.016": 0.0,
			"-0.015": 0.0,
			"-0.014": 0.0,
			"-0.013": 0.0,
			"-0.012": 0.0,
			"-0.011": 0.0,
			"-0.01": 0.0,
			"-0.009": 0.0,
			"-0.008": 0.0,
			"-0.007": 0.0,
			"-0.006": 0.999449809027,
			"-0.005": 8.33167836534,
			"-0.004": 21.9377789059,
			"-0.003": 33.6686229162,
			"-0.002": 54.6764530173,
			"-0.001": 55.3159196328,
			"0.0": 58.6868500824,
			"0.001": 39.8807480941,
			"0.002": 17.8022161583,
			"0.003": 5.74779588707,
			"0.004": 5.27204151014,
			"0.005": 4.66950323589,
			"0.006": 5.62293611247,
			"0.007": 6.69389799776,
			"0.008": 4.71949944882,
			"0.009": 3.35873556361,
			"0.01": 2.52843183349,
			"0.011": 4.40658956709,
			"0.012": 2.13187446992,
			"0.013": 0.972421384639,
			"0.014": 0.184722379764,
			"0.015": 0.0,
			"0.016": 0.0,
			"0.017": 0.0,
			"0.018": 0.0,
			"0.019": 0.0,
			"0.02": 0.0,
			"0.021": 0.0,
			"0.022": 0.0,
			"0.023": 0.0,
			"0.024": 0.0,
			"0.025": 0.0
		}
	}
}
