{
	 "smiles": "BrC1=CNC(=C1)C(=O)NC1CC1", 
	 "Tm": 418.15, 
	 "num_atms": 21, 
	 "gaussian": { 
		 "optdone": 1, 
		 "sigma_profile": "yes", 
		 "theory": "DFT", 
		 "functional": "B3LYP", 
		 "basiset": "6-31G**", 
		 "properties": { 
			 "R2extent": 4861.2623, 
			 "electric_dipole_moment_norm": 2.01124688688, 
			 "electric_quadrupole_moment_norm": 13.7133411534, 
			 "total_energy": -3066.37943963, 
			 "HOMO_LUMO_gap": 0.19724, 
			 "cosmo_polarized_energy": -11.62, 
			 "cosmo_cavitation_energy": 27.29, 
			 "cosmo_dispersion_energy": -20.33, 
			 "cosmo_repulsion_energy": 1.64, 
			 "cosmo_total_nonelectrostatic_energy": 8.6, 
			 "SMD_solvation_energy": 3.46 
		},
		"coords": [
			{
				"x": 3.2331965854,
				"y": -3.0823340856,
				"z": 0.7399903065,
				"element": "Br" 
			},
			{
				"x": 2.6520318065,
				"y": -1.2951764923,
				"z": 0.5346095574,
				"element": "C" 
			},
			{
				"x": 3.2576539272,
				"y": -0.1881175248,
				"z": 1.1062992575,
				"element": "C" 
			},
			{
				"x": 2.5392424667,
				"y": 0.8974649801,
				"z": 0.7154102822,
				"element": "N" 
			},
			{
				"x": 1.4888675253,
				"y": 0.5229739538,
				"z": -0.0907540762,
				"element": "C" 
			},
			{
				"x": 1.5387699533,
				"y": -0.8629170868,
				"z": -0.2195153057,
				"element": "C" 
			},
			{
				"x": 0.6385897215,
				"y": 1.6379276849,
				"z": -0.5505993472,
				"element": "C" 
			},
			{
				"x": 0.9127577386,
				"y": 2.788564889,
				"z": -0.1912466615,
				"element": "O" 
			},
			{
				"x": -0.4369157642,
				"y": 1.4044502976,
				"z": -1.3672291983,
				"element": "N" 
			},
			{
				"x": -1.0041207921,
				"y": 0.1521873316,
				"z": -1.7761379224,
				"element": "C" 
			},
			{
				"x": -1.7371165349,
				"y": 0.1372027801,
				"z": -3.0917903233,
				"element": "C" 
			},
			{
				"x": -0.4195203854,
				"y": -0.5811105257,
				"z": -2.964463469,
				"element": "C" 
			},
			{
				"x": 4.1254868507,
				"y": -0.1152832739,
				"z": 1.7426738524,
				"element": "H" 
			},
			{
				"x": 2.6824411144,
				"y": 1.8722433704,
				"z": 0.9457061355,
				"element": "H" 
			},
			{
				"x": 0.8720474297,
				"y": -1.4911743359,
				"z": -0.7845301752,
				"element": "H" 
			},
			{
				"x": -0.9843032869,
				"y": 2.2426232217,
				"z": -1.5172052372,
				"element": "H" 
			},
			{
				"x": -1.4206368034,
				"y": -0.4576670548,
				"z": -0.9747632472,
				"element": "H" 
			},
			{
				"x": -1.7515258792,
				"y": 1.0608289106,
				"z": -3.6632077468,
				"element": "H" 
			},
			{
				"x": -2.6494479081,
				"y": -0.4467315625,
				"z": -3.156094414,
				"element": "H" 
			},
			{
				"x": 0.4484509105,
				"y": -0.1334250539,
				"z": -3.4364974234,
				"element": "H" 
			},
			{
				"x": -0.4204486757,
				"y": -1.6668304237,
				"z": -2.944954844,
				"element": "H" 
			}
		],
		 "valence_orbital": [ 
			{
				"type": "occ",
				"energy": -0.28384,
				"method": "rhf"
			},
			{
				"type": "occ",
				"energy": -0.25939,
				"method": "rhf"
			},
			{
				"type": "occ",
				"energy": -0.25233,
				"method": "rhf"
			},
			{
				"type": "occ",
				"energy": -0.24762,
				"method": "rhf"
			},
			{
				"type": "occ",
				"energy": -0.22073,
				"method": "rhf"
			},
			{
				"type": "unocc",
				"energy": -0.02349,
				"method": "rhf"
			},
			{
				"type": "unocc",
				"energy": 0.01988,
				"method": "rhf"
			},
			{
				"type": "unocc",
				"energy": 0.05022,
				"method": "rhf"
			},
			{
				"type": "unocc",
				"energy": 0.0793,
				"method": "rhf"
			},
			{
				"type": "unocc",
				"energy": 0.08658,
				"method": "rhf"
			}
		],
		"cosmo_sigma_profile": { 
			"-0.025": 0.0,
			"-0.024": 0.0,
			"-0.023": 0.0,
			"-0.022": 0.0,
			"-0.021": 0.0,
			"-0.02": 0.0,
			"-0.019": 0.0,
			"-0.018": 0.0,
			"-0.017": 0.0,
			"-0.016": 0.0321781567094,
			"-0.015": 0.618235337944,
			"-0.014": 0.483580528146,
			"-0.013": 1.74293901826,
			"-0.012": 2.01035137781,
			"-0.011": 1.80377202045,
			"-0.01": 1.60610970046,
			"-0.009": 3.61488763753,
			"-0.008": 4.15537564471,
			"-0.007": 3.17920826537,
			"-0.006": 7.94305640165,
			"-0.005": 16.6794746372,
			"-0.004": 14.6773222765,
			"-0.003": 13.1172989124,
			"-0.002": 13.3390889348,
			"-0.001": 14.5271714632,
			"0.0": 16.9111074952,
			"0.001": 16.2958865564,
			"0.002": 15.9898794181,
			"0.003": 16.5879297386,
			"0.004": 21.6766909459,
			"0.005": 16.3878776685,
			"0.006": 1.72221687799,
			"0.007": 1.09747397883,
			"0.008": 1.27803508812,
			"0.009": 1.34818679861,
			"0.01": 1.00397791777,
			"0.011": 1.10895385188,
			"0.012": 1.99813382853,
			"0.013": 3.50631896507,
			"0.014": 3.49978087681,
			"0.015": 0.53098426266,
			"0.016": 0.0,
			"0.017": 0.0,
			"0.018": 0.0,
			"0.019": 0.0,
			"0.02": 0.0,
			"0.021": 0.0,
			"0.022": 0.0,
			"0.023": 0.0,
			"0.024": 0.0,
			"0.025": 0.0
		}
	}
}
