{
	 "smiles": "CC1(C)OC(=O)C(=CC2=CC=C(O2)C2=CC=C(Cl)C=C2)C(=O)O1", 
	 "Tm": 382.15, 
	 "num_atms": 36, 
	 "gaussian": { 
		 "optdone": 1, 
		 "sigma_profile": "yes", 
		 "theory": "DFT", 
		 "functional": "B3LYP", 
		 "basiset": "6-31G**", 
		 "properties": { 
			 "R2extent": 13085.1634, 
			 "electric_dipole_moment_norm": 3.38711418172, 
			 "electric_quadrupole_moment_norm": 37.9337281204, 
			 "total_energy": -1491.95981436, 
			 "HOMO_LUMO_gap": 0.12232, 
			 "cosmo_polarized_energy": -17.78, 
			 "cosmo_cavitation_energy": 43.14, 
			 "cosmo_dispersion_energy": -30.72, 
			 "cosmo_repulsion_energy": 2.31, 
			 "cosmo_total_nonelectrostatic_energy": 14.72, 
			 "SMD_solvation_energy": 9.2 
		},
		"coords": [
			{
				"x": -0.2052699523,
				"y": 2.9567927437,
				"z": 1.5110107491,
				"element": "C" 
			},
			{
				"x": 1.2304103225,
				"y": 3.0151377795,
				"z": 0.9888627563,
				"element": "C" 
			},
			{
				"x": 1.7687362975,
				"y": 4.4305689358,
				"z": 0.8699100921,
				"element": "C" 
			},
			{
				"x": 1.3028692583,
				"y": 2.4518435717,
				"z": -0.3260090807,
				"element": "O" 
			},
			{
				"x": 1.2675479947,
				"y": 1.0923203741,
				"z": -0.4962647433,
				"element": "C" 
			},
			{
				"x": 1.1116777541,
				"y": 0.6609050319,
				"z": -1.6156610977,
				"element": "O" 
			},
			{
				"x": 1.5145575332,
				"y": 0.2940167,
				"z": 0.7251665776,
				"element": "C" 
			},
			{
				"x": 1.33441614,
				"y": -1.0586016227,
				"z": 0.8605803779,
				"element": "C" 
			},
			{
				"x": 0.7797256332,
				"y": -2.0744090888,
				"z": 0.0448778313,
				"element": "C" 
			},
			{
				"x": 0.6562727809,
				"y": -3.4302827982,
				"z": 0.3268463631,
				"element": "C" 
			},
			{
				"x": 0.0254651431,
				"y": -4.029713662,
				"z": -0.7792520299,
				"element": "C" 
			},
			{
				"x": -0.2146957096,
				"y": -3.0110637467,
				"z": -1.6887690501,
				"element": "C" 
			},
			{
				"x": 0.2361533968,
				"y": -1.8381684516,
				"z": -1.1880698474,
				"element": "O" 
			},
			{
				"x": -0.8110493165,
				"y": -2.9647282582,
				"z": -3.0134517906,
				"element": "C" 
			},
			{
				"x": -1.4245122614,
				"y": -4.1021462825,
				"z": -3.5676677566,
				"element": "C" 
			},
			{
				"x": -1.990820061,
				"y": -4.0569579444,
				"z": -4.8365592208,
				"element": "C" 
			},
			{
				"x": -1.9465830884,
				"y": -2.8632029444,
				"z": -5.5599595463,
				"element": "C" 
			},
			{
				"x": -2.6607423595,
				"y": -2.8014007702,
				"z": -7.1607457167,
				"element": "Cl" 
			},
			{
				"x": -1.3435648115,
				"y": -1.7209166225,
				"z": -5.0306988934,
				"element": "C" 
			},
			{
				"x": -0.7766340694,
				"y": -1.7720783148,
				"z": -3.7614069166,
				"element": "C" 
			},
			{
				"x": 2.1123369679,
				"y": 0.9680612858,
				"z": 1.9112485524,
				"element": "C" 
			},
			{
				"x": 2.6128301939,
				"y": 0.392388539,
				"z": 2.8526398507,
				"element": "O" 
			},
			{
				"x": 2.1114467459,
				"y": 2.3315503812,
				"z": 1.8913223873,
				"element": "O" 
			},
			{
				"x": -0.5559918021,
				"y": 1.9235215563,
				"z": 1.5798779608,
				"element": "H" 
			},
			{
				"x": -0.2573117451,
				"y": 3.4081617234,
				"z": 2.5047743159,
				"element": "H" 
			},
			{
				"x": -0.8670779528,
				"y": 3.5032147355,
				"z": 0.834636255,
				"element": "H" 
			},
			{
				"x": 2.7936343322,
				"y": 4.3996640588,
				"z": 0.4946915894,
				"element": "H" 
			},
			{
				"x": 1.1517669394,
				"y": 5.0060081015,
				"z": 0.1761200047,
				"element": "H" 
			},
			{
				"x": 1.7608756238,
				"y": 4.9158117485,
				"z": 1.8485178755,
				"element": "H" 
			},
			{
				"x": 1.673399186,
				"y": -1.4404366181,
				"z": 1.8220520686,
				"element": "H" 
			},
			{
				"x": 0.9938460097,
				"y": -3.9146229831,
				"z": 1.2325729993,
				"element": "H" 
			},
			{
				"x": -0.2140216931,
				"y": -5.0749159611,
				"z": -0.9063223089,
				"element": "H" 
			},
			{
				"x": -1.467250763,
				"y": -5.0283529444,
				"z": -3.003080749,
				"element": "H" 
			},
			{
				"x": -2.4651216117,
				"y": -4.933716715,
				"z": -5.2627727827,
				"element": "H" 
			},
			{
				"x": -1.3155003785,
				"y": -0.804136135,
				"z": -5.6088116273,
				"element": "H" 
			},
			{
				"x": -0.2964206772,
				"y": -0.8931154027,
				"z": -3.3433054492,
				"element": "H" 
			}
		],
		 "valence_orbital": [ 
			{
				"type": "occ",
				"energy": -0.28492,
				"method": "rhf"
			},
			{
				"type": "occ",
				"energy": -0.27554,
				"method": "rhf"
			},
			{
				"type": "occ",
				"energy": -0.27159,
				"method": "rhf"
			},
			{
				"type": "occ",
				"energy": -0.2658,
				"method": "rhf"
			},
			{
				"type": "occ",
				"energy": -0.22127,
				"method": "rhf"
			},
			{
				"type": "unocc",
				"energy": -0.09895,
				"method": "rhf"
			},
			{
				"type": "unocc",
				"energy": -0.03882,
				"method": "rhf"
			},
			{
				"type": "unocc",
				"energy": -0.02396,
				"method": "rhf"
			},
			{
				"type": "unocc",
				"energy": 0.00473,
				"method": "rhf"
			},
			{
				"type": "unocc",
				"energy": 0.02279,
				"method": "rhf"
			}
		],
		"cosmo_sigma_profile": { 
			"-0.025": 0.0,
			"-0.024": 0.0,
			"-0.023": 0.0,
			"-0.022": 0.0,
			"-0.021": 0.0,
			"-0.02": 0.0,
			"-0.019": 0.0,
			"-0.018": 0.0,
			"-0.017": 0.0,
			"-0.016": 0.0,
			"-0.015": 0.0,
			"-0.014": 0.0,
			"-0.013": 0.0,
			"-0.012": 0.0,
			"-0.011": 0.0,
			"-0.01": 0.973558510641,
			"-0.009": 6.49619402186,
			"-0.008": 7.03975724093,
			"-0.007": 10.2265448798,
			"-0.006": 16.3191336201,
			"-0.005": 24.5283949053,
			"-0.004": 21.0020300999,
			"-0.003": 23.507920922,
			"-0.002": 28.862405044,
			"-0.001": 33.6888540046,
			"0.0": 32.5381545499,
			"0.001": 29.2779591879,
			"0.002": 28.9443601603,
			"0.003": 17.2120255718,
			"0.004": 15.3098929928,
			"0.005": 7.08817668199,
			"0.006": 5.45965286877,
			"0.007": 5.8508050157,
			"0.008": 5.96168880425,
			"0.009": 5.82997024985,
			"0.01": 6.13991928986,
			"0.011": 8.54040898831,
			"0.012": 5.31476984866,
			"0.013": 2.30449336629,
			"0.014": 0.019643148453,
			"0.015": 0.0,
			"0.016": 0.0,
			"0.017": 0.0,
			"0.018": 0.0,
			"0.019": 0.0,
			"0.02": 0.0,
			"0.021": 0.0,
			"0.022": 0.0,
			"0.023": 0.0,
			"0.024": 0.0,
			"0.025": 0.0
		}
	}
}
