{
	 "smiles": "CC1=CC=C(C=C1)C1=NOC(=C1)C(O)=O", 
	 "Tm": 478.15, 
	 "num_atms": 24, 
	 "gaussian": { 
		 "optdone": 1, 
		 "sigma_profile": "yes", 
		 "theory": "DFT", 
		 "functional": "B3LYP", 
		 "basiset": "6-31G**", 
		 "properties": { 
			 "R2extent": 6381.0814, 
			 "electric_dipole_moment_norm": 4.42503356484, 
			 "electric_quadrupole_moment_norm": 25.2763829432, 
			 "total_energy": -704.982242394, 
			 "HOMO_LUMO_gap": 0.17178, 
			 "cosmo_polarized_energy": -13.04, 
			 "cosmo_cavitation_energy": 29.57, 
			 "cosmo_dispersion_energy": -21.78, 
			 "cosmo_repulsion_energy": 1.68, 
			 "cosmo_total_nonelectrostatic_energy": 9.47, 
			 "SMD_solvation_energy": 6.29 
		},
		"coords": [
			{
				"x": 2.2515835681,
				"y": -1.6048941362,
				"z": 3.0167279502,
				"element": "C" 
			},
			{
				"x": 1.1931913623,
				"y": -0.8264297009,
				"z": 2.2736768212,
				"element": "C" 
			},
			{
				"x": 1.3907013158,
				"y": -0.4395713281,
				"z": 0.9382044309,
				"element": "C" 
			},
			{
				"x": 0.433246931,
				"y": 0.2948354302,
				"z": 0.249865673,
				"element": "C" 
			},
			{
				"x": -0.7661408289,
				"y": 0.6685533482,
				"z": 0.8804579273,
				"element": "C" 
			},
			{
				"x": -0.9713151043,
				"y": 0.2836795841,
				"z": 2.2118070221,
				"element": "C" 
			},
			{
				"x": -0.0045287245,
				"y": -0.4530544669,
				"z": 2.8940594238,
				"element": "C" 
			},
			{
				"x": -1.784028044,
				"y": 1.4447533105,
				"z": 0.1537004996,
				"element": "C" 
			},
			{
				"x": -1.5894930031,
				"y": 1.7958469152,
				"z": -1.1087159144,
				"element": "N" 
			},
			{
				"x": -2.7224921267,
				"y": 2.5087594331,
				"z": -1.4893558057,
				"element": "O" 
			},
			{
				"x": -3.5780433538,
				"y": 2.5705298406,
				"z": -0.4408147806,
				"element": "C" 
			},
			{
				"x": -3.0487884582,
				"y": 1.919810968,
				"z": 0.6274728512,
				"element": "C" 
			},
			{
				"x": -4.8614934581,
				"y": 3.2919624823,
				"z": -0.6298351356,
				"element": "C" 
			},
			{
				"x": -5.0485633412,
				"y": 3.8246997776,
				"z": -1.8558376113,
				"element": "O" 
			},
			{
				"x": -5.6790633417,
				"y": 3.3939481879,
				"z": 0.2519868928,
				"element": "O" 
			},
			{
				"x": 1.8570364055,
				"y": -2.0375591631,
				"z": 3.9400867562,
				"element": "H" 
			},
			{
				"x": 3.0971057446,
				"y": -0.9608998176,
				"z": 3.2882445318,
				"element": "H" 
			},
			{
				"x": 2.6520391379,
				"y": -2.4192127627,
				"z": 2.4039845145,
				"element": "H" 
			},
			{
				"x": 2.310562603,
				"y": -0.721015721,
				"z": 0.4316276062,
				"element": "H" 
			},
			{
				"x": 0.6018886118,
				"y": 0.5843499711,
				"z": -0.7818199013,
				"element": "H" 
			},
			{
				"x": -1.8894094326,
				"y": 0.5538443722,
				"z": 2.7244271459,
				"element": "H" 
			},
			{
				"x": -0.1859588207,
				"y": -0.7429302911,
				"z": 3.9256484848,
				"element": "H" 
			},
			{
				"x": -3.5023222016,
				"y": 1.8052216358,
				"z": 1.5984464475,
				"element": "H" 
			},
			{
				"x": -4.2833154408,
				"y": 3.6373721309,
				"z": -2.4236458302,
				"element": "H" 
			}
		],
		 "valence_orbital": [ 
			{
				"type": "occ",
				"energy": -0.32549,
				"method": "rhf"
			},
			{
				"type": "occ",
				"energy": -0.28962,
				"method": "rhf"
			},
			{
				"type": "occ",
				"energy": -0.28667,
				"method": "rhf"
			},
			{
				"type": "occ",
				"energy": -0.26376,
				"method": "rhf"
			},
			{
				"type": "occ",
				"energy": -0.24429,
				"method": "rhf"
			},
			{
				"type": "unocc",
				"energy": -0.07251,
				"method": "rhf"
			},
			{
				"type": "unocc",
				"energy": -0.03892,
				"method": "rhf"
			},
			{
				"type": "unocc",
				"energy": -0.01326,
				"method": "rhf"
			},
			{
				"type": "unocc",
				"energy": 0.04938,
				"method": "rhf"
			},
			{
				"type": "unocc",
				"energy": 0.05954,
				"method": "rhf"
			}
		],
		"cosmo_sigma_profile": { 
			"-0.025": 0.0,
			"-0.024": 0.0,
			"-0.023": 0.0,
			"-0.022": 0.0,
			"-0.021": 0.0,
			"-0.02": 0.0,
			"-0.019": 0.0116531602522,
			"-0.018": 0.430918916031,
			"-0.017": 0.735425667521,
			"-0.016": 0.540190066114,
			"-0.015": 0.46738550095,
			"-0.014": 0.576926076465,
			"-0.013": 0.848241671797,
			"-0.012": 1.50499074264,
			"-0.011": 1.47510500367,
			"-0.01": 3.49328481521,
			"-0.009": 3.06162793689,
			"-0.008": 2.97684963924,
			"-0.007": 4.22033420704,
			"-0.006": 7.7178498166,
			"-0.005": 13.0242868243,
			"-0.004": 18.4861115318,
			"-0.003": 16.6014236122,
			"-0.002": 19.319415988,
			"-0.001": 22.4069763293,
			"0.0": 18.6515185674,
			"0.001": 14.7510423746,
			"0.002": 12.9630010544,
			"0.003": 13.336054377,
			"0.004": 14.7528701361,
			"0.005": 9.98706291328,
			"0.006": 4.74541346415,
			"0.007": 5.42620243451,
			"0.008": 5.26393998977,
			"0.009": 5.23972292631,
			"0.01": 6.2990119262,
			"0.011": 6.13668471852,
			"0.012": 1.81986151297,
			"0.013": 0.0198196696682,
			"0.014": 0.0,
			"0.015": 0.0,
			"0.016": 0.0,
			"0.017": 0.0,
			"0.018": 0.0,
			"0.019": 0.0,
			"0.02": 0.0,
			"0.021": 0.0,
			"0.022": 0.0,
			"0.023": 0.0,
			"0.024": 0.0,
			"0.025": 0.0
		}
	}
}
