{
	 "smiles": "CC(C)C1=CC=C(C=C1)C(N)CC(O)=O", 
	 "Tm": 508.15, 
	 "num_atms": 32, 
	 "gaussian": { 
		 "optdone": 1, 
		 "sigma_profile": "yes", 
		 "theory": "DFT", 
		 "functional": "B3LYP", 
		 "basiset": "6-31G**", 
		 "properties": { 
			 "R2extent": 4215.1872, 
			 "electric_dipole_moment_norm": 2.09197217955, 
			 "electric_quadrupole_moment_norm": 9.57459786101, 
			 "total_energy": -672.749743952, 
			 "HOMO_LUMO_gap": 0.2256, 
			 "cosmo_polarized_energy": -13.92, 
			 "cosmo_cavitation_energy": 34.85, 
			 "cosmo_dispersion_energy": -23.71, 
			 "cosmo_repulsion_energy": 1.92, 
			 "cosmo_total_nonelectrostatic_energy": 13.05, 
			 "SMD_solvation_energy": 5.92 
		},
		"coords": [
			{
				"x": -0.2471113938,
				"y": 1.8172222251,
				"z": -4.142210708,
				"element": "C" 
			},
			{
				"x": -0.5098839062,
				"y": 2.240432858,
				"z": -2.684487428,
				"element": "C" 
			},
			{
				"x": -2.0019048422,
				"y": 2.550624522,
				"z": -2.4590044259,
				"element": "C" 
			},
			{
				"x": 0.0106217976,
				"y": 1.2098275931,
				"z": -1.6916318218,
				"element": "C" 
			},
			{
				"x": -0.5011255208,
				"y": -0.0973431802,
				"z": -1.654641413,
				"element": "C" 
			},
			{
				"x": -0.0193959483,
				"y": -1.0339888189,
				"z": -0.7444025378,
				"element": "C" 
			},
			{
				"x": 0.9938233474,
				"y": -0.7039526445,
				"z": 0.1680530271,
				"element": "C" 
			},
			{
				"x": 1.5032359934,
				"y": 0.5977087669,
				"z": 0.1344271159,
				"element": "C" 
			},
			{
				"x": 1.0202261455,
				"y": 1.5363764216,
				"z": -0.7802180958,
				"element": "C" 
			},
			{
				"x": 1.5333684837,
				"y": -1.7274805108,
				"z": 1.1661231653,
				"element": "C" 
			},
			{
				"x": 2.0256971886,
				"y": -2.98217397,
				"z": 0.5751434782,
				"element": "N" 
			},
			{
				"x": 0.4916185319,
				"y": -2.0990999393,
				"z": 2.2429184216,
				"element": "C" 
			},
			{
				"x": -0.0056206696,
				"y": -0.9358872736,
				"z": 3.0713376106,
				"element": "C" 
			},
			{
				"x": 1.0145384848,
				"y": -0.1707661982,
				"z": 3.5404274314,
				"element": "O" 
			},
			{
				"x": -1.1631533625,
				"y": -0.6982981544,
				"z": 3.3334347805,
				"element": "O" 
			},
			{
				"x": -0.5757299858,
				"y": 2.5979639626,
				"z": -4.8369554932,
				"element": "H" 
			},
			{
				"x": 0.8175440504,
				"y": 1.6321520184,
				"z": -4.3158017066,
				"element": "H" 
			},
			{
				"x": -0.7904585741,
				"y": 0.8996810166,
				"z": -4.3938376375,
				"element": "H" 
			},
			{
				"x": 0.0496833454,
				"y": 3.1681394119,
				"z": -2.505600814,
				"element": "H" 
			},
			{
				"x": -2.3409706567,
				"y": 3.3368612487,
				"z": -3.1424710668,
				"element": "H" 
			},
			{
				"x": -2.1865021003,
				"y": 2.8858679193,
				"z": -1.4338079036,
				"element": "H" 
			},
			{
				"x": -2.6232418033,
				"y": 1.665957043,
				"z": -2.6367314285,
				"element": "H" 
			},
			{
				"x": -1.288464027,
				"y": -0.3886346182,
				"z": -2.3451113,
				"element": "H" 
			},
			{
				"x": -0.4411098698,
				"y": -2.0371068407,
				"z": -0.7483707909,
				"element": "H" 
			},
			{
				"x": 2.2844879489,
				"y": 0.882187587,
				"z": 0.8351163051,
				"element": "H" 
			},
			{
				"x": 1.4375759059,
				"y": 2.5408134842,
				"z": -0.7851548381,
				"element": "H" 
			},
			{
				"x": 2.3837017014,
				"y": -1.2694432964,
				"z": 1.6818554469,
				"element": "H" 
			},
			{
				"x": 1.2680700845,
				"y": -3.4536899295,
				"z": 0.0840493695,
				"element": "H" 
			},
			{
				"x": 2.7220914613,
				"y": -2.7655872366,
				"z": -0.1349365621,
				"element": "H" 
			},
			{
				"x": -0.388054551,
				"y": -2.568594914,
				"z": 1.7940344421,
				"element": "H" 
			},
			{
				"x": 0.9546873007,
				"y": -2.8291077514,
				"z": 2.917365732,
				"element": "H" 
			},
			{
				"x": 0.5970554401,
				"y": 0.535939198,
				"z": 4.0609896453,
				"element": "H" 
			}
		],
		 "valence_orbital": [ 
			{
				"type": "occ",
				"energy": -0.31433,
				"method": "rhf"
			},
			{
				"type": "occ",
				"energy": -0.2708,
				"method": "rhf"
			},
			{
				"type": "occ",
				"energy": -0.25372,
				"method": "rhf"
			},
			{
				"type": "occ",
				"energy": -0.24829,
				"method": "rhf"
			},
			{
				"type": "occ",
				"energy": -0.22846,
				"method": "rhf"
			},
			{
				"type": "unocc",
				"energy": -0.00286,
				"method": "rhf"
			},
			{
				"type": "unocc",
				"energy": -0.00155,
				"method": "rhf"
			},
			{
				"type": "unocc",
				"energy": 0.01274,
				"method": "rhf"
			},
			{
				"type": "unocc",
				"energy": 0.0723,
				"method": "rhf"
			},
			{
				"type": "unocc",
				"energy": 0.08601,
				"method": "rhf"
			}
		],
		"cosmo_sigma_profile": { 
			"-0.025": 0.0,
			"-0.024": 0.0,
			"-0.023": 0.0,
			"-0.022": 0.0,
			"-0.021": 0.0,
			"-0.02": 0.0,
			"-0.019": 0.0109445744242,
			"-0.018": 0.617049713858,
			"-0.017": 0.920949028278,
			"-0.016": 0.939352058523,
			"-0.015": 0.507486028147,
			"-0.014": 0.606803434653,
			"-0.013": 0.565805830838,
			"-0.012": 0.623723783585,
			"-0.011": 0.998053202721,
			"-0.01": 2.37485522185,
			"-0.009": 4.40341547482,
			"-0.008": 3.90403683538,
			"-0.007": 5.09774036032,
			"-0.006": 7.35604156453,
			"-0.005": 12.7049970178,
			"-0.004": 18.6215805246,
			"-0.003": 23.4281655591,
			"-0.002": 26.4249694208,
			"-0.001": 25.3173884706,
			"0.0": 22.9286645654,
			"0.001": 25.5509850859,
			"0.002": 16.6075203047,
			"0.003": 13.2767097823,
			"0.004": 10.8668121486,
			"0.005": 10.0464845862,
			"0.006": 9.1915800535,
			"0.007": 4.16654768453,
			"0.008": 3.5043352738,
			"0.009": 3.18913718679,
			"0.01": 2.66376868209,
			"0.011": 3.96189831472,
			"0.012": 5.45125318673,
			"0.013": 1.74251597133,
			"0.014": 0.808675254719,
			"0.015": 0.480729469858,
			"0.016": 0.792320728358,
			"0.017": 0.322359372543,
			"0.018": 0.637577029431,
			"0.019": 0.217523953764,
			"0.02": 0.0,
			"0.021": 0.0,
			"0.022": 0.0,
			"0.023": 0.0,
			"0.024": 0.0,
			"0.025": 0.0
		}
	}
}
