{
	 "smiles": "CC1=NN(CC2=CC=CC=C2)C(N)=C1", 
	 "Tm": 342.15, 
	 "num_atms": 27, 
	 "gaussian": { 
		 "optdone": 1, 
		 "sigma_profile": "yes", 
		 "theory": "DFT", 
		 "functional": "B3LYP", 
		 "basiset": "6-31G**", 
		 "properties": { 
			 "R2extent": 3324.8562, 
			 "electric_dipole_moment_norm": 3.02044876302, 
			 "electric_quadrupole_moment_norm": 3.8266432614, 
			 "total_energy": -591.248753424, 
			 "HOMO_LUMO_gap": 0.18955, 
			 "cosmo_polarized_energy": -11.9, 
			 "cosmo_cavitation_energy": 30.48, 
			 "cosmo_dispersion_energy": -21.68, 
			 "cosmo_repulsion_energy": 1.73, 
			 "cosmo_total_nonelectrostatic_energy": 10.52, 
			 "SMD_solvation_energy": 4.28 
		},
		"coords": [
			{
				"x": -1.9482685468,
				"y": 4.3092319526,
				"z": -0.8625303985,
				"element": "C" 
			},
			{
				"x": -1.8151285631,
				"y": 2.9026302607,
				"z": -0.362239643,
				"element": "C" 
			},
			{
				"x": -0.6295466342,
				"y": 2.4426624121,
				"z": 0.0339963157,
				"element": "N" 
			},
			{
				"x": -0.8705231084,
				"y": 1.1575950433,
				"z": 0.4383386359,
				"element": "N" 
			},
			{
				"x": 0.2116121408,
				"y": 0.320165035,
				"z": 0.9207228029,
				"element": "C" 
			},
			{
				"x": 0.6878607634,
				"y": -0.7061784158,
				"z": -0.0957276723,
				"element": "C" 
			},
			{
				"x": 0.9851010511,
				"y": -0.3140428498,
				"z": -1.4089480849,
				"element": "C" 
			},
			{
				"x": 1.4399552386,
				"y": -1.2489165545,
				"z": -2.3370768985,
				"element": "C" 
			},
			{
				"x": 1.6035767683,
				"y": -2.5875755539,
				"z": -1.966979945,
				"element": "C" 
			},
			{
				"x": 1.3075251736,
				"y": -2.9859350901,
				"z": -0.6637373768,
				"element": "C" 
			},
			{
				"x": 0.8488595863,
				"y": -2.0482237468,
				"z": 0.2661791675,
				"element": "C" 
			},
			{
				"x": -2.1745054449,
				"y": 0.8018688672,
				"z": 0.2658257884,
				"element": "C" 
			},
			{
				"x": -2.6263928133,
				"y": -0.4633579464,
				"z": 0.653499569,
				"element": "N" 
			},
			{
				"x": -2.8257236753,
				"y": 1.9146162854,
				"z": -0.2424964754,
				"element": "C" 
			},
			{
				"x": -0.971879868,
				"y": 4.7991233506,
				"z": -0.8513974018,
				"element": "H" 
			},
			{
				"x": -2.6340606194,
				"y": 4.8937980366,
				"z": -0.2384462531,
				"element": "H" 
			},
			{
				"x": -2.3375272483,
				"y": 4.3372128334,
				"z": -1.8868110192,
				"element": "H" 
			},
			{
				"x": -0.1151994378,
				"y": -0.1837355368,
				"z": 1.8371273748,
				"element": "H" 
			},
			{
				"x": 1.0181918938,
				"y": 1.0098189376,
				"z": 1.1841456008,
				"element": "H" 
			},
			{
				"x": 0.8520166142,
				"y": 0.7266329064,
				"z": -1.6915816853,
				"element": "H" 
			},
			{
				"x": 1.6687206308,
				"y": -0.93424406,
				"z": -3.3514460866,
				"element": "H" 
			},
			{
				"x": 1.9579999134,
				"y": -3.3143284998,
				"z": -2.6923415854,
				"element": "H" 
			},
			{
				"x": 1.4284621835,
				"y": -4.024623319,
				"z": -0.3691814495,
				"element": "H" 
			},
			{
				"x": 0.6196853487,
				"y": -2.3612141239,
				"z": 1.2825609841,
				"element": "H" 
			},
			{
				"x": -3.602815086,
				"y": -0.5996112999,
				"z": 0.424685762,
				"element": "H" 
			},
			{
				"x": -2.0730832655,
				"y": -1.2206750255,
				"z": 0.2634118317,
				"element": "H" 
			},
			{
				"x": -3.8727129954,
				"y": 1.9967061013,
				"z": -0.4968518576,
				"element": "H" 
			}
		],
		 "valence_orbital": [ 
			{
				"type": "occ",
				"energy": -0.26922,
				"method": "rhf"
			},
			{
				"type": "occ",
				"energy": -0.25485,
				"method": "rhf"
			},
			{
				"type": "occ",
				"energy": -0.25165,
				"method": "rhf"
			},
			{
				"type": "occ",
				"energy": -0.22301,
				"method": "rhf"
			},
			{
				"type": "occ",
				"energy": -0.19933,
				"method": "rhf"
			},
			{
				"type": "unocc",
				"energy": -0.00978,
				"method": "rhf"
			},
			{
				"type": "unocc",
				"energy": -0.00571,
				"method": "rhf"
			},
			{
				"type": "unocc",
				"energy": 0.04482,
				"method": "rhf"
			},
			{
				"type": "unocc",
				"energy": 0.07888,
				"method": "rhf"
			},
			{
				"type": "unocc",
				"energy": 0.08756,
				"method": "rhf"
			}
		],
		"cosmo_sigma_profile": { 
			"-0.025": 0.0,
			"-0.024": 0.0,
			"-0.023": 0.0,
			"-0.022": 0.0,
			"-0.021": 0.0,
			"-0.02": 0.0,
			"-0.019": 0.0,
			"-0.018": 0.0,
			"-0.017": 0.0,
			"-0.016": 0.0,
			"-0.015": 0.0,
			"-0.014": 0.0,
			"-0.013": 0.995571864653,
			"-0.012": 1.18593443451,
			"-0.011": 1.94551454279,
			"-0.01": 2.4341808056,
			"-0.009": 2.50356765437,
			"-0.008": 1.46090320517,
			"-0.007": 2.88628819931,
			"-0.006": 12.0052455176,
			"-0.005": 16.9453750718,
			"-0.004": 19.8018494917,
			"-0.003": 23.1243764401,
			"-0.002": 17.0536348284,
			"-0.001": 18.7127208007,
			"0.0": 19.2338916163,
			"0.001": 15.5333693629,
			"0.002": 12.2374152632,
			"0.003": 13.6287855055,
			"0.004": 13.6905578791,
			"0.005": 14.4131212924,
			"0.006": 11.1883905638,
			"0.007": 5.73790221327,
			"0.008": 3.47619554467,
			"0.009": 1.67180922127,
			"0.01": 1.84138120208,
			"0.011": 1.56424403328,
			"0.012": 1.24518025117,
			"0.013": 1.68341853191,
			"0.014": 1.56718583142,
			"0.015": 0.875124762366,
			"0.016": 0.57230743286,
			"0.017": 0.517756387756,
			"0.018": 0.0,
			"0.019": 0.0,
			"0.02": 0.0,
			"0.021": 0.0,
			"0.022": 0.0,
			"0.023": 0.0,
			"0.024": 0.0,
			"0.025": 0.0
		}
	}
}
