{
	 "smiles": "CC1CC(C)CC(C)C1", 
	 "Tm": 223.45, 
	 "num_atms": 27, 
	 "gaussian": { 
		 "optdone": 1, 
		 "sigma_profile": "yes", 
		 "theory": "DFT", 
		 "functional": "B3LYP", 
		 "basiset": "6-31G**", 
		 "properties": { 
			 "R2extent": 1640.2618, 
			 "electric_dipole_moment_norm": 0.0772140531251, 
			 "electric_quadrupole_moment_norm": 0.917616995265, 
			 "total_energy": -353.833456868, 
			 "HOMO_LUMO_gap": 0.36484, 
			 "cosmo_polarized_energy": -0.64, 
			 "cosmo_cavitation_energy": 26.11, 
			 "cosmo_dispersion_energy": -18.87, 
			 "cosmo_repulsion_energy": 1.54, 
			 "cosmo_total_nonelectrostatic_energy": 8.78, 
			 "SMD_solvation_energy": 3.94 
		},
		"coords": [
			{
				"x": -0.5896859528,
				"y": 1.1920845166,
				"z": -2.4565344077,
				"element": "C" 
			},
			{
				"x": 0.1039597105,
				"y": 1.0754823999,
				"z": -1.0949561124,
				"element": "C" 
			},
			{
				"x": -0.9208114815,
				"y": 0.874904061,
				"z": 0.049489884,
				"element": "C" 
			},
			{
				"x": -0.3215034372,
				"y": 0.2023413444,
				"z": 1.3115301814,
				"element": "C" 
			},
			{
				"x": -1.1024475256,
				"y": 0.5804180855,
				"z": 2.5749017373,
				"element": "C" 
			},
			{
				"x": 1.1736805057,
				"y": 0.5368048885,
				"z": 1.4227753835,
				"element": "C" 
			},
			{
				"x": 1.9892190859,
				"y": -0.0438137142,
				"z": 0.2413368869,
				"element": "C" 
			},
			{
				"x": 3.3160038733,
				"y": 0.7084956698,
				"z": 0.0697922918,
				"element": "C" 
			},
			{
				"x": 1.1502480764,
				"y": -0.0501417948,
				"z": -1.0671320582,
				"element": "C" 
			},
			{
				"x": -1.0950424523,
				"y": 0.2544917663,
				"z": -2.7191453592,
				"element": "H" 
			},
			{
				"x": -1.3463704202,
				"y": 1.9849319168,
				"z": -2.4518136767,
				"element": "H" 
			},
			{
				"x": 0.1273923369,
				"y": 1.4185612921,
				"z": -3.2534863776,
				"element": "H" 
			},
			{
				"x": 0.6336911685,
				"y": 2.0220703037,
				"z": -0.9136100312,
				"element": "H" 
			},
			{
				"x": -1.3459820163,
				"y": 1.8506335595,
				"z": 0.3216044663,
				"element": "H" 
			},
			{
				"x": -1.7620225395,
				"y": 0.2693725994,
				"z": -0.314527186,
				"element": "H" 
			},
			{
				"x": -0.4012702106,
				"y": -0.8878956013,
				"z": 1.1870873886,
				"element": "H" 
			},
			{
				"x": -2.168785856,
				"y": 0.3510894787,
				"z": 2.4676057748,
				"element": "H" 
			},
			{
				"x": -0.7307569849,
				"y": 0.040270727,
				"z": 3.4528233175,
				"element": "H" 
			},
			{
				"x": -1.0146572574,
				"y": 1.6541369452,
				"z": 2.7817413099,
				"element": "H" 
			},
			{
				"x": 1.2904979683,
				"y": 1.6304003218,
				"z": 1.45370485,
				"element": "H" 
			},
			{
				"x": 1.5819694198,
				"y": 0.1635342051,
				"z": 2.3703627805,
				"element": "H" 
			},
			{
				"x": 2.2293860415,
				"y": -1.0876424749,
				"z": 0.4858267741,
				"element": "H" 
			},
			{
				"x": 3.9485558066,
				"y": 0.2352105897,
				"z": -0.6892915137,
				"element": "H" 
			},
			{
				"x": 3.1431088609,
				"y": 1.7463608355,
				"z": -0.2406039439,
				"element": "H" 
			},
			{
				"x": 3.8817586643,
				"y": 0.7362475715,
				"z": 1.0081187876,
				"element": "H" 
			},
			{
				"x": 1.8162705312,
				"y": 0.0302539906,
				"z": -1.9357345127,
				"element": "H" 
			},
			{
				"x": 0.6286940844,
				"y": -1.0112034836,
				"z": -1.1745666351,
				"element": "H" 
			}
		],
		 "valence_orbital": [ 
			{
				"type": "occ",
				"energy": -0.32488,
				"method": "rhf"
			},
			{
				"type": "occ",
				"energy": -0.31748,
				"method": "rhf"
			},
			{
				"type": "occ",
				"energy": -0.28988,
				"method": "rhf"
			},
			{
				"type": "occ",
				"energy": -0.28748,
				"method": "rhf"
			},
			{
				"type": "occ",
				"energy": -0.28462,
				"method": "rhf"
			},
			{
				"type": "unocc",
				"energy": 0.08022,
				"method": "rhf"
			},
			{
				"type": "unocc",
				"energy": 0.09932,
				"method": "rhf"
			},
			{
				"type": "unocc",
				"energy": 0.11046,
				"method": "rhf"
			},
			{
				"type": "unocc",
				"energy": 0.11525,
				"method": "rhf"
			},
			{
				"type": "unocc",
				"energy": 0.14624,
				"method": "rhf"
			}
		],
		"cosmo_sigma_profile": { 
			"-0.025": 0.0,
			"-0.024": 0.0,
			"-0.023": 0.0,
			"-0.022": 0.0,
			"-0.021": 0.0,
			"-0.02": 0.0,
			"-0.019": 0.0,
			"-0.018": 0.0,
			"-0.017": 0.0,
			"-0.016": 0.0,
			"-0.015": 0.0,
			"-0.014": 0.0,
			"-0.013": 0.0,
			"-0.012": 0.0,
			"-0.011": 0.0,
			"-0.01": 0.0,
			"-0.009": 0.0,
			"-0.008": 0.0,
			"-0.007": 0.0,
			"-0.006": 0.0,
			"-0.005": 0.0,
			"-0.004": 0.0,
			"-0.003": 2.14419883367,
			"-0.002": 22.3857994194,
			"-0.001": 48.8433043838,
			"0.0": 55.2327910656,
			"0.001": 39.8816831514,
			"0.002": 28.572522472,
			"0.003": 1.81039501509,
			"0.004": 0.0,
			"0.005": 0.0,
			"0.006": 0.0,
			"0.007": 0.0,
			"0.008": 0.0,
			"0.009": 0.0,
			"0.01": 0.0,
			"0.011": 0.0,
			"0.012": 0.0,
			"0.013": 0.0,
			"0.014": 0.0,
			"0.015": 0.0,
			"0.016": 0.0,
			"0.017": 0.0,
			"0.018": 0.0,
			"0.019": 0.0,
			"0.02": 0.0,
			"0.021": 0.0,
			"0.022": 0.0,
			"0.023": 0.0,
			"0.024": 0.0,
			"0.025": 0.0
		}
	}
}
