{
	 "smiles": "ClC(=O)C1=CC=CC=C1OC1=CC=CC=C1", 
	 "Tm": 311.15, 
	 "num_atms": 25, 
	 "gaussian": { 
		 "optdone": 1, 
		 "sigma_profile": "yes", 
		 "theory": "DFT", 
		 "functional": "B3LYP", 
		 "basiset": "6-31G**", 
		 "properties": { 
			 "R2extent": 6070.3411, 
			 "electric_dipole_moment_norm": 5.71246964631, 
			 "electric_quadrupole_moment_norm": 24.6109545061, 
			 "total_energy": -1111.44040926, 
			 "HOMO_LUMO_gap": 0.17522, 
			 "cosmo_polarized_energy": -9.92, 
			 "cosmo_cavitation_energy": 31.9, 
			 "cosmo_dispersion_energy": -22.88, 
			 "cosmo_repulsion_energy": 1.79, 
			 "cosmo_total_nonelectrostatic_energy": 10.81, 
			 "SMD_solvation_energy": 6.24 
		},
		"coords": [
			{
				"x": 2.7327117481,
				"y": 3.8651123464,
				"z": -3.611887548,
				"element": "Cl" 
			},
			{
				"x": 1.865990588,
				"y": 3.2047275747,
				"z": -2.0986347343,
				"element": "C" 
			},
			{
				"x": 1.7759230561,
				"y": 3.9374473031,
				"z": -1.1652085174,
				"element": "O" 
			},
			{
				"x": 1.379053191,
				"y": 1.8158116388,
				"z": -2.2309678606,
				"element": "C" 
			},
			{
				"x": 1.5407184441,
				"y": 1.0741433744,
				"z": -3.4151245589,
				"element": "C" 
			},
			{
				"x": 1.0766714117,
				"y": -0.2292270263,
				"z": -3.5271209108,
				"element": "C" 
			},
			{
				"x": 0.4328196927,
				"y": -0.8210847631,
				"z": -2.4380462362,
				"element": "C" 
			},
			{
				"x": 0.2551013561,
				"y": -0.1188558167,
				"z": -1.2504956922,
				"element": "C" 
			},
			{
				"x": 0.7211907912,
				"y": 1.1967885102,
				"z": -1.1308319819,
				"element": "C" 
			},
			{
				"x": 0.5662942107,
				"y": 1.9216707609,
				"z": 0.0085808014,
				"element": "O" 
			},
			{
				"x": -0.0328572215,
				"y": 1.3556192923,
				"z": 1.1308493092,
				"element": "C" 
			},
			{
				"x": -1.3945643823,
				"y": 1.5606528984,
				"z": 1.3469027986,
				"element": "C" 
			},
			{
				"x": -1.9765745779,
				"y": 1.0679873428,
				"z": 2.516304998,
				"element": "C" 
			},
			{
				"x": -1.2021680797,
				"y": 0.3806650175,
				"z": 3.453647318,
				"element": "C" 
			},
			{
				"x": 0.1621820425,
				"y": 0.188299254,
				"z": 3.2236569702,
				"element": "C" 
			},
			{
				"x": 0.7561088104,
				"y": 0.6769302359,
				"z": 2.0588423803,
				"element": "C" 
			},
			{
				"x": 2.0409217415,
				"y": 1.5443606842,
				"z": -4.2514774913,
				"element": "H" 
			},
			{
				"x": 1.2148152748,
				"y": -0.7776652677,
				"z": -4.4526789915,
				"element": "H" 
			},
			{
				"x": 0.0629147974,
				"y": -1.839932623,
				"z": -2.5098843293,
				"element": "H" 
			},
			{
				"x": -0.24547808,
				"y": -0.5816620714,
				"z": -0.4090537638,
				"element": "H" 
			},
			{
				"x": -1.9745803356,
				"y": 2.1079712042,
				"z": 0.6112053673,
				"element": "H" 
			},
			{
				"x": -3.0358385739,
				"y": 1.2266752114,
				"z": 2.6951810296,
				"element": "H" 
			},
			{
				"x": -1.6586656453,
				"y": 0.0019342669,
				"z": 4.3629910855,
				"element": "H" 
			},
			{
				"x": 0.7694284916,
				"y": -0.3379550818,
				"z": 3.9541023949,
				"element": "H" 
			},
			{
				"x": 1.8165812485,
				"y": 0.5500857339,
				"z": 1.8673481632,
				"element": "H" 
			}
		],
		 "valence_orbital": [ 
			{
				"type": "occ",
				"energy": -0.27969,
				"method": "rhf"
			},
			{
				"type": "occ",
				"energy": -0.27758,
				"method": "rhf"
			},
			{
				"type": "occ",
				"energy": -0.26795,
				"method": "rhf"
			},
			{
				"type": "occ",
				"energy": -0.25588,
				"method": "rhf"
			},
			{
				"type": "occ",
				"energy": -0.24532,
				"method": "rhf"
			},
			{
				"type": "unocc",
				"energy": -0.0701,
				"method": "rhf"
			},
			{
				"type": "unocc",
				"energy": -0.01819,
				"method": "rhf"
			},
			{
				"type": "unocc",
				"energy": -0.01473,
				"method": "rhf"
			},
			{
				"type": "unocc",
				"energy": -0.01173,
				"method": "rhf"
			},
			{
				"type": "unocc",
				"energy": 0.0212,
				"method": "rhf"
			}
		],
		"cosmo_sigma_profile": { 
			"-0.025": 0.0,
			"-0.024": 0.0,
			"-0.023": 0.0,
			"-0.022": 0.0,
			"-0.021": 0.0,
			"-0.02": 0.0,
			"-0.019": 0.0,
			"-0.018": 0.0,
			"-0.017": 0.0,
			"-0.016": 0.0,
			"-0.015": 0.0,
			"-0.014": 0.0,
			"-0.013": 0.0,
			"-0.012": 0.0,
			"-0.011": 0.0,
			"-0.01": 0.0,
			"-0.009": 0.0,
			"-0.008": 0.422430631588,
			"-0.007": 8.75096299502,
			"-0.006": 18.4003841349,
			"-0.005": 17.9945756737,
			"-0.004": 18.8015955885,
			"-0.003": 16.5866226766,
			"-0.002": 18.3215290648,
			"-0.001": 19.2219476702,
			"0.0": 20.2468816941,
			"0.001": 22.4961300125,
			"0.002": 24.0727533578,
			"0.003": 22.7299361576,
			"0.004": 16.4628313297,
			"0.005": 12.2156891005,
			"0.006": 6.99266182703,
			"0.007": 2.97135374201,
			"0.008": 3.76425445702,
			"0.009": 4.84791233223,
			"0.01": 2.83299994095,
			"0.011": 1.45656116078,
			"0.012": 0.0337223244644,
			"0.013": 0.0,
			"0.014": 0.0,
			"0.015": 0.0,
			"0.016": 0.0,
			"0.017": 0.0,
			"0.018": 0.0,
			"0.019": 0.0,
			"0.02": 0.0,
			"0.021": 0.0,
			"0.022": 0.0,
			"0.023": 0.0,
			"0.024": 0.0,
			"0.025": 0.0
		}
	}
}
