{
	 "smiles": "COC1=CC=C(Cl)C=C1N=C=O", 
	 "Tm": 334.15, 
	 "num_atms": 18, 
	 "gaussian": { 
		 "optdone": 1, 
		 "sigma_profile": "yes", 
		 "theory": "DFT", 
		 "functional": "B3LYP", 
		 "basiset": "6-31G**", 
		 "properties": { 
			 "R2extent": 3277.8009, 
			 "electric_dipole_moment_norm": 3.57489720971, 
			 "electric_quadrupole_moment_norm": 7.89813932012, 
			 "total_energy": -973.846506541, 
			 "HOMO_LUMO_gap": 0.19525, 
			 "cosmo_polarized_energy": -6.88, 
			 "cosmo_cavitation_energy": 25.42, 
			 "cosmo_dispersion_energy": -18.45, 
			 "cosmo_repulsion_energy": 1.47, 
			 "cosmo_total_nonelectrostatic_energy": 8.45, 
			 "SMD_solvation_energy": 6.9 
		},
		"coords": [
			{
				"x": -2.2964898115,
				"y": 0.0415363491,
				"z": -0.6475147987,
				"element": "C" 
			},
			{
				"x": -1.5076015618,
				"y": -0.0672045826,
				"z": 0.5305036228,
				"element": "O" 
			},
			{
				"x": -0.1855280672,
				"y": -0.3622836777,
				"z": 0.4068105118,
				"element": "C" 
			},
			{
				"x": 0.4873764177,
				"y": -0.5741147201,
				"z": -0.79646546,
				"element": "C" 
			},
			{
				"x": 1.8537399294,
				"y": -0.8722925928,
				"z": -0.8023234011,
				"element": "C" 
			},
			{
				"x": 2.5403993698,
				"y": -0.9567799948,
				"z": 0.4039557239,
				"element": "C" 
			},
			{
				"x": 4.2577076858,
				"y": -1.3312495541,
				"z": 0.4057992288,
				"element": "Cl" 
			},
			{
				"x": 1.8882409135,
				"y": -0.7487422576,
				"z": 1.6187258868,
				"element": "C" 
			},
			{
				"x": 0.5258143599,
				"y": -0.4511677723,
				"z": 1.6272584076,
				"element": "C" 
			},
			{
				"x": -0.1145231267,
				"y": -0.2457017028,
				"z": 2.8463998745,
				"element": "N" 
			},
			{
				"x": -1.2486024517,
				"y": 0.0214622662,
				"z": 3.1976696656,
				"element": "C" 
			},
			{
				"x": -2.2776609111,
				"y": 0.2741147053,
				"z": 3.7071244142,
				"element": "O" 
			},
			{
				"x": -3.3054247092,
				"y": 0.2799352543,
				"z": -0.3100872231,
				"element": "H" 
			},
			{
				"x": -1.9305731125,
				"y": 0.8439869721,
				"z": -1.2994781851,
				"element": "H" 
			},
			{
				"x": -2.3118275623,
				"y": -0.9026429722,
				"z": -1.2053505512,
				"element": "H" 
			},
			{
				"x": -0.0418284017,
				"y": -0.5098218473,
				"z": -1.7396376588,
				"element": "H" 
			},
			{
				"x": 2.3724226786,
				"y": -1.0361990893,
				"z": -1.7398107415,
				"element": "H" 
			},
			{
				"x": 2.419958361,
				"y": -0.8137347835,
				"z": 2.5601206835,
				"element": "H" 
			}
		],
		 "valence_orbital": [ 
			{
				"type": "occ",
				"energy": -0.31583,
				"method": "rhf"
			},
			{
				"type": "occ",
				"energy": -0.31113,
				"method": "rhf"
			},
			{
				"type": "occ",
				"energy": -0.3091,
				"method": "rhf"
			},
			{
				"type": "occ",
				"energy": -0.25439,
				"method": "rhf"
			},
			{
				"type": "occ",
				"energy": -0.22455,
				"method": "rhf"
			},
			{
				"type": "unocc",
				"energy": -0.0293,
				"method": "rhf"
			},
			{
				"type": "unocc",
				"energy": -0.0103,
				"method": "rhf"
			},
			{
				"type": "unocc",
				"energy": 0.01434,
				"method": "rhf"
			},
			{
				"type": "unocc",
				"energy": 0.02936,
				"method": "rhf"
			},
			{
				"type": "unocc",
				"energy": 0.07435,
				"method": "rhf"
			}
		],
		"cosmo_sigma_profile": { 
			"-0.025": 0.0,
			"-0.024": 0.0,
			"-0.023": 0.0,
			"-0.022": 0.0,
			"-0.021": 0.0,
			"-0.02": 0.0,
			"-0.019": 0.0,
			"-0.018": 0.0,
			"-0.017": 0.0,
			"-0.016": 0.0,
			"-0.015": 0.0,
			"-0.014": 0.0,
			"-0.013": 0.0,
			"-0.012": 0.0,
			"-0.011": 0.0,
			"-0.01": 0.0,
			"-0.009": 0.0,
			"-0.008": 2.0282373852,
			"-0.007": 8.03197459988,
			"-0.006": 13.5428121861,
			"-0.005": 12.1900600504,
			"-0.004": 11.7538334264,
			"-0.003": 13.9714103759,
			"-0.002": 13.1834047834,
			"-0.001": 13.6362024285,
			"0.0": 15.264600446,
			"0.001": 18.2488586361,
			"0.002": 25.2015558964,
			"0.003": 18.3091898319,
			"0.004": 16.8239151378,
			"0.005": 11.214942827,
			"0.006": 4.58304264034,
			"0.007": 7.11601911921,
			"0.008": 2.26474261841,
			"0.009": 0.0,
			"0.01": 0.0,
			"0.011": 0.0,
			"0.012": 0.0,
			"0.013": 0.0,
			"0.014": 0.0,
			"0.015": 0.0,
			"0.016": 0.0,
			"0.017": 0.0,
			"0.018": 0.0,
			"0.019": 0.0,
			"0.02": 0.0,
			"0.021": 0.0,
			"0.022": 0.0,
			"0.023": 0.0,
			"0.024": 0.0,
			"0.025": 0.0
		}
	}
}
