{
	 "smiles": "COC1=CC=C(C=C1)C(=O)C1=CC(OC)=C(OC)C=C1[N+]([O-])=O", 
	 "Tm": 420.15, 
	 "num_atms": 38, 
	 "gaussian": { 
		 "optdone": 1, 
		 "sigma_profile": "yes", 
		 "theory": "DFT", 
		 "functional": "B3LYP", 
		 "basiset": "6-31G**", 
		 "properties": { 
			 "R2extent": 10046.6771, 
			 "electric_dipole_moment_norm": 6.43642398075, 
			 "electric_quadrupole_moment_norm": 33.3904313669, 
			 "total_energy": -1124.68618134, 
			 "HOMO_LUMO_gap": 0.14174, 
			 "cosmo_polarized_energy": -18.17, 
			 "cosmo_cavitation_energy": 43.35, 
			 "cosmo_dispersion_energy": -29.82, 
			 "cosmo_repulsion_energy": 2.29, 
			 "cosmo_total_nonelectrostatic_energy": 15.82, 
			 "SMD_solvation_energy": 12.19 
		},
		"coords": [
			{
				"x": 5.3328602905,
				"y": 1.9497016704,
				"z": 0.2866602247,
				"element": "C" 
			},
			{
				"x": 4.3588769878,
				"y": 2.8904092607,
				"z": -0.1447772849,
				"element": "O" 
			},
			{
				"x": 3.0449540343,
				"y": 2.5837171389,
				"z": 0.010135994,
				"element": "C" 
			},
			{
				"x": 2.1364751806,
				"y": 3.5689416996,
				"z": -0.4198335111,
				"element": "C" 
			},
			{
				"x": 0.7758921517,
				"y": 3.3532710278,
				"z": -0.3046197189,
				"element": "C" 
			},
			{
				"x": 0.2794804645,
				"y": 2.155021435,
				"z": 0.2441168762,
				"element": "C" 
			},
			{
				"x": 1.191917313,
				"y": 1.1805717389,
				"z": 0.6641273206,
				"element": "C" 
			},
			{
				"x": 2.5669465849,
				"y": 1.3824988786,
				"z": 0.5521309771,
				"element": "C" 
			},
			{
				"x": -1.1905921038,
				"y": 1.9747397251,
				"z": 0.3253414196,
				"element": "C" 
			},
			{
				"x": -1.9784012686,
				"y": 2.7681492575,
				"z": -0.1665824368,
				"element": "O" 
			},
			{
				"x": -1.7534316778,
				"y": 0.6814346192,
				"z": 0.9037395763,
				"element": "C" 
			},
			{
				"x": -2.2581236207,
				"y": -0.24544001,
				"z": -0.0128896397,
				"element": "C" 
			},
			{
				"x": -2.8265881902,
				"y": -1.4537870687,
				"z": 0.3944832499,
				"element": "C" 
			},
			{
				"x": -3.3129289586,
				"y": -2.2964614035,
				"z": -0.5653523633,
				"element": "O" 
			},
			{
				"x": -2.6886449234,
				"y": -3.5887239488,
				"z": -0.6458159601,
				"element": "C" 
			},
			{
				"x": -2.9349149555,
				"y": -1.7438765437,
				"z": 1.7730029774,
				"element": "C" 
			},
			{
				"x": -3.4989312757,
				"y": -2.9114430937,
				"z": 2.2226255026,
				"element": "O" 
			},
			{
				"x": -4.9218337961,
				"y": -3.000091877,
				"z": 2.0441286412,
				"element": "C" 
			},
			{
				"x": -2.4364620976,
				"y": -0.8354080492,
				"z": 2.6982947019,
				"element": "C" 
			},
			{
				"x": -1.8507559517,
				"y": 0.3546639201,
				"z": 2.2629965111,
				"element": "C" 
			},
			{
				"x": -1.3785342615,
				"y": 1.2888000828,
				"z": 3.2924313374,
				"element": "N" 
			},
			{
				"x": -1.0357038032,
				"y": 2.4138673668,
				"z": 2.9273495737,
				"element": "O" 
			},
			{
				"x": -1.3574488618,
				"y": 0.8973464641,
				"z": 4.4594549064,
				"element": "O" 
			},
			{
				"x": 6.3018765671,
				"y": 2.4050230352,
				"z": 0.0784741008,
				"element": "H" 
			},
			{
				"x": 5.2502795672,
				"y": 1.7494359933,
				"z": 1.3620139912,
				"element": "H" 
			},
			{
				"x": 5.2519342276,
				"y": 1.0042677206,
				"z": -0.2641685242,
				"element": "H" 
			},
			{
				"x": 2.5329214579,
				"y": 4.4894363029,
				"z": -0.8354008439,
				"element": "H" 
			},
			{
				"x": 0.0631060075,
				"y": 4.1030537551,
				"z": -0.6308127865,
				"element": "H" 
			},
			{
				"x": 0.833459797,
				"y": 0.2445156442,
				"z": 1.0813750559,
				"element": "H" 
			},
			{
				"x": 3.248840135,
				"y": 0.6098265332,
				"z": 0.8857568912,
				"element": "H" 
			},
			{
				"x": -2.2100258654,
				"y": -0.0383110273,
				"z": -1.0767088013,
				"element": "H" 
			},
			{
				"x": -1.6317320219,
				"y": -3.4837552861,
				"z": -0.917791545,
				"element": "H" 
			},
			{
				"x": -2.7731848191,
				"y": -4.1342237235,
				"z": 0.297462293,
				"element": "H" 
			},
			{
				"x": -3.2137596904,
				"y": -4.1251416863,
				"z": -1.4374360017,
				"element": "H" 
			},
			{
				"x": -5.4299458864,
				"y": -2.2124127648,
				"z": 2.612646749,
				"element": "H" 
			},
			{
				"x": -5.2153776934,
				"y": -3.9759789401,
				"z": 2.4342141353,
				"element": "H" 
			},
			{
				"x": -5.1961773257,
				"y": -2.9238944116,
				"z": 0.9874926011,
				"element": "H" 
			},
			{
				"x": -2.5149217185,
				"y": -1.0425434359,
				"z": 3.7578338096,
				"element": "H" 
			}
		],
		 "valence_orbital": [ 
			{
				"type": "occ",
				"energy": -0.27081,
				"method": "rhf"
			},
			{
				"type": "occ",
				"energy": -0.26104,
				"method": "rhf"
			},
			{
				"type": "occ",
				"energy": -0.25982,
				"method": "rhf"
			},
			{
				"type": "occ",
				"energy": -0.24623,
				"method": "rhf"
			},
			{
				"type": "occ",
				"energy": -0.22915,
				"method": "rhf"
			},
			{
				"type": "unocc",
				"energy": -0.08741,
				"method": "rhf"
			},
			{
				"type": "unocc",
				"energy": -0.04939,
				"method": "rhf"
			},
			{
				"type": "unocc",
				"energy": -0.0265,
				"method": "rhf"
			},
			{
				"type": "unocc",
				"energy": -0.00958,
				"method": "rhf"
			},
			{
				"type": "unocc",
				"energy": 0.00366,
				"method": "rhf"
			}
		],
		"cosmo_sigma_profile": { 
			"-0.025": 0.0,
			"-0.024": 0.0,
			"-0.023": 0.0,
			"-0.022": 0.0,
			"-0.021": 0.0,
			"-0.02": 0.0,
			"-0.019": 0.0,
			"-0.018": 0.0,
			"-0.017": 0.0,
			"-0.016": 0.0,
			"-0.015": 0.0,
			"-0.014": 0.0,
			"-0.013": 0.0,
			"-0.012": 0.0,
			"-0.011": 0.0,
			"-0.01": 0.0,
			"-0.009": 0.073227149219,
			"-0.008": 1.731585547,
			"-0.007": 8.46841963377,
			"-0.006": 24.0975086602,
			"-0.005": 29.7225214857,
			"-0.004": 35.7067342873,
			"-0.003": 38.7421446526,
			"-0.002": 29.0723247686,
			"-0.001": 22.717630791,
			"0.0": 18.9713242886,
			"0.001": 16.5018021165,
			"0.002": 17.3696520913,
			"0.003": 18.9783563313,
			"0.004": 15.6906271335,
			"0.005": 9.62060052348,
			"0.006": 9.35156050495,
			"0.007": 13.6871293218,
			"0.008": 11.6957320283,
			"0.009": 9.10840828252,
			"0.01": 6.63902855507,
			"0.011": 4.34700378109,
			"0.012": 3.12949190476,
			"0.013": 0.546702673481,
			"0.014": 0.0,
			"0.015": 0.0,
			"0.016": 0.0,
			"0.017": 0.0,
			"0.018": 0.0,
			"0.019": 0.0,
			"0.02": 0.0,
			"0.021": 0.0,
			"0.022": 0.0,
			"0.023": 0.0,
			"0.024": 0.0,
			"0.025": 0.0
		}
	}
}
