{
	 "smiles": "NC1=NC(=NC(N)=N1)C1=CC(Cl)=CC=C1Cl", 
	 "Tm": 541.15, 
	 "num_atms": 23, 
	 "gaussian": { 
		 "optdone": 1, 
		 "sigma_profile": "yes", 
		 "theory": "DFT", 
		 "functional": "B3LYP", 
		 "basiset": "6-31G**", 
		 "properties": { 
			 "R2extent": 5426.6576, 
			 "electric_dipole_moment_norm": 2.76162661669, 
			 "electric_quadrupole_moment_norm": 15.7441113785, 
			 "total_energy": -1541.36095484, 
			 "HOMO_LUMO_gap": 0.18762, 
			 "cosmo_polarized_energy": -14.86, 
			 "cosmo_cavitation_energy": 31.94, 
			 "cosmo_dispersion_energy": -23.8, 
			 "cosmo_repulsion_energy": 1.89, 
			 "cosmo_total_nonelectrostatic_energy": 10.04, 
			 "SMD_solvation_energy": 1.3 
		},
		"coords": [
			{
				"x": -2.1237178156,
				"y": -2.0456561726,
				"z": 1.8177504018,
				"element": "N" 
			},
			{
				"x": -1.2854831012,
				"y": -1.972035951,
				"z": 0.7574969936,
				"element": "C" 
			},
			{
				"x": -0.6091288508,
				"y": -0.8120494539,
				"z": 0.6039600368,
				"element": "N" 
			},
			{
				"x": 0.2094795835,
				"y": -0.7921117659,
				"z": -0.4466471395,
				"element": "C" 
			},
			{
				"x": 0.4173333193,
				"y": -1.8026420621,
				"z": -1.3005850543,
				"element": "N" 
			},
			{
				"x": -0.3103598519,
				"y": -2.9082557533,
				"z": -1.0357925497,
				"element": "C" 
			},
			{
				"x": -0.1257758938,
				"y": -3.970310824,
				"z": -1.8575429428,
				"element": "N" 
			},
			{
				"x": -1.1888034467,
				"y": -3.0518068706,
				"z": -0.0320744414,
				"element": "N" 
			},
			{
				"x": 1.023429542,
				"y": 0.4389487766,
				"z": -0.6846348856,
				"element": "C" 
			},
			{
				"x": 2.3214320736,
				"y": 0.2494924098,
				"z": -1.1884930396,
				"element": "C" 
			},
			{
				"x": 3.1699453701,
				"y": 1.3274695439,
				"z": -1.402259059,
				"element": "C" 
			},
			{
				"x": 4.792279052,
				"y": 1.0446568285,
				"z": -2.0151395618,
				"element": "Cl" 
			},
			{
				"x": 2.7516261536,
				"y": 2.6305496021,
				"z": -1.1385317428,
				"element": "C" 
			},
			{
				"x": 1.4592048519,
				"y": 2.8364854428,
				"z": -0.6656331071,
				"element": "C" 
			},
			{
				"x": 0.6001802416,
				"y": 1.7580233269,
				"z": -0.4384916881,
				"element": "C" 
			},
			{
				"x": -1.0271091071,
				"y": 2.1588014967,
				"z": 0.080897014,
				"element": "Cl" 
			},
			{
				"x": -2.2949265487,
				"y": -1.2108966809,
				"z": 2.3531822303,
				"element": "H" 
			},
			{
				"x": -2.7197674552,
				"y": -2.8503652533,
				"z": 1.9151331643,
				"element": "H" 
			},
			{
				"x": 0.4172847731,
				"y": -3.8387578396,
				"z": -2.694624391,
				"element": "H" 
			},
			{
				"x": -0.7439332558,
				"y": -4.7599465935,
				"z": -1.7721723872,
				"element": "H" 
			},
			{
				"x": 2.6430064945,
				"y": -0.7610573463,
				"z": -1.4066659973,
				"element": "H" 
			},
			{
				"x": 3.4176982315,
				"y": 3.4691240456,
				"z": -1.3075693561,
				"element": "H" 
			},
			{
				"x": 1.1042056401,
				"y": 3.8431410941,
				"z": -0.4760624975,
				"element": "H" 
			}
		],
		 "valence_orbital": [ 
			{
				"type": "occ",
				"energy": -0.26069,
				"method": "rhf"
			},
			{
				"type": "occ",
				"energy": -0.25597,
				"method": "rhf"
			},
			{
				"type": "occ",
				"energy": -0.25387,
				"method": "rhf"
			},
			{
				"type": "occ",
				"energy": -0.24198,
				"method": "rhf"
			},
			{
				"type": "occ",
				"energy": -0.23875,
				"method": "rhf"
			},
			{
				"type": "unocc",
				"energy": -0.05113,
				"method": "rhf"
			},
			{
				"type": "unocc",
				"energy": -0.01819,
				"method": "rhf"
			},
			{
				"type": "unocc",
				"energy": 0.00712,
				"method": "rhf"
			},
			{
				"type": "unocc",
				"energy": 0.01438,
				"method": "rhf"
			},
			{
				"type": "unocc",
				"energy": 0.02721,
				"method": "rhf"
			}
		],
		"cosmo_sigma_profile": { 
			"-0.025": 0.0,
			"-0.024": 0.0,
			"-0.023": 0.0,
			"-0.022": 0.0,
			"-0.021": 0.0,
			"-0.02": 0.0,
			"-0.019": 0.0,
			"-0.018": 0.0,
			"-0.017": 0.0,
			"-0.016": 0.0,
			"-0.015": 0.330790821048,
			"-0.014": 3.13689048098,
			"-0.013": 5.28621375892,
			"-0.012": 3.32079663588,
			"-0.011": 3.33822857337,
			"-0.01": 3.60845930942,
			"-0.009": 4.61549321832,
			"-0.008": 6.50440283129,
			"-0.007": 6.11299698604,
			"-0.006": 7.51617297746,
			"-0.005": 6.55583278551,
			"-0.004": 7.43697869908,
			"-0.003": 8.51612207921,
			"-0.002": 13.3025739456,
			"-0.001": 16.670906381,
			"0.0": 21.8302448298,
			"0.001": 32.3413702487,
			"0.002": 25.9775335071,
			"0.003": 19.9259039807,
			"0.004": 23.8648028684,
			"0.005": 12.1224023535,
			"0.006": 7.35766102764,
			"0.007": 4.49353584838,
			"0.008": 3.78531163784,
			"0.009": 3.61025635648,
			"0.01": 2.84011976982,
			"0.011": 1.9642083295,
			"0.012": 1.99555369412,
			"0.013": 1.96902736489,
			"0.014": 0.291909344092,
			"0.015": 0.0,
			"0.016": 0.0,
			"0.017": 0.0,
			"0.018": 0.0,
			"0.019": 0.0,
			"0.02": 0.0,
			"0.021": 0.0,
			"0.022": 0.0,
			"0.023": 0.0,
			"0.024": 0.0,
			"0.025": 0.0
		}
	}
}
