{
	 "smiles": "CN1CCN(CC2=C(CO)C=CC=C2)CC1", 
	 "Tm": 336.15, 
	 "num_atms": 36, 
	 "gaussian": { 
		 "optdone": 1, 
		 "sigma_profile": "yes", 
		 "theory": "DFT", 
		 "functional": "B3LYP", 
		 "basiset": "6-31G**", 
		 "properties": { 
			 "R2extent": 3950.0295, 
			 "electric_dipole_moment_norm": 1.55144504898, 
			 "electric_quadrupole_moment_norm": 6.12878869843, 
			 "total_energy": -692.123447475, 
			 "HOMO_LUMO_gap": 0.1548, 
			 "cosmo_polarized_energy": -9.82, 
			 "cosmo_cavitation_energy": 34.66, 
			 "cosmo_dispersion_energy": -24.62, 
			 "cosmo_repulsion_energy": 1.88, 
			 "cosmo_total_nonelectrostatic_energy": 11.91, 
			 "SMD_solvation_energy": 0.86 
		},
		"coords": [
			{
				"x": 0.3681799727,
				"y": 3.7927560552,
				"z": -0.9008395472,
				"element": "C" 
			},
			{
				"x": -0.4066900991,
				"y": 2.6319758867,
				"z": -0.4778579349,
				"element": "N" 
			},
			{
				"x": 0.36883829,
				"y": 1.6365337756,
				"z": 0.2734151736,
				"element": "C" 
			},
			{
				"x": 1.277896139,
				"y": 0.7634805833,
				"z": -0.6131850655,
				"element": "C" 
			},
			{
				"x": 0.5583371777,
				"y": 0.1418861137,
				"z": -1.7241109415,
				"element": "N" 
			},
			{
				"x": 0.1133363669,
				"y": -1.2423345737,
				"z": -1.5993179676,
				"element": "C" 
			},
			{
				"x": -1.0919977668,
				"y": -1.5914038188,
				"z": -0.7112357684,
				"element": "C" 
			},
			{
				"x": -0.9764388201,
				"y": -2.2039471043,
				"z": 0.5584553656,
				"element": "C" 
			},
			{
				"x": 0.3528250088,
				"y": -2.5892553179,
				"z": 1.1794682172,
				"element": "C" 
			},
			{
				"x": 1.090321525,
				"y": -1.4856430857,
				"z": 1.7102447235,
				"element": "O" 
			},
			{
				"x": -2.1393500693,
				"y": -2.4835718517,
				"z": 1.2931797715,
				"element": "C" 
			},
			{
				"x": -3.4084019878,
				"y": -2.1859471186,
				"z": 0.8009123108,
				"element": "C" 
			},
			{
				"x": -3.5279298367,
				"y": -1.6161797603,
				"z": -0.4659087276,
				"element": "C" 
			},
			{
				"x": -2.379985765,
				"y": -1.3379181806,
				"z": -1.2065023565,
				"element": "C" 
			},
			{
				"x": -0.2623480483,
				"y": 1.096478084,
				"z": -2.4653662251,
				"element": "C" 
			},
			{
				"x": -1.1507738737,
				"y": 1.9785636835,
				"z": -1.5616644044,
				"element": "C" 
			},
			{
				"x": 0.8112567082,
				"y": 4.2677496801,
				"z": -0.0183337499,
				"element": "H" 
			},
			{
				"x": -0.3039211497,
				"y": 4.5208418345,
				"z": -1.3688025117,
				"element": "H" 
			},
			{
				"x": 1.1872727495,
				"y": 3.5921507899,
				"z": -1.6137249933,
				"element": "H" 
			},
			{
				"x": -0.3437614698,
				"y": 0.9862223754,
				"z": 0.7980253873,
				"element": "H" 
			},
			{
				"x": 0.9639403236,
				"y": 2.1566454108,
				"z": 1.0347523048,
				"element": "H" 
			},
			{
				"x": 2.0816198398,
				"y": 1.3895108567,
				"z": -1.0325404383,
				"element": "H" 
			},
			{
				"x": 1.7449909297,
				"y": -0.0135588603,
				"z": -0.0045547448,
				"element": "H" 
			},
			{
				"x": 0.981697454,
				"y": -1.8244543934,
				"z": -1.2765167026,
				"element": "H" 
			},
			{
				"x": -0.1269635238,
				"y": -1.5869668197,
				"z": -2.6141453762,
				"element": "H" 
			},
			{
				"x": 0.1699025952,
				"y": -3.3397382631,
				"z": 1.9626686758,
				"element": "H" 
			},
			{
				"x": 1.0189069622,
				"y": -3.0526950384,
				"z": 0.446528072,
				"element": "H" 
			},
			{
				"x": 0.4922394128,
				"y": -0.9875826869,
				"z": 2.2833511636,
				"element": "H" 
			},
			{
				"x": -2.0418451648,
				"y": -2.9606482554,
				"z": 2.2662600397,
				"element": "H" 
			},
			{
				"x": -4.291636765,
				"y": -2.4146928041,
				"z": 1.3901083005,
				"element": "H" 
			},
			{
				"x": -4.5082321024,
				"y": -1.4012047032,
				"z": -0.8819794492,
				"element": "H" 
			},
			{
				"x": -2.484581446,
				"y": -0.9196213045,
				"z": -2.2044529572,
				"element": "H" 
			},
			{
				"x": -0.8745318192,
				"y": 0.5572612162,
				"z": -3.1974908507,
				"element": "H" 
			},
			{
				"x": 0.4113531934,
				"y": 1.7492912693,
				"z": -3.0435212543,
				"element": "H" 
			},
			{
				"x": -1.9302850464,
				"y": 1.3592548502,
				"z": -1.1019087077,
				"element": "H" 
			},
			{
				"x": -1.6517398946,
				"y": 2.7502614753,
				"z": -2.1598088313,
				"element": "H" 
			}
		],
		 "valence_orbital": [ 
			{
				"type": "occ",
				"energy": -0.27608,
				"method": "rhf"
			},
			{
				"type": "occ",
				"energy": -0.25124,
				"method": "rhf"
			},
			{
				"type": "occ",
				"energy": -0.2454,
				"method": "rhf"
			},
			{
				"type": "occ",
				"energy": -0.22036,
				"method": "rhf"
			},
			{
				"type": "occ",
				"energy": -0.16746,
				"method": "rhf"
			},
			{
				"type": "unocc",
				"energy": -0.01266,
				"method": "rhf"
			},
			{
				"type": "unocc",
				"energy": -0.00753,
				"method": "rhf"
			},
			{
				"type": "unocc",
				"energy": 0.07645,
				"method": "rhf"
			},
			{
				"type": "unocc",
				"energy": 0.08756,
				"method": "rhf"
			},
			{
				"type": "unocc",
				"energy": 0.09423,
				"method": "rhf"
			}
		],
		"cosmo_sigma_profile": { 
			"-0.025": 0.0,
			"-0.024": 0.0,
			"-0.023": 0.0,
			"-0.022": 0.0,
			"-0.021": 0.0,
			"-0.02": 0.0,
			"-0.019": 0.0,
			"-0.018": 0.0,
			"-0.017": 0.0,
			"-0.016": 0.0,
			"-0.015": 0.0174175035044,
			"-0.014": 0.84271996429,
			"-0.013": 0.588656533556,
			"-0.012": 0.582818996923,
			"-0.011": 1.08320437444,
			"-0.01": 1.00933261361,
			"-0.009": 0.274883408104,
			"-0.008": 0.876978170512,
			"-0.007": 1.46976366288,
			"-0.006": 4.95268747588,
			"-0.005": 16.7080416531,
			"-0.004": 19.1354193693,
			"-0.003": 29.7407273387,
			"-0.002": 34.0331354839,
			"-0.001": 33.682408505,
			"0.0": 29.9880924601,
			"0.001": 21.1839444339,
			"0.002": 13.1007915006,
			"0.003": 11.8848492612,
			"0.004": 10.3849319271,
			"0.005": 8.92547858319,
			"0.006": 8.37247518191,
			"0.007": 3.64939294201,
			"0.008": 2.32416525273,
			"0.009": 2.54262686029,
			"0.01": 1.96387281402,
			"0.011": 2.62667416076,
			"0.012": 1.92044981195,
			"0.013": 2.37063943021,
			"0.014": 1.66217012972,
			"0.015": 0.46884504858,
			"0.016": 0.763978476146,
			"0.017": 0.604168247854,
			"0.018": 0.0,
			"0.019": 0.0,
			"0.02": 0.0,
			"0.021": 0.0,
			"0.022": 0.0,
			"0.023": 0.0,
			"0.024": 0.0,
			"0.025": 0.0
		}
	}
}
