{
	 "smiles": "CC(=NNC(N)=O)C1=CCC2(C)C(CCC3C2CCC2=C3CCC2(C)C)C1", 
	 "Tm": 512.15, 
	 "num_atms": 62, 
	 "gaussian": { 
		 "optdone": 1, 
		 "sigma_profile": "yes", 
		 "theory": "DFT", 
		 "functional": "B3LYP", 
		 "basiset": "6-31G**", 
		 "properties": { 
			 "R2extent": 11426.5391, 
			 "electric_dipole_moment_norm": 4.18053327101, 
			 "electric_quadrupole_moment_norm": 26.5971075619, 
			 "total_energy": -1137.01947359, 
			 "HOMO_LUMO_gap": 0.18045, 
			 "cosmo_polarized_energy": -14.92, 
			 "cosmo_cavitation_energy": 56.04, 
			 "cosmo_dispersion_energy": -36.82, 
			 "cosmo_repulsion_energy": 2.8, 
			 "cosmo_total_nonelectrostatic_energy": 22.02, 
			 "SMD_solvation_energy": 8.57 
		},
		"coords": [
			{
				"x": -1.7912161624,
				"y": -2.7183793225,
				"z": 2.6888219074,
				"element": "C" 
			},
			{
				"x": -0.723140964,
				"y": -1.6967869956,
				"z": 2.3628002058,
				"element": "C" 
			},
			{
				"x": 0.533759832,
				"y": -2.0023099148,
				"z": 2.3226357616,
				"element": "N" 
			},
			{
				"x": 0.9164020546,
				"y": -3.2691557732,
				"z": 2.6266182218,
				"element": "N" 
			},
			{
				"x": 2.260215252,
				"y": -3.6528598929,
				"z": 2.592389052,
				"element": "C" 
			},
			{
				"x": 3.1001056086,
				"y": -2.7115117777,
				"z": 2.0732789924,
				"element": "N" 
			},
			{
				"x": 2.5918527234,
				"y": -4.7654723511,
				"z": 2.9788306959,
				"element": "O" 
			},
			{
				"x": -1.0861839663,
				"y": -0.2829279209,
				"z": 2.0923190714,
				"element": "C" 
			},
			{
				"x": -0.2583976815,
				"y": 0.7199023437,
				"z": 2.4262119525,
				"element": "C" 
			},
			{
				"x": -0.576882212,
				"y": 2.1576873417,
				"z": 2.1414080212,
				"element": "C" 
			},
			{
				"x": -1.3971134268,
				"y": 2.4010365336,
				"z": 0.8481885813,
				"element": "C" 
			},
			{
				"x": -1.9009811601,
				"y": 3.8613181969,
				"z": 0.9110524512,
				"element": "C" 
			},
			{
				"x": -2.635817231,
				"y": 1.4403637056,
				"z": 0.84506576,
				"element": "C" 
			},
			{
				"x": -3.2347714653,
				"y": 1.3501426504,
				"z": -0.5716263846,
				"element": "C" 
			},
			{
				"x": -2.2552077102,
				"y": 0.7193233839,
				"z": -1.593709666,
				"element": "C" 
			},
			{
				"x": -0.7701468869,
				"y": 0.8765915624,
				"z": -1.1744993296,
				"element": "C" 
			},
			{
				"x": -0.5663419294,
				"y": 2.2483073407,
				"z": -0.4862269079,
				"element": "C" 
			},
			{
				"x": 0.9294777155,
				"y": 2.5879523467,
				"z": -0.36622523,
				"element": "C" 
			},
			{
				"x": 1.5974244637,
				"y": 2.6748814544,
				"z": -1.7488769613,
				"element": "C" 
			},
			{
				"x": 1.2150570471,
				"y": 1.5012294761,
				"z": -2.6085036571,
				"element": "C" 
			},
			{
				"x": 0.1704253218,
				"y": 0.7020937675,
				"z": -2.3424376489,
				"element": "C" 
			},
			{
				"x": 0.0919235143,
				"y": -0.4502643026,
				"z": -3.3244034674,
				"element": "C" 
			},
			{
				"x": 1.045275754,
				"y": -0.0055621602,
				"z": -4.4578080243,
				"element": "C" 
			},
			{
				"x": 2.0186636318,
				"y": 1.0317966798,
				"z": -3.820920278,
				"element": "C" 
			},
			{
				"x": 2.3556568423,
				"y": 2.1741178458,
				"z": -4.7956031357,
				"element": "C" 
			},
			{
				"x": 3.3270012475,
				"y": 0.349092415,
				"z": -3.3596466136,
				"element": "C" 
			},
			{
				"x": -2.4118226936,
				"y": -0.0018128425,
				"z": 1.4143348149,
				"element": "C" 
			},
			{
				"x": -1.7143525647,
				"y": -3.595725722,
				"z": 2.0339869602,
				"element": "H" 
			},
			{
				"x": -1.6884882118,
				"y": -3.0730478848,
				"z": 3.7237289921,
				"element": "H" 
			},
			{
				"x": -2.7959590977,
				"y": -2.3102515408,
				"z": 2.5866250114,
				"element": "H" 
			},
			{
				"x": 0.2901445156,
				"y": -3.9604110817,
				"z": 3.0232550192,
				"element": "H" 
			},
			{
				"x": 4.0856270473,
				"y": -2.8817914458,
				"z": 2.1815499007,
				"element": "H" 
			},
			{
				"x": 2.7531399198,
				"y": -1.7755066097,
				"z": 1.9280197137,
				"element": "H" 
			},
			{
				"x": 0.6661116705,
				"y": 0.4880482462,
				"z": 2.9483245601,
				"element": "H" 
			},
			{
				"x": -1.1587984711,
				"y": 2.5597966799,
				"z": 2.9862869115,
				"element": "H" 
			},
			{
				"x": 0.3417397554,
				"y": 2.7519246307,
				"z": 2.1280180883,
				"element": "H" 
			},
			{
				"x": -2.4548833855,
				"y": 4.052190294,
				"z": 1.83706015,
				"element": "H" 
			},
			{
				"x": -2.5600416243,
				"y": 4.1016061366,
				"z": 0.0707321633,
				"element": "H" 
			},
			{
				"x": -1.0607288413,
				"y": 4.5643975649,
				"z": 0.877819002,
				"element": "H" 
			},
			{
				"x": -3.3819282103,
				"y": 1.9177486021,
				"z": 1.4925412747,
				"element": "H" 
			},
			{
				"x": -4.1709967022,
				"y": 0.7795669878,
				"z": -0.5436674572,
				"element": "H" 
			},
			{
				"x": -3.5116687244,
				"y": 2.3573187256,
				"z": -0.9021431769,
				"element": "H" 
			},
			{
				"x": -2.4809091558,
				"y": -0.3428324087,
				"z": -1.7398857325,
				"element": "H" 
			},
			{
				"x": -2.4043382623,
				"y": 1.1956477823,
				"z": -2.5705771319,
				"element": "H" 
			},
			{
				"x": -0.5347784171,
				"y": 0.0880067262,
				"z": -0.4463543222,
				"element": "H" 
			},
			{
				"x": -0.9868846877,
				"y": 2.987652785,
				"z": -1.1858671312,
				"element": "H" 
			},
			{
				"x": 1.4343012815,
				"y": 1.8125617242,
				"z": 0.2243772085,
				"element": "H" 
			},
			{
				"x": 1.0699794523,
				"y": 3.5363399601,
				"z": 0.1660649119,
				"element": "H" 
			},
			{
				"x": 1.3142192178,
				"y": 3.6165195895,
				"z": -2.243993652,
				"element": "H" 
			},
			{
				"x": 2.6884713134,
				"y": 2.7250475193,
				"z": -1.6309471097,
				"element": "H" 
			},
			{
				"x": -0.9233802174,
				"y": -0.6420216099,
				"z": -3.691069083,
				"element": "H" 
			},
			{
				"x": 0.4241966255,
				"y": -1.3850821425,
				"z": -2.8473036388,
				"element": "H" 
			},
			{
				"x": 0.4611974918,
				"y": 0.488016781,
				"z": -5.2431661241,
				"element": "H" 
			},
			{
				"x": 1.5757575176,
				"y": -0.8408966427,
				"z": -4.9269546066,
				"element": "H" 
			},
			{
				"x": 2.8540675002,
				"y": 1.7859417966,
				"z": -5.6916262717,
				"element": "H" 
			},
			{
				"x": 3.0286622482,
				"y": 2.9084795144,
				"z": -4.3382353338,
				"element": "H" 
			},
			{
				"x": 1.4498300582,
				"y": 2.700445865,
				"z": -5.1158675497,
				"element": "H" 
			},
			{
				"x": 3.1180177934,
				"y": -0.5082556158,
				"z": -2.7112224751,
				"element": "H" 
			},
			{
				"x": 3.9032296776,
				"y": -0.0086314847,
				"z": -4.2210433159,
				"element": "H" 
			},
			{
				"x": 3.9658949831,
				"y": 1.0425517569,
				"z": -2.8011810333,
				"element": "H" 
			},
			{
				"x": -2.5480082226,
				"y": -0.7376390401,
				"z": 0.6117037952,
				"element": "H" 
			},
			{
				"x": -3.228260792,
				"y": -0.2072102289,
				"z": 2.1209432975,
				"element": "H" 
			}
		],
		 "valence_orbital": [ 
			{
				"type": "occ",
				"energy": -0.26299,
				"method": "rhf"
			},
			{
				"type": "occ",
				"energy": -0.2574,
				"method": "rhf"
			},
			{
				"type": "occ",
				"energy": -0.25232,
				"method": "rhf"
			},
			{
				"type": "occ",
				"energy": -0.21441,
				"method": "rhf"
			},
			{
				"type": "occ",
				"energy": -0.20885,
				"method": "rhf"
			},
			{
				"type": "unocc",
				"energy": -0.0284,
				"method": "rhf"
			},
			{
				"type": "unocc",
				"energy": 0.03486,
				"method": "rhf"
			},
			{
				"type": "unocc",
				"energy": 0.04652,
				"method": "rhf"
			},
			{
				"type": "unocc",
				"energy": 0.06914,
				"method": "rhf"
			},
			{
				"type": "unocc",
				"energy": 0.07774,
				"method": "rhf"
			}
		],
		"cosmo_sigma_profile": { 
			"-0.025": 0.0,
			"-0.024": 0.0,
			"-0.023": 0.0,
			"-0.022": 0.0,
			"-0.021": 0.0,
			"-0.02": 0.0,
			"-0.019": 0.0,
			"-0.018": 0.0,
			"-0.017": 0.0,
			"-0.016": 0.0,
			"-0.015": 0.0,
			"-0.014": 0.539336621802,
			"-0.013": 1.75431424986,
			"-0.012": 1.38285323249,
			"-0.011": 2.76550797443,
			"-0.01": 3.60086760119,
			"-0.009": 3.54672424745,
			"-0.008": 2.86073983025,
			"-0.007": 3.23853312212,
			"-0.006": 4.03974810102,
			"-0.005": 7.46882812909,
			"-0.004": 8.92992139596,
			"-0.003": 26.2600322337,
			"-0.002": 66.4103442322,
			"-0.001": 72.7863473292,
			"0.0": 70.6069623759,
			"0.001": 55.5740087122,
			"0.002": 37.8280594127,
			"0.003": 12.7474746919,
			"0.004": 10.7741909631,
			"0.005": 9.59774001757,
			"0.006": 4.83485174846,
			"0.007": 3.22648076198,
			"0.008": 2.93452049885,
			"0.009": 2.45662109089,
			"0.01": 0.663086098195,
			"0.011": 1.23031768793,
			"0.012": 1.57244662316,
			"0.013": 2.26676980534,
			"0.014": 6.49651922194,
			"0.015": 3.53495499083,
			"0.016": 0.0686701522138,
			"0.017": 0.0,
			"0.018": 0.0,
			"0.019": 0.0,
			"0.02": 0.0,
			"0.021": 0.0,
			"0.022": 0.0,
			"0.023": 0.0,
			"0.024": 0.0,
			"0.025": 0.0
		}
	}
}
