{
	 "smiles": "SC1=NN=NN1CC1=CC=CC=C1", 
	 "Tm": 555.15, 
	 "num_atms": 21, 
	 "gaussian": { 
		 "optdone": 1, 
		 "sigma_profile": "yes", 
		 "theory": "DFT", 
		 "functional": "B3LYP", 
		 "basiset": "6-31G**", 
		 "properties": { 
			 "R2extent": 3439.3388, 
			 "electric_dipole_moment_norm": 5.09662589857, 
			 "electric_quadrupole_moment_norm": 16.1844241578, 
			 "total_energy": -926.803249659, 
			 "HOMO_LUMO_gap": 0.23153, 
			 "cosmo_polarized_energy": -14.26, 
			 "cosmo_cavitation_energy": 27.59, 
			 "cosmo_dispersion_energy": -19.95, 
			 "cosmo_repulsion_energy": 1.53, 
			 "cosmo_total_nonelectrostatic_energy": 9.17, 
			 "SMD_solvation_energy": 2.31 
		},
		"coords": [
			{
				"x": 1.2433695727,
				"y": -3.0301574942,
				"z": 2.2359333881,
				"element": "S" 
			},
			{
				"x": 2.0336593332,
				"y": -1.5903534834,
				"z": 1.6087002009,
				"element": "C" 
			},
			{
				"x": 3.0171900248,
				"y": -0.9131028387,
				"z": 2.1783871298,
				"element": "N" 
			},
			{
				"x": 3.2935977137,
				"y": 0.1113573738,
				"z": 1.327495568,
				"element": "N" 
			},
			{
				"x": 2.5298946399,
				"y": 0.0814191459,
				"z": 0.2883128317,
				"element": "N" 
			},
			{
				"x": 1.7172760382,
				"y": -1.001702983,
				"z": 0.434179388,
				"element": "N" 
			},
			{
				"x": 0.7034214061,
				"y": -1.3290954852,
				"z": -0.5683527452,
				"element": "C" 
			},
			{
				"x": -0.6998303546,
				"y": -0.9210597038,
				"z": -0.1621686594,
				"element": "C" 
			},
			{
				"x": -1.7359560577,
				"y": -1.8597385055,
				"z": -0.1641093207,
				"element": "C" 
			},
			{
				"x": -3.0351356113,
				"y": -1.4790418895,
				"z": 0.1803238141,
				"element": "C" 
			},
			{
				"x": -3.3031232875,
				"y": -0.1572961182,
				"z": 0.5351247577,
				"element": "C" 
			},
			{
				"x": -2.2698335969,
				"y": 0.7842754824,
				"z": 0.5427240988,
				"element": "C" 
			},
			{
				"x": -0.9747726917,
				"y": 0.4063108532,
				"z": 0.1937126146,
				"element": "C" 
			},
			{
				"x": 2.1632169105,
				"y": -3.202423532,
				"z": 3.2044412663,
				"element": "H" 
			},
			{
				"x": 0.7539090687,
				"y": -2.4046625995,
				"z": -0.7633269691,
				"element": "H" 
			},
			{
				"x": 1.0246700841,
				"y": -0.8077081912,
				"z": -1.473947403,
				"element": "H" 
			},
			{
				"x": -1.5288964555,
				"y": -2.8917069414,
				"z": -0.4370403612,
				"element": "H" 
			},
			{
				"x": -3.8325201548,
				"y": -2.2163034032,
				"z": 0.1761622674,
				"element": "H" 
			},
			{
				"x": -4.3117765739,
				"y": 0.1398773661,
				"z": 0.8067622804,
				"element": "H" 
			},
			{
				"x": -2.4742177012,
				"y": 1.8144017365,
				"z": 0.8192865018,
				"element": "H" 
			},
			{
				"x": -0.1709423067,
				"y": 1.1376112108,
				"z": 0.2012993511,
				"element": "H" 
			}
		],
		 "valence_orbital": [ 
			{
				"type": "occ",
				"energy": -0.29746,
				"method": "rhf"
			},
			{
				"type": "occ",
				"energy": -0.28503,
				"method": "rhf"
			},
			{
				"type": "occ",
				"energy": -0.26558,
				"method": "rhf"
			},
			{
				"type": "occ",
				"energy": -0.26272,
				"method": "rhf"
			},
			{
				"type": "occ",
				"energy": -0.25865,
				"method": "rhf"
			},
			{
				"type": "unocc",
				"energy": -0.02712,
				"method": "rhf"
			},
			{
				"type": "unocc",
				"energy": -0.01956,
				"method": "rhf"
			},
			{
				"type": "unocc",
				"energy": -0.01019,
				"method": "rhf"
			},
			{
				"type": "unocc",
				"energy": -0.00227,
				"method": "rhf"
			},
			{
				"type": "unocc",
				"energy": 0.02098,
				"method": "rhf"
			}
		],
		"cosmo_sigma_profile": { 
			"-0.025": 0.0,
			"-0.024": 0.0,
			"-0.023": 0.0,
			"-0.022": 0.0,
			"-0.021": 0.0,
			"-0.02": 0.0,
			"-0.019": 0.0,
			"-0.018": 0.0,
			"-0.017": 0.0,
			"-0.016": 0.0,
			"-0.015": 0.0,
			"-0.014": 0.00729723631815,
			"-0.013": 1.27832261417,
			"-0.012": 1.82104143402,
			"-0.011": 1.41861685735,
			"-0.01": 1.27545182808,
			"-0.009": 1.7342062458,
			"-0.008": 6.01200757762,
			"-0.007": 8.52740708388,
			"-0.006": 13.4212801216,
			"-0.005": 16.3394065803,
			"-0.004": 17.9687792588,
			"-0.003": 15.423734827,
			"-0.002": 13.90789788,
			"-0.001": 14.3932754531,
			"0.0": 11.7141812161,
			"0.001": 13.7281563618,
			"0.002": 11.7762603261,
			"0.003": 13.1049680317,
			"0.004": 13.2600991064,
			"0.005": 13.4964740361,
			"0.006": 5.15045318861,
			"0.007": 3.28440114587,
			"0.008": 4.64935210773,
			"0.009": 4.67929493117,
			"0.01": 4.92609776045,
			"0.011": 3.87795742735,
			"0.012": 3.11921150791,
			"0.013": 1.90674434409,
			"0.014": 1.5359021704,
			"0.015": 0.238914187276,
			"0.016": 0.0,
			"0.017": 0.0,
			"0.018": 0.0,
			"0.019": 0.0,
			"0.02": 0.0,
			"0.021": 0.0,
			"0.022": 0.0,
			"0.023": 0.0,
			"0.024": 0.0,
			"0.025": 0.0
		}
	}
}
