{
	 "smiles": "OC(=O)C1=CSC(CC2=C(F)C=CC=C2)=N1", 
	 "Tm": 428.15, 
	 "num_atms": 24, 
	 "gaussian": { 
		 "optdone": 1, 
		 "sigma_profile": "yes", 
		 "theory": "DFT", 
		 "functional": "B3LYP", 
		 "basiset": "6-31G**", 
		 "properties": { 
			 "R2extent": 4899.3559, 
			 "electric_dipole_moment_norm": 7.01809073823, 
			 "electric_quadrupole_moment_norm": 16.1689687312, 
			 "total_energy": -1127.22393524, 
			 "HOMO_LUMO_gap": 0.20124, 
			 "cosmo_polarized_energy": -13.58, 
			 "cosmo_cavitation_energy": 31.46, 
			 "cosmo_dispersion_energy": -22.7, 
			 "cosmo_repulsion_energy": 1.72, 
			 "cosmo_total_nonelectrostatic_energy": 10.47, 
			 "SMD_solvation_energy": 5.66 
		},
		"coords": [
			{
				"x": -3.3495281758,
				"y": -1.8424191759,
				"z": 2.5505053342,
				"element": "O" 
			},
			{
				"x": -2.6994236589,
				"y": -0.7221570227,
				"z": 2.9268720299,
				"element": "C" 
			},
			{
				"x": -2.9289560181,
				"y": -0.151979329,
				"z": 3.9684232868,
				"element": "O" 
			},
			{
				"x": -1.6809759438,
				"y": -0.2609505302,
				"z": 1.9394043281,
				"element": "C" 
			},
			{
				"x": -0.8808972045,
				"y": 0.8358780224,
				"z": 2.0900107487,
				"element": "C" 
			},
			{
				"x": 0.1578746721,
				"y": 0.9906763244,
				"z": 0.7209995875,
				"element": "S" 
			},
			{
				"x": -0.5750235653,
				"y": -0.4556480923,
				"z": 0.0252062313,
				"element": "C" 
			},
			{
				"x": -0.1909883868,
				"y": -0.9793360462,
				"z": -1.3364507778,
				"element": "C" 
			},
			{
				"x": 1.2661498603,
				"y": -0.7992287285,
				"z": -1.6999503227,
				"element": "C" 
			},
			{
				"x": 2.2531698032,
				"y": -1.534946025,
				"z": -1.0375850016,
				"element": "C" 
			},
			{
				"x": 1.8623857986,
				"y": -2.3905892041,
				"z": -0.0668937345,
				"element": "F" 
			},
			{
				"x": 3.6041143184,
				"y": -1.4243206735,
				"z": -1.3340818207,
				"element": "C" 
			},
			{
				"x": 3.9977086624,
				"y": -0.5366158865,
				"z": -2.337868363,
				"element": "C" 
			},
			{
				"x": 3.0423149449,
				"y": 0.2164838102,
				"z": -3.021665485,
				"element": "C" 
			},
			{
				"x": 1.6893831352,
				"y": 0.0813897415,
				"z": -2.7021337073,
				"element": "C" 
			},
			{
				"x": -1.5000275495,
				"y": -0.980066466,
				"z": 0.7750385181,
				"element": "N" 
			},
			{
				"x": -2.9914486412,
				"y": -2.1125634662,
				"z": 1.6839909056,
				"element": "H" 
			},
			{
				"x": -0.8562061625,
				"y": 1.5198475871,
				"z": 2.9255837066,
				"element": "H" 
			},
			{
				"x": -0.8119961231,
				"y": -0.4811483844,
				"z": -2.0909222959,
				"element": "H" 
			},
			{
				"x": -0.46747161,
				"y": -2.0384056291,
				"z": -1.3463436473,
				"element": "H" 
			},
			{
				"x": 4.319966002,
				"y": -2.0254644373,
				"z": -0.7841760369,
				"element": "H" 
			},
			{
				"x": 5.0507748326,
				"y": -0.4374655845,
				"z": -2.5825143164,
				"element": "H" 
			},
			{
				"x": 3.3469724328,
				"y": 0.9053617235,
				"z": -3.8030341963,
				"element": "H" 
			},
			{
				"x": 0.9448285768,
				"y": 0.6634674724,
				"z": -3.2390149716,
				"element": "H" 
			}
		],
		 "valence_orbital": [ 
			{
				"type": "occ",
				"energy": -0.30526,
				"method": "rhf"
			},
			{
				"type": "occ",
				"energy": -0.27378,
				"method": "rhf"
			},
			{
				"type": "occ",
				"energy": -0.26762,
				"method": "rhf"
			},
			{
				"type": "occ",
				"energy": -0.2638,
				"method": "rhf"
			},
			{
				"type": "occ",
				"energy": -0.25504,
				"method": "rhf"
			},
			{
				"type": "unocc",
				"energy": -0.0538,
				"method": "rhf"
			},
			{
				"type": "unocc",
				"energy": -0.02985,
				"method": "rhf"
			},
			{
				"type": "unocc",
				"energy": -0.01993,
				"method": "rhf"
			},
			{
				"type": "unocc",
				"energy": -0.01231,
				"method": "rhf"
			},
			{
				"type": "unocc",
				"energy": 0.00796,
				"method": "rhf"
			}
		],
		"cosmo_sigma_profile": { 
			"-0.025": 0.0,
			"-0.024": 0.0,
			"-0.023": 0.0,
			"-0.022": 0.0,
			"-0.021": 0.0,
			"-0.02": 0.0,
			"-0.019": 0.0,
			"-0.018": 0.0,
			"-0.017": 0.0,
			"-0.016": 0.0,
			"-0.015": 0.0,
			"-0.014": 0.397995964562,
			"-0.013": 0.426953352842,
			"-0.012": 0.436696462662,
			"-0.011": 0.996984904727,
			"-0.01": 2.14728288561,
			"-0.009": 2.52135416811,
			"-0.008": 3.42628166435,
			"-0.007": 10.5576423911,
			"-0.006": 14.4109147241,
			"-0.005": 16.1830668707,
			"-0.004": 17.7116560752,
			"-0.003": 13.4405527127,
			"-0.002": 15.8072023884,
			"-0.001": 17.8597348292,
			"0.0": 26.9675528595,
			"0.001": 23.1464741916,
			"0.002": 16.5691935268,
			"0.003": 15.1370933115,
			"0.004": 20.1767372408,
			"0.005": 7.46069136374,
			"0.006": 3.34508228447,
			"0.007": 3.0405784767,
			"0.008": 2.50674009817,
			"0.009": 3.34249999906,
			"0.01": 5.77018157605,
			"0.011": 4.40463232854,
			"0.012": 5.18885748121,
			"0.013": 1.46213470384,
			"0.014": 0.0710371907435,
			"0.015": 0.0,
			"0.016": 0.0,
			"0.017": 0.0,
			"0.018": 0.0,
			"0.019": 0.0,
			"0.02": 0.0,
			"0.021": 0.0,
			"0.022": 0.0,
			"0.023": 0.0,
			"0.024": 0.0,
			"0.025": 0.0
		}
	}
}
