{
	 "smiles": "NNC(=O)C1=NC2=C(C=CC=C2)C=C1", 
	 "Tm": 407.15, 
	 "num_atms": 23, 
	 "gaussian": { 
		 "optdone": 1, 
		 "sigma_profile": "yes", 
		 "theory": "DFT", 
		 "functional": "B3LYP", 
		 "basiset": "6-31G**", 
		 "properties": { 
			 "R2extent": 3441.3061, 
			 "electric_dipole_moment_norm": 3.20889081615, 
			 "electric_quadrupole_moment_norm": 5.64324751539, 
			 "total_energy": -625.963479671, 
			 "HOMO_LUMO_gap": 0.17096, 
			 "cosmo_polarized_energy": -12.08, 
			 "cosmo_cavitation_energy": 27.69, 
			 "cosmo_dispersion_energy": -20.6, 
			 "cosmo_repulsion_energy": 1.61, 
			 "cosmo_total_nonelectrostatic_energy": 8.7, 
			 "SMD_solvation_energy": 4.62 
		},
		"coords": [
			{
				"x": 0.1465129108,
				"y": -1.295973184,
				"z": 4.4987777455,
				"element": "N" 
			},
			{
				"x": 0.2542037478,
				"y": -0.7597412678,
				"z": 3.204573846,
				"element": "N" 
			},
			{
				"x": -0.405465971,
				"y": 0.3635689498,
				"z": 2.8255663923,
				"element": "C" 
			},
			{
				"x": -1.140824888,
				"y": 1.0023586055,
				"z": 3.5763004473,
				"element": "O" 
			},
			{
				"x": -0.1654636416,
				"y": 0.7756433157,
				"z": 1.3920765393,
				"element": "C" 
			},
			{
				"x": 0.6391150163,
				"y": 0.0245097273,
				"z": 0.6597350655,
				"element": "N" 
			},
			{
				"x": 0.8617935847,
				"y": 0.3876457508,
				"z": -0.6346757225,
				"element": "C" 
			},
			{
				"x": 0.2534378031,
				"y": 1.5484368453,
				"z": -1.2141531968,
				"element": "C" 
			},
			{
				"x": 0.5294456968,
				"y": 1.8681123986,
				"z": -2.5693056257,
				"element": "C" 
			},
			{
				"x": 1.3700445797,
				"y": 1.0736783155,
				"z": -3.3164134016,
				"element": "C" 
			},
			{
				"x": 1.9715580317,
				"y": -0.0748453567,
				"z": -2.7420190606,
				"element": "C" 
			},
			{
				"x": 1.7244717419,
				"y": -0.412290862,
				"z": -1.4307639928,
				"element": "C" 
			},
			{
				"x": -0.6021298204,
				"y": 2.3222120456,
				"z": -0.3876467246,
				"element": "C" 
			},
			{
				"x": -0.8154723118,
				"y": 1.9416464289,
				"z": 0.9145759732,
				"element": "C" 
			},
			{
				"x": -0.8454442944,
				"y": -1.448659863,
				"z": 4.6833434456,
				"element": "H" 
			},
			{
				"x": 0.4281072713,
				"y": -0.5671959962,
				"z": 5.1552297161,
				"element": "H" 
			},
			{
				"x": 0.8399373865,
				"y": -1.2438157506,
				"z": 2.5390240072,
				"element": "H" 
			},
			{
				"x": 0.0664681689,
				"y": 2.7492436593,
				"z": -3.0059770377,
				"element": "H" 
			},
			{
				"x": 1.5766105735,
				"y": 1.3243981814,
				"z": -4.3526474149,
				"element": "H" 
			},
			{
				"x": 2.6319698513,
				"y": -0.6900872986,
				"z": -3.3459935308,
				"element": "H" 
			},
			{
				"x": 2.1732328448,
				"y": -1.2861597944,
				"z": -0.9697255416,
				"element": "H" 
			},
			{
				"x": -1.0794737058,
				"y": 3.2091605633,
				"z": -0.7967917206,
				"element": "H" 
			},
			{
				"x": -1.456834576,
				"y": 2.4901545862,
				"z": 1.5939097922,
				"element": "H" 
			}
		],
		 "valence_orbital": [ 
			{
				"type": "occ",
				"energy": -0.27275,
				"method": "rhf"
			},
			{
				"type": "occ",
				"energy": -0.25859,
				"method": "rhf"
			},
			{
				"type": "occ",
				"energy": -0.25672,
				"method": "rhf"
			},
			{
				"type": "occ",
				"energy": -0.24678,
				"method": "rhf"
			},
			{
				"type": "occ",
				"energy": -0.24072,
				"method": "rhf"
			},
			{
				"type": "unocc",
				"energy": -0.06976,
				"method": "rhf"
			},
			{
				"type": "unocc",
				"energy": -0.03433,
				"method": "rhf"
			},
			{
				"type": "unocc",
				"energy": 0.00757,
				"method": "rhf"
			},
			{
				"type": "unocc",
				"energy": 0.04268,
				"method": "rhf"
			},
			{
				"type": "unocc",
				"energy": 0.08963,
				"method": "rhf"
			}
		],
		"cosmo_sigma_profile": { 
			"-0.025": 0.0,
			"-0.024": 0.0,
			"-0.023": 0.0,
			"-0.022": 0.0,
			"-0.021": 0.0,
			"-0.02": 0.0,
			"-0.019": 0.0,
			"-0.018": 0.0,
			"-0.017": 0.0,
			"-0.016": 0.0,
			"-0.015": 0.0,
			"-0.014": 0.0,
			"-0.013": 0.0,
			"-0.012": 0.619868587523,
			"-0.011": 2.73584930252,
			"-0.01": 3.37966249079,
			"-0.009": 3.10786656094,
			"-0.008": 3.4300767763,
			"-0.007": 8.97189911049,
			"-0.006": 13.2017368882,
			"-0.005": 14.534950192,
			"-0.004": 12.8843540082,
			"-0.003": 10.7622934317,
			"-0.002": 12.9550388091,
			"-0.001": 12.6397424354,
			"0.0": 18.3257877418,
			"0.001": 24.8784721211,
			"0.002": 19.972053765,
			"0.003": 15.8330870419,
			"0.004": 11.4390290586,
			"0.005": 4.68557089676,
			"0.006": 3.4842371346,
			"0.007": 3.77747427281,
			"0.008": 2.09612750257,
			"0.009": 1.77852167943,
			"0.01": 1.90833005625,
			"0.011": 1.93068003958,
			"0.012": 2.45434873973,
			"0.013": 6.07703861298,
			"0.014": 2.422048459,
			"0.015": 0.653887729376,
			"0.016": 0.421556335136,
			"0.017": 0.208666090187,
			"0.018": 0.0,
			"0.019": 0.0,
			"0.02": 0.0,
			"0.021": 0.0,
			"0.022": 0.0,
			"0.023": 0.0,
			"0.024": 0.0,
			"0.025": 0.0
		}
	}
}
