{
	 "smiles": "COC(=O)C1=CC(Cl)=CC=C1O", 
	 "Tm": 321.15, 
	 "num_atms": 19, 
	 "gaussian": { 
		 "optdone": 1, 
		 "sigma_profile": "yes", 
		 "theory": "DFT", 
		 "functional": "B3LYP", 
		 "basiset": "6-31G**", 
		 "properties": { 
			 "R2extent": 2922.186, 
			 "electric_dipole_moment_norm": 1.91371430992, 
			 "electric_quadrupole_moment_norm": 13.4059809723, 
			 "total_energy": -994.95326018, 
			 "HOMO_LUMO_gap": 0.16801, 
			 "cosmo_polarized_energy": -6.86, 
			 "cosmo_cavitation_energy": 25.28, 
			 "cosmo_dispersion_energy": -19.14, 
			 "cosmo_repulsion_energy": 1.52, 
			 "cosmo_total_nonelectrostatic_energy": 7.66, 
			 "SMD_solvation_energy": 5.91 
		},
		"coords": [
			{
				"x": 2.3428666223,
				"y": -1.5504703989,
				"z": 2.8474308454,
				"element": "C" 
			},
			{
				"x": 1.2695911115,
				"y": -0.7734058289,
				"z": 2.2856868592,
				"element": "O" 
			},
			{
				"x": 1.276430946,
				"y": -0.6449965367,
				"z": 0.9509858299,
				"element": "C" 
			},
			{
				"x": 2.1486347729,
				"y": -1.1609556961,
				"z": 0.2484379552,
				"element": "O" 
			},
			{
				"x": 0.1641696731,
				"y": 0.1556871173,
				"z": 0.4153241283,
				"element": "C" 
			},
			{
				"x": -0.8079895035,
				"y": 0.7245892619,
				"z": 1.2595158868,
				"element": "C" 
			},
			{
				"x": -1.839097082,
				"y": 1.4714664881,
				"z": 0.718317076,
				"element": "C" 
			},
			{
				"x": -3.0541165184,
				"y": 2.1826195513,
				"z": 1.7727773026,
				"element": "Cl" 
			},
			{
				"x": -1.9277378047,
				"y": 1.6694097844,
				"z": -0.6674659821,
				"element": "C" 
			},
			{
				"x": -0.9765949472,
				"y": 1.1142855541,
				"z": -1.508628099,
				"element": "C" 
			},
			{
				"x": 0.0824897673,
				"y": 0.350629903,
				"z": -0.9875994581,
				"element": "C" 
			},
			{
				"x": 0.973359818,
				"y": -0.1620124339,
				"z": -1.848105476,
				"element": "O" 
			},
			{
				"x": 3.3082876254,
				"y": -1.1000223435,
				"z": 2.6059732255,
				"element": "H" 
			},
			{
				"x": 2.3193126962,
				"y": -2.5715315239,
				"z": 2.4599678551,
				"element": "H" 
			},
			{
				"x": 2.1728996508,
				"y": -1.5430151144,
				"z": 3.9234172495,
				"element": "H" 
			},
			{
				"x": -0.7385824295,
				"y": 0.5711585625,
				"z": 2.3290484434,
				"element": "H" 
			},
			{
				"x": -2.7425009235,
				"y": 2.2576676782,
				"z": -1.0757740083,
				"element": "H" 
			},
			{
				"x": -1.0274011192,
				"y": 1.2556685996,
				"z": -2.5826559976,
				"element": "H" 
			},
			{
				"x": 1.6369776446,
				"y": -0.661172624,
				"z": -1.313453636,
				"element": "H" 
			}
		],
		 "valence_orbital": [ 
			{
				"type": "occ",
				"energy": -0.31584,
				"method": "rhf"
			},
			{
				"type": "occ",
				"energy": -0.31399,
				"method": "rhf"
			},
			{
				"type": "occ",
				"energy": -0.29588,
				"method": "rhf"
			},
			{
				"type": "occ",
				"energy": -0.27532,
				"method": "rhf"
			},
			{
				"type": "occ",
				"energy": -0.22842,
				"method": "rhf"
			},
			{
				"type": "unocc",
				"energy": -0.06041,
				"method": "rhf"
			},
			{
				"type": "unocc",
				"energy": -0.00698,
				"method": "rhf"
			},
			{
				"type": "unocc",
				"energy": 0.02761,
				"method": "rhf"
			},
			{
				"type": "unocc",
				"energy": 0.03998,
				"method": "rhf"
			},
			{
				"type": "unocc",
				"energy": 0.09895,
				"method": "rhf"
			}
		],
		"cosmo_sigma_profile": { 
			"-0.025": 0.0,
			"-0.024": 0.0,
			"-0.023": 0.0,
			"-0.022": 0.0,
			"-0.021": 0.0,
			"-0.02": 0.0,
			"-0.019": 0.0,
			"-0.018": 0.0,
			"-0.017": 0.0,
			"-0.016": 0.0,
			"-0.015": 0.0,
			"-0.014": 0.0,
			"-0.013": 0.0,
			"-0.012": 0.0,
			"-0.011": 0.0,
			"-0.01": 0.0,
			"-0.009": 0.0232224744847,
			"-0.008": 1.85969446718,
			"-0.007": 7.03296613866,
			"-0.006": 11.1441545937,
			"-0.005": 12.5821763287,
			"-0.004": 17.4446281794,
			"-0.003": 16.7441264676,
			"-0.002": 12.2200842448,
			"-0.001": 13.5239386979,
			"0.0": 16.2279142799,
			"0.001": 21.48388884,
			"0.002": 21.8956872803,
			"0.003": 12.1526719107,
			"0.004": 13.21267202,
			"0.005": 9.88540752113,
			"0.006": 3.91334642579,
			"0.007": 2.15709391134,
			"0.008": 2.88844838383,
			"0.009": 2.70137007284,
			"0.01": 3.84746536802,
			"0.011": 1.98628947876,
			"0.012": 0.0,
			"0.013": 0.0,
			"0.014": 0.0,
			"0.015": 0.0,
			"0.016": 0.0,
			"0.017": 0.0,
			"0.018": 0.0,
			"0.019": 0.0,
			"0.02": 0.0,
			"0.021": 0.0,
			"0.022": 0.0,
			"0.023": 0.0,
			"0.024": 0.0,
			"0.025": 0.0
		}
	}
}
