{
	 "smiles": "COC(=O)CC1=CC(=O)N(N1)C(C)(C)C", 
	 "Tm": 384.15, 
	 "num_atms": 31, 
	 "gaussian": { 
		 "optdone": 1, 
		 "sigma_profile": "yes", 
		 "theory": "DFT", 
		 "functional": "B3LYP", 
		 "basiset": "6-31G**", 
		 "properties": { 
			 "R2extent": 4690.5912, 
			 "electric_dipole_moment_norm": 5.35489081401, 
			 "electric_quadrupole_moment_norm": 16.5995295801, 
			 "total_energy": -725.87582877, 
			 "HOMO_LUMO_gap": 0.19049, 
			 "cosmo_polarized_energy": -17.1, 
			 "cosmo_cavitation_energy": 33.55, 
			 "cosmo_dispersion_energy": -23.05, 
			 "cosmo_repulsion_energy": 1.82, 
			 "cosmo_total_nonelectrostatic_energy": 12.32, 
			 "SMD_solvation_energy": 7.67 
		},
		"coords": [
			{
				"x": -2.169373655,
				"y": 1.1929771735,
				"z": 3.7858665537,
				"element": "C" 
			},
			{
				"x": -0.9863959952,
				"y": 0.6526919389,
				"z": 3.1628175311,
				"element": "O" 
			},
			{
				"x": -0.17262044,
				"y": -0.0584612888,
				"z": 3.9830071332,
				"element": "C" 
			},
			{
				"x": -0.3913366669,
				"y": -0.2253961347,
				"z": 5.158782623,
				"element": "O" 
			},
			{
				"x": 1.0546238263,
				"y": -0.5728286048,
				"z": 3.2372590947,
				"element": "C" 
			},
			{
				"x": 0.7542822573,
				"y": -1.3075211791,
				"z": 1.9629587256,
				"element": "C" 
			},
			{
				"x": 0.8525392014,
				"y": -2.6279663585,
				"z": 1.6771343337,
				"element": "C" 
			},
			{
				"x": 0.3943363348,
				"y": -2.8276986213,
				"z": 0.3038337656,
				"element": "C" 
			},
			{
				"x": 0.4118894206,
				"y": -3.8391786718,
				"z": -0.3935153718,
				"element": "O" 
			},
			{
				"x": -0.0745444097,
				"y": -1.5609982061,
				"z": -0.1141549707,
				"element": "N" 
			},
			{
				"x": 0.3167158333,
				"y": -0.602482235,
				"z": 0.8497957387,
				"element": "N" 
			},
			{
				"x": -0.1115810116,
				"y": -1.1316865392,
				"z": -1.5434241248,
				"element": "C" 
			},
			{
				"x": 1.2970941419,
				"y": -1.2389316348,
				"z": -2.1560721791,
				"element": "C" 
			},
			{
				"x": -0.6148416982,
				"y": 0.3194371046,
				"z": -1.6118876787,
				"element": "C" 
			},
			{
				"x": -1.1062102594,
				"y": -2.0441604356,
				"z": -2.2834505678,
				"element": "C" 
			},
			{
				"x": -2.6982433181,
				"y": 1.7285913288,
				"z": 2.9982213541,
				"element": "H" 
			},
			{
				"x": -1.8947976917,
				"y": 1.8712726027,
				"z": 4.5965605373,
				"element": "H" 
			},
			{
				"x": -2.788457434,
				"y": 0.3882793063,
				"z": 4.1882573702,
				"element": "H" 
			},
			{
				"x": 1.5942030273,
				"y": -1.2244855165,
				"z": 3.9246213969,
				"element": "H" 
			},
			{
				"x": 1.69122788,
				"y": 0.2948616975,
				"z": 3.0193157253,
				"element": "H" 
			},
			{
				"x": 1.2473087731,
				"y": -3.4136545203,
				"z": 2.3035142329,
				"element": "H" 
			},
			{
				"x": -0.41040914,
				"y": 0.0818646942,
				"z": 1.0458998637,
				"element": "H" 
			},
			{
				"x": 1.6492412373,
				"y": -2.2723578966,
				"z": -2.1150412606,
				"element": "H" 
			},
			{
				"x": 1.2848851139,
				"y": -0.9175960485,
				"z": -3.2028128637,
				"element": "H" 
			},
			{
				"x": 2.0018417352,
				"y": -0.6029689326,
				"z": -1.6103375272,
				"element": "H" 
			},
			{
				"x": 0.0839710652,
				"y": 1.019155276,
				"z": -1.1449204654,
				"element": "H" 
			},
			{
				"x": -0.7258157799,
				"y": 0.6088143622,
				"z": -2.6606731374,
				"element": "H" 
			},
			{
				"x": -1.5963102157,
				"y": 0.4225674351,
				"z": -1.1349386591,
				"element": "H" 
			},
			{
				"x": -0.7935447338,
				"y": -3.085866127,
				"z": -2.2197379568,
				"element": "H" 
			},
			{
				"x": -1.1607392666,
				"y": -1.7438652051,
				"z": -3.3350364145,
				"element": "H" 
			},
			{
				"x": -2.1059381318,
				"y": -1.9532087638,
				"z": -1.846742802,
				"element": "H" 
			}
		],
		 "valence_orbital": [ 
			{
				"type": "occ",
				"energy": -0.32421,
				"method": "rhf"
			},
			{
				"type": "occ",
				"energy": -0.29765,
				"method": "rhf"
			},
			{
				"type": "occ",
				"energy": -0.2593,
				"method": "rhf"
			},
			{
				"type": "occ",
				"energy": -0.23172,
				"method": "rhf"
			},
			{
				"type": "occ",
				"energy": -0.21097,
				"method": "rhf"
			},
			{
				"type": "unocc",
				"energy": -0.02048,
				"method": "rhf"
			},
			{
				"type": "unocc",
				"energy": 0.00128,
				"method": "rhf"
			},
			{
				"type": "unocc",
				"energy": 0.06757,
				"method": "rhf"
			},
			{
				"type": "unocc",
				"energy": 0.08802,
				"method": "rhf"
			},
			{
				"type": "unocc",
				"energy": 0.09007,
				"method": "rhf"
			}
		],
		"cosmo_sigma_profile": { 
			"-0.025": 0.0,
			"-0.024": 0.0,
			"-0.023": 0.0,
			"-0.022": 0.0,
			"-0.021": 0.0,
			"-0.02": 0.0,
			"-0.019": 0.0,
			"-0.018": 0.0,
			"-0.017": 0.0,
			"-0.016": 0.0,
			"-0.015": 0.0,
			"-0.014": 0.0,
			"-0.013": 0.0,
			"-0.012": 0.0,
			"-0.011": 0.0,
			"-0.01": 0.389760495634,
			"-0.009": 2.05842942004,
			"-0.008": 4.44086894887,
			"-0.007": 8.21550732053,
			"-0.006": 15.442895699,
			"-0.005": 14.3805768399,
			"-0.004": 25.2606935423,
			"-0.003": 29.2986729991,
			"-0.002": 22.009731011,
			"-0.001": 20.9959791329,
			"0.0": 25.3558184192,
			"0.001": 22.4306723036,
			"0.002": 11.7690281715,
			"0.003": 9.53098412046,
			"0.004": 7.82141109747,
			"0.005": 5.26236322963,
			"0.006": 4.73307721562,
			"0.007": 3.40558778065,
			"0.008": 3.17665508139,
			"0.009": 3.58754390517,
			"0.01": 4.42611350341,
			"0.011": 5.42776931786,
			"0.012": 3.33805103643,
			"0.013": 2.26232401346,
			"0.014": 3.38820668632,
			"0.015": 3.49400035413,
			"0.016": 1.08892616625,
			"0.017": 0.0,
			"0.018": 0.0,
			"0.019": 0.0,
			"0.02": 0.0,
			"0.021": 0.0,
			"0.022": 0.0,
			"0.023": 0.0,
			"0.024": 0.0,
			"0.025": 0.0
		}
	}
}
