{
	 "smiles": "ClCC(=O)N1CCN(CC1)S(=O)(=O)C1=CC2=C(CCC2)C=C1", 
	 "Tm": 394.15, 
	 "num_atms": 41, 
	 "gaussian": { 
		 "optdone": 1, 
		 "sigma_profile": "yes", 
		 "theory": "DFT", 
		 "functional": "B3LYP", 
		 "basiset": "6-31G**", 
		 "properties": { 
			 "R2extent": 10627.1803, 
			 "electric_dipole_moment_norm": 4.67554036449, 
			 "electric_quadrupole_moment_norm": 37.1700003335, 
			 "total_energy": -1776.55010029, 
			 "HOMO_LUMO_gap": 0.20971, 
			 "cosmo_polarized_energy": -24.53, 
			 "cosmo_cavitation_energy": 45.03, 
			 "cosmo_dispersion_energy": -32.48, 
			 "cosmo_repulsion_energy": 2.47, 
			 "cosmo_total_nonelectrostatic_energy": 15.02, 
			 "SMD_solvation_energy": 4.5 
		},
		"coords": [
			{
				"x": -2.2306244875,
				"y": -1.6810419625,
				"z": -5.6085275465,
				"element": "Cl" 
			},
			{
				"x": -0.8567462623,
				"y": -0.9772998641,
				"z": -4.7043983144,
				"element": "C" 
			},
			{
				"x": -1.3002623813,
				"y": 0.1568874619,
				"z": -3.7604557844,
				"element": "C" 
			},
			{
				"x": -2.4647375073,
				"y": 0.5066319148,
				"z": -3.6667998114,
				"element": "O" 
			},
			{
				"x": -0.2891428258,
				"y": 0.7428874994,
				"z": -3.0332086419,
				"element": "N" 
			},
			{
				"x": 1.1328151108,
				"y": 0.4144641764,
				"z": -3.0782003135,
				"element": "C" 
			},
			{
				"x": 1.6599553282,
				"y": 0.1177807448,
				"z": -1.6682449657,
				"element": "C" 
			},
			{
				"x": 1.3470262628,
				"y": 1.2556328538,
				"z": -0.7963072015,
				"element": "N" 
			},
			{
				"x": -0.0901894746,
				"y": 1.564344467,
				"z": -0.7224681688,
				"element": "C" 
			},
			{
				"x": -0.6086896321,
				"y": 1.8513927711,
				"z": -2.1328367515,
				"element": "C" 
			},
			{
				"x": 2.2351132261,
				"y": 1.377647521,
				"z": 0.6460698131,
				"element": "S" 
			},
			{
				"x": 1.81802308,
				"y": 2.6395624872,
				"z": 1.260001626,
				"element": "O" 
			},
			{
				"x": 3.6262374325,
				"y": 1.1074641133,
				"z": 0.275606943,
				"element": "O" 
			},
			{
				"x": 1.6794118965,
				"y": 0.041468115,
				"z": 1.7081824027,
				"element": "C" 
			},
			{
				"x": 0.5938972687,
				"y": 0.2593694152,
				"z": 2.5664813645,
				"element": "C" 
			},
			{
				"x": 0.1593108342,
				"y": -0.7972986664,
				"z": 3.3611275691,
				"element": "C" 
			},
			{
				"x": 0.7957369098,
				"y": -2.0476155323,
				"z": 3.2964678147,
				"element": "C" 
			},
			{
				"x": 0.1334024422,
				"y": -3.0245074456,
				"z": 4.2440326514,
				"element": "C" 
			},
			{
				"x": -0.674918494,
				"y": -2.1033718861,
				"z": 5.1932335582,
				"element": "C" 
			},
			{
				"x": -0.9784681932,
				"y": -0.8317658015,
				"z": 4.3602253666,
				"element": "C" 
			},
			{
				"x": 1.8786196281,
				"y": -2.2503737064,
				"z": 2.4419651043,
				"element": "C" 
			},
			{
				"x": 2.3272110539,
				"y": -1.1970205504,
				"z": 1.6415273427,
				"element": "C" 
			},
			{
				"x": -0.3907858454,
				"y": -1.7905370456,
				"z": -4.143729571,
				"element": "H" 
			},
			{
				"x": -0.1389872515,
				"y": -0.6088290849,
				"z": -5.4407076244,
				"element": "H" 
			},
			{
				"x": 1.692002915,
				"y": 1.262971848,
				"z": -3.4958585115,
				"element": "H" 
			},
			{
				"x": 1.3126914824,
				"y": -0.4520165186,
				"z": -3.7144240261,
				"element": "H" 
			},
			{
				"x": 1.2017248862,
				"y": -0.813481702,
				"z": -1.2955105454,
				"element": "H" 
			},
			{
				"x": 2.7437800649,
				"y": -0.0059527225,
				"z": -1.6985746305,
				"element": "H" 
			},
			{
				"x": -0.6560692233,
				"y": 0.7265324304,
				"z": -0.2843011182,
				"element": "H" 
			},
			{
				"x": -0.2187601801,
				"y": 2.4476210295,
				"z": -0.0948475683,
				"element": "H" 
			},
			{
				"x": -0.1429026374,
				"y": 2.7713078778,
				"z": -2.5101636373,
				"element": "H" 
			},
			{
				"x": -1.6913773211,
				"y": 1.9755832171,
				"z": -2.1305755105,
				"element": "H" 
			},
			{
				"x": 0.138650455,
				"y": 1.242644819,
				"z": 2.6240822949,
				"element": "H" 
			},
			{
				"x": -0.5339853526,
				"y": -3.6942728949,
				"z": 3.6832174497,
				"element": "H" 
			},
			{
				"x": 0.848392448,
				"y": -3.6627605063,
				"z": 4.7731500297,
				"element": "H" 
			},
			{
				"x": -1.5771903133,
				"y": -2.5816715594,
				"z": 5.5830699874,
				"element": "H" 
			},
			{
				"x": -0.0496242931,
				"y": -1.8320001662,
				"z": 6.0507529071,
				"element": "H" 
			},
			{
				"x": -1.0414754294,
				"y": 0.0740162712,
				"z": 4.9715583639,
				"element": "H" 
			},
			{
				"x": -1.9385370195,
				"y": -0.9266697756,
				"z": 3.8336884717,
				"element": "H" 
			},
			{
				"x": 2.3856223406,
				"y": -3.2107874901,
				"z": 2.4056905893,
				"element": "H" 
			},
			{
				"x": 3.1913490589,
				"y": -1.3148361522,
				"z": 0.9972085929,
				"element": "H" 
			}
		],
		 "valence_orbital": [ 
			{
				"type": "occ",
				"energy": -0.2811,
				"method": "rhf"
			},
			{
				"type": "occ",
				"energy": -0.26863,
				"method": "rhf"
			},
			{
				"type": "occ",
				"energy": -0.26605,
				"method": "rhf"
			},
			{
				"type": "occ",
				"energy": -0.25764,
				"method": "rhf"
			},
			{
				"type": "occ",
				"energy": -0.25005,
				"method": "rhf"
			},
			{
				"type": "unocc",
				"energy": -0.04034,
				"method": "rhf"
			},
			{
				"type": "unocc",
				"energy": -0.02569,
				"method": "rhf"
			},
			{
				"type": "unocc",
				"energy": 0.00992,
				"method": "rhf"
			},
			{
				"type": "unocc",
				"energy": 0.01817,
				"method": "rhf"
			},
			{
				"type": "unocc",
				"energy": 0.05553,
				"method": "rhf"
			}
		],
		"cosmo_sigma_profile": { 
			"-0.025": 0.0,
			"-0.024": 0.0,
			"-0.023": 0.0,
			"-0.022": 0.0,
			"-0.021": 0.0,
			"-0.02": 0.0,
			"-0.019": 0.0,
			"-0.018": 0.0,
			"-0.017": 0.0,
			"-0.016": 0.0,
			"-0.015": 0.0,
			"-0.014": 0.0,
			"-0.013": 0.0,
			"-0.012": 0.0,
			"-0.011": 0.0706782454694,
			"-0.01": 2.56919019126,
			"-0.009": 8.29846747201,
			"-0.008": 5.29835056289,
			"-0.007": 6.38997093351,
			"-0.006": 16.3015193171,
			"-0.005": 28.7723871387,
			"-0.004": 37.1556081979,
			"-0.003": 37.0308420282,
			"-0.002": 32.6188631523,
			"-0.001": 26.9732902629,
			"0.0": 23.8179585507,
			"0.001": 14.9496212197,
			"0.002": 15.0317271412,
			"0.003": 16.2898512753,
			"0.004": 12.7276272761,
			"0.005": 10.0430708818,
			"0.006": 12.9857324247,
			"0.007": 7.08265102973,
			"0.008": 5.20859794954,
			"0.009": 4.93450280922,
			"0.01": 8.96173153494,
			"0.011": 9.82827494582,
			"0.012": 6.65416237141,
			"0.013": 4.57801697984,
			"0.014": 2.31961774038,
			"0.015": 0.419872396452,
			"0.016": 0.0,
			"0.017": 0.0,
			"0.018": 0.0,
			"0.019": 0.0,
			"0.02": 0.0,
			"0.021": 0.0,
			"0.022": 0.0,
			"0.023": 0.0,
			"0.024": 0.0,
			"0.025": 0.0
		}
	}
}
