{
	 "smiles": "CCCCCCCCCCCCCCCC(=O)OCC=C(/C)C=CC=C(/C)C=CC1=C(C)CCCC1(C)C", 
	 "Tm": 301.65, 
	 "num_atms": 98, 
	 "gaussian": { 
		 "optdone": 1, 
		 "sigma_profile": "yes", 
		 "theory": "DFT", 
		 "functional": "B3LYP", 
		 "basiset": "6-31G**", 
		 "properties": { 
			 "R2extent": 41709.5349, 
			 "electric_dipole_moment_norm": 1.75000021143, 
			 "electric_quadrupole_moment_norm": 15.0311550355, 
			 "total_energy": -1558.45824878, 
			 "HOMO_LUMO_gap": 0.12992, 
			 "cosmo_polarized_energy": -10.34, 
			 "cosmo_cavitation_energy": 93.43, 
			 "cosmo_dispersion_energy": -56.03, 
			 "cosmo_repulsion_energy": 4.29, 
			 "cosmo_total_nonelectrostatic_energy": 41.69, 
			 "SMD_solvation_energy": 13.84 
		},
		"coords": [
			{
				"x": -2.7727062727,
				"y": 5.2225485118,
				"z": -4.1189425834,
				"element": "C" 
			},
			{
				"x": -1.9383211358,
				"y": 6.2497205129,
				"z": -3.3442815972,
				"element": "C" 
			},
			{
				"x": -0.8367093032,
				"y": 6.9290264803,
				"z": -4.1769785184,
				"element": "C" 
			},
			{
				"x": 0.268365895,
				"y": 6.0044933077,
				"z": -4.71821928,
				"element": "C" 
			},
			{
				"x": 1.1228308709,
				"y": 5.3322962176,
				"z": -3.6322481309,
				"element": "C" 
			},
			{
				"x": 2.362339128,
				"y": 4.5951660162,
				"z": -4.1716974646,
				"element": "C" 
			},
			{
				"x": 2.0865939417,
				"y": 3.3764165648,
				"z": -5.0704047682,
				"element": "C" 
			},
			{
				"x": 1.4442436838,
				"y": 2.1799454212,
				"z": -4.3538816579,
				"element": "C" 
			},
			{
				"x": 1.2269742135,
				"y": 0.9738565776,
				"z": -5.277049141,
				"element": "C" 
			},
			{
				"x": 0.6553125075,
				"y": -0.2602624856,
				"z": -4.5657368435,
				"element": "C" 
			},
			{
				"x": 0.4149157559,
				"y": -1.4372189887,
				"z": -5.5224161861,
				"element": "C" 
			},
			{
				"x": -0.0234190884,
				"y": -2.7494546818,
				"z": -4.8496781216,
				"element": "C" 
			},
			{
				"x": -1.3685640636,
				"y": -2.7548211698,
				"z": -4.0980090422,
				"element": "C" 
			},
			{
				"x": -2.6275727857,
				"y": -2.517344194,
				"z": -4.9608685366,
				"element": "C" 
			},
			{
				"x": -3.0580638404,
				"y": -1.0452201846,
				"z": -5.1057608973,
				"element": "C" 
			},
			{
				"x": -3.5446062645,
				"y": -0.4810909739,
				"z": -3.7834449874,
				"element": "C" 
			},
			{
				"x": -4.3497265318,
				"y": -1.0286596874,
				"z": -3.0577632551,
				"element": "O" 
			},
			{
				"x": -2.974967119,
				"y": 0.7135773618,
				"z": -3.5054877617,
				"element": "O" 
			},
			{
				"x": -3.3949497237,
				"y": 1.3487941435,
				"z": -2.2562853157,
				"element": "C" 
			},
			{
				"x": -2.6840334973,
				"y": 0.7702222257,
				"z": -1.0748487799,
				"element": "C" 
			},
			{
				"x": -1.7258973388,
				"y": 1.35315087,
				"z": -0.3150513221,
				"element": "C" 
			},
			{
				"x": -1.1860981848,
				"y": 2.7436401217,
				"z": -0.554209032,
				"element": "C" 
			},
			{
				"x": -1.186617253,
				"y": 0.5909345627,
				"z": 0.8106145399,
				"element": "C" 
			},
			{
				"x": -0.2122762978,
				"y": 1.0099886642,
				"z": 1.6570273878,
				"element": "C" 
			},
			{
				"x": 0.3690904597,
				"y": 0.2999611101,
				"z": 2.7814799452,
				"element": "C" 
			},
			{
				"x": -0.1699934559,
				"y": -0.6431805847,
				"z": 3.6087180592,
				"element": "C" 
			},
			{
				"x": -1.6081355943,
				"y": -1.0939111017,
				"z": 3.5334099621,
				"element": "C" 
			},
			{
				"x": 0.69254188,
				"y": -1.2158592159,
				"z": 4.6366935501,
				"element": "C" 
			},
			{
				"x": 0.3741649238,
				"y": -2.217868523,
				"z": 5.4885122897,
				"element": "C" 
			},
			{
				"x": 1.2727894372,
				"y": -2.8028121554,
				"z": 6.5036029104,
				"element": "C" 
			},
			{
				"x": 1.9988105848,
				"y": -2.040340442,
				"z": 7.3602895343,
				"element": "C" 
			},
			{
				"x": 1.8763416092,
				"y": -0.5393936228,
				"z": 7.486274478,
				"element": "C" 
			},
			{
				"x": 2.9957491106,
				"y": -2.628010076,
				"z": 8.3389343434,
				"element": "C" 
			},
			{
				"x": 3.3616735553,
				"y": -4.0824097104,
				"z": 8.048986823,
				"element": "C" 
			},
			{
				"x": 2.088612744,
				"y": -4.8724910672,
				"z": 7.7569276773,
				"element": "C" 
			},
			{
				"x": 1.3300427162,
				"y": -4.3498205611,
				"z": 6.5144618522,
				"element": "C" 
			},
			{
				"x": -0.0931387276,
				"y": -4.9564195146,
				"z": 6.5601294311,
				"element": "C" 
			},
			{
				"x": 2.0255123651,
				"y": -4.8421056573,
				"z": 5.2225617553,
				"element": "C" 
			},
			{
				"x": -3.5914556408,
				"y": 4.8343140648,
				"z": -3.5030621001,
				"element": "H" 
			},
			{
				"x": -2.172926504,
				"y": 4.3667882127,
				"z": -4.44662319,
				"element": "H" 
			},
			{
				"x": -3.2204243444,
				"y": 5.6712393766,
				"z": -5.0135284237,
				"element": "H" 
			},
			{
				"x": -2.6058862511,
				"y": 7.0300966868,
				"z": -2.9569659881,
				"element": "H" 
			},
			{
				"x": -1.4956668267,
				"y": 5.77209151,
				"z": -2.4605172227,
				"element": "H" 
			},
			{
				"x": -1.3092229334,
				"y": 7.4449000618,
				"z": -5.0243757396,
				"element": "H" 
			},
			{
				"x": -0.3695575704,
				"y": 7.714393898,
				"z": -3.5668304603,
				"element": "H" 
			},
			{
				"x": 0.928706393,
				"y": 6.6012893808,
				"z": -5.3627533322,
				"element": "H" 
			},
			{
				"x": -0.175169587,
				"y": 5.2433839555,
				"z": -5.3721033212,
				"element": "H" 
			},
			{
				"x": 1.461669477,
				"y": 6.1034741376,
				"z": -2.9262826235,
				"element": "H" 
			},
			{
				"x": 0.5074047855,
				"y": 4.6400413887,
				"z": -3.0439142428,
				"element": "H" 
			},
			{
				"x": 2.9792747288,
				"y": 4.2713728344,
				"z": -3.3220368787,
				"element": "H" 
			},
			{
				"x": 2.9755198614,
				"y": 5.3138826107,
				"z": -4.7326800851,
				"element": "H" 
			},
			{
				"x": 1.4571868998,
				"y": 3.6730487494,
				"z": -5.9202176748,
				"element": "H" 
			},
			{
				"x": 3.0393404305,
				"y": 3.0488054206,
				"z": -5.508347547,
				"element": "H" 
			},
			{
				"x": 0.4800317949,
				"y": 2.4714483105,
				"z": -3.9164378489,
				"element": "H" 
			},
			{
				"x": 2.0830839741,
				"y": 1.881818344,
				"z": -3.5096436647,
				"element": "H" 
			},
			{
				"x": 0.553668991,
				"y": 1.2652248407,
				"z": -6.0963496618,
				"element": "H" 
			},
			{
				"x": 2.1811314553,
				"y": 0.7061528467,
				"z": -5.7537613092,
				"element": "H" 
			},
			{
				"x": -0.2772055946,
				"y": 0.0172382165,
				"z": -4.0581956061,
				"element": "H" 
			},
			{
				"x": 1.3503327478,
				"y": -0.5758524808,
				"z": -3.7740837103,
				"element": "H" 
			},
			{
				"x": 1.3458887713,
				"y": -1.6359744801,
				"z": -6.0714185203,
				"element": "H" 
			},
			{
				"x": -0.3164868582,
				"y": -1.1441636482,
				"z": -6.2879647942,
				"element": "H" 
			},
			{
				"x": 0.7613659127,
				"y": -3.0540888372,
				"z": -4.1434092232,
				"element": "H" 
			},
			{
				"x": -0.0576484894,
				"y": -3.5364981711,
				"z": -5.6159222761,
				"element": "H" 
			},
			{
				"x": -1.4644905648,
				"y": -3.7377402769,
				"z": -3.6208424594,
				"element": "H" 
			},
			{
				"x": -1.3434708943,
				"y": -2.0336689597,
				"z": -3.2708482705,
				"element": "H" 
			},
			{
				"x": -2.4756352009,
				"y": -2.9423243521,
				"z": -5.9610408457,
				"element": "H" 
			},
			{
				"x": -3.4738305863,
				"y": -3.0525955465,
				"z": -4.5181982573,
				"element": "H" 
			},
			{
				"x": -3.9047990454,
				"y": -0.9842693568,
				"z": -5.8014370237,
				"element": "H" 
			},
			{
				"x": -2.2631552701,
				"y": -0.4125201467,
				"z": -5.5034600674,
				"element": "H" 
			},
			{
				"x": -3.1842845803,
				"y": 2.4056090938,
				"z": -2.4140249685,
				"element": "H" 
			},
			{
				"x": -4.4745601933,
				"y": 1.2029798871,
				"z": -2.1575077199,
				"element": "H" 
			},
			{
				"x": -2.9968927642,
				"y": -0.239922409,
				"z": -0.8202285934,
				"element": "H" 
			},
			{
				"x": -1.6416289914,
				"y": 3.2314823124,
				"z": -1.4162988394,
				"element": "H" 
			},
			{
				"x": -1.3512004514,
				"y": 3.3829116415,
				"z": 0.3204912858,
				"element": "H" 
			},
			{
				"x": -0.1042063292,
				"y": 2.7105607961,
				"z": -0.726637756,
				"element": "H" 
			},
			{
				"x": -1.6006503247,
				"y": -0.4062213865,
				"z": 0.9316889113,
				"element": "H" 
			},
			{
				"x": 0.2461080222,
				"y": 1.9783710612,
				"z": 1.4605804368,
				"element": "H" 
			},
			{
				"x": 1.3926127286,
				"y": 0.5994182834,
				"z": 3.0087900542,
				"element": "H" 
			},
			{
				"x": -2.0144964599,
				"y": -1.2558053837,
				"z": 4.5364925795,
				"element": "H" 
			},
			{
				"x": -2.2311804596,
				"y": -0.3516052968,
				"z": 3.0310059316,
				"element": "H" 
			},
			{
				"x": -1.7117870636,
				"y": -2.0407496596,
				"z": 2.9877157803,
				"element": "H" 
			},
			{
				"x": 1.6999147036,
				"y": -0.8050031856,
				"z": 4.6808420795,
				"element": "H" 
			},
			{
				"x": -0.6033943179,
				"y": -2.6830136408,
				"z": 5.3862632909,
				"element": "H" 
			},
			{
				"x": 0.9839937317,
				"y": -0.1421129961,
				"z": 7.0018244662,
				"element": "H" 
			},
			{
				"x": 1.8503706295,
				"y": -0.2603543153,
				"z": 8.5480786503,
				"element": "H" 
			},
			{
				"x": 2.7487299555,
				"y": -0.0267759606,
				"z": 7.0582715217,
				"element": "H" 
			},
			{
				"x": 3.8964898864,
				"y": -1.9977882316,
				"z": 8.3431673011,
				"element": "H" 
			},
			{
				"x": 2.5822688867,
				"y": -2.5411558193,
				"z": 9.3569223252,
				"element": "H" 
			},
			{
				"x": 4.0416972726,
				"y": -4.1299888302,
				"z": 7.1895863103,
				"element": "H" 
			},
			{
				"x": 3.9014954918,
				"y": -4.5169518578,
				"z": 8.8983052572,
				"element": "H" 
			},
			{
				"x": 2.3093269841,
				"y": -5.9377841544,
				"z": 7.6147950747,
				"element": "H" 
			},
			{
				"x": 1.4273378216,
				"y": -4.8053811935,
				"z": 8.6321794601,
				"element": "H" 
			},
			{
				"x": -0.6780404553,
				"y": -4.5385617516,
				"z": 7.3867811569,
				"element": "H" 
			},
			{
				"x": -0.6482496421,
				"y": -4.7963769397,
				"z": 5.6314169729,
				"element": "H" 
			},
			{
				"x": -0.0257930001,
				"y": -6.0396913783,
				"z": 6.7113887562,
				"element": "H" 
			},
			{
				"x": 1.5177665651,
				"y": -4.4549911148,
				"z": 4.3337882822,
				"element": "H" 
			},
			{
				"x": 2.0136949404,
				"y": -5.9373262396,
				"z": 5.1711631744,
				"element": "H" 
			},
			{
				"x": 3.067374448,
				"y": -4.510723993,
				"z": 5.1737498699,
				"element": "H" 
			}
		],
		 "valence_orbital": [ 
			{
				"type": "occ",
				"energy": -0.28774,
				"method": "rhf"
			},
			{
				"type": "occ",
				"energy": -0.26627,
				"method": "rhf"
			},
			{
				"type": "occ",
				"energy": -0.25572,
				"method": "rhf"
			},
			{
				"type": "occ",
				"energy": -0.22508,
				"method": "rhf"
			},
			{
				"type": "occ",
				"energy": -0.18767,
				"method": "rhf"
			},
			{
				"type": "unocc",
				"energy": -0.05775,
				"method": "rhf"
			},
			{
				"type": "unocc",
				"energy": -0.00013,
				"method": "rhf"
			},
			{
				"type": "unocc",
				"energy": 0.01526,
				"method": "rhf"
			},
			{
				"type": "unocc",
				"energy": 0.0405,
				"method": "rhf"
			},
			{
				"type": "unocc",
				"energy": 0.05004,
				"method": "rhf"
			}
		],
		"cosmo_sigma_profile": { 
			"-0.025": 0.0,
			"-0.024": 0.0,
			"-0.023": 0.0,
			"-0.022": 0.0,
			"-0.021": 0.0,
			"-0.02": 0.0,
			"-0.019": 0.0,
			"-0.018": 0.0,
			"-0.017": 0.0,
			"-0.016": 0.0,
			"-0.015": 0.0,
			"-0.014": 0.0,
			"-0.013": 0.0,
			"-0.012": 0.0,
			"-0.011": 0.0,
			"-0.01": 0.0,
			"-0.009": 0.0,
			"-0.008": 0.0,
			"-0.007": 0.0,
			"-0.006": 1.91450899392,
			"-0.005": 10.5714265688,
			"-0.004": 27.6176177257,
			"-0.003": 47.0349037111,
			"-0.002": 105.493979667,
			"-0.001": 140.1283568,
			"0.0": 136.336844305,
			"0.001": 113.451898521,
			"0.002": 55.8758716441,
			"0.003": 20.8770971411,
			"0.004": 20.6768859691,
			"0.005": 17.8272095815,
			"0.006": 8.19303307749,
			"0.007": 2.03369032504,
			"0.008": 2.41549588465,
			"0.009": 1.73108327293,
			"0.01": 1.73710504134,
			"0.011": 1.86973781543,
			"0.012": 4.03467231845,
			"0.013": 1.38076944407,
			"0.014": 0.0,
			"0.015": 0.0,
			"0.016": 0.0,
			"0.017": 0.0,
			"0.018": 0.0,
			"0.019": 0.0,
			"0.02": 0.0,
			"0.021": 0.0,
			"0.022": 0.0,
			"0.023": 0.0,
			"0.024": 0.0,
			"0.025": 0.0
		}
	}
}
