{
	 "smiles": "CC12CC3(C)CC(C)(C1)CC(C2)(C3)C(O)=O", 
	 "Tm": 423.15, 
	 "num_atms": 38, 
	 "gaussian": { 
		 "optdone": 1, 
		 "sigma_profile": "yes", 
		 "theory": "DFT", 
		 "functional": "B3LYP", 
		 "basiset": "6-31G**", 
		 "properties": { 
			 "R2extent": 3634.2448, 
			 "electric_dipole_moment_norm": 4.47872950958, 
			 "electric_quadrupole_moment_norm": 17.3251741345, 
			 "total_energy": -697.254390266, 
			 "HOMO_LUMO_gap": 0.27222, 
			 "cosmo_polarized_energy": -12.28, 
			 "cosmo_cavitation_energy": 34.5, 
			 "cosmo_dispersion_energy": -24.31, 
			 "cosmo_repulsion_energy": 1.82, 
			 "cosmo_total_nonelectrostatic_energy": 12.02, 
			 "SMD_solvation_energy": 6.01 
		},
		"coords": [
			{
				"x": 2.2961887834,
				"y": -2.7674083946,
				"z": 0.5818016578,
				"element": "C" 
			},
			{
				"x": 1.1711005532,
				"y": -1.74983268,
				"z": 0.3561944424,
				"element": "C" 
			},
			{
				"x": 0.7399286611,
				"y": -1.1102319493,
				"z": 1.6956004344,
				"element": "C" 
			},
			{
				"x": -0.3934880999,
				"y": -0.0782026755,
				"z": 1.4977560642,
				"element": "C" 
			},
			{
				"x": -0.8004240865,
				"y": 0.5406380271,
				"z": 2.8407305299,
				"element": "C" 
			},
			{
				"x": 0.1020607082,
				"y": 1.0128551047,
				"z": 0.5223174217,
				"element": "C" 
			},
			{
				"x": 0.5163872183,
				"y": 0.4114168659,
				"z": -0.839464791,
				"element": "C" 
			},
			{
				"x": 1.0016397421,
				"y": 1.5138946572,
				"z": -1.7886862857,
				"element": "C" 
			},
			{
				"x": 1.6357569406,
				"y": -0.6257385518,
				"z": -0.59653016,
				"element": "C" 
			},
			{
				"x": -0.7031467808,
				"y": -0.3159686814,
				"z": -1.4460965974,
				"element": "C" 
			},
			{
				"x": -1.2079406967,
				"y": -1.429672687,
				"z": -0.5066564669,
				"element": "C" 
			},
			{
				"x": -0.0588139356,
				"y": -2.4466650818,
				"z": -0.2706932393,
				"element": "C" 
			},
			{
				"x": -1.6023241343,
				"y": -0.7974505747,
				"z": 0.8554123033,
				"element": "C" 
			},
			{
				"x": -2.4171455415,
				"y": -2.1243814426,
				"z": -1.1469498349,
				"element": "C" 
			},
			{
				"x": -2.9775464143,
				"y": -3.1390946494,
				"z": -0.4296525518,
				"element": "O" 
			},
			{
				"x": -2.886392219,
				"y": -1.8313817801,
				"z": -2.2194605193,
				"element": "O" 
			},
			{
				"x": 3.1754730605,
				"y": -2.287286383,
				"z": 1.026123328,
				"element": "H" 
			},
			{
				"x": 2.6084805994,
				"y": -3.2284823266,
				"z": -0.3622192406,
				"element": "H" 
			},
			{
				"x": 1.9772141981,
				"y": -3.5698650777,
				"z": 1.2573965352,
				"element": "H" 
			},
			{
				"x": 1.6048135263,
				"y": -0.620452542,
				"z": 2.1637775983,
				"element": "H" 
			},
			{
				"x": 0.410526304,
				"y": -1.8945831943,
				"z": 2.3924725719,
				"element": "H" 
			},
			{
				"x": 0.0470890408,
				"y": 1.0546640018,
				"z": 3.3082367477,
				"element": "H" 
			},
			{
				"x": -1.6056065385,
				"y": 1.2729769364,
				"z": 2.71165725,
				"element": "H" 
			},
			{
				"x": -1.1533638411,
				"y": -0.2255992235,
				"z": 3.5410328015,
				"element": "H" 
			},
			{
				"x": 0.9546148083,
				"y": 1.5433258256,
				"z": 0.9688266319,
				"element": "H" 
			},
			{
				"x": -0.6891734879,
				"y": 1.7602709683,
				"z": 0.3709986401,
				"element": "H" 
			},
			{
				"x": 1.8679488588,
				"y": 2.040520863,
				"z": -1.3716801138,
				"element": "H" 
			},
			{
				"x": 0.2141236046,
				"y": 2.2544678549,
				"z": -1.9691583634,
				"element": "H" 
			},
			{
				"x": 1.2971308559,
				"y": 1.0981134039,
				"z": -2.7587393917,
				"element": "H" 
			},
			{
				"x": 2.5181052967,
				"y": -0.127183033,
				"z": -0.171631868,
				"element": "H" 
			},
			{
				"x": 1.9513786713,
				"y": -1.0605344827,
				"z": -1.5551227368,
				"element": "H" 
			},
			{
				"x": -1.5149565929,
				"y": 0.3950700538,
				"z": -1.6365823362,
				"element": "H" 
			},
			{
				"x": -0.4431762826,
				"y": -0.7500696932,
				"z": -2.4181364837,
				"element": "H" 
			},
			{
				"x": -0.3845819446,
				"y": -3.2601707738,
				"z": 0.3938779892,
				"element": "H" 
			},
			{
				"x": 0.2202020252,
				"y": -2.9151535725,
				"z": -1.2231810385,
				"element": "H" 
			},
			{
				"x": -2.4262348672,
				"y": -0.0876243153,
				"z": 0.7075201236,
				"element": "H" 
			},
			{
				"x": -1.9719737414,
				"y": -1.5642842613,
				"z": 1.5517580856,
				"element": "H" 
			},
			{
				"x": -2.5009742522,
				"y": -3.2617965358,
				"z": 0.4033508623,
				"element": "H" 
			}
		],
		 "valence_orbital": [ 
			{
				"type": "occ",
				"energy": -0.30795,
				"method": "rhf"
			},
			{
				"type": "occ",
				"energy": -0.30427,
				"method": "rhf"
			},
			{
				"type": "occ",
				"energy": -0.2901,
				"method": "rhf"
			},
			{
				"type": "occ",
				"energy": -0.28988,
				"method": "rhf"
			},
			{
				"type": "occ",
				"energy": -0.25716,
				"method": "rhf"
			},
			{
				"type": "unocc",
				"energy": 0.01506,
				"method": "rhf"
			},
			{
				"type": "unocc",
				"energy": 0.04092,
				"method": "rhf"
			},
			{
				"type": "unocc",
				"energy": 0.07198,
				"method": "rhf"
			},
			{
				"type": "unocc",
				"energy": 0.09446,
				"method": "rhf"
			},
			{
				"type": "unocc",
				"energy": 0.10039,
				"method": "rhf"
			}
		],
		"cosmo_sigma_profile": { 
			"-0.025": 0.0,
			"-0.024": 0.0,
			"-0.023": 0.0,
			"-0.022": 0.0,
			"-0.021": 0.0,
			"-0.02": 0.0,
			"-0.019": 0.0,
			"-0.018": 0.0563056476714,
			"-0.017": 0.615292405172,
			"-0.016": 0.517361238479,
			"-0.015": 1.13524877709,
			"-0.014": 1.06161154013,
			"-0.013": 1.13244585691,
			"-0.012": 0.658830053528,
			"-0.011": 1.04308075108,
			"-0.01": 0.963957078793,
			"-0.009": 0.992014520782,
			"-0.008": 0.952404591115,
			"-0.007": 1.59976134395,
			"-0.006": 1.68733039484,
			"-0.005": 1.48882651183,
			"-0.004": 5.39046314088,
			"-0.003": 19.9200536588,
			"-0.002": 62.307024621,
			"-0.001": 43.9420138466,
			"0.0": 30.0701618,
			"0.001": 32.2628160906,
			"0.002": 20.0121781861,
			"0.003": 2.09849346316,
			"0.004": 2.08917832441,
			"0.005": 2.15012232109,
			"0.006": 2.62032496187,
			"0.007": 2.03851095685,
			"0.008": 2.73761968546,
			"0.009": 3.16097281476,
			"0.01": 4.13629556693,
			"0.011": 5.45696244604,
			"0.012": 5.71152799408,
			"0.013": 3.07429352598,
			"0.014": 0.268708341031,
			"0.015": 0.0,
			"0.016": 0.0,
			"0.017": 0.0,
			"0.018": 0.0,
			"0.019": 0.0,
			"0.02": 0.0,
			"0.021": 0.0,
			"0.022": 0.0,
			"0.023": 0.0,
			"0.024": 0.0,
			"0.025": 0.0
		}
	}
}
