{
	 "smiles": "CNC(=O)CC(N)=S", 
	 "Tm": 407.15, 
	 "num_atms": 16, 
	 "gaussian": { 
		 "optdone": 1, 
		 "sigma_profile": "yes", 
		 "theory": "DFT", 
		 "functional": "B3LYP", 
		 "basiset": "6-31G**", 
		 "properties": { 
			 "R2extent": 1772.6001, 
			 "electric_dipole_moment_norm": 4.60355352527, 
			 "electric_quadrupole_moment_norm": 14.136944145, 
			 "total_energy": -740.185984106, 
			 "HOMO_LUMO_gap": 0.17649, 
			 "cosmo_polarized_energy": -16.91, 
			 "cosmo_cavitation_energy": 21.4, 
			 "cosmo_dispersion_energy": -16.25, 
			 "cosmo_repulsion_energy": 1.34, 
			 "cosmo_total_nonelectrostatic_energy": 6.49, 
			 "SMD_solvation_energy": 2.95 
		},
		"coords": [
			{
				"x": 1.6234835434,
				"y": 0.2253847835,
				"z": 1.4502705878,
				"element": "C" 
			},
			{
				"x": 1.2828050076,
				"y": 0.861904677,
				"z": 0.1839448173,
				"element": "N" 
			},
			{
				"x": 0.1379173931,
				"y": 0.7484428224,
				"z": -0.5373766619,
				"element": "C" 
			},
			{
				"x": -0.0082560152,
				"y": 1.3725280108,
				"z": -1.593331176,
				"element": "O" 
			},
			{
				"x": -0.9403595655,
				"y": -0.2004335252,
				"z": -0.0133048164,
				"element": "C" 
			},
			{
				"x": -2.3536841274,
				"y": 0.3844947856,
				"z": 0.0113926527,
				"element": "C" 
			},
			{
				"x": -2.6714226552,
				"y": 1.1162402197,
				"z": -1.0626940433,
				"element": "N" 
			},
			{
				"x": -3.4010478804,
				"y": 0.0478336976,
				"z": 1.2637796455,
				"element": "S" 
			},
			{
				"x": 0.9139590072,
				"y": 0.4847171453,
				"z": 2.2423935794,
				"element": "H" 
			},
			{
				"x": 2.6093384586,
				"y": 0.58186233,
				"z": 1.7534526778,
				"element": "H" 
			},
			{
				"x": 1.6737622823,
				"y": -0.8654559036,
				"z": 1.3639797688,
				"element": "H" 
			},
			{
				"x": 1.958058046,
				"y": 1.4846666371,
				"z": -0.2393015784,
				"element": "H" 
			},
			{
				"x": -0.9544762273,
				"y": -1.0530383525,
				"z": -0.7063509766,
				"element": "H" 
			},
			{
				"x": -0.7226849555,
				"y": -0.5928329125,
				"z": 0.9767569595,
				"element": "H" 
			},
			{
				"x": -1.9262048274,
				"y": 1.3866472616,
				"z": -1.7045578904,
				"element": "H" 
			},
			{
				"x": -3.5798874844,
				"y": 1.5556383234,
				"z": -1.0948535459,
				"element": "H" 
			}
		],
		 "valence_orbital": [ 
			{
				"type": "occ",
				"energy": -0.35282,
				"method": "rhf"
			},
			{
				"type": "occ",
				"energy": -0.27461,
				"method": "rhf"
			},
			{
				"type": "occ",
				"energy": -0.27149,
				"method": "rhf"
			},
			{
				"type": "occ",
				"energy": -0.22409,
				"method": "rhf"
			},
			{
				"type": "occ",
				"energy": -0.2029,
				"method": "rhf"
			},
			{
				"type": "unocc",
				"energy": -0.02641,
				"method": "rhf"
			},
			{
				"type": "unocc",
				"energy": 0.00316,
				"method": "rhf"
			},
			{
				"type": "unocc",
				"energy": 0.06567,
				"method": "rhf"
			},
			{
				"type": "unocc",
				"energy": 0.08191,
				"method": "rhf"
			},
			{
				"type": "unocc",
				"energy": 0.10052,
				"method": "rhf"
			}
		],
		"cosmo_sigma_profile": { 
			"-0.025": 0.0,
			"-0.024": 0.0,
			"-0.023": 0.0,
			"-0.022": 0.0,
			"-0.021": 0.0,
			"-0.02": 0.0,
			"-0.019": 0.0,
			"-0.018": 0.0,
			"-0.017": 0.0,
			"-0.016": 0.0,
			"-0.015": 0.497044920166,
			"-0.014": 2.35261327607,
			"-0.013": 2.55312181134,
			"-0.012": 1.76255450165,
			"-0.011": 2.13192760473,
			"-0.01": 3.1519842973,
			"-0.009": 3.19611788925,
			"-0.008": 5.72917307738,
			"-0.007": 5.31175901797,
			"-0.006": 11.9373038251,
			"-0.005": 13.766095976,
			"-0.004": 11.9411713221,
			"-0.003": 12.2647757699,
			"-0.002": 10.5292916342,
			"-0.001": 6.27362072169,
			"0.0": 6.26802242813,
			"0.001": 6.15874157791,
			"0.002": 5.59972552914,
			"0.003": 4.89630458377,
			"0.004": 4.70479481328,
			"0.005": 4.68439257129,
			"0.006": 4.19750295588,
			"0.007": 5.34860020902,
			"0.008": 6.02049782662,
			"0.009": 7.57241422425,
			"0.01": 6.79695348934,
			"0.011": 6.76437692747,
			"0.012": 4.93108195419,
			"0.013": 3.28421582171,
			"0.014": 0.85035486217,
			"0.015": 0.0,
			"0.016": 0.0,
			"0.017": 0.0,
			"0.018": 0.0,
			"0.019": 0.0,
			"0.02": 0.0,
			"0.021": 0.0,
			"0.022": 0.0,
			"0.023": 0.0,
			"0.024": 0.0,
			"0.025": 0.0
		}
	}
}
