{
	 "smiles": "NC(=O)CCS(=O)(=O)CCCl", 
	 "Tm": 413.15, 
	 "num_atms": 21, 
	 "gaussian": { 
		 "optdone": 1, 
		 "sigma_profile": "yes", 
		 "theory": "DFT", 
		 "functional": "B3LYP", 
		 "basiset": "6-31G**", 
		 "properties": { 
			 "R2extent": 3422.2449, 
			 "electric_dipole_moment_norm": 5.61074152853, 
			 "electric_quadrupole_moment_norm": 20.3116962792, 
			 "total_energy": -1335.32014893, 
			 "HOMO_LUMO_gap": 0.25191, 
			 "cosmo_polarized_energy": -25.52, 
			 "cosmo_cavitation_energy": 27.3, 
			 "cosmo_dispersion_energy": -20.36, 
			 "cosmo_repulsion_energy": 1.61, 
			 "cosmo_total_nonelectrostatic_energy": 8.55, 
			 "SMD_solvation_energy": 4.33 
		},
		"coords": [
			{
				"x": 0.3330871246,
				"y": -1.9374400478,
				"z": 1.4596487418,
				"element": "N" 
			},
			{
				"x": 0.7868013604,
				"y": -0.9602657433,
				"z": 2.2922641201,
				"element": "C" 
			},
			{
				"x": 1.073852979,
				"y": -1.1571896884,
				"z": 3.4649230983,
				"element": "O" 
			},
			{
				"x": 0.9337599212,
				"y": 0.447072639,
				"z": 1.693798284,
				"element": "C" 
			},
			{
				"x": 1.4712874413,
				"y": 0.5569152185,
				"z": 0.2562231663,
				"element": "C" 
			},
			{
				"x": 0.1367370295,
				"y": 0.5778369831,
				"z": -0.9913440003,
				"element": "S" 
			},
			{
				"x": -0.3653951234,
				"y": -0.8070778787,
				"z": -1.1653031309,
				"element": "O" 
			},
			{
				"x": -0.7941138772,
				"y": 1.6580737976,
				"z": -0.6410646046,
				"element": "O" 
			},
			{
				"x": 1.040759052,
				"y": 0.9882068706,
				"z": -2.5323523666,
				"element": "C" 
			},
			{
				"x": 0.2774960199,
				"y": 0.5748930539,
				"z": -3.7829664392,
				"element": "C" 
			},
			{
				"x": -1.0977966035,
				"y": 1.6790272929,
				"z": -4.1665424434,
				"element": "Cl" 
			},
			{
				"x": -0.0585058134,
				"y": -1.7396148449,
				"z": 0.5441808358,
				"element": "H" 
			},
			{
				"x": 0.1518481987,
				"y": -2.835197654,
				"z": 1.8841432909,
				"element": "H" 
			},
			{
				"x": 1.6195452852,
				"y": 0.9704239679,
				"z": 2.3627939494,
				"element": "H" 
			},
			{
				"x": -0.0280882401,
				"y": 0.9701765169,
				"z": 1.7668899729,
				"element": "H" 
			},
			{
				"x": 1.9955202664,
				"y": 1.507556732,
				"z": 0.1192428769,
				"element": "H" 
			},
			{
				"x": 2.1443295471,
				"y": -0.2643857094,
				"z": -0.0048340365,
				"element": "H" 
			},
			{
				"x": 1.2606779615,
				"y": 2.0578223001,
				"z": -2.5116246472,
				"element": "H" 
			},
			{
				"x": 1.975962373,
				"y": 0.4194136681,
				"z": -2.4844739893,
				"element": "H" 
			},
			{
				"x": -0.1313157748,
				"y": -0.4299924489,
				"z": -3.66999455,
				"element": "H" 
			},
			{
				"x": 0.9508508722,
				"y": 0.6001449747,
				"z": -4.6410081282,
				"element": "H" 
			}
		],
		 "valence_orbital": [ 
			{
				"type": "occ",
				"energy": -0.31736,
				"method": "rhf"
			},
			{
				"type": "occ",
				"energy": -0.31124,
				"method": "rhf"
			},
			{
				"type": "occ",
				"energy": -0.29971,
				"method": "rhf"
			},
			{
				"type": "occ",
				"energy": -0.26428,
				"method": "rhf"
			},
			{
				"type": "occ",
				"energy": -0.24611,
				"method": "rhf"
			},
			{
				"type": "unocc",
				"energy": 0.0058,
				"method": "rhf"
			},
			{
				"type": "unocc",
				"energy": 0.02063,
				"method": "rhf"
			},
			{
				"type": "unocc",
				"energy": 0.02787,
				"method": "rhf"
			},
			{
				"type": "unocc",
				"energy": 0.04777,
				"method": "rhf"
			},
			{
				"type": "unocc",
				"energy": 0.05525,
				"method": "rhf"
			}
		],
		"cosmo_sigma_profile": { 
			"-0.025": 0.0,
			"-0.024": 0.0,
			"-0.023": 0.0,
			"-0.022": 0.0,
			"-0.021": 0.0,
			"-0.02": 0.0,
			"-0.019": 0.0,
			"-0.018": 0.0,
			"-0.017": 0.0,
			"-0.016": 0.0,
			"-0.015": 0.0,
			"-0.014": 0.370394367747,
			"-0.013": 1.2643264336,
			"-0.012": 2.56283767461,
			"-0.011": 3.97279151579,
			"-0.01": 7.03446397814,
			"-0.009": 11.6216366517,
			"-0.008": 12.2249909978,
			"-0.007": 14.1761175765,
			"-0.006": 14.4906623528,
			"-0.005": 11.534554374,
			"-0.004": 7.30969648653,
			"-0.003": 7.73077980045,
			"-0.002": 7.51508388375,
			"-0.001": 7.81602884512,
			"0.0": 8.54230445581,
			"0.001": 7.04403063636,
			"0.002": 7.62791087873,
			"0.003": 7.09803389955,
			"0.004": 9.76103012489,
			"0.005": 10.8612651227,
			"0.006": 11.0716292387,
			"0.007": 4.82480949609,
			"0.008": 4.73873876736,
			"0.009": 5.40507970028,
			"0.01": 7.21624918965,
			"0.011": 8.43050739578,
			"0.012": 3.6897294009,
			"0.013": 3.54561674345,
			"0.014": 5.76645810658,
			"0.015": 1.75387542864,
			"0.016": 0.0,
			"0.017": 0.0,
			"0.018": 0.0,
			"0.019": 0.0,
			"0.02": 0.0,
			"0.021": 0.0,
			"0.022": 0.0,
			"0.023": 0.0,
			"0.024": 0.0,
			"0.025": 0.0
		}
	}
}
