{
	 "smiles": "CC1CCC(CC1)NC1=NC=CC=C1", 
	 "Tm": 423.15, 
	 "num_atms": 32, 
	 "gaussian": { 
		 "optdone": 1, 
		 "sigma_profile": "yes", 
		 "theory": "DFT", 
		 "functional": "B3LYP", 
		 "basiset": "6-31G**", 
		 "properties": { 
			 "R2extent": 4530.514, 
			 "electric_dipole_moment_norm": 2.13302425912, 
			 "electric_quadrupole_moment_norm": 9.08344156199, 
			 "total_energy": -577.644991657, 
			 "HOMO_LUMO_gap": 0.18934, 
			 "cosmo_polarized_energy": -7.33, 
			 "cosmo_cavitation_energy": 32.49, 
			 "cosmo_dispersion_energy": -23.59, 
			 "cosmo_repulsion_energy": 1.85, 
			 "cosmo_total_nonelectrostatic_energy": 10.75, 
			 "SMD_solvation_energy": 2.81 
		},
		"coords": [
			{
				"x": 4.0357689947,
				"y": -3.0404204621,
				"z": 0.8197855545,
				"element": "C" 
			},
			{
				"x": 3.4433691647,
				"y": -1.6594789395,
				"z": 1.1294527673,
				"element": "C" 
			},
			{
				"x": 3.735728832,
				"y": -0.631906867,
				"z": -0.0000495571,
				"element": "C" 
			},
			{
				"x": 2.5835413714,
				"y": -0.5546396655,
				"z": -1.0112735216,
				"element": "C" 
			},
			{
				"x": 1.2710855949,
				"y": -0.0401645701,
				"z": -0.363049187,
				"element": "C" 
			},
			{
				"x": 1.2172302449,
				"y": -0.4168912025,
				"z": 1.1434268411,
				"element": "C" 
			},
			{
				"x": 1.9203231364,
				"y": -1.7550490894,
				"z": 1.4016285321,
				"element": "C" 
			},
			{
				"x": 1.1342530862,
				"y": 1.3931201885,
				"z": -0.5988802318,
				"element": "N" 
			},
			{
				"x": -0.012039514,
				"y": 2.128357871,
				"z": -0.3880725398,
				"element": "C" 
			},
			{
				"x": 0.1772481649,
				"y": 3.4611802191,
				"z": -0.312823687,
				"element": "N" 
			},
			{
				"x": -0.8963868521,
				"y": 4.2423859512,
				"z": -0.1667981157,
				"element": "C" 
			},
			{
				"x": -2.2047269097,
				"y": 3.7709983322,
				"z": -0.078861094,
				"element": "C" 
			},
			{
				"x": -2.3919478132,
				"y": 2.3872661272,
				"z": -0.1471261842,
				"element": "C" 
			},
			{
				"x": -1.2975332996,
				"y": 1.5473211559,
				"z": -0.3000322349,
				"element": "C" 
			},
			{
				"x": 3.6448370701,
				"y": -3.435111547,
				"z": -0.1262344252,
				"element": "H" 
			},
			{
				"x": 5.127234667,
				"y": -2.9976614273,
				"z": 0.7368708746,
				"element": "H" 
			},
			{
				"x": 3.787281102,
				"y": -3.7640812885,
				"z": 1.6043670786,
				"element": "H" 
			},
			{
				"x": 3.9224060589,
				"y": -1.2884707347,
				"z": 2.0455807411,
				"element": "H" 
			},
			{
				"x": 3.900219909,
				"y": 0.3615574227,
				"z": 0.4368983807,
				"element": "H" 
			},
			{
				"x": 4.6698136854,
				"y": -0.8917316424,
				"z": -0.5115495842,
				"element": "H" 
			},
			{
				"x": 2.8383579557,
				"y": 0.0906074225,
				"z": -1.8585192664,
				"element": "H" 
			},
			{
				"x": 2.4078921429,
				"y": -1.5522885724,
				"z": -1.4300509902,
				"element": "H" 
			},
			{
				"x": 0.4350915166,
				"y": -0.5305605338,
				"z": -0.8760885344,
				"element": "H" 
			},
			{
				"x": 1.7129098685,
				"y": 0.3743447407,
				"z": 1.7206170296,
				"element": "H" 
			},
			{
				"x": 0.1779547103,
				"y": -0.4396989612,
				"z": 1.4875075837,
				"element": "H" 
			},
			{
				"x": 1.7471712795,
				"y": -2.0928651354,
				"z": 2.4296980898,
				"element": "H" 
			},
			{
				"x": 1.4771225294,
				"y": -2.5248297689,
				"z": 0.7534091064,
				"element": "H" 
			},
			{
				"x": 1.9688479451,
				"y": 1.9548541021,
				"z": -0.483670186,
				"element": "H" 
			},
			{
				"x": -0.69386282,
				"y": 5.3116704108,
				"z": -0.1129296756,
				"element": "H" 
			},
			{
				"x": -3.0369869947,
				"y": 4.4553511842,
				"z": 0.0437021672,
				"element": "H" 
			},
			{
				"x": -3.3898527219,
				"y": 1.9619816656,
				"z": -0.0790160003,
				"element": "H" 
			},
			{
				"x": -1.4299521052,
				"y": 0.4728536137,
				"z": -0.3534197312,
				"element": "H" 
			}
		],
		 "valence_orbital": [ 
			{
				"type": "occ",
				"energy": -0.30193,
				"method": "rhf"
			},
			{
				"type": "occ",
				"energy": -0.28795,
				"method": "rhf"
			},
			{
				"type": "occ",
				"energy": -0.26752,
				"method": "rhf"
			},
			{
				"type": "occ",
				"energy": -0.2465,
				"method": "rhf"
			},
			{
				"type": "occ",
				"energy": -0.19614,
				"method": "rhf"
			},
			{
				"type": "unocc",
				"energy": -0.0068,
				"method": "rhf"
			},
			{
				"type": "unocc",
				"energy": 0.01926,
				"method": "rhf"
			},
			{
				"type": "unocc",
				"energy": 0.07074,
				"method": "rhf"
			},
			{
				"type": "unocc",
				"energy": 0.08552,
				"method": "rhf"
			},
			{
				"type": "unocc",
				"energy": 0.10371,
				"method": "rhf"
			}
		],
		"cosmo_sigma_profile": { 
			"-0.025": 0.0,
			"-0.024": 0.0,
			"-0.023": 0.0,
			"-0.022": 0.0,
			"-0.021": 0.0,
			"-0.02": 0.0,
			"-0.019": 0.0,
			"-0.018": 0.0,
			"-0.017": 0.0,
			"-0.016": 0.0,
			"-0.015": 0.0,
			"-0.014": 0.0,
			"-0.013": 0.0,
			"-0.012": 0.0,
			"-0.011": 0.189612204966,
			"-0.01": 0.341701824249,
			"-0.009": 1.08323578751,
			"-0.008": 1.74054914014,
			"-0.007": 1.61934004484,
			"-0.006": 6.37690993237,
			"-0.005": 10.2811936893,
			"-0.004": 12.9089779248,
			"-0.003": 21.4948144804,
			"-0.002": 34.6430645148,
			"-0.001": 33.506666639,
			"0.0": 35.9008143393,
			"0.001": 29.1369835915,
			"0.002": 14.2951485069,
			"0.003": 9.17191116344,
			"0.004": 11.9532099728,
			"0.005": 11.2883548135,
			"0.006": 3.69263019061,
			"0.007": 2.46596498877,
			"0.008": 2.23933141916,
			"0.009": 2.11748178046,
			"0.01": 1.15345581521,
			"0.011": 0.783359661289,
			"0.012": 1.48381230078,
			"0.013": 0.96707998709,
			"0.014": 0.562817594385,
			"0.015": 0.705407199577,
			"0.016": 0.805603954057,
			"0.017": 0.0534499367209,
			"0.018": 0.0,
			"0.019": 0.0,
			"0.02": 0.0,
			"0.021": 0.0,
			"0.022": 0.0,
			"0.023": 0.0,
			"0.024": 0.0,
			"0.025": 0.0
		}
	}
}
