{
	 "smiles": "BrC1=CC=CC=C1NC(=O)NC1=C(Br)C=CC=C1", 
	 "Tm": 509.15, 
	 "num_atms": 28, 
	 "gaussian": { 
		 "optdone": 1, 
		 "sigma_profile": "yes", 
		 "theory": "DFT", 
		 "functional": "B3LYP", 
		 "basiset": "6-31G**", 
		 "properties": { 
			 "R2extent": 9412.8364, 
			 "electric_dipole_moment_norm": 2.79960783325, 
			 "electric_quadrupole_moment_norm": 20.1429592163, 
			 "total_energy": -5828.96794306, 
			 "HOMO_LUMO_gap": 0.19907, 
			 "cosmo_polarized_energy": -16.19, 
			 "cosmo_cavitation_energy": 37.21, 
			 "cosmo_dispersion_energy": -27.46, 
			 "cosmo_repulsion_energy": 2.12, 
			 "cosmo_total_nonelectrostatic_energy": 11.87, 
			 "SMD_solvation_energy": 4.49 
		},
		"coords": [
			{
				"x": -1.881163312,
				"y": -2.8581250708,
				"z": 0.7075994398,
				"element": "Br" 
			},
			{
				"x": -3.3645763548,
				"y": -1.665034339,
				"z": 0.758116234,
				"element": "C" 
			},
			{
				"x": -4.5282775995,
				"y": -2.0846000156,
				"z": 1.4022498885,
				"element": "C" 
			},
			{
				"x": -5.6613100873,
				"y": -1.2722215614,
				"z": 1.4013991434,
				"element": "C" 
			},
			{
				"x": -5.6284335236,
				"y": -0.0346040525,
				"z": 0.7585773047,
				"element": "C" 
			},
			{
				"x": -4.4550540478,
				"y": 0.39162442,
				"z": 0.141547632,
				"element": "C" 
			},
			{
				"x": -3.305963254,
				"y": -0.4098630173,
				"z": 0.1312549306,
				"element": "C" 
			},
			{
				"x": -2.1479655451,
				"y": 0.0374722349,
				"z": -0.5527869763,
				"element": "N" 
			},
			{
				"x": -0.9774948338,
				"y": 0.3801779608,
				"z": 0.1364188738,
				"element": "C" 
			},
			{
				"x": -0.8650119052,
				"y": 0.2909927471,
				"z": 1.3459200998,
				"element": "O" 
			},
			{
				"x": 0.010950596,
				"y": 0.8111420554,
				"z": -0.7367648491,
				"element": "N" 
			},
			{
				"x": 1.2816809305,
				"y": 1.3063986382,
				"z": -0.4205260982,
				"element": "C" 
			},
			{
				"x": 2.1534182104,
				"y": 1.6794021462,
				"z": -1.4626985642,
				"element": "C" 
			},
			{
				"x": 1.5989710967,
				"y": 1.4903174428,
				"z": -3.2964640824,
				"element": "Br" 
			},
			{
				"x": 3.4237927419,
				"y": 2.1881784098,
				"z": -1.2148435985,
				"element": "C" 
			},
			{
				"x": 3.8611767276,
				"y": 2.3413739977,
				"z": 0.0996970781,
				"element": "C" 
			},
			{
				"x": 3.0138068784,
				"y": 1.9770632265,
				"z": 1.1462934952,
				"element": "C" 
			},
			{
				"x": 1.7430436347,
				"y": 1.4648004018,
				"z": 0.8990626966,
				"element": "C" 
			},
			{
				"x": -4.5446698781,
				"y": -3.0547427666,
				"z": 1.8854954247,
				"element": "H" 
			},
			{
				"x": -6.5653438848,
				"y": -1.6122476865,
				"z": 1.8970061336,
				"element": "H" 
			},
			{
				"x": -6.5057404665,
				"y": 0.6046166531,
				"z": 0.7499439304,
				"element": "H" 
			},
			{
				"x": -4.4112223314,
				"y": 1.3672206272,
				"z": -0.3352173816,
				"element": "H" 
			},
			{
				"x": -2.326039781,
				"y": 0.5352570477,
				"z": -1.4146739386,
				"element": "H" 
			},
			{
				"x": -0.1490941558,
				"y": 0.6680484481,
				"z": -1.7253726671,
				"element": "H" 
			},
			{
				"x": 4.0599374303,
				"y": 2.4606080709,
				"z": -2.0492254474,
				"element": "H" 
			},
			{
				"x": 4.8518330025,
				"y": 2.7383429408,
				"z": 0.2965632597,
				"element": "H" 
			},
			{
				"x": 3.3422909976,
				"y": 2.0872032431,
				"z": 2.175436956,
				"element": "H" 
			},
			{
				"x": 1.0895587141,
				"y": 1.1701977976,
				"z": 1.7079910825,
				"element": "H" 
			}
		],
		 "valence_orbital": [ 
			{
				"type": "occ",
				"energy": -0.27116,
				"method": "rhf"
			},
			{
				"type": "occ",
				"energy": -0.25217,
				"method": "rhf"
			},
			{
				"type": "occ",
				"energy": -0.24901,
				"method": "rhf"
			},
			{
				"type": "occ",
				"energy": -0.2393,
				"method": "rhf"
			},
			{
				"type": "occ",
				"energy": -0.22161,
				"method": "rhf"
			},
			{
				"type": "unocc",
				"energy": -0.02254,
				"method": "rhf"
			},
			{
				"type": "unocc",
				"energy": -0.01663,
				"method": "rhf"
			},
			{
				"type": "unocc",
				"energy": -0.01124,
				"method": "rhf"
			},
			{
				"type": "unocc",
				"energy": -0.0065,
				"method": "rhf"
			},
			{
				"type": "unocc",
				"energy": -0.00341,
				"method": "rhf"
			}
		],
		"cosmo_sigma_profile": { 
			"-0.025": 0.0,
			"-0.024": 0.0,
			"-0.023": 0.0,
			"-0.022": 0.0,
			"-0.021": 0.0,
			"-0.02": 0.0,
			"-0.019": 0.0,
			"-0.018": 0.00814424946948,
			"-0.017": 0.685781788588,
			"-0.016": 1.43249427326,
			"-0.015": 1.82128833447,
			"-0.014": 1.10287617839,
			"-0.013": 1.01100124366,
			"-0.012": 2.02584478718,
			"-0.011": 2.12639171347,
			"-0.01": 1.26567625298,
			"-0.009": 1.96522328864,
			"-0.008": 2.63081083362,
			"-0.007": 8.20098420649,
			"-0.006": 14.7260158805,
			"-0.005": 17.3477771551,
			"-0.004": 19.2551220653,
			"-0.003": 16.339590352,
			"-0.002": 16.5453874143,
			"-0.001": 17.3494082525,
			"0.0": 18.8203062773,
			"0.001": 26.6474937719,
			"0.002": 30.3498258666,
			"0.003": 33.8852326788,
			"0.004": 34.5279567784,
			"0.005": 14.2634633835,
			"0.006": 3.6983923038,
			"0.007": 2.75218409398,
			"0.008": 2.1280938828,
			"0.009": 2.07621658236,
			"0.01": 2.48769401627,
			"0.011": 2.57376169025,
			"0.012": 3.20115492993,
			"0.013": 2.1206648728,
			"0.014": 0.110622441144,
			"0.015": 0.0,
			"0.016": 0.0,
			"0.017": 0.0,
			"0.018": 0.0,
			"0.019": 0.0,
			"0.02": 0.0,
			"0.021": 0.0,
			"0.022": 0.0,
			"0.023": 0.0,
			"0.024": 0.0,
			"0.025": 0.0
		}
	}
}
