{
	 "smiles": "ClCC(=O)NC1CS(=O)(=O)CC1Cl", 
	 "Tm": 459.15, 
	 "num_atms": 22, 
	 "gaussian": { 
		 "optdone": 1, 
		 "sigma_profile": "yes", 
		 "theory": "DFT", 
		 "functional": "B3LYP", 
		 "basiset": "6-31G**", 
		 "properties": { 
			 "R2extent": 4623.0802, 
			 "electric_dipole_moment_norm": 4.0000017075, 
			 "electric_quadrupole_moment_norm": 20.1720470565, 
			 "total_energy": -1833.00936424, 
			 "HOMO_LUMO_gap": 0.26488, 
			 "cosmo_polarized_energy": -22.18, 
			 "cosmo_cavitation_energy": 30.15, 
			 "cosmo_dispersion_energy": -22.15, 
			 "cosmo_repulsion_energy": 1.73, 
			 "cosmo_total_nonelectrostatic_energy": 9.74, 
			 "SMD_solvation_energy": 3.79 
		},
		"coords": [
			{
				"x": -3.0295429105,
				"y": 2.8528180819,
				"z": -2.3755343679,
				"element": "Cl" 
			},
			{
				"x": -1.6032416796,
				"y": 2.4086054525,
				"z": -3.4012231691,
				"element": "C" 
			},
			{
				"x": -0.4386167814,
				"y": 1.7138283122,
				"z": -2.6954067445,
				"element": "C" 
			},
			{
				"x": 0.5366418966,
				"y": 1.4134959826,
				"z": -3.3697966865,
				"element": "O" 
			},
			{
				"x": -0.5533518609,
				"y": 1.4738214383,
				"z": -1.3600952948,
				"element": "N" 
			},
			{
				"x": 0.4989718952,
				"y": 0.8207832184,
				"z": -0.6211836603,
				"element": "C" 
			},
			{
				"x": 1.096584427,
				"y": 1.6869869905,
				"z": 0.4994661166,
				"element": "C" 
			},
			{
				"x": 2.1122143494,
				"y": 0.5223186388,
				"z": 1.482680191,
				"element": "S" 
			},
			{
				"x": 1.8753287806,
				"y": 0.7197964252,
				"z": 2.9172708463,
				"element": "O" 
			},
			{
				"x": 3.4747996477,
				"y": 0.505340264,
				"z": 0.930880356,
				"element": "O" 
			},
			{
				"x": 1.2427551365,
				"y": -0.999063099,
				"z": 0.887803775,
				"element": "C" 
			},
			{
				"x": 0.0806562172,
				"y": -0.526512761,
				"z": 0.0165316418,
				"element": "C" 
			},
			{
				"x": -1.4373924261,
				"y": -0.3159042599,
				"z": 1.0155159519,
				"element": "Cl" 
			},
			{
				"x": -1.2268985718,
				"y": 3.3270521619,
				"z": -3.8524198148,
				"element": "H" 
			},
			{
				"x": -1.9632957091,
				"y": 1.7511460102,
				"z": -4.193017841,
				"element": "H" 
			},
			{
				"x": -1.4107616563,
				"y": 1.7226164189,
				"z": -0.8833624111,
				"element": "H" 
			},
			{
				"x": 1.2814382453,
				"y": 0.5937327475,
				"z": -1.3544243078,
				"element": "H" 
			},
			{
				"x": 0.3296535428,
				"y": 2.0987839838,
				"z": 1.158640908,
				"element": "H" 
			},
			{
				"x": 1.7538948939,
				"y": 2.4748603706,
				"z": 0.130632518,
				"element": "H" 
			},
			{
				"x": 0.9382632928,
				"y": -1.5882848479,
				"z": 1.7523598275,
				"element": "H" 
			},
			{
				"x": 1.9766607446,
				"y": -1.5487036247,
				"z": 0.2929140787,
				"element": "H" 
			},
			{
				"x": -0.1818614737,
				"y": -1.2577179049,
				"z": -0.7483319129,
				"element": "H" 
			}
		],
		 "valence_orbital": [ 
			{
				"type": "occ",
				"energy": -0.32071,
				"method": "rhf"
			},
			{
				"type": "occ",
				"energy": -0.30776,
				"method": "rhf"
			},
			{
				"type": "occ",
				"energy": -0.3042,
				"method": "rhf"
			},
			{
				"type": "occ",
				"energy": -0.28485,
				"method": "rhf"
			},
			{
				"type": "occ",
				"energy": -0.28116,
				"method": "rhf"
			},
			{
				"type": "unocc",
				"energy": -0.01628,
				"method": "rhf"
			},
			{
				"type": "unocc",
				"energy": -0.00841,
				"method": "rhf"
			},
			{
				"type": "unocc",
				"energy": -0.00017,
				"method": "rhf"
			},
			{
				"type": "unocc",
				"energy": 0.03551,
				"method": "rhf"
			},
			{
				"type": "unocc",
				"energy": 0.04882,
				"method": "rhf"
			}
		],
		"cosmo_sigma_profile": { 
			"-0.025": 0.0,
			"-0.024": 0.0,
			"-0.023": 0.0,
			"-0.022": 0.0,
			"-0.021": 0.0,
			"-0.02": 0.0,
			"-0.019": 0.0,
			"-0.018": 0.0,
			"-0.017": 0.0,
			"-0.016": 0.0,
			"-0.015": 0.0,
			"-0.014": 0.0,
			"-0.013": 0.0,
			"-0.012": 0.444431926661,
			"-0.011": 2.0862100171,
			"-0.01": 6.68065045064,
			"-0.009": 14.9622811215,
			"-0.008": 14.3439179492,
			"-0.007": 13.993547524,
			"-0.006": 15.5655228656,
			"-0.005": 13.8459469545,
			"-0.004": 9.71514212637,
			"-0.003": 10.4426718557,
			"-0.002": 9.47018803092,
			"-0.001": 10.0953472974,
			"0.0": 10.0100996235,
			"0.001": 12.170653348,
			"0.002": 9.09179660252,
			"0.003": 11.2694388588,
			"0.004": 13.3655487819,
			"0.005": 14.7132507126,
			"0.006": 5.46567648123,
			"0.007": 2.89967401006,
			"0.008": 2.96871022852,
			"0.009": 3.97119712266,
			"0.01": 8.4551523936,
			"0.011": 14.6922344421,
			"0.012": 9.52142529611,
			"0.013": 2.61579639997,
			"0.014": 0.189410209786,
			"0.015": 0.0,
			"0.016": 0.0,
			"0.017": 0.0,
			"0.018": 0.0,
			"0.019": 0.0,
			"0.02": 0.0,
			"0.021": 0.0,
			"0.022": 0.0,
			"0.023": 0.0,
			"0.024": 0.0,
			"0.025": 0.0
		}
	}
}
