{
	 "smiles": "CC1=C(C)N=C(O1)C1=CC(N)=CC=C1", 
	 "Tm": 378.15, 
	 "num_atms": 26, 
	 "gaussian": { 
		 "optdone": 1, 
		 "sigma_profile": "yes", 
		 "theory": "DFT", 
		 "functional": "B3LYP", 
		 "basiset": "6-31G**", 
		 "properties": { 
			 "R2extent": 3778.7472, 
			 "electric_dipole_moment_norm": 2.62716270718, 
			 "electric_quadrupole_moment_norm": 15.3134547435, 
			 "total_energy": -611.144414101, 
			 "HOMO_LUMO_gap": 0.16733, 
			 "cosmo_polarized_energy": -12.11, 
			 "cosmo_cavitation_energy": 30.11, 
			 "cosmo_dispersion_energy": -22.19, 
			 "cosmo_repulsion_energy": 1.77, 
			 "cosmo_total_nonelectrostatic_energy": 9.69, 
			 "SMD_solvation_energy": 4.13 
		},
		"coords": [
			{
				"x": 0.8622015244,
				"y": 0.7942894457,
				"z": -3.3887503847,
				"element": "C" 
			},
			{
				"x": 1.0833933436,
				"y": -0.1527109936,
				"z": -2.265173094,
				"element": "C" 
			},
			{
				"x": 1.8600807178,
				"y": -1.2556830415,
				"z": -2.0614752825,
				"element": "C" 
			},
			{
				"x": 2.8244696739,
				"y": -1.9293567546,
				"z": -2.983519819,
				"element": "C" 
			},
			{
				"x": 1.6375125606,
				"y": -1.7351931339,
				"z": -0.7754884195,
				"element": "N" 
			},
			{
				"x": 0.7569933906,
				"y": -0.9281210272,
				"z": -0.2554834466,
				"element": "C" 
			},
			{
				"x": 0.3688203526,
				"y": 0.066304294,
				"z": -1.1072312556,
				"element": "O" 
			},
			{
				"x": 0.1682028835,
				"y": -0.9717366789,
				"z": 1.0806638259,
				"element": "C" 
			},
			{
				"x": -0.7766666114,
				"y": -0.0169194491,
				"z": 1.4776516468,
				"element": "C" 
			},
			{
				"x": -1.3421032156,
				"y": -0.0616656483,
				"z": 2.7604218337,
				"element": "C" 
			},
			{
				"x": -2.2408469177,
				"y": 0.9255022259,
				"z": 3.1740037169,
				"element": "N" 
			},
			{
				"x": -0.9441676969,
				"y": -1.0830963693,
				"z": 3.6405068421,
				"element": "C" 
			},
			{
				"x": -0.0035120867,
				"y": -2.0304383846,
				"z": 3.2385392494,
				"element": "C" 
			},
			{
				"x": 0.5597195605,
				"y": -1.9888473733,
				"z": 1.9664511532,
				"element": "C" 
			},
			{
				"x": 1.1233444547,
				"y": 1.8212145179,
				"z": -3.1070354914,
				"element": "H" 
			},
			{
				"x": 1.4791501588,
				"y": 0.5107055076,
				"z": -4.2444430664,
				"element": "H" 
			},
			{
				"x": -0.185562132,
				"y": 0.7978915086,
				"z": -3.7116211809,
				"element": "H" 
			},
			{
				"x": 3.8305883501,
				"y": -1.9435101619,
				"z": -2.5506665132,
				"element": "H" 
			},
			{
				"x": 2.5329918858,
				"y": -2.9707918949,
				"z": -3.1575499364,
				"element": "H" 
			},
			{
				"x": 2.8763998125,
				"y": -1.4231852197,
				"z": -3.9511746524,
				"element": "H" 
			},
			{
				"x": -1.0694245535,
				"y": 0.7670054762,
				"z": 0.7859379808,
				"element": "H" 
			},
			{
				"x": -2.8647076365,
				"y": 0.6488169448,
				"z": 3.9196159596,
				"element": "H" 
			},
			{
				"x": -2.7360114501,
				"y": 1.3917461141,
				"z": 2.4262046797,
				"element": "H" 
			},
			{
				"x": -1.3717014629,
				"y": -1.1263112249,
				"z": 4.6392444609,
				"element": "H" 
			},
			{
				"x": 0.2906254716,
				"y": -2.8136686875,
				"z": 3.9316313832,
				"element": "H" 
			},
			{
				"x": 1.2903096223,
				"y": -2.7212399915,
				"z": 1.6438398104,
				"element": "H" 
			}
		],
		 "valence_orbital": [ 
			{
				"type": "occ",
				"energy": -0.29444,
				"method": "rhf"
			},
			{
				"type": "occ",
				"energy": -0.27268,
				"method": "rhf"
			},
			{
				"type": "occ",
				"energy": -0.26018,
				"method": "rhf"
			},
			{
				"type": "occ",
				"energy": -0.21142,
				"method": "rhf"
			},
			{
				"type": "occ",
				"energy": -0.19633,
				"method": "rhf"
			},
			{
				"type": "unocc",
				"energy": -0.029,
				"method": "rhf"
			},
			{
				"type": "unocc",
				"energy": 0.01677,
				"method": "rhf"
			},
			{
				"type": "unocc",
				"energy": 0.04734,
				"method": "rhf"
			},
			{
				"type": "unocc",
				"energy": 0.07818,
				"method": "rhf"
			},
			{
				"type": "unocc",
				"energy": 0.09011,
				"method": "rhf"
			}
		],
		"cosmo_sigma_profile": { 
			"-0.025": 0.0,
			"-0.024": 0.0,
			"-0.023": 0.0,
			"-0.022": 0.0,
			"-0.021": 0.0,
			"-0.02": 0.0,
			"-0.019": 0.0,
			"-0.018": 0.0,
			"-0.017": 0.0,
			"-0.016": 0.0,
			"-0.015": 0.0,
			"-0.014": 0.0,
			"-0.013": 0.303139145649,
			"-0.012": 2.82105910342,
			"-0.011": 2.78802216313,
			"-0.01": 2.84001256375,
			"-0.009": 3.18515308686,
			"-0.008": 3.5607508685,
			"-0.007": 3.02787892458,
			"-0.006": 7.63164770453,
			"-0.005": 13.7883598041,
			"-0.004": 17.3084778688,
			"-0.003": 18.7436124711,
			"-0.002": 16.9343348715,
			"-0.001": 21.4577368539,
			"0.0": 20.2114082851,
			"0.001": 16.8348037549,
			"0.002": 15.5939009189,
			"0.003": 14.1083922879,
			"0.004": 13.7670415761,
			"0.005": 16.1767533356,
			"0.006": 11.4703084066,
			"0.007": 3.23495107025,
			"0.008": 1.97421775096,
			"0.009": 1.89387214614,
			"0.01": 1.99884104851,
			"0.011": 1.81203505709,
			"0.012": 1.83503689162,
			"0.013": 1.62094915827,
			"0.014": 1.52978947202,
			"0.015": 0.76377843449,
			"0.016": 0.0743973576996,
			"0.017": 0.0,
			"0.018": 0.0,
			"0.019": 0.0,
			"0.02": 0.0,
			"0.021": 0.0,
			"0.022": 0.0,
			"0.023": 0.0,
			"0.024": 0.0,
			"0.025": 0.0
		}
	}
}
