{
	 "smiles": "CC1=CC(Br)=C(OCC(O)=O)C=C1", 
	 "Tm": 404.15, 
	 "num_atms": 22, 
	 "gaussian": { 
		 "optdone": 1, 
		 "sigma_profile": "yes", 
		 "theory": "DFT", 
		 "functional": "B3LYP", 
		 "basiset": "6-31G**", 
		 "properties": { 
			 "R2extent": 5651.7158, 
			 "electric_dipole_moment_norm": 5.56949393123, 
			 "electric_quadrupole_moment_norm": 22.4753337432, 
			 "total_energy": -3145.45942519, 
			 "HOMO_LUMO_gap": 0.21064, 
			 "cosmo_polarized_energy": -12.61, 
			 "cosmo_cavitation_energy": 28.86, 
			 "cosmo_dispersion_energy": -21.26, 
			 "cosmo_repulsion_energy": 1.69, 
			 "cosmo_total_nonelectrostatic_energy": 9.29, 
			 "SMD_solvation_energy": 5.52 
		},
		"coords": [
			{
				"x": 2.8299221193,
				"y": 0.8742654314,
				"z": -1.476136183,
				"element": "C" 
			},
			{
				"x": 1.4066830158,
				"y": 0.7384790754,
				"z": -0.9885386407,
				"element": "C" 
			},
			{
				"x": 0.3778260999,
				"y": 1.4858159809,
				"z": -1.5828846908,
				"element": "C" 
			},
			{
				"x": -0.9336065761,
				"y": 1.3715098273,
				"z": -1.1430600011,
				"element": "C" 
			},
			{
				"x": -2.3040541459,
				"y": 2.4053414329,
				"z": -1.9780274231,
				"element": "Br" 
			},
			{
				"x": -1.2667699398,
				"y": 0.5035849016,
				"z": -0.0900742362,
				"element": "C" 
			},
			{
				"x": -2.5804905124,
				"y": 0.4510739428,
				"z": 0.2807820184,
				"element": "O" 
			},
			{
				"x": -2.9944580991,
				"y": -0.4055540603,
				"z": 1.33503795,
				"element": "C" 
			},
			{
				"x": -4.5072914748,
				"y": -0.2495685805,
				"z": 1.514084372,
				"element": "C" 
			},
			{
				"x": -5.1063388139,
				"y": 0.6161568054,
				"z": 0.6838857182,
				"element": "O" 
			},
			{
				"x": -5.0994308979,
				"y": -0.8772555448,
				"z": 2.3558118866,
				"element": "O" 
			},
			{
				"x": -0.2505516677,
				"y": -0.2436077357,
				"z": 0.506930315,
				"element": "C" 
			},
			{
				"x": 1.0670317433,
				"y": -0.1217728399,
				"z": 0.0571780838,
				"element": "C" 
			},
			{
				"x": 3.5021727564,
				"y": 0.2125388505,
				"z": -0.9236665685,
				"element": "H" 
			},
			{
				"x": 3.1977167121,
				"y": 1.8996018939,
				"z": -1.3557712766,
				"element": "H" 
			},
			{
				"x": 2.9140565604,
				"y": 0.6238973572,
				"z": -2.5396067597,
				"element": "H" 
			},
			{
				"x": 0.5995204531,
				"y": 2.1659024115,
				"z": -2.3990068007,
				"element": "H" 
			},
			{
				"x": -2.7791684087,
				"y": -1.4569017798,
				"z": 1.1084441975,
				"element": "H" 
			},
			{
				"x": -2.505064771,
				"y": -0.1457099347,
				"z": 2.2815977361,
				"element": "H" 
			},
			{
				"x": -4.4333744067,
				"y": 1.0026289805,
				"z": 0.0936805772,
				"element": "H" 
			},
			{
				"x": -0.4767143815,
				"y": -0.9218622891,
				"z": 1.3215687733,
				"element": "H" 
			},
			{
				"x": 1.8407846351,
				"y": -0.7139641267,
				"z": 0.5375709525,
				"element": "H" 
			}
		],
		 "valence_orbital": [ 
			{
				"type": "occ",
				"energy": -0.31384,
				"method": "rhf"
			},
			{
				"type": "occ",
				"energy": -0.29756,
				"method": "rhf"
			},
			{
				"type": "occ",
				"energy": -0.27686,
				"method": "rhf"
			},
			{
				"type": "occ",
				"energy": -0.26101,
				"method": "rhf"
			},
			{
				"type": "occ",
				"energy": -0.23809,
				"method": "rhf"
			},
			{
				"type": "unocc",
				"energy": -0.02745,
				"method": "rhf"
			},
			{
				"type": "unocc",
				"energy": -0.01322,
				"method": "rhf"
			},
			{
				"type": "unocc",
				"energy": -0.00437,
				"method": "rhf"
			},
			{
				"type": "unocc",
				"energy": 0.00826,
				"method": "rhf"
			},
			{
				"type": "unocc",
				"energy": 0.07887,
				"method": "rhf"
			}
		],
		"cosmo_sigma_profile": { 
			"-0.025": 0.0,
			"-0.024": 0.0,
			"-0.023": 0.0,
			"-0.022": 0.0,
			"-0.021": 0.0,
			"-0.02": 0.0,
			"-0.019": 0.0,
			"-0.018": 0.0,
			"-0.017": 0.0,
			"-0.016": 0.0,
			"-0.015": 0.0,
			"-0.014": 0.0,
			"-0.013": 0.0,
			"-0.012": 0.0,
			"-0.011": 0.0,
			"-0.01": 0.0853715184514,
			"-0.009": 4.77672707781,
			"-0.008": 11.09265737,
			"-0.007": 8.81722981051,
			"-0.006": 12.6335146065,
			"-0.005": 11.6476157626,
			"-0.004": 14.7741180329,
			"-0.003": 17.5741663168,
			"-0.002": 13.888262465,
			"-0.001": 17.2563661759,
			"0.0": 16.0613885242,
			"0.001": 15.2178211496,
			"0.002": 18.6735848164,
			"0.003": 17.8983055236,
			"0.004": 18.1690961065,
			"0.005": 7.62628365452,
			"0.006": 2.16220975672,
			"0.007": 2.42893437067,
			"0.008": 2.75842459474,
			"0.009": 4.09702857806,
			"0.01": 4.59916861224,
			"0.011": 5.20060310705,
			"0.012": 4.72128229463,
			"0.013": 1.01089010164,
			"0.014": 0.0,
			"0.015": 0.0,
			"0.016": 0.0,
			"0.017": 0.0,
			"0.018": 0.0,
			"0.019": 0.0,
			"0.02": 0.0,
			"0.021": 0.0,
			"0.022": 0.0,
			"0.023": 0.0,
			"0.024": 0.0,
			"0.025": 0.0
		}
	}
}
