{
	 "smiles": "NC(=O)C1=C2N=CC=C(N2N=C1)C(O)=O", 
	 "Tm": 473.15, 
	 "num_atms": 21, 
	 "gaussian": { 
		 "optdone": 1, 
		 "sigma_profile": "yes", 
		 "theory": "DFT", 
		 "functional": "B3LYP", 
		 "basiset": "6-31G**", 
		 "properties": { 
			 "R2extent": 3529.6046, 
			 "electric_dipole_moment_norm": 3.43498268409, 
			 "electric_quadrupole_moment_norm": 29.0571900479, 
			 "total_energy": -753.140379458, 
			 "HOMO_LUMO_gap": 0.1528, 
			 "cosmo_polarized_energy": -23.5, 
			 "cosmo_cavitation_energy": 26.8, 
			 "cosmo_dispersion_energy": -20.08, 
			 "cosmo_repulsion_energy": 1.55, 
			 "cosmo_total_nonelectrostatic_energy": 8.28, 
			 "SMD_solvation_energy": 5.06 
		},
		"coords": [
			{
				"x": -4.1185298474,
				"y": -1.4309230867,
				"z": 2.1896855536,
				"element": "N" 
			},
			{
				"x": -2.7986070371,
				"y": -1.8373465854,
				"z": 2.1761014216,
				"element": "C" 
			},
			{
				"x": -2.4141217672,
				"y": -2.8356631147,
				"z": 2.7635981746,
				"element": "O" 
			},
			{
				"x": -1.8834991328,
				"y": -0.9253233285,
				"z": 1.4425149032,
				"element": "C" 
			},
			{
				"x": -0.6159775138,
				"y": -1.2478456268,
				"z": 0.9190424565,
				"element": "C" 
			},
			{
				"x": 0.0911367572,
				"y": -2.3875052639,
				"z": 0.8502277373,
				"element": "N" 
			},
			{
				"x": 1.2714009958,
				"y": -2.3263231287,
				"z": 0.261921199,
				"element": "C" 
			},
			{
				"x": 1.8200186874,
				"y": -1.1429006736,
				"z": -0.2965312165,
				"element": "C" 
			},
			{
				"x": 1.0965943337,
				"y": 0.0220691469,
				"z": -0.2414523049,
				"element": "C" 
			},
			{
				"x": -0.1270987951,
				"y": -0.0510117151,
				"z": 0.3725173679,
				"element": "N" 
			},
			{
				"x": -0.9927408375,
				"y": 0.97814482,
				"z": 0.5299854063,
				"element": "N" 
			},
			{
				"x": -2.0411567605,
				"y": 0.4413470571,
				"z": 1.1700748387,
				"element": "C" 
			},
			{
				"x": 1.6244037672,
				"y": 1.3160873837,
				"z": -0.82992051,
				"element": "C" 
			},
			{
				"x": 0.8482246193,
				"y": 2.3913753306,
				"z": -0.72169981,
				"element": "O" 
			},
			{
				"x": 2.7093426807,
				"y": 1.3257586058,
				"z": -1.3658568828,
				"element": "O" 
			},
			{
				"x": -4.4780023433,
				"y": -0.8724068478,
				"z": 1.4299645326,
				"element": "H" 
			},
			{
				"x": -4.7608462935,
				"y": -2.0959248725,
				"z": 2.5980281238,
				"element": "H" 
			},
			{
				"x": 1.8358260638,
				"y": -3.2547488318,
				"z": 0.2131463523,
				"element": "H" 
			},
			{
				"x": 2.7916531721,
				"y": -1.1227156977,
				"z": -0.7733999415,
				"element": "H" 
			},
			{
				"x": -2.8705909573,
				"y": 1.0814563685,
				"z": 1.4393284789,
				"element": "H" 
			},
			{
				"x": 0.0031702082,
				"y": 2.1687000604,
				"z": -0.2487758806,
				"element": "H" 
			}
		],
		 "valence_orbital": [ 
			{
				"type": "occ",
				"energy": -0.29716,
				"method": "rhf"
			},
			{
				"type": "occ",
				"energy": -0.2928,
				"method": "rhf"
			},
			{
				"type": "occ",
				"energy": -0.28087,
				"method": "rhf"
			},
			{
				"type": "occ",
				"energy": -0.26176,
				"method": "rhf"
			},
			{
				"type": "occ",
				"energy": -0.25422,
				"method": "rhf"
			},
			{
				"type": "unocc",
				"energy": -0.10142,
				"method": "rhf"
			},
			{
				"type": "unocc",
				"energy": -0.04904,
				"method": "rhf"
			},
			{
				"type": "unocc",
				"energy": -0.02074,
				"method": "rhf"
			},
			{
				"type": "unocc",
				"energy": 0.02235,
				"method": "rhf"
			},
			{
				"type": "unocc",
				"energy": 0.06704,
				"method": "rhf"
			}
		],
		"cosmo_sigma_profile": { 
			"-0.025": 0.0,
			"-0.024": 0.0,
			"-0.023": 0.0,
			"-0.022": 0.0,
			"-0.021": 0.0,
			"-0.02": 0.0,
			"-0.019": 0.0,
			"-0.018": 0.0,
			"-0.017": 0.0,
			"-0.016": 0.0,
			"-0.015": 0.168115386825,
			"-0.014": 1.77720770948,
			"-0.013": 2.48098674093,
			"-0.012": 2.80367053936,
			"-0.011": 2.4197550236,
			"-0.01": 5.09785670207,
			"-0.009": 8.98793803454,
			"-0.008": 9.66531599531,
			"-0.007": 9.00515927752,
			"-0.006": 11.5375686675,
			"-0.005": 11.1683030276,
			"-0.004": 11.8486201146,
			"-0.003": 12.4019345811,
			"-0.002": 14.9212868445,
			"-0.001": 13.0659326474,
			"0.0": 11.1556721893,
			"0.001": 9.88229162195,
			"0.002": 6.6445609135,
			"0.003": 6.87636524821,
			"0.004": 5.34602940779,
			"0.005": 5.21508362912,
			"0.006": 4.71806297023,
			"0.007": 5.00077720718,
			"0.008": 5.62737445709,
			"0.009": 7.20730393714,
			"0.01": 7.19690372983,
			"0.011": 6.48539708461,
			"0.012": 4.07933513836,
			"0.013": 6.09661441013,
			"0.014": 4.38403511975,
			"0.015": 1.89945306508,
			"0.016": 1.13217807002,
			"0.017": 0.0132473364526,
			"0.018": 0.0,
			"0.019": 0.0,
			"0.02": 0.0,
			"0.021": 0.0,
			"0.022": 0.0,
			"0.023": 0.0,
			"0.024": 0.0,
			"0.025": 0.0
		}
	}
}
