{
	 "smiles": "CCOCCS(N)(=O)=O", 
	 "Tm": 304.15, 
	 "num_atms": 20, 
	 "gaussian": { 
		 "optdone": 1, 
		 "sigma_profile": "yes", 
		 "theory": "DFT", 
		 "functional": "B3LYP", 
		 "basiset": "6-31G**", 
		 "properties": { 
			 "R2extent": 2317.269, 
			 "electric_dipole_moment_norm": 3.83939264207, 
			 "electric_quadrupole_moment_norm": 13.9599812908, 
			 "total_energy": -837.591347845, 
			 "HOMO_LUMO_gap": 0.31375, 
			 "cosmo_polarized_energy": -15.45, 
			 "cosmo_cavitation_energy": 24.52, 
			 "cosmo_dispersion_energy": -18.62, 
			 "cosmo_repulsion_energy": 1.53, 
			 "cosmo_total_nonelectrostatic_energy": 7.43, 
			 "SMD_solvation_energy": 3.89 
		},
		"coords": [
			{
				"x": -1.7122269766,
				"y": -0.7273097161,
				"z": -3.4721351717,
				"element": "C" 
			},
			{
				"x": -1.0301881007,
				"y": -1.5353190764,
				"z": -2.36982652,
				"element": "C" 
			},
			{
				"x": -1.2958894761,
				"y": -1.0507141632,
				"z": -1.0570571021,
				"element": "O" 
			},
			{
				"x": -0.594687298,
				"y": 0.1310116058,
				"z": -0.7182664285,
				"element": "C" 
			},
			{
				"x": -0.9035942475,
				"y": 0.399662536,
				"z": 0.7505460424,
				"element": "C" 
			},
			{
				"x": -0.1200664463,
				"y": 1.8928716474,
				"z": 1.3914504681,
				"element": "S" 
			},
			{
				"x": 1.5316603749,
				"y": 1.4997300403,
				"z": 1.313981914,
				"element": "N" 
			},
			{
				"x": -0.4995998181,
				"y": 2.0156257591,
				"z": 2.8014345478,
				"element": "O" 
			},
			{
				"x": -0.33763584,
				"y": 2.9813178015,
				"z": 0.4323324052,
				"element": "O" 
			},
			{
				"x": -1.5425013561,
				"y": -1.2020408,
				"z": -4.4444886969,
				"element": "H" 
			},
			{
				"x": -1.32697992,
				"y": 0.2951795207,
				"z": -3.5320964384,
				"element": "H" 
			},
			{
				"x": -2.7910072664,
				"y": -0.6777573091,
				"z": -3.2967497386,
				"element": "H" 
			},
			{
				"x": 0.0578039272,
				"y": -1.5781732214,
				"z": -2.5410560303,
				"element": "H" 
			},
			{
				"x": -1.4043411413,
				"y": -2.5641095804,
				"z": -2.3741972092,
				"element": "H" 
			},
			{
				"x": -0.9126773596,
				"y": 0.9904494329,
				"z": -1.3229202973,
				"element": "H" 
			},
			{
				"x": 0.4893254198,
				"y": -0.0028605327,
				"z": -0.8582231787,
				"element": "H" 
			},
			{
				"x": -1.9755190023,
				"y": 0.5559912936,
				"z": 0.9006562324,
				"element": "H" 
			},
			{
				"x": -0.5798856002,
				"y": -0.4282940823,
				"z": 1.3854683206,
				"element": "H" 
			},
			{
				"x": 2.0153171867,
				"y": 2.238446821,
				"z": 0.8093572138,
				"element": "H" 
			},
			{
				"x": 1.9007929407,
				"y": 1.4050920233,
				"z": 2.2570896674,
				"element": "H" 
			}
		],
		 "valence_orbital": [ 
			{
				"type": "occ",
				"energy": -0.31882,
				"method": "rhf"
			},
			{
				"type": "occ",
				"energy": -0.31419,
				"method": "rhf"
			},
			{
				"type": "occ",
				"energy": -0.30442,
				"method": "rhf"
			},
			{
				"type": "occ",
				"energy": -0.29517,
				"method": "rhf"
			},
			{
				"type": "occ",
				"energy": -0.26266,
				"method": "rhf"
			},
			{
				"type": "unocc",
				"energy": 0.05109,
				"method": "rhf"
			},
			{
				"type": "unocc",
				"energy": 0.07213,
				"method": "rhf"
			},
			{
				"type": "unocc",
				"energy": 0.07743,
				"method": "rhf"
			},
			{
				"type": "unocc",
				"energy": 0.08714,
				"method": "rhf"
			},
			{
				"type": "unocc",
				"energy": 0.09643,
				"method": "rhf"
			}
		],
		"cosmo_sigma_profile": { 
			"-0.025": 0.0,
			"-0.024": 0.0,
			"-0.023": 0.0,
			"-0.022": 0.0,
			"-0.021": 0.0,
			"-0.02": 0.0,
			"-0.019": 0.0,
			"-0.018": 0.0,
			"-0.017": 0.0,
			"-0.016": 0.0,
			"-0.015": 0.7697673718,
			"-0.014": 2.67534307391,
			"-0.013": 2.49048671738,
			"-0.012": 2.63853457951,
			"-0.011": 2.26527337047,
			"-0.01": 1.57523818859,
			"-0.009": 3.42117445495,
			"-0.008": 5.73672303204,
			"-0.007": 3.89442328032,
			"-0.006": 5.07995783431,
			"-0.005": 6.54219968204,
			"-0.004": 17.4203551783,
			"-0.003": 21.4506063639,
			"-0.002": 17.4011824134,
			"-0.001": 13.6455236645,
			"0.0": 12.7514761799,
			"0.001": 8.70783570303,
			"0.002": 4.97702582204,
			"0.003": 4.53855775792,
			"0.004": 3.66043940242,
			"0.005": 4.41757209627,
			"0.006": 4.58895704429,
			"0.007": 4.19171310098,
			"0.008": 4.49871540896,
			"0.009": 4.28978742457,
			"0.01": 7.98666071804,
			"0.011": 12.5952826201,
			"0.012": 6.72212126745,
			"0.013": 0.18384322858,
			"0.014": 0.0,
			"0.015": 0.0,
			"0.016": 0.0,
			"0.017": 0.0,
			"0.018": 0.0,
			"0.019": 0.0,
			"0.02": 0.0,
			"0.021": 0.0,
			"0.022": 0.0,
			"0.023": 0.0,
			"0.024": 0.0,
			"0.025": 0.0
		}
	}
}
