{
	 "smiles": "CN1C(=CC=C1C1=CC=CC=C1)C(O)=O", 
	 "Tm": 417.15, 
	 "num_atms": 26, 
	 "gaussian": { 
		 "optdone": 1, 
		 "sigma_profile": "yes", 
		 "theory": "DFT", 
		 "functional": "B3LYP", 
		 "basiset": "6-31G**", 
		 "properties": { 
			 "R2extent": 4241.697, 
			 "electric_dipole_moment_norm": 6.02725181654, 
			 "electric_quadrupole_moment_norm": 21.3601858276, 
			 "total_energy": -669.105404935, 
			 "HOMO_LUMO_gap": 0.1709, 
			 "cosmo_polarized_energy": -16.94, 
			 "cosmo_cavitation_energy": 29.9, 
			 "cosmo_dispersion_energy": -21.57, 
			 "cosmo_repulsion_energy": 1.66, 
			 "cosmo_total_nonelectrostatic_energy": 9.99, 
			 "SMD_solvation_energy": 5.85 
		},
		"coords": [
			{
				"x": 1.9107897085,
				"y": 0.8736222446,
				"z": 0.0646951198,
				"element": "C" 
			},
			{
				"x": 0.8602472603,
				"y": 1.4241945688,
				"z": -0.7916381241,
				"element": "N" 
			},
			{
				"x": 1.073127218,
				"y": 2.2486047413,
				"z": -1.8988223964,
				"element": "C" 
			},
			{
				"x": -0.0991427039,
				"y": 2.2850679029,
				"z": -2.6382625977,
				"element": "C" 
			},
			{
				"x": -1.044455929,
				"y": 1.4776452641,
				"z": -1.981702096,
				"element": "C" 
			},
			{
				"x": -0.438216514,
				"y": 0.9437110025,
				"z": -0.8483544447,
				"element": "C" 
			},
			{
				"x": -1.0268551918,
				"y": 0.0312262239,
				"z": 0.1427218025,
				"element": "C" 
			},
			{
				"x": -0.8333698059,
				"y": 0.1972870014,
				"z": 1.5265281529,
				"element": "C" 
			},
			{
				"x": -1.4384693049,
				"y": -0.6648259661,
				"z": 2.4400926391,
				"element": "C" 
			},
			{
				"x": -2.2582434493,
				"y": -1.702269736,
				"z": 1.9922304798,
				"element": "C" 
			},
			{
				"x": -2.4689102687,
				"y": -1.8715061104,
				"z": 0.6217984752,
				"element": "C" 
			},
			{
				"x": -1.8569093182,
				"y": -1.0179622066,
				"z": -0.2935221357,
				"element": "C" 
			},
			{
				"x": 2.297737068,
				"y": 2.994133132,
				"z": -2.2312267142,
				"element": "C" 
			},
			{
				"x": 3.1741848658,
				"y": 3.263918375,
				"z": -1.2106661262,
				"element": "O" 
			},
			{
				"x": 2.5492567345,
				"y": 3.3832715306,
				"z": -3.3485418327,
				"element": "O" 
			},
			{
				"x": 2.8462162146,
				"y": 0.8092967921,
				"z": -0.4920386995,
				"element": "H" 
			},
			{
				"x": 2.0731327359,
				"y": 1.4805737481,
				"z": 0.9646709842,
				"element": "H" 
			},
			{
				"x": 1.6235835043,
				"y": -0.1263025836,
				"z": 0.3891600355,
				"element": "H" 
			},
			{
				"x": -0.2315508115,
				"y": 2.8716160251,
				"z": -3.5354856238,
				"element": "H" 
			},
			{
				"x": -2.0765707074,
				"y": 1.3209748822,
				"z": -2.2612695497,
				"element": "H" 
			},
			{
				"x": -0.2319697709,
				"y": 1.024928824,
				"z": 1.8900287777,
				"element": "H" 
			},
			{
				"x": -1.2797946693,
				"y": -0.5166560298,
				"z": 3.5044269159,
				"element": "H" 
			},
			{
				"x": -2.7310541572,
				"y": -2.3713983272,
				"z": 2.7049789012,
				"element": "H" 
			},
			{
				"x": -3.1035925312,
				"y": -2.6770391142,
				"z": 0.2638811651,
				"element": "H" 
			},
			{
				"x": -2.0042311837,
				"y": -1.1653432601,
				"z": -1.3589637303,
				"element": "H" 
			},
			{
				"x": 2.7413610069,
				"y": 3.1346310754,
				"z": -0.3563193778,
				"element": "H" 
			}
		],
		 "valence_orbital": [ 
			{
				"type": "occ",
				"energy": -0.27799,
				"method": "rhf"
			},
			{
				"type": "occ",
				"energy": -0.26626,
				"method": "rhf"
			},
			{
				"type": "occ",
				"energy": -0.26438,
				"method": "rhf"
			},
			{
				"type": "occ",
				"energy": -0.25451,
				"method": "rhf"
			},
			{
				"type": "occ",
				"energy": -0.21537,
				"method": "rhf"
			},
			{
				"type": "unocc",
				"energy": -0.04447,
				"method": "rhf"
			},
			{
				"type": "unocc",
				"energy": -0.0154,
				"method": "rhf"
			},
			{
				"type": "unocc",
				"energy": -0.00489,
				"method": "rhf"
			},
			{
				"type": "unocc",
				"energy": 0.04811,
				"method": "rhf"
			},
			{
				"type": "unocc",
				"energy": 0.06008,
				"method": "rhf"
			}
		],
		"cosmo_sigma_profile": { 
			"-0.025": 0.0,
			"-0.024": 0.0,
			"-0.023": 0.0,
			"-0.022": 0.0,
			"-0.021": 0.0,
			"-0.02": 0.0,
			"-0.019": 0.0,
			"-0.018": 0.22922053107,
			"-0.017": 1.02625792818,
			"-0.016": 1.10424851048,
			"-0.015": 1.26999883896,
			"-0.014": 0.67175678973,
			"-0.013": 0.28889045155,
			"-0.012": 1.07194463699,
			"-0.011": 1.63606892371,
			"-0.01": 1.00539397968,
			"-0.009": 0.801128578019,
			"-0.008": 1.2320871881,
			"-0.007": 6.67266916405,
			"-0.006": 16.7909829668,
			"-0.005": 17.7686559809,
			"-0.004": 23.7597058763,
			"-0.003": 17.6634942876,
			"-0.002": 14.947527666,
			"-0.001": 12.1566354509,
			"0.0": 11.95410389,
			"0.001": 13.292268694,
			"0.002": 14.4359068646,
			"0.003": 14.3788471274,
			"0.004": 15.0691265246,
			"0.005": 16.2896516953,
			"0.006": 6.1356484232,
			"0.007": 2.66410638477,
			"0.008": 2.82542023643,
			"0.009": 2.81038178711,
			"0.01": 3.59396521072,
			"0.011": 5.07230349331,
			"0.012": 6.35526409743,
			"0.013": 3.5566719043,
			"0.014": 0.59045557794,
			"0.015": 0.0,
			"0.016": 0.0,
			"0.017": 0.0,
			"0.018": 0.0,
			"0.019": 0.0,
			"0.02": 0.0,
			"0.021": 0.0,
			"0.022": 0.0,
			"0.023": 0.0,
			"0.024": 0.0,
			"0.025": 0.0
		}
	}
}
