{
	 "smiles": "NC(N)=NCCCCCCCCNCCCCCCCCN=C(N)N", 
	 "Tm": 333.15, 
	 "num_atms": 66, 
	 "gaussian": { 
		 "optdone": 1, 
		 "sigma_profile": "yes", 
		 "theory": "DFT", 
		 "functional": "B3LYP", 
		 "basiset": "6-31G**", 
		 "properties": { 
			 "R2extent": 23474.1351, 
			 "electric_dipole_moment_norm": 4.33870539216, 
			 "electric_quadrupole_moment_norm": 28.9542119756, 
			 "total_energy": -1093.91430748, 
			 "HOMO_LUMO_gap": 0.25852, 
			 "cosmo_polarized_energy": -24.96, 
			 "cosmo_cavitation_energy": 65.14, 
			 "cosmo_dispersion_energy": -43.07, 
			 "cosmo_repulsion_energy": 3.5, 
			 "cosmo_total_nonelectrostatic_energy": 25.57, 
			 "SMD_solvation_energy": 2.79 
		},
		"coords": [
			{
				"x": 4.337144626,
				"y": 3.0021654227,
				"z": 4.5333252076,
				"element": "N" 
			},
			{
				"x": 4.9990133312,
				"y": 1.9551522219,
				"z": 3.8877459169,
				"element": "C" 
			},
			{
				"x": 5.8371618705,
				"y": 2.4165286277,
				"z": 2.8669794617,
				"element": "N" 
			},
			{
				"x": 4.9188652358,
				"y": 0.6983100156,
				"z": 4.1259204126,
				"element": "N" 
			},
			{
				"x": 4.1742176584,
				"y": 0.2234903674,
				"z": 5.2779578274,
				"element": "C" 
			},
			{
				"x": 2.6987649112,
				"y": -0.1249208943,
				"z": 4.9858815106,
				"element": "C" 
			},
			{
				"x": 2.4682686141,
				"y": -1.3536620266,
				"z": 4.089562539,
				"element": "C" 
			},
			{
				"x": 2.8143117537,
				"y": -1.1696117633,
				"z": 2.604869948,
				"element": "C" 
			},
			{
				"x": 2.5205259762,
				"y": -2.4238311949,
				"z": 1.7701672081,
				"element": "C" 
			},
			{
				"x": 2.9284265918,
				"y": -2.3180628724,
				"z": 0.2897556699,
				"element": "C" 
			},
			{
				"x": 2.1960100584,
				"y": -1.2449902343,
				"z": -0.5387211139,
				"element": "C" 
			},
			{
				"x": 0.6701007752,
				"y": -1.3839848169,
				"z": -0.6013710492,
				"element": "C" 
			},
			{
				"x": 0.259121364,
				"y": -2.6416173535,
				"z": -1.226485412,
				"element": "N" 
			},
			{
				"x": -1.1934858776,
				"y": -2.8129993805,
				"z": -1.3871092217,
				"element": "C" 
			},
			{
				"x": -1.657101379,
				"y": -2.7059161535,
				"z": -2.8485628294,
				"element": "C" 
			},
			{
				"x": -1.3619287775,
				"y": -1.3522760497,
				"z": -3.5050433474,
				"element": "C" 
			},
			{
				"x": -1.7650903856,
				"y": -1.2633021093,
				"z": -4.9880192547,
				"element": "C" 
			},
			{
				"x": -3.267855184,
				"y": -1.4002003572,
				"z": -5.291381228,
				"element": "C" 
			},
			{
				"x": -4.1463930426,
				"y": -0.2981288134,
				"z": -4.6835500084,
				"element": "C" 
			},
			{
				"x": -5.6214997717,
				"y": -0.4153798436,
				"z": -5.0833072465,
				"element": "C" 
			},
			{
				"x": -6.5297928347,
				"y": 0.657294578,
				"z": -4.4576266674,
				"element": "C" 
			},
			{
				"x": -6.6607404717,
				"y": 0.4944468372,
				"z": -3.0233916427,
				"element": "N" 
			},
			{
				"x": -6.1518738768,
				"y": 1.3327576182,
				"z": -2.2002494727,
				"element": "C" 
			},
			{
				"x": -6.4554451123,
				"y": 1.2306200266,
				"z": -0.8371706304,
				"element": "N" 
			},
			{
				"x": -5.2846609972,
				"y": 2.399467124,
				"z": -2.4562728475,
				"element": "N" 
			},
			{
				"x": 4.894459445,
				"y": 3.8410988854,
				"z": 4.6341256199,
				"element": "H" 
			},
			{
				"x": 3.8691651468,
				"y": 2.7455464947,
				"z": 5.3911073174,
				"element": "H" 
			},
			{
				"x": 6.1992412691,
				"y": 1.6379752487,
				"z": 2.3303558932,
				"element": "H" 
			},
			{
				"x": 5.4099444312,
				"y": 3.1197015956,
				"z": 2.2747903915,
				"element": "H" 
			},
			{
				"x": 4.1980474272,
				"y": 0.9370888146,
				"z": 6.1243283673,
				"element": "H" 
			},
			{
				"x": 4.6736169406,
				"y": -0.6821712864,
				"z": 5.6479395612,
				"element": "H" 
			},
			{
				"x": 2.2104654695,
				"y": -0.3073187418,
				"z": 5.9530975643,
				"element": "H" 
			},
			{
				"x": 2.2005868841,
				"y": 0.7515632152,
				"z": 4.5484139819,
				"element": "H" 
			},
			{
				"x": 1.4111179545,
				"y": -1.6448089365,
				"z": 4.1707126884,
				"element": "H" 
			},
			{
				"x": 3.0430586638,
				"y": -2.1995487609,
				"z": 4.4944275108,
				"element": "H" 
			},
			{
				"x": 3.8706668006,
				"y": -0.8949373572,
				"z": 2.5122138251,
				"element": "H" 
			},
			{
				"x": 2.2420968029,
				"y": -0.3169086997,
				"z": 2.2139857769,
				"element": "H" 
			},
			{
				"x": 1.4523857035,
				"y": -2.6735639785,
				"z": 1.8483335307,
				"element": "H" 
			},
			{
				"x": 3.0556448871,
				"y": -3.2754931402,
				"z": 2.2126021512,
				"element": "H" 
			},
			{
				"x": 4.0064142128,
				"y": -2.1153891019,
				"z": 0.2357528807,
				"element": "H" 
			},
			{
				"x": 2.793194195,
				"y": -3.2967302617,
				"z": -0.1903839395,
				"element": "H" 
			},
			{
				"x": 2.4308413455,
				"y": -0.2500957132,
				"z": -0.1403428864,
				"element": "H" 
			},
			{
				"x": 2.5843626181,
				"y": -1.2725822544,
				"z": -1.5641099616,
				"element": "H" 
			},
			{
				"x": 0.2382700711,
				"y": -1.2524232919,
				"z": 0.4099212268,
				"element": "H" 
			},
			{
				"x": 0.2726364248,
				"y": -0.5610094079,
				"z": -1.2062642676,
				"element": "H" 
			},
			{
				"x": 0.6284417707,
				"y": -3.4128322241,
				"z": -0.6812972788,
				"element": "H" 
			},
			{
				"x": -1.7449193288,
				"y": -2.0812478759,
				"z": -0.7729382884,
				"element": "H" 
			},
			{
				"x": -1.4822853675,
				"y": -3.8019933579,
				"z": -1.0089727103,
				"element": "H" 
			},
			{
				"x": -1.1648340225,
				"y": -3.4995684279,
				"z": -3.4266543507,
				"element": "H" 
			},
			{
				"x": -2.7349652157,
				"y": -2.9159053669,
				"z": -2.87746388,
				"element": "H" 
			},
			{
				"x": -1.8562004218,
				"y": -0.5527528058,
				"z": -2.935684491,
				"element": "H" 
			},
			{
				"x": -0.2843008985,
				"y": -1.1645774598,
				"z": -3.4301523625,
				"element": "H" 
			},
			{
				"x": -1.4131023282,
				"y": -0.302761581,
				"z": -5.3896448081,
				"element": "H" 
			},
			{
				"x": -1.2223423991,
				"y": -2.0394250831,
				"z": -5.5450435913,
				"element": "H" 
			},
			{
				"x": -3.6314552937,
				"y": -2.378901402,
				"z": -4.9507362603,
				"element": "H" 
			},
			{
				"x": -3.4006183052,
				"y": -1.3985884928,
				"z": -6.3822433275,
				"element": "H" 
			},
			{
				"x": -3.7597556485,
				"y": 0.6837231348,
				"z": -4.997961497,
				"element": "H" 
			},
			{
				"x": -4.0751783463,
				"y": -0.3200871834,
				"z": -3.5899584997,
				"element": "H" 
			},
			{
				"x": -6.0040490561,
				"y": -1.4001071438,
				"z": -4.7859714934,
				"element": "H" 
			},
			{
				"x": -5.7136924681,
				"y": -0.3564377858,
				"z": -6.1767791168,
				"element": "H" 
			},
			{
				"x": -6.1684354281,
				"y": 1.6555557398,
				"z": -4.7731606061,
				"element": "H" 
			},
			{
				"x": -7.5317657389,
				"y": 0.5552669518,
				"z": -4.8966634007,
				"element": "H" 
			},
			{
				"x": -6.9694008042,
				"y": 0.3771668349,
				"z": -0.6559964281,
				"element": "H" 
			},
			{
				"x": -5.6468646096,
				"y": 1.3239438292,
				"z": -0.2327517029,
				"element": "H" 
			},
			{
				"x": -5.4733288904,
				"y": 3.2221675692,
				"z": -1.8976242439,
				"element": "H" 
			},
			{
				"x": -5.1591289484,
				"y": 2.6189198326,
				"z": -3.4341126245,
				"element": "H" 
			}
		],
		 "valence_orbital": [ 
			{
				"type": "occ",
				"energy": -0.23576,
				"method": "rhf"
			},
			{
				"type": "occ",
				"energy": -0.23295,
				"method": "rhf"
			},
			{
				"type": "occ",
				"energy": -0.21841,
				"method": "rhf"
			},
			{
				"type": "occ",
				"energy": -0.21582,
				"method": "rhf"
			},
			{
				"type": "occ",
				"energy": -0.20759,
				"method": "rhf"
			},
			{
				"type": "unocc",
				"energy": 0.05093,
				"method": "rhf"
			},
			{
				"type": "unocc",
				"energy": 0.05673,
				"method": "rhf"
			},
			{
				"type": "unocc",
				"energy": 0.06656,
				"method": "rhf"
			},
			{
				"type": "unocc",
				"energy": 0.06951,
				"method": "rhf"
			},
			{
				"type": "unocc",
				"energy": 0.07745,
				"method": "rhf"
			}
		],
		"cosmo_sigma_profile": { 
			"-0.025": 0.0,
			"-0.024": 0.0,
			"-0.023": 0.0,
			"-0.022": 0.0,
			"-0.021": 0.0,
			"-0.02": 0.0,
			"-0.019": 0.0,
			"-0.018": 0.0,
			"-0.017": 0.0,
			"-0.016": 0.0,
			"-0.015": 0.0,
			"-0.014": 0.0,
			"-0.013": 0.672853618006,
			"-0.012": 4.82089466126,
			"-0.011": 8.86637392185,
			"-0.01": 8.46634002127,
			"-0.009": 10.5814827375,
			"-0.008": 9.53232268162,
			"-0.007": 11.0062530208,
			"-0.006": 9.02030642378,
			"-0.005": 10.1992314431,
			"-0.004": 9.34722010915,
			"-0.003": 13.542905126,
			"-0.002": 41.6103047039,
			"-0.001": 85.5787452688,
			"0.0": 90.2241915064,
			"0.001": 66.2182793629,
			"0.002": 30.8236452854,
			"0.003": 11.6763973754,
			"0.004": 10.4525790175,
			"0.005": 7.66585712028,
			"0.006": 6.42305984402,
			"0.007": 8.30968192332,
			"0.008": 7.6892854669,
			"0.009": 5.86014326852,
			"0.01": 5.48666042188,
			"0.011": 5.70366276962,
			"0.012": 4.08691515241,
			"0.013": 4.68327216637,
			"0.014": 4.04876130917,
			"0.015": 2.49203059401,
			"0.016": 1.46911896863,
			"0.017": 1.35506429928,
			"0.018": 1.15283849866,
			"0.019": 0.0954451393721,
			"0.02": 0.0,
			"0.021": 0.0,
			"0.022": 0.0,
			"0.023": 0.0,
			"0.024": 0.0,
			"0.025": 0.0
		}
	}
}
