{
	 "smiles": "[O-][N+](=O)C1=CC(NC(=O)C(C(F)(F)F)C(F)(F)F)=CC=C1", 
	 "Tm": 473.15, 
	 "num_atms": 27, 
	 "gaussian": { 
		 "optdone": 1, 
		 "sigma_profile": "yes", 
		 "theory": "DFT", 
		 "functional": "B3LYP", 
		 "basiset": "6-31G**", 
		 "properties": { 
			 "R2extent": 5750.0046, 
			 "electric_dipole_moment_norm": 3.68536494936, 
			 "electric_quadrupole_moment_norm": 17.6680126248, 
			 "total_energy": -1318.80366131, 
			 "HOMO_LUMO_gap": 0.18283, 
			 "cosmo_polarized_energy": -14.57, 
			 "cosmo_cavitation_energy": 34.58, 
			 "cosmo_dispersion_energy": -23.19, 
			 "cosmo_repulsion_energy": 1.67, 
			 "cosmo_total_nonelectrostatic_energy": 13.06, 
			 "SMD_solvation_energy": 10.75 
		},
		"coords": [
			{
				"x": 4.6059279503,
				"y": -1.041346947,
				"z": 1.8261135746,
				"element": "O" 
			},
			{
				"x": 3.431473866,
				"y": -1.3939527265,
				"z": 1.7366625868,
				"element": "N" 
			},
			{
				"x": 2.8630093351,
				"y": -2.1577643699,
				"z": 2.5145296028,
				"element": "O" 
			},
			{
				"x": 2.6459526343,
				"y": -0.8615537552,
				"z": 0.6077419862,
				"element": "C" 
			},
			{
				"x": 1.3095074206,
				"y": -1.2310830287,
				"z": 0.4933977796,
				"element": "C" 
			},
			{
				"x": 0.5675830121,
				"y": -0.7285854696,
				"z": -0.5765739487,
				"element": "C" 
			},
			{
				"x": -0.7777972476,
				"y": -1.1848807639,
				"z": -0.7658170121,
				"element": "N" 
			},
			{
				"x": -2.0084058692,
				"y": -0.5894759749,
				"z": -0.634957229,
				"element": "C" 
			},
			{
				"x": -3.0111222718,
				"y": -1.1556911385,
				"z": -1.0368428059,
				"element": "O" 
			},
			{
				"x": -2.1961402734,
				"y": 0.7700543239,
				"z": 0.0868051294,
				"element": "C" 
			},
			{
				"x": -1.5699260967,
				"y": 1.9975318902,
				"z": -0.5823570841,
				"element": "C" 
			},
			{
				"x": -0.3086981005,
				"y": 2.2452620476,
				"z": -0.1854432496,
				"element": "F" 
			},
			{
				"x": -2.2968867512,
				"y": 3.0958606953,
				"z": -0.3173958687,
				"element": "F" 
			},
			{
				"x": -1.5535689749,
				"y": 1.8318677896,
				"z": -1.9257295262,
				"element": "F" 
			},
			{
				"x": -1.9211418659,
				"y": 0.7060926862,
				"z": 1.5911501321,
				"element": "C" 
			},
			{
				"x": -0.6192059602,
				"y": 0.5391198908,
				"z": 1.8868415239,
				"element": "F" 
			},
			{
				"x": -2.5974277975,
				"y": -0.3254554487,
				"z": 2.1289790636,
				"element": "F" 
			},
			{
				"x": -2.3333360728,
				"y": 1.8371142628,
				"z": 2.1930839345,
				"element": "F" 
			},
			{
				"x": 1.1751899599,
				"y": 0.1141181613,
				"z": -1.5151841096,
				"element": "C" 
			},
			{
				"x": 2.5149580056,
				"y": 0.4782976839,
				"z": -1.3702173213,
				"element": "C" 
			},
			{
				"x": 3.2664118142,
				"y": -0.0102229409,
				"z": -0.3040210501,
				"element": "C" 
			},
			{
				"x": 0.8636056896,
				"y": -1.8884707299,
				"z": 1.228356566,
				"element": "H" 
			},
			{
				"x": -0.8805554984,
				"y": -2.0980276136,
				"z": -1.1966336279,
				"element": "H" 
			},
			{
				"x": -3.2736735447,
				"y": 0.9211092833,
				"z": -0.0014754936,
				"element": "H" 
			},
			{
				"x": 0.5902021325,
				"y": 0.4866924191,
				"z": -2.3483665595,
				"element": "H" 
			},
			{
				"x": 2.9761736075,
				"y": 1.1382808233,
				"z": -2.0974623818,
				"element": "H" 
			},
			{
				"x": 4.3089908973,
				"y": 0.2477089501,
				"z": -0.1677846111,
				"element": "H" 
			}
		],
		 "valence_orbital": [ 
			{
				"type": "occ",
				"energy": -0.30608,
				"method": "rhf"
			},
			{
				"type": "occ",
				"energy": -0.30166,
				"method": "rhf"
			},
			{
				"type": "occ",
				"energy": -0.29611,
				"method": "rhf"
			},
			{
				"type": "occ",
				"energy": -0.28672,
				"method": "rhf"
			},
			{
				"type": "occ",
				"energy": -0.28355,
				"method": "rhf"
			},
			{
				"type": "unocc",
				"energy": -0.10072,
				"method": "rhf"
			},
			{
				"type": "unocc",
				"energy": -0.05045,
				"method": "rhf"
			},
			{
				"type": "unocc",
				"energy": -0.01808,
				"method": "rhf"
			},
			{
				"type": "unocc",
				"energy": -0.01486,
				"method": "rhf"
			},
			{
				"type": "unocc",
				"energy": 0.06507,
				"method": "rhf"
			}
		],
		"cosmo_sigma_profile": { 
			"-0.025": 0.0,
			"-0.024": 0.0,
			"-0.023": 0.0,
			"-0.022": 0.0,
			"-0.021": 0.0,
			"-0.02": 0.0,
			"-0.019": 0.0,
			"-0.018": 0.0,
			"-0.017": 0.0,
			"-0.016": 0.312963704226,
			"-0.015": 1.13432898264,
			"-0.014": 1.05343528986,
			"-0.013": 0.870511383421,
			"-0.012": 1.46313266268,
			"-0.011": 2.10293224682,
			"-0.01": 2.79353868806,
			"-0.009": 2.10818772093,
			"-0.008": 6.39420801288,
			"-0.007": 10.528054269,
			"-0.006": 11.6086213344,
			"-0.005": 11.2336295718,
			"-0.004": 12.5627659913,
			"-0.003": 11.7305233981,
			"-0.002": 17.123885283,
			"-0.001": 20.9514736485,
			"0.0": 23.6373570798,
			"0.001": 40.4885882323,
			"0.002": 46.5542708965,
			"0.003": 4.38922449402,
			"0.004": 3.62994231709,
			"0.005": 4.66443323121,
			"0.006": 4.74068658842,
			"0.007": 10.2364713235,
			"0.008": 7.46271825886,
			"0.009": 5.46932340631,
			"0.01": 3.84761152334,
			"0.011": 3.39489669005,
			"0.012": 4.3278424874,
			"0.013": 0.368402437577,
			"0.014": 0.0,
			"0.015": 0.0,
			"0.016": 0.0,
			"0.017": 0.0,
			"0.018": 0.0,
			"0.019": 0.0,
			"0.02": 0.0,
			"0.021": 0.0,
			"0.022": 0.0,
			"0.023": 0.0,
			"0.024": 0.0,
			"0.025": 0.0
		}
	}
}
