{
	 "smiles": "COC1=CC=C(C=N/N=C2NC(=O)C(S2)=CC2=CC=CC=C2)C=C1", 
	 "Tm": 529.15, 
	 "num_atms": 39, 
	 "gaussian": { 
		 "optdone": 1, 
		 "sigma_profile": "yes", 
		 "theory": "DFT", 
		 "functional": "B3LYP", 
		 "basiset": "6-31G**", 
		 "properties": { 
			 "R2extent": 15901.8901, 
			 "electric_dipole_moment_norm": 4.07009907496, 
			 "electric_quadrupole_moment_norm": 17.744779911, 
			 "total_energy": -1407.80517792, 
			 "HOMO_LUMO_gap": 0.12865, 
			 "cosmo_polarized_energy": -14.55, 
			 "cosmo_cavitation_energy": 46.35, 
			 "cosmo_dispersion_energy": -34.31, 
			 "cosmo_repulsion_energy": 2.53, 
			 "cosmo_total_nonelectrostatic_energy": 14.57, 
			 "SMD_solvation_energy": 8.18 
		},
		"coords": [
			{
				"x": 5.4583009287,
				"y": 2.9948950549,
				"z": -2.505127782,
				"element": "C" 
			},
			{
				"x": 5.3084698606,
				"y": 3.6187402288,
				"z": -1.2373966624,
				"element": "O" 
			},
			{
				"x": 4.2697254114,
				"y": 3.2398278331,
				"z": -0.4460248822,
				"element": "C" 
			},
			{
				"x": 3.3189143311,
				"y": 2.266990261,
				"z": -0.7868617675,
				"element": "C" 
			},
			{
				"x": 2.2908366028,
				"y": 1.9518111409,
				"z": 0.0984980224,
				"element": "C" 
			},
			{
				"x": 2.1814684256,
				"y": 2.5960070862,
				"z": 1.346209693,
				"element": "C" 
			},
			{
				"x": 1.1492494348,
				"y": 2.3491189158,
				"z": 2.3541625144,
				"element": "C" 
			},
			{
				"x": 0.1275519005,
				"y": 1.5593410459,
				"z": 2.4219628844,
				"element": "N" 
			},
			{
				"x": -0.0961492168,
				"y": 0.7309184874,
				"z": 1.3179858572,
				"element": "N" 
			},
			{
				"x": -1.1354456759,
				"y": -0.0055814893,
				"z": 1.5053573391,
				"element": "C" 
			},
			{
				"x": -1.9614028887,
				"y": -0.0359181796,
				"z": 2.6032307423,
				"element": "N" 
			},
			{
				"x": -3.0347586378,
				"y": -0.9145616267,
				"z": 2.5957830355,
				"element": "C" 
			},
			{
				"x": -3.8350852892,
				"y": -1.0346287596,
				"z": 3.5051157882,
				"element": "O" 
			},
			{
				"x": -3.0397062323,
				"y": -1.6737440202,
				"z": 1.3047285207,
				"element": "C" 
			},
			{
				"x": -1.6812461305,
				"y": -1.1676405356,
				"z": 0.278150391,
				"element": "S" 
			},
			{
				"x": -4.0032298133,
				"y": -2.5927715614,
				"z": 1.0769672063,
				"element": "C" 
			},
			{
				"x": -4.2655610354,
				"y": -3.4695050819,
				"z": -0.0553475205,
				"element": "C" 
			},
			{
				"x": -3.4869201263,
				"y": -3.5153863404,
				"z": -1.2304121116,
				"element": "C" 
			},
			{
				"x": -3.8119965055,
				"y": -4.3876045494,
				"z": -2.2656893155,
				"element": "C" 
			},
			{
				"x": -4.9179248827,
				"y": -5.2345635709,
				"z": -2.1580238563,
				"element": "C" 
			},
			{
				"x": -5.7014740055,
				"y": -5.2034230007,
				"z": -1.0019646537,
				"element": "C" 
			},
			{
				"x": -5.3785297569,
				"y": -4.332652826,
				"z": 0.0334393541,
				"element": "C" 
			},
			{
				"x": 3.1522512116,
				"y": 3.5724813543,
				"z": 1.6655634817,
				"element": "C" 
			},
			{
				"x": 4.1776907637,
				"y": 3.8934504406,
				"z": 0.7936045391,
				"element": "C" 
			},
			{
				"x": 6.3418871322,
				"y": 3.446046794,
				"z": -2.9586618913,
				"element": "H" 
			},
			{
				"x": 5.6145446196,
				"y": 1.9134293809,
				"z": -2.4067199693,
				"element": "H" 
			},
			{
				"x": 4.5888126692,
				"y": 3.1759214864,
				"z": -3.1492429027,
				"element": "H" 
			},
			{
				"x": 3.3702899411,
				"y": 1.7500175871,
				"z": -1.737775226,
				"element": "H" 
			},
			{
				"x": 1.5596576525,
				"y": 1.2014160268,
				"z": -0.1675015024,
				"element": "H" 
			},
			{
				"x": 1.2556857421,
				"y": 2.96191201,
				"z": 3.2517662916,
				"element": "H" 
			},
			{
				"x": -1.7507157209,
				"y": 0.5867176214,
				"z": 3.3746965569,
				"element": "H" 
			},
			{
				"x": -4.7020922001,
				"y": -2.6768069433,
				"z": 1.9083104861,
				"element": "H" 
			},
			{
				"x": -2.6230197755,
				"y": -2.8711023784,
				"z": -1.3456377303,
				"element": "H" 
			},
			{
				"x": -3.1985892494,
				"y": -4.4062876849,
				"z": -3.1617111128,
				"element": "H" 
			},
			{
				"x": -5.1665005575,
				"y": -5.9128758298,
				"z": -2.9688824806,
				"element": "H" 
			},
			{
				"x": -6.5633076623,
				"y": -5.8575427344,
				"z": -0.9084133273,
				"element": "H" 
			},
			{
				"x": -5.9898187086,
				"y": -4.3105177777,
				"z": 0.931558906,
				"element": "H" 
			},
			{
				"x": 3.09228649,
				"y": 4.0857251919,
				"z": 2.6221198045,
				"element": "H" 
			},
			{
				"x": 4.9209509538,
				"y": 4.6435469431,
				"z": 1.0423832797,
				"element": "H" 
			}
		],
		 "valence_orbital": [ 
			{
				"type": "occ",
				"energy": -0.26121,
				"method": "rhf"
			},
			{
				"type": "occ",
				"energy": -0.25504,
				"method": "rhf"
			},
			{
				"type": "occ",
				"energy": -0.23341,
				"method": "rhf"
			},
			{
				"type": "occ",
				"energy": -0.22922,
				"method": "rhf"
			},
			{
				"type": "occ",
				"energy": -0.20551,
				"method": "rhf"
			},
			{
				"type": "unocc",
				"energy": -0.07686,
				"method": "rhf"
			},
			{
				"type": "unocc",
				"energy": -0.04395,
				"method": "rhf"
			},
			{
				"type": "unocc",
				"energy": -0.01157,
				"method": "rhf"
			},
			{
				"type": "unocc",
				"energy": -0.00433,
				"method": "rhf"
			},
			{
				"type": "unocc",
				"energy": 0.00538,
				"method": "rhf"
			}
		],
		"cosmo_sigma_profile": { 
			"-0.025": 0.0,
			"-0.024": 0.0,
			"-0.023": 0.0,
			"-0.022": 0.0,
			"-0.021": 0.0,
			"-0.02": 0.0,
			"-0.019": 0.0,
			"-0.018": 0.0,
			"-0.017": 0.0,
			"-0.016": 0.0,
			"-0.015": 0.142152024626,
			"-0.014": 0.732087713532,
			"-0.013": 0.615272203922,
			"-0.012": 0.437734368045,
			"-0.011": 1.2655802961,
			"-0.01": 0.316621511301,
			"-0.009": 0.361440820288,
			"-0.008": 2.5777695004,
			"-0.007": 9.22588055259,
			"-0.006": 25.2599476909,
			"-0.005": 29.2116792064,
			"-0.004": 29.3243118225,
			"-0.003": 25.5324876324,
			"-0.002": 24.3968593003,
			"-0.001": 22.8463071335,
			"0.0": 25.1507898249,
			"0.001": 29.4743810284,
			"0.002": 31.0461528349,
			"0.003": 33.4060145232,
			"0.004": 37.0738370939,
			"0.005": 15.2960133344,
			"0.006": 5.35882482096,
			"0.007": 5.60869693287,
			"0.008": 5.28944176576,
			"0.009": 3.06368443953,
			"0.01": 3.25933957408,
			"0.011": 3.83711647091,
			"0.012": 4.46200862778,
			"0.013": 0.381848478753,
			"0.014": 0.0,
			"0.015": 0.0,
			"0.016": 0.0,
			"0.017": 0.0,
			"0.018": 0.0,
			"0.019": 0.0,
			"0.02": 0.0,
			"0.021": 0.0,
			"0.022": 0.0,
			"0.023": 0.0,
			"0.024": 0.0,
			"0.025": 0.0
		}
	}
}
