{
	 "smiles": "NC1=C(C=C(C=C1)C(F)(F)F)[N+]([O-])=O", 
	 "Tm": 380.15, 
	 "num_atms": 19, 
	 "gaussian": { 
		 "optdone": 1, 
		 "sigma_profile": "yes", 
		 "theory": "DFT", 
		 "functional": "B3LYP", 
		 "basiset": "6-31G**", 
		 "properties": { 
			 "R2extent": 3089.1937, 
			 "electric_dipole_moment_norm": 5.17286434096, 
			 "electric_quadrupole_moment_norm": 16.5861659497, 
			 "total_energy": -829.14588252, 
			 "HOMO_LUMO_gap": 0.14731, 
			 "cosmo_polarized_energy": -11.84, 
			 "cosmo_cavitation_energy": 25.41, 
			 "cosmo_dispersion_energy": -18.49, 
			 "cosmo_repulsion_energy": 1.39, 
			 "cosmo_total_nonelectrostatic_energy": 8.31, 
			 "SMD_solvation_energy": 7.53 
		},
		"coords": [
			{
				"x": -0.0667856722,
				"y": 3.5535119688,
				"z": 1.458748567,
				"element": "N" 
			},
			{
				"x": 0.1782184537,
				"y": 2.2485481722,
				"z": 1.2054632204,
				"element": "C" 
			},
			{
				"x": -0.3649806332,
				"y": 1.5351966322,
				"z": 0.0985520028,
				"element": "C" 
			},
			{
				"x": -0.072853869,
				"y": 0.1799339296,
				"z": -0.1105610773,
				"element": "C" 
			},
			{
				"x": 0.7551957934,
				"y": -0.5027036865,
				"z": 0.758078111,
				"element": "C" 
			},
			{
				"x": 1.3060792785,
				"y": 0.1802519603,
				"z": 1.8620534086,
				"element": "C" 
			},
			{
				"x": 1.0261320168,
				"y": 1.5102504744,
				"z": 2.0768411685,
				"element": "C" 
			},
			{
				"x": 1.0823764543,
				"y": -1.9524832503,
				"z": 0.5553000478,
				"element": "C" 
			},
			{
				"x": 0.6987904519,
				"y": -2.6999958769,
				"z": 1.6179382693,
				"element": "F" 
			},
			{
				"x": 0.4840447114,
				"y": -2.4646180532,
				"z": -0.5385644997,
				"element": "F" 
			},
			{
				"x": 2.4163417451,
				"y": -2.1446287289,
				"z": 0.4184308249,
				"element": "F" 
			},
			{
				"x": -1.2443029513,
				"y": 2.1705612191,
				"z": -0.8652736706,
				"element": "N" 
			},
			{
				"x": -1.6785421594,
				"y": 1.4961027154,
				"z": -1.7976032116,
				"element": "O" 
			},
			{
				"x": -1.5274538259,
				"y": 3.3740853667,
				"z": -0.7143749584,
				"element": "O" 
			},
			{
				"x": -0.670986633,
				"y": 4.0615794517,
				"z": 0.828431355,
				"element": "H" 
			},
			{
				"x": 0.3508236487,
				"y": 3.9961530928,
				"z": 2.2600550241,
				"element": "H" 
			},
			{
				"x": -0.5142928695,
				"y": -0.3092801782,
				"z": -0.9682784339,
				"element": "H" 
			},
			{
				"x": 1.9582671276,
				"y": -0.3481532635,
				"z": 2.5504863411,
				"element": "H" 
			},
			{
				"x": 1.4562289321,
				"y": 2.0259880544,
				"z": 2.9305775111,
				"element": "H" 
			}
		],
		 "valence_orbital": [ 
			{
				"type": "occ",
				"energy": -0.31381,
				"method": "rhf"
			},
			{
				"type": "occ",
				"energy": -0.31284,
				"method": "rhf"
			},
			{
				"type": "occ",
				"energy": -0.2955,
				"method": "rhf"
			},
			{
				"type": "occ",
				"energy": -0.29121,
				"method": "rhf"
			},
			{
				"type": "occ",
				"energy": -0.2399,
				"method": "rhf"
			},
			{
				"type": "unocc",
				"energy": -0.09259,
				"method": "rhf"
			},
			{
				"type": "unocc",
				"energy": -0.02671,
				"method": "rhf"
			},
			{
				"type": "unocc",
				"energy": -0.00951,
				"method": "rhf"
			},
			{
				"type": "unocc",
				"energy": 0.06552,
				"method": "rhf"
			},
			{
				"type": "unocc",
				"energy": 0.08375,
				"method": "rhf"
			}
		],
		"cosmo_sigma_profile": { 
			"-0.025": 0.0,
			"-0.024": 0.0,
			"-0.023": 0.0,
			"-0.022": 0.0,
			"-0.021": 0.0,
			"-0.02": 0.0,
			"-0.019": 0.0,
			"-0.018": 0.0,
			"-0.017": 0.0,
			"-0.016": 0.00121997961889,
			"-0.015": 1.42474760848,
			"-0.014": 1.66550942226,
			"-0.013": 1.49797763182,
			"-0.012": 1.77588151858,
			"-0.011": 2.0615416513,
			"-0.01": 2.48981491638,
			"-0.009": 2.52962746942,
			"-0.008": 4.55710644475,
			"-0.007": 4.58740198646,
			"-0.006": 5.4574722077,
			"-0.005": 7.41205215689,
			"-0.004": 7.86654297393,
			"-0.003": 9.38058390559,
			"-0.002": 12.1185845713,
			"-0.001": 13.7513460532,
			"0.0": 18.5067161376,
			"0.001": 21.7510428818,
			"0.002": 23.692676622,
			"0.003": 30.5815179073,
			"0.004": 5.19808429576,
			"0.005": 2.4870690692,
			"0.006": 2.87236662476,
			"0.007": 3.94409413021,
			"0.008": 6.83134987617,
			"0.009": 4.09675519552,
			"0.01": 4.17516838736,
			"0.011": 1.40626443066,
			"0.012": 0.0,
			"0.013": 0.0,
			"0.014": 0.0,
			"0.015": 0.0,
			"0.016": 0.0,
			"0.017": 0.0,
			"0.018": 0.0,
			"0.019": 0.0,
			"0.02": 0.0,
			"0.021": 0.0,
			"0.022": 0.0,
			"0.023": 0.0,
			"0.024": 0.0,
			"0.025": 0.0
		}
	}
}
