{
	 "smiles": "O=C(NC1=CN=NS1)NC1=CC=CC=C1", 
	 "Tm": 485.15, 
	 "num_atms": 23, 
	 "gaussian": { 
		 "optdone": 1, 
		 "sigma_profile": "yes", 
		 "theory": "DFT", 
		 "functional": "B3LYP", 
		 "basiset": "6-31G**", 
		 "properties": { 
			 "R2extent": 6456.5266, 
			 "electric_dipole_moment_norm": 6.53821600897, 
			 "electric_quadrupole_moment_norm": 30.0205762655, 
			 "total_energy": -1040.16812765, 
			 "HOMO_LUMO_gap": 0.17619, 
			 "cosmo_polarized_energy": -22.27, 
			 "cosmo_cavitation_energy": 29.95, 
			 "cosmo_dispersion_energy": -23.04, 
			 "cosmo_repulsion_energy": 1.72, 
			 "cosmo_total_nonelectrostatic_energy": 8.63, 
			 "SMD_solvation_energy": 3.76 
		},
		"coords": [
			{
				"x": 0.6131679663,
				"y": 1.2120515671,
				"z": -1.1327715553,
				"element": "O" 
			},
			{
				"x": -0.5505876328,
				"y": 0.8634178715,
				"z": -1.2379841284,
				"element": "C" 
			},
			{
				"x": -1.3343734598,
				"y": 1.190932796,
				"z": -2.3572537841,
				"element": "N" 
			},
			{
				"x": -0.8872354893,
				"y": 1.9282344954,
				"z": -3.4402514047,
				"element": "C" 
			},
			{
				"x": 0.357827865,
				"y": 2.4867126661,
				"z": -3.6726095253,
				"element": "C" 
			},
			{
				"x": 0.4334826054,
				"y": 3.1518415621,
				"z": -4.8621389927,
				"element": "N" 
			},
			{
				"x": -0.5941155149,
				"y": 3.1841178212,
				"z": -5.5900539527,
				"element": "N" 
			},
			{
				"x": -1.9301798752,
				"y": 2.2792268895,
				"z": -4.7693450471,
				"element": "S" 
			},
			{
				"x": -1.2521516001,
				"y": 0.1225277416,
				"z": -0.3119308726,
				"element": "N" 
			},
			{
				"x": -0.79336444,
				"y": -0.3824194946,
				"z": 0.9278833842,
				"element": "C" 
			},
			{
				"x": -1.7160004075,
				"y": -1.1129695291,
				"z": 1.6928329421,
				"element": "C" 
			},
			{
				"x": -1.3459418931,
				"y": -1.6445970882,
				"z": 2.924896419,
				"element": "C" 
			},
			{
				"x": -0.0514495143,
				"y": -1.4556776132,
				"z": 3.4118373896,
				"element": "C" 
			},
			{
				"x": 0.8623452168,
				"y": -0.7289312918,
				"z": 2.6482063604,
				"element": "C" 
			},
			{
				"x": 0.5088801799,
				"y": -0.1887994673,
				"z": 1.4110394491,
				"element": "C" 
			},
			{
				"x": -2.2922931648,
				"y": 0.8763111897,
				"z": -2.3927891702,
				"element": "H" 
			},
			{
				"x": 1.2095163584,
				"y": 2.4305868543,
				"z": -3.0155711725,
				"element": "H" 
			},
			{
				"x": -2.2147349647,
				"y": -0.1009488725,
				"z": -0.5189242172,
				"element": "H" 
			},
			{
				"x": -2.7273100609,
				"y": -1.2648883323,
				"z": 1.3205186672,
				"element": "H" 
			},
			{
				"x": -2.0735290556,
				"y": -2.2070060934,
				"z": 3.5026059744,
				"element": "H" 
			},
			{
				"x": 0.2396019819,
				"y": -1.869203592,
				"z": 4.3723176084,
				"element": "H" 
			},
			{
				"x": 1.8729981877,
				"y": -0.5742448546,
				"z": 3.0149538207,
				"element": "H" 
			},
			{
				"x": 1.2207467116,
				"y": 0.3731247744,
				"z": 0.8241318078,
				"element": "H" 
			}
		],
		 "valence_orbital": [ 
			{
				"type": "occ",
				"energy": -0.2853,
				"method": "rhf"
			},
			{
				"type": "occ",
				"energy": -0.26117,
				"method": "rhf"
			},
			{
				"type": "occ",
				"energy": -0.25696,
				"method": "rhf"
			},
			{
				"type": "occ",
				"energy": -0.25249,
				"method": "rhf"
			},
			{
				"type": "occ",
				"energy": -0.22944,
				"method": "rhf"
			},
			{
				"type": "unocc",
				"energy": -0.05325,
				"method": "rhf"
			},
			{
				"type": "unocc",
				"energy": -0.03331,
				"method": "rhf"
			},
			{
				"type": "unocc",
				"energy": -0.01203,
				"method": "rhf"
			},
			{
				"type": "unocc",
				"energy": -0.0115,
				"method": "rhf"
			},
			{
				"type": "unocc",
				"energy": 0.03087,
				"method": "rhf"
			}
		],
		"cosmo_sigma_profile": { 
			"-0.025": 0.0,
			"-0.024": 0.0,
			"-0.023": 0.0,
			"-0.022": 0.314436381712,
			"-0.021": 0.740883899541,
			"-0.02": 1.36351480469,
			"-0.019": 1.16298339871,
			"-0.018": 1.67421903562,
			"-0.017": 1.94381574661,
			"-0.016": 1.58093091241,
			"-0.015": 1.46564023164,
			"-0.014": 1.76910530853,
			"-0.013": 1.97569782363,
			"-0.012": 1.41008919209,
			"-0.011": 2.1687239368,
			"-0.01": 1.56851535895,
			"-0.009": 0.882219657578,
			"-0.008": 1.74543050589,
			"-0.007": 3.3453123879,
			"-0.006": 7.0456061199,
			"-0.005": 11.1260541624,
			"-0.004": 11.7650694045,
			"-0.003": 14.2928596063,
			"-0.002": 14.4346044155,
			"-0.001": 17.4884845124,
			"0.0": 19.6226054748,
			"0.001": 20.0664696394,
			"0.002": 20.5699253429,
			"0.003": 15.8214313411,
			"0.004": 14.2070111715,
			"0.005": 14.8234080395,
			"0.006": 9.37275868805,
			"0.007": 3.34826135082,
			"0.008": 5.05606315281,
			"0.009": 6.5909603992,
			"0.01": 5.09591198858,
			"0.011": 4.63021290004,
			"0.012": 2.80624601032,
			"0.013": 0.633517037762,
			"0.014": 0.0,
			"0.015": 0.0,
			"0.016": 0.0,
			"0.017": 0.0,
			"0.018": 0.0,
			"0.019": 0.0,
			"0.02": 0.0,
			"0.021": 0.0,
			"0.022": 0.0,
			"0.023": 0.0,
			"0.024": 0.0,
			"0.025": 0.0
		}
	}
}
