{
	 "smiles": "COC1=CC=C(CCC(O)=O)C=C1", 
	 "Tm": 377.15, 
	 "num_atms": 25, 
	 "gaussian": { 
		 "optdone": 1, 
		 "sigma_profile": "yes", 
		 "theory": "DFT", 
		 "functional": "B3LYP", 
		 "basiset": "6-31G**", 
		 "properties": { 
			 "R2extent": 3388.3261, 
			 "electric_dipole_moment_norm": 2.14370824741, 
			 "electric_quadrupole_moment_norm": 17.944347199, 
			 "total_energy": -613.976799319, 
			 "HOMO_LUMO_gap": 0.21138, 
			 "cosmo_polarized_energy": -12.35, 
			 "cosmo_cavitation_energy": 28.97, 
			 "cosmo_dispersion_energy": -20.59, 
			 "cosmo_repulsion_energy": 1.66, 
			 "cosmo_total_nonelectrostatic_energy": 10.04, 
			 "SMD_solvation_energy": 6.65 
		},
		"coords": [
			{
				"x": -1.2466278523,
				"y": 3.9490697569,
				"z": 0.737475551,
				"element": "C" 
			},
			{
				"x": -1.6344736647,
				"y": 2.5967003383,
				"z": 0.9124570405,
				"element": "O" 
			},
			{
				"x": -0.6938704949,
				"y": 1.6257307241,
				"z": 0.7161723103,
				"element": "C" 
			},
			{
				"x": 0.6384828033,
				"y": 1.8642807862,
				"z": 0.3637761508,
				"element": "C" 
			},
			{
				"x": 1.5116428193,
				"y": 0.7851030036,
				"z": 0.193491037,
				"element": "C" 
			},
			{
				"x": 1.0902789495,
				"y": -0.5358872003,
				"z": 0.3661308597,
				"element": "C" 
			},
			{
				"x": 2.0354244837,
				"y": -1.7004209182,
				"z": 0.1549878751,
				"element": "C" 
			},
			{
				"x": 1.9481600504,
				"y": -2.3261429968,
				"z": -1.2555843407,
				"element": "C" 
			},
			{
				"x": 2.355933271,
				"y": -1.4053755161,
				"z": -2.386123868,
				"element": "C" 
			},
			{
				"x": 3.5259709481,
				"y": -0.7613939067,
				"z": -2.1274339102,
				"element": "O" 
			},
			{
				"x": 1.7588232103,
				"y": -1.2576312743,
				"z": -3.4283079044,
				"element": "O" 
			},
			{
				"x": -0.2514088739,
				"y": -0.7518268258,
				"z": 0.7227029708,
				"element": "C" 
			},
			{
				"x": -1.1340995357,
				"y": 0.3057450703,
				"z": 0.8961629543,
				"element": "C" 
			},
			{
				"x": -2.1378602814,
				"y": 4.5471841536,
				"z": 0.9343416485,
				"element": "H" 
			},
			{
				"x": -0.4557863876,
				"y": 4.2395443381,
				"z": 1.4415806405,
				"element": "H" 
			},
			{
				"x": -0.9016386449,
				"y": 4.1434060032,
				"z": -0.2865063659,
				"element": "H" 
			},
			{
				"x": 1.0075770719,
				"y": 2.8734699387,
				"z": 0.223548554,
				"element": "H" 
			},
			{
				"x": 2.5440819612,
				"y": 0.981667233,
				"z": -0.0826467454,
				"element": "H" 
			},
			{
				"x": 1.8132052176,
				"y": -2.4909187859,
				"z": 0.8812366521,
				"element": "H" 
			},
			{
				"x": 3.0668160338,
				"y": -1.3844487666,
				"z": 0.3372637455,
				"element": "H" 
			},
			{
				"x": 2.6094558811,
				"y": -3.201825959,
				"z": -1.301855218,
				"element": "H" 
			},
			{
				"x": 0.9336789242,
				"y": -2.6656921002,
				"z": -1.4762068818,
				"element": "H" 
			},
			{
				"x": 3.7051442224,
				"y": -0.2175060252,
				"z": -2.9128081506,
				"element": "H" 
			},
			{
				"x": -0.6090118418,
				"y": -1.7682410089,
				"z": 0.8722840663,
				"element": "H" 
			},
			{
				"x": -2.1692982705,
				"y": 0.1385099381,
				"z": 1.1755613286,
				"element": "H" 
			}
		],
		 "valence_orbital": [ 
			{
				"type": "occ",
				"energy": -0.31566,
				"method": "rhf"
			},
			{
				"type": "occ",
				"energy": -0.31,
				"method": "rhf"
			},
			{
				"type": "occ",
				"energy": -0.26935,
				"method": "rhf"
			},
			{
				"type": "occ",
				"energy": -0.24795,
				"method": "rhf"
			},
			{
				"type": "occ",
				"energy": -0.21292,
				"method": "rhf"
			},
			{
				"type": "unocc",
				"energy": -0.00154,
				"method": "rhf"
			},
			{
				"type": "unocc",
				"energy": 0.01282,
				"method": "rhf"
			},
			{
				"type": "unocc",
				"energy": 0.01326,
				"method": "rhf"
			},
			{
				"type": "unocc",
				"energy": 0.07344,
				"method": "rhf"
			},
			{
				"type": "unocc",
				"energy": 0.09649,
				"method": "rhf"
			}
		],
		"cosmo_sigma_profile": { 
			"-0.025": 0.0,
			"-0.024": 0.0,
			"-0.023": 0.0,
			"-0.022": 0.0,
			"-0.021": 0.0,
			"-0.02": 0.0,
			"-0.019": 0.0,
			"-0.018": 0.487052516381,
			"-0.017": 1.06161614507,
			"-0.016": 0.656944697906,
			"-0.015": 0.905708512252,
			"-0.014": 0.791014492988,
			"-0.013": 0.63259886318,
			"-0.012": 0.373732969089,
			"-0.011": 0.527291223809,
			"-0.01": 0.572638301027,
			"-0.009": 1.02282646893,
			"-0.008": 0.626355323603,
			"-0.007": 1.43934665713,
			"-0.006": 8.71293162382,
			"-0.005": 20.6891232848,
			"-0.004": 25.1041096063,
			"-0.003": 25.5956935759,
			"-0.002": 19.5946557324,
			"-0.001": 13.2073618518,
			"0.0": 11.4029127354,
			"0.001": 11.2232326362,
			"0.002": 11.9505812487,
			"0.003": 10.1153321696,
			"0.004": 13.3898610831,
			"0.005": 12.4630436453,
			"0.006": 10.7218498768,
			"0.007": 4.03245269521,
			"0.008": 3.34449313938,
			"0.009": 3.43957005982,
			"0.01": 3.74347181309,
			"0.011": 4.51744775941,
			"0.012": 4.9267291366,
			"0.013": 1.24998431032,
			"0.014": 0.0266766804642,
			"0.015": 0.0,
			"0.016": 0.0,
			"0.017": 0.0,
			"0.018": 0.0,
			"0.019": 0.0,
			"0.02": 0.0,
			"0.021": 0.0,
			"0.022": 0.0,
			"0.023": 0.0,
			"0.024": 0.0,
			"0.025": 0.0
		}
	}
}
