{
	 "smiles": "CCNC(=O)C1=CC(O)=CC=C1", 
	 "Tm": 434.15, 
	 "num_atms": 23, 
	 "gaussian": { 
		 "optdone": 1, 
		 "sigma_profile": "yes", 
		 "theory": "DFT", 
		 "functional": "B3LYP", 
		 "basiset": "6-31G**", 
		 "properties": { 
			 "R2extent": 2884.7237, 
			 "electric_dipole_moment_norm": 4.38219667975, 
			 "electric_quadrupole_moment_norm": 16.1603304471, 
			 "total_energy": -554.805532136, 
			 "HOMO_LUMO_gap": 0.19764, 
			 "cosmo_polarized_energy": -16.92, 
			 "cosmo_cavitation_energy": 26.99, 
			 "cosmo_dispersion_energy": -19.79, 
			 "cosmo_repulsion_energy": 1.6, 
			 "cosmo_total_nonelectrostatic_energy": 8.81, 
			 "SMD_solvation_energy": 5.3 
		},
		"coords": [
			{
				"x": 3.8858675437,
				"y": -0.4587968476,
				"z": 1.5001657056,
				"element": "C" 
			},
			{
				"x": 2.8276110752,
				"y": 0.6380290258,
				"z": 1.3647779333,
				"element": "C" 
			},
			{
				"x": 1.4777149032,
				"y": 0.1003352589,
				"z": 1.2623577887,
				"element": "N" 
			},
			{
				"x": 0.6482944606,
				"y": 0.3831642948,
				"z": 0.2093723612,
				"element": "C" 
			},
			{
				"x": 0.9827000815,
				"y": 1.1074990363,
				"z": -0.7242718805,
				"element": "O" 
			},
			{
				"x": -0.7197958151,
				"y": -0.2471031787,
				"z": 0.2673559598,
				"element": "C" 
			},
			{
				"x": -1.7298380618,
				"y": 0.3737572041,
				"z": -0.4700362216,
				"element": "C" 
			},
			{
				"x": -3.0250193583,
				"y": -0.1493570072,
				"z": -0.4638441022,
				"element": "C" 
			},
			{
				"x": -3.97174122,
				"y": 0.5111033034,
				"z": -1.1924560367,
				"element": "O" 
			},
			{
				"x": -3.309431355,
				"y": -1.3074916966,
				"z": 0.2699842341,
				"element": "C" 
			},
			{
				"x": -2.2926118822,
				"y": -1.9372208652,
				"z": 0.9878407842,
				"element": "C" 
			},
			{
				"x": -1.0001692504,
				"y": -1.4155068541,
				"z": 0.9937795225,
				"element": "C" 
			},
			{
				"x": 3.7187096038,
				"y": -1.0706048899,
				"z": 2.394255207,
				"element": "H" 
			},
			{
				"x": 3.8725186249,
				"y": -1.120493697,
				"z": 0.6291502049,
				"element": "H" 
			},
			{
				"x": 4.8842888173,
				"y": -0.0167918776,
				"z": 1.5829283939,
				"element": "H" 
			},
			{
				"x": 2.8862657667,
				"y": 1.3274584485,
				"z": 2.2178749126,
				"element": "H" 
			},
			{
				"x": 2.9854565565,
				"y": 1.2251856112,
				"z": 0.4580138889,
				"element": "H" 
			},
			{
				"x": 1.0892220967,
				"y": -0.3710329925,
				"z": 2.0648376425,
				"element": "H" 
			},
			{
				"x": -1.5014006406,
				"y": 1.2605825797,
				"z": -1.0496166382,
				"element": "H" 
			},
			{
				"x": -4.8150842059,
				"y": 0.0465281688,
				"z": -1.1152472215,
				"element": "H" 
			},
			{
				"x": -4.3171248217,
				"y": -1.7180602324,
				"z": 0.2717925915,
				"element": "H" 
			},
			{
				"x": -2.5129130918,
				"y": -2.846949973,
				"z": 1.5387798162,
				"element": "H" 
			},
			{
				"x": -0.2134198271,
				"y": -1.9430328197,
				"z": 1.5239051538,
				"element": "H" 
			}
		],
		 "valence_orbital": [ 
			{
				"type": "occ",
				"energy": -0.33319,
				"method": "rhf"
			},
			{
				"type": "occ",
				"energy": -0.25836,
				"method": "rhf"
			},
			{
				"type": "occ",
				"energy": -0.24846,
				"method": "rhf"
			},
			{
				"type": "occ",
				"energy": -0.24179,
				"method": "rhf"
			},
			{
				"type": "occ",
				"energy": -0.22749,
				"method": "rhf"
			},
			{
				"type": "unocc",
				"energy": -0.02985,
				"method": "rhf"
			},
			{
				"type": "unocc",
				"energy": 0.00179,
				"method": "rhf"
			},
			{
				"type": "unocc",
				"energy": 0.0657,
				"method": "rhf"
			},
			{
				"type": "unocc",
				"energy": 0.07,
				"method": "rhf"
			},
			{
				"type": "unocc",
				"energy": 0.08021,
				"method": "rhf"
			}
		],
		"cosmo_sigma_profile": { 
			"-0.025": 0.0,
			"-0.024": 0.0,
			"-0.023": 0.0,
			"-0.022": 0.0,
			"-0.021": 0.0,
			"-0.02": 0.0,
			"-0.019": 0.0,
			"-0.018": 0.569570990919,
			"-0.017": 1.07499290051,
			"-0.016": 1.60864522968,
			"-0.015": 0.849840402791,
			"-0.014": 1.37580730025,
			"-0.013": 1.57197108554,
			"-0.012": 1.75583255339,
			"-0.011": 2.60753825895,
			"-0.01": 2.96211796299,
			"-0.009": 2.45200018773,
			"-0.008": 2.96082281384,
			"-0.007": 3.48464754629,
			"-0.006": 6.71905243142,
			"-0.005": 8.57001923178,
			"-0.004": 13.7599848389,
			"-0.003": 15.5024898996,
			"-0.002": 17.9946302053,
			"-0.001": 15.7337020459,
			"0.0": 16.9147051084,
			"0.001": 15.8443803047,
			"0.002": 11.7715955533,
			"0.003": 14.7330775101,
			"0.004": 13.4572573495,
			"0.005": 9.47125601571,
			"0.006": 3.95897417066,
			"0.007": 2.41920582625,
			"0.008": 3.24274724252,
			"0.009": 3.15367097933,
			"0.01": 3.16248043082,
			"0.011": 3.44731095685,
			"0.012": 1.89147206712,
			"0.013": 2.99911862836,
			"0.014": 5.06067504335,
			"0.015": 0.52768860528,
			"0.016": 0.0,
			"0.017": 0.0,
			"0.018": 0.0,
			"0.019": 0.0,
			"0.02": 0.0,
			"0.021": 0.0,
			"0.022": 0.0,
			"0.023": 0.0,
			"0.024": 0.0,
			"0.025": 0.0
		}
	}
}
