{
	 "smiles": "OC(=O)C1=CC=CS1", 
	 "Tm": 402.15, 
	 "num_atms": 12, 
	 "gaussian": { 
		 "optdone": 1, 
		 "sigma_profile": "yes", 
		 "theory": "DFT", 
		 "functional": "B3LYP", 
		 "basiset": "6-31G**", 
		 "properties": { 
			 "R2extent": 1348.1982, 
			 "electric_dipole_moment_norm": 4.68477845047, 
			 "electric_quadrupole_moment_norm": 10.0256644024, 
			 "total_energy": -741.5657587, 
			 "HOMO_LUMO_gap": 0.19553, 
			 "cosmo_polarized_energy": -12.71, 
			 "cosmo_cavitation_energy": 18.22, 
			 "cosmo_dispersion_energy": -14.3, 
			 "cosmo_repulsion_energy": 1.13, 
			 "cosmo_total_nonelectrostatic_energy": 5.05, 
			 "SMD_solvation_energy": 4.54 
		},
		"coords": [
			{
				"x": 0.1925012125,
				"y": -0.9915462228,
				"z": -2.0907003045,
				"element": "O" 
			},
			{
				"x": 1.3483405569,
				"y": -0.6526043399,
				"z": -1.4598597411,
				"element": "C" 
			},
			{
				"x": 2.3936671206,
				"y": -0.6685738829,
				"z": -2.0669725111,
				"element": "O" 
			},
			{
				"x": 1.272940733,
				"y": -0.2738632675,
				"z": -0.0289015272,
				"element": "C" 
			},
			{
				"x": 2.3602768164,
				"y": 0.0887203526,
				"z": 0.7306466581,
				"element": "C" 
			},
			{
				"x": 2.0257821586,
				"y": 0.4065615977,
				"z": 2.0743345501,
				"element": "C" 
			},
			{
				"x": 0.6846346932,
				"y": 0.2840317992,
				"z": 2.330323212,
				"element": "C" 
			},
			{
				"x": -0.191688803,
				"y": -0.2233331203,
				"z": 0.9285616767,
				"element": "S" 
			},
			{
				"x": -0.5728528242,
				"y": -0.9411909872,
				"z": -1.5007547016,
				"element": "H" 
			},
			{
				"x": 3.3581389067,
				"y": 0.1174278782,
				"z": 0.3106246627,
				"element": "H" 
			},
			{
				"x": 2.7462757196,
				"y": 0.7137659445,
				"z": 2.8233101596,
				"element": "H" 
			},
			{
				"x": 0.1573837097,
				"y": 0.4610042483,
				"z": 3.2576878661,
				"element": "H" 
			}
		],
		 "valence_orbital": [ 
			{
				"type": "occ",
				"energy": -0.3684,
				"method": "rhf"
			},
			{
				"type": "occ",
				"energy": -0.31926,
				"method": "rhf"
			},
			{
				"type": "occ",
				"energy": -0.2783,
				"method": "rhf"
			},
			{
				"type": "occ",
				"energy": -0.27587,
				"method": "rhf"
			},
			{
				"type": "occ",
				"energy": -0.25841,
				"method": "rhf"
			},
			{
				"type": "unocc",
				"energy": -0.06288,
				"method": "rhf"
			},
			{
				"type": "unocc",
				"energy": -0.00907,
				"method": "rhf"
			},
			{
				"type": "unocc",
				"energy": 0.02318,
				"method": "rhf"
			},
			{
				"type": "unocc",
				"energy": 0.05909,
				"method": "rhf"
			},
			{
				"type": "unocc",
				"energy": 0.08904,
				"method": "rhf"
			}
		],
		"cosmo_sigma_profile": { 
			"-0.025": 0.0,
			"-0.024": 0.0,
			"-0.023": 0.0,
			"-0.022": 0.0,
			"-0.021": 0.0,
			"-0.02": 0.0,
			"-0.019": 0.112128202104,
			"-0.018": 0.540753418811,
			"-0.017": 0.851932234236,
			"-0.016": 0.66879834381,
			"-0.015": 0.525086744315,
			"-0.014": 0.620940502163,
			"-0.013": 1.84610843952,
			"-0.012": 1.31608787691,
			"-0.011": 0.750305390979,
			"-0.01": 1.37257192536,
			"-0.009": 3.44570098594,
			"-0.008": 4.39699189754,
			"-0.007": 6.66857187694,
			"-0.006": 5.87418662135,
			"-0.005": 8.58407352256,
			"-0.004": 6.49258785945,
			"-0.003": 7.16571785929,
			"-0.002": 6.53627568115,
			"-0.001": 7.79639809202,
			"0.0": 10.3429553275,
			"0.001": 12.1497045866,
			"0.002": 16.1089359784,
			"0.003": 11.0073144941,
			"0.004": 3.88771510245,
			"0.005": 2.16340972418,
			"0.006": 2.45443927566,
			"0.007": 2.38129634255,
			"0.008": 2.79432897689,
			"0.009": 3.44639951918,
			"0.01": 5.06679914332,
			"0.011": 5.12791903924,
			"0.012": 4.68842304422,
			"0.013": 1.57727986221,
			"0.014": 0.0290281730516,
			"0.015": 0.0,
			"0.016": 0.0,
			"0.017": 0.0,
			"0.018": 0.0,
			"0.019": 0.0,
			"0.02": 0.0,
			"0.021": 0.0,
			"0.022": 0.0,
			"0.023": 0.0,
			"0.024": 0.0,
			"0.025": 0.0
		}
	}
}
