{
	 "smiles": "O=C1CCCC2=C3C=CC4=CC=CC5=C4C3=C(C=C5)C=C12", 
	 "Tm": 447.15, 
	 "num_atms": 35, 
	 "gaussian": { 
		 "optdone": 1, 
		 "sigma_profile": "yes", 
		 "theory": "DFT", 
		 "functional": "B3LYP", 
		 "basiset": "6-31G**", 
		 "properties": { 
			 "R2extent": 6717.8684, 
			 "electric_dipole_moment_norm": 3.38154924702, 
			 "electric_quadrupole_moment_norm": 18.1493366697, 
			 "total_energy": -845.850385649, 
			 "HOMO_LUMO_gap": 0.13871, 
			 "cosmo_polarized_energy": -10.47, 
			 "cosmo_cavitation_energy": 36.36, 
			 "cosmo_dispersion_energy": -27.37, 
			 "cosmo_repulsion_energy": 1.99, 
			 "cosmo_total_nonelectrostatic_energy": 10.98, 
			 "SMD_solvation_energy": 4.99 
		},
		"coords": [
			{
				"x": 3.3185565611,
				"y": -0.068607357,
				"z": -2.8168807417,
				"element": "O" 
			},
			{
				"x": 2.521855176,
				"y": 0.61169142,
				"z": -2.1869574913,
				"element": "C" 
			},
			{
				"x": 2.3140670921,
				"y": 2.0827391691,
				"z": -2.5052292544,
				"element": "C" 
			},
			{
				"x": 0.8801792369,
				"y": 2.5266754741,
				"z": -2.2090338791,
				"element": "C" 
			},
			{
				"x": 0.5143531759,
				"y": 2.2454947191,
				"z": -0.7467626621,
				"element": "C" 
			},
			{
				"x": 0.7908493779,
				"y": 0.8111855423,
				"z": -0.3344187219,
				"element": "C" 
			},
			{
				"x": 0.1238683669,
				"y": 0.2255310346,
				"z": 0.7712752665,
				"element": "C" 
			},
			{
				"x": -0.8178524643,
				"y": 0.9529982783,
				"z": 1.583298556,
				"element": "C" 
			},
			{
				"x": -1.4540203401,
				"y": 0.3740262965,
				"z": 2.6394606036,
				"element": "C" 
			},
			{
				"x": -1.2196708111,
				"y": -0.9948152711,
				"z": 2.9978809038,
				"element": "C" 
			},
			{
				"x": -1.8704898592,
				"y": -1.6118159141,
				"z": 4.0795170689,
				"element": "C" 
			},
			{
				"x": -1.6125391798,
				"y": -2.9430001878,
				"z": 4.3970814514,
				"element": "C" 
			},
			{
				"x": -0.701137398,
				"y": -3.6863894514,
				"z": 3.6471700317,
				"element": "C" 
			},
			{
				"x": -0.0262915057,
				"y": -3.1122235255,
				"z": 2.5588925365,
				"element": "C" 
			},
			{
				"x": -0.2863982192,
				"y": -1.7467445529,
				"z": 2.2221837142,
				"element": "C" 
			},
			{
				"x": 0.3854110161,
				"y": -1.1382268414,
				"z": 1.118392666,
				"element": "C" 
			},
			{
				"x": 1.3243974206,
				"y": -1.9048888015,
				"z": 0.3594651985,
				"element": "C" 
			},
			{
				"x": 1.5673190222,
				"y": -3.2759492308,
				"z": 0.7221475475,
				"element": "C" 
			},
			{
				"x": 0.9215473124,
				"y": -3.8531264135,
				"z": 1.7702481178,
				"element": "C" 
			},
			{
				"x": 1.9825747296,
				"y": -1.2928844438,
				"z": -0.7062143138,
				"element": "C" 
			},
			{
				"x": 1.7318264624,
				"y": 0.041041629,
				"z": -1.0494531595,
				"element": "C" 
			},
			{
				"x": 2.606441153,
				"y": 2.2492375495,
				"z": -3.5455320568,
				"element": "H" 
			},
			{
				"x": 3.0155898443,
				"y": 2.6551791483,
				"z": -1.8792166735,
				"element": "H" 
			},
			{
				"x": 0.1876167048,
				"y": 1.9866015921,
				"z": -2.8671318114,
				"element": "H" 
			},
			{
				"x": 0.7558784865,
				"y": 3.5929495799,
				"z": -2.4262239648,
				"element": "H" 
			},
			{
				"x": -0.5413223203,
				"y": 2.4857386533,
				"z": -0.5891584786,
				"element": "H" 
			},
			{
				"x": 1.0813679883,
				"y": 2.9279003853,
				"z": -0.0945695977,
				"element": "H" 
			},
			{
				"x": -1.0186003289,
				"y": 1.9937415257,
				"z": 1.3570170183,
				"element": "H" 
			},
			{
				"x": -2.1569656038,
				"y": 0.9507230193,
				"z": 3.2350909602,
				"element": "H" 
			},
			{
				"x": -2.5800225548,
				"y": -1.0365018796,
				"z": 4.6682181715,
				"element": "H" 
			},
			{
				"x": -2.1240146214,
				"y": -3.4062990597,
				"z": 5.2358561761,
				"element": "H" 
			},
			{
				"x": -0.5042691038,
				"y": -4.7242369236,
				"z": 3.9023929134,
				"element": "H" 
			},
			{
				"x": 2.2836990693,
				"y": -3.8420370688,
				"z": 0.1331150144,
				"element": "H" 
			},
			{
				"x": 1.1127866373,
				"y": -4.8900684258,
				"z": 2.033417045,
				"element": "H" 
			},
			{
				"x": 2.7132094767,
				"y": -1.8382396684,
				"z": -1.2955381546,
				"element": "H" 
			}
		],
		 "valence_orbital": [ 
			{
				"type": "occ",
				"energy": -0.2738,
				"method": "rhf"
			},
			{
				"type": "occ",
				"energy": -0.25838,
				"method": "rhf"
			},
			{
				"type": "occ",
				"energy": -0.24023,
				"method": "rhf"
			},
			{
				"type": "occ",
				"energy": -0.2352,
				"method": "rhf"
			},
			{
				"type": "occ",
				"energy": -0.20019,
				"method": "rhf"
			},
			{
				"type": "unocc",
				"energy": -0.06148,
				"method": "rhf"
			},
			{
				"type": "unocc",
				"energy": -0.05724,
				"method": "rhf"
			},
			{
				"type": "unocc",
				"energy": -0.00842,
				"method": "rhf"
			},
			{
				"type": "unocc",
				"energy": 0.00657,
				"method": "rhf"
			},
			{
				"type": "unocc",
				"energy": 0.0151,
				"method": "rhf"
			}
		],
		"cosmo_sigma_profile": { 
			"-0.025": 0.0,
			"-0.024": 0.0,
			"-0.023": 0.0,
			"-0.022": 0.0,
			"-0.021": 0.0,
			"-0.02": 0.0,
			"-0.019": 0.0,
			"-0.018": 0.0,
			"-0.017": 0.0,
			"-0.016": 0.0,
			"-0.015": 0.0,
			"-0.014": 0.0,
			"-0.013": 0.0,
			"-0.012": 0.0,
			"-0.011": 0.0,
			"-0.01": 0.0,
			"-0.009": 0.0,
			"-0.008": 0.0,
			"-0.007": 1.39738976127,
			"-0.006": 18.8095037016,
			"-0.005": 23.14867792,
			"-0.004": 28.3654380419,
			"-0.003": 27.7042384588,
			"-0.002": 25.5186804777,
			"-0.001": 19.5628555929,
			"0.0": 15.0257658773,
			"0.001": 14.1737134219,
			"0.002": 27.6876902367,
			"0.003": 41.9023391983,
			"0.004": 22.2458953681,
			"0.005": 7.29165135975,
			"0.006": 1.91265768152,
			"0.007": 1.63337227868,
			"0.008": 1.47224238873,
			"0.009": 1.78768709483,
			"0.01": 1.50531910067,
			"0.011": 2.9560529333,
			"0.012": 4.16955308401,
			"0.013": 2.2467624937,
			"0.014": 0.451517093285,
			"0.015": 0.0,
			"0.016": 0.0,
			"0.017": 0.0,
			"0.018": 0.0,
			"0.019": 0.0,
			"0.02": 0.0,
			"0.021": 0.0,
			"0.022": 0.0,
			"0.023": 0.0,
			"0.024": 0.0,
			"0.025": 0.0
		}
	}
}
