{
	 "smiles": "ClC1=CC=C(C=C1)N=C=S", 
	 "Tm": 318.65, 
	 "num_atms": 14, 
	 "gaussian": { 
		 "optdone": 1, 
		 "sigma_profile": "yes", 
		 "theory": "DFT", 
		 "functional": "B3LYP", 
		 "basiset": "6-31G**", 
		 "properties": { 
			 "R2extent": 3488.9435, 
			 "electric_dipole_moment_norm": 1.94937868307, 
			 "electric_quadrupole_moment_norm": 11.7940378344, 
			 "total_energy": -1182.28082681, 
			 "HOMO_LUMO_gap": 0.17732, 
			 "cosmo_polarized_energy": -5.76, 
			 "cosmo_cavitation_energy": 23.7, 
			 "cosmo_dispersion_energy": -17.94, 
			 "cosmo_repulsion_energy": 1.43, 
			 "cosmo_total_nonelectrostatic_energy": 7.19, 
			 "SMD_solvation_energy": 4.42 
		},
		"coords": [
			{
				"x": 1.9950951704,
				"y": 2.2548832364,
				"z": 3.5254689073,
				"element": "Cl" 
			},
			{
				"x": 1.5712115198,
				"y": 1.2497158736,
				"z": 2.1533485351,
				"element": "C" 
			},
			{
				"x": 1.4269874618,
				"y": 1.832125582,
				"z": 0.8928503053,
				"element": "C" 
			},
			{
				"x": 1.0906431362,
				"y": 1.035537235,
				"z": -0.19694599,
				"element": "C" 
			},
			{
				"x": 0.8987460852,
				"y": -0.3453906158,
				"z": -0.0240200125,
				"element": "C" 
			},
			{
				"x": 1.0467049128,
				"y": -0.9201373556,
				"z": 1.2493832951,
				"element": "C" 
			},
			{
				"x": 1.3830603285,
				"y": -0.1212693324,
				"z": 2.3374658484,
				"element": "C" 
			},
			{
				"x": 0.5670953167,
				"y": -1.1315397219,
				"z": -1.0970151422,
				"element": "N" 
			},
			{
				"x": 0.2849638242,
				"y": -1.8132688922,
				"z": -2.027372107,
				"element": "C" 
			},
			{
				"x": -0.0931105764,
				"y": -2.7276322808,
				"z": -3.2753502424,
				"element": "S" 
			},
			{
				"x": 1.5766667784,
				"y": 2.8984324923,
				"z": 0.7665328407,
				"element": "H" 
			},
			{
				"x": 0.9743664366,
				"y": 1.4712160847,
				"z": -1.1831935595,
				"element": "H" 
			},
			{
				"x": 0.8967573544,
				"y": -1.9868948175,
				"z": 1.3741458342,
				"element": "H" 
			},
			{
				"x": 1.4988122512,
				"y": -0.5581774876,
				"z": 3.3229014873,
				"element": "H" 
			}
		],
		 "valence_orbital": [ 
			{
				"type": "occ",
				"energy": -0.32636,
				"method": "rhf"
			},
			{
				"type": "occ",
				"energy": -0.28881,
				"method": "rhf"
			},
			{
				"type": "occ",
				"energy": -0.28578,
				"method": "rhf"
			},
			{
				"type": "occ",
				"energy": -0.25757,
				"method": "rhf"
			},
			{
				"type": "occ",
				"energy": -0.23486,
				"method": "rhf"
			},
			{
				"type": "unocc",
				"energy": -0.05754,
				"method": "rhf"
			},
			{
				"type": "unocc",
				"energy": -0.03425,
				"method": "rhf"
			},
			{
				"type": "unocc",
				"energy": -0.00143,
				"method": "rhf"
			},
			{
				"type": "unocc",
				"energy": 0.01566,
				"method": "rhf"
			},
			{
				"type": "unocc",
				"energy": 0.03552,
				"method": "rhf"
			}
		],
		"cosmo_sigma_profile": { 
			"-0.025": 0.0,
			"-0.024": 0.0,
			"-0.023": 0.0,
			"-0.022": 0.0,
			"-0.021": 0.0,
			"-0.02": 0.0,
			"-0.019": 0.0,
			"-0.018": 0.0,
			"-0.017": 0.0,
			"-0.016": 0.0,
			"-0.015": 0.0,
			"-0.014": 0.0,
			"-0.013": 0.0,
			"-0.012": 0.0,
			"-0.011": 0.0,
			"-0.01": 0.0,
			"-0.009": 0.344182263993,
			"-0.008": 6.74867420923,
			"-0.007": 8.67747238385,
			"-0.006": 8.72203677262,
			"-0.005": 5.85789518806,
			"-0.004": 7.88977947239,
			"-0.003": 8.86016470415,
			"-0.002": 13.8648337726,
			"-0.001": 20.5794855469,
			"0.0": 18.2963494427,
			"0.001": 23.2364426397,
			"0.002": 22.0396573743,
			"0.003": 12.3525957587,
			"0.004": 16.2859750681,
			"0.005": 10.9115103413,
			"0.006": 12.6108254585,
			"0.007": 0.557499615939,
			"0.008": 0.0,
			"0.009": 0.0,
			"0.01": 0.0,
			"0.011": 0.0,
			"0.012": 0.0,
			"0.013": 0.0,
			"0.014": 0.0,
			"0.015": 0.0,
			"0.016": 0.0,
			"0.017": 0.0,
			"0.018": 0.0,
			"0.019": 0.0,
			"0.02": 0.0,
			"0.021": 0.0,
			"0.022": 0.0,
			"0.023": 0.0,
			"0.024": 0.0,
			"0.025": 0.0
		}
	}
}
