{
	 "smiles": "ClCCN(CCCl)C1=CC=C(C=C2SC(=S)N(CN3CCOCC3)C2=O)C=C1", 
	 "Tm": 437.15, 
	 "num_atms": 51, 
	 "gaussian": { 
		 "optdone": 1, 
		 "sigma_profile": "yes", 
		 "theory": "DFT", 
		 "functional": "B3LYP", 
		 "basiset": "6-31G**", 
		 "properties": { 
			 "R2extent": 24634.0823, 
			 "electric_dipole_moment_norm": 8.26648823927, 
			 "electric_quadrupole_moment_norm": 27.3800025183, 
			 "total_energy": -2769.32004297, 
			 "HOMO_LUMO_gap": 0.11509, 
			 "cosmo_polarized_energy": -23.93, 
			 "cosmo_cavitation_energy": 58.54, 
			 "cosmo_dispersion_energy": -42.04, 
			 "cosmo_repulsion_energy": 3.11, 
			 "cosmo_total_nonelectrostatic_energy": 19.6, 
			 "SMD_solvation_energy": 5.9 
		},
		"coords": [
			{
				"x": -5.0875097558,
				"y": -0.7022331184,
				"z": 3.8431866383,
				"element": "Cl" 
			},
			{
				"x": -4.6628789959,
				"y": 0.6870684811,
				"z": 4.923489703,
				"element": "C" 
			},
			{
				"x": -3.1557340184,
				"y": 0.8956518284,
				"z": 5.0867149862,
				"element": "C" 
			},
			{
				"x": -2.4530818235,
				"y": 1.3501714712,
				"z": 3.8939703715,
				"element": "N" 
			},
			{
				"x": -2.5526018109,
				"y": 2.7779424258,
				"z": 3.6144781244,
				"element": "C" 
			},
			{
				"x": -1.4495639288,
				"y": 3.5853629602,
				"z": 4.3112612142,
				"element": "C" 
			},
			{
				"x": -1.6547223517,
				"y": 5.353809072,
				"z": 3.9736667945,
				"element": "Cl" 
			},
			{
				"x": -1.5944698994,
				"y": 0.5317708621,
				"z": 3.1658258085,
				"element": "C" 
			},
			{
				"x": -0.7352083277,
				"y": 1.0673081508,
				"z": 2.1745865376,
				"element": "C" 
			},
			{
				"x": 0.130588691,
				"y": 0.2692319855,
				"z": 1.445799159,
				"element": "C" 
			},
			{
				"x": 0.2013654935,
				"y": -1.1254881816,
				"z": 1.6597739396,
				"element": "C" 
			},
			{
				"x": 1.0597826331,
				"y": -2.069917876,
				"z": 0.9774717915,
				"element": "C" 
			},
			{
				"x": 2.0194074359,
				"y": -1.9942423481,
				"z": 0.0079904515,
				"element": "C" 
			},
			{
				"x": 2.843256292,
				"y": -3.4804975286,
				"z": -0.5366487979,
				"element": "S" 
			},
			{
				"x": 3.8541916134,
				"y": -2.6100214567,
				"z": -1.6886207883,
				"element": "C" 
			},
			{
				"x": 4.9823497786,
				"y": -3.3594398483,
				"z": -2.6373448931,
				"element": "S" 
			},
			{
				"x": 3.557806174,
				"y": -1.2696411326,
				"z": -1.6409224991,
				"element": "N" 
			},
			{
				"x": 4.2237633437,
				"y": -0.2738671332,
				"z": -2.5260231182,
				"element": "C" 
			},
			{
				"x": 3.6292585172,
				"y": -0.1883583187,
				"z": -3.8245968868,
				"element": "N" 
			},
			{
				"x": 4.5440362582,
				"y": -0.2841482356,
				"z": -4.9646321914,
				"element": "C" 
			},
			{
				"x": 3.7529034124,
				"y": -0.1043989583,
				"z": -6.2542340844,
				"element": "C" 
			},
			{
				"x": 3.1289051845,
				"y": 1.1771722407,
				"z": -6.3483783175,
				"element": "O" 
			},
			{
				"x": 2.8327352813,
				"y": 1.7821697031,
				"z": -5.0925849861,
				"element": "C" 
			},
			{
				"x": 2.5144827799,
				"y": 0.7538254354,
				"z": -4.0079714432,
				"element": "C" 
			},
			{
				"x": 2.5602388027,
				"y": -0.8457834864,
				"z": -0.739756816,
				"element": "C" 
			},
			{
				"x": 2.2415715964,
				"y": 0.3351594034,
				"z": -0.6480031963,
				"element": "O" 
			},
			{
				"x": -0.6686085249,
				"y": -1.6552474394,
				"z": 2.6423016058,
				"element": "C" 
			},
			{
				"x": -1.5403651422,
				"y": -0.8675477945,
				"z": 3.3705418013,
				"element": "C" 
			},
			{
				"x": -5.1134607477,
				"y": 0.4780225238,
				"z": 5.8960696199,
				"element": "H" 
			},
			{
				"x": -5.1457761577,
				"y": 1.5668963075,
				"z": 4.4947695993,
				"element": "H" 
			},
			{
				"x": -3.0388859837,
				"y": 1.6550479905,
				"z": 5.8739560926,
				"element": "H" 
			},
			{
				"x": -2.6905856283,
				"y": -0.0117013344,
				"z": 5.4733672054,
				"element": "H" 
			},
			{
				"x": -2.5281993089,
				"y": 2.9566530969,
				"z": 2.537238427,
				"element": "H" 
			},
			{
				"x": -3.5262613677,
				"y": 3.1361999034,
				"z": 3.9610852606,
				"element": "H" 
			},
			{
				"x": -0.4574854871,
				"y": 3.3034254569,
				"z": 3.9588115505,
				"element": "H" 
			},
			{
				"x": -1.4881732604,
				"y": 3.4640080097,
				"z": 5.3951875831,
				"element": "H" 
			},
			{
				"x": -0.730729494,
				"y": 2.1299499605,
				"z": 1.9658050528,
				"element": "H" 
			},
			{
				"x": 0.7728320043,
				"y": 0.7213909351,
				"z": 0.7020852571,
				"element": "H" 
			},
			{
				"x": 0.8935350446,
				"y": -3.0877713667,
				"z": 1.3323311048,
				"element": "H" 
			},
			{
				"x": 4.1776303673,
				"y": 0.663746483,
				"z": -1.9609794692,
				"element": "H" 
			},
			{
				"x": 5.2608100102,
				"y": -0.6002902916,
				"z": -2.6155347226,
				"element": "H" 
			},
			{
				"x": 5.0218531357,
				"y": -1.2700588889,
				"z": -4.9603403945,
				"element": "H" 
			},
			{
				"x": 5.3477203056,
				"y": 0.4741907041,
				"z": -4.9336661843,
				"element": "H" 
			},
			{
				"x": 2.9940177932,
				"y": -0.8987660375,
				"z": -6.3229174391,
				"element": "H" 
			},
			{
				"x": 4.4182866621,
				"y": -0.1985506822,
				"z": -7.1188853297,
				"element": "H" 
			},
			{
				"x": 1.9724048731,
				"y": 2.4407858038,
				"z": -5.2549444151,
				"element": "H" 
			},
			{
				"x": 3.6758369748,
				"y": 2.4128758774,
				"z": -4.7664246737,
				"element": "H" 
			},
			{
				"x": 1.5979756632,
				"y": 0.2136572053,
				"z": -4.2865577558,
				"element": "H" 
			},
			{
				"x": 2.3055697807,
				"y": 1.2644601515,
				"z": -3.0623151988,
				"element": "H" 
			},
			{
				"x": -0.6659495659,
				"y": -2.7265097979,
				"z": 2.827684035,
				"element": "H" 
			},
			{
				"x": -2.2119643219,
				"y": -1.3516731735,
				"z": 4.0667338859,
				"element": "H" 
			}
		],
		 "valence_orbital": [ 
			{
				"type": "occ",
				"energy": -0.24206,
				"method": "rhf"
			},
			{
				"type": "occ",
				"energy": -0.24159,
				"method": "rhf"
			},
			{
				"type": "occ",
				"energy": -0.2232,
				"method": "rhf"
			},
			{
				"type": "occ",
				"energy": -0.20949,
				"method": "rhf"
			},
			{
				"type": "occ",
				"energy": -0.20322,
				"method": "rhf"
			},
			{
				"type": "unocc",
				"energy": -0.08813,
				"method": "rhf"
			},
			{
				"type": "unocc",
				"energy": -0.03275,
				"method": "rhf"
			},
			{
				"type": "unocc",
				"energy": -0.01636,
				"method": "rhf"
			},
			{
				"type": "unocc",
				"energy": 0.00099,
				"method": "rhf"
			},
			{
				"type": "unocc",
				"energy": 0.00482,
				"method": "rhf"
			}
		],
		"cosmo_sigma_profile": { 
			"-0.025": 0.0,
			"-0.024": 0.0,
			"-0.023": 0.0,
			"-0.022": 0.0,
			"-0.021": 0.0,
			"-0.02": 0.0,
			"-0.019": 0.0,
			"-0.018": 0.0,
			"-0.017": 0.0,
			"-0.016": 0.0,
			"-0.015": 0.0,
			"-0.014": 0.0,
			"-0.013": 0.0,
			"-0.012": 0.0,
			"-0.011": 0.0,
			"-0.01": 0.120124297021,
			"-0.009": 5.90104935442,
			"-0.008": 15.3059453217,
			"-0.007": 21.049447397,
			"-0.006": 19.3959172306,
			"-0.005": 27.2711196405,
			"-0.004": 40.4518896241,
			"-0.003": 43.548015764,
			"-0.002": 31.9475459266,
			"-0.001": 23.4038569809,
			"0.0": 25.9740069119,
			"0.001": 30.3514942619,
			"0.002": 30.3298973953,
			"0.003": 32.6584420152,
			"0.004": 33.6123812843,
			"0.005": 25.2192671731,
			"0.006": 26.8812788861,
			"0.007": 16.6065583901,
			"0.008": 7.61509245506,
			"0.009": 5.50430793239,
			"0.01": 4.01026683372,
			"0.011": 1.56255201695,
			"0.012": 1.24972373219,
			"0.013": 1.84703218506,
			"0.014": 1.25150389718,
			"0.015": 0.00205516245127,
			"0.016": 0.0,
			"0.017": 0.0,
			"0.018": 0.0,
			"0.019": 0.0,
			"0.02": 0.0,
			"0.021": 0.0,
			"0.022": 0.0,
			"0.023": 0.0,
			"0.024": 0.0,
			"0.025": 0.0
		}
	}
}
