{
	 "smiles": "BrCCCN1C(=O)C2=CC=CC=C2C1=O", 
	 "Tm": 347.65, 
	 "num_atms": 25, 
	 "gaussian": { 
		 "optdone": 1, 
		 "sigma_profile": "yes", 
		 "theory": "DFT", 
		 "functional": "B3LYP", 
		 "basiset": "6-31G**", 
		 "properties": { 
			 "R2extent": 7753.9898, 
			 "electric_dipole_moment_norm": 3.92619009474, 
			 "electric_quadrupole_moment_norm": 14.6546635393, 
			 "total_energy": -3201.84277412, 
			 "HOMO_LUMO_gap": 0.17994, 
			 "cosmo_polarized_energy": -12.75, 
			 "cosmo_cavitation_energy": 32.31, 
			 "cosmo_dispersion_energy": -23.28, 
			 "cosmo_repulsion_energy": 1.83, 
			 "cosmo_total_nonelectrostatic_energy": 10.87, 
			 "SMD_solvation_energy": 5.06 
		},
		"coords": [
			{
				"x": 4.2576944382,
				"y": -1.2546707919,
				"z": 4.1400832682,
				"element": "Br" 
			},
			{
				"x": 3.9295242046,
				"y": -1.3129668474,
				"z": 2.1895700025,
				"element": "C" 
			},
			{
				"x": 2.6278965701,
				"y": -0.6159115719,
				"z": 1.8226667729,
				"element": "C" 
			},
			{
				"x": 2.3882581456,
				"y": -0.6712943599,
				"z": 0.3026526004,
				"element": "C" 
			},
			{
				"x": 1.1502199335,
				"y": -0.0135136079,
				"z": -0.0838705013,
				"element": "N" 
			},
			{
				"x": -0.0930297012,
				"y": -0.6652283854,
				"z": -0.1542401744,
				"element": "C" 
			},
			{
				"x": -0.2796199298,
				"y": -1.8423842612,
				"z": 0.0827600617,
				"element": "O" 
			},
			{
				"x": -1.0706687918,
				"y": 0.3826834058,
				"z": -0.5739194602,
				"element": "C" 
			},
			{
				"x": -2.4360650203,
				"y": 0.2926826965,
				"z": -0.8015547992,
				"element": "C" 
			},
			{
				"x": -3.1024599164,
				"y": 1.4616402244,
				"z": -1.1936514906,
				"element": "C" 
			},
			{
				"x": -2.4118961659,
				"y": 2.6704511337,
				"z": -1.3490431956,
				"element": "C" 
			},
			{
				"x": -1.0319511184,
				"y": 2.7505786883,
				"z": -1.1174900716,
				"element": "C" 
			},
			{
				"x": -0.3818562025,
				"y": 1.5884225015,
				"z": -0.7288772507,
				"element": "C" 
			},
			{
				"x": 1.0580853567,
				"y": 1.3497397796,
				"z": -0.4131464872,
				"element": "C" 
			},
			{
				"x": 1.9896334331,
				"y": 2.1299151465,
				"z": -0.4276659943,
				"element": "O" 
			},
			{
				"x": 3.9217190017,
				"y": -2.3722641836,
				"z": 1.9304991943,
				"element": "H" 
			},
			{
				"x": 4.7992862281,
				"y": -0.8355848117,
				"z": 1.7369092838,
				"element": "H" 
			},
			{
				"x": 2.6623901467,
				"y": 0.4293254815,
				"z": 2.1448869135,
				"element": "H" 
			},
			{
				"x": 1.7907412679,
				"y": -1.0969045741,
				"z": 2.3377811046,
				"element": "H" 
			},
			{
				"x": 2.3226990634,
				"y": -1.7083348326,
				"z": -0.0389290464,
				"element": "H" 
			},
			{
				"x": 3.1999971476,
				"y": -0.1712126997,
				"z": -0.2334448953,
				"element": "H" 
			},
			{
				"x": -2.9607840282,
				"y": -0.6492152573,
				"z": -0.678547631,
				"element": "H" 
			},
			{
				"x": -4.1717440841,
				"y": 1.4320055526,
				"z": -1.3804335887,
				"element": "H" 
			},
			{
				"x": -2.9566670871,
				"y": 3.5589589476,
				"z": -1.6538621525,
				"element": "H" 
			},
			{
				"x": -0.4868028916,
				"y": 3.6814826266,
				"z": -1.235232463,
				"element": "H" 
			}
		],
		 "valence_orbital": [ 
			{
				"type": "occ",
				"energy": -0.2815,
				"method": "rhf"
			},
			{
				"type": "occ",
				"energy": -0.2774,
				"method": "rhf"
			},
			{
				"type": "occ",
				"energy": -0.2722,
				"method": "rhf"
			},
			{
				"type": "occ",
				"energy": -0.2716,
				"method": "rhf"
			},
			{
				"type": "occ",
				"energy": -0.26572,
				"method": "rhf"
			},
			{
				"type": "unocc",
				"energy": -0.08578,
				"method": "rhf"
			},
			{
				"type": "unocc",
				"energy": -0.04451,
				"method": "rhf"
			},
			{
				"type": "unocc",
				"energy": -0.00173,
				"method": "rhf"
			},
			{
				"type": "unocc",
				"energy": 0.02448,
				"method": "rhf"
			},
			{
				"type": "unocc",
				"energy": 0.06841,
				"method": "rhf"
			}
		],
		"cosmo_sigma_profile": { 
			"-0.025": 0.0,
			"-0.024": 0.0,
			"-0.023": 0.0,
			"-0.022": 0.0,
			"-0.021": 0.0,
			"-0.02": 0.0,
			"-0.019": 0.0,
			"-0.018": 0.0,
			"-0.017": 0.0,
			"-0.016": 0.0,
			"-0.015": 0.0,
			"-0.014": 0.0,
			"-0.013": 0.0,
			"-0.012": 0.0,
			"-0.011": 0.0,
			"-0.01": 0.0,
			"-0.009": 0.0,
			"-0.008": 2.67249400165,
			"-0.007": 15.5635561044,
			"-0.006": 18.2360948907,
			"-0.005": 19.5095265585,
			"-0.004": 23.3197393361,
			"-0.003": 21.4181920044,
			"-0.002": 15.9186388443,
			"-0.001": 17.563233362,
			"0.0": 18.1010232716,
			"0.001": 17.3753821865,
			"0.002": 19.6264341853,
			"0.003": 10.2929674555,
			"0.004": 8.36896423194,
			"0.005": 9.23692127931,
			"0.006": 13.4881622765,
			"0.007": 5.5658317477,
			"0.008": 3.42157441119,
			"0.009": 3.09761920613,
			"0.01": 4.83917696871,
			"0.011": 9.40646123759,
			"0.012": 4.04970633788,
			"0.013": 0.0408809700575,
			"0.014": 0.0,
			"0.015": 0.0,
			"0.016": 0.0,
			"0.017": 0.0,
			"0.018": 0.0,
			"0.019": 0.0,
			"0.02": 0.0,
			"0.021": 0.0,
			"0.022": 0.0,
			"0.023": 0.0,
			"0.024": 0.0,
			"0.025": 0.0
		}
	}
}
