{
	 "smiles": "OC(=O)CC1=CC(Br)=CN=C1", 
	 "Tm": 456.65, 
	 "num_atms": 17, 
	 "gaussian": { 
		 "optdone": 1, 
		 "sigma_profile": "yes", 
		 "theory": "DFT", 
		 "functional": "B3LYP", 
		 "basiset": "6-31G**", 
		 "properties": { 
			 "R2extent": 4964.8645, 
			 "electric_dipole_moment_norm": 2.8241814407, 
			 "electric_quadrupole_moment_norm": 14.7797959516, 
			 "total_energy": -3046.96319542, 
			 "HOMO_LUMO_gap": 0.20592, 
			 "cosmo_polarized_energy": -15.58, 
			 "cosmo_cavitation_energy": 24.42, 
			 "cosmo_dispersion_energy": -18.02, 
			 "cosmo_repulsion_energy": 1.46, 
			 "cosmo_total_nonelectrostatic_energy": 7.86, 
			 "SMD_solvation_energy": 2.73 
		},
		"coords": [
			{
				"x": -1.9467070502,
				"y": 1.611670452,
				"z": 2.2156143028,
				"element": "O" 
			},
			{
				"x": -0.6428471347,
				"y": 1.3405745121,
				"z": 1.974841518,
				"element": "C" 
			},
			{
				"x": 0.1735195473,
				"y": 1.3890060573,
				"z": 2.8583921063,
				"element": "O" 
			},
			{
				"x": -0.266413035,
				"y": 1.0278744432,
				"z": 0.5158304146,
				"element": "C" 
			},
			{
				"x": -1.3337779719,
				"y": 0.3382224546,
				"z": -0.3010919762,
				"element": "C" 
			},
			{
				"x": -1.5543051476,
				"y": -1.0427437198,
				"z": -0.1953428369,
				"element": "C" 
			},
			{
				"x": -2.5640713272,
				"y": -1.6155296478,
				"z": -0.9589218733,
				"element": "C" 
			},
			{
				"x": -2.9057588773,
				"y": -3.4855605114,
				"z": -0.8654934548,
				"element": "Br" 
			},
			{
				"x": -3.3354775948,
				"y": -0.8109015335,
				"z": -1.8043328865,
				"element": "C" 
			},
			{
				"x": -3.1339711153,
				"y": 0.503090324,
				"z": -1.9125230557,
				"element": "N" 
			},
			{
				"x": -2.1574575833,
				"y": 1.0538096282,
				"z": -1.1812207745,
				"element": "C" 
			},
			{
				"x": -2.4707920916,
				"y": 1.4847195128,
				"z": 1.4095977307,
				"element": "H" 
			},
			{
				"x": 0.6515258549,
				"y": 0.4374884325,
				"z": 0.557404755,
				"element": "H" 
			},
			{
				"x": -0.0044892524,
				"y": 1.9867750503,
				"z": 0.0514161581,
				"element": "H" 
			},
			{
				"x": -0.9476881716,
				"y": -1.6542359643,
				"z": 0.4651245642,
				"element": "H" 
			},
			{
				"x": -4.1295729057,
				"y": -1.2455628066,
				"z": -2.4055574256,
				"element": "H" 
			},
			{
				"x": -2.0115161438,
				"y": 2.1260033164,
				"z": -1.3109372664,
				"element": "H" 
			}
		],
		 "valence_orbital": [ 
			{
				"type": "occ",
				"energy": -0.31439,
				"method": "rhf"
			},
			{
				"type": "occ",
				"energy": -0.31177,
				"method": "rhf"
			},
			{
				"type": "occ",
				"energy": -0.28542,
				"method": "rhf"
			},
			{
				"type": "occ",
				"energy": -0.27828,
				"method": "rhf"
			},
			{
				"type": "occ",
				"energy": -0.26709,
				"method": "rhf"
			},
			{
				"type": "unocc",
				"energy": -0.06117,
				"method": "rhf"
			},
			{
				"type": "unocc",
				"energy": -0.04743,
				"method": "rhf"
			},
			{
				"type": "unocc",
				"energy": -0.01323,
				"method": "rhf"
			},
			{
				"type": "unocc",
				"energy": 0.00268,
				"method": "rhf"
			},
			{
				"type": "unocc",
				"energy": 0.06886,
				"method": "rhf"
			}
		],
		"cosmo_sigma_profile": { 
			"-0.025": 0.0,
			"-0.024": 0.0,
			"-0.023": 0.0,
			"-0.022": 0.0,
			"-0.021": 0.0,
			"-0.02": 0.0,
			"-0.019": 0.0,
			"-0.018": 0.0,
			"-0.017": 0.0,
			"-0.016": 0.11120285937,
			"-0.015": 0.724322269345,
			"-0.014": 1.00466314511,
			"-0.013": 1.73066491728,
			"-0.012": 1.11681453737,
			"-0.011": 1.32685145408,
			"-0.01": 2.30658598915,
			"-0.009": 6.49403722955,
			"-0.008": 9.41744095511,
			"-0.007": 10.5881961102,
			"-0.006": 8.2482137565,
			"-0.005": 9.55095082633,
			"-0.004": 10.3914732474,
			"-0.003": 10.3302359316,
			"-0.002": 9.54341052503,
			"-0.001": 14.1003763057,
			"0.0": 16.395033039,
			"0.001": 9.86840529601,
			"0.002": 10.4420547832,
			"0.003": 11.671964805,
			"0.004": 12.4382414251,
			"0.005": 3.64425709975,
			"0.006": 3.11762710714,
			"0.007": 3.43416814338,
			"0.008": 4.40245753853,
			"0.009": 4.16152811416,
			"0.01": 6.26528919243,
			"0.011": 5.8813448217,
			"0.012": 6.04527254819,
			"0.013": 2.70385366525,
			"0.014": 0.766265181411,
			"0.015": 0.594981671863,
			"0.016": 0.11527438175,
			"0.017": 0.0,
			"0.018": 0.0,
			"0.019": 0.0,
			"0.02": 0.0,
			"0.021": 0.0,
			"0.022": 0.0,
			"0.023": 0.0,
			"0.024": 0.0,
			"0.025": 0.0
		}
	}
}
