{
	 "smiles": "CCCCCCCCCC=O", 
	 "Tm": 267.65, 
	 "num_atms": 31, 
	 "gaussian": { 
		 "optdone": 1, 
		 "sigma_profile": "yes", 
		 "theory": "DFT", 
		 "functional": "B3LYP", 
		 "basiset": "6-31G**", 
		 "properties": { 
			 "R2extent": 3465.4297, 
			 "electric_dipole_moment_norm": 2.42914929348, 
			 "electric_quadrupole_moment_norm": 12.5738583844, 
			 "total_energy": -468.354171332, 
			 "HOMO_LUMO_gap": 0.23301, 
			 "cosmo_polarized_energy": -5.8, 
			 "cosmo_cavitation_energy": 31.44, 
			 "cosmo_dispersion_energy": -22.11, 
			 "cosmo_repulsion_energy": 1.84, 
			 "cosmo_total_nonelectrostatic_energy": 11.18, 
			 "SMD_solvation_energy": 5.34 
		},
		"coords": [
			{
				"x": 2.7018676521,
				"y": 0.9167834059,
				"z": 2.7681756542,
				"element": "C" 
			},
			{
				"x": 1.9203425378,
				"y": -0.392837137,
				"z": 2.6071607037,
				"element": "C" 
			},
			{
				"x": 1.6651890196,
				"y": -0.8079052083,
				"z": 1.1487722258,
				"element": "C" 
			},
			{
				"x": 0.7446315538,
				"y": 0.1359942261,
				"z": 0.3614385492,
				"element": "C" 
			},
			{
				"x": 0.4618773397,
				"y": -0.3639706573,
				"z": -1.0627163083,
				"element": "C" 
			},
			{
				"x": -0.3655586408,
				"y": 0.5997085617,
				"z": -1.9313142224,
				"element": "C" 
			},
			{
				"x": -1.7917535915,
				"y": 0.9007217119,
				"z": -1.4357019389,
				"element": "C" 
			},
			{
				"x": -2.7851121685,
				"y": -0.276574444,
				"z": -1.4348011873,
				"element": "C" 
			},
			{
				"x": -3.1326708683,
				"y": -0.8197381503,
				"z": -2.8297378196,
				"element": "C" 
			},
			{
				"x": -2.2886994144,
				"y": -1.9732931791,
				"z": -3.3247409168,
				"element": "C" 
			},
			{
				"x": -1.4960166467,
				"y": -2.6034680283,
				"z": -2.6585332075,
				"element": "O" 
			},
			{
				"x": 2.8970173248,
				"y": 1.1328851613,
				"z": 3.8239374372,
				"element": "H" 
			},
			{
				"x": 3.6699864705,
				"y": 0.8628535787,
				"z": 2.2562203777,
				"element": "H" 
			},
			{
				"x": 2.1571624249,
				"y": 1.7716289789,
				"z": 2.3543854668,
				"element": "H" 
			},
			{
				"x": 0.9586202859,
				"y": -0.3109443376,
				"z": 3.1325894181,
				"element": "H" 
			},
			{
				"x": 2.4708566367,
				"y": -1.1984876808,
				"z": 3.1099213519,
				"element": "H" 
			},
			{
				"x": 1.2254815563,
				"y": -1.8144424685,
				"z": 1.1394470564,
				"element": "H" 
			},
			{
				"x": 2.627963353,
				"y": -0.894769712,
				"z": 0.6243863513,
				"element": "H" 
			},
			{
				"x": 1.1915025218,
				"y": 1.1383951324,
				"z": 0.3091685999,
				"element": "H" 
			},
			{
				"x": -0.1972395268,
				"y": 0.2514052769,
				"z": 0.9156702414,
				"element": "H" 
			},
			{
				"x": 1.4214545585,
				"y": -0.5363621567,
				"z": -1.5693973215,
				"element": "H" 
			},
			{
				"x": -0.0323289615,
				"y": -1.341392354,
				"z": -1.0246533496,
				"element": "H" 
			},
			{
				"x": -0.4105962541,
				"y": 0.2000073987,
				"z": -2.9532461505,
				"element": "H" 
			},
			{
				"x": 0.1724485494,
				"y": 1.5546033484,
				"z": -2.0115588638,
				"element": "H" 
			},
			{
				"x": -1.7424938679,
				"y": 1.3092292962,
				"z": -0.418879145,
				"element": "H" 
			},
			{
				"x": -2.2122872895,
				"y": 1.7048655685,
				"z": -2.056035174,
				"element": "H" 
			},
			{
				"x": -3.7098144353,
				"y": 0.0637538655,
				"z": -0.9550386182,
				"element": "H" 
			},
			{
				"x": -2.4041822923,
				"y": -1.1021125408,
				"z": -0.8241563405,
				"element": "H" 
			},
			{
				"x": -3.1083575526,
				"y": -0.030891216,
				"z": -3.5959047125,
				"element": "H" 
			},
			{
				"x": -4.1675313352,
				"y": -1.197352465,
				"z": -2.8585319786,
				"element": "H" 
			},
			{
				"x": -2.4714589393,
				"y": -2.2503937752,
				"z": -4.3887261786,
				"element": "H" 
			}
		],
		 "valence_orbital": [ 
			{
				"type": "occ",
				"energy": -0.31457,
				"method": "rhf"
			},
			{
				"type": "occ",
				"energy": -0.30581,
				"method": "rhf"
			},
			{
				"type": "occ",
				"energy": -0.30345,
				"method": "rhf"
			},
			{
				"type": "occ",
				"energy": -0.29498,
				"method": "rhf"
			},
			{
				"type": "occ",
				"energy": -0.25459,
				"method": "rhf"
			},
			{
				"type": "unocc",
				"energy": -0.02158,
				"method": "rhf"
			},
			{
				"type": "unocc",
				"energy": 0.08129,
				"method": "rhf"
			},
			{
				"type": "unocc",
				"energy": 0.09603,
				"method": "rhf"
			},
			{
				"type": "unocc",
				"energy": 0.11005,
				"method": "rhf"
			},
			{
				"type": "unocc",
				"energy": 0.11631,
				"method": "rhf"
			}
		],
		"cosmo_sigma_profile": { 
			"-0.025": 0.0,
			"-0.024": 0.0,
			"-0.023": 0.0,
			"-0.022": 0.0,
			"-0.021": 0.0,
			"-0.02": 0.0,
			"-0.019": 0.0,
			"-0.018": 0.0,
			"-0.017": 0.0,
			"-0.016": 0.0,
			"-0.015": 0.0,
			"-0.014": 0.0,
			"-0.013": 0.0,
			"-0.012": 0.0,
			"-0.011": 0.0,
			"-0.01": 0.0,
			"-0.009": 0.0,
			"-0.008": 0.0,
			"-0.007": 0.254253916708,
			"-0.006": 8.32474351583,
			"-0.005": 10.3401621143,
			"-0.004": 8.22546590309,
			"-0.003": 10.8228223454,
			"-0.002": 27.6462434879,
			"-0.001": 42.3851425184,
			"0.0": 47.323038062,
			"0.001": 43.9466433749,
			"0.002": 18.7114637426,
			"0.003": 2.6636732052,
			"0.004": 2.11076384037,
			"0.005": 2.18822198982,
			"0.006": 2.11869568306,
			"0.007": 2.79230730841,
			"0.008": 1.57271008292,
			"0.009": 2.02045279962,
			"0.01": 2.42001416729,
			"0.011": 2.97866656175,
			"0.012": 2.09267806623,
			"0.013": 0.910121099247,
			"0.014": 0.0,
			"0.015": 0.0,
			"0.016": 0.0,
			"0.017": 0.0,
			"0.018": 0.0,
			"0.019": 0.0,
			"0.02": 0.0,
			"0.021": 0.0,
			"0.022": 0.0,
			"0.023": 0.0,
			"0.024": 0.0,
			"0.025": 0.0
		}
	}
}
