{
	 "smiles": "CC(C)OC(=O)NC1=CC=CC(Cl)=C1", 
	 "Tm": 315.15, 
	 "num_atms": 26, 
	 "gaussian": { 
		 "optdone": 1, 
		 "sigma_profile": "yes", 
		 "theory": "DFT", 
		 "functional": "B3LYP", 
		 "basiset": "6-31G**", 
		 "properties": { 
			 "R2extent": 5844.4263, 
			 "electric_dipole_moment_norm": 2.71436845325, 
			 "electric_quadrupole_moment_norm": 5.77467213875, 
			 "total_energy": -1053.72507529, 
			 "HOMO_LUMO_gap": 0.21185, 
			 "cosmo_polarized_energy": -9.93, 
			 "cosmo_cavitation_energy": 31.8, 
			 "cosmo_dispersion_energy": -22.77, 
			 "cosmo_repulsion_energy": 1.81, 
			 "cosmo_total_nonelectrostatic_energy": 10.83, 
			 "SMD_solvation_energy": 6.33 
		},
		"coords": [
			{
				"x": -2.5776602654,
				"y": 2.1671480752,
				"z": -1.5828912726,
				"element": "C" 
			},
			{
				"x": -2.1904096245,
				"y": 1.2651504767,
				"z": -2.7456119817,
				"element": "C" 
			},
			{
				"x": -3.3600846385,
				"y": 0.4834637305,
				"z": -3.3322840716,
				"element": "C" 
			},
			{
				"x": -1.1991674675,
				"y": 0.3308653692,
				"z": -2.2124854428,
				"element": "O" 
			},
			{
				"x": -0.334101352,
				"y": -0.1894965751,
				"z": -3.1043878658,
				"element": "C" 
			},
			{
				"x": -0.3163039811,
				"y": 0.0649546984,
				"z": -4.2958789577,
				"element": "O" 
			},
			{
				"x": 0.5735044242,
				"y": -1.0671552404,
				"z": -2.5444642263,
				"element": "N" 
			},
			{
				"x": 0.8012351408,
				"y": -1.5390662766,
				"z": -1.2386356709,
				"element": "C" 
			},
			{
				"x": 0.0252709028,
				"y": -1.2040864355,
				"z": -0.1178429618,
				"element": "C" 
			},
			{
				"x": 0.3500105418,
				"y": -1.7415549355,
				"z": 1.1270615727,
				"element": "C" 
			},
			{
				"x": 1.4278170142,
				"y": -2.6094290243,
				"z": 1.2981747258,
				"element": "C" 
			},
			{
				"x": 2.1862618741,
				"y": -2.9322603454,
				"z": 0.1744971978,
				"element": "C" 
			},
			{
				"x": 3.5562774825,
				"y": -4.0235566867,
				"z": 0.3384317086,
				"element": "Cl" 
			},
			{
				"x": 1.891258028,
				"y": -2.4136569826,
				"z": -1.0805577655,
				"element": "C" 
			},
			{
				"x": -1.7003401164,
				"y": 2.6767555005,
				"z": -1.1752547411,
				"element": "H" 
			},
			{
				"x": -3.2900509258,
				"y": 2.9251611823,
				"z": -1.9224684038,
				"element": "H" 
			},
			{
				"x": -3.0499030394,
				"y": 1.5912537139,
				"z": -0.780266552,
				"element": "H" 
			},
			{
				"x": -1.6978182102,
				"y": 1.8395537314,
				"z": -3.5343678343,
				"element": "H" 
			},
			{
				"x": -3.8258871833,
				"y": -0.1471000763,
				"z": -2.5679685664,
				"element": "H" 
			},
			{
				"x": -3.0220644761,
				"y": -0.1458906146,
				"z": -4.1584361213,
				"element": "H" 
			},
			{
				"x": -4.1171469838,
				"y": 1.1749195354,
				"z": -3.7162347161,
				"element": "H" 
			},
			{
				"x": 1.2013847345,
				"y": -1.4175161531,
				"z": -3.2543647592,
				"element": "H" 
			},
			{
				"x": -0.8156955718,
				"y": -0.5360198307,
				"z": -0.2222235537,
				"element": "H" 
			},
			{
				"x": -0.2573788595,
				"y": -1.4750859746,
				"z": 1.9872113658,
				"element": "H" 
			},
			{
				"x": 1.6746408832,
				"y": -3.0240243678,
				"z": 2.2682819867,
				"element": "H" 
			},
			{
				"x": 2.5052516691,
				"y": -2.6862264943,
				"z": -1.9331330928,
				"element": "H" 
			}
		],
		 "valence_orbital": [ 
			{
				"type": "occ",
				"energy": -0.31063,
				"method": "rhf"
			},
			{
				"type": "occ",
				"energy": -0.30067,
				"method": "rhf"
			},
			{
				"type": "occ",
				"energy": -0.28266,
				"method": "rhf"
			},
			{
				"type": "occ",
				"energy": -0.2525,
				"method": "rhf"
			},
			{
				"type": "occ",
				"energy": -0.22691,
				"method": "rhf"
			},
			{
				"type": "unocc",
				"energy": -0.01506,
				"method": "rhf"
			},
			{
				"type": "unocc",
				"energy": -0.01412,
				"method": "rhf"
			},
			{
				"type": "unocc",
				"energy": 0.02676,
				"method": "rhf"
			},
			{
				"type": "unocc",
				"energy": 0.05668,
				"method": "rhf"
			},
			{
				"type": "unocc",
				"energy": 0.07914,
				"method": "rhf"
			}
		],
		"cosmo_sigma_profile": { 
			"-0.025": 0.0,
			"-0.024": 0.0,
			"-0.023": 0.0,
			"-0.022": 0.0,
			"-0.021": 0.0,
			"-0.02": 0.0,
			"-0.019": 0.0,
			"-0.018": 0.0,
			"-0.017": 0.0,
			"-0.016": 0.140277945327,
			"-0.015": 1.12269865377,
			"-0.014": 1.09774372738,
			"-0.013": 1.39905996272,
			"-0.012": 0.808383299912,
			"-0.011": 1.04457447758,
			"-0.01": 1.58367733734,
			"-0.009": 1.34513267303,
			"-0.008": 1.40458919495,
			"-0.007": 3.33489332503,
			"-0.006": 4.90299414217,
			"-0.005": 8.7831878085,
			"-0.004": 21.2435348182,
			"-0.003": 20.4636798793,
			"-0.002": 23.6475389169,
			"-0.001": 23.0794541579,
			"0.0": 29.142504143,
			"0.001": 21.4047946398,
			"0.002": 21.0860621186,
			"0.003": 20.7639391175,
			"0.004": 20.5723356457,
			"0.005": 10.4599094277,
			"0.006": 1.58402772456,
			"0.007": 1.24143392761,
			"0.008": 1.32993014818,
			"0.009": 0.94689477335,
			"0.01": 1.01267911176,
			"0.011": 2.21694827652,
			"0.012": 3.35883376654,
			"0.013": 3.90397534102,
			"0.014": 0.0822190402619,
			"0.015": 0.0,
			"0.016": 0.0,
			"0.017": 0.0,
			"0.018": 0.0,
			"0.019": 0.0,
			"0.02": 0.0,
			"0.021": 0.0,
			"0.022": 0.0,
			"0.023": 0.0,
			"0.024": 0.0,
			"0.025": 0.0
		}
	}
}
