{
	 "smiles": "[O-][N+](=O)C1=CC(N=C=S)=C(Cl)C=C1", 
	 "Tm": 341.65, 
	 "num_atms": 16, 
	 "gaussian": { 
		 "optdone": 1, 
		 "sigma_profile": "yes", 
		 "theory": "DFT", 
		 "functional": "B3LYP", 
		 "basiset": "6-31G**", 
		 "properties": { 
			 "R2extent": 4398.158, 
			 "electric_dipole_moment_norm": 2.86916312014, 
			 "electric_quadrupole_moment_norm": 16.2850005966, 
			 "total_energy": -1386.76965947, 
			 "HOMO_LUMO_gap": 0.1458, 
			 "cosmo_polarized_energy": -8.9, 
			 "cosmo_cavitation_energy": 27.01, 
			 "cosmo_dispersion_energy": -19.93, 
			 "cosmo_repulsion_energy": 1.55, 
			 "cosmo_total_nonelectrostatic_energy": 8.63, 
			 "SMD_solvation_energy": 7.26 
		},
		"coords": [
			{
				"x": 3.2425918715,
				"y": 0.9949445799,
				"z": -2.0687071571,
				"element": "O" 
			},
			{
				"x": 2.7446356481,
				"y": 0.2701522048,
				"z": -1.2097888225,
				"element": "N" 
			},
			{
				"x": 3.1217075466,
				"y": -0.8678263617,
				"z": -0.9381779208,
				"element": "O" 
			},
			{
				"x": 1.605551631,
				"y": 0.8101212911,
				"z": -0.4463536781,
				"element": "C" 
			},
			{
				"x": 1.0244525416,
				"y": 0.0120488735,
				"z": 0.5296297687,
				"element": "C" 
			},
			{
				"x": -0.0602516694,
				"y": 0.51364407,
				"z": 1.2641505389,
				"element": "C" 
			},
			{
				"x": -0.6456360774,
				"y": -0.2521324831,
				"z": 2.2243029339,
				"element": "N" 
			},
			{
				"x": -1.1476086149,
				"y": -0.9029630785,
				"z": 3.0847554675,
				"element": "C" 
			},
			{
				"x": -1.8154271166,
				"y": -1.7795390809,
				"z": 4.2251257034,
				"element": "S" 
			},
			{
				"x": -0.5298899933,
				"y": 1.8197035839,
				"z": 0.9857611378,
				"element": "C" 
			},
			{
				"x": -1.8731481751,
				"y": 2.4605859976,
				"z": 1.883178572,
				"element": "Cl" 
			},
			{
				"x": 0.0755316788,
				"y": 2.5969106654,
				"z": -0.0015379616,
				"element": "C" 
			},
			{
				"x": 1.1518502365,
				"y": 2.0969629798,
				"z": -0.7282016102,
				"element": "C" 
			},
			{
				"x": 1.4046442718,
				"y": -0.9830405127,
				"z": 0.7197638326,
				"element": "H" 
			},
			{
				"x": -0.3027712971,
				"y": 3.5939475014,
				"z": -0.195100516,
				"element": "H" 
			},
			{
				"x": 1.637667518,
				"y": 2.6810797693,
				"z": -1.4990002885,
				"element": "H" 
			}
		],
		 "valence_orbital": [ 
			{
				"type": "occ",
				"energy": -0.32081,
				"method": "rhf"
			},
			{
				"type": "occ",
				"energy": -0.30837,
				"method": "rhf"
			},
			{
				"type": "occ",
				"energy": -0.29431,
				"method": "rhf"
			},
			{
				"type": "occ",
				"energy": -0.27144,
				"method": "rhf"
			},
			{
				"type": "occ",
				"energy": -0.25454,
				"method": "rhf"
			},
			{
				"type": "unocc",
				"energy": -0.10874,
				"method": "rhf"
			},
			{
				"type": "unocc",
				"energy": -0.07555,
				"method": "rhf"
			},
			{
				"type": "unocc",
				"energy": -0.03149,
				"method": "rhf"
			},
			{
				"type": "unocc",
				"energy": -0.01714,
				"method": "rhf"
			},
			{
				"type": "unocc",
				"energy": 6e-05,
				"method": "rhf"
			}
		],
		"cosmo_sigma_profile": { 
			"-0.025": 0.0,
			"-0.024": 0.0,
			"-0.023": 0.0,
			"-0.022": 0.0,
			"-0.021": 0.0,
			"-0.02": 0.0,
			"-0.019": 0.0,
			"-0.018": 0.0,
			"-0.017": 0.0,
			"-0.016": 0.0,
			"-0.015": 0.0,
			"-0.014": 0.0,
			"-0.013": 0.0,
			"-0.012": 0.0,
			"-0.011": 0.0,
			"-0.01": 0.720067373095,
			"-0.009": 3.84949475065,
			"-0.008": 6.05364024526,
			"-0.007": 6.31647531417,
			"-0.006": 7.16089060455,
			"-0.005": 6.3749782165,
			"-0.004": 11.4280007425,
			"-0.003": 22.2139992346,
			"-0.002": 26.6340881339,
			"-0.001": 19.9467248544,
			"0.0": 18.229714841,
			"0.001": 14.2187301361,
			"0.002": 15.5874103224,
			"0.003": 14.9313896471,
			"0.004": 10.9545860108,
			"0.005": 16.5491875785,
			"0.006": 4.49924913135,
			"0.007": 9.78596586844,
			"0.008": 5.0780477868,
			"0.009": 3.57915200397,
			"0.01": 0.881484036922,
			"0.011": 0.0,
			"0.012": 0.0,
			"0.013": 0.0,
			"0.014": 0.0,
			"0.015": 0.0,
			"0.016": 0.0,
			"0.017": 0.0,
			"0.018": 0.0,
			"0.019": 0.0,
			"0.02": 0.0,
			"0.021": 0.0,
			"0.022": 0.0,
			"0.023": 0.0,
			"0.024": 0.0,
			"0.025": 0.0
		}
	}
}
