{
	 "smiles": "CC(Cl)C(=O)NC1=CC=C(I)C=C1", 
	 "Tm": 433.15, 
	 "num_atms": 22, 
	 "gaussian": { 
		 "optdone": 1, 
		 "sigma_profile": "yes", 
		 "theory": "DFT", 
		 "functional": "B3LYP", 
		 "basiset": "6-31G**", 
		 "properties": { 
			 "R2extent": 4471.503, 
			 "electric_dipole_moment_norm": 2.45649344799, 
			 "electric_quadrupole_moment_norm": 15.4452428097, 
			 "total_energy": -949.945471791, 
			 "HOMO_LUMO_gap": 0.19153, 
			 "cosmo_polarized_energy": -11.47, 
			 "cosmo_cavitation_energy": 30.57, 
			 "cosmo_dispersion_energy": -23.28, 
			 "cosmo_repulsion_energy": 1.83, 
			 "cosmo_total_nonelectrostatic_energy": 9.13, 
			 "SMD_solvation_energy": 4.71 
		},
		"coords": [
			{
				"x": 2.9079180841,
				"y": -0.376574796,
				"z": -1.8282975201,
				"element": "C" 
			},
			{
				"x": 3.1851703741,
				"y": 1.0583097301,
				"z": -2.2576425839,
				"element": "C" 
			},
			{
				"x": 2.2260835914,
				"y": 1.4987371708,
				"z": -3.7611386033,
				"element": "Cl" 
			},
			{
				"x": 3.0446607304,
				"y": 2.1563247528,
				"z": -1.1899675515,
				"element": "C" 
			},
			{
				"x": 3.958694144,
				"y": 2.9573092611,
				"z": -1.0563963701,
				"element": "O" 
			},
			{
				"x": 1.9611166756,
				"y": 2.2241045921,
				"z": -0.3364057513,
				"element": "N" 
			},
			{
				"x": 0.7635148618,
				"y": 1.4769256822,
				"z": -0.1748767029,
				"element": "C" 
			},
			{
				"x": 0.4290669368,
				"y": 1.041247945,
				"z": 1.1153749848,
				"element": "C" 
			},
			{
				"x": -0.7632447475,
				"y": 0.3602012975,
				"z": 1.3519445598,
				"element": "C" 
			},
			{
				"x": -1.6254092549,
				"y": 0.0971180615,
				"z": 0.2854298239,
				"element": "C" 
			},
			{
				"x": -3.4318218168,
				"y": -0.9550739944,
				"z": 0.6293039378,
				"element": "I" 
			},
			{
				"x": -1.3084377374,
				"y": 0.5291246806,
				"z": -1.0032634228,
				"element": "C" 
			},
			{
				"x": -0.1252051507,
				"y": 1.2337782077,
				"z": -1.2287711374,
				"element": "C" 
			},
			{
				"x": 3.5129275442,
				"y": -0.607377461,
				"z": -0.9440587407,
				"element": "H" 
			},
			{
				"x": 3.1982071792,
				"y": -1.0616561813,
				"z": -2.6283951331,
				"element": "H" 
			},
			{
				"x": 1.8594279878,
				"y": -0.5491768726,
				"z": -1.5867863168,
				"element": "H" 
			},
			{
				"x": 4.2195743521,
				"y": 1.1637001178,
				"z": -2.5807287223,
				"element": "H" 
			},
			{
				"x": 2.1317890064,
				"y": 2.9313470768,
				"z": 0.3696339609,
				"element": "H" 
			},
			{
				"x": 1.1122485423,
				"y": 1.2311645697,
				"z": 1.9384914033,
				"element": "H" 
			},
			{
				"x": -1.007021951,
				"y": 0.0307880426,
				"z": 2.3556060366,
				"element": "H" 
			},
			{
				"x": -1.9840157627,
				"y": 0.3413294494,
				"z": -1.8301347746,
				"element": "H" 
			},
			{
				"x": 0.1038564108,
				"y": 1.5960486675,
				"z": -2.2231213762,
				"element": "H" 
			}
		],
		 "valence_orbital": [ 
			{
				"type": "occ",
				"energy": -0.2796,
				"method": "rhf"
			},
			{
				"type": "occ",
				"energy": -0.27746,
				"method": "rhf"
			},
			{
				"type": "occ",
				"energy": -0.27544,
				"method": "rhf"
			},
			{
				"type": "occ",
				"energy": -0.26807,
				"method": "rhf"
			},
			{
				"type": "occ",
				"energy": -0.23758,
				"method": "rhf"
			},
			{
				"type": "unocc",
				"energy": -0.04605,
				"method": "rhf"
			},
			{
				"type": "unocc",
				"energy": -0.0429,
				"method": "rhf"
			},
			{
				"type": "unocc",
				"energy": -0.02974,
				"method": "rhf"
			},
			{
				"type": "unocc",
				"energy": -0.0171,
				"method": "rhf"
			},
			{
				"type": "unocc",
				"energy": 0.03803,
				"method": "rhf"
			}
		],
		"cosmo_sigma_profile": { 
			"-0.025": 0.0,
			"-0.024": 0.0,
			"-0.023": 0.0,
			"-0.022": 0.0,
			"-0.021": 0.0,
			"-0.02": 0.0,
			"-0.019": 0.0,
			"-0.018": 0.0,
			"-0.017": 0.0,
			"-0.016": 0.0,
			"-0.015": 0.283689054943,
			"-0.014": 1.16284819335,
			"-0.013": 0.757509640758,
			"-0.012": 1.16884178889,
			"-0.011": 1.31724688099,
			"-0.01": 1.26223911236,
			"-0.009": 0.778005735067,
			"-0.008": 3.04910672855,
			"-0.007": 9.39864101857,
			"-0.006": 13.2074903501,
			"-0.005": 15.3618762071,
			"-0.004": 13.2748783406,
			"-0.003": 14.2494200254,
			"-0.002": 19.7699062727,
			"-0.001": 19.9856252441,
			"0.0": 17.4232935598,
			"0.001": 21.3468471216,
			"0.002": 22.2545972063,
			"0.003": 22.467738203,
			"0.004": 20.1974859666,
			"0.005": 11.9214005173,
			"0.006": 4.17089608564,
			"0.007": 1.35847379382,
			"0.008": 1.22581964298,
			"0.009": 1.34042947593,
			"0.01": 1.03767876635,
			"0.011": 2.79968625563,
			"0.012": 4.1657003774,
			"0.013": 3.93649565314,
			"0.014": 0.237402048044,
			"0.015": 0.0,
			"0.016": 0.0,
			"0.017": 0.0,
			"0.018": 0.0,
			"0.019": 0.0,
			"0.02": 0.0,
			"0.021": 0.0,
			"0.022": 0.0,
			"0.023": 0.0,
			"0.024": 0.0,
			"0.025": 0.0
		}
	}
}
