{
	 "smiles": "COC(=O)C1=NN(CO)C(C)=C1", 
	 "Tm": 362.15, 
	 "num_atms": 22, 
	 "gaussian": { 
		 "optdone": 1, 
		 "sigma_profile": "yes", 
		 "theory": "DFT", 
		 "functional": "B3LYP", 
		 "basiset": "6-31G**", 
		 "properties": { 
			 "R2extent": 3186.1637, 
			 "electric_dipole_moment_norm": 2.08755572381, 
			 "electric_quadrupole_moment_norm": 6.91612481813, 
			 "total_energy": -607.930609192, 
			 "HOMO_LUMO_gap": 0.2214, 
			 "cosmo_polarized_energy": -14.71, 
			 "cosmo_cavitation_energy": 26.91, 
			 "cosmo_dispersion_energy": -19.36, 
			 "cosmo_repulsion_energy": 1.58, 
			 "cosmo_total_nonelectrostatic_energy": 9.13, 
			 "SMD_solvation_energy": 5.53 
		},
		"coords": [
			{
				"x": -1.2043766486,
				"y": 3.1381273512,
				"z": 3.0751707842,
				"element": "C" 
			},
			{
				"x": -1.1621503349,
				"y": 1.7927723357,
				"z": 2.5784753867,
				"element": "O" 
			},
			{
				"x": -0.7511782724,
				"y": 1.6722187225,
				"z": 1.299995598,
				"element": "C" 
			},
			{
				"x": -0.4366813285,
				"y": 2.6146471069,
				"z": 0.5975472782,
				"element": "O" 
			},
			{
				"x": -0.7223090472,
				"y": 0.2703864907,
				"z": 0.8322141529,
				"element": "C" 
			},
			{
				"x": -1.0672549008,
				"y": -0.765980212,
				"z": 1.6003303713,
				"element": "N" 
			},
			{
				"x": -0.8848401334,
				"y": -1.8441319716,
				"z": 0.8089197625,
				"element": "N" 
			},
			{
				"x": -1.2857429734,
				"y": -3.1507813607,
				"z": 1.304662621,
				"element": "C" 
			},
			{
				"x": -2.5396260324,
				"y": -3.5612707139,
				"z": 0.8210476112,
				"element": "O" 
			},
			{
				"x": -0.4551456061,
				"y": -1.517716616,
				"z": -0.4566442081,
				"element": "C" 
			},
			{
				"x": -0.2171945058,
				"y": -2.5449009835,
				"z": -1.5168845051,
				"element": "C" 
			},
			{
				"x": -0.3322541369,
				"y": -0.144623033,
				"z": -0.4651248175,
				"element": "C" 
			},
			{
				"x": -1.8937321659,
				"y": 3.7478985277,
				"z": 2.4850884708,
				"element": "H" 
			},
			{
				"x": -1.5499406221,
				"y": 3.0590350973,
				"z": 4.1059222555,
				"element": "H" 
			},
			{
				"x": -0.2126092058,
				"y": 3.596491359,
				"z": 3.0372792266,
				"element": "H" 
			},
			{
				"x": -0.5675664009,
				"y": -3.8984300301,
				"z": 0.9615252282,
				"element": "H" 
			},
			{
				"x": -1.248391002,
				"y": -3.0747815817,
				"z": 2.3959863956,
				"element": "H" 
			},
			{
				"x": -3.2037328058,
				"y": -2.9522381459,
				"z": 1.1734838401,
				"element": "H" 
			},
			{
				"x": 0.0136369081,
				"y": -2.0528714687,
				"z": -2.4637645455,
				"element": "H" 
			},
			{
				"x": 0.6253627834,
				"y": -3.2017943859,
				"z": -1.2688111534,
				"element": "H" 
			},
			{
				"x": -1.0999046602,
				"y": -3.1764115756,
				"z": -1.660828339,
				"element": "H" 
			},
			{
				"x": -0.0072689083,
				"y": 0.4875550877,
				"z": -1.2769914142,
				"element": "H" 
			}
		],
		 "valence_orbital": [ 
			{
				"type": "occ",
				"energy": -0.29708,
				"method": "rhf"
			},
			{
				"type": "occ",
				"energy": -0.29319,
				"method": "rhf"
			},
			{
				"type": "occ",
				"energy": -0.26746,
				"method": "rhf"
			},
			{
				"type": "occ",
				"energy": -0.25859,
				"method": "rhf"
			},
			{
				"type": "occ",
				"energy": -0.24723,
				"method": "rhf"
			},
			{
				"type": "unocc",
				"energy": -0.02583,
				"method": "rhf"
			},
			{
				"type": "unocc",
				"energy": 0.02367,
				"method": "rhf"
			},
			{
				"type": "unocc",
				"energy": 0.07271,
				"method": "rhf"
			},
			{
				"type": "unocc",
				"energy": 0.09375,
				"method": "rhf"
			},
			{
				"type": "unocc",
				"energy": 0.11889,
				"method": "rhf"
			}
		],
		"cosmo_sigma_profile": { 
			"-0.025": 0.0,
			"-0.024": 0.0,
			"-0.023": 0.0,
			"-0.022": 0.0,
			"-0.021": 0.0,
			"-0.02": 0.0,
			"-0.019": 0.0,
			"-0.018": 0.0,
			"-0.017": 0.238652409724,
			"-0.016": 0.974642052728,
			"-0.015": 1.05660118065,
			"-0.014": 0.902648014236,
			"-0.013": 0.537845501136,
			"-0.012": 1.00453154703,
			"-0.011": 0.652855954803,
			"-0.01": 0.68916278117,
			"-0.009": 1.30546708572,
			"-0.008": 2.28535871739,
			"-0.007": 7.77773073018,
			"-0.006": 13.9287914031,
			"-0.005": 18.5539333912,
			"-0.004": 18.5440543004,
			"-0.003": 19.2069946666,
			"-0.002": 15.0950550171,
			"-0.001": 14.5110624803,
			"0.0": 10.3211558118,
			"0.001": 9.90254423225,
			"0.002": 11.2070392858,
			"0.003": 11.7869619354,
			"0.004": 7.43065045948,
			"0.005": 4.9819588349,
			"0.006": 4.27357640066,
			"0.007": 4.26876882213,
			"0.008": 4.11285857161,
			"0.009": 4.74424874937,
			"0.01": 3.55979247984,
			"0.011": 6.05767241015,
			"0.012": 8.03977117674,
			"0.013": 2.40302007646,
			"0.014": 1.51593019429,
			"0.015": 0.79171707135,
			"0.016": 0.16125690625,
			"0.017": 0.0,
			"0.018": 0.0,
			"0.019": 0.0,
			"0.02": 0.0,
			"0.021": 0.0,
			"0.022": 0.0,
			"0.023": 0.0,
			"0.024": 0.0,
			"0.025": 0.0
		}
	}
}
