{
	 "smiles": "ClC1=C(OCCBr)C=CC(C=O)=C1", 
	 "Tm": 335.15, 
	 "num_atms": 21, 
	 "gaussian": { 
		 "optdone": 1, 
		 "sigma_profile": "yes", 
		 "theory": "DFT", 
		 "functional": "B3LYP", 
		 "basiset": "6-31G**", 
		 "properties": { 
			 "R2extent": 6472.0959, 
			 "electric_dipole_moment_norm": 3.11959165437, 
			 "electric_quadrupole_moment_norm": 18.0112503292, 
			 "total_energy": -3529.80255806, 
			 "HOMO_LUMO_gap": 0.18776, 
			 "cosmo_polarized_energy": -10.57, 
			 "cosmo_cavitation_energy": 30.23, 
			 "cosmo_dispersion_energy": -21.95, 
			 "cosmo_repulsion_energy": 1.76, 
			 "cosmo_total_nonelectrostatic_energy": 10.04, 
			 "SMD_solvation_energy": 4.86 
		},
		"coords": [
			{
				"x": 2.9402239869,
				"y": -1.0060541445,
				"z": -1.2672201489,
				"element": "Cl" 
			},
			{
				"x": 2.302250365,
				"y": 0.457937946,
				"z": -0.5482467508,
				"element": "C" 
			},
			{
				"x": 1.0337000606,
				"y": 0.4360553887,
				"z": 0.0667759301,
				"element": "C" 
			},
			{
				"x": 0.3007380198,
				"y": -0.7158795399,
				"z": 0.1450243789,
				"element": "O" 
			},
			{
				"x": -0.5081908257,
				"y": -1.0216222043,
				"z": -1.0069680548,
				"element": "C" 
			},
			{
				"x": -1.0894779092,
				"y": -2.3995200094,
				"z": -0.749065195,
				"element": "C" 
			},
			{
				"x": -2.2780299163,
				"y": -2.9015704463,
				"z": -2.2362367887,
				"element": "Br" 
			},
			{
				"x": 0.5432403121,
				"y": 1.6030706104,
				"z": 0.6612872355,
				"element": "C" 
			},
			{
				"x": 1.2973724875,
				"y": 2.7724571951,
				"z": 0.6440462636,
				"element": "C" 
			},
			{
				"x": 2.5533725076,
				"y": 2.7879157704,
				"z": 0.026232057,
				"element": "C" 
			},
			{
				"x": 3.3599511436,
				"y": 4.0299814278,
				"z": 0.0039876752,
				"element": "C" 
			},
			{
				"x": 4.4573575338,
				"y": 4.1291475945,
				"z": -0.5093085609,
				"element": "O" 
			},
			{
				"x": 3.0566755189,
				"y": 1.6220439353,
				"z": -0.5691567094,
				"element": "C" 
			},
			{
				"x": 0.1006931455,
				"y": -1.0236858631,
				"z": -1.9168182713,
				"element": "H" 
			},
			{
				"x": -1.3038216007,
				"y": -0.274449139,
				"z": -1.114754967,
				"element": "H" 
			},
			{
				"x": -1.6934836737,
				"y": -2.418288918,
				"z": 0.1569695645,
				"element": "H" 
			},
			{
				"x": -0.3107656026,
				"y": -3.1586075975,
				"z": -0.6958497125,
				"element": "H" 
			},
			{
				"x": -0.4287529426,
				"y": 1.5615990409,
				"z": 1.1418512826,
				"element": "H" 
			},
			{
				"x": 0.913647205,
				"y": 3.6765944072,
				"z": 1.1097455928,
				"element": "H" 
			},
			{
				"x": 2.880456639,
				"y": 4.8997791265,
				"z": 0.5051999947,
				"element": "H" 
			},
			{
				"x": 4.0354435457,
				"y": 1.6477954194,
				"z": -1.0355948156,
				"element": "H" 
			}
		],
		 "valence_orbital": [ 
			{
				"type": "occ",
				"energy": -0.28793,
				"method": "rhf"
			},
			{
				"type": "occ",
				"energy": -0.28391,
				"method": "rhf"
			},
			{
				"type": "occ",
				"energy": -0.27485,
				"method": "rhf"
			},
			{
				"type": "occ",
				"energy": -0.26577,
				"method": "rhf"
			},
			{
				"type": "occ",
				"energy": -0.26279,
				"method": "rhf"
			},
			{
				"type": "unocc",
				"energy": -0.07503,
				"method": "rhf"
			},
			{
				"type": "unocc",
				"energy": -0.03329,
				"method": "rhf"
			},
			{
				"type": "unocc",
				"energy": -0.01143,
				"method": "rhf"
			},
			{
				"type": "unocc",
				"energy": 0.01812,
				"method": "rhf"
			},
			{
				"type": "unocc",
				"energy": 0.02536,
				"method": "rhf"
			}
		],
		"cosmo_sigma_profile": { 
			"-0.025": 0.0,
			"-0.024": 0.0,
			"-0.023": 0.0,
			"-0.022": 0.0,
			"-0.021": 0.0,
			"-0.02": 0.0,
			"-0.019": 0.0,
			"-0.018": 0.0,
			"-0.017": 0.0,
			"-0.016": 0.0,
			"-0.015": 0.0,
			"-0.014": 0.0,
			"-0.013": 0.0,
			"-0.012": 0.0,
			"-0.011": 0.0,
			"-0.01": 0.0,
			"-0.009": 0.49670863912,
			"-0.008": 5.42032361126,
			"-0.007": 12.6439222694,
			"-0.006": 13.5407791803,
			"-0.005": 17.5699242947,
			"-0.004": 17.2267398577,
			"-0.003": 15.1792260447,
			"-0.002": 14.7956643625,
			"-0.001": 16.1945544425,
			"0.0": 22.5827282324,
			"0.001": 24.0728938808,
			"0.002": 16.9335937031,
			"0.003": 12.6421604976,
			"0.004": 15.9704621947,
			"0.005": 13.9471207253,
			"0.006": 8.5824314486,
			"0.007": 3.43546563857,
			"0.008": 3.07858016489,
			"0.009": 3.10589342193,
			"0.01": 2.81605950022,
			"0.011": 4.34952720703,
			"0.012": 2.09837410133,
			"0.013": 0.381353481302,
			"0.014": 0.0,
			"0.015": 0.0,
			"0.016": 0.0,
			"0.017": 0.0,
			"0.018": 0.0,
			"0.019": 0.0,
			"0.02": 0.0,
			"0.021": 0.0,
			"0.022": 0.0,
			"0.023": 0.0,
			"0.024": 0.0,
			"0.025": 0.0
		}
	}
}
