{
	 "smiles": "OC1C=CC2C3CC4=C5C(OC1C25CCN3CC=C)=C(O)C=C4", 
	 "Tm": 481.15, 
	 "num_atms": 44, 
	 "gaussian": { 
		 "optdone": 1, 
		 "sigma_profile": "yes", 
		 "theory": "DFT", 
		 "functional": "B3LYP", 
		 "basiset": "6-31G**", 
		 "properties": { 
			 "R2extent": 7634.1862, 
			 "electric_dipole_moment_norm": 3.70703078218, 
			 "electric_quadrupole_moment_norm": 15.5705227295, 
			 "total_energy": -1017.01750157, 
			 "HOMO_LUMO_gap": 0.19797, 
			 "cosmo_polarized_energy": -15.25, 
			 "cosmo_cavitation_energy": 42.25, 
			 "cosmo_dispersion_energy": -29.66, 
			 "cosmo_repulsion_energy": 2.21, 
			 "cosmo_total_nonelectrostatic_energy": 14.8, 
			 "SMD_solvation_energy": 5.59 
		},
		"coords": [
			{
				"x": -3.4695939304,
				"y": 1.416167156,
				"z": 3.0806680222,
				"element": "O" 
			},
			{
				"x": -2.8589014917,
				"y": 0.9177501391,
				"z": 1.8999665982,
				"element": "C" 
			},
			{
				"x": -2.3764682832,
				"y": 2.0252154816,
				"z": 0.9700392766,
				"element": "C" 
			},
			{
				"x": -1.6501836838,
				"y": 1.7423398597,
				"z": -0.120564428,
				"element": "C" 
			},
			{
				"x": -1.365985886,
				"y": 0.2844922388,
				"z": -0.3688254903,
				"element": "C" 
			},
			{
				"x": -0.4006320619,
				"y": -0.1601120708,
				"z": -1.4929091045,
				"element": "C" 
			},
			{
				"x": -0.4616479824,
				"y": -1.7365393552,
				"z": -1.6709208906,
				"element": "C" 
			},
			{
				"x": -0.9056370156,
				"y": -2.5157515769,
				"z": -0.4375908008,
				"element": "C" 
			},
			{
				"x": -1.0756247971,
				"y": -1.8232080762,
				"z": 0.7536079834,
				"element": "C" 
			},
			{
				"x": -1.8183276391,
				"y": -2.3039351379,
				"z": 1.8144562816,
				"element": "C" 
			},
			{
				"x": -2.1459570666,
				"y": -1.3347988227,
				"z": 2.7400556691,
				"element": "O" 
			},
			{
				"x": -1.6909287099,
				"y": -0.0496327948,
				"z": 2.2029803467,
				"element": "C" 
			},
			{
				"x": -0.8376544872,
				"y": -0.3608247148,
				"z": 0.9410652662,
				"element": "C" 
			},
			{
				"x": 0.6357168249,
				"y": 0.048192567,
				"z": 1.1846802047,
				"element": "C" 
			},
			{
				"x": 1.5413735719,
				"y": -0.1895585424,
				"z": -0.0250213226,
				"element": "C" 
			},
			{
				"x": 0.9280600098,
				"y": 0.3934006763,
				"z": -1.2128730555,
				"element": "N" 
			},
			{
				"x": 1.818598405,
				"y": 0.5901253393,
				"z": -2.3572344585,
				"element": "C" 
			},
			{
				"x": 2.3979177638,
				"y": -0.6345875987,
				"z": -3.0359223184,
				"element": "C" 
			},
			{
				"x": 2.2872124277,
				"y": -0.8948135325,
				"z": -4.3393362991,
				"element": "C" 
			},
			{
				"x": -2.275620805,
				"y": -3.6198702992,
				"z": 1.8243785151,
				"element": "C" 
			},
			{
				"x": -3.008531216,
				"y": -4.1455229688,
				"z": 2.8514511869,
				"element": "O" 
			},
			{
				"x": -1.9924254855,
				"y": -4.3929252828,
				"z": 0.6866406741,
				"element": "C" 
			},
			{
				"x": -1.3550983727,
				"y": -3.8482027196,
				"z": -0.4360059268,
				"element": "C" 
			},
			{
				"x": -2.8120180768,
				"y": 1.9476825052,
				"z": 3.5499835431,
				"element": "H" 
			},
			{
				"x": -3.6467193957,
				"y": 0.3347034063,
				"z": 1.402626685,
				"element": "H" 
			},
			{
				"x": -2.681108004,
				"y": 3.0381389173,
				"z": 1.223352064,
				"element": "H" 
			},
			{
				"x": -1.2941670082,
				"y": 2.5137287825,
				"z": -0.7985729177,
				"element": "H" 
			},
			{
				"x": -2.3324485698,
				"y": -0.194188565,
				"z": -0.5863428486,
				"element": "H" 
			},
			{
				"x": -0.7285229815,
				"y": 0.284973106,
				"z": -2.4391548372,
				"element": "H" 
			},
			{
				"x": 0.5098067412,
				"y": -2.0776184542,
				"z": -2.0426516234,
				"element": "H" 
			},
			{
				"x": -1.1714764724,
				"y": -1.9589797786,
				"z": -2.4778703733,
				"element": "H" 
			},
			{
				"x": -1.0759843785,
				"y": 0.4025343519,
				"z": 2.9898832411,
				"element": "H" 
			},
			{
				"x": 0.6512907156,
				"y": 1.1167501925,
				"z": 1.4296288623,
				"element": "H" 
			},
			{
				"x": 1.0219277342,
				"y": -0.4981207048,
				"z": 2.0532337347,
				"element": "H" 
			},
			{
				"x": 2.5094994324,
				"y": 0.2974521955,
				"z": 0.1425035629,
				"element": "H" 
			},
			{
				"x": 1.7445696808,
				"y": -1.270688337,
				"z": -0.1290352365,
				"element": "H" 
			},
			{
				"x": 1.2819158722,
				"y": 1.188386758,
				"z": -3.1042339732,
				"element": "H" 
			},
			{
				"x": 2.6520014792,
				"y": 1.2123642249,
				"z": -1.9983392206,
				"element": "H" 
			},
			{
				"x": 2.9660214295,
				"y": -1.3175288464,
				"z": -2.4037135107,
				"element": "H" 
			},
			{
				"x": 2.7447803832,
				"y": -1.7689707689,
				"z": -4.7937192204,
				"element": "H" 
			},
			{
				"x": 1.736031599,
				"y": -0.234031974,
				"z": -5.0057024045,
				"element": "H" 
			},
			{
				"x": -3.1582716416,
				"y": -3.4423749462,
				"z": 3.4992783007,
				"element": "H" 
			},
			{
				"x": -2.3465977801,
				"y": -5.4191182227,
				"z": 0.6731757453,
				"element": "H" 
			},
			{
				"x": -1.2478908479,
				"y": -4.4628938066,
				"z": -1.3262155024,
				"element": "H" 
			}
		],
		 "valence_orbital": [ 
			{
				"type": "occ",
				"energy": -0.2642,
				"method": "rhf"
			},
			{
				"type": "occ",
				"energy": -0.251,
				"method": "rhf"
			},
			{
				"type": "occ",
				"energy": -0.21869,
				"method": "rhf"
			},
			{
				"type": "occ",
				"energy": -0.20874,
				"method": "rhf"
			},
			{
				"type": "occ",
				"energy": -0.19692,
				"method": "rhf"
			},
			{
				"type": "unocc",
				"energy": 0.00105,
				"method": "rhf"
			},
			{
				"type": "unocc",
				"energy": 0.00912,
				"method": "rhf"
			},
			{
				"type": "unocc",
				"energy": 0.011,
				"method": "rhf"
			},
			{
				"type": "unocc",
				"energy": 0.02127,
				"method": "rhf"
			},
			{
				"type": "unocc",
				"energy": 0.07837,
				"method": "rhf"
			}
		],
		"cosmo_sigma_profile": { 
			"-0.025": 0.0,
			"-0.024": 0.0,
			"-0.023": 0.0,
			"-0.022": 0.0,
			"-0.021": 0.0,
			"-0.02": 0.0,
			"-0.019": 0.0,
			"-0.018": 0.0,
			"-0.017": 0.0,
			"-0.016": 0.580049386764,
			"-0.015": 1.71743030283,
			"-0.014": 1.70229110962,
			"-0.013": 1.95063792552,
			"-0.012": 1.39185586566,
			"-0.011": 1.73020350134,
			"-0.01": 1.82915049857,
			"-0.009": 0.911247551937,
			"-0.008": 2.74581362037,
			"-0.007": 2.34443705038,
			"-0.006": 4.68444598489,
			"-0.005": 15.0001343839,
			"-0.004": 32.4950791689,
			"-0.003": 40.6754403503,
			"-0.002": 35.8514861784,
			"-0.001": 29.8258362255,
			"0.0": 24.9682268257,
			"0.001": 18.0146585274,
			"0.002": 17.9476271759,
			"0.003": 16.5822484298,
			"0.004": 17.0539718346,
			"0.005": 15.4620092962,
			"0.006": 12.179729966,
			"0.007": 7.71824574968,
			"0.008": 3.77187092229,
			"0.009": 4.69950401078,
			"0.01": 4.29575853592,
			"0.011": 4.62916166086,
			"0.012": 3.95110104503,
			"0.013": 1.63910837334,
			"0.014": 2.05112033923,
			"0.015": 0.0308683813488,
			"0.016": 0.0,
			"0.017": 0.0,
			"0.018": 0.0,
			"0.019": 0.0,
			"0.02": 0.0,
			"0.021": 0.0,
			"0.022": 0.0,
			"0.023": 0.0,
			"0.024": 0.0,
			"0.025": 0.0
		}
	}
}
