{
	 "smiles": "CCN(C(C#N)C1=CN=CC=C1)C(=O)OC(C)(C)C", 
	 "Tm": 340.15, 
	 "num_atms": 38, 
	 "gaussian": { 
		 "optdone": 1, 
		 "sigma_profile": "yes", 
		 "theory": "DFT", 
		 "functional": "B3LYP", 
		 "basiset": "6-31G**", 
		 "properties": { 
			 "R2extent": 5898.4189, 
			 "electric_dipole_moment_norm": 5.37477564183, 
			 "electric_quadrupole_moment_norm": 16.9932318315, 
			 "total_energy": -859.651807119, 
			 "HOMO_LUMO_gap": 0.21396, 
			 "cosmo_polarized_energy": -13.03, 
			 "cosmo_cavitation_energy": 40.98, 
			 "cosmo_dispersion_energy": -26.3, 
			 "cosmo_repulsion_energy": 2.03, 
			 "cosmo_total_nonelectrostatic_energy": 16.71, 
			 "SMD_solvation_energy": 7.55 
		},
		"coords": [
			{
				"x": -2.1972087652,
				"y": 0.2800075329,
				"z": -0.9152404977,
				"element": "C" 
			},
			{
				"x": -2.1284082388,
				"y": -0.3646217236,
				"z": 0.4717321768,
				"element": "C" 
			},
			{
				"x": -0.7726490382,
				"y": -0.4278323645,
				"z": 1.0423433347,
				"element": "N" 
			},
			{
				"x": -0.3250303697,
				"y": 0.5779229036,
				"z": 2.0133458566,
				"element": "C" 
			},
			{
				"x": -1.2539619273,
				"y": 0.6247696507,
				"z": 3.1602537639,
				"element": "C" 
			},
			{
				"x": -1.9892222346,
				"y": 0.6525564842,
				"z": 4.0577069786,
				"element": "N" 
			},
			{
				"x": -0.0750388485,
				"y": 1.9556382737,
				"z": 1.4011450038,
				"element": "C" 
			},
			{
				"x": -0.9138211252,
				"y": 3.0541036728,
				"z": 1.6106748768,
				"element": "C" 
			},
			{
				"x": -0.71843594,
				"y": 4.2573189151,
				"z": 1.0545214429,
				"element": "N" 
			},
			{
				"x": 0.3482527612,
				"y": 4.4041710078,
				"z": 0.2624853312,
				"element": "C" 
			},
			{
				"x": 1.2571053916,
				"y": 3.3765661377,
				"z": -0.0062403578,
				"element": "C" 
			},
			{
				"x": 1.0405732519,
				"y": 2.1308077259,
				"z": 0.5727198879,
				"element": "C" 
			},
			{
				"x": 0.1642235502,
				"y": -1.3626629399,
				"z": 0.6560715616,
				"element": "C" 
			},
			{
				"x": 1.3207544509,
				"y": -1.36739939,
				"z": 1.0638555539,
				"element": "O" 
			},
			{
				"x": -0.3681107352,
				"y": -2.2406606241,
				"z": -0.2151034514,
				"element": "O" 
			},
			{
				"x": 0.4325819744,
				"y": -3.3590486273,
				"z": -0.7568619306,
				"element": "C" 
			},
			{
				"x": 1.6111797959,
				"y": -2.8127102393,
				"z": -1.5681565246,
				"element": "C" 
			},
			{
				"x": 0.8823488113,
				"y": -4.2775503827,
				"z": 0.3831695959,
				"element": "C" 
			},
			{
				"x": -0.5723040288,
				"y": -4.0705496259,
				"z": -1.6657760439,
				"element": "C" 
			},
			{
				"x": -3.2331278618,
				"y": 0.2826348405,
				"z": -1.2704577602,
				"element": "H" 
			},
			{
				"x": -1.8416247533,
				"y": 1.3133066587,
				"z": -0.8955562761,
				"element": "H" 
			},
			{
				"x": -1.5939129717,
				"y": -0.2839835008,
				"z": -1.6311682081,
				"element": "H" 
			},
			{
				"x": -2.5243314239,
				"y": -1.3815995728,
				"z": 0.434654214,
				"element": "H" 
			},
			{
				"x": -2.7468174886,
				"y": 0.191264372,
				"z": 1.1822823741,
				"element": "H" 
			},
			{
				"x": 0.6306350973,
				"y": 0.1967270675,
				"z": 2.3887698914,
				"element": "H" 
			},
			{
				"x": -1.7804833084,
				"y": 2.9648159497,
				"z": 2.2632605984,
				"element": "H" 
			},
			{
				"x": 0.4868885655,
				"y": 5.3900906319,
				"z": -0.1778177539,
				"element": "H" 
			},
			{
				"x": 2.1127447513,
				"y": 3.5540890646,
				"z": -0.6501421017,
				"element": "H" 
			},
			{
				"x": 1.7181950157,
				"y": 1.3001732182,
				"z": 0.3945131689,
				"element": "H" 
			},
			{
				"x": 1.2551422812,
				"y": -2.1255406881,
				"z": -2.3423839428,
				"element": "H" 
			},
			{
				"x": 2.3205703869,
				"y": -2.2897190153,
				"z": -0.926703738,
				"element": "H" 
			},
			{
				"x": 2.1275898457,
				"y": -3.6412340654,
				"z": -2.0633285763,
				"element": "H" 
			},
			{
				"x": 0.0186053579,
				"y": -4.6101396968,
				"z": 0.9672989512,
				"element": "H" 
			},
			{
				"x": 1.3705507995,
				"y": -5.1639297246,
				"z": -0.0343938046,
				"element": "H" 
			},
			{
				"x": 1.5835804752,
				"y": -3.7687792967,
				"z": 1.0448023491,
				"element": "H" 
			},
			{
				"x": -0.9263542445,
				"y": -3.3994845905,
				"z": -2.4537231301,
				"element": "H" 
			},
			{
				"x": -1.436507612,
				"y": -4.4163974029,
				"z": -1.0914747595,
				"element": "H" 
			},
			{
				"x": -0.1004716483,
				"y": -4.9378206367,
				"z": -2.1366780542,
				"element": "H" 
			}
		],
		 "valence_orbital": [ 
			{
				"type": "occ",
				"energy": -0.29685,
				"method": "rhf"
			},
			{
				"type": "occ",
				"energy": -0.28201,
				"method": "rhf"
			},
			{
				"type": "occ",
				"energy": -0.27375,
				"method": "rhf"
			},
			{
				"type": "occ",
				"energy": -0.26363,
				"method": "rhf"
			},
			{
				"type": "occ",
				"energy": -0.25372,
				"method": "rhf"
			},
			{
				"type": "unocc",
				"energy": -0.03976,
				"method": "rhf"
			},
			{
				"type": "unocc",
				"energy": -0.0245,
				"method": "rhf"
			},
			{
				"type": "unocc",
				"energy": 0.01725,
				"method": "rhf"
			},
			{
				"type": "unocc",
				"energy": 0.02681,
				"method": "rhf"
			},
			{
				"type": "unocc",
				"energy": 0.04423,
				"method": "rhf"
			}
		],
		"cosmo_sigma_profile": { 
			"-0.025": 0.0,
			"-0.024": 0.0,
			"-0.023": 0.0,
			"-0.022": 0.0,
			"-0.021": 0.0,
			"-0.02": 0.0,
			"-0.019": 0.0,
			"-0.018": 0.0,
			"-0.017": 0.0,
			"-0.016": 0.0,
			"-0.015": 0.0,
			"-0.014": 0.0,
			"-0.013": 0.0,
			"-0.012": 0.0,
			"-0.011": 0.0,
			"-0.01": 0.552437238337,
			"-0.009": 1.06103286306,
			"-0.008": 1.68797869578,
			"-0.007": 6.42610630256,
			"-0.006": 9.99849136528,
			"-0.005": 14.480998959,
			"-0.004": 26.8190146139,
			"-0.003": 33.0919353178,
			"-0.002": 37.1195612889,
			"-0.001": 38.3272255232,
			"0.0": 45.06433213,
			"0.001": 32.4359743277,
			"0.002": 14.7315670618,
			"0.003": 7.61597259649,
			"0.004": 9.18416938352,
			"0.005": 5.92817001272,
			"0.006": 4.56733685054,
			"0.007": 5.35613146811,
			"0.008": 5.51087508915,
			"0.009": 5.47285650907,
			"0.01": 4.66213180983,
			"0.011": 5.21831772638,
			"0.012": 4.23652872358,
			"0.013": 1.33819897417,
			"0.014": 1.51342809864,
			"0.015": 0.656391868217,
			"0.016": 0.606116960211,
			"0.017": 0.191768964259,
			"0.018": 0.0,
			"0.019": 0.0,
			"0.02": 0.0,
			"0.021": 0.0,
			"0.022": 0.0,
			"0.023": 0.0,
			"0.024": 0.0,
			"0.025": 0.0
		}
	}
}
