{
	 "smiles": "CC1=CC(C)=C(NC(N)=S)C(C)=C1", 
	 "Tm": 504.15, 
	 "num_atms": 27, 
	 "gaussian": { 
		 "optdone": 1, 
		 "sigma_profile": "yes", 
		 "theory": "DFT", 
		 "functional": "B3LYP", 
		 "basiset": "6-31G**", 
		 "properties": { 
			 "R2extent": 5032.8923, 
			 "electric_dipole_moment_norm": 6.12693056677, 
			 "electric_quadrupole_moment_norm": 31.2949664775, 
			 "total_energy": -897.233150609, 
			 "HOMO_LUMO_gap": 0.1767, 
			 "cosmo_polarized_energy": -16.58, 
			 "cosmo_cavitation_energy": 31.4, 
			 "cosmo_dispersion_energy": -22.28, 
			 "cosmo_repulsion_energy": 1.74, 
			 "cosmo_total_nonelectrostatic_energy": 10.86, 
			 "SMD_solvation_energy": 4.94 
		},
		"coords": [
			{
				"x": -2.1398959644,
				"y": 3.2390302742,
				"z": -0.0098028453,
				"element": "C" 
			},
			{
				"x": -0.8423644076,
				"y": 2.5583813263,
				"z": 0.3578042856,
				"element": "C" 
			},
			{
				"x": 0.3139616559,
				"y": 3.3064982014,
				"z": 0.6051661469,
				"element": "C" 
			},
			{
				"x": 1.5198878467,
				"y": 2.7009536314,
				"z": 0.969421754,
				"element": "C" 
			},
			{
				"x": 2.7538454676,
				"y": 3.5309960943,
				"z": 1.2311768801,
				"element": "C" 
			},
			{
				"x": 1.5563267206,
				"y": 1.2975339396,
				"z": 1.0904875197,
				"element": "C" 
			},
			{
				"x": 2.7810724228,
				"y": 0.6649153613,
				"z": 1.4816033743,
				"element": "N" 
			},
			{
				"x": 3.6449416019,
				"y": -0.0105700057,
				"z": 0.6672759542,
				"element": "C" 
			},
			{
				"x": 3.2580597226,
				"y": -0.1442856142,
				"z": -0.6283192897,
				"element": "N" 
			},
			{
				"x": 5.0863792428,
				"y": -0.6562424621,
				"z": 1.2500006127,
				"element": "S" 
			},
			{
				"x": 0.4062858907,
				"y": 0.5151475855,
				"z": 0.8644835171,
				"element": "C" 
			},
			{
				"x": 0.4358498947,
				"y": -0.9848080762,
				"z": 1.0328322192,
				"element": "C" 
			},
			{
				"x": -0.7731939949,
				"y": 1.1678365019,
				"z": 0.4888282498,
				"element": "C" 
			},
			{
				"x": -1.963526073,
				"y": 4.1576256425,
				"z": -0.5774644557,
				"element": "H" 
			},
			{
				"x": -2.7074482152,
				"y": 3.5157743594,
				"z": 0.8874573251,
				"element": "H" 
			},
			{
				"x": -2.7795047118,
				"y": 2.5854702862,
				"z": -0.6100817336,
				"element": "H" 
			},
			{
				"x": 0.2795123042,
				"y": 4.3890704543,
				"z": 0.5058302911,
				"element": "H" 
			},
			{
				"x": 2.5838816942,
				"y": 4.5762004054,
				"z": 0.9612189952,
				"element": "H" 
			},
			{
				"x": 3.6157247242,
				"y": 3.1637132557,
				"z": 0.6653419187,
				"element": "H" 
			},
			{
				"x": 3.0404523492,
				"y": 3.5061260393,
				"z": 2.2897688324,
				"element": "H" 
			},
			{
				"x": 3.1420586085,
				"y": 0.8156812738,
				"z": 2.4140117489,
				"element": "H" 
			},
			{
				"x": 3.9323983991,
				"y": -0.5427888161,
				"z": -1.2609621233,
				"element": "H" 
			},
			{
				"x": 2.5013530716,
				"y": 0.4110451535,
				"z": -1.0029212127,
				"element": "H" 
			},
			{
				"x": -0.5739173139,
				"y": -1.3998853107,
				"z": 0.9853311297,
				"element": "H" 
			},
			{
				"x": 1.0392865293,
				"y": -1.4662525836,
				"z": 0.2555974449,
				"element": "H" 
			},
			{
				"x": 0.8818437565,
				"y": -1.2655602875,
				"z": 1.9919206019,
				"element": "H" 
			},
			{
				"x": -1.6646712222,
				"y": 0.5716933702,
				"z": 0.3077928589,
				"element": "H" 
			}
		],
		 "valence_orbital": [ 
			{
				"type": "occ",
				"energy": -0.27738,
				"method": "rhf"
			},
			{
				"type": "occ",
				"energy": -0.25051,
				"method": "rhf"
			},
			{
				"type": "occ",
				"energy": -0.24824,
				"method": "rhf"
			},
			{
				"type": "occ",
				"energy": -0.20466,
				"method": "rhf"
			},
			{
				"type": "occ",
				"energy": -0.19785,
				"method": "rhf"
			},
			{
				"type": "unocc",
				"energy": -0.02115,
				"method": "rhf"
			},
			{
				"type": "unocc",
				"energy": -0.01006,
				"method": "rhf"
			},
			{
				"type": "unocc",
				"energy": 0.01065,
				"method": "rhf"
			},
			{
				"type": "unocc",
				"energy": 0.06863,
				"method": "rhf"
			},
			{
				"type": "unocc",
				"energy": 0.09082,
				"method": "rhf"
			}
		],
		"cosmo_sigma_profile": { 
			"-0.025": 0.0,
			"-0.024": 0.0,
			"-0.023": 0.0,
			"-0.022": 0.0,
			"-0.021": 0.0,
			"-0.02": 0.0,
			"-0.019": 0.0,
			"-0.018": 0.0,
			"-0.017": 0.0,
			"-0.016": 0.0,
			"-0.015": 0.0829289130105,
			"-0.014": 1.86466050706,
			"-0.013": 2.65598027225,
			"-0.012": 2.36440393502,
			"-0.011": 3.20407507306,
			"-0.01": 3.16197484399,
			"-0.009": 2.32992623339,
			"-0.008": 2.50495337595,
			"-0.007": 3.14239190189,
			"-0.006": 3.27129350017,
			"-0.005": 10.1570774843,
			"-0.004": 22.1764681666,
			"-0.003": 22.5586359447,
			"-0.002": 23.9666510062,
			"-0.001": 24.3463191622,
			"0.0": 30.4369037641,
			"0.001": 17.4031732714,
			"0.002": 9.70924972313,
			"0.003": 8.94650938526,
			"0.004": 9.77145039396,
			"0.005": 9.34547512993,
			"0.006": 3.53289943332,
			"0.007": 3.92660719314,
			"0.008": 2.35923812596,
			"0.009": 3.80061436844,
			"0.01": 4.49924800148,
			"0.011": 5.53941474582,
			"0.012": 8.39744063815,
			"0.013": 4.27187687107,
			"0.014": 0.0377018158568,
			"0.015": 0.0,
			"0.016": 0.0,
			"0.017": 0.0,
			"0.018": 0.0,
			"0.019": 0.0,
			"0.02": 0.0,
			"0.021": 0.0,
			"0.022": 0.0,
			"0.023": 0.0,
			"0.024": 0.0,
			"0.025": 0.0
		}
	}
}
