{
	 "smiles": "CC(C)NCCO", 
	 "Tm": 401.15, 
	 "num_atms": 20, 
	 "gaussian": { 
		 "optdone": 1, 
		 "sigma_profile": "yes", 
		 "theory": "DFT", 
		 "functional": "B3LYP", 
		 "basiset": "6-31G**", 
		 "properties": { 
			 "R2extent": 1067.6455, 
			 "electric_dipole_moment_norm": 2.95737146804, 
			 "electric_quadrupole_moment_norm": 6.08151999832, 
			 "total_energy": -328.335496516, 
			 "HOMO_LUMO_gap": 0.30105, 
			 "cosmo_polarized_energy": -6.95, 
			 "cosmo_cavitation_energy": 21.4, 
			 "cosmo_dispersion_energy": -15.61, 
			 "cosmo_repulsion_energy": 1.34, 
			 "cosmo_total_nonelectrostatic_energy": 7.13, 
			 "SMD_solvation_energy": 3.12 
		},
		"coords": [
			{
				"x": -1.7961790873,
				"y": -2.0902859106,
				"z": -0.0328641092,
				"element": "C" 
			},
			{
				"x": -1.6303374272,
				"y": -0.5811649273,
				"z": -0.2862754,
				"element": "C" 
			},
			{
				"x": -2.1057690592,
				"y": 0.2485351131,
				"z": 0.9122457607,
				"element": "C" 
			},
			{
				"x": -0.2692451958,
				"y": -0.1817493293,
				"z": -0.6979008423,
				"element": "N" 
			},
			{
				"x": 0.8466046819,
				"y": -0.5305377645,
				"z": 0.1904840967,
				"element": "C" 
			},
			{
				"x": 2.062862507,
				"y": 0.2981712562,
				"z": -0.2338199035,
				"element": "C" 
			},
			{
				"x": 1.7457015268,
				"y": 1.6738071975,
				"z": -0.2556738504,
				"element": "O" 
			},
			{
				"x": -1.2101320721,
				"y": -2.4179297655,
				"z": 0.8326478893,
				"element": "H" 
			},
			{
				"x": -2.8445568365,
				"y": -2.3390698774,
				"z": 0.1642233626,
				"element": "H" 
			},
			{
				"x": -1.471840184,
				"y": -2.6750276534,
				"z": -0.9013285546,
				"element": "H" 
			},
			{
				"x": -2.2692612595,
				"y": -0.3142184782,
				"z": -1.1387685686,
				"element": "H" 
			},
			{
				"x": -1.5605441544,
				"y": -0.0043998248,
				"z": 1.8277070904,
				"element": "H" 
			},
			{
				"x": -3.1672590179,
				"y": 0.0627660329,
				"z": 1.1044462643,
				"element": "H" 
			},
			{
				"x": -1.9689665753,
				"y": 1.3160186622,
				"z": 0.7181931548,
				"element": "H" 
			},
			{
				"x": -0.0829214985,
				"y": -0.5723136483,
				"z": -1.6197113714,
				"element": "H" 
			},
			{
				"x": 0.5749285389,
				"y": -0.2477237611,
				"z": 1.2121580896,
				"element": "H" 
			},
			{
				"x": 1.100634282,
				"y": -1.6037016181,
				"z": 0.1996632184,
				"element": "H" 
			},
			{
				"x": 2.888594658,
				"y": 0.149549068,
				"z": 0.471182445,
				"element": "H" 
			},
			{
				"x": 2.4135864575,
				"y": -0.0516352844,
				"z": -1.2231943402,
				"element": "H" 
			},
			{
				"x": 0.8386997154,
				"y": 1.6954105129,
				"z": -0.6075144316,
				"element": "H" 
			}
		],
		 "valence_orbital": [ 
			{
				"type": "occ",
				"energy": -0.34754,
				"method": "rhf"
			},
			{
				"type": "occ",
				"energy": -0.33224,
				"method": "rhf"
			},
			{
				"type": "occ",
				"energy": -0.31069,
				"method": "rhf"
			},
			{
				"type": "occ",
				"energy": -0.25138,
				"method": "rhf"
			},
			{
				"type": "occ",
				"energy": -0.23124,
				"method": "rhf"
			},
			{
				"type": "unocc",
				"energy": 0.06981,
				"method": "rhf"
			},
			{
				"type": "unocc",
				"energy": 0.10361,
				"method": "rhf"
			},
			{
				"type": "unocc",
				"energy": 0.11513,
				"method": "rhf"
			},
			{
				"type": "unocc",
				"energy": 0.12603,
				"method": "rhf"
			},
			{
				"type": "unocc",
				"energy": 0.13616,
				"method": "rhf"
			}
		],
		"cosmo_sigma_profile": { 
			"-0.025": 0.0,
			"-0.024": 0.0,
			"-0.023": 0.0,
			"-0.022": 0.0,
			"-0.021": 0.0,
			"-0.02": 0.0,
			"-0.019": 0.0,
			"-0.018": 0.0,
			"-0.017": 0.0,
			"-0.016": 0.0,
			"-0.015": 0.0,
			"-0.014": 0.0,
			"-0.013": 0.0,
			"-0.012": 0.0,
			"-0.011": 0.0,
			"-0.01": 0.58508660212,
			"-0.009": 1.42861326999,
			"-0.008": 1.60369104624,
			"-0.007": 1.90367029866,
			"-0.006": 2.63494074543,
			"-0.005": 2.39590702525,
			"-0.004": 8.2441363084,
			"-0.003": 21.7996878891,
			"-0.002": 29.3869247997,
			"-0.001": 24.3679792649,
			"0.0": 17.7826254499,
			"0.001": 18.1317111764,
			"0.002": 9.20030212575,
			"0.003": 2.93857123755,
			"0.004": 2.80050602584,
			"0.005": 1.7741401047,
			"0.006": 2.08946000281,
			"0.007": 1.53164485081,
			"0.008": 1.77559718915,
			"0.009": 1.76183639776,
			"0.01": 1.03013263373,
			"0.011": 1.11837776021,
			"0.012": 1.05311782085,
			"0.013": 2.08403960229,
			"0.014": 1.77845749506,
			"0.015": 2.54440714903,
			"0.016": 0.605886167453,
			"0.017": 0.0,
			"0.018": 0.0,
			"0.019": 0.0,
			"0.02": 0.0,
			"0.021": 0.0,
			"0.022": 0.0,
			"0.023": 0.0,
			"0.024": 0.0,
			"0.025": 0.0
		}
	}
}
