{
	 "smiles": "O=C1OC(CC2=CC=CC=C12)C1=NC=CC=C1", 
	 "Tm": 429.15, 
	 "num_atms": 28, 
	 "gaussian": { 
		 "optdone": 1, 
		 "sigma_profile": "yes", 
		 "theory": "DFT", 
		 "functional": "B3LYP", 
		 "basiset": "6-31G**", 
		 "properties": { 
			 "R2extent": 4802.7506, 
			 "electric_dipole_moment_norm": 3.85123776207, 
			 "electric_quadrupole_moment_norm": 14.8840994958, 
			 "total_energy": -745.331805881, 
			 "HOMO_LUMO_gap": 0.20538, 
			 "cosmo_polarized_energy": -12.08, 
			 "cosmo_cavitation_energy": 31.57, 
			 "cosmo_dispersion_energy": -22.71, 
			 "cosmo_repulsion_energy": 1.75, 
			 "cosmo_total_nonelectrostatic_energy": 10.61, 
			 "SMD_solvation_energy": 4.82 
		},
		"coords": [
			{
				"x": 0.0042338843,
				"y": 3.0536935202,
				"z": -2.5284208414,
				"element": "O" 
			},
			{
				"x": -0.1418631982,
				"y": 2.7730652189,
				"z": -1.3591064529,
				"element": "C" 
			},
			{
				"x": -1.2274037075,
				"y": 2.0230426446,
				"z": -0.9994303224,
				"element": "O" 
			},
			{
				"x": -1.300965129,
				"y": 1.433905262,
				"z": 0.3154540559,
				"element": "C" 
			},
			{
				"x": -0.8950455369,
				"y": 2.4310055796,
				"z": 1.4026432181,
				"element": "C" 
			},
			{
				"x": 0.4371164488,
				"y": 3.0540471329,
				"z": 1.0747652773,
				"element": "C" 
			},
			{
				"x": 1.3267236385,
				"y": 3.5005746583,
				"z": 2.0557249577,
				"element": "C" 
			},
			{
				"x": 2.5350817876,
				"y": 4.0971136228,
				"z": 1.6949138646,
				"element": "C" 
			},
			{
				"x": 2.8707933805,
				"y": 4.2573826322,
				"z": 0.346233826,
				"element": "C" 
			},
			{
				"x": 1.9932519435,
				"y": 3.817347158,
				"z": -0.6391411268,
				"element": "C" 
			},
			{
				"x": 0.7813589859,
				"y": 3.213701051,
				"z": -0.277623295,
				"element": "C" 
			},
			{
				"x": -0.5183076873,
				"y": 0.1220802073,
				"z": 0.368318457,
				"element": "C" 
			},
			{
				"x": -0.3850637521,
				"y": -0.4116925678,
				"z": 1.5913351525,
				"element": "N" 
			},
			{
				"x": 0.2536612803,
				"y": -1.5814270282,
				"z": 1.7010221775,
				"element": "C" 
			},
			{
				"x": 0.7856718072,
				"y": -2.2734731873,
				"z": 0.6126622637,
				"element": "C" 
			},
			{
				"x": 0.6350235606,
				"y": -1.7163011355,
				"z": -0.655990206,
				"element": "C" 
			},
			{
				"x": -0.0317532407,
				"y": -0.4986674058,
				"z": -0.7870518627,
				"element": "C" 
			},
			{
				"x": -2.3624132848,
				"y": 1.1904052417,
				"z": 0.4327029664,
				"element": "H" 
			},
			{
				"x": -1.6658717306,
				"y": 3.2099062477,
				"z": 1.4712044494,
				"element": "H" 
			},
			{
				"x": -0.863908957,
				"y": 1.904403175,
				"z": 2.3591118511,
				"element": "H" 
			},
			{
				"x": 1.0722942996,
				"y": 3.3757416635,
				"z": 3.1048202232,
				"element": "H" 
			},
			{
				"x": 3.2194756661,
				"y": 4.4356508088,
				"z": 2.4677558441,
				"element": "H" 
			},
			{
				"x": 3.8117267851,
				"y": 4.7233741385,
				"z": 0.0698151353,
				"element": "H" 
			},
			{
				"x": 2.2194067284,
				"y": 3.9306198751,
				"z": -1.6939839512,
				"element": "H" 
			},
			{
				"x": 0.3440942547,
				"y": -1.9839469815,
				"z": 2.708561742,
				"element": "H" 
			},
			{
				"x": 1.2983188409,
				"y": -3.2186765185,
				"z": 0.7595550955,
				"element": "H" 
			},
			{
				"x": 1.0284142467,
				"y": -2.2212096207,
				"z": -1.5336282715,
				"element": "H" 
			},
			{
				"x": -0.1780513146,
				"y": -0.0395653928,
				"z": -1.7575242275,
				"element": "H" 
			}
		],
		 "valence_orbital": [ 
			{
				"type": "occ",
				"energy": -0.2715,
				"method": "rhf"
			},
			{
				"type": "occ",
				"energy": -0.26208,
				"method": "rhf"
			},
			{
				"type": "occ",
				"energy": -0.2605,
				"method": "rhf"
			},
			{
				"type": "occ",
				"energy": -0.2591,
				"method": "rhf"
			},
			{
				"type": "occ",
				"energy": -0.2548,
				"method": "rhf"
			},
			{
				"type": "unocc",
				"energy": -0.04942,
				"method": "rhf"
			},
			{
				"type": "unocc",
				"energy": -0.03014,
				"method": "rhf"
			},
			{
				"type": "unocc",
				"energy": -0.01976,
				"method": "rhf"
			},
			{
				"type": "unocc",
				"energy": -0.00859,
				"method": "rhf"
			},
			{
				"type": "unocc",
				"energy": 0.05685,
				"method": "rhf"
			}
		],
		"cosmo_sigma_profile": { 
			"-0.025": 0.0,
			"-0.024": 0.0,
			"-0.023": 0.0,
			"-0.022": 0.0,
			"-0.021": 0.0,
			"-0.02": 0.0,
			"-0.019": 0.0,
			"-0.018": 0.0,
			"-0.017": 0.0,
			"-0.016": 0.0,
			"-0.015": 0.0,
			"-0.014": 0.0,
			"-0.013": 0.0,
			"-0.012": 0.0,
			"-0.011": 0.0,
			"-0.01": 0.0,
			"-0.009": 0.0,
			"-0.008": 0.867033715772,
			"-0.007": 8.68570348857,
			"-0.006": 21.9745899541,
			"-0.005": 23.1751898391,
			"-0.004": 21.2036992283,
			"-0.003": 16.7777263361,
			"-0.002": 17.9668813847,
			"-0.001": 14.6186222404,
			"0.0": 16.1375471363,
			"0.001": 17.5911599695,
			"0.002": 25.2753360592,
			"0.003": 21.7593961722,
			"0.004": 12.5986435553,
			"0.005": 3.65118124063,
			"0.006": 3.55176891299,
			"0.007": 3.3882224321,
			"0.008": 3.44165048876,
			"0.009": 2.87751938862,
			"0.01": 4.19683791479,
			"0.011": 5.28242365443,
			"0.012": 5.45435161499,
			"0.013": 2.41281983839,
			"0.014": 0.229658365727,
			"0.015": 0.0,
			"0.016": 0.0,
			"0.017": 0.0,
			"0.018": 0.0,
			"0.019": 0.0,
			"0.02": 0.0,
			"0.021": 0.0,
			"0.022": 0.0,
			"0.023": 0.0,
			"0.024": 0.0,
			"0.025": 0.0
		}
	}
}
