{
	 "smiles": "NC(=O)NC1=CC=C(C=C1)C#N", 
	 "Tm": 508.15, 
	 "num_atms": 19, 
	 "gaussian": { 
		 "optdone": 1, 
		 "sigma_profile": "yes", 
		 "theory": "DFT", 
		 "functional": "B3LYP", 
		 "basiset": "6-31G**", 
		 "properties": { 
			 "R2extent": 2815.3688, 
			 "electric_dipole_moment_norm": 2.8588972367, 
			 "electric_quadrupole_moment_norm": 31.0861429832, 
			 "total_energy": -548.559240915, 
			 "HOMO_LUMO_gap": 0.18561, 
			 "cosmo_polarized_energy": -19.53, 
			 "cosmo_cavitation_energy": 24.95, 
			 "cosmo_dispersion_energy": -17.9, 
			 "cosmo_repulsion_energy": 1.44, 
			 "cosmo_total_nonelectrostatic_energy": 8.49, 
			 "SMD_solvation_energy": 6.77 
		},
		"coords": [
			{
				"x": 0.7172930207,
				"y": 2.6039888733,
				"z": -0.6680962385,
				"element": "N" 
			},
			{
				"x": 0.1453692398,
				"y": 2.1775747745,
				"z": -1.849530524,
				"element": "C" 
			},
			{
				"x": -0.17190116,
				"y": 2.9351114792,
				"z": -2.7523208577,
				"element": "O" 
			},
			{
				"x": -0.07317086,
				"y": 0.802737378,
				"z": -1.9806671315,
				"element": "N" 
			},
			{
				"x": 0.0147789896,
				"y": -0.2590641305,
				"z": -1.074230525,
				"element": "C" 
			},
			{
				"x": -0.1317545638,
				"y": -0.1009316948,
				"z": 0.3169054379,
				"element": "C" 
			},
			{
				"x": -0.04801799,
				"y": -1.2035438389,
				"z": 1.1590804824,
				"element": "C" 
			},
			{
				"x": 0.1627224076,
				"y": -2.4911760198,
				"z": 0.6400362322,
				"element": "C" 
			},
			{
				"x": 0.2823702758,
				"y": -2.6538542972,
				"z": -0.7519445981,
				"element": "C" 
			},
			{
				"x": 0.2137394766,
				"y": -1.5537774288,
				"z": -1.5923635983,
				"element": "C" 
			},
			{
				"x": 0.247006042,
				"y": -3.6221281449,
				"z": 1.513476991,
				"element": "C" 
			},
			{
				"x": 0.3173428167,
				"y": -4.5413324381,
				"z": 2.2238214204,
				"element": "N" 
			},
			{
				"x": 1.014192443,
				"y": 3.5685765957,
				"z": -0.7123276246,
				"element": "H" 
			},
			{
				"x": 1.340940643,
				"y": 1.9800192502,
				"z": -0.1752716131,
				"element": "H" 
			},
			{
				"x": -0.3489758428,
				"y": 0.5757269963,
				"z": -2.9263480512,
				"element": "H" 
			},
			{
				"x": -0.3445894001,
				"y": 0.8762967839,
				"z": 0.7322979255,
				"element": "H" 
			},
			{
				"x": -0.1659507858,
				"y": -1.0719221227,
				"z": 2.2295682616,
				"element": "H" 
			},
			{
				"x": 0.4393994899,
				"y": -3.6445423255,
				"z": -1.1651014455,
				"element": "H" 
			},
			{
				"x": 0.3242057581,
				"y": -1.6866596898,
				"z": -2.6648845434,
				"element": "H" 
			}
		],
		 "valence_orbital": [ 
			{
				"type": "occ",
				"energy": -0.31385,
				"method": "rhf"
			},
			{
				"type": "occ",
				"energy": -0.29269,
				"method": "rhf"
			},
			{
				"type": "occ",
				"energy": -0.28578,
				"method": "rhf"
			},
			{
				"type": "occ",
				"energy": -0.27508,
				"method": "rhf"
			},
			{
				"type": "occ",
				"energy": -0.24048,
				"method": "rhf"
			},
			{
				"type": "unocc",
				"energy": -0.05487,
				"method": "rhf"
			},
			{
				"type": "unocc",
				"energy": -0.0353,
				"method": "rhf"
			},
			{
				"type": "unocc",
				"energy": 0.03368,
				"method": "rhf"
			},
			{
				"type": "unocc",
				"energy": 0.03597,
				"method": "rhf"
			},
			{
				"type": "unocc",
				"energy": 0.06803,
				"method": "rhf"
			}
		],
		"cosmo_sigma_profile": { 
			"-0.025": 0.0,
			"-0.024": 0.0,
			"-0.023": 0.0,
			"-0.022": 0.0,
			"-0.021": 0.0,
			"-0.02": 0.0,
			"-0.019": 0.0,
			"-0.018": 0.0,
			"-0.017": 0.0,
			"-0.016": 0.0130662479282,
			"-0.015": 0.727493798059,
			"-0.014": 1.93192858867,
			"-0.013": 3.48483580002,
			"-0.012": 3.61021947402,
			"-0.011": 3.30109160297,
			"-0.01": 3.83582975082,
			"-0.009": 3.97472144314,
			"-0.008": 7.5822401393,
			"-0.007": 8.45946999178,
			"-0.006": 11.3762733065,
			"-0.005": 8.19580999046,
			"-0.004": 7.73927155869,
			"-0.003": 8.84193445764,
			"-0.002": 11.3276218016,
			"-0.001": 12.5968993657,
			"0.0": 13.1233969682,
			"0.001": 14.2883220663,
			"0.002": 16.2842599288,
			"0.003": 8.21874222569,
			"0.004": 4.28170371383,
			"0.005": 3.82509879324,
			"0.006": 3.8500285858,
			"0.007": 4.73200155573,
			"0.008": 5.12437988138,
			"0.009": 4.51983333844,
			"0.01": 3.94227954025,
			"0.011": 4.93434992097,
			"0.012": 4.74487416264,
			"0.013": 7.055689903,
			"0.014": 4.61783882395,
			"0.015": 0.0938995015304,
			"0.016": 0.0,
			"0.017": 0.0,
			"0.018": 0.0,
			"0.019": 0.0,
			"0.02": 0.0,
			"0.021": 0.0,
			"0.022": 0.0,
			"0.023": 0.0,
			"0.024": 0.0,
			"0.025": 0.0
		}
	}
}
