{
	 "smiles": "NC1=NON=C1C(=O)N1CCCCC1", 
	 "Tm": 360.15, 
	 "num_atms": 26, 
	 "gaussian": { 
		 "optdone": 1, 
		 "sigma_profile": "yes", 
		 "theory": "DFT", 
		 "functional": "B3LYP", 
		 "basiset": "6-31G**", 
		 "properties": { 
			 "R2extent": 3925.3128, 
			 "electric_dipole_moment_norm": 3.76587836899, 
			 "electric_quadrupole_moment_norm": 15.3809008075, 
			 "total_energy": -681.471752734, 
			 "HOMO_LUMO_gap": 0.18213, 
			 "cosmo_polarized_energy": -11.44, 
			 "cosmo_cavitation_energy": 28.27, 
			 "cosmo_dispersion_energy": -21.53, 
			 "cosmo_repulsion_energy": 1.7, 
			 "cosmo_total_nonelectrostatic_energy": 8.45, 
			 "SMD_solvation_energy": 3.83 
		},
		"coords": [
			{
				"x": 2.8998371391,
				"y": -1.6989550352,
				"z": -2.5688344237,
				"element": "N" 
			},
			{
				"x": 3.0233723885,
				"y": -1.673295602,
				"z": -1.2137203407,
				"element": "C" 
			},
			{
				"x": 4.1339508439,
				"y": -1.9193552329,
				"z": -0.5539394299,
				"element": "N" 
			},
			{
				"x": 3.776889032,
				"y": -1.8308843204,
				"z": 0.7921631316,
				"element": "O" 
			},
			{
				"x": 2.4650523393,
				"y": -1.530750305,
				"z": 0.9450669139,
				"element": "N" 
			},
			{
				"x": 1.9619746346,
				"y": -1.4301279632,
				"z": -0.2617733124,
				"element": "C" 
			},
			{
				"x": 0.5782225076,
				"y": -1.0299401944,
				"z": -0.6500671472,
				"element": "C" 
			},
			{
				"x": 0.3998826853,
				"y": -0.6955178929,
				"z": -1.8330172775,
				"element": "O" 
			},
			{
				"x": -0.4293716314,
				"y": -1.0166848856,
				"z": 0.2605746497,
				"element": "N" 
			},
			{
				"x": -1.7305703505,
				"y": -0.4898044901,
				"z": -0.1966478141,
				"element": "C" 
			},
			{
				"x": -2.5033556641,
				"y": 0.1081660957,
				"z": 0.9795050566,
				"element": "C" 
			},
			{
				"x": -2.7973822631,
				"y": -0.9424522824,
				"z": 2.0738536072,
				"element": "C" 
			},
			{
				"x": -1.7076859539,
				"y": -2.036529179,
				"z": 2.100561007,
				"element": "C" 
			},
			{
				"x": -0.3437614628,
				"y": -1.5057049586,
				"z": 1.6498512104,
				"element": "C" 
			},
			{
				"x": 3.7521334498,
				"y": -1.6332096388,
				"z": -3.1043231244,
				"element": "H" 
			},
			{
				"x": 2.0782633574,
				"y": -1.2118746772,
				"z": -2.9080862305,
				"element": "H" 
			},
			{
				"x": -2.3093724998,
				"y": -1.292162673,
				"z": -0.6755408062,
				"element": "H" 
			},
			{
				"x": -1.5299582273,
				"y": 0.2548527949,
				"z": -0.9681655707,
				"element": "H" 
			},
			{
				"x": -3.4317340843,
				"y": 0.5519586858,
				"z": 0.6055581858,
				"element": "H" 
			},
			{
				"x": -1.9123421057,
				"y": 0.9321410598,
				"z": 1.3965842306,
				"element": "H" 
			},
			{
				"x": -3.773736614,
				"y": -1.4084260686,
				"z": 1.9012709745,
				"element": "H" 
			},
			{
				"x": -2.8601461343,
				"y": -0.4450688455,
				"z": 3.0479170074,
				"element": "H" 
			},
			{
				"x": -1.6050577155,
				"y": -2.4602353015,
				"z": 3.1048276694,
				"element": "H" 
			},
			{
				"x": -1.9881795624,
				"y": -2.8658502902,
				"z": 1.4405773786,
				"element": "H" 
			},
			{
				"x": -0.0042671758,
				"y": -0.7012296461,
				"z": 2.3160505384,
				"element": "H" 
			},
			{
				"x": 0.4075430677,
				"y": -2.2922591537,
				"z": 1.7042539162,
				"element": "H" 
			}
		],
		 "valence_orbital": [ 
			{
				"type": "occ",
				"energy": -0.30687,
				"method": "rhf"
			},
			{
				"type": "occ",
				"energy": -0.30306,
				"method": "rhf"
			},
			{
				"type": "occ",
				"energy": -0.27214,
				"method": "rhf"
			},
			{
				"type": "occ",
				"energy": -0.25019,
				"method": "rhf"
			},
			{
				"type": "occ",
				"energy": -0.23711,
				"method": "rhf"
			},
			{
				"type": "unocc",
				"energy": -0.05498,
				"method": "rhf"
			},
			{
				"type": "unocc",
				"energy": 0.01403,
				"method": "rhf"
			},
			{
				"type": "unocc",
				"energy": 0.06807,
				"method": "rhf"
			},
			{
				"type": "unocc",
				"energy": 0.07797,
				"method": "rhf"
			},
			{
				"type": "unocc",
				"energy": 0.09594,
				"method": "rhf"
			}
		],
		"cosmo_sigma_profile": { 
			"-0.025": 0.0,
			"-0.024": 0.0,
			"-0.023": 0.0,
			"-0.022": 0.0,
			"-0.021": 0.0,
			"-0.02": 0.0,
			"-0.019": 0.0,
			"-0.018": 0.0,
			"-0.017": 0.0,
			"-0.016": 0.0,
			"-0.015": 0.237614928207,
			"-0.014": 1.1741989792,
			"-0.013": 1.00787555038,
			"-0.012": 1.67357732967,
			"-0.011": 0.772625413842,
			"-0.01": 1.8087228011,
			"-0.009": 1.83023644088,
			"-0.008": 1.93863217783,
			"-0.007": 1.4822357783,
			"-0.006": 1.30357857957,
			"-0.005": 5.10056618489,
			"-0.004": 20.6632112049,
			"-0.003": 36.2493053941,
			"-0.002": 35.1642164922,
			"-0.001": 21.0136825125,
			"0.0": 17.9105798032,
			"0.001": 7.66014883865,
			"0.002": 5.42450163376,
			"0.003": 6.86224188065,
			"0.004": 5.62366987613,
			"0.005": 8.42641808979,
			"0.006": 9.76181651274,
			"0.007": 7.33466394907,
			"0.008": 4.39614660596,
			"0.009": 5.15813514348,
			"0.01": 3.86754849088,
			"0.011": 2.72189804464,
			"0.012": 3.38234026186,
			"0.013": 2.39485152692,
			"0.014": 0.115918060727,
			"0.015": 0.0,
			"0.016": 0.0,
			"0.017": 0.0,
			"0.018": 0.0,
			"0.019": 0.0,
			"0.02": 0.0,
			"0.021": 0.0,
			"0.022": 0.0,
			"0.023": 0.0,
			"0.024": 0.0,
			"0.025": 0.0
		}
	}
}
