{
	 "smiles": "CCOC(=O)C1=CSC(NC)=N1", 
	 "Tm": 389.15, 
	 "num_atms": 22, 
	 "gaussian": { 
		 "optdone": 1, 
		 "sigma_profile": "yes", 
		 "theory": "DFT", 
		 "functional": "B3LYP", 
		 "basiset": "6-31G**", 
		 "properties": { 
			 "R2extent": 3937.8206, 
			 "electric_dipole_moment_norm": 3.56243802051, 
			 "electric_quadrupole_moment_norm": 15.3723078641, 
			 "total_energy": -930.914292997, 
			 "HOMO_LUMO_gap": 0.17837, 
			 "cosmo_polarized_energy": -13.19, 
			 "cosmo_cavitation_energy": 28.04, 
			 "cosmo_dispersion_energy": -21.15, 
			 "cosmo_repulsion_energy": 1.68, 
			 "cosmo_total_nonelectrostatic_energy": 8.57, 
			 "SMD_solvation_energy": 3.99 
		},
		"coords": [
			{
				"x": 3.8372582307,
				"y": -1.8613295216,
				"z": 0.1054114925,
				"element": "C" 
			},
			{
				"x": 2.9297552273,
				"y": -2.6063428624,
				"z": 1.0735215514,
				"element": "C" 
			},
			{
				"x": 1.54501304,
				"y": -2.2323231176,
				"z": 0.8903092698,
				"element": "O" 
			},
			{
				"x": 1.1363418002,
				"y": -1.1291848879,
				"z": 1.5455979818,
				"element": "C" 
			},
			{
				"x": 1.8489221535,
				"y": -0.4524988771,
				"z": 2.2655129456,
				"element": "O" 
			},
			{
				"x": -0.2965519869,
				"y": -0.8229525407,
				"z": 1.2991434878,
				"element": "C" 
			},
			{
				"x": -0.8904001213,
				"y": 0.2599640442,
				"z": 1.8843875224,
				"element": "C" 
			},
			{
				"x": -2.5568565157,
				"y": 0.3541569286,
				"z": 1.4034557198,
				"element": "S" 
			},
			{
				"x": -2.3002132685,
				"y": -1.1198438858,
				"z": 0.4334688201,
				"element": "C" 
			},
			{
				"x": -3.3250959533,
				"y": -1.6971097872,
				"z": -0.2598978948,
				"element": "N" 
			},
			{
				"x": -4.5622504193,
				"y": -1.0023427877,
				"z": -0.5615205598,
				"element": "C" 
			},
			{
				"x": -1.0891040635,
				"y": -1.597699322,
				"z": 0.4772370678,
				"element": "N" 
			},
			{
				"x": 3.5184609952,
				"y": -2.0226889924,
				"z": -0.9285551103,
				"element": "H" 
			},
			{
				"x": 3.8250267346,
				"y": -0.7895027183,
				"z": 0.3172737058,
				"element": "H" 
			},
			{
				"x": 4.8667051837,
				"y": -2.2207286867,
				"z": 0.2089459246,
				"element": "H" 
			},
			{
				"x": 2.9449599433,
				"y": -3.683030907,
				"z": 0.8879016656,
				"element": "H" 
			},
			{
				"x": 3.2161275512,
				"y": -2.410920494,
				"z": 2.1098202786,
				"element": "H" 
			},
			{
				"x": -0.4384205647,
				"y": 0.9813776834,
				"z": 2.547603939,
				"element": "H" 
			},
			{
				"x": -3.0106797965,
				"y": -2.4094381387,
				"z": -0.9043625122,
				"element": "H" 
			},
			{
				"x": -5.2257668759,
				"y": -1.6848397281,
				"z": -1.0956551144,
				"element": "H" 
			},
			{
				"x": -4.4145442839,
				"y": -0.1020692869,
				"z": -1.1758697761,
				"element": "H" 
			},
			{
				"x": -5.0677870104,
				"y": -0.7076521139,
				"z": 0.3648695951,
				"element": "H" 
			}
		],
		 "valence_orbital": [ 
			{
				"type": "occ",
				"energy": -0.28765,
				"method": "rhf"
			},
			{
				"type": "occ",
				"energy": -0.2785,
				"method": "rhf"
			},
			{
				"type": "occ",
				"energy": -0.27694,
				"method": "rhf"
			},
			{
				"type": "occ",
				"energy": -0.26292,
				"method": "rhf"
			},
			{
				"type": "occ",
				"energy": -0.20995,
				"method": "rhf"
			},
			{
				"type": "unocc",
				"energy": -0.03158,
				"method": "rhf"
			},
			{
				"type": "unocc",
				"energy": 0.01285,
				"method": "rhf"
			},
			{
				"type": "unocc",
				"energy": 0.02007,
				"method": "rhf"
			},
			{
				"type": "unocc",
				"energy": 0.06316,
				"method": "rhf"
			},
			{
				"type": "unocc",
				"energy": 0.10643,
				"method": "rhf"
			}
		],
		"cosmo_sigma_profile": { 
			"-0.025": 0.0,
			"-0.024": 0.0,
			"-0.023": 0.0,
			"-0.022": 0.0,
			"-0.021": 0.0,
			"-0.02": 0.0,
			"-0.019": 0.0,
			"-0.018": 0.0,
			"-0.017": 0.0,
			"-0.016": 0.0,
			"-0.015": 0.20819928815,
			"-0.014": 1.16282657519,
			"-0.013": 1.06255883776,
			"-0.012": 1.01022668706,
			"-0.011": 1.22625509085,
			"-0.01": 0.701596063798,
			"-0.009": 1.89893364785,
			"-0.008": 2.60966695708,
			"-0.007": 3.85034258776,
			"-0.006": 7.12800886021,
			"-0.005": 13.1077807638,
			"-0.004": 20.8605614587,
			"-0.003": 23.9511039159,
			"-0.002": 22.2276578003,
			"-0.001": 17.0123241894,
			"0.0": 19.2281291117,
			"0.001": 16.1290641516,
			"0.002": 15.3670815057,
			"0.003": 11.966631167,
			"0.004": 7.17535187296,
			"0.005": 4.88834724518,
			"0.006": 4.05537309273,
			"0.007": 2.95154948217,
			"0.008": 3.34657720694,
			"0.009": 3.9087239736,
			"0.01": 2.77454054603,
			"0.011": 3.14874959694,
			"0.012": 5.67875881634,
			"0.013": 2.13151597423,
			"0.014": 1.32902163089,
			"0.015": 0.97888632326,
			"0.016": 1.07003262949,
			"0.017": 0.166877221531,
			"0.018": 0.0,
			"0.019": 0.0,
			"0.02": 0.0,
			"0.021": 0.0,
			"0.022": 0.0,
			"0.023": 0.0,
			"0.024": 0.0,
			"0.025": 0.0
		}
	}
}
