{
	 "smiles": "CC1=NN(CC2=CC=C(C)C=C2)C(C)=C1C(O)=O", 
	 "Tm": 408.15, 
	 "num_atms": 34, 
	 "gaussian": { 
		 "optdone": 1, 
		 "sigma_profile": "yes", 
		 "theory": "DFT", 
		 "functional": "B3LYP", 
		 "basiset": "6-31G**", 
		 "properties": { 
			 "R2extent": 5871.9125, 
			 "electric_dipole_moment_norm": 4.59912995576, 
			 "electric_quadrupole_moment_norm": 24.7841058084, 
			 "total_energy": -803.103409297, 
			 "HOMO_LUMO_gap": 0.22658, 
			 "cosmo_polarized_energy": -16.32, 
			 "cosmo_cavitation_energy": 37.28, 
			 "cosmo_dispersion_energy": -26.17, 
			 "cosmo_repulsion_energy": 2.02, 
			 "cosmo_total_nonelectrostatic_energy": 13.13, 
			 "SMD_solvation_energy": 6.41 
		},
		"coords": [
			{
				"x": 0.1809509346,
				"y": -3.0261775979,
				"z": -2.2326921268,
				"element": "C" 
			},
			{
				"x": 0.2187918,
				"y": -1.5814590165,
				"z": -1.8256072049,
				"element": "C" 
			},
			{
				"x": 1.3002057776,
				"y": -1.121772077,
				"z": -1.2083222559,
				"element": "N" 
			},
			{
				"x": 1.0531087037,
				"y": 0.1983981644,
				"z": -0.9825952458,
				"element": "N" 
			},
			{
				"x": 2.0442813837,
				"y": 0.9836718695,
				"z": -0.2504343132,
				"element": "C" 
			},
			{
				"x": 1.7543939858,
				"y": 1.1033767545,
				"z": 1.234895844,
				"element": "C" 
			},
			{
				"x": 1.5315173722,
				"y": -0.0407558683,
				"z": 2.0140281133,
				"element": "C" 
			},
			{
				"x": 1.2941836824,
				"y": 0.0721958007,
				"z": 3.38051114,
				"element": "C" 
			},
			{
				"x": 1.2739447851,
				"y": 1.3243735797,
				"z": 4.0155928067,
				"element": "C" 
			},
			{
				"x": 0.9947769657,
				"y": 1.4346635376,
				"z": 5.495940367,
				"element": "C" 
			},
			{
				"x": 1.501846466,
				"y": 2.4602486698,
				"z": 3.2324038021,
				"element": "C" 
			},
			{
				"x": 1.7352157388,
				"y": 2.3527439922,
				"z": 1.8591789116,
				"element": "C" 
			},
			{
				"x": -0.160897565,
				"y": 0.5942514033,
				"z": -1.4339749594,
				"element": "C" 
			},
			{
				"x": -0.6589374177,
				"y": 1.9958552266,
				"z": -1.2934597115,
				"element": "C" 
			},
			{
				"x": -0.7488216758,
				"y": -0.5432725368,
				"z": -2.0029199435,
				"element": "C" 
			},
			{
				"x": -2.0790667271,
				"y": -0.5640665543,
				"z": -2.639854934,
				"element": "C" 
			},
			{
				"x": -2.5322211251,
				"y": -1.7686236733,
				"z": -3.088597702,
				"element": "O" 
			},
			{
				"x": -2.7851716689,
				"y": 0.4123648381,
				"z": -2.7883986657,
				"element": "O" 
			},
			{
				"x": 1.1290353065,
				"y": -3.4972326252,
				"z": -1.9656044477,
				"element": "H" 
			},
			{
				"x": -0.614362503,
				"y": -3.5821668898,
				"z": -1.7178887003,
				"element": "H" 
			},
			{
				"x": 0.0436784136,
				"y": -3.147330479,
				"z": -3.3145282072,
				"element": "H" 
			},
			{
				"x": 2.1053870371,
				"y": 1.9763264336,
				"z": -0.7053804019,
				"element": "H" 
			},
			{
				"x": 2.9971576814,
				"y": 0.4768641524,
				"z": -0.4247644216,
				"element": "H" 
			},
			{
				"x": 1.5439600099,
				"y": -1.0182110215,
				"z": 1.5399205865,
				"element": "H" 
			},
			{
				"x": 1.1245638292,
				"y": -0.8266121204,
				"z": 3.9687554989,
				"element": "H" 
			},
			{
				"x": 1.5718384893,
				"y": 0.6999710999,
				"z": 6.0673698491,
				"element": "H" 
			},
			{
				"x": 1.2426015189,
				"y": 2.4291193567,
				"z": 5.8772868833,
				"element": "H" 
			},
			{
				"x": -0.0644877265,
				"y": 1.2518244579,
				"z": 5.714377589,
				"element": "H" 
			},
			{
				"x": 1.4928039016,
				"y": 3.4425504948,
				"z": 3.6980275574,
				"element": "H" 
			},
			{
				"x": 1.9089717781,
				"y": 3.2522462998,
				"z": 1.2727951255,
				"element": "H" 
			},
			{
				"x": -0.0160875853,
				"y": 2.6992749807,
				"z": -1.8367783108,
				"element": "H" 
			},
			{
				"x": -1.6647917171,
				"y": 2.0563038912,
				"z": -1.7060127596,
				"element": "H" 
			},
			{
				"x": -0.6742568503,
				"y": 2.3043365398,
				"z": -0.2425669485,
				"element": "H" 
			},
			{
				"x": -1.9033129995,
				"y": -2.473681083,
				"z": -2.8879028138,
				"element": "H" 
			}
		],
		 "valence_orbital": [ 
			{
				"type": "occ",
				"energy": -0.26024,
				"method": "rhf"
			},
			{
				"type": "occ",
				"energy": -0.25816,
				"method": "rhf"
			},
			{
				"type": "occ",
				"energy": -0.25473,
				"method": "rhf"
			},
			{
				"type": "occ",
				"energy": -0.24784,
				"method": "rhf"
			},
			{
				"type": "occ",
				"energy": -0.24311,
				"method": "rhf"
			},
			{
				"type": "unocc",
				"energy": -0.01653,
				"method": "rhf"
			},
			{
				"type": "unocc",
				"energy": -0.01172,
				"method": "rhf"
			},
			{
				"type": "unocc",
				"energy": -0.00954,
				"method": "rhf"
			},
			{
				"type": "unocc",
				"energy": 0.01692,
				"method": "rhf"
			},
			{
				"type": "unocc",
				"energy": 0.07227,
				"method": "rhf"
			}
		],
		"cosmo_sigma_profile": { 
			"-0.025": 0.0,
			"-0.024": 0.0,
			"-0.023": 0.0,
			"-0.022": 0.0,
			"-0.021": 0.0,
			"-0.02": 0.0,
			"-0.019": 0.0,
			"-0.018": 0.0,
			"-0.017": 0.0,
			"-0.016": 0.0,
			"-0.015": 0.0319420676242,
			"-0.014": 0.716598391418,
			"-0.013": 1.41557149247,
			"-0.012": 1.28710194005,
			"-0.011": 1.31475312715,
			"-0.01": 2.09605818896,
			"-0.009": 1.67346478112,
			"-0.008": 1.85021303025,
			"-0.007": 8.44342535987,
			"-0.006": 11.4921484237,
			"-0.005": 17.2557794783,
			"-0.004": 25.2694737403,
			"-0.003": 25.9905414608,
			"-0.002": 28.7305216722,
			"-0.001": 28.1687748846,
			"0.0": 24.4998480659,
			"0.001": 20.0869633786,
			"0.002": 17.821752964,
			"0.003": 12.931848354,
			"0.004": 12.3485013502,
			"0.005": 11.178661835,
			"0.006": 9.91025365751,
			"0.007": 4.02239095157,
			"0.008": 2.31836588718,
			"0.009": 3.62643657244,
			"0.01": 4.69776611779,
			"0.011": 5.53457924834,
			"0.012": 5.70300836593,
			"0.013": 3.32119647756,
			"0.014": 1.59367534075,
			"0.015": 0.330551019676,
			"0.016": 0.0,
			"0.017": 0.0,
			"0.018": 0.0,
			"0.019": 0.0,
			"0.02": 0.0,
			"0.021": 0.0,
			"0.022": 0.0,
			"0.023": 0.0,
			"0.024": 0.0,
			"0.025": 0.0
		}
	}
}
