{
	 "smiles": "CC1=NN(N=C1[N+]([O-])=O)C1=CC=C(C=C1[N+]([O-])=O)[N+]([O-])=O", 
	 "Tm": 396.15, 
	 "num_atms": 27, 
	 "gaussian": { 
		 "optdone": 1, 
		 "sigma_profile": "yes", 
		 "theory": "DFT", 
		 "functional": "B3LYP", 
		 "basiset": "6-31G**", 
		 "properties": { 
			 "R2extent": 8336.0262, 
			 "electric_dipole_moment_norm": 0.968477160288, 
			 "electric_quadrupole_moment_norm": 20.1809165676, 
			 "total_energy": -1126.06144559, 
			 "HOMO_LUMO_gap": 0.15826, 
			 "cosmo_polarized_energy": -17.37, 
			 "cosmo_cavitation_energy": 35.82, 
			 "cosmo_dispersion_energy": -24.95, 
			 "cosmo_repulsion_energy": 1.9, 
			 "cosmo_total_nonelectrostatic_energy": 12.77, 
			 "SMD_solvation_energy": 12.28 
		},
		"coords": [
			{
				"x": -1.268677785,
				"y": 4.6566782822,
				"z": 1.1371845885,
				"element": "C" 
			},
			{
				"x": -1.2578308051,
				"y": 3.2326968923,
				"z": 0.698138271,
				"element": "C" 
			},
			{
				"x": -0.3908470116,
				"y": 2.7690362878,
				"z": -0.1966439523,
				"element": "N" 
			},
			{
				"x": -0.6948955953,
				"y": 1.4638172941,
				"z": -0.3256664194,
				"element": "N" 
			},
			{
				"x": -1.7042091399,
				"y": 1.0333394758,
				"z": 0.4232853018,
				"element": "N" 
			},
			{
				"x": -2.0696848541,
				"y": 2.1291673213,
				"z": 1.0721006745,
				"element": "C" 
			},
			{
				"x": -3.1647112045,
				"y": 2.099811312,
				"z": 2.016710273,
				"element": "N" 
			},
			{
				"x": -3.422658849,
				"y": 3.1744807723,
				"z": 2.565130056,
				"element": "O" 
			},
			{
				"x": -3.7428611774,
				"y": 1.0361715252,
				"z": 2.1996238207,
				"element": "O" 
			},
			{
				"x": 0.0038857421,
				"y": 0.5950589095,
				"z": -1.1965410919,
				"element": "C" 
			},
			{
				"x": -0.3929157981,
				"y": -0.7490842196,
				"z": -1.2571491723,
				"element": "C" 
			},
			{
				"x": 0.26066185,
				"y": -1.6404014484,
				"z": -2.0957874242,
				"element": "C" 
			},
			{
				"x": 1.3174691051,
				"y": -1.1792594616,
				"z": -2.8769497739,
				"element": "C" 
			},
			{
				"x": 1.7336603713,
				"y": 0.1453386925,
				"z": -2.839074116,
				"element": "C" 
			},
			{
				"x": 1.072513189,
				"y": 1.0288288973,
				"z": -1.9960929918,
				"element": "C" 
			},
			{
				"x": 1.5748695134,
				"y": 2.4237654835,
				"z": -2.0115526342,
				"element": "N" 
			},
			{
				"x": 1.0814057309,
				"y": 3.1698669678,
				"z": -2.8455905597,
				"element": "O" 
			},
			{
				"x": 2.4825982999,
				"y": 2.6830680302,
				"z": -1.2340011424,
				"element": "O" 
			},
			{
				"x": 2.0189918977,
				"y": -2.1162590751,
				"z": -3.7711724806,
				"element": "N" 
			},
			{
				"x": 1.6279910843,
				"y": -3.2808616557,
				"z": -3.782427297,
				"element": "O" 
			},
			{
				"x": 2.9454290799,
				"y": -1.668910574,
				"z": -4.4430194794,
				"element": "O" 
			},
			{
				"x": -1.1136506396,
				"y": 4.728073714,
				"z": 2.2170335094,
				"element": "H" 
			},
			{
				"x": -2.2372970378,
				"y": 5.1175574132,
				"z": 0.9260616712,
				"element": "H" 
			},
			{
				"x": -0.4813650721,
				"y": 5.2041605316,
				"z": 0.617081624,
				"element": "H" 
			},
			{
				"x": -1.2183409102,
				"y": -1.0734519193,
				"z": -0.6363201155,
				"element": "H" 
			},
			{
				"x": -0.0345315508,
				"y": -2.6802435075,
				"z": -2.1529455261,
				"element": "H" 
			},
			{
				"x": 2.558901567,
				"y": 0.4739540586,
				"z": -3.4585156132,
				"element": "H" 
			}
		],
		 "valence_orbital": [ 
			{
				"type": "occ",
				"energy": -0.32664,
				"method": "rhf"
			},
			{
				"type": "occ",
				"energy": -0.31717,
				"method": "rhf"
			},
			{
				"type": "occ",
				"energy": -0.31362,
				"method": "rhf"
			},
			{
				"type": "occ",
				"energy": -0.30414,
				"method": "rhf"
			},
			{
				"type": "occ",
				"energy": -0.28831,
				"method": "rhf"
			},
			{
				"type": "unocc",
				"energy": -0.13005,
				"method": "rhf"
			},
			{
				"type": "unocc",
				"energy": -0.10392,
				"method": "rhf"
			},
			{
				"type": "unocc",
				"energy": -0.09361,
				"method": "rhf"
			},
			{
				"type": "unocc",
				"energy": -0.0699,
				"method": "rhf"
			},
			{
				"type": "unocc",
				"energy": -0.06233,
				"method": "rhf"
			}
		],
		"cosmo_sigma_profile": { 
			"-0.025": 0.0,
			"-0.024": 0.0,
			"-0.023": 0.0,
			"-0.022": 0.0,
			"-0.021": 0.0,
			"-0.02": 0.0,
			"-0.019": 0.0,
			"-0.018": 0.0,
			"-0.017": 0.0,
			"-0.016": 0.0,
			"-0.015": 0.0,
			"-0.014": 0.0,
			"-0.013": 0.345745092881,
			"-0.012": 0.96476928744,
			"-0.011": 1.72503299141,
			"-0.01": 1.37049141069,
			"-0.009": 6.31815208191,
			"-0.008": 7.40597607509,
			"-0.007": 11.1910874778,
			"-0.006": 20.8348103565,
			"-0.005": 19.9686948896,
			"-0.004": 24.3145414949,
			"-0.003": 27.1116627754,
			"-0.002": 21.2150769619,
			"-0.001": 12.0603673769,
			"0.0": 8.0895519486,
			"0.001": 8.89954322921,
			"0.002": 8.09256455748,
			"0.003": 8.58484938577,
			"0.004": 10.2081190964,
			"0.005": 13.0943858015,
			"0.006": 27.6598247406,
			"0.007": 26.2841497278,
			"0.008": 14.7705349445,
			"0.009": 7.43106077938,
			"0.01": 1.17024427037,
			"0.011": 0.0,
			"0.012": 0.0,
			"0.013": 0.0,
			"0.014": 0.0,
			"0.015": 0.0,
			"0.016": 0.0,
			"0.017": 0.0,
			"0.018": 0.0,
			"0.019": 0.0,
			"0.02": 0.0,
			"0.021": 0.0,
			"0.022": 0.0,
			"0.023": 0.0,
			"0.024": 0.0,
			"0.025": 0.0
		}
	}
}
