{
	 "smiles": "O=C1OC(=O)C2=CC3=C(C=CC=C3)C=C12", 
	 "Tm": 522.15, 
	 "num_atms": 21, 
	 "gaussian": { 
		 "optdone": 1, 
		 "sigma_profile": "yes", 
		 "theory": "DFT", 
		 "functional": "B3LYP", 
		 "basiset": "6-31G**", 
		 "properties": { 
			 "R2extent": 3434.169, 
			 "electric_dipole_moment_norm": 7.00445931889, 
			 "electric_quadrupole_moment_norm": 10.7495560164, 
			 "total_energy": -686.593151969, 
			 "HOMO_LUMO_gap": 0.16407, 
			 "cosmo_polarized_energy": -12.59, 
			 "cosmo_cavitation_energy": 26.61, 
			 "cosmo_dispersion_energy": -19.72, 
			 "cosmo_repulsion_energy": 1.49, 
			 "cosmo_total_nonelectrostatic_energy": 8.37, 
			 "SMD_solvation_energy": 6.12 
		},
		"coords": [
			{
				"x": -1.1484863127,
				"y": 3.2582312852,
				"z": -1.7499277577,
				"element": "O" 
			},
			{
				"x": -1.0614076113,
				"y": 2.0859088033,
				"z": -1.9894190181,
				"element": "C" 
			},
			{
				"x": -1.4799390947,
				"y": 1.5417604306,
				"z": -3.2106141576,
				"element": "O" 
			},
			{
				"x": -1.270121295,
				"y": 0.1568584045,
				"z": -3.2347100764,
				"element": "C" 
			},
			{
				"x": -1.5567528407,
				"y": -0.515507257,
				"z": -4.1860511818,
				"element": "O" 
			},
			{
				"x": -0.6725930556,
				"y": -0.2145720902,
				"z": -1.9316090847,
				"element": "C" 
			},
			{
				"x": -0.2789716347,
				"y": -1.4356813898,
				"z": -1.448041377,
				"element": "C" 
			},
			{
				"x": 0.2726498166,
				"y": -1.4946863936,
				"z": -0.1365498495,
				"element": "C" 
			},
			{
				"x": 0.4034178373,
				"y": -0.2871989931,
				"z": 0.6428756613,
				"element": "C" 
			},
			{
				"x": 0.9567992248,
				"y": -0.3733394867,
				"z": 1.9479297345,
				"element": "C" 
			},
			{
				"x": 1.3626304982,
				"y": -1.5834694272,
				"z": 2.4649816845,
				"element": "C" 
			},
			{
				"x": 1.2342980228,
				"y": -2.7682273032,
				"z": 1.7002419066,
				"element": "C" 
			},
			{
				"x": 0.702238445,
				"y": -2.7236492757,
				"z": 0.4308434707,
				"element": "C" 
			},
			{
				"x": -0.0198206521,
				"y": 0.9581526448,
				"z": 0.0971974271,
				"element": "C" 
			},
			{
				"x": -0.5447910037,
				"y": 0.9662133389,
				"z": -1.169381728,
				"element": "C" 
			},
			{
				"x": -0.3819121771,
				"y": -2.3380861473,
				"z": -2.043338371,
				"element": "H" 
			},
			{
				"x": 1.0545209772,
				"y": 0.5366456191,
				"z": 2.5333700577,
				"element": "H" 
			},
			{
				"x": 1.7838496773,
				"y": -1.6331615614,
				"z": 3.4644588965,
				"element": "H" 
			},
			{
				"x": 1.5582982516,
				"y": -3.7155483591,
				"z": 2.1203097708,
				"element": "H" 
			},
			{
				"x": 0.6031012946,
				"y": -3.6317494648,
				"z": -0.157283462,
				"element": "H" 
			},
			{
				"x": 0.0738916323,
				"y": 1.8729066229,
				"z": 0.674917454,
				"element": "H" 
			}
		],
		 "valence_orbital": [ 
			{
				"type": "occ",
				"energy": -0.31834,
				"method": "rhf"
			},
			{
				"type": "occ",
				"energy": -0.30676,
				"method": "rhf"
			},
			{
				"type": "occ",
				"energy": -0.28463,
				"method": "rhf"
			},
			{
				"type": "occ",
				"energy": -0.27854,
				"method": "rhf"
			},
			{
				"type": "occ",
				"energy": -0.25048,
				"method": "rhf"
			},
			{
				"type": "unocc",
				"energy": -0.08641,
				"method": "rhf"
			},
			{
				"type": "unocc",
				"energy": -0.08441,
				"method": "rhf"
			},
			{
				"type": "unocc",
				"energy": -0.00872,
				"method": "rhf"
			},
			{
				"type": "unocc",
				"energy": -0.00169,
				"method": "rhf"
			},
			{
				"type": "unocc",
				"energy": 0.06019,
				"method": "rhf"
			}
		],
		"cosmo_sigma_profile": { 
			"-0.025": 0.0,
			"-0.024": 0.0,
			"-0.023": 0.0,
			"-0.022": 0.0,
			"-0.021": 0.0,
			"-0.02": 0.0,
			"-0.019": 0.0,
			"-0.018": 0.0,
			"-0.017": 0.0,
			"-0.016": 0.0,
			"-0.015": 0.0,
			"-0.014": 0.0,
			"-0.013": 0.0,
			"-0.012": 0.0,
			"-0.011": 0.0,
			"-0.01": 0.0,
			"-0.009": 2.06704867566,
			"-0.008": 8.20549851339,
			"-0.007": 12.1093171435,
			"-0.006": 14.0442700321,
			"-0.005": 13.9770350966,
			"-0.004": 12.7831531734,
			"-0.003": 11.100867235,
			"-0.002": 13.3472195322,
			"-0.001": 18.0892958901,
			"0.0": 20.5216239202,
			"0.001": 17.2338994244,
			"0.002": 13.2267674401,
			"0.003": 12.1617968479,
			"0.004": 3.84439219821,
			"0.005": 3.49569820824,
			"0.006": 4.90250238938,
			"0.007": 6.8914852912,
			"0.008": 6.5018356538,
			"0.009": 7.97342648074,
			"0.01": 10.3975013923,
			"0.011": 2.93740689343,
			"0.012": 0.00721932406748,
			"0.013": 0.0,
			"0.014": 0.0,
			"0.015": 0.0,
			"0.016": 0.0,
			"0.017": 0.0,
			"0.018": 0.0,
			"0.019": 0.0,
			"0.02": 0.0,
			"0.021": 0.0,
			"0.022": 0.0,
			"0.023": 0.0,
			"0.024": 0.0,
			"0.025": 0.0
		}
	}
}
