{
	 "smiles": "COC1=CC=C(C=C1OC)C1=NN2C(COC3=CC=CC=C3)=NN=C2S1", 
	 "Tm": 379.15, 
	 "num_atms": 42, 
	 "gaussian": { 
		 "optdone": 1, 
		 "sigma_profile": "yes", 
		 "theory": "DFT", 
		 "functional": "B3LYP", 
		 "basiset": "6-31G**", 
		 "properties": { 
			 "R2extent": 15445.7146, 
			 "electric_dipole_moment_norm": 7.02237508896, 
			 "electric_quadrupole_moment_norm": 29.0007212252, 
			 "total_energy": -1538.31604089, 
			 "HOMO_LUMO_gap": 0.14762, 
			 "cosmo_polarized_energy": -18.8, 
			 "cosmo_cavitation_energy": 49.26, 
			 "cosmo_dispersion_energy": -35.26, 
			 "cosmo_repulsion_energy": 2.62, 
			 "cosmo_total_nonelectrostatic_energy": 16.62, 
			 "SMD_solvation_energy": 6.59 
		},
		"coords": [
			{
				"x": -3.1243544456,
				"y": 1.4522807267,
				"z": -5.6627288845,
				"element": "C" 
			},
			{
				"x": -3.6288617498,
				"y": 1.0306182387,
				"z": -4.3854216743,
				"element": "O" 
			},
			{
				"x": -2.8199778767,
				"y": 1.294743344,
				"z": -3.31183692,
				"element": "C" 
			},
			{
				"x": -2.3043709074,
				"y": 0.2200054005,
				"z": -2.5798601296,
				"element": "C" 
			},
			{
				"x": -1.4966135264,
				"y": 0.4332919956,
				"z": -1.4700202092,
				"element": "C" 
			},
			{
				"x": -1.179102439,
				"y": 1.7441865525,
				"z": -1.0723197466,
				"element": "C" 
			},
			{
				"x": -1.7137729517,
				"y": 2.8233054985,
				"z": -1.7921300583,
				"element": "C" 
			},
			{
				"x": -2.5358677392,
				"y": 2.6117153895,
				"z": -2.8958518486,
				"element": "C" 
			},
			{
				"x": -3.0190993153,
				"y": 3.7047055371,
				"z": -3.5748986536,
				"element": "O" 
			},
			{
				"x": -4.4363820863,
				"y": 3.9051134036,
				"z": -3.4643964932,
				"element": "C" 
			},
			{
				"x": -0.3117487039,
				"y": 1.9583233984,
				"z": 0.0883718839,
				"element": "C" 
			},
			{
				"x": 0.206270166,
				"y": 0.9799085805,
				"z": 0.7730376838,
				"element": "N" 
			},
			{
				"x": 0.9571932443,
				"y": 1.4940743725,
				"z": 1.7846235651,
				"element": "N" 
			},
			{
				"x": 1.7232943877,
				"y": 0.9828146382,
				"z": 2.8040370864,
				"element": "C" 
			},
			{
				"x": 1.9456156516,
				"y": -0.4628767365,
				"z": 3.0711589517,
				"element": "C" 
			},
			{
				"x": 0.7004824624,
				"y": -1.0489250377,
				"z": 3.440955296,
				"element": "O" 
			},
			{
				"x": 0.6712326508,
				"y": -2.3962653772,
				"z": 3.6855167862,
				"element": "C" 
			},
			{
				"x": 1.7933493264,
				"y": -3.232107707,
				"z": 3.6674302488,
				"element": "C" 
			},
			{
				"x": 1.6369410952,
				"y": -4.5961706266,
				"z": 3.9373375919,
				"element": "C" 
			},
			{
				"x": 0.3833607661,
				"y": -5.1303147686,
				"z": 4.224432397,
				"element": "C" 
			},
			{
				"x": -0.7318301738,
				"y": -4.2847907484,
				"z": 4.2425670906,
				"element": "C" 
			},
			{
				"x": -0.5940782602,
				"y": -2.9275533785,
				"z": 3.9751951625,
				"element": "C" 
			},
			{
				"x": 2.2362915501,
				"y": 1.9880102509,
				"z": 3.4856446895,
				"element": "N" 
			},
			{
				"x": 1.8190676546,
				"y": 3.1896204479,
				"z": 2.9285756334,
				"element": "N" 
			},
			{
				"x": 1.0541886424,
				"y": 2.8571670839,
				"z": 1.9192113246,
				"element": "C" 
			},
			{
				"x": 0.1045826877,
				"y": 3.6137400565,
				"z": 0.6612513426,
				"element": "S" 
			},
			{
				"x": -3.8895715003,
				"y": 1.182162406,
				"z": -6.3922585462,
				"element": "H" 
			},
			{
				"x": -2.1937649571,
				"y": 0.9228762634,
				"z": -5.8994784785,
				"element": "H" 
			},
			{
				"x": -2.9483352402,
				"y": 2.5310863131,
				"z": -5.6871145369,
				"element": "H" 
			},
			{
				"x": -2.548989176,
				"y": -0.7848233232,
				"z": -2.9084071039,
				"element": "H" 
			},
			{
				"x": -1.0956578548,
				"y": -0.4040051564,
				"z": -0.9107399022,
				"element": "H" 
			},
			{
				"x": -1.5111453339,
				"y": 3.8532881528,
				"z": -1.5145851438,
				"element": "H" 
			},
			{
				"x": -4.9920024033,
				"y": 3.0476586034,
				"z": -3.8559756309,
				"element": "H" 
			},
			{
				"x": -4.7204885517,
				"y": 4.079095988,
				"z": -2.4195744224,
				"element": "H" 
			},
			{
				"x": -4.6635935512,
				"y": 4.7948933738,
				"z": -4.0540813514,
				"element": "H" 
			},
			{
				"x": 2.3460886822,
				"y": -0.9638318155,
				"z": 2.1783499994,
				"element": "H" 
			},
			{
				"x": 2.6832628663,
				"y": -0.5372198054,
				"z": 3.8785634827,
				"element": "H" 
			},
			{
				"x": 2.7814262861,
				"y": -2.8415434757,
				"z": 3.4542482398,
				"element": "H" 
			},
			{
				"x": 2.5125686239,
				"y": -5.2391278618,
				"z": 3.9225066094,
				"element": "H" 
			},
			{
				"x": 0.2727270546,
				"y": -6.1897608999,
				"z": 4.4334291328,
				"element": "H" 
			},
			{
				"x": -1.716216748,
				"y": -4.6861387796,
				"z": 4.466498094,
				"element": "H" 
			},
			{
				"x": -1.4468183067,
				"y": -2.256630518,
				"z": 3.9843374419,
				"element": "H" 
			}
		],
		 "valence_orbital": [ 
			{
				"type": "occ",
				"energy": -0.26206,
				"method": "rhf"
			},
			{
				"type": "occ",
				"energy": -0.25034,
				"method": "rhf"
			},
			{
				"type": "occ",
				"energy": -0.24738,
				"method": "rhf"
			},
			{
				"type": "occ",
				"energy": -0.23968,
				"method": "rhf"
			},
			{
				"type": "occ",
				"energy": -0.2206,
				"method": "rhf"
			},
			{
				"type": "unocc",
				"energy": -0.07298,
				"method": "rhf"
			},
			{
				"type": "unocc",
				"energy": -0.02209,
				"method": "rhf"
			},
			{
				"type": "unocc",
				"energy": -0.01321,
				"method": "rhf"
			},
			{
				"type": "unocc",
				"energy": -0.00119,
				"method": "rhf"
			},
			{
				"type": "unocc",
				"energy": 0.00639,
				"method": "rhf"
			}
		],
		"cosmo_sigma_profile": { 
			"-0.025": 0.0,
			"-0.024": 0.0,
			"-0.023": 0.0,
			"-0.022": 0.0,
			"-0.021": 0.0,
			"-0.02": 0.0,
			"-0.019": 0.0,
			"-0.018": 0.0,
			"-0.017": 0.0,
			"-0.016": 0.0,
			"-0.015": 0.0,
			"-0.014": 0.0,
			"-0.013": 0.0,
			"-0.012": 0.0,
			"-0.011": 0.0,
			"-0.01": 0.0,
			"-0.009": 0.59185164397,
			"-0.008": 4.55476408995,
			"-0.007": 11.8035139398,
			"-0.006": 19.4272357263,
			"-0.005": 30.6608860474,
			"-0.004": 36.7142853259,
			"-0.003": 42.482705647,
			"-0.002": 36.1185723268,
			"-0.001": 29.6321341807,
			"0.0": 25.5498984019,
			"0.001": 26.2694974307,
			"0.002": 28.8238685891,
			"0.003": 19.2438946776,
			"0.004": 16.8237328683,
			"0.005": 16.832910445,
			"0.006": 13.6505541859,
			"0.007": 7.17864650644,
			"0.008": 5.96655749216,
			"0.009": 4.86751313223,
			"0.01": 3.82559605335,
			"0.011": 4.13453678623,
			"0.012": 3.46834006173,
			"0.013": 3.32775712757,
			"0.014": 2.76835956294,
			"0.015": 2.17666146929,
			"0.016": 0.701665236735,
			"0.017": 0.0,
			"0.018": 0.0,
			"0.019": 0.0,
			"0.02": 0.0,
			"0.021": 0.0,
			"0.022": 0.0,
			"0.023": 0.0,
			"0.024": 0.0,
			"0.025": 0.0
		}
	}
}
