{
	 "smiles": "OCCC(F)(F)C(F)(F)C(F)(F)C(F)(F)C(F)(F)C(F)(F)C(F)(F)C(F)(F)C(F)(F)C(F)(F)F", 
	 "Tm": 365.85, 
	 "num_atms": 39, 
	 "gaussian": { 
		 "optdone": 1, 
		 "sigma_profile": "yes", 
		 "theory": "DFT", 
		 "functional": "B3LYP", 
		 "basiset": "6-31G**", 
		 "properties": { 
			 "R2extent": 16845.4111, 
			 "electric_dipole_moment_norm": 2.33736735239, 
			 "electric_quadrupole_moment_norm": 11.8963638419, 
			 "total_energy": -2632.06407555, 
			 "HOMO_LUMO_gap": 0.28171, 
			 "cosmo_polarized_energy": -7.26, 
			 "cosmo_cavitation_energy": 48.77, 
			 "cosmo_dispersion_energy": -31.07, 
			 "cosmo_repulsion_energy": 2.0, 
			 "cosmo_total_nonelectrostatic_energy": 19.69, 
			 "SMD_solvation_energy": 14.28 
		},
		"coords": [
			{
				"x": -0.618365975,
				"y": -3.7541543369,
				"z": 1.947786908,
				"element": "O" 
			},
			{
				"x": 0.0635816975,
				"y": -3.9767159011,
				"z": 0.7231270321,
				"element": "C" 
			},
			{
				"x": -0.6950539421,
				"y": -3.1806032943,
				"z": -0.3382264092,
				"element": "C" 
			},
			{
				"x": -0.0448426036,
				"y": -3.2852672968,
				"z": -1.7013432929,
				"element": "C" 
			},
			{
				"x": 1.2136501711,
				"y": -2.7443298433,
				"z": -1.6851204669,
				"element": "F" 
			},
			{
				"x": 0.0945665997,
				"y": -4.6005797362,
				"z": -2.0541708157,
				"element": "F" 
			},
			{
				"x": -0.8093514263,
				"y": -2.6346488102,
				"z": -2.8832022881,
				"element": "C" 
			},
			{
				"x": -0.1157503457,
				"y": -2.8614646867,
				"z": -4.0211959686,
				"element": "F" 
			},
			{
				"x": -2.0156792939,
				"y": -3.2556779867,
				"z": -2.9792471802,
				"element": "F" 
			},
			{
				"x": -1.1350506395,
				"y": -1.111114538,
				"z": -2.8233421554,
				"element": "C" 
			},
			{
				"x": -1.9949869856,
				"y": -0.8992138745,
				"z": -1.7956041848,
				"element": "F" 
			},
			{
				"x": -1.7687194718,
				"y": -0.8148600707,
				"z": -3.9822675294,
				"element": "F" 
			},
			{
				"x": 0.0691000171,
				"y": -0.1384415215,
				"z": -2.6450264633,
				"element": "C" 
			},
			{
				"x": 0.4422235922,
				"y": -0.1900912591,
				"z": -1.3407595414,
				"element": "F" 
			},
			{
				"x": 1.1004594439,
				"y": -0.5365022624,
				"z": -3.4178477708,
				"element": "F" 
			},
			{
				"x": -0.2616102675,
				"y": 1.3361170968,
				"z": -3.0127607614,
				"element": "C" 
			},
			{
				"x": -1.4206971144,
				"y": 1.7015369925,
				"z": -2.4182377093,
				"element": "F" 
			},
			{
				"x": -0.4232745948,
				"y": 1.3946168851,
				"z": -4.3548270171,
				"element": "F" 
			},
			{
				"x": 0.8255188265,
				"y": 2.4148950869,
				"z": -2.6973730094,
				"element": "C" 
			},
			{
				"x": 1.9388751293,
				"y": 2.0760868989,
				"z": -3.3888875442,
				"element": "F" 
			},
			{
				"x": 0.3298671511,
				"y": 3.5706974126,
				"z": -3.1962507077,
				"element": "F" 
			},
			{
				"x": 1.3172786584,
				"y": 2.7285046077,
				"z": -1.2436991257,
				"element": "C" 
			},
			{
				"x": 2.0874631684,
				"y": 3.8397420817,
				"z": -1.3795437594,
				"element": "F" 
			},
			{
				"x": 2.0976185685,
				"y": 1.7189211037,
				"z": -0.8069005414,
				"element": "F" 
			},
			{
				"x": 0.2401201698,
				"y": 3.0374461466,
				"z": -0.1767120099,
				"element": "C" 
			},
			{
				"x": -0.5556002607,
				"y": 4.026226145,
				"z": -0.6392490752,
				"element": "F" 
			},
			{
				"x": -0.5046903966,
				"y": 1.921276392,
				"z": 0.0153999732,
				"element": "F" 
			},
			{
				"x": 0.7519490162,
				"y": 3.4346037181,
				"z": 1.2433573614,
				"element": "C" 
			},
			{
				"x": 1.42671416,
				"y": 2.3858420975,
				"z": 1.7636383041,
				"element": "F" 
			},
			{
				"x": -0.363564146,
				"y": 3.6524021604,
				"z": 1.9778469959,
				"element": "F" 
			},
			{
				"x": 1.6477150244,
				"y": 4.6944886276,
				"z": 1.3848257551,
				"element": "C" 
			},
			{
				"x": 1.1868766468,
				"y": 5.6959381036,
				"z": 0.6256846438,
				"element": "F" 
			},
			{
				"x": 2.9079695391,
				"y": 4.4147786944,
				"z": 1.0345450275,
				"element": "F" 
			},
			{
				"x": 1.6401077842,
				"y": 5.0835696003,
				"z": 2.6652150767,
				"element": "F" 
			},
			{
				"x": -0.1652297438,
				"y": -4.2525840778,
				"z": 2.6387696837,
				"element": "H" 
			},
			{
				"x": 0.0763085728,
				"y": -5.0406007487,
				"z": 0.4484537912,
				"element": "H" 
			},
			{
				"x": 1.1061646161,
				"y": -3.6289325756,
				"z": 0.7659825826,
				"element": "H" 
			},
			{
				"x": -1.7226666016,
				"y": -3.5465844003,
				"z": -0.4107375588,
				"element": "H" 
			},
			{
				"x": -0.7348947442,
				"y": -2.1311226306,
				"z": -0.0404002491,
				"element": "H" 
			}
		],
		 "valence_orbital": [ 
			{
				"type": "occ",
				"energy": -0.36525,
				"method": "rhf"
			},
			{
				"type": "occ",
				"energy": -0.35858,
				"method": "rhf"
			},
			{
				"type": "occ",
				"energy": -0.34884,
				"method": "rhf"
			},
			{
				"type": "occ",
				"energy": -0.33736,
				"method": "rhf"
			},
			{
				"type": "occ",
				"energy": -0.2817,
				"method": "rhf"
			},
			{
				"type": "unocc",
				"energy": 1e-05,
				"method": "rhf"
			},
			{
				"type": "unocc",
				"energy": 0.01309,
				"method": "rhf"
			},
			{
				"type": "unocc",
				"energy": 0.02564,
				"method": "rhf"
			},
			{
				"type": "unocc",
				"energy": 0.03021,
				"method": "rhf"
			},
			{
				"type": "unocc",
				"energy": 0.0548,
				"method": "rhf"
			}
		],
		"cosmo_sigma_profile": { 
			"-0.025": 0.0,
			"-0.024": 0.0,
			"-0.023": 0.0,
			"-0.022": 0.0,
			"-0.021": 0.0,
			"-0.02": 0.0,
			"-0.019": 0.0,
			"-0.018": 0.0,
			"-0.017": 0.129973251597,
			"-0.016": 1.11658354131,
			"-0.015": 1.04428278413,
			"-0.014": 0.882764432442,
			"-0.013": 0.986307214725,
			"-0.012": 0.65087678534,
			"-0.011": 0.771481424507,
			"-0.01": 0.346502533956,
			"-0.009": 0.519418882101,
			"-0.008": 1.4047342041,
			"-0.007": 2.65863403017,
			"-0.006": 3.03010201072,
			"-0.005": 6.70157027787,
			"-0.004": 13.589210698,
			"-0.003": 16.8491894974,
			"-0.002": 21.2937949576,
			"-0.001": 37.8840794589,
			"0.0": 91.9098694444,
			"0.001": 126.998173385,
			"0.002": 33.2198231642,
			"0.003": 13.2813026913,
			"0.004": 1.69543632961,
			"0.005": 1.20642894803,
			"0.006": 1.07273930885,
			"0.007": 1.11151972124,
			"0.008": 1.59333701477,
			"0.009": 0.764686509291,
			"0.01": 0.999170305249,
			"0.011": 1.74082060656,
			"0.012": 1.23462366957,
			"0.013": 2.13939362154,
			"0.014": 0.507685699512,
			"0.015": 0.0,
			"0.016": 0.0,
			"0.017": 0.0,
			"0.018": 0.0,
			"0.019": 0.0,
			"0.02": 0.0,
			"0.021": 0.0,
			"0.022": 0.0,
			"0.023": 0.0,
			"0.024": 0.0,
			"0.025": 0.0
		}
	}
}
