{
	 "smiles": "NC1=CC=CC2=C1C=CC=C2", 
	 "Tm": 321.75, 
	 "num_atms": 20, 
	 "gaussian": { 
		 "optdone": 1, 
		 "sigma_profile": "yes", 
		 "theory": "DFT", 
		 "functional": "B3LYP", 
		 "basiset": "6-31G**", 
		 "properties": { 
			 "R2extent": 2881.4605, 
			 "electric_dipole_moment_norm": 1.64444843337, 
			 "electric_quadrupole_moment_norm": 9.53791760606, 
			 "total_energy": -441.252787761, 
			 "HOMO_LUMO_gap": 0.16116, 
			 "cosmo_polarized_energy": -8.8, 
			 "cosmo_cavitation_energy": 22.99, 
			 "cosmo_dispersion_energy": -17.52, 
			 "cosmo_repulsion_energy": 1.38, 
			 "cosmo_total_nonelectrostatic_energy": 6.85, 
			 "SMD_solvation_energy": 3.58 
		},
		"coords": [
			{
				"x": 1.6131362203,
				"y": 1.4990493334,
				"z": 2.274023044,
				"element": "N" 
			},
			{
				"x": 0.7953947728,
				"y": 1.2742663658,
				"z": 1.1599498272,
				"element": "C" 
			},
			{
				"x": 0.5584658397,
				"y": -0.0103333558,
				"z": 0.6960924227,
				"element": "C" 
			},
			{
				"x": -0.29448363,
				"y": -0.2436224847,
				"z": -0.4042223871,
				"element": "C" 
			},
			{
				"x": -0.9000646517,
				"y": 0.8013006331,
				"z": -1.0626033961,
				"element": "C" 
			},
			{
				"x": -0.6925980916,
				"y": 2.1345773141,
				"z": -0.6173413977,
				"element": "C" 
			},
			{
				"x": 0.1457171688,
				"y": 2.3848310893,
				"z": 0.5191699607,
				"element": "C" 
			},
			{
				"x": 0.2946592747,
				"y": 3.7220761183,
				"z": 0.9745815955,
				"element": "C" 
			},
			{
				"x": -0.3205390249,
				"y": 4.7702170211,
				"z": 0.3243310085,
				"element": "C" 
			},
			{
				"x": -1.1226726944,
				"y": 4.5276570147,
				"z": -0.814835421,
				"element": "C" 
			},
			{
				"x": -1.3063267283,
				"y": 3.2401646941,
				"z": -1.2663455776,
				"element": "C" 
			},
			{
				"x": 2.1670523461,
				"y": 0.6945766385,
				"z": 2.5374706527,
				"element": "H" 
			},
			{
				"x": 2.192289657,
				"y": 2.3261856384,
				"z": 2.2137691217,
				"element": "H" 
			},
			{
				"x": 1.0473826329,
				"y": -0.8507350399,
				"z": 1.1833415763,
				"element": "H" 
			},
			{
				"x": -0.4533918399,
				"y": -1.2651149166,
				"z": -0.7385276688,
				"element": "H" 
			},
			{
				"x": -1.5427575935,
				"y": 0.6243810211,
				"z": -1.9201819077,
				"element": "H" 
			},
			{
				"x": 0.8744452256,
				"y": 3.9225866115,
				"z": 1.8702599326,
				"element": "H" 
			},
			{
				"x": -0.1982608053,
				"y": 5.7844882696,
				"z": 0.6931786412,
				"element": "H" 
			},
			{
				"x": -1.6018665741,
				"y": 5.358625052,
				"z": -1.3246774039,
				"element": "H" 
			},
			{
				"x": -1.9344815044,
				"y": 3.0467229818,
				"z": -2.1323326232,
				"element": "H" 
			}
		],
		 "valence_orbital": [ 
			{
				"type": "occ",
				"energy": -0.32756,
				"method": "rhf"
			},
			{
				"type": "occ",
				"energy": -0.30279,
				"method": "rhf"
			},
			{
				"type": "occ",
				"energy": -0.25032,
				"method": "rhf"
			},
			{
				"type": "occ",
				"energy": -0.2366,
				"method": "rhf"
			},
			{
				"type": "occ",
				"energy": -0.18852,
				"method": "rhf"
			},
			{
				"type": "unocc",
				"energy": -0.02736,
				"method": "rhf"
			},
			{
				"type": "unocc",
				"energy": -0.00207,
				"method": "rhf"
			},
			{
				"type": "unocc",
				"energy": 0.04851,
				"method": "rhf"
			},
			{
				"type": "unocc",
				"energy": 0.0772,
				"method": "rhf"
			},
			{
				"type": "unocc",
				"energy": 0.1039,
				"method": "rhf"
			}
		],
		"cosmo_sigma_profile": { 
			"-0.025": 0.0,
			"-0.024": 0.0,
			"-0.023": 0.0,
			"-0.022": 0.0,
			"-0.021": 0.0,
			"-0.02": 0.0,
			"-0.019": 0.0,
			"-0.018": 0.0,
			"-0.017": 0.0,
			"-0.016": 0.0,
			"-0.015": 0.0,
			"-0.014": 0.0,
			"-0.013": 0.128665738563,
			"-0.012": 2.14551629159,
			"-0.011": 3.11066780727,
			"-0.01": 2.64567856787,
			"-0.009": 3.21248314187,
			"-0.008": 3.06282110252,
			"-0.007": 2.90516999108,
			"-0.006": 5.97081465193,
			"-0.005": 14.4838293755,
			"-0.004": 14.1353345483,
			"-0.003": 14.2162342634,
			"-0.002": 11.0188852901,
			"-0.001": 9.56297582031,
			"0.0": 8.49938632729,
			"0.001": 8.55157276689,
			"0.002": 9.05640672298,
			"0.003": 11.2063880704,
			"0.004": 12.6218873158,
			"0.005": 23.2998551973,
			"0.006": 15.421685898,
			"0.007": 3.31685432339,
			"0.008": 0.781433509022,
			"0.009": 0.540462251283,
			"0.01": 1.30470182308,
			"0.011": 0.4858491012,
			"0.012": 0.531263467773,
			"0.013": 0.674462975233,
			"0.014": 0.441594409957,
			"0.015": 0.291476751037,
			"0.016": 0.0,
			"0.017": 0.0,
			"0.018": 0.0,
			"0.019": 0.0,
			"0.02": 0.0,
			"0.021": 0.0,
			"0.022": 0.0,
			"0.023": 0.0,
			"0.024": 0.0,
			"0.025": 0.0
		}
	}
}
