{
	 "smiles": "COCC1=C2N=C(N)SC2=CC=C1", 
	 "Tm": 413.15, 
	 "num_atms": 23, 
	 "gaussian": { 
		 "optdone": 1, 
		 "sigma_profile": "yes", 
		 "theory": "DFT", 
		 "functional": "B3LYP", 
		 "basiset": "6-31G**", 
		 "properties": { 
			 "R2extent": 3207.8927, 
			 "electric_dipole_moment_norm": 1.93069456414, 
			 "electric_quadrupole_moment_norm": 15.7862230391, 
			 "total_energy": -931.894034193, 
			 "HOMO_LUMO_gap": 0.19482, 
			 "cosmo_polarized_energy": -14.08, 
			 "cosmo_cavitation_energy": 28.31, 
			 "cosmo_dispersion_energy": -21.12, 
			 "cosmo_repulsion_energy": 1.65, 
			 "cosmo_total_nonelectrostatic_energy": 8.84, 
			 "SMD_solvation_energy": 3.48 
		},
		"coords": [
			{
				"x": 0.7348793341,
				"y": 2.5445402444,
				"z": 0.4753787326,
				"element": "C" 
			},
			{
				"x": 1.5940503356,
				"y": 1.5964526308,
				"z": -0.1222895981,
				"element": "O" 
			},
			{
				"x": 1.7240339269,
				"y": 0.3892596553,
				"z": 0.6193211706,
				"element": "C" 
			},
			{
				"x": 0.4736207145,
				"y": -0.4649873654,
				"z": 0.6326973641,
				"element": "C" 
			},
			{
				"x": 0.1020029486,
				"y": -1.1996893513,
				"z": -0.5107619198,
				"element": "C" 
			},
			{
				"x": 0.8355084473,
				"y": -1.2573499796,
				"z": -1.6857394645,
				"element": "N" 
			},
			{
				"x": 0.2549841437,
				"y": -2.0189183568,
				"z": -2.5569997116,
				"element": "C" 
			},
			{
				"x": 0.7127080295,
				"y": -2.2135089904,
				"z": -3.8332115988,
				"element": "N" 
			},
			{
				"x": -1.282934967,
				"y": -2.7770317393,
				"z": -2.0458651279,
				"element": "S" 
			},
			{
				"x": -1.0838853206,
				"y": -1.9737913344,
				"z": -0.4886569796,
				"element": "C" 
			},
			{
				"x": -1.9047748328,
				"y": -2.0398386555,
				"z": 0.6351684065,
				"element": "C" 
			},
			{
				"x": -1.5258101356,
				"y": -1.3130969782,
				"z": 1.7632715369,
				"element": "C" 
			},
			{
				"x": -0.3557278816,
				"y": -0.5412250728,
				"z": 1.75392222,
				"element": "C" 
			},
			{
				"x": 1.0714499875,
				"y": 2.8177233204,
				"z": 1.4896076071,
				"element": "H" 
			},
			{
				"x": -0.3029758371,
				"y": 2.1886251029,
				"z": 0.5429880978,
				"element": "H" 
			},
			{
				"x": 0.7601417012,
				"y": 3.4374279677,
				"z": -0.154494763,
				"element": "H" 
			},
			{
				"x": 2.0215897946,
				"y": 0.6119297982,
				"z": 1.6575155194,
				"element": "H" 
			},
			{
				"x": 2.5384247157,
				"y": -0.1540318405,
				"z": 0.1334285725,
				"element": "H" 
			},
			{
				"x": 0.4816750676,
				"y": -3.0830622014,
				"z": -4.2902398402,
				"element": "H" 
			},
			{
				"x": 1.6593765877,
				"y": -1.8896658472,
				"z": -3.9802189543,
				"element": "H" 
			},
			{
				"x": -2.8098142991,
				"y": -2.6389028783,
				"z": 0.6369200086,
				"element": "H" 
			},
			{
				"x": -2.1441362986,
				"y": -1.3461073228,
				"z": 2.655137392,
				"element": "H" 
			},
			{
				"x": -0.0778861623,
				"y": 0.013049194,
				"z": 2.6471213297,
				"element": "H" 
			}
		],
		 "valence_orbital": [ 
			{
				"type": "occ",
				"energy": -0.29386,
				"method": "rhf"
			},
			{
				"type": "occ",
				"energy": -0.27416,
				"method": "rhf"
			},
			{
				"type": "occ",
				"energy": -0.24293,
				"method": "rhf"
			},
			{
				"type": "occ",
				"energy": -0.22987,
				"method": "rhf"
			},
			{
				"type": "occ",
				"energy": -0.2114,
				"method": "rhf"
			},
			{
				"type": "unocc",
				"energy": -0.01658,
				"method": "rhf"
			},
			{
				"type": "unocc",
				"energy": -0.00213,
				"method": "rhf"
			},
			{
				"type": "unocc",
				"energy": 0.00304,
				"method": "rhf"
			},
			{
				"type": "unocc",
				"energy": 0.04733,
				"method": "rhf"
			},
			{
				"type": "unocc",
				"energy": 0.0686,
				"method": "rhf"
			}
		],
		"cosmo_sigma_profile": { 
			"-0.025": 0.0,
			"-0.024": 0.0,
			"-0.023": 0.0,
			"-0.022": 0.0,
			"-0.021": 0.0,
			"-0.02": 0.0,
			"-0.019": 0.0,
			"-0.018": 0.0,
			"-0.017": 0.0,
			"-0.016": 0.00685728491037,
			"-0.015": 0.936782461615,
			"-0.014": 2.65231049019,
			"-0.013": 2.3711814872,
			"-0.012": 2.73938228906,
			"-0.011": 3.04275086898,
			"-0.01": 1.87403059258,
			"-0.009": 1.88618096149,
			"-0.008": 1.35416386163,
			"-0.007": 3.47995055802,
			"-0.006": 5.98100468136,
			"-0.005": 11.1061289193,
			"-0.004": 18.2712564774,
			"-0.003": 18.0929811107,
			"-0.002": 20.2670407581,
			"-0.001": 15.7762755265,
			"0.0": 13.507444446,
			"0.001": 14.8041696534,
			"0.002": 15.5789630209,
			"0.003": 16.3380389918,
			"0.004": 15.7813302338,
			"0.005": 13.4054362557,
			"0.006": 5.21582625582,
			"0.007": 3.13930641947,
			"0.008": 3.28366949943,
			"0.009": 2.68136109124,
			"0.01": 2.57980755015,
			"0.011": 2.45988027444,
			"0.012": 2.4059883072,
			"0.013": 3.01559823981,
			"0.014": 2.75655196489,
			"0.015": 0.209841346952,
			"0.016": 0.0,
			"0.017": 0.0,
			"0.018": 0.0,
			"0.019": 0.0,
			"0.02": 0.0,
			"0.021": 0.0,
			"0.022": 0.0,
			"0.023": 0.0,
			"0.024": 0.0,
			"0.025": 0.0
		}
	}
}
