{
	 "smiles": "CC(N)C1=CC=C(C=C1)C1=CN=CN=C1", 
	 "Tm": 321.15, 
	 "num_atms": 28, 
	 "gaussian": { 
		 "optdone": 1, 
		 "sigma_profile": "yes", 
		 "theory": "DFT", 
		 "functional": "B3LYP", 
		 "basiset": "6-31G**", 
		 "properties": { 
			 "R2extent": 4891.001, 
			 "electric_dipole_moment_norm": 2.2028015503, 
			 "electric_quadrupole_moment_norm": 13.8007672779, 
			 "total_energy": -629.36415093, 
			 "HOMO_LUMO_gap": 0.18605, 
			 "cosmo_polarized_energy": -12.17, 
			 "cosmo_cavitation_energy": 31.73, 
			 "cosmo_dispersion_energy": -22.8, 
			 "cosmo_repulsion_energy": 1.77, 
			 "cosmo_total_nonelectrostatic_energy": 10.69, 
			 "SMD_solvation_energy": 1.27 
		},
		"coords": [
			{
				"x": -2.8761561529,
				"y": 3.2884603629,
				"z": -0.9295181049,
				"element": "C" 
			},
			{
				"x": -1.7408852607,
				"y": 3.6315078432,
				"z": 0.0480856228,
				"element": "C" 
			},
			{
				"x": -2.3059364491,
				"y": 4.3712043554,
				"z": 1.1806239922,
				"element": "N" 
			},
			{
				"x": -0.9305629022,
				"y": 2.3815608824,
				"z": 0.3999350197,
				"element": "C" 
			},
			{
				"x": -1.3005001864,
				"y": 1.5288605954,
				"z": 1.4475157219,
				"element": "C" 
			},
			{
				"x": -0.5710928489,
				"y": 0.3769834348,
				"z": 1.7324930007,
				"element": "C" 
			},
			{
				"x": 0.5616189091,
				"y": 0.0345745319,
				"z": 0.9754718703,
				"element": "C" 
			},
			{
				"x": 0.9357943975,
				"y": 0.8903203797,
				"z": -0.0738539524,
				"element": "C" 
			},
			{
				"x": 0.2024504522,
				"y": 2.0413282609,
				"z": -0.3506878694,
				"element": "C" 
			},
			{
				"x": 1.3396068207,
				"y": -1.1861118645,
				"z": 1.2782006401,
				"element": "C" 
			},
			{
				"x": 0.7358946447,
				"y": -2.3880611819,
				"z": 1.6785009625,
				"element": "C" 
			},
			{
				"x": 1.426452146,
				"y": -3.4963429226,
				"z": 1.9600766959,
				"element": "N" 
			},
			{
				"x": 2.7543125926,
				"y": -3.4089690215,
				"z": 1.8279924274,
				"element": "C" 
			},
			{
				"x": 3.4526755514,
				"y": -2.3325975341,
				"z": 1.4513611078,
				"element": "N" 
			},
			{
				"x": 2.73914436,
				"y": -1.2345537951,
				"z": 1.187228579,
				"element": "C" 
			},
			{
				"x": -3.5819992635,
				"y": 2.5874856786,
				"z": -0.4678451973,
				"element": "H" 
			},
			{
				"x": -2.4871135501,
				"y": 2.8168215021,
				"z": -1.8360879963,
				"element": "H" 
			},
			{
				"x": -3.4200875106,
				"y": 4.1967165098,
				"z": -1.2037375103,
				"element": "H" 
			},
			{
				"x": -1.0569946112,
				"y": 4.3207192913,
				"z": -0.4656546008,
				"element": "H" 
			},
			{
				"x": -1.5989621382,
				"y": 4.520813402,
				"z": 1.8964798833,
				"element": "H" 
			},
			{
				"x": -3.056455928,
				"y": 3.8394887449,
				"z": 1.61553595,
				"element": "H" 
			},
			{
				"x": -2.1602791685,
				"y": 1.7761487941,
				"z": 2.0644526278,
				"element": "H" 
			},
			{
				"x": -0.8667449373,
				"y": -0.2491131021,
				"z": 2.5695783571,
				"element": "H" 
			},
			{
				"x": 1.7959723211,
				"y": 0.6425904653,
				"z": -0.6892871754,
				"element": "H" 
			},
			{
				"x": 0.5124693848,
				"y": 2.6863702144,
				"z": -1.1699680233,
				"element": "H" 
			},
			{
				"x": -0.3480129778,
				"y": -2.4593637833,
				"z": 1.7569785055,
				"element": "H" 
			},
			{
				"x": 3.3262425105,
				"y": -4.3076166361,
				"z": 2.050239842,
				"element": "H" 
			},
			{
				"x": 3.3030497948,
				"y": -0.3461254078,
				"z": 0.9065896242,
				"element": "H" 
			}
		],
		 "valence_orbital": [ 
			{
				"type": "occ",
				"energy": -0.29896,
				"method": "rhf"
			},
			{
				"type": "occ",
				"energy": -0.263,
				"method": "rhf"
			},
			{
				"type": "occ",
				"energy": -0.25373,
				"method": "rhf"
			},
			{
				"type": "occ",
				"energy": -0.24852,
				"method": "rhf"
			},
			{
				"type": "occ",
				"energy": -0.23283,
				"method": "rhf"
			},
			{
				"type": "unocc",
				"energy": -0.04678,
				"method": "rhf"
			},
			{
				"type": "unocc",
				"energy": -0.04156,
				"method": "rhf"
			},
			{
				"type": "unocc",
				"energy": -0.01479,
				"method": "rhf"
			},
			{
				"type": "unocc",
				"energy": 0.00833,
				"method": "rhf"
			},
			{
				"type": "unocc",
				"energy": 0.07407,
				"method": "rhf"
			}
		],
		"cosmo_sigma_profile": { 
			"-0.025": 0.0,
			"-0.024": 0.0,
			"-0.023": 0.0,
			"-0.022": 0.0,
			"-0.021": 0.0,
			"-0.02": 0.0,
			"-0.019": 0.0,
			"-0.018": 0.0,
			"-0.017": 0.0,
			"-0.016": 0.0,
			"-0.015": 0.0,
			"-0.014": 0.0,
			"-0.013": 0.0,
			"-0.012": 0.0,
			"-0.011": 0.0,
			"-0.01": 0.793262051111,
			"-0.009": 2.8063727886,
			"-0.008": 4.98354127774,
			"-0.007": 10.9546514806,
			"-0.006": 13.9732157217,
			"-0.005": 14.4511196795,
			"-0.004": 18.6902842642,
			"-0.003": 19.572498343,
			"-0.002": 21.3879329717,
			"-0.001": 24.4742610359,
			"0.0": 23.3870917347,
			"0.001": 18.9828087836,
			"0.002": 12.1588750438,
			"0.003": 13.0230777868,
			"0.004": 10.9349150709,
			"0.005": 10.6919718916,
			"0.006": 4.04958192521,
			"0.007": 5.00137540456,
			"0.008": 2.89429962633,
			"0.009": 1.83913749869,
			"0.01": 2.68756938273,
			"0.011": 2.46129471432,
			"0.012": 2.15147181808,
			"0.013": 2.36021861704,
			"0.014": 2.36814594267,
			"0.015": 2.29579247557,
			"0.016": 0.897473268764,
			"0.017": 0.761268381995,
			"0.018": 0.444131479656,
			"0.019": 0.520481501747,
			"0.02": 0.0536085091572,
			"0.021": 0.0,
			"0.022": 0.0,
			"0.023": 0.0,
			"0.024": 0.0,
			"0.025": 0.0
		}
	}
}
