{
	 "smiles": "CCOC1=CC=CC(=C1)C(=O)NN", 
	 "Tm": 375.65, 
	 "num_atms": 25, 
	 "gaussian": { 
		 "optdone": 1, 
		 "sigma_profile": "yes", 
		 "theory": "DFT", 
		 "functional": "B3LYP", 
		 "basiset": "6-31G**", 
		 "properties": { 
			 "R2extent": 3307.6609, 
			 "electric_dipole_moment_norm": 3.10151118489, 
			 "electric_quadrupole_moment_norm": 9.96373289837, 
			 "total_energy": -610.11874735, 
			 "HOMO_LUMO_gap": 0.18751, 
			 "cosmo_polarized_energy": -13.75, 
			 "cosmo_cavitation_energy": 28.76, 
			 "cosmo_dispersion_energy": -20.88, 
			 "cosmo_repulsion_energy": 1.69, 
			 "cosmo_total_nonelectrostatic_energy": 9.57, 
			 "SMD_solvation_energy": 6.39 
		},
		"coords": [
			{
				"x": -1.1582243617,
				"y": -0.071968256,
				"z": -3.947992481,
				"element": "C" 
			},
			{
				"x": -1.5876852702,
				"y": -1.1106574616,
				"z": -2.9168374223,
				"element": "C" 
			},
			{
				"x": -0.5050121388,
				"y": -1.5454435518,
				"z": -2.089792408,
				"element": "O" 
			},
			{
				"x": -0.1044462194,
				"y": -0.7864972062,
				"z": -1.028841705,
				"element": "C" 
			},
			{
				"x": 0.998630928,
				"y": -1.2861363425,
				"z": -0.3177533379,
				"element": "C" 
			},
			{
				"x": 1.4950049544,
				"y": -0.5933448348,
				"z": 0.780914539,
				"element": "C" 
			},
			{
				"x": 0.9028751738,
				"y": 0.6010538798,
				"z": 1.1953172104,
				"element": "C" 
			},
			{
				"x": -0.2050308967,
				"y": 1.0932986384,
				"z": 0.5020138448,
				"element": "C" 
			},
			{
				"x": -0.7064151828,
				"y": 0.4081573865,
				"z": -0.6182059874,
				"element": "C" 
			},
			{
				"x": -0.8144038537,
				"y": 2.3747427173,
				"z": 0.9856506991,
				"element": "C" 
			},
			{
				"x": -0.1974413221,
				"y": 3.194996611,
				"z": 1.65908697,
				"element": "O" 
			},
			{
				"x": -2.1329322515,
				"y": 2.5837046733,
				"z": 0.6359081374,
				"element": "N" 
			},
			{
				"x": -2.8335581813,
				"y": 3.6768150305,
				"z": 1.1982566386,
				"element": "N" 
			},
			{
				"x": -0.3489495413,
				"y": -0.467940995,
				"z": -4.5678762975,
				"element": "H" 
			},
			{
				"x": -2.0014634579,
				"y": 0.1787761434,
				"z": -4.6002508235,
				"element": "H" 
			},
			{
				"x": -0.8058631708,
				"y": 0.8492168383,
				"z": -3.4762288226,
				"element": "H" 
			},
			{
				"x": -2.4183879755,
				"y": -0.7476965306,
				"z": -2.2978071708,
				"element": "H" 
			},
			{
				"x": -1.9289693799,
				"y": -2.0215416832,
				"z": -3.4165477384,
				"element": "H" 
			},
			{
				"x": 1.4489314663,
				"y": -2.2143018439,
				"z": -0.6542260052,
				"element": "H" 
			},
			{
				"x": 2.3523846621,
				"y": -0.9883360769,
				"z": 1.3180672097,
				"element": "H" 
			},
			{
				"x": 1.2816545887,
				"y": 1.1619909852,
				"z": 2.0419024598,
				"element": "H" 
			},
			{
				"x": -1.5276787616,
				"y": 0.8360009586,
				"z": -1.1795405013,
				"element": "H" 
			},
			{
				"x": -2.7154951128,
				"y": 1.7728554413,
				"z": 0.4790161246,
				"element": "H" 
			},
			{
				"x": -2.347218302,
				"y": 3.9080377361,
				"z": 2.0672271591,
				"element": "H" 
			},
			{
				"x": -2.6781063933,
				"y": 4.4779177429,
				"z": 0.5869397082,
				"element": "H" 
			}
		],
		 "valence_orbital": [ 
			{
				"type": "occ",
				"energy": -0.28945,
				"method": "rhf"
			},
			{
				"type": "occ",
				"energy": -0.26309,
				"method": "rhf"
			},
			{
				"type": "occ",
				"energy": -0.25607,
				"method": "rhf"
			},
			{
				"type": "occ",
				"energy": -0.24998,
				"method": "rhf"
			},
			{
				"type": "occ",
				"energy": -0.22484,
				"method": "rhf"
			},
			{
				"type": "unocc",
				"energy": -0.03733,
				"method": "rhf"
			},
			{
				"type": "unocc",
				"energy": 0.00236,
				"method": "rhf"
			},
			{
				"type": "unocc",
				"energy": 0.05667,
				"method": "rhf"
			},
			{
				"type": "unocc",
				"energy": 0.07627,
				"method": "rhf"
			},
			{
				"type": "unocc",
				"energy": 0.09461,
				"method": "rhf"
			}
		],
		"cosmo_sigma_profile": { 
			"-0.025": 0.0,
			"-0.024": 0.0,
			"-0.023": 0.0,
			"-0.022": 0.0,
			"-0.021": 0.0,
			"-0.02": 0.0,
			"-0.019": 0.0,
			"-0.018": 0.0,
			"-0.017": 0.0,
			"-0.016": 0.0,
			"-0.015": 0.0,
			"-0.014": 0.273981256659,
			"-0.013": 1.21400880383,
			"-0.012": 1.32060808749,
			"-0.011": 2.98136064675,
			"-0.01": 2.40725223756,
			"-0.009": 4.52079913129,
			"-0.008": 3.38835552001,
			"-0.007": 4.67382925564,
			"-0.006": 9.78050553018,
			"-0.005": 13.5741653373,
			"-0.004": 19.0843176566,
			"-0.003": 20.2636320851,
			"-0.002": 16.6690435624,
			"-0.001": 15.2220494557,
			"0.0": 16.8448555297,
			"0.001": 13.5630847002,
			"0.002": 11.771079711,
			"0.003": 14.7572508749,
			"0.004": 15.5116973297,
			"0.005": 8.27061206153,
			"0.006": 4.13327918935,
			"0.007": 3.07788284145,
			"0.008": 2.39830632071,
			"0.009": 4.27788901401,
			"0.01": 3.04264539874,
			"0.011": 2.67650048117,
			"0.012": 2.84817387535,
			"0.013": 5.49396663612,
			"0.014": 1.73528715731,
			"0.015": 0.741895212403,
			"0.016": 0.553321514362,
			"0.017": 0.269742854427,
			"0.018": 0.0,
			"0.019": 0.0,
			"0.02": 0.0,
			"0.021": 0.0,
			"0.022": 0.0,
			"0.023": 0.0,
			"0.024": 0.0,
			"0.025": 0.0
		}
	}
}
