{
	 "smiles": "CS(=O)(=O)C1=CC2=C(NCCC2)C=C1", 
	 "Tm": 386.15, 
	 "num_atms": 27, 
	 "gaussian": { 
		 "optdone": 1, 
		 "sigma_profile": "yes", 
		 "theory": "DFT", 
		 "functional": "B3LYP", 
		 "basiset": "6-31G**", 
		 "properties": { 
			 "R2extent": 4397.5216, 
			 "electric_dipole_moment_norm": 7.59315184294, 
			 "electric_quadrupole_moment_norm": 27.5472048713, 
			 "total_energy": -992.237412942, 
			 "HOMO_LUMO_gap": 0.19248, 
			 "cosmo_polarized_energy": -18.49, 
			 "cosmo_cavitation_energy": 30.5, 
			 "cosmo_dispersion_energy": -23.07, 
			 "cosmo_repulsion_energy": 1.77, 
			 "cosmo_total_nonelectrostatic_energy": 9.2, 
			 "SMD_solvation_energy": 3.52 
		},
		"coords": [
			{
				"x": 1.5214734393,
				"y": 2.8882021912,
				"z": 2.0564574837,
				"element": "C" 
			},
			{
				"x": 2.6723324855,
				"y": 2.1573525127,
				"z": 0.8638146727,
				"element": "S" 
			},
			{
				"x": 2.6960212297,
				"y": 3.0478776177,
				"z": -0.3093976573,
				"element": "O" 
			},
			{
				"x": 3.9076292375,
				"y": 1.8391035367,
				"z": 1.6001622301,
				"element": "O" 
			},
			{
				"x": 1.8950165391,
				"y": 0.6235547174,
				"z": 0.3869401538,
				"element": "C" 
			},
			{
				"x": 1.0286864871,
				"y": 0.5965164951,
				"z": -0.7093710357,
				"element": "C" 
			},
			{
				"x": 0.3987308276,
				"y": -0.5818870641,
				"z": -1.0981107405,
				"element": "C" 
			},
			{
				"x": 0.6648594517,
				"y": -1.7711478703,
				"z": -0.3711330532,
				"element": "C" 
			},
			{
				"x": 0.0994240989,
				"y": -2.9681674408,
				"z": -0.756885827,
				"element": "N" 
			},
			{
				"x": -0.9596421134,
				"y": -3.0388223442,
				"z": -1.7526871206,
				"element": "C" 
			},
			{
				"x": -0.6813738278,
				"y": -2.0267444971,
				"z": -2.8662443277,
				"element": "C" 
			},
			{
				"x": -0.5568096404,
				"y": -0.6151760311,
				"z": -2.2762858486,
				"element": "C" 
			},
			{
				"x": 1.5524408526,
				"y": -1.7314155136,
				"z": 0.725617899,
				"element": "C" 
			},
			{
				"x": 2.1639134573,
				"y": -0.546419096,
				"z": 1.1045156922,
				"element": "C" 
			},
			{
				"x": 0.5619324785,
				"y": 3.0637236494,
				"z": 1.5681492812,
				"element": "H" 
			},
			{
				"x": 1.9654343765,
				"y": 3.8340437186,
				"z": 2.373925114,
				"element": "H" 
			},
			{
				"x": 1.4115295697,
				"y": 2.2153361331,
				"z": 2.9080088483,
				"element": "H" 
			},
			{
				"x": 0.8621207051,
				"y": 1.5091973296,
				"z": -1.2747252944,
				"element": "H" 
			},
			{
				"x": 0.173694936,
				"y": -3.7340725045,
				"z": -0.1048277031,
				"element": "H" 
			},
			{
				"x": -1.9490465174,
				"y": -2.8360036595,
				"z": -1.3090480179,
				"element": "H" 
			},
			{
				"x": -0.9867568529,
				"y": -4.0572069859,
				"z": -2.1541861664,
				"element": "H" 
			},
			{
				"x": 0.2498155328,
				"y": -2.3039798338,
				"z": -3.3733392834,
				"element": "H" 
			},
			{
				"x": -1.4855167832,
				"y": -2.0645905257,
				"z": -3.6079827686,
				"element": "H" 
			},
			{
				"x": -1.5507187396,
				"y": -0.2715370394,
				"z": -1.9551125949,
				"element": "H" 
			},
			{
				"x": -0.2237928703,
				"y": 0.0915271891,
				"z": -3.044226375,
				"element": "H" 
			},
			{
				"x": 1.7677809627,
				"y": -2.6499273899,
				"z": 1.2661993086,
				"element": "H" 
			},
			{
				"x": 2.8646206776,
				"y": -0.5234372945,
				"z": 1.9324731308,
				"element": "H" 
			}
		],
		 "valence_orbital": [ 
			{
				"type": "occ",
				"energy": -0.29609,
				"method": "rhf"
			},
			{
				"type": "occ",
				"energy": -0.28016,
				"method": "rhf"
			},
			{
				"type": "occ",
				"energy": -0.27162,
				"method": "rhf"
			},
			{
				"type": "occ",
				"energy": -0.2551,
				"method": "rhf"
			},
			{
				"type": "occ",
				"energy": -0.20785,
				"method": "rhf"
			},
			{
				"type": "unocc",
				"energy": -0.01537,
				"method": "rhf"
			},
			{
				"type": "unocc",
				"energy": -0.01147,
				"method": "rhf"
			},
			{
				"type": "unocc",
				"energy": 0.06729,
				"method": "rhf"
			},
			{
				"type": "unocc",
				"energy": 0.08348,
				"method": "rhf"
			},
			{
				"type": "unocc",
				"energy": 0.08519,
				"method": "rhf"
			}
		],
		"cosmo_sigma_profile": { 
			"-0.025": 0.0,
			"-0.024": 0.0,
			"-0.023": 0.0,
			"-0.022": 0.0,
			"-0.021": 0.0,
			"-0.02": 0.0,
			"-0.019": 0.0,
			"-0.018": 0.0,
			"-0.017": 0.0,
			"-0.016": 0.0,
			"-0.015": 0.0,
			"-0.014": 0.0726170030105,
			"-0.013": 1.30039053696,
			"-0.012": 1.46869309595,
			"-0.011": 1.60185476794,
			"-0.01": 1.52026200037,
			"-0.009": 1.60698534294,
			"-0.008": 5.50219657889,
			"-0.007": 7.02155170516,
			"-0.006": 11.2483026706,
			"-0.005": 13.8462216378,
			"-0.004": 23.1624579376,
			"-0.003": 28.4145801356,
			"-0.002": 25.29409654,
			"-0.001": 17.4771441863,
			"0.0": 12.5988651081,
			"0.001": 8.44558459097,
			"0.002": 7.47813210241,
			"0.003": 11.2287638576,
			"0.004": 12.8775995295,
			"0.005": 9.82069704187,
			"0.006": 3.66246893804,
			"0.007": 2.26441160403,
			"0.008": 2.51602422661,
			"0.009": 4.21737914518,
			"0.01": 2.99288695726,
			"0.011": 7.08848812829,
			"0.012": 9.87196589998,
			"0.013": 5.92177253007,
			"0.014": 0.0,
			"0.015": 0.0,
			"0.016": 0.0,
			"0.017": 0.0,
			"0.018": 0.0,
			"0.019": 0.0,
			"0.02": 0.0,
			"0.021": 0.0,
			"0.022": 0.0,
			"0.023": 0.0,
			"0.024": 0.0,
			"0.025": 0.0
		}
	}
}
