{
	 "smiles": "CC(CC1=CC=C(Cl)C=C1)C(O)=O", 
	 "Tm": 323.15, 
	 "num_atms": 24, 
	 "gaussian": { 
		 "optdone": 1, 
		 "sigma_profile": "yes", 
		 "theory": "DFT", 
		 "functional": "B3LYP", 
		 "basiset": "6-31G**", 
		 "properties": { 
			 "R2extent": 4281.5812, 
			 "electric_dipole_moment_norm": 2.89166812238, 
			 "electric_quadrupole_moment_norm": 13.060753827, 
			 "total_energy": -998.361116747, 
			 "HOMO_LUMO_gap": 0.22385, 
			 "cosmo_polarized_energy": -10.92, 
			 "cosmo_cavitation_energy": 29.28, 
			 "cosmo_dispersion_energy": -20.71, 
			 "cosmo_repulsion_energy": 1.66, 
			 "cosmo_total_nonelectrostatic_energy": 10.22, 
			 "SMD_solvation_energy": 5.58 
		},
		"coords": [
			{
				"x": 1.5657063509,
				"y": -2.2936769465,
				"z": -0.4994976396,
				"element": "C" 
			},
			{
				"x": 0.1611498968,
				"y": -2.0193399969,
				"z": -1.0408328627,
				"element": "C" 
			},
			{
				"x": -0.5669361057,
				"y": -0.841166924,
				"z": -0.3264477506,
				"element": "C" 
			},
			{
				"x": 0.0913797108,
				"y": 0.5147903161,
				"z": -0.4795004837,
				"element": "C" 
			},
			{
				"x": -0.1959916796,
				"y": 1.3335748842,
				"z": -1.581424481,
				"element": "C" 
			},
			{
				"x": 0.4088925076,
				"y": 2.5802516015,
				"z": -1.7375897945,
				"element": "C" 
			},
			{
				"x": 1.3152580232,
				"y": 3.0202541783,
				"z": -0.7742295142,
				"element": "C" 
			},
			{
				"x": 2.0796338428,
				"y": 4.5939753829,
				"z": -0.9572535035,
				"element": "Cl" 
			},
			{
				"x": 1.6180325314,
				"y": 2.2344664495,
				"z": 0.3361085308,
				"element": "C" 
			},
			{
				"x": 1.0024621073,
				"y": 0.9901424551,
				"z": 0.4736197637,
				"element": "C" 
			},
			{
				"x": 0.194483928,
				"y": -1.8357268524,
				"z": -2.5510325078,
				"element": "C" 
			},
			{
				"x": -1.0483265196,
				"y": -1.6292787258,
				"z": -3.0666095784,
				"element": "O" 
			},
			{
				"x": 1.1782797489,
				"y": -1.8842963031,
				"z": -3.2542027223,
				"element": "O" 
			},
			{
				"x": 1.5231935739,
				"y": -2.5043228661,
				"z": 0.5738508916,
				"element": "H" 
			},
			{
				"x": 2.0149447992,
				"y": -3.152621838,
				"z": -1.0031594537,
				"element": "H" 
			},
			{
				"x": 2.2244726415,
				"y": -1.4368356207,
				"z": -0.6595910384,
				"element": "H" 
			},
			{
				"x": -0.4687814986,
				"y": -2.9045035571,
				"z": -0.8724362699,
				"element": "H" 
			},
			{
				"x": -0.6278691567,
				"y": -1.0976039597,
				"z": 0.737084135,
				"element": "H" 
			},
			{
				"x": -1.5933031561,
				"y": -0.7949122326,
				"z": -0.7017873415,
				"element": "H" 
			},
			{
				"x": -0.9077378691,
				"y": 0.9926152271,
				"z": -2.3276370463,
				"element": "H" 
			},
			{
				"x": 0.1769591673,
				"y": 3.2063571375,
				"z": -2.5921510429,
				"element": "H" 
			},
			{
				"x": 2.3193021487,
				"y": 2.5924828295,
				"z": 1.0818078858,
				"element": "H" 
			},
			{
				"x": 1.2326014857,
				"y": 0.3827879008,
				"z": 1.3449877734,
				"element": "H" 
			},
			{
				"x": -0.9253064786,
				"y": -1.5461125397,
				"z": -4.0272759495,
				"element": "H" 
			}
		],
		 "valence_orbital": [ 
			{
				"type": "occ",
				"energy": -0.32247,
				"method": "rhf"
			},
			{
				"type": "occ",
				"energy": -0.3104,
				"method": "rhf"
			},
			{
				"type": "occ",
				"energy": -0.2772,
				"method": "rhf"
			},
			{
				"type": "occ",
				"energy": -0.2628,
				"method": "rhf"
			},
			{
				"type": "occ",
				"energy": -0.24123,
				"method": "rhf"
			},
			{
				"type": "unocc",
				"energy": -0.01738,
				"method": "rhf"
			},
			{
				"type": "unocc",
				"energy": -0.01418,
				"method": "rhf"
			},
			{
				"type": "unocc",
				"energy": 0.00637,
				"method": "rhf"
			},
			{
				"type": "unocc",
				"energy": 0.03056,
				"method": "rhf"
			},
			{
				"type": "unocc",
				"energy": 0.06984,
				"method": "rhf"
			}
		],
		"cosmo_sigma_profile": { 
			"-0.025": 0.0,
			"-0.024": 0.0,
			"-0.023": 0.0,
			"-0.022": 0.0,
			"-0.021": 0.0,
			"-0.02": 0.0,
			"-0.019": 0.00912243566795,
			"-0.018": 0.473918347646,
			"-0.017": 1.00730472359,
			"-0.016": 0.502900959927,
			"-0.015": 1.00393191282,
			"-0.014": 0.877772531583,
			"-0.013": 0.805442751972,
			"-0.012": 0.106998984072,
			"-0.011": 0.815591475926,
			"-0.01": 0.77612445222,
			"-0.009": 0.552998878654,
			"-0.008": 0.712321184129,
			"-0.007": 3.82715835019,
			"-0.006": 9.22136727977,
			"-0.005": 14.6904905867,
			"-0.004": 18.4118334064,
			"-0.003": 20.7055741345,
			"-0.002": 17.5956178142,
			"-0.001": 16.8609568148,
			"0.0": 18.422928824,
			"0.001": 17.1921605659,
			"0.002": 18.485828335,
			"0.003": 17.5229498278,
			"0.004": 20.1607201823,
			"0.005": 12.0129620682,
			"0.006": 2.36923589807,
			"0.007": 2.57555150935,
			"0.008": 2.83869606873,
			"0.009": 2.24179035149,
			"0.01": 2.39561955762,
			"0.011": 3.5289447845,
			"0.012": 4.36149334314,
			"0.013": 0.456916850223,
			"0.014": 0.0,
			"0.015": 0.0,
			"0.016": 0.0,
			"0.017": 0.0,
			"0.018": 0.0,
			"0.019": 0.0,
			"0.02": 0.0,
			"0.021": 0.0,
			"0.022": 0.0,
			"0.023": 0.0,
			"0.024": 0.0,
			"0.025": 0.0
		}
	}
}
