{
	 "smiles": "ClC1=C2C=CC=C3C(=O)OC(=O)C(C=C1)=C23", 
	 "Tm": 481.15, 
	 "num_atms": 21, 
	 "gaussian": { 
		 "optdone": 1, 
		 "sigma_profile": "yes", 
		 "theory": "DFT", 
		 "functional": "B3LYP", 
		 "basiset": "6-31G**", 
		 "properties": { 
			 "R2extent": 4257.6724, 
			 "electric_dipole_moment_norm": 5.51525677371, 
			 "electric_quadrupole_moment_norm": 12.318872974, 
			 "total_energy": -1146.18633923, 
			 "HOMO_LUMO_gap": 0.14632, 
			 "cosmo_polarized_energy": -12.39, 
			 "cosmo_cavitation_energy": 27.71, 
			 "cosmo_dispersion_energy": -20.99, 
			 "cosmo_repulsion_energy": 1.57, 
			 "cosmo_total_nonelectrostatic_energy": 8.29, 
			 "SMD_solvation_energy": 6.0 
		},
		"coords": [
			{
				"x": 3.5937579339,
				"y": 2.746319468,
				"z": 1.4904677553,
				"element": "Cl" 
			},
			{
				"x": 2.626285538,
				"y": 1.2974649335,
				"z": 1.3073070563,
				"element": "C" 
			},
			{
				"x": 1.7842255149,
				"y": 1.1490653837,
				"z": 0.165749332,
				"element": "C" 
			},
			{
				"x": 1.6597275476,
				"y": 2.1102614092,
				"z": -0.8710175766,
				"element": "C" 
			},
			{
				"x": 0.8200669067,
				"y": 1.8884217701,
				"z": -1.9439051449,
				"element": "C" 
			},
			{
				"x": 0.0669554616,
				"y": 0.7008717117,
				"z": -2.0332984439,
				"element": "C" 
			},
			{
				"x": 0.1645709421,
				"y": -0.2570111266,
				"z": -1.0399914684,
				"element": "C" 
			},
			{
				"x": -0.6325072194,
				"y": -1.4993656486,
				"z": -1.1464771492,
				"element": "C" 
			},
			{
				"x": -1.3830588036,
				"y": -1.7605200801,
				"z": -2.0522175796,
				"element": "O" 
			},
			{
				"x": -0.4976130432,
				"y": -2.4278120298,
				"z": -0.1244313758,
				"element": "O" 
			},
			{
				"x": 0.3204525568,
				"y": -2.2882790108,
				"z": 0.9871729553,
				"element": "C" 
			},
			{
				"x": 0.3335909959,
				"y": -3.180966306,
				"z": 1.7967710057,
				"element": "O" 
			},
			{
				"x": 1.112293021,
				"y": -1.0444249017,
				"z": 1.0866133597,
				"element": "C" 
			},
			{
				"x": 1.9449181748,
				"y": -0.8504120531,
				"z": 2.1737436274,
				"element": "C" 
			},
			{
				"x": 2.7070748153,
				"y": 0.3268640281,
				"z": 2.2863135941,
				"element": "C" 
			},
			{
				"x": 1.0193487695,
				"y": -0.0565446622,
				"z": 0.0742970002,
				"element": "C" 
			},
			{
				"x": 2.2357107069,
				"y": 3.0263664172,
				"z": -0.809504905,
				"element": "H" 
			},
			{
				"x": 0.7378619727,
				"y": 2.6349447557,
				"z": -2.7272158695,
				"element": "H" 
			},
			{
				"x": -0.5958219412,
				"y": 0.5167468988,
				"z": -2.8719932897,
				"element": "H" 
			},
			{
				"x": 2.0006661633,
				"y": -1.6193242151,
				"z": 2.9367153238,
				"element": "H" 
			},
			{
				"x": 3.3588939865,
				"y": 0.476633258,
				"z": 3.1392017926,
				"element": "H" 
			}
		],
		 "valence_orbital": [ 
			{
				"type": "occ",
				"energy": -0.30876,
				"method": "rhf"
			},
			{
				"type": "occ",
				"energy": -0.30874,
				"method": "rhf"
			},
			{
				"type": "occ",
				"energy": -0.28659,
				"method": "rhf"
			},
			{
				"type": "occ",
				"energy": -0.28585,
				"method": "rhf"
			},
			{
				"type": "occ",
				"energy": -0.25439,
				"method": "rhf"
			},
			{
				"type": "unocc",
				"energy": -0.10807,
				"method": "rhf"
			},
			{
				"type": "unocc",
				"energy": -0.05049,
				"method": "rhf"
			},
			{
				"type": "unocc",
				"energy": -0.04931,
				"method": "rhf"
			},
			{
				"type": "unocc",
				"energy": -0.0058,
				"method": "rhf"
			},
			{
				"type": "unocc",
				"energy": 0.00706,
				"method": "rhf"
			}
		],
		"cosmo_sigma_profile": { 
			"-0.025": 0.0,
			"-0.024": 0.0,
			"-0.023": 0.0,
			"-0.022": 0.0,
			"-0.021": 0.0,
			"-0.02": 0.0,
			"-0.019": 0.0,
			"-0.018": 0.0,
			"-0.017": 0.0,
			"-0.016": 0.0,
			"-0.015": 0.0,
			"-0.014": 0.0,
			"-0.013": 0.0,
			"-0.012": 0.0,
			"-0.011": 0.0,
			"-0.01": 0.209071260283,
			"-0.009": 1.77581776455,
			"-0.008": 8.11713281425,
			"-0.007": 11.9181537355,
			"-0.006": 10.811022923,
			"-0.005": 9.9776619277,
			"-0.004": 10.5300987583,
			"-0.003": 13.5828316961,
			"-0.002": 21.692836574,
			"-0.001": 30.8078811831,
			"0.0": 25.7839796475,
			"0.001": 16.4288158013,
			"0.002": 10.3901666,
			"0.003": 9.80657701452,
			"0.004": 5.38732121814,
			"0.005": 3.10085121961,
			"0.006": 2.92902599143,
			"0.007": 5.1251061034,
			"0.008": 5.12848420026,
			"0.009": 7.4035648422,
			"0.01": 9.76573294052,
			"0.011": 5.82778217953,
			"0.012": 0.956817778869,
			"0.013": 0.0,
			"0.014": 0.0,
			"0.015": 0.0,
			"0.016": 0.0,
			"0.017": 0.0,
			"0.018": 0.0,
			"0.019": 0.0,
			"0.02": 0.0,
			"0.021": 0.0,
			"0.022": 0.0,
			"0.023": 0.0,
			"0.024": 0.0,
			"0.025": 0.0
		}
	}
}
