{
	 "smiles": "OCCN1CCN(CN2C(=O)C(=O)C3=C2C=CC=C3)CC1", 
	 "Tm": 431.15, 
	 "num_atms": 40, 
	 "gaussian": { 
		 "optdone": 1, 
		 "sigma_profile": "yes", 
		 "theory": "DFT", 
		 "functional": "B3LYP", 
		 "basiset": "6-31G**", 
		 "properties": { 
			 "R2extent": 8941.2111, 
			 "electric_dipole_moment_norm": 5.14881274664, 
			 "electric_quadrupole_moment_norm": 44.6064895318, 
			 "total_energy": -972.930097328, 
			 "HOMO_LUMO_gap": 0.12494, 
			 "cosmo_polarized_energy": -21.46, 
			 "cosmo_cavitation_energy": 42.47, 
			 "cosmo_dispersion_energy": -28.85, 
			 "cosmo_repulsion_energy": 2.2, 
			 "cosmo_total_nonelectrostatic_energy": 15.82, 
			 "SMD_solvation_energy": 4.39 
		},
		"coords": [
			{
				"x": 2.9293072529,
				"y": -1.6251964486,
				"z": -3.6118656471,
				"element": "O" 
			},
			{
				"x": 2.046886256,
				"y": -1.3712813732,
				"z": -2.5289601008,
				"element": "C" 
			},
			{
				"x": 1.6165761881,
				"y": 0.1006418046,
				"z": -2.4846897177,
				"element": "C" 
			},
			{
				"x": 0.6536958051,
				"y": 0.3854352327,
				"z": -1.4247947323,
				"element": "N" 
			},
			{
				"x": -0.0231726694,
				"y": 1.6719888111,
				"z": -1.5947410619,
				"element": "C" 
			},
			{
				"x": -1.2558139514,
				"y": 1.7417891783,
				"z": -0.6499563684,
				"element": "C" 
			},
			{
				"x": -1.1346117543,
				"y": 0.8491560549,
				"z": 0.506607648,
				"element": "N" 
			},
			{
				"x": -1.7468541362,
				"y": -0.4616143394,
				"z": 0.3618941961,
				"element": "C" 
			},
			{
				"x": -2.3233714834,
				"y": -0.9426404868,
				"z": 1.6153138838,
				"element": "N" 
			},
			{
				"x": -3.5726899819,
				"y": -0.5142549152,
				"z": 2.0535274889,
				"element": "C" 
			},
			{
				"x": -4.3274503188,
				"y": 0.2234879593,
				"z": 1.4587211905,
				"element": "O" 
			},
			{
				"x": -3.8012199301,
				"y": -1.205122064,
				"z": 3.4383223761,
				"element": "C" 
			},
			{
				"x": -4.7888261106,
				"y": -1.063813473,
				"z": 4.1272596305,
				"element": "O" 
			},
			{
				"x": -2.5933348874,
				"y": -2.0137826013,
				"z": 3.655072551,
				"element": "C" 
			},
			{
				"x": -1.7438883012,
				"y": -1.8274694683,
				"z": 2.5429618948,
				"element": "C" 
			},
			{
				"x": -0.5228727016,
				"y": -2.4931896563,
				"z": 2.4729237833,
				"element": "C" 
			},
			{
				"x": -0.1758963769,
				"y": -3.3382965986,
				"z": 3.5362550282,
				"element": "C" 
			},
			{
				"x": -1.0120604866,
				"y": -3.5233749076,
				"z": 4.643389058,
				"element": "C" 
			},
			{
				"x": -2.2366317456,
				"y": -2.8541863509,
				"z": 4.7048686908,
				"element": "C" 
			},
			{
				"x": 0.2444354295,
				"y": 0.8370812591,
				"z": 0.9803352758,
				"element": "C" 
			},
			{
				"x": 1.24241671,
				"y": 0.292570949,
				"z": -0.0825673205,
				"element": "C" 
			},
			{
				"x": 2.4374601286,
				"y": -1.4941943689,
				"z": -4.4328940185,
				"element": "H" 
			},
			{
				"x": 1.1492433101,
				"y": -2.0079757698,
				"z": -2.5641710844,
				"element": "H" 
			},
			{
				"x": 2.6072333621,
				"y": -1.6435314002,
				"z": -1.6297450843,
				"element": "H" 
			},
			{
				"x": 2.5224467463,
				"y": 0.7326842594,
				"z": -2.4172457659,
				"element": "H" 
			},
			{
				"x": 1.1361190761,
				"y": 0.3388627404,
				"z": -3.4432317906,
				"element": "H" 
			},
			{
				"x": 0.6606763304,
				"y": 2.5212057055,
				"z": -1.3999602994,
				"element": "H" 
			},
			{
				"x": -0.3447015484,
				"y": 1.7654447316,
				"z": -2.6370904206,
				"element": "H" 
			},
			{
				"x": -1.3803896017,
				"y": 2.7727297378,
				"z": -0.2923330757,
				"element": "H" 
			},
			{
				"x": -2.168707756,
				"y": 1.4818883076,
				"z": -1.1918836192,
				"element": "H" 
			},
			{
				"x": -2.5773197082,
				"y": -0.373767703,
				"z": -0.3409199951,
				"element": "H" 
			},
			{
				"x": -1.066551144,
				"y": -1.2363334583,
				"z": -0.0145068257,
				"element": "H" 
			},
			{
				"x": 0.1447673454,
				"y": -2.3748896195,
				"z": 1.6266907084,
				"element": "H" 
			},
			{
				"x": 0.7739164903,
				"y": -3.8640096911,
				"z": 3.4938801465,
				"element": "H" 
			},
			{
				"x": -0.7073185041,
				"y": -4.1853764035,
				"z": 5.447178214,
				"element": "H" 
			},
			{
				"x": -2.9114781252,
				"y": -2.9759083227,
				"z": 5.5468778319,
				"element": "H" 
			},
			{
				"x": 0.3158196017,
				"y": 0.2564749589,
				"z": 1.9046355477,
				"element": "H" 
			},
			{
				"x": 0.5079124068,
				"y": 1.8682700283,
				"z": 1.2423917074,
				"element": "H" 
			},
			{
				"x": 2.1932862753,
				"y": 0.8569991921,
				"z": -0.013144055,
				"element": "H" 
			},
			{
				"x": 1.4869625084,
				"y": -0.7560014907,
				"z": 0.1208941315,
				"element": "H" 
			}
		],
		 "valence_orbital": [ 
			{
				"type": "occ",
				"energy": -0.27457,
				"method": "rhf"
			},
			{
				"type": "occ",
				"energy": -0.24323,
				"method": "rhf"
			},
			{
				"type": "occ",
				"energy": -0.23172,
				"method": "rhf"
			},
			{
				"type": "occ",
				"energy": -0.22778,
				"method": "rhf"
			},
			{
				"type": "occ",
				"energy": -0.21767,
				"method": "rhf"
			},
			{
				"type": "unocc",
				"energy": -0.09273,
				"method": "rhf"
			},
			{
				"type": "unocc",
				"energy": -0.0192,
				"method": "rhf"
			},
			{
				"type": "unocc",
				"energy": 0.01004,
				"method": "rhf"
			},
			{
				"type": "unocc",
				"energy": 0.04944,
				"method": "rhf"
			},
			{
				"type": "unocc",
				"energy": 0.06685,
				"method": "rhf"
			}
		],
		"cosmo_sigma_profile": { 
			"-0.025": 0.0,
			"-0.024": 0.0,
			"-0.023": 0.0,
			"-0.022": 0.0,
			"-0.021": 0.0,
			"-0.02": 0.0,
			"-0.019": 0.0,
			"-0.018": 0.0,
			"-0.017": 0.0,
			"-0.016": 0.102030940722,
			"-0.015": 0.8770780368,
			"-0.014": 1.17277630935,
			"-0.013": 0.851586646291,
			"-0.012": 1.1418026887,
			"-0.011": 0.91936079549,
			"-0.01": 1.14278255642,
			"-0.009": 0.916725986405,
			"-0.008": 1.05003998129,
			"-0.007": 8.01979493587,
			"-0.006": 15.7455985348,
			"-0.005": 25.8089536252,
			"-0.004": 27.1881294609,
			"-0.003": 34.8863175251,
			"-0.002": 40.4453280833,
			"-0.001": 36.2079241775,
			"0.0": 21.8790609993,
			"0.001": 16.1095180295,
			"0.002": 14.8145331754,
			"0.003": 13.8221142443,
			"0.004": 7.40891297091,
			"0.005": 5.38935011955,
			"0.006": 5.18585292762,
			"0.007": 5.55970221576,
			"0.008": 6.65252716898,
			"0.009": 8.57513370384,
			"0.01": 9.94977364992,
			"0.011": 10.1300843237,
			"0.012": 5.86474342132,
			"0.013": 2.60901121647,
			"0.014": 2.0003722978,
			"0.015": 1.11839895952,
			"0.016": 0.0,
			"0.017": 0.0,
			"0.018": 0.0,
			"0.019": 0.0,
			"0.02": 0.0,
			"0.021": 0.0,
			"0.022": 0.0,
			"0.023": 0.0,
			"0.024": 0.0,
			"0.0": 0.0
		}
	}
}
