{
	 "smiles": "CCCCN1C2=C(C(CC(O)=O)C(=O)N2)C(=O)N(C)C1=O", 
	 "Tm": 503.15, 
	 "num_atms": 38, 
	 "gaussian": { 
		 "optdone": 1, 
		 "sigma_profile": "yes", 
		 "theory": "DFT", 
		 "functional": "B3LYP", 
		 "basiset": "6-31G**", 
		 "properties": { 
			 "R2extent": 7132.2957, 
			 "electric_dipole_moment_norm": 5.35247572437, 
			 "electric_quadrupole_moment_norm": 14.0289736357, 
			 "total_energy": -1046.08109058, 
			 "HOMO_LUMO_gap": 0.18963, 
			 "cosmo_polarized_energy": -26.51, 
			 "cosmo_cavitation_energy": 41.39, 
			 "cosmo_dispersion_energy": -27.93, 
			 "cosmo_repulsion_energy": 2.17, 
			 "cosmo_total_nonelectrostatic_energy": 15.63, 
			 "SMD_solvation_energy": 9.41 
		},
		"coords": [
			{
				"x": 0.6407615595,
				"y": -2.3438052335,
				"z": -4.8163980353,
				"element": "C" 
			},
			{
				"x": -0.4245979207,
				"y": -1.9684022081,
				"z": -3.7788296894,
				"element": "C" 
			},
			{
				"x": 0.1045651707,
				"y": -1.8410410907,
				"z": -2.3407955301,
				"element": "C" 
			},
			{
				"x": 1.0978103122,
				"y": -0.6849639025,
				"z": -2.1596573903,
				"element": "C" 
			},
			{
				"x": 1.5510626849,
				"y": -0.5331530872,
				"z": -0.7683130115,
				"element": "N" 
			},
			{
				"x": 0.8513567113,
				"y": 0.1647540006,
				"z": 0.1709223792,
				"element": "C" 
			},
			{
				"x": 1.2389281034,
				"y": 0.3002408934,
				"z": 1.4712413208,
				"element": "C" 
			},
			{
				"x": 0.2424845063,
				"y": 1.1641562376,
				"z": 2.1942122458,
				"element": "C" 
			},
			{
				"x": -0.3465301677,
				"y": 0.6209920132,
				"z": 3.5071474639,
				"element": "C" 
			},
			{
				"x": -1.0180269121,
				"y": -0.7372192214,
				"z": 3.4631255202,
				"element": "C" 
			},
			{
				"x": -1.4419388229,
				"y": -1.0896741068,
				"z": 2.221689333,
				"element": "O" 
			},
			{
				"x": -1.204897633,
				"y": -1.4373774388,
				"z": 4.4308290869,
				"element": "O" 
			},
			{
				"x": -0.8150408572,
				"y": 1.4326884838,
				"z": 1.1044444646,
				"element": "C" 
			},
			{
				"x": -1.8604031293,
				"y": 2.033503244,
				"z": 1.1960715953,
				"element": "O" 
			},
			{
				"x": -0.3224947831,
				"y": 0.8563182689,
				"z": -0.0798432554,
				"element": "N" 
			},
			{
				"x": 2.4489358451,
				"y": -0.2943780695,
				"z": 1.9440673777,
				"element": "C" 
			},
			{
				"x": 2.8942311271,
				"y": -0.2177895668,
				"z": 3.0847760902,
				"element": "O" 
			},
			{
				"x": 3.1403048847,
				"y": -1.0399135078,
				"z": 0.932246046,
				"element": "N" 
			},
			{
				"x": 4.3845589747,
				"y": -1.7221624829,
				"z": 1.3029339973,
				"element": "C" 
			},
			{
				"x": 2.7410480309,
				"y": -1.195971097,
				"z": -0.3849086306,
				"element": "C" 
			},
			{
				"x": 3.3708291562,
				"y": -1.8615665916,
				"z": -1.1944445765,
				"element": "O" 
			},
			{
				"x": 0.1887669179,
				"y": -2.4870455702,
				"z": -5.8027822109,
				"element": "H" 
			},
			{
				"x": 1.408788986,
				"y": -1.5704447782,
				"z": -4.9201502872,
				"element": "H" 
			},
			{
				"x": 1.1465590011,
				"y": -3.2758759067,
				"z": -4.5417948256,
				"element": "H" 
			},
			{
				"x": -0.9118596995,
				"y": -1.028186426,
				"z": -4.0736829028,
				"element": "H" 
			},
			{
				"x": -1.2142497081,
				"y": -2.7290346042,
				"z": -3.7842789768,
				"element": "H" 
			},
			{
				"x": 0.6052403271,
				"y": -2.7698171933,
				"z": -2.0428952418,
				"element": "H" 
			},
			{
				"x": -0.7396658337,
				"y": -1.703926588,
				"z": -1.6522993342,
				"element": "H" 
			},
			{
				"x": 1.9977056345,
				"y": -0.8541674436,
				"z": -2.7497369587,
				"element": "H" 
			},
			{
				"x": 0.6616972618,
				"y": 0.2685257996,
				"z": -2.4793249687,
				"element": "H" 
			},
			{
				"x": 0.6841406795,
				"y": 2.1418741465,
				"z": 2.4370899117,
				"element": "H" 
			},
			{
				"x": -1.0990305285,
				"y": 1.3302885599,
				"z": 3.8732035806,
				"element": "H" 
			},
			{
				"x": 0.4424854393,
				"y": 0.558170468,
				"z": 4.2591425487,
				"element": "H" 
			},
			{
				"x": -1.8867690682,
				"y": -1.9476077986,
				"z": 2.3273493009,
				"element": "H" 
			},
			{
				"x": -0.8846775508,
				"y": 0.8012051231,
				"z": -0.9158250928,
				"element": "H" 
			},
			{
				"x": 4.2845745755,
				"y": -2.7981674709,
				"z": 1.1438249136,
				"element": "H" 
			},
			{
				"x": 4.5651315552,
				"y": -1.5057500004,
				"z": 2.3535802987,
				"element": "H" 
			},
			{
				"x": 5.2099151699,
				"y": -1.3576758541,
				"z": 0.6874634436,
				"element": "H" 
			}
		],
		 "valence_orbital": [ 
			{
				"type": "occ",
				"energy": -0.27912,
				"method": "rhf"
			},
			{
				"type": "occ",
				"energy": -0.27817,
				"method": "rhf"
			},
			{
				"type": "occ",
				"energy": -0.27094,
				"method": "rhf"
			},
			{
				"type": "occ",
				"energy": -0.26103,
				"method": "rhf"
			},
			{
				"type": "occ",
				"energy": -0.22664,
				"method": "rhf"
			},
			{
				"type": "unocc",
				"energy": -0.03701,
				"method": "rhf"
			},
			{
				"type": "unocc",
				"energy": -0.00229,
				"method": "rhf"
			},
			{
				"type": "unocc",
				"energy": 0.00567,
				"method": "rhf"
			},
			{
				"type": "unocc",
				"energy": 0.01864,
				"method": "rhf"
			},
			{
				"type": "unocc",
				"energy": 0.0404,
				"method": "rhf"
			}
		],
		"cosmo_sigma_profile": { 
			"-0.025": 0.0,
			"-0.024": 0.0,
			"-0.023": 0.0,
			"-0.022": 0.0,
			"-0.021": 0.0,
			"-0.02": 0.0,
			"-0.019": 0.073479028549,
			"-0.018": 0.730867661091,
			"-0.017": 1.59598317222,
			"-0.016": 1.66616633283,
			"-0.015": 1.65918039213,
			"-0.014": 1.77492020079,
			"-0.013": 1.9104993703,
			"-0.012": 2.47495422316,
			"-0.011": 2.52386185513,
			"-0.01": 2.29355275701,
			"-0.009": 1.59963016916,
			"-0.008": 5.27759252533,
			"-0.007": 8.59706103207,
			"-0.006": 10.4159709109,
			"-0.005": 16.1011175565,
			"-0.004": 22.5300734687,
			"-0.003": 35.3227646453,
			"-0.002": 35.2655394449,
			"-0.001": 31.1615770229,
			"0.0": 27.0393566984,
			"0.001": 17.1040924354,
			"0.002": 9.96584907959,
			"0.003": 8.97472963958,
			"0.004": 7.23718724981,
			"0.005": 7.60385984217,
			"0.006": 5.78896618184,
			"0.007": 6.23196394936,
			"0.008": 4.9010547067,
			"0.009": 5.74097548068,
			"0.01": 7.68149100664,
			"0.011": 12.0745692167,
			"0.012": 14.5498245279,
			"0.013": 7.00813137522,
			"0.014": 0.453926478134,
			"0.015": 0.0,
			"0.016": 0.0,
			"0.017": 0.0,
			"0.018": 0.0,
			"0.019": 0.0,
			"0.02": 0.0,
			"0.021": 0.0,
			"0.022": 0.0,
			"0.023": 0.0,
			"0.024": 0.0,
			"0.025": 0.0
		}
	}
}
