{
	 "smiles": "ClC1=CC=CC(CC#N)=C1Cl", 
	 "Tm": 340.65, 
	 "num_atms": 16, 
	 "gaussian": { 
		 "optdone": 1, 
		 "sigma_profile": "yes", 
		 "theory": "DFT", 
		 "functional": "B3LYP", 
		 "basiset": "6-31G**", 
		 "properties": { 
			 "R2extent": 3059.8331, 
			 "electric_dipole_moment_norm": 1.84605876938, 
			 "electric_quadrupole_moment_norm": 17.0395649378, 
			 "total_energy": -1282.97974999, 
			 "HOMO_LUMO_gap": 0.22448, 
			 "cosmo_polarized_energy": -9.01, 
			 "cosmo_cavitation_energy": 24.58, 
			 "cosmo_dispersion_energy": -17.88, 
			 "cosmo_repulsion_energy": 1.43, 
			 "cosmo_total_nonelectrostatic_energy": 8.13, 
			 "SMD_solvation_energy": 4.98 
		},
		"coords": [
			{
				"x": -0.8598648355,
				"y": 0.5058719484,
				"z": 4.2861064939,
				"element": "Cl" 
			},
			{
				"x": -0.5272574897,
				"y": -0.2420055657,
				"z": 2.7437734596,
				"element": "C" 
			},
			{
				"x": -0.1792236791,
				"y": -1.5937707363,
				"z": 2.717765679,
				"element": "C" 
			},
			{
				"x": 0.0902572928,
				"y": -2.2119422065,
				"z": 1.501328275,
				"element": "C" 
			},
			{
				"x": 0.0142429825,
				"y": -1.4887384039,
				"z": 0.3119074599,
				"element": "C" 
			},
			{
				"x": -0.3323471015,
				"y": -0.1355273649,
				"z": 0.317971206,
				"element": "C" 
			},
			{
				"x": -0.4234366285,
				"y": 0.679865179,
				"z": -0.9651532998,
				"element": "C" 
			},
			{
				"x": -0.118411093,
				"y": -0.077783191,
				"z": -2.1800317116,
				"element": "C" 
			},
			{
				"x": 0.1227920891,
				"y": -0.6754114973,
				"z": -3.1448616443,
				"element": "N" 
			},
			{
				"x": -0.6042777915,
				"y": 0.4871491947,
				"z": 1.5492472028,
				"element": "C" 
			},
			{
				"x": -1.0401048915,
				"y": 2.1823703646,
				"z": 1.5758919807,
				"element": "Cl" 
			},
			{
				"x": -0.1243377243,
				"y": -2.1427005979,
				"z": 3.6509584387,
				"element": "H" 
			},
			{
				"x": 0.3609262054,
				"y": -3.2626054569,
				"z": 1.4796413054,
				"element": "H" 
			},
			{
				"x": 0.2253160488,
				"y": -1.9751341972,
				"z": -0.6346273274,
				"element": "H" 
			},
			{
				"x": -1.4286858431,
				"y": 1.1063745045,
				"z": -1.0696348233,
				"element": "H" 
			},
			{
				"x": 0.2582124592,
				"y": 1.5378880265,
				"z": -0.9151826947,
				"element": "H" 
			}
		],
		 "valence_orbital": [ 
			{
				"type": "occ",
				"energy": -0.3359,
				"method": "rhf"
			},
			{
				"type": "occ",
				"energy": -0.33485,
				"method": "rhf"
			},
			{
				"type": "occ",
				"energy": -0.32024,
				"method": "rhf"
			},
			{
				"type": "occ",
				"energy": -0.27213,
				"method": "rhf"
			},
			{
				"type": "occ",
				"energy": -0.26246,
				"method": "rhf"
			},
			{
				"type": "unocc",
				"energy": -0.03798,
				"method": "rhf"
			},
			{
				"type": "unocc",
				"energy": -0.03437,
				"method": "rhf"
			},
			{
				"type": "unocc",
				"energy": -0.01254,
				"method": "rhf"
			},
			{
				"type": "unocc",
				"energy": 0.02674,
				"method": "rhf"
			},
			{
				"type": "unocc",
				"energy": 0.03018,
				"method": "rhf"
			}
		],
		"cosmo_sigma_profile": { 
			"-0.025": 0.0,
			"-0.024": 0.0,
			"-0.023": 0.0,
			"-0.022": 0.0,
			"-0.021": 0.0,
			"-0.02": 0.0,
			"-0.019": 0.0,
			"-0.018": 0.0,
			"-0.017": 0.0,
			"-0.016": 0.0,
			"-0.015": 0.0,
			"-0.014": 0.0,
			"-0.013": 0.0,
			"-0.012": 0.0,
			"-0.011": 0.0,
			"-0.01": 0.901871611599,
			"-0.009": 4.63969918902,
			"-0.008": 5.90185218954,
			"-0.007": 9.41274145891,
			"-0.006": 10.7625023825,
			"-0.005": 9.40033579112,
			"-0.004": 9.45146347409,
			"-0.003": 10.9792467466,
			"-0.002": 11.5295537166,
			"-0.001": 13.6726856213,
			"0.0": 18.980590082,
			"0.001": 22.163738149,
			"0.002": 17.1473277687,
			"0.003": 17.8293742284,
			"0.004": 14.01392644,
			"0.005": 6.0298325711,
			"0.006": 2.2693604152,
			"0.007": 2.97374815531,
			"0.008": 2.86720754069,
			"0.009": 3.07876637621,
			"0.01": 2.93315815085,
			"0.011": 2.55132989348,
			"0.012": 2.41573282585,
			"0.013": 1.03921277287,
			"0.014": 0.000961538115014,
			"0.015": 0.0,
			"0.016": 0.0,
			"0.017": 0.0,
			"0.018": 0.0,
			"0.019": 0.0,
			"0.02": 0.0,
			"0.021": 0.0,
			"0.022": 0.0,
			"0.023": 0.0,
			"0.024": 0.0,
			"0.025": 0.0
		}
	}
}
