{
	 "smiles": "OC(=O)CCCCC1=CC=C(Cl)C=C1", 
	 "Tm": 338.15, 
	 "num_atms": 27, 
	 "gaussian": { 
		 "optdone": 1, 
		 "sigma_profile": "yes", 
		 "theory": "DFT", 
		 "functional": "B3LYP", 
		 "basiset": "6-31G**", 
		 "properties": { 
			 "R2extent": 3903.9116, 
			 "electric_dipole_moment_norm": 3.90296505493, 
			 "electric_quadrupole_moment_norm": 13.9803600644, 
			 "total_energy": -1037.66719823, 
			 "HOMO_LUMO_gap": 0.22117, 
			 "cosmo_polarized_energy": -14.2, 
			 "cosmo_cavitation_energy": 31.44, 
			 "cosmo_dispersion_energy": -21.78, 
			 "cosmo_repulsion_energy": 1.73, 
			 "cosmo_total_nonelectrostatic_energy": 11.39, 
			 "SMD_solvation_energy": 5.37 
		},
		"coords": [
			{
				"x": -2.6363729979,
				"y": 0.2219070487,
				"z": 1.3004555574,
				"element": "O" 
			},
			{
				"x": -1.5402397532,
				"y": 0.3973286214,
				"z": 2.0835383205,
				"element": "C" 
			},
			{
				"x": -1.4748738956,
				"y": 1.3494889183,
				"z": 2.8227646201,
				"element": "O" 
			},
			{
				"x": -0.4643665971,
				"y": -0.6814505728,
				"z": 1.991506287,
				"element": "C" 
			},
			{
				"x": 0.9435001418,
				"y": -0.1213715972,
				"z": 2.2499255308,
				"element": "C" 
			},
			{
				"x": 1.4481479533,
				"y": 0.9198924687,
				"z": 1.2348355124,
				"element": "C" 
			},
			{
				"x": 1.8382514343,
				"y": 0.3908213132,
				"z": -0.1637683279,
				"element": "C" 
			},
			{
				"x": 0.7031083239,
				"y": -0.1175932237,
				"z": -1.0324635289,
				"element": "C" 
			},
			{
				"x": -0.3754450215,
				"y": 0.7122531573,
				"z": -1.3763500131,
				"element": "C" 
			},
			{
				"x": -1.4283375696,
				"y": 0.2489908834,
				"z": -2.1654568777,
				"element": "C" 
			},
			{
				"x": -1.403339414,
				"y": -1.0672524089,
				"z": -2.6295465101,
				"element": "C" 
			},
			{
				"x": -2.7270187332,
				"y": -1.6631062524,
				"z": -3.6225489578,
				"element": "Cl" 
			},
			{
				"x": -0.3407042402,
				"y": -1.9134378507,
				"z": -2.3183323243,
				"element": "C" 
			},
			{
				"x": 0.701146208,
				"y": -1.4300752613,
				"z": -1.5241536746,
				"element": "C" 
			},
			{
				"x": -2.5055670188,
				"y": -0.5307276443,
				"z": 0.7063499741,
				"element": "H" 
			},
			{
				"x": -0.516667487,
				"y": -1.2034309989,
				"z": 1.0317386101,
				"element": "H" 
			},
			{
				"x": -0.7051642907,
				"y": -1.4242936674,
				"z": 2.7643781013,
				"element": "H" 
			},
			{
				"x": 1.6504436318,
				"y": -0.9592074351,
				"z": 2.3018058261,
				"element": "H" 
			},
			{
				"x": 0.9311112686,
				"y": 0.3472563341,
				"z": 3.238967652,
				"element": "H" 
			},
			{
				"x": 0.7057191793,
				"y": 1.7210858182,
				"z": 1.1421998613,
				"element": "H" 
			},
			{
				"x": 2.3407077564,
				"y": 1.3942313767,
				"z": 1.6603355038,
				"element": "H" 
			},
			{
				"x": 2.3461002603,
				"y": 1.2055560914,
				"z": -0.6973572887,
				"element": "H" 
			},
			{
				"x": 2.5840929824,
				"y": -0.4055543699,
				"z": -0.0505094415,
				"element": "H" 
			},
			{
				"x": -0.4025364273,
				"y": 1.7386923819,
				"z": -1.0209202119,
				"element": "H" 
			},
			{
				"x": -2.256464441,
				"y": 0.9009249247,
				"z": -2.4212661925,
				"element": "H" 
			},
			{
				"x": -0.3284729852,
				"y": -2.9320785511,
				"z": -2.6904980027,
				"element": "H" 
			},
			{
				"x": 1.5278417324,
				"y": -2.0926495044,
				"z": -1.2808300051,
				"element": "H" 
			}
		],
		 "valence_orbital": [ 
			{
				"type": "occ",
				"energy": -0.31849,
				"method": "rhf"
			},
			{
				"type": "occ",
				"energy": -0.31077,
				"method": "rhf"
			},
			{
				"type": "occ",
				"energy": -0.2739,
				"method": "rhf"
			},
			{
				"type": "occ",
				"energy": -0.2668,
				"method": "rhf"
			},
			{
				"type": "occ",
				"energy": -0.2477,
				"method": "rhf"
			},
			{
				"type": "unocc",
				"energy": -0.02653,
				"method": "rhf"
			},
			{
				"type": "unocc",
				"energy": -0.02162,
				"method": "rhf"
			},
			{
				"type": "unocc",
				"energy": 0.01285,
				"method": "rhf"
			},
			{
				"type": "unocc",
				"energy": 0.02275,
				"method": "rhf"
			},
			{
				"type": "unocc",
				"energy": 0.0619,
				"method": "rhf"
			}
		],
		"cosmo_sigma_profile": { 
			"-0.025": 0.0,
			"-0.024": 0.0,
			"-0.023": 0.0,
			"-0.022": 0.0,
			"-0.021": 0.0,
			"-0.02": 0.0,
			"-0.019": 0.0,
			"-0.018": 0.0,
			"-0.017": 0.109252202301,
			"-0.016": 0.675418113327,
			"-0.015": 0.799286000754,
			"-0.014": 0.637789419474,
			"-0.013": 0.525087151999,
			"-0.012": 0.697635803597,
			"-0.011": 1.6724567282,
			"-0.01": 1.72495957319,
			"-0.009": 0.987466015463,
			"-0.008": 1.27720150348,
			"-0.007": 5.05266430779,
			"-0.006": 12.7469323836,
			"-0.005": 13.9741845878,
			"-0.004": 16.1416346532,
			"-0.003": 22.9304959685,
			"-0.002": 27.5852829376,
			"-0.001": 23.7910752843,
			"0.0": 19.4988667109,
			"0.001": 13.4507363504,
			"0.002": 15.5469560638,
			"0.003": 12.7514264416,
			"0.004": 16.2957875035,
			"0.005": 12.454406824,
			"0.006": 2.83236587828,
			"0.007": 2.25215151158,
			"0.008": 3.13643354751,
			"0.009": 2.66753645536,
			"0.01": 3.75907648218,
			"0.011": 5.28163506697,
			"0.012": 5.29914478708,
			"0.013": 3.07193637192,
			"0.014": 0.319960801348,
			"0.015": 0.0,
			"0.016": 0.0,
			"0.017": 0.0,
			"0.018": 0.0,
			"0.019": 0.0,
			"0.02": 0.0,
			"0.021": 0.0,
			"0.022": 0.0,
			"0.023": 0.0,
			"0.024": 0.0,
			"0.025": 0.0
		}
	}
}
