{
	 "smiles": "CC1=C(F)C=C(C=C1)C1=NOC(CCC(O)=O)=N1", 
	 "Tm": 416.15, 
	 "num_atms": 29, 
	 "gaussian": { 
		 "optdone": 1, 
		 "sigma_profile": "yes", 
		 "theory": "DFT", 
		 "functional": "B3LYP", 
		 "basiset": "6-31G**", 
		 "properties": { 
			 "R2extent": 7919.2869, 
			 "electric_dipole_moment_norm": 3.80976539698, 
			 "electric_quadrupole_moment_norm": 15.037788744, 
			 "total_energy": -898.904110982, 
			 "HOMO_LUMO_gap": 0.18952, 
			 "cosmo_polarized_energy": -18.81, 
			 "cosmo_cavitation_energy": 35.4, 
			 "cosmo_dispersion_energy": -25.44, 
			 "cosmo_repulsion_energy": 1.96, 
			 "cosmo_total_nonelectrostatic_energy": 11.91, 
			 "SMD_solvation_energy": 6.35 
		},
		"coords": [
			{
				"x": 2.5376586254,
				"y": 4.4503905641,
				"z": -2.3382599309,
				"element": "C" 
			},
			{
				"x": 1.8889464733,
				"y": 3.187506305,
				"z": -1.8358381745,
				"element": "C" 
			},
			{
				"x": 2.2212845641,
				"y": 2.672649565,
				"z": -0.579812585,
				"element": "C" 
			},
			{
				"x": 3.1359071544,
				"y": 3.3417942508,
				"z": 0.1600100338,
				"element": "F" 
			},
			{
				"x": 1.6640924797,
				"y": 1.5173752413,
				"z": -0.0567811844,
				"element": "C" 
			},
			{
				"x": 0.7162957672,
				"y": 0.8200548639,
				"z": -0.8184454611,
				"element": "C" 
			},
			{
				"x": 0.3561067329,
				"y": 1.3046054645,
				"z": -2.0842388951,
				"element": "C" 
			},
			{
				"x": 0.9391491972,
				"y": 2.4701246207,
				"z": -2.5750760947,
				"element": "C" 
			},
			{
				"x": 0.1173574085,
				"y": -0.405991228,
				"z": -0.2769004051,
				"element": "C" 
			},
			{
				"x": -0.7774533336,
				"y": -1.1130361321,
				"z": -0.9303405653,
				"element": "N" 
			},
			{
				"x": -1.0606294409,
				"y": -2.1720331731,
				"z": -0.0510103961,
				"element": "O" 
			},
			{
				"x": -0.2993078768,
				"y": -1.9819631183,
				"z": 1.0396410274,
				"element": "C" 
			},
			{
				"x": -0.4029514992,
				"y": -2.975221214,
				"z": 2.148296105,
				"element": "C" 
			},
			{
				"x": 0.5186637593,
				"y": -2.629248752,
				"z": 3.3172951426,
				"element": "C" 
			},
			{
				"x": 0.4059476603,
				"y": -3.6486568209,
				"z": 4.4426931184,
				"element": "C" 
			},
			{
				"x": 1.1957385067,
				"y": -3.4108627204,
				"z": 5.5217657443,
				"element": "O" 
			},
			{
				"x": -0.3191968762,
				"y": -4.6113500282,
				"z": 4.4198220568,
				"element": "O" 
			},
			{
				"x": 0.4454890415,
				"y": -0.9186839972,
				"z": 0.9663591905,
				"element": "N" 
			},
			{
				"x": 3.6259899152,
				"y": 4.3408719106,
				"z": -2.3969832576,
				"element": "H" 
			},
			{
				"x": 2.3412069886,
				"y": 5.2918963998,
				"z": -1.6651749878,
				"element": "H" 
			},
			{
				"x": 2.1655772368,
				"y": 4.7117062351,
				"z": -3.3316868966,
				"element": "H" 
			},
			{
				"x": 1.9592826116,
				"y": 1.1638523342,
				"z": 0.9237511657,
				"element": "H" 
			},
			{
				"x": -0.3769871132,
				"y": 0.7657600868,
				"z": -2.674204189,
				"element": "H" 
			},
			{
				"x": 0.6541198284,
				"y": 2.8381927164,
				"z": -3.5568228324,
				"element": "H" 
			},
			{
				"x": -0.1694717906,
				"y": -3.9738228013,
				"z": 1.7636564268,
				"element": "H" 
			},
			{
				"x": -1.4425060934,
				"y": -3.0320145722,
				"z": 2.4885448593,
				"element": "H" 
			},
			{
				"x": 1.5612597696,
				"y": -2.5772760881,
				"z": 2.9802343222,
				"element": "H" 
			},
			{
				"x": 0.2827184542,
				"y": -1.6319261514,
				"z": 3.7084514944,
				"element": "H" 
			},
			{
				"x": 1.7166118491,
				"y": -2.605493761,
				"z": 5.3909551684,
				"element": "H" 
			}
		],
		 "valence_orbital": [ 
			{
				"type": "occ",
				"energy": -0.30597,
				"method": "rhf"
			},
			{
				"type": "occ",
				"energy": -0.29982,
				"method": "rhf"
			},
			{
				"type": "occ",
				"energy": -0.2831,
				"method": "rhf"
			},
			{
				"type": "occ",
				"energy": -0.25921,
				"method": "rhf"
			},
			{
				"type": "occ",
				"energy": -0.24175,
				"method": "rhf"
			},
			{
				"type": "unocc",
				"energy": -0.05223,
				"method": "rhf"
			},
			{
				"type": "unocc",
				"energy": -0.01656,
				"method": "rhf"
			},
			{
				"type": "unocc",
				"energy": -0.00384,
				"method": "rhf"
			},
			{
				"type": "unocc",
				"energy": 0.00182,
				"method": "rhf"
			},
			{
				"type": "unocc",
				"energy": 0.04504,
				"method": "rhf"
			}
		],
		"cosmo_sigma_profile": { 
			"-0.025": 0.0,
			"-0.024": 0.0,
			"-0.023": 0.0,
			"-0.022": 0.0,
			"-0.021": 0.0,
			"-0.02": 0.0600336476248,
			"-0.019": 0.959829807626,
			"-0.018": 0.875126017111,
			"-0.017": 1.37416622744,
			"-0.016": 1.33853734948,
			"-0.015": 1.20330721654,
			"-0.014": 1.15137551867,
			"-0.013": 0.803040170859,
			"-0.012": 1.03293924428,
			"-0.011": 1.20473932026,
			"-0.01": 2.18385860263,
			"-0.009": 1.30534398966,
			"-0.008": 3.98506734148,
			"-0.007": 13.0847929284,
			"-0.006": 15.148954326,
			"-0.005": 15.6977495428,
			"-0.004": 16.4009551577,
			"-0.003": 15.4471619572,
			"-0.002": 15.6124602469,
			"-0.001": 20.8512507496,
			"0.0": 20.8652485346,
			"0.001": 21.5834114109,
			"0.002": 21.0801768867,
			"0.003": 17.1431559382,
			"0.004": 16.5596811454,
			"0.005": 8.30049067938,
			"0.006": 9.12113432441,
			"0.007": 7.21647956411,
			"0.008": 5.04042978724,
			"0.009": 6.0654294186,
			"0.01": 6.48269600618,
			"0.011": 6.68079689745,
			"0.012": 5.17737990481,
			"0.013": 1.29083581986,
			"0.014": 0.0,
			"0.015": 0.0,
			"0.016": 0.0,
			"0.017": 0.0,
			"0.018": 0.0,
			"0.019": 0.0,
			"0.02": 0.0,
			"0.021": 0.0,
			"0.022": 0.0,
			"0.023": 0.0,
			"0.024": 0.0,
			"0.025": 0.0
		}
	}
}
