{
	 "smiles": "CC(=O)OC[C@H]1O[C@H]([C@@H]([C@@H](OC(C)=O)[C@@H]1OC(C)=O)N1C(=O)C2=C(C=CC=C2)C1=O)C1=NNN=N1", 
	 "Tm": 371.15, 
	 "num_atms": 56, 
	 "gaussian": { 
		 "optdone": 1, 
		 "sigma_profile": "yes", 
		 "theory": "DFT", 
		 "functional": "B3LYP", 
		 "basiset": "6-31G**", 
		 "properties": { 
			 "R2extent": 16939.9305, 
			 "electric_dipole_moment_norm": 5.3745980045, 
			 "electric_quadrupole_moment_norm": 30.1444585831, 
			 "total_energy": -1763.66756201, 
			 "HOMO_LUMO_gap": 0.17492, 
			 "cosmo_polarized_energy": -34.94, 
			 "cosmo_cavitation_energy": 62.33, 
			 "cosmo_dispersion_energy": -38.79, 
			 "cosmo_repulsion_energy": 2.99, 
			 "cosmo_total_nonelectrostatic_energy": 26.53, 
			 "SMD_solvation_energy": 11.96 
		},
		"coords": [
			{
				"x": -0.7429815827,
				"y": -4.3081506793,
				"z": -4.773362112,
				"element": "C" 
			},
			{
				"x": -0.0151559961,
				"y": -4.2972106515,
				"z": -3.4506928931,
				"element": "C" 
			},
			{
				"x": 0.5037295068,
				"y": -5.253964904,
				"z": -2.9187704317,
				"element": "O" 
			},
			{
				"x": -0.0136852128,
				"y": -3.0536435655,
				"z": -2.9139450145,
				"element": "O" 
			},
			{
				"x": 0.6466879995,
				"y": -2.9283135302,
				"z": -1.6437629706,
				"element": "C" 
			},
			{
				"x": 0.6466496604,
				"y": -1.4593887035,
				"z": -1.2691961258,
				"element": "C" 
			},
			{
				"x": -0.6892885848,
				"y": -1.1061568163,
				"z": -0.9068856107,
				"element": "O" 
			},
			{
				"x": -0.8486583367,
				"y": 0.2966369587,
				"z": -0.7090735339,
				"element": "C" 
			},
			{
				"x": -0.045387611,
				"y": 0.7051681095,
				"z": 0.5509579466,
				"element": "C" 
			},
			{
				"x": 1.4276736071,
				"y": 0.2764244079,
				"z": 0.4148465634,
				"element": "C" 
			},
			{
				"x": 1.9952184924,
				"y": 0.3980193504,
				"z": 1.7373519905,
				"element": "O" 
			},
			{
				"x": 3.270367845,
				"y": 0.846348127,
				"z": 1.8628832316,
				"element": "C" 
			},
			{
				"x": 3.6649938083,
				"y": 0.8907666891,
				"z": 3.3186471577,
				"element": "C" 
			},
			{
				"x": 3.9801471302,
				"y": 1.155298221,
				"z": 0.9312290571,
				"element": "O" 
			},
			{
				"x": 1.5392657512,
				"y": -1.1857909694,
				"z": -0.038368751,
				"element": "C" 
			},
			{
				"x": 2.9203803983,
				"y": -1.5815543137,
				"z": -0.1779771822,
				"element": "O" 
			},
			{
				"x": 3.687442949,
				"y": -1.0352766686,
				"z": -1.1681511179,
				"element": "C" 
			},
			{
				"x": 5.1352030064,
				"y": -1.3996042897,
				"z": -0.9715920738,
				"element": "C" 
			},
			{
				"x": 3.2501262558,
				"y": -0.3461066193,
				"z": -2.061016719,
				"element": "O" 
			},
			{
				"x": -0.1543354244,
				"y": 2.1267980921,
				"z": 0.8555476084,
				"element": "N" 
			},
			{
				"x": -0.5373564487,
				"y": 2.6077912792,
				"z": 2.1306375879,
				"element": "C" 
			},
			{
				"x": -0.8458270621,
				"y": 1.9173517547,
				"z": 3.0775090266,
				"element": "O" 
			},
			{
				"x": -0.4659967704,
				"y": 4.094611437,
				"z": 2.0343518782,
				"element": "C" 
			},
			{
				"x": -0.0301597201,
				"y": 4.4332125035,
				"z": 0.7522482838,
				"element": "C" 
			},
			{
				"x": 0.1394079002,
				"y": 5.755618109,
				"z": 0.3674992209,
				"element": "C" 
			},
			{
				"x": -0.1458574791,
				"y": 6.7435967283,
				"z": 1.318968082,
				"element": "C" 
			},
			{
				"x": -0.5843604346,
				"y": 6.4040408191,
				"z": 2.605933967,
				"element": "C" 
			},
			{
				"x": -0.7511063424,
				"y": 5.0653324286,
				"z": 2.9841212213,
				"element": "C" 
			},
			{
				"x": 0.1886532599,
				"y": 3.1754614372,
				"z": -0.0187107656,
				"element": "C" 
			},
			{
				"x": 0.579848631,
				"y": 3.0417549767,
				"z": -1.1624170208,
				"element": "O" 
			},
			{
				"x": -2.3141157865,
				"y": 0.5600326893,
				"z": -0.5515877914,
				"element": "C" 
			},
			{
				"x": -3.0521474578,
				"y": 1.1787346885,
				"z": -1.4698277034,
				"element": "N" 
			},
			{
				"x": -4.2481587839,
				"y": 1.1407699838,
				"z": -0.8959652141,
				"element": "N" 
			},
			{
				"x": -4.278621132,
				"y": 0.5478810023,
				"z": 0.2959638989,
				"element": "N" 
			},
			{
				"x": -3.0480075684,
				"y": 0.1737065892,
				"z": 0.5271012449,
				"element": "N" 
			},
			{
				"x": -1.7844960085,
				"y": -4.0063331487,
				"z": -4.6276718036,
				"element": "H" 
			},
			{
				"x": -0.7029284462,
				"y": -5.3095809531,
				"z": -5.2004848451,
				"element": "H" 
			},
			{
				"x": -0.2881985481,
				"y": -3.5880226281,
				"z": -5.4596331397,
				"element": "H" 
			},
			{
				"x": 0.1119127702,
				"y": -3.5152634216,
				"z": -0.8897637261,
				"element": "H" 
			},
			{
				"x": 1.6670106794,
				"y": -3.3132409228,
				"z": -1.7167419855,
				"element": "H" 
			},
			{
				"x": 0.9816307843,
				"y": -0.8604584631,
				"z": -2.1216894118,
				"element": "H" 
			},
			{
				"x": -0.4890335658,
				"y": 0.853514895,
				"z": -1.5820113387,
				"element": "H" 
			},
			{
				"x": -0.4847348615,
				"y": 0.1889612282,
				"z": 1.4096928415,
				"element": "H" 
			},
			{
				"x": 1.964596066,
				"y": 0.9285702728,
				"z": -0.2762720698,
				"element": "H" 
			},
			{
				"x": 3.7628968435,
				"y": -0.1312368311,
				"z": 3.698885905,
				"element": "H" 
			},
			{
				"x": 2.8908095579,
				"y": 1.3852170498,
				"z": 3.9105931649,
				"element": "H" 
			},
			{
				"x": 4.6178170557,
				"y": 1.4092457697,
				"z": 3.4209939759,
				"element": "H" 
			},
			{
				"x": 1.1790273527,
				"y": -1.8180423917,
				"z": 0.779651798,
				"element": "H" 
			},
			{
				"x": 5.6687282623,
				"y": -1.2861966826,
				"z": -1.9153232094,
				"element": "H" 
			},
			{
				"x": 5.5546167133,
				"y": -0.703105113,
				"z": -0.2382712514,
				"element": "H" 
			},
			{
				"x": 5.2422194545,
				"y": -2.41467677,
				"z": -0.5838482937,
				"element": "H" 
			},
			{
				"x": 0.4810474951,
				"y": 6.0057351493,
				"z": -0.6316034681,
				"element": "H" 
			},
			{
				"x": -0.0251195861,
				"y": 7.7905152137,
				"z": 1.0572724419,
				"element": "H" 
			},
			{
				"x": -0.7971595339,
				"y": 7.1933885156,
				"z": 3.3206292661,
				"element": "H" 
			},
			{
				"x": -1.0896357594,
				"y": 4.7902373247,
				"z": 3.9777556205,
				"element": "H" 
			},
			{
				"x": -5.0754951927,
				"y": 1.531977236,
				"z": -1.3262554062,
				"element": "H" 
			}
		],
		 "valence_orbital": [ 
			{
				"type": "occ",
				"energy": -0.28013,
				"method": "rhf"
			},
			{
				"type": "occ",
				"energy": -0.27413,
				"method": "rhf"
			},
			{
				"type": "occ",
				"energy": -0.27139,
				"method": "rhf"
			},
			{
				"type": "occ",
				"energy": -0.26722,
				"method": "rhf"
			},
			{
				"type": "occ",
				"energy": -0.26231,
				"method": "rhf"
			},
			{
				"type": "unocc",
				"energy": -0.08739,
				"method": "rhf"
			},
			{
				"type": "unocc",
				"energy": -0.04696,
				"method": "rhf"
			},
			{
				"type": "unocc",
				"energy": -0.03628,
				"method": "rhf"
			},
			{
				"type": "unocc",
				"energy": -4e-05,
				"method": "rhf"
			},
			{
				"type": "unocc",
				"energy": 0.00742,
				"method": "rhf"
			}
		],
		"cosmo_sigma_profile": { 
			"-0.025": 0.0,
			"-0.024": 0.0,
			"-0.023": 0.0,
			"-0.022": 0.0,
			"-0.021": 0.0,
			"-0.02": 1.03577587946,
			"-0.019": 2.00633480592,
			"-0.018": 1.84111912258,
			"-0.017": 0.833492035287,
			"-0.016": 0.702106924588,
			"-0.015": 1.40013211276,
			"-0.014": 0.354344940282,
			"-0.013": 0.525976170892,
			"-0.012": 0.939412102948,
			"-0.011": 0.804730098823,
			"-0.01": 0.631378062802,
			"-0.009": 1.87642905521,
			"-0.008": 7.8732410814,
			"-0.007": 19.1253091093,
			"-0.006": 33.2633992208,
			"-0.005": 38.2180275061,
			"-0.004": 39.4345814523,
			"-0.003": 39.9752019803,
			"-0.002": 43.3459236665,
			"-0.001": 35.3094640759,
			"0.0": 26.3065060028,
			"0.001": 28.729035087,
			"0.002": 25.4784881122,
			"0.003": 15.3647896743,
			"0.004": 13.1461608211,
			"0.005": 14.1710607884,
			"0.006": 13.4507454422,
			"0.007": 15.1425005326,
			"0.008": 15.2944080985,
			"0.009": 14.701082057,
			"0.01": 17.3805449738,
			"0.011": 16.2898453132,
			"0.012": 9.30706717801,
			"0.013": 1.77095601908,
			"0.014": 0.0147510274325,
			"0.015": 0.0,
			"0.016": 0.0,
			"0.017": 0.0,
			"0.018": 0.0,
			"0.019": 0.0,
			"0.02": 0.0,
			"0.021": 0.0,
			"0.022": 0.0,
			"0.023": 0.0,
			"0.024": 0.0,
			"0.025": 0.0
		}
	}
}
