{
	 "smiles": "OCC(F)(F)C(F)(F)C(F)(F)CO", 
	 "Tm": 351.95, 
	 "num_atms": 19, 
	 "gaussian": { 
		 "optdone": 1, 
		 "sigma_profile": "yes", 
		 "theory": "DFT", 
		 "functional": "B3LYP", 
		 "basiset": "6-31G**", 
		 "properties": { 
			 "R2extent": 2256.0234, 
			 "electric_dipole_moment_norm": 1.21783477533, 
			 "electric_quadrupole_moment_norm": 9.11974796965, 
			 "total_energy": -943.600433139, 
			 "HOMO_LUMO_gap": 0.32049, 
			 "cosmo_polarized_energy": -10.65, 
			 "cosmo_cavitation_energy": 24.28, 
			 "cosmo_dispersion_energy": -17.09, 
			 "cosmo_repulsion_energy": 1.26, 
			 "cosmo_total_nonelectrostatic_energy": 8.46, 
			 "SMD_solvation_energy": 6.18 
		},
		"coords": [
			{
				"x": -0.0241530596,
				"y": 0.7222204767,
				"z": -2.1266904061,
				"element": "O" 
			},
			{
				"x": 0.5557450735,
				"y": -0.5251542958,
				"z": -1.837282511,
				"element": "C" 
			},
			{
				"x": -0.2890828369,
				"y": -1.3521042631,
				"z": -0.869693512,
				"element": "C" 
			},
			{
				"x": -1.5391928979,
				"y": -1.4902577229,
				"z": -1.4250901788,
				"element": "F" 
			},
			{
				"x": 0.2581865516,
				"y": -2.5930592956,
				"z": -0.7545670396,
				"element": "F" 
			},
			{
				"x": -0.5284123031,
				"y": -0.8151643687,
				"z": 0.5625338851,
				"element": "C" 
			},
			{
				"x": -1.3961981749,
				"y": -1.6605850869,
				"z": 1.1814961686,
				"element": "F" 
			},
			{
				"x": -1.1419812748,
				"y": 0.4062006901,
				"z": 0.4694285192,
				"element": "F" 
			},
			{
				"x": 0.6983559743,
				"y": -0.6691245225,
				"z": 1.4920688838,
				"element": "C" 
			},
			{
				"x": 1.2178603259,
				"y": -1.9160664207,
				"z": 1.6828073035,
				"element": "F" 
			},
			{
				"x": 1.637989542,
				"y": 0.0892524449,
				"z": 0.8559209281,
				"element": "F" 
			},
			{
				"x": 0.3780883289,
				"y": -0.0656042284,
				"z": 2.8649131337,
				"element": "C" 
			},
			{
				"x": 0.1212290006,
				"y": 1.3144335434,
				"z": 2.8305183643,
				"element": "O" 
			},
			{
				"x": -0.9098141597,
				"y": 0.5574465571,
				"z": -2.4779018813,
				"element": "H" 
			},
			{
				"x": 1.5388708302,
				"y": -0.3421231539,
				"z": -1.4048361452,
				"element": "H" 
			},
			{
				"x": 0.6792113715,
				"y": -1.1610996747,
				"z": -2.7273996265,
				"element": "H" 
			},
			{
				"x": 1.2729652931,
				"y": -0.2154290152,
				"z": 3.4754937738,
				"element": "H" 
			},
			{
				"x": -0.4378786441,
				"y": -0.654678432,
				"z": 3.3065139183,
				"element": "H" 
			},
			{
				"x": -0.6592889406,
				"y": 1.4656967683,
				"z": 2.2818664221,
				"element": "H" 
			}
		],
		 "valence_orbital": [ 
			{
				"type": "occ",
				"energy": -0.37181,
				"method": "rhf"
			},
			{
				"type": "occ",
				"energy": -0.35162,
				"method": "rhf"
			},
			{
				"type": "occ",
				"energy": -0.33684,
				"method": "rhf"
			},
			{
				"type": "occ",
				"energy": -0.29472,
				"method": "rhf"
			},
			{
				"type": "occ",
				"energy": -0.28862,
				"method": "rhf"
			},
			{
				"type": "unocc",
				"energy": 0.03187,
				"method": "rhf"
			},
			{
				"type": "unocc",
				"energy": 0.06113,
				"method": "rhf"
			},
			{
				"type": "unocc",
				"energy": 0.07351,
				"method": "rhf"
			},
			{
				"type": "unocc",
				"energy": 0.09516,
				"method": "rhf"
			},
			{
				"type": "unocc",
				"energy": 0.11498,
				"method": "rhf"
			}
		],
		"cosmo_sigma_profile": { 
			"-0.025": 0.0,
			"-0.024": 0.0,
			"-0.023": 0.0,
			"-0.022": 0.0,
			"-0.021": 0.0,
			"-0.02": 0.0,
			"-0.019": 0.0,
			"-0.018": 0.0,
			"-0.017": 0.0,
			"-0.016": 0.330599855223,
			"-0.015": 0.946541955915,
			"-0.014": 1.36410210858,
			"-0.013": 1.26763634627,
			"-0.012": 1.30277048301,
			"-0.011": 2.08124211608,
			"-0.01": 2.14037935138,
			"-0.009": 2.07667252146,
			"-0.008": 3.59499831213,
			"-0.007": 9.68788258293,
			"-0.006": 11.0583853264,
			"-0.005": 10.5932676049,
			"-0.004": 7.81447152199,
			"-0.003": 7.35045151817,
			"-0.002": 7.86271192792,
			"-0.001": 7.05982545204,
			"0.0": 8.01632067453,
			"0.001": 11.9206345603,
			"0.002": 30.314755082,
			"0.003": 33.1358043742,
			"0.004": 6.58572125901,
			"0.005": 3.56774288979,
			"0.006": 2.27653400603,
			"0.007": 2.55710846039,
			"0.008": 2.48176924273,
			"0.009": 2.82259672191,
			"0.01": 2.24330458042,
			"0.011": 3.16807220476,
			"0.012": 3.58383976547,
			"0.013": 2.50272312498,
			"0.014": 0.0,
			"0.015": 0.0,
			"0.016": 0.0,
			"0.017": 0.0,
			"0.018": 0.0,
			"0.019": 0.0,
			"0.02": 0.0,
			"0.021": 0.0,
			"0.022": 0.0,
			"0.023": 0.0,
			"0.024": 0.0,
			"0.025": 0.0
		}
	}
}
