{
	 "smiles": "COC1=CC2=C(C(=O)C=C(O2)C2=CC=CC=C2)C(OC)=C1OC", 
	 "Tm": 439.15, 
	 "num_atms": 39, 
	 "gaussian": { 
		 "optdone": 1, 
		 "sigma_profile": "yes", 
		 "theory": "DFT", 
		 "functional": "B3LYP", 
		 "basiset": "6-31G**", 
		 "properties": { 
			 "R2extent": 10169.8859, 
			 "electric_dipole_moment_norm": 5.16416665978, 
			 "electric_quadrupole_moment_norm": 12.061052406, 
			 "total_energy": -1071.62356048, 
			 "HOMO_LUMO_gap": 0.15945, 
			 "cosmo_polarized_energy": -17.06, 
			 "cosmo_cavitation_energy": 43.1, 
			 "cosmo_dispersion_energy": -30.56, 
			 "cosmo_repulsion_energy": 2.3, 
			 "cosmo_total_nonelectrostatic_energy": 14.83, 
			 "SMD_solvation_energy": 10.24 
		},
		"coords": [
			{
				"x": 2.5789204488,
				"y": 4.0964906054,
				"z": -2.2076238615,
				"element": "C" 
			},
			{
				"x": 3.1006514991,
				"y": 2.8687068272,
				"z": -2.6970626651,
				"element": "O" 
			},
			{
				"x": 2.4797313353,
				"y": 1.7203243765,
				"z": -2.3350036755,
				"element": "C" 
			},
			{
				"x": 1.3481129035,
				"y": 1.6537646267,
				"z": -1.5272099677,
				"element": "C" 
			},
			{
				"x": 0.7967583962,
				"y": 0.402578212,
				"z": -1.2394352198,
				"element": "C" 
			},
			{
				"x": 1.3338932729,
				"y": -0.8054276822,
				"z": -1.7139253279,
				"element": "C" 
			},
			{
				"x": 0.6742217875,
				"y": -2.0780671989,
				"z": -1.3395830069,
				"element": "C" 
			},
			{
				"x": 1.0935590416,
				"y": -3.1988797766,
				"z": -1.6352393076,
				"element": "O" 
			},
			{
				"x": -0.5385436164,
				"y": -1.908885292,
				"z": -0.541745064,
				"element": "C" 
			},
			{
				"x": -0.9930471985,
				"y": -0.6996598878,
				"z": -0.1350299158,
				"element": "C" 
			},
			{
				"x": -0.3302875326,
				"y": 0.4472322277,
				"z": -0.4573396095,
				"element": "O" 
			},
			{
				"x": -2.1881586268,
				"y": -0.443198329,
				"z": 0.691368304,
				"element": "C" 
			},
			{
				"x": -3.2011940314,
				"y": -1.4104784223,
				"z": 0.8088530136,
				"element": "C" 
			},
			{
				"x": -4.3186067603,
				"y": -1.1712076768,
				"z": 1.6038818245,
				"element": "C" 
			},
			{
				"x": -4.4487180939,
				"y": 0.0385977654,
				"z": 2.2904504377,
				"element": "C" 
			},
			{
				"x": -3.4530576277,
				"y": 1.0095378593,
				"z": 2.1718882265,
				"element": "C" 
			},
			{
				"x": -2.3324234019,
				"y": 0.7743838554,
				"z": 1.3776623543,
				"element": "C" 
			},
			{
				"x": 2.4810589543,
				"y": -0.7090000621,
				"z": -2.5515144505,
				"element": "C" 
			},
			{
				"x": 3.024216576,
				"y": -1.798512781,
				"z": -3.1664384346,
				"element": "O" 
			},
			{
				"x": 3.9488503521,
				"y": -2.5669275136,
				"z": -2.3853907784,
				"element": "C" 
			},
			{
				"x": 3.0589518005,
				"y": 0.5280016285,
				"z": -2.8375209891,
				"element": "C" 
			},
			{
				"x": 4.2114937199,
				"y": 0.6083773192,
				"z": -3.5727947005,
				"element": "O" 
			},
			{
				"x": 4.0233606905,
				"y": 0.5454272182,
				"z": -4.9901194202,
				"element": "C" 
			},
			{
				"x": 2.6005769548,
				"y": 4.133044437,
				"z": -1.1114030379,
				"element": "H" 
			},
			{
				"x": 3.2274276192,
				"y": 4.8768129816,
				"z": -2.6075502785,
				"element": "H" 
			},
			{
				"x": 1.5515750768,
				"y": 4.2649388201,
				"z": -2.5543329423,
				"element": "H" 
			},
			{
				"x": 0.8668139922,
				"y": 2.5353022871,
				"z": -1.1253518255,
				"element": "H" 
			},
			{
				"x": -1.0479080333,
				"y": -2.8163671212,
				"z": -0.2443506183,
				"element": "H" 
			},
			{
				"x": -3.1247424361,
				"y": -2.3437024041,
				"z": 0.2609741869,
				"element": "H" 
			},
			{
				"x": -5.0941407818,
				"y": -1.9275271902,
				"z": 1.6801762269,
				"element": "H" 
			},
			{
				"x": -5.3222847606,
				"y": 0.224022095,
				"z": 2.908457056,
				"element": "H" 
			},
			{
				"x": -3.5470010575,
				"y": 1.9534788166,
				"z": 2.7008305816,
				"element": "H" 
			},
			{
				"x": -1.5594825433,
				"y": 1.5289201914,
				"z": 1.2899684106,
				"element": "H" 
			},
			{
				"x": 3.4366827424,
				"y": -3.0411851164,
				"z": -1.5450342792,
				"element": "H" 
			},
			{
				"x": 4.7767544494,
				"y": -1.9366341181,
				"z": -2.0406789493,
				"element": "H" 
			},
			{
				"x": 4.3338104517,
				"y": -3.3387847433,
				"z": -3.0542303469,
				"element": "H" 
			},
			{
				"x": 5.0179395626,
				"y": 0.6248673642,
				"z": -5.4340345508,
				"element": "H" 
			},
			{
				"x": 3.4044807699,
				"y": 1.380309763,
				"z": -5.3415222667,
				"element": "H" 
			},
			{
				"x": 3.5660541048,
				"y": -0.4056739619,
				"z": -5.2811451325,
				"element": "H" 
			}
		],
		 "valence_orbital": [ 
			{
				"type": "occ",
				"energy": -0.26227,
				"method": "rhf"
			},
			{
				"type": "occ",
				"energy": -0.24253,
				"method": "rhf"
			},
			{
				"type": "occ",
				"energy": -0.23062,
				"method": "rhf"
			},
			{
				"type": "occ",
				"energy": -0.22774,
				"method": "rhf"
			},
			{
				"type": "occ",
				"energy": -0.21942,
				"method": "rhf"
			},
			{
				"type": "unocc",
				"energy": -0.05997,
				"method": "rhf"
			},
			{
				"type": "unocc",
				"energy": -0.02196,
				"method": "rhf"
			},
			{
				"type": "unocc",
				"energy": -0.0116,
				"method": "rhf"
			},
			{
				"type": "unocc",
				"energy": 0.00053,
				"method": "rhf"
			},
			{
				"type": "unocc",
				"energy": 0.03076,
				"method": "rhf"
			}
		],
		"cosmo_sigma_profile": { 
			"-0.025": 0.0,
			"-0.024": 0.0,
			"-0.023": 0.0,
			"-0.022": 0.0,
			"-0.021": 0.0,
			"-0.02": 0.0,
			"-0.019": 0.0,
			"-0.018": 0.0,
			"-0.017": 0.0,
			"-0.016": 0.0,
			"-0.015": 0.0,
			"-0.014": 0.0,
			"-0.013": 0.0,
			"-0.012": 0.0,
			"-0.011": 0.0,
			"-0.01": 0.0,
			"-0.009": 0.203467069806,
			"-0.008": 2.92985701895,
			"-0.007": 7.17775482238,
			"-0.006": 20.1909223863,
			"-0.005": 25.8908630788,
			"-0.004": 30.9644499899,
			"-0.003": 32.6338375574,
			"-0.002": 32.2123721495,
			"-0.001": 25.9947722403,
			"0.0": 27.3057577405,
			"0.001": 33.3000707447,
			"0.002": 22.5140703121,
			"0.003": 16.4799253275,
			"0.004": 18.4938145324,
			"0.005": 8.76608592315,
			"0.006": 5.35008768023,
			"0.007": 4.97703306956,
			"0.008": 4.02997272706,
			"0.009": 3.45020639408,
			"0.01": 3.84342375864,
			"0.011": 4.32557251814,
			"0.012": 3.56134927908,
			"0.013": 4.60530964476,
			"0.014": 3.97041017514,
			"0.015": 1.41419850167,
			"0.016": 0.0,
			"0.017": 0.0,
			"0.018": 0.0,
			"0.019": 0.0,
			"0.02": 0.0,
			"0.021": 0.0,
			"0.022": 0.0,
			"0.023": 0.0,
			"0.024": 0.0,
			"0.025": 0.0
		}
	}
}
