{
	 "smiles": "ON(C=C(C(O)=O)C1=CC=CC=C1)C1=CC=CC=C1", 
	 "Tm": 348.15, 
	 "num_atms": 32, 
	 "gaussian": { 
		 "optdone": 1, 
		 "sigma_profile": "yes", 
		 "theory": "DFT", 
		 "functional": "B3LYP", 
		 "basiset": "6-31G**", 
		 "properties": { 
			 "R2extent": 6466.8979, 
			 "electric_dipole_moment_norm": 5.86161122986, 
			 "electric_quadrupole_moment_norm": 18.2450481581, 
			 "total_energy": -859.791584709, 
			 "HOMO_LUMO_gap": 0.16, 
			 "cosmo_polarized_energy": -17.77, 
			 "cosmo_cavitation_energy": 36.36, 
			 "cosmo_dispersion_energy": -25.75, 
			 "cosmo_repulsion_energy": 1.97, 
			 "cosmo_total_nonelectrostatic_energy": 12.57, 
			 "SMD_solvation_energy": 8.04 
		},
		"coords": [
			{
				"x": -1.7523592727,
				"y": -1.0116945247,
				"z": 1.7052807719,
				"element": "O" 
			},
			{
				"x": -0.3884748843,
				"y": -0.7293868776,
				"z": 1.6104239175,
				"element": "N" 
			},
			{
				"x": -0.001741513,
				"y": 0.3050769546,
				"z": 0.8107861287,
				"element": "C" 
			},
			{
				"x": -0.6714268113,
				"y": 0.8797589771,
				"z": -0.228631262,
				"element": "C" 
			},
			{
				"x": 0.0225847485,
				"y": 2.0664110797,
				"z": -0.8095758574,
				"element": "C" 
			},
			{
				"x": -0.5298262772,
				"y": 2.6064949016,
				"z": -1.9288468485,
				"element": "O" 
			},
			{
				"x": 1.0406007477,
				"y": 2.5505968725,
				"z": -0.3564283489,
				"element": "O" 
			},
			{
				"x": -1.925632283,
				"y": 0.356626252,
				"z": -0.8329472675,
				"element": "C" 
			},
			{
				"x": -3.077467766,
				"y": 1.1577139088,
				"z": -0.9475758871,
				"element": "C" 
			},
			{
				"x": -4.2422096471,
				"y": 0.659093848,
				"z": -1.5344255261,
				"element": "C" 
			},
			{
				"x": -4.2859851166,
				"y": -0.6504876837,
				"z": -2.0153601384,
				"element": "C" 
			},
			{
				"x": -3.150005132,
				"y": -1.4576041674,
				"z": -1.9173531301,
				"element": "C" 
			},
			{
				"x": -1.9804235046,
				"y": -0.9566378363,
				"z": -1.3434822123,
				"element": "C" 
			},
			{
				"x": 0.4300519338,
				"y": -1.3630108796,
				"z": 2.5744740918,
				"element": "C" 
			},
			{
				"x": -0.150986607,
				"y": -1.991693181,
				"z": 3.68517519,
				"element": "C" 
			},
			{
				"x": 0.664190581,
				"y": -2.6062274773,
				"z": 4.6333885363,
				"element": "C" 
			},
			{
				"x": 2.0535353439,
				"y": -2.5994329134,
				"z": 4.496671211,
				"element": "C" 
			},
			{
				"x": 2.6248521964,
				"y": -1.9800295824,
				"z": 3.3840832678,
				"element": "C" 
			},
			{
				"x": 1.8252864078,
				"y": -1.3752859403,
				"z": 2.4159366786,
				"element": "C" 
			},
			{
				"x": -1.9567068814,
				"y": -1.5922090597,
				"z": 0.9499258114,
				"element": "H" 
			},
			{
				"x": 0.9655736243,
				"y": 0.7280569793,
				"z": 1.063150282,
				"element": "H" 
			},
			{
				"x": -1.3031146135,
				"y": 2.0873023072,
				"z": -2.1987615208,
				"element": "H" 
			},
			{
				"x": -3.0638018103,
				"y": 2.1674123359,
				"z": -0.5466542689,
				"element": "H" 
			},
			{
				"x": -5.1214441272,
				"y": 1.2932276547,
				"z": -1.6028577883,
				"element": "H" 
			},
			{
				"x": -5.194343512,
				"y": -1.0375816336,
				"z": -2.4669648223,
				"element": "H" 
			},
			{
				"x": -3.1682211713,
				"y": -2.4726790195,
				"z": -2.3042752147,
				"element": "H" 
			},
			{
				"x": -1.0837991608,
				"y": -1.5717959102,
				"z": -1.3140451723,
				"element": "H" 
			},
			{
				"x": -1.2273259953,
				"y": -1.985844622,
				"z": 3.7968911737,
				"element": "H" 
			},
			{
				"x": 0.2040369224,
				"y": -3.0874642228,
				"z": 5.491614413,
				"element": "H" 
			},
			{
				"x": 2.6818238179,
				"y": -3.0773633558,
				"z": 5.2416364113,
				"element": "H" 
			},
			{
				"x": 3.7028611126,
				"y": -1.9799975173,
				"z": 3.2523361937,
				"element": "H" 
			},
			{
				"x": 2.2838986503,
				"y": -0.9382456667,
				"z": 1.5359111872,
				"element": "H" 
			}
		],
		 "valence_orbital": [ 
			{
				"type": "occ",
				"energy": -0.27241,
				"method": "rhf"
			},
			{
				"type": "occ",
				"energy": -0.26412,
				"method": "rhf"
			},
			{
				"type": "occ",
				"energy": -0.25996,
				"method": "rhf"
			},
			{
				"type": "occ",
				"energy": -0.2505,
				"method": "rhf"
			},
			{
				"type": "occ",
				"energy": -0.20589,
				"method": "rhf"
			},
			{
				"type": "unocc",
				"energy": -0.04589,
				"method": "rhf"
			},
			{
				"type": "unocc",
				"energy": -0.02821,
				"method": "rhf"
			},
			{
				"type": "unocc",
				"energy": -0.01753,
				"method": "rhf"
			},
			{
				"type": "unocc",
				"energy": -0.01014,
				"method": "rhf"
			},
			{
				"type": "unocc",
				"energy": 0.01317,
				"method": "rhf"
			}
		],
		"cosmo_sigma_profile": { 
			"-0.025": 0.0,
			"-0.024": 0.0,
			"-0.023": 0.0,
			"-0.022": 0.0,
			"-0.021": 0.0,
			"-0.02": 0.0,
			"-0.019": 0.0,
			"-0.018": 0.0,
			"-0.017": 0.0,
			"-0.016": 0.0,
			"-0.015": 0.0473050858466,
			"-0.014": 0.919239931038,
			"-0.013": 1.59997374189,
			"-0.012": 0.948018161019,
			"-0.011": 1.79422426803,
			"-0.01": 2.17898740366,
			"-0.009": 2.38084884262,
			"-0.008": 3.2570063438,
			"-0.007": 6.52441475957,
			"-0.006": 19.8767335839,
			"-0.005": 25.4574676166,
			"-0.004": 24.7462963086,
			"-0.003": 19.1567153575,
			"-0.002": 18.1996021091,
			"-0.001": 17.1367624097,
			"0.0": 17.9698394962,
			"0.001": 19.6872537259,
			"0.002": 18.0841289348,
			"0.003": 19.4564320622,
			"0.004": 19.3288105351,
			"0.005": 15.1600458963,
			"0.006": 6.42469301169,
			"0.007": 3.69130698462,
			"0.008": 2.89349934473,
			"0.009": 3.77125212425,
			"0.01": 4.33346822907,
			"0.011": 3.96119312124,
			"0.012": 4.79702283627,
			"0.013": 5.19144666653,
			"0.014": 2.09295533563,
			"0.015": 0.24018352762,
			"0.016": 0.0,
			"0.017": 0.0,
			"0.018": 0.0,
			"0.019": 0.0,
			"0.02": 0.0,
			"0.021": 0.0,
			"0.022": 0.0,
			"0.023": 0.0,
			"0.024": 0.0,
			"0.025": 0.0
		}
	}
}
