{
	 "smiles": "CCOC(OCC)C(N)=S", 
	 "Tm": 365.65, 
	 "num_atms": 23, 
	 "gaussian": { 
		 "optdone": 1, 
		 "sigma_profile": "yes", 
		 "theory": "DFT", 
		 "functional": "B3LYP", 
		 "basiset": "6-31G**", 
		 "properties": { 
			 "R2extent": 2322.3193, 
			 "electric_dipole_moment_norm": 4.32546585468, 
			 "electric_quadrupole_moment_norm": 16.5929212883, 
			 "total_energy": -839.852793488, 
			 "HOMO_LUMO_gap": 0.16865, 
			 "cosmo_polarized_energy": -16.51, 
			 "cosmo_cavitation_energy": 27.59, 
			 "cosmo_dispersion_energy": -19.69, 
			 "cosmo_repulsion_energy": 1.62, 
			 "cosmo_total_nonelectrostatic_energy": 9.52, 
			 "SMD_solvation_energy": 4.2 
		},
		"coords": [
			{
				"x": 0.375451921,
				"y": 1.9023317117,
				"z": -2.7171361974,
				"element": "C" 
			},
			{
				"x": 0.4824219961,
				"y": 0.6638859016,
				"z": -1.8459605,
				"element": "C" 
			},
			{
				"x": -0.0576665959,
				"y": 0.9840602079,
				"z": -0.5598242669,
				"element": "O" 
			},
			{
				"x": -0.0609252672,
				"y": -0.0704083668,
				"z": 0.3345076933,
				"element": "C" 
			},
			{
				"x": 1.2269337672,
				"y": -0.3618104076,
				"z": 0.8716537524,
				"element": "O" 
			},
			{
				"x": 1.9500343834,
				"y": 0.7795548025,
				"z": 1.3669555692,
				"element": "C" 
			},
			{
				"x": 3.258191564,
				"y": 0.2748240778,
				"z": 1.9508888891,
				"element": "C" 
			},
			{
				"x": -1.1013014111,
				"y": 0.1889852332,
				"z": 1.4511156801,
				"element": "C" 
			},
			{
				"x": -0.7739397259,
				"y": -0.4479000925,
				"z": 2.5883690991,
				"element": "N" 
			},
			{
				"x": -2.5016748882,
				"y": 1.0433550541,
				"z": 1.232793136,
				"element": "S" 
			},
			{
				"x": 0.9503365398,
				"y": 2.7280902218,
				"z": -2.2879483174,
				"element": "H" 
			},
			{
				"x": -0.6672345826,
				"y": 2.2194038099,
				"z": -2.8027647616,
				"element": "H" 
			},
			{
				"x": 0.7634779737,
				"y": 1.6942234515,
				"z": -3.7191643739,
				"element": "H" 
			},
			{
				"x": 1.526898951,
				"y": 0.3374036593,
				"z": -1.7465219023,
				"element": "H" 
			},
			{
				"x": -0.0877923521,
				"y": -0.1717095488,
				"z": -2.2800838352,
				"element": "H" 
			},
			{
				"x": -0.3548930242,
				"y": -1.0110442546,
				"z": -0.159084941,
				"element": "H" 
			},
			{
				"x": 1.3548299081,
				"y": 1.3041942002,
				"z": 2.1272031005,
				"element": "H" 
			},
			{
				"x": 2.1292229061,
				"y": 1.4851892933,
				"z": 0.5490368492,
				"element": "H" 
			},
			{
				"x": 3.8375227148,
				"y": -0.2601328171,
				"z": 1.1927426374,
				"element": "H" 
			},
			{
				"x": 3.8573460684,
				"y": 1.1150893327,
				"z": 2.3153324624,
				"element": "H" 
			},
			{
				"x": 3.0812033545,
				"y": -0.407936978,
				"z": 2.7880332875,
				"element": "H" 
			},
			{
				"x": -1.4063495251,
				"y": -0.4168010465,
				"z": 3.3738185921,
				"element": "H" 
			},
			{
				"x": 0.1068053241,
				"y": -0.9413474456,
				"z": 2.6466383475,
				"element": "H" 
			}
		],
		 "valence_orbital": [ 
			{
				"type": "occ",
				"energy": -0.3121,
				"method": "rhf"
			},
			{
				"type": "occ",
				"energy": -0.28742,
				"method": "rhf"
			},
			{
				"type": "occ",
				"energy": -0.2793,
				"method": "rhf"
			},
			{
				"type": "occ",
				"energy": -0.22878,
				"method": "rhf"
			},
			{
				"type": "occ",
				"energy": -0.20035,
				"method": "rhf"
			},
			{
				"type": "unocc",
				"energy": -0.0317,
				"method": "rhf"
			},
			{
				"type": "unocc",
				"energy": 0.07031,
				"method": "rhf"
			},
			{
				"type": "unocc",
				"energy": 0.08728,
				"method": "rhf"
			},
			{
				"type": "unocc",
				"energy": 0.10026,
				"method": "rhf"
			},
			{
				"type": "unocc",
				"energy": 0.10915,
				"method": "rhf"
			}
		],
		"cosmo_sigma_profile": { 
			"-0.025": 0.0,
			"-0.024": 0.0,
			"-0.023": 0.0,
			"-0.022": 0.0,
			"-0.021": 0.0,
			"-0.02": 0.0,
			"-0.019": 0.0,
			"-0.018": 0.0,
			"-0.017": 0.0,
			"-0.016": 0.07164292399,
			"-0.015": 0.892100755351,
			"-0.014": 1.53516207688,
			"-0.013": 1.90998514211,
			"-0.012": 2.49192190824,
			"-0.011": 1.85696636646,
			"-0.01": 1.83170455924,
			"-0.009": 1.55108943412,
			"-0.008": 1.925599922,
			"-0.007": 5.57740042285,
			"-0.006": 4.66556632314,
			"-0.005": 7.29768105596,
			"-0.004": 17.8199026325,
			"-0.003": 29.8153790374,
			"-0.002": 24.7639483922,
			"-0.001": 18.4340527361,
			"0.0": 19.1839250045,
			"0.001": 13.0711838276,
			"0.002": 4.22297401407,
			"0.003": 5.1724814804,
			"0.004": 5.25707218043,
			"0.005": 5.23116049446,
			"0.006": 4.77771122504,
			"0.007": 5.58938091517,
			"0.008": 7.71188025436,
			"0.009": 7.0854002592,
			"0.01": 6.16669019928,
			"0.011": 3.97034380378,
			"0.012": 3.20062732775,
			"0.013": 1.75442496038,
			"0.014": 1.55794498611,
			"0.015": 1.12817358054,
			"0.016": 0.478355190452,
			"0.017": 0.0,
			"0.018": 0.0,
			"0.019": 0.0,
			"0.02": 0.0,
			"0.021": 0.0,
			"0.022": 0.0,
			"0.023": 0.0,
			"0.024": 0.0,
			"0.025": 0.0
		}
	}
}
