{
	 "smiles": "CC(C)(C)N(CCO)CCO", 
	 "Tm": 315.15, 
	 "num_atms": 30, 
	 "gaussian": { 
		 "optdone": 1, 
		 "sigma_profile": "yes", 
		 "theory": "DFT", 
		 "functional": "B3LYP", 
		 "basiset": "6-31G**", 
		 "properties": { 
			 "R2extent": 2375.9652, 
			 "electric_dipole_moment_norm": 3.59641722552, 
			 "electric_quadrupole_moment_norm": 12.8538023281, 
			 "total_energy": -521.484129761, 
			 "HOMO_LUMO_gap": 0.28486, 
			 "cosmo_polarized_energy": -8.43, 
			 "cosmo_cavitation_energy": 28.1, 
			 "cosmo_dispersion_energy": -20.24, 
			 "cosmo_repulsion_energy": 1.58, 
			 "cosmo_total_nonelectrostatic_energy": 9.44, 
			 "SMD_solvation_energy": 4.69 
		},
		"coords": [
			{
				"x": 2.6790038652,
				"y": -0.1343933938,
				"z": -0.4722853646,
				"element": "C" 
			},
			{
				"x": 1.2642975534,
				"y": 0.3031018233,
				"z": -0.0365476695,
				"element": "C" 
			},
			{
				"x": 0.6367838678,
				"y": 1.036054923,
				"z": -1.238724008,
				"element": "C" 
			},
			{
				"x": 1.3663039595,
				"y": 1.2781391281,
				"z": 1.1582257654,
				"element": "C" 
			},
			{
				"x": 0.4500903271,
				"y": -0.9133653631,
				"z": 0.2906905462,
				"element": "N" 
			},
			{
				"x": 0.965809762,
				"y": -1.7317067709,
				"z": 1.4079851597,
				"element": "C" 
			},
			{
				"x": 0.7299748314,
				"y": -3.2396625984,
				"z": 1.230955243,
				"element": "C" 
			},
			{
				"x": -0.627763511,
				"y": -3.6359937745,
				"z": 1.2310999958,
				"element": "O" 
			},
			{
				"x": -1.0104440349,
				"y": -0.7042672311,
				"z": 0.4131986137,
				"element": "C" 
			},
			{
				"x": -1.7466433493,
				"y": -1.199393872,
				"z": -0.8474146712,
				"element": "C" 
			},
			{
				"x": -1.1861626775,
				"y": -2.4362162847,
				"z": -1.2855152669,
				"element": "O" 
			},
			{
				"x": 2.6182172787,
				"y": -0.8899491805,
				"z": -1.2617462858,
				"element": "H" 
			},
			{
				"x": 3.2290846229,
				"y": 0.72730801,
				"z": -0.8629794909,
				"element": "H" 
			},
			{
				"x": 3.2730354399,
				"y": -0.5447850856,
				"z": 0.348430292,
				"element": "H" 
			},
			{
				"x": -0.3552539579,
				"y": 1.4382398028,
				"z": -1.0183006788,
				"element": "H" 
			},
			{
				"x": 1.2712918919,
				"y": 1.881392043,
				"z": -1.521249735,
				"element": "H" 
			},
			{
				"x": 0.5570058334,
				"y": 0.3709130779,
				"z": -2.1043866631,
				"element": "H" 
			},
			{
				"x": 1.8471865012,
				"y": 0.8051815649,
				"z": 2.0199060656,
				"element": "H" 
			},
			{
				"x": 1.9594935547,
				"y": 2.1585820035,
				"z": 0.8895907403,
				"element": "H" 
			},
			{
				"x": 0.3786598846,
				"y": 1.6301521004,
				"z": 1.474046911,
				"element": "H" 
			},
			{
				"x": 0.5313918743,
				"y": -1.4171082718,
				"z": 2.3704242878,
				"element": "H" 
			},
			{
				"x": 2.045974781,
				"y": -1.5924133674,
				"z": 1.4902586173,
				"element": "H" 
			},
			{
				"x": 1.2473601044,
				"y": -3.571046832,
				"z": 0.3153441989,
				"element": "H" 
			},
			{
				"x": 1.2089222743,
				"y": -3.7525278075,
				"z": 2.0746863701,
				"element": "H" 
			},
			{
				"x": -0.9870983073,
				"y": -3.4321148157,
				"z": 0.3474429607,
				"element": "H" 
			},
			{
				"x": -1.3632808002,
				"y": -1.2947140473,
				"z": 1.2609935225,
				"element": "H" 
			},
			{
				"x": -1.2735258525,
				"y": 0.3414526933,
				"z": 0.6192478521,
				"element": "H" 
			},
			{
				"x": -2.8027464359,
				"y": -1.3796878056,
				"z": -0.6240761015,
				"element": "H" 
			},
			{
				"x": -1.6978811213,
				"y": -0.4585057986,
				"z": -1.656665434,
				"element": "H" 
			},
			{
				"x": -0.22648816,
				"y": -2.2568648698,
				"z": -1.2536357729,
				"element": "H" 
			}
		],
		 "valence_orbital": [ 
			{
				"type": "occ",
				"energy": -0.32439,
				"method": "rhf"
			},
			{
				"type": "occ",
				"energy": -0.31066,
				"method": "rhf"
			},
			{
				"type": "occ",
				"energy": -0.27332,
				"method": "rhf"
			},
			{
				"type": "occ",
				"energy": -0.25142,
				"method": "rhf"
			},
			{
				"type": "occ",
				"energy": -0.22065,
				"method": "rhf"
			},
			{
				"type": "unocc",
				"energy": 0.06421,
				"method": "rhf"
			},
			{
				"type": "unocc",
				"energy": 0.0899,
				"method": "rhf"
			},
			{
				"type": "unocc",
				"energy": 0.10245,
				"method": "rhf"
			},
			{
				"type": "unocc",
				"energy": 0.10402,
				"method": "rhf"
			},
			{
				"type": "unocc",
				"energy": 0.11935,
				"method": "rhf"
			}
		],
		"cosmo_sigma_profile": { 
			"-0.025": 0.0,
			"-0.024": 0.0,
			"-0.023": 0.0,
			"-0.022": 0.0,
			"-0.021": 0.0,
			"-0.02": 0.0,
			"-0.019": 0.0,
			"-0.018": 0.0,
			"-0.017": 0.0,
			"-0.016": 0.0,
			"-0.015": 0.0,
			"-0.014": 0.0,
			"-0.013": 0.0,
			"-0.012": 0.0,
			"-0.011": 0.0,
			"-0.01": 0.0,
			"-0.009": 0.0571324254617,
			"-0.008": 0.624664684265,
			"-0.007": 1.39318606123,
			"-0.006": 1.35125115061,
			"-0.005": 5.78326599608,
			"-0.004": 15.7697321309,
			"-0.003": 34.2238547303,
			"-0.002": 37.3111939441,
			"-0.001": 31.3750191243,
			"0.0": 22.9347066889,
			"0.001": 23.8769692161,
			"0.002": 9.98485868286,
			"0.003": 3.5742802302,
			"0.004": 2.52956496621,
			"0.005": 2.08076615494,
			"0.006": 2.31405878241,
			"0.007": 2.06130995405,
			"0.008": 1.58121719229,
			"0.009": 2.32362853411,
			"0.01": 2.46868563069,
			"0.011": 1.68739580939,
			"0.012": 2.48000548919,
			"0.013": 2.41359269147,
			"0.014": 2.68321130566,
			"0.015": 2.2065861376,
			"0.016": 0.539313740753,
			"0.017": 0.0,
			"0.018": 0.0,
			"0.019": 0.0,
			"0.02": 0.0,
			"0.021": 0.0,
			"0.022": 0.0,
			"0.023": 0.0,
			"0.024": 0.0,
			"0.025": 0.0
		}
	}
}
