{
	 "smiles": "CCC(=O)OC1CCC2(C)C3CCC4(C)C(CCC4C3CC=C2C1)C(C)CCCC(C)C", 
	 "Tm": 371.65, 
	 "num_atms": 82, 
	 "gaussian": { 
		 "optdone": 1, 
		 "sigma_profile": "yes", 
		 "theory": "DFT", 
		 "functional": "B3LYP", 
		 "basiset": "6-31G**", 
		 "properties": { 
			 "R2extent": 23989.3047, 
			 "electric_dipole_moment_norm": 1.99483139638, 
			 "electric_quadrupole_moment_norm": 15.3344744892, 
			 "total_energy": -1323.82789332, 
			 "HOMO_LUMO_gap": 0.24372, 
			 "cosmo_polarized_energy": -7.73, 
			 "cosmo_cavitation_energy": 70.25, 
			 "cosmo_dispersion_energy": -46.25, 
			 "cosmo_repulsion_energy": 3.48, 
			 "cosmo_total_nonelectrostatic_energy": 27.48, 
			 "SMD_solvation_energy": 10.66 
		},
		"coords": [
			{
				"x": 1.4709351593,
				"y": -4.5923707832,
				"z": 7.6791036812,
				"element": "C" 
			},
			{
				"x": 0.2921437122,
				"y": -3.654746398,
				"z": 7.9811667991,
				"element": "C" 
			},
			{
				"x": 0.0104689942,
				"y": -2.6607841094,
				"z": 6.869674855,
				"element": "C" 
			},
			{
				"x": -0.0211687768,
				"y": -1.4557080063,
				"z": 7.0052437986,
				"element": "O" 
			},
			{
				"x": -0.21494656,
				"y": -3.2967232958,
				"z": 5.6955605237,
				"element": "O" 
			},
			{
				"x": -0.5114545913,
				"y": -2.4724417394,
				"z": 4.5367774322,
				"element": "C" 
			},
			{
				"x": -1.3358287568,
				"y": -3.339530152,
				"z": 3.5854301757,
				"element": "C" 
			},
			{
				"x": -1.5892848417,
				"y": -2.645158495,
				"z": 2.2330176396,
				"element": "C" 
			},
			{
				"x": -0.2920321327,
				"y": -2.1005776022,
				"z": 1.5551196271,
				"element": "C" 
			},
			{
				"x": 0.5746163134,
				"y": -3.3170248021,
				"z": 1.138970519,
				"element": "C" 
			},
			{
				"x": -0.6582679299,
				"y": -1.2545284389,
				"z": 0.2901415798,
				"element": "C" 
			},
			{
				"x": 0.4919273294,
				"y": -1.145729141,
				"z": -0.7501537244,
				"element": "C" 
			},
			{
				"x": 0.4111870796,
				"y": 0.0854043136,
				"z": -1.6885761355,
				"element": "C" 
			},
			{
				"x": -1.012950755,
				"y": 0.614324574,
				"z": -1.9642497068,
				"element": "C" 
			},
			{
				"x": -1.7960986672,
				"y": -0.4003966692,
				"z": -2.8245813127,
				"element": "C" 
			},
			{
				"x": -0.9841259626,
				"y": 2.0536629396,
				"z": -2.6266337761,
				"element": "C" 
			},
			{
				"x": -2.1518096746,
				"y": 2.7986361063,
				"z": -1.9445123346,
				"element": "C" 
			},
			{
				"x": -2.0526850269,
				"y": 2.3444473589,
				"z": -0.4876241118,
				"element": "C" 
			},
			{
				"x": -1.7851126397,
				"y": 0.8313390734,
				"z": -0.5946941124,
				"element": "C" 
			},
			{
				"x": -1.1652577094,
				"y": 0.1555726273,
				"z": 0.6566009362,
				"element": "C" 
			},
			{
				"x": -0.0639655374,
				"y": 0.9300544733,
				"z": 1.4087871999,
				"element": "C" 
			},
			{
				"x": 0.5183879027,
				"y": 0.0902307137,
				"z": 2.5164358068,
				"element": "C" 
			},
			{
				"x": 0.4139210305,
				"y": -1.2436494368,
				"z": 2.6068095801,
				"element": "C" 
			},
			{
				"x": 0.7868405424,
				"y": -1.9636238251,
				"z": 3.8844244492,
				"element": "C" 
			},
			{
				"x": -0.9862101467,
				"y": 2.1580446074,
				"z": -4.174092321,
				"element": "C" 
			},
			{
				"x": -1.2116802677,
				"y": 3.6109255779,
				"z": -4.6395061938,
				"element": "C" 
			},
			{
				"x": 0.2677795553,
				"y": 1.5658146827,
				"z": -4.866043801,
				"element": "C" 
			},
			{
				"x": 1.6095408458,
				"y": 2.260081884,
				"z": -4.5791662015,
				"element": "C" 
			},
			{
				"x": 2.7699184292,
				"y": 1.5943765064,
				"z": -5.3365433282,
				"element": "C" 
			},
			{
				"x": 4.172927693,
				"y": 2.208914715,
				"z": -5.1283951849,
				"element": "C" 
			},
			{
				"x": 4.6553092488,
				"y": 2.1022300174,
				"z": -3.6730480709,
				"element": "C" 
			},
			{
				"x": 4.2660300461,
				"y": 3.6564435378,
				"z": -5.6364002603,
				"element": "C" 
			},
			{
				"x": 1.2804364438,
				"y": -5.1799038185,
				"z": 6.7779662565,
				"element": "H" 
			},
			{
				"x": 1.6322891313,
				"y": -5.281774085,
				"z": 8.5130601014,
				"element": "H" 
			},
			{
				"x": 2.3960468707,
				"y": -4.0270255169,
				"z": 7.5279483287,
				"element": "H" 
			},
			{
				"x": 0.4701540498,
				"y": -3.0724224118,
				"z": 8.8880472245,
				"element": "H" 
			},
			{
				"x": -0.6172092395,
				"y": -4.2484150523,
				"z": 8.1368794972,
				"element": "H" 
			},
			{
				"x": -1.0884816781,
				"y": -1.6073248378,
				"z": 4.8770862107,
				"element": "H" 
			},
			{
				"x": -0.807595349,
				"y": -4.2885806391,
				"z": 3.4390293324,
				"element": "H" 
			},
			{
				"x": -2.2911353759,
				"y": -3.590739694,
				"z": 4.0600959958,
				"element": "H" 
			},
			{
				"x": -2.2855735064,
				"y": -1.8129356142,
				"z": 2.3881030632,
				"element": "H" 
			},
			{
				"x": -2.087736502,
				"y": -3.3500721446,
				"z": 1.555047211,
				"element": "H" 
			},
			{
				"x": 0.7265038238,
				"y": -4.0175648775,
				"z": 1.9623626656,
				"element": "H" 
			},
			{
				"x": 0.0799371996,
				"y": -3.8692933581,
				"z": 0.3317886844,
				"element": "H" 
			},
			{
				"x": 1.5634876483,
				"y": -3.0169579648,
				"z": 0.7854991718,
				"element": "H" 
			},
			{
				"x": -1.4911351233,
				"y": -1.7832813126,
				"z": -0.1946834449,
				"element": "H" 
			},
			{
				"x": 0.5174622011,
				"y": -2.0633678389,
				"z": -1.3466598802,
				"element": "H" 
			},
			{
				"x": 1.4552284215,
				"y": -1.0999557887,
				"z": -0.2309475146,
				"element": "H" 
			},
			{
				"x": 0.9977083604,
				"y": 0.9029703437,
				"z": -1.2558894672,
				"element": "H" 
			},
			{
				"x": 0.91056619,
				"y": -0.1604678026,
				"z": -2.6323031404,
				"element": "H" 
			},
			{
				"x": -1.2920375044,
				"y": -0.6189854004,
				"z": -3.7708943932,
				"element": "H" 
			},
			{
				"x": -1.9172162613,
				"y": -1.3504260572,
				"z": -2.2950745561,
				"element": "H" 
			},
			{
				"x": -2.802035073,
				"y": -0.0340802955,
				"z": -3.0580254242,
				"element": "H" 
			},
			{
				"x": -0.0661895214,
				"y": 2.5437474775,
				"z": -2.2689063421,
				"element": "H" 
			},
			{
				"x": -2.0852876988,
				"y": 3.88486629,
				"z": -2.0534640951,
				"element": "H" 
			},
			{
				"x": -3.1117346002,
				"y": 2.4865428798,
				"z": -2.3805589188,
				"element": "H" 
			},
			{
				"x": -2.9453510749,
				"y": 2.5709480311,
				"z": 0.106063261,
				"element": "H" 
			},
			{
				"x": -1.2108714699,
				"y": 2.8610219799,
				"z": -0.0112851464,
				"element": "H" 
			},
			{
				"x": -2.7644814916,
				"y": 0.3495872971,
				"z": -0.7205622868,
				"element": "H" 
			},
			{
				"x": -1.984671348,
				"y": 0.0463292011,
				"z": 1.3794511597,
				"element": "H" 
			},
			{
				"x": -0.4865838983,
				"y": 1.8390265056,
				"z": 1.8547132649,
				"element": "H" 
			},
			{
				"x": 0.728769787,
				"y": 1.2830312541,
				"z": 0.7361316324,
				"element": "H" 
			},
			{
				"x": 1.0049027525,
				"y": 0.6271644601,
				"z": 3.3306294307,
				"element": "H" 
			},
			{
				"x": 1.4463547229,
				"y": -2.8216051261,
				"z": 3.7044866236,
				"element": "H" 
			},
			{
				"x": 1.2952017051,
				"y": -1.2883474399,
				"z": 4.5778803351,
				"element": "H" 
			},
			{
				"x": -1.8428887253,
				"y": 1.5779614549,
				"z": -4.5434626761,
				"element": "H" 
			},
			{
				"x": -0.4853471382,
				"y": 4.3002968301,
				"z": -4.1943225958,
				"element": "H" 
			},
			{
				"x": -2.2098464953,
				"y": 3.9712315794,
				"z": -4.3766208268,
				"element": "H" 
			},
			{
				"x": -1.1123673739,
				"y": 3.6850306366,
				"z": -5.7284031692,
				"element": "H" 
			},
			{
				"x": 0.3632470528,
				"y": 0.503307917,
				"z": -4.6140391055,
				"element": "H" 
			},
			{
				"x": 0.0905362273,
				"y": 1.5942951596,
				"z": -5.950735406,
				"element": "H" 
			},
			{
				"x": 1.5445070332,
				"y": 3.3173691968,
				"z": -4.8614696083,
				"element": "H" 
			},
			{
				"x": 1.8146952878,
				"y": 2.2405721579,
				"z": -3.5025047173,
				"element": "H" 
			},
			{
				"x": 2.8120272694,
				"y": 0.5328718564,
				"z": -5.0530057609,
				"element": "H" 
			},
			{
				"x": 2.5415634377,
				"y": 1.6085471623,
				"z": -6.4118688231,
				"element": "H" 
			},
			{
				"x": 4.8600581358,
				"y": 1.6070203679,
				"z": -5.741090915,
				"element": "H" 
			},
			{
				"x": 4.053784035,
				"y": 2.7242644172,
				"z": -3.0008319433,
				"element": "H" 
			},
			{
				"x": 5.6950415673,
				"y": 2.4349114134,
				"z": -3.5806058792,
				"element": "H" 
			},
			{
				"x": 4.6017370179,
				"y": 1.0699361244,
				"z": -3.309049537,
				"element": "H" 
			},
			{
				"x": 5.2973330808,
				"y": 4.0226171652,
				"z": -5.5856096278,
				"element": "H" 
			},
			{
				"x": 3.649676689,
				"y": 4.3359242328,
				"z": -5.037234548,
				"element": "H" 
			},
			{
				"x": 3.9345664014,
				"y": 3.7365228706,
				"z": -6.6779037287,
				"element": "H" 
			}
		],
		 "valence_orbital": [ 
			{
				"type": "occ",
				"energy": -0.2809,
				"method": "rhf"
			},
			{
				"type": "occ",
				"energy": -0.27434,
				"method": "rhf"
			},
			{
				"type": "occ",
				"energy": -0.26982,
				"method": "rhf"
			},
			{
				"type": "occ",
				"energy": -0.26003,
				"method": "rhf"
			},
			{
				"type": "occ",
				"energy": -0.22797,
				"method": "rhf"
			},
			{
				"type": "unocc",
				"energy": 0.01575,
				"method": "rhf"
			},
			{
				"type": "unocc",
				"energy": 0.02673,
				"method": "rhf"
			},
			{
				"type": "unocc",
				"energy": 0.06582,
				"method": "rhf"
			},
			{
				"type": "unocc",
				"energy": 0.07631,
				"method": "rhf"
			},
			{
				"type": "unocc",
				"energy": 0.08619,
				"method": "rhf"
			}
		],
		"cosmo_sigma_profile": { 
			"-0.025": 0.0,
			"-0.024": 0.0,
			"-0.023": 0.0,
			"-0.022": 0.0,
			"-0.021": 0.0,
			"-0.02": 0.0,
			"-0.019": 0.0,
			"-0.018": 0.0,
			"-0.017": 0.0,
			"-0.016": 0.0,
			"-0.015": 0.0,
			"-0.014": 0.0,
			"-0.013": 0.0,
			"-0.012": 0.0,
			"-0.011": 0.0,
			"-0.01": 0.0,
			"-0.009": 0.0,
			"-0.008": 0.0,
			"-0.007": 0.0,
			"-0.006": 1.19543130172,
			"-0.005": 5.98393375949,
			"-0.004": 12.6192080274,
			"-0.003": 32.2258507833,
			"-0.002": 79.9050229973,
			"-0.001": 119.089235625,
			"0.0": 111.914490031,
			"0.001": 82.497630199,
			"0.002": 47.7942297718,
			"0.003": 11.8785941214,
			"0.004": 6.27554152083,
			"0.005": 4.96479513385,
			"0.006": 3.9919114142,
			"0.007": 2.8782490174,
			"0.008": 1.87712300311,
			"0.009": 2.05760073048,
			"0.01": 1.47555247171,
			"0.011": 2.06941333973,
			"0.012": 4.45775162095,
			"0.013": 2.18794887931,
			"0.014": 0.212151278925,
			"0.015": 0.0,
			"0.016": 0.0,
			"0.017": 0.0,
			"0.018": 0.0,
			"0.019": 0.0,
			"0.02": 0.0,
			"0.021": 0.0,
			"0.022": 0.0,
			"0.023": 0.0,
			"0.024": 0.0,
			"0.025": 0.0
		}
	}
}
