{
	 "smiles": "C(C1CN2CCC1CC2)N1C2=CC=CC=C2SC2=CC=CC=C12", 
	 "Tm": 403.15, 
	 "num_atms": 45, 
	 "gaussian": { 
		 "optdone": 1, 
		 "sigma_profile": "yes", 
		 "theory": "DFT", 
		 "functional": "B3LYP", 
		 "basiset": "6-31G**", 
		 "properties": { 
			 "R2extent": 7773.2362, 
			 "electric_dipole_moment_norm": 1.49580717006, 
			 "electric_quadrupole_moment_norm": 10.6708805986, 
			 "total_energy": -1283.05166845, 
			 "HOMO_LUMO_gap": 0.15783, 
			 "cosmo_polarized_energy": -9.66, 
			 "cosmo_cavitation_energy": 42.76, 
			 "cosmo_dispersion_energy": -31.37, 
			 "cosmo_repulsion_energy": 2.25, 
			 "cosmo_total_nonelectrostatic_energy": 13.64, 
			 "SMD_solvation_energy": 2.0 
		},
		"coords": [
			{
				"x": -1.5375242773,
				"y": -0.1996111488,
				"z": -0.2762255601,
				"element": "C" 
			},
			{
				"x": -0.9268337349,
				"y": -1.0928971696,
				"z": 0.8643968899,
				"element": "C" 
			},
			{
				"x": -1.2692353788,
				"y": -2.613115514,
				"z": 0.6964105005,
				"element": "C" 
			},
			{
				"x": -0.1891175096,
				"y": -3.48422413,
				"z": 1.1774882498,
				"element": "N" 
			},
			{
				"x": 0.982825761,
				"y": -3.3310947753,
				"z": 0.297405579,
				"element": "C" 
			},
			{
				"x": 1.4660712295,
				"y": -1.8501526201,
				"z": 0.2339435554,
				"element": "C" 
			},
			{
				"x": 0.5925961293,
				"y": -1.0162828882,
				"z": 1.1941338521,
				"element": "C" 
			},
			{
				"x": 0.753286574,
				"y": -1.6398551026,
				"z": 2.6004162737,
				"element": "C" 
			},
			{
				"x": 0.1811885097,
				"y": -3.0947653358,
				"z": 2.5489506833,
				"element": "C" 
			},
			{
				"x": -0.7094461631,
				"y": 0.8029625356,
				"z": -0.9605519776,
				"element": "N" 
			},
			{
				"x": -0.1535093655,
				"y": 0.4917214838,
				"z": -2.2230128894,
				"element": "C" 
			},
			{
				"x": -0.0572408878,
				"y": -0.8394372326,
				"z": -2.6710423502,
				"element": "C" 
			},
			{
				"x": 0.4860984484,
				"y": -1.1604434151,
				"z": -3.916349876,
				"element": "C" 
			},
			{
				"x": 0.9833924211,
				"y": -0.1629990208,
				"z": -4.7479134539,
				"element": "C" 
			},
			{
				"x": 0.9018288919,
				"y": 1.1630873029,
				"z": -4.3233146922,
				"element": "C" 
			},
			{
				"x": 0.3175847972,
				"y": 1.4942315572,
				"z": -3.0999063874,
				"element": "C" 
			},
			{
				"x": 0.048625087,
				"y": 3.2181647885,
				"z": -2.7651307492,
				"element": "S" 
			},
			{
				"x": -0.0346622728,
				"y": 3.1826180957,
				"z": -0.991305001,
				"element": "C" 
			},
			{
				"x": 0.231978247,
				"y": 4.3698464703,
				"z": -0.3086147555,
				"element": "C" 
			},
			{
				"x": 0.0092832816,
				"y": 4.4758578055,
				"z": 1.0645759784,
				"element": "C" 
			},
			{
				"x": -0.4708887633,
				"y": 3.3658404966,
				"z": 1.7510113185,
				"element": "C" 
			},
			{
				"x": -0.6969837644,
				"y": 2.1615288422,
				"z": 1.0818920709,
				"element": "C" 
			},
			{
				"x": -0.4779519483,
				"y": 2.032519102,
				"z": -0.3022681015,
				"element": "C" 
			},
			{
				"x": -2.3865524713,
				"y": 0.3472103807,
				"z": 0.1468115541,
				"element": "H" 
			},
			{
				"x": -1.9618123728,
				"y": -0.8370175998,
				"z": -1.0545513188,
				"element": "H" 
			},
			{
				"x": -1.429902621,
				"y": -0.760150997,
				"z": 1.7815539901,
				"element": "H" 
			},
			{
				"x": -2.1892328087,
				"y": -2.8648588383,
				"z": 1.2371821511,
				"element": "H" 
			},
			{
				"x": -1.4470555567,
				"y": -2.8603114015,
				"z": -0.3583375994,
				"element": "H" 
			},
			{
				"x": 0.7077216209,
				"y": -3.7018334878,
				"z": -0.6969966648,
				"element": "H" 
			},
			{
				"x": 1.7714963333,
				"y": -3.9916480068,
				"z": 0.6742506193,
				"element": "H" 
			},
			{
				"x": 2.5114443102,
				"y": -1.7680918098,
				"z": 0.5537410976,
				"element": "H" 
			},
			{
				"x": 1.4242310691,
				"y": -1.4579826849,
				"z": -0.7835357784,
				"element": "H" 
			},
			{
				"x": 0.9320777631,
				"y": 0.0223036327,
				"z": 1.2010867974,
				"element": "H" 
			},
			{
				"x": 1.8133270546,
				"y": -1.6448965321,
				"z": 2.8794438899,
				"element": "H" 
			},
			{
				"x": 0.2290068929,
				"y": -1.038262094,
				"z": 3.3525968035,
				"element": "H" 
			},
			{
				"x": 0.912346115,
				"y": -3.8195679459,
				"z": 2.9230521548,
				"element": "H" 
			},
			{
				"x": -0.7121952672,
				"y": -3.1896174024,
				"z": 3.176337026,
				"element": "H" 
			},
			{
				"x": -0.4083614126,
				"y": -1.6484025409,
				"z": -2.0450962218,
				"element": "H" 
			},
			{
				"x": 0.5281257622,
				"y": -2.202625813,
				"z": -4.2185260833,
				"element": "H" 
			},
			{
				"x": 1.4231858599,
				"y": -0.4037231259,
				"z": -5.7103035852,
				"element": "H" 
			},
			{
				"x": 1.2702202896,
				"y": 1.9643943074,
				"z": -4.9575583774,
				"element": "H" 
			},
			{
				"x": 0.592227258,
				"y": 5.2255486936,
				"z": -0.8725785287,
				"element": "H" 
			},
			{
				"x": 0.2043076624,
				"y": 5.4110416722,
				"z": 1.5794586686,
				"element": "H" 
			},
			{
				"x": -0.6622756975,
				"y": 3.418374988,
				"z": 2.8186626463,
				"element": "H" 
			},
			{
				"x": -1.0474950953,
				"y": 1.3147164779,
				"z": 1.6555176018,
				"element": "H" 
			}
		],
		 "valence_orbital": [ 
			{
				"type": "occ",
				"energy": -0.25563,
				"method": "rhf"
			},
			{
				"type": "occ",
				"energy": -0.25508,
				"method": "rhf"
			},
			{
				"type": "occ",
				"energy": -0.22364,
				"method": "rhf"
			},
			{
				"type": "occ",
				"energy": -0.20734,
				"method": "rhf"
			},
			{
				"type": "occ",
				"energy": -0.17706,
				"method": "rhf"
			},
			{
				"type": "unocc",
				"energy": -0.01923,
				"method": "rhf"
			},
			{
				"type": "unocc",
				"energy": -0.00654,
				"method": "rhf"
			},
			{
				"type": "unocc",
				"energy": -0.00399,
				"method": "rhf"
			},
			{
				"type": "unocc",
				"energy": 0.02379,
				"method": "rhf"
			},
			{
				"type": "unocc",
				"energy": 0.03767,
				"method": "rhf"
			}
		],
		"cosmo_sigma_profile": { 
			"-0.025": 0.0,
			"-0.024": 0.0,
			"-0.023": 0.0,
			"-0.022": 0.0,
			"-0.021": 0.0,
			"-0.02": 0.0,
			"-0.019": 0.0,
			"-0.018": 0.0,
			"-0.017": 0.0,
			"-0.016": 0.0,
			"-0.015": 0.0,
			"-0.014": 0.0,
			"-0.013": 0.0,
			"-0.012": 0.0,
			"-0.011": 0.0,
			"-0.01": 0.0,
			"-0.009": 0.00305001412081,
			"-0.008": 0.294694757751,
			"-0.007": 2.08155818961,
			"-0.006": 13.1384508748,
			"-0.005": 20.1262476682,
			"-0.004": 24.5498551978,
			"-0.003": 41.2881931492,
			"-0.002": 38.2313359469,
			"-0.001": 30.6328116272,
			"0.0": 30.1898538321,
			"0.001": 29.0731233208,
			"0.002": 20.818827178,
			"0.003": 22.046253656,
			"0.004": 22.2538648378,
			"0.005": 21.2557544845,
			"0.006": 11.4065490893,
			"0.007": 3.82190199915,
			"0.008": 1.99304485331,
			"0.009": 1.00268358834,
			"0.01": 0.652202684138,
			"0.011": 0.325283974305,
			"0.012": 0.815391306918,
			"0.013": 0.81995396748,
			"0.014": 0.58007736897,
			"0.015": 0.542050119894,
			"0.016": 0.239162409736,
			"0.017": 0.915821655878,
			"0.018": 0.223959497846,
			"0.019": 0.0,
			"0.02": 0.0,
			"0.021": 0.0,
			"0.022": 0.0,
			"0.023": 0.0,
			"0.024": 0.0,
			"0.025": 0.0
		}
	}
}
