{
	 "smiles": "ClC1=CC=C(NCC2=CN=CC=C2)C=C1", 
	 "Tm": 372.15, 
	 "num_atms": 26, 
	 "gaussian": { 
		 "optdone": 1, 
		 "sigma_profile": "yes", 
		 "theory": "DFT", 
		 "functional": "B3LYP", 
		 "basiset": "6-31G**", 
		 "properties": { 
			 "R2extent": 5142.2838, 
			 "electric_dipole_moment_norm": 1.29764414999, 
			 "electric_quadrupole_moment_norm": 24.1670413057, 
			 "total_energy": -1033.59430712, 
			 "HOMO_LUMO_gap": 0.16913, 
			 "cosmo_polarized_energy": -11.86, 
			 "cosmo_cavitation_energy": 31.77, 
			 "cosmo_dispersion_energy": -23.08, 
			 "cosmo_repulsion_energy": 1.8, 
			 "cosmo_total_nonelectrostatic_energy": 10.49, 
			 "SMD_solvation_energy": 2.63 
		},
		"coords": [
			{
				"x": -0.9952195073,
				"y": -0.6824511976,
				"z": -5.1907058598,
				"element": "Cl" 
			},
			{
				"x": -0.4723803244,
				"y": -0.8353398757,
				"z": -3.5164416355,
				"element": "C" 
			},
			{
				"x": 0.4530045772,
				"y": 0.062622478,
				"z": -2.9915263025,
				"element": "C" 
			},
			{
				"x": 0.8657433982,
				"y": -0.053189006,
				"z": -1.6645949666,
				"element": "C" 
			},
			{
				"x": 0.359129882,
				"y": -1.0729758895,
				"z": -0.8357426857,
				"element": "C" 
			},
			{
				"x": 0.7840716818,
				"y": -1.272351196,
				"z": 0.4759150162,
				"element": "N" 
			},
			{
				"x": 1.3680424934,
				"y": -0.2356823049,
				"z": 1.3214481003,
				"element": "C" 
			},
			{
				"x": 0.3640664261,
				"y": 0.6359134931,
				"z": 2.0575513642,
				"element": "C" 
			},
			{
				"x": 0.3097903579,
				"y": 0.6232469044,
				"z": 3.4563777981,
				"element": "C" 
			},
			{
				"x": -0.5450741065,
				"y": 1.344346557,
				"z": 4.1917406383,
				"element": "N" 
			},
			{
				"x": -1.4058538971,
				"y": 2.1272648649,
				"z": 3.5325510572,
				"element": "C" 
			},
			{
				"x": -1.4483614026,
				"y": 2.2198330854,
				"z": 2.1390266799,
				"element": "C" 
			},
			{
				"x": -0.5499806026,
				"y": 1.4637766302,
				"z": 1.3913525022,
				"element": "C" 
			},
			{
				"x": -0.5791637743,
				"y": -1.9661035708,
				"z": -1.3930129342,
				"element": "C" 
			},
			{
				"x": -0.9896043504,
				"y": -1.8542424896,
				"z": -2.7162102982,
				"element": "C" 
			},
			{
				"x": 0.8549775876,
				"y": 0.8538099489,
				"z": -3.6152895637,
				"element": "H" 
			},
			{
				"x": 1.5943846778,
				"y": 0.655830089,
				"z": -1.2877016248,
				"element": "H" 
			},
			{
				"x": 0.2077106809,
				"y": -1.9255753437,
				"z": 0.9897264365,
				"element": "H" 
			},
			{
				"x": 2.0336861059,
				"y": 0.3774402704,
				"z": 0.7080720192,
				"element": "H" 
			},
			{
				"x": 2.0124747631,
				"y": -0.7293622335,
				"z": 2.0576746038,
				"element": "H" 
			},
			{
				"x": 1.00145255,
				"y": -0.0084382514,
				"z": 4.0151278676,
				"element": "H" 
			},
			{
				"x": -2.0942845038,
				"y": 2.7075652539,
				"z": 4.1445700358,
				"element": "H" 
			},
			{
				"x": -2.1684454069,
				"y": 2.8723553537,
				"z": 1.6549365473,
				"element": "H" 
			},
			{
				"x": -0.5590846344,
				"y": 1.51136424,
				"z": 0.3062963945,
				"element": "H" 
			},
			{
				"x": -0.9873787148,
				"y": -2.762928278,
				"z": -0.7759123321,
				"element": "H" 
			},
			{
				"x": -1.7128039567,
				"y": -2.552429532,
				"z": -3.1236288581,
				"element": "H" 
			}
		],
		 "valence_orbital": [ 
			{
				"type": "occ",
				"energy": -0.28565,
				"method": "rhf"
			},
			{
				"type": "occ",
				"energy": -0.26556,
				"method": "rhf"
			},
			{
				"type": "occ",
				"energy": -0.26208,
				"method": "rhf"
			},
			{
				"type": "occ",
				"energy": -0.25798,
				"method": "rhf"
			},
			{
				"type": "occ",
				"energy": -0.20209,
				"method": "rhf"
			},
			{
				"type": "unocc",
				"energy": -0.03296,
				"method": "rhf"
			},
			{
				"type": "unocc",
				"energy": -0.01775,
				"method": "rhf"
			},
			{
				"type": "unocc",
				"energy": -0.01331,
				"method": "rhf"
			},
			{
				"type": "unocc",
				"energy": 0.00642,
				"method": "rhf"
			},
			{
				"type": "unocc",
				"energy": 0.03449,
				"method": "rhf"
			}
		],
		"cosmo_sigma_profile": { 
			"-0.025": 0.0,
			"-0.024": 0.0,
			"-0.023": 0.0,
			"-0.022": 0.0,
			"-0.021": 0.0,
			"-0.02": 0.0,
			"-0.019": 0.0,
			"-0.018": 0.0,
			"-0.017": 0.0,
			"-0.016": 0.0,
			"-0.015": 0.0,
			"-0.014": 0.0,
			"-0.013": 0.58301402862,
			"-0.012": 1.43141216947,
			"-0.011": 1.89826551973,
			"-0.01": 1.08252699468,
			"-0.009": 1.46197553148,
			"-0.008": 3.26691946733,
			"-0.007": 7.94657794555,
			"-0.006": 19.5748252048,
			"-0.005": 18.9687877491,
			"-0.004": 18.4743189077,
			"-0.003": 14.3614890209,
			"-0.002": 14.0059165604,
			"-0.001": 12.2346144875,
			"0.0": 15.8921275231,
			"0.001": 16.5752604431,
			"0.002": 21.2153504621,
			"0.003": 24.5098361241,
			"0.004": 19.883350465,
			"0.005": 21.8499771033,
			"0.006": 7.30228762561,
			"0.007": 2.30569049061,
			"0.008": 1.78500815877,
			"0.009": 2.40040487119,
			"0.01": 1.66403627662,
			"0.011": 1.3239762234,
			"0.012": 0.179880561764,
			"0.013": 1.20769009329,
			"0.014": 1.0596303123,
			"0.015": 0.905966128363,
			"0.016": 0.77597001543,
			"0.017": 0.505671771592,
			"0.018": 0.0,
			"0.019": 0.0,
			"0.02": 0.0,
			"0.021": 0.0,
			"0.022": 0.0,
			"0.023": 0.0,
			"0.024": 0.0,
			"0.025": 0.0
		}
	}
}
