{
	 "smiles": "OC1=C(C=O)C=C(CCl)C=C1", 
	 "Tm": 361.15, 
	 "num_atms": 18, 
	 "gaussian": { 
		 "optdone": 1, 
		 "sigma_profile": "yes", 
		 "theory": "DFT", 
		 "functional": "B3LYP", 
		 "basiset": "6-31G**", 
		 "properties": { 
			 "R2extent": 2423.4042, 
			 "electric_dipole_moment_norm": 5.08533671353, 
			 "electric_quadrupole_moment_norm": 13.5761095042, 
			 "total_energy": -919.702220687, 
			 "HOMO_LUMO_gap": 0.17783, 
			 "cosmo_polarized_energy": -15.06, 
			 "cosmo_cavitation_energy": 24.63, 
			 "cosmo_dispersion_energy": -17.93, 
			 "cosmo_repulsion_energy": 1.45, 
			 "cosmo_total_nonelectrostatic_energy": 8.16, 
			 "SMD_solvation_energy": 5.29 
		},
		"coords": [
			{
				"x": -2.7508827428,
				"y": -1.1075811038,
				"z": -1.5621503124,
				"element": "O" 
			},
			{
				"x": -1.49866032,
				"y": -0.8350832098,
				"z": -1.1060931544,
				"element": "C" 
			},
			{
				"x": -1.3710919072,
				"y": -0.1861748951,
				"z": 0.1378493152,
				"element": "C" 
			},
			{
				"x": -2.5554158543,
				"y": 0.1949664566,
				"z": 0.9418990561,
				"element": "C" 
			},
			{
				"x": -2.4792134998,
				"y": 0.7418028297,
				"z": 2.0287475535,
				"element": "O" 
			},
			{
				"x": -0.088552676,
				"y": 0.103032685,
				"z": 0.6239990511,
				"element": "C" 
			},
			{
				"x": 1.0603985295,
				"y": -0.2395436074,
				"z": -0.0848209913,
				"element": "C" 
			},
			{
				"x": 2.4219861743,
				"y": 0.07228417,
				"z": 0.4549103734,
				"element": "C" 
			},
			{
				"x": 3.1514198087,
				"y": 1.5832788738,
				"z": -0.2996572167,
				"element": "Cl" 
			},
			{
				"x": 0.9082033915,
				"y": -0.8883751406,
				"z": -1.3225065797,
				"element": "C" 
			},
			{
				"x": -0.350550781,
				"y": -1.1838470441,
				"z": -1.8302662692,
				"element": "C" 
			},
			{
				"x": -2.6943546661,
				"y": -1.5418900817,
				"z": -2.423343708,
				"element": "H" 
			},
			{
				"x": -3.536673443,
				"y": -0.049055038,
				"z": 0.4941406558,
				"element": "H" 
			},
			{
				"x": -0.0273892191,
				"y": 0.6080128026,
				"z": 1.5839941095,
				"element": "H" 
			},
			{
				"x": 2.3979148814,
				"y": 0.2646841993,
				"z": 1.5271030711,
				"element": "H" 
			},
			{
				"x": 3.140767531,
				"y": -0.7207379474,
				"z": 0.2460492564,
				"element": "H" 
			},
			{
				"x": 1.7895005012,
				"y": -1.1599547115,
				"z": -1.89753729,
				"element": "H" 
			},
			{
				"x": -0.4490057085,
				"y": -1.6881192375,
				"z": -2.7891169205,
				"element": "H" 
			}
		],
		 "valence_orbital": [ 
			{
				"type": "occ",
				"energy": -0.29789,
				"method": "rhf"
			},
			{
				"type": "occ",
				"energy": -0.29539,
				"method": "rhf"
			},
			{
				"type": "occ",
				"energy": -0.27304,
				"method": "rhf"
			},
			{
				"type": "occ",
				"energy": -0.2528,
				"method": "rhf"
			},
			{
				"type": "occ",
				"energy": -0.24464,
				"method": "rhf"
			},
			{
				"type": "unocc",
				"energy": -0.06681,
				"method": "rhf"
			},
			{
				"type": "unocc",
				"energy": -0.02865,
				"method": "rhf"
			},
			{
				"type": "unocc",
				"energy": 0.01686,
				"method": "rhf"
			},
			{
				"type": "unocc",
				"energy": 0.04703,
				"method": "rhf"
			},
			{
				"type": "unocc",
				"energy": 0.05168,
				"method": "rhf"
			}
		],
		"cosmo_sigma_profile": { 
			"-0.025": 0.0,
			"-0.024": 0.0,
			"-0.023": 0.0,
			"-0.022": 0.0,
			"-0.021": 0.0,
			"-0.02": 0.00637655636987,
			"-0.019": 0.685285735431,
			"-0.018": 1.12732980069,
			"-0.017": 1.16800448764,
			"-0.016": 1.11309630255,
			"-0.015": 1.07242398663,
			"-0.014": 0.716880934841,
			"-0.013": 0.463652097909,
			"-0.012": 1.26635327522,
			"-0.011": 1.75479624657,
			"-0.01": 0.737913843725,
			"-0.009": 1.0785327187,
			"-0.008": 5.65169708084,
			"-0.007": 11.0517861848,
			"-0.006": 9.7410833738,
			"-0.005": 10.4439163848,
			"-0.004": 10.2899904333,
			"-0.003": 8.92636819209,
			"-0.002": 8.79429606636,
			"-0.001": 8.70425344288,
			"0.0": 12.3148583334,
			"0.001": 16.4346518548,
			"0.002": 15.8794850176,
			"0.003": 12.8142802059,
			"0.004": 10.0141274609,
			"0.005": 8.15019923606,
			"0.006": 11.065638594,
			"0.007": 11.4228211873,
			"0.008": 3.21395721869,
			"0.009": 2.00289173013,
			"0.01": 2.60026992951,
			"0.011": 3.6858860391,
			"0.012": 3.40285031769,
			"0.013": 1.10260614901,
			"0.014": 0.0398792597345,
			"0.015": 0.0,
			"0.016": 0.0,
			"0.017": 0.0,
			"0.018": 0.0,
			"0.019": 0.0,
			"0.02": 0.0,
			"0.021": 0.0,
			"0.022": 0.0,
			"0.023": 0.0,
			"0.024": 0.0,
			"0.025": 0.0
		}
	}
}
