{
	 "smiles": "CN1C=CN=C1C(=O)C1=C2C=CC=CC2=NC(S)=C1", 
	 "Tm": 524.15, 
	 "num_atms": 30, 
	 "gaussian": { 
		 "optdone": 1, 
		 "sigma_profile": "yes", 
		 "theory": "DFT", 
		 "functional": "B3LYP", 
		 "basiset": "6-31G**", 
		 "properties": { 
			 "R2extent": 6286.6834, 
			 "electric_dipole_moment_norm": 5.00325712811, 
			 "electric_quadrupole_moment_norm": 14.6309329186, 
			 "total_energy": -1177.78180204, 
			 "HOMO_LUMO_gap": 0.14626, 
			 "cosmo_polarized_energy": -15.7, 
			 "cosmo_cavitation_energy": 36.4, 
			 "cosmo_dispersion_energy": -26.42, 
			 "cosmo_repulsion_energy": 1.98, 
			 "cosmo_total_nonelectrostatic_energy": 11.97, 
			 "SMD_solvation_energy": 3.86 
		},
		"coords": [
			{
				"x": 1.6585180361,
				"y": 2.2987634957,
				"z": -2.809040749,
				"element": "C" 
			},
			{
				"x": 1.9457414581,
				"y": 1.3981486355,
				"z": -1.6934460468,
				"element": "N" 
			},
			{
				"x": 3.1766412073,
				"y": 0.8982531222,
				"z": -1.3794429281,
				"element": "C" 
			},
			{
				"x": 2.9997420726,
				"y": 0.0860501882,
				"z": -0.2720990022,
				"element": "C" 
			},
			{
				"x": 1.695294827,
				"y": 0.0776588891,
				"z": 0.1002987614,
				"element": "N" 
			},
			{
				"x": 1.0664203222,
				"y": 0.8736294703,
				"z": -0.7637467675,
				"element": "C" 
			},
			{
				"x": -0.3780777858,
				"y": 1.1236719618,
				"z": -0.7938517734,
				"element": "C" 
			},
			{
				"x": -0.8989453525,
				"y": 1.7478983218,
				"z": -1.7158900622,
				"element": "O" 
			},
			{
				"x": -1.2432093002,
				"y": 0.5153761878,
				"z": 0.284474178,
				"element": "C" 
			},
			{
				"x": -1.1015522197,
				"y": 0.7705052938,
				"z": 1.6862165017,
				"element": "C" 
			},
			{
				"x": -0.1285212187,
				"y": 1.6325293666,
				"z": 2.2549030634,
				"element": "C" 
			},
			{
				"x": -0.0864333914,
				"y": 1.8467493443,
				"z": 3.6152426618,
				"element": "C" 
			},
			{
				"x": -1.0125442665,
				"y": 1.2071894992,
				"z": 4.4723213255,
				"element": "C" 
			},
			{
				"x": -1.9745053317,
				"y": 0.3706859801,
				"z": 3.9532175445,
				"element": "C" 
			},
			{
				"x": -2.0499372578,
				"y": 0.1390538733,
				"z": 2.5551467761,
				"element": "C" 
			},
			{
				"x": -3.044936118,
				"y": -0.6810015921,
				"z": 2.1018457615,
				"element": "N" 
			},
			{
				"x": -3.1486279432,
				"y": -0.8681363752,
				"z": 0.8075207018,
				"element": "C" 
			},
			{
				"x": -4.4516775132,
				"y": -1.9270038812,
				"z": 0.193239998,
				"element": "S" 
			},
			{
				"x": -2.2821363179,
				"y": -0.2754895411,
				"z": -0.1502097028,
				"element": "C" 
			},
			{
				"x": 1.1626505425,
				"y": 3.2014896538,
				"z": -2.451088058,
				"element": "H" 
			},
			{
				"x": 2.6047191682,
				"y": 2.5609044202,
				"z": -3.285486565,
				"element": "H" 
			},
			{
				"x": 0.9990106328,
				"y": 1.8150135678,
				"z": -3.5304669403,
				"element": "H" 
			},
			{
				"x": 4.0547927117,
				"y": 1.1553801927,
				"z": -1.9532305615,
				"element": "H" 
			},
			{
				"x": 3.7505236972,
				"y": -0.4818421229,
				"z": 0.2599048118,
				"element": "H" 
			},
			{
				"x": 0.5904275198,
				"y": 2.1237880335,
				"z": 1.6102436165,
				"element": "H" 
			},
			{
				"x": 0.6645426759,
				"y": 2.5101484155,
				"z": 4.033772654,
				"element": "H" 
			},
			{
				"x": -0.964172974,
				"y": 1.3826635831,
				"z": 5.5431635237,
				"element": "H" 
			},
			{
				"x": -2.7042298357,
				"y": -0.1274367899,
				"z": 4.5828213139,
				"element": "H" 
			},
			{
				"x": -4.950844847,
				"y": -2.1968114559,
				"z": 1.4142609379,
				"element": "H" 
			},
			{
				"x": -2.4311731981,
				"y": -0.4488297377,
				"z": -1.2103949748,
				"element": "H" 
			}
		],
		 "valence_orbital": [ 
			{
				"type": "occ",
				"energy": -0.26937,
				"method": "rhf"
			},
			{
				"type": "occ",
				"energy": -0.25507,
				"method": "rhf"
			},
			{
				"type": "occ",
				"energy": -0.24709,
				"method": "rhf"
			},
			{
				"type": "occ",
				"energy": -0.23448,
				"method": "rhf"
			},
			{
				"type": "occ",
				"energy": -0.22007,
				"method": "rhf"
			},
			{
				"type": "unocc",
				"energy": -0.07381,
				"method": "rhf"
			},
			{
				"type": "unocc",
				"energy": -0.04473,
				"method": "rhf"
			},
			{
				"type": "unocc",
				"energy": -0.01442,
				"method": "rhf"
			},
			{
				"type": "unocc",
				"energy": 0.01957,
				"method": "rhf"
			},
			{
				"type": "unocc",
				"energy": 0.02166,
				"method": "rhf"
			}
		],
		"cosmo_sigma_profile": { 
			"-0.025": 0.0,
			"-0.024": 0.0,
			"-0.023": 0.0,
			"-0.022": 0.0,
			"-0.021": 0.0,
			"-0.02": 0.0,
			"-0.019": 0.0,
			"-0.018": 0.0,
			"-0.017": 0.0,
			"-0.016": 0.0,
			"-0.015": 0.0,
			"-0.014": 0.0,
			"-0.013": 0.0,
			"-0.012": 0.0,
			"-0.011": 0.816819602413,
			"-0.01": 2.89555130399,
			"-0.009": 4.83029139466,
			"-0.008": 5.63203727111,
			"-0.007": 9.353682106,
			"-0.006": 18.3150340142,
			"-0.005": 21.3046140268,
			"-0.004": 22.8134921736,
			"-0.003": 23.2553250882,
			"-0.002": 14.8853992938,
			"-0.001": 15.3191666919,
			"0.0": 20.477315691,
			"0.001": 20.4851367474,
			"0.002": 24.0420429031,
			"0.003": 23.4918318958,
			"0.004": 17.6406314152,
			"0.005": 9.48317305353,
			"0.006": 8.4934650625,
			"0.007": 7.1036469575,
			"0.008": 5.27424063882,
			"0.009": 4.40614280021,
			"0.01": 3.639219686,
			"0.011": 5.08689086453,
			"0.012": 3.50801615904,
			"0.013": 1.44654105161,
			"0.014": 0.715222763011,
			"0.015": 0.665010408214,
			"0.016": 0.00762763490915,
			"0.017": 0.0,
			"0.018": 0.0,
			"0.019": 0.0,
			"0.02": 0.0,
			"0.021": 0.0,
			"0.022": 0.0,
			"0.023": 0.0,
			"0.024": 0.0,
			"0.025": 0.0
		}
	}
}
