{
	 "smiles": "CC(CO)NC(=O)C1CN(C)C2CC3=CNC4=CC=CC(=C34)C2=C1", 
	 "Tm": 435.15, 
	 "num_atms": 47, 
	 "gaussian": { 
		 "optdone": 1, 
		 "sigma_profile": "yes", 
		 "theory": "DFT", 
		 "functional": "B3LYP", 
		 "basiset": "6-31G**", 
		 "properties": { 
			 "R2extent": 10826.9417, 
			 "electric_dipole_moment_norm": 5.71607518233, 
			 "electric_quadrupole_moment_norm": 11.7895784916, 
			 "total_energy": -1052.57999715, 
			 "HOMO_LUMO_gap": 0.15886, 
			 "cosmo_polarized_energy": -21.9, 
			 "cosmo_cavitation_energy": 46.96, 
			 "cosmo_dispersion_energy": -32.55, 
			 "cosmo_repulsion_energy": 2.46, 
			 "cosmo_total_nonelectrostatic_energy": 16.88, 
			 "SMD_solvation_energy": 4.75 
		},
		"coords": [
			{
				"x": 3.6755517548,
				"y": 2.7172822171,
				"z": 0.6943076066,
				"element": "C" 
			},
			{
				"x": 3.590061908,
				"y": 1.3913229429,
				"z": -0.0599611877,
				"element": "C" 
			},
			{
				"x": 4.5740422792,
				"y": 0.3463203107,
				"z": 0.4830698815,
				"element": "C" 
			},
			{
				"x": 5.8860614715,
				"y": 0.8827418597,
				"z": 0.3697824934,
				"element": "O" 
			},
			{
				"x": 2.2271840403,
				"y": 0.8675294852,
				"z": -0.0118922119,
				"element": "N" 
			},
			{
				"x": 1.7189847589,
				"y": 0.0385544496,
				"z": -0.9713713547,
				"element": "C" 
			},
			{
				"x": 2.3728569912,
				"y": -0.3355543768,
				"z": -1.9406358203,
				"element": "O" 
			},
			{
				"x": 0.2897617149,
				"y": -0.464991939,
				"z": -0.7284810359,
				"element": "C" 
			},
			{
				"x": 0.3629993912,
				"y": -1.8364487997,
				"z": 0.0000817635,
				"element": "C" 
			},
			{
				"x": -0.9363733422,
				"y": -2.3058564854,
				"z": 0.4650753405,
				"element": "N" 
			},
			{
				"x": -1.8352878732,
				"y": -2.6236758198,
				"z": -0.644908842,
				"element": "C" 
			},
			{
				"x": -1.470365469,
				"y": -1.3906526252,
				"z": 1.4860866918,
				"element": "C" 
			},
			{
				"x": -2.87867649,
				"y": -1.8389507421,
				"z": 1.9646469641,
				"element": "C" 
			},
			{
				"x": -3.4273372455,
				"y": -0.850903579,
				"z": 2.9493033755,
				"element": "C" 
			},
			{
				"x": -4.3461571809,
				"y": -0.8956684712,
				"z": 3.9661825721,
				"element": "C" 
			},
			{
				"x": -4.5391767541,
				"y": 0.3906793275,
				"z": 4.4707580256,
				"element": "N" 
			},
			{
				"x": -3.7413248814,
				"y": 1.2815258502,
				"z": 3.7785040233,
				"element": "C" 
			},
			{
				"x": -3.545665086,
				"y": 2.6646735862,
				"z": 3.8539955921,
				"element": "C" 
			},
			{
				"x": -2.6284199228,
				"y": 3.2208987379,
				"z": 2.9588489006,
				"element": "C" 
			},
			{
				"x": -1.9086215739,
				"y": 2.4481466748,
				"z": 2.0257697828,
				"element": "C" 
			},
			{
				"x": -2.100732277,
				"y": 1.0644633773,
				"z": 1.9396815127,
				"element": "C" 
			},
			{
				"x": -3.0349014511,
				"y": 0.5129123603,
				"z": 2.8292223579,
				"element": "C" 
			},
			{
				"x": -1.3782576472,
				"y": 0.1026758125,
				"z": 1.0785889793,
				"element": "C" 
			},
			{
				"x": -0.5876694503,
				"y": 0.478754563,
				"z": 0.0535712584,
				"element": "C" 
			},
			{
				"x": 3.0202301903,
				"y": 3.4682278255,
				"z": 0.2427129397,
				"element": "H" 
			},
			{
				"x": 3.3843994488,
				"y": 2.5916672991,
				"z": 1.7453131748,
				"element": "H" 
			},
			{
				"x": 4.702651176,
				"y": 3.0864771707,
				"z": 0.6756101114,
				"element": "H" 
			},
			{
				"x": 3.8344888835,
				"y": 1.5448389051,
				"z": -1.1158068765,
				"element": "H" 
			},
			{
				"x": 4.456544475,
				"y": -0.5721508186,
				"z": -0.1070376842,
				"element": "H" 
			},
			{
				"x": 4.3189422748,
				"y": 0.1177963959,
				"z": 1.5324117559,
				"element": "H" 
			},
			{
				"x": 6.5175344648,
				"y": 0.1788649375,
				"z": 0.5586323575,
				"element": "H" 
			},
			{
				"x": 1.6399278217,
				"y": 1.10543977,
				"z": 0.7757276966,
				"element": "H" 
			},
			{
				"x": -0.1141817429,
				"y": -0.6179407313,
				"z": -1.7376810717,
				"element": "H" 
			},
			{
				"x": 0.8099185304,
				"y": -2.5828751501,
				"z": -0.6635065162,
				"element": "H" 
			},
			{
				"x": 1.0204215512,
				"y": -1.7375909879,
				"z": 0.8735514017,
				"element": "H" 
			},
			{
				"x": -2.2541382598,
				"y": -1.7452314025,
				"z": -1.1646996934,
				"element": "H" 
			},
			{
				"x": -2.6682673613,
				"y": -3.2421636749,
				"z": -0.3015015691,
				"element": "H" 
			},
			{
				"x": -1.2779214071,
				"y": -3.2135797015,
				"z": -1.3787300332,
				"element": "H" 
			},
			{
				"x": -0.8135563144,
				"y": -1.4990559416,
				"z": 2.3639942412,
				"element": "H" 
			},
			{
				"x": -2.7982623553,
				"y": -2.8533576116,
				"z": 2.3695582343,
				"element": "H" 
			},
			{
				"x": -3.5579989121,
				"y": -1.8923394238,
				"z": 1.105327199,
				"element": "H" 
			},
			{
				"x": -4.8971335253,
				"y": -1.7277833647,
				"z": 4.3818332974,
				"element": "H" 
			},
			{
				"x": -5.1589464246,
				"y": 0.6230665493,
				"z": 5.2290288477,
				"element": "H" 
			},
			{
				"x": -4.0729695311,
				"y": 3.2866917001,
				"z": 4.5712165683,
				"element": "H" 
			},
			{
				"x": -2.4492308497,
				"y": 4.2917397358,
				"z": 2.994621562,
				"element": "H" 
			},
			{
				"x": -1.1832466473,
				"y": 2.9451190033,
				"z": 1.3884177274,
				"element": "H" 
			},
			{
				"x": -0.5584431513,
				"y": 1.5280607994,
				"z": -0.2366203398,
				"element": "H" 
			}
		],
		 "valence_orbital": [ 
			{
				"type": "occ",
				"energy": -0.24429,
				"method": "rhf"
			},
			{
				"type": "occ",
				"energy": -0.23438,
				"method": "rhf"
			},
			{
				"type": "occ",
				"energy": -0.22212,
				"method": "rhf"
			},
			{
				"type": "occ",
				"energy": -0.20615,
				"method": "rhf"
			},
			{
				"type": "occ",
				"energy": -0.19377,
				"method": "rhf"
			},
			{
				"type": "unocc",
				"energy": -0.03491,
				"method": "rhf"
			},
			{
				"type": "unocc",
				"energy": 0.0115,
				"method": "rhf"
			},
			{
				"type": "unocc",
				"energy": 0.03624,
				"method": "rhf"
			},
			{
				"type": "unocc",
				"energy": 0.05044,
				"method": "rhf"
			},
			{
				"type": "unocc",
				"energy": 0.06643,
				"method": "rhf"
			}
		],
		"cosmo_sigma_profile": { 
			"-0.025": 0.0,
			"-0.024": 0.0,
			"-0.023": 0.0,
			"-0.022": 0.0,
			"-0.021": 0.0,
			"-0.02": 0.0,
			"-0.019": 0.0,
			"-0.018": 0.0,
			"-0.017": 0.0,
			"-0.016": 0.468607670215,
			"-0.015": 2.69131563504,
			"-0.014": 2.23462151533,
			"-0.013": 2.35738013374,
			"-0.012": 2.17338626131,
			"-0.011": 2.77229212139,
			"-0.01": 2.41549542573,
			"-0.009": 3.05394377264,
			"-0.008": 4.86883851818,
			"-0.007": 5.7499612485,
			"-0.006": 9.02635412135,
			"-0.005": 14.0837134324,
			"-0.004": 29.6290650163,
			"-0.003": 41.4588338797,
			"-0.002": 39.5586729579,
			"-0.001": 34.5348561375,
			"0.0": 29.8030748145,
			"0.001": 18.8733758295,
			"0.002": 15.390194347,
			"0.003": 13.6843985132,
			"0.004": 15.6373157884,
			"0.005": 21.2834087333,
			"0.006": 16.255438767,
			"0.007": 9.12032924301,
			"0.008": 5.33048470261,
			"0.009": 2.726463642,
			"0.01": 3.03706854632,
			"0.011": 3.76008363793,
			"0.012": 3.59859800019,
			"0.013": 3.73116348629,
			"0.014": 5.85304633908,
			"0.015": 2.40309785438,
			"0.016": 0.452039442158,
			"0.017": 0.0,
			"0.018": 0.0,
			"0.019": 0.0,
			"0.02": 0.0,
			"0.021": 0.0,
			"0.022": 0.0,
			"0.023": 0.0,
			"0.024": 0.0,
			"0.025": 0.0
		}
	}
}
