{
	 "smiles": "NC1CCN(CC1)C1=C(C=CC=C1)C(N)=O", 
	 "Tm": 417.15, 
	 "num_atms": 33, 
	 "gaussian": { 
		 "optdone": 1, 
		 "sigma_profile": "yes", 
		 "theory": "DFT", 
		 "functional": "B3LYP", 
		 "basiset": "6-31G**", 
		 "properties": { 
			 "R2extent": 4695.3606, 
			 "electric_dipole_moment_norm": 1.54230583543, 
			 "electric_quadrupole_moment_norm": 22.1260086089, 
			 "total_energy": -707.002235686, 
			 "HOMO_LUMO_gap": 0.16921, 
			 "cosmo_polarized_energy": -16.99, 
			 "cosmo_cavitation_energy": 34.0, 
			 "cosmo_dispersion_energy": -24.29, 
			 "cosmo_repulsion_energy": 1.91, 
			 "cosmo_total_nonelectrostatic_energy": 11.62, 
			 "SMD_solvation_energy": 4.09 
		},
		"coords": [
			{
				"x": -1.659351202,
				"y": -3.8179439091,
				"z": 0.385089787,
				"element": "N" 
			},
			{
				"x": -1.0458331641,
				"y": -2.4857570215,
				"z": 0.3820662037,
				"element": "C" 
			},
			{
				"x": -0.5115204886,
				"y": -2.1629993803,
				"z": 1.7955291653,
				"element": "C" 
			},
			{
				"x": 0.6391751545,
				"y": -1.1335309516,
				"z": 1.7577085691,
				"element": "C" 
			},
			{
				"x": 0.4096343729,
				"y": -0.1963080027,
				"z": 0.6603765925,
				"element": "N" 
			},
			{
				"x": 0.5395822271,
				"y": -0.8030049018,
				"z": -0.6749412079,
				"element": "C" 
			},
			{
				"x": 0.0800764153,
				"y": -2.2741911014,
				"z": -0.6460580863,
				"element": "C" 
			},
			{
				"x": 0.7175380505,
				"y": 1.1732171552,
				"z": 0.7687921553,
				"element": "C" 
			},
			{
				"x": 1.7934395398,
				"y": 1.701398726,
				"z": 1.5243659107,
				"element": "C" 
			},
			{
				"x": 1.9328177021,
				"y": 3.0957607784,
				"z": 1.6522493401,
				"element": "C" 
			},
			{
				"x": 1.0718303333,
				"y": 3.9762467953,
				"z": 1.0075130171,
				"element": "C" 
			},
			{
				"x": 0.0381066714,
				"y": 3.45829867,
				"z": 0.2211692889,
				"element": "C" 
			},
			{
				"x": -0.1380012782,
				"y": 2.0844038641,
				"z": 0.1168221604,
				"element": "C" 
			},
			{
				"x": 2.8940983131,
				"y": 0.8265234108,
				"z": 2.0542660338,
				"element": "C" 
			},
			{
				"x": 3.3784054697,
				"y": 1.1762566443,
				"z": 3.2911210106,
				"element": "N" 
			},
			{
				"x": 3.3817580609,
				"y": -0.097440754,
				"z": 1.4119776993,
				"element": "O" 
			},
			{
				"x": -0.9378985499,
				"y": -4.5233586186,
				"z": 0.5288333787,
				"element": "H" 
			},
			{
				"x": -2.0672089176,
				"y": -4.0140554996,
				"z": -0.5270382976,
				"element": "H" 
			},
			{
				"x": -1.8471749053,
				"y": -1.7735854626,
				"z": 0.1467382508,
				"element": "H" 
			},
			{
				"x": -1.3375162836,
				"y": -1.8058345294,
				"z": 2.4183881085,
				"element": "H" 
			},
			{
				"x": -0.1440633867,
				"y": -3.0876396572,
				"z": 2.260372738,
				"element": "H" 
			},
			{
				"x": 0.6707958121,
				"y": -0.5706579158,
				"z": 2.6948886331,
				"element": "H" 
			},
			{
				"x": 1.6106006152,
				"y": -1.637072097,
				"z": 1.6632609799,
				"element": "H" 
			},
			{
				"x": 1.5803930799,
				"y": -0.7383163913,
				"z": -1.0285676785,
				"element": "H" 
			},
			{
				"x": -0.0802656576,
				"y": -0.2359887098,
				"z": -1.3785284029,
				"element": "H" 
			},
			{
				"x": -0.2525746958,
				"y": -2.5699840997,
				"z": -1.6481896205,
				"element": "H" 
			},
			{
				"x": 0.922574561,
				"y": -2.9308817298,
				"z": -0.3907024218,
				"element": "H" 
			},
			{
				"x": 2.7712883537,
				"y": 3.4857125054,
				"z": 2.2223261078,
				"element": "H" 
			},
			{
				"x": 1.2109951574,
				"y": 5.0485658098,
				"z": 1.1040234578,
				"element": "H" 
			},
			{
				"x": -0.6490737598,
				"y": 4.1277946918,
				"z": -0.2889238351,
				"element": "H" 
			},
			{
				"x": -0.9784627786,
				"y": 1.686428623,
				"z": -0.4434785124,
				"element": "H" 
			},
			{
				"x": 4.098476159,
				"y": 0.5877900284,
				"z": 3.6833660068,
				"element": "H" 
			},
			{
				"x": 2.8474590191,
				"y": 1.7658530305,
				"z": 3.9117834681,
				"element": "H" 
			}
		],
		 "valence_orbital": [ 
			{
				"type": "occ",
				"energy": -0.26244,
				"method": "rhf"
			},
			{
				"type": "occ",
				"energy": -0.25414,
				"method": "rhf"
			},
			{
				"type": "occ",
				"energy": -0.24084,
				"method": "rhf"
			},
			{
				"type": "occ",
				"energy": -0.22759,
				"method": "rhf"
			},
			{
				"type": "occ",
				"energy": -0.19033,
				"method": "rhf"
			},
			{
				"type": "unocc",
				"energy": -0.02112,
				"method": "rhf"
			},
			{
				"type": "unocc",
				"energy": -0.00048,
				"method": "rhf"
			},
			{
				"type": "unocc",
				"energy": 0.05109,
				"method": "rhf"
			},
			{
				"type": "unocc",
				"energy": 0.0798,
				"method": "rhf"
			},
			{
				"type": "unocc",
				"energy": 0.08353,
				"method": "rhf"
			}
		],
		"cosmo_sigma_profile": { 
			"-0.025": 0.0,
			"-0.024": 0.0,
			"-0.023": 0.0,
			"-0.022": 0.0,
			"-0.021": 0.0,
			"-0.02": 0.0,
			"-0.019": 0.0,
			"-0.018": 0.0,
			"-0.017": 0.0,
			"-0.016": 0.0,
			"-0.015": 0.0,
			"-0.014": 0.998453395025,
			"-0.013": 2.04622289494,
			"-0.012": 2.59624345871,
			"-0.011": 2.10613517571,
			"-0.01": 2.24790951315,
			"-0.009": 4.12223377916,
			"-0.008": 4.32909976358,
			"-0.007": 5.88446037749,
			"-0.006": 8.20447924479,
			"-0.005": 14.0164950425,
			"-0.004": 17.7911360599,
			"-0.003": 24.5911764223,
			"-0.002": 28.0075799798,
			"-0.001": 26.0902039904,
			"0.0": 20.9757660678,
			"0.001": 14.5193827714,
			"0.002": 11.6015471336,
			"0.003": 11.2747990447,
			"0.004": 11.6574526278,
			"0.005": 13.7902129113,
			"0.006": 8.88329776103,
			"0.007": 3.83908994782,
			"0.008": 2.88102636209,
			"0.009": 3.502568215,
			"0.01": 2.68777090348,
			"0.011": 2.13754133496,
			"0.012": 2.29777291061,
			"0.013": 3.74205062668,
			"0.014": 4.40131781993,
			"0.015": 1.02703586548,
			"0.016": 0.653675901913,
			"0.017": 0.660032916702,
			"0.018": 0.603375249628,
			"0.019": 0.597552744469,
			"0.02": 0.334573056212,
			"0.021": 0.0253475898656,
			"0.022": 0.0,
			"0.023": 0.0,
			"0.024": 0.0,
			"0.025": 0.0
		}
	}
}
