{
	 "smiles": "CCOC(=O)C1=NN(C)C(=C1)C1=CC=CO1", 
	 "Tm": 336.65, 
	 "num_atms": 28, 
	 "gaussian": { 
		 "optdone": 1, 
		 "sigma_profile": "yes", 
		 "theory": "DFT", 
		 "functional": "B3LYP", 
		 "basiset": "6-31G**", 
		 "properties": { 
			 "R2extent": 5427.3245, 
			 "electric_dipole_moment_norm": 3.31155039219, 
			 "electric_quadrupole_moment_norm": 20.9637862861, 
			 "total_energy": -761.548780057, 
			 "HOMO_LUMO_gap": 0.17971, 
			 "cosmo_polarized_energy": -12.74, 
			 "cosmo_cavitation_energy": 33.18, 
			 "cosmo_dispersion_energy": -23.89, 
			 "cosmo_repulsion_energy": 1.87, 
			 "cosmo_total_nonelectrostatic_energy": 11.16, 
			 "SMD_solvation_energy": 6.83 
		},
		"coords": [
			{
				"x": 1.1558410506,
				"y": 4.3898629864,
				"z": 0.6216525012,
				"element": "C" 
			},
			{
				"x": 0.8061252529,
				"y": 3.8361635488,
				"z": -0.7520149309,
				"element": "C" 
			},
			{
				"x": 0.2058229626,
				"y": 2.5245762311,
				"z": -0.6535885961,
				"element": "O" 
			},
			{
				"x": 1.0579425941,
				"y": 1.4827845252,
				"z": -0.5881608685,
				"element": "C" 
			},
			{
				"x": 2.2715840864,
				"y": 1.5820217751,
				"z": -0.6121537949,
				"element": "O" 
			},
			{
				"x": 0.3649407559,
				"y": 0.1810600351,
				"z": -0.4875519315,
				"element": "C" 
			},
			{
				"x": -0.9682583377,
				"y": 0.0550737489,
				"z": -0.4590950235,
				"element": "N" 
			},
			{
				"x": -1.1912471952,
				"y": -1.2654930511,
				"z": -0.3637229246,
				"element": "N" 
			},
			{
				"x": -2.5717140404,
				"y": -1.7289107145,
				"z": -0.3110898544,
				"element": "C" 
			},
			{
				"x": -0.023554679,
				"y": -1.9961678459,
				"z": -0.3301580771,
				"element": "C" 
			},
			{
				"x": 1.0069423683,
				"y": -1.0692284999,
				"z": -0.4096278645,
				"element": "C" 
			},
			{
				"x": 0.0659374028,
				"y": -3.4368666571,
				"z": -0.2314393655,
				"element": "C" 
			},
			{
				"x": 1.1463511925,
				"y": -4.2806894751,
				"z": -0.1897333688,
				"element": "C" 
			},
			{
				"x": 0.6248466687,
				"y": -5.6072660826,
				"z": -0.0891881431,
				"element": "C" 
			},
			{
				"x": -0.7308866776,
				"y": -5.4856957177,
				"z": -0.0763332069,
				"element": "C" 
			},
			{
				"x": -1.0904169245,
				"y": -4.17128021,
				"z": -0.1621249983,
				"element": "O" 
			},
			{
				"x": 0.2745916358,
				"y": 4.4070727385,
				"z": 1.2695900242,
				"element": "H" 
			},
			{
				"x": 1.9310712286,
				"y": 3.7814313938,
				"z": 1.0936680337,
				"element": "H" 
			},
			{
				"x": 1.5332188321,
				"y": 5.4135873326,
				"z": 0.5253565456,
				"element": "H" 
			},
			{
				"x": 0.0451897531,
				"y": 4.4447946844,
				"z": -1.2465047411,
				"element": "H" 
			},
			{
				"x": 1.6926497547,
				"y": 3.7742826069,
				"z": -1.3879283559,
				"element": "H" 
			},
			{
				"x": -2.7896299889,
				"y": -2.3911777625,
				"z": -1.1517015158,
				"element": "H" 
			},
			{
				"x": -2.763632863,
				"y": -2.267887685,
				"z": 0.6191758269,
				"element": "H" 
			},
			{
				"x": -3.1962043145,
				"y": -0.838582161,
				"z": -0.3639711346,
				"element": "H" 
			},
			{
				"x": 2.06950248,
				"y": -1.2540484437,
				"z": -0.4124199154,
				"element": "H" 
			},
			{
				"x": 2.1854172534,
				"y": -3.9884942196,
				"z": -0.2265503828,
				"element": "H" 
			},
			{
				"x": 1.188220684,
				"y": -6.5274258155,
				"z": -0.0340573362,
				"element": "H" 
			},
			{
				"x": -1.5449509358,
				"y": -6.1904972657,
				"z": -0.0145266011,
				"element": "H" 
			}
		],
		 "valence_orbital": [ 
			{
				"type": "occ",
				"energy": -0.28754,
				"method": "rhf"
			},
			{
				"type": "occ",
				"energy": -0.28371,
				"method": "rhf"
			},
			{
				"type": "occ",
				"energy": -0.26493,
				"method": "rhf"
			},
			{
				"type": "occ",
				"energy": -0.25437,
				"method": "rhf"
			},
			{
				"type": "occ",
				"energy": -0.21111,
				"method": "rhf"
			},
			{
				"type": "unocc",
				"energy": -0.0314,
				"method": "rhf"
			},
			{
				"type": "unocc",
				"energy": -0.01613,
				"method": "rhf"
			},
			{
				"type": "unocc",
				"energy": 0.04167,
				"method": "rhf"
			},
			{
				"type": "unocc",
				"energy": 0.09566,
				"method": "rhf"
			},
			{
				"type": "unocc",
				"energy": 0.10219,
				"method": "rhf"
			}
		],
		"cosmo_sigma_profile": { 
			"-0.025": 0.0,
			"-0.024": 0.0,
			"-0.023": 0.0,
			"-0.022": 0.0,
			"-0.021": 0.0,
			"-0.02": 0.0,
			"-0.019": 0.0,
			"-0.018": 0.0,
			"-0.017": 0.0,
			"-0.016": 0.0,
			"-0.015": 0.0,
			"-0.014": 0.0,
			"-0.013": 0.0,
			"-0.012": 0.0,
			"-0.011": 0.0,
			"-0.01": 0.137222969515,
			"-0.009": 1.68043526071,
			"-0.008": 3.91964848482,
			"-0.007": 8.61843815113,
			"-0.006": 13.015997877,
			"-0.005": 16.8366284216,
			"-0.004": 22.7658864825,
			"-0.003": 26.901018658,
			"-0.002": 21.5177283795,
			"-0.001": 18.8023436764,
			"0.0": 21.8038323162,
			"0.001": 18.4541440078,
			"0.002": 21.9178533975,
			"0.003": 18.7256828652,
			"0.004": 12.6082219827,
			"0.005": 6.81673363966,
			"0.006": 3.21125246746,
			"0.007": 3.35133729764,
			"0.008": 3.61273636822,
			"0.009": 2.61639071137,
			"0.01": 3.40095134623,
			"0.011": 3.94018660959,
			"0.012": 5.88980968051,
			"0.013": 1.98066101334,
			"0.014": 1.035260268,
			"0.015": 1.19295479332,
			"0.016": 0.0696534500799,
			"0.017": 0.0,
			"0.018": 0.0,
			"0.019": 0.0,
			"0.02": 0.0,
			"0.021": 0.0,
			"0.022": 0.0,
			"0.023": 0.0,
			"0.024": 0.0,
			"0.025": 0.0
		}
	}
}
