{
	 "smiles": "CCOC(=O)C1=C(N)C=C(S1)C1=CC(=CC=C1)[N+]([O-])=O", 
	 "Tm": 440.15, 
	 "num_atms": 32, 
	 "gaussian": { 
		 "optdone": 1, 
		 "sigma_profile": "yes", 
		 "theory": "DFT", 
		 "functional": "B3LYP", 
		 "basiset": "6-31G**", 
		 "properties": { 
			 "R2extent": 9446.7903, 
			 "electric_dipole_moment_norm": 3.41290146063, 
			 "electric_quadrupole_moment_norm": 37.3527853034, 
			 "total_energy": -1311.12076383, 
			 "HOMO_LUMO_gap": 0.1199, 
			 "cosmo_polarized_energy": -17.3, 
			 "cosmo_cavitation_energy": 39.07, 
			 "cosmo_dispersion_energy": -28.58, 
			 "cosmo_repulsion_energy": 2.15, 
			 "cosmo_total_nonelectrostatic_energy": 12.64, 
			 "SMD_solvation_energy": 9.44 
		},
		"coords": [
			{
				"x": 2.6612371363,
				"y": -1.6139798194,
				"z": -5.3833246011,
				"element": "C" 
			},
			{
				"x": 3.4061663556,
				"y": -0.816112024,
				"z": -4.3238984967,
				"element": "C" 
			},
			{
				"x": 2.4907416012,
				"y": -0.1582198018,
				"z": -3.4138686651,
				"element": "O" 
			},
			{
				"x": 2.0471981888,
				"y": -0.9099278031,
				"z": -2.3578591453,
				"element": "C" 
			},
			{
				"x": 2.3927775168,
				"y": -2.0646903475,
				"z": -2.1718987904,
				"element": "O" 
			},
			{
				"x": 1.1297161108,
				"y": -0.173718521,
				"z": -1.5070677116,
				"element": "C" 
			},
			{
				"x": 0.6480399229,
				"y": 1.1333610016,
				"z": -1.5991178691,
				"element": "C" 
			},
			{
				"x": 1.0376456217,
				"y": 2.0672290042,
				"z": -2.5268252623,
				"element": "N" 
			},
			{
				"x": -0.2781223418,
				"y": 1.4288525956,
				"z": -0.550649157,
				"element": "C" 
			},
			{
				"x": -0.4902621228,
				"y": 0.3806791246,
				"z": 0.3141068927,
				"element": "C" 
			},
			{
				"x": 0.4448743104,
				"y": -1.0196842671,
				"z": -0.1343062907,
				"element": "S" 
			},
			{
				"x": -1.373527916,
				"y": 0.3647235895,
				"z": 1.4880494426,
				"element": "C" 
			},
			{
				"x": -2.4771143558,
				"y": 1.2301216741,
				"z": 1.5497592527,
				"element": "C" 
			},
			{
				"x": -3.2962043506,
				"y": 1.2133219296,
				"z": 2.6724459269,
				"element": "C" 
			},
			{
				"x": -3.0783412197,
				"y": 0.3560709973,
				"z": 3.7492038101,
				"element": "C" 
			},
			{
				"x": -1.9880001713,
				"y": -0.5090843116,
				"z": 3.6830332804,
				"element": "C" 
			},
			{
				"x": -1.1450127646,
				"y": -0.503739646,
				"z": 2.5727025499,
				"element": "C" 
			},
			{
				"x": -4.4482253089,
				"y": 2.1327296898,
				"z": 2.7167427141,
				"element": "N" 
			},
			{
				"x": -5.1668215418,
				"y": 2.0966682383,
				"z": 3.7141589002,
				"element": "O" 
			},
			{
				"x": -4.6197487184,
				"y": 2.8812927465,
				"z": 1.7552603421,
				"element": "O" 
			},
			{
				"x": 3.3746746889,
				"y": -2.0397811422,
				"z": -6.0968828767,
				"element": "H" 
			},
			{
				"x": 2.1054803771,
				"y": -2.4340060541,
				"z": -4.9227490226,
				"element": "H" 
			},
			{
				"x": 1.9631307666,
				"y": -0.9774699586,
				"z": -5.9355683121,
				"element": "H" 
			},
			{
				"x": 4.0718631508,
				"y": -1.4582162898,
				"z": -3.7434531005,
				"element": "H" 
			},
			{
				"x": 3.9832359891,
				"y": 0.0001093171,
				"z": -4.7658166922,
				"element": "H" 
			},
			{
				"x": 1.5498289733,
				"y": 1.7111757707,
				"z": -3.3212586195,
				"element": "H" 
			},
			{
				"x": 0.3994228645,
				"y": 2.8257861943,
				"z": -2.711050333,
				"element": "H" 
			},
			{
				"x": -0.7328440627,
				"y": 2.4059084341,
				"z": -0.4287496309,
				"element": "H" 
			},
			{
				"x": -2.7193909036,
				"y": 1.8994642841,
				"z": 0.7348043135,
				"element": "H" 
			},
			{
				"x": -3.7490756967,
				"y": 0.3790038581,
				"z": 4.5983587313,
				"element": "H" 
			},
			{
				"x": -1.7882025135,
				"y": -1.1870071388,
				"z": 4.50660042,
				"element": "H" 
			},
			{
				"x": -0.2872395865,
				"y": -1.1689613248,
				"z": 2.5511180002,
				"element": "H" 
			}
		],
		 "valence_orbital": [ 
			{
				"type": "occ",
				"energy": -0.2889,
				"method": "rhf"
			},
			{
				"type": "occ",
				"energy": -0.28646,
				"method": "rhf"
			},
			{
				"type": "occ",
				"energy": -0.27513,
				"method": "rhf"
			},
			{
				"type": "occ",
				"energy": -0.24426,
				"method": "rhf"
			},
			{
				"type": "occ",
				"energy": -0.2132,
				"method": "rhf"
			},
			{
				"type": "unocc",
				"energy": -0.0933,
				"method": "rhf"
			},
			{
				"type": "unocc",
				"energy": -0.06843,
				"method": "rhf"
			},
			{
				"type": "unocc",
				"energy": -0.01976,
				"method": "rhf"
			},
			{
				"type": "unocc",
				"energy": -0.00105,
				"method": "rhf"
			},
			{
				"type": "unocc",
				"energy": 0.02161,
				"method": "rhf"
			}
		],
		"cosmo_sigma_profile": { 
			"-0.025": 0.0,
			"-0.024": 0.0,
			"-0.023": 0.0,
			"-0.022": 0.0,
			"-0.021": 0.0,
			"-0.02": 0.0,
			"-0.019": 0.0,
			"-0.018": 0.0,
			"-0.017": 0.0,
			"-0.016": 0.0,
			"-0.015": 0.0151734619112,
			"-0.014": 0.93510354269,
			"-0.013": 1.53436981281,
			"-0.012": 1.20437717139,
			"-0.011": 1.56956002796,
			"-0.01": 2.24880488338,
			"-0.009": 4.03905201773,
			"-0.008": 7.56839921837,
			"-0.007": 10.1083673345,
			"-0.006": 13.0320355961,
			"-0.005": 13.8138674997,
			"-0.004": 19.0061548472,
			"-0.003": 22.1502831953,
			"-0.002": 25.595116321,
			"-0.001": 24.2953993927,
			"0.0": 31.0263256228,
			"0.001": 27.3782531855,
			"0.002": 24.0991789209,
			"0.003": 17.1786247023,
			"0.004": 13.0160364764,
			"0.005": 7.40901988258,
			"0.006": 7.71571993228,
			"0.007": 10.4074018203,
			"0.008": 8.79538239886,
			"0.009": 7.11023001215,
			"0.01": 4.7518649125,
			"0.011": 2.01310015333,
			"0.012": 4.37136966983,
			"0.013": 1.98991658433,
			"0.014": 0.0,
			"0.015": 0.0,
			"0.016": 0.0,
			"0.017": 0.0,
			"0.018": 0.0,
			"0.019": 0.0,
			"0.02": 0.0,
			"0.021": 0.0,
			"0.022": 0.0,
			"0.023": 0.0,
			"0.024": 0.0,
			"0.025": 0.0
		}
	}
}
