{
	 "smiles": "COC(=O)C=CC1=CC(=C(OC)C=C1)S(Cl)(=O)=O", 
	 "Tm": 389.15, 
	 "num_atms": 29, 
	 "gaussian": { 
		 "optdone": 1, 
		 "sigma_profile": "yes", 
		 "theory": "DFT", 
		 "functional": "B3LYP", 
		 "basiset": "6-31G**", 
		 "properties": { 
			 "R2extent": 9015.577, 
			 "electric_dipole_moment_norm": 8.18516432211, 
			 "electric_quadrupole_moment_norm": 18.4678234034, 
			 "total_energy": -1660.20859776, 
			 "HOMO_LUMO_gap": 0.15706, 
			 "cosmo_polarized_energy": -18.38, 
			 "cosmo_cavitation_energy": 37.95, 
			 "cosmo_dispersion_energy": -27.29, 
			 "cosmo_repulsion_energy": 2.08, 
			 "cosmo_total_nonelectrostatic_energy": 12.74, 
			 "SMD_solvation_energy": 7.79 
		},
		"coords": [
			{
				"x": 2.2929574985,
				"y": -2.4233700628,
				"z": 4.427207808,
				"element": "C" 
			},
			{
				"x": 1.8573698299,
				"y": -1.8760571372,
				"z": 3.1741441976,
				"element": "O" 
			},
			{
				"x": 2.0839259398,
				"y": -0.5471237618,
				"z": 3.0193971751,
				"element": "C" 
			},
			{
				"x": 2.6150922352,
				"y": 0.1411261568,
				"z": 3.8698247434,
				"element": "O" 
			},
			{
				"x": 1.6215360404,
				"y": -0.0243943404,
				"z": 1.7180732171,
				"element": "C" 
			},
			{
				"x": 1.0333609122,
				"y": -0.7765345323,
				"z": 0.7700181136,
				"element": "C" 
			},
			{
				"x": 0.5494202937,
				"y": -0.3338192665,
				"z": -0.5379642442,
				"element": "C" 
			},
			{
				"x": 0.6363927636,
				"y": 0.9972791687,
				"z": -0.9824965064,
				"element": "C" 
			},
			{
				"x": 0.1645051127,
				"y": 1.3535623845,
				"z": -2.2386394355,
				"element": "C" 
			},
			{
				"x": -0.4291179932,
				"y": 0.4090001412,
				"z": -3.1091548757,
				"element": "C" 
			},
			{
				"x": -0.8788016065,
				"y": 0.8592010421,
				"z": -4.2919113147,
				"element": "O" 
			},
			{
				"x": -1.486373339,
				"y": -0.0557515127,
				"z": -5.2013053299,
				"element": "C" 
			},
			{
				"x": -0.5172211303,
				"y": -0.917272442,
				"z": -2.6658247735,
				"element": "C" 
			},
			{
				"x": -0.034302569,
				"y": -1.2693091965,
				"z": -1.4090726744,
				"element": "C" 
			},
			{
				"x": 0.3887949448,
				"y": 3.0594234788,
				"z": -2.7359544919,
				"element": "S" 
			},
			{
				"x": -1.6236951299,
				"y": 3.7536353082,
				"z": -2.8111641675,
				"element": "Cl" 
			},
			{
				"x": 1.0169166943,
				"y": 3.7749275808,
				"z": -1.6308012172,
				"element": "O" 
			},
			{
				"x": 0.9144107354,
				"y": 3.14221582,
				"z": -4.0906400065,
				"element": "O" 
			},
			{
				"x": 2.039695614,
				"y": -3.4830336323,
				"z": 4.39017397,
				"element": "H" 
			},
			{
				"x": 1.7809505873,
				"y": -1.9357040553,
				"z": 5.2607073482,
				"element": "H" 
			},
			{
				"x": 3.3706388054,
				"y": -2.2909798631,
				"z": 4.5529138861,
				"element": "H" 
			},
			{
				"x": 1.8041163822,
				"y": 1.0385235115,
				"z": 1.597165592,
				"element": "H" 
			},
			{
				"x": 0.8948108342,
				"y": -1.8338148651,
				"z": 0.9835443548,
				"element": "H" 
			},
			{
				"x": 1.0727716849,
				"y": 1.769247739,
				"z": -0.360054198,
				"element": "H" 
			},
			{
				"x": -0.783870651,
				"y": -0.8424614844,
				"z": -5.4984520919,
				"element": "H" 
			},
			{
				"x": -2.3865223711,
				"y": -0.5060554394,
				"z": -4.7678171341,
				"element": "H" 
			},
			{
				"x": -1.7584419596,
				"y": 0.5384865003,
				"z": -6.0729230449,
				"element": "H" 
			},
			{
				"x": -0.9636245892,
				"y": -1.6742242976,
				"z": -3.2986062823,
				"element": "H" 
			},
			{
				"x": -0.1150955695,
				"y": -2.3050229425,
				"z": -1.0903886173,
				"element": "H" 
			}
		],
		 "valence_orbital": [ 
			{
				"type": "occ",
				"energy": -0.30551,
				"method": "rhf"
			},
			{
				"type": "occ",
				"energy": -0.30201,
				"method": "rhf"
			},
			{
				"type": "occ",
				"energy": -0.29485,
				"method": "rhf"
			},
			{
				"type": "occ",
				"energy": -0.27376,
				"method": "rhf"
			},
			{
				"type": "occ",
				"energy": -0.24184,
				"method": "rhf"
			},
			{
				"type": "unocc",
				"energy": -0.08478,
				"method": "rhf"
			},
			{
				"type": "unocc",
				"energy": -0.07658,
				"method": "rhf"
			},
			{
				"type": "unocc",
				"energy": -0.04749,
				"method": "rhf"
			},
			{
				"type": "unocc",
				"energy": 0.00207,
				"method": "rhf"
			},
			{
				"type": "unocc",
				"energy": 0.04496,
				"method": "rhf"
			}
		],
		"cosmo_sigma_profile": { 
			"-0.025": 0.0,
			"-0.024": 0.0,
			"-0.023": 0.0,
			"-0.022": 0.0,
			"-0.021": 0.0,
			"-0.02": 0.0,
			"-0.019": 0.0,
			"-0.018": 0.0,
			"-0.017": 0.0,
			"-0.016": 0.0,
			"-0.015": 0.0,
			"-0.014": 0.0,
			"-0.013": 0.0,
			"-0.012": 0.0,
			"-0.011": 0.0424515134257,
			"-0.01": 0.952813027236,
			"-0.009": 3.20587106154,
			"-0.008": 9.11489176816,
			"-0.007": 14.2139742877,
			"-0.006": 18.6211789187,
			"-0.005": 19.6570592421,
			"-0.004": 21.8665943525,
			"-0.003": 20.1942578345,
			"-0.002": 19.521124961,
			"-0.001": 23.6967141501,
			"0.0": 24.7780378653,
			"0.001": 23.4886895751,
			"0.002": 17.8688998318,
			"0.003": 18.1366816913,
			"0.004": 13.8129095642,
			"0.005": 8.22742728363,
			"0.006": 7.76411681574,
			"0.007": 7.373129216,
			"0.008": 12.1610554318,
			"0.009": 9.00306587095,
			"0.01": 2.57121550255,
			"0.011": 2.60588223766,
			"0.012": 4.82148187303,
			"0.013": 2.44077079909,
			"0.014": 0.0526334318391,
			"0.015": 0.0,
			"0.016": 0.0,
			"0.017": 0.0,
			"0.018": 0.0,
			"0.019": 0.0,
			"0.02": 0.0,
			"0.021": 0.0,
			"0.022": 0.0,
			"0.023": 0.0,
			"0.024": 0.0,
			"0.025": 0.0
		}
	}
}
