{
	 "smiles": "N=C1NC(=O)C(S1)=NNC1=CC=CC=C1", 
	 "Tm": 483.15, 
	 "num_atms": 23, 
	 "gaussian": { 
		 "optdone": 1, 
		 "sigma_profile": "yes", 
		 "theory": "DFT", 
		 "functional": "B3LYP", 
		 "basiset": "6-31G**", 
		 "properties": { 
			 "R2extent": 5303.1684, 
			 "electric_dipole_moment_norm": 3.69964048253, 
			 "electric_quadrupole_moment_norm": 6.81009773131, 
			 "total_energy": -1040.16977949, 
			 "HOMO_LUMO_gap": 0.14556, 
			 "cosmo_polarized_energy": -18.44, 
			 "cosmo_cavitation_energy": 30.47, 
			 "cosmo_dispersion_energy": -22.9, 
			 "cosmo_repulsion_energy": 1.75, 
			 "cosmo_total_nonelectrostatic_energy": 9.33, 
			 "SMD_solvation_energy": 4.47 
		},
		"coords": [
			{
				"x": -1.4202473341,
				"y": 5.6227947569,
				"z": 0.0895278026,
				"element": "N" 
			},
			{
				"x": -1.1582411259,
				"y": 4.4329579807,
				"z": 0.4344235368,
				"element": "C" 
			},
			{
				"x": -1.5461155393,
				"y": 3.8978806521,
				"z": 1.6492803469,
				"element": "N" 
			},
			{
				"x": -1.2303902578,
				"y": 2.5824082366,
				"z": 1.9767691636,
				"element": "C" 
			},
			{
				"x": -1.5340699386,
				"y": 2.0422418169,
				"z": 3.0198421482,
				"element": "O" 
			},
			{
				"x": -0.4731243726,
				"y": 1.9816744351,
				"z": 0.8404776193,
				"element": "C" 
			},
			{
				"x": -0.2576177837,
				"y": 3.1640161476,
				"z": -0.4999045994,
				"element": "S" 
			},
			{
				"x": -0.0625007505,
				"y": 0.7678873362,
				"z": 0.8914422749,
				"element": "N" 
			},
			{
				"x": 0.6099920247,
				"y": 0.22861748,
				"z": -0.113905419,
				"element": "N" 
			},
			{
				"x": 1.0642937792,
				"y": -1.0996061323,
				"z": -0.067814411,
				"element": "C" 
			},
			{
				"x": 1.7678221523,
				"y": -1.6008391969,
				"z": -1.1709863378,
				"element": "C" 
			},
			{
				"x": 2.2322479939,
				"y": -2.9144748678,
				"z": -1.1564885554,
				"element": "C" 
			},
			{
				"x": 2.0011555027,
				"y": -3.7340233165,
				"z": -0.0503788728,
				"element": "C" 
			},
			{
				"x": 1.2982929153,
				"y": -3.2239846531,
				"z": 1.0446660297,
				"element": "C" 
			},
			{
				"x": 0.8266549959,
				"y": -1.9134726999,
				"z": 1.0478802976,
				"element": "C" 
			},
			{
				"x": -1.0620638607,
				"y": 5.8540879482,
				"z": -0.835040922,
				"element": "H" 
			},
			{
				"x": -2.0629571995,
				"y": 4.4767924329,
				"z": 2.2984870005,
				"element": "H" 
			},
			{
				"x": 0.8115776241,
				"y": 0.7737835955,
				"z": -0.9487096537,
				"element": "H" 
			},
			{
				"x": 1.9498233766,
				"y": -0.9653767659,
				"z": -2.0346937412,
				"element": "H" 
			},
			{
				"x": 2.7767113197,
				"y": -3.2954139631,
				"z": -2.0154946169,
				"element": "H" 
			},
			{
				"x": 2.363829072,
				"y": -4.7569795441,
				"z": -0.0412153278,
				"element": "H" 
			},
			{
				"x": 1.1127441725,
				"y": -3.8527423509,
				"z": 1.9106946462,
				"element": "H" 
			},
			{
				"x": 0.2811832339,
				"y": -1.5112293285,
				"z": 1.8930415906,
				"element": "H" 
			}
		],
		 "valence_orbital": [ 
			{
				"type": "occ",
				"energy": -0.27858,
				"method": "rhf"
			},
			{
				"type": "occ",
				"energy": -0.27332,
				"method": "rhf"
			},
			{
				"type": "occ",
				"energy": -0.26693,
				"method": "rhf"
			},
			{
				"type": "occ",
				"energy": -0.25911,
				"method": "rhf"
			},
			{
				"type": "occ",
				"energy": -0.21247,
				"method": "rhf"
			},
			{
				"type": "unocc",
				"energy": -0.06691,
				"method": "rhf"
			},
			{
				"type": "unocc",
				"energy": -0.02429,
				"method": "rhf"
			},
			{
				"type": "unocc",
				"energy": -0.00934,
				"method": "rhf"
			},
			{
				"type": "unocc",
				"energy": 0.00337,
				"method": "rhf"
			},
			{
				"type": "unocc",
				"energy": 0.02169,
				"method": "rhf"
			}
		],
		"cosmo_sigma_profile": { 
			"-0.025": 0.0,
			"-0.024": 0.0,
			"-0.023": 0.0,
			"-0.022": 0.0,
			"-0.021": 0.0,
			"-0.02": 0.0,
			"-0.019": 0.0,
			"-0.018": 0.0,
			"-0.017": 0.183870216826,
			"-0.016": 1.44830548151,
			"-0.015": 2.23736267492,
			"-0.014": 2.51549576149,
			"-0.013": 2.94774316954,
			"-0.012": 3.38634242591,
			"-0.011": 3.07965417857,
			"-0.01": 3.56780828265,
			"-0.009": 2.70166334785,
			"-0.008": 4.37346839625,
			"-0.007": 4.62832845847,
			"-0.006": 8.4728008683,
			"-0.005": 13.479782249,
			"-0.004": 16.2838176017,
			"-0.003": 14.8592079607,
			"-0.002": 14.6217297072,
			"-0.001": 16.5324789844,
			"0.0": 15.9877230948,
			"0.001": 15.698603297,
			"0.002": 16.9980116429,
			"0.003": 15.3021153843,
			"0.004": 15.6255436952,
			"0.005": 14.0273959172,
			"0.006": 6.76808718327,
			"0.007": 3.15637318832,
			"0.008": 2.93271815197,
			"0.009": 3.31223834812,
			"0.01": 3.613729439,
			"0.011": 5.5196276297,
			"0.012": 6.70757567835,
			"0.013": 3.39351174845,
			"0.014": 1.40816026318,
			"0.015": 0.986164769893,
			"0.016": 0.236769707257,
			"0.017": 0.0,
			"0.018": 0.0,
			"0.019": 0.0,
			"0.02": 0.0,
			"0.021": 0.0,
			"0.022": 0.0,
			"0.023": 0.0,
			"0.024": 0.0,
			"0.025": 0.0
		}
	}
}
