{
	 "smiles": "CC(C)C[C@H](NC(=O)OC(C)(C)C)C(O)=O", 
	 "Tm": 361.15, 
	 "num_atms": 37, 
	 "gaussian": { 
		 "optdone": 1, 
		 "sigma_profile": "yes", 
		 "theory": "DFT", 
		 "functional": "B3LYP", 
		 "basiset": "6-31G**", 
		 "properties": { 
			 "R2extent": 4475.8939, 
			 "electric_dipole_moment_norm": 2.54570751462, 
			 "electric_quadrupole_moment_norm": 19.5834958756, 
			 "total_energy": -787.532954817, 
			 "HOMO_LUMO_gap": 0.26814, 
			 "cosmo_polarized_energy": -16.63, 
			 "cosmo_cavitation_energy": 37.85, 
			 "cosmo_dispersion_energy": -24.55, 
			 "cosmo_repulsion_energy": 1.92, 
			 "cosmo_total_nonelectrostatic_energy": 15.22, 
			 "SMD_solvation_energy": 8.31 
		},
		"coords": [
			{
				"x": 1.6426547111,
				"y": 3.5138601322,
				"z": -1.7194766366,
				"element": "C" 
			},
			{
				"x": 1.4554394881,
				"y": 2.939974948,
				"z": -0.3058977654,
				"element": "C" 
			},
			{
				"x": 0.0789676007,
				"y": 3.3202604949,
				"z": 0.2639423106,
				"element": "C" 
			},
			{
				"x": 1.7718637356,
				"y": 1.4287089821,
				"z": -0.2361892977,
				"element": "C" 
			},
			{
				"x": 0.8129077269,
				"y": 0.4865519767,
				"z": -0.9861993499,
				"element": "C" 
			},
			{
				"x": -0.4431751722,
				"y": 0.1454457421,
				"z": -0.292749878,
				"element": "N" 
			},
			{
				"x": -0.5079176732,
				"y": -0.4232222116,
				"z": 0.978126005,
				"element": "C" 
			},
			{
				"x": -1.5056012221,
				"y": -0.3533557231,
				"z": 1.6715850312,
				"element": "O" 
			},
			{
				"x": 0.6350300529,
				"y": -1.072356529,
				"z": 1.2569759066,
				"element": "O" 
			},
			{
				"x": 0.7791331904,
				"y": -1.8991497404,
				"z": 2.4771739328,
				"element": "C" 
			},
			{
				"x": 0.6500047468,
				"y": -1.0148971642,
				"z": 3.720292249,
				"element": "C" 
			},
			{
				"x": 2.1986409994,
				"y": -2.4505595119,
				"z": 2.334175563,
				"element": "C" 
			},
			{
				"x": -0.2551673432,
				"y": -3.0279060207,
				"z": 2.4516002184,
				"element": "C" 
			},
			{
				"x": 1.5215247705,
				"y": -0.8006318497,
				"z": -1.4732768922,
				"element": "C" 
			},
			{
				"x": 0.6935479311,
				"y": -1.8308348603,
				"z": -1.7332847376,
				"element": "O" 
			},
			{
				"x": 2.7062096903,
				"y": -0.8657685847,
				"z": -1.6908675625,
				"element": "O" 
			},
			{
				"x": 1.5168770561,
				"y": 4.6017853366,
				"z": -1.7177247683,
				"element": "H" 
			},
			{
				"x": 0.9081946987,
				"y": 3.1098336164,
				"z": -2.427309283,
				"element": "H" 
			},
			{
				"x": 2.6398781957,
				"y": 3.2905244864,
				"z": -2.1125742884,
				"element": "H" 
			},
			{
				"x": 2.2094211995,
				"y": 3.4176397982,
				"z": 0.3355869989,
				"element": "H" 
			},
			{
				"x": -0.0936845554,
				"y": 2.8770687514,
				"z": 1.2503716323,
				"element": "H" 
			},
			{
				"x": -0.0100292703,
				"y": 4.4071343163,
				"z": 0.3646663514,
				"element": "H" 
			},
			{
				"x": -0.7373269242,
				"y": 2.9998922836,
				"z": -0.3956855076,
				"element": "H" 
			},
			{
				"x": 2.7675081364,
				"y": 1.2568133575,
				"z": -0.6559520416,
				"element": "H" 
			},
			{
				"x": 1.8181030088,
				"y": 1.1073408364,
				"z": 0.8090374036,
				"element": "H" 
			},
			{
				"x": 0.4928253136,
				"y": 0.9731316284,
				"z": -1.9174190071,
				"element": "H" 
			},
			{
				"x": -1.2170517992,
				"y": 0.7811675581,
				"z": -0.4317281008,
				"element": "H" 
			},
			{
				"x": 1.3759207021,
				"y": -0.1964146208,
				"z": 3.6841476407,
				"element": "H" 
			},
			{
				"x": -0.3536919919,
				"y": -0.5972542151,
				"z": 3.8036816628,
				"element": "H" 
			},
			{
				"x": 0.8594933585,
				"y": -1.6118729876,
				"z": 4.6136708268,
				"element": "H" 
			},
			{
				"x": 2.9301517843,
				"y": -1.6379767778,
				"z": 2.3099759257,
				"element": "H" 
			},
			{
				"x": 2.2978576313,
				"y": -3.0282931297,
				"z": 1.4113184905,
				"element": "H" 
			},
			{
				"x": 2.4315244486,
				"y": -3.1017605631,
				"z": 3.1818408423,
				"element": "H" 
			},
			{
				"x": -0.1630068814,
				"y": -3.6058217727,
				"z": 1.5267501139,
				"element": "H" 
			},
			{
				"x": -0.0763412454,
				"y": -3.7044974271,
				"z": 3.2931732772,
				"element": "H" 
			},
			{
				"x": -1.2695685643,
				"y": -2.634679466,
				"z": 2.528440552,
				"element": "H" 
			},
			{
				"x": -0.1944175348,
				"y": -1.5694810897,
				"z": -1.428597818,
				"element": "H" 
			}
		],
		 "valence_orbital": [ 
			{
				"type": "occ",
				"energy": -0.31109,
				"method": "rhf"
			},
			{
				"type": "occ",
				"energy": -0.30252,
				"method": "rhf"
			},
			{
				"type": "occ",
				"energy": -0.29111,
				"method": "rhf"
			},
			{
				"type": "occ",
				"energy": -0.27865,
				"method": "rhf"
			},
			{
				"type": "occ",
				"energy": -0.25795,
				"method": "rhf"
			},
			{
				"type": "unocc",
				"energy": 0.01019,
				"method": "rhf"
			},
			{
				"type": "unocc",
				"energy": 0.0294,
				"method": "rhf"
			},
			{
				"type": "unocc",
				"energy": 0.05542,
				"method": "rhf"
			},
			{
				"type": "unocc",
				"energy": 0.07232,
				"method": "rhf"
			},
			{
				"type": "unocc",
				"energy": 0.08789,
				"method": "rhf"
			}
		],
		"cosmo_sigma_profile": { 
			"-0.025": 0.0,
			"-0.024": 0.0,
			"-0.023": 0.0,
			"-0.022": 0.0,
			"-0.021": 0.0,
			"-0.02": 0.0,
			"-0.019": 0.0,
			"-0.018": 0.0,
			"-0.017": 0.0,
			"-0.016": 0.0,
			"-0.015": 0.246247429346,
			"-0.014": 0.485171483645,
			"-0.013": 1.92416460241,
			"-0.012": 1.9879351871,
			"-0.011": 2.49408163461,
			"-0.01": 2.94407372345,
			"-0.009": 3.87528329778,
			"-0.008": 4.80014542444,
			"-0.007": 4.0412861488,
			"-0.006": 3.84869767009,
			"-0.005": 5.76604223076,
			"-0.004": 16.3243931364,
			"-0.003": 28.9464196458,
			"-0.002": 37.1930367473,
			"-0.001": 40.4721867528,
			"0.0": 40.6985580312,
			"0.001": 26.9308928761,
			"0.002": 10.4925278734,
			"0.003": 7.00609375029,
			"0.004": 6.42968543375,
			"0.005": 4.2607234765,
			"0.006": 4.31278953278,
			"0.007": 3.81731141203,
			"0.008": 4.34467011303,
			"0.009": 4.31494540686,
			"0.01": 6.23919706493,
			"0.011": 6.48430007464,
			"0.012": 7.93586799433,
			"0.013": 4.42185900159,
			"0.014": 0.266386134881,
			"0.015": 0.0,
			"0.016": 0.0,
			"0.017": 0.0,
			"0.018": 0.0,
			"0.019": 0.0,
			"0.02": 0.0,
			"0.021": 0.0,
			"0.022": 0.0,
			"0.023": 0.0,
			"0.024": 0.0,
			"0.025": 0.0
		}
	}
}
