{
	 "smiles": "CC(N)C1=CC=C(C=C1)N1CCCC1=O", 
	 "Tm": 336.15, 
	 "num_atms": 31, 
	 "gaussian": { 
		 "optdone": 1, 
		 "sigma_profile": "yes", 
		 "theory": "DFT", 
		 "functional": "B3LYP", 
		 "basiset": "6-31G**", 
		 "properties": { 
			 "R2extent": 5038.2196, 
			 "electric_dipole_moment_norm": 4.14766343138, 
			 "electric_quadrupole_moment_norm": 23.3398533888, 
			 "total_energy": -651.669513277, 
			 "HOMO_LUMO_gap": 0.20087, 
			 "cosmo_polarized_energy": -13.8, 
			 "cosmo_cavitation_energy": 32.49, 
			 "cosmo_dispersion_energy": -24.11, 
			 "cosmo_repulsion_energy": 1.89, 
			 "cosmo_total_nonelectrostatic_energy": 10.27, 
			 "SMD_solvation_energy": 4.61 
		},
		"coords": [
			{
				"x": -1.2031383549,
				"y": -3.2507462474,
				"z": -2.8204453951,
				"element": "C" 
			},
			{
				"x": 0.2654458957,
				"y": -2.8091249473,
				"z": -2.703509428,
				"element": "C" 
			},
			{
				"x": 0.776037634,
				"y": -2.1460756487,
				"z": -3.9164514964,
				"element": "N" 
			},
			{
				"x": 0.5544442112,
				"y": -1.9223460006,
				"z": -1.4930086676,
				"element": "C" 
			},
			{
				"x": -0.3364711753,
				"y": -1.7689306942,
				"z": -0.4272312405,
				"element": "C" 
			},
			{
				"x": -0.0233139343,
				"y": -0.9733912385,
				"z": 0.6762705092,
				"element": "C" 
			},
			{
				"x": 1.2054851168,
				"y": -0.3000561339,
				"z": 0.7490416892,
				"element": "C" 
			},
			{
				"x": 2.1105186409,
				"y": -0.4438657046,
				"z": -0.3198117882,
				"element": "C" 
			},
			{
				"x": 1.7781932735,
				"y": -1.2388944636,
				"z": -1.4107644,
				"element": "C" 
			},
			{
				"x": 1.5084802704,
				"y": 0.486237846,
				"z": 1.8877138924,
				"element": "N" 
			},
			{
				"x": 0.6483458185,
				"y": 0.4671597496,
				"z": 3.0769501403,
				"element": "C" 
			},
			{
				"x": 1.47818216,
				"y": 1.1934375631,
				"z": 4.1499785603,
				"element": "C" 
			},
			{
				"x": 2.3637114179,
				"y": 2.1393332109,
				"z": 3.3341072093,
				"element": "C" 
			},
			{
				"x": 2.510511303,
				"y": 1.4465152529,
				"z": 1.9805244852,
				"element": "C" 
			},
			{
				"x": 3.3478698063,
				"y": 1.713568103,
				"z": 1.1351677031,
				"element": "O" 
			},
			{
				"x": -1.334795472,
				"y": -3.8593700572,
				"z": -3.7214740121,
				"element": "H" 
			},
			{
				"x": -1.8718505818,
				"y": -2.3852998743,
				"z": -2.8962682061,
				"element": "H" 
			},
			{
				"x": -1.5264878602,
				"y": -3.8578593161,
				"z": -1.9681106339,
				"element": "H" 
			},
			{
				"x": 0.8705161781,
				"y": -3.7219489916,
				"z": -2.5908222664,
				"element": "H" 
			},
			{
				"x": 0.6269246421,
				"y": -2.7493137225,
				"z": -4.7225540714,
				"element": "H" 
			},
			{
				"x": 0.2423443582,
				"y": -1.2949848347,
				"z": -4.0860807809,
				"element": "H" 
			},
			{
				"x": -1.2999282006,
				"y": -2.2675092357,
				"z": -0.4385694852,
				"element": "H" 
			},
			{
				"x": -0.7552077418,
				"y": -0.876650538,
				"z": 1.4697301048,
				"element": "H" 
			},
			{
				"x": 3.0555761396,
				"y": 0.0784958147,
				"z": -0.2886091741,
				"element": "H" 
			},
			{
				"x": 2.4784536042,
				"y": -1.3308776665,
				"z": -2.2343061594,
				"element": "H" 
			},
			{
				"x": 0.4107469273,
				"y": -0.5629303719,
				"z": 3.3583485606,
				"element": "H" 
			},
			{
				"x": -0.2995167315,
				"y": 0.9870447141,
				"z": 2.8763091367,
				"element": "H" 
			},
			{
				"x": 0.8449228223,
				"y": 1.7007426683,
				"z": 4.8816574438,
				"element": "H" 
			},
			{
				"x": 2.0976120193,
				"y": 0.468986454,
				"z": 4.6881831117,
				"element": "H" 
			},
			{
				"x": 1.8824564132,
				"y": 3.1107956934,
				"z": 3.1636954657,
				"element": "H" 
			},
			{
				"x": 3.3478313998,
				"y": 2.3337586174,
				"z": 3.7651391932,
				"element": "H" 
			}
		],
		 "valence_orbital": [ 
			{
				"type": "occ",
				"energy": -0.28434,
				"method": "rhf"
			},
			{
				"type": "occ",
				"energy": -0.24551,
				"method": "rhf"
			},
			{
				"type": "occ",
				"energy": -0.24013,
				"method": "rhf"
			},
			{
				"type": "occ",
				"energy": -0.23311,
				"method": "rhf"
			},
			{
				"type": "occ",
				"energy": -0.20724,
				"method": "rhf"
			},
			{
				"type": "unocc",
				"energy": -0.00637,
				"method": "rhf"
			},
			{
				"type": "unocc",
				"energy": 0.00757,
				"method": "rhf"
			},
			{
				"type": "unocc",
				"energy": 0.04519,
				"method": "rhf"
			},
			{
				"type": "unocc",
				"energy": 0.08235,
				"method": "rhf"
			},
			{
				"type": "unocc",
				"energy": 0.08773,
				"method": "rhf"
			}
		],
		"cosmo_sigma_profile": { 
			"-0.025": 0.0,
			"-0.024": 0.0,
			"-0.023": 0.0,
			"-0.022": 0.0,
			"-0.021": 0.0,
			"-0.02": 0.0,
			"-0.019": 0.0,
			"-0.018": 0.0,
			"-0.017": 0.0,
			"-0.016": 0.0,
			"-0.015": 0.0,
			"-0.014": 0.0,
			"-0.013": 0.0,
			"-0.012": 0.0,
			"-0.011": 0.0,
			"-0.01": 0.299711651213,
			"-0.009": 2.47292914632,
			"-0.008": 2.35036925477,
			"-0.007": 2.21343940634,
			"-0.006": 8.9398189247,
			"-0.005": 21.5595738411,
			"-0.004": 29.4239056919,
			"-0.003": 30.7080230357,
			"-0.002": 25.4737136976,
			"-0.001": 22.5926599089,
			"0.0": 15.7017923522,
			"0.001": 13.9980610297,
			"0.002": 11.5618793404,
			"0.003": 10.7126118138,
			"0.004": 9.60510711494,
			"0.005": 11.051780349,
			"0.006": 10.5067859267,
			"0.007": 4.48661932589,
			"0.008": 2.62274761875,
			"0.009": 1.65225828182,
			"0.01": 3.13789895569,
			"0.011": 2.35059278008,
			"0.012": 3.2111386748,
			"0.013": 3.98047386977,
			"0.014": 2.64213304935,
			"0.015": 0.892992850983,
			"0.016": 0.597992338632,
			"0.017": 0.237174037977,
			"0.018": 0.0,
			"0.019": 0.0,
			"0.02": 0.0,
			"0.021": 0.0,
			"0.022": 0.0,
			"0.023": 0.0,
			"0.024": 0.0,
			"0.025": 0.0
		}
	}
}
