{
	 "smiles": "NC(CN1CCOCC1)CC1=CC=CC=C1", 
	 "Tm": 328.15, 
	 "num_atms": 36, 
	 "gaussian": { 
		 "optdone": 1, 
		 "sigma_profile": "yes", 
		 "theory": "DFT", 
		 "functional": "B3LYP", 
		 "basiset": "6-31G**", 
		 "properties": { 
			 "R2extent": 5670.1716, 
			 "electric_dipole_moment_norm": 1.05747234479, 
			 "electric_quadrupole_moment_norm": 13.7419082812, 
			 "total_energy": -692.133231229, 
			 "HOMO_LUMO_gap": 0.20607, 
			 "cosmo_polarized_energy": -10.46, 
			 "cosmo_cavitation_energy": 36.57, 
			 "cosmo_dispersion_energy": -25.53, 
			 "cosmo_repulsion_energy": 2.03, 
			 "cosmo_total_nonelectrostatic_energy": 13.06, 
			 "SMD_solvation_energy": 3.65 
		},
		"coords": [
			{
				"x": 1.0247641491,
				"y": 2.0344295438,
				"z": 2.3583711298,
				"element": "N" 
			},
			{
				"x": 0.2382732698,
				"y": 1.4925765999,
				"z": 1.2486340642,
				"element": "C" 
			},
			{
				"x": -0.9883410244,
				"y": 0.7899222516,
				"z": 1.8467334907,
				"element": "C" 
			},
			{
				"x": -0.61027946,
				"y": -0.3267563251,
				"z": 2.7170007319,
				"element": "N" 
			},
			{
				"x": -0.2068940597,
				"y": -1.5558678356,
				"z": 1.9975772198,
				"element": "C" 
			},
			{
				"x": -1.1976275084,
				"y": -2.7013647294,
				"z": 2.2046884777,
				"element": "C" 
			},
			{
				"x": -1.357595452,
				"y": -3.0318899834,
				"z": 3.5806810617,
				"element": "O" 
			},
			{
				"x": -1.286097459,
				"y": -1.908465871,
				"z": 4.460550243,
				"element": "C" 
			},
			{
				"x": -1.6073739343,
				"y": -0.5949890907,
				"z": 3.7593624146,
				"element": "C" 
			},
			{
				"x": -0.1635535878,
				"y": 2.6457113248,
				"z": 0.3001985706,
				"element": "C" 
			},
			{
				"x": -0.8459495554,
				"y": 2.2022295374,
				"z": -0.9763826384,
				"element": "C" 
			},
			{
				"x": -0.1107510055,
				"y": 1.5936972973,
				"z": -2.0054110235,
				"element": "C" 
			},
			{
				"x": -0.7319992075,
				"y": 1.1668145309,
				"z": -3.1791661742,
				"element": "C" 
			},
			{
				"x": -2.1068463759,
				"y": 1.3446722711,
				"z": -3.3496086657,
				"element": "C" 
			},
			{
				"x": -2.8508641974,
				"y": 1.9534632942,
				"z": -2.3382051089,
				"element": "C" 
			},
			{
				"x": -2.2239240675,
				"y": 2.3768026422,
				"z": -1.1643854954,
				"element": "C" 
			},
			{
				"x": 1.9534880515,
				"y": 2.2996185179,
				"z": 2.0397117799,
				"element": "H" 
			},
			{
				"x": 1.1393250801,
				"y": 1.2912373962,
				"z": 3.0455568162,
				"element": "H" 
			},
			{
				"x": 0.7963588738,
				"y": 0.7508840772,
				"z": 0.6465852342,
				"element": "H" 
			},
			{
				"x": -1.6751911188,
				"y": 0.4781863714,
				"z": 1.0414781652,
				"element": "H" 
			},
			{
				"x": -1.5178112852,
				"y": 1.5265292927,
				"z": 2.4626017515,
				"element": "H" 
			},
			{
				"x": 0.7853365753,
				"y": -1.8815661781,
				"z": 2.338613723,
				"element": "H" 
			},
			{
				"x": -0.1227711163,
				"y": -1.3481045619,
				"z": 0.9247694005,
				"element": "H" 
			},
			{
				"x": -2.1695571813,
				"y": -2.4400423603,
				"z": 1.7560155059,
				"element": "H" 
			},
			{
				"x": -0.8399791821,
				"y": -3.608059404,
				"z": 1.7051253625,
				"element": "H" 
			},
			{
				"x": -0.2792081991,
				"y": -1.8434462751,
				"z": 4.9016304384,
				"element": "H" 
			},
			{
				"x": -1.9985200375,
				"y": -2.0880534046,
				"z": 5.2733377194,
				"element": "H" 
			},
			{
				"x": -1.5905761898,
				"y": 0.2229082998,
				"z": 4.4900114673,
				"element": "H" 
			},
			{
				"x": -2.6378156039,
				"y": -0.6467216895,
				"z": 3.3605407361,
				"element": "H" 
			},
			{
				"x": 0.7506476293,
				"y": 3.1993674475,
				"z": 0.0489393411,
				"element": "H" 
			},
			{
				"x": -0.8003879353,
				"y": 3.3425564918,
				"z": 0.856577024,
				"element": "H" 
			},
			{
				"x": 0.9624733527,
				"y": 1.4609874998,
				"z": -1.8876283224,
				"element": "H" 
			},
			{
				"x": -0.1419959376,
				"y": 0.7011269956,
				"z": -3.9639072271,
				"element": "H" 
			},
			{
				"x": -2.5917379531,
				"y": 1.0166081813,
				"z": -4.2645848856,
				"element": "H" 
			},
			{
				"x": -3.919939793,
				"y": 2.1026866909,
				"z": -2.4625650857,
				"element": "H" 
			},
			{
				"x": -2.8102785539,
				"y": 2.8548111533,
				"z": -0.3833472422,
				"element": "H" 
			}
		],
		 "valence_orbital": [ 
			{
				"type": "occ",
				"energy": -0.24877,
				"method": "rhf"
			},
			{
				"type": "occ",
				"energy": -0.24526,
				"method": "rhf"
			},
			{
				"type": "occ",
				"energy": -0.24105,
				"method": "rhf"
			},
			{
				"type": "occ",
				"energy": -0.22932,
				"method": "rhf"
			},
			{
				"type": "occ",
				"energy": -0.20727,
				"method": "rhf"
			},
			{
				"type": "unocc",
				"energy": -0.0012,
				"method": "rhf"
			},
			{
				"type": "unocc",
				"energy": 0.00161,
				"method": "rhf"
			},
			{
				"type": "unocc",
				"energy": 0.07756,
				"method": "rhf"
			},
			{
				"type": "unocc",
				"energy": 0.09063,
				"method": "rhf"
			},
			{
				"type": "unocc",
				"energy": 0.09865,
				"method": "rhf"
			}
		],
		"cosmo_sigma_profile": { 
			"-0.025": 0.0,
			"-0.024": 0.0,
			"-0.023": 0.0,
			"-0.022": 0.0,
			"-0.021": 0.0,
			"-0.02": 0.0,
			"-0.019": 0.0,
			"-0.018": 0.0,
			"-0.017": 0.0,
			"-0.016": 0.0,
			"-0.015": 0.0,
			"-0.014": 0.0,
			"-0.013": 0.0,
			"-0.012": 0.0,
			"-0.011": 0.0,
			"-0.01": 0.05566909695,
			"-0.009": 1.17102634829,
			"-0.008": 1.35664720288,
			"-0.007": 1.41508148118,
			"-0.006": 3.64245840463,
			"-0.005": 15.6526140554,
			"-0.004": 29.2820795318,
			"-0.003": 48.1639067769,
			"-0.002": 38.7130634769,
			"-0.001": 27.8202081288,
			"0.0": 19.712480238,
			"0.001": 15.6306458469,
			"0.002": 12.5924537234,
			"0.003": 12.393826072,
			"0.004": 11.3514713278,
			"0.005": 10.7433147871,
			"0.006": 11.5758206987,
			"0.007": 5.98724918574,
			"0.008": 2.22165183713,
			"0.009": 1.67523599683,
			"0.01": 1.22801961704,
			"0.011": 2.50527221605,
			"0.012": 1.89020547655,
			"0.013": 2.78642253189,
			"0.014": 2.04231668118,
			"0.015": 0.449610153316,
			"0.016": 0.278068260158,
			"0.017": 0.619779535563,
			"0.018": 0.819266787803,
			"0.019": 0.353205920475,
			"0.02": 0.365568046613,
			"0.021": 0.0,
			"0.022": 0.0,
			"0.023": 0.0,
			"0.024": 0.0,
			"0.025": 0.0
		}
	}
}
