{
	 "smiles": "OC(=O)CN1N=C(OC1=O)C1=CC=CS1", 
	 "Tm": 450.15, 
	 "num_atms": 21, 
	 "gaussian": { 
		 "optdone": 1, 
		 "sigma_profile": "yes", 
		 "theory": "DFT", 
		 "functional": "B3LYP", 
		 "basiset": "6-31G**", 
		 "properties": { 
			 "R2extent": 4412.3433, 
			 "electric_dipole_moment_norm": 6.99105358655, 
			 "electric_quadrupole_moment_norm": 12.7843725888, 
			 "total_energy": -1117.03596593, 
			 "HOMO_LUMO_gap": 0.16004, 
			 "cosmo_polarized_energy": -16.6, 
			 "cosmo_cavitation_energy": 28.81, 
			 "cosmo_dispersion_energy": -21.58, 
			 "cosmo_repulsion_energy": 1.64, 
			 "cosmo_total_nonelectrostatic_energy": 8.87, 
			 "SMD_solvation_energy": 7.01 
		},
		"coords": [
			{
				"x": -0.4913079432,
				"y": 2.4365262681,
				"z": 1.5245709351,
				"element": "O" 
			},
			{
				"x": -1.0474356345,
				"y": 3.3550224228,
				"z": 0.7205747778,
				"element": "C" 
			},
			{
				"x": -1.1786153796,
				"y": 4.5075833581,
				"z": 1.0480073802,
				"element": "O" 
			},
			{
				"x": -1.5969638067,
				"y": 2.863866753,
				"z": -0.6322971268,
				"element": "C" 
			},
			{
				"x": -0.9063078598,
				"y": 1.7257905396,
				"z": -1.208503911,
				"element": "N" 
			},
			{
				"x": -0.7100787742,
				"y": 0.5580265561,
				"z": -0.4913350902,
				"element": "N" 
			},
			{
				"x": -0.1141073932,
				"y": -0.2366787349,
				"z": -1.3296871129,
				"element": "C" 
			},
			{
				"x": 0.0819780267,
				"y": 0.3224126096,
				"z": -2.5551131018,
				"element": "O" 
			},
			{
				"x": -0.4393280075,
				"y": 1.6275466013,
				"z": -2.4941673829,
				"element": "C" 
			},
			{
				"x": -0.441247653,
				"y": 2.4134113831,
				"z": -3.4035418157,
				"element": "O" 
			},
			{
				"x": 0.3368550971,
				"y": -1.5823721947,
				"z": -1.1002439035,
				"element": "C" 
			},
			{
				"x": 0.989614513,
				"y": -2.3993848533,
				"z": -1.998921099,
				"element": "C" 
			},
			{
				"x": 1.298684959,
				"y": -3.6738188237,
				"z": -1.4528186453,
				"element": "C" 
			},
			{
				"x": 0.8790532876,
				"y": -3.8068322392,
				"z": -0.1546510822,
				"element": "C" 
			},
			{
				"x": 0.0947202799,
				"y": -2.3812463701,
				"z": 0.4335777816,
				"element": "S" 
			},
			{
				"x": -0.5040515419,
				"y": 1.550749473,
				"z": 1.105926029,
				"element": "H" 
			},
			{
				"x": -1.5198329628,
				"y": 3.6810690758,
				"z": -1.3492400806,
				"element": "H" 
			},
			{
				"x": -2.6599056676,
				"y": 2.6266621611,
				"z": -0.4938739433,
				"element": "H" 
			},
			{
				"x": 1.2323645885,
				"y": -2.084832684,
				"z": -3.0065941534,
				"element": "H" 
			},
			{
				"x": 1.8103080183,
				"y": -4.4572498825,
				"z": -1.9988071523,
				"element": "H" 
			},
			{
				"x": 0.9835038539,
				"y": -4.663551419,
				"z": 0.4969386974,
				"element": "H" 
			}
		],
		 "valence_orbital": [ 
			{
				"type": "occ",
				"energy": -0.31044,
				"method": "rhf"
			},
			{
				"type": "occ",
				"energy": -0.29903,
				"method": "rhf"
			},
			{
				"type": "occ",
				"energy": -0.2848,
				"method": "rhf"
			},
			{
				"type": "occ",
				"energy": -0.27694,
				"method": "rhf"
			},
			{
				"type": "occ",
				"energy": -0.2417,
				"method": "rhf"
			},
			{
				"type": "unocc",
				"energy": -0.08166,
				"method": "rhf"
			},
			{
				"type": "unocc",
				"energy": -0.00088,
				"method": "rhf"
			},
			{
				"type": "unocc",
				"energy": 0.00269,
				"method": "rhf"
			},
			{
				"type": "unocc",
				"energy": 0.00648,
				"method": "rhf"
			},
			{
				"type": "unocc",
				"energy": 0.02095,
				"method": "rhf"
			}
		],
		"cosmo_sigma_profile": { 
			"-0.025": 0.0,
			"-0.024": 0.0,
			"-0.023": 0.0,
			"-0.022": 0.0,
			"-0.021": 0.0,
			"-0.02": 0.0,
			"-0.019": 0.0,
			"-0.018": 0.0,
			"-0.017": 0.0,
			"-0.016": 0.0,
			"-0.015": 0.0,
			"-0.014": 0.0,
			"-0.013": 0.0,
			"-0.012": 0.0,
			"-0.011": 0.0748216878041,
			"-0.01": 3.33915275666,
			"-0.009": 7.0355201191,
			"-0.008": 11.6797212069,
			"-0.007": 15.320570446,
			"-0.006": 15.1398131387,
			"-0.005": 12.5099598272,
			"-0.004": 11.6955551119,
			"-0.003": 10.9340657274,
			"-0.002": 13.0428124793,
			"-0.001": 14.2350079605,
			"0.0": 14.3991610739,
			"0.001": 18.076520499,
			"0.002": 18.8187653006,
			"0.003": 11.8153712071,
			"0.004": 6.20985352687,
			"0.005": 6.58732233189,
			"0.006": 4.14086694899,
			"0.007": 4.07808497602,
			"0.008": 3.94529840777,
			"0.009": 5.24839644578,
			"0.01": 9.14050624297,
			"0.011": 11.7715961793,
			"0.012": 4.96583438887,
			"0.013": 0.54126908952,
			"0.014": 0.0,
			"0.015": 0.0,
			"0.016": 0.0,
			"0.017": 0.0,
			"0.018": 0.0,
			"0.019": 0.0,
			"0.02": 0.0,
			"0.021": 0.0,
			"0.022": 0.0,
			"0.023": 0.0,
			"0.024": 0.0,
			"0.025": 0.0
		}
	}
}
