{
	 "smiles": "OC(=O)C1=CC=C(S1)C1=CC=C(Cl)C=C1", 
	 "Tm": 534.15, 
	 "num_atms": 22, 
	 "gaussian": { 
		 "optdone": 1, 
		 "sigma_profile": "yes", 
		 "theory": "DFT", 
		 "functional": "B3LYP", 
		 "basiset": "6-31G**", 
		 "properties": { 
			 "R2extent": 6550.5114, 
			 "electric_dipole_moment_norm": 3.67112975935, 
			 "electric_quadrupole_moment_norm": 26.8251280224, 
			 "total_energy": -1432.21708091, 
			 "HOMO_LUMO_gap": 0.15633, 
			 "cosmo_polarized_energy": -14.66, 
			 "cosmo_cavitation_energy": 30.69, 
			 "cosmo_dispersion_energy": -23.15, 
			 "cosmo_repulsion_energy": 1.75, 
			 "cosmo_total_nonelectrostatic_energy": 9.28, 
			 "SMD_solvation_energy": 5.76 
		},
		"coords": [
			{
				"x": -3.9655275362,
				"y": -0.937024538,
				"z": -0.7798972193,
				"element": "O" 
			},
			{
				"x": -3.2726758653,
				"y": -1.0853869088,
				"z": 0.3814061754,
				"element": "C" 
			},
			{
				"x": -3.850142083,
				"y": -1.400602293,
				"z": 1.395938637,
				"element": "O" 
			},
			{
				"x": -1.8125300475,
				"y": -0.844354231,
				"z": 0.3452244839,
				"element": "C" 
			},
			{
				"x": -0.9539496435,
				"y": -1.1173269174,
				"z": 1.3841906125,
				"element": "C" 
			},
			{
				"x": 0.3960897333,
				"y": -0.806675152,
				"z": 1.0935710862,
				"element": "C" 
			},
			{
				"x": 0.5887593478,
				"y": -0.286744719,
				"z": -0.1713262497,
				"element": "C" 
			},
			{
				"x": -0.9415837344,
				"y": -0.1632138973,
				"z": -1.0103932377,
				"element": "S" 
			},
			{
				"x": 1.8410147411,
				"y": 0.1499839101,
				"z": -0.7980499104,
				"element": "C" 
			},
			{
				"x": 2.9096311629,
				"y": 0.6022720627,
				"z": -0.0020769177,
				"element": "C" 
			},
			{
				"x": 4.1126707075,
				"y": 1.0050146256,
				"z": -0.5734827676,
				"element": "C" 
			},
			{
				"x": 4.2560730033,
				"y": 0.9705508303,
				"z": -1.9611372796,
				"element": "C" 
			},
			{
				"x": 5.7673459757,
				"y": 1.483669904,
				"z": -2.6882463616,
				"element": "Cl" 
			},
			{
				"x": 3.2116306841,
				"y": 0.5358498054,
				"z": -2.7770138409,
				"element": "C" 
			},
			{
				"x": 2.0164781824,
				"y": 0.1260039717,
				"z": -2.1929816611,
				"element": "C" 
			},
			{
				"x": -3.3746484234,
				"y": -0.8027650522,
				"z": -1.5347174793,
				"element": "H" 
			},
			{
				"x": -1.3084735259,
				"y": -1.5434204751,
				"z": 2.3147702795,
				"element": "H" 
			},
			{
				"x": 1.2138374868,
				"y": -0.9871441851,
				"z": 1.7814248145,
				"element": "H" 
			},
			{
				"x": 2.7907505687,
				"y": 0.6608098775,
				"z": 1.0749067455,
				"element": "H" 
			},
			{
				"x": 4.9286035232,
				"y": 1.355353273,
				"z": 0.0487466365,
				"element": "H" 
			},
			{
				"x": 3.3371906416,
				"y": 0.5090639835,
				"z": -3.8535983987,
				"element": "H" 
			},
			{
				"x": 1.2170551005,
				"y": -0.237613875,
				"z": -2.8317581474,
				"element": "H" 
			}
		],
		 "valence_orbital": [ 
			{
				"type": "occ",
				"energy": -0.28717,
				"method": "rhf"
			},
			{
				"type": "occ",
				"energy": -0.28232,
				"method": "rhf"
			},
			{
				"type": "occ",
				"energy": -0.27862,
				"method": "rhf"
			},
			{
				"type": "occ",
				"energy": -0.27752,
				"method": "rhf"
			},
			{
				"type": "occ",
				"energy": -0.23537,
				"method": "rhf"
			},
			{
				"type": "unocc",
				"energy": -0.07904,
				"method": "rhf"
			},
			{
				"type": "unocc",
				"energy": -0.03318,
				"method": "rhf"
			},
			{
				"type": "unocc",
				"energy": -0.02461,
				"method": "rhf"
			},
			{
				"type": "unocc",
				"energy": -0.007,
				"method": "rhf"
			},
			{
				"type": "unocc",
				"energy": 0.01754,
				"method": "rhf"
			}
		],
		"cosmo_sigma_profile": { 
			"-0.025": 0.0,
			"-0.024": 0.0,
			"-0.023": 0.0,
			"-0.022": 0.0,
			"-0.021": 0.0,
			"-0.02": 0.0,
			"-0.019": 0.0251946217637,
			"-0.018": 0.468657837715,
			"-0.017": 0.972332573127,
			"-0.016": 0.525190747924,
			"-0.015": 1.03839942819,
			"-0.014": 0.86415091291,
			"-0.013": 1.35150858935,
			"-0.012": 0.869682119182,
			"-0.011": 0.742384625273,
			"-0.01": 0.888846911166,
			"-0.009": 0.902085304874,
			"-0.008": 6.5247579654,
			"-0.007": 11.6564793068,
			"-0.006": 12.833216449,
			"-0.005": 13.1331661488,
			"-0.004": 10.5055851516,
			"-0.003": 11.8820426262,
			"-0.002": 12.3918511164,
			"-0.001": 15.775294327,
			"0.0": 20.001072176,
			"0.001": 28.2875206629,
			"0.002": 32.5211080826,
			"0.003": 22.3248824781,
			"0.004": 12.1404955206,
			"0.005": 6.06989250849,
			"0.006": 2.01740746597,
			"0.007": 2.25157391715,
			"0.008": 2.97373615431,
			"0.009": 3.68610389272,
			"0.01": 4.37716448459,
			"0.011": 5.33589460655,
			"0.012": 5.00803073934,
			"0.013": 1.29350394108,
			"0.014": 0.0150147759966,
			"0.015": 0.0,
			"0.016": 0.0,
			"0.017": 0.0,
			"0.018": 0.0,
			"0.019": 0.0,
			"0.02": 0.0,
			"0.021": 0.0,
			"0.022": 0.0,
			"0.023": 0.0,
			"0.024": 0.0,
			"0.025": 0.0
		}
	}
}
