{
	 "smiles": "CCOC1=C(C=CC=C1)N1N=NN=C1S", 
	 "Tm": 327.15, 
	 "num_atms": 25, 
	 "gaussian": { 
		 "optdone": 1, 
		 "sigma_profile": "yes", 
		 "theory": "DFT", 
		 "functional": "B3LYP", 
		 "basiset": "6-31G**", 
		 "properties": { 
			 "R2extent": 3507.5986, 
			 "electric_dipole_moment_norm": 6.58124856847, 
			 "electric_quadrupole_moment_norm": 20.0843194652, 
			 "total_energy": -1041.32798183, 
			 "HOMO_LUMO_gap": 0.20013, 
			 "cosmo_polarized_energy": -14.53, 
			 "cosmo_cavitation_energy": 30.88, 
			 "cosmo_dispersion_energy": -22.3, 
			 "cosmo_repulsion_energy": 1.72, 
			 "cosmo_total_nonelectrostatic_energy": 10.3, 
			 "SMD_solvation_energy": 3.62 
		},
		"coords": [
			{
				"x": 1.5965557833,
				"y": -3.3016397104,
				"z": -0.9484230048,
				"element": "C" 
			},
			{
				"x": 0.7284619943,
				"y": -2.7020928461,
				"z": 0.1506914506,
				"element": "C" 
			},
			{
				"x": 0.1085531934,
				"y": -1.4717064841,
				"z": -0.2553424554,
				"element": "O" 
			},
			{
				"x": 0.8056083772,
				"y": -0.306073058,
				"z": -0.2331394498,
				"element": "C" 
			},
			{
				"x": 0.116011655,
				"y": 0.8286189066,
				"z": -0.7070956155,
				"element": "C" 
			},
			{
				"x": 0.7334991317,
				"y": 2.0780216194,
				"z": -0.7396338185,
				"element": "C" 
			},
			{
				"x": 2.0445296965,
				"y": 2.2223761862,
				"z": -0.2896295994,
				"element": "C" 
			},
			{
				"x": 2.7264889621,
				"y": 1.1076457065,
				"z": 0.1963280828,
				"element": "C" 
			},
			{
				"x": 2.1185193072,
				"y": -0.1486753205,
				"z": 0.2270378167,
				"element": "C" 
			},
			{
				"x": -1.2112177308,
				"y": 0.7042848765,
				"z": -1.2099270373,
				"element": "N" 
			},
			{
				"x": -1.5392093293,
				"y": 1.2356587909,
				"z": -2.4304876504,
				"element": "N" 
			},
			{
				"x": -2.8053206398,
				"y": 1.0582729333,
				"z": -2.5789968356,
				"element": "N" 
			},
			{
				"x": -3.3510419213,
				"y": 0.4165751946,
				"z": -1.5127898438,
				"element": "N" 
			},
			{
				"x": -2.3538905391,
				"y": 0.2062417739,
				"z": -0.6702729959,
				"element": "C" 
			},
			{
				"x": -2.4969655074,
				"y": -0.5437945048,
				"z": 0.9141459922,
				"element": "S" 
			},
			{
				"x": 2.4424407858,
				"y": -2.6557402762,
				"z": -1.198548119,
				"element": "H" 
			},
			{
				"x": 1.0053525632,
				"y": -3.4578047956,
				"z": -1.8547534094,
				"element": "H" 
			},
			{
				"x": 1.9906015306,
				"y": -4.2697429862,
				"z": -0.6220810067,
				"element": "H" 
			},
			{
				"x": 1.2882711319,
				"y": -2.5504154865,
				"z": 1.0812031506,
				"element": "H" 
			},
			{
				"x": -0.115157038,
				"y": -3.3582985249,
				"z": 0.3767279476,
				"element": "H" 
			},
			{
				"x": 0.1738825934,
				"y": 2.921966099,
				"z": -1.1271303349,
				"element": "H" 
			},
			{
				"x": 2.5234531848,
				"y": 3.1952117629,
				"z": -0.3162973214,
				"element": "H" 
			},
			{
				"x": 3.7468056255,
				"y": 1.2072423554,
				"z": 0.5544695156,
				"element": "H" 
			},
			{
				"x": 2.6738924987,
				"y": -1.0012645835,
				"z": 0.5976190453,
				"element": "H" 
			},
			{
				"x": -3.8119253088,
				"y": -0.2612676284,
				"z": 0.9997254961,
				"element": "H" 
			}
		],
		 "valence_orbital": [ 
			{
				"type": "occ",
				"energy": -0.29027,
				"method": "rhf"
			},
			{
				"type": "occ",
				"energy": -0.28441,
				"method": "rhf"
			},
			{
				"type": "occ",
				"energy": -0.26532,
				"method": "rhf"
			},
			{
				"type": "occ",
				"energy": -0.25135,
				"method": "rhf"
			},
			{
				"type": "occ",
				"energy": -0.23852,
				"method": "rhf"
			},
			{
				"type": "unocc",
				"energy": -0.03839,
				"method": "rhf"
			},
			{
				"type": "unocc",
				"energy": -0.01185,
				"method": "rhf"
			},
			{
				"type": "unocc",
				"energy": 0.00292,
				"method": "rhf"
			},
			{
				"type": "unocc",
				"energy": 0.00844,
				"method": "rhf"
			},
			{
				"type": "unocc",
				"energy": 0.02861,
				"method": "rhf"
			}
		],
		"cosmo_sigma_profile": { 
			"-0.025": 0.0,
			"-0.024": 0.0,
			"-0.023": 0.0,
			"-0.022": 0.0,
			"-0.021": 0.0,
			"-0.02": 0.0,
			"-0.019": 0.0,
			"-0.018": 0.0,
			"-0.017": 0.0,
			"-0.016": 0.0,
			"-0.015": 0.0,
			"-0.014": 0.0,
			"-0.013": 0.367832110277,
			"-0.012": 1.81855457614,
			"-0.011": 1.62395279973,
			"-0.01": 0.983960663044,
			"-0.009": 1.74870824692,
			"-0.008": 2.8410827693,
			"-0.007": 6.78687166235,
			"-0.006": 13.7112629329,
			"-0.005": 17.5073956106,
			"-0.004": 22.4562041932,
			"-0.003": 19.5424385839,
			"-0.002": 16.4899713973,
			"-0.001": 16.7673918551,
			"0.0": 21.270885748,
			"0.001": 16.9429962114,
			"0.002": 17.6820416554,
			"0.003": 15.4902649512,
			"0.004": 13.5345648109,
			"0.005": 7.41482257126,
			"0.006": 5.65511068603,
			"0.007": 4.61733717052,
			"0.008": 4.46723979769,
			"0.009": 4.52438682582,
			"0.01": 5.18051680348,
			"0.011": 3.63801553304,
			"0.012": 2.85000088897,
			"0.013": 2.12112735356,
			"0.014": 1.23127799446,
			"0.015": 0.146242482435,
			"0.016": 0.0,
			"0.017": 0.0,
			"0.018": 0.0,
			"0.019": 0.0,
			"0.02": 0.0,
			"0.021": 0.0,
			"0.022": 0.0,
			"0.023": 0.0,
			"0.024": 0.0,
			"0.025": 0.0
		}
	}
}
