{
	 "smiles": "NNC(=O)COC1=CC=C(C=C1)C#N", 
	 "Tm": 454.15, 
	 "num_atms": 23, 
	 "gaussian": { 
		 "optdone": 1, 
		 "sigma_profile": "yes", 
		 "theory": "DFT", 
		 "functional": "B3LYP", 
		 "basiset": "6-31G**", 
		 "properties": { 
			 "R2extent": 4623.4837, 
			 "electric_dipole_moment_norm": 8.44358037209, 
			 "electric_quadrupole_moment_norm": 33.7105672535, 
			 "total_energy": -663.029334111, 
			 "HOMO_LUMO_gap": 0.19756, 
			 "cosmo_polarized_energy": -20.19, 
			 "cosmo_cavitation_energy": 29.05, 
			 "cosmo_dispersion_energy": -20.41, 
			 "cosmo_repulsion_energy": 1.65, 
			 "cosmo_total_nonelectrostatic_energy": 10.28, 
			 "SMD_solvation_energy": 8.08 
		},
		"coords": [
			{
				"x": -2.9181069091,
				"y": 1.652101539,
				"z": -3.2916656612,
				"element": "N" 
			},
			{
				"x": -1.9834808057,
				"y": 2.5546135728,
				"z": -2.7741109757,
				"element": "N" 
			},
			{
				"x": -0.858418077,
				"y": 2.1521720867,
				"z": -2.1103891433,
				"element": "C" 
			},
			{
				"x": -0.0462775453,
				"y": 2.9646074924,
				"z": -1.6858002552,
				"element": "O" 
			},
			{
				"x": -0.6874638446,
				"y": 0.6392946548,
				"z": -1.9192203355,
				"element": "C" 
			},
			{
				"x": -1.6436273567,
				"y": 0.0795345752,
				"z": -1.0171702235,
				"element": "O" 
			},
			{
				"x": -1.4567033225,
				"y": 0.2129817695,
				"z": 0.3279263809,
				"element": "C" 
			},
			{
				"x": -2.3104322943,
				"y": -0.5672495819,
				"z": 1.1254403702,
				"element": "C" 
			},
			{
				"x": -2.21322704,
				"y": -0.5176476843,
				"z": 2.5063909597,
				"element": "C" 
			},
			{
				"x": -1.2557537664,
				"y": 0.3139608199,
				"z": 3.1191341199,
				"element": "C" 
			},
			{
				"x": -0.4106915616,
				"y": 1.0936525525,
				"z": 2.3146858144,
				"element": "C" 
			},
			{
				"x": -0.5056873353,
				"y": 1.0525419579,
				"z": 0.9256974549,
				"element": "C" 
			},
			{
				"x": -1.1513169692,
				"y": 0.3661924488,
				"z": 4.5460919492,
				"element": "C" 
			},
			{
				"x": -1.0689549153,
				"y": 0.4068373476,
				"z": 5.7064800845,
				"element": "N" 
			},
			{
				"x": -3.7848851374,
				"y": 1.6877632351,
				"z": -2.7610787018,
				"element": "H" 
			},
			{
				"x": -3.1085764342,
				"y": 1.8712298042,
				"z": -4.265115714,
				"element": "H" 
			},
			{
				"x": -2.1280682735,
				"y": 3.5591802875,
				"z": -2.8216188486,
				"element": "H" 
			},
			{
				"x": -0.8541282213,
				"y": 0.1188364728,
				"z": -2.8630701384,
				"element": "H" 
			},
			{
				"x": 0.3344768743,
				"y": 0.4685937413,
				"z": -1.569386291,
				"element": "H" 
			},
			{
				"x": -3.0349521684,
				"y": -1.209032113,
				"z": 0.6357376319,
				"element": "H" 
			},
			{
				"x": -2.8701999971,
				"y": -1.1233060475,
				"z": 3.1216857705,
				"element": "H" 
			},
			{
				"x": 0.3214669574,
				"y": 1.7438574918,
				"z": 2.7819993348,
				"element": "H" 
			},
			{
				"x": 0.1311081433,
				"y": 1.691583577,
				"z": 0.3254564174,
				"element": "H" 
			}
		],
		 "valence_orbital": [ 
			{
				"type": "occ",
				"energy": -0.30457,
				"method": "rhf"
			},
			{
				"type": "occ",
				"energy": -0.27609,
				"method": "rhf"
			},
			{
				"type": "occ",
				"energy": -0.26951,
				"method": "rhf"
			},
			{
				"type": "occ",
				"energy": -0.26815,
				"method": "rhf"
			},
			{
				"type": "occ",
				"energy": -0.23184,
				"method": "rhf"
			},
			{
				"type": "unocc",
				"energy": -0.03428,
				"method": "rhf"
			},
			{
				"type": "unocc",
				"energy": -0.01812,
				"method": "rhf"
			},
			{
				"type": "unocc",
				"energy": -0.00652,
				"method": "rhf"
			},
			{
				"type": "unocc",
				"energy": 0.04706,
				"method": "rhf"
			},
			{
				"type": "unocc",
				"energy": 0.05086,
				"method": "rhf"
			}
		],
		"cosmo_sigma_profile": { 
			"-0.025": 0.0,
			"-0.024": 0.0,
			"-0.023": 0.0,
			"-0.022": 0.0,
			"-0.021": 0.0,
			"-0.02": 0.0,
			"-0.019": 0.0,
			"-0.018": 0.0,
			"-0.017": 0.0,
			"-0.016": 0.0,
			"-0.015": 0.0393319255053,
			"-0.014": 0.959806676881,
			"-0.013": 2.06898488134,
			"-0.012": 4.22245987489,
			"-0.011": 5.325613947,
			"-0.01": 4.74304976576,
			"-0.009": 4.11140754585,
			"-0.008": 5.53109535015,
			"-0.007": 11.6203970113,
			"-0.006": 12.9081831844,
			"-0.005": 13.4656579429,
			"-0.004": 11.3580400268,
			"-0.003": 9.62270992907,
			"-0.002": 10.2081322165,
			"-0.001": 13.9676013199,
			"0.0": 16.151771107,
			"0.001": 14.1910879185,
			"0.002": 20.9638402665,
			"0.003": 12.0937729698,
			"0.004": 5.29716467296,
			"0.005": 5.6830301149,
			"0.006": 4.90034336559,
			"0.007": 4.425547247,
			"0.008": 6.08286754461,
			"0.009": 5.84378057607,
			"0.01": 6.63990881498,
			"0.011": 5.4390702077,
			"0.012": 6.07500368768,
			"0.013": 6.61965198345,
			"0.014": 1.7388852348,
			"0.015": 0.0,
			"0.016": 0.0,
			"0.017": 0.0,
			"0.018": 0.0,
			"0.019": 0.0,
			"0.02": 0.0,
			"0.021": 0.0,
			"0.022": 0.0,
			"0.023": 0.0,
			"0.024": 0.0,
			"0.025": 0.0
		}
	}
}
