{
	 "smiles": "COC1=C(OC)C=C(C(O)=O)C(NC(=O)C2CCCCC2)=C1", 
	 "Tm": 429.15, 
	 "num_atms": 43, 
	 "gaussian": { 
		 "optdone": 1, 
		 "sigma_profile": "yes", 
		 "theory": "DFT", 
		 "functional": "B3LYP", 
		 "basiset": "6-31G**", 
		 "properties": { 
			 "R2extent": 8079.2834, 
			 "electric_dipole_moment_norm": 5.66456619169, 
			 "electric_quadrupole_moment_norm": 27.0266479877, 
			 "total_energy": -1053.2326197, 
			 "HOMO_LUMO_gap": 0.19765, 
			 "cosmo_polarized_energy": -19.47, 
			 "cosmo_cavitation_energy": 44.52, 
			 "cosmo_dispersion_energy": -29.84, 
			 "cosmo_repulsion_energy": 2.33, 
			 "cosmo_total_nonelectrostatic_energy": 17.01, 
			 "SMD_solvation_energy": 10.22 
		},
		"coords": [
			{
				"x": 1.4608413281,
				"y": -5.0786098045,
				"z": -0.7376187171,
				"element": "C" 
			},
			{
				"x": 0.6572446296,
				"y": -3.889005419,
				"z": -0.6624928497,
				"element": "O" 
			},
			{
				"x": 1.2824762825,
				"y": -2.7787060077,
				"z": -0.1630501372,
				"element": "C" 
			},
			{
				"x": 1.7455456953,
				"y": -2.7052824209,
				"z": 1.1683034341,
				"element": "C" 
			},
			{
				"x": 1.6352890309,
				"y": -3.7730077328,
				"z": 2.0251126955,
				"element": "O" 
			},
			{
				"x": 0.2982237211,
				"y": -4.0598844838,
				"z": 2.4609033935,
				"element": "C" 
			},
			{
				"x": 2.3607853671,
				"y": -1.5409000763,
				"z": 1.611624434,
				"element": "C" 
			},
			{
				"x": 2.5197487155,
				"y": -0.4218423671,
				"z": 0.7818692762,
				"element": "C" 
			},
			{
				"x": 3.2148345633,
				"y": 0.7658205683,
				"z": 1.4099931328,
				"element": "C" 
			},
			{
				"x": 3.4322788872,
				"y": 1.8400616017,
				"z": 0.6303656468,
				"element": "O" 
			},
			{
				"x": 3.567420797,
				"y": 0.755210316,
				"z": 2.5690281398,
				"element": "O" 
			},
			{
				"x": 2.0195317548,
				"y": -0.4889821409,
				"z": -0.5329608513,
				"element": "C" 
			},
			{
				"x": 2.1551768532,
				"y": 0.6259012682,
				"z": -1.4469605224,
				"element": "N" 
			},
			{
				"x": 1.0546270181,
				"y": 1.3747745605,
				"z": -1.9362760687,
				"element": "C" 
			},
			{
				"x": 1.1346435826,
				"y": 1.8798803165,
				"z": -3.0407972556,
				"element": "O" 
			},
			{
				"x": -0.1111874355,
				"y": 1.6049224629,
				"z": -0.9862894311,
				"element": "C" 
			},
			{
				"x": -1.4615809822,
				"y": 1.568871862,
				"z": -1.7491964778,
				"element": "C" 
			},
			{
				"x": -2.5354191855,
				"y": 2.4672957808,
				"z": -1.095949988,
				"element": "C" 
			},
			{
				"x": -2.3596994717,
				"y": 2.5284259653,
				"z": 0.4265569316,
				"element": "C" 
			},
			{
				"x": -1.0095418614,
				"y": 3.1856666273,
				"z": 0.8002449261,
				"element": "C" 
			},
			{
				"x": 0.0748788049,
				"y": 2.9729202795,
				"z": -0.2811140115,
				"element": "C" 
			},
			{
				"x": 1.4180568078,
				"y": -1.6647085284,
				"z": -0.9912201463,
				"element": "C" 
			},
			{
				"x": 2.2988211972,
				"y": -4.9292004518,
				"z": -1.4287707344,
				"element": "H" 
			},
			{
				"x": 1.8426464124,
				"y": -5.3657644593,
				"z": 0.2453496729,
				"element": "H" 
			},
			{
				"x": 0.8051780848,
				"y": -5.8585675717,
				"z": -1.1276927841,
				"element": "H" 
			},
			{
				"x": 0.3730635764,
				"y": -4.9272617672,
				"z": 3.1188801895,
				"element": "H" 
			},
			{
				"x": -0.1137189955,
				"y": -3.2128007304,
				"z": 3.0222440937,
				"element": "H" 
			},
			{
				"x": -0.3564186937,
				"y": -4.291651003,
				"z": 1.6147329322,
				"element": "H" 
			},
			{
				"x": 2.7292609709,
				"y": -1.4858873945,
				"z": 2.6295962722,
				"element": "H" 
			},
			{
				"x": 3.0775655599,
				"y": 1.6568548473,
				"z": -0.2688278761,
				"element": "H" 
			},
			{
				"x": 2.8091871368,
				"y": 0.4646120971,
				"z": -2.2103503256,
				"element": "H" 
			},
			{
				"x": -0.1001972037,
				"y": 0.8286466797,
				"z": -0.2143554766,
				"element": "H" 
			},
			{
				"x": -1.2864823858,
				"y": 1.8849678934,
				"z": -2.7815482484,
				"element": "H" 
			},
			{
				"x": -1.8161415852,
				"y": 0.5316054231,
				"z": -1.786551099,
				"element": "H" 
			},
			{
				"x": -2.4689580323,
				"y": 3.4839757312,
				"z": -1.5038964315,
				"element": "H" 
			},
			{
				"x": -3.5329307954,
				"y": 2.0984136937,
				"z": -1.3585925953,
				"element": "H" 
			},
			{
				"x": -3.1867891391,
				"y": 3.075018266,
				"z": 0.8924898277,
				"element": "H" 
			},
			{
				"x": -2.4039237393,
				"y": 1.5079467262,
				"z": 0.8301141896,
				"element": "H" 
			},
			{
				"x": -1.145919712,
				"y": 4.2632411446,
				"z": 0.9475839225,
				"element": "H" 
			},
			{
				"x": -0.6581150432,
				"y": 2.7870887784,
				"z": 1.7588208631,
				"element": "H" 
			},
			{
				"x": 0.0188772626,
				"y": 3.755116366,
				"z": -1.0465984985,
				"element": "H" 
			},
			{
				"x": 1.0698572209,
				"y": 3.0443621138,
				"z": 0.1696143415,
				"element": "H" 
			},
			{
				"x": 1.0482630005,
				"y": -1.7309390102,
				"z": -2.0096177889,
				"element": "H" 
			}
		],
		 "valence_orbital": [ 
			{
				"type": "occ",
				"energy": -0.28509,
				"method": "rhf"
			},
			{
				"type": "occ",
				"energy": -0.27238,
				"method": "rhf"
			},
			{
				"type": "occ",
				"energy": -0.26943,
				"method": "rhf"
			},
			{
				"type": "occ",
				"energy": -0.26427,
				"method": "rhf"
			},
			{
				"type": "occ",
				"energy": -0.25215,
				"method": "rhf"
			},
			{
				"type": "unocc",
				"energy": -0.0545,
				"method": "rhf"
			},
			{
				"type": "unocc",
				"energy": -0.03092,
				"method": "rhf"
			},
			{
				"type": "unocc",
				"energy": -0.00745,
				"method": "rhf"
			},
			{
				"type": "unocc",
				"energy": 0.05105,
				"method": "rhf"
			},
			{
				"type": "unocc",
				"energy": 0.07029,
				"method": "rhf"
			}
		],
		"cosmo_sigma_profile": { 
			"-0.025": 0.0,
			"-0.024": 0.0,
			"-0.023": 0.0,
			"-0.022": 0.0,
			"-0.021": 0.0,
			"-0.02": 0.0,
			"-0.019": 0.0,
			"-0.018": 0.0,
			"-0.017": 0.0,
			"-0.016": 0.0,
			"-0.015": 0.521063104553,
			"-0.014": 1.27894162931,
			"-0.013": 0.972656038915,
			"-0.012": 1.26181864331,
			"-0.011": 2.2234802282,
			"-0.01": 2.64191555562,
			"-0.009": 3.32854506317,
			"-0.008": 3.75248329142,
			"-0.007": 5.02725893573,
			"-0.006": 7.72872706127,
			"-0.005": 15.2411090268,
			"-0.004": 20.6176166526,
			"-0.003": 39.657283075,
			"-0.002": 47.0504809489,
			"-0.001": 43.0243189308,
			"0.0": 37.6728117989,
			"0.001": 32.4655361108,
			"0.002": 11.642648467,
			"0.003": 6.93643123186,
			"0.004": 5.88800406004,
			"0.005": 6.44531946519,
			"0.006": 5.87591197766,
			"0.007": 5.44552013927,
			"0.008": 4.69062996672,
			"0.009": 6.29335777122,
			"0.01": 7.8090506653,
			"0.011": 9.00893566429,
			"0.012": 10.3058969964,
			"0.013": 4.38323524083,
			"0.014": 0.415768943013,
			"0.015": 0.0,
			"0.016": 0.0,
			"0.017": 0.0,
			"0.018": 0.0,
			"0.019": 0.0,
			"0.02": 0.0,
			"0.021": 0.0,
			"0.022": 0.0,
			"0.023": 0.0,
			"0.024": 0.0,
			"0.025": 0.0
		}
	}
}
