{
	 "smiles": "OC(=O)C=CC1=CC=C(SC2=CC=C(Cl)C=C2)C(=C1)[N+]([O-])=O", 
	 "Tm": 507.15, 
	 "num_atms": 32, 
	 "gaussian": { 
		 "optdone": 1, 
		 "sigma_profile": "yes", 
		 "theory": "DFT", 
		 "functional": "B3LYP", 
		 "basiset": "6-31G**", 
		 "properties": { 
			 "R2extent": 12630.8061, 
			 "electric_dipole_moment_norm": 5.54835159214, 
			 "electric_quadrupole_moment_norm": 34.8040460149, 
			 "total_energy": -1791.52428472, 
			 "HOMO_LUMO_gap": 0.13675, 
			 "cosmo_polarized_energy": -23.68, 
			 "cosmo_cavitation_energy": 42.65, 
			 "cosmo_dispersion_energy": -30.09, 
			 "cosmo_repulsion_energy": 2.26, 
			 "cosmo_total_nonelectrostatic_energy": 14.82, 
			 "SMD_solvation_energy": 9.93 
		},
		"coords": [
			{
				"x": 5.4998533469,
				"y": 5.1529788299,
				"z": -0.7660926873,
				"element": "O" 
			},
			{
				"x": 4.4598216797,
				"y": 5.2081287092,
				"z": -1.643631718,
				"element": "C" 
			},
			{
				"x": 4.3993897243,
				"y": 6.0910568666,
				"z": -2.4657845957,
				"element": "O" 
			},
			{
				"x": 3.431713411,
				"y": 4.1347522501,
				"z": -1.55749767,
				"element": "C" 
			},
			{
				"x": 3.6579051991,
				"y": 2.9002269999,
				"z": -1.0734803592,
				"element": "C" 
			},
			{
				"x": 2.7141597831,
				"y": 1.7787483306,
				"z": -1.026009421,
				"element": "C" 
			},
			{
				"x": 3.1607156736,
				"y": 0.5230146735,
				"z": -0.5763728035,
				"element": "C" 
			},
			{
				"x": 2.3092306626,
				"y": -0.5754151505,
				"z": -0.539759584,
				"element": "C" 
			},
			{
				"x": 0.9595947702,
				"y": -0.4658646069,
				"z": -0.9015554014,
				"element": "C" 
			},
			{
				"x": -0.0616826377,
				"y": -1.9402450753,
				"z": -0.9840893857,
				"element": "S" 
			},
			{
				"x": -0.2543729711,
				"y": -2.3449281756,
				"z": 0.7571509728,
				"element": "C" 
			},
			{
				"x": -0.8684831385,
				"y": -1.4525379812,
				"z": 1.6462567353,
				"element": "C" 
			},
			{
				"x": -1.0452380646,
				"y": -1.8092337766,
				"z": 2.9814185186,
				"element": "C" 
			},
			{
				"x": -0.6305808006,
				"y": -3.0701101054,
				"z": 3.4150718435,
				"element": "C" 
			},
			{
				"x": -0.8622535942,
				"y": -3.5228680795,
				"z": 5.0953234298,
				"element": "Cl" 
			},
			{
				"x": -0.0377229134,
				"y": -3.9759329916,
				"z": 2.5371470214,
				"element": "C" 
			},
			{
				"x": 0.1577224046,
				"y": -3.6046246973,
				"z": 1.2060373256,
				"element": "C" 
			},
			{
				"x": 0.5171397948,
				"y": 0.8022972742,
				"z": -1.3158440017,
				"element": "C" 
			},
			{
				"x": 1.3699639464,
				"y": 1.8956505438,
				"z": -1.4093077317,
				"element": "C" 
			},
			{
				"x": -0.8987510802,
				"y": 1.0737853845,
				"z": -1.6424130122,
				"element": "N" 
			},
			{
				"x": -1.7540016269,
				"y": 0.6687768209,
				"z": -0.8597851243,
				"element": "O" 
			},
			{
				"x": -1.1168275956,
				"y": 1.7351609791,
				"z": -2.6540226675,
				"element": "O" 
			},
			{
				"x": 5.3060285693,
				"y": 4.5208954899,
				"z": -0.0601710509,
				"element": "H" 
			},
			{
				"x": 2.4884933682,
				"y": 4.4074385849,
				"z": -2.020176329,
				"element": "H" 
			},
			{
				"x": 4.6518966316,
				"y": 2.6607818604,
				"z": -0.6950266974,
				"element": "H" 
			},
			{
				"x": 4.1985766364,
				"y": 0.4013833549,
				"z": -0.2785489298,
				"element": "H" 
			},
			{
				"x": 2.6879316979,
				"y": -1.5453466829,
				"z": -0.2358298861,
				"element": "H" 
			},
			{
				"x": -1.2133788406,
				"y": -0.4890043498,
				"z": 1.2875078135,
				"element": "H" 
			},
			{
				"x": -1.5148090924,
				"y": -1.1228825264,
				"z": 3.6774374646,
				"element": "H" 
			},
			{
				"x": 0.2769667718,
				"y": -4.9515832664,
				"z": 2.8904424206,
				"element": "H" 
			},
			{
				"x": 0.6326205168,
				"y": -4.2964986615,
				"z": 0.5177540007,
				"element": "H" 
			},
			{
				"x": 0.9627777672,
				"y": 2.8334991747,
				"z": -1.7673484901,
				"element": "H" 
			}
		],
		 "valence_orbital": [ 
			{
				"type": "occ",
				"energy": -0.28606,
				"method": "rhf"
			},
			{
				"type": "occ",
				"energy": -0.27953,
				"method": "rhf"
			},
			{
				"type": "occ",
				"energy": -0.27855,
				"method": "rhf"
			},
			{
				"type": "occ",
				"energy": -0.26986,
				"method": "rhf"
			},
			{
				"type": "occ",
				"energy": -0.23992,
				"method": "rhf"
			},
			{
				"type": "unocc",
				"energy": -0.10317,
				"method": "rhf"
			},
			{
				"type": "unocc",
				"energy": -0.09323,
				"method": "rhf"
			},
			{
				"type": "unocc",
				"energy": -0.04195,
				"method": "rhf"
			},
			{
				"type": "unocc",
				"energy": -0.03734,
				"method": "rhf"
			},
			{
				"type": "unocc",
				"energy": -0.03024,
				"method": "rhf"
			}
		],
		"cosmo_sigma_profile": { 
			"-0.025": 0.0,
			"-0.024": 0.0,
			"-0.023": 0.0,
			"-0.022": 0.0,
			"-0.021": 0.0,
			"-0.02": 0.0,
			"-0.019": 0.58982855957,
			"-0.018": 0.571849142862,
			"-0.017": 1.13820025271,
			"-0.016": 0.999423451384,
			"-0.015": 1.34130427724,
			"-0.014": 0.505556941228,
			"-0.013": 0.790574551887,
			"-0.012": 1.85763235586,
			"-0.011": 2.48280634603,
			"-0.01": 3.41863974229,
			"-0.009": 5.01622770177,
			"-0.008": 10.1675443765,
			"-0.007": 15.0517439789,
			"-0.006": 14.7855356271,
			"-0.005": 14.2958881347,
			"-0.004": 14.8396724378,
			"-0.003": 17.9295367351,
			"-0.002": 21.8968557436,
			"-0.001": 27.9322899413,
			"0.0": 30.1980900114,
			"0.001": 29.9816621587,
			"0.002": 25.8087459419,
			"0.003": 22.9238837505,
			"0.004": 17.6084951522,
			"0.005": 11.3709090856,
			"0.006": 8.17748874504,
			"0.007": 12.3592829038,
			"0.008": 9.24521736959,
			"0.009": 6.41081793605,
			"0.01": 5.12576803002,
			"0.011": 5.35718372475,
			"0.012": 5.54421051922,
			"0.013": 1.94439492347,
			"0.014": 0.0431569990809,
			"0.015": 0.0,
			"0.016": 0.0,
			"0.017": 0.0,
			"0.018": 0.0,
			"0.019": 0.0,
			"0.02": 0.0,
			"0.021": 0.0,
			"0.022": 0.0,
			"0.023": 0.0,
			"0.024": 0.0,
			"0.025": 0.0
		}
	}
}
