{
	 "smiles": "CN(C)CCN(C)C", 
	 "Tm": 218.15, 
	 "num_atms": 24, 
	 "gaussian": { 
		 "optdone": 1, 
		 "sigma_profile": "yes", 
		 "theory": "DFT", 
		 "functional": "B3LYP", 
		 "basiset": "6-31G**", 
		 "properties": { 
			 "R2extent": 1528.1633, 
			 "electric_dipole_moment_norm": 0.872320772423, 
			 "electric_quadrupole_moment_norm": 2.22240585177, 
			 "total_energy": -347.759959215, 
			 "HOMO_LUMO_gap": 0.27967, 
			 "cosmo_polarized_energy": -3.64, 
			 "cosmo_cavitation_energy": 24.52, 
			 "cosmo_dispersion_energy": -17.56, 
			 "cosmo_repulsion_energy": 1.46, 
			 "cosmo_total_nonelectrostatic_energy": 8.41, 
			 "SMD_solvation_energy": 2.05 
		},
		"coords": [
			{
				"x": -1.8209006755,
				"y": 2.0154767563,
				"z": 0.7193639161,
				"element": "C" 
			},
			{
				"x": -0.77711396,
				"y": 1.0000902029,
				"z": 0.7587052898,
				"element": "N" 
			},
			{
				"x": 0.1668480705,
				"y": 1.1903172978,
				"z": -0.3398356242,
				"element": "C" 
			},
			{
				"x": -1.3432624983,
				"y": -0.3482867078,
				"z": 0.8026997898,
				"element": "C" 
			},
			{
				"x": -0.3920650949,
				"y": -1.4158893103,
				"z": 1.3631003161,
				"element": "C" 
			},
			{
				"x": 0.6841126334,
				"y": -1.8534085076,
				"z": 0.4677671103,
				"element": "N" 
			},
			{
				"x": 0.1954631707,
				"y": -2.6843570234,
				"z": -0.6258502139,
				"element": "C" 
			},
			{
				"x": 1.7343011239,
				"y": -2.5423629335,
				"z": 1.2078448623,
				"element": "C" 
			},
			{
				"x": -2.4773809162,
				"y": 1.9171421312,
				"z": 1.5904183565,
				"element": "H" 
			},
			{
				"x": -1.3645148366,
				"y": 3.0104392622,
				"z": 0.7519069334,
				"element": "H" 
			},
			{
				"x": -2.4511459518,
				"y": 1.9666467724,
				"z": -0.1911963898,
				"element": "H" 
			},
			{
				"x": 0.6381988353,
				"y": 2.1751407162,
				"z": -0.2494125162,
				"element": "H" 
			},
			{
				"x": -0.3213208584,
				"y": 1.1398254048,
				"z": -1.3344034896,
				"element": "H" 
			},
			{
				"x": 0.9367825671,
				"y": 0.4190528289,
				"z": -0.2987525552,
				"element": "H" 
			},
			{
				"x": -1.7517752453,
				"y": -0.6591866975,
				"z": -0.1794357916,
				"element": "H" 
			},
			{
				"x": -2.2003572084,
				"y": -0.3174947396,
				"z": 1.4857006121,
				"element": "H" 
			},
			{
				"x": -1.0022654918,
				"y": -2.2824980756,
				"z": 1.6923899574,
				"element": "H" 
			},
			{
				"x": 0.0700742896,
				"y": -0.9901628898,
				"z": 2.2598097401,
				"element": "H" 
			},
			{
				"x": -0.5398966408,
				"y": -2.1399534893,
				"z": -1.2235563555,
				"element": "H" 
			},
			{
				"x": 1.0276807015,
				"y": -2.9508128497,
				"z": -1.2850922274,
				"element": "H" 
			},
			{
				"x": -0.2777551811,
				"y": -3.6228971032,
				"z": -0.2748784944,
				"element": "H" 
			},
			{
				"x": 2.5473081503,
				"y": -2.8155124861,
				"z": 0.5272774269,
				"element": "H" 
			},
			{
				"x": 2.1434351094,
				"y": -1.8803497227,
				"z": 1.977199291,
				"element": "H" 
			},
			{
				"x": 1.3836499072,
				"y": -3.4686588365,
				"z": 1.7042300561,
				"element": "H" 
			}
		],
		 "valence_orbital": [ 
			{
				"type": "occ",
				"energy": -0.34409,
				"method": "rhf"
			},
			{
				"type": "occ",
				"energy": -0.34094,
				"method": "rhf"
			},
			{
				"type": "occ",
				"energy": -0.33375,
				"method": "rhf"
			},
			{
				"type": "occ",
				"energy": -0.21462,
				"method": "rhf"
			},
			{
				"type": "occ",
				"energy": -0.19809,
				"method": "rhf"
			},
			{
				"type": "unocc",
				"energy": 0.08158,
				"method": "rhf"
			},
			{
				"type": "unocc",
				"energy": 0.10051,
				"method": "rhf"
			},
			{
				"type": "unocc",
				"energy": 0.12634,
				"method": "rhf"
			},
			{
				"type": "unocc",
				"energy": 0.13481,
				"method": "rhf"
			},
			{
				"type": "unocc",
				"energy": 0.14267,
				"method": "rhf"
			}
		],
		"cosmo_sigma_profile": { 
			"-0.025": 0.0,
			"-0.024": 0.0,
			"-0.023": 0.0,
			"-0.022": 0.0,
			"-0.021": 0.0,
			"-0.02": 0.0,
			"-0.019": 0.0,
			"-0.018": 0.0,
			"-0.017": 0.0,
			"-0.016": 0.0,
			"-0.015": 0.0,
			"-0.014": 0.0,
			"-0.013": 0.0,
			"-0.012": 0.0,
			"-0.011": 0.0,
			"-0.01": 0.0,
			"-0.009": 0.0,
			"-0.008": 0.0,
			"-0.007": 0.0,
			"-0.006": 0.0,
			"-0.005": 0.0,
			"-0.004": 8.03492845631,
			"-0.003": 21.4051411749,
			"-0.002": 24.842361171,
			"-0.001": 39.7925994435,
			"0.0": 46.6031001212,
			"0.001": 20.7458180458,
			"0.002": 4.50905862604,
			"0.003": 3.18101541357,
			"0.004": 2.87311564203,
			"0.005": 3.32834791771,
			"0.006": 2.34001333724,
			"0.007": 3.08372850278,
			"0.008": 1.75600656136,
			"0.009": 1.61536309352,
			"0.01": 1.09854469159,
			"0.011": 0.615914551451,
			"0.012": 0.487293209254,
			"0.013": 0.918096863517,
			"0.014": 0.154407615289,
			"0.015": 0.475716978278,
			"0.016": 0.373936692442,
			"0.017": 0.22071150128,
			"0.018": 0.0,
			"0.019": 0.0,
			"0.02": 0.0,
			"0.021": 0.0,
			"0.022": 0.0,
			"0.023": 0.0,
			"0.024": 0.0,
			"0.025": 0.0
		}
	}
}
