{
	 "smiles": "CCOC(=O)C1=C2CCCC(=O)C2=C(SC)S1", 
	 "Tm": 383.15, 
	 "num_atms": 31, 
	 "gaussian": { 
		 "optdone": 1, 
		 "sigma_profile": "yes", 
		 "theory": "DFT", 
		 "functional": "B3LYP", 
		 "basiset": "6-31G**", 
		 "properties": { 
			 "R2extent": 6954.1116, 
			 "electric_dipole_moment_norm": 4.22266350187, 
			 "electric_quadrupole_moment_norm": 14.248482535, 
			 "total_energy": -1487.77777457, 
			 "HOMO_LUMO_gap": 0.15342, 
			 "cosmo_polarized_energy": -11.74, 
			 "cosmo_cavitation_energy": 36.48, 
			 "cosmo_dispersion_energy": -27.14, 
			 "cosmo_repulsion_energy": 2.05, 
			 "cosmo_total_nonelectrostatic_energy": 11.39, 
			 "SMD_solvation_energy": 6.95 
		},
		"coords": [
			{
				"x": -0.8129400487,
				"y": 3.6730557694,
				"z": 2.2192086132,
				"element": "C" 
			},
			{
				"x": -1.4032149922,
				"y": 3.5078813659,
				"z": 0.8272949057,
				"element": "C" 
			},
			{
				"x": -1.1665938043,
				"y": 2.173969989,
				"z": 0.3079515054,
				"element": "O" 
			},
			{
				"x": -2.0572362029,
				"y": 1.2243227597,
				"z": 0.6752001477,
				"element": "C" 
			},
			{
				"x": -3.0131921854,
				"y": 1.436263998,
				"z": 1.4012066031,
				"element": "O" 
			},
			{
				"x": -1.754450514,
				"y": -0.1048673139,
				"z": 0.1205062938,
				"element": "C" 
			},
			{
				"x": -0.788895816,
				"y": -0.5599817169,
				"z": -0.7563269187,
				"element": "C" 
			},
			{
				"x": 0.2729174271,
				"y": 0.2677335222,
				"z": -1.4390432531,
				"element": "C" 
			},
			{
				"x": 0.6307704186,
				"y": -0.3257595775,
				"z": -2.8084842211,
				"element": "C" 
			},
			{
				"x": 1.0290909586,
				"y": -1.7978640256,
				"z": -2.6782274443,
				"element": "C" 
			},
			{
				"x": -0.0149627349,
				"y": -2.662137119,
				"z": -1.9760871655,
				"element": "C" 
			},
			{
				"x": -0.0745825804,
				"y": -3.8633210161,
				"z": -2.2073589157,
				"element": "O" 
			},
			{
				"x": -0.9046375101,
				"y": -1.9732724101,
				"z": -1.0117965365,
				"element": "C" 
			},
			{
				"x": -1.9676238278,
				"y": -2.5601401696,
				"z": -0.3181982339,
				"element": "C" 
			},
			{
				"x": -2.6557568975,
				"y": -4.1843546968,
				"z": -0.3391882509,
				"element": "S" 
			},
			{
				"x": -1.2687314817,
				"y": -5.2492409927,
				"z": 0.2039077031,
				"element": "C" 
			},
			{
				"x": -2.8027837363,
				"y": -1.3964256214,
				"z": 0.6507697953,
				"element": "S" 
			},
			{
				"x": -1.322093064,
				"y": 3.0202066468,
				"z": 2.9319101977,
				"element": "H" 
			},
			{
				"x": 0.2555158778,
				"y": 3.4380917323,
				"z": 2.2208285597,
				"element": "H" 
			},
			{
				"x": -0.9374799771,
				"y": 4.7087649657,
				"z": 2.5524523829,
				"element": "H" 
			},
			{
				"x": -2.4785720465,
				"y": 3.6986277952,
				"z": 0.8284521814,
				"element": "H" 
			},
			{
				"x": -0.9168689869,
				"y": 4.1662541613,
				"z": 0.1037460655,
				"element": "H" 
			},
			{
				"x": 1.1717580527,
				"y": 0.2902471692,
				"z": -0.8049931999,
				"element": "H" 
			},
			{
				"x": -0.0595243744,
				"y": 1.3018936579,
				"z": -1.5301713655,
				"element": "H" 
			},
			{
				"x": 1.4467373538,
				"y": 0.2475864318,
				"z": -3.2612041717,
				"element": "H" 
			},
			{
				"x": -0.2314204787,
				"y": -0.234762066,
				"z": -3.4809407629,
				"element": "H" 
			},
			{
				"x": 1.9522041125,
				"y": -1.8782522455,
				"z": -2.0838083803,
				"element": "H" 
			},
			{
				"x": 1.2396382233,
				"y": -2.2651559888,
				"z": -3.6442500968,
				"element": "H" 
			},
			{
				"x": -1.6929153739,
				"y": -6.2536918664,
				"z": 0.2753348235,
				"element": "H" 
			},
			{
				"x": -0.4746586061,
				"y": -5.2240835181,
				"z": -0.5406049149,
				"element": "H" 
			},
			{
				"x": -0.9121971845,
				"y": -4.9367896198,
				"z": 1.1869140537,
				"element": "H" 
			}
		],
		 "valence_orbital": [ 
			{
				"type": "occ",
				"energy": -0.2835,
				"method": "rhf"
			},
			{
				"type": "occ",
				"energy": -0.26527,
				"method": "rhf"
			},
			{
				"type": "occ",
				"energy": -0.26287,
				"method": "rhf"
			},
			{
				"type": "occ",
				"energy": -0.24758,
				"method": "rhf"
			},
			{
				"type": "occ",
				"energy": -0.22491,
				"method": "rhf"
			},
			{
				"type": "unocc",
				"energy": -0.07149,
				"method": "rhf"
			},
			{
				"type": "unocc",
				"energy": -0.04193,
				"method": "rhf"
			},
			{
				"type": "unocc",
				"energy": 0.02155,
				"method": "rhf"
			},
			{
				"type": "unocc",
				"energy": 0.04016,
				"method": "rhf"
			},
			{
				"type": "unocc",
				"energy": 0.05816,
				"method": "rhf"
			}
		],
		"cosmo_sigma_profile": { 
			"-0.025": 0.0,
			"-0.024": 0.0,
			"-0.023": 0.0,
			"-0.022": 0.0,
			"-0.021": 0.0,
			"-0.02": 0.0,
			"-0.019": 0.0,
			"-0.018": 0.0,
			"-0.017": 0.0,
			"-0.016": 0.0,
			"-0.015": 0.0,
			"-0.014": 0.0,
			"-0.013": 0.0,
			"-0.012": 0.0,
			"-0.011": 0.0,
			"-0.01": 0.0,
			"-0.009": 0.0,
			"-0.008": 0.0829208106564,
			"-0.007": 2.11872110725,
			"-0.006": 9.52452398542,
			"-0.005": 16.5995610359,
			"-0.004": 28.0897687093,
			"-0.003": 32.7852140145,
			"-0.002": 36.6660895714,
			"-0.001": 34.969698245,
			"0.0": 32.7420983652,
			"0.001": 22.3748296909,
			"0.002": 15.9454563079,
			"0.003": 10.389669816,
			"0.004": 7.78714363669,
			"0.005": 7.58316498357,
			"0.006": 5.23322708073,
			"0.007": 4.90432203079,
			"0.008": 4.95808307312,
			"0.009": 2.75243129327,
			"0.01": 4.62704170928,
			"0.011": 6.03186525536,
			"0.012": 4.956442912,
			"0.013": 1.29707875366,
			"0.014": 0.16864238599,
			"0.015": 0.0,
			"0.016": 0.0,
			"0.017": 0.0,
			"0.018": 0.0,
			"0.019": 0.0,
			"0.02": 0.0,
			"0.021": 0.0,
			"0.022": 0.0,
			"0.023": 0.0,
			"0.024": 0.0,
			"0.025": 0.0
		}
	}
}
