{
	 "smiles": "BrCC1=C(Br)C=CC=C1", 
	 "Tm": 304.15, 
	 "num_atms": 15, 
	 "gaussian": { 
		 "optdone": 1, 
		 "sigma_profile": "yes", 
		 "theory": "DFT", 
		 "functional": "B3LYP", 
		 "basiset": "6-31G**", 
		 "properties": { 
			 "R2extent": 5079.1048, 
			 "electric_dipole_moment_norm": 2.98798687748, 
			 "electric_quadrupole_moment_norm": 9.76646579577, 
			 "total_energy": -5413.17347565, 
			 "HOMO_LUMO_gap": 0.20307, 
			 "cosmo_polarized_energy": -6.44, 
			 "cosmo_cavitation_energy": 23.27, 
			 "cosmo_dispersion_energy": -17.72, 
			 "cosmo_repulsion_energy": 1.45, 
			 "cosmo_total_nonelectrostatic_energy": 7.0, 
			 "SMD_solvation_energy": 1.71 
		},
		"coords": [
			{
				"x": 0.4837902452,
				"y": -3.875319306,
				"z": 0.827157371,
				"element": "Br" 
			},
			{
				"x": 1.3153644052,
				"y": -2.0727787524,
				"z": 1.0984546926,
				"element": "C" 
			},
			{
				"x": 0.3027043453,
				"y": -0.9766670603,
				"z": 1.071822058,
				"element": "C" 
			},
			{
				"x": -0.3768207184,
				"y": -0.5295851542,
				"z": 2.2163214888,
				"element": "C" 
			},
			{
				"x": -0.0543902543,
				"y": -1.3334831066,
				"z": 3.9233059918,
				"element": "Br" 
			},
			{
				"x": -1.3039236211,
				"y": 0.5098811543,
				"z": 2.1567155464,
				"element": "C" 
			},
			{
				"x": -1.5735211314,
				"y": 1.1247640537,
				"z": 0.9347393698,
				"element": "C" 
			},
			{
				"x": -0.9149247493,
				"y": 0.6999415089,
				"z": -0.2201757819,
				"element": "C" 
			},
			{
				"x": 0.0094719717,
				"y": -0.3376383897,
				"z": -0.1438802096,
				"element": "C" 
			},
			{
				"x": 2.0313056639,
				"y": -1.9823215844,
				"z": 0.2843446197,
				"element": "H" 
			},
			{
				"x": 1.8291757134,
				"y": -2.1534792296,
				"z": 2.0527476084,
				"element": "H" 
			},
			{
				"x": -1.8071856373,
				"y": 0.8314795726,
				"z": 3.0612097948,
				"element": "H" 
			},
			{
				"x": -2.2962333849,
				"y": 1.9339219861,
				"z": 0.8908459885,
				"element": "H" 
			},
			{
				"x": -1.1194864449,
				"y": 1.1749294156,
				"z": -1.1745583288,
				"element": "H" 
			},
			{
				"x": 0.5202735969,
				"y": -0.6744451081,
				"z": -1.0419502095,
				"element": "H" 
			}
		],
		 "valence_orbital": [ 
			{
				"type": "occ",
				"energy": -0.29377,
				"method": "rhf"
			},
			{
				"type": "occ",
				"energy": -0.27614,
				"method": "rhf"
			},
			{
				"type": "occ",
				"energy": -0.26908,
				"method": "rhf"
			},
			{
				"type": "occ",
				"energy": -0.26162,
				"method": "rhf"
			},
			{
				"type": "occ",
				"energy": -0.24908,
				"method": "rhf"
			},
			{
				"type": "unocc",
				"energy": -0.04601,
				"method": "rhf"
			},
			{
				"type": "unocc",
				"energy": -0.02159,
				"method": "rhf"
			},
			{
				"type": "unocc",
				"energy": 0.00158,
				"method": "rhf"
			},
			{
				"type": "unocc",
				"energy": 0.02375,
				"method": "rhf"
			},
			{
				"type": "unocc",
				"energy": 0.09325,
				"method": "rhf"
			}
		],
		"cosmo_sigma_profile": { 
			"-0.025": 0.0,
			"-0.024": 0.0,
			"-0.023": 0.0,
			"-0.022": 0.0,
			"-0.021": 0.0,
			"-0.02": 0.0,
			"-0.019": 0.0,
			"-0.018": 0.0,
			"-0.017": 0.0,
			"-0.016": 0.0,
			"-0.015": 0.0,
			"-0.014": 0.0,
			"-0.013": 0.0,
			"-0.012": 0.0,
			"-0.011": 0.0,
			"-0.01": 0.0,
			"-0.009": 0.282552853512,
			"-0.008": 3.52896230344,
			"-0.007": 8.53870408041,
			"-0.006": 12.3277713128,
			"-0.005": 12.6189066346,
			"-0.004": 12.338319519,
			"-0.003": 10.4831999846,
			"-0.002": 10.3893642616,
			"-0.001": 11.0567143295,
			"0.0": 10.9431593224,
			"0.001": 14.9047075377,
			"0.002": 17.9435073301,
			"0.003": 23.7230124947,
			"0.004": 18.7282446046,
			"0.005": 10.3559936395,
			"0.006": 12.275931012,
			"0.007": 2.39573068657,
			"0.008": 0.0,
			"0.009": 0.0,
			"0.01": 0.0,
			"0.011": 0.0,
			"0.012": 0.0,
			"0.013": 0.0,
			"0.014": 0.0,
			"0.015": 0.0,
			"0.016": 0.0,
			"0.017": 0.0,
			"0.018": 0.0,
			"0.019": 0.0,
			"0.02": 0.0,
			"0.021": 0.0,
			"0.022": 0.0,
			"0.023": 0.0,
			"0.024": 0.0,
			"0.025": 0.0
		}
	}
}
