{
	 "smiles": "NCC1CCNCC1", 
	 "Tm": 297.65, 
	 "num_atms": 22, 
	 "gaussian": { 
		 "optdone": 1, 
		 "sigma_profile": "yes", 
		 "theory": "DFT", 
		 "functional": "B3LYP", 
		 "basiset": "6-31G**", 
		 "properties": { 
			 "R2extent": 1459.036, 
			 "electric_dipole_moment_norm": 2.10714009501, 
			 "electric_quadrupole_moment_norm": 7.14188913034, 
			 "total_energy": -346.565291316, 
			 "HOMO_LUMO_gap": 0.27401, 
			 "cosmo_polarized_energy": -8.19, 
			 "cosmo_cavitation_energy": 22.18, 
			 "cosmo_dispersion_energy": -16.78, 
			 "cosmo_repulsion_energy": 1.4, 
			 "cosmo_total_nonelectrostatic_energy": 6.81, 
			 "SMD_solvation_energy": -0.67 
		},
		"coords": [
			{
				"x": 3.1494336513,
				"y": -0.5229913448,
				"z": -0.9806154261,
				"element": "N" 
			},
			{
				"x": 1.9583297843,
				"y": -1.3323219918,
				"z": -1.2408256621,
				"element": "C" 
			},
			{
				"x": 0.5825540623,
				"y": -0.6525624269,
				"z": -1.0598087375,
				"element": "C" 
			},
			{
				"x": -0.5408647607,
				"y": -1.567337119,
				"z": -1.608910337,
				"element": "C" 
			},
			{
				"x": -1.8978010491,
				"y": -1.2386737927,
				"z": -0.9844995461,
				"element": "C" 
			},
			{
				"x": -1.8766644674,
				"y": -1.5463206537,
				"z": 0.4558837121,
				"element": "N" 
			},
			{
				"x": -0.5686510152,
				"y": -1.3395347429,
				"z": 1.1014626972,
				"element": "C" 
			},
			{
				"x": 0.2872130867,
				"y": -0.2653499287,
				"z": 0.4147020294,
				"element": "C" 
			},
			{
				"x": 3.165929951,
				"y": -0.2153753739,
				"z": -0.011334141,
				"element": "H" 
			},
			{
				"x": 3.1252272688,
				"y": 0.3219266558,
				"z": -1.5479027994,
				"element": "H" 
			},
			{
				"x": 2.0083548221,
				"y": -2.2195114191,
				"z": -0.5947298643,
				"element": "H" 
			},
			{
				"x": 2.0295273911,
				"y": -1.7057098122,
				"z": -2.270856913,
				"element": "H" 
			},
			{
				"x": 0.5955969888,
				"y": 0.2695604914,
				"z": -1.6595350553,
				"element": "H" 
			},
			{
				"x": -0.5986745612,
				"y": -1.4820301716,
				"z": -2.6995295069,
				"element": "H" 
			},
			{
				"x": -0.3066270324,
				"y": -2.6182497721,
				"z": -1.391165604,
				"element": "H" 
			},
			{
				"x": -2.1285623885,
				"y": -0.177941305,
				"z": -1.1934774228,
				"element": "H" 
			},
			{
				"x": -2.6900417726,
				"y": -1.829321379,
				"z": -1.4621634293,
				"element": "H" 
			},
			{
				"x": -2.5812137556,
				"y": -0.9907275594,
				"z": 0.9290302659,
				"element": "H" 
			},
			{
				"x": -0.7393655955,
				"y": -1.0871077516,
				"z": 2.1533691942,
				"element": "H" 
			},
			{
				"x": -0.0140548129,
				"y": -2.2892169316,
				"z": 1.1063067233,
				"element": "H" 
			},
			{
				"x": 1.2220269164,
				"y": -0.1114326545,
				"z": 0.9697223899,
				"element": "H" 
			},
			{
				"x": -0.2474727116,
				"y": 0.6919289832,
				"z": 0.4544774329,
				"element": "H" 
			}
		],
		 "valence_orbital": [ 
			{
				"type": "occ",
				"energy": -0.32603,
				"method": "rhf"
			},
			{
				"type": "occ",
				"energy": -0.31511,
				"method": "rhf"
			},
			{
				"type": "occ",
				"energy": -0.30524,
				"method": "rhf"
			},
			{
				"type": "occ",
				"energy": -0.22786,
				"method": "rhf"
			},
			{
				"type": "occ",
				"energy": -0.20659,
				"method": "rhf"
			},
			{
				"type": "unocc",
				"energy": 0.06742,
				"method": "rhf"
			},
			{
				"type": "unocc",
				"energy": 0.0939,
				"method": "rhf"
			},
			{
				"type": "unocc",
				"energy": 0.10183,
				"method": "rhf"
			},
			{
				"type": "unocc",
				"energy": 0.11287,
				"method": "rhf"
			},
			{
				"type": "unocc",
				"energy": 0.12886,
				"method": "rhf"
			}
		],
		"cosmo_sigma_profile": { 
			"-0.025": 0.0,
			"-0.024": 0.0,
			"-0.023": 0.0,
			"-0.022": 0.0,
			"-0.021": 0.0,
			"-0.02": 0.0,
			"-0.019": 0.0,
			"-0.018": 0.0,
			"-0.017": 0.0,
			"-0.016": 0.0,
			"-0.015": 0.0,
			"-0.014": 0.0,
			"-0.013": 0.0,
			"-0.012": 0.0,
			"-0.011": 0.0,
			"-0.01": 0.195251078601,
			"-0.009": 2.81111997894,
			"-0.008": 3.7794168549,
			"-0.007": 4.45840913437,
			"-0.006": 4.97683877066,
			"-0.005": 3.55908125822,
			"-0.004": 6.88937850178,
			"-0.003": 10.7391293242,
			"-0.002": 29.7277790533,
			"-0.001": 33.4993585272,
			"0.0": 24.1388925169,
			"0.001": 14.0380555017,
			"0.002": 3.48943519575,
			"0.003": 3.83842637293,
			"0.004": 2.66285671008,
			"0.005": 1.82826522163,
			"0.006": 0.986148067124,
			"0.007": 1.14959646055,
			"0.008": 1.3470646441,
			"0.009": 1.56556176095,
			"0.01": 2.34988818098,
			"0.011": 0.960029503648,
			"0.012": 1.04188124479,
			"0.013": 1.5666171981,
			"0.014": 1.46486338174,
			"0.015": 0.801647935749,
			"0.016": 1.25065282916,
			"0.017": 1.49925119434,
			"0.018": 1.06715545436,
			"0.019": 1.23641560893,
			"0.02": 0.428661963844,
			"0.021": 0.0410058465354,
			"0.022": 0.0,
			"0.023": 0.0,
			"0.024": 0.0,
			"0.025": 0.0
		}
	}
}
