{
	 "smiles": "CCN(C)C(=O)C1=CC(=CC=C1)C(O)=O", 
	 "Tm": 376.15, 
	 "num_atms": 28, 
	 "gaussian": { 
		 "optdone": 1, 
		 "sigma_profile": "yes", 
		 "theory": "DFT", 
		 "functional": "B3LYP", 
		 "basiset": "6-31G**", 
		 "properties": { 
			 "R2extent": 5147.8874, 
			 "electric_dipole_moment_norm": 6.11554622417, 
			 "electric_quadrupole_moment_norm": 21.4693823488, 
			 "total_energy": -707.451323097, 
			 "HOMO_LUMO_gap": 0.18972, 
			 "cosmo_polarized_energy": -18.34, 
			 "cosmo_cavitation_energy": 31.55, 
			 "cosmo_dispersion_energy": -22.53, 
			 "cosmo_repulsion_energy": 1.76, 
			 "cosmo_total_nonelectrostatic_energy": 10.78, 
			 "SMD_solvation_energy": 7.07 
		},
		"coords": [
			{
				"x": 1.197798896,
				"y": -2.1205720908,
				"z": -1.2815115613,
				"element": "C" 
			},
			{
				"x": 0.3759616807,
				"y": -2.1266632441,
				"z": 0.0104116375,
				"element": "C" 
			},
			{
				"x": 1.0948881852,
				"y": -1.6029960893,
				"z": 1.1790979329,
				"element": "N" 
			},
			{
				"x": 2.0785400983,
				"y": -2.5079771419,
				"z": 1.7710462879,
				"element": "C" 
			},
			{
				"x": 0.6152247254,
				"y": -0.6068520228,
				"z": 2.0009630917,
				"element": "C" 
			},
			{
				"x": 0.9794891122,
				"y": -0.4983271735,
				"z": 3.1713384885,
				"element": "O" 
			},
			{
				"x": -0.3498252367,
				"y": 0.4101402262,
				"z": 1.4443104231,
				"element": "C" 
			},
			{
				"x": -1.3459022757,
				"y": 0.874514969,
				"z": 2.312452746,
				"element": "C" 
			},
			{
				"x": -2.2394931698,
				"y": 1.8713073984,
				"z": 1.912275751,
				"element": "C" 
			},
			{
				"x": -2.1325342593,
				"y": 2.4172624599,
				"z": 0.6244272434,
				"element": "C" 
			},
			{
				"x": -1.1198683833,
				"y": 1.991744849,
				"z": -0.2292425238,
				"element": "C" 
			},
			{
				"x": -0.2313117363,
				"y": 0.9920243558,
				"z": 0.1762391957,
				"element": "C" 
			},
			{
				"x": -3.342235145,
				"y": 2.3805544755,
				"z": 2.7947633701,
				"element": "C" 
			},
			{
				"x": -3.2046350172,
				"y": 2.1756979987,
				"z": 4.1299141096,
				"element": "O" 
			},
			{
				"x": -4.3183563731,
				"y": 2.9504008694,
				"z": 2.3661988902,
				"element": "O" 
			},
			{
				"x": 0.6057876529,
				"y": -2.5424487878,
				"z": -2.1000335033,
				"element": "H" 
			},
			{
				"x": 2.1076506776,
				"y": -2.7208593455,
				"z": -1.1892383276,
				"element": "H" 
			},
			{
				"x": 1.4945849148,
				"y": -1.1057474148,
				"z": -1.5627662736,
				"element": "H" 
			},
			{
				"x": 0.062497042,
				"y": -3.1558605035,
				"z": 0.2383259492,
				"element": "H" 
			},
			{
				"x": -0.538238213,
				"y": -1.5480118558,
				"z": -0.1253168766,
				"element": "H" 
			},
			{
				"x": 1.5915721959,
				"y": -3.3396367935,
				"z": 2.2983223894,
				"element": "H" 
			},
			{
				"x": 2.6848071356,
				"y": -1.9582200188,
				"z": 2.488768006,
				"element": "H" 
			},
			{
				"x": 2.7184714102,
				"y": -2.9174618254,
				"z": 0.9859325276,
				"element": "H" 
			},
			{
				"x": -1.4008167104,
				"y": 0.4152872109,
				"z": 3.2953018457,
				"element": "H" 
			},
			{
				"x": -2.8449200503,
				"y": 3.1779688633,
				"z": 0.3242011485,
				"element": "H" 
			},
			{
				"x": -1.0163053077,
				"y": 2.4386205527,
				"z": -1.2133979389,
				"element": "H" 
			},
			{
				"x": 0.5672552829,
				"y": 0.6796961757,
				"z": -0.4884579676,
				"element": "H" 
			},
			{
				"x": -2.3156871317,
				"y": 1.8527139031,
				"z": 4.3339739385,
				"element": "H" 
			}
		],
		 "valence_orbital": [ 
			{
				"type": "occ",
				"energy": -0.28209,
				"method": "rhf"
			},
			{
				"type": "occ",
				"energy": -0.27914,
				"method": "rhf"
			},
			{
				"type": "occ",
				"energy": -0.26835,
				"method": "rhf"
			},
			{
				"type": "occ",
				"energy": -0.25859,
				"method": "rhf"
			},
			{
				"type": "occ",
				"energy": -0.24659,
				"method": "rhf"
			},
			{
				"type": "unocc",
				"energy": -0.05687,
				"method": "rhf"
			},
			{
				"type": "unocc",
				"energy": -0.04193,
				"method": "rhf"
			},
			{
				"type": "unocc",
				"energy": 0.02241,
				"method": "rhf"
			},
			{
				"type": "unocc",
				"energy": 0.05522,
				"method": "rhf"
			},
			{
				"type": "unocc",
				"energy": 0.06265,
				"method": "rhf"
			}
		],
		"cosmo_sigma_profile": { 
			"-0.025": 0.0,
			"-0.024": 0.0,
			"-0.023": 0.0,
			"-0.022": 0.0,
			"-0.021": 0.0,
			"-0.02": 0.0,
			"-0.019": 0.282014619038,
			"-0.018": 0.735240901041,
			"-0.017": 1.14754136274,
			"-0.016": 1.08870424031,
			"-0.015": 0.72868120352,
			"-0.014": 0.985868537608,
			"-0.013": 0.954197745948,
			"-0.012": 1.23155699052,
			"-0.011": 1.0374236769,
			"-0.01": 0.711370869166,
			"-0.009": 1.06201079026,
			"-0.008": 1.16917578934,
			"-0.007": 5.39526431167,
			"-0.006": 9.4716687469,
			"-0.005": 14.8272880811,
			"-0.004": 24.9518239179,
			"-0.003": 28.0673465155,
			"-0.002": 27.125439385,
			"-0.001": 18.3843580073,
			"0.0": 17.8934494172,
			"0.001": 15.4129173767,
			"0.002": 16.5664911254,
			"0.003": 8.52530246193,
			"0.004": 3.39917087518,
			"0.005": 4.44020470654,
			"0.006": 3.70317581575,
			"0.007": 3.68296543402,
			"0.008": 4.30409897009,
			"0.009": 5.01129164031,
			"0.01": 6.14534604549,
			"0.011": 6.93874134014,
			"0.012": 6.18625864462,
			"0.013": 5.45820714268,
			"0.014": 3.22106289503,
			"0.015": 0.117450685162,
			"0.016": 0.0,
			"0.017": 0.0,
			"0.018": 0.0,
			"0.019": 0.0,
			"0.02": 0.0,
			"0.021": 0.0,
			"0.022": 0.0,
			"0.023": 0.0,
			"0.024": 0.0,
			"0.025": 0.0
		}
	}
}
