{
	 "smiles": "CC1=CC(C=O)=C(C)N1C1=CC(=CC=C1)C(F)(F)F", 
	 "Tm": 377.15, 
	 "num_atms": 31, 
	 "gaussian": { 
		 "optdone": 1, 
		 "sigma_profile": "yes", 
		 "theory": "DFT", 
		 "functional": "B3LYP", 
		 "basiset": "6-31G**", 
		 "properties": { 
			 "R2extent": 6231.6151, 
			 "electric_dipole_moment_norm": 5.16515389897, 
			 "electric_quadrupole_moment_norm": 25.779263589, 
			 "total_energy": -970.224171968, 
			 "HOMO_LUMO_gap": 0.16352, 
			 "cosmo_polarized_energy": -11.27, 
			 "cosmo_cavitation_energy": 37.01, 
			 "cosmo_dispersion_energy": -24.49, 
			 "cosmo_repulsion_energy": 1.84, 
			 "cosmo_total_nonelectrostatic_energy": 14.36, 
			 "SMD_solvation_energy": 8.65 
		},
		"coords": [
			{
				"x": 0.4613574867,
				"y": 2.6171961124,
				"z": 1.9208855763,
				"element": "C" 
			},
			{
				"x": 0.1841824948,
				"y": 1.2959157618,
				"z": 2.5625361034,
				"element": "C" 
			},
			{
				"x": 0.5234182873,
				"y": 0.8131112505,
				"z": 3.7976748466,
				"element": "C" 
			},
			{
				"x": 0.0388657946,
				"y": -0.5324260509,
				"z": 3.9045221736,
				"element": "C" 
			},
			{
				"x": 0.1882435064,
				"y": -1.3871461673,
				"z": 5.0736163193,
				"element": "C" 
			},
			{
				"x": -0.2190594263,
				"y": -2.5353868411,
				"z": 5.1946723148,
				"element": "O" 
			},
			{
				"x": -0.5947462057,
				"y": -0.8465120157,
				"z": 2.7027848389,
				"element": "C" 
			},
			{
				"x": -1.2915538549,
				"y": -2.0997306355,
				"z": 2.2836373474,
				"element": "C" 
			},
			{
				"x": -0.5022867567,
				"y": 0.2680354721,
				"z": 1.8957024269,
				"element": "N" 
			},
			{
				"x": -1.0364313198,
				"y": 0.3685875534,
				"z": 0.5728593659,
				"element": "C" 
			},
			{
				"x": -0.3741923734,
				"y": -0.2451066945,
				"z": -0.4924451409,
				"element": "C" 
			},
			{
				"x": -0.8991139397,
				"y": -0.14156077,
				"z": -1.7819737094,
				"element": "C" 
			},
			{
				"x": -2.0742254332,
				"y": 0.5783493713,
				"z": -2.0125114837,
				"element": "C" 
			},
			{
				"x": -2.7282407448,
				"y": 1.1924259023,
				"z": -0.9451283878,
				"element": "C" 
			},
			{
				"x": -2.2156921213,
				"y": 1.0860097224,
				"z": 0.347944919,
				"element": "C" 
			},
			{
				"x": -0.2185979,
				"y": -0.8521418598,
				"z": -2.9234763015,
				"element": "C" 
			},
			{
				"x": -0.3906741183,
				"y": -0.1974304145,
				"z": -4.0920931127,
				"element": "F" 
			},
			{
				"x": 1.1096804633,
				"y": -0.9775079126,
				"z": -2.7153713035,
				"element": "F" 
			},
			{
				"x": -0.7124389042,
				"y": -2.099334083,
				"z": -3.0928938068,
				"element": "F" 
			},
			{
				"x": -0.4539036826,
				"y": 3.1690562712,
				"z": 1.6758918345,
				"element": "H" 
			},
			{
				"x": 1.0339523819,
				"y": 2.5139770119,
				"z": 0.9912941476,
				"element": "H" 
			},
			{
				"x": 1.0469306041,
				"y": 3.2333090437,
				"z": 2.6070380879,
				"element": "H" 
			},
			{
				"x": 1.0697954556,
				"y": 1.3569212518,
				"z": 4.5569600639,
				"element": "H" 
			},
			{
				"x": 0.7333851837,
				"y": -0.9005240956,
				"z": 5.9141955289,
				"element": "H" 
			},
			{
				"x": -1.2808943914,
				"y": -2.7939882507,
				"z": 3.1236744359,
				"element": "H" 
			},
			{
				"x": -0.7985865205,
				"y": -2.5784388408,
				"z": 1.4291842473,
				"element": "H" 
			},
			{
				"x": -2.330130877,
				"y": -1.905843878,
				"z": 1.990070564,
				"element": "H" 
			},
			{
				"x": 0.5482501627,
				"y": -0.7860898397,
				"z": -0.3143141521,
				"element": "H" 
			},
			{
				"x": -2.4661170542,
				"y": 0.6617656927,
				"z": -3.0202025687,
				"element": "H" 
			},
			{
				"x": -3.6411440406,
				"y": 1.7528741388,
				"z": -1.1199060631,
				"element": "H" 
			},
			{
				"x": -2.7227321567,
				"y": 1.5504337937,
				"z": 1.187670888,
				"element": "H" 
			}
		],
		 "valence_orbital": [ 
			{
				"type": "occ",
				"energy": -0.28845,
				"method": "rhf"
			},
			{
				"type": "occ",
				"energy": -0.28671,
				"method": "rhf"
			},
			{
				"type": "occ",
				"energy": -0.25063,
				"method": "rhf"
			},
			{
				"type": "occ",
				"energy": -0.23565,
				"method": "rhf"
			},
			{
				"type": "occ",
				"energy": -0.21225,
				"method": "rhf"
			},
			{
				"type": "unocc",
				"energy": -0.04873,
				"method": "rhf"
			},
			{
				"type": "unocc",
				"energy": -0.04044,
				"method": "rhf"
			},
			{
				"type": "unocc",
				"energy": -0.02803,
				"method": "rhf"
			},
			{
				"type": "unocc",
				"energy": 0.03337,
				"method": "rhf"
			},
			{
				"type": "unocc",
				"energy": 0.0722,
				"method": "rhf"
			}
		],
		"cosmo_sigma_profile": { 
			"-0.025": 0.0,
			"-0.024": 0.0,
			"-0.023": 0.0,
			"-0.022": 0.0,
			"-0.021": 0.0,
			"-0.02": 0.0,
			"-0.019": 0.0,
			"-0.018": 0.0,
			"-0.017": 0.0,
			"-0.016": 0.0,
			"-0.015": 0.0,
			"-0.014": 0.0,
			"-0.013": 0.0,
			"-0.012": 0.0,
			"-0.011": 0.0,
			"-0.01": 0.0,
			"-0.009": 0.0,
			"-0.008": 1.81271518518,
			"-0.007": 8.06265763566,
			"-0.006": 10.4937862793,
			"-0.005": 20.1783251885,
			"-0.004": 24.3092737634,
			"-0.003": 22.7239224659,
			"-0.002": 24.193567789,
			"-0.001": 27.2752143968,
			"0.0": 28.4512415595,
			"0.001": 24.0786104088,
			"0.002": 33.2407310348,
			"0.003": 34.0970455382,
			"0.004": 7.3741766268,
			"0.005": 6.26941112162,
			"0.006": 5.26614509892,
			"0.007": 2.79813860006,
			"0.008": 1.32401394492,
			"0.009": 1.90718540791,
			"0.01": 2.2628518233,
			"0.011": 2.09436557843,
			"0.012": 3.30820421693,
			"0.013": 2.79238811212,
			"0.014": 1.3375645911,
			"0.015": 0.129259912844,
			"0.016": 0.0,
			"0.017": 0.0,
			"0.018": 0.0,
			"0.019": 0.0,
			"0.02": 0.0,
			"0.021": 0.0,
			"0.022": 0.0,
			"0.023": 0.0,
			"0.024": 0.0,
			"0.025": 0.0
		}
	}
}
