{
	 "smiles": "OC1(CC2=CC=CC=C2)CCCC1", 
	 "Tm": 330.15, 
	 "num_atms": 29, 
	 "gaussian": { 
		 "optdone": 1, 
		 "sigma_profile": "yes", 
		 "theory": "DFT", 
		 "functional": "B3LYP", 
		 "basiset": "6-31G**", 
		 "properties": { 
			 "R2extent": 3146.505, 
			 "electric_dipole_moment_norm": 1.44014617314, 
			 "electric_quadrupole_moment_norm": 4.79053501918, 
			 "total_energy": -542.150821839, 
			 "HOMO_LUMO_gap": 0.23755, 
			 "cosmo_polarized_energy": -8.12, 
			 "cosmo_cavitation_energy": 29.92, 
			 "cosmo_dispersion_energy": -21.5, 
			 "cosmo_repulsion_energy": 1.7, 
			 "cosmo_total_nonelectrostatic_energy": 10.12, 
			 "SMD_solvation_energy": 4.37 
		},
		"coords": [
			{
				"x": 1.0588059471,
				"y": -1.2348478856,
				"z": 0.0277346612,
				"element": "O" 
			},
			{
				"x": 0.258218855,
				"y": -0.3565791608,
				"z": 0.8415192179,
				"element": "C" 
			},
			{
				"x": -1.1493010279,
				"y": -0.9557777121,
				"z": 1.0598631917,
				"element": "C" 
			},
			{
				"x": -2.0273559564,
				"y": -1.0480187367,
				"z": -0.1726017312,
				"element": "C" 
			},
			{
				"x": -1.7083319611,
				"y": -1.9014747647,
				"z": -1.2405356155,
				"element": "C" 
			},
			{
				"x": -2.530341793,
				"y": -1.9765649663,
				"z": -2.3646555119,
				"element": "C" 
			},
			{
				"x": -3.6909017936,
				"y": -1.203127785,
				"z": -2.4443643803,
				"element": "C" 
			},
			{
				"x": -4.0208171218,
				"y": -0.3515498151,
				"z": -1.3901130163,
				"element": "C" 
			},
			{
				"x": -3.19434117,
				"y": -0.2774674846,
				"z": -0.2669267971,
				"element": "C" 
			},
			{
				"x": 1.0076603867,
				"y": -0.0653901266,
				"z": 2.1596822669,
				"element": "C" 
			},
			{
				"x": 2.1611211512,
				"y": 0.8470245355,
				"z": 1.7169879588,
				"element": "C" 
			},
			{
				"x": 1.511850911,
				"y": 1.7788713859,
				"z": 0.6638641068,
				"element": "C" 
			},
			{
				"x": 0.2762037382,
				"y": 1.006929527,
				"z": 0.1172386308,
				"element": "C" 
			},
			{
				"x": 1.2250228598,
				"y": -2.0362410958,
				"z": 0.5436596796,
				"element": "H" 
			},
			{
				"x": -1.6644562158,
				"y": -0.355340755,
				"z": 1.8186398058,
				"element": "H" 
			},
			{
				"x": -1.0203275706,
				"y": -1.9554447272,
				"z": 1.5005783739,
				"element": "H" 
			},
			{
				"x": -0.7991493042,
				"y": -2.490783782,
				"z": -1.1936177292,
				"element": "H" 
			},
			{
				"x": -2.2643454106,
				"y": -2.6426242683,
				"z": -3.1810653019,
				"element": "H" 
			},
			{
				"x": -4.3319563243,
				"y": -1.266015516,
				"z": -3.3191772202,
				"element": "H" 
			},
			{
				"x": -4.9216268418,
				"y": 0.2542255034,
				"z": -1.4383380082,
				"element": "H" 
			},
			{
				"x": -3.4626172106,
				"y": 0.3850130351,
				"z": 0.5530120691,
				"element": "H" 
			},
			{
				"x": 1.3352511323,
				"y": -0.9830311348,
				"z": 2.6647714285,
				"element": "H" 
			},
			{
				"x": 0.3416877336,
				"y": 0.4661231123,
				"z": 2.8519155069,
				"element": "H" 
			},
			{
				"x": 2.9399433856,
				"y": 0.2384220024,
				"z": 1.2478618914,
				"element": "H" 
			},
			{
				"x": 2.6188296559,
				"y": 1.3934463032,
				"z": 2.5473120483,
				"element": "H" 
			},
			{
				"x": 2.216351371,
				"y": 2.0451998066,
				"z": -0.1290189077,
				"element": "H" 
			},
			{
				"x": 1.1937904979,
				"y": 2.7174848839,
				"z": 1.1308370877,
				"element": "H" 
			},
			{
				"x": 0.3153177054,
				"y": 0.8429616181,
				"z": -0.9618590906,
				"element": "H" 
			},
			{
				"x": -0.6506856291,
				"y": 1.5501780032,
				"z": 0.3267953845,
				"element": "H" 
			}
		],
		 "valence_orbital": [ 
			{
				"type": "occ",
				"energy": -0.31366,
				"method": "rhf"
			},
			{
				"type": "occ",
				"energy": -0.30095,
				"method": "rhf"
			},
			{
				"type": "occ",
				"energy": -0.26573,
				"method": "rhf"
			},
			{
				"type": "occ",
				"energy": -0.2407,
				"method": "rhf"
			},
			{
				"type": "occ",
				"energy": -0.23247,
				"method": "rhf"
			},
			{
				"type": "unocc",
				"energy": 0.00508,
				"method": "rhf"
			},
			{
				"type": "unocc",
				"energy": 0.00789,
				"method": "rhf"
			},
			{
				"type": "unocc",
				"energy": 0.0646,
				"method": "rhf"
			},
			{
				"type": "unocc",
				"energy": 0.09642,
				"method": "rhf"
			},
			{
				"type": "unocc",
				"energy": 0.10558,
				"method": "rhf"
			}
		],
		"cosmo_sigma_profile": { 
			"-0.025": 0.0,
			"-0.024": 0.0,
			"-0.023": 0.0,
			"-0.022": 0.0,
			"-0.021": 0.0,
			"-0.02": 0.0,
			"-0.019": 0.0,
			"-0.018": 0.0,
			"-0.017": 0.0,
			"-0.016": 0.0,
			"-0.015": 0.0711920906626,
			"-0.014": 0.769086506651,
			"-0.013": 1.19616162175,
			"-0.012": 0.681000869937,
			"-0.011": 0.885376083318,
			"-0.01": 1.32001705914,
			"-0.009": 1.53427398256,
			"-0.008": 1.03433566941,
			"-0.007": 0.780991271101,
			"-0.006": 2.32805274337,
			"-0.005": 9.66875445543,
			"-0.004": 14.6858283423,
			"-0.003": 24.2937033006,
			"-0.002": 28.5957582181,
			"-0.001": 27.6734966465,
			"0.0": 26.8457502038,
			"0.001": 21.6743479159,
			"0.002": 15.6681769409,
			"0.003": 9.39333216173,
			"0.004": 9.275842277,
			"0.005": 10.0536835946,
			"0.006": 10.006664416,
			"0.007": 6.24887746493,
			"0.008": 1.67384492274,
			"0.009": 1.05844754977,
			"0.01": 1.3807192713,
			"0.011": 1.03322989057,
			"0.012": 1.04322834531,
			"0.013": 1.02677528382,
			"0.014": 1.21552982076,
			"0.015": 0.209959616941,
			"0.016": 0.0,
			"0.017": 0.0,
			"0.018": 0.0,
			"0.019": 0.0,
			"0.02": 0.0,
			"0.021": 0.0,
			"0.022": 0.0,
			"0.023": 0.0,
			"0.024": 0.0,
			"0.025": 0.0
		}
	}
}
