{
	 "smiles": "COC1=C(C(O)=O)C(OC)=C(C=C1)S(Cl)(=O)=O", 
	 "Tm": 403.15, 
	 "num_atms": 26, 
	 "gaussian": { 
		 "optdone": 1, 
		 "sigma_profile": "yes", 
		 "theory": "DFT", 
		 "functional": "B3LYP", 
		 "basiset": "6-31G**", 
		 "properties": { 
			 "R2extent": 6760.0321, 
			 "electric_dipole_moment_norm": 4.85831046044, 
			 "electric_quadrupole_moment_norm": 26.6429272588, 
			 "total_energy": -1658.00565366, 
			 "HOMO_LUMO_gap": 0.18671, 
			 "cosmo_polarized_energy": -16.08, 
			 "cosmo_cavitation_energy": 33.76, 
			 "cosmo_dispersion_energy": -24.23, 
			 "cosmo_repulsion_energy": 1.86, 
			 "cosmo_total_nonelectrostatic_energy": 11.38, 
			 "SMD_solvation_energy": 7.12 
		},
		"coords": [
			{
				"x": 2.4355516378,
				"y": -1.2195343657,
				"z": -0.8007824135,
				"element": "C" 
			},
			{
				"x": 2.0034711502,
				"y": -0.945638001,
				"z": 0.5424636886,
				"element": "O" 
			},
			{
				"x": 1.2577103081,
				"y": 0.18549334,
				"z": 0.7055655012,
				"element": "C" 
			},
			{
				"x": -0.1414766746,
				"y": 0.077877483,
				"z": 0.8089904833,
				"element": "C" 
			},
			{
				"x": -0.7715617869,
				"y": -1.2731349004,
				"z": 0.6384210275,
				"element": "C" 
			},
			{
				"x": -1.4986330925,
				"y": -1.6406396031,
				"z": 1.7090354955,
				"element": "O" 
			},
			{
				"x": -0.6442834905,
				"y": -1.9678054447,
				"z": -0.3480968844,
				"element": "O" 
			},
			{
				"x": -0.9110104968,
				"y": 1.2258560502,
				"z": 1.0668256073,
				"element": "C" 
			},
			{
				"x": -2.2556079017,
				"y": 1.1634898477,
				"z": 1.2399710787,
				"element": "O" 
			},
			{
				"x": -3.0631372746,
				"y": 0.9645119269,
				"z": 0.0645870026,
				"element": "C" 
			},
			{
				"x": -0.2500404542,
				"y": 2.4589201468,
				"z": 1.2071379513,
				"element": "C" 
			},
			{
				"x": 1.1412363756,
				"y": 2.5592290288,
				"z": 1.1252809918,
				"element": "C" 
			},
			{
				"x": 1.89399291,
				"y": 1.4211091165,
				"z": 0.8679117705,
				"element": "C" 
			},
			{
				"x": -1.1724959137,
				"y": 3.9715945859,
				"z": 1.4366343666,
				"element": "S" 
			},
			{
				"x": -1.9502693552,
				"y": 3.7420343102,
				"z": 3.3951463543,
				"element": "Cl" 
			},
			{
				"x": -0.2208150505,
				"y": 5.0751691264,
				"z": 1.5079896427,
				"element": "O" 
			},
			{
				"x": -2.3141210191,
				"y": 4.019575767,
				"z": 0.5303175326,
				"element": "O" 
			},
			{
				"x": 1.5730235742,
				"y": -1.4356905596,
				"z": -1.4374610092,
				"element": "H" 
			},
			{
				"x": 3.0086088706,
				"y": -0.3782416582,
				"z": -1.2088517862,
				"element": "H" 
			},
			{
				"x": 3.0778755753,
				"y": -2.0985982353,
				"z": -0.7353826595,
				"element": "H" 
			},
			{
				"x": -1.8641509835,
				"y": -2.5189741039,
				"z": 1.5044672706,
				"element": "H" 
			},
			{
				"x": -3.0362190418,
				"y": 1.8607720266,
				"z": -0.5606621395,
				"element": "H" 
			},
			{
				"x": -2.7303494766,
				"y": 0.0920551407,
				"z": -0.5072637449,
				"element": "H" 
			},
			{
				"x": -4.0769340095,
				"y": 0.7989577219,
				"z": 0.4290352243,
				"element": "H" 
			},
			{
				"x": 1.6121916147,
				"y": 3.5259682247,
				"z": 1.2597706181,
				"element": "H" 
			},
			{
				"x": 2.9761440054,
				"y": 1.4668430286,
				"z": 0.8163490296,
				"element": "H" 
			}
		],
		 "valence_orbital": [ 
			{
				"type": "occ",
				"energy": -0.30771,
				"method": "rhf"
			},
			{
				"type": "occ",
				"energy": -0.30557,
				"method": "rhf"
			},
			{
				"type": "occ",
				"energy": -0.2963,
				"method": "rhf"
			},
			{
				"type": "occ",
				"energy": -0.27736,
				"method": "rhf"
			},
			{
				"type": "occ",
				"energy": -0.2712,
				"method": "rhf"
			},
			{
				"type": "unocc",
				"energy": -0.08449,
				"method": "rhf"
			},
			{
				"type": "unocc",
				"energy": -0.05849,
				"method": "rhf"
			},
			{
				"type": "unocc",
				"energy": -0.04242,
				"method": "rhf"
			},
			{
				"type": "unocc",
				"energy": -0.00068,
				"method": "rhf"
			},
			{
				"type": "unocc",
				"energy": 0.05133,
				"method": "rhf"
			}
		],
		"cosmo_sigma_profile": { 
			"-0.025": 0.0,
			"-0.024": 0.0,
			"-0.023": 0.0,
			"-0.022": 0.0,
			"-0.021": 0.0,
			"-0.02": 0.0352047148358,
			"-0.019": 0.727425686527,
			"-0.018": 0.879320270303,
			"-0.017": 0.922746547946,
			"-0.016": 1.02347376626,
			"-0.015": 0.761760558253,
			"-0.014": 0.390405960401,
			"-0.013": 0.475854025447,
			"-0.012": 1.14843301569,
			"-0.011": 0.540719387102,
			"-0.01": 0.549606695154,
			"-0.009": 1.77492011256,
			"-0.008": 4.67875802811,
			"-0.007": 6.54924359474,
			"-0.006": 11.6951220676,
			"-0.005": 19.6845376124,
			"-0.004": 24.4906027865,
			"-0.003": 22.6491694836,
			"-0.002": 19.1745422785,
			"-0.001": 19.1598539988,
			"0.0": 16.3653085921,
			"0.001": 13.3445319699,
			"0.002": 12.8912914375,
			"0.003": 18.1430321682,
			"0.004": 12.2774430675,
			"0.005": 10.6153112382,
			"0.006": 10.3344007756,
			"0.007": 10.1909473415,
			"0.008": 13.3461610907,
			"0.009": 9.53973016523,
			"0.01": 5.00133607931,
			"0.011": 2.67355012344,
			"0.012": 0.0845157130652,
			"0.013": 0.0,
			"0.014": 0.0,
			"0.015": 0.0,
			"0.016": 0.0,
			"0.017": 0.0,
			"0.018": 0.0,
			"0.019": 0.0,
			"0.02": 0.0,
			"0.021": 0.0,
			"0.022": 0.0,
			"0.023": 0.0,
			"0.024": 0.0,
			"0.025": 0.0
		}
	}
}
