{
	 "smiles": "COC1=CC=C(C=C1)C(NC(=O)CCl)C1=CC=C(OC)C=C1", 
	 "Tm": 392.15, 
	 "num_atms": 40, 
	 "gaussian": { 
		 "optdone": 1, 
		 "sigma_profile": "yes", 
		 "theory": "DFT", 
		 "functional": "B3LYP", 
		 "basiset": "6-31G**", 
		 "properties": { 
			 "R2extent": 10441.4905, 
			 "electric_dipole_moment_norm": 2.46608962733, 
			 "electric_quadrupole_moment_norm": 21.1223782248, 
			 "total_energy": -1399.26299938, 
			 "HOMO_LUMO_gap": 0.2044, 
			 "cosmo_polarized_energy": -17.96, 
			 "cosmo_cavitation_energy": 44.98, 
			 "cosmo_dispersion_energy": -31.56, 
			 "cosmo_repulsion_energy": 2.46, 
			 "cosmo_total_nonelectrostatic_energy": 15.88, 
			 "SMD_solvation_energy": 8.97 
		},
		"coords": [
			{
				"x": -5.3893068615,
				"y": 2.6575380654,
				"z": -2.6466842721,
				"element": "C" 
			},
			{
				"x": -5.0063718334,
				"y": 2.0018850096,
				"z": -1.4489502052,
				"element": "O" 
			},
			{
				"x": -3.8390310003,
				"y": 1.2949367116,
				"z": -1.4450018042,
				"element": "C" 
			},
			{
				"x": -2.9817534859,
				"y": 1.1656795383,
				"z": -2.5417933383,
				"element": "C" 
			},
			{
				"x": -1.8113461566,
				"y": 0.4108378067,
				"z": -2.4100262335,
				"element": "C" 
			},
			{
				"x": -1.4711129916,
				"y": -0.2191049566,
				"z": -1.2118965865,
				"element": "C" 
			},
			{
				"x": -2.3425650077,
				"y": -0.0731315368,
				"z": -0.1157895751,
				"element": "C" 
			},
			{
				"x": -3.5090281523,
				"y": 0.6691675138,
				"z": -0.2317361648,
				"element": "C" 
			},
			{
				"x": -0.1948607304,
				"y": -1.0509450268,
				"z": -1.1344524584,
				"element": "C" 
			},
			{
				"x": -0.4755154755,
				"y": -2.5041439743,
				"z": -1.1091082469,
				"element": "N" 
			},
			{
				"x": -0.9912191734,
				"y": -3.1889622756,
				"z": -0.0631874278,
				"element": "C" 
			},
			{
				"x": -1.2355477948,
				"y": -2.7370545682,
				"z": 1.0486203879,
				"element": "O" 
			},
			{
				"x": -1.290635552,
				"y": -4.6804860046,
				"z": -0.2673354211,
				"element": "C" 
			},
			{
				"x": -0.8921925447,
				"y": -5.3987253431,
				"z": -1.8915295949,
				"element": "Cl" 
			},
			{
				"x": 0.8052702455,
				"y": -0.6290733619,
				"z": -0.0527056463,
				"element": "C" 
			},
			{
				"x": 1.8065804458,
				"y": -1.502537982,
				"z": 0.3784425384,
				"element": "C" 
			},
			{
				"x": 2.7849489484,
				"y": -1.1055795476,
				"z": 1.292144883,
				"element": "C" 
			},
			{
				"x": 2.7782313341,
				"y": 0.2025677466,
				"z": 1.7891713653,
				"element": "C" 
			},
			{
				"x": 3.6804650722,
				"y": 0.7004337215,
				"z": 2.6860135341,
				"element": "O" 
			},
			{
				"x": 4.6930121025,
				"y": -0.1669281242,
				"z": 3.1678149081,
				"element": "C" 
			},
			{
				"x": 1.788954067,
				"y": 1.0944797939,
				"z": 1.3554873664,
				"element": "C" 
			},
			{
				"x": 0.8207696803,
				"y": 0.681302781,
				"z": 0.4479044849,
				"element": "C" 
			},
			{
				"x": -5.5347298568,
				"y": 1.9462408611,
				"z": -3.4702060769,
				"element": "H" 
			},
			{
				"x": -6.3369935256,
				"y": 3.1531276695,
				"z": -2.4301950685,
				"element": "H" 
			},
			{
				"x": -4.6506049103,
				"y": 3.4103697419,
				"z": -2.9513719563,
				"element": "H" 
			},
			{
				"x": -3.2061121659,
				"y": 1.6400788477,
				"z": -3.4897321443,
				"element": "H" 
			},
			{
				"x": -1.1520655698,
				"y": 0.3194316549,
				"z": -3.2707601483,
				"element": "H" 
			},
			{
				"x": -2.0991633209,
				"y": -0.559235973,
				"z": 0.8219442559,
				"element": "H" 
			},
			{
				"x": -4.1864395027,
				"y": 0.7835532777,
				"z": 0.6084415463,
				"element": "H" 
			},
			{
				"x": 0.3138971969,
				"y": -0.9140114097,
				"z": -2.0974157174,
				"element": "H" 
			},
			{
				"x": -0.4065480503,
				"y": -3.0001515427,
				"z": -1.9863964487,
				"element": "H" 
			},
			{
				"x": -0.7301886457,
				"y": -5.2449764602,
				"z": 0.4776642485,
				"element": "H" 
			},
			{
				"x": -2.3565281772,
				"y": -4.8398814636,
				"z": -0.1034276213,
				"element": "H" 
			},
			{
				"x": 1.829227407,
				"y": -2.5198325303,
				"z": 0.0004156576,
				"element": "H" 
			},
			{
				"x": 3.5364372575,
				"y": -1.8201291849,
				"z": 1.6067578532,
				"element": "H" 
			},
			{
				"x": 5.3416784082,
				"y": -0.5250280879,
				"z": 2.3574377754,
				"element": "H" 
			},
			{
				"x": 4.2698837207,
				"y": -1.0322457947,
				"z": 3.694558784,
				"element": "H" 
			},
			{
				"x": 5.2881023456,
				"y": 0.4221589871,
				"z": 3.867626353,
				"element": "H" 
			},
			{
				"x": 1.7949274541,
				"y": 2.1066539045,
				"z": 1.7467553305,
				"element": "H" 
			},
			{
				"x": 0.0636747995,
				"y": 1.3891215156,
				"z": 0.1283008844,
				"element": "H" 
			}
		],
		 "valence_orbital": [ 
			{
				"type": "occ",
				"energy": -0.25648,
				"method": "rhf"
			},
			{
				"type": "occ",
				"energy": -0.24958,
				"method": "rhf"
			},
			{
				"type": "occ",
				"energy": -0.2432,
				"method": "rhf"
			},
			{
				"type": "occ",
				"energy": -0.2169,
				"method": "rhf"
			},
			{
				"type": "occ",
				"energy": -0.209,
				"method": "rhf"
			},
			{
				"type": "unocc",
				"energy": -0.0046,
				"method": "rhf"
			},
			{
				"type": "unocc",
				"energy": 0.00407,
				"method": "rhf"
			},
			{
				"type": "unocc",
				"energy": 0.00908,
				"method": "rhf"
			},
			{
				"type": "unocc",
				"energy": 0.01248,
				"method": "rhf"
			},
			{
				"type": "unocc",
				"energy": 0.01685,
				"method": "rhf"
			}
		],
		"cosmo_sigma_profile": { 
			"-0.025": 0.0,
			"-0.024": 0.0,
			"-0.023": 0.0,
			"-0.022": 0.0,
			"-0.021": 0.0,
			"-0.02": 0.0,
			"-0.019": 0.0,
			"-0.018": 0.0,
			"-0.017": 0.0,
			"-0.016": 0.0,
			"-0.015": 0.0,
			"-0.014": 0.0867469420423,
			"-0.013": 0.600959732886,
			"-0.012": 1.10641895135,
			"-0.011": 0.700310621629,
			"-0.01": 0.984381813848,
			"-0.009": 3.90135476013,
			"-0.008": 5.24633451494,
			"-0.007": 7.51424370983,
			"-0.006": 18.5934020784,
			"-0.005": 34.7370979969,
			"-0.004": 33.8663417623,
			"-0.003": 34.7056239521,
			"-0.002": 22.9220060305,
			"-0.001": 17.6166838457,
			"0.0": 17.9677214768,
			"0.001": 18.0237140245,
			"0.002": 19.4169704571,
			"0.003": 22.1956837158,
			"0.004": 25.9513177305,
			"0.005": 27.6883232228,
			"0.006": 16.1079037704,
			"0.007": 4.16122752918,
			"0.008": 4.84569826702,
			"0.009": 4.83949367912,
			"0.01": 5.11177753401,
			"0.011": 3.28416644332,
			"0.012": 2.73782221086,
			"0.013": 3.26948962144,
			"0.014": 1.23522157356,
			"0.015": 0.0,
			"0.016": 0.0,
			"0.017": 0.0,
			"0.018": 0.0,
			"0.019": 0.0,
			"0.02": 0.0,
			"0.021": 0.0,
			"0.022": 0.0,
			"0.023": 0.0,
			"0.024": 0.0,
			"0.025": 0.0
		}
	}
}
