{
	 "smiles": "CC1=C(C)C2=C(O1)N=C(CCl)N=C2N", 
	 "Tm": 453.15, 
	 "num_atms": 24, 
	 "gaussian": { 
		 "optdone": 1, 
		 "sigma_profile": "yes", 
		 "theory": "DFT", 
		 "functional": "B3LYP", 
		 "basiset": "6-31G**", 
		 "properties": { 
			 "R2extent": 3878.5223, 
			 "electric_dipole_moment_norm": 6.05779631384, 
			 "electric_quadrupole_moment_norm": 5.54904568011, 
			 "total_energy": -1048.68086312, 
			 "HOMO_LUMO_gap": 0.17864, 
			 "cosmo_polarized_energy": -15.27, 
			 "cosmo_cavitation_energy": 29.82, 
			 "cosmo_dispersion_energy": -22.12, 
			 "cosmo_repulsion_energy": 1.77, 
			 "cosmo_total_nonelectrostatic_energy": 9.47, 
			 "SMD_solvation_energy": 2.01 
		},
		"coords": [
			{
				"x": 1.546223153,
				"y": 3.8681858729,
				"z": 0.0062179639,
				"element": "C" 
			},
			{
				"x": 0.6995052328,
				"y": 2.6468064785,
				"z": 0.0603772425,
				"element": "C" 
			},
			{
				"x": -0.229995438,
				"y": 2.1100127155,
				"z": -0.7830118306,
				"element": "C" 
			},
			{
				"x": -0.691693531,
				"y": 2.6525962291,
				"z": -2.1027503085,
				"element": "C" 
			},
			{
				"x": -0.6800244551,
				"y": 0.9000174004,
				"z": -0.1281873435,
				"element": "C" 
			},
			{
				"x": 0.0286039939,
				"y": 0.8117757565,
				"z": 1.0737155802,
				"element": "C" 
			},
			{
				"x": 0.8694757341,
				"y": 1.870084464,
				"z": 1.1962119132,
				"element": "O" 
			},
			{
				"x": -0.0629419711,
				"y": -0.1310366619,
				"z": 2.0005132665,
				"element": "N" 
			},
			{
				"x": -0.9593955885,
				"y": -1.0723319552,
				"z": 1.6764830394,
				"element": "C" 
			},
			{
				"x": -1.1294664043,
				"y": -2.1986919715,
				"z": 2.6572730527,
				"element": "C" 
			},
			{
				"x": -0.1179582651,
				"y": -3.6476523522,
				"z": 2.1876419839,
				"element": "Cl" 
			},
			{
				"x": -1.7197396213,
				"y": -1.1269847654,
				"z": 0.5714156992,
				"element": "N" 
			},
			{
				"x": -1.5955705769,
				"y": -0.1540043921,
				"z": -0.3448823739,
				"element": "C" 
			},
			{
				"x": -2.4162804757,
				"y": -0.2259344387,
				"z": -1.4378432542,
				"element": "N" 
			},
			{
				"x": 2.6109632155,
				"y": 3.6094736751,
				"z": 0.030403121,
				"element": "H" 
			},
			{
				"x": 1.3490978776,
				"y": 4.5209921269,
				"z": 0.864098713,
				"element": "H" 
			},
			{
				"x": 1.351755142,
				"y": 4.4332908571,
				"z": -0.9073726976,
				"element": "H" 
			},
			{
				"x": -0.2275698665,
				"y": 3.6163329449,
				"z": -2.3260039049,
				"element": "H" 
			},
			{
				"x": -1.7777925646,
				"y": 2.8023017432,
				"z": -2.1155418011,
				"element": "H" 
			},
			{
				"x": -0.4393549238,
				"y": 1.9759423448,
				"z": -2.9295350028,
				"element": "H" 
			},
			{
				"x": -2.1603384053,
				"y": -2.548360046,
				"z": 2.6750850817,
				"element": "H" 
			},
			{
				"x": -0.7905485583,
				"y": -1.8984525974,
				"z": 3.6467194199,
				"element": "H" 
			},
			{
				"x": -2.8831981271,
				"y": -1.1119426292,
				"z": -1.566966153,
				"element": "H" 
			},
			{
				"x": -2.1672555761,
				"y": 0.2814792007,
				"z": -2.2713614072,
				"element": "H" 
			}
		],
		 "valence_orbital": [ 
			{
				"type": "occ",
				"energy": -0.28236,
				"method": "rhf"
			},
			{
				"type": "occ",
				"energy": -0.28074,
				"method": "rhf"
			},
			{
				"type": "occ",
				"energy": -0.26799,
				"method": "rhf"
			},
			{
				"type": "occ",
				"energy": -0.25878,
				"method": "rhf"
			},
			{
				"type": "occ",
				"energy": -0.21386,
				"method": "rhf"
			},
			{
				"type": "unocc",
				"energy": -0.03522,
				"method": "rhf"
			},
			{
				"type": "unocc",
				"energy": -0.00648,
				"method": "rhf"
			},
			{
				"type": "unocc",
				"energy": 0.0317,
				"method": "rhf"
			},
			{
				"type": "unocc",
				"energy": 0.05448,
				"method": "rhf"
			},
			{
				"type": "unocc",
				"energy": 0.06301,
				"method": "rhf"
			}
		],
		"cosmo_sigma_profile": { 
			"-0.025": 0.0,
			"-0.024": 0.0,
			"-0.023": 0.0,
			"-0.022": 0.0,
			"-0.021": 0.0,
			"-0.02": 0.0,
			"-0.019": 0.0,
			"-0.018": 0.0,
			"-0.017": 0.0,
			"-0.016": 0.0,
			"-0.015": 0.0,
			"-0.014": 0.300460822594,
			"-0.013": 1.67095720053,
			"-0.012": 2.37406648602,
			"-0.011": 2.91755197531,
			"-0.01": 3.0225548687,
			"-0.009": 2.16635434224,
			"-0.008": 3.30227213233,
			"-0.007": 6.69318781511,
			"-0.006": 9.60629093574,
			"-0.005": 14.3275348879,
			"-0.004": 16.1724112893,
			"-0.003": 15.9663904442,
			"-0.002": 16.2714360611,
			"-0.001": 22.6424274134,
			"0.0": 21.6519621504,
			"0.001": 15.0727816996,
			"0.002": 11.5110916562,
			"0.003": 10.8665055374,
			"0.004": 9.31060724086,
			"0.005": 9.99496808456,
			"0.006": 15.7299603625,
			"0.007": 9.02388799107,
			"0.008": 6.11472164387,
			"0.009": 4.607039431,
			"0.01": 2.08100420652,
			"0.011": 1.67871479854,
			"0.012": 1.64629291932,
			"0.013": 1.63609205033,
			"0.014": 0.755888636946,
			"0.015": 0.324637110403,
			"0.016": 0.0,
			"0.017": 0.0,
			"0.018": 0.0,
			"0.019": 0.0,
			"0.02": 0.0,
			"0.021": 0.0,
			"0.022": 0.0,
			"0.023": 0.0,
			"0.024": 0.0,
			"0.025": 0.0
		}
	}
}
