{
	 "smiles": "CCOC1=CC(C=O)=CC=C1OC", 
	 "Tm": 325.15, 
	 "num_atms": 25, 
	 "gaussian": { 
		 "optdone": 1, 
		 "sigma_profile": "yes", 
		 "theory": "DFT", 
		 "functional": "B3LYP", 
		 "basiset": "6-31G**", 
		 "properties": { 
			 "R2extent": 2719.1184, 
			 "electric_dipole_moment_norm": 2.65162404764, 
			 "electric_quadrupole_moment_norm": 16.9777404748, 
			 "total_energy": -613.936500059, 
			 "HOMO_LUMO_gap": 0.16888, 
			 "cosmo_polarized_energy": -9.75, 
			 "cosmo_cavitation_energy": 28.76, 
			 "cosmo_dispersion_energy": -20.42, 
			 "cosmo_repulsion_energy": 1.64, 
			 "cosmo_total_nonelectrostatic_energy": 9.99, 
			 "SMD_solvation_energy": 7.28 
		},
		"coords": [
			{
				"x": 0.4828192927,
				"y": -0.0655291841,
				"z": 3.4461686864,
				"element": "C" 
			},
			{
				"x": -0.6692560851,
				"y": -0.6576276894,
				"z": 2.6426752202,
				"element": "C" 
			},
			{
				"x": -0.9995823475,
				"y": 0.1326139948,
				"z": 1.4920391905,
				"element": "O" 
			},
			{
				"x": -0.2399530331,
				"y": 0.0344807978,
				"z": 0.3637402492,
				"element": "C" 
			},
			{
				"x": 0.824255685,
				"y": -0.8431429582,
				"z": 0.1845525166,
				"element": "C" 
			},
			{
				"x": 1.5529191207,
				"y": -0.8469166307,
				"z": -1.0175883282,
				"element": "C" 
			},
			{
				"x": 2.6827568778,
				"y": -1.7819421143,
				"z": -1.1789189346,
				"element": "C" 
			},
			{
				"x": 3.0511663139,
				"y": -2.5803655102,
				"z": -0.3353879093,
				"element": "O" 
			},
			{
				"x": 1.2186483611,
				"y": 0.03568008,
				"z": -2.0475330943,
				"element": "C" 
			},
			{
				"x": 0.145620681,
				"y": 0.9090203698,
				"z": -1.8802902768,
				"element": "C" 
			},
			{
				"x": -0.5898334257,
				"y": 0.9173983892,
				"z": -0.6951525282,
				"element": "C" 
			},
			{
				"x": -1.5891451907,
				"y": 1.8407429859,
				"z": -0.5703633939,
				"element": "O" 
			},
			{
				"x": -2.9194604951,
				"y": 1.3465771984,
				"z": -0.3740711298,
				"element": "C" 
			},
			{
				"x": 0.6484143943,
				"y": -0.6604878962,
				"z": 4.3504191586,
				"element": "H" 
			},
			{
				"x": 1.4137191062,
				"y": -0.0515940079,
				"z": 2.8737196927,
				"element": "H" 
			},
			{
				"x": 0.2479117548,
				"y": 0.9598239796,
				"z": 3.7452293312,
				"element": "H" 
			},
			{
				"x": -0.4677161433,
				"y": -1.6937208145,
				"z": 2.3450280962,
				"element": "H" 
			},
			{
				"x": -1.5867774484,
				"y": -0.6591364773,
				"z": 3.2372480881,
				"element": "H" 
			},
			{
				"x": 1.1380106516,
				"y": -1.5344436027,
				"z": 0.9574078194,
				"element": "H" 
			},
			{
				"x": 3.2021206235,
				"y": -1.7112990963,
				"z": -2.1607864549,
				"element": "H" 
			},
			{
				"x": 1.7884345146,
				"y": 0.0338690783,
				"z": -2.9730057539,
				"element": "H" 
			},
			{
				"x": -0.1466578369,
				"y": 1.6073707911,
				"z": -2.6575749026,
				"element": "H" 
			},
			{
				"x": -3.5654077656,
				"y": 2.2264331491,
				"z": -0.370044218,
				"element": "H" 
			},
			{
				"x": -3.0155129812,
				"y": 0.8120781183,
				"z": 0.5734672925,
				"element": "H" 
			},
			{
				"x": -3.2127946246,
				"y": 0.6879170495,
				"z": -1.2012784172,
				"element": "H" 
			}
		],
		 "valence_orbital": [ 
			{
				"type": "occ",
				"energy": -0.32202,
				"method": "rhf"
			},
			{
				"type": "occ",
				"energy": -0.28581,
				"method": "rhf"
			},
			{
				"type": "occ",
				"energy": -0.24992,
				"method": "rhf"
			},
			{
				"type": "occ",
				"energy": -0.2489,
				"method": "rhf"
			},
			{
				"type": "occ",
				"energy": -0.22471,
				"method": "rhf"
			},
			{
				"type": "unocc",
				"energy": -0.05583,
				"method": "rhf"
			},
			{
				"type": "unocc",
				"energy": -0.00129,
				"method": "rhf"
			},
			{
				"type": "unocc",
				"energy": 0.04831,
				"method": "rhf"
			},
			{
				"type": "unocc",
				"energy": 0.08557,
				"method": "rhf"
			},
			{
				"type": "unocc",
				"energy": 0.09268,
				"method": "rhf"
			}
		],
		"cosmo_sigma_profile": { 
			"-0.025": 0.0,
			"-0.024": 0.0,
			"-0.023": 0.0,
			"-0.022": 0.0,
			"-0.021": 0.0,
			"-0.02": 0.0,
			"-0.019": 0.0,
			"-0.018": 0.0,
			"-0.017": 0.0,
			"-0.016": 0.0,
			"-0.015": 0.0,
			"-0.014": 0.0,
			"-0.013": 0.0,
			"-0.012": 0.0,
			"-0.011": 0.0,
			"-0.01": 0.0,
			"-0.009": 0.0,
			"-0.008": 0.511348702942,
			"-0.007": 5.64023589914,
			"-0.006": 11.4731835547,
			"-0.005": 16.5144515095,
			"-0.004": 23.4028010975,
			"-0.003": 26.1338905284,
			"-0.002": 21.0617976325,
			"-0.001": 16.7318177505,
			"0.0": 18.3898649208,
			"0.001": 15.0587160543,
			"0.002": 15.9229299356,
			"0.003": 15.4601903662,
			"0.004": 7.43072114287,
			"0.005": 4.76168748634,
			"0.006": 3.39998994319,
			"0.007": 2.8913857572,
			"0.008": 4.24153786548,
			"0.009": 5.08332886867,
			"0.01": 3.92933393308,
			"0.011": 4.63058642585,
			"0.012": 4.21563039532,
			"0.013": 1.24344746806,
			"0.014": 0.0721472287407,
			"0.015": 0.0,
			"0.016": 0.0,
			"0.017": 0.0,
			"0.018": 0.0,
			"0.019": 0.0,
			"0.02": 0.0,
			"0.021": 0.0,
			"0.022": 0.0,
			"0.023": 0.0,
			"0.024": 0.0,
			"0.025": 0.0
		}
	}
}
