{
	 "smiles": "ClC1=CN=CC2=NNC(=O)N12", 
	 "Tm": 443.15, 
	 "num_atms": 14, 
	 "gaussian": { 
		 "optdone": 1, 
		 "sigma_profile": "yes", 
		 "theory": "DFT", 
		 "functional": "B3LYP", 
		 "basiset": "6-31G**", 
		 "properties": { 
			 "R2extent": 3135.4318, 
			 "electric_dipole_moment_norm": 1.35518731178, 
			 "electric_quadrupole_moment_norm": 10.1154676096, 
			 "total_energy": -946.720997047, 
			 "HOMO_LUMO_gap": 0.14247, 
			 "cosmo_polarized_energy": -12.79, 
			 "cosmo_cavitation_energy": 20.88, 
			 "cosmo_dispersion_energy": -16.14, 
			 "cosmo_repulsion_energy": 1.28, 
			 "cosmo_total_nonelectrostatic_energy": 6.02, 
			 "SMD_solvation_energy": 2.16 
		},
		"coords": [
			{
				"x": 3.4733854888,
				"y": 2.1923651936,
				"z": -1.9362530119,
				"element": "Cl" 
			},
			{
				"x": 2.4701963713,
				"y": 0.7972381145,
				"z": -1.7748143226,
				"element": "C" 
			},
			{
				"x": 2.2360802407,
				"y": -0.0617650115,
				"z": -2.8064009042,
				"element": "C" 
			},
			{
				"x": 1.4364669534,
				"y": -1.1815100496,
				"z": -2.6932819441,
				"element": "N" 
			},
			{
				"x": 0.8732907352,
				"y": -1.4391834785,
				"z": -1.5492453849,
				"element": "C" 
			},
			{
				"x": 1.0581016766,
				"y": -0.5968168518,
				"z": -0.4055729175,
				"element": "C" 
			},
			{
				"x": 0.576509334,
				"y": -0.7005521624,
				"z": 0.8066017938,
				"element": "N" 
			},
			{
				"x": 1.0983949828,
				"y": 0.3894202726,
				"z": 1.4526032249,
				"element": "N" 
			},
			{
				"x": 1.9129374151,
				"y": 1.2136719632,
				"z": 0.7031182586,
				"element": "C" 
			},
			{
				"x": 2.4957961301,
				"y": 2.2291363342,
				"z": 1.0199692301,
				"element": "O" 
			},
			{
				"x": 1.8777285675,
				"y": 0.5346766978,
				"z": -0.554218559,
				"element": "N" 
			},
			{
				"x": 2.6891301395,
				"y": 0.122434847,
				"z": -3.7730043815,
				"element": "H" 
			},
			{
				"x": 0.2419992469,
				"y": -2.3192881687,
				"z": -1.4520211436,
				"element": "H" 
			},
			{
				"x": 0.8804827181,
				"y": 0.5531722997,
				"z": 2.4234200619,
				"element": "H" 
			}
		],
		 "valence_orbital": [ 
			{
				"type": "occ",
				"energy": -0.338,
				"method": "rhf"
			},
			{
				"type": "occ",
				"energy": -0.29764,
				"method": "rhf"
			},
			{
				"type": "occ",
				"energy": -0.29225,
				"method": "rhf"
			},
			{
				"type": "occ",
				"energy": -0.2792,
				"method": "rhf"
			},
			{
				"type": "occ",
				"energy": -0.2234,
				"method": "rhf"
			},
			{
				"type": "unocc",
				"energy": -0.08093,
				"method": "rhf"
			},
			{
				"type": "unocc",
				"energy": -0.02196,
				"method": "rhf"
			},
			{
				"type": "unocc",
				"energy": 0.00896,
				"method": "rhf"
			},
			{
				"type": "unocc",
				"energy": 0.04085,
				"method": "rhf"
			},
			{
				"type": "unocc",
				"energy": 0.07127,
				"method": "rhf"
			}
		],
		"cosmo_sigma_profile": { 
			"-0.025": 0.0,
			"-0.024": 0.0,
			"-0.023": 0.0,
			"-0.022": 0.0,
			"-0.021": 0.0,
			"-0.02": 0.0,
			"-0.019": 0.0,
			"-0.018": 0.983627938923,
			"-0.017": 1.35517495209,
			"-0.016": 0.982965901469,
			"-0.015": 1.14029360929,
			"-0.014": 0.670881482816,
			"-0.013": 1.09577462375,
			"-0.012": 1.00790878218,
			"-0.011": 0.612656157723,
			"-0.01": 0.7846360299,
			"-0.009": 3.83295621166,
			"-0.008": 4.30865878239,
			"-0.007": 4.11813119486,
			"-0.006": 9.59119080587,
			"-0.005": 9.67379186873,
			"-0.004": 9.95131726723,
			"-0.003": 13.233598183,
			"-0.002": 13.9356600781,
			"-0.001": 10.9305282991,
			"0.0": 10.9950348505,
			"0.001": 9.407226427,
			"0.002": 13.3917998355,
			"0.003": 5.91812756478,
			"0.004": 3.29443362208,
			"0.005": 4.06286414196,
			"0.006": 4.41973496279,
			"0.007": 3.91388463367,
			"0.008": 3.42923963437,
			"0.009": 3.29998140291,
			"0.01": 4.40266348503,
			"0.011": 3.96454709031,
			"0.012": 8.7193077355,
			"0.013": 3.3751264247,
			"0.014": 0.639179622335,
			"0.015": 0.0659611654085,
			"0.016": 0.0,
			"0.017": 0.0,
			"0.018": 0.0,
			"0.019": 0.0,
			"0.02": 0.0,
			"0.021": 0.0,
			"0.022": 0.0,
			"0.023": 0.0,
			"0.024": 0.0,
			"0.025": 0.0
		}
	}
}
