{
	 "smiles": "COC1=CC=C2C=C(C=CC2=C1)C(C)O", 
	 "Tm": 385.15, 
	 "num_atms": 29, 
	 "gaussian": { 
		 "optdone": 1, 
		 "sigma_profile": "yes", 
		 "theory": "DFT", 
		 "functional": "B3LYP", 
		 "basiset": "6-31G**", 
		 "properties": { 
			 "R2extent": 4427.7099, 
			 "electric_dipole_moment_norm": 1.85337949972, 
			 "electric_quadrupole_moment_norm": 13.4058364334, 
			 "total_energy": -654.267128165, 
			 "HOMO_LUMO_gap": 0.16378, 
			 "cosmo_polarized_energy": -10.45, 
			 "cosmo_cavitation_energy": 32.03, 
			 "cosmo_dispersion_energy": -23.34, 
			 "cosmo_repulsion_energy": 1.81, 
			 "cosmo_total_nonelectrostatic_energy": 10.5, 
			 "SMD_solvation_energy": 5.93 
		},
		"coords": [
			{
				"x": 5.246679867,
				"y": 0.9519349408,
				"z": -1.5168691929,
				"element": "C" 
			},
			{
				"x": 4.2594119999,
				"y": 1.5726889931,
				"z": -0.710131459,
				"element": "O" 
			},
			{
				"x": 3.0360070299,
				"y": 0.9745355914,
				"z": -0.5918379272,
				"element": "C" 
			},
			{
				"x": 2.688358715,
				"y": -0.2417350035,
				"z": -1.2363534204,
				"element": "C" 
			},
			{
				"x": 1.4291559915,
				"y": -0.776039699,
				"z": -1.0630767928,
				"element": "C" 
			},
			{
				"x": 0.4587411652,
				"y": -0.1407838284,
				"z": -0.2489127644,
				"element": "C" 
			},
			{
				"x": -0.8435250106,
				"y": -0.6762110492,
				"z": -0.0564742183,
				"element": "C" 
			},
			{
				"x": -1.7720474225,
				"y": -0.0398029581,
				"z": 0.7393667191,
				"element": "C" 
			},
			{
				"x": -1.4108990954,
				"y": 1.1807223718,
				"z": 1.3761453255,
				"element": "C" 
			},
			{
				"x": -0.1598813832,
				"y": 1.7258347505,
				"z": 1.2161194641,
				"element": "C" 
			},
			{
				"x": 0.817094033,
				"y": 1.0866915793,
				"z": 0.4001468812,
				"element": "C" 
			},
			{
				"x": 2.1115659276,
				"y": 1.6214098256,
				"z": 0.2096856618,
				"element": "C" 
			},
			{
				"x": -3.1562909514,
				"y": -0.6307723733,
				"z": 0.9663415023,
				"element": "C" 
			},
			{
				"x": -3.2178339578,
				"y": -1.4847653132,
				"z": 2.2343271363,
				"element": "C" 
			},
			{
				"x": -3.5680086036,
				"y": -1.4786277374,
				"z": -0.1034703959,
				"element": "O" 
			},
			{
				"x": 5.5107884467,
				"y": -0.0464511322,
				"z": -1.144528262,
				"element": "H" 
			},
			{
				"x": 4.9275293813,
				"y": 0.870662916,
				"z": -2.5641329601,
				"element": "H" 
			},
			{
				"x": 6.1262227683,
				"y": 1.5956053205,
				"z": -1.462458063,
				"element": "H" 
			},
			{
				"x": 3.4050325446,
				"y": -0.7562328767,
				"z": -1.8654306036,
				"element": "H" 
			},
			{
				"x": 1.1689611234,
				"y": -1.7078241386,
				"z": -1.5588127813,
				"element": "H" 
			},
			{
				"x": -1.112432766,
				"y": -1.6076598463,
				"z": -0.5474064756,
				"element": "H" 
			},
			{
				"x": -2.1454907936,
				"y": 1.6902805926,
				"z": 1.9961973205,
				"element": "H" 
			},
			{
				"x": 0.0983106066,
				"y": 2.6608192222,
				"z": 1.7067312781,
				"element": "H" 
			},
			{
				"x": 2.3981350625,
				"y": 2.5502033575,
				"z": 0.6934462496,
				"element": "H" 
			},
			{
				"x": -3.8686011606,
				"y": 0.2048639834,
				"z": 1.0785633537,
				"element": "H" 
			},
			{
				"x": -2.5173266943,
				"y": -2.3210687743,
				"z": 2.1533466891,
				"element": "H" 
			},
			{
				"x": -2.9517328897,
				"y": -0.8921637379,
				"z": 3.1142385128,
				"element": "H" 
			},
			{
				"x": -4.2272862667,
				"y": -1.884532488,
				"z": 2.3684022008,
				"element": "H" 
			},
			{
				"x": -3.4969376673,
				"y": -0.9681824887,
				"z": -0.9213629784,
				"element": "H" 
			}
		],
		 "valence_orbital": [ 
			{
				"type": "occ",
				"energy": -0.29847,
				"method": "rhf"
			},
			{
				"type": "occ",
				"energy": -0.27715,
				"method": "rhf"
			},
			{
				"type": "occ",
				"energy": -0.2639,
				"method": "rhf"
			},
			{
				"type": "occ",
				"energy": -0.23028,
				"method": "rhf"
			},
			{
				"type": "occ",
				"energy": -0.19915,
				"method": "rhf"
			},
			{
				"type": "unocc",
				"energy": -0.03537,
				"method": "rhf"
			},
			{
				"type": "unocc",
				"energy": -0.00056,
				"method": "rhf"
			},
			{
				"type": "unocc",
				"energy": 0.03552,
				"method": "rhf"
			},
			{
				"type": "unocc",
				"energy": 0.08682,
				"method": "rhf"
			},
			{
				"type": "unocc",
				"energy": 0.09411,
				"method": "rhf"
			}
		],
		"cosmo_sigma_profile": { 
			"-0.025": 0.0,
			"-0.024": 0.0,
			"-0.023": 0.0,
			"-0.022": 0.0,
			"-0.021": 0.0,
			"-0.02": 0.0,
			"-0.019": 0.0,
			"-0.018": 0.0,
			"-0.017": 0.0,
			"-0.016": 0.0212247824589,
			"-0.015": 0.594184622531,
			"-0.014": 0.625047619161,
			"-0.013": 1.14011999005,
			"-0.012": 0.847741893849,
			"-0.011": 0.799407129205,
			"-0.01": 0.820277328736,
			"-0.009": 0.610852061401,
			"-0.008": 0.63751584538,
			"-0.007": 1.24991090864,
			"-0.006": 10.9529055243,
			"-0.005": 23.87386629,
			"-0.004": 24.0953275116,
			"-0.003": 25.6159806091,
			"-0.002": 18.2367387337,
			"-0.001": 17.8830421896,
			"0.0": 16.5549442764,
			"0.001": 14.6973172656,
			"0.002": 12.3814293456,
			"0.003": 13.3253333728,
			"0.004": 22.7433951751,
			"0.005": 23.2824395396,
			"0.006": 5.09103784234,
			"0.007": 3.01206831545,
			"0.008": 1.73141214555,
			"0.009": 3.14937319148,
			"0.01": 2.61340644955,
			"0.011": 1.69753743231,
			"0.012": 1.59982525056,
			"0.013": 1.57017174012,
			"0.014": 1.58096355627,
			"0.015": 0.139682538447,
			"0.016": 0.0,
			"0.017": 0.0,
			"0.018": 0.0,
			"0.019": 0.0,
			"0.02": 0.0,
			"0.021": 0.0,
			"0.022": 0.0,
			"0.023": 0.0,
			"0.024": 0.0,
			"0.025": 0.0
		}
	}
}
