{
	 "smiles": "NS(=O)(=O)C1=C(Cl)N=CC(Br)=C1", 
	 "Tm": 393.15, 
	 "num_atms": 16, 
	 "gaussian": { 
		 "optdone": 1, 
		 "sigma_profile": "yes", 
		 "theory": "DFT", 
		 "functional": "B3LYP", 
		 "basiset": "6-31G**", 
		 "properties": { 
			 "R2extent": 4689.5986, 
			 "electric_dipole_moment_norm": 4.64341519251, 
			 "electric_quadrupole_moment_norm": 11.6703415546, 
			 "total_energy": -3882.5861163, 
			 "HOMO_LUMO_gap": 0.19897, 
			 "cosmo_polarized_energy": -16.86, 
			 "cosmo_cavitation_energy": 26.41, 
			 "cosmo_dispersion_energy": -20.57, 
			 "cosmo_repulsion_energy": 1.6, 
			 "cosmo_total_nonelectrostatic_energy": 7.44, 
			 "SMD_solvation_energy": 1.54 
		},
		"coords": [
			{
				"x": -0.5451938873,
				"y": -1.0926082497,
				"z": -2.6386484009,
				"element": "N" 
			},
			{
				"x": 0.428292089,
				"y": 0.1596065898,
				"z": -2.0538730364,
				"element": "S" 
			},
			{
				"x": -0.4138851584,
				"y": 1.3484108937,
				"z": -1.9357853778,
				"element": "O" 
			},
			{
				"x": 1.6684550771,
				"y": 0.1459107283,
				"z": -2.8273544286,
				"element": "O" 
			},
			{
				"x": 0.8126933427,
				"y": -0.4153215737,
				"z": -0.3806854849,
				"element": "C" 
			},
			{
				"x": 1.6226227745,
				"y": 0.3412447008,
				"z": 0.4889588752,
				"element": "C" 
			},
			{
				"x": 2.2960092511,
				"y": 1.8722565646,
				"z": -0.0049381816,
				"element": "Cl" 
			},
			{
				"x": 1.9213686891,
				"y": -0.0510396366,
				"z": 1.7155212628,
				"element": "N" 
			},
			{
				"x": 1.4414023958,
				"y": -1.2139774608,
				"z": 2.1645282267,
				"element": "C" 
			},
			{
				"x": 0.6321445791,
				"y": -2.0319054829,
				"z": 1.3795430837,
				"element": "C" 
			},
			{
				"x": -0.0227804051,
				"y": -3.6757888283,
				"z": 2.0700136396,
				"element": "Br" 
			},
			{
				"x": 0.3107495268,
				"y": -1.6288238457,
				"z": 0.0853737408,
				"element": "C" 
			},
			{
				"x": -1.4662753129,
				"y": -0.7252422547,
				"z": -2.8626609158,
				"element": "H" 
			},
			{
				"x": -0.0982201279,
				"y": -1.5154226047,
				"z": -3.4479533591,
				"element": "H" 
			},
			{
				"x": 1.7107065508,
				"y": -1.4988635199,
				"z": 3.1774638482,
				"element": "H" 
			},
			{
				"x": -0.3147893842,
				"y": -2.2341360202,
				"z": -0.557803492,
				"element": "H" 
			}
		],
		 "valence_orbital": [ 
			{
				"type": "occ",
				"energy": -0.31865,
				"method": "rhf"
			},
			{
				"type": "occ",
				"energy": -0.30744,
				"method": "rhf"
			},
			{
				"type": "occ",
				"energy": -0.30733,
				"method": "rhf"
			},
			{
				"type": "occ",
				"energy": -0.29429,
				"method": "rhf"
			},
			{
				"type": "occ",
				"energy": -0.26814,
				"method": "rhf"
			},
			{
				"type": "unocc",
				"energy": -0.06917,
				"method": "rhf"
			},
			{
				"type": "unocc",
				"energy": -0.05875,
				"method": "rhf"
			},
			{
				"type": "unocc",
				"energy": -0.02082,
				"method": "rhf"
			},
			{
				"type": "unocc",
				"energy": 0.01508,
				"method": "rhf"
			},
			{
				"type": "unocc",
				"energy": 0.03666,
				"method": "rhf"
			}
		],
		"cosmo_sigma_profile": { 
			"-0.025": 0.0,
			"-0.024": 0.0,
			"-0.023": 0.0,
			"-0.022": 0.0,
			"-0.021": 0.0,
			"-0.02": 0.0,
			"-0.019": 0.0,
			"-0.018": 0.0,
			"-0.017": 0.0,
			"-0.016": 0.587812510312,
			"-0.015": 2.32717013958,
			"-0.014": 2.85737540161,
			"-0.013": 2.76822582838,
			"-0.012": 2.38879805348,
			"-0.011": 1.65627052529,
			"-0.01": 1.46967278203,
			"-0.009": 3.92889461036,
			"-0.008": 4.04091114069,
			"-0.007": 5.57432190319,
			"-0.006": 7.13452388692,
			"-0.005": 8.76900102931,
			"-0.004": 11.3561563486,
			"-0.003": 17.7049494579,
			"-0.002": 19.2323832404,
			"-0.001": 12.5158990337,
			"0.0": 11.4672596426,
			"0.001": 12.5601719824,
			"0.002": 15.2463723795,
			"0.003": 20.2010337468,
			"0.004": 8.43172218649,
			"0.005": 5.26706232775,
			"0.006": 4.547374241,
			"0.007": 5.6853945997,
			"0.008": 4.37198131714,
			"0.009": 7.24746460837,
			"0.01": 13.3118258488,
			"0.011": 4.63121495502,
			"0.012": 0.619329020197,
			"0.013": 0.126869998418,
			"0.014": 0.0,
			"0.015": 0.0,
			"0.016": 0.0,
			"0.017": 0.0,
			"0.018": 0.0,
			"0.019": 0.0,
			"0.02": 0.0,
			"0.021": 0.0,
			"0.022": 0.0,
			"0.023": 0.0,
			"0.024": 0.0,
			"0.025": 0.0
		}
	}
}
