{
	 "smiles": "C1CCC(CC1)C1=CC=C(C=C1)C1CCCCC1", 
	 "Tm": 377.15, 
	 "num_atms": 44, 
	 "gaussian": { 
		 "optdone": 1, 
		 "sigma_profile": "yes", 
		 "theory": "DFT", 
		 "functional": "B3LYP", 
		 "basiset": "6-31G**", 
		 "properties": { 
			 "R2extent": 8137.502, 
			 "electric_dipole_moment_norm": 0.0593240254871, 
			 "electric_quadrupole_moment_norm": 5.18377722901, 
			 "total_energy": -701.62376113, 
			 "HOMO_LUMO_gap": 0.22812, 
			 "cosmo_polarized_energy": -3.37, 
			 "cosmo_cavitation_energy": 41.49, 
			 "cosmo_dispersion_energy": -29.93, 
			 "cosmo_repulsion_energy": 2.34, 
			 "cosmo_total_nonelectrostatic_energy": 13.9, 
			 "SMD_solvation_energy": 5.0 
		},
		"coords": [
			{
				"x": 4.4557729036,
				"y": -0.220418591,
				"z": -3.8830373849,
				"element": "C" 
			},
			{
				"x": 4.4987688026,
				"y": -1.2172982768,
				"z": -2.7154117555,
				"element": "C" 
			},
			{
				"x": 3.20326868,
				"y": -1.1786160239,
				"z": -1.890115392,
				"element": "C" 
			},
			{
				"x": 2.884912615,
				"y": 0.2466649863,
				"z": -1.3819863279,
				"element": "C" 
			},
			{
				"x": 2.8473860312,
				"y": 1.2409703661,
				"z": -2.5656918585,
				"element": "C" 
			},
			{
				"x": 4.1430262436,
				"y": 1.2003700643,
				"z": -3.390593672,
				"element": "C" 
			},
			{
				"x": 1.6193967167,
				"y": 0.2961398737,
				"z": -0.5423299049,
				"element": "C" 
			},
			{
				"x": 1.6648425023,
				"y": 0.6878766406,
				"z": 0.80226562,
				"element": "C" 
			},
			{
				"x": 0.5116564821,
				"y": 0.7409721617,
				"z": 1.584718901,
				"element": "C" 
			},
			{
				"x": -0.741943362,
				"y": 0.4059776574,
				"z": 1.0528352802,
				"element": "C" 
			},
			{
				"x": -0.7868214941,
				"y": 0.014212323,
				"z": -0.2916639042,
				"element": "C" 
			},
			{
				"x": 0.3666962666,
				"y": -0.0408069283,
				"z": -1.0737810037,
				"element": "C" 
			},
			{
				"x": -2.008321866,
				"y": 0.4364312133,
				"z": 1.8933413401,
				"element": "C" 
			},
			{
				"x": -2.0571544245,
				"y": -0.7567876403,
				"z": 2.8845166804,
				"element": "C" 
			},
			{
				"x": -3.1943595598,
				"y": -0.5822992978,
				"z": 3.8993051153,
				"element": "C" 
			},
			{
				"x": -2.9665466085,
				"y": 0.6557666941,
				"z": 4.8061143211,
				"element": "C" 
			},
			{
				"x": -2.0191429274,
				"y": 1.6878722332,
				"z": 4.1580281382,
				"element": "C" 
			},
			{
				"x": -2.2413462244,
				"y": 1.7918254247,
				"z": 2.6420462095,
				"element": "C" 
			},
			{
				"x": 5.4060347372,
				"y": -0.2335015014,
				"z": -4.4304339833,
				"element": "H" 
			},
			{
				"x": 3.6803046074,
				"y": -0.5338492112,
				"z": -4.5968160117,
				"element": "H" 
			},
			{
				"x": 5.3497286901,
				"y": -0.9727883455,
				"z": -2.0634193822,
				"element": "H" 
			},
			{
				"x": 4.676005051,
				"y": -2.23368651,
				"z": -3.0875611465,
				"element": "H" 
			},
			{
				"x": 2.3684850299,
				"y": -1.5348822799,
				"z": -2.5095373015,
				"element": "H" 
			},
			{
				"x": 3.2707787467,
				"y": -1.8656211853,
				"z": -1.0382990323,
				"element": "H" 
			},
			{
				"x": 3.7186606027,
				"y": 0.5507994253,
				"z": -0.731736037,
				"element": "H" 
			},
			{
				"x": 2.6647562349,
				"y": 2.2541242933,
				"z": -2.1884765027,
				"element": "H" 
			},
			{
				"x": 1.9962036012,
				"y": 0.9947491172,
				"z": -3.2155909917,
				"element": "H" 
			},
			{
				"x": 4.0688852777,
				"y": 1.8909748526,
				"z": -4.2394271317,
				"element": "H" 
			},
			{
				"x": 4.9772540578,
				"y": 1.5591047795,
				"z": -2.7706007984,
				"element": "H" 
			},
			{
				"x": 2.6216200455,
				"y": 0.9569272453,
				"z": 1.2446296311,
				"element": "H" 
			},
			{
				"x": 0.5933857557,
				"y": 1.0510294444,
				"z": 2.6233724518,
				"element": "H" 
			},
			{
				"x": -1.7442948168,
				"y": -0.2498103424,
				"z": -0.735618978,
				"element": "H" 
			},
			{
				"x": 0.2843133433,
				"y": -0.3475522907,
				"z": -2.1134387719,
				"element": "H" 
			},
			{
				"x": -2.8484928538,
				"y": 0.3003259166,
				"z": 1.2004966851,
				"element": "H" 
			},
			{
				"x": -2.1750511199,
				"y": -1.689144724,
				"z": 2.3208641479,
				"element": "H" 
			},
			{
				"x": -1.0979543533,
				"y": -0.8399766937,
				"z": 3.411458094,
				"element": "H" 
			},
			{
				"x": -4.1377307042,
				"y": -0.4725382217,
				"z": 3.3480066017,
				"element": "H" 
			},
			{
				"x": -3.3043140365,
				"y": -1.4857244698,
				"z": 4.5094585489,
				"element": "H" 
			},
			{
				"x": -2.5521044329,
				"y": 0.3446845562,
				"z": 5.772343161,
				"element": "H" 
			},
			{
				"x": -3.9309625865,
				"y": 1.1289850848,
				"z": 5.0266931547,
				"element": "H" 
			},
			{
				"x": -0.977549379,
				"y": 1.4051446061,
				"z": 4.3555342581,
				"element": "H" 
			},
			{
				"x": -2.1566039074,
				"y": 2.6696024108,
				"z": 4.6258582995,
				"element": "H" 
			},
			{
				"x": -3.2729947725,
				"y": 2.1220783893,
				"z": 2.4655254895,
				"element": "H" 
			},
			{
				"x": -1.597053595,
				"y": 2.5676927736,
				"z": 2.2158551437,
				"element": "H" 
			}
		],
		 "valence_orbital": [ 
			{
				"type": "occ",
				"energy": -0.29464,
				"method": "rhf"
			},
			{
				"type": "occ",
				"energy": -0.29228,
				"method": "rhf"
			},
			{
				"type": "occ",
				"energy": -0.28765,
				"method": "rhf"
			},
			{
				"type": "occ",
				"energy": -0.24016,
				"method": "rhf"
			},
			{
				"type": "occ",
				"energy": -0.22337,
				"method": "rhf"
			},
			{
				"type": "unocc",
				"energy": 0.00475,
				"method": "rhf"
			},
			{
				"type": "unocc",
				"energy": 0.01092,
				"method": "rhf"
			},
			{
				"type": "unocc",
				"energy": 0.07934,
				"method": "rhf"
			},
			{
				"type": "unocc",
				"energy": 0.09115,
				"method": "rhf"
			},
			{
				"type": "unocc",
				"energy": 0.09665,
				"method": "rhf"
			}
		],
		"cosmo_sigma_profile": { 
			"-0.025": 0.0,
			"-0.024": 0.0,
			"-0.023": 0.0,
			"-0.022": 0.0,
			"-0.021": 0.0,
			"-0.02": 0.0,
			"-0.019": 0.0,
			"-0.018": 0.0,
			"-0.017": 0.0,
			"-0.016": 0.0,
			"-0.015": 0.0,
			"-0.014": 0.0,
			"-0.013": 0.0,
			"-0.012": 0.0,
			"-0.011": 0.0,
			"-0.01": 0.0,
			"-0.009": 0.0,
			"-0.008": 0.0,
			"-0.007": 0.0,
			"-0.006": 0.0,
			"-0.005": 2.55342007577,
			"-0.004": 11.4347277468,
			"-0.003": 17.3772105707,
			"-0.002": 50.663464494,
			"-0.001": 62.8963572443,
			"0.0": 64.8039625388,
			"0.001": 51.7880557223,
			"0.002": 23.3684210566,
			"0.003": 7.44180760841,
			"0.004": 6.9684921474,
			"0.005": 6.82853722536,
			"0.006": 6.54659641665,
			"0.007": 6.80549549146,
			"0.008": 0.669610040426,
			"0.009": 0.0,
			"0.01": 0.0,
			"0.011": 0.0,
			"0.012": 0.0,
			"0.013": 0.0,
			"0.014": 0.0,
			"0.015": 0.0,
			"0.016": 0.0,
			"0.017": 0.0,
			"0.018": 0.0,
			"0.019": 0.0,
			"0.02": 0.0,
			"0.021": 0.0,
			"0.022": 0.0,
			"0.023": 0.0,
			"0.024": 0.0,
			"0.025": 0.0
		}
	}
}
