{
	 "smiles": "OC(=O)C1=CCCS1", 
	 "Tm": 400.15, 
	 "num_atms": 14, 
	 "gaussian": { 
		 "optdone": 1, 
		 "sigma_profile": "yes", 
		 "theory": "DFT", 
		 "functional": "B3LYP", 
		 "basiset": "6-31G**", 
		 "properties": { 
			 "R2extent": 2076.5304, 
			 "electric_dipole_moment_norm": 5.08793832706, 
			 "electric_quadrupole_moment_norm": 13.6357628217, 
			 "total_energy": -742.770732125, 
			 "HOMO_LUMO_gap": 0.17927, 
			 "cosmo_polarized_energy": -12.06, 
			 "cosmo_cavitation_energy": 19.25, 
			 "cosmo_dispersion_energy": -15.15, 
			 "cosmo_repulsion_energy": 1.22, 
			 "cosmo_total_nonelectrostatic_energy": 5.32, 
			 "SMD_solvation_energy": 4.11 
		},
		"coords": [
			{
				"x": 3.93670314,
				"y": -0.4315428188,
				"z": 1.8752690266,
				"element": "O" 
			},
			{
				"x": 3.021291916,
				"y": 0.3765356296,
				"z": 1.2871086079,
				"element": "C" 
			},
			{
				"x": 3.214588556,
				"y": 1.5650118227,
				"z": 1.1882489693,
				"element": "O" 
			},
			{
				"x": 1.7787163307,
				"y": -0.2887634412,
				"z": 0.7941432003,
				"element": "C" 
			},
			{
				"x": 0.6541935951,
				"y": 0.3718429412,
				"z": 0.4862191394,
				"element": "C" 
			},
			{
				"x": -0.4766511368,
				"y": -0.4921158609,
				"z": -0.006000503,
				"element": "C" 
			},
			{
				"x": -0.1837598592,
				"y": -1.9259470018,
				"z": 0.4824732124,
				"element": "C" 
			},
			{
				"x": 1.6615375348,
				"y": -2.066092901,
				"z": 0.5763959471,
				"element": "S" 
			},
			{
				"x": 3.5759799416,
				"y": -1.3260910023,
				"z": 1.9865491626,
				"element": "H" 
			},
			{
				"x": 0.593395042,
				"y": 1.4524539638,
				"z": 0.5560757544,
				"element": "H" 
			},
			{
				"x": -0.5108347502,
				"y": -0.4546875382,
				"z": -1.1055636643,
				"element": "H" 
			},
			{
				"x": -1.4540994576,
				"y": -0.1521244089,
				"z": 0.353019353,
				"element": "H" 
			},
			{
				"x": -0.5594308862,
				"y": -2.6981963013,
				"z": -0.190275403,
				"element": "H" 
			},
			{
				"x": -0.5891299662,
				"y": -2.093783083,
				"z": 1.4838371972,
				"element": "H" 
			}
		],
		 "valence_orbital": [ 
			{
				"type": "occ",
				"energy": -0.34671,
				"method": "rhf"
			},
			{
				"type": "occ",
				"energy": -0.32806,
				"method": "rhf"
			},
			{
				"type": "occ",
				"energy": -0.31012,
				"method": "rhf"
			},
			{
				"type": "occ",
				"energy": -0.27468,
				"method": "rhf"
			},
			{
				"type": "occ",
				"energy": -0.22965,
				"method": "rhf"
			},
			{
				"type": "unocc",
				"energy": -0.05038,
				"method": "rhf"
			},
			{
				"type": "unocc",
				"energy": -0.00738,
				"method": "rhf"
			},
			{
				"type": "unocc",
				"energy": 0.06239,
				"method": "rhf"
			},
			{
				"type": "unocc",
				"energy": 0.07658,
				"method": "rhf"
			},
			{
				"type": "unocc",
				"energy": 0.08086,
				"method": "rhf"
			}
		],
		"cosmo_sigma_profile": { 
			"-0.025": 0.0,
			"-0.024": 0.0,
			"-0.023": 0.0,
			"-0.022": 0.0,
			"-0.021": 0.0,
			"-0.02": 0.0,
			"-0.019": 0.0,
			"-0.018": 0.0,
			"-0.017": 0.0,
			"-0.016": 0.223050274827,
			"-0.015": 0.500047388768,
			"-0.014": 1.02592260584,
			"-0.013": 0.467211512288,
			"-0.012": 0.629265955485,
			"-0.011": 1.30760520002,
			"-0.01": 1.17955005426,
			"-0.009": 0.803829840057,
			"-0.008": 1.56356030644,
			"-0.007": 4.41084428159,
			"-0.006": 10.3664275912,
			"-0.005": 15.3032757344,
			"-0.004": 15.3695203653,
			"-0.003": 15.3512784768,
			"-0.002": 10.7897878704,
			"-0.001": 6.08667471283,
			"0.0": 6.02138185742,
			"0.001": 7.815304017,
			"0.002": 7.0919006798,
			"0.003": 6.55669753899,
			"0.004": 4.69961123359,
			"0.005": 4.62762076381,
			"0.006": 4.38707458103,
			"0.007": 3.7529017308,
			"0.008": 4.8863200496,
			"0.009": 3.63739874453,
			"0.01": 5.23485984621,
			"0.011": 5.17285799532,
			"0.012": 4.47568479086,
			"0.013": 1.20764281168,
			"0.014": 0.00890383093641,
			"0.015": 0.0,
			"0.016": 0.0,
			"0.017": 0.0,
			"0.018": 0.0,
			"0.019": 0.0,
			"0.02": 0.0,
			"0.021": 0.0,
			"0.022": 0.0,
			"0.023": 0.0,
			"0.024": 0.0,
			"0.025": 0.0
		}
	}
}
