{
	 "smiles": "CCCCCCF", 
	 "Tm": 170.15, 
	 "num_atms": 20, 
	 "gaussian": { 
		 "optdone": 1, 
		 "sigma_profile": "yes", 
		 "theory": "DFT", 
		 "functional": "B3LYP", 
		 "basiset": "6-31G**", 
		 "properties": { 
			 "R2extent": 1213.4679, 
			 "electric_dipole_moment_norm": 1.52637108856, 
			 "electric_quadrupole_moment_norm": 4.9298222757, 
			 "total_energy": -336.321079436, 
			 "HOMO_LUMO_gap": 0.38714, 
			 "cosmo_polarized_energy": -2.73, 
			 "cosmo_cavitation_energy": 21.43, 
			 "cosmo_dispersion_energy": -15.57, 
			 "cosmo_repulsion_energy": 1.32, 
			 "cosmo_total_nonelectrostatic_energy": 7.19, 
			 "SMD_solvation_energy": 3.83 
		},
		"coords": [
			{
				"x": 2.2392278614,
				"y": 0.143658217,
				"z": -0.9349369482,
				"element": "C" 
			},
			{
				"x": 0.7905733745,
				"y": 0.1980209296,
				"z": -0.4413159129,
				"element": "C" 
			},
			{
				"x": 0.67890967,
				"y": 0.2606797907,
				"z": 1.0914920581,
				"element": "C" 
			},
			{
				"x": -0.7686339571,
				"y": 0.2116243174,
				"z": 1.6282878359,
				"element": "C" 
			},
			{
				"x": -1.2856527879,
				"y": -1.1875232709,
				"z": 2.0103219354,
				"element": "C" 
			},
			{
				"x": -1.2297698895,
				"y": -2.2204539616,
				"z": 0.8971497338,
				"element": "C" 
			},
			{
				"x": -1.9039549888,
				"y": -1.750642886,
				"z": -0.2337084168,
				"element": "F" 
			},
			{
				"x": 2.8107505554,
				"y": 1.0123462787,
				"z": -0.5874007798,
				"element": "H" 
			},
			{
				"x": 2.7514604254,
				"y": -0.7535976833,
				"z": -0.5678617449,
				"element": "H" 
			},
			{
				"x": 2.2897561544,
				"y": 0.1293411586,
				"z": -2.0286446902,
				"element": "H" 
			},
			{
				"x": 0.2944401034,
				"y": 1.0834848557,
				"z": -0.861436164,
				"element": "H" 
			},
			{
				"x": 0.2293526026,
				"y": -0.6600947166,
				"z": -0.8267051406,
				"element": "H" 
			},
			{
				"x": 1.2678752107,
				"y": -0.5542277899,
				"z": 1.5382985124,
				"element": "H" 
			},
			{
				"x": 1.1599159282,
				"y": 1.1871745996,
				"z": 1.4312225025,
				"element": "H" 
			},
			{
				"x": -1.446549037,
				"y": 0.6448135732,
				"z": 0.8834338754,
				"element": "H" 
			},
			{
				"x": -0.8525162491,
				"y": 0.8440768434,
				"z": 2.5198465609,
				"element": "H" 
			},
			{
				"x": -2.3214267476,
				"y": -1.1028619345,
				"z": 2.3616765264,
				"element": "H" 
			},
			{
				"x": -0.7010099045,
				"y": -1.5841429511,
				"z": 2.8523146337,
				"element": "H" 
			},
			{
				"x": -0.1961521162,
				"y": -2.4362639267,
				"z": 0.6017140848,
				"element": "H" 
			},
			{
				"x": -1.7047962083,
				"y": -3.1599114432,
				"z": 1.205251538,
				"element": "H" 
			}
		],
		 "valence_orbital": [ 
			{
				"type": "occ",
				"energy": -0.33277,
				"method": "rhf"
			},
			{
				"type": "occ",
				"energy": -0.32322,
				"method": "rhf"
			},
			{
				"type": "occ",
				"energy": -0.32005,
				"method": "rhf"
			},
			{
				"type": "occ",
				"energy": -0.3097,
				"method": "rhf"
			},
			{
				"type": "occ",
				"energy": -0.30577,
				"method": "rhf"
			},
			{
				"type": "unocc",
				"energy": 0.08137,
				"method": "rhf"
			},
			{
				"type": "unocc",
				"energy": 0.10658,
				"method": "rhf"
			},
			{
				"type": "unocc",
				"energy": 0.12089,
				"method": "rhf"
			},
			{
				"type": "unocc",
				"energy": 0.12454,
				"method": "rhf"
			},
			{
				"type": "unocc",
				"energy": 0.14261,
				"method": "rhf"
			}
		],
		"cosmo_sigma_profile": { 
			"-0.025": 0.0,
			"-0.024": 0.0,
			"-0.023": 0.0,
			"-0.022": 0.0,
			"-0.021": 0.0,
			"-0.02": 0.0,
			"-0.019": 0.0,
			"-0.018": 0.0,
			"-0.017": 0.0,
			"-0.016": 0.0,
			"-0.015": 0.0,
			"-0.014": 0.0,
			"-0.013": 0.0,
			"-0.012": 0.0,
			"-0.011": 0.0,
			"-0.01": 0.0,
			"-0.009": 0.0,
			"-0.008": 0.0,
			"-0.007": 0.0,
			"-0.006": 0.174703070295,
			"-0.005": 2.74137716751,
			"-0.004": 8.57642887973,
			"-0.003": 16.4562906926,
			"-0.002": 23.2806987463,
			"-0.001": 27.3727534733,
			"0.0": 28.3667846161,
			"0.001": 23.0085250086,
			"0.002": 12.9114019926,
			"0.003": 3.16689286756,
			"0.004": 3.28388760302,
			"0.005": 1.95805487298,
			"0.006": 5.35769424374,
			"0.007": 7.61624534997,
			"0.008": 0.805451239795,
			"0.009": 0.0,
			"0.01": 0.0,
			"0.011": 0.0,
			"0.012": 0.0,
			"0.013": 0.0,
			"0.014": 0.0,
			"0.015": 0.0,
			"0.016": 0.0,
			"0.017": 0.0,
			"0.018": 0.0,
			"0.019": 0.0,
			"0.02": 0.0,
			"0.021": 0.0,
			"0.022": 0.0,
			"0.023": 0.0,
			"0.024": 0.0,
			"0.025": 0.0
		}
	}
}
