{
	 "smiles": "CCOC(=O)C1=CC=C(C=C1)N1C(C)=NC2=C(C=CC=C2)C1=O", 
	 "Tm": 447.15, 
	 "num_atms": 39, 
	 "gaussian": { 
		 "optdone": 1, 
		 "sigma_profile": "yes", 
		 "theory": "DFT", 
		 "functional": "B3LYP", 
		 "basiset": "6-31G**", 
		 "properties": { 
			 "R2extent": 11646.2408, 
			 "electric_dipole_moment_norm": 2.35695517352, 
			 "electric_quadrupole_moment_norm": 16.0970802188, 
			 "total_energy": -1030.78594216, 
			 "HOMO_LUMO_gap": 0.17068, 
			 "cosmo_polarized_energy": -16.01, 
			 "cosmo_cavitation_energy": 43.72, 
			 "cosmo_dispersion_energy": -30.74, 
			 "cosmo_repulsion_energy": 2.33, 
			 "cosmo_total_nonelectrostatic_energy": 15.31, 
			 "SMD_solvation_energy": 7.75 
		},
		"coords": [
			{
				"x": -4.0165884972,
				"y": 3.4822976233,
				"z": -4.0667187695,
				"element": "C" 
			},
			{
				"x": -3.3565232031,
				"y": 4.4140783405,
				"z": -3.0617426836,
				"element": "C" 
			},
			{
				"x": -2.3625281686,
				"y": 3.7171311099,
				"z": -2.2715961412,
				"element": "O" 
			},
			{
				"x": -2.8119509196,
				"y": 3.0602752886,
				"z": -1.1799094557,
				"element": "C" 
			},
			{
				"x": -3.9777724858,
				"y": 3.0399735626,
				"z": -0.8336205915,
				"element": "O" 
			},
			{
				"x": -1.7127542587,
				"y": 2.3680658608,
				"z": -0.4436880673,
				"element": "C" 
			},
			{
				"x": -0.3776797897,
				"y": 2.4166465019,
				"z": -0.8665821243,
				"element": "C" 
			},
			{
				"x": 0.6079644064,
				"y": 1.7542145539,
				"z": -0.1393444738,
				"element": "C" 
			},
			{
				"x": 0.2617994202,
				"y": 1.0450337536,
				"z": 1.0126158257,
				"element": "C" 
			},
			{
				"x": -1.0686554711,
				"y": 0.9813501608,
				"z": 1.433217272,
				"element": "C" 
			},
			{
				"x": -2.0525135977,
				"y": 1.6448787479,
				"z": 0.7069131671,
				"element": "C" 
			},
			{
				"x": 1.2861332367,
				"y": 0.3630533495,
				"z": 1.7682076876,
				"element": "N" 
			},
			{
				"x": 1.9366486035,
				"y": 0.9853616691,
				"z": 2.8358281435,
				"element": "C" 
			},
			{
				"x": 1.5403052443,
				"y": 2.3976898189,
				"z": 3.1709876814,
				"element": "C" 
			},
			{
				"x": 2.8578240304,
				"y": 0.4129589055,
				"z": 3.5434789526,
				"element": "N" 
			},
			{
				"x": 3.2229493221,
				"y": -0.8877376174,
				"z": 3.2307645935,
				"element": "C" 
			},
			{
				"x": 2.6298393915,
				"y": -1.6045349337,
				"z": 2.1691082909,
				"element": "C" 
			},
			{
				"x": 3.0294497577,
				"y": -2.9205528159,
				"z": 1.8841895294,
				"element": "C" 
			},
			{
				"x": 4.0144234244,
				"y": -3.5236655131,
				"z": 2.6508220269,
				"element": "C" 
			},
			{
				"x": 4.6098245016,
				"y": -2.8149492557,
				"z": 3.7107476152,
				"element": "C" 
			},
			{
				"x": 4.2228017999,
				"y": -1.515418816,
				"z": 3.9999682191,
				"element": "C" 
			},
			{
				"x": 1.5893473224,
				"y": -0.9652276841,
				"z": 1.3613069098,
				"element": "C" 
			},
			{
				"x": 1.003876729,
				"y": -1.4762440979,
				"z": 0.4180336644,
				"element": "O" 
			},
			{
				"x": -4.7063399299,
				"y": 4.0500388463,
				"z": -4.7000682194,
				"element": "H" 
			},
			{
				"x": -3.268978084,
				"y": 3.0096233348,
				"z": -4.7103766813,
				"element": "H" 
			},
			{
				"x": -4.5854157998,
				"y": 2.7038407155,
				"z": -3.5527315003,
				"element": "H" 
			},
			{
				"x": -4.094513127,
				"y": 4.8545816635,
				"z": -2.3874313039,
				"element": "H" 
			},
			{
				"x": -2.7963563111,
				"y": 5.2094947091,
				"z": -3.5589723239,
				"element": "H" 
			},
			{
				"x": -0.1192703132,
				"y": 2.9692388263,
				"z": -1.7620145878,
				"element": "H" 
			},
			{
				"x": 1.643810091,
				"y": 1.7770075426,
				"z": -0.4621351489,
				"element": "H" 
			},
			{
				"x": -1.3235671103,
				"y": 0.408907055,
				"z": 2.3193454734,
				"element": "H" 
			},
			{
				"x": -3.0925124591,
				"y": 1.6130071529,
				"z": 1.0124821293,
				"element": "H" 
			},
			{
				"x": 0.4825058633,
				"y": 2.4645752124,
				"z": 3.4439101102,
				"element": "H" 
			},
			{
				"x": 1.6950417271,
				"y": 3.0701164671,
				"z": 2.3212953112,
				"element": "H" 
			},
			{
				"x": 2.1522332892,
				"y": 2.7258101259,
				"z": 4.0103222213,
				"element": "H" 
			},
			{
				"x": 2.5487424016,
				"y": -3.4366073265,
				"z": 1.0597502279,
				"element": "H" 
			},
			{
				"x": 4.3271937079,
				"y": -4.540817233,
				"z": 2.4355169039,
				"element": "H" 
			},
			{
				"x": 5.3814183322,
				"y": -3.2914713467,
				"z": 4.309000916,
				"element": "H" 
			},
			{
				"x": 4.6707869235,
				"y": -0.9536242582,
				"z": 4.8129192,
				"element": "H" 
			}
		],
		 "valence_orbital": [ 
			{
				"type": "occ",
				"energy": -0.27081,
				"method": "rhf"
			},
			{
				"type": "occ",
				"energy": -0.26307,
				"method": "rhf"
			},
			{
				"type": "occ",
				"energy": -0.25991,
				"method": "rhf"
			},
			{
				"type": "occ",
				"energy": -0.25831,
				"method": "rhf"
			},
			{
				"type": "occ",
				"energy": -0.22703,
				"method": "rhf"
			},
			{
				"type": "unocc",
				"energy": -0.05635,
				"method": "rhf"
			},
			{
				"type": "unocc",
				"energy": -0.04044,
				"method": "rhf"
			},
			{
				"type": "unocc",
				"energy": -0.03284,
				"method": "rhf"
			},
			{
				"type": "unocc",
				"energy": -0.02075,
				"method": "rhf"
			},
			{
				"type": "unocc",
				"energy": 0.03179,
				"method": "rhf"
			}
		],
		"cosmo_sigma_profile": { 
			"-0.025": 0.0,
			"-0.024": 0.0,
			"-0.023": 0.0,
			"-0.022": 0.0,
			"-0.021": 0.0,
			"-0.02": 0.0,
			"-0.019": 0.0,
			"-0.018": 0.0,
			"-0.017": 0.0,
			"-0.016": 0.0,
			"-0.015": 0.0,
			"-0.014": 0.0,
			"-0.013": 0.0,
			"-0.012": 0.0,
			"-0.011": 0.0,
			"-0.01": 0.0,
			"-0.009": 0.0,
			"-0.008": 1.58532449708,
			"-0.007": 7.80793052187,
			"-0.006": 22.5797359637,
			"-0.005": 27.9961535595,
			"-0.004": 32.0905978028,
			"-0.003": 29.9601156617,
			"-0.002": 32.3876220477,
			"-0.001": 28.6027239043,
			"0.0": 27.9135248954,
			"0.001": 26.419520859,
			"0.002": 24.2528648152,
			"0.003": 22.8022860975,
			"0.004": 14.5591448331,
			"0.005": 7.66124419656,
			"0.006": 6.03018035865,
			"0.007": 4.26669682029,
			"0.008": 4.17653690079,
			"0.009": 4.26142305753,
			"0.01": 4.71958460759,
			"0.011": 6.18579325886,
			"0.012": 7.73908288295,
			"0.013": 4.53908319212,
			"0.014": 0.676426398798,
			"0.015": 0.19947867405,
			"0.016": 0.0,
			"0.017": 0.0,
			"0.018": 0.0,
			"0.019": 0.0,
			"0.02": 0.0,
			"0.021": 0.0,
			"0.022": 0.0,
			"0.023": 0.0,
			"0.024": 0.0,
			"0.025": 0.0
		}
	}
}
