{
	 "smiles": "[O-][N+](=O)C1=CC(=C(Br)C=C1)S(Cl)(=O)=O", 
	 "Tm": 360.15, 
	 "num_atms": 17, 
	 "gaussian": { 
		 "optdone": 1, 
		 "sigma_profile": "yes", 
		 "theory": "DFT", 
		 "functional": "B3LYP", 
		 "basiset": "6-31G**", 
		 "properties": { 
			 "R2extent": 6824.1035, 
			 "electric_dipole_moment_norm": 4.50392276688, 
			 "electric_quadrupole_moment_norm": 17.3499083747, 
			 "total_energy": -4015.68809752, 
			 "HOMO_LUMO_gap": 0.17452, 
			 "cosmo_polarized_energy": -12.09, 
			 "cosmo_cavitation_energy": 28.28, 
			 "cosmo_dispersion_energy": -21.46, 
			 "cosmo_repulsion_energy": 1.63, 
			 "cosmo_total_nonelectrostatic_energy": 8.45, 
			 "SMD_solvation_energy": 4.95 
		},
		"coords": [
			{
				"x": -1.382369506,
				"y": -3.8255887195,
				"z": 1.2950409202,
				"element": "O" 
			},
			{
				"x": -1.3407857633,
				"y": -2.6040234575,
				"z": 1.1687354494,
				"element": "N" 
			},
			{
				"x": -2.28472734,
				"y": -1.8876210768,
				"z": 0.8482884098,
				"element": "O" 
			},
			{
				"x": -0.0460447348,
				"y": -1.9461387932,
				"z": 1.4239114857,
				"element": "C" 
			},
			{
				"x": 0.0411278433,
				"y": -0.5667640837,
				"z": 1.2890504659,
				"element": "C" 
			},
			{
				"x": 1.2674570312,
				"y": 0.0505940398,
				"z": 1.533825627,
				"element": "C" 
			},
			{
				"x": 2.3929289667,
				"y": -0.7065213406,
				"z": 1.9020336663,
				"element": "C" 
			},
			{
				"x": 4.0977794659,
				"y": 0.0445368784,
				"z": 2.2218894613,
				"element": "Br" 
			},
			{
				"x": 2.2678596767,
				"y": -2.0946718358,
				"z": 2.027193153,
				"element": "C" 
			},
			{
				"x": 1.0496492592,
				"y": -2.7217424617,
				"z": 1.7914492086,
				"element": "C" 
			},
			{
				"x": 1.2523117421,
				"y": 1.8534028195,
				"z": 1.3901551989,
				"element": "S" 
			},
			{
				"x": 2.3975095249,
				"y": 2.1373221078,
				"z": -0.3655189221,
				"element": "Cl" 
			},
			{
				"x": 1.9861838661,
				"y": 2.4530962786,
				"z": 2.492962267,
				"element": "O" 
			},
			{
				"x": -0.1075283675,
				"y": 2.2572727105,
				"z": 1.0609294562,
				"element": "O" 
			},
			{
				"x": -0.8273184257,
				"y": 0.0124815936,
				"z": 1.0021761048,
				"element": "H" 
			},
			{
				"x": 3.1364525356,
				"y": -2.6770006318,
				"z": 2.3106240223,
				"element": "H" 
			},
			{
				"x": 0.9382142255,
				"y": -3.7948340276,
				"z": 1.8852540257,
				"element": "H" 
			}
		],
		 "valence_orbital": [ 
			{
				"type": "occ",
				"energy": -0.32945,
				"method": "rhf"
			},
			{
				"type": "occ",
				"energy": -0.3211,
				"method": "rhf"
			},
			{
				"type": "occ",
				"energy": -0.31959,
				"method": "rhf"
			},
			{
				"type": "occ",
				"energy": -0.31582,
				"method": "rhf"
			},
			{
				"type": "occ",
				"energy": -0.29564,
				"method": "rhf"
			},
			{
				"type": "unocc",
				"energy": -0.12112,
				"method": "rhf"
			},
			{
				"type": "unocc",
				"energy": -0.10423,
				"method": "rhf"
			},
			{
				"type": "unocc",
				"energy": -0.07391,
				"method": "rhf"
			},
			{
				"type": "unocc",
				"energy": -0.04363,
				"method": "rhf"
			},
			{
				"type": "unocc",
				"energy": -0.0321,
				"method": "rhf"
			}
		],
		"cosmo_sigma_profile": { 
			"-0.025": 0.0,
			"-0.024": 0.0,
			"-0.023": 0.0,
			"-0.022": 0.0,
			"-0.021": 0.0,
			"-0.02": 0.0,
			"-0.019": 0.0,
			"-0.018": 0.0,
			"-0.017": 0.0,
			"-0.016": 0.0,
			"-0.015": 0.0,
			"-0.014": 0.0,
			"-0.013": 0.0,
			"-0.012": 0.0,
			"-0.011": 0.0275500882805,
			"-0.01": 2.46094279397,
			"-0.009": 4.61080771168,
			"-0.008": 5.69151172237,
			"-0.007": 6.8490707052,
			"-0.006": 10.2433906169,
			"-0.005": 13.7216235048,
			"-0.004": 19.8264588303,
			"-0.003": 20.2908477436,
			"-0.002": 17.2757889552,
			"-0.001": 12.6394383266,
			"0.0": 10.6124748431,
			"0.001": 15.9848943617,
			"0.002": 22.5151229156,
			"0.003": 14.7555302872,
			"0.004": 6.66375806773,
			"0.005": 6.30422628797,
			"0.006": 12.1987894553,
			"0.007": 16.2557759403,
			"0.008": 11.8548880108,
			"0.009": 3.34074778718,
			"0.01": 0.123475084255,
			"0.011": 0.0,
			"0.012": 0.0,
			"0.013": 0.0,
			"0.014": 0.0,
			"0.015": 0.0,
			"0.016": 0.0,
			"0.017": 0.0,
			"0.018": 0.0,
			"0.019": 0.0,
			"0.02": 0.0,
			"0.021": 0.0,
			"0.022": 0.0,
			"0.023": 0.0,
			"0.024": 0.0,
			"0.025": 0.0
		}
	}
}
