{
	 "smiles": "O=C1NC(=CC=C1C#N)C1=CC=NC=C1", 
	 "Tm": 613.15, 
	 "num_atms": 22, 
	 "gaussian": { 
		 "optdone": 1, 
		 "sigma_profile": "yes", 
		 "theory": "DFT", 
		 "functional": "B3LYP", 
		 "basiset": "6-31G**", 
		 "properties": { 
			 "R2extent": 5260.6106, 
			 "electric_dipole_moment_norm": 6.70067030154, 
			 "electric_quadrupole_moment_norm": 39.0881840898, 
			 "total_energy": -662.851398562, 
			 "HOMO_LUMO_gap": 0.14084, 
			 "cosmo_polarized_energy": -23.55, 
			 "cosmo_cavitation_energy": 28.54, 
			 "cosmo_dispersion_energy": -20.3, 
			 "cosmo_repulsion_energy": 1.56, 
			 "cosmo_total_nonelectrostatic_energy": 9.8, 
			 "SMD_solvation_energy": 5.48 
		},
		"coords": [
			{
				"x": -2.41915179,
				"y": -1.6025176322,
				"z": -3.8913875,
				"element": "O" 
			},
			{
				"x": -1.7824258601,
				"y": -0.8743784573,
				"z": -3.147064626,
				"element": "C" 
			},
			{
				"x": -0.6644349869,
				"y": -1.3798329714,
				"z": -2.446352115,
				"element": "N" 
			},
			{
				"x": 0.1508364869,
				"y": -0.6904846652,
				"z": -1.5925918086,
				"element": "C" 
			},
			{
				"x": -0.1115151922,
				"y": 0.6423844389,
				"z": -1.3641795518,
				"element": "C" 
			},
			{
				"x": -1.209636242,
				"y": 1.2501860546,
				"z": -2.0150299058,
				"element": "C" 
			},
			{
				"x": -2.028133811,
				"y": 0.5438023267,
				"z": -2.8714182465,
				"element": "C" 
			},
			{
				"x": -3.1335821661,
				"y": 1.1686437599,
				"z": -3.5218467176,
				"element": "C" 
			},
			{
				"x": -4.0279980406,
				"y": 1.7062275971,
				"z": -4.0364774031,
				"element": "N" 
			},
			{
				"x": 1.2530308437,
				"y": -1.4333691542,
				"z": -0.9458208281,
				"element": "C" 
			},
			{
				"x": 2.4783374863,
				"y": -0.8101151656,
				"z": -0.6693433976,
				"element": "C" 
			},
			{
				"x": 3.487399377,
				"y": -1.5496947996,
				"z": -0.0551685676,
				"element": "C" 
			},
			{
				"x": 3.3638964287,
				"y": -2.8369444699,
				"z": 0.2929314359,
				"element": "N" 
			},
			{
				"x": 2.1928352803,
				"y": -3.4272735007,
				"z": 0.0275828086,
				"element": "C" 
			},
			{
				"x": 1.1178205837,
				"y": -2.7818557172,
				"z": -0.5832773128,
				"element": "C" 
			},
			{
				"x": -0.4549068635,
				"y": -2.3454248533,
				"z": -2.6721614553,
				"element": "H" 
			},
			{
				"x": 0.4938431549,
				"y": 1.20171282,
				"z": -0.663697307,
				"element": "H" 
			},
			{
				"x": -1.4221421685,
				"y": 2.2989752122,
				"z": -1.8312003951,
				"element": "H" 
			},
			{
				"x": 2.6535006104,
				"y": 0.2224680607,
				"z": -0.9518016401,
				"element": "H" 
			},
			{
				"x": 4.4470947393,
				"y": -1.0843130988,
				"z": 0.1604330523,
				"element": "H" 
			},
			{
				"x": 2.1024180118,
				"y": -4.4707443472,
				"z": 0.3226495442,
				"element": "H" 
			},
			{
				"x": 0.1854141176,
				"y": -3.3174514373,
				"z": -0.734578063,
				"element": "H" 
			}
		],
		 "valence_orbital": [ 
			{
				"type": "occ",
				"energy": -0.31158,
				"method": "rhf"
			},
			{
				"type": "occ",
				"energy": -0.29397,
				"method": "rhf"
			},
			{
				"type": "occ",
				"energy": -0.28257,
				"method": "rhf"
			},
			{
				"type": "occ",
				"energy": -0.27629,
				"method": "rhf"
			},
			{
				"type": "occ",
				"energy": -0.24095,
				"method": "rhf"
			},
			{
				"type": "unocc",
				"energy": -0.10011,
				"method": "rhf"
			},
			{
				"type": "unocc",
				"energy": -0.0455,
				"method": "rhf"
			},
			{
				"type": "unocc",
				"energy": -0.04266,
				"method": "rhf"
			},
			{
				"type": "unocc",
				"energy": -0.00828,
				"method": "rhf"
			},
			{
				"type": "unocc",
				"energy": 0.03256,
				"method": "rhf"
			}
		],
		"cosmo_sigma_profile": { 
			"-0.025": 0.0,
			"-0.024": 0.0,
			"-0.023": 0.0,
			"-0.022": 0.0,
			"-0.021": 0.0,
			"-0.02": 0.0,
			"-0.019": 0.0,
			"-0.018": 0.0,
			"-0.017": 0.0588338887663,
			"-0.016": 0.919704445322,
			"-0.015": 1.26611904715,
			"-0.014": 1.14449682953,
			"-0.013": 0.877406865565,
			"-0.012": 1.3375624118,
			"-0.011": 1.41681283924,
			"-0.01": 2.07658442806,
			"-0.009": 5.57045747852,
			"-0.008": 10.1527703908,
			"-0.007": 13.4539606394,
			"-0.006": 12.6908767508,
			"-0.005": 10.2074823076,
			"-0.004": 13.8487639455,
			"-0.003": 15.8812922484,
			"-0.002": 15.7922109154,
			"-0.001": 17.1365862872,
			"0.0": 18.0480368158,
			"0.001": 16.8422429427,
			"0.002": 5.73425126974,
			"0.003": 4.03720786028,
			"0.004": 5.34969655178,
			"0.005": 4.51659819358,
			"0.006": 5.04588007031,
			"0.007": 6.31758345852,
			"0.008": 7.20108419334,
			"0.009": 5.90386741359,
			"0.01": 5.84087293164,
			"0.011": 5.18898748949,
			"0.012": 6.71234619993,
			"0.013": 8.21038345361,
			"0.014": 1.36298006888,
			"0.015": 0.885568772555,
			"0.016": 0.521207590935,
			"0.017": 0.0590045132443,
			"0.018": 0.0,
			"0.019": 0.0,
			"0.02": 0.0,
			"0.021": 0.0,
			"0.022": 0.0,
			"0.023": 0.0,
			"0.024": 0.0,
			"0.025": 0.0
		}
	}
}
