{
	 "smiles": "CCOCCN1C(=O)C(=O)C2=C1C=CC=C2", 
	 "Tm": 339.15, 
	 "num_atms": 29, 
	 "gaussian": { 
		 "optdone": 1, 
		 "sigma_profile": "yes", 
		 "theory": "DFT", 
		 "functional": "B3LYP", 
		 "basiset": "6-31G**", 
		 "properties": { 
			 "R2extent": 4537.8161, 
			 "electric_dipole_moment_norm": 6.36536249871, 
			 "electric_quadrupole_moment_norm": 22.332888679, 
			 "total_energy": -745.527856142, 
			 "HOMO_LUMO_gap": 0.1347, 
			 "cosmo_polarized_energy": -15.74, 
			 "cosmo_cavitation_energy": 33.0, 
			 "cosmo_dispersion_energy": -22.84, 
			 "cosmo_repulsion_energy": 1.77, 
			 "cosmo_total_nonelectrostatic_energy": 11.93, 
			 "SMD_solvation_energy": 6.82 
		},
		"coords": [
			{
				"x": -0.2363976522,
				"y": 3.2544505368,
				"z": -0.5605119555,
				"element": "C" 
			},
			{
				"x": -0.2545838289,
				"y": 1.9456333321,
				"z": -1.3327536985,
				"element": "C" 
			},
			{
				"x": -1.0937597092,
				"y": 1.0328731719,
				"z": -0.6380900953,
				"element": "O" 
			},
			{
				"x": -1.2680735492,
				"y": -0.2161576612,
				"z": -1.282015698,
				"element": "C" 
			},
			{
				"x": -0.1915020948,
				"y": -1.2482740651,
				"z": -0.9220704878,
				"element": "C" 
			},
			{
				"x": -0.2520655928,
				"y": -1.6867233521,
				"z": 0.4651332134,
				"element": "N" 
			},
			{
				"x": -0.9778475046,
				"y": -2.807302616,
				"z": 0.8469941579,
				"element": "C" 
			},
			{
				"x": -1.6312505522,
				"y": -3.5204914591,
				"z": 0.1139539036,
				"element": "O" 
			},
			{
				"x": -0.7626157361,
				"y": -2.9525474482,
				"z": 2.3893603853,
				"element": "C" 
			},
			{
				"x": -1.2490536536,
				"y": -3.8274173808,
				"z": 3.0731377301,
				"element": "O" 
			},
			{
				"x": 0.1208709905,
				"y": -1.8352738934,
				"z": 2.7487371807,
				"element": "C" 
			},
			{
				"x": 0.3938093189,
				"y": -1.1046415801,
				"z": 1.5730512107,
				"element": "C" 
			},
			{
				"x": 1.2198512696,
				"y": 0.0130906855,
				"z": 1.6124172823,
				"element": "C" 
			},
			{
				"x": 1.7660475694,
				"y": 0.3763254983,
				"z": 2.8511131764,
				"element": "C" 
			},
			{
				"x": 1.4986934865,
				"y": -0.3420240123,
				"z": 4.0226287714,
				"element": "C" 
			},
			{
				"x": 0.6643439487,
				"y": -1.4609814762,
				"z": 3.9737765707,
				"element": "C" 
			},
			{
				"x": 0.3967060486,
				"y": 3.9890874405,
				"z": -1.06773225,
				"element": "H" 
			},
			{
				"x": -1.2479210643,
				"y": 3.6617074539,
				"z": -0.4787882998,
				"element": "H" 
			},
			{
				"x": 0.150037796,
				"y": 3.099588843,
				"z": 0.4510575673,
				"element": "H" 
			},
			{
				"x": -0.6372123166,
				"y": 2.1025437523,
				"z": -2.3545596791,
				"element": "H" 
			},
			{
				"x": 0.7696571124,
				"y": 1.5473769439,
				"z": -1.4330692349,
				"element": "H" 
			},
			{
				"x": -1.2917341686,
				"y": -0.0951522481,
				"z": -2.3767361571,
				"element": "H" 
			},
			{
				"x": -2.2426493691,
				"y": -0.602192887,
				"z": -0.9667484683,
				"element": "H" 
			},
			{
				"x": -0.3451542574,
				"y": -2.141813523,
				"z": -1.5352966447,
				"element": "H" 
			},
			{
				"x": 0.812079088,
				"y": -0.8629569101,
				"z": -1.1291948361,
				"element": "H" 
			},
			{
				"x": 1.429173248,
				"y": 0.5964589404,
				"z": 0.7242808923,
				"element": "H" 
			},
			{
				"x": 2.413821119,
				"y": 1.2472344022,
				"z": 2.8988210499,
				"element": "H" 
			},
			{
				"x": 1.9381053992,
				"y": -0.0261992388,
				"z": 4.9630799095,
				"element": "H" 
			},
			{
				"x": 0.4353246549,
				"y": -2.0414212493,
				"z": 4.8624245037,
				"element": "H" 
			}
		],
		 "valence_orbital": [ 
			{
				"type": "occ",
				"energy": -0.30572,
				"method": "rhf"
			},
			{
				"type": "occ",
				"energy": -0.2743,
				"method": "rhf"
			},
			{
				"type": "occ",
				"energy": -0.26971,
				"method": "rhf"
			},
			{
				"type": "occ",
				"energy": -0.24277,
				"method": "rhf"
			},
			{
				"type": "occ",
				"energy": -0.22782,
				"method": "rhf"
			},
			{
				"type": "unocc",
				"energy": -0.09312,
				"method": "rhf"
			},
			{
				"type": "unocc",
				"energy": -0.01756,
				"method": "rhf"
			},
			{
				"type": "unocc",
				"energy": 0.01046,
				"method": "rhf"
			},
			{
				"type": "unocc",
				"energy": 0.05955,
				"method": "rhf"
			},
			{
				"type": "unocc",
				"energy": 0.08448,
				"method": "rhf"
			}
		],
		"cosmo_sigma_profile": { 
			"-0.025": 0.0,
			"-0.024": 0.0,
			"-0.023": 0.0,
			"-0.022": 0.0,
			"-0.021": 0.0,
			"-0.02": 0.0,
			"-0.019": 0.0,
			"-0.018": 0.0,
			"-0.017": 0.0,
			"-0.016": 0.0,
			"-0.015": 0.0,
			"-0.014": 0.0,
			"-0.013": 0.0,
			"-0.012": 0.0,
			"-0.011": 0.0623904049595,
			"-0.01": 0.221804292749,
			"-0.009": 0.384683822047,
			"-0.008": 1.54253003474,
			"-0.007": 8.86157281584,
			"-0.006": 16.0533029948,
			"-0.005": 21.9883989675,
			"-0.004": 24.9639760141,
			"-0.003": 28.9020135929,
			"-0.002": 24.4720286494,
			"-0.001": 18.1854615156,
			"0.0": 18.8958457234,
			"0.001": 16.4132095766,
			"0.002": 13.8566239463,
			"0.003": 12.9085994297,
			"0.004": 7.15519174331,
			"0.005": 4.52940065399,
			"0.006": 3.83971827901,
			"0.007": 4.22384681216,
			"0.008": 4.48087733337,
			"0.009": 5.79429944844,
			"0.01": 8.35343438155,
			"0.011": 9.42251896162,
			"0.012": 4.99728710081,
			"0.013": 1.41746567327,
			"0.014": 0.00480668183778,
			"0.015": 0.0,
			"0.016": 0.0,
			"0.017": 0.0,
			"0.018": 0.0,
			"0.019": 0.0,
			"0.02": 0.0,
			"0.021": 0.0,
			"0.022": 0.0,
			"0.023": 0.0,
			"0.024": 0.0,
			"0.0": 0.0
		}
	}
}
