{
	 "smiles": "CC1=CC=C(C=C1)N1CCCNC(=O)C1", 
	 "Tm": 455.15, 
	 "num_atms": 31, 
	 "gaussian": { 
		 "optdone": 1, 
		 "sigma_profile": "yes", 
		 "theory": "DFT", 
		 "functional": "B3LYP", 
		 "basiset": "6-31G**", 
		 "properties": { 
			 "R2extent": 4188.2879, 
			 "electric_dipole_moment_norm": 3.46867010971, 
			 "electric_quadrupole_moment_norm": 18.7607944512, 
			 "total_energy": -651.656066776, 
			 "HOMO_LUMO_gap": 0.18923, 
			 "cosmo_polarized_energy": -12.95, 
			 "cosmo_cavitation_energy": 32.09, 
			 "cosmo_dispersion_energy": -23.58, 
			 "cosmo_repulsion_energy": 1.84, 
			 "cosmo_total_nonelectrostatic_energy": 10.35, 
			 "SMD_solvation_energy": 5.07 
		},
		"coords": [
			{
				"x": -1.5577437674,
				"y": -3.2238873913,
				"z": -3.1887667511,
				"element": "C" 
			},
			{
				"x": -0.8868570846,
				"y": -2.2638773685,
				"z": -2.2348169001,
				"element": "C" 
			},
			{
				"x": -1.5586660828,
				"y": -1.7402469204,
				"z": -1.1259247848,
				"element": "C" 
			},
			{
				"x": -0.9551681017,
				"y": -0.8367083721,
				"z": -0.2523597703,
				"element": "C" 
			},
			{
				"x": 0.3689371381,
				"y": -0.4005368126,
				"z": -0.4628451079,
				"element": "C" 
			},
			{
				"x": 1.0498175816,
				"y": -0.9268439117,
				"z": -1.5821925761,
				"element": "C" 
			},
			{
				"x": 0.4329292214,
				"y": -1.8379108509,
				"z": -2.4336879119,
				"element": "C" 
			},
			{
				"x": 0.9847379352,
				"y": 0.517814866,
				"z": 0.3916231751,
				"element": "N" 
			},
			{
				"x": 2.4367291978,
				"y": 0.6114601649,
				"z": 0.4923127617,
				"element": "C" 
			},
			{
				"x": 3.0035669551,
				"y": 1.810720205,
				"z": -0.297230797,
				"element": "C" 
			},
			{
				"x": 2.0425017721,
				"y": 3.004842947,
				"z": -0.2056059351,
				"element": "C" 
			},
			{
				"x": 1.602925493,
				"y": 3.2802695322,
				"z": 1.1607794651,
				"element": "N" 
			},
			{
				"x": 0.7978193325,
				"y": 2.5162535383,
				"z": 1.961091995,
				"element": "C" 
			},
			{
				"x": 0.4971905001,
				"y": 2.8733535449,
				"z": 3.0932768556,
				"element": "O" 
			},
			{
				"x": 0.2092147215,
				"y": 1.2069934766,
				"z": 1.408840595,
				"element": "C" 
			},
			{
				"x": -1.9556269295,
				"y": -2.7072146063,
				"z": -4.0720142269,
				"element": "H" 
			},
			{
				"x": -0.8591587246,
				"y": -3.9858078016,
				"z": -3.5504331973,
				"element": "H" 
			},
			{
				"x": -2.3963709897,
				"y": -3.7398885451,
				"z": -2.7111142308,
				"element": "H" 
			},
			{
				"x": -2.579961504,
				"y": -2.0553052338,
				"z": -0.923316994,
				"element": "H" 
			},
			{
				"x": -1.5145369489,
				"y": -0.4981090721,
				"z": 0.6119144385,
				"element": "H" 
			},
			{
				"x": 2.0639008015,
				"y": -0.6114268488,
				"z": -1.8023505688,
				"element": "H" 
			},
			{
				"x": 0.9947207691,
				"y": -2.2187177602,
				"z": -3.2840205532,
				"element": "H" 
			},
			{
				"x": 2.8931560028,
				"y": -0.3261762635,
				"z": 0.1643326203,
				"element": "H" 
			},
			{
				"x": 2.6987151902,
				"y": 0.7223412059,
				"z": 1.5512861451,
				"element": "H" 
			},
			{
				"x": 3.1331952163,
				"y": 1.5560239083,
				"z": -1.3560256352,
				"element": "H" 
			},
			{
				"x": 3.9919830766,
				"y": 2.0733694012,
				"z": 0.0986874965,
				"element": "H" 
			},
			{
				"x": 1.1711778727,
				"y": 2.8168538692,
				"z": -0.8408965653,
				"element": "H" 
			},
			{
				"x": 2.52051659,
				"y": 3.9129950623,
				"z": -0.5827310449,
				"element": "H" 
			},
			{
				"x": 1.9279589613,
				"y": 4.1199142047,
				"z": 1.6206485027,
				"element": "H" 
			},
			{
				"x": -0.7710051833,
				"y": 1.4729435986,
				"z": 0.9934710447,
				"element": "H" 
			},
			{
				"x": 0.0178009877,
				"y": 0.5905082337,
				"z": 2.2996684553,
				"element": "H" 
			}
		],
		 "valence_orbital": [ 
			{
				"type": "occ",
				"energy": -0.27392,
				"method": "rhf"
			},
			{
				"type": "occ",
				"energy": -0.25078,
				"method": "rhf"
			},
			{
				"type": "occ",
				"energy": -0.24862,
				"method": "rhf"
			},
			{
				"type": "occ",
				"energy": -0.24253,
				"method": "rhf"
			},
			{
				"type": "occ",
				"energy": -0.187,
				"method": "rhf"
			},
			{
				"type": "unocc",
				"energy": 0.00223,
				"method": "rhf"
			},
			{
				"type": "unocc",
				"energy": 0.01986,
				"method": "rhf"
			},
			{
				"type": "unocc",
				"energy": 0.0249,
				"method": "rhf"
			},
			{
				"type": "unocc",
				"energy": 0.07154,
				"method": "rhf"
			},
			{
				"type": "unocc",
				"energy": 0.09221,
				"method": "rhf"
			}
		],
		"cosmo_sigma_profile": { 
			"-0.025": 0.0,
			"-0.024": 0.0,
			"-0.023": 0.0,
			"-0.022": 0.0,
			"-0.021": 0.0,
			"-0.02": 0.0,
			"-0.019": 0.0,
			"-0.018": 0.0,
			"-0.017": 0.0,
			"-0.016": 0.0,
			"-0.015": 0.0,
			"-0.014": 0.144047988371,
			"-0.013": 1.240335379,
			"-0.012": 1.20042485607,
			"-0.011": 1.00235443929,
			"-0.01": 0.951717405582,
			"-0.009": 0.945701328314,
			"-0.008": 1.2454118803,
			"-0.007": 2.40602596224,
			"-0.006": 6.87606437301,
			"-0.005": 15.8492369827,
			"-0.004": 25.6011664298,
			"-0.003": 35.9878234134,
			"-0.002": 27.9922117909,
			"-0.001": 20.8401187564,
			"0.0": 19.9125449014,
			"0.001": 16.648475508,
			"0.002": 10.399313344,
			"0.003": 9.18713721316,
			"0.004": 8.06063179113,
			"0.005": 7.80486732343,
			"0.006": 8.05142763756,
			"0.007": 8.87163364217,
			"0.008": 4.50604067833,
			"0.009": 1.11579151229,
			"0.01": 0.607517507389,
			"0.011": 1.13125739677,
			"0.012": 2.02790004474,
			"0.013": 2.88348290931,
			"0.014": 6.10925930963,
			"0.015": 2.17187336981,
			"0.016": 0.090296761502,
			"0.017": 0.0,
			"0.018": 0.0,
			"0.019": 0.0,
			"0.02": 0.0,
			"0.021": 0.0,
			"0.022": 0.0,
			"0.023": 0.0,
			"0.024": 0.0,
			"0.025": 0.0
		}
	}
}
