{
	 "smiles": "CC(C)CCN(=O)=O", 
	 "Tm": 370.15, 
	 "num_atms": 19, 
	 "gaussian": { 
		 "optdone": 1, 
		 "sigma_profile": "yes", 
		 "theory": "DFT", 
		 "functional": "B3LYP", 
		 "basiset": "6-31G**", 
		 "properties": { 
			 "R2extent": 1235.24, 
			 "electric_dipole_moment_norm": 3.5628424902, 
			 "electric_quadrupole_moment_norm": 7.94855581159, 
			 "total_energy": -402.276029104, 
			 "HOMO_LUMO_gap": 0.22476, 
			 "cosmo_polarized_energy": -7.54, 
			 "cosmo_cavitation_energy": 21.67, 
			 "cosmo_dispersion_energy": -15.41, 
			 "cosmo_repulsion_energy": 1.29, 
			 "cosmo_total_nonelectrostatic_energy": 7.55, 
			 "SMD_solvation_energy": 5.88 
		},
		"coords": [
			{
				"x": 0.3919847604,
				"y": -2.1594537127,
				"z": -1.2099569967,
				"element": "C" 
			},
			{
				"x": 0.5528053119,
				"y": -0.8980075653,
				"z": -0.3485006795,
				"element": "C" 
			},
			{
				"x": 0.2550176067,
				"y": -1.2041160208,
				"z": 1.1279855353,
				"element": "C" 
			},
			{
				"x": -0.3207262616,
				"y": 0.2362109308,
				"z": -0.9222457274,
				"element": "C" 
			},
			{
				"x": -0.1712724983,
				"y": 1.5969502302,
				"z": -0.2453436212,
				"element": "C" 
			},
			{
				"x": -0.9486124624,
				"y": 1.7092240402,
				"z": 1.0507000178,
				"element": "N" 
			},
			{
				"x": -0.3867897569,
				"y": 2.2576115999,
				"z": 1.9942323699,
				"element": "O" 
			},
			{
				"x": -2.0979873588,
				"y": 1.2800741339,
				"z": 1.0585732855,
				"element": "O" 
			},
			{
				"x": -0.6390537589,
				"y": -2.5306897683,
				"z": -1.1701914094,
				"element": "H" 
			},
			{
				"x": 0.6364645204,
				"y": -1.9650903942,
				"z": -2.260171556,
				"element": "H" 
			},
			{
				"x": 1.0470720457,
				"y": -2.9621502743,
				"z": -0.8563615582,
				"element": "H" 
			},
			{
				"x": 1.6019956993,
				"y": -0.5729994583,
				"z": -0.4206358442,
				"element": "H" 
			},
			{
				"x": 0.8647767673,
				"y": -2.0454161652,
				"z": 1.4734832673,
				"element": "H" 
			},
			{
				"x": -0.7977645768,
				"y": -1.4720460685,
				"z": 1.2711594148,
				"element": "H" 
			},
			{
				"x": 0.4771233281,
				"y": -0.355051572,
				"z": 1.7813957603,
				"element": "H" 
			},
			{
				"x": -1.3800611333,
				"y": -0.0426164196,
				"z": -0.8950960749,
				"element": "H" 
			},
			{
				"x": -0.0620739094,
				"y": 0.3791200167,
				"z": -1.9787074589,
				"element": "H" 
			},
			{
				"x": -0.5894492268,
				"y": 2.3915307406,
				"z": -0.8705253138,
				"element": "H" 
			},
			{
				"x": 0.8582509033,
				"y": 1.8487157271,
				"z": 0.0108065892,
				"element": "H" 
			}
		],
		 "valence_orbital": [ 
			{
				"type": "occ",
				"energy": -0.33608,
				"method": "rhf"
			},
			{
				"type": "occ",
				"energy": -0.33214,
				"method": "rhf"
			},
			{
				"type": "occ",
				"energy": -0.31055,
				"method": "rhf"
			},
			{
				"type": "occ",
				"energy": -0.2995,
				"method": "rhf"
			},
			{
				"type": "occ",
				"energy": -0.28976,
				"method": "rhf"
			},
			{
				"type": "unocc",
				"energy": -0.065,
				"method": "rhf"
			},
			{
				"type": "unocc",
				"energy": 0.07322,
				"method": "rhf"
			},
			{
				"type": "unocc",
				"energy": 0.10058,
				"method": "rhf"
			},
			{
				"type": "unocc",
				"energy": 0.11251,
				"method": "rhf"
			},
			{
				"type": "unocc",
				"energy": 0.11764,
				"method": "rhf"
			}
		],
		"cosmo_sigma_profile": { 
			"-0.025": 0.0,
			"-0.024": 0.0,
			"-0.023": 0.0,
			"-0.022": 0.0,
			"-0.021": 0.0,
			"-0.02": 0.0,
			"-0.019": 0.0,
			"-0.018": 0.0,
			"-0.017": 0.0,
			"-0.016": 0.0,
			"-0.015": 0.0,
			"-0.014": 0.0,
			"-0.013": 0.0,
			"-0.012": 0.0,
			"-0.011": 0.0,
			"-0.01": 0.599550801626,
			"-0.009": 2.43830666997,
			"-0.008": 2.83907199229,
			"-0.007": 4.10453694732,
			"-0.006": 4.74707594053,
			"-0.005": 7.86492144725,
			"-0.004": 7.94520749155,
			"-0.003": 15.79338515,
			"-0.002": 22.3954865082,
			"-0.001": 20.623506566,
			"0.0": 17.6131797486,
			"0.001": 16.7614634596,
			"0.002": 7.49673811917,
			"0.003": 3.10371700208,
			"0.004": 2.32463110042,
			"0.005": 3.35605009392,
			"0.006": 2.34942639913,
			"0.007": 6.95080602319,
			"0.008": 10.07531046,
			"0.009": 5.40597152947,
			"0.01": 2.97263052573,
			"0.011": 0.213692106916,
			"0.012": 0.0,
			"0.013": 0.0,
			"0.014": 0.0,
			"0.015": 0.0,
			"0.016": 0.0,
			"0.017": 0.0,
			"0.018": 0.0,
			"0.019": 0.0,
			"0.02": 0.0,
			"0.021": 0.0,
			"0.022": 0.0,
			"0.023": 0.0,
			"0.024": 0.0,
			"0.025": 0.0
		}
	}
}
