{
	 "smiles": "CC(=O)OCC1=CC=C(C=C1)S(=O)(=O)C(F)F", 
	 "Tm": 349.15, 
	 "num_atms": 27, 
	 "gaussian": { 
		 "optdone": 1, 
		 "sigma_profile": "yes", 
		 "theory": "DFT", 
		 "functional": "B3LYP", 
		 "basiset": "6-31G**", 
		 "properties": { 
			 "R2extent": 7286.8825, 
			 "electric_dipole_moment_norm": 4.91461945322, 
			 "electric_quadrupole_moment_norm": 31.9176841668, 
			 "total_energy": -1285.77515647, 
			 "HOMO_LUMO_gap": 0.22303, 
			 "cosmo_polarized_energy": -17.83, 
			 "cosmo_cavitation_energy": 34.72, 
			 "cosmo_dispersion_energy": -24.74, 
			 "cosmo_repulsion_energy": 1.86, 
			 "cosmo_total_nonelectrostatic_energy": 11.83, 
			 "SMD_solvation_energy": 7.32 
		},
		"coords": [
			{
				"x": 0.8946430239,
				"y": -3.5369748165,
				"z": -3.7137186156,
				"element": "C" 
			},
			{
				"x": 0.2868871932,
				"y": -2.1575776671,
				"z": -3.7696160126,
				"element": "C" 
			},
			{
				"x": -0.1980753804,
				"y": -1.6304772318,
				"z": -4.7445597522,
				"element": "O" 
			},
			{
				"x": 0.348207009,
				"y": -1.5522586693,
				"z": -2.5534945967,
				"element": "O" 
			},
			{
				"x": -0.2136802945,
				"y": -0.2335138402,
				"z": -2.4943041471,
				"element": "C" 
			},
			{
				"x": -0.1175114046,
				"y": 0.2969476955,
				"z": -1.0843094134,
				"element": "C" 
			},
			{
				"x": -0.4029226104,
				"y": 1.6515218065,
				"z": -0.8597149094,
				"element": "C" 
			},
			{
				"x": -0.3578621604,
				"y": 2.1846932364,
				"z": 0.4251118318,
				"element": "C" 
			},
			{
				"x": -0.0196265346,
				"y": 1.3468798215,
				"z": 1.4911936485,
				"element": "C" 
			},
			{
				"x": 0.2651409394,
				"y": -0.0051231696,
				"z": 1.2913595835,
				"element": "C" 
			},
			{
				"x": 0.214309281,
				"y": -0.5251816173,
				"z": -0.0007231117,
				"element": "C" 
			},
			{
				"x": 0.043568374,
				"y": 2.0256526778,
				"z": 3.1458844699,
				"element": "S" 
			},
			{
				"x": -0.2842706432,
				"y": 0.9694957392,
				"z": 4.1089790254,
				"element": "O" 
			},
			{
				"x": -0.633870812,
				"y": 3.3299251778,
				"z": 3.1442083018,
				"element": "O" 
			},
			{
				"x": 1.8605351878,
				"y": 2.4138614214,
				"z": 3.3505099041,
				"element": "C" 
			},
			{
				"x": 2.0389842242,
				"y": 2.8185729335,
				"z": 4.6197702556,
				"element": "F" 
			},
			{
				"x": 2.5696997939,
				"y": 1.2849888541,
				"z": 3.131303809,
				"element": "F" 
			},
			{
				"x": 0.3446870528,
				"y": -4.1601676349,
				"z": -3.0021215613,
				"element": "H" 
			},
			{
				"x": 1.9300935251,
				"y": -3.4792666424,
				"z": -3.3659160502,
				"element": "H" 
			},
			{
				"x": 0.8583487479,
				"y": -3.9874792461,
				"z": -4.704820611,
				"element": "H" 
			},
			{
				"x": 0.3151626969,
				"y": 0.420441762,
				"z": -3.1966994662,
				"element": "H" 
			},
			{
				"x": -1.2581290675,
				"y": -0.2720527247,
				"z": -2.8266987389,
				"element": "H" 
			},
			{
				"x": -0.6671007819,
				"y": 2.2940358616,
				"z": -1.6958485187,
				"element": "H" 
			},
			{
				"x": -0.5957893422,
				"y": 3.226446631,
				"z": 0.611098851,
				"element": "H" 
			},
			{
				"x": 0.5066890327,
				"y": -0.639073421,
				"z": 2.1373431688,
				"element": "H" 
			},
			{
				"x": 0.4323132506,
				"y": -1.572003712,
				"z": -0.174377182,
				"element": "H" 
			},
			{
				"x": 2.1558696993,
				"y": 3.1994867748,
				"z": 2.6462598378,
				"element": "H" 
			}
		],
		 "valence_orbital": [ 
			{
				"type": "occ",
				"energy": -0.314,
				"method": "rhf"
			},
			{
				"type": "occ",
				"energy": -0.29465,
				"method": "rhf"
			},
			{
				"type": "occ",
				"energy": -0.28769,
				"method": "rhf"
			},
			{
				"type": "occ",
				"energy": -0.28354,
				"method": "rhf"
			},
			{
				"type": "occ",
				"energy": -0.27971,
				"method": "rhf"
			},
			{
				"type": "unocc",
				"energy": -0.05668,
				"method": "rhf"
			},
			{
				"type": "unocc",
				"energy": -0.03423,
				"method": "rhf"
			},
			{
				"type": "unocc",
				"energy": -0.00269,
				"method": "rhf"
			},
			{
				"type": "unocc",
				"energy": 0.04418,
				"method": "rhf"
			},
			{
				"type": "unocc",
				"energy": 0.05291,
				"method": "rhf"
			}
		],
		"cosmo_sigma_profile": { 
			"-0.025": 0.0,
			"-0.024": 0.0,
			"-0.023": 0.0,
			"-0.022": 0.0,
			"-0.021": 0.0,
			"-0.02": 0.0,
			"-0.019": 0.0,
			"-0.018": 0.0,
			"-0.017": 0.0,
			"-0.016": 0.0,
			"-0.015": 0.0,
			"-0.014": 0.0,
			"-0.013": 0.0861683900089,
			"-0.012": 3.12438012322,
			"-0.011": 2.75924278164,
			"-0.01": 1.93832036544,
			"-0.009": 1.56849501423,
			"-0.008": 5.10278302946,
			"-0.007": 14.0617058827,
			"-0.006": 17.9780906824,
			"-0.005": 17.5299797513,
			"-0.004": 16.2336436539,
			"-0.003": 17.5881715948,
			"-0.002": 19.2535483828,
			"-0.001": 15.2973446557,
			"0.0": 15.6568686562,
			"0.001": 24.4373333122,
			"0.002": 35.3452499481,
			"0.003": 14.0627258921,
			"0.004": 4.93927323995,
			"0.005": 3.85883137542,
			"0.006": 5.20362836137,
			"0.007": 4.49688552333,
			"0.008": 4.93480017027,
			"0.009": 6.29190690557,
			"0.01": 11.6874036324,
			"0.011": 9.37989242961,
			"0.012": 3.85848390211,
			"0.013": 0.533860444802,
			"0.014": 0.0,
			"0.015": 0.0,
			"0.016": 0.0,
			"0.017": 0.0,
			"0.018": 0.0,
			"0.019": 0.0,
			"0.02": 0.0,
			"0.021": 0.0,
			"0.022": 0.0,
			"0.023": 0.0,
			"0.024": 0.0,
			"0.025": 0.0
		}
	}
}
