{
	 "smiles": "CC1=C(Br)C2=C(CCCC2=O)N1C1=CC=C(C)C=C1", 
	 "Tm": 413.15, 
	 "num_atms": 35, 
	 "gaussian": { 
		 "optdone": 1, 
		 "sigma_profile": "yes", 
		 "theory": "DFT", 
		 "functional": "B3LYP", 
		 "basiset": "6-31G**", 
		 "properties": { 
			 "R2extent": 9076.8389, 
			 "electric_dipole_moment_norm": 8.09732589192, 
			 "electric_quadrupole_moment_norm": 22.8266352965, 
			 "total_energy": -3320.74336273, 
			 "HOMO_LUMO_gap": 0.17675, 
			 "cosmo_polarized_energy": -15.0, 
			 "cosmo_cavitation_energy": 39.61, 
			 "cosmo_dispersion_energy": -27.92, 
			 "cosmo_repulsion_energy": 2.17, 
			 "cosmo_total_nonelectrostatic_energy": 13.86, 
			 "SMD_solvation_energy": 5.69 
		},
		"coords": [
			{
				"x": -0.5203795393,
				"y": -2.8824397496,
				"z": 0.3976881003,
				"element": "C" 
			},
			{
				"x": 0.2650743949,
				"y": -1.9297574462,
				"z": 1.2350290384,
				"element": "C" 
			},
			{
				"x": 1.0939407884,
				"y": -2.1520872857,
				"z": 2.3087018054,
				"element": "C" 
			},
			{
				"x": 1.4903717861,
				"y": -3.8555183727,
				"z": 3.0156447941,
				"element": "Br" 
			},
			{
				"x": 1.5779206916,
				"y": -0.8939945848,
				"z": 2.7904822884,
				"element": "C" 
			},
			{
				"x": 1.0162817272,
				"y": 0.0807709892,
				"z": 1.9742459506,
				"element": "C" 
			},
			{
				"x": 1.2580262862,
				"y": 1.5536240497,
				"z": 2.0819304153,
				"element": "C" 
			},
			{
				"x": 2.583127311,
				"y": 1.7872076359,
				"z": 2.8315942276,
				"element": "C" 
			},
			{
				"x": 2.6638347313,
				"y": 0.9561443587,
				"z": 4.1216757107,
				"element": "C" 
			},
			{
				"x": 2.4692559931,
				"y": -0.5504208016,
				"z": 3.901685416,
				"element": "C" 
			},
			{
				"x": 3.0042286465,
				"y": -1.3713256326,
				"z": 4.6329687703,
				"element": "O" 
			},
			{
				"x": 0.2254810777,
				"y": -0.5406576359,
				"z": 1.0390324879,
				"element": "N" 
			},
			{
				"x": -0.5180671265,
				"y": 0.1240985841,
				"z": 0.0118232824,
				"element": "C" 
			},
			{
				"x": -1.6491852227,
				"y": 0.8758540195,
				"z": 0.3411895687,
				"element": "C" 
			},
			{
				"x": -2.3673247785,
				"y": 1.5255574814,
				"z": -0.6616939756,
				"element": "C" 
			},
			{
				"x": -1.9825844029,
				"y": 1.4339979162,
				"z": -2.0062570941,
				"element": "C" 
			},
			{
				"x": -2.7505474657,
				"y": 2.1599074551,
				"z": -3.0852048511,
				"element": "C" 
			},
			{
				"x": -0.850254012,
				"y": 0.6685720475,
				"z": -2.3182559262,
				"element": "C" 
			},
			{
				"x": -0.1177814417,
				"y": 0.0229948558,
				"z": -1.3236241699,
				"element": "C" 
			},
			{
				"x": -1.5835607729,
				"y": -2.6178879292,
				"z": 0.3709925693,
				"element": "H" 
			},
			{
				"x": -0.1679033809,
				"y": -2.9202349571,
				"z": -0.6395762933,
				"element": "H" 
			},
			{
				"x": -0.4254518452,
				"y": -3.8838926196,
				"z": 0.8212515357,
				"element": "H" 
			},
			{
				"x": 1.2832721101,
				"y": 2.0194960158,
				"z": 1.090354656,
				"element": "H" 
			},
			{
				"x": 0.4348944362,
				"y": 2.0390069054,
				"z": 2.6280171102,
				"element": "H" 
			},
			{
				"x": 3.4157528181,
				"y": 1.511292423,
				"z": 2.1729500355,
				"element": "H" 
			},
			{
				"x": 2.6971664477,
				"y": 2.8523529796,
				"z": 3.0601824895,
				"element": "H" 
			},
			{
				"x": 3.6211333652,
				"y": 1.0923565659,
				"z": 4.6322578373,
				"element": "H" 
			},
			{
				"x": 1.8817744472,
				"y": 1.2836474431,
				"z": 4.8231957375,
				"element": "H" 
			},
			{
				"x": -1.9665020201,
				"y": 0.9375354448,
				"z": 1.3775102893,
				"element": "H" 
			},
			{
				"x": -3.2471110737,
				"y": 2.1054875309,
				"z": -0.3952858695,
				"element": "H" 
			},
			{
				"x": -3.8057179115,
				"y": 2.2715490419,
				"z": -2.8192885072,
				"element": "H" 
			},
			{
				"x": -2.34679797,
				"y": 3.1672352257,
				"z": -3.2463983331,
				"element": "H" 
			},
			{
				"x": -2.6950363297,
				"y": 1.6310095765,
				"z": -4.0411071592,
				"element": "H" 
			},
			{
				"x": -0.5329642354,
				"y": 0.5805083016,
				"z": -3.3540521179,
				"element": "H" 
			},
			{
				"x": 0.7660324704,
				"y": -0.5551898323,
				"z": -1.5744598192,
				"element": "H" 
			}
		],
		 "valence_orbital": [ 
			{
				"type": "occ",
				"energy": -0.27106,
				"method": "rhf"
			},
			{
				"type": "occ",
				"energy": -0.26366,
				"method": "rhf"
			},
			{
				"type": "occ",
				"energy": -0.23344,
				"method": "rhf"
			},
			{
				"type": "occ",
				"energy": -0.22081,
				"method": "rhf"
			},
			{
				"type": "occ",
				"energy": -0.20617,
				"method": "rhf"
			},
			{
				"type": "unocc",
				"energy": -0.02942,
				"method": "rhf"
			},
			{
				"type": "unocc",
				"energy": -0.02456,
				"method": "rhf"
			},
			{
				"type": "unocc",
				"energy": -0.01493,
				"method": "rhf"
			},
			{
				"type": "unocc",
				"energy": 0.02941,
				"method": "rhf"
			},
			{
				"type": "unocc",
				"energy": 0.03462,
				"method": "rhf"
			}
		],
		"cosmo_sigma_profile": { 
			"-0.025": 0.0,
			"-0.024": 0.0,
			"-0.023": 0.0,
			"-0.022": 0.0,
			"-0.021": 0.0,
			"-0.02": 0.0,
			"-0.019": 0.0,
			"-0.018": 0.0,
			"-0.017": 0.0,
			"-0.016": 0.0,
			"-0.015": 0.0,
			"-0.014": 0.0,
			"-0.013": 0.0,
			"-0.012": 0.0,
			"-0.011": 0.0,
			"-0.01": 0.0,
			"-0.009": 0.0,
			"-0.008": 0.0,
			"-0.007": 1.584375001,
			"-0.006": 7.30047449758,
			"-0.005": 22.0760387143,
			"-0.004": 35.0065352227,
			"-0.003": 35.381540006,
			"-0.002": 39.2997562777,
			"-0.001": 35.8795621048,
			"0.0": 28.0683579124,
			"0.001": 17.4019444457,
			"0.002": 15.2710227036,
			"0.003": 18.3489038541,
			"0.004": 22.6400845842,
			"0.005": 12.6296445456,
			"0.006": 3.41394478088,
			"0.007": 1.8243899923,
			"0.008": 2.20335758728,
			"0.009": 2.26583248624,
			"0.01": 2.13147400549,
			"0.011": 2.36636230366,
			"0.012": 2.94391841102,
			"0.013": 5.48859296706,
			"0.014": 2.75553191433,
			"0.015": 0.394126445874,
			"0.016": 0.0,
			"0.017": 0.0,
			"0.018": 0.0,
			"0.019": 0.0,
			"0.02": 0.0,
			"0.021": 0.0,
			"0.022": 0.0,
			"0.023": 0.0,
			"0.024": 0.0,
			"0.0": 0.0
		}
	}
}
