{
	 "smiles": "OC1=CC(=CC=C1)N1C=NC=N1", 
	 "Tm": 455.15, 
	 "num_atms": 19, 
	 "gaussian": { 
		 "optdone": 1, 
		 "sigma_profile": "yes", 
		 "theory": "DFT", 
		 "functional": "B3LYP", 
		 "basiset": "6-31G**", 
		 "properties": { 
			 "R2extent": 2382.1475, 
			 "electric_dipole_moment_norm": 2.2948152649, 
			 "electric_quadrupole_moment_norm": 14.7999755871, 
			 "total_energy": -548.523102909, 
			 "HOMO_LUMO_gap": 0.19161, 
			 "cosmo_polarized_energy": -14.5, 
			 "cosmo_cavitation_energy": 23.68, 
			 "cosmo_dispersion_energy": -17.84, 
			 "cosmo_repulsion_energy": 1.38, 
			 "cosmo_total_nonelectrostatic_energy": 7.22, 
			 "SMD_solvation_energy": 2.71 
		},
		"coords": [
			{
				"x": -1.8341766364,
				"y": 0.8344879775,
				"z": -3.2518386801,
				"element": "O" 
			},
			{
				"x": -1.3126181427,
				"y": 0.7256566839,
				"z": -1.9960017381,
				"element": "C" 
			},
			{
				"x": -0.2157871698,
				"y": -0.0926047364,
				"z": -1.7130356834,
				"element": "C" 
			},
			{
				"x": 0.2714482018,
				"y": -0.15993857,
				"z": -0.402290118,
				"element": "C" 
			},
			{
				"x": -0.3253791243,
				"y": 0.5795692288,
				"z": 0.621176075,
				"element": "C" 
			},
			{
				"x": -1.419251076,
				"y": 1.3893176068,
				"z": 0.3137294885,
				"element": "C" 
			},
			{
				"x": -1.9214908416,
				"y": 1.4728355959,
				"z": -0.9809347544,
				"element": "C" 
			},
			{
				"x": 1.3876553616,
				"y": -0.9895203171,
				"z": -0.1015116199,
				"element": "N" 
			},
			{
				"x": 2.1303227396,
				"y": -1.7937164044,
				"z": -0.9114026838,
				"element": "C" 
			},
			{
				"x": 3.0834534856,
				"y": -2.3952994721,
				"z": -0.2261980636,
				"element": "N" 
			},
			{
				"x": 2.8836710837,
				"y": -1.9177875078,
				"z": 1.0362268533,
				"element": "C" 
			},
			{
				"x": 1.8785603851,
				"y": -1.0704737976,
				"z": 1.1680195835,
				"element": "N" 
			},
			{
				"x": -1.3337596012,
				"y": 0.2766470484,
				"z": -3.8610206786,
				"element": "H" 
			},
			{
				"x": 0.2428485569,
				"y": -0.6645292804,
				"z": -2.5137548404,
				"element": "H" 
			},
			{
				"x": 0.0701435759,
				"y": 0.5099227392,
				"z": 1.6253021356,
				"element": "H" 
			},
			{
				"x": -1.8877903893,
				"y": 1.9668381633,
				"z": 1.1050363247,
				"element": "H" 
			},
			{
				"x": -2.7710126347,
				"y": 2.0999585331,
				"z": -1.2266561482,
				"element": "H" 
			},
			{
				"x": 1.9479105873,
				"y": -1.9099271334,
				"z": -1.9687532116,
				"element": "H" 
			},
			{
				"x": 3.4956516385,
				"y": -2.2029363578,
				"z": 1.8808077595,
				"element": "H" 
			}
		],
		 "valence_orbital": [ 
			{
				"type": "occ",
				"energy": -0.31081,
				"method": "rhf"
			},
			{
				"type": "occ",
				"energy": -0.28125,
				"method": "rhf"
			},
			{
				"type": "occ",
				"energy": -0.28035,
				"method": "rhf"
			},
			{
				"type": "occ",
				"energy": -0.25058,
				"method": "rhf"
			},
			{
				"type": "occ",
				"energy": -0.23019,
				"method": "rhf"
			},
			{
				"type": "unocc",
				"energy": -0.03858,
				"method": "rhf"
			},
			{
				"type": "unocc",
				"energy": -0.00523,
				"method": "rhf"
			},
			{
				"type": "unocc",
				"energy": 0.03475,
				"method": "rhf"
			},
			{
				"type": "unocc",
				"energy": 0.05115,
				"method": "rhf"
			},
			{
				"type": "unocc",
				"energy": 0.05473,
				"method": "rhf"
			}
		],
		"cosmo_sigma_profile": { 
			"-0.025": 0.0,
			"-0.024": 0.0,
			"-0.023": 0.0,
			"-0.022": 0.0,
			"-0.021": 0.0,
			"-0.02": 0.0,
			"-0.019": 0.176287182915,
			"-0.018": 1.00829409396,
			"-0.017": 1.28112686219,
			"-0.016": 1.25921665573,
			"-0.015": 1.21401005882,
			"-0.014": 0.429725799752,
			"-0.013": 0.495786252879,
			"-0.012": 2.59085485311,
			"-0.011": 4.36167524885,
			"-0.01": 3.37929078932,
			"-0.009": 3.6664008582,
			"-0.008": 3.79913125164,
			"-0.007": 3.81463824494,
			"-0.006": 8.26367049886,
			"-0.005": 8.92206899003,
			"-0.004": 8.80735987293,
			"-0.003": 8.17949929202,
			"-0.002": 10.0588452961,
			"-0.001": 11.5235121201,
			"0.0": 10.2556613277,
			"0.001": 11.9921418116,
			"0.002": 14.1960521188,
			"0.003": 17.6237468543,
			"0.004": 15.708836357,
			"0.005": 7.04783320314,
			"0.006": 4.80639453237,
			"0.007": 4.40165720035,
			"0.008": 4.11928016485,
			"0.009": 3.72923800828,
			"0.01": 3.76567698556,
			"0.011": 4.65196568579,
			"0.012": 1.31734263553,
			"0.013": 1.17733551053,
			"0.014": 0.824426849936,
			"0.015": 1.10560410079,
			"0.016": 0.89381032282,
			"0.017": 0.0123281723114,
			"0.018": 0.0,
			"0.019": 0.0,
			"0.02": 0.0,
			"0.021": 0.0,
			"0.022": 0.0,
			"0.023": 0.0,
			"0.024": 0.0,
			"0.025": 0.0
		}
	}
}
