{
	 "smiles": "NC1=NN(CC2=C3N=CC=CC3=CC=C2)C=C1", 
	 "Tm": 394.15, 
	 "num_atms": 29, 
	 "gaussian": { 
		 "optdone": 1, 
		 "sigma_profile": "yes", 
		 "theory": "DFT", 
		 "functional": "B3LYP", 
		 "basiset": "6-31G**", 
		 "properties": { 
			 "R2extent": 5424.9795, 
			 "electric_dipole_moment_norm": 3.86373333707, 
			 "electric_quadrupole_moment_norm": 13.5621415127, 
			 "total_energy": -721.607908102, 
			 "HOMO_LUMO_gap": 0.13049, 
			 "cosmo_polarized_energy": -14.03, 
			 "cosmo_cavitation_energy": 33.24, 
			 "cosmo_dispersion_energy": -23.78, 
			 "cosmo_repulsion_energy": 1.84, 
			 "cosmo_total_nonelectrostatic_energy": 11.3, 
			 "SMD_solvation_energy": 3.9 
		},
		"coords": [
			{
				"x": -0.5969527877,
				"y": 5.8688248103,
				"z": -2.2418530348,
				"element": "N" 
			},
			{
				"x": 0.0787025679,
				"y": 4.7348625955,
				"z": -1.7783128593,
				"element": "C" 
			},
			{
				"x": 0.0959928351,
				"y": 4.4373062117,
				"z": -0.4787982329,
				"element": "N" 
			},
			{
				"x": 0.9188263332,
				"y": 3.3532611976,
				"z": -0.3868519604,
				"element": "N" 
			},
			{
				"x": 1.0765003773,
				"y": 2.6851814365,
				"z": 0.8973976684,
				"element": "C" 
			},
			{
				"x": -0.0273867288,
				"y": 1.6875636082,
				"z": 1.1899553372,
				"element": "C" 
			},
			{
				"x": 0.1343858062,
				"y": 0.3133895888,
				"z": 0.8276347583,
				"element": "C" 
			},
			{
				"x": 1.3006537306,
				"y": -0.0771276377,
				"z": 0.2327017151,
				"element": "N" 
			},
			{
				"x": 1.4411075247,
				"y": -1.3462211078,
				"z": -0.094866201,
				"element": "C" 
			},
			{
				"x": 0.4560180147,
				"y": -2.3387281845,
				"z": 0.130458641,
				"element": "C" 
			},
			{
				"x": -0.7247529992,
				"y": -1.9665537919,
				"z": 0.7278274895,
				"element": "C" 
			},
			{
				"x": -0.9255467923,
				"y": -0.6123690612,
				"z": 1.0985449696,
				"element": "C" 
			},
			{
				"x": -2.1184658239,
				"y": -0.1508651496,
				"z": 1.7130868432,
				"element": "C" 
			},
			{
				"x": -2.2542417543,
				"y": 1.1769410516,
				"z": 2.0468790833,
				"element": "C" 
			},
			{
				"x": -1.2061866846,
				"y": 2.0910576192,
				"z": 1.7846226626,
				"element": "C" 
			},
			{
				"x": 1.375710316,
				"y": 2.9526847639,
				"z": -1.5987094751,
				"element": "C" 
			},
			{
				"x": 0.8654513854,
				"y": 3.8292105449,
				"z": -2.5371455916,
				"element": "C" 
			},
			{
				"x": -1.0718280526,
				"y": 5.7150144036,
				"z": -3.1227744546,
				"element": "H" 
			},
			{
				"x": -1.2439498212,
				"y": 6.2210013134,
				"z": -1.5459369528,
				"element": "H" 
			},
			{
				"x": 1.0862459343,
				"y": 3.4694452053,
				"z": 1.6576630495,
				"element": "H" 
			},
			{
				"x": 2.0416722355,
				"y": 2.1778851683,
				"z": 0.8926122111,
				"element": "H" 
			},
			{
				"x": 2.384001214,
				"y": -1.6226085692,
				"z": -0.5659190778,
				"element": "H" 
			},
			{
				"x": 0.6434678913,
				"y": -3.3655628628,
				"z": -0.1667150922,
				"element": "H" 
			},
			{
				"x": -1.5103601588,
				"y": -2.6929680981,
				"z": 0.9209145416,
				"element": "H" 
			},
			{
				"x": -2.9173489776,
				"y": -0.8604574897,
				"z": 1.9128100603,
				"element": "H" 
			},
			{
				"x": -3.1671752329,
				"y": 1.531976223,
				"z": 2.5158315681,
				"element": "H" 
			},
			{
				"x": -1.3326731219,
				"y": 3.1382721214,
				"z": 2.0438218288,
				"element": "H" 
			},
			{
				"x": 2.0114301993,
				"y": 2.0845130908,
				"z": -1.6925904654,
				"element": "H" 
			},
			{
				"x": 1.0527025701,
				"y": 3.8381709985,
				"z": -3.6005890297,
				"element": "H" 
			}
		],
		 "valence_orbital": [ 
			{
				"type": "occ",
				"energy": -0.2599,
				"method": "rhf"
			},
			{
				"type": "occ",
				"energy": -0.2548,
				"method": "rhf"
			},
			{
				"type": "occ",
				"energy": -0.23525,
				"method": "rhf"
			},
			{
				"type": "occ",
				"energy": -0.22348,
				"method": "rhf"
			},
			{
				"type": "occ",
				"energy": -0.18828,
				"method": "rhf"
			},
			{
				"type": "unocc",
				"energy": -0.05779,
				"method": "rhf"
			},
			{
				"type": "unocc",
				"energy": -0.01965,
				"method": "rhf"
			},
			{
				"type": "unocc",
				"energy": 0.01215,
				"method": "rhf"
			},
			{
				"type": "unocc",
				"energy": 0.04236,
				"method": "rhf"
			},
			{
				"type": "unocc",
				"energy": 0.08399,
				"method": "rhf"
			}
		],
		"cosmo_sigma_profile": { 
			"-0.025": 0.0,
			"-0.024": 0.0,
			"-0.023": 0.0,
			"-0.022": 0.0,
			"-0.021": 0.0,
			"-0.02": 0.0,
			"-0.019": 0.0,
			"-0.018": 0.0,
			"-0.017": 0.0,
			"-0.016": 0.0,
			"-0.015": 0.0,
			"-0.014": 0.0,
			"-0.013": 0.0724904580673,
			"-0.012": 1.30664217056,
			"-0.011": 2.51628344318,
			"-0.01": 2.11767197515,
			"-0.009": 2.20214969489,
			"-0.008": 3.20493385353,
			"-0.007": 10.2867311349,
			"-0.006": 16.992352033,
			"-0.005": 21.7296948033,
			"-0.004": 18.6309765009,
			"-0.003": 16.9938421905,
			"-0.002": 16.5682663944,
			"-0.001": 12.8854349847,
			"0.0": 13.5374454947,
			"0.001": 17.221339308,
			"0.002": 26.4527271162,
			"0.003": 21.5279116757,
			"0.004": 16.2893010217,
			"0.005": 9.01069381332,
			"0.006": 10.0338404838,
			"0.007": 6.90476092587,
			"0.008": 3.73439187469,
			"0.009": 3.09611869553,
			"0.01": 3.42428752998,
			"0.011": 2.45689016009,
			"0.012": 1.30676690727,
			"0.013": 1.99427167455,
			"0.014": 1.50174611554,
			"0.015": 0.908708301309,
			"0.016": 0.982846496292,
			"0.017": 0.0542634213278,
			"0.018": 0.0,
			"0.019": 0.0,
			"0.02": 0.0,
			"0.021": 0.0,
			"0.022": 0.0,
			"0.023": 0.0,
			"0.024": 0.0,
			"0.025": 0.0
		}
	}
}
