{
	 "smiles": "COC1=C(OC)C(CC(C)Cl)=CC(=C1)C(O)=O", 
	 "Tm": 377.15, 
	 "num_atms": 32, 
	 "gaussian": { 
		 "optdone": 1, 
		 "sigma_profile": "yes", 
		 "theory": "DFT", 
		 "functional": "B3LYP", 
		 "basiset": "6-31G**", 
		 "properties": { 
			 "R2extent": 5126.5003, 
			 "electric_dipole_moment_norm": 4.68505748204, 
			 "electric_quadrupole_moment_norm": 24.5351548141, 
			 "total_energy": -1227.39435874, 
			 "HOMO_LUMO_gap": 0.19741, 
			 "cosmo_polarized_energy": -19.86, 
			 "cosmo_cavitation_energy": 36.64, 
			 "cosmo_dispersion_energy": -24.9, 
			 "cosmo_repulsion_energy": 1.96, 
			 "cosmo_total_nonelectrostatic_energy": 13.7, 
			 "SMD_solvation_energy": 8.29 
		},
		"coords": [
			{
				"x": -2.5609441918,
				"y": 2.4201357859,
				"z": -1.4610818435,
				"element": "C" 
			},
			{
				"x": -1.661545779,
				"y": 1.4683526558,
				"z": -2.0492876922,
				"element": "O" 
			},
			{
				"x": -0.6780107318,
				"y": 1.0087935105,
				"z": -1.2058765416,
				"element": "C" 
			},
			{
				"x": -0.986692952,
				"y": 0.143232972,
				"z": -0.132476655,
				"element": "C" 
			},
			{
				"x": -2.2768959363,
				"y": -0.2567713538,
				"z": 0.098860816,
				"element": "O" 
			},
			{
				"x": -2.8790709947,
				"y": -1.0561453495,
				"z": -0.9330446382,
				"element": "C" 
			},
			{
				"x": 0.0300801895,
				"y": -0.3002721975,
				"z": 0.7331653136,
				"element": "C" 
			},
			{
				"x": -0.2947810016,
				"y": -1.2152785829,
				"z": 1.8943216803,
				"element": "C" 
			},
			{
				"x": -0.3864881733,
				"y": -0.5616545116,
				"z": 3.2887338096,
				"element": "C" 
			},
			{
				"x": 0.885354562,
				"y": 0.1156848629,
				"z": 3.7823936492,
				"element": "C" 
			},
			{
				"x": -1.7638444699,
				"y": 0.6484219768,
				"z": 3.3525326648,
				"element": "Cl" 
			},
			{
				"x": 1.3481223087,
				"y": 0.0912755646,
				"z": 0.4669925194,
				"element": "C" 
			},
			{
				"x": 1.6653072013,
				"y": 0.9204682007,
				"z": -0.6155808911,
				"element": "C" 
			},
			{
				"x": 0.6393064084,
				"y": 1.3750800727,
				"z": -1.4516599745,
				"element": "C" 
			},
			{
				"x": 3.0661514554,
				"y": 1.3315235695,
				"z": -0.9483271106,
				"element": "C" 
			},
			{
				"x": 3.9818523773,
				"y": 1.2508290666,
				"z": 0.0571584884,
				"element": "O" 
			},
			{
				"x": 3.4051790678,
				"y": 1.7202932991,
				"z": -2.0412626668,
				"element": "O" 
			},
			{
				"x": -3.2787709276,
				"y": 2.6807410674,
				"z": -2.2408731309,
				"element": "H" 
			},
			{
				"x": -3.0851017404,
				"y": 1.9948979665,
				"z": -0.5997408809,
				"element": "H" 
			},
			{
				"x": -2.0181504248,
				"y": 3.3211208848,
				"z": -1.1512421028,
				"element": "H" 
			},
			{
				"x": -2.3246561014,
				"y": -1.993051354,
				"z": -1.0655175671,
				"element": "H" 
			},
			{
				"x": -2.9192122189,
				"y": -0.5178671439,
				"z": -1.882927511,
				"element": "H" 
			},
			{
				"x": -3.8890150782,
				"y": -1.2794002566,
				"z": -0.585295232,
				"element": "H" 
			},
			{
				"x": -1.2400525559,
				"y": -1.7245678338,
				"z": 1.6984895311,
				"element": "H" 
			},
			{
				"x": 0.4831104791,
				"y": -1.9866595544,
				"z": 1.9745488855,
				"element": "H" 
			},
			{
				"x": -0.6874158171,
				"y": -1.3378963805,
				"z": 3.9964602715,
				"element": "H" 
			},
			{
				"x": 1.7083672025,
				"y": -0.6093106375,
				"z": 3.7973948969,
				"element": "H" 
			},
			{
				"x": 1.164809226,
				"y": 0.9520436995,
				"z": 3.1371135719,
				"element": "H" 
			},
			{
				"x": 0.7485156961,
				"y": 0.4972182611,
				"z": 4.7967278381,
				"element": "H" 
			},
			{
				"x": 2.1380753191,
				"y": -0.3222547621,
				"z": 1.0892380231,
				"element": "H" 
			},
			{
				"x": 0.8711426882,
				"y": 2.0159876019,
				"z": -2.2946586722,
				"element": "H" 
			},
			{
				"x": 3.533174913,
				"y": 1.1009288998,
				"z": 0.9005211511,
				"element": "H" 
			}
		],
		 "valence_orbital": [ 
			{
				"type": "occ",
				"energy": -0.29453,
				"method": "rhf"
			},
			{
				"type": "occ",
				"energy": -0.27733,
				"method": "rhf"
			},
			{
				"type": "occ",
				"energy": -0.2715,
				"method": "rhf"
			},
			{
				"type": "occ",
				"energy": -0.25562,
				"method": "rhf"
			},
			{
				"type": "occ",
				"energy": -0.2451,
				"method": "rhf"
			},
			{
				"type": "unocc",
				"energy": -0.04769,
				"method": "rhf"
			},
			{
				"type": "unocc",
				"energy": -0.02309,
				"method": "rhf"
			},
			{
				"type": "unocc",
				"energy": 0.02105,
				"method": "rhf"
			},
			{
				"type": "unocc",
				"energy": 0.04785,
				"method": "rhf"
			},
			{
				"type": "unocc",
				"energy": 0.05198,
				"method": "rhf"
			}
		],
		"cosmo_sigma_profile": { 
			"-0.025": 0.0,
			"-0.024": 0.0,
			"-0.023": 0.0,
			"-0.022": 0.0,
			"-0.021": 0.0,
			"-0.02": 0.0,
			"-0.019": 0.0,
			"-0.018": 0.0,
			"-0.017": 0.535095685894,
			"-0.016": 1.19557854964,
			"-0.015": 1.08813462767,
			"-0.014": 1.18178358223,
			"-0.013": 1.02527729696,
			"-0.012": 1.32035023159,
			"-0.011": 1.0527374029,
			"-0.01": 0.775118244376,
			"-0.009": 1.5797553541,
			"-0.008": 2.39803440425,
			"-0.007": 5.6137217005,
			"-0.006": 14.1667931339,
			"-0.005": 19.2208854084,
			"-0.004": 24.9517111866,
			"-0.003": 33.1066834334,
			"-0.002": 27.0147039511,
			"-0.001": 22.7924391236,
			"0.0": 16.9652339987,
			"0.001": 14.5475898847,
			"0.002": 16.2802938427,
			"0.003": 11.5715983744,
			"0.004": 8.53295041562,
			"0.005": 9.90055595381,
			"0.006": 10.9170171818,
			"0.007": 11.2045729669,
			"0.008": 4.83450283417,
			"0.009": 5.7270705909,
			"0.01": 6.85389760783,
			"0.011": 7.23215366183,
			"0.012": 5.65159816073,
			"0.013": 1.83939309692,
			"0.014": 0.0870977198831,
			"0.015": 0.0,
			"0.016": 0.0,
			"0.017": 0.0,
			"0.018": 0.0,
			"0.019": 0.0,
			"0.02": 0.0,
			"0.021": 0.0,
			"0.022": 0.0,
			"0.023": 0.0,
			"0.024": 0.0,
			"0.025": 0.0
		}
	}
}
