{
	 "smiles": "ClS(=O)(=O)C1=CNN=C1", 
	 "Tm": 373.15, 
	 "num_atms": 12, 
	 "gaussian": { 
		 "optdone": 1, 
		 "sigma_profile": "yes", 
		 "theory": "DFT", 
		 "functional": "B3LYP", 
		 "basiset": "6-31G**", 
		 "properties": { 
			 "R2extent": 1851.5822, 
			 "electric_dipole_moment_norm": 5.29666113792, 
			 "electric_quadrupole_moment_norm": 16.488562286, 
			 "total_energy": -1234.3556027, 
			 "HOMO_LUMO_gap": 0.20855, 
			 "cosmo_polarized_energy": -15.01, 
			 "cosmo_cavitation_energy": 20.46, 
			 "cosmo_dispersion_energy": -15.79, 
			 "cosmo_repulsion_energy": 1.26, 
			 "cosmo_total_nonelectrostatic_energy": 5.94, 
			 "SMD_solvation_energy": 1.85 
		},
		"coords": [
			{
				"x": -0.0629630116,
				"y": -3.1413552865,
				"z": 0.8023543382,
				"element": "Cl" 
			},
			{
				"x": 1.0045465775,
				"y": -1.3523933189,
				"z": 0.3407335572,
				"element": "S" 
			},
			{
				"x": 2.1200094055,
				"y": -1.7588246005,
				"z": -0.5048370809,
				"element": "O" 
			},
			{
				"x": 1.1834854677,
				"y": -0.6576446618,
				"z": 1.6076948853,
				"element": "O" 
			},
			{
				"x": -0.1523179252,
				"y": -0.478868986,
				"z": -0.6310503911,
				"element": "C" 
			},
			{
				"x": -0.2240353824,
				"y": -0.4996767094,
				"z": -2.0152458057,
				"element": "C" 
			},
			{
				"x": -1.2422105707,
				"y": 0.3272932841,
				"z": -2.3215118181,
				"element": "N" 
			},
			{
				"x": -1.8410378066,
				"y": 0.8864646049,
				"z": -1.2398370741,
				"element": "N" 
			},
			{
				"x": -1.1822451935,
				"y": 0.394836321,
				"z": -0.2005121313,
				"element": "C" 
			},
			{
				"x": 0.3678181061,
				"y": -1.0222695339,
				"z": -2.7511838861,
				"element": "H" 
			},
			{
				"x": -1.5780057686,
				"y": 0.5714483525,
				"z": -3.241832452,
				"element": "H" 
			},
			{
				"x": -1.4437438983,
				"y": 0.6751905347,
				"z": 0.8095278587,
				"element": "H" 
			}
		],
		 "valence_orbital": [ 
			{
				"type": "occ",
				"energy": -0.34063,
				"method": "rhf"
			},
			{
				"type": "occ",
				"energy": -0.32248,
				"method": "rhf"
			},
			{
				"type": "occ",
				"energy": -0.31404,
				"method": "rhf"
			},
			{
				"type": "occ",
				"energy": -0.30551,
				"method": "rhf"
			},
			{
				"type": "occ",
				"energy": -0.295,
				"method": "rhf"
			},
			{
				"type": "unocc",
				"energy": -0.08645,
				"method": "rhf"
			},
			{
				"type": "unocc",
				"energy": -0.0278,
				"method": "rhf"
			},
			{
				"type": "unocc",
				"energy": -0.00055,
				"method": "rhf"
			},
			{
				"type": "unocc",
				"energy": 0.04221,
				"method": "rhf"
			},
			{
				"type": "unocc",
				"energy": 0.07205,
				"method": "rhf"
			}
		],
		"cosmo_sigma_profile": { 
			"-0.025": 0.0,
			"-0.024": 0.0,
			"-0.023": 0.0,
			"-0.022": 0.0,
			"-0.021": 0.0,
			"-0.02": 0.0,
			"-0.019": 0.384747264354,
			"-0.018": 2.30860640527,
			"-0.017": 1.19139134728,
			"-0.016": 1.53741757666,
			"-0.015": 1.16928841063,
			"-0.014": 0.773505772839,
			"-0.013": 1.63609163051,
			"-0.012": 3.00898475673,
			"-0.011": 2.36429503897,
			"-0.01": 3.09971899018,
			"-0.009": 3.4441046645,
			"-0.008": 3.02378360071,
			"-0.007": 3.45305704639,
			"-0.006": 4.34649603574,
			"-0.005": 4.43378888956,
			"-0.004": 4.41689003978,
			"-0.003": 6.62837454204,
			"-0.002": 10.2600414396,
			"-0.001": 12.4194777961,
			"0.0": 10.7236346797,
			"0.001": 10.4959899972,
			"0.002": 10.8706702036,
			"0.003": 14.6591223726,
			"0.004": 11.5325197113,
			"0.005": 3.41518004111,
			"0.006": 5.636287016,
			"0.007": 7.46820149184,
			"0.008": 11.6235162595,
			"0.009": 6.71041276752,
			"0.01": 0.957382395264,
			"0.011": 0.791293125013,
			"0.012": 1.12618532314,
			"0.013": 1.21598073176,
			"0.014": 0.39197096681,
			"0.015": 0.0,
			"0.016": 0.0,
			"0.017": 0.0,
			"0.018": 0.0,
			"0.019": 0.0,
			"0.02": 0.0,
			"0.021": 0.0,
			"0.022": 0.0,
			"0.023": 0.0,
			"0.024": 0.0,
			"0.025": 0.0
		}
	}
}
