{
	 "smiles": "CN1C(S)=NC2=C(C=CS2)C1=O", 
	 "Tm": 591.15, 
	 "num_atms": 18, 
	 "gaussian": { 
		 "optdone": 1, 
		 "sigma_profile": "yes", 
		 "theory": "DFT", 
		 "functional": "B3LYP", 
		 "basiset": "6-31G**", 
		 "properties": { 
			 "R2extent": 3365.4454, 
			 "electric_dipole_moment_norm": 1.45505922904, 
			 "electric_quadrupole_moment_norm": 11.3817383536, 
			 "total_energy": -1251.46847159, 
			 "HOMO_LUMO_gap": 0.17304, 
			 "cosmo_polarized_energy": -9.72, 
			 "cosmo_cavitation_energy": 25.25, 
			 "cosmo_dispersion_energy": -20.14, 
			 "cosmo_repulsion_energy": 1.48, 
			 "cosmo_total_nonelectrostatic_energy": 6.59, 
			 "SMD_solvation_energy": 3.05 
		},
		"coords": [
			{
				"x": -2.163004369,
				"y": 2.1034666235,
				"z": -0.5498111093,
				"element": "C" 
			},
			{
				"x": -0.9738822425,
				"y": 1.61876636,
				"z": 0.1593216371,
				"element": "N" 
			},
			{
				"x": -0.2935015802,
				"y": 2.4210157236,
				"z": 1.0429271211,
				"element": "C" 
			},
			{
				"x": -0.9377118192,
				"y": 4.0702587549,
				"z": 1.2727530632,
				"element": "S" 
			},
			{
				"x": 0.769198968,
				"y": 2.0717233227,
				"z": 1.713638874,
				"element": "N" 
			},
			{
				"x": 1.2004912056,
				"y": 0.8044606843,
				"z": 1.4874859877,
				"element": "C" 
			},
			{
				"x": 0.6167283822,
				"y": -0.1169842021,
				"z": 0.6261810754,
				"element": "C" 
			},
			{
				"x": 1.2979463146,
				"y": -1.374036013,
				"z": 0.5986031503,
				"element": "C" 
			},
			{
				"x": 2.3769087106,
				"y": -1.3897659601,
				"z": 1.4295416129,
				"element": "C" 
			},
			{
				"x": 2.6047083727,
				"y": 0.1260659408,
				"z": 2.2776357809,
				"element": "S" 
			},
			{
				"x": -0.559935269,
				"y": 0.2675045129,
				"z": -0.11733948,
				"element": "C" 
			},
			{
				"x": -1.1842835007,
				"y": -0.4252267792,
				"z": -0.9091857479,
				"element": "O" 
			},
			{
				"x": -1.9125423179,
				"y": 2.9677317732,
				"z": -1.1712395186,
				"element": "H" 
			},
			{
				"x": -2.947586751,
				"y": 2.3775133313,
				"z": 0.1609575688,
				"element": "H" 
			},
			{
				"x": -2.506772751,
				"y": 1.2849035047,
				"z": -1.17955955,
				"element": "H" 
			},
			{
				"x": 0.0242756947,
				"y": 4.38563413,
				"z": 2.1588870728,
				"element": "H" 
			},
			{
				"x": 0.9822746256,
				"y": -2.2078783963,
				"z": -0.0157408681,
				"element": "H" 
			},
			{
				"x": 3.0687883264,
				"y": -2.2012533111,
				"z": 1.6075433296,
				"element": "H" 
			}
		],
		 "valence_orbital": [ 
			{
				"type": "occ",
				"energy": -0.29325,
				"method": "rhf"
			},
			{
				"type": "occ",
				"energy": -0.2836,
				"method": "rhf"
			},
			{
				"type": "occ",
				"energy": -0.26953,
				"method": "rhf"
			},
			{
				"type": "occ",
				"energy": -0.26274,
				"method": "rhf"
			},
			{
				"type": "occ",
				"energy": -0.21906,
				"method": "rhf"
			},
			{
				"type": "unocc",
				"energy": -0.04602,
				"method": "rhf"
			},
			{
				"type": "unocc",
				"energy": -0.01263,
				"method": "rhf"
			},
			{
				"type": "unocc",
				"energy": -0.00502,
				"method": "rhf"
			},
			{
				"type": "unocc",
				"energy": 0.01964,
				"method": "rhf"
			},
			{
				"type": "unocc",
				"energy": 0.02188,
				"method": "rhf"
			}
		],
		"cosmo_sigma_profile": { 
			"-0.025": 0.0,
			"-0.024": 0.0,
			"-0.023": 0.0,
			"-0.022": 0.0,
			"-0.021": 0.0,
			"-0.02": 0.0,
			"-0.019": 0.0,
			"-0.018": 0.0,
			"-0.017": 0.0,
			"-0.016": 0.0,
			"-0.015": 0.0,
			"-0.014": 0.0,
			"-0.013": 0.0590057377694,
			"-0.012": 1.13072089502,
			"-0.011": 1.49145518813,
			"-0.01": 1.04529622918,
			"-0.009": 3.13957946576,
			"-0.008": 3.3199149528,
			"-0.007": 6.36214572541,
			"-0.006": 9.91936542124,
			"-0.005": 11.5897028544,
			"-0.004": 15.7989860335,
			"-0.003": 17.4218779397,
			"-0.002": 10.9933948037,
			"-0.001": 12.5059496564,
			"0.0": 14.8683525183,
			"0.001": 21.3648533189,
			"0.002": 20.6176468506,
			"0.003": 15.978340176,
			"0.004": 11.3049561085,
			"0.005": 5.31593115953,
			"0.006": 4.02174978052,
			"0.007": 3.09164948974,
			"0.008": 2.28123357655,
			"0.009": 2.18596318995,
			"0.01": 2.58657168663,
			"0.011": 2.30849081467,
			"0.012": 4.08886037993,
			"0.013": 2.96694378555,
			"0.014": 0.0823595296942,
			"0.015": 0.0,
			"0.016": 0.0,
			"0.017": 0.0,
			"0.018": 0.0,
			"0.019": 0.0,
			"0.02": 0.0,
			"0.021": 0.0,
			"0.022": 0.0,
			"0.023": 0.0,
			"0.024": 0.0,
			"0.025": 0.0
		}
	}
}
