{
	 "smiles": "CCCCC1=CC=C(O)C=C1", 
	 "Tm": 295.15, 
	 "num_atms": 25, 
	 "gaussian": { 
		 "optdone": 1, 
		 "sigma_profile": "yes", 
		 "theory": "DFT", 
		 "functional": "B3LYP", 
		 "basiset": "6-31G**", 
		 "properties": { 
			 "R2extent": 2243.9078, 
			 "electric_dipole_moment_norm": 1.25908975454, 
			 "electric_quadrupole_moment_norm": 10.6315415985, 
			 "total_energy": -464.734874196, 
			 "HOMO_LUMO_gap": 0.211, 
			 "cosmo_polarized_energy": -7.59, 
			 "cosmo_cavitation_energy": 27.23, 
			 "cosmo_dispersion_energy": -19.32, 
			 "cosmo_repulsion_energy": 1.58, 
			 "cosmo_total_nonelectrostatic_energy": 9.48, 
			 "SMD_solvation_energy": 4.63 
		},
		"coords": [
			{
				"x": -1.2417537049,
				"y": 1.7768579393,
				"z": -1.2712875044,
				"element": "C" 
			},
			{
				"x": -1.9350106149,
				"y": 0.7809525672,
				"z": -2.2099239156,
				"element": "C" 
			},
			{
				"x": -2.2094128453,
				"y": -0.6157956333,
				"z": -1.6225069166,
				"element": "C" 
			},
			{
				"x": -0.9947083678,
				"y": -1.5657294338,
				"z": -1.5074602258,
				"element": "C" 
			},
			{
				"x": 0.0210819235,
				"y": -1.243825715,
				"z": -0.4285427273,
				"element": "C" 
			},
			{
				"x": -0.3259715592,
				"y": -1.3006100013,
				"z": 0.931282858,
				"element": "C" 
			},
			{
				"x": 0.5962917625,
				"y": -1.0218564846,
				"z": 1.9346024997,
				"element": "C" 
			},
			{
				"x": 1.9102040917,
				"y": -0.6785662363,
				"z": 1.5952348909,
				"element": "C" 
			},
			{
				"x": 2.779005887,
				"y": -0.4136476699,
				"z": 2.6186247436,
				"element": "O" 
			},
			{
				"x": 2.282102004,
				"y": -0.6240687432,
				"z": 0.24983799,
				"element": "C" 
			},
			{
				"x": 1.3419278364,
				"y": -0.9073855557,
				"z": -0.7435753226,
				"element": "C" 
			},
			{
				"x": -1.1579886771,
				"y": 2.7609212071,
				"z": -1.7456894191,
				"element": "H" 
			},
			{
				"x": -1.8132439026,
				"y": 1.903921615,
				"z": -0.3445858538,
				"element": "H" 
			},
			{
				"x": -0.2365918689,
				"y": 1.4512508939,
				"z": -0.994044494,
				"element": "H" 
			},
			{
				"x": -2.8965926125,
				"y": 1.2099525237,
				"z": -2.5211139702,
				"element": "H" 
			},
			{
				"x": -1.3464378492,
				"y": 0.6713007887,
				"z": -3.1318084729,
				"element": "H" 
			},
			{
				"x": -2.6869808787,
				"y": -0.5104721736,
				"z": -0.6387555262,
				"element": "H" 
			},
			{
				"x": -2.9483457882,
				"y": -1.114949215,
				"z": -2.2628041265,
				"element": "H" 
			},
			{
				"x": -0.4864237461,
				"y": -1.6060759182,
				"z": -2.4792776545,
				"element": "H" 
			},
			{
				"x": -1.3822467245,
				"y": -2.5783098901,
				"z": -1.3296966178,
				"element": "H" 
			},
			{
				"x": -1.3405372082,
				"y": -1.5726635534,
				"z": 1.2129849498,
				"element": "H" 
			},
			{
				"x": 0.3212921719,
				"y": -1.0687679685,
				"z": 2.9833597434,
				"element": "H" 
			},
			{
				"x": 3.6436384681,
				"y": -0.1950222663,
				"z": 2.2478789528,
				"element": "H" 
			},
			{
				"x": 3.3029409355,
				"y": -0.3638181399,
				"z": -0.0238520934,
				"element": "H" 
			},
			{
				"x": 1.6478612675,
				"y": -0.8631929368,
				"z": -1.7860817877,
				"element": "H" 
			}
		],
		 "valence_orbital": [ 
			{
				"type": "occ",
				"energy": -0.32027,
				"method": "rhf"
			},
			{
				"type": "occ",
				"energy": -0.31288,
				"method": "rhf"
			},
			{
				"type": "occ",
				"energy": -0.30512,
				"method": "rhf"
			},
			{
				"type": "occ",
				"energy": -0.24744,
				"method": "rhf"
			},
			{
				"type": "occ",
				"energy": -0.21073,
				"method": "rhf"
			},
			{
				"type": "unocc",
				"energy": 0.00027,
				"method": "rhf"
			},
			{
				"type": "unocc",
				"energy": 0.01702,
				"method": "rhf"
			},
			{
				"type": "unocc",
				"energy": 0.0734,
				"method": "rhf"
			},
			{
				"type": "unocc",
				"energy": 0.09153,
				"method": "rhf"
			},
			{
				"type": "unocc",
				"energy": 0.10717,
				"method": "rhf"
			}
		],
		"cosmo_sigma_profile": { 
			"-0.025": 0.0,
			"-0.024": 0.0,
			"-0.023": 0.0,
			"-0.022": 0.0,
			"-0.021": 0.0,
			"-0.02": 0.0,
			"-0.019": 0.0,
			"-0.018": 0.105860928626,
			"-0.017": 1.19042253004,
			"-0.016": 0.757585907727,
			"-0.015": 1.02208255971,
			"-0.014": 1.2689214211,
			"-0.013": 1.24007650829,
			"-0.012": 0.169119729507,
			"-0.011": 0.963583283316,
			"-0.01": 1.39620107438,
			"-0.009": 1.1245802933,
			"-0.008": 1.31367565806,
			"-0.007": 0.662309482707,
			"-0.006": 2.43116919409,
			"-0.005": 5.8709935264,
			"-0.004": 9.19811267376,
			"-0.003": 15.1103305859,
			"-0.002": 23.5227432632,
			"-0.001": 25.4251374968,
			"0.0": 26.8966313204,
			"0.001": 25.8899116934,
			"0.002": 17.7614538754,
			"0.003": 9.29220884603,
			"0.004": 10.3786387884,
			"0.005": 11.3210556743,
			"0.006": 8.57840454365,
			"0.007": 2.34637247001,
			"0.008": 0.934625582592,
			"0.009": 1.56280852271,
			"0.01": 1.81543402767,
			"0.011": 1.75933650171,
			"0.012": 1.46946327851,
			"0.013": 0.00592491052704,
			"0.014": 0.0,
			"0.015": 0.0,
			"0.016": 0.0,
			"0.017": 0.0,
			"0.018": 0.0,
			"0.019": 0.0,
			"0.02": 0.0,
			"0.021": 0.0,
			"0.022": 0.0,
			"0.023": 0.0,
			"0.024": 0.0,
			"0.025": 0.0
		}
	}
}
