{
	 "smiles": "OC(=O)C1=C(C=CC=C1)N1CCCC1=O", 
	 "Tm": 471.15, 
	 "num_atms": 26, 
	 "gaussian": { 
		 "optdone": 1, 
		 "sigma_profile": "yes", 
		 "theory": "DFT", 
		 "functional": "B3LYP", 
		 "basiset": "6-31G**", 
		 "properties": { 
			 "R2extent": 2937.4322, 
			 "electric_dipole_moment_norm": 5.29343442767, 
			 "electric_quadrupole_moment_norm": 13.9501932202, 
			 "total_energy": -706.252880252, 
			 "HOMO_LUMO_gap": 0.1885, 
			 "cosmo_polarized_energy": -17.46, 
			 "cosmo_cavitation_energy": 29.2, 
			 "cosmo_dispersion_energy": -21.12, 
			 "cosmo_repulsion_energy": 1.66, 
			 "cosmo_total_nonelectrostatic_energy": 9.74, 
			 "SMD_solvation_energy": 6.27 
		},
		"coords": [
			{
				"x": 0.5879244504,
				"y": 0.363554811,
				"z": 2.2527138163,
				"element": "O" 
			},
			{
				"x": -0.5745126824,
				"y": -0.3299998553,
				"z": 2.1887205153,
				"element": "C" 
			},
			{
				"x": -1.2776001893,
				"y": -0.4911688016,
				"z": 3.1648066025,
				"element": "O" 
			},
			{
				"x": -0.8300110959,
				"y": -0.9738242243,
				"z": 0.8646024248,
				"element": "C" 
			},
			{
				"x": -0.4012058311,
				"y": -0.4870873137,
				"z": -0.3908800921,
				"element": "C" 
			},
			{
				"x": -0.6080315657,
				"y": -1.2787227846,
				"z": -1.5309187129,
				"element": "C" 
			},
			{
				"x": -1.2473949713,
				"y": -2.5125394022,
				"z": -1.4439882743,
				"element": "C" 
			},
			{
				"x": -1.7216492271,
				"y": -2.9699373507,
				"z": -0.2140937441,
				"element": "C" 
			},
			{
				"x": -1.5156601132,
				"y": -2.1958293544,
				"z": 0.9226879867,
				"element": "C" 
			},
			{
				"x": 0.2017342269,
				"y": 0.7818302872,
				"z": -0.5465567654,
				"element": "N" 
			},
			{
				"x": 1.2683865691,
				"y": 1.0341055454,
				"z": -1.5216226236,
				"element": "C" 
			},
			{
				"x": 1.7814167851,
				"y": 2.4289599048,
				"z": -1.1199508515,
				"element": "C" 
			},
			{
				"x": 0.5342464445,
				"y": 3.109270413,
				"z": -0.5413901904,
				"element": "C" 
			},
			{
				"x": -0.307736242,
				"y": 1.955441643,
				"z": 0.0000593824,
				"element": "C" 
			},
			{
				"x": -1.2635226865,
				"y": 2.0369563184,
				"z": 0.7479041083,
				"element": "O" 
			},
			{
				"x": 0.6174694893,
				"y": 0.7184249694,
				"z": 3.1569111884,
				"element": "H" 
			},
			{
				"x": -0.2864489286,
				"y": -0.9103010859,
				"z": -2.4990919044,
				"element": "H" 
			},
			{
				"x": -1.391613064,
				"y": -3.104342963,
				"z": -2.3433056185,
				"element": "H" 
			},
			{
				"x": -2.2396831532,
				"y": -3.92088015,
				"z": -0.1406982875,
				"element": "H" 
			},
			{
				"x": -1.8633353819,
				"y": -2.5286149994,
				"z": 1.8945991758,
				"element": "H" 
			},
			{
				"x": 0.8780241071,
				"y": 1.0412923252,
				"z": -2.5498829671,
				"element": "H" 
			},
			{
				"x": 2.0343200344,
				"y": 0.256161532,
				"z": -1.4566267411,
				"element": "H" 
			},
			{
				"x": 2.5466321568,
				"y": 2.326458176,
				"z": -0.344440457,
				"element": "H" 
			},
			{
				"x": 2.2231877644,
				"y": 2.9629196442,
				"z": -1.9645931864,
				"element": "H" 
			},
			{
				"x": -0.0520363223,
				"y": 3.6219222536,
				"z": -1.3143952824,
				"element": "H" 
			},
			{
				"x": 0.7333994264,
				"y": 3.8335504619,
				"z": 0.2511304981,
				"element": "H" 
			}
		],
		 "valence_orbital": [ 
			{
				"type": "occ",
				"energy": -0.28703,
				"method": "rhf"
			},
			{
				"type": "occ",
				"energy": -0.27316,
				"method": "rhf"
			},
			{
				"type": "occ",
				"energy": -0.25951,
				"method": "rhf"
			},
			{
				"type": "occ",
				"energy": -0.24759,
				"method": "rhf"
			},
			{
				"type": "occ",
				"energy": -0.22833,
				"method": "rhf"
			},
			{
				"type": "unocc",
				"energy": -0.03983,
				"method": "rhf"
			},
			{
				"type": "unocc",
				"energy": -0.01407,
				"method": "rhf"
			},
			{
				"type": "unocc",
				"energy": 0.03142,
				"method": "rhf"
			},
			{
				"type": "unocc",
				"energy": 0.05401,
				"method": "rhf"
			},
			{
				"type": "unocc",
				"energy": 0.07722,
				"method": "rhf"
			}
		],
		"cosmo_sigma_profile": { 
			"-0.025": 0.0,
			"-0.024": 0.0,
			"-0.023": 0.0,
			"-0.022": 0.0,
			"-0.021": 0.0,
			"-0.02": 0.0,
			"-0.019": 0.0,
			"-0.018": 0.431014866924,
			"-0.017": 1.04129345855,
			"-0.016": 1.04170349158,
			"-0.015": 0.131265575481,
			"-0.014": 0.648655238519,
			"-0.013": 0.632038147915,
			"-0.012": 0.874195284602,
			"-0.011": 0.886409480343,
			"-0.01": 0.639781985322,
			"-0.009": 0.754623540365,
			"-0.008": 0.601777237961,
			"-0.007": 4.30144498829,
			"-0.006": 14.6495136801,
			"-0.005": 23.555343928,
			"-0.004": 25.4836384884,
			"-0.003": 20.0782499709,
			"-0.002": 17.844645521,
			"-0.001": 15.491416749,
			"0.0": 10.032860661,
			"0.001": 9.78415331225,
			"0.002": 10.9207215472,
			"0.003": 14.2067816557,
			"0.004": 12.297860752,
			"0.005": 4.28648110598,
			"0.006": 4.4647450682,
			"0.007": 4.16484242001,
			"0.008": 4.6449326369,
			"0.009": 4.68274325027,
			"0.01": 4.30543542069,
			"0.011": 5.28332774929,
			"0.012": 7.49082693988,
			"0.013": 3.91503388598,
			"0.014": 1.85757937865,
			"0.015": 0.0958707078294,
			"0.016": 0.0,
			"0.017": 0.0,
			"0.018": 0.0,
			"0.019": 0.0,
			"0.02": 0.0,
			"0.021": 0.0,
			"0.022": 0.0,
			"0.023": 0.0,
			"0.024": 0.0,
			"0.025": 0.0
		}
	}
}
