{
	 "smiles": "CN(C)CC1=NN=C(S)O1", 
	 "Tm": 476.15, 
	 "num_atms": 19, 
	 "gaussian": { 
		 "optdone": 1, 
		 "sigma_profile": "yes", 
		 "theory": "DFT", 
		 "functional": "B3LYP", 
		 "basiset": "6-31G**", 
		 "properties": { 
			 "R2extent": 2809.3148, 
			 "electric_dipole_moment_norm": 4.17697460969, 
			 "electric_quadrupole_moment_norm": 11.8462607721, 
			 "total_energy": -833.563178262, 
			 "HOMO_LUMO_gap": 0.21265, 
			 "cosmo_polarized_energy": -12.31, 
			 "cosmo_cavitation_energy": 24.87, 
			 "cosmo_dispersion_energy": -18.5, 
			 "cosmo_repulsion_energy": 1.47, 
			 "cosmo_total_nonelectrostatic_energy": 7.84, 
			 "SMD_solvation_energy": 0.09 
		},
		"coords": [
			{
				"x": 0.4492328089,
				"y": 0.4501512369,
				"z": 2.5258210969,
				"element": "C" 
			},
			{
				"x": 0.8286241765,
				"y": -0.1038293515,
				"z": 1.231797678,
				"element": "N" 
			},
			{
				"x": 1.45390078,
				"y": -1.415598021,
				"z": 1.374862153,
				"element": "C" 
			},
			{
				"x": -0.3082948684,
				"y": -0.1348923833,
				"z": 0.3136160057,
				"element": "C" 
			},
			{
				"x": 0.1098931815,
				"y": -0.3536255355,
				"z": -1.1025777612,
				"element": "C" 
			},
			{
				"x": -0.1602399032,
				"y": -1.3480101319,
				"z": -1.8838931081,
				"element": "N" 
			},
			{
				"x": 0.4545109579,
				"y": -1.0794878498,
				"z": -3.1142941717,
				"element": "N" 
			},
			{
				"x": 1.0440370842,
				"y": 0.0634074022,
				"z": -2.9635994389,
				"element": "C" 
			},
			{
				"x": 1.969782126,
				"y": 0.93123433,
				"z": -4.178833276,
				"element": "S" 
			},
			{
				"x": 0.8798998524,
				"y": 0.5999611971,
				"z": -1.7244140456,
				"element": "O" 
			},
			{
				"x": 0.0481381642,
				"y": 1.4605991078,
				"z": 2.3967923178,
				"element": "H" 
			},
			{
				"x": 1.3352166394,
				"y": 0.5178136538,
				"z": 3.1642972328,
				"element": "H" 
			},
			{
				"x": -0.3076830071,
				"y": -0.1558481699,
				"z": 3.0595758865,
				"element": "H" 
			},
			{
				"x": 1.7539849927,
				"y": -1.8001938444,
				"z": 0.396485064,
				"element": "H" 
			},
			{
				"x": 2.3512655734,
				"y": -1.324033513,
				"z": 1.9939674949,
				"element": "H" 
			},
			{
				"x": 0.7857952458,
				"y": -2.1634663371,
				"z": 1.8420711486,
				"element": "H" 
			},
			{
				"x": -0.8238029281,
				"y": 0.8305596895,
				"z": 0.3773345957,
				"element": "H" 
			},
			{
				"x": -1.0472424294,
				"y": -0.9212521697,
				"z": 0.5504986461,
				"element": "H" 
			},
			{
				"x": 2.3728815534,
				"y": 1.8991106898,
				"z": -3.3334075184,
				"element": "H" 
			}
		],
		 "valence_orbital": [ 
			{
				"type": "occ",
				"energy": -0.32815,
				"method": "rhf"
			},
			{
				"type": "occ",
				"energy": -0.32269,
				"method": "rhf"
			},
			{
				"type": "occ",
				"energy": -0.28268,
				"method": "rhf"
			},
			{
				"type": "occ",
				"energy": -0.24982,
				"method": "rhf"
			},
			{
				"type": "occ",
				"energy": -0.22891,
				"method": "rhf"
			},
			{
				"type": "unocc",
				"energy": -0.01626,
				"method": "rhf"
			},
			{
				"type": "unocc",
				"energy": -0.00286,
				"method": "rhf"
			},
			{
				"type": "unocc",
				"energy": 0.027,
				"method": "rhf"
			},
			{
				"type": "unocc",
				"energy": 0.04974,
				"method": "rhf"
			},
			{
				"type": "unocc",
				"energy": 0.07941,
				"method": "rhf"
			}
		],
		"cosmo_sigma_profile": { 
			"-0.025": 0.0,
			"-0.024": 0.0,
			"-0.023": 0.0,
			"-0.022": 0.0,
			"-0.021": 0.0,
			"-0.02": 0.0,
			"-0.019": 0.0,
			"-0.018": 0.0,
			"-0.017": 0.0,
			"-0.016": 0.0,
			"-0.015": 0.0,
			"-0.014": 0.192900654934,
			"-0.013": 1.82344821476,
			"-0.012": 1.28222547615,
			"-0.011": 1.64118062303,
			"-0.01": 1.97951096637,
			"-0.009": 0.965008927457,
			"-0.008": 1.97529518636,
			"-0.007": 4.87920980316,
			"-0.006": 4.12094067838,
			"-0.005": 10.9190565071,
			"-0.004": 19.1912312741,
			"-0.003": 18.9870638838,
			"-0.002": 22.3430414926,
			"-0.001": 22.1987490186,
			"0.0": 17.8472503164,
			"0.001": 10.3979032392,
			"0.002": 8.87137656203,
			"0.003": 6.75348054703,
			"0.004": 5.90050418664,
			"0.005": 5.87326927441,
			"0.006": 3.96907294019,
			"0.007": 3.62563306106,
			"0.008": 2.70463464623,
			"0.009": 3.66061574503,
			"0.01": 2.83072679648,
			"0.011": 4.30276424213,
			"0.012": 2.97555902199,
			"0.013": 3.28655749825,
			"0.014": 2.58103374538,
			"0.015": 1.1831544377,
			"0.016": 0.0,
			"0.017": 0.0,
			"0.018": 0.0,
			"0.019": 0.0,
			"0.02": 0.0,
			"0.021": 0.0,
			"0.022": 0.0,
			"0.023": 0.0,
			"0.024": 0.0,
			"0.025": 0.0
		}
	}
}
