{
	 "smiles": "CC1=CC(C(O)=O)=C(C)O1", 
	 "Tm": 410.15, 
	 "num_atms": 18, 
	 "gaussian": { 
		 "optdone": 1, 
		 "sigma_profile": "yes", 
		 "theory": "DFT", 
		 "functional": "B3LYP", 
		 "basiset": "6-31G**", 
		 "properties": { 
			 "R2extent": 1855.1912, 
			 "electric_dipole_moment_norm": 4.74865570241, 
			 "electric_quadrupole_moment_norm": 13.1870935706, 
			 "total_energy": -497.238874155, 
			 "HOMO_LUMO_gap": 0.20425, 
			 "cosmo_polarized_energy": -13.49, 
			 "cosmo_cavitation_energy": 22.39, 
			 "cosmo_dispersion_energy": -16.54, 
			 "cosmo_repulsion_energy": 1.36, 
			 "cosmo_total_nonelectrostatic_energy": 7.21, 
			 "SMD_solvation_energy": 5.73 
		},
		"coords": [
			{
				"x": 2.4582517606,
				"y": 3.1161907277,
				"z": -0.8983121764,
				"element": "C" 
			},
			{
				"x": 1.3837275945,
				"y": 2.2014095205,
				"z": -0.4282265095,
				"element": "C" 
			},
			{
				"x": 0.0276423865,
				"y": 2.2121748368,
				"z": -0.5147603181,
				"element": "C" 
			},
			{
				"x": -0.4430847876,
				"y": 1.0210973787,
				"z": 0.1523047901,
				"element": "C" 
			},
			{
				"x": -1.8099023241,
				"y": 0.5153329645,
				"z": 0.3663369784,
				"element": "C" 
			},
			{
				"x": -2.82721461,
				"y": 1.2711586049,
				"z": -0.1344490253,
				"element": "O" 
			},
			{
				"x": -2.063293664,
				"y": -0.5153454481,
				"z": 0.9529794191,
				"element": "O" 
			},
			{
				"x": 0.679428863,
				"y": 0.3653303667,
				"z": 0.6013783693,
				"element": "C" 
			},
			{
				"x": 0.8910146035,
				"y": -0.9011337533,
				"z": 1.3527914033,
				"element": "C" 
			},
			{
				"x": 1.7853035104,
				"y": 1.0747900572,
				"z": 0.2528813124,
				"element": "O" 
			},
			{
				"x": 2.0175772327,
				"y": 3.9679013041,
				"z": -1.4214320264,
				"element": "H" 
			},
			{
				"x": 3.1442618238,
				"y": 2.6083716589,
				"z": -1.5857168124,
				"element": "H" 
			},
			{
				"x": 3.053853522,
				"y": 3.4979049301,
				"z": -0.0613124617,
				"element": "H" 
			},
			{
				"x": -0.5543394386,
				"y": 2.9849640696,
				"z": -1.0000813245,
				"element": "H" 
			},
			{
				"x": -2.4785073899,
				"y": 2.0586374818,
				"z": -0.5732134609,
				"element": "H" 
			},
			{
				"x": 1.9591994183,
				"y": -1.0641427903,
				"z": 1.5108857627,
				"element": "H" 
			},
			{
				"x": 0.3791350908,
				"y": -0.8698095794,
				"z": 2.319019323,
				"element": "H" 
			},
			{
				"x": 0.4681464082,
				"y": -1.7508323305,
				"z": 0.8089267568,
				"element": "H" 
			}
		],
		 "valence_orbital": [ 
			{
				"type": "occ",
				"energy": -0.36419,
				"method": "rhf"
			},
			{
				"type": "occ",
				"energy": -0.30986,
				"method": "rhf"
			},
			{
				"type": "occ",
				"energy": -0.28851,
				"method": "rhf"
			},
			{
				"type": "occ",
				"energy": -0.26583,
				"method": "rhf"
			},
			{
				"type": "occ",
				"energy": -0.228,
				"method": "rhf"
			},
			{
				"type": "unocc",
				"energy": -0.02375,
				"method": "rhf"
			},
			{
				"type": "unocc",
				"energy": 0.01687,
				"method": "rhf"
			},
			{
				"type": "unocc",
				"energy": 0.05917,
				"method": "rhf"
			},
			{
				"type": "unocc",
				"energy": 0.0967,
				"method": "rhf"
			},
			{
				"type": "unocc",
				"energy": 0.11268,
				"method": "rhf"
			}
		],
		"cosmo_sigma_profile": { 
			"-0.025": 0.0,
			"-0.024": 0.0,
			"-0.023": 0.0,
			"-0.022": 0.0,
			"-0.021": 0.0,
			"-0.02": 0.0,
			"-0.019": 0.0169653025757,
			"-0.018": 0.66518840457,
			"-0.017": 1.18120544285,
			"-0.016": 0.720088599151,
			"-0.015": 1.27202537601,
			"-0.014": 1.24590054382,
			"-0.013": 0.68531386911,
			"-0.012": 0.53050305001,
			"-0.011": 1.58454760748,
			"-0.01": 1.71481200514,
			"-0.009": 1.02536139869,
			"-0.008": 1.73924116659,
			"-0.007": 1.57426088121,
			"-0.006": 4.82593830777,
			"-0.005": 12.5931465587,
			"-0.004": 11.7196520289,
			"-0.003": 14.7965316673,
			"-0.002": 17.4458895037,
			"-0.001": 20.5813525698,
			"0.0": 12.1551608762,
			"0.001": 11.4175556222,
			"0.002": 8.86453314943,
			"0.003": 7.88092716997,
			"0.004": 5.91517763147,
			"0.005": 5.074340481,
			"0.006": 3.93941603364,
			"0.007": 3.22313520951,
			"0.008": 3.10288378072,
			"0.009": 3.02152283753,
			"0.01": 3.64554194595,
			"0.011": 4.9310678532,
			"0.012": 4.63418191552,
			"0.013": 2.95975849762,
			"0.014": 1.05755264561,
			"0.015": 0.0,
			"0.016": 0.0,
			"0.017": 0.0,
			"0.018": 0.0,
			"0.019": 0.0,
			"0.02": 0.0,
			"0.021": 0.0,
			"0.022": 0.0,
			"0.023": 0.0,
			"0.024": 0.0,
			"0.025": 0.0
		}
	}
}
