{
	 "smiles": "CN1C=CN=C1C(N)C1=CC=C(Cl)C=C1", 
	 "Tm": 320.15, 
	 "num_atms": 27, 
	 "gaussian": { 
		 "optdone": 1, 
		 "sigma_profile": "yes", 
		 "theory": "DFT", 
		 "functional": "B3LYP", 
		 "basiset": "6-31G**", 
		 "properties": { 
			 "R2extent": 4613.3855, 
			 "electric_dipole_moment_norm": 2.98146480442, 
			 "electric_quadrupole_moment_norm": 12.8954076678, 
			 "total_energy": -1050.8434626, 
			 "HOMO_LUMO_gap": 0.20252, 
			 "cosmo_polarized_energy": -12.21, 
			 "cosmo_cavitation_energy": 32.05, 
			 "cosmo_dispersion_energy": -22.7, 
			 "cosmo_repulsion_energy": 1.78, 
			 "cosmo_total_nonelectrostatic_energy": 11.13, 
			 "SMD_solvation_energy": 3.54 
		},
		"coords": [
			{
				"x": 0.3190176136,
				"y": -0.8199331132,
				"z": -1.8090981961,
				"element": "C" 
			},
			{
				"x": 1.0861096877,
				"y": -1.4776242023,
				"z": -0.7573862621,
				"element": "N" 
			},
			{
				"x": 1.5149124285,
				"y": -2.7896002886,
				"z": -0.7808752963,
				"element": "C" 
			},
			{
				"x": 2.135091088,
				"y": -3.0067789662,
				"z": 0.4235509914,
				"element": "C" 
			},
			{
				"x": 2.1014152221,
				"y": -1.866983837,
				"z": 1.1900081726,
				"element": "N" 
			},
			{
				"x": 1.4635043503,
				"y": -0.9660633867,
				"z": 0.4601341614,
				"element": "C" 
			},
			{
				"x": 1.1707438053,
				"y": 0.4284138,
				"z": 0.9586973753,
				"element": "C" 
			},
			{
				"x": 1.6805881167,
				"y": 1.4360520291,
				"z": 0.0130835665,
				"element": "N" 
			},
			{
				"x": -0.3191532728,
				"y": 0.6377038242,
				"z": 1.2437085003,
				"element": "C" 
			},
			{
				"x": -1.1064256649,
				"y": 1.5382149643,
				"z": 0.5203474427,
				"element": "C" 
			},
			{
				"x": -2.461090778,
				"y": 1.7099075959,
				"z": 0.819113563,
				"element": "C" 
			},
			{
				"x": -3.0287694876,
				"y": 0.9679258489,
				"z": 1.8507151573,
				"element": "C" 
			},
			{
				"x": -4.7333057927,
				"y": 1.1774679218,
				"z": 2.235570469,
				"element": "Cl" 
			},
			{
				"x": -2.2653333114,
				"y": 0.0596841387,
				"z": 2.586682298,
				"element": "C" 
			},
			{
				"x": -0.9168302954,
				"y": -0.096722569,
				"z": 2.2782734066,
				"element": "C" 
			},
			{
				"x": 0.5749527723,
				"y": -1.2719586387,
				"z": -2.7699708593,
				"element": "H" 
			},
			{
				"x": 0.5756192653,
				"y": 0.2393308718,
				"z": -1.8251899254,
				"element": "H" 
			},
			{
				"x": -0.7567888181,
				"y": -0.9300785083,
				"z": -1.6386301112,
				"element": "H" 
			},
			{
				"x": 1.3494745174,
				"y": -3.4208272408,
				"z": -1.6412839898,
				"element": "H" 
			},
			{
				"x": 2.611479741,
				"y": -3.9118642141,
				"z": 0.7744337706,
				"element": "H" 
			},
			{
				"x": 1.6868202923,
				"y": 0.4584297649,
				"z": 1.9300438982,
				"element": "H" 
			},
			{
				"x": 1.6056591936,
				"y": 2.3612088816,
				"z": 0.4314934751,
				"element": "H" 
			},
			{
				"x": 2.6713023779,
				"y": 1.2662409962,
				"z": -0.1422670328,
				"element": "H" 
			},
			{
				"x": -0.6610205783,
				"y": 2.109064477,
				"z": -0.2873314567,
				"element": "H" 
			},
			{
				"x": -3.066972547,
				"y": 2.4118201815,
				"z": 0.2564057423,
				"element": "H" 
			},
			{
				"x": -2.7216197578,
				"y": -0.5113950742,
				"z": 3.3877567201,
				"element": "H" 
			},
			{
				"x": -0.316380168,
				"y": -0.8062352568,
				"z": 2.8416144192,
				"element": "H" 
			}
		],
		 "valence_orbital": [ 
			{
				"type": "occ",
				"energy": -0.26401,
				"method": "rhf"
			},
			{
				"type": "occ",
				"energy": -0.26171,
				"method": "rhf"
			},
			{
				"type": "occ",
				"energy": -0.25766,
				"method": "rhf"
			},
			{
				"type": "occ",
				"energy": -0.24072,
				"method": "rhf"
			},
			{
				"type": "occ",
				"energy": -0.21756,
				"method": "rhf"
			},
			{
				"type": "unocc",
				"energy": -0.01504,
				"method": "rhf"
			},
			{
				"type": "unocc",
				"energy": -0.01212,
				"method": "rhf"
			},
			{
				"type": "unocc",
				"energy": 0.02599,
				"method": "rhf"
			},
			{
				"type": "unocc",
				"energy": 0.03252,
				"method": "rhf"
			},
			{
				"type": "unocc",
				"energy": 0.06919,
				"method": "rhf"
			}
		],
		"cosmo_sigma_profile": { 
			"-0.025": 0.0,
			"-0.024": 0.0,
			"-0.023": 0.0,
			"-0.022": 0.0,
			"-0.021": 0.0,
			"-0.02": 0.0,
			"-0.019": 0.0,
			"-0.018": 0.0,
			"-0.017": 0.0,
			"-0.016": 0.0,
			"-0.015": 0.0,
			"-0.014": 0.0,
			"-0.013": 0.0,
			"-0.012": 0.0,
			"-0.011": 0.848832349469,
			"-0.01": 2.72010916843,
			"-0.009": 2.39852360991,
			"-0.008": 5.46728546612,
			"-0.007": 8.94743163,
			"-0.006": 13.021340907,
			"-0.005": 16.0241161013,
			"-0.004": 20.4345291022,
			"-0.003": 18.0158684147,
			"-0.002": 18.6575154837,
			"-0.001": 16.4384961742,
			"0.0": 15.3633787027,
			"0.001": 16.258779846,
			"0.002": 20.607158131,
			"0.003": 22.1960036986,
			"0.004": 22.1382339184,
			"0.005": 14.0890528894,
			"0.006": 6.06807522668,
			"0.007": 3.29850164059,
			"0.008": 2.28100246159,
			"0.009": 1.58944825349,
			"0.01": 1.90720803403,
			"0.011": 1.71212117062,
			"0.012": 0.983352658487,
			"0.013": 1.09129780171,
			"0.014": 1.20003805427,
			"0.015": 0.786317032628,
			"0.016": 0.566955280772,
			"0.017": 1.10001592835,
			"0.018": 0.74716694033,
			"0.019": 0.0802271933607,
			"0.02": 0.0,
			"0.021": 0.0,
			"0.022": 0.0,
			"0.023": 0.0,
			"0.024": 0.0,
			"0.025": 0.0
		}
	}
}
