{
	 "smiles": "NNC(=O)CSC1=NC2=C(O1)C=CC=C2", 
	 "Tm": 443.15, 
	 "num_atms": 24, 
	 "gaussian": { 
		 "optdone": 1, 
		 "sigma_profile": "yes", 
		 "theory": "DFT", 
		 "functional": "B3LYP", 
		 "basiset": "6-31G**", 
		 "properties": { 
			 "R2extent": 4476.0767, 
			 "electric_dipole_moment_norm": 3.29361435205, 
			 "electric_quadrupole_moment_norm": 11.5158221304, 
			 "total_energy": -1061.24872579, 
			 "HOMO_LUMO_gap": 0.19601, 
			 "cosmo_polarized_energy": -12.57, 
			 "cosmo_cavitation_energy": 30.38, 
			 "cosmo_dispersion_energy": -22.67, 
			 "cosmo_repulsion_energy": 1.74, 
			 "cosmo_total_nonelectrostatic_energy": 9.45, 
			 "SMD_solvation_energy": 5.35 
		},
		"coords": [
			{
				"x": -2.5972785752,
				"y": 0.1135228913,
				"z": 3.0148932078,
				"element": "N" 
			},
			{
				"x": -2.142604667,
				"y": -0.8055808876,
				"z": 2.0443737883,
				"element": "N" 
			},
			{
				"x": -3.0184245517,
				"y": -1.6335705773,
				"z": 1.4121768331,
				"element": "C" 
			},
			{
				"x": -4.1965421821,
				"y": -1.7467639929,
				"z": 1.7284873385,
				"element": "O" 
			},
			{
				"x": -2.4067002354,
				"y": -2.4393256094,
				"z": 0.2626498233,
				"element": "C" 
			},
			{
				"x": -2.4460369637,
				"y": -1.5734856902,
				"z": -1.3621212256,
				"element": "S" 
			},
			{
				"x": -0.9744697236,
				"y": -0.6327876646,
				"z": -1.2365886217,
				"element": "C" 
			},
			{
				"x": -0.1866360137,
				"y": -0.4612053345,
				"z": -0.2176533955,
				"element": "N" 
			},
			{
				"x": 0.8256997829,
				"y": 0.3746248467,
				"z": -0.7063080776,
				"element": "C" 
			},
			{
				"x": 0.5555144497,
				"y": 0.6652528347,
				"z": -2.0485655167,
				"element": "C" 
			},
			{
				"x": -0.6116749594,
				"y": 0.0083879922,
				"z": -2.3883016083,
				"element": "O" 
			},
			{
				"x": 1.3515359564,
				"y": 1.4722424298,
				"z": -2.8438756475,
				"element": "C" 
			},
			{
				"x": 2.4838402097,
				"y": 2.0040747584,
				"z": -2.2185319803,
				"element": "C" 
			},
			{
				"x": 2.7788166907,
				"y": 1.7292159936,
				"z": -0.871686723,
				"element": "C" 
			},
			{
				"x": 1.9582049,
				"y": 0.9122237076,
				"z": -0.0921443073,
				"element": "C" 
			},
			{
				"x": -2.6986487571,
				"y": -0.395069217,
				"z": 3.8931278745,
				"element": "H" 
			},
			{
				"x": -3.5474172685,
				"y": 0.3755407973,
				"z": 2.7480258093,
				"element": "H" 
			},
			{
				"x": -1.2631051515,
				"y": -0.574392933,
				"z": 1.5867110816,
				"element": "H" 
			},
			{
				"x": -3.0280689569,
				"y": -3.3234128361,
				"z": 0.1145203957,
				"element": "H" 
			},
			{
				"x": -1.3747258386,
				"y": -2.7376229267,
				"z": 0.4589646796,
				"element": "H" 
			},
			{
				"x": 1.1110143921,
				"y": 1.6760576034,
				"z": -3.8809954225,
				"element": "H" 
			},
			{
				"x": 3.1495920806,
				"y": 2.6447656282,
				"z": -2.7881972625,
				"element": "H" 
			},
			{
				"x": 3.6683901954,
				"y": 2.1655849845,
				"z": -0.4280002238,
				"element": "H" 
			},
			{
				"x": 2.1836251868,
				"y": 0.7008232014,
				"z": 0.9475391808,
				"element": "H" 
			}
		],
		 "valence_orbital": [ 
			{
				"type": "occ",
				"energy": -0.2851,
				"method": "rhf"
			},
			{
				"type": "occ",
				"energy": -0.25882,
				"method": "rhf"
			},
			{
				"type": "occ",
				"energy": -0.25599,
				"method": "rhf"
			},
			{
				"type": "occ",
				"energy": -0.24782,
				"method": "rhf"
			},
			{
				"type": "occ",
				"energy": -0.23211,
				"method": "rhf"
			},
			{
				"type": "unocc",
				"energy": -0.0361,
				"method": "rhf"
			},
			{
				"type": "unocc",
				"energy": -0.01375,
				"method": "rhf"
			},
			{
				"type": "unocc",
				"energy": -0.00453,
				"method": "rhf"
			},
			{
				"type": "unocc",
				"energy": 0.02276,
				"method": "rhf"
			},
			{
				"type": "unocc",
				"energy": 0.03168,
				"method": "rhf"
			}
		],
		"cosmo_sigma_profile": { 
			"-0.025": 0.0,
			"-0.024": 0.0,
			"-0.023": 0.0,
			"-0.022": 0.0,
			"-0.021": 0.0,
			"-0.02": 0.0,
			"-0.019": 0.0,
			"-0.018": 0.0,
			"-0.017": 0.0,
			"-0.016": 0.0,
			"-0.015": 0.0,
			"-0.014": 0.0,
			"-0.013": 0.0,
			"-0.012": 0.491207852558,
			"-0.011": 1.53695830675,
			"-0.01": 2.96011079776,
			"-0.009": 3.37553539817,
			"-0.008": 5.98545989571,
			"-0.007": 9.70726188116,
			"-0.006": 12.7232396293,
			"-0.005": 15.8737746086,
			"-0.004": 16.3562893577,
			"-0.003": 14.0521285143,
			"-0.002": 16.027781637,
			"-0.001": 17.7374397423,
			"0.0": 19.3414230652,
			"0.001": 20.5074661082,
			"0.002": 18.673753305,
			"0.003": 17.9447661557,
			"0.004": 15.5116496468,
			"0.005": 9.74728861327,
			"0.006": 3.67644698598,
			"0.007": 1.64466817975,
			"0.008": 2.18894350393,
			"0.009": 1.97066752325,
			"0.01": 2.0414889837,
			"0.011": 2.05058753168,
			"0.012": 2.87178465573,
			"0.013": 5.99465723525,
			"0.014": 2.51939208575,
			"0.015": 0.928449633156,
			"0.016": 0.419432546931,
			"0.017": 0.365249273544,
			"0.018": 0.0,
			"0.019": 0.0,
			"0.02": 0.0,
			"0.021": 0.0,
			"0.022": 0.0,
			"0.023": 0.0,
			"0.024": 0.0,
			"0.025": 0.0
		}
	}
}
