{
	 "smiles": "CC(C)CNCC(C)C", 
	 "Tm": 197.95, 
	 "num_atms": 28, 
	 "gaussian": { 
		 "optdone": 1, 
		 "sigma_profile": "yes", 
		 "theory": "DFT", 
		 "functional": "B3LYP", 
		 "basiset": "6-31G**", 
		 "properties": { 
			 "R2extent": 2389.059, 
			 "electric_dipole_moment_norm": 0.766116237917, 
			 "electric_quadrupole_moment_norm": 1.30411713048, 
			 "total_energy": -371.071144778, 
			 "HOMO_LUMO_gap": 0.29086, 
			 "cosmo_polarized_energy": -3.34, 
			 "cosmo_cavitation_energy": 28.28, 
			 "cosmo_dispersion_energy": -19.87, 
			 "cosmo_repulsion_energy": 1.67, 
			 "cosmo_total_nonelectrostatic_energy": 10.08, 
			 "SMD_solvation_energy": 3.45 
		},
		"coords": [
			{
				"x": -0.8612456875,
				"y": 1.1160291316,
				"z": -2.9262157632,
				"element": "C" 
			},
			{
				"x": -0.524201357,
				"y": 2.2628277416,
				"z": -1.9610631101,
				"element": "C" 
			},
			{
				"x": -1.0112452799,
				"y": 3.6065275747,
				"z": -2.5219914243,
				"element": "C" 
			},
			{
				"x": -1.1057101336,
				"y": 2.0325256097,
				"z": -0.556476578,
				"element": "C" 
			},
			{
				"x": -0.5631988779,
				"y": 0.8406337471,
				"z": 0.0906273027,
				"element": "N" 
			},
			{
				"x": -1.0258392367,
				"y": 0.660374483,
				"z": 1.4657941727,
				"element": "C" 
			},
			{
				"x": -0.3499298998,
				"y": -0.5310428634,
				"z": 2.1715680128,
				"element": "C" 
			},
			{
				"x": -0.686308465,
				"y": -1.870743469,
				"z": 1.4965600568,
				"element": "C" 
			},
			{
				"x": 1.1677201227,
				"y": -0.3327374202,
				"z": 2.2928534802,
				"element": "C" 
			},
			{
				"x": -0.4350067112,
				"y": 0.1628569768,
				"z": -2.5958766549,
				"element": "H" 
			},
			{
				"x": -0.4618917927,
				"y": 1.3165571613,
				"z": -3.926221997,
				"element": "H" 
			},
			{
				"x": -1.9471497455,
				"y": 0.9892343367,
				"z": -3.0233191116,
				"element": "H" 
			},
			{
				"x": 0.567763563,
				"y": 2.304857777,
				"z": -1.8504626639,
				"element": "H" 
			},
			{
				"x": -0.5721002111,
				"y": 3.8061926118,
				"z": -3.5051241832,
				"element": "H" 
			},
			{
				"x": -2.1018677962,
				"y": 3.6136195032,
				"z": -2.6398537464,
				"element": "H" 
			},
			{
				"x": -0.7427109534,
				"y": 4.4379004869,
				"z": -1.8608624521,
				"element": "H" 
			},
			{
				"x": -0.8507406829,
				"y": 2.89418651,
				"z": 0.0746750413,
				"element": "H" 
			},
			{
				"x": -2.2134955163,
				"y": 2.0189530985,
				"z": -0.6236466219,
				"element": "H" 
			},
			{
				"x": -0.8279941126,
				"y": 0.0230381938,
				"z": -0.4516818358,
				"element": "H" 
			},
			{
				"x": -2.1257029957,
				"y": 0.5406283862,
				"z": 1.532483254,
				"element": "H" 
			},
			{
				"x": -0.7844460816,
				"y": 1.5787264476,
				"z": 2.0175685772,
				"element": "H" 
			},
			{
				"x": -0.7748922476,
				"y": -0.5590749001,
				"z": 3.1854555852,
				"element": "H" 
			},
			{
				"x": -0.3001137843,
				"y": -2.7110597244,
				"z": 2.0830611437,
				"element": "H" 
			},
			{
				"x": -1.7688285065,
				"y": -2.0083770328,
				"z": 1.3906649182,
				"element": "H" 
			},
			{
				"x": -0.2347351634,
				"y": -1.9430440592,
				"z": 0.4999495608,
				"element": "H" 
			},
			{
				"x": 1.4029750462,
				"y": 0.5745400282,
				"z": 2.8604348561,
				"element": "H" 
			},
			{
				"x": 1.6373143472,
				"y": -1.1797097716,
				"z": 2.8050940422,
				"element": "H" 
			},
			{
				"x": 1.620982159,
				"y": -0.2303205652,
				"z": 1.3028061386,
				"element": "H" 
			}
		],
		 "valence_orbital": [ 
			{
				"type": "occ",
				"energy": -0.32501,
				"method": "rhf"
			},
			{
				"type": "occ",
				"energy": -0.31971,
				"method": "rhf"
			},
			{
				"type": "occ",
				"energy": -0.3176,
				"method": "rhf"
			},
			{
				"type": "occ",
				"energy": -0.30372,
				"method": "rhf"
			},
			{
				"type": "occ",
				"energy": -0.21435,
				"method": "rhf"
			},
			{
				"type": "unocc",
				"energy": 0.07651,
				"method": "rhf"
			},
			{
				"type": "unocc",
				"energy": 0.09349,
				"method": "rhf"
			},
			{
				"type": "unocc",
				"energy": 0.10589,
				"method": "rhf"
			},
			{
				"type": "unocc",
				"energy": 0.1312,
				"method": "rhf"
			},
			{
				"type": "unocc",
				"energy": 0.13635,
				"method": "rhf"
			}
		],
		"cosmo_sigma_profile": { 
			"-0.025": 0.0,
			"-0.024": 0.0,
			"-0.023": 0.0,
			"-0.022": 0.0,
			"-0.021": 0.0,
			"-0.02": 0.0,
			"-0.019": 0.0,
			"-0.018": 0.0,
			"-0.017": 0.0,
			"-0.016": 0.0,
			"-0.015": 0.0,
			"-0.014": 0.0,
			"-0.013": 0.0,
			"-0.012": 0.0,
			"-0.011": 0.0,
			"-0.01": 0.0,
			"-0.009": 0.0,
			"-0.008": 0.224001200406,
			"-0.007": 1.37479297394,
			"-0.006": 1.48750839365,
			"-0.005": 2.60881830509,
			"-0.004": 2.08045180468,
			"-0.003": 9.94939427691,
			"-0.002": 34.1842855077,
			"-0.001": 45.2548200901,
			"0.0": 44.0043447369,
			"0.001": 38.7609416514,
			"0.002": 22.1596387816,
			"0.003": 3.32914159706,
			"0.004": 1.58726390569,
			"0.005": 1.44875185166,
			"0.006": 0.817221496846,
			"0.007": 0.646554803367,
			"0.008": 0.899843553267,
			"0.009": 1.25188471715,
			"0.01": 0.703351570146,
			"0.011": 0.915470710661,
			"0.012": 0.531066998545,
			"0.013": 0.689399978779,
			"0.014": 0.945675863875,
			"0.015": 0.379059581342,
			"0.016": 0.0208760111829,
			"0.017": 0.0,
			"0.018": 0.0,
			"0.019": 0.0,
			"0.02": 0.0,
			"0.021": 0.0,
			"0.022": 0.0,
			"0.023": 0.0,
			"0.024": 0.0,
			"0.025": 0.0
		}
	}
}
