{
	 "smiles": "OC1CC2CC1C=C2", 
	 "Tm": 378.15, 
	 "num_atms": 18, 
	 "gaussian": { 
		 "optdone": 1, 
		 "sigma_profile": "yes", 
		 "theory": "DFT", 
		 "functional": "B3LYP", 
		 "basiset": "6-31G**", 
		 "properties": { 
			 "R2extent": 1148.2761, 
			 "electric_dipole_moment_norm": 1.53406851216, 
			 "electric_quadrupole_moment_norm": 5.42284840467, 
			 "total_energy": -347.948257992, 
			 "HOMO_LUMO_gap": 0.25229, 
			 "cosmo_polarized_energy": -5.94, 
			 "cosmo_cavitation_energy": 19.22, 
			 "cosmo_dispersion_energy": -14.91, 
			 "cosmo_repulsion_energy": 1.25, 
			 "cosmo_total_nonelectrostatic_energy": 5.56, 
			 "SMD_solvation_energy": 2.72 
		},
		"coords": [
			{
				"x": -0.0398745096,
				"y": 0.2907360953,
				"z": -3.5240029849,
				"element": "O" 
			},
			{
				"x": 0.0881518281,
				"y": 0.6021606059,
				"z": -2.1380707422,
				"element": "C" 
			},
			{
				"x": 1.2462993279,
				"y": -0.1835994342,
				"z": -1.437571791,
				"element": "C" 
			},
			{
				"x": 0.484646747,
				"y": -1.093415166,
				"z": -0.4168473613,
				"element": "C" 
			},
			{
				"x": -0.7828935166,
				"y": -1.4317885451,
				"z": -1.2386226355,
				"element": "C" 
			},
			{
				"x": -1.1810932484,
				"y": 0.0539322039,
				"z": -1.4144987572,
				"element": "C" 
			},
			{
				"x": -1.0962846603,
				"y": 0.5354837452,
				"z": 0.0277390285,
				"element": "C" 
			},
			{
				"x": -0.1110199627,
				"y": -0.149105658,
				"z": 0.6234919804,
				"element": "C" 
			},
			{
				"x": 0.7739408663,
				"y": 0.564683071,
				"z": -3.9658126483,
				"element": "H" 
			},
			{
				"x": 0.1853186126,
				"y": 1.6880777735,
				"z": -2.0013197262,
				"element": "H" 
			},
			{
				"x": 1.9761242166,
				"y": 0.4681163818,
				"z": -0.9491384148,
				"element": "H" 
			},
			{
				"x": 1.7707349285,
				"y": -0.7895725043,
				"z": -2.1847613999,
				"element": "H" 
			},
			{
				"x": 1.0720050452,
				"y": -1.9297282822,
				"z": -0.0312284742,
				"element": "H" 
			},
			{
				"x": -1.5207852908,
				"y": -2.0029324459,
				"z": -0.6687051628,
				"element": "H" 
			},
			{
				"x": -0.5706841832,
				"y": -1.9302825435,
				"z": -2.1891370826,
				"element": "H" 
			},
			{
				"x": -2.101945858,
				"y": 0.2752103421,
				"z": -1.9566244929,
				"element": "H" 
			},
			{
				"x": -1.670755204,
				"y": 1.3573587973,
				"z": 0.4416375426,
				"element": "H" 
			},
			{
				"x": 0.2826148613,
				"y": -0.0009344368,
				"z": 1.6237731223,
				"element": "H" 
			}
		],
		 "valence_orbital": [ 
			{
				"type": "occ",
				"energy": -0.33239,
				"method": "rhf"
			},
			{
				"type": "occ",
				"energy": -0.31031,
				"method": "rhf"
			},
			{
				"type": "occ",
				"energy": -0.30677,
				"method": "rhf"
			},
			{
				"type": "occ",
				"energy": -0.25987,
				"method": "rhf"
			},
			{
				"type": "occ",
				"energy": -0.23381,
				"method": "rhf"
			},
			{
				"type": "unocc",
				"energy": 0.01848,
				"method": "rhf"
			},
			{
				"type": "unocc",
				"energy": 0.08716,
				"method": "rhf"
			},
			{
				"type": "unocc",
				"energy": 0.10938,
				"method": "rhf"
			},
			{
				"type": "unocc",
				"energy": 0.12464,
				"method": "rhf"
			},
			{
				"type": "unocc",
				"energy": 0.13989,
				"method": "rhf"
			}
		],
		"cosmo_sigma_profile": { 
			"-0.025": 0.0,
			"-0.024": 0.0,
			"-0.023": 0.0,
			"-0.022": 0.0,
			"-0.021": 0.0,
			"-0.02": 0.0,
			"-0.019": 0.0,
			"-0.018": 0.0,
			"-0.017": 0.0,
			"-0.016": 0.0282244469966,
			"-0.015": 0.856467039683,
			"-0.014": 0.920719599759,
			"-0.013": 1.04249912934,
			"-0.012": 0.746609226058,
			"-0.011": 0.671233414262,
			"-0.01": 0.899795834102,
			"-0.009": 0.860876128568,
			"-0.008": 0.761791465311,
			"-0.007": 0.915676393101,
			"-0.006": 1.72857735107,
			"-0.005": 4.33348259849,
			"-0.004": 5.48390588955,
			"-0.003": 14.2191393226,
			"-0.002": 18.3430884876,
			"-0.001": 20.855563468,
			"0.0": 20.8533081067,
			"0.001": 16.961033231,
			"0.002": 9.75397612658,
			"0.003": 5.59384380561,
			"0.004": 4.45718374225,
			"0.005": 3.47617369071,
			"0.006": 3.13232126374,
			"0.007": 2.26241636449,
			"0.008": 1.35618647288,
			"0.009": 1.63425256031,
			"0.01": 1.25224506483,
			"0.011": 1.14434433271,
			"0.012": 0.984696028843,
			"0.013": 1.39583412041,
			"0.014": 1.95305786112,
			"0.015": 0.612034094309,
			"0.016": 0.0,
			"0.017": 0.0,
			"0.018": 0.0,
			"0.019": 0.0,
			"0.02": 0.0,
			"0.021": 0.0,
			"0.022": 0.0,
			"0.023": 0.0,
			"0.024": 0.0,
			"0.025": 0.0
		}
	}
}
