{
	 "smiles": "COC1=CC(N=C=O)=C(Cl)C=C1", 
	 "Tm": 312.15, 
	 "num_atms": 18, 
	 "gaussian": { 
		 "optdone": 1, 
		 "sigma_profile": "yes", 
		 "theory": "DFT", 
		 "functional": "B3LYP", 
		 "basiset": "6-31G**", 
		 "properties": { 
			 "R2extent": 2894.462, 
			 "electric_dipole_moment_norm": 3.63127280853, 
			 "electric_quadrupole_moment_norm": 13.0678396925, 
			 "total_energy": -973.844614326, 
			 "HOMO_LUMO_gap": 0.19575, 
			 "cosmo_polarized_energy": -6.28, 
			 "cosmo_cavitation_energy": 25.3, 
			 "cosmo_dispersion_energy": -18.56, 
			 "cosmo_repulsion_energy": 1.48, 
			 "cosmo_total_nonelectrostatic_energy": 8.22, 
			 "SMD_solvation_energy": 6.97 
		},
		"coords": [
			{
				"x": 2.9483924842,
				"y": -1.1605099615,
				"z": 2.4439856772,
				"element": "C" 
			},
			{
				"x": 2.3371456418,
				"y": -1.7616099315,
				"z": 1.3110012967,
				"element": "O" 
			},
			{
				"x": 1.5159595805,
				"y": -1.0001806668,
				"z": 0.5383225823,
				"element": "C" 
			},
			{
				"x": 1.2294103601,
				"y": 0.3442282766,
				"z": 0.7799839143,
				"element": "C" 
			},
			{
				"x": 0.367864944,
				"y": 1.0536148142,
				"z": -0.0735108869,
				"element": "C" 
			},
			{
				"x": 0.1304324608,
				"y": 2.3871670186,
				"z": 0.2313108247,
				"element": "N" 
			},
			{
				"x": -0.4948183161,
				"y": 3.3419941974,
				"z": -0.1808624849,
				"element": "C" 
			},
			{
				"x": -1.0301576455,
				"y": 4.3563803954,
				"z": -0.4397834673,
				"element": "O" 
			},
			{
				"x": -0.2026224978,
				"y": 0.3934007717,
				"z": -1.1744407522,
				"element": "C" 
			},
			{
				"x": -1.2814200952,
				"y": 1.2473321234,
				"z": -2.2594250392,
				"element": "Cl" 
			},
			{
				"x": 0.088500678,
				"y": -0.9517709678,
				"z": -1.4102096503,
				"element": "C" 
			},
			{
				"x": 0.9396704654,
				"y": -1.6489861971,
				"z": -0.5651953747,
				"element": "C" 
			},
			{
				"x": 2.2008881127,
				"y": -0.8037840971,
				"z": 3.1637084672,
				"element": "H" 
			},
			{
				"x": 3.5987839377,
				"y": -0.3251138071,
				"z": 2.155602381,
				"element": "H" 
			},
			{
				"x": 3.5512249849,
				"y": -1.9414666789,
				"z": 2.9090372978,
				"element": "H" 
			},
			{
				"x": 1.6528721407,
				"y": 0.8804889703,
				"z": 1.6187283613,
				"element": "H" 
			},
			{
				"x": -0.3600091313,
				"y": -1.4469152732,
				"z": -2.2643023068,
				"element": "H" 
			},
			{
				"x": 1.1716818952,
				"y": -2.6935689866,
				"z": -0.7399508403,
				"element": "H" 
			}
		],
		 "valence_orbital": [ 
			{
				"type": "occ",
				"energy": -0.32389,
				"method": "rhf"
			},
			{
				"type": "occ",
				"energy": -0.31353,
				"method": "rhf"
			},
			{
				"type": "occ",
				"energy": -0.30513,
				"method": "rhf"
			},
			{
				"type": "occ",
				"energy": -0.25316,
				"method": "rhf"
			},
			{
				"type": "occ",
				"energy": -0.22614,
				"method": "rhf"
			},
			{
				"type": "unocc",
				"energy": -0.03039,
				"method": "rhf"
			},
			{
				"type": "unocc",
				"energy": -0.0106,
				"method": "rhf"
			},
			{
				"type": "unocc",
				"energy": 0.00559,
				"method": "rhf"
			},
			{
				"type": "unocc",
				"energy": 0.03623,
				"method": "rhf"
			},
			{
				"type": "unocc",
				"energy": 0.07715,
				"method": "rhf"
			}
		],
		"cosmo_sigma_profile": { 
			"-0.025": 0.0,
			"-0.024": 0.0,
			"-0.023": 0.0,
			"-0.022": 0.0,
			"-0.021": 0.0,
			"-0.02": 0.0,
			"-0.019": 0.0,
			"-0.018": 0.0,
			"-0.017": 0.0,
			"-0.016": 0.0,
			"-0.015": 0.0,
			"-0.014": 0.0,
			"-0.013": 0.0,
			"-0.012": 0.0,
			"-0.011": 0.0,
			"-0.01": 0.0,
			"-0.009": 0.0,
			"-0.008": 1.3445461219,
			"-0.007": 5.96752749613,
			"-0.006": 11.2470089451,
			"-0.005": 13.1740770198,
			"-0.004": 14.1915068293,
			"-0.003": 17.6772201795,
			"-0.002": 14.0861124723,
			"-0.001": 13.1684690027,
			"0.0": 15.0191379128,
			"0.001": 18.8027856046,
			"0.002": 26.4002896798,
			"0.003": 19.415222783,
			"0.004": 13.0769497247,
			"0.005": 4.33789402676,
			"0.006": 4.52751436329,
			"0.007": 8.68613366358,
			"0.008": 2.59465649158,
			"0.009": 1.52992508261,
			"0.01": 0.855309557595,
			"0.011": 0.0,
			"0.012": 0.0,
			"0.013": 0.0,
			"0.014": 0.0,
			"0.015": 0.0,
			"0.016": 0.0,
			"0.017": 0.0,
			"0.018": 0.0,
			"0.019": 0.0,
			"0.02": 0.0,
			"0.021": 0.0,
			"0.022": 0.0,
			"0.023": 0.0,
			"0.024": 0.0,
			"0.025": 0.0
		}
	}
}
