{
	 "smiles": "CC1=NC2=NC(SCC3=CC=CC=C3)=NN2C(C)=C1", 
	 "Tm": 409.15, 
	 "num_atms": 33, 
	 "gaussian": { 
		 "optdone": 1, 
		 "sigma_profile": "yes", 
		 "theory": "DFT", 
		 "functional": "B3LYP", 
		 "basiset": "6-31G**", 
		 "properties": { 
			 "R2extent": 7141.8206, 
			 "electric_dipole_moment_norm": 4.03605369142, 
			 "electric_quadrupole_moment_norm": 20.9375324917, 
			 "total_energy": -1159.12539786, 
			 "HOMO_LUMO_gap": 0.16515, 
			 "cosmo_polarized_energy": -14.99, 
			 "cosmo_cavitation_energy": 38.72, 
			 "cosmo_dispersion_energy": -28.21, 
			 "cosmo_repulsion_energy": 2.13, 
			 "cosmo_total_nonelectrostatic_energy": 12.65, 
			 "SMD_solvation_energy": 2.89 
		},
		"coords": [
			{
				"x": 3.631837659,
				"y": 1.9937611896,
				"z": 3.0838630449,
				"element": "C" 
			},
			{
				"x": 2.3319337022,
				"y": 2.179438424,
				"z": 2.3455153648,
				"element": "C" 
			},
			{
				"x": 2.0333439795,
				"y": 1.2906646447,
				"z": 1.4049757126,
				"element": "N" 
			},
			{
				"x": 0.874776801,
				"y": 1.4664882429,
				"z": 0.7527392758,
				"element": "C" 
			},
			{
				"x": 0.3346237671,
				"y": 0.737326073,
				"z": -0.2257946113,
				"element": "N" 
			},
			{
				"x": -0.8288732834,
				"y": 1.3809503502,
				"z": -0.4836399617,
				"element": "C" 
			},
			{
				"x": -1.979834625,
				"y": 0.9075148761,
				"z": -1.7296654371,
				"element": "S" 
			},
			{
				"x": -1.2665040433,
				"y": -0.7187386741,
				"z": -2.2721270067,
				"element": "C" 
			},
			{
				"x": -1.7220574617,
				"y": -1.9114659804,
				"z": -1.4705520451,
				"element": "C" 
			},
			{
				"x": -0.9579609393,
				"y": -2.3824966234,
				"z": -0.393594976,
				"element": "C" 
			},
			{
				"x": -1.3793692845,
				"y": -3.4934437685,
				"z": 0.3384585642,
				"element": "C" 
			},
			{
				"x": -2.5667539286,
				"y": -4.1480306294,
				"z": 0.0055301046,
				"element": "C" 
			},
			{
				"x": -3.33310929,
				"y": -3.6859583837,
				"z": -1.0666744924,
				"element": "C" 
			},
			{
				"x": -2.9116294742,
				"y": -2.576277644,
				"z": -1.7986159582,
				"element": "C" 
			},
			{
				"x": -1.0897293317,
				"y": 2.4732848866,
				"z": 0.2503867775,
				"element": "N" 
			},
			{
				"x": 0.0133193554,
				"y": 2.5284526934,
				"z": 1.0427899486,
				"element": "N" 
			},
			{
				"x": 0.2898707048,
				"y": 3.4557223737,
				"z": 2.0017528769,
				"element": "C" 
			},
			{
				"x": -0.7039751014,
				"y": 4.5474608755,
				"z": 2.2273264421,
				"element": "C" 
			},
			{
				"x": 1.4817564814,
				"y": 3.2746229547,
				"z": 2.6689596482,
				"element": "C" 
			},
			{
				"x": 3.4587039995,
				"y": 1.8778346317,
				"z": 4.1598656967,
				"element": "H" 
			},
			{
				"x": 4.2845016365,
				"y": 2.8645610383,
				"z": 2.9532926317,
				"element": "H" 
			},
			{
				"x": 4.1444431311,
				"y": 1.1072713419,
				"z": 2.7090600321,
				"element": "H" 
			},
			{
				"x": -1.5893699445,
				"y": -0.797630482,
				"z": -3.3135540577,
				"element": "H" 
			},
			{
				"x": -0.1822762116,
				"y": -0.6039383251,
				"z": -2.2499947755,
				"element": "H" 
			},
			{
				"x": -0.0403561966,
				"y": -1.864618684,
				"z": -0.1322198812,
				"element": "H" 
			},
			{
				"x": -0.776491911,
				"y": -3.8497591865,
				"z": 1.1692498785,
				"element": "H" 
			},
			{
				"x": -2.8919108025,
				"y": -5.0141071982,
				"z": 0.5751354137,
				"element": "H" 
			},
			{
				"x": -4.2563118854,
				"y": -4.1918053868,
				"z": -1.3354543992,
				"element": "H" 
			},
			{
				"x": -3.5109289793,
				"y": -2.2219609842,
				"z": -2.634296567,
				"element": "H" 
			},
			{
				"x": -0.3615124501,
				"y": 5.2195727813,
				"z": 3.0157428092,
				"element": "H" 
			},
			{
				"x": -1.6762370644,
				"y": 4.1267021753,
				"z": 2.5036906591,
				"element": "H" 
			},
			{
				"x": -0.8611467576,
				"y": 5.1168144929,
				"z": 1.3054939529,
				"element": "H" 
			},
			{
				"x": 1.7654277483,
				"y": 3.9758879044,
				"z": 3.4452553352,
				"element": "H" 
			}
		],
		 "valence_orbital": [ 
			{
				"type": "occ",
				"energy": -0.27373,
				"method": "rhf"
			},
			{
				"type": "occ",
				"energy": -0.25002,
				"method": "rhf"
			},
			{
				"type": "occ",
				"energy": -0.24186,
				"method": "rhf"
			},
			{
				"type": "occ",
				"energy": -0.23753,
				"method": "rhf"
			},
			{
				"type": "occ",
				"energy": -0.21681,
				"method": "rhf"
			},
			{
				"type": "unocc",
				"energy": -0.05166,
				"method": "rhf"
			},
			{
				"type": "unocc",
				"energy": -0.01878,
				"method": "rhf"
			},
			{
				"type": "unocc",
				"energy": -0.00628,
				"method": "rhf"
			},
			{
				"type": "unocc",
				"energy": 0.00673,
				"method": "rhf"
			},
			{
				"type": "unocc",
				"energy": 0.04541,
				"method": "rhf"
			}
		],
		"cosmo_sigma_profile": { 
			"-0.025": 0.0,
			"-0.024": 0.0,
			"-0.023": 0.0,
			"-0.022": 0.0,
			"-0.021": 0.0,
			"-0.02": 0.0,
			"-0.019": 0.0,
			"-0.018": 0.0,
			"-0.017": 0.0,
			"-0.016": 0.0,
			"-0.015": 0.0,
			"-0.014": 0.0,
			"-0.013": 0.0,
			"-0.012": 0.0,
			"-0.011": 0.0,
			"-0.01": 0.0,
			"-0.009": 0.0311751542762,
			"-0.008": 2.79699045073,
			"-0.007": 7.30470877712,
			"-0.006": 16.8897464825,
			"-0.005": 25.9047494709,
			"-0.004": 29.9767381136,
			"-0.003": 31.4299777365,
			"-0.002": 29.538599446,
			"-0.001": 24.6494963107,
			"0.0": 17.4238630274,
			"0.001": 15.1192296525,
			"0.002": 14.5782514461,
			"0.003": 18.7748032774,
			"0.004": 18.7660691359,
			"0.005": 17.0112312314,
			"0.006": 15.6208534506,
			"0.007": 6.31931281949,
			"0.008": 4.41140544878,
			"0.009": 3.52124437405,
			"0.01": 2.54729423339,
			"0.011": 2.81746663357,
			"0.012": 3.13530759184,
			"0.013": 1.78102955919,
			"0.014": 0.804517431624,
			"0.015": 0.506766938287,
			"0.016": 0.0,
			"0.017": 0.0,
			"0.018": 0.0,
			"0.019": 0.0,
			"0.02": 0.0,
			"0.021": 0.0,
			"0.022": 0.0,
			"0.023": 0.0,
			"0.024": 0.0,
			"0.025": 0.0
		}
	}
}
