{
	 "smiles": "NNC1=C(Cl)C=C(F)C=C1F", 
	 "Tm": 361.15, 
	 "num_atms": 16, 
	 "gaussian": { 
		 "optdone": 1, 
		 "sigma_profile": "yes", 
		 "theory": "DFT", 
		 "functional": "B3LYP", 
		 "basiset": "6-31G**", 
		 "properties": { 
			 "R2extent": 2031.0823, 
			 "electric_dipole_moment_norm": 1.09215302041, 
			 "electric_quadrupole_moment_norm": 6.24537778441, 
			 "total_energy": -1000.96988457, 
			 "HOMO_LUMO_gap": 0.19469, 
			 "cosmo_polarized_energy": -7.35, 
			 "cosmo_cavitation_energy": 22.82, 
			 "cosmo_dispersion_energy": -16.82, 
			 "cosmo_repulsion_energy": 1.3, 
			 "cosmo_total_nonelectrostatic_energy": 7.31, 
			 "SMD_solvation_energy": 4.87 
		},
		"coords": [
			{
				"x": -3.0045703222,
				"y": 1.0314282854,
				"z": 0.5552041252,
				"element": "N" 
			},
			{
				"x": -2.1316068931,
				"y": -0.0084576274,
				"z": 0.9991499991,
				"element": "N" 
			},
			{
				"x": -0.8991632369,
				"y": -0.1986193512,
				"z": 0.3524249119,
				"element": "C" 
			},
			{
				"x": 0.116573413,
				"y": 0.7705737646,
				"z": 0.2571995383,
				"element": "C" 
			},
			{
				"x": -0.1060172275,
				"y": 2.3516127489,
				"z": 0.9879186786,
				"element": "Cl" 
			},
			{
				"x": 1.3335312113,
				"y": 0.5164512647,
				"z": -0.3773227927,
				"element": "C" 
			},
			{
				"x": 1.5619519553,
				"y": -0.7492147153,
				"z": -0.8989187369,
				"element": "C" 
			},
			{
				"x": 2.7390255932,
				"y": -1.0054531403,
				"z": -1.5005441053,
				"element": "F" 
			},
			{
				"x": 0.6142005544,
				"y": -1.7629884278,
				"z": -0.8122408522,
				"element": "C" 
			},
			{
				"x": -0.5877449913,
				"y": -1.4555437037,
				"z": -0.1982750131,
				"element": "C" 
			},
			{
				"x": -1.5358976526,
				"y": -2.4176428573,
				"z": -0.1083977008,
				"element": "F" 
			},
			{
				"x": -2.7419570027,
				"y": 1.8853012482,
				"z": 1.0376624266,
				"element": "H" 
			},
			{
				"x": -2.8803945304,
				"y": 1.1973439649,
				"z": -0.4446579592,
				"element": "H" 
			},
			{
				"x": -2.6549809946,
				"y": -0.874115487,
				"z": 1.0304871938,
				"element": "H" 
			},
			{
				"x": 2.0974306289,
				"y": 1.2809620406,
				"z": -0.4428154937,
				"element": "H" 
			},
			{
				"x": 0.7963194951,
				"y": -2.7494380073,
				"z": -1.2200742198,
				"element": "H" 
			}
		],
		 "valence_orbital": [ 
			{
				"type": "occ",
				"energy": -0.33055,
				"method": "rhf"
			},
			{
				"type": "occ",
				"energy": -0.3049,
				"method": "rhf"
			},
			{
				"type": "occ",
				"energy": -0.26811,
				"method": "rhf"
			},
			{
				"type": "occ",
				"energy": -0.26269,
				"method": "rhf"
			},
			{
				"type": "occ",
				"energy": -0.22288,
				"method": "rhf"
			},
			{
				"type": "unocc",
				"energy": -0.02819,
				"method": "rhf"
			},
			{
				"type": "unocc",
				"energy": -0.01215,
				"method": "rhf"
			},
			{
				"type": "unocc",
				"energy": 0.0107,
				"method": "rhf"
			},
			{
				"type": "unocc",
				"energy": 0.08976,
				"method": "rhf"
			},
			{
				"type": "unocc",
				"energy": 0.09386,
				"method": "rhf"
			}
		],
		"cosmo_sigma_profile": { 
			"-0.025": 0.0,
			"-0.024": 0.0,
			"-0.023": 0.0,
			"-0.022": 0.0,
			"-0.021": 0.0,
			"-0.02": 0.0,
			"-0.019": 0.0,
			"-0.018": 0.0,
			"-0.017": 0.0,
			"-0.016": 0.0,
			"-0.015": 0.0,
			"-0.014": 0.0,
			"-0.013": 0.0,
			"-0.012": 0.0556035807859,
			"-0.011": 1.57309161539,
			"-0.01": 2.2111399653,
			"-0.009": 4.00173237761,
			"-0.008": 6.86980546351,
			"-0.007": 6.57722629959,
			"-0.006": 6.86323059871,
			"-0.005": 6.38851628669,
			"-0.004": 7.51759377591,
			"-0.003": 8.42590902467,
			"-0.002": 9.3777700766,
			"-0.001": 12.9845703181,
			"0.0": 22.3112665719,
			"0.001": 20.2451391927,
			"0.002": 15.2160588775,
			"0.003": 19.0188685774,
			"0.004": 18.8816077199,
			"0.005": 3.19357978203,
			"0.006": 1.41499944057,
			"0.007": 1.86376589807,
			"0.008": 2.00530579401,
			"0.009": 1.26353844422,
			"0.01": 1.04829404056,
			"0.011": 1.34897015492,
			"0.012": 1.42698392754,
			"0.013": 0.511952150832,
			"0.014": 0.533553263842,
			"0.015": 0.960776535959,
			"0.016": 0.419276055728,
			"0.017": 0.425344843176,
			"0.018": 0.00359697929487,
			"0.019": 0.0,
			"0.02": 0.0,
			"0.021": 0.0,
			"0.022": 0.0,
			"0.023": 0.0,
			"0.024": 0.0,
			"0.025": 0.0
		}
	}
}
