{
	 "smiles": "OC(=O)CCCl", 
	 "Tm": 313.15, 
	 "num_atms": 11, 
	 "gaussian": { 
		 "optdone": 1, 
		 "sigma_profile": "yes", 
		 "theory": "DFT", 
		 "functional": "B3LYP", 
		 "basiset": "6-31G**", 
		 "properties": { 
			 "R2extent": 1414.3315, 
			 "electric_dipole_moment_norm": 3.81768272909, 
			 "electric_quadrupole_moment_norm": 11.6274931241, 
			 "total_energy": -727.983663662, 
			 "HOMO_LUMO_gap": 0.26329, 
			 "cosmo_polarized_energy": -12.31, 
			 "cosmo_cavitation_energy": 16.39, 
			 "cosmo_dispersion_energy": -12.53, 
			 "cosmo_repulsion_energy": 1.1, 
			 "cosmo_total_nonelectrostatic_energy": 4.95, 
			 "SMD_solvation_energy": 3.82 
		},
		"coords": [
			{
				"x": 0.7021344915,
				"y": 1.5769310178,
				"z": 2.7252495741,
				"element": "O" 
			},
			{
				"x": -0.0888973892,
				"y": 1.6619741691,
				"z": 1.6334590334,
				"element": "C" 
			},
			{
				"x": -0.8466837857,
				"y": 2.5891423561,
				"z": 1.4916710559,
				"element": "O" 
			},
			{
				"x": 0.0471334271,
				"y": 0.5523081778,
				"z": 0.5854888646,
				"element": "C" 
			},
			{
				"x": -0.0012604307,
				"y": -0.8868484366,
				"z": 1.0931408872,
				"element": "C" 
			},
			{
				"x": 1.5304256989,
				"y": -1.3848441551,
				"z": 1.96302381,
				"element": "Cl" 
			},
			{
				"x": 1.2580284381,
				"y": 0.7792227857,
				"z": 2.6968826912,
				"element": "H" 
			},
			{
				"x": -0.7865464307,
				"y": 0.6940012895,
				"z": -0.107966432,
				"element": "H" 
			},
			{
				"x": 0.9722227771,
				"y": 0.7103413245,
				"z": 0.0179980683,
				"element": "H" 
			},
			{
				"x": -0.0975574876,
				"y": -1.586139131,
				"z": 0.2630926584,
				"element": "H" 
			},
			{
				"x": -0.8150993088,
				"y": -1.0533893977,
				"z": 1.8000597888,
				"element": "H" 
			}
		],
		 "valence_orbital": [ 
			{
				"type": "occ",
				"energy": -0.37803,
				"method": "rhf"
			},
			{
				"type": "occ",
				"energy": -0.33257,
				"method": "rhf"
			},
			{
				"type": "occ",
				"energy": -0.32754,
				"method": "rhf"
			},
			{
				"type": "occ",
				"energy": -0.31573,
				"method": "rhf"
			},
			{
				"type": "occ",
				"energy": -0.27395,
				"method": "rhf"
			},
			{
				"type": "unocc",
				"energy": -0.01066,
				"method": "rhf"
			},
			{
				"type": "unocc",
				"energy": 0.00488,
				"method": "rhf"
			},
			{
				"type": "unocc",
				"energy": 0.07126,
				"method": "rhf"
			},
			{
				"type": "unocc",
				"energy": 0.10698,
				"method": "rhf"
			},
			{
				"type": "unocc",
				"energy": 0.11644,
				"method": "rhf"
			}
		],
		"cosmo_sigma_profile": { 
			"-0.025": 0.0,
			"-0.024": 0.0,
			"-0.023": 0.0,
			"-0.022": 0.0,
			"-0.021": 0.0,
			"-0.02": 0.0,
			"-0.019": 0.0,
			"-0.018": 0.0,
			"-0.017": 0.0,
			"-0.016": 0.0,
			"-0.015": 0.0,
			"-0.014": 0.0,
			"-0.013": 0.0,
			"-0.012": 0.000204883509571,
			"-0.011": 0.84916632662,
			"-0.01": 1.29057095019,
			"-0.009": 4.70953566635,
			"-0.008": 10.1900972499,
			"-0.007": 12.5680243772,
			"-0.006": 10.6747150775,
			"-0.005": 8.14530194328,
			"-0.004": 5.8355041667,
			"-0.003": 4.50557566051,
			"-0.002": 3.61519478981,
			"-0.001": 5.72566575374,
			"0.0": 4.78341313462,
			"0.001": 4.15376745413,
			"0.002": 5.68564232492,
			"0.003": 4.86790651637,
			"0.004": 6.39970572073,
			"0.005": 8.63126205973,
			"0.006": 3.3625890455,
			"0.007": 1.87033545389,
			"0.008": 2.92249856012,
			"0.009": 2.9977779113,
			"0.01": 4.59827953067,
			"0.011": 5.62735358916,
			"0.012": 5.51974803138,
			"0.013": 2.12802692779,
			"0.014": 0.0663579305176,
			"0.015": 0.0,
			"0.016": 0.0,
			"0.017": 0.0,
			"0.018": 0.0,
			"0.019": 0.0,
			"0.02": 0.0,
			"0.021": 0.0,
			"0.022": 0.0,
			"0.023": 0.0,
			"0.024": 0.0,
			"0.025": 0.0
		}
	}
}
