{
	 "smiles": "OC(=O)C1=C(O)C=C(F)C=C1", 
	 "Tm": 464.15, 
	 "num_atms": 16, 
	 "gaussian": { 
		 "optdone": 1, 
		 "sigma_profile": "yes", 
		 "theory": "DFT", 
		 "functional": "B3LYP", 
		 "basiset": "6-31G**", 
		 "properties": { 
			 "R2extent": 2254.2187, 
			 "electric_dipole_moment_norm": 5.48477558793, 
			 "electric_quadrupole_moment_norm": 20.7920573472, 
			 "total_energy": -595.272929491, 
			 "HOMO_LUMO_gap": 0.2082, 
			 "cosmo_polarized_energy": -16.67, 
			 "cosmo_cavitation_energy": 21.17, 
			 "cosmo_dispersion_energy": -15.98, 
			 "cosmo_repulsion_energy": 1.25, 
			 "cosmo_total_nonelectrostatic_energy": 6.44, 
			 "SMD_solvation_energy": 5.71 
		},
		"coords": [
			{
				"x": 1.6335554913,
				"y": -2.8007814565,
				"z": -1.705709072,
				"element": "O" 
			},
			{
				"x": 1.8015606532,
				"y": -2.4562030603,
				"z": -0.4141538514,
				"element": "C" 
			},
			{
				"x": 2.7756748172,
				"y": -2.8352616873,
				"z": 0.1989164776,
				"element": "O" 
			},
			{
				"x": 0.7502106768,
				"y": -1.5932094625,
				"z": 0.234344671,
				"element": "C" 
			},
			{
				"x": -0.4136464828,
				"y": -1.1023189778,
				"z": -0.3895492801,
				"element": "C" 
			},
			{
				"x": -0.6331898125,
				"y": -1.4247396705,
				"z": -1.7062906289,
				"element": "O" 
			},
			{
				"x": -1.3258389896,
				"y": -0.3076147328,
				"z": 0.3061465271,
				"element": "C" 
			},
			{
				"x": -1.0656705583,
				"y": -0.0050730194,
				"z": 1.6369418903,
				"element": "C" 
			},
			{
				"x": -1.9490333472,
				"y": 0.7606158876,
				"z": 2.299442675,
				"element": "F" 
			},
			{
				"x": 0.069249461,
				"y": -0.4661557835,
				"z": 2.2961734907,
				"element": "C" 
			},
			{
				"x": 0.9605708906,
				"y": -1.2553487641,
				"z": 1.579818018,
				"element": "C" 
			},
			{
				"x": 0.8092195717,
				"y": -2.4218866093,
				"z": -2.0571997784,
				"element": "H" 
			},
			{
				"x": -1.4569516331,
				"y": -1.0346392126,
				"z": -2.0247618461,
				"element": "H" 
			},
			{
				"x": -2.2253538447,
				"y": 0.0751031022,
				"z": -0.1664164735,
				"element": "H" 
			},
			{
				"x": 0.2354419902,
				"y": -0.2074913476,
				"z": 3.3352384848,
				"element": "H" 
			},
			{
				"x": 1.8611011161,
				"y": -1.6414952058,
				"z": 2.044358696,
				"element": "H" 
			}
		],
		 "valence_orbital": [ 
			{
				"type": "occ",
				"energy": -0.3573,
				"method": "rhf"
			},
			{
				"type": "occ",
				"energy": -0.30417,
				"method": "rhf"
			},
			{
				"type": "occ",
				"energy": -0.2722,
				"method": "rhf"
			},
			{
				"type": "occ",
				"energy": -0.26757,
				"method": "rhf"
			},
			{
				"type": "occ",
				"energy": -0.2558,
				"method": "rhf"
			},
			{
				"type": "unocc",
				"energy": -0.0476,
				"method": "rhf"
			},
			{
				"type": "unocc",
				"energy": -0.02147,
				"method": "rhf"
			},
			{
				"type": "unocc",
				"energy": 0.03125,
				"method": "rhf"
			},
			{
				"type": "unocc",
				"energy": 0.05664,
				"method": "rhf"
			},
			{
				"type": "unocc",
				"energy": 0.07503,
				"method": "rhf"
			}
		],
		"cosmo_sigma_profile": { 
			"-0.025": 0.0,
			"-0.024": 0.0,
			"-0.023": 0.0,
			"-0.022": 0.0,
			"-0.021": 0.0,
			"-0.02": 1.10245631247,
			"-0.019": 0.863972230355,
			"-0.018": 1.25536798481,
			"-0.017": 1.26979201551,
			"-0.016": 1.32526042094,
			"-0.015": 0.64702058044,
			"-0.014": 0.302140455946,
			"-0.013": 1.35944392413,
			"-0.012": 1.48054229785,
			"-0.011": 0.753698357414,
			"-0.01": 1.5709841033,
			"-0.009": 2.36658651294,
			"-0.008": 3.2910172585,
			"-0.007": 4.43645494931,
			"-0.006": 6.04266485825,
			"-0.005": 7.34875240843,
			"-0.004": 7.84753237596,
			"-0.003": 7.63011657391,
			"-0.002": 7.70344550188,
			"-0.001": 11.9890201269,
			"0.0": 17.8786985084,
			"0.001": 18.1236098832,
			"0.002": 12.7943603741,
			"0.003": 12.741294497,
			"0.004": 8.11679600101,
			"0.005": 1.82305878427,
			"0.006": 2.59840574924,
			"0.007": 2.39894544448,
			"0.008": 2.0273322752,
			"0.009": 3.24435577391,
			"0.01": 3.45256076929,
			"0.011": 5.28285223031,
			"0.012": 5.84610315138,
			"0.013": 2.61912221471,
			"0.014": 0.699070558325,
			"0.015": 0.0,
			"0.016": 0.0,
			"0.017": 0.0,
			"0.018": 0.0,
			"0.019": 0.0,
			"0.02": 0.0,
			"0.021": 0.0,
			"0.022": 0.0,
			"0.023": 0.0,
			"0.024": 0.0,
			"0.025": 0.0
		}
	}
}
