{
	 "smiles": "CC1=C(F)C=C(C(N)=O)C(N)=C1", 
	 "Tm": 466.15, 
	 "num_atms": 21, 
	 "gaussian": { 
		 "optdone": 1, 
		 "sigma_profile": "yes", 
		 "theory": "DFT", 
		 "functional": "B3LYP", 
		 "basiset": "6-31G**", 
		 "properties": { 
			 "R2extent": 3124.507, 
			 "electric_dipole_moment_norm": 1.1619574605, 
			 "electric_quadrupole_moment_norm": 14.3423711369, 
			 "total_energy": -594.872385815, 
			 "HOMO_LUMO_gap": 0.16092, 
			 "cosmo_polarized_energy": -12.82, 
			 "cosmo_cavitation_energy": 25.02, 
			 "cosmo_dispersion_energy": -18.68, 
			 "cosmo_repulsion_energy": 1.47, 
			 "cosmo_total_nonelectrostatic_energy": 7.81, 
			 "SMD_solvation_energy": 5.3 
		},
		"coords": [
			{
				"x": -2.0162251739,
				"y": 0.0425221288,
				"z": -1.0432386511,
				"element": "C" 
			},
			{
				"x": -0.5204749082,
				"y": -0.1033252295,
				"z": -0.9487292833,
				"element": "C" 
			},
			{
				"x": 0.2687521626,
				"y": 0.9832710454,
				"z": -0.5468323525,
				"element": "C" 
			},
			{
				"x": -0.3486024191,
				"y": 2.1600720928,
				"z": -0.2628457906,
				"element": "F" 
			},
			{
				"x": 1.6395373543,
				"y": 0.8974581721,
				"z": -0.4481756959,
				"element": "C" 
			},
			{
				"x": 2.3097148383,
				"y": -0.3058480307,
				"z": -0.7471252996,
				"element": "C" 
			},
			{
				"x": 3.7893969352,
				"y": -0.404424846,
				"z": -0.6422488427,
				"element": "C" 
			},
			{
				"x": 4.4332425088,
				"y": 0.5905950049,
				"z": 0.0577237101,
				"element": "N" 
			},
			{
				"x": 4.4486077342,
				"y": -1.308368598,
				"z": -1.1692220718,
				"element": "O" 
			},
			{
				"x": 1.5437201212,
				"y": -1.4246825047,
				"z": -1.1807058906,
				"element": "C" 
			},
			{
				"x": 2.1276110732,
				"y": -2.6326457286,
				"z": -1.4726812946,
				"element": "N" 
			},
			{
				"x": 0.1383249955,
				"y": -1.2866286267,
				"z": -1.2573583172,
				"element": "C" 
			},
			{
				"x": -2.447442358,
				"y": 0.311924765,
				"z": -0.0730031268,
				"element": "H" 
			},
			{
				"x": -2.482084001,
				"y": -0.8862042884,
				"z": -1.3808191462,
				"element": "H" 
			},
			{
				"x": -2.2903224364,
				"y": 0.8405980606,
				"z": -1.7415355664,
				"element": "H" 
			},
			{
				"x": 2.1899415245,
				"y": 1.7915817809,
				"z": -0.177510924,
				"element": "H" 
			},
			{
				"x": 5.4175685435,
				"y": 0.4228733219,
				"z": 0.2096254848,
				"element": "H" 
			},
			{
				"x": 3.9461023125,
				"y": 1.0969094923,
				"z": 0.7802770957,
				"element": "H" 
			},
			{
				"x": 1.5828912398,
				"y": -3.2904076474,
				"z": -2.0077235518,
				"element": "H" 
			},
			{
				"x": 3.1280923988,
				"y": -2.5975947105,
				"z": -1.6376936564,
				"element": "H" 
			},
			{
				"x": -0.4474524457,
				"y": -2.1461756543,
				"z": -1.5751768293,
				"element": "H" 
			}
		],
		 "valence_orbital": [ 
			{
				"type": "occ",
				"energy": -0.29996,
				"method": "rhf"
			},
			{
				"type": "occ",
				"energy": -0.27398,
				"method": "rhf"
			},
			{
				"type": "occ",
				"energy": -0.2558,
				"method": "rhf"
			},
			{
				"type": "occ",
				"energy": -0.25137,
				"method": "rhf"
			},
			{
				"type": "occ",
				"energy": -0.19686,
				"method": "rhf"
			},
			{
				"type": "unocc",
				"energy": -0.03594,
				"method": "rhf"
			},
			{
				"type": "unocc",
				"energy": 0.01448,
				"method": "rhf"
			},
			{
				"type": "unocc",
				"energy": 0.05881,
				"method": "rhf"
			},
			{
				"type": "unocc",
				"energy": 0.08063,
				"method": "rhf"
			},
			{
				"type": "unocc",
				"energy": 0.09763,
				"method": "rhf"
			}
		],
		"cosmo_sigma_profile": { 
			"-0.025": 0.0,
			"-0.024": 0.0,
			"-0.023": 0.0,
			"-0.022": 0.0,
			"-0.021": 0.0,
			"-0.02": 0.0,
			"-0.019": 0.0,
			"-0.018": 0.0,
			"-0.017": 0.0,
			"-0.016": 0.0,
			"-0.015": 0.0278956568366,
			"-0.014": 1.10123777359,
			"-0.013": 2.97816715777,
			"-0.012": 3.71624591488,
			"-0.011": 4.39112157445,
			"-0.01": 3.69118003178,
			"-0.009": 3.57072547572,
			"-0.008": 4.30602080581,
			"-0.007": 4.28439382905,
			"-0.006": 6.47189891662,
			"-0.005": 7.98642287916,
			"-0.004": 9.98329964608,
			"-0.003": 10.5860880432,
			"-0.002": 10.026970596,
			"-0.001": 12.5510794848,
			"0.0": 14.740486529,
			"0.001": 11.4878569078,
			"0.002": 14.1937896769,
			"0.003": 16.0208229023,
			"0.004": 18.0806750116,
			"0.005": 14.7860424112,
			"0.006": 4.28648353805,
			"0.007": 2.37553364806,
			"0.008": 2.48811847268,
			"0.009": 3.02623740337,
			"0.01": 1.98518059633,
			"0.011": 2.15678361743,
			"0.012": 2.80976059896,
			"0.013": 2.62681027133,
			"0.014": 1.55304473091,
			"0.015": 0.119454936347,
			"0.016": 0.0,
			"0.017": 0.0,
			"0.018": 0.0,
			"0.019": 0.0,
			"0.02": 0.0,
			"0.021": 0.0,
			"0.022": 0.0,
			"0.023": 0.0,
			"0.024": 0.0,
			"0.025": 0.0
		}
	}
}
