{
	 "smiles": "CCCOC(=O)C1=C(O)C=CC=C1", 
	 "Tm": 370.15, 
	 "num_atms": 25, 
	 "gaussian": { 
		 "optdone": 1, 
		 "sigma_profile": "yes", 
		 "theory": "DFT", 
		 "functional": "B3LYP", 
		 "basiset": "6-31G**", 
		 "properties": { 
			 "R2extent": 3753.9345, 
			 "electric_dipole_moment_norm": 1.335509824, 
			 "electric_quadrupole_moment_norm": 15.2158248633, 
			 "total_energy": -613.994645293, 
			 "HOMO_LUMO_gap": 0.18134, 
			 "cosmo_polarized_energy": -8.04, 
			 "cosmo_cavitation_energy": 28.55, 
			 "cosmo_dispersion_energy": -20.94, 
			 "cosmo_repulsion_energy": 1.67, 
			 "cosmo_total_nonelectrostatic_energy": 9.28, 
			 "SMD_solvation_energy": 6.03 
		},
		"coords": [
			{
				"x": -4.5816943766,
				"y": -0.8919636379,
				"z": 2.9019488801,
				"element": "C" 
			},
			{
				"x": -3.3549110579,
				"y": -0.1663064088,
				"z": 2.3383647474,
				"element": "C" 
			},
			{
				"x": -3.4619287659,
				"y": 0.0259580734,
				"z": 0.8299336298,
				"element": "C" 
			},
			{
				"x": -2.3393280881,
				"y": 0.7822622719,
				"z": 0.3066667762,
				"element": "O" 
			},
			{
				"x": -1.206114498,
				"y": 0.0741300697,
				"z": -0.0166163934,
				"element": "C" 
			},
			{
				"x": -1.145024126,
				"y": -1.1308206566,
				"z": 0.1176752783,
				"element": "O" 
			},
			{
				"x": -0.1158850897,
				"y": 0.9328775747,
				"z": -0.5331231659,
				"element": "C" 
			},
			{
				"x": -0.1945072895,
				"y": 2.3408268397,
				"z": -0.6800156949,
				"element": "C" 
			},
			{
				"x": -1.2793940087,
				"y": 3.0800088562,
				"z": -0.3653594038,
				"element": "O" 
			},
			{
				"x": 0.9151235825,
				"y": 3.0404306616,
				"z": -1.1830488679,
				"element": "C" 
			},
			{
				"x": 2.0758049634,
				"y": 2.3665260577,
				"z": -1.5335312782,
				"element": "C" 
			},
			{
				"x": 2.1653814434,
				"y": 0.9737534792,
				"z": -1.3924096836,
				"element": "C" 
			},
			{
				"x": 1.0765354013,
				"y": 0.2757578563,
				"z": -0.8966165169,
				"element": "C" 
			},
			{
				"x": -5.5036952828,
				"y": -0.3313226414,
				"z": 2.7102852949,
				"element": "H" 
			},
			{
				"x": -4.4927930175,
				"y": -1.0226313421,
				"z": 3.9841980342,
				"element": "H" 
			},
			{
				"x": -4.696224823,
				"y": -1.8860267013,
				"z": 2.4562418836,
				"element": "H" 
			},
			{
				"x": -3.2423154272,
				"y": 0.8144900754,
				"z": 2.8157750413,
				"element": "H" 
			},
			{
				"x": -2.4468215583,
				"y": -0.7387568584,
				"z": 2.5533617273,
				"element": "H" 
			},
			{
				"x": -4.3404935243,
				"y": 0.6197754009,
				"z": 0.5633595124,
				"element": "H" 
			},
			{
				"x": -3.5008489886,
				"y": -0.9343138869,
				"z": 0.3110698565,
				"element": "H" 
			},
			{
				"x": -1.9686945063,
				"y": 2.4765681496,
				"z": -0.0315757344,
				"element": "H" 
			},
			{
				"x": 0.8299008536,
				"y": 4.1170118008,
				"z": -1.2859273671,
				"element": "H" 
			},
			{
				"x": 2.9211244605,
				"y": 2.9287270653,
				"z": -1.920730234,
				"element": "H" 
			},
			{
				"x": 3.0745934358,
				"y": 0.4492727263,
				"z": -1.6672227415,
				"element": "H" 
			},
			{
				"x": 1.1081102879,
				"y": -0.8014348252,
				"z": -0.7731035802,
				"element": "H" 
			}
		],
		 "valence_orbital": [ 
			{
				"type": "occ",
				"energy": -0.33253,
				"method": "rhf"
			},
			{
				"type": "occ",
				"energy": -0.30649,
				"method": "rhf"
			},
			{
				"type": "occ",
				"energy": -0.28278,
				"method": "rhf"
			},
			{
				"type": "occ",
				"energy": -0.25822,
				"method": "rhf"
			},
			{
				"type": "occ",
				"energy": -0.2257,
				"method": "rhf"
			},
			{
				"type": "unocc",
				"energy": -0.04436,
				"method": "rhf"
			},
			{
				"type": "unocc",
				"energy": 0.00698,
				"method": "rhf"
			},
			{
				"type": "unocc",
				"energy": 0.05632,
				"method": "rhf"
			},
			{
				"type": "unocc",
				"energy": 0.08399,
				"method": "rhf"
			},
			{
				"type": "unocc",
				"energy": 0.097,
				"method": "rhf"
			}
		],
		"cosmo_sigma_profile": { 
			"-0.025": 0.0,
			"-0.024": 0.0,
			"-0.023": 0.0,
			"-0.022": 0.0,
			"-0.021": 0.0,
			"-0.02": 0.0,
			"-0.019": 0.0,
			"-0.018": 0.0,
			"-0.017": 0.0,
			"-0.016": 0.0,
			"-0.015": 0.0,
			"-0.014": 0.0,
			"-0.013": 0.0,
			"-0.012": 0.0,
			"-0.011": 0.0,
			"-0.01": 0.177952970721,
			"-0.009": 0.886522545922,
			"-0.008": 0.749184448391,
			"-0.007": 1.9530176652,
			"-0.006": 8.98415538154,
			"-0.005": 12.6187825808,
			"-0.004": 19.9389597525,
			"-0.003": 26.6861369942,
			"-0.002": 23.8635108517,
			"-0.001": 22.6540649709,
			"0.0": 21.4039880426,
			"0.001": 17.0143596002,
			"0.002": 13.1355862001,
			"0.003": 14.3413166055,
			"0.004": 12.8275013442,
			"0.005": 6.27753670377,
			"0.006": 3.05642410266,
			"0.007": 2.48634295193,
			"0.008": 3.08680332818,
			"0.009": 2.84744898023,
			"0.01": 3.79028149902,
			"0.011": 4.75479233807,
			"0.012": 2.64368401464,
			"0.013": 0.0,
			"0.014": 0.0,
			"0.015": 0.0,
			"0.016": 0.0,
			"0.017": 0.0,
			"0.018": 0.0,
			"0.019": 0.0,
			"0.02": 0.0,
			"0.021": 0.0,
			"0.022": 0.0,
			"0.023": 0.0,
			"0.024": 0.0,
			"0.025": 0.0
		}
	}
}
