{
	 "smiles": "CN1N=NN=C1C1=CC(N)=CC=C1", 
	 "Tm": 421.15, 
	 "num_atms": 22, 
	 "gaussian": { 
		 "optdone": 1, 
		 "sigma_profile": "yes", 
		 "theory": "DFT", 
		 "functional": "B3LYP", 
		 "basiset": "6-31G**", 
		 "properties": { 
			 "R2extent": 3380.3942, 
			 "electric_dipole_moment_norm": 7.8619370851, 
			 "electric_quadrupole_moment_norm": 21.4530249615, 
			 "total_energy": -583.985531257, 
			 "HOMO_LUMO_gap": 0.17579, 
			 "cosmo_polarized_energy": -20.5, 
			 "cosmo_cavitation_energy": 26.37, 
			 "cosmo_dispersion_energy": -19.39, 
			 "cosmo_repulsion_energy": 1.52, 
			 "cosmo_total_nonelectrostatic_energy": 8.51, 
			 "SMD_solvation_energy": 2.59 
		},
		"coords": [
			{
				"x": -3.2162951305,
				"y": -1.4129978559,
				"z": -1.1892776972,
				"element": "C" 
			},
			{
				"x": -3.231891934,
				"y": -0.8623169527,
				"z": 0.1558943234,
				"element": "N" 
			},
			{
				"x": -4.1988953192,
				"y": -1.2550439836,
				"z": 1.0230522147,
				"element": "N" 
			},
			{
				"x": -3.9407759454,
				"y": -0.6757181274,
				"z": 2.1494716109,
				"element": "N" 
			},
			{
				"x": -2.8300877087,
				"y": 0.0909244031,
				"z": 2.0614002815,
				"element": "N" 
			},
			{
				"x": -2.3877124107,
				"y": -0.0244958783,
				"z": 0.8135965386,
				"element": "C" 
			},
			{
				"x": -1.1780527914,
				"y": 0.6260720705,
				"z": 0.2934183873,
				"element": "C" 
			},
			{
				"x": -1.049393819,
				"y": 0.9959820947,
				"z": -1.0523904479,
				"element": "C" 
			},
			{
				"x": 0.1164381184,
				"y": 1.6283652408,
				"z": -1.5155223429,
				"element": "C" 
			},
			{
				"x": 0.2127152523,
				"y": 2.0535309096,
				"z": -2.8393315762,
				"element": "N" 
			},
			{
				"x": 1.1536155,
				"y": 1.8830978086,
				"z": -0.6018702341,
				"element": "C" 
			},
			{
				"x": 1.0155386979,
				"y": 1.5253387371,
				"z": 0.7370767345,
				"element": "C" 
			},
			{
				"x": -0.1398881056,
				"y": 0.8996778723,
				"z": 1.1983135365,
				"element": "C" 
			},
			{
				"x": -3.7805859108,
				"y": -2.3451131135,
				"z": -1.165032524,
				"element": "H" 
			},
			{
				"x": -3.6863657824,
				"y": -0.7282876921,
				"z": -1.9012854983,
				"element": "H" 
			},
			{
				"x": -2.1872427044,
				"y": -1.6081785258,
				"z": -1.4952699189,
				"element": "H" 
			},
			{
				"x": -1.8683951781,
				"y": 0.8401987425,
				"z": -1.7475204504,
				"element": "H" 
			},
			{
				"x": 1.1514623382,
				"y": 2.2008099626,
				"z": -3.1822940104,
				"element": "H" 
			},
			{
				"x": -0.364035114,
				"y": 1.5583547443,
				"z": -3.5045547116,
				"element": "H" 
			},
			{
				"x": 2.0606514209,
				"y": 2.373633329,
				"z": -0.9459412781,
				"element": "H" 
			},
			{
				"x": 1.8255704681,
				"y": 1.7351357613,
				"z": 1.4295064416,
				"element": "H" 
			},
			{
				"x": -0.2559739416,
				"y": 0.6216304528,
				"z": 2.238860621,
				"element": "H" 
			}
		],
		 "valence_orbital": [ 
			{
				"type": "occ",
				"energy": -0.29603,
				"method": "rhf"
			},
			{
				"type": "occ",
				"energy": -0.28728,
				"method": "rhf"
			},
			{
				"type": "occ",
				"energy": -0.2707,
				"method": "rhf"
			},
			{
				"type": "occ",
				"energy": -0.25169,
				"method": "rhf"
			},
			{
				"type": "occ",
				"energy": -0.21681,
				"method": "rhf"
			},
			{
				"type": "unocc",
				"energy": -0.04102,
				"method": "rhf"
			},
			{
				"type": "unocc",
				"energy": -0.00217,
				"method": "rhf"
			},
			{
				"type": "unocc",
				"energy": 0.00827,
				"method": "rhf"
			},
			{
				"type": "unocc",
				"energy": 0.0509,
				"method": "rhf"
			},
			{
				"type": "unocc",
				"energy": 0.06854,
				"method": "rhf"
			}
		],
		"cosmo_sigma_profile": { 
			"-0.025": 0.0,
			"-0.024": 0.0,
			"-0.023": 0.0,
			"-0.022": 0.0,
			"-0.021": 0.0,
			"-0.02": 0.0,
			"-0.019": 0.0,
			"-0.018": 0.0,
			"-0.017": 0.0,
			"-0.016": 0.0,
			"-0.015": 0.0,
			"-0.014": 0.0,
			"-0.013": 0.948701589794,
			"-0.012": 3.15273591866,
			"-0.011": 2.75577420638,
			"-0.01": 3.95037725093,
			"-0.009": 4.14888696491,
			"-0.008": 8.69498962923,
			"-0.007": 10.2534893702,
			"-0.006": 14.1711963176,
			"-0.005": 14.3163078976,
			"-0.004": 17.2525286931,
			"-0.003": 10.3246745739,
			"-0.002": 8.60983582201,
			"-0.001": 9.54475967191,
			"0.0": 8.24205993557,
			"0.001": 7.94088771527,
			"0.002": 8.80642631381,
			"0.003": 10.0019007535,
			"0.004": 11.7405731576,
			"0.005": 13.5026971498,
			"0.006": 5.39765964942,
			"0.007": 4.9714912348,
			"0.008": 4.87402578425,
			"0.009": 5.82029021141,
			"0.01": 5.49973274535,
			"0.011": 5.09043184039,
			"0.012": 4.48038668196,
			"0.013": 3.31228342768,
			"0.014": 2.19556385035,
			"0.015": 0.731038311244,
			"0.016": 0.0569658562418,
			"0.017": 0.0,
			"0.018": 0.0,
			"0.019": 0.0,
			"0.02": 0.0,
			"0.021": 0.0,
			"0.022": 0.0,
			"0.023": 0.0,
			"0.024": 0.0,
			"0.025": 0.0
		}
	}
}
