{
	 "smiles": "NC1=CC(=CC=C1)C1=CC=CS1", 
	 "Tm": 519.15, 
	 "num_atms": 21, 
	 "gaussian": { 
		 "optdone": 1, 
		 "sigma_profile": "yes", 
		 "theory": "DFT", 
		 "functional": "B3LYP", 
		 "basiset": "6-31G**", 
		 "properties": { 
			 "R2extent": 2764.0851, 
			 "electric_dipole_moment_norm": 2.2969150289, 
			 "electric_quadrupole_moment_norm": 15.0649872572, 
			 "total_energy": -839.420803278, 
			 "HOMO_LUMO_gap": 0.16888, 
			 "cosmo_polarized_energy": -9.98, 
			 "cosmo_cavitation_energy": 26.33, 
			 "cosmo_dispersion_energy": -20.12, 
			 "cosmo_repulsion_energy": 1.54, 
			 "cosmo_total_nonelectrostatic_energy": 7.75, 
			 "SMD_solvation_energy": 4.3 
		},
		"coords": [
			{
				"x": -2.014375313,
				"y": -3.2122925973,
				"z": -0.4541354479,
				"element": "N" 
			},
			{
				"x": -1.0971517652,
				"y": -2.2055234089,
				"z": -0.7640668851,
				"element": "C" 
			},
			{
				"x": -1.0637042569,
				"y": -1.0192268618,
				"z": -0.0166995199,
				"element": "C" 
			},
			{
				"x": -0.1874369223,
				"y": 0.0263449742,
				"z": -0.3464555385,
				"element": "C" 
			},
			{
				"x": 0.6611692673,
				"y": -0.1201556393,
				"z": -1.4579962146,
				"element": "C" 
			},
			{
				"x": 0.6199991223,
				"y": -1.2929352382,
				"z": -2.209508394,
				"element": "C" 
			},
			{
				"x": -0.2426626886,
				"y": -2.3326701399,
				"z": -1.8733754232,
				"element": "C" 
			},
			{
				"x": -0.1660310009,
				"y": 1.2437477728,
				"z": 0.4771113044,
				"element": "C" 
			},
			{
				"x": -0.45413119,
				"y": 1.381981908,
				"z": 1.8161231473,
				"element": "C" 
			},
			{
				"x": -0.3329089877,
				"y": 2.7190875185,
				"z": 2.2946370785,
				"element": "C" 
			},
			{
				"x": 0.0475875798,
				"y": 3.5984879982,
				"z": 1.3185537261,
				"element": "C" 
			},
			{
				"x": 0.2564742911,
				"y": 2.8024175409,
				"z": -0.2071428516,
				"element": "S" 
			},
			{
				"x": -1.7644776465,
				"y": -4.1349828561,
				"z": -0.7820695972,
				"element": "H" 
			},
			{
				"x": -2.3287547922,
				"y": -3.22679817,
				"z": 0.5062430169,
				"element": "H" 
			},
			{
				"x": -1.7518079564,
				"y": -0.8975825912,
				"z": 0.815395947,
				"element": "H" 
			},
			{
				"x": 1.3633642204,
				"y": 0.666731011,
				"z": -1.7136255826,
				"element": "H" 
			},
			{
				"x": 1.2798432136,
				"y": -1.4049230679,
				"z": -3.0653583499,
				"element": "H" 
			},
			{
				"x": -0.2662683618,
				"y": -3.2413835917,
				"z": -2.469623568,
				"element": "H" 
			},
			{
				"x": -0.7159392182,
				"y": 0.5407534802,
				"z": 2.4477471688,
				"element": "H" 
			},
			{
				"x": -0.5125364156,
				"y": 3.0100237715,
				"z": 3.3235799436,
				"element": "H" 
			},
			{
				"x": 0.2150488207,
				"y": 4.663498187,
				"z": 1.3998660398,
				"element": "H" 
			}
		],
		 "valence_orbital": [ 
			{
				"type": "occ",
				"energy": -0.30993,
				"method": "rhf"
			},
			{
				"type": "occ",
				"energy": -0.26327,
				"method": "rhf"
			},
			{
				"type": "occ",
				"energy": -0.24578,
				"method": "rhf"
			},
			{
				"type": "occ",
				"energy": -0.21335,
				"method": "rhf"
			},
			{
				"type": "occ",
				"energy": -0.19881,
				"method": "rhf"
			},
			{
				"type": "unocc",
				"energy": -0.02993,
				"method": "rhf"
			},
			{
				"type": "unocc",
				"energy": 0.0108,
				"method": "rhf"
			},
			{
				"type": "unocc",
				"energy": 0.02816,
				"method": "rhf"
			},
			{
				"type": "unocc",
				"energy": 0.04398,
				"method": "rhf"
			},
			{
				"type": "unocc",
				"energy": 0.07678,
				"method": "rhf"
			}
		],
		"cosmo_sigma_profile": { 
			"-0.025": 0.0,
			"-0.024": 0.0,
			"-0.023": 0.0,
			"-0.022": 0.0,
			"-0.021": 0.0,
			"-0.02": 0.0,
			"-0.019": 0.0,
			"-0.018": 0.0,
			"-0.017": 0.0,
			"-0.016": 0.0,
			"-0.015": 0.0,
			"-0.014": 0.0,
			"-0.013": 0.334394031543,
			"-0.012": 2.23201458278,
			"-0.011": 3.05082293231,
			"-0.01": 2.42803899789,
			"-0.009": 3.61708438361,
			"-0.008": 4.82934429773,
			"-0.007": 5.64401813706,
			"-0.006": 10.2781536958,
			"-0.005": 13.7124602216,
			"-0.004": 12.9013624411,
			"-0.003": 13.3077614121,
			"-0.002": 12.1257641217,
			"-0.001": 10.0582970369,
			"0.0": 10.6740881809,
			"0.001": 11.5458558778,
			"0.002": 13.3316276881,
			"0.003": 16.8472221032,
			"0.004": 20.6540217025,
			"0.005": 20.745120394,
			"0.006": 14.8632521788,
			"0.007": 3.94752203824,
			"0.008": 1.28480335479,
			"0.009": 0.640046949811,
			"0.01": 0.542583499838,
			"0.011": 0.748092858814,
			"0.012": 0.992429346807,
			"0.013": 0.572562045577,
			"0.014": 0.484260136669,
			"0.015": 0.241250497132,
			"0.016": 0.0,
			"0.017": 0.0,
			"0.018": 0.0,
			"0.019": 0.0,
			"0.02": 0.0,
			"0.021": 0.0,
			"0.022": 0.0,
			"0.023": 0.0,
			"0.024": 0.0,
			"0.025": 0.0
		}
	}
}
