{
	 "smiles": "CCCCNC(=O)NNC(=O)OCC", 
	 "Tm": 370.15, 
	 "num_atms": 31, 
	 "gaussian": { 
		 "optdone": 1, 
		 "sigma_profile": "yes", 
		 "theory": "DFT", 
		 "functional": "B3LYP", 
		 "basiset": "6-31G**", 
		 "properties": { 
			 "R2extent": 4038.1281, 
			 "electric_dipole_moment_norm": 5.19242581651, 
			 "electric_quadrupole_moment_norm": 22.3679671649, 
			 "total_energy": -705.043243588, 
			 "HOMO_LUMO_gap": 0.27497, 
			 "cosmo_polarized_energy": -18.33, 
			 "cosmo_cavitation_energy": 34.4, 
			 "cosmo_dispersion_energy": -23.13, 
			 "cosmo_repulsion_energy": 1.9, 
			 "cosmo_total_nonelectrostatic_energy": 13.17, 
			 "SMD_solvation_energy": 7.44 
		},
		"coords": [
			{
				"x": 2.9293875181,
				"y": 2.1265437759,
				"z": 1.3638130681,
				"element": "C" 
			},
			{
				"x": 3.1647942956,
				"y": 1.082201293,
				"z": 2.4634760373,
				"element": "C" 
			},
			{
				"x": 2.463974241,
				"y": -0.2629119415,
				"z": 2.2133279094,
				"element": "C" 
			},
			{
				"x": 3.0394601165,
				"y": -1.0490538434,
				"z": 1.0274902431,
				"element": "C" 
			},
			{
				"x": 2.3590486738,
				"y": -2.3218025207,
				"z": 0.7931142302,
				"element": "N" 
			},
			{
				"x": 1.6663844136,
				"y": -2.7297662338,
				"z": -0.3174240438,
				"element": "C" 
			},
			{
				"x": 1.532050552,
				"y": -3.9044162519,
				"z": -0.624783932,
				"element": "O" 
			},
			{
				"x": 1.1281745662,
				"y": -1.7267504663,
				"z": -1.1633892023,
				"element": "N" 
			},
			{
				"x": 0.5886820507,
				"y": -0.57342722,
				"z": -0.6056164698,
				"element": "N" 
			},
			{
				"x": -0.6961329822,
				"y": -0.5837333839,
				"z": -0.0996329692,
				"element": "C" 
			},
			{
				"x": -1.3746711424,
				"y": -1.5776074376,
				"z": 0.0514501688,
				"element": "O" 
			},
			{
				"x": -1.0513988278,
				"y": 0.6856222474,
				"z": 0.2181947595,
				"element": "O" 
			},
			{
				"x": -2.3858561302,
				"y": 0.8461177003,
				"z": 0.7581318766,
				"element": "C" 
			},
			{
				"x": -3.4221778655,
				"y": 0.9669332187,
				"z": -0.3480115567,
				"element": "C" 
			},
			{
				"x": 3.3792561981,
				"y": 3.0883508895,
				"z": 1.6303064905,
				"element": "H" 
			},
			{
				"x": 3.3660635282,
				"y": 1.8222467096,
				"z": 0.4060657463,
				"element": "H" 
			},
			{
				"x": 1.8573531069,
				"y": 2.2923789731,
				"z": 1.204875174,
				"element": "H" 
			},
			{
				"x": 2.8074399233,
				"y": 1.4864132583,
				"z": 3.4182863438,
				"element": "H" 
			},
			{
				"x": 4.2440129727,
				"y": 0.9189649334,
				"z": 2.5913154643,
				"element": "H" 
			},
			{
				"x": 1.3949357737,
				"y": -0.0967143785,
				"z": 2.0395510291,
				"element": "H" 
			},
			{
				"x": 2.5403752296,
				"y": -0.888014194,
				"z": 3.112213107,
				"element": "H" 
			},
			{
				"x": 2.9990193732,
				"y": -0.4614139946,
				"z": 0.1094361103,
				"element": "H" 
			},
			{
				"x": 4.1031209649,
				"y": -1.2559936398,
				"z": 1.2101024506,
				"element": "H" 
			},
			{
				"x": 2.7051946235,
				"y": -3.1224917112,
				"z": 1.3031512266,
				"element": "H" 
			},
			{
				"x": 0.5016387852,
				"y": -2.1860271936,
				"z": -1.8199030595,
				"element": "H" 
			},
			{
				"x": 0.9526832474,
				"y": 0.3065523866,
				"z": -0.9437145605,
				"element": "H" 
			},
			{
				"x": -2.6032207735,
				"y": -0.0016530319,
				"z": 1.4118081224,
				"element": "H" 
			},
			{
				"x": -2.3264008468,
				"y": 1.7591179252,
				"z": 1.3552795851,
				"element": "H" 
			},
			{
				"x": -4.4083241473,
				"y": 1.1603677957,
				"z": 0.0871459999,
				"element": "H" 
			},
			{
				"x": -3.1780943275,
				"y": 1.7913160788,
				"z": -1.0247126626,
				"element": "H" 
			},
			{
				"x": -3.4788731112,
				"y": 0.0390502572,
				"z": -0.9225466866,
				"element": "H" 
			}
		],
		 "valence_orbital": [ 
			{
				"type": "occ",
				"energy": -0.29022,
				"method": "rhf"
			},
			{
				"type": "occ",
				"energy": -0.28179,
				"method": "rhf"
			},
			{
				"type": "occ",
				"energy": -0.27771,
				"method": "rhf"
			},
			{
				"type": "occ",
				"energy": -0.25495,
				"method": "rhf"
			},
			{
				"type": "occ",
				"energy": -0.23865,
				"method": "rhf"
			},
			{
				"type": "unocc",
				"energy": 0.03632,
				"method": "rhf"
			},
			{
				"type": "unocc",
				"energy": 0.04952,
				"method": "rhf"
			},
			{
				"type": "unocc",
				"energy": 0.06017,
				"method": "rhf"
			},
			{
				"type": "unocc",
				"energy": 0.08742,
				"method": "rhf"
			},
			{
				"type": "unocc",
				"energy": 0.09672,
				"method": "rhf"
			}
		],
		"cosmo_sigma_profile": { 
			"-0.025": 0.0,
			"-0.024": 0.0,
			"-0.023": 0.0,
			"-0.022": 0.0,
			"-0.021": 0.0,
			"-0.02": 0.0,
			"-0.019": 0.0,
			"-0.018": 0.0,
			"-0.017": 0.0,
			"-0.016": 0.0,
			"-0.015": 0.0758642025543,
			"-0.014": 0.742245730729,
			"-0.013": 2.59335087525,
			"-0.012": 2.53088932762,
			"-0.011": 2.48995037938,
			"-0.01": 2.29655574435,
			"-0.009": 3.70589396934,
			"-0.008": 2.37344170937,
			"-0.007": 3.25161595987,
			"-0.006": 5.68219176157,
			"-0.005": 12.149037354,
			"-0.004": 18.544219394,
			"-0.003": 24.6314124407,
			"-0.002": 30.9855186002,
			"-0.001": 31.7158694637,
			"0.0": 31.5395822705,
			"0.001": 23.3670462758,
			"0.002": 10.1564159871,
			"0.003": 6.01919984512,
			"0.004": 7.15923493238,
			"0.005": 5.0891057358,
			"0.006": 5.61929591559,
			"0.007": 4.11624305928,
			"0.008": 3.5527343559,
			"0.009": 2.6753139735,
			"0.01": 2.97339088642,
			"0.011": 3.91263524221,
			"0.012": 5.74810151487,
			"0.013": 5.589407976,
			"0.014": 5.59654302369,
			"0.015": 0.696563231203,
			"0.016": 0.0,
			"0.017": 0.0,
			"0.018": 0.0,
			"0.019": 0.0,
			"0.02": 0.0,
			"0.021": 0.0,
			"0.022": 0.0,
			"0.023": 0.0,
			"0.024": 0.0,
			"0.025": 0.0
		}
	}
}
