{
	 "smiles": "COP(=S)(OC)OC1=CC(Cl)=C(Cl)C=C1Cl", 
	 "Tm": 314.15, 
	 "num_atms": 24, 
	 "gaussian": { 
		 "optdone": 1, 
		 "sigma_profile": "yes", 
		 "theory": "DFT", 
		 "functional": "B3LYP", 
		 "basiset": "6-31G**", 
		 "properties": { 
			 "R2extent": 6723.5621, 
			 "electric_dipole_moment_norm": 3.29476825589, 
			 "electric_quadrupole_moment_norm": 19.4558098071, 
			 "total_energy": -2655.5063599, 
			 "HOMO_LUMO_gap": 0.20913, 
			 "cosmo_polarized_energy": -10.22, 
			 "cosmo_cavitation_energy": 37.22, 
			 "cosmo_dispersion_energy": -26.28, 
			 "cosmo_repulsion_energy": 2.0, 
			 "cosmo_total_nonelectrostatic_energy": 12.94, 
			 "SMD_solvation_energy": 6.94 
		},
		"coords": [
			{
				"x": -2.7851134646,
				"y": 1.3774570183,
				"z": 2.5383821449,
				"element": "C" 
			},
			{
				"x": -2.0830226008,
				"y": 1.3371081411,
				"z": 1.2787488281,
				"element": "O" 
			},
			{
				"x": -2.2376332328,
				"y": 0.0528313578,
				"z": 0.3166639546,
				"element": "P" 
			},
			{
				"x": -3.996061499,
				"y": -0.4427214018,
				"z": -0.2950388763,
				"element": "S" 
			},
			{
				"x": -1.3986079661,
				"y": -1.0392146042,
				"z": 1.1606954907,
				"element": "O" 
			},
			{
				"x": -1.5243836252,
				"y": -2.4566579462,
				"z": 0.9154060479,
				"element": "C" 
			},
			{
				"x": -1.2560649712,
				"y": 0.5053649267,
				"z": -0.9110872249,
				"element": "O" 
			},
			{
				"x": 0.0968814577,
				"y": 0.7584731054,
				"z": -0.8000975944,
				"element": "C" 
			},
			{
				"x": 0.5622092822,
				"y": 1.8920921141,
				"z": -0.1368860201,
				"element": "C" 
			},
			{
				"x": 1.926101672,
				"y": 2.1788561772,
				"z": -0.0983166237,
				"element": "C" 
			},
			{
				"x": 2.4542973294,
				"y": 3.6066477894,
				"z": 0.7512953381,
				"element": "Cl" 
			},
			{
				"x": 2.8370113644,
				"y": 1.3288222803,
				"z": -0.7407370673,
				"element": "C" 
			},
			{
				"x": 4.5517050942,
				"y": 1.6425467605,
				"z": -0.7259278365,
				"element": "Cl" 
			},
			{
				"x": 2.3702405445,
				"y": 0.2004344424,
				"z": -1.4157242142,
				"element": "C" 
			},
			{
				"x": 1.0081558594,
				"y": -0.0866643393,
				"z": -1.4468099018,
				"element": "C" 
			},
			{
				"x": 0.4493090284,
				"y": -1.499069283,
				"z": -2.3048831601,
				"element": "Cl" 
			},
			{
				"x": -2.4145372164,
				"y": 0.5921509528,
				"z": 3.2025302688,
				"element": "H" 
			},
			{
				"x": -3.8601085287,
				"y": 1.2605193093,
				"z": 2.3769336341,
				"element": "H" 
			},
			{
				"x": -2.5775870464,
				"y": 2.3575155311,
				"z": 2.9682558532,
				"element": "H" 
			},
			{
				"x": -1.0626409585,
				"y": -2.7188200974,
				"z": -0.0395231411,
				"element": "H" 
			},
			{
				"x": -0.9939285922,
				"y": -2.9469788248,
				"z": 1.7323091893,
				"element": "H" 
			},
			{
				"x": -2.5764808381,
				"y": -2.751123748,
				"z": 0.9140852592,
				"element": "H" 
			},
			{
				"x": -0.1487767531,
				"y": 2.5454704332,
				"z": 0.351010207,
				"element": "H" 
			},
			{
				"x": 3.0717356608,
				"y": -0.4546400952,
				"z": -1.9173845555,
				"element": "H" 
			}
		],
		 "valence_orbital": [ 
			{
				"type": "occ",
				"energy": -0.3207,
				"method": "rhf"
			},
			{
				"type": "occ",
				"energy": -0.27362,
				"method": "rhf"
			},
			{
				"type": "occ",
				"energy": -0.25744,
				"method": "rhf"
			},
			{
				"type": "occ",
				"energy": -0.25441,
				"method": "rhf"
			},
			{
				"type": "occ",
				"energy": -0.25161,
				"method": "rhf"
			},
			{
				"type": "unocc",
				"energy": -0.04248,
				"method": "rhf"
			},
			{
				"type": "unocc",
				"energy": -0.03869,
				"method": "rhf"
			},
			{
				"type": "unocc",
				"energy": -0.01839,
				"method": "rhf"
			},
			{
				"type": "unocc",
				"energy": 0.01959,
				"method": "rhf"
			},
			{
				"type": "unocc",
				"energy": 0.03108,
				"method": "rhf"
			}
		],
		"cosmo_sigma_profile": { 
			"-0.025": 0.0,
			"-0.024": 0.0,
			"-0.023": 0.0,
			"-0.022": 0.0,
			"-0.021": 0.0,
			"-0.02": 0.0,
			"-0.019": 0.0,
			"-0.018": 0.0,
			"-0.017": 0.0,
			"-0.016": 0.0,
			"-0.015": 0.0,
			"-0.014": 0.0,
			"-0.013": 0.0,
			"-0.012": 0.0,
			"-0.011": 0.0,
			"-0.01": 0.236531846617,
			"-0.009": 1.24715717005,
			"-0.008": 2.54165948711,
			"-0.007": 6.82781502546,
			"-0.006": 11.9562891896,
			"-0.005": 16.6181989953,
			"-0.004": 24.5042172243,
			"-0.003": 20.3643512073,
			"-0.002": 23.2819839895,
			"-0.001": 34.99595986,
			"0.0": 31.8359162045,
			"0.001": 21.5182383435,
			"0.002": 23.5198760691,
			"0.003": 30.2701126469,
			"0.004": 19.1688234164,
			"0.005": 10.1031810497,
			"0.006": 7.8927947044,
			"0.007": 9.4692977984,
			"0.008": 7.41126482065,
			"0.009": 2.35422530226,
			"0.01": 0.0,
			"0.011": 0.0,
			"0.012": 0.0,
			"0.013": 0.0,
			"0.014": 0.0,
			"0.015": 0.0,
			"0.016": 0.0,
			"0.017": 0.0,
			"0.018": 0.0,
			"0.019": 0.0,
			"0.02": 0.0,
			"0.021": 0.0,
			"0.022": 0.0,
			"0.023": 0.0,
			"0.024": 0.0,
			"0.025": 0.0
		}
	}
}
