{
	 "smiles": "N#CC1=CC=C(N=C1)N1CCNCC1", 
	 "Tm": 404.15, 
	 "num_atms": 26, 
	 "gaussian": { 
		 "optdone": 1, 
		 "sigma_profile": "yes", 
		 "theory": "DFT", 
		 "functional": "B3LYP", 
		 "basiset": "6-31G**", 
		 "properties": { 
			 "R2extent": 4819.7859, 
			 "electric_dipole_moment_norm": 7.6121978495, 
			 "electric_quadrupole_moment_norm": 32.2170341254, 
			 "total_energy": -607.272115074, 
			 "HOMO_LUMO_gap": 0.17778, 
			 "cosmo_polarized_energy": -14.0, 
			 "cosmo_cavitation_energy": 29.28, 
			 "cosmo_dispersion_energy": -21.47, 
			 "cosmo_repulsion_energy": 1.69, 
			 "cosmo_total_nonelectrostatic_energy": 9.5, 
			 "SMD_solvation_energy": 2.36 
		},
		"coords": [
			{
				"x": -4.2480142872,
				"y": 1.2468468373,
				"z": -5.2578637974,
				"element": "N" 
			},
			{
				"x": -3.66851713,
				"y": 1.2331655602,
				"z": -4.2475728375,
				"element": "C" 
			},
			{
				"x": -2.9606200937,
				"y": 1.2130586261,
				"z": -3.0096013237,
				"element": "C" 
			},
			{
				"x": -2.0613597445,
				"y": 2.2360598621,
				"z": -2.6471267822,
				"element": "C" 
			},
			{
				"x": -1.4015783694,
				"y": 2.173559247,
				"z": -1.4370869078,
				"element": "C" 
			},
			{
				"x": -1.6463535201,
				"y": 1.0669670118,
				"z": -0.5766769419,
				"element": "C" 
			},
			{
				"x": -2.5124088957,
				"y": 0.0870887564,
				"z": -0.9235741496,
				"element": "N" 
			},
			{
				"x": -3.1354699594,
				"y": 0.1641311901,
				"z": -2.09168206,
				"element": "C" 
			},
			{
				"x": -1.0189170379,
				"y": 0.9509373748,
				"z": 0.6320136849,
				"element": "N" 
			},
			{
				"x": -1.2739217169,
				"y": -0.1713192992,
				"z": 1.5349666493,
				"element": "C" 
			},
			{
				"x": 0.0419025751,
				"y": -0.8093666948,
				"z": 2.0009746736,
				"element": "C" 
			},
			{
				"x": 1.0535497604,
				"y": 0.2150083021,
				"z": 2.3274307429,
				"element": "N" 
			},
			{
				"x": 0.5161563751,
				"y": 1.5641058429,
				"z": 2.4455194167,
				"element": "C" 
			},
			{
				"x": -0.0773297836,
				"y": 1.9729433748,
				"z": 1.095993657,
				"element": "C" 
			},
			{
				"x": -1.8912915206,
				"y": 3.0698586999,
				"z": -3.3208260183,
				"element": "H" 
			},
			{
				"x": -0.7116646171,
				"y": 2.9590885529,
				"z": -1.1584913471,
				"element": "H" 
			},
			{
				"x": -3.8203798131,
				"y": -0.6482791309,
				"z": -2.3274707009,
				"element": "H" 
			},
			{
				"x": -1.8861242739,
				"y": -0.8967947101,
				"z": 1.0025863798,
				"element": "H" 
			},
			{
				"x": -1.8556133097,
				"y": 0.1776454079,
				"z": 2.3992635207,
				"element": "H" 
			},
			{
				"x": 0.4326617002,
				"y": -1.4558493629,
				"z": 1.2045538455,
				"element": "H" 
			},
			{
				"x": -0.1874454713,
				"y": -1.4579247347,
				"z": 2.859928128,
				"element": "H" 
			},
			{
				"x": 1.5753938247,
				"y": -0.0405816615,
				"z": 3.1576424219,
				"element": "H" 
			},
			{
				"x": -0.2430661925,
				"y": 1.6906164874,
				"z": 3.2392006261,
				"element": "H" 
			},
			{
				"x": 1.3346694286,
				"y": 2.251472475,
				"z": 2.6821806393,
				"element": "H" 
			},
			{
				"x": 0.7410364424,
				"y": 2.0743507575,
				"z": 0.3713233872,
				"element": "H" 
			},
			{
				"x": -0.5756943701,
				"y": 2.949411228,
				"z": 1.1863950936,
				"element": "H" 
			}
		],
		 "valence_orbital": [ 
			{
				"type": "occ",
				"energy": -0.29428,
				"method": "rhf"
			},
			{
				"type": "occ",
				"energy": -0.29275,
				"method": "rhf"
			},
			{
				"type": "occ",
				"energy": -0.26762,
				"method": "rhf"
			},
			{
				"type": "occ",
				"energy": -0.23088,
				"method": "rhf"
			},
			{
				"type": "occ",
				"energy": -0.21195,
				"method": "rhf"
			},
			{
				"type": "unocc",
				"energy": -0.03417,
				"method": "rhf"
			},
			{
				"type": "unocc",
				"energy": -0.02719,
				"method": "rhf"
			},
			{
				"type": "unocc",
				"energy": 0.04448,
				"method": "rhf"
			},
			{
				"type": "unocc",
				"energy": 0.065,
				"method": "rhf"
			},
			{
				"type": "unocc",
				"energy": 0.08604,
				"method": "rhf"
			}
		],
		"cosmo_sigma_profile": { 
			"-0.025": 0.0,
			"-0.024": 0.0,
			"-0.023": 0.0,
			"-0.022": 0.0,
			"-0.021": 0.0,
			"-0.02": 0.0,
			"-0.019": 0.0,
			"-0.018": 0.0,
			"-0.017": 0.0,
			"-0.016": 0.0,
			"-0.015": 0.0,
			"-0.014": 0.0,
			"-0.013": 0.0,
			"-0.012": 0.0,
			"-0.011": 0.443046641258,
			"-0.01": 1.3197877635,
			"-0.009": 1.45278234421,
			"-0.008": 4.34162708985,
			"-0.007": 7.06266633588,
			"-0.006": 9.38749159851,
			"-0.005": 14.4406124556,
			"-0.004": 25.9433881034,
			"-0.003": 26.8838214846,
			"-0.002": 21.3251729887,
			"-0.001": 15.6390584115,
			"0.0": 16.4269742148,
			"0.001": 19.4506820897,
			"0.002": 11.4098022656,
			"0.003": 7.83405735237,
			"0.004": 5.69837896242,
			"0.005": 4.36740377942,
			"0.006": 4.61764988792,
			"0.007": 5.0287121516,
			"0.008": 5.28946793899,
			"0.009": 5.84170067071,
			"0.01": 5.25519011696,
			"0.011": 4.40670849559,
			"0.012": 3.15288798027,
			"0.013": 2.64324219701,
			"0.014": 1.27653589854,
			"0.015": 0.483252502854,
			"0.016": 0.67333652036,
			"0.017": 0.3367715796,
			"0.018": 0.0893477052885,
			"0.019": 0.0,
			"0.02": 0.0,
			"0.021": 0.0,
			"0.022": 0.0,
			"0.023": 0.0,
			"0.024": 0.0,
			"0.025": 0.0
		}
	}
}
