{
	 "smiles": "OC(CN1C=CN=C1)C1=C(Cl)C=C(Cl)C=C1", 
	 "Tm": 409.15, 
	 "num_atms": 26, 
	 "gaussian": { 
		 "optdone": 1, 
		 "sigma_profile": "yes", 
		 "theory": "DFT", 
		 "functional": "B3LYP", 
		 "basiset": "6-31G**", 
		 "properties": { 
			 "R2extent": 5397.8447, 
			 "electric_dipole_moment_norm": 4.82317260836, 
			 "electric_quadrupole_moment_norm": 23.7485520392, 
			 "total_energy": -1530.28529278, 
			 "HOMO_LUMO_gap": 0.19146, 
			 "cosmo_polarized_energy": -18.22, 
			 "cosmo_cavitation_energy": 33.56, 
			 "cosmo_dispersion_energy": -23.26, 
			 "cosmo_repulsion_energy": 1.82, 
			 "cosmo_total_nonelectrostatic_energy": 12.12, 
			 "SMD_solvation_energy": 3.88 
		},
		"coords": [
			{
				"x": 0.2210671622,
				"y": 4.3145372763,
				"z": -0.8531194003,
				"element": "O" 
			},
			{
				"x": 0.7064735671,
				"y": 3.1126238905,
				"z": -0.2575395813,
				"element": "C" 
			},
			{
				"x": 2.2215514996,
				"y": 2.9975960931,
				"z": -0.5764448597,
				"element": "C" 
			},
			{
				"x": 2.8952197141,
				"y": 1.8583164665,
				"z": 0.0171150625,
				"element": "N" 
			},
			{
				"x": 3.4061425912,
				"y": 1.7725788184,
				"z": 1.3005782939,
				"element": "C" 
			},
			{
				"x": 3.9222183529,
				"y": 0.5062211581,
				"z": 1.4092567115,
				"element": "C" 
			},
			{
				"x": 3.7472305189,
				"y": -0.1933059826,
				"z": 0.235794826,
				"element": "N" 
			},
			{
				"x": 3.1301466476,
				"y": 0.6413446912,
				"z": -0.5705263678,
				"element": "C" 
			},
			{
				"x": -0.0964311596,
				"y": 1.967283078,
				"z": -0.8412937732,
				"element": "C" 
			},
			{
				"x": -0.544736471,
				"y": 0.8695484603,
				"z": -0.0944429943,
				"element": "C" 
			},
			{
				"x": -0.2397708257,
				"y": 0.7553842637,
				"z": 1.6341930462,
				"element": "Cl" 
			},
			{
				"x": -1.2650355819,
				"y": -0.1748955281,
				"z": -0.6780678223,
				"element": "C" 
			},
			{
				"x": -1.5476948876,
				"y": -0.1170720597,
				"z": -2.0393065551,
				"element": "C" 
			},
			{
				"x": -2.4518874697,
				"y": -1.4241165676,
				"z": -2.7809966502,
				"element": "Cl" 
			},
			{
				"x": -1.1305084914,
				"y": 0.9630896376,
				"z": -2.816603689,
				"element": "C" 
			},
			{
				"x": -0.4131538185,
				"y": 1.9877546982,
				"z": -2.2077746754,
				"element": "C" 
			},
			{
				"x": 0.6331959038,
				"y": 5.0627207925,
				"z": -0.4019577873,
				"element": "H" 
			},
			{
				"x": 0.573443234,
				"y": 3.1301793588,
				"z": 0.8304539275,
				"element": "H" 
			},
			{
				"x": 2.719199825,
				"y": 3.9109161413,
				"z": -0.2295198963,
				"element": "H" 
			},
			{
				"x": 2.3444921128,
				"y": 2.9530813661,
				"z": -1.6621901171,
				"element": "H" 
			},
			{
				"x": 3.3571504963,
				"y": 2.60282762,
				"z": 1.9889818935,
				"element": "H" 
			},
			{
				"x": 4.4147862183,
				"y": 0.0613651723,
				"z": 2.2629282848,
				"element": "H" 
			},
			{
				"x": 2.8289705374,
				"y": 0.4363860434,
				"z": -1.5892868339,
				"element": "H" 
			},
			{
				"x": -1.597102353,
				"y": -1.0120078596,
				"z": -0.0770156367,
				"element": "H" 
			},
			{
				"x": -1.367621343,
				"y": 1.0006050802,
				"z": -3.8735927162,
				"element": "H" 
			},
			{
				"x": -0.1031459799,
				"y": 2.8464378911,
				"z": -2.7938226897,
				"element": "H" 
			}
		],
		 "valence_orbital": [ 
			{
				"type": "occ",
				"energy": -0.26769,
				"method": "rhf"
			},
			{
				"type": "occ",
				"energy": -0.26527,
				"method": "rhf"
			},
			{
				"type": "occ",
				"energy": -0.26035,
				"method": "rhf"
			},
			{
				"type": "occ",
				"energy": -0.25255,
				"method": "rhf"
			},
			{
				"type": "occ",
				"energy": -0.22402,
				"method": "rhf"
			},
			{
				"type": "unocc",
				"energy": -0.03256,
				"method": "rhf"
			},
			{
				"type": "unocc",
				"energy": -0.02827,
				"method": "rhf"
			},
			{
				"type": "unocc",
				"energy": 0.00429,
				"method": "rhf"
			},
			{
				"type": "unocc",
				"energy": 0.02571,
				"method": "rhf"
			},
			{
				"type": "unocc",
				"energy": 0.0452,
				"method": "rhf"
			}
		],
		"cosmo_sigma_profile": { 
			"-0.025": 0.0,
			"-0.024": 0.0,
			"-0.023": 0.0,
			"-0.022": 0.0,
			"-0.021": 0.0,
			"-0.02": 0.0,
			"-0.019": 0.0,
			"-0.018": 0.0,
			"-0.017": 0.438413138762,
			"-0.016": 1.38824623057,
			"-0.015": 0.935792627477,
			"-0.014": 1.39403153376,
			"-0.013": 1.18004126665,
			"-0.012": 0.874323142801,
			"-0.011": 1.22033206423,
			"-0.01": 1.13198199207,
			"-0.009": 2.25570548752,
			"-0.008": 9.92358743849,
			"-0.007": 12.8212917179,
			"-0.006": 14.2253960445,
			"-0.005": 13.5479134826,
			"-0.004": 12.6238506921,
			"-0.003": 14.8043604562,
			"-0.002": 15.0558448203,
			"-0.001": 14.7492112571,
			"0.0": 19.0603058933,
			"0.001": 25.2627587171,
			"0.002": 24.4708224189,
			"0.003": 19.7127610397,
			"0.004": 21.9317831938,
			"0.005": 10.5928352475,
			"0.006": 7.22925403178,
			"0.007": 4.4038266926,
			"0.008": 2.69592679042,
			"0.009": 3.3306769104,
			"0.01": 2.51307926087,
			"0.011": 2.7020631581,
			"0.012": 2.37157616844,
			"0.013": 1.90210938617,
			"0.014": 0.856965450173,
			"0.015": 1.15836549034,
			"0.016": 1.23494853794,
			"0.017": 1.2743129308,
			"0.018": 0.846867442752,
			"0.019": 0.142131455984,
			"0.02": 0.0,
			"0.021": 0.0,
			"0.022": 0.0,
			"0.023": 0.0,
			"0.024": 0.0,
			"0.025": 0.0
		}
	}
}
