{
	 "smiles": "CC1NC(C(O)=O)C(C)(C)S1", 
	 "Tm": 440.15, 
	 "num_atms": 24, 
	 "gaussian": { 
		 "optdone": 1, 
		 "sigma_profile": "yes", 
		 "theory": "DFT", 
		 "functional": "B3LYP", 
		 "basiset": "6-31G**", 
		 "properties": { 
			 "R2extent": 2016.7903, 
			 "electric_dipole_moment_norm": 3.17598004244, 
			 "electric_quadrupole_moment_norm": 14.5874415714, 
			 "total_energy": -877.983477116, 
			 "HOMO_LUMO_gap": 0.22561, 
			 "cosmo_polarized_energy": -13.55, 
			 "cosmo_cavitation_energy": 26.4, 
			 "cosmo_dispersion_energy": -19.53, 
			 "cosmo_repulsion_energy": 1.51, 
			 "cosmo_total_nonelectrostatic_energy": 8.38, 
			 "SMD_solvation_energy": 4.04 
		},
		"coords": [
			{
				"x": 1.1506465099,
				"y": -2.4169912264,
				"z": -0.8555341459,
				"element": "C" 
			},
			{
				"x": 0.4273679966,
				"y": -1.7611883066,
				"z": 0.3159968206,
				"element": "C" 
			},
			{
				"x": -0.8990910425,
				"y": -1.2606573768,
				"z": -0.052367375,
				"element": "N" 
			},
			{
				"x": -0.7513378441,
				"y": 0.1241213139,
				"z": -0.5284788934,
				"element": "C" 
			},
			{
				"x": -2.1162863406,
				"y": 0.6872721516,
				"z": -0.9459798527,
				"element": "C" 
			},
			{
				"x": -2.9819250949,
				"y": -0.2614950686,
				"z": -1.3571965047,
				"element": "O" 
			},
			{
				"x": -2.3975259967,
				"y": 1.8616341594,
				"z": -0.9611047938,
				"element": "O" 
			},
			{
				"x": 0.0637323652,
				"y": 0.9539204621,
				"z": 0.5012176225,
				"element": "C" 
			},
			{
				"x": -0.7661554837,
				"y": 1.3582688638,
				"z": 1.7292168305,
				"element": "C" 
			},
			{
				"x": 0.7111055426,
				"y": 2.1855192076,
				"z": -0.143422644,
				"element": "C" 
			},
			{
				"x": 1.3883969904,
				"y": -0.2840236283,
				"z": 0.9918789147,
				"element": "S" 
			},
			{
				"x": 2.1535365126,
				"y": -2.7316843628,
				"z": -0.5542191988,
				"element": "H" 
			},
			{
				"x": 0.5924020801,
				"y": -3.2978893766,
				"z": -1.1905160046,
				"element": "H" 
			},
			{
				"x": 1.2598361247,
				"y": -1.728625927,
				"z": -1.6980621309,
				"element": "H" 
			},
			{
				"x": 0.3126157641,
				"y": -2.4838299363,
				"z": 1.1275019523,
				"element": "H" 
			},
			{
				"x": -1.4698908002,
				"y": -1.2371761581,
				"z": 0.792398461,
				"element": "H" 
			},
			{
				"x": -0.1604405148,
				"y": 0.08372802,
				"z": -1.4540404329,
				"element": "H" 
			},
			{
				"x": -2.5354990036,
				"y": -1.1243549152,
				"z": -1.240981718,
				"element": "H" 
			},
			{
				"x": -1.5339023456,
				"y": 2.0831376352,
				"z": 1.4427892505,
				"element": "H" 
			},
			{
				"x": -0.1212166898,
				"y": 1.8110195299,
				"z": 2.4867980654,
				"element": "H" 
			},
			{
				"x": -1.2544910507,
				"y": 0.4971897257,
				"z": 2.1979128171,
				"element": "H" 
			},
			{
				"x": 1.3234234187,
				"y": 1.9059061596,
				"z": -1.0055648546,
				"element": "H" 
			},
			{
				"x": 1.3535502894,
				"y": 2.708547126,
				"z": 0.5710743208,
				"element": "H" 
			},
			{
				"x": -0.072951387,
				"y": 2.8730519281,
				"z": -0.473016506,
				"element": "H" 
			}
		],
		 "valence_orbital": [ 
			{
				"type": "occ",
				"energy": -0.31906,
				"method": "rhf"
			},
			{
				"type": "occ",
				"energy": -0.31668,
				"method": "rhf"
			},
			{
				"type": "occ",
				"energy": -0.27406,
				"method": "rhf"
			},
			{
				"type": "occ",
				"energy": -0.27189,
				"method": "rhf"
			},
			{
				"type": "occ",
				"energy": -0.22928,
				"method": "rhf"
			},
			{
				"type": "unocc",
				"energy": -0.00367,
				"method": "rhf"
			},
			{
				"type": "unocc",
				"energy": 0.00995,
				"method": "rhf"
			},
			{
				"type": "unocc",
				"energy": 0.04999,
				"method": "rhf"
			},
			{
				"type": "unocc",
				"energy": 0.06457,
				"method": "rhf"
			},
			{
				"type": "unocc",
				"energy": 0.08303,
				"method": "rhf"
			}
		],
		"cosmo_sigma_profile": { 
			"-0.025": 0.0,
			"-0.024": 0.0,
			"-0.023": 0.0,
			"-0.022": 0.0,
			"-0.021": 0.0,
			"-0.02": 0.0,
			"-0.019": 0.0,
			"-0.018": 0.0,
			"-0.017": 0.0,
			"-0.016": 0.0,
			"-0.015": 0.0,
			"-0.014": 0.0803961560692,
			"-0.013": 0.658930847774,
			"-0.012": 2.96670119733,
			"-0.011": 2.82757174269,
			"-0.01": 2.66949143187,
			"-0.009": 3.23232992941,
			"-0.008": 4.72309296642,
			"-0.007": 5.77500411478,
			"-0.006": 8.27621250854,
			"-0.005": 6.34257684548,
			"-0.004": 14.3266559262,
			"-0.003": 17.8491862962,
			"-0.002": 16.8359708527,
			"-0.001": 17.1614078904,
			"0.0": 24.7432644547,
			"0.001": 14.3148433941,
			"0.002": 6.26453329428,
			"0.003": 6.23172404666,
			"0.004": 5.31496310568,
			"0.005": 6.61052143157,
			"0.006": 7.5476415304,
			"0.007": 5.42066596871,
			"0.008": 5.64217131612,
			"0.009": 5.64573240228,
			"0.01": 6.86212859998,
			"0.011": 5.13819592257,
			"0.012": 3.10473470965,
			"0.013": 0.892106248422,
			"0.014": 0.0,
			"0.015": 0.0,
			"0.016": 0.0,
			"0.017": 0.0,
			"0.018": 0.0,
			"0.019": 0.0,
			"0.02": 0.0,
			"0.021": 0.0,
			"0.022": 0.0,
			"0.023": 0.0,
			"0.024": 0.0,
			"0.025": 0.0
		}
	}
}
