{
	 "smiles": "CN(C)C(=O)C1=CC=C(N1)C=O", 
	 "Tm": 439.15, 
	 "num_atms": 22, 
	 "gaussian": { 
		 "optdone": 1, 
		 "sigma_profile": "yes", 
		 "theory": "DFT", 
		 "functional": "B3LYP", 
		 "basiset": "6-31G**", 
		 "properties": { 
			 "R2extent": 2568.4132, 
			 "electric_dipole_moment_norm": 2.28700465456, 
			 "electric_quadrupole_moment_norm": 18.408842751, 
			 "total_energy": -570.823579531, 
			 "HOMO_LUMO_gap": 0.17027, 
			 "cosmo_polarized_energy": -14.83, 
			 "cosmo_cavitation_energy": 26.43, 
			 "cosmo_dispersion_energy": -18.78, 
			 "cosmo_repulsion_energy": 1.5, 
			 "cosmo_total_nonelectrostatic_energy": 9.15, 
			 "SMD_solvation_energy": 6.2 
		},
		"coords": [
			{
				"x": -3.0900167359,
				"y": 0.0402399339,
				"z": 2.7557898665,
				"element": "C" 
			},
			{
				"x": -1.9983820861,
				"y": -0.0941385823,
				"z": 1.7982270827,
				"element": "N" 
			},
			{
				"x": -1.2810558417,
				"y": -1.3627782839,
				"z": 1.8614764763,
				"element": "C" 
			},
			{
				"x": -1.4936696205,
				"y": 1.0680936715,
				"z": 1.2493409138,
				"element": "C" 
			},
			{
				"x": -1.8790174272,
				"y": 2.1810702445,
				"z": 1.5993452434,
				"element": "O" 
			},
			{
				"x": -0.4977325887,
				"y": 0.9629257199,
				"z": 0.1483945172,
				"element": "C" 
			},
			{
				"x": 0.466890186,
				"y": 1.9144823523,
				"z": -0.1865195545,
				"element": "C" 
			},
			{
				"x": 1.1229984708,
				"y": 1.4673599869,
				"z": -1.3472650468,
				"element": "C" 
			},
			{
				"x": 0.5366235467,
				"y": 0.2553168448,
				"z": -1.7162430826,
				"element": "C" 
			},
			{
				"x": -0.4357221264,
				"y": -0.0330008975,
				"z": -0.7879172942,
				"element": "N" 
			},
			{
				"x": 0.766560866,
				"y": -0.6499481052,
				"z": -2.8239832623,
				"element": "C" 
			},
			{
				"x": 0.1272666528,
				"y": -1.6827898586,
				"z": -2.9854946377,
				"element": "O" 
			},
			{
				"x": -3.7680560764,
				"y": -0.8135695131,
				"z": 2.6534694579,
				"element": "H" 
			},
			{
				"x": -3.6250823048,
				"y": 0.9673406665,
				"z": 2.5576490287,
				"element": "H" 
			},
			{
				"x": -2.7173807509,
				"y": 0.067701154,
				"z": 3.7890203307,
				"element": "H" 
			},
			{
				"x": -1.0533934121,
				"y": -1.6115740239,
				"z": 2.9064049612,
				"element": "H" 
			},
			{
				"x": -0.337661879,
				"y": -1.3081971483,
				"z": 1.320859612,
				"element": "H" 
			},
			{
				"x": -1.8832048974,
				"y": -2.1814674357,
				"z": 1.4469275253,
				"element": "H" 
			},
			{
				"x": 0.6444916695,
				"y": 2.8226091284,
				"z": 0.3700217216,
				"element": "H" 
			},
			{
				"x": 1.9303240684,
				"y": 1.9593435181,
				"z": -1.8722216758,
				"element": "H" 
			},
			{
				"x": -1.0469455599,
				"y": -0.8312005758,
				"z": -0.8863166991,
				"element": "H" 
			},
			{
				"x": 1.5678658469,
				"y": -0.3446187965,
				"z": -3.526665484,
				"element": "H" 
			}
		],
		 "valence_orbital": [ 
			{
				"type": "occ",
				"energy": -0.27049,
				"method": "rhf"
			},
			{
				"type": "occ",
				"energy": -0.26748,
				"method": "rhf"
			},
			{
				"type": "occ",
				"energy": -0.25951,
				"method": "rhf"
			},
			{
				"type": "occ",
				"energy": -0.24692,
				"method": "rhf"
			},
			{
				"type": "occ",
				"energy": -0.23377,
				"method": "rhf"
			},
			{
				"type": "unocc",
				"energy": -0.0635,
				"method": "rhf"
			},
			{
				"type": "unocc",
				"energy": -0.00114,
				"method": "rhf"
			},
			{
				"type": "unocc",
				"energy": 0.06852,
				"method": "rhf"
			},
			{
				"type": "unocc",
				"energy": 0.08051,
				"method": "rhf"
			},
			{
				"type": "unocc",
				"energy": 0.09513,
				"method": "rhf"
			}
		],
		"cosmo_sigma_profile": { 
			"-0.025": 0.0,
			"-0.024": 0.0,
			"-0.023": 0.0,
			"-0.022": 0.0,
			"-0.021": 0.0,
			"-0.02": 0.0,
			"-0.019": 0.0,
			"-0.018": 0.0,
			"-0.017": 0.0,
			"-0.016": 0.0,
			"-0.015": 0.151082274931,
			"-0.014": 0.436530790992,
			"-0.013": 1.07406073715,
			"-0.012": 0.661830083648,
			"-0.011": 1.2905408162,
			"-0.01": 1.02775616693,
			"-0.009": 1.24893004996,
			"-0.008": 1.19916964343,
			"-0.007": 8.60970164602,
			"-0.006": 8.92724463178,
			"-0.005": 19.0304648184,
			"-0.004": 21.3561288066,
			"-0.003": 21.529983098,
			"-0.002": 22.8266380406,
			"-0.001": 13.4162341905,
			"0.0": 11.3076768902,
			"0.001": 9.13098737003,
			"0.002": 9.03713445729,
			"0.003": 8.04058512842,
			"0.004": 7.82193786399,
			"0.005": 5.81275471271,
			"0.006": 3.22173715656,
			"0.007": 2.40772302913,
			"0.008": 3.10450695141,
			"0.009": 3.40563647592,
			"0.01": 3.82486289921,
			"0.011": 4.93778400537,
			"0.012": 5.82646724331,
			"0.013": 5.92841599645,
			"0.014": 3.4373893597,
			"0.015": 0.105744977157,
			"0.016": 0.0,
			"0.017": 0.0,
			"0.018": 0.0,
			"0.019": 0.0,
			"0.02": 0.0,
			"0.021": 0.0,
			"0.022": 0.0,
			"0.023": 0.0,
			"0.024": 0.0,
			"0.025": 0.0
		}
	}
}
