{
	 "smiles": "OC1=CC(=NC2=CC=C(Br)C=C12)C(F)(F)F", 
	 "Tm": 563.15, 
	 "num_atms": 21, 
	 "gaussian": { 
		 "optdone": 1, 
		 "sigma_profile": "yes", 
		 "theory": "DFT", 
		 "functional": "B3LYP", 
		 "basiset": "6-31G**", 
		 "properties": { 
			 "R2extent": 6418.117, 
			 "electric_dipole_moment_norm": 2.92423725098, 
			 "electric_quadrupole_moment_norm": 18.1673280242, 
			 "total_energy": -3384.98810656, 
			 "HOMO_LUMO_gap": 0.16985, 
			 "cosmo_polarized_energy": -11.68, 
			 "cosmo_cavitation_energy": 29.87, 
			 "cosmo_dispersion_energy": -22.05, 
			 "cosmo_repulsion_energy": 1.64, 
			 "cosmo_total_nonelectrostatic_energy": 9.46, 
			 "SMD_solvation_energy": 4.0 
		},
		"coords": [
			{
				"x": 2.4858138464,
				"y": -0.0609563542,
				"z": 1.7606523212,
				"element": "O" 
			},
			{
				"x": 1.4630550312,
				"y": 0.3768487026,
				"z": 0.9901770603,
				"element": "C" 
			},
			{
				"x": 1.1428418,
				"y": 1.7106430433,
				"z": 0.8273480337,
				"element": "C" 
			},
			{
				"x": 0.0501772408,
				"y": 2.0354130733,
				"z": -0.0051609148,
				"element": "C" 
			},
			{
				"x": -0.6989512451,
				"y": 1.1655370159,
				"z": -0.6474309868,
				"element": "N" 
			},
			{
				"x": -0.3928217499,
				"y": -0.152670084,
				"z": -0.4945789049,
				"element": "C" 
			},
			{
				"x": -1.1840034256,
				"y": -1.1156255456,
				"z": -1.1758219057,
				"element": "C" 
			},
			{
				"x": -0.9184494311,
				"y": -2.4598406003,
				"z": -1.0563918275,
				"element": "C" 
			},
			{
				"x": 0.1571843567,
				"y": -2.892253096,
				"z": -0.2443111872,
				"element": "C" 
			},
			{
				"x": 0.4966096468,
				"y": -4.7654098216,
				"z": -0.1017756316,
				"element": "Br" 
			},
			{
				"x": 0.9532059107,
				"y": -2.0007356771,
				"z": 0.4360122884,
				"element": "C" 
			},
			{
				"x": 0.6879291772,
				"y": -0.6137075391,
				"z": 0.3196142425,
				"element": "C" 
			},
			{
				"x": -0.3365281216,
				"y": 3.4904875241,
				"z": -0.2120442008,
				"element": "C" 
			},
			{
				"x": 0.4807137931,
				"y": 4.3210300416,
				"z": 0.480242708,
				"element": "F" 
			},
			{
				"x": -1.5946011136,
				"y": 3.7265510298,
				"z": 0.2007792256,
				"element": "F" 
			},
			{
				"x": -0.259728057,
				"y": 3.8381908315,
				"z": -1.5089945519,
				"element": "F" 
			},
			{
				"x": 2.9379095919,
				"y": 0.6929702784,
				"z": 2.1633234677,
				"element": "H" 
			},
			{
				"x": 1.7074418921,
				"y": 2.4943476397,
				"z": 1.319888896,
				"element": "H" 
			},
			{
				"x": -2.0009228033,
				"y": -0.7530467553,
				"z": -1.7903520695,
				"element": "H" 
			},
			{
				"x": -1.5232183105,
				"y": -3.1934913979,
				"z": -1.5769903202,
				"element": "H" 
			},
			{
				"x": 1.7738419708,
				"y": -2.3405823091,
				"z": 1.0549142575,
				"element": "H" 
			}
		],
		 "valence_orbital": [ 
			{
				"type": "occ",
				"energy": -0.29646,
				"method": "rhf"
			},
			{
				"type": "occ",
				"energy": -0.29545,
				"method": "rhf"
			},
			{
				"type": "occ",
				"energy": -0.27896,
				"method": "rhf"
			},
			{
				"type": "occ",
				"energy": -0.26503,
				"method": "rhf"
			},
			{
				"type": "occ",
				"energy": -0.23863,
				"method": "rhf"
			},
			{
				"type": "unocc",
				"energy": -0.06878,
				"method": "rhf"
			},
			{
				"type": "unocc",
				"energy": -0.04116,
				"method": "rhf"
			},
			{
				"type": "unocc",
				"energy": -0.00069,
				"method": "rhf"
			},
			{
				"type": "unocc",
				"energy": 0.00545,
				"method": "rhf"
			},
			{
				"type": "unocc",
				"energy": 0.04297,
				"method": "rhf"
			}
		],
		"cosmo_sigma_profile": { 
			"-0.025": 0.0,
			"-0.024": 0.0,
			"-0.023": 0.0,
			"-0.022": 0.0,
			"-0.021": 0.0,
			"-0.02": 0.21023607434,
			"-0.019": 1.37374182029,
			"-0.018": 1.25939665559,
			"-0.017": 1.4283611039,
			"-0.016": 1.14714636906,
			"-0.015": 0.427336829157,
			"-0.014": 0.82597338214,
			"-0.013": 1.22541533855,
			"-0.012": 1.46211910524,
			"-0.011": 1.23266696997,
			"-0.01": 0.363430233701,
			"-0.009": 1.29871226695,
			"-0.008": 2.50178963181,
			"-0.007": 5.00456307287,
			"-0.006": 6.18928614299,
			"-0.005": 7.17701203545,
			"-0.004": 7.97722364256,
			"-0.003": 10.2956253407,
			"-0.002": 13.4686270048,
			"-0.001": 18.7417594839,
			"0.0": 25.1643164522,
			"0.001": 29.1867792733,
			"0.002": 37.0676829962,
			"0.003": 32.9484274295,
			"0.004": 16.1833266796,
			"0.005": 6.04912047737,
			"0.006": 3.87645831814,
			"0.007": 4.19123926765,
			"0.008": 1.74543445578,
			"0.009": 0.897674955283,
			"0.01": 1.06438493428,
			"0.011": 0.843495623015,
			"0.012": 0.856633278739,
			"0.013": 0.49211908247,
			"0.014": 0.0686180524789,
			"0.015": 0.0,
			"0.016": 0.0,
			"0.017": 0.0,
			"0.018": 0.0,
			"0.019": 0.0,
			"0.02": 0.0,
			"0.021": 0.0,
			"0.022": 0.0,
			"0.023": 0.0,
			"0.024": 0.0,
			"0.025": 0.0
		}
	}
}
