{
	 "smiles": "O=C(CC#N)C1=C2OCCOC2=CC=C1", 
	 "Tm": 373.15, 
	 "num_atms": 24, 
	 "gaussian": { 
		 "optdone": 1, 
		 "sigma_profile": "yes", 
		 "theory": "DFT", 
		 "functional": "B3LYP", 
		 "basiset": "6-31G**", 
		 "properties": { 
			 "R2extent": 3077.058, 
			 "electric_dipole_moment_norm": 4.36210066138, 
			 "electric_quadrupole_moment_norm": 18.2417457649, 
			 "total_energy": -704.973585012, 
			 "HOMO_LUMO_gap": 0.1626, 
			 "cosmo_polarized_energy": -14.29, 
			 "cosmo_cavitation_energy": 28.67, 
			 "cosmo_dispersion_energy": -20.23, 
			 "cosmo_repulsion_energy": 1.57, 
			 "cosmo_total_nonelectrostatic_energy": 10.02, 
			 "SMD_solvation_energy": 7.08 
		},
		"coords": [
			{
				"x": 1.1378153667,
				"y": 0.7786915663,
				"z": 3.0276135804,
				"element": "O" 
			},
			{
				"x": 0.5926278075,
				"y": 0.04321579,
				"z": 2.2227030332,
				"element": "C" 
			},
			{
				"x": -0.4789401004,
				"y": -0.9344593842,
				"z": 2.7605454294,
				"element": "C" 
			},
			{
				"x": -0.2066833442,
				"y": -2.3407969285,
				"z": 2.4639785855,
				"element": "C" 
			},
			{
				"x": 0.0227012072,
				"y": -3.4575576475,
				"z": 2.2457082049,
				"element": "N" 
			},
			{
				"x": 0.9624127136,
				"y": 0.072957202,
				"z": 0.7768244877,
				"element": "C" 
			},
			{
				"x": 0.2017306639,
				"y": -0.5005795289,
				"z": -0.2642966153,
				"element": "C" 
			},
			{
				"x": -1.0049454634,
				"y": -1.0758810944,
				"z": 0.0256759713,
				"element": "O" 
			},
			{
				"x": -1.8112141602,
				"y": -1.445440081,
				"z": -1.0993276132,
				"element": "C" 
			},
			{
				"x": -0.9400817432,
				"y": -2.03017266,
				"z": -2.1939932717,
				"element": "C" 
			},
			{
				"x": 0.0053011344,
				"y": -1.0499495916,
				"z": -2.6211227325,
				"element": "O" 
			},
			{
				"x": 0.6866147878,
				"y": -0.4582671487,
				"z": -1.586255384,
				"element": "C" 
			},
			{
				"x": 1.8801361938,
				"y": 0.1969103774,
				"z": -1.8765221313,
				"element": "C" 
			},
			{
				"x": 2.6127936543,
				"y": 0.8064483647,
				"z": -0.8565849448,
				"element": "C" 
			},
			{
				"x": 2.1610233206,
				"y": 0.735417311,
				"z": 0.4541853354,
				"element": "C" 
			},
			{
				"x": -1.4545674096,
				"y": -0.6735617124,
				"z": 2.3391800405,
				"element": "H" 
			},
			{
				"x": -0.5064948151,
				"y": -0.7874423106,
				"z": 3.843372844,
				"element": "H" 
			},
			{
				"x": -2.5362932942,
				"y": -2.1726186261,
				"z": -0.7266910916,
				"element": "H" 
			},
			{
				"x": -2.3421590213,
				"y": -0.5603000496,
				"z": -1.4722422821,
				"element": "H" 
			},
			{
				"x": -0.4177694952,
				"y": -2.9226942428,
				"z": -1.8246840379,
				"element": "H" 
			},
			{
				"x": -1.5323664216,
				"y": -2.2967985625,
				"z": -3.0722366586,
				"element": "H" 
			},
			{
				"x": 2.2161086338,
				"y": 0.2107914737,
				"z": -2.9084537032,
				"element": "H" 
			},
			{
				"x": 3.5415207844,
				"y": 1.3169199703,
				"z": -1.0892329446,
				"element": "H" 
			},
			{
				"x": 2.7191290005,
				"y": 1.1817675136,
				"z": 1.2689558986,
				"element": "H" 
			}
		],
		 "valence_orbital": [ 
			{
				"type": "occ",
				"energy": -0.32268,
				"method": "rhf"
			},
			{
				"type": "occ",
				"energy": -0.31879,
				"method": "rhf"
			},
			{
				"type": "occ",
				"energy": -0.26415,
				"method": "rhf"
			},
			{
				"type": "occ",
				"energy": -0.25371,
				"method": "rhf"
			},
			{
				"type": "occ",
				"energy": -0.22878,
				"method": "rhf"
			},
			{
				"type": "unocc",
				"energy": -0.06618,
				"method": "rhf"
			},
			{
				"type": "unocc",
				"energy": -0.00164,
				"method": "rhf"
			},
			{
				"type": "unocc",
				"energy": 0.02056,
				"method": "rhf"
			},
			{
				"type": "unocc",
				"energy": 0.03826,
				"method": "rhf"
			},
			{
				"type": "unocc",
				"energy": 0.04848,
				"method": "rhf"
			}
		],
		"cosmo_sigma_profile": { 
			"-0.025": 0.0,
			"-0.024": 0.0,
			"-0.023": 0.0,
			"-0.022": 0.0,
			"-0.021": 0.0,
			"-0.02": 0.0,
			"-0.019": 0.0,
			"-0.018": 0.0,
			"-0.017": 0.0,
			"-0.016": 0.0,
			"-0.015": 0.0,
			"-0.014": 0.0,
			"-0.013": 0.0,
			"-0.012": 0.0,
			"-0.011": 0.0,
			"-0.01": 0.0117370953267,
			"-0.009": 2.46603618058,
			"-0.008": 6.64860487021,
			"-0.007": 15.7944408884,
			"-0.006": 20.644191656,
			"-0.005": 20.1759980494,
			"-0.004": 15.9222879258,
			"-0.003": 12.3204791065,
			"-0.002": 11.1818802812,
			"-0.001": 11.0470059493,
			"0.0": 12.1429092477,
			"0.001": 13.9218879711,
			"0.002": 14.1886603134,
			"0.003": 15.0750505854,
			"0.004": 9.42015886998,
			"0.005": 5.48920844182,
			"0.006": 6.5048142144,
			"0.007": 5.51835003864,
			"0.008": 6.32464691378,
			"0.009": 6.24277730686,
			"0.01": 7.47858909789,
			"0.011": 6.46405066889,
			"0.012": 3.03815925963,
			"0.013": 1.83547377861,
			"0.014": 0.119652256204,
			"0.015": 0.0,
			"0.016": 0.0,
			"0.017": 0.0,
			"0.018": 0.0,
			"0.019": 0.0,
			"0.02": 0.0,
			"0.021": 0.0,
			"0.022": 0.0,
			"0.023": 0.0,
			"0.024": 0.0,
			"0.025": 0.0
		}
	}
}
