{
	 "smiles": "CC1=NC2=C(N1)C=C(Cl)C=C2", 
	 "Tm": 470.15, 
	 "num_atms": 18, 
	 "gaussian": { 
		 "optdone": 1, 
		 "sigma_profile": "yes", 
		 "theory": "DFT", 
		 "functional": "B3LYP", 
		 "basiset": "6-31G**", 
		 "properties": { 
			 "R2extent": 3930.0966, 
			 "electric_dipole_moment_norm": 3.99697054905, 
			 "electric_quadrupole_moment_norm": 19.9701654437, 
			 "total_energy": -878.786294636, 
			 "HOMO_LUMO_gap": 0.19908, 
			 "cosmo_polarized_energy": -12.84, 
			 "cosmo_cavitation_energy": 23.91, 
			 "cosmo_dispersion_energy": -18.22, 
			 "cosmo_repulsion_energy": 1.46, 
			 "cosmo_total_nonelectrostatic_energy": 7.16, 
			 "SMD_solvation_energy": 1.7 
		},
		"coords": [
			{
				"x": -1.3474544968,
				"y": -3.6413427964,
				"z": 1.9052988498,
				"element": "C" 
			},
			{
				"x": -1.48996015,
				"y": -2.1923912401,
				"z": 1.5739968734,
				"element": "C" 
			},
			{
				"x": -1.6047771041,
				"y": -1.697101139,
				"z": 0.3658440816,
				"element": "N" 
			},
			{
				"x": -1.7102563017,
				"y": -0.3241894634,
				"z": 0.5412088297,
				"element": "C" 
			},
			{
				"x": -1.654910004,
				"y": 0.0038262855,
				"z": 1.9183251917,
				"element": "C" 
			},
			{
				"x": -1.5133441492,
				"y": -1.2155269369,
				"z": 2.5557196545,
				"element": "N" 
			},
			{
				"x": -1.7371680316,
				"y": 1.3135647369,
				"z": 2.3903411067,
				"element": "C" 
			},
			{
				"x": -1.8791973821,
				"y": 2.2998189448,
				"z": 1.4183636939,
				"element": "C" 
			},
			{
				"x": -1.990299843,
				"y": 3.9809808644,
				"z": 1.933470226,
				"element": "Cl" 
			},
			{
				"x": -1.9378348115,
				"y": 2.0116841009,
				"z": 0.0423859253,
				"element": "C" 
			},
			{
				"x": -1.853644061,
				"y": 0.6970320628,
				"z": -0.4045817035,
				"element": "C" 
			},
			{
				"x": -1.3550737746,
				"y": -4.2134909507,
				"z": 0.9772584075,
				"element": "H" 
			},
			{
				"x": -2.1693021041,
				"y": -3.9918512469,
				"z": 2.5404415338,
				"element": "H" 
			},
			{
				"x": -0.4086873631,
				"y": -3.8429993331,
				"z": 2.434209581,
				"element": "H" 
			},
			{
				"x": -1.4403737662,
				"y": -1.3697265771,
				"z": 3.5492918621,
				"element": "H" 
			},
			{
				"x": -1.6949455805,
				"y": 1.5658711367,
				"z": 3.4438455229,
				"element": "H" 
			},
			{
				"x": -2.0493416608,
				"y": 2.8279300281,
				"z": -0.6622058284,
				"element": "H" 
			},
			{
				"x": -1.8976294156,
				"y": 0.4623115235,
				"z": -1.462913808,
				"element": "H" 
			}
		],
		 "valence_orbital": [ 
			{
				"type": "occ",
				"energy": -0.30751,
				"method": "rhf"
			},
			{
				"type": "occ",
				"energy": -0.30064,
				"method": "rhf"
			},
			{
				"type": "occ",
				"energy": -0.27452,
				"method": "rhf"
			},
			{
				"type": "occ",
				"energy": -0.23595,
				"method": "rhf"
			},
			{
				"type": "occ",
				"energy": -0.22084,
				"method": "rhf"
			},
			{
				"type": "unocc",
				"energy": -0.02176,
				"method": "rhf"
			},
			{
				"type": "unocc",
				"energy": 0.01262,
				"method": "rhf"
			},
			{
				"type": "unocc",
				"energy": 0.03394,
				"method": "rhf"
			},
			{
				"type": "unocc",
				"energy": 0.04826,
				"method": "rhf"
			},
			{
				"type": "unocc",
				"energy": 0.06734,
				"method": "rhf"
			}
		],
		"cosmo_sigma_profile": { 
			"-0.025": 0.0,
			"-0.024": 0.0,
			"-0.023": 0.0,
			"-0.022": 0.0,
			"-0.021": 0.0,
			"-0.02": 0.0,
			"-0.019": 0.0,
			"-0.018": 0.0,
			"-0.017": 0.351779302842,
			"-0.016": 1.57446173433,
			"-0.015": 1.09382030257,
			"-0.014": 1.61921313715,
			"-0.013": 1.36974471526,
			"-0.012": 1.02773200881,
			"-0.011": 1.50956252614,
			"-0.01": 1.66146867078,
			"-0.009": 1.01928966565,
			"-0.008": 2.98240833482,
			"-0.007": 3.94028176679,
			"-0.006": 10.4594432602,
			"-0.005": 11.2334842206,
			"-0.004": 10.3972886201,
			"-0.003": 10.1298625854,
			"-0.002": 12.8911983555,
			"-0.001": 12.2680438537,
			"0.0": 10.5052264741,
			"0.001": 13.0714364533,
			"0.002": 14.9915988991,
			"0.003": 18.7510031699,
			"0.004": 20.4315933526,
			"0.005": 14.7959485559,
			"0.006": 2.82713275781,
			"0.007": 1.6859647137,
			"0.008": 1.57048941965,
			"0.009": 1.72660268721,
			"0.01": 0.84990008983,
			"0.011": 1.17832236414,
			"0.012": 0.425807714614,
			"0.013": 1.3793901798,
			"0.014": 1.00036911171,
			"0.015": 0.940853346606,
			"0.016": 1.08970568582,
			"0.017": 0.660113262249,
			"0.018": 0.387321299202,
			"0.019": 0.0,
			"0.02": 0.0,
			"0.021": 0.0,
			"0.022": 0.0,
			"0.023": 0.0,
			"0.024": 0.0,
			"0.025": 0.0
		}
	}
}
