{
	 "smiles": "CCOC(=O)CC1=CC=NC=C1", 
	 "Tm": 292.15, 
	 "num_atms": 23, 
	 "gaussian": { 
		 "optdone": 1, 
		 "sigma_profile": "yes", 
		 "theory": "DFT", 
		 "functional": "B3LYP", 
		 "basiset": "6-31G**", 
		 "properties": { 
			 "R2extent": 3693.5734, 
			 "electric_dipole_moment_norm": 3.50809608905, 
			 "electric_quadrupole_moment_norm": 10.1462480686, 
			 "total_energy": -554.79788654, 
			 "HOMO_LUMO_gap": 0.22422, 
			 "cosmo_polarized_energy": -10.27, 
			 "cosmo_cavitation_energy": 27.35, 
			 "cosmo_dispersion_energy": -19.76, 
			 "cosmo_repulsion_energy": 1.62, 
			 "cosmo_total_nonelectrostatic_energy": 9.21, 
			 "SMD_solvation_energy": 4.35 
		},
		"coords": [
			{
				"x": -2.7196780536,
				"y": 2.6644288292,
				"z": -2.0473865507,
				"element": "C" 
			},
			{
				"x": -2.3709453805,
				"y": 1.5801630035,
				"z": -1.0462546981,
				"element": "C" 
			},
			{
				"x": -1.890459924,
				"y": 0.4352450221,
				"z": -1.7943896358,
				"element": "O" 
			},
			{
				"x": -1.5305486189,
				"y": -0.6352373623,
				"z": -1.061850756,
				"element": "C" 
			},
			{
				"x": -1.5965634744,
				"y": -0.6826081274,
				"z": 0.1485190697,
				"element": "O" 
			},
			{
				"x": -1.0283000171,
				"y": -1.7706841314,
				"z": -1.9437295039,
				"element": "C" 
			},
			{
				"x": 0.4539899243,
				"y": -2.0393359321,
				"z": -1.7525898305,
				"element": "C" 
			},
			{
				"x": 1.3356852703,
				"y": -2.0091516659,
				"z": -2.8362859926,
				"element": "C" 
			},
			{
				"x": 2.6879020217,
				"y": -2.2813785221,
				"z": -2.6206498721,
				"element": "C" 
			},
			{
				"x": 3.2076264481,
				"y": -2.5709910172,
				"z": -1.4226355471,
				"element": "N" 
			},
			{
				"x": 2.3562155805,
				"y": -2.5927482939,
				"z": -0.3876003067,
				"element": "C" 
			},
			{
				"x": 0.989490301,
				"y": -2.3395349559,
				"z": -0.4944019804,
				"element": "C" 
			},
			{
				"x": -1.8425422692,
				"y": 2.9529378355,
				"z": -2.6335565519,
				"element": "H" 
			},
			{
				"x": -3.0876111616,
				"y": 3.5501025804,
				"z": -1.520252396,
				"element": "H" 
			},
			{
				"x": -3.4989555011,
				"y": 2.3259537217,
				"z": -2.7362360434,
				"element": "H" 
			},
			{
				"x": -3.236338342,
				"y": 1.2719111377,
				"z": -0.4514609962,
				"element": "H" 
			},
			{
				"x": -1.5882132469,
				"y": 1.8959100008,
				"z": -0.3497295688,
				"element": "H" 
			},
			{
				"x": -1.5995565449,
				"y": -2.6618118674,
				"z": -1.6582636971,
				"element": "H" 
			},
			{
				"x": -1.2433916792,
				"y": -1.5473824481,
				"z": -2.9902012106,
				"element": "H" 
			},
			{
				"x": 0.9794267523,
				"y": -1.7796256091,
				"z": -3.8366933332,
				"element": "H" 
			},
			{
				"x": 3.38615244,
				"y": -2.263777203,
				"z": -3.4561552573,
				"element": "H" 
			},
			{
				"x": 2.7902463108,
				"y": -2.8266836119,
				"z": 0.5831268396,
				"element": "H" 
			},
			{
				"x": 0.3523691642,
				"y": -2.3583013832,
				"z": 0.3832778192,
				"element": "H" 
			}
		],
		 "valence_orbital": [ 
			{
				"type": "occ",
				"energy": -0.30722,
				"method": "rhf"
			},
			{
				"type": "occ",
				"energy": -0.28631,
				"method": "rhf"
			},
			{
				"type": "occ",
				"energy": -0.27019,
				"method": "rhf"
			},
			{
				"type": "occ",
				"energy": -0.25953,
				"method": "rhf"
			},
			{
				"type": "occ",
				"energy": -0.25039,
				"method": "rhf"
			},
			{
				"type": "unocc",
				"energy": -0.02617,
				"method": "rhf"
			},
			{
				"type": "unocc",
				"energy": -0.00926,
				"method": "rhf"
			},
			{
				"type": "unocc",
				"energy": 0.00894,
				"method": "rhf"
			},
			{
				"type": "unocc",
				"energy": 0.09577,
				"method": "rhf"
			},
			{
				"type": "unocc",
				"energy": 0.10324,
				"method": "rhf"
			}
		],
		"cosmo_sigma_profile": { 
			"-0.025": 0.0,
			"-0.024": 0.0,
			"-0.023": 0.0,
			"-0.022": 0.0,
			"-0.021": 0.0,
			"-0.02": 0.0,
			"-0.019": 0.0,
			"-0.018": 0.0,
			"-0.017": 0.0,
			"-0.016": 0.0,
			"-0.015": 0.0,
			"-0.014": 0.0,
			"-0.013": 0.0,
			"-0.012": 0.0,
			"-0.011": 0.0,
			"-0.01": 0.0,
			"-0.009": 0.0,
			"-0.008": 0.413052811463,
			"-0.007": 6.20747981697,
			"-0.006": 11.7118591354,
			"-0.005": 18.0952930643,
			"-0.004": 24.4663570737,
			"-0.003": 21.7522439185,
			"-0.002": 20.0625287583,
			"-0.001": 15.1445896908,
			"0.0": 16.5062400187,
			"0.001": 11.4930090187,
			"0.002": 17.7672020601,
			"0.003": 12.7900424859,
			"0.004": 4.73402025094,
			"0.005": 6.03466107902,
			"0.006": 4.23759619315,
			"0.007": 3.72730646325,
			"0.008": 3.4603433991,
			"0.009": 3.50653038774,
			"0.01": 2.5361145524,
			"0.011": 3.87602980352,
			"0.012": 3.98893538341,
			"0.013": 1.12037421103,
			"0.014": 0.838491057846,
			"0.015": 1.00921207875,
			"0.016": 0.865537070371,
			"0.017": 0.52366423072,
			"0.018": 0.0,
			"0.019": 0.0,
			"0.02": 0.0,
			"0.021": 0.0,
			"0.022": 0.0,
			"0.023": 0.0,
			"0.024": 0.0,
			"0.025": 0.0
		}
	}
}
