{
	 "smiles": "FC(F)(F)C1=CC=CC(NN=C(/C#N)C2=NC3=C(N2)C=CC=C3)=C1", 
	 "Tm": 543.15, 
	 "num_atms": 34, 
	 "gaussian": { 
		 "optdone": 1, 
		 "sigma_profile": "yes", 
		 "theory": "DFT", 
		 "functional": "B3LYP", 
		 "basiset": "6-31G**", 
		 "properties": { 
			 "R2extent": 11754.11, 
			 "electric_dipole_moment_norm": 3.0339929433, 
			 "electric_quadrupole_moment_norm": 30.9915956809, 
			 "total_energy": -1188.98074802, 
			 "HOMO_LUMO_gap": 0.12536, 
			 "cosmo_polarized_energy": -19.26, 
			 "cosmo_cavitation_energy": 42.93, 
			 "cosmo_dispersion_energy": -29.74, 
			 "cosmo_repulsion_energy": 2.18, 
			 "cosmo_total_nonelectrostatic_energy": 15.37, 
			 "SMD_solvation_energy": 6.89 
		},
		"coords": [
			{
				"x": -1.6490510727,
				"y": -0.213124331,
				"z": 3.7839926894,
				"element": "F" 
			},
			{
				"x": -0.5156530842,
				"y": 0.2568200727,
				"z": 4.3512766142,
				"element": "C" 
			},
			{
				"x": -0.8674357326,
				"y": 0.92723722,
				"z": 5.4693971677,
				"element": "F" 
			},
			{
				"x": 0.2020095481,
				"y": -0.8193101842,
				"z": 4.7470626216,
				"element": "F" 
			},
			{
				"x": 0.2717562549,
				"y": 1.1255457392,
				"z": 3.4044874264,
				"element": "C" 
			},
			{
				"x": 1.1543701558,
				"y": 2.0798249306,
				"z": 3.919294262,
				"element": "C" 
			},
			{
				"x": 1.9201098073,
				"y": 2.8391306987,
				"z": 3.0351639998,
				"element": "C" 
			},
			{
				"x": 1.8100000747,
				"y": 2.6521251971,
				"z": 1.660034157,
				"element": "C" 
			},
			{
				"x": 0.9201864475,
				"y": 1.6931148237,
				"z": 1.1540084569,
				"element": "C" 
			},
			{
				"x": 0.831179881,
				"y": 1.5371149348,
				"z": -0.2332465588,
				"element": "N" 
			},
			{
				"x": 0.0156801937,
				"y": 0.6545006724,
				"z": -0.790929183,
				"element": "N" 
			},
			{
				"x": -0.0330098105,
				"y": 0.5445695619,
				"z": -2.0934094332,
				"element": "C" 
			},
			{
				"x": 0.7862740992,
				"y": 1.3670524992,
				"z": -2.9396856763,
				"element": "C" 
			},
			{
				"x": 1.5142898309,
				"y": 2.1080209174,
				"z": -3.4657040512,
				"element": "N" 
			},
			{
				"x": -0.9302501421,
				"y": -0.4249295814,
				"z": -2.6980421282,
				"element": "C" 
			},
			{
				"x": -1.0554022012,
				"y": -0.6164038224,
				"z": -3.9946074377,
				"element": "N" 
			},
			{
				"x": -2.0036946752,
				"y": -1.6163545971,
				"z": -4.1120545342,
				"element": "C" 
			},
			{
				"x": -2.452639762,
				"y": -2.0275980001,
				"z": -2.8290102935,
				"element": "C" 
			},
			{
				"x": -1.7421473559,
				"y": -1.2411116563,
				"z": -1.9416419644,
				"element": "N" 
			},
			{
				"x": -3.4127234518,
				"y": -3.0261018019,
				"z": -2.654836363,
				"element": "C" 
			},
			{
				"x": -3.9201806528,
				"y": -3.6118042452,
				"z": -3.8117259133,
				"element": "C" 
			},
			{
				"x": -3.4862711933,
				"y": -3.2163777657,
				"z": -5.0949445279,
				"element": "C" 
			},
			{
				"x": -2.5302711727,
				"y": -2.2217781206,
				"z": -5.2621932251,
				"element": "C" 
			},
			{
				"x": 0.1461520993,
				"y": 0.9245418897,
				"z": 2.0317937246,
				"element": "C" 
			},
			{
				"x": 1.2316880374,
				"y": 2.2288553432,
				"z": 4.9900374513,
				"element": "H" 
			},
			{
				"x": 2.6077029437,
				"y": 3.5866589061,
				"z": 3.4178247695,
				"element": "H" 
			},
			{
				"x": 2.4088696835,
				"y": 3.2492779316,
				"z": 0.9772875497,
				"element": "H" 
			},
			{
				"x": 1.4158877657,
				"y": 2.1242425439,
				"z": -0.8269520693,
				"element": "H" 
			},
			{
				"x": -1.7859387573,
				"y": -1.2408087587,
				"z": -0.9344929675,
				"element": "H" 
			},
			{
				"x": -3.7502495309,
				"y": -3.3342686012,
				"z": -1.6701404155,
				"element": "H" 
			},
			{
				"x": -4.6692214353,
				"y": -4.3930512899,
				"z": -3.7236645327,
				"element": "H" 
			},
			{
				"x": -3.9116140136,
				"y": -3.7028144164,
				"z": -5.9674983445,
				"element": "H" 
			},
			{
				"x": -2.1913768749,
				"y": -1.9120159828,
				"z": -6.2451765371,
				"element": "H" 
			},
			{
				"x": -0.5454259035,
				"y": 0.1907192721,
				"z": 1.6412952664,
				"element": "H" 
			}
		],
		 "valence_orbital": [ 
			{
				"type": "occ",
				"energy": -0.28452,
				"method": "rhf"
			},
			{
				"type": "occ",
				"energy": -0.2839,
				"method": "rhf"
			},
			{
				"type": "occ",
				"energy": -0.25483,
				"method": "rhf"
			},
			{
				"type": "occ",
				"energy": -0.23472,
				"method": "rhf"
			},
			{
				"type": "occ",
				"energy": -0.21555,
				"method": "rhf"
			},
			{
				"type": "unocc",
				"energy": -0.09019,
				"method": "rhf"
			},
			{
				"type": "unocc",
				"energy": -0.04081,
				"method": "rhf"
			},
			{
				"type": "unocc",
				"energy": -0.01437,
				"method": "rhf"
			},
			{
				"type": "unocc",
				"energy": -0.01,
				"method": "rhf"
			},
			{
				"type": "unocc",
				"energy": 0.00679,
				"method": "rhf"
			}
		],
		"cosmo_sigma_profile": { 
			"-0.025": 0.0,
			"-0.024": 0.0,
			"-0.023": 0.0,
			"-0.022": 0.0,
			"-0.021": 0.0,
			"-0.02": 0.0,
			"-0.019": 0.0,
			"-0.018": 0.0,
			"-0.017": 0.0,
			"-0.016": 0.796627699242,
			"-0.015": 2.06616186334,
			"-0.014": 1.89474820167,
			"-0.013": 1.9364334789,
			"-0.012": 2.30904418119,
			"-0.011": 2.54489586168,
			"-0.01": 3.05944171241,
			"-0.009": 3.52180500763,
			"-0.008": 3.51917072558,
			"-0.007": 9.71022077351,
			"-0.006": 13.305531244,
			"-0.005": 18.7265193034,
			"-0.004": 19.5382061988,
			"-0.003": 19.1335997232,
			"-0.002": 19.4241021525,
			"-0.001": 22.8557135166,
			"0.0": 26.7468876829,
			"0.001": 27.7654693108,
			"0.002": 39.8243381804,
			"0.003": 44.2295133992,
			"0.004": 16.6997193763,
			"0.005": 13.3947346307,
			"0.006": 9.2754138078,
			"0.007": 5.09765527398,
			"0.008": 3.95047255164,
			"0.009": 4.60879674229,
			"0.01": 2.89092303126,
			"0.011": 3.48365125793,
			"0.012": 2.71988127667,
			"0.013": 0.672254366897,
			"0.014": 0.688947075029,
			"0.015": 0.81472761965,
			"0.016": 0.395683141724,
			"0.017": 0.0,
			"0.018": 0.0,
			"0.019": 0.0,
			"0.02": 0.0,
			"0.021": 0.0,
			"0.022": 0.0,
			"0.023": 0.0,
			"0.024": 0.0,
			"0.025": 0.0
		}
	}
}
