{
	 "smiles": "CCC(C)(C)NS(=O)(=O)C1=CN=C(Cl)C=C1", 
	 "Tm": 360.15, 
	 "num_atms": 31, 
	 "gaussian": { 
		 "optdone": 1, 
		 "sigma_profile": "yes", 
		 "theory": "DFT", 
		 "functional": "B3LYP", 
		 "basiset": "6-31G**", 
		 "properties": { 
			 "R2extent": 7192.1522, 
			 "electric_dipole_moment_norm": 4.82874627517, 
			 "electric_quadrupole_moment_norm": 14.9217455524, 
			 "total_energy": -1508.36894124, 
			 "HOMO_LUMO_gap": 0.20217, 
			 "cosmo_polarized_energy": -14.47, 
			 "cosmo_cavitation_energy": 36.08, 
			 "cosmo_dispersion_energy": -25.38, 
			 "cosmo_repulsion_energy": 1.93, 
			 "cosmo_total_nonelectrostatic_energy": 12.64, 
			 "SMD_solvation_energy": 3.7 
		},
		"coords": [
			{
				"x": -2.1033314261,
				"y": 0.2705185698,
				"z": -2.8510698334,
				"element": "C" 
			},
			{
				"x": -2.3402751457,
				"y": -0.233615549,
				"z": -1.4250461611,
				"element": "C" 
			},
			{
				"x": -1.098374617,
				"y": -0.4134246446,
				"z": -0.5129501018,
				"element": "C" 
			},
			{
				"x": -0.2875105358,
				"y": 0.883094644,
				"z": -0.3810616942,
				"element": "C" 
			},
			{
				"x": -1.5765687926,
				"y": -0.853035138,
				"z": 0.8857663391,
				"element": "C" 
			},
			{
				"x": -0.2400632073,
				"y": -1.5399682762,
				"z": -0.996531014,
				"element": "N" 
			},
			{
				"x": 1.0879022341,
				"y": -1.5215448264,
				"z": -2.0086378885,
				"element": "S" 
			},
			{
				"x": 1.1522080616,
				"y": -2.8912896836,
				"z": -2.5298353092,
				"element": "O" 
			},
			{
				"x": 1.1031114565,
				"y": -0.3626081847,
				"z": -2.9066462524,
				"element": "O" 
			},
			{
				"x": 2.4756320138,
				"y": -1.3049245529,
				"z": -0.8902860341,
				"element": "C" 
			},
			{
				"x": 3.2952440233,
				"y": -0.1831024389,
				"z": -0.9930663965,
				"element": "C" 
			},
			{
				"x": 4.3633376459,
				"y": 0.0035937306,
				"z": -0.2031358426,
				"element": "N" 
			},
			{
				"x": 4.6314374506,
				"y": -0.9316079789,
				"z": 0.6893200438,
				"element": "C" 
			},
			{
				"x": 6.0305510406,
				"y": -0.6638468772,
				"z": 1.7171020635,
				"element": "Cl" 
			},
			{
				"x": 3.8886431876,
				"y": -2.1067238981,
				"z": 0.8688190505,
				"element": "C" 
			},
			{
				"x": 2.7830523131,
				"y": -2.2926016059,
				"z": 0.0511639049,
				"element": "C" 
			},
			{
				"x": -1.4108408251,
				"y": -0.367548409,
				"z": -3.4042567319,
				"element": "H" 
			},
			{
				"x": -1.6903965319,
				"y": 1.2833606316,
				"z": -2.8612965573,
				"element": "H" 
			},
			{
				"x": -3.0519885102,
				"y": 0.2966496798,
				"z": -3.396820563,
				"element": "H" 
			},
			{
				"x": -2.8644404968,
				"y": -1.1992069101,
				"z": -1.4627849737,
				"element": "H" 
			},
			{
				"x": -3.0234523572,
				"y": 0.4531246073,
				"z": -0.9083540573,
				"element": "H" 
			},
			{
				"x": 0.5517272619,
				"y": 0.7499457343,
				"z": 0.3082048329,
				"element": "H" 
			},
			{
				"x": 0.100483912,
				"y": 1.2294123115,
				"z": -1.3391662132,
				"element": "H" 
			},
			{
				"x": -0.9353823717,
				"y": 1.6626119009,
				"z": 0.0304232313,
				"element": "H" 
			},
			{
				"x": -2.1434756708,
				"y": -1.7895957628,
				"z": 0.8334193715,
				"element": "H" 
			},
			{
				"x": -2.2301758022,
				"y": -0.0921066634,
				"z": 1.3234823197,
				"element": "H" 
			},
			{
				"x": -0.7242554988,
				"y": -1.0076533301,
				"z": 1.5528721764,
				"element": "H" 
			},
			{
				"x": -0.7421811728,
				"y": -2.4061713949,
				"z": -1.1675508407,
				"element": "H" 
			},
			{
				"x": 3.0867632276,
				"y": 0.5834971555,
				"z": -1.7328016236,
				"element": "H" 
			},
			{
				"x": 4.1766354021,
				"y": -2.8362722466,
				"z": 1.6158703135,
				"element": "H" 
			},
			{
				"x": 2.171983731,
				"y": -3.185160594,
				"z": 0.1348544416,
				"element": "H" 
			}
		],
		 "valence_orbital": [ 
			{
				"type": "occ",
				"energy": -0.31545,
				"method": "rhf"
			},
			{
				"type": "occ",
				"energy": -0.31048,
				"method": "rhf"
			},
			{
				"type": "occ",
				"energy": -0.28836,
				"method": "rhf"
			},
			{
				"type": "occ",
				"energy": -0.28512,
				"method": "rhf"
			},
			{
				"type": "occ",
				"energy": -0.26259,
				"method": "rhf"
			},
			{
				"type": "unocc",
				"energy": -0.06042,
				"method": "rhf"
			},
			{
				"type": "unocc",
				"energy": -0.0491,
				"method": "rhf"
			},
			{
				"type": "unocc",
				"energy": 0.02238,
				"method": "rhf"
			},
			{
				"type": "unocc",
				"energy": 0.04625,
				"method": "rhf"
			},
			{
				"type": "unocc",
				"energy": 0.0619,
				"method": "rhf"
			}
		],
		"cosmo_sigma_profile": { 
			"-0.025": 0.0,
			"-0.024": 0.0,
			"-0.023": 0.0,
			"-0.022": 0.0,
			"-0.021": 0.0,
			"-0.02": 0.0,
			"-0.019": 0.0,
			"-0.018": 0.0,
			"-0.017": 0.0,
			"-0.016": 0.0,
			"-0.015": 0.0,
			"-0.014": 0.16860310899,
			"-0.013": 0.839113848424,
			"-0.012": 0.686653792105,
			"-0.011": 1.2303866501,
			"-0.01": 1.75809437676,
			"-0.009": 5.03342437708,
			"-0.008": 5.76563915375,
			"-0.007": 5.25226562407,
			"-0.006": 6.10833840787,
			"-0.005": 5.64269258341,
			"-0.004": 16.3366967673,
			"-0.003": 29.1272225226,
			"-0.002": 36.7640204287,
			"-0.001": 35.3838539413,
			"0.0": 33.4520209797,
			"0.001": 22.4964559717,
			"0.002": 13.8473296828,
			"0.003": 11.7298483442,
			"0.004": 12.1786236497,
			"0.005": 5.89782771476,
			"0.006": 4.05593085196,
			"0.007": 4.55086042375,
			"0.008": 4.21043052583,
			"0.009": 4.78438123521,
			"0.01": 7.87805651922,
			"0.011": 7.93491218115,
			"0.012": 2.74289852659,
			"0.013": 0.716368010595,
			"0.014": 0.114806718346,
			"0.015": 0.0,
			"0.016": 0.0,
			"0.017": 0.0,
			"0.018": 0.0,
			"0.019": 0.0,
			"0.02": 0.0,
			"0.021": 0.0,
			"0.022": 0.0,
			"0.023": 0.0,
			"0.024": 0.0,
			"0.025": 0.0
		}
	}
}
