{
	 "smiles": "CC1(C)SC2C(NC(=O)C(N)C3=CC=CC=C3)C(=O)N2C1C(O)=O", 
	 "Tm": 481.15, 
	 "num_atms": 43, 
	 "gaussian": { 
		 "optdone": 1, 
		 "sigma_profile": "yes", 
		 "theory": "DFT", 
		 "functional": "B3LYP", 
		 "basiset": "6-31G**", 
		 "properties": { 
			 "R2extent": 8955.5552, 
			 "electric_dipole_moment_norm": 3.43514387617, 
			 "electric_quadrupole_moment_norm": 22.3266973644, 
			 "total_energy": -1484.48684268, 
			 "HOMO_LUMO_gap": 0.19301, 
			 "cosmo_polarized_energy": -23.94, 
			 "cosmo_cavitation_energy": 46.02, 
			 "cosmo_dispersion_energy": -31.02, 
			 "cosmo_repulsion_energy": 2.31, 
			 "cosmo_total_nonelectrostatic_energy": 17.3, 
			 "SMD_solvation_energy": 6.43 
		},
		"coords": [
			{
				"x": -3.3964832729,
				"y": -2.007059963,
				"z": 1.5143367885,
				"element": "C" 
			},
			{
				"x": -2.6538368401,
				"y": -0.6649578646,
				"z": 1.5801630085,
				"element": "C" 
			},
			{
				"x": -3.444507849,
				"y": 0.3647063204,
				"z": 2.3902828565,
				"element": "C" 
			},
			{
				"x": -2.3744931012,
				"y": 0.0101288995,
				"z": -0.1704141106,
				"element": "S" 
			},
			{
				"x": -0.9801675288,
				"y": -1.1595177111,
				"z": -0.3866830618,
				"element": "C" 
			},
			{
				"x": 0.4346716533,
				"y": -0.6750688013,
				"z": -0.8591035978,
				"element": "C" 
			},
			{
				"x": 1.0690696376,
				"y": -1.3972811662,
				"z": -1.9190479787,
				"element": "N" 
			},
			{
				"x": 2.1403019999,
				"y": -1.0155637571,
				"z": -2.7133838788,
				"element": "C" 
			},
			{
				"x": 2.6232608644,
				"y": -1.8238632293,
				"z": -3.4928788342,
				"element": "O" 
			},
			{
				"x": 2.7567263506,
				"y": 0.3929686921,
				"z": -2.5431380955,
				"element": "C" 
			},
			{
				"x": 3.5423569564,
				"y": 0.5172521871,
				"z": -1.3121916719,
				"element": "N" 
			},
			{
				"x": 1.765310868,
				"y": 1.5393452422,
				"z": -2.7301810694,
				"element": "C" 
			},
			{
				"x": 1.8385052388,
				"y": 2.6950101666,
				"z": -1.9434029035,
				"element": "C" 
			},
			{
				"x": 0.9498800411,
				"y": 3.7522641191,
				"z": -2.155619788,
				"element": "C" 
			},
			{
				"x": -0.0160839598,
				"y": 3.6710117167,
				"z": -3.1587409517,
				"element": "C" 
			},
			{
				"x": -0.0873121203,
				"y": 2.5256232869,
				"z": -3.9558687378,
				"element": "C" 
			},
			{
				"x": 0.7969791832,
				"y": 1.4687225584,
				"z": -3.7439557484,
				"element": "C" 
			},
			{
				"x": 0.8366114215,
				"y": -0.9034918844,
				"z": 0.6230339115,
				"element": "C" 
			},
			{
				"x": 1.8044328228,
				"y": -0.7040921384,
				"z": 1.3379817164,
				"element": "O" 
			},
			{
				"x": -0.4218763667,
				"y": -1.3397174788,
				"z": 0.9709440646,
				"element": "N" 
			},
			{
				"x": -1.1978455559,
				"y": -0.7993198451,
				"z": 2.098944815,
				"element": "C" 
			},
			{
				"x": -0.9563573875,
				"y": -1.598942424,
				"z": 3.3914181164,
				"element": "C" 
			},
			{
				"x": 0.3379862368,
				"y": -1.8329497326,
				"z": 3.6617116116,
				"element": "O" 
			},
			{
				"x": -1.832173645,
				"y": -1.9375592653,
				"z": 4.1517330558,
				"element": "O" 
			},
			{
				"x": -3.5452394095,
				"y": -2.3916213286,
				"z": 2.5259004403,
				"element": "H" 
			},
			{
				"x": -2.8405761108,
				"y": -2.7586150323,
				"z": 0.9459847002,
				"element": "H" 
			},
			{
				"x": -4.3686747026,
				"y": -1.8704768054,
				"z": 1.0347624076,
				"element": "H" 
			},
			{
				"x": -3.5450721754,
				"y": 0.0058176392,
				"z": 3.4185672374,
				"element": "H" 
			},
			{
				"x": -2.9468134999,
				"y": 1.3389363127,
				"z": 2.4021752067,
				"element": "H" 
			},
			{
				"x": -4.4473697692,
				"y": 0.494909574,
				"z": 1.9739664336,
				"element": "H" 
			},
			{
				"x": -1.3098289475,
				"y": -2.094628864,
				"z": -0.8481343013,
				"element": "H" 
			},
			{
				"x": 0.4402908741,
				"y": 0.3979565816,
				"z": -1.0662171887,
				"element": "H" 
			},
			{
				"x": 0.881941903,
				"y": -2.3910209875,
				"z": -1.9891333625,
				"element": "H" 
			},
			{
				"x": 3.4718004214,
				"y": 0.4350550105,
				"z": -3.3718181554,
				"element": "H" 
			},
			{
				"x": 3.0093866274,
				"y": 0.3025943662,
				"z": -0.4716953026,
				"element": "H" 
			},
			{
				"x": 4.3256552135,
				"y": -0.1287225615,
				"z": -1.339979809,
				"element": "H" 
			},
			{
				"x": 2.6045040876,
				"y": 2.7582276856,
				"z": -1.1780794181,
				"element": "H" 
			},
			{
				"x": 1.0178139505,
				"y": 4.6424573272,
				"z": -1.5364472882,
				"element": "H" 
			},
			{
				"x": -0.7065138824,
				"y": 4.4933737946,
				"z": -3.3221136587,
				"element": "H" 
			},
			{
				"x": -0.8308721714,
				"y": 2.4555383097,
				"z": -4.7446799791,
				"element": "H" 
			},
			{
				"x": 0.7387353486,
				"y": 0.5844715839,
				"z": -4.3741668384,
				"element": "H" 
			},
			{
				"x": -0.8228363211,
				"y": 0.213495158,
				"z": 2.3144720127,
				"element": "H" 
			},
			{
				"x": 0.9455129164,
				"y": -1.4584956918,
				"z": 2.9889973465,
				"element": "H" 
			}
		],
		 "valence_orbital": [ 
			{
				"type": "occ",
				"energy": -0.26614,
				"method": "rhf"
			},
			{
				"type": "occ",
				"energy": -0.25787,
				"method": "rhf"
			},
			{
				"type": "occ",
				"energy": -0.25554,
				"method": "rhf"
			},
			{
				"type": "occ",
				"energy": -0.25365,
				"method": "rhf"
			},
			{
				"type": "occ",
				"energy": -0.23646,
				"method": "rhf"
			},
			{
				"type": "unocc",
				"energy": -0.04345,
				"method": "rhf"
			},
			{
				"type": "unocc",
				"energy": -0.01607,
				"method": "rhf"
			},
			{
				"type": "unocc",
				"energy": -0.01298,
				"method": "rhf"
			},
			{
				"type": "unocc",
				"energy": -0.01002,
				"method": "rhf"
			},
			{
				"type": "unocc",
				"energy": -0.00842,
				"method": "rhf"
			}
		],
		"cosmo_sigma_profile": { 
			"-0.025": 0.0,
			"-0.024": 0.0,
			"-0.023": 0.0,
			"-0.022": 0.0,
			"-0.021": 0.0,
			"-0.02": 0.0,
			"-0.019": 0.0,
			"-0.018": 0.0,
			"-0.017": 0.0,
			"-0.016": 0.0,
			"-0.015": 0.772563215812,
			"-0.014": 1.71039276078,
			"-0.013": 1.56683067312,
			"-0.012": 1.74922756711,
			"-0.011": 3.38749347444,
			"-0.01": 4.68317624717,
			"-0.009": 5.66663737467,
			"-0.008": 8.04469202192,
			"-0.007": 9.19077678411,
			"-0.006": 13.2738759572,
			"-0.005": 23.269424633,
			"-0.004": 30.3975119076,
			"-0.003": 30.468362227,
			"-0.002": 27.8565611969,
			"-0.001": 30.4482010203,
			"0.0": 25.2045154906,
			"0.001": 18.8577195578,
			"0.002": 17.188586797,
			"0.003": 17.5803043133,
			"0.004": 16.9487309787,
			"0.005": 15.3089130459,
			"0.006": 9.94513055349,
			"0.007": 8.05263867222,
			"0.008": 7.29974554683,
			"0.009": 8.80943114707,
			"0.01": 7.21294093145,
			"0.011": 5.69036908313,
			"0.012": 5.32337744896,
			"0.013": 6.32029289626,
			"0.014": 2.59800433627,
			"0.015": 0.563974204879,
			"0.016": 0.0794058409535,
			"0.017": 0.0,
			"0.018": 0.0,
			"0.019": 0.0,
			"0.02": 0.0,
			"0.021": 0.0,
			"0.022": 0.0,
			"0.023": 0.0,
			"0.024": 0.0,
			"0.025": 0.0
		}
	}
}
