{
	 "smiles": "CCOC(=O)C1=C(NC(=O)C2=CC=CC=C2Cl)SC=C1C1=CC=CC=C1", 
	 "Tm": 405.15, 
	 "num_atms": 42, 
	 "gaussian": { 
		 "optdone": 1, 
		 "sigma_profile": "yes", 
		 "theory": "DFT", 
		 "functional": "B3LYP", 
		 "basiset": "6-31G**", 
		 "properties": { 
			 "R2extent": 12392.6415, 
			 "electric_dipole_moment_norm": 2.93064094867, 
			 "electric_quadrupole_moment_norm": 24.8744307527, 
			 "total_energy": -1910.58526595, 
			 "HOMO_LUMO_gap": 0.18042, 
			 "cosmo_polarized_energy": -19.09, 
			 "cosmo_cavitation_energy": 50.31, 
			 "cosmo_dispersion_energy": -33.77, 
			 "cosmo_repulsion_energy": 2.56, 
			 "cosmo_total_nonelectrostatic_energy": 19.1, 
			 "SMD_solvation_energy": 8.83 
		},
		"coords": [
			{
				"x": 1.5559660801,
				"y": 2.7237276088,
				"z": -1.4691928367,
				"element": "C" 
			},
			{
				"x": 1.9672214819,
				"y": 2.2259176995,
				"z": -0.0918803694,
				"element": "C" 
			},
			{
				"x": 1.604499417,
				"y": 0.8304944643,
				"z": 0.063351705,
				"element": "O" 
			},
			{
				"x": 0.3934529544,
				"y": 0.5710322321,
				"z": 0.5808921328,
				"element": "C" 
			},
			{
				"x": -0.376873337,
				"y": 1.4210125598,
				"z": 0.9913325483,
				"element": "O" 
			},
			{
				"x": 0.0936356609,
				"y": -0.8899488938,
				"z": 0.5660498476,
				"element": "C" 
			},
			{
				"x": -1.1670671156,
				"y": -1.3340731054,
				"z": 0.2325407863,
				"element": "C" 
			},
			{
				"x": -2.2851469298,
				"y": -0.5701055955,
				"z": -0.1288818844,
				"element": "N" 
			},
			{
				"x": -2.2808670733,
				"y": 0.3588976049,
				"z": -1.159443867,
				"element": "C" 
			},
			{
				"x": -1.3813084107,
				"y": 0.4554334986,
				"z": -1.9730870095,
				"element": "O" 
			},
			{
				"x": -3.4819022231,
				"y": 1.2700630824,
				"z": -1.1311392665,
				"element": "C" 
			},
			{
				"x": -3.65070468,
				"y": 2.1077303603,
				"z": -0.0180731317,
				"element": "C" 
			},
			{
				"x": -4.6993054135,
				"y": 3.0251398545,
				"z": 0.032355371,
				"element": "C" 
			},
			{
				"x": -5.5989493095,
				"y": 3.1067770826,
				"z": -1.0309407932,
				"element": "C" 
			},
			{
				"x": -5.449415754,
				"y": 2.2785274557,
				"z": -2.1437964674,
				"element": "C" 
			},
			{
				"x": -4.3907400877,
				"y": 1.371689519,
				"z": -2.1923941662,
				"element": "C" 
			},
			{
				"x": -4.2502777954,
				"y": 0.3277924357,
				"z": -3.5962873,
				"element": "Cl" 
			},
			{
				"x": -1.2417412853,
				"y": -3.075967541,
				"z": 0.1756821908,
				"element": "S" 
			},
			{
				"x": 0.4137486447,
				"y": -3.1954470931,
				"z": 0.6600657277,
				"element": "C" 
			},
			{
				"x": 1.0175753708,
				"y": -1.9722492881,
				"z": 0.8180385783,
				"element": "C" 
			},
			{
				"x": 2.4203207739,
				"y": -1.8446269858,
				"z": 1.2815162162,
				"element": "C" 
			},
			{
				"x": 2.7633924517,
				"y": -0.9813328478,
				"z": 2.3348608328,
				"element": "C" 
			},
			{
				"x": 4.0763913139,
				"y": -0.909352891,
				"z": 2.7958171198,
				"element": "C" 
			},
			{
				"x": 5.0710091813,
				"y": -1.6999789911,
				"z": 2.2150683311,
				"element": "C" 
			},
			{
				"x": 4.741768598,
				"y": -2.5625420227,
				"z": 1.1686838647,
				"element": "C" 
			},
			{
				"x": 3.427943072,
				"y": -2.6333303837,
				"z": 0.7051118631,
				"element": "C" 
			},
			{
				"x": 2.0439723783,
				"y": 2.140033852,
				"z": -2.2545558136,
				"element": "H" 
			},
			{
				"x": 1.8452622883,
				"y": 3.7736715514,
				"z": -1.5861663386,
				"element": "H" 
			},
			{
				"x": 0.4747035279,
				"y": 2.6398594278,
				"z": -1.6030481165,
				"element": "H" 
			},
			{
				"x": 1.4921070334,
				"y": 2.8042887453,
				"z": 0.7031737265,
				"element": "H" 
			},
			{
				"x": 3.0515890648,
				"y": 2.2427943846,
				"z": 0.0406754124,
				"element": "H" 
			},
			{
				"x": -3.0762659805,
				"y": -0.5577085601,
				"z": 0.5003863182,
				"element": "H" 
			},
			{
				"x": -2.9225377183,
				"y": 2.0496076473,
				"z": 0.7862176876,
				"element": "H" 
			},
			{
				"x": -4.8095243394,
				"y": 3.6744590495,
				"z": 0.895290783,
				"element": "H" 
			},
			{
				"x": -6.4214662594,
				"y": 3.8151662937,
				"z": -1.000648252,
				"element": "H" 
			},
			{
				"x": -6.1468107573,
				"y": 2.3288002246,
				"z": -2.9726493029,
				"element": "H" 
			},
			{
				"x": 0.8494713644,
				"y": -4.163697823,
				"z": 0.8632994712,
				"element": "H" 
			},
			{
				"x": 1.9932794628,
				"y": -0.377700766,
				"z": 2.8063195452,
				"element": "H" 
			},
			{
				"x": 4.3222243901,
				"y": -0.2398256324,
				"z": 3.6152825261,
				"element": "H" 
			},
			{
				"x": 6.0941364365,
				"y": -1.6425457123,
				"z": 2.5751758488,
				"element": "H" 
			},
			{
				"x": 5.5092449502,
				"y": -3.1763520089,
				"z": 0.7057034494,
				"element": "H" 
			},
			{
				"x": 3.1787885722,
				"y": -3.2883304931,
				"z": -0.1246069681,
				"element": "H" 
			}
		],
		 "valence_orbital": [ 
			{
				"type": "occ",
				"energy": -0.25723,
				"method": "rhf"
			},
			{
				"type": "occ",
				"energy": -0.25125,
				"method": "rhf"
			},
			{
				"type": "occ",
				"energy": -0.24925,
				"method": "rhf"
			},
			{
				"type": "occ",
				"energy": -0.24553,
				"method": "rhf"
			},
			{
				"type": "occ",
				"energy": -0.22562,
				"method": "rhf"
			},
			{
				"type": "unocc",
				"energy": -0.0452,
				"method": "rhf"
			},
			{
				"type": "unocc",
				"energy": -0.02719,
				"method": "rhf"
			},
			{
				"type": "unocc",
				"energy": -0.01939,
				"method": "rhf"
			},
			{
				"type": "unocc",
				"energy": -0.0186,
				"method": "rhf"
			},
			{
				"type": "unocc",
				"energy": -0.00304,
				"method": "rhf"
			}
		],
		"cosmo_sigma_profile": { 
			"-0.025": 0.0,
			"-0.024": 0.0,
			"-0.023": 0.0,
			"-0.022": 0.0,
			"-0.021": 0.0,
			"-0.02": 0.0,
			"-0.019": 0.0,
			"-0.018": 0.0,
			"-0.017": 0.0,
			"-0.016": 0.553275772518,
			"-0.015": 1.11651966797,
			"-0.014": 1.29841106831,
			"-0.013": 0.424512470668,
			"-0.012": 0.920622397195,
			"-0.011": 1.02360889254,
			"-0.01": 1.88439529509,
			"-0.009": 2.39628834799,
			"-0.008": 3.96388038579,
			"-0.007": 8.62553791774,
			"-0.006": 18.5149794483,
			"-0.005": 27.4095802822,
			"-0.004": 32.2836061376,
			"-0.003": 29.405963329,
			"-0.002": 26.3344064518,
			"-0.001": 26.5434476029,
			"0.0": 31.8574231391,
			"0.001": 34.3466321545,
			"0.002": 38.9975551874,
			"0.003": 36.293243899,
			"0.004": 25.0356042182,
			"0.005": 17.1963735961,
			"0.006": 11.9117211719,
			"0.007": 6.29479033568,
			"0.008": 5.1481558792,
			"0.009": 4.44309160893,
			"0.01": 4.46392500206,
			"0.011": 4.13547036809,
			"0.012": 3.32886028597,
			"0.013": 1.04536469274,
			"0.014": 0.00126881978059,
			"0.015": 0.0,
			"0.016": 0.0,
			"0.017": 0.0,
			"0.018": 0.0,
			"0.019": 0.0,
			"0.02": 0.0,
			"0.021": 0.0,
			"0.022": 0.0,
			"0.023": 0.0,
			"0.024": 0.0,
			"0.025": 0.0
		}
	}
}
