{
	 "smiles": "COC1=C(NC(=O)CCl)C=C(Cl)C=C1", 
	 "Tm": 375.15, 
	 "num_atms": 23, 
	 "gaussian": { 
		 "optdone": 1, 
		 "sigma_profile": "yes", 
		 "theory": "DFT", 
		 "functional": "B3LYP", 
		 "basiset": "6-31G**", 
		 "properties": { 
			 "R2extent": 4631.2652, 
			 "electric_dipole_moment_norm": 2.76585691062, 
			 "electric_quadrupole_moment_norm": 10.256961047, 
			 "total_energy": -1473.96516824, 
			 "HOMO_LUMO_gap": 0.19764, 
			 "cosmo_polarized_energy": -13.83, 
			 "cosmo_cavitation_energy": 31.15, 
			 "cosmo_dispersion_energy": -22.49, 
			 "cosmo_repulsion_energy": 1.82, 
			 "cosmo_total_nonelectrostatic_energy": 10.48, 
			 "SMD_solvation_energy": 6.22 
		},
		"coords": [
			{
				"x": 2.0739106119,
				"y": 2.8668963428,
				"z": 0.5621030706,
				"element": "C" 
			},
			{
				"x": 1.1897101826,
				"y": 1.778884038,
				"z": 0.7887577022,
				"element": "O" 
			},
			{
				"x": 0.6071662008,
				"y": 1.1849540414,
				"z": -0.2810406359,
				"element": "C" 
			},
			{
				"x": -0.3771459809,
				"y": 0.2104468151,
				"z": -0.0009219571,
				"element": "C" 
			},
			{
				"x": -0.7371208661,
				"y": -0.0838822555,
				"z": 1.3410291151,
				"element": "N" 
			},
			{
				"x": -1.2657382821,
				"y": 0.8339774668,
				"z": 2.2008095878,
				"element": "C" 
			},
			{
				"x": -1.4981097721,
				"y": 2.0008044472,
				"z": 1.9347898463,
				"element": "O" 
			},
			{
				"x": -1.573680693,
				"y": 0.3634924483,
				"z": 3.6260996511,
				"element": "C" 
			},
			{
				"x": -1.4015810733,
				"y": -1.4149637389,
				"z": 3.9658508342,
				"element": "Cl" 
			},
			{
				"x": -0.9736487418,
				"y": -0.4982300819,
				"z": -1.0418740305,
				"element": "C" 
			},
			{
				"x": -0.6082313762,
				"y": -0.2389196732,
				"z": -2.3623483564,
				"element": "C" 
			},
			{
				"x": -1.3656654817,
				"y": -1.1475703118,
				"z": -3.6631058265,
				"element": "Cl" 
			},
			{
				"x": 0.3333854475,
				"y": 0.7410004799,
				"z": -2.6555662515,
				"element": "C" 
			},
			{
				"x": 0.9348310755,
				"y": 1.4520782951,
				"z": -1.6151406609,
				"element": "C" 
			},
			{
				"x": 2.9708827763,
				"y": 2.5526703577,
				"z": 0.012967825,
				"element": "H" 
			},
			{
				"x": 1.5775063565,
				"y": 3.6777154101,
				"z": 0.0157273725,
				"element": "H" 
			},
			{
				"x": 2.3658861601,
				"y": 3.224423251,
				"z": 1.5501083852,
				"element": "H" 
			},
			{
				"x": -0.6790516652,
				"y": -1.0432965457,
				"z": 1.6556585068,
				"element": "H" 
			},
			{
				"x": -2.6017848111,
				"y": 0.6377390658,
				"z": 3.85963291,
				"element": "H" 
			},
			{
				"x": -0.9031477655,
				"y": 0.8828278125,
				"z": 4.3118759157,
				"element": "H" 
			},
			{
				"x": -1.7324871925,
				"y": -1.2395962416,
				"z": -0.8168608203,
				"element": "H" 
			},
			{
				"x": 0.6032168698,
				"y": 0.9483883794,
				"z": -3.6849669537,
				"element": "H" 
			},
			{
				"x": 1.6765980207,
				"y": 2.2036601976,
				"z": -1.8557852296,
				"element": "H" 
			}
		],
		 "valence_orbital": [ 
			{
				"type": "occ",
				"energy": -0.30842,
				"method": "rhf"
			},
			{
				"type": "occ",
				"energy": -0.29088,
				"method": "rhf"
			},
			{
				"type": "occ",
				"energy": -0.26153,
				"method": "rhf"
			},
			{
				"type": "occ",
				"energy": -0.25479,
				"method": "rhf"
			},
			{
				"type": "occ",
				"energy": -0.22385,
				"method": "rhf"
			},
			{
				"type": "unocc",
				"energy": -0.02621,
				"method": "rhf"
			},
			{
				"type": "unocc",
				"energy": -0.00531,
				"method": "rhf"
			},
			{
				"type": "unocc",
				"energy": 0.01122,
				"method": "rhf"
			},
			{
				"type": "unocc",
				"energy": 0.02076,
				"method": "rhf"
			},
			{
				"type": "unocc",
				"energy": 0.02892,
				"method": "rhf"
			}
		],
		"cosmo_sigma_profile": { 
			"-0.025": 0.0,
			"-0.024": 0.0,
			"-0.023": 0.0,
			"-0.022": 0.0,
			"-0.021": 0.0,
			"-0.02": 0.0,
			"-0.019": 0.0,
			"-0.018": 0.0,
			"-0.017": 0.0,
			"-0.016": 0.0,
			"-0.015": 0.0,
			"-0.014": 0.0946858851293,
			"-0.013": 0.839080128791,
			"-0.012": 0.574852802675,
			"-0.011": 0.883474278516,
			"-0.01": 1.14399171205,
			"-0.009": 5.1826545269,
			"-0.008": 6.9127064745,
			"-0.007": 11.202653716,
			"-0.006": 15.5213986853,
			"-0.005": 18.7551141928,
			"-0.004": 17.4976820871,
			"-0.003": 13.8915144775,
			"-0.002": 11.5447457081,
			"-0.001": 12.6753094923,
			"0.0": 13.2818521603,
			"0.001": 17.6061413361,
			"0.002": 19.7298808119,
			"0.003": 22.4018500438,
			"0.004": 17.3673204097,
			"0.005": 18.1699328611,
			"0.006": 4.87285388663,
			"0.007": 3.59307012415,
			"0.008": 2.31780476295,
			"0.009": 2.05260418139,
			"0.01": 2.45145952685,
			"0.011": 3.13127212255,
			"0.012": 3.63642290782,
			"0.013": 5.14412234635,
			"0.014": 0.582520517752,
			"0.015": 0.0,
			"0.016": 0.0,
			"0.017": 0.0,
			"0.018": 0.0,
			"0.019": 0.0,
			"0.02": 0.0,
			"0.021": 0.0,
			"0.022": 0.0,
			"0.023": 0.0,
			"0.024": 0.0,
			"0.025": 0.0
		}
	}
}
