{
	 "smiles": "CC1=CC=C(C=C1)C1=CC=C(O1)C=C1C(=O)NC(=O)NC1=O", 
	 "Tm": 538.15, 
	 "num_atms": 34, 
	 "gaussian": { 
		 "optdone": 1, 
		 "sigma_profile": "yes", 
		 "theory": "DFT", 
		 "functional": "B3LYP", 
		 "basiset": "6-31G**", 
		 "properties": { 
			 "R2extent": 9803.7966, 
			 "electric_dipole_moment_norm": 6.15261953074, 
			 "electric_quadrupole_moment_norm": 9.47364112261, 
			 "total_energy": -1027.37773748, 
			 "HOMO_LUMO_gap": 0.11831, 
			 "cosmo_polarized_energy": -19.67, 
			 "cosmo_cavitation_energy": 40.12, 
			 "cosmo_dispersion_energy": -29.02, 
			 "cosmo_repulsion_energy": 2.16, 
			 "cosmo_total_nonelectrostatic_energy": 13.26, 
			 "SMD_solvation_energy": 9.23 
		},
		"coords": [
			{
				"x": -2.3958573946,
				"y": -0.3131539035,
				"z": 5.8443806199,
				"element": "C" 
			},
			{
				"x": -2.244386822,
				"y": -0.4510775467,
				"z": 4.3493859568,
				"element": "C" 
			},
			{
				"x": -3.3678082927,
				"y": -0.5938325042,
				"z": 3.5205999493,
				"element": "C" 
			},
			{
				"x": -3.2359384472,
				"y": -0.6916613416,
				"z": 2.1405979297,
				"element": "C" 
			},
			{
				"x": -1.963795501,
				"y": -0.6515809668,
				"z": 1.5425714296,
				"element": "C" 
			},
			{
				"x": -0.8301209594,
				"y": -0.5124209797,
				"z": 2.3658701126,
				"element": "C" 
			},
			{
				"x": -0.9789298657,
				"y": -0.4158981412,
				"z": 3.7449267072,
				"element": "C" 
			},
			{
				"x": -1.8134109257,
				"y": -0.7560427553,
				"z": 0.1019818049,
				"element": "C" 
			},
			{
				"x": -2.713101967,
				"y": -0.8981560898,
				"z": -0.9472111069,
				"element": "C" 
			},
			{
				"x": -1.9447539028,
				"y": -0.939970743,
				"z": -2.1216097903,
				"element": "C" 
			},
			{
				"x": -0.6079122092,
				"y": -0.82199772,
				"z": -1.7471000861,
				"element": "C" 
			},
			{
				"x": -0.5529242421,
				"y": -0.7108870003,
				"z": -0.3830783421,
				"element": "O" 
			},
			{
				"x": 0.5218009347,
				"y": -0.8140035626,
				"z": -2.5932020042,
				"element": "C" 
			},
			{
				"x": 1.8826877987,
				"y": -0.7103188105,
				"z": -2.4259239829,
				"element": "C" 
			},
			{
				"x": 2.6555927161,
				"y": -0.7596513345,
				"z": -3.6958683071,
				"element": "C" 
			},
			{
				"x": 2.157947343,
				"y": -0.8809384431,
				"z": -4.8078007446,
				"element": "O" 
			},
			{
				"x": 4.0391833901,
				"y": -0.6575320681,
				"z": -3.5686425939,
				"element": "N" 
			},
			{
				"x": 4.773238945,
				"y": -0.5159390639,
				"z": -2.400261688,
				"element": "C" 
			},
			{
				"x": 5.9869857116,
				"y": -0.4338208441,
				"z": -2.3837383707,
				"element": "O" 
			},
			{
				"x": 3.9929453532,
				"y": -0.4770431734,
				"z": -1.256551947,
				"element": "N" 
			},
			{
				"x": 2.596963479,
				"y": -0.5610810347,
				"z": -1.1436907632,
				"element": "C" 
			},
			{
				"x": 2.0952155779,
				"y": -0.5061934831,
				"z": -0.0311511452,
				"element": "O" 
			},
			{
				"x": -1.5260940786,
				"y": -0.7137427792,
				"z": 6.37329897,
				"element": "H" 
			},
			{
				"x": -3.2864783695,
				"y": -0.8346023726,
				"z": 6.2074591879,
				"element": "H" 
			},
			{
				"x": -2.4951432795,
				"y": 0.7407726241,
				"z": 6.1339628214,
				"element": "H" 
			},
			{
				"x": -4.3588088738,
				"y": -0.6303619443,
				"z": 3.9656198576,
				"element": "H" 
			},
			{
				"x": -4.1236066328,
				"y": -0.8038006112,
				"z": 1.5251607324,
				"element": "H" 
			},
			{
				"x": 0.1556574807,
				"y": -0.4852370194,
				"z": 1.9126630704,
				"element": "H" 
			},
			{
				"x": -0.0938984367,
				"y": -0.3126143584,
				"z": 4.3674731053,
				"element": "H" 
			},
			{
				"x": -3.7878471153,
				"y": -0.9627839186,
				"z": -0.8667572813,
				"element": "H" 
			},
			{
				"x": -2.3010677058,
				"y": -1.0435515532,
				"z": -3.1371985546,
				"element": "H" 
			},
			{
				"x": 0.2430908267,
				"y": -0.9155009602,
				"z": -3.6413501737,
				"element": "H" 
			},
			{
				"x": 4.5741806194,
				"y": -0.6901162385,
				"z": -4.4271267198,
				"element": "H" 
			},
			{
				"x": 4.4978948455,
				"y": -0.3743593584,
				"z": -0.3853886532,
				"element": "H" 
			}
		],
		 "valence_orbital": [ 
			{
				"type": "occ",
				"energy": -0.28273,
				"method": "rhf"
			},
			{
				"type": "occ",
				"energy": -0.27035,
				"method": "rhf"
			},
			{
				"type": "occ",
				"energy": -0.26326,
				"method": "rhf"
			},
			{
				"type": "occ",
				"energy": -0.25227,
				"method": "rhf"
			},
			{
				"type": "occ",
				"energy": -0.21641,
				"method": "rhf"
			},
			{
				"type": "unocc",
				"energy": -0.0981,
				"method": "rhf"
			},
			{
				"type": "unocc",
				"energy": -0.03318,
				"method": "rhf"
			},
			{
				"type": "unocc",
				"energy": -0.01295,
				"method": "rhf"
			},
			{
				"type": "unocc",
				"energy": 0.00808,
				"method": "rhf"
			},
			{
				"type": "unocc",
				"energy": 0.01651,
				"method": "rhf"
			}
		],
		"cosmo_sigma_profile": { 
			"-0.025": 0.0,
			"-0.024": 0.0,
			"-0.023": 0.0,
			"-0.022": 0.0,
			"-0.021": 0.0,
			"-0.02": 0.0,
			"-0.019": 0.0,
			"-0.018": 0.0,
			"-0.017": 0.0,
			"-0.016": 1.02946073734,
			"-0.015": 1.64114094603,
			"-0.014": 2.08242341153,
			"-0.013": 1.53825621751,
			"-0.012": 0.94710957994,
			"-0.011": 1.40598772522,
			"-0.01": 2.22292322329,
			"-0.009": 6.13357631719,
			"-0.008": 6.98788913681,
			"-0.007": 7.51557116164,
			"-0.006": 11.5933604605,
			"-0.005": 18.8527630048,
			"-0.004": 21.8988787783,
			"-0.003": 21.0332548335,
			"-0.002": 24.0836881999,
			"-0.001": 29.9700116319,
			"0.0": 34.3517291899,
			"0.001": 23.697872807,
			"0.002": 17.9994922096,
			"0.003": 15.4658787538,
			"0.004": 15.1718795448,
			"0.005": 7.51123481383,
			"0.006": 4.61139144323,
			"0.007": 5.06935837162,
			"0.008": 4.38044975695,
			"0.009": 4.88488122735,
			"0.01": 6.69721660466,
			"0.011": 7.93095207541,
			"0.012": 12.8014533349,
			"0.013": 2.82972806656,
			"0.014": 0.0,
			"0.015": 0.0,
			"0.016": 0.0,
			"0.017": 0.0,
			"0.018": 0.0,
			"0.019": 0.0,
			"0.02": 0.0,
			"0.021": 0.0,
			"0.022": 0.0,
			"0.023": 0.0,
			"0.024": 0.0,
			"0.025": 0.0
		}
	}
}
