{
	 "smiles": "CN1C(Cl)=C(C=O)C2=C1C=CC(C=O)=C2", 
	 "Tm": 438.15, 
	 "num_atms": 23, 
	 "gaussian": { 
		 "optdone": 1, 
		 "sigma_profile": "yes", 
		 "theory": "DFT", 
		 "functional": "B3LYP", 
		 "basiset": "6-31G**", 
		 "properties": { 
			 "R2extent": 4510.1051, 
			 "electric_dipole_moment_norm": 4.40935285048, 
			 "electric_quadrupole_moment_norm": 22.6240692114, 
			 "total_energy": -1089.36693283, 
			 "HOMO_LUMO_gap": 0.16539, 
			 "cosmo_polarized_energy": -16.37, 
			 "cosmo_cavitation_energy": 29.82, 
			 "cosmo_dispersion_energy": -21.49, 
			 "cosmo_repulsion_energy": 1.64, 
			 "cosmo_total_nonelectrostatic_energy": 9.97, 
			 "SMD_solvation_energy": 6.81 
		},
		"coords": [
			{
				"x": -1.7531163378,
				"y": -1.2311707917,
				"z": -0.5775094046,
				"element": "C" 
			},
			{
				"x": -0.4235132513,
				"y": -0.8819531727,
				"z": -0.0966443999,
				"element": "N" 
			},
			{
				"x": 0.7307030794,
				"y": -1.5766866762,
				"z": -0.3713893443,
				"element": "C" 
			},
			{
				"x": 0.6679216052,
				"y": -2.9796824975,
				"z": -1.3558865729,
				"element": "Cl" 
			},
			{
				"x": 1.8285459204,
				"y": -0.986910398,
				"z": 0.234851796,
				"element": "C" 
			},
			{
				"x": 3.2192455433,
				"y": -1.424105362,
				"z": 0.1815061542,
				"element": "C" 
			},
			{
				"x": 3.6352024544,
				"y": -2.3999722216,
				"z": -0.420533615,
				"element": "O" 
			},
			{
				"x": 1.3064483763,
				"y": 0.1635668512,
				"z": 0.9391738924,
				"element": "C" 
			},
			{
				"x": -0.095262422,
				"y": 0.199462305,
				"z": 0.7124625775,
				"element": "C" 
			},
			{
				"x": -0.919736127,
				"y": 1.1957357094,
				"z": 1.2557752527,
				"element": "C" 
			},
			{
				"x": -0.3199190497,
				"y": 2.1675086889,
				"z": 2.0377751678,
				"element": "C" 
			},
			{
				"x": 1.074249607,
				"y": 2.154467734,
				"z": 2.2789460918,
				"element": "C" 
			},
			{
				"x": 1.6801483657,
				"y": 3.2083429791,
				"z": 3.1189494843,
				"element": "C" 
			},
			{
				"x": 1.0642880143,
				"y": 4.1190911597,
				"z": 3.640710944,
				"element": "O" 
			},
			{
				"x": 1.8871900001,
				"y": 1.1592349397,
				"z": 1.7342702584,
				"element": "C" 
			},
			{
				"x": -2.0415462765,
				"y": -2.2245473897,
				"z": -0.2242281921,
				"element": "H" 
			},
			{
				"x": -1.7821277287,
				"y": -1.2213730272,
				"z": -1.6701488345,
				"element": "H" 
			},
			{
				"x": -2.4659569209,
				"y": -0.5007340496,
				"z": -0.1986458404,
				"element": "H" 
			},
			{
				"x": 3.9165999342,
				"y": -0.7760763466,
				"z": 0.7563141889,
				"element": "H" 
			},
			{
				"x": -1.9896580438,
				"y": 1.2144319072,
				"z": 1.0767116772,
				"element": "H" 
			},
			{
				"x": -0.9039684695,
				"y": 2.9643708886,
				"z": 2.4858898982,
				"element": "H" 
			},
			{
				"x": 2.7816877773,
				"y": 3.1142531742,
				"z": 3.2519145519,
				"element": "H" 
			},
			{
				"x": 2.9559739495,
				"y": 1.1680455957,
				"z": 1.9322342682,
				"element": "H" 
			}
		],
		 "valence_orbital": [ 
			{
				"type": "occ",
				"energy": -0.30198,
				"method": "rhf"
			},
			{
				"type": "occ",
				"energy": -0.25581,
				"method": "rhf"
			},
			{
				"type": "occ",
				"energy": -0.25112,
				"method": "rhf"
			},
			{
				"type": "occ",
				"energy": -0.25002,
				"method": "rhf"
			},
			{
				"type": "occ",
				"energy": -0.23392,
				"method": "rhf"
			},
			{
				"type": "unocc",
				"energy": -0.06853,
				"method": "rhf"
			},
			{
				"type": "unocc",
				"energy": -0.04683,
				"method": "rhf"
			},
			{
				"type": "unocc",
				"energy": -0.02585,
				"method": "rhf"
			},
			{
				"type": "unocc",
				"energy": 0.02018,
				"method": "rhf"
			},
			{
				"type": "unocc",
				"energy": 0.04097,
				"method": "rhf"
			}
		],
		"cosmo_sigma_profile": { 
			"-0.025": 0.0,
			"-0.024": 0.0,
			"-0.023": 0.0,
			"-0.022": 0.0,
			"-0.021": 0.0,
			"-0.02": 0.0,
			"-0.019": 0.0,
			"-0.018": 0.0,
			"-0.017": 0.0,
			"-0.016": 0.0,
			"-0.015": 0.0,
			"-0.014": 0.0,
			"-0.013": 0.0,
			"-0.012": 0.0,
			"-0.011": 0.000293920569613,
			"-0.01": 0.952686150186,
			"-0.009": 2.3891958729,
			"-0.008": 6.26117871038,
			"-0.007": 12.8176811988,
			"-0.006": 16.3239625228,
			"-0.005": 17.6155484988,
			"-0.004": 20.1225647405,
			"-0.003": 16.1425265436,
			"-0.002": 14.0031111925,
			"-0.001": 16.2362984549,
			"0.0": 18.049320903,
			"0.001": 18.4083571577,
			"0.002": 19.2561620809,
			"0.003": 15.4958284023,
			"0.004": 5.58705401178,
			"0.005": 3.95684847252,
			"0.006": 3.86221406245,
			"0.007": 2.6582633587,
			"0.008": 3.50524449876,
			"0.009": 4.39457402795,
			"0.01": 4.7781183325,
			"0.011": 7.37308646219,
			"0.012": 8.38297274897,
			"0.013": 3.12574313532,
			"0.014": 0.368957219136,
			"0.015": 0.0,
			"0.016": 0.0,
			"0.017": 0.0,
			"0.018": 0.0,
			"0.019": 0.0,
			"0.02": 0.0,
			"0.021": 0.0,
			"0.022": 0.0,
			"0.023": 0.0,
			"0.024": 0.0,
			"0.025": 0.0
		}
	}
}
