{
	 "smiles": "OC(=O)C1CN(CCN1C(=O)OCC1C2=C(C=CC=C2)C2=C1C=CC=C2)C(=O)OCC=C", 
	 "Tm": 336.15, 
	 "num_atms": 56, 
	 "gaussian": { 
		 "optdone": 1, 
		 "sigma_profile": "yes", 
		 "theory": "DFT", 
		 "functional": "B3LYP", 
		 "basiset": "6-31G**", 
		 "properties": { 
			 "R2extent": 16702.1233, 
			 "electric_dipole_moment_norm": 4.42147498014, 
			 "electric_quadrupole_moment_norm": 27.6140368652, 
			 "total_energy": -1489.90418858, 
			 "HOMO_LUMO_gap": 0.18414, 
			 "cosmo_polarized_energy": -23.77, 
			 "cosmo_cavitation_energy": 59.8, 
			 "cosmo_dispersion_energy": -37.99, 
			 "cosmo_repulsion_energy": 2.89, 
			 "cosmo_total_nonelectrostatic_energy": 24.7, 
			 "SMD_solvation_energy": 12.37 
		},
		"coords": [
			{
				"x": 3.2302812641,
				"y": 3.8874979596,
				"z": -0.9584793763,
				"element": "O" 
			},
			{
				"x": 3.9741745449,
				"y": 2.8234287656,
				"z": -0.5844704279,
				"element": "C" 
			},
			{
				"x": 5.0502861626,
				"y": 2.9276618599,
				"z": -0.0419892687,
				"element": "O" 
			},
			{
				"x": 3.3438485412,
				"y": 1.4757469804,
				"z": -0.9649956256,
				"element": "C" 
			},
			{
				"x": 3.5078490663,
				"y": 0.4594471914,
				"z": 0.1745252753,
				"element": "C" 
			},
			{
				"x": 2.5314933668,
				"y": 0.7138524771,
				"z": 1.2304986266,
				"element": "N" 
			},
			{
				"x": 1.1376261302,
				"y": 0.7501764719,
				"z": 0.7899455647,
				"element": "C" 
			},
			{
				"x": 0.9653330175,
				"y": 1.7884080109,
				"z": -0.3213042475,
				"element": "C" 
			},
			{
				"x": 1.9520298203,
				"y": 1.5646267319,
				"z": -1.3789721435,
				"element": "N" 
			},
			{
				"x": 1.6820623927,
				"y": 1.6276534566,
				"z": -2.721102641,
				"element": "C" 
			},
			{
				"x": 2.5231324654,
				"y": 1.4993002092,
				"z": -3.596971103,
				"element": "O" 
			},
			{
				"x": 0.3589203732,
				"y": 1.841528765,
				"z": -2.9496749912,
				"element": "O" 
			},
			{
				"x": -0.0811525968,
				"y": 1.7754602295,
				"z": -4.3155009055,
				"element": "C" 
			},
			{
				"x": -0.9871447801,
				"y": 0.5564176735,
				"z": -4.5334839949,
				"element": "C" 
			},
			{
				"x": -2.2562183556,
				"y": 0.5463501605,
				"z": -3.6929190619,
				"element": "C" 
			},
			{
				"x": -2.3493121777,
				"y": -0.6562164602,
				"z": -2.9634392588,
				"element": "C" 
			},
			{
				"x": -3.4447440392,
				"y": -0.8954315091,
				"z": -2.1307308079,
				"element": "C" 
			},
			{
				"x": -4.4420768444,
				"y": 0.0776848006,
				"z": -2.0314362684,
				"element": "C" 
			},
			{
				"x": -4.3487018913,
				"y": 1.2712637479,
				"z": -2.7551837931,
				"element": "C" 
			},
			{
				"x": -3.25288894,
				"y": 1.5103044154,
				"z": -3.5932027365,
				"element": "C" 
			},
			{
				"x": -1.1691919241,
				"y": -1.4789297783,
				"z": -3.2635961568,
				"element": "C" 
			},
			{
				"x": -0.351185859,
				"y": -0.7799573041,
				"z": -4.1750106893,
				"element": "C" 
			},
			{
				"x": 0.8449840311,
				"y": -1.3332189939,
				"z": -4.6185366607,
				"element": "C" 
			},
			{
				"x": 1.2192379033,
				"y": -2.5990013141,
				"z": -4.1516741535,
				"element": "C" 
			},
			{
				"x": 0.4042154562,
				"y": -3.2974396814,
				"z": -3.2543441308,
				"element": "C" 
			},
			{
				"x": -0.7953812503,
				"y": -2.7428799801,
				"z": -2.8018779885,
				"element": "C" 
			},
			{
				"x": 2.9209492242,
				"y": 0.5123355868,
				"z": 2.5322696576,
				"element": "C" 
			},
			{
				"x": 4.0648417917,
				"y": 0.2906681893,
				"z": 2.8882266214,
				"element": "O" 
			},
			{
				"x": 1.866781657,
				"y": 0.6117581187,
				"z": 3.3891681722,
				"element": "O" 
			},
			{
				"x": 2.1980608979,
				"y": 0.5010670488,
				"z": 4.7805432703,
				"element": "C" 
			},
			{
				"x": 0.9732374299,
				"y": 0.1759063864,
				"z": 5.5794316071,
				"element": "C" 
			},
			{
				"x": -0.2402988546,
				"y": -0.0834353586,
				"z": 5.0968204406,
				"element": "C" 
			},
			{
				"x": 3.7461390043,
				"y": 4.6736051618,
				"z": -0.710378141,
				"element": "H" 
			},
			{
				"x": 3.9115311301,
				"y": 1.1261926626,
				"z": -1.8325781859,
				"element": "H" 
			},
			{
				"x": 3.3646697232,
				"y": -0.5496334917,
				"z": -0.2374752182,
				"element": "H" 
			},
			{
				"x": 4.5060939749,
				"y": 0.5326619104,
				"z": 0.6022967954,
				"element": "H" 
			},
			{
				"x": 0.8373777786,
				"y": -0.2399982313,
				"z": 0.4146637234,
				"element": "H" 
			},
			{
				"x": 0.501942425,
				"y": 1.0079551508,
				"z": 1.6350784714,
				"element": "H" 
			},
			{
				"x": 1.0909176977,
				"y": 2.798163205,
				"z": 0.0907492306,
				"element": "H" 
			},
			{
				"x": -0.0313921333,
				"y": 1.7115480379,
				"z": -0.751340649,
				"element": "H" 
			},
			{
				"x": 0.7926793959,
				"y": 1.7412016145,
				"z": -4.9684347293,
				"element": "H" 
			},
			{
				"x": -0.6352802176,
				"y": 2.6993729168,
				"z": -4.507375516,
				"element": "H" 
			},
			{
				"x": -1.2529355151,
				"y": 0.569037935,
				"z": -5.6023170936,
				"element": "H" 
			},
			{
				"x": -3.5249064615,
				"y": -1.8215403107,
				"z": -1.5680666692,
				"element": "H" 
			},
			{
				"x": -5.2998023018,
				"y": -0.094518267,
				"z": -1.3874214028,
				"element": "H" 
			},
			{
				"x": -5.1333038104,
				"y": 2.0172776081,
				"z": -2.6680084152,
				"element": "H" 
			},
			{
				"x": -3.1908847233,
				"y": 2.4391653098,
				"z": -4.1550478139,
				"element": "H" 
			},
			{
				"x": 1.49270918,
				"y": -0.7903565327,
				"z": -5.3004711301,
				"element": "H" 
			},
			{
				"x": 2.1523074665,
				"y": -3.0412385807,
				"z": -4.488355702,
				"element": "H" 
			},
			{
				"x": 0.7087169715,
				"y": -4.2797093983,
				"z": -2.9041776405,
				"element": "H" 
			},
			{
				"x": -1.423159368,
				"y": -3.2891670776,
				"z": -2.1031536175,
				"element": "H" 
			},
			{
				"x": 2.6393255122,
				"y": 1.4486369538,
				"z": 5.1196775099,
				"element": "H" 
			},
			{
				"x": 2.9714157306,
				"y": -0.2645244679,
				"z": 4.9093286519,
				"element": "H" 
			},
			{
				"x": 1.1470640155,
				"y": 0.156050436,
				"z": 6.6549950831,
				"element": "H" 
			},
			{
				"x": -1.0685543664,
				"y": -0.3172513621,
				"z": 5.758089497,
				"element": "H" 
			},
			{
				"x": -0.442419132,
				"y": -0.0732660389,
				"z": 4.0312901571,
				"element": "H" 
			}
		],
		 "valence_orbital": [ 
			{
				"type": "occ",
				"energy": -0.25551,
				"method": "rhf"
			},
			{
				"type": "occ",
				"energy": -0.25277,
				"method": "rhf"
			},
			{
				"type": "occ",
				"energy": -0.24656,
				"method": "rhf"
			},
			{
				"type": "occ",
				"energy": -0.23841,
				"method": "rhf"
			},
			{
				"type": "occ",
				"energy": -0.21804,
				"method": "rhf"
			},
			{
				"type": "unocc",
				"energy": -0.0339,
				"method": "rhf"
			},
			{
				"type": "unocc",
				"energy": -0.01585,
				"method": "rhf"
			},
			{
				"type": "unocc",
				"energy": 0.00176,
				"method": "rhf"
			},
			{
				"type": "unocc",
				"energy": 0.00544,
				"method": "rhf"
			},
			{
				"type": "unocc",
				"energy": 0.01659,
				"method": "rhf"
			}
		],
		"cosmo_sigma_profile": { 
			"-0.025": 0.0,
			"-0.024": 0.0,
			"-0.023": 0.0,
			"-0.022": 0.0,
			"-0.021": 0.0,
			"-0.02": 0.0,
			"-0.019": 0.332466397143,
			"-0.018": 0.761522956948,
			"-0.017": 1.08186845118,
			"-0.016": 0.750358167153,
			"-0.015": 1.34155099907,
			"-0.014": 0.703229691126,
			"-0.013": 0.326750576657,
			"-0.012": 0.431574138651,
			"-0.011": 1.01435603753,
			"-0.01": 0.615465486762,
			"-0.009": 0.664227782256,
			"-0.008": 2.27927960869,
			"-0.007": 3.72706138828,
			"-0.006": 30.3588291144,
			"-0.005": 50.5488310861,
			"-0.004": 46.0750578646,
			"-0.003": 42.2367153731,
			"-0.002": 29.8923548956,
			"-0.001": 27.5059304123,
			"0.0": 28.7236187841,
			"0.001": 23.954055186,
			"0.002": 26.1734912348,
			"0.003": 31.857250545,
			"0.004": 31.3438741589,
			"0.005": 29.9037148033,
			"0.006": 20.1465358579,
			"0.007": 6.34365638706,
			"0.008": 5.0004657846,
			"0.009": 4.10880419782,
			"0.01": 5.99865521937,
			"0.011": 7.7598745143,
			"0.012": 7.48098849747,
			"0.013": 5.18411808634,
			"0.014": 0.0156140286058,
			"0.015": 0.0,
			"0.016": 0.0,
			"0.017": 0.0,
			"0.018": 0.0,
			"0.019": 0.0,
			"0.02": 0.0,
			"0.021": 0.0,
			"0.022": 0.0,
			"0.023": 0.0,
			"0.024": 0.0,
			"0.025": 0.0
		}
	}
}
