{
	 "smiles": "CCCN1C(S)=NC2=C1C=CC(=C2)S(N)(=O)=O", 
	 "Tm": 465.15, 
	 "num_atms": 30, 
	 "gaussian": { 
		 "optdone": 1, 
		 "sigma_profile": "yes", 
		 "theory": "DFT", 
		 "functional": "B3LYP", 
		 "basiset": "6-31G**", 
		 "properties": { 
			 "R2extent": 6758.2062, 
			 "electric_dipole_moment_norm": 8.33616831164, 
			 "electric_quadrupole_moment_norm": 19.3051718014, 
			 "total_energy": -1499.92265266, 
			 "HOMO_LUMO_gap": 0.19469, 
			 "cosmo_polarized_energy": -24.33, 
			 "cosmo_cavitation_energy": 36.43, 
			 "cosmo_dispersion_energy": -26.88, 
			 "cosmo_repulsion_energy": 2.0, 
			 "cosmo_total_nonelectrostatic_energy": 11.54, 
			 "SMD_solvation_energy": 3.2 
		},
		"coords": [
			{
				"x": 2.3662421658,
				"y": -3.8344554897,
				"z": 0.4263546926,
				"element": "C" 
			},
			{
				"x": 1.1544907348,
				"y": -3.7821680101,
				"z": 1.3601653692,
				"element": "C" 
			},
			{
				"x": -0.2014330727,
				"y": -3.7797449211,
				"z": 0.6370495344,
				"element": "C" 
			},
			{
				"x": -0.4233556883,
				"y": -2.6047742557,
				"z": -0.2053636099,
				"element": "N" 
			},
			{
				"x": -0.3709304541,
				"y": -2.510094712,
				"z": -1.585649112,
				"element": "C" 
			},
			{
				"x": -0.0174104656,
				"y": -3.9262608025,
				"z": -2.5865906699,
				"element": "S" 
			},
			{
				"x": -0.6172646518,
				"y": -1.3132365536,
				"z": -2.0573541141,
				"element": "N" 
			},
			{
				"x": -0.857530299,
				"y": -0.5417016118,
				"z": -0.9310115939,
				"element": "C" 
			},
			{
				"x": -0.7413159954,
				"y": -1.3296775442,
				"z": 0.2410527466,
				"element": "C" 
			},
			{
				"x": -0.9371604863,
				"y": -0.806094455,
				"z": 1.520973822,
				"element": "C" 
			},
			{
				"x": -1.2609534949,
				"y": 0.5451499069,
				"z": 1.6097362661,
				"element": "C" 
			},
			{
				"x": -1.3781290091,
				"y": 1.3300882988,
				"z": 0.4462400234,
				"element": "C" 
			},
			{
				"x": -1.175365269,
				"y": 0.8148892219,
				"z": -0.8335042118,
				"element": "C" 
			},
			{
				"x": -1.8314532354,
				"y": 3.0604929863,
				"z": 0.6193481713,
				"element": "S" 
			},
			{
				"x": -3.5141919148,
				"y": 3.1352051922,
				"z": 0.5443673843,
				"element": "N" 
			},
			{
				"x": -1.4848892241,
				"y": 3.4731178279,
				"z": 1.9792314256,
				"element": "O" 
			},
			{
				"x": -1.3585078557,
				"y": 3.7652652058,
				"z": -0.5709245331,
				"element": "O" 
			},
			{
				"x": 3.2960377792,
				"y": -3.8431257908,
				"z": 1.0027553481,
				"element": "H" 
			},
			{
				"x": 2.3515016266,
				"y": -4.7341381028,
				"z": -0.1982207265,
				"element": "H" 
			},
			{
				"x": 2.3979696089,
				"y": -2.9663078393,
				"z": -0.2389240639,
				"element": "H" 
			},
			{
				"x": 1.2181524047,
				"y": -2.8964207748,
				"z": 2.0029978431,
				"element": "H" 
			},
			{
				"x": 1.1587750973,
				"y": -4.6508228539,
				"z": 2.0304242925,
				"element": "H" 
			},
			{
				"x": -0.2977643109,
				"y": -4.6652149833,
				"z": 0.0010872828,
				"element": "H" 
			},
			{
				"x": -1.0193682926,
				"y": -3.8228610045,
				"z": 1.3649256398,
				"element": "H" 
			},
			{
				"x": -0.2380235318,
				"y": -3.2500772983,
				"z": -3.728628694,
				"element": "H" 
			},
			{
				"x": -0.8352197225,
				"y": -1.4112242571,
				"z": 2.4157542392,
				"element": "H" 
			},
			{
				"x": -1.3973815454,
				"y": 1.0147776332,
				"z": 2.5773999721,
				"element": "H" 
			},
			{
				"x": -1.2410090323,
				"y": 1.4445185323,
				"z": -1.7135146796,
				"element": "H" 
			},
			{
				"x": -3.8733264497,
				"y": 2.843042315,
				"z": -0.35944177,
				"element": "H" 
			},
			{
				"x": -3.957685416,
				"y": 2.6482541405,
				"z": 1.3171637257,
				"element": "H" 
			}
		],
		 "valence_orbital": [ 
			{
				"type": "occ",
				"energy": -0.29659,
				"method": "rhf"
			},
			{
				"type": "occ",
				"energy": -0.29337,
				"method": "rhf"
			},
			{
				"type": "occ",
				"energy": -0.29071,
				"method": "rhf"
			},
			{
				"type": "occ",
				"energy": -0.24547,
				"method": "rhf"
			},
			{
				"type": "occ",
				"energy": -0.23199,
				"method": "rhf"
			},
			{
				"type": "unocc",
				"energy": -0.0373,
				"method": "rhf"
			},
			{
				"type": "unocc",
				"energy": -0.01909,
				"method": "rhf"
			},
			{
				"type": "unocc",
				"energy": -0.00468,
				"method": "rhf"
			},
			{
				"type": "unocc",
				"energy": 0.03244,
				"method": "rhf"
			},
			{
				"type": "unocc",
				"energy": 0.04938,
				"method": "rhf"
			}
		],
		"cosmo_sigma_profile": { 
			"-0.025": 0.0,
			"-0.024": 0.0,
			"-0.023": 0.0,
			"-0.022": 0.0,
			"-0.021": 0.0,
			"-0.02": 0.0,
			"-0.019": 0.0,
			"-0.018": 0.0,
			"-0.017": 0.0,
			"-0.016": 0.0102353622848,
			"-0.015": 1.73041696538,
			"-0.014": 2.82750323892,
			"-0.013": 2.61118126164,
			"-0.012": 4.12021764146,
			"-0.011": 3.47957017984,
			"-0.01": 3.47430881647,
			"-0.009": 3.9213970176,
			"-0.008": 3.61471287245,
			"-0.007": 9.78036737709,
			"-0.006": 13.2882245918,
			"-0.005": 14.3782224335,
			"-0.004": 18.6583480253,
			"-0.003": 21.3113913866,
			"-0.002": 19.8451833595,
			"-0.001": 23.0366609781,
			"0.0": 18.3811295454,
			"0.001": 19.8662684432,
			"0.002": 20.8610416347,
			"0.003": 16.218626525,
			"0.004": 8.62548207762,
			"0.005": 6.41509812737,
			"0.006": 7.46153247037,
			"0.007": 5.59803682914,
			"0.008": 5.41554875359,
			"0.009": 6.28105851359,
			"0.01": 7.00020741922,
			"0.011": 11.6834732847,
			"0.012": 7.98096538284,
			"0.013": 1.35732862446,
			"0.014": 1.09393344571,
			"0.015": 0.699358322943,
			"0.016": 0.292339573065,
			"0.017": 0.0,
			"0.018": 0.0,
			"0.019": 0.0,
			"0.02": 0.0,
			"0.021": 0.0,
			"0.022": 0.0,
			"0.023": 0.0,
			"0.024": 0.0,
			"0.025": 0.0
		}
	}
}
