{
	 "smiles": "CC(=O)OC1C2OC22C3CCC4(O)CC(O)CCC4(C)C3CCC2(C)C1C1=COC(=O)C=C1", 
	 "Tm": 533.15, 
	 "num_atms": 67, 
	 "gaussian": { 
		 "optdone": 1, 
		 "sigma_profile": "yes", 
		 "theory": "DFT", 
		 "functional": "B3LYP", 
		 "basiset": "6-31G**", 
		 "properties": { 
			 "R2extent": 19439.0211, 
			 "electric_dipole_moment_norm": 5.27088200115, 
			 "electric_quadrupole_moment_norm": 55.48727848, 
			 "total_energy": -1537.78383749, 
			 "HOMO_LUMO_gap": 0.17217, 
			 "cosmo_polarized_energy": -27.92, 
			 "cosmo_cavitation_energy": 59.72, 
			 "cosmo_dispersion_energy": -40.79, 
			 "cosmo_repulsion_energy": 2.96, 
			 "cosmo_total_nonelectrostatic_energy": 21.89, 
			 "SMD_solvation_energy": 10.88 
		},
		"coords": [
			{
				"x": 2.3566642471,
				"y": 1.9173177395,
				"z": -5.9502131608,
				"element": "C" 
			},
			{
				"x": 1.8918858136,
				"y": 0.8903345289,
				"z": -4.9482648378,
				"element": "C" 
			},
			{
				"x": 1.7323195965,
				"y": -0.290448678,
				"z": -5.1778654254,
				"element": "O" 
			},
			{
				"x": 1.6811528436,
				"y": 1.4666321302,
				"z": -3.7384553918,
				"element": "O" 
			},
			{
				"x": 1.2188468631,
				"y": 0.6254774847,
				"z": -2.6609710271,
				"element": "C" 
			},
			{
				"x": -0.0403767092,
				"y": 1.1849447922,
				"z": -2.030326324,
				"element": "C" 
			},
			{
				"x": 0.247978444,
				"y": 2.264308749,
				"z": -1.1325503697,
				"element": "O" 
			},
			{
				"x": 0.0162489763,
				"y": 0.931011918,
				"z": -0.5827993292,
				"element": "C" 
			},
			{
				"x": -1.1474870438,
				"y": 0.922467777,
				"z": 0.3885971373,
				"element": "C" 
			},
			{
				"x": -2.0653278909,
				"y": -0.3110228841,
				"z": 0.4106121127,
				"element": "C" 
			},
			{
				"x": -3.3419093865,
				"y": -0.0014513308,
				"z": 1.2361504171,
				"element": "C" 
			},
			{
				"x": -3.1658287084,
				"y": 1.1251785587,
				"z": 2.2789551343,
				"element": "C" 
			},
			{
				"x": -3.3372829306,
				"y": 2.3464975925,
				"z": 1.524037722,
				"element": "O" 
			},
			{
				"x": -4.2904008056,
				"y": 1.0811086121,
				"z": 3.3398848499,
				"element": "C" 
			},
			{
				"x": -4.1592526815,
				"y": 2.193279701,
				"z": 4.3919294535,
				"element": "C" 
			},
			{
				"x": -5.2070998878,
				"y": 2.1417757778,
				"z": 5.3539020254,
				"element": "O" 
			},
			{
				"x": -2.7704909376,
				"y": 2.1813479183,
				"z": 5.0453476571,
				"element": "C" 
			},
			{
				"x": -1.644444038,
				"y": 2.2111367943,
				"z": 3.9966610496,
				"element": "C" 
			},
			{
				"x": -1.7398242773,
				"y": 1.0791372225,
				"z": 2.9351342643,
				"element": "C" 
			},
			{
				"x": -1.5478428747,
				"y": -0.2785249166,
				"z": 3.6595319991,
				"element": "C" 
			},
			{
				"x": -0.639173428,
				"y": 1.3136623075,
				"z": 1.8192852077,
				"element": "C" 
			},
			{
				"x": 0.733101248,
				"y": 0.6870742875,
				"z": 2.1835280349,
				"element": "C" 
			},
			{
				"x": 1.8155594303,
				"y": 0.8483552636,
				"z": 1.096984175,
				"element": "C" 
			},
			{
				"x": 1.3479680388,
				"y": 0.2441179286,
				"z": -0.2410599496,
				"element": "C" 
			},
			{
				"x": 1.1881508052,
				"y": -1.2865282671,
				"z": -0.151849965,
				"element": "C" 
			},
			{
				"x": 2.2345663481,
				"y": 0.6186979668,
				"z": -1.4932396241,
				"element": "C" 
			},
			{
				"x": 3.5013508148,
				"y": -0.1808237847,
				"z": -1.6932094815,
				"element": "C" 
			},
			{
				"x": 3.6558219767,
				"y": -1.1614657087,
				"z": -2.6211548085,
				"element": "C" 
			},
			{
				"x": 4.7929919749,
				"y": -1.8708371399,
				"z": -2.7767911387,
				"element": "O" 
			},
			{
				"x": 5.9379137213,
				"y": -1.6732014156,
				"z": -1.9785072001,
				"element": "C" 
			},
			{
				"x": 6.8959466617,
				"y": -2.3805202375,
				"z": -2.1827139744,
				"element": "O" 
			},
			{
				"x": 5.8086395695,
				"y": -0.6089867022,
				"z": -1.0019443582,
				"element": "C" 
			},
			{
				"x": 4.6548774978,
				"y": 0.0954315144,
				"z": -0.8740255321,
				"element": "C" 
			},
			{
				"x": 1.6523181418,
				"y": 2.7526839426,
				"z": -5.9902886528,
				"element": "H" 
			},
			{
				"x": 2.4494761947,
				"y": 1.4520842076,
				"z": -6.930812637,
				"element": "H" 
			},
			{
				"x": 3.3247761131,
				"y": 2.3220728469,
				"z": -5.6395289889,
				"element": "H" 
			},
			{
				"x": 1.0191656633,
				"y": -0.3686977636,
				"z": -3.0671488708,
				"element": "H" 
			},
			{
				"x": -0.9591454942,
				"y": 1.2665581809,
				"z": -2.6078338014,
				"element": "H" 
			},
			{
				"x": -1.7778353226,
				"y": 1.7483704582,
				"z": 0.0558140648,
				"element": "H" 
			},
			{
				"x": -1.5512338144,
				"y": -1.1836515526,
				"z": 0.8249030024,
				"element": "H" 
			},
			{
				"x": -2.3468869576,
				"y": -0.5857744928,
				"z": -0.612169885,
				"element": "H" 
			},
			{
				"x": -3.6917657542,
				"y": -0.9100089431,
				"z": 1.7367299002,
				"element": "H" 
			},
			{
				"x": -4.1503068909,
				"y": 0.3234156072,
				"z": 0.5732293233,
				"element": "H" 
			},
			{
				"x": -3.1263670514,
				"y": 3.0994681324,
				"z": 2.0894318387,
				"element": "H" 
			},
			{
				"x": -4.2987523936,
				"y": 0.1104121893,
				"z": 3.852204894,
				"element": "H" 
			},
			{
				"x": -5.2532507922,
				"y": 1.1792669159,
				"z": 2.8279154597,
				"element": "H" 
			},
			{
				"x": -4.3060341316,
				"y": 3.162634919,
				"z": 3.8972749775,
				"element": "H" 
			},
			{
				"x": -5.1456651654,
				"y": 1.289677312,
				"z": 5.8070954208,
				"element": "H" 
			},
			{
				"x": -2.6821126261,
				"y": 1.2827848994,
				"z": 5.6712316725,
				"element": "H" 
			},
			{
				"x": -2.683123807,
				"y": 3.0376563078,
				"z": 5.7229758113,
				"element": "H" 
			},
			{
				"x": -0.6691202772,
				"y": 2.1622357795,
				"z": 4.4950576416,
				"element": "H" 
			},
			{
				"x": -1.6571823184,
				"y": 3.1878636309,
				"z": 3.4906401924,
				"element": "H" 
			},
			{
				"x": -2.3621968536,
				"y": -0.4875757264,
				"z": 4.3547781401,
				"element": "H" 
			},
			{
				"x": -0.6260200253,
				"y": -0.278081125,
				"z": 4.2472287533,
				"element": "H" 
			},
			{
				"x": -1.4958409898,
				"y": -1.1214569134,
				"z": 2.9672152063,
				"element": "H" 
			},
			{
				"x": -0.4682642512,
				"y": 2.3965442541,
				"z": 1.7686544059,
				"element": "H" 
			},
			{
				"x": 1.0964009387,
				"y": 1.1436444882,
				"z": 3.1123729752,
				"element": "H" 
			},
			{
				"x": 0.624413889,
				"y": -0.3785110335,
				"z": 2.4015342164,
				"element": "H" 
			},
			{
				"x": 2.0294005117,
				"y": 1.9135837852,
				"z": 0.9420312453,
				"element": "H" 
			},
			{
				"x": 2.7440713473,
				"y": 0.3759294534,
				"z": 1.4407989058,
				"element": "H" 
			},
			{
				"x": 0.7880682707,
				"y": -1.708466274,
				"z": -1.0796301893,
				"element": "H" 
			},
			{
				"x": 0.5183717934,
				"y": -1.5882497625,
				"z": 0.6539184553,
				"element": "H" 
			},
			{
				"x": 2.1579187491,
				"y": -1.7579668913,
				"z": 0.031710471,
				"element": "H" 
			},
			{
				"x": 2.5238294851,
				"y": 1.6662655145,
				"z": -1.3647834433,
				"element": "H" 
			},
			{
				"x": 2.9096133785,
				"y": -1.4531034956,
				"z": -3.3513905907,
				"element": "H" 
			},
			{
				"x": 6.6839882575,
				"y": -0.4087152462,
				"z": -0.3955467002,
				"element": "H" 
			},
			{
				"x": 4.5939489115,
				"y": 0.8981208949,
				"z": -0.1433125559,
				"element": "H" 
			}
		],
		 "valence_orbital": [ 
			{
				"type": "occ",
				"energy": -0.26863,
				"method": "rhf"
			},
			{
				"type": "occ",
				"energy": -0.26714,
				"method": "rhf"
			},
			{
				"type": "occ",
				"energy": -0.26477,
				"method": "rhf"
			},
			{
				"type": "occ",
				"energy": -0.25898,
				"method": "rhf"
			},
			{
				"type": "occ",
				"energy": -0.22945,
				"method": "rhf"
			},
			{
				"type": "unocc",
				"energy": -0.05728,
				"method": "rhf"
			},
			{
				"type": "unocc",
				"energy": 0.00113,
				"method": "rhf"
			},
			{
				"type": "unocc",
				"energy": 0.00963,
				"method": "rhf"
			},
			{
				"type": "unocc",
				"energy": 0.04722,
				"method": "rhf"
			},
			{
				"type": "unocc",
				"energy": 0.0597,
				"method": "rhf"
			}
		],
		"cosmo_sigma_profile": { 
			"-0.025": 0.0,
			"-0.024": 0.0,
			"-0.023": 0.0,
			"-0.022": 0.0,
			"-0.021": 0.0,
			"-0.02": 0.0,
			"-0.019": 0.0,
			"-0.018": 0.0,
			"-0.017": 0.0,
			"-0.016": 0.0,
			"-0.015": 0.293887985959,
			"-0.014": 1.03715213572,
			"-0.013": 1.82369595016,
			"-0.012": 2.27870025894,
			"-0.011": 1.770691848,
			"-0.01": 2.33174095288,
			"-0.009": 2.54261766003,
			"-0.008": 3.42262849421,
			"-0.007": 13.598799048,
			"-0.006": 20.742520287,
			"-0.005": 24.5642521291,
			"-0.004": 25.723637425,
			"-0.003": 48.3675409646,
			"-0.002": 59.0752527486,
			"-0.001": 56.6229683731,
			"0.0": 48.3338286462,
			"0.001": 32.4219261274,
			"0.002": 15.5268552536,
			"0.003": 8.79338363664,
			"0.004": 9.10717316656,
			"0.005": 8.7806967234,
			"0.006": 9.28635882331,
			"0.007": 8.13712407313,
			"0.008": 8.75577690022,
			"0.009": 7.40854157185,
			"0.01": 8.45940465157,
			"0.011": 9.62151764519,
			"0.012": 12.0448789389,
			"0.013": 7.8957212985,
			"0.014": 3.59084651376,
			"0.015": 1.4030366915,
			"0.016": 0.0,
			"0.017": 0.0,
			"0.018": 0.0,
			"0.019": 0.0,
			"0.02": 0.0,
			"0.021": 0.0,
			"0.022": 0.0,
			"0.023": 0.0,
			"0.024": 0.0,
			"0.025": 0.0
		}
	}
}
