{
	 "smiles": "FC(F)(F)C1=CC(=CC=C1Cl)N(=O)=O", 
	 "Tm": 295.15, 
	 "num_atms": 17, 
	 "gaussian": { 
		 "optdone": 1, 
		 "sigma_profile": "yes", 
		 "theory": "DFT", 
		 "functional": "B3LYP", 
		 "basiset": "6-31G**", 
		 "properties": { 
			 "R2extent": 3930.5169, 
			 "electric_dipole_moment_norm": 2.75891144657, 
			 "electric_quadrupole_moment_norm": 12.1871932281, 
			 "total_energy": -1233.36317744, 
			 "HOMO_LUMO_gap": 0.18146, 
			 "cosmo_polarized_energy": -7.63, 
			 "cosmo_cavitation_energy": 25.64, 
			 "cosmo_dispersion_energy": -18.49, 
			 "cosmo_repulsion_energy": 1.38, 
			 "cosmo_total_nonelectrostatic_energy": 8.54, 
			 "SMD_solvation_energy": 7.6 
		},
		"coords": [
			{
				"x": -2.8225767427,
				"y": -1.7251579259,
				"z": -2.4112225472,
				"element": "F" 
			},
			{
				"x": -1.5700643883,
				"y": -1.2331264121,
				"z": -2.358641001,
				"element": "C" 
			},
			{
				"x": -1.3334121137,
				"y": -0.58996667,
				"z": -3.5179450933,
				"element": "F" 
			},
			{
				"x": -0.7264730708,
				"y": -2.2841356546,
				"z": -2.3015902134,
				"element": "F" 
			},
			{
				"x": -1.381053609,
				"y": -0.3177805882,
				"z": -1.1655358768,
				"element": "C" 
			},
			{
				"x": -0.4200030556,
				"y": -0.6449269093,
				"z": -0.2100623317,
				"element": "C" 
			},
			{
				"x": -0.2346852661,
				"y": 0.1849367559,
				"z": 0.8901783412,
				"element": "C" 
			},
			{
				"x": -0.9829825281,
				"y": 1.343673047,
				"z": 1.0736394621,
				"element": "C" 
			},
			{
				"x": -1.9426863515,
				"y": 1.6742684938,
				"z": 0.1234568977,
				"element": "C" 
			},
			{
				"x": -2.1425894117,
				"y": 0.8518582151,
				"z": -0.9888347838,
				"element": "C" 
			},
			{
				"x": -3.3628070636,
				"y": 1.3280434491,
				"z": -2.1398788716,
				"element": "Cl" 
			},
			{
				"x": 0.7845273537,
				"y": -0.1760597831,
				"z": 1.8890497547,
				"element": "N" 
			},
			{
				"x": 0.9241899701,
				"y": 0.5779560243,
				"z": 2.8503721213,
				"element": "O" 
			},
			{
				"x": 1.4277310011,
				"y": -1.2058366438,
				"z": 1.6970300494,
				"element": "O" 
			},
			{
				"x": 0.1830008336,
				"y": -1.5366332923,
				"z": -0.3147929405,
				"element": "H" 
			},
			{
				"x": -0.8085348589,
				"y": 1.9636788092,
				"z": 1.9440878085,
				"element": "H" 
			},
			{
				"x": -2.5427806986,
				"y": 2.569709085,
				"z": 0.2358892243,
				"element": "H" 
			}
		],
		 "valence_orbital": [ 
			{
				"type": "occ",
				"energy": -0.32619,
				"method": "rhf"
			},
			{
				"type": "occ",
				"energy": -0.32349,
				"method": "rhf"
			},
			{
				"type": "occ",
				"energy": -0.30831,
				"method": "rhf"
			},
			{
				"type": "occ",
				"energy": -0.30751,
				"method": "rhf"
			},
			{
				"type": "occ",
				"energy": -0.29009,
				"method": "rhf"
			},
			{
				"type": "unocc",
				"energy": -0.10863,
				"method": "rhf"
			},
			{
				"type": "unocc",
				"energy": -0.06166,
				"method": "rhf"
			},
			{
				"type": "unocc",
				"energy": -0.02835,
				"method": "rhf"
			},
			{
				"type": "unocc",
				"energy": 0.00144,
				"method": "rhf"
			},
			{
				"type": "unocc",
				"energy": 0.08422,
				"method": "rhf"
			}
		],
		"cosmo_sigma_profile": { 
			"-0.025": 0.0,
			"-0.024": 0.0,
			"-0.023": 0.0,
			"-0.022": 0.0,
			"-0.021": 0.0,
			"-0.02": 0.0,
			"-0.019": 0.0,
			"-0.018": 0.0,
			"-0.017": 0.0,
			"-0.016": 0.0,
			"-0.015": 0.0,
			"-0.014": 0.0,
			"-0.013": 0.0,
			"-0.012": 0.0,
			"-0.011": 0.0,
			"-0.01": 0.294666851158,
			"-0.009": 3.33721594532,
			"-0.008": 4.61666485915,
			"-0.007": 5.26190424299,
			"-0.006": 6.28679919126,
			"-0.005": 9.84892145975,
			"-0.004": 11.2218409207,
			"-0.003": 16.1423386592,
			"-0.002": 24.1568916732,
			"-0.001": 16.0424664137,
			"0.0": 12.3745178858,
			"0.001": 15.7257918685,
			"0.002": 32.9202873555,
			"0.003": 20.3054293926,
			"0.004": 3.59702419811,
			"0.005": 3.61002695044,
			"0.006": 5.13018074826,
			"0.007": 9.12982999136,
			"0.008": 4.95396911269,
			"0.009": 3.70773588462,
			"0.01": 0.709449046834,
			"0.011": 0.0,
			"0.012": 0.0,
			"0.013": 0.0,
			"0.014": 0.0,
			"0.015": 0.0,
			"0.016": 0.0,
			"0.017": 0.0,
			"0.018": 0.0,
			"0.019": 0.0,
			"0.02": 0.0,
			"0.021": 0.0,
			"0.022": 0.0,
			"0.023": 0.0,
			"0.024": 0.0,
			"0.025": 0.0
		}
	}
}
