{
	 "smiles": "NC1=C(SC(=C1)C1=CC(Cl)=CC=C1)C#N", 
	 "Tm": 464.15, 
	 "num_atms": 22, 
	 "gaussian": { 
		 "optdone": 1, 
		 "sigma_profile": "yes", 
		 "theory": "DFT", 
		 "functional": "B3LYP", 
		 "basiset": "6-31G**", 
		 "properties": { 
			 "R2extent": 5807.2187, 
			 "electric_dipole_moment_norm": 5.99217410545, 
			 "electric_quadrupole_moment_norm": 28.3306422098, 
			 "total_energy": -1391.25208411, 
			 "HOMO_LUMO_gap": 0.14839, 
			 "cosmo_polarized_energy": -15.26, 
			 "cosmo_cavitation_energy": 31.45, 
			 "cosmo_dispersion_energy": -22.95, 
			 "cosmo_repulsion_energy": 1.75, 
			 "cosmo_total_nonelectrostatic_energy": 10.25, 
			 "SMD_solvation_energy": 5.83 
		},
		"coords": [
			{
				"x": -2.8327801648,
				"y": -1.4562113256,
				"z": 3.3208505273,
				"element": "N" 
			},
			{
				"x": -1.5876950179,
				"y": -1.3894980717,
				"z": 2.7337692424,
				"element": "C" 
			},
			{
				"x": -0.4529214031,
				"y": -2.0397197465,
				"z": 3.2127134643,
				"element": "C" 
			},
			{
				"x": 0.967141552,
				"y": -1.6521160727,
				"z": 2.2565019834,
				"element": "S" 
			},
			{
				"x": 0.0210948056,
				"y": -0.6412175673,
				"z": 1.1934373054,
				"element": "C" 
			},
			{
				"x": -1.2977761878,
				"y": -0.5995466198,
				"z": 1.5809684669,
				"element": "C" 
			},
			{
				"x": 0.6427521458,
				"y": 0.0592981645,
				"z": 0.0610768316,
				"element": "C" 
			},
			{
				"x": 1.7607500509,
				"y": -0.4821315356,
				"z": -0.5969131872,
				"element": "C" 
			},
			{
				"x": 2.3281932842,
				"y": 0.1990075147,
				"z": -1.6698855654,
				"element": "C" 
			},
			{
				"x": 3.7225082663,
				"y": -0.4960939057,
				"z": -2.481022855,
				"element": "Cl" 
			},
			{
				"x": 1.8087522438,
				"y": 1.4118450298,
				"z": -2.1216570824,
				"element": "C" 
			},
			{
				"x": 0.6978070023,
				"y": 1.9468416913,
				"z": -1.4674315387,
				"element": "C" 
			},
			{
				"x": 0.1212093241,
				"y": 1.2867144044,
				"z": -0.3856812192,
				"element": "C" 
			},
			{
				"x": -0.4156030739,
				"y": -2.9126350238,
				"z": 4.3158415216,
				"element": "C" 
			},
			{
				"x": -0.4356581579,
				"y": -3.6353384584,
				"z": 5.2330235543,
				"element": "N" 
			},
			{
				"x": -3.6255573838,
				"y": -1.3038722596,
				"z": 2.7150607833,
				"element": "H" 
			},
			{
				"x": -2.9709315377,
				"y": -2.2000395462,
				"z": 3.991576897,
				"element": "H" 
			},
			{
				"x": -2.0549694794,
				"y": -0.0386667538,
				"z": 1.0450488939,
				"element": "H" 
			},
			{
				"x": 2.1721443409,
				"y": -1.4375224978,
				"z": -0.2902549594,
				"element": "H" 
			},
			{
				"x": 2.2661977265,
				"y": 1.9227667865,
				"z": -2.9611784836,
				"element": "H" 
			},
			{
				"x": 0.2881057345,
				"y": 2.8956436856,
				"z": -1.8004064464,
				"element": "H" 
			},
			{
				"x": -0.7201640706,
				"y": 1.7326921075,
				"z": 0.133961866,
				"element": "H" 
			}
		],
		 "valence_orbital": [ 
			{
				"type": "occ",
				"energy": -0.32135,
				"method": "rhf"
			},
			{
				"type": "occ",
				"energy": -0.28495,
				"method": "rhf"
			},
			{
				"type": "occ",
				"energy": -0.26355,
				"method": "rhf"
			},
			{
				"type": "occ",
				"energy": -0.24807,
				"method": "rhf"
			},
			{
				"type": "occ",
				"energy": -0.21777,
				"method": "rhf"
			},
			{
				"type": "unocc",
				"energy": -0.06938,
				"method": "rhf"
			},
			{
				"type": "unocc",
				"energy": -0.02974,
				"method": "rhf"
			},
			{
				"type": "unocc",
				"energy": -0.01017,
				"method": "rhf"
			},
			{
				"type": "unocc",
				"energy": -0.00141,
				"method": "rhf"
			},
			{
				"type": "unocc",
				"energy": 0.01916,
				"method": "rhf"
			}
		],
		"cosmo_sigma_profile": { 
			"-0.025": 0.0,
			"-0.024": 0.0,
			"-0.023": 0.0,
			"-0.022": 0.0,
			"-0.021": 0.0,
			"-0.02": 0.0,
			"-0.019": 0.0,
			"-0.018": 0.0,
			"-0.017": 0.0,
			"-0.016": 0.0,
			"-0.015": 0.145693925335,
			"-0.014": 1.48488257365,
			"-0.013": 2.86767134469,
			"-0.012": 2.0786644476,
			"-0.011": 3.42321055028,
			"-0.01": 2.29359733096,
			"-0.009": 2.4116241672,
			"-0.008": 4.24321410001,
			"-0.007": 11.5219078606,
			"-0.006": 12.3987991114,
			"-0.005": 11.4398060609,
			"-0.004": 10.5657840173,
			"-0.003": 10.471256994,
			"-0.002": 12.1661342346,
			"-0.001": 14.8839030088,
			"0.0": 20.3739014994,
			"0.001": 29.8294379543,
			"0.002": 33.8524464797,
			"0.003": 23.3753756105,
			"0.004": 14.6079969787,
			"0.005": 6.97209649023,
			"0.006": 2.77390027832,
			"0.007": 3.4190096565,
			"0.008": 3.47755526383,
			"0.009": 3.41584501676,
			"0.01": 4.09078960864,
			"0.011": 3.76775141453,
			"0.012": 3.04111405717,
			"0.013": 2.22688909904,
			"0.014": 0.731069702135,
			"0.015": 0.0,
			"0.016": 0.0,
			"0.017": 0.0,
			"0.018": 0.0,
			"0.019": 0.0,
			"0.02": 0.0,
			"0.021": 0.0,
			"0.022": 0.0,
			"0.023": 0.0,
			"0.024": 0.0,
			"0.025": 0.0
		}
	}
}
