{
	 "smiles": "CC1(C)C2CCC1(CS(Cl)(=O)=O)C(=O)C2", 
	 "Tm": 339.15, 
	 "num_atms": 30, 
	 "gaussian": { 
		 "optdone": 1, 
		 "sigma_profile": "yes", 
		 "theory": "DFT", 
		 "functional": "B3LYP", 
		 "basiset": "6-31G**", 
		 "properties": { 
			 "R2extent": 5930.3582, 
			 "electric_dipole_moment_norm": 6.91481426866, 
			 "electric_quadrupole_moment_norm": 21.7776308241, 
			 "total_energy": -1474.08902269, 
			 "HOMO_LUMO_gap": 0.17113, 
			 "cosmo_polarized_energy": -14.84, 
			 "cosmo_cavitation_energy": 32.52, 
			 "cosmo_dispersion_energy": -23.54, 
			 "cosmo_repulsion_energy": 1.76, 
			 "cosmo_total_nonelectrostatic_energy": 10.74, 
			 "SMD_solvation_energy": 4.26 
		},
		"coords": [
			{
				"x": -2.4286274934,
				"y": 0.4559310842,
				"z": 1.363245508,
				"element": "C" 
			},
			{
				"x": -1.1071886256,
				"y": 0.1993950029,
				"z": 0.6214535582,
				"element": "C" 
			},
			{
				"x": -1.1377144136,
				"y": -1.2510587591,
				"z": 0.1018550219,
				"element": "C" 
			},
			{
				"x": -0.784195856,
				"y": 1.2651671001,
				"z": -0.4826935207,
				"element": "C" 
			},
			{
				"x": -0.6554779139,
				"y": 2.5710498549,
				"z": 0.3314317915,
				"element": "C" 
			},
			{
				"x": 0.0559278788,
				"y": 2.102350002,
				"z": 1.6367375689,
				"element": "C" 
			},
			{
				"x": 0.1909549646,
				"y": 0.5527831287,
				"z": 1.4571070644,
				"element": "C" 
			},
			{
				"x": 0.4412737877,
				"y": -0.3055035701,
				"z": 2.6829357407,
				"element": "C" 
			},
			{
				"x": 1.7134191271,
				"y": 0.2943218043,
				"z": 3.8662438795,
				"element": "S" 
			},
			{
				"x": 0.4635530309,
				"y": 1.446772256,
				"z": 5.2015605808,
				"element": "Cl" 
			},
			{
				"x": 2.1743631622,
				"y": -0.8525915389,
				"z": 4.6373760842,
				"element": "O" 
			},
			{
				"x": 2.6355675731,
				"y": 1.2447084793,
				"z": 3.2621111958,
				"element": "O" 
			},
			{
				"x": 1.2542794069,
				"y": 0.3456993755,
				"z": 0.3646989861,
				"element": "C" 
			},
			{
				"x": 2.3203367959,
				"y": -0.2104274827,
				"z": 0.5018835951,
				"element": "O" 
			},
			{
				"x": 0.6410565339,
				"y": 0.8789267942,
				"z": -0.9366159469,
				"element": "C" 
			},
			{
				"x": -2.4906767224,
				"y": 1.4407183388,
				"z": 1.8285068549,
				"element": "H" 
			},
			{
				"x": -3.2669078442,
				"y": 0.3668677997,
				"z": 0.6631854358,
				"element": "H" 
			},
			{
				"x": -2.5882183834,
				"y": -0.2913237965,
				"z": 2.1483391918,
				"element": "H" 
			},
			{
				"x": -1.3282365507,
				"y": -1.9527988944,
				"z": 0.9211576591,
				"element": "H" 
			},
			{
				"x": -1.9511309161,
				"y": -1.3728630435,
				"z": -0.6214456207,
				"element": "H" 
			},
			{
				"x": -0.2118591458,
				"y": -1.5666948034,
				"z": -0.385374943,
				"element": "H" 
			},
			{
				"x": -1.5149650055,
				"y": 1.3081410999,
				"z": -1.2951085055,
				"element": "H" 
			},
			{
				"x": -0.0741386673,
				"y": 3.324943598,
				"z": -0.2070901516,
				"element": "H" 
			},
			{
				"x": -1.6318051335,
				"y": 3.0139446066,
				"z": 0.5439305148,
				"element": "H" 
			},
			{
				"x": -0.5345273468,
				"y": 2.3283800002,
				"z": 2.5279191822,
				"element": "H" 
			},
			{
				"x": 1.0328375831,
				"y": 2.5663286116,
				"z": 1.7809195648,
				"element": "H" 
			},
			{
				"x": -0.4462533767,
				"y": -0.4546573771,
				"z": 3.3006886686,
				"element": "H" 
			},
			{
				"x": 0.8576388618,
				"y": -1.2776994994,
				"z": 2.4030385034,
				"element": "H" 
			},
			{
				"x": 0.6691831936,
				"y": 0.0930468136,
				"z": -1.6974381298,
				"element": "H" 
			},
			{
				"x": 1.2199314954,
				"y": 1.7227430147,
				"z": -1.3263593323,
				"element": "H" 
			}
		],
		 "valence_orbital": [ 
			{
				"type": "occ",
				"energy": -0.33115,
				"method": "rhf"
			},
			{
				"type": "occ",
				"energy": -0.32508,
				"method": "rhf"
			},
			{
				"type": "occ",
				"energy": -0.31201,
				"method": "rhf"
			},
			{
				"type": "occ",
				"energy": -0.3102,
				"method": "rhf"
			},
			{
				"type": "occ",
				"energy": -0.25421,
				"method": "rhf"
			},
			{
				"type": "unocc",
				"energy": -0.08308,
				"method": "rhf"
			},
			{
				"type": "unocc",
				"energy": -0.03055,
				"method": "rhf"
			},
			{
				"type": "unocc",
				"energy": 0.02952,
				"method": "rhf"
			},
			{
				"type": "unocc",
				"energy": 0.0567,
				"method": "rhf"
			},
			{
				"type": "unocc",
				"energy": 0.062,
				"method": "rhf"
			}
		],
		"cosmo_sigma_profile": { 
			"-0.025": 0.0,
			"-0.024": 0.0,
			"-0.023": 0.0,
			"-0.022": 0.0,
			"-0.021": 0.0,
			"-0.02": 0.0,
			"-0.019": 0.0,
			"-0.018": 0.0,
			"-0.017": 0.0,
			"-0.016": 0.0,
			"-0.015": 0.0,
			"-0.014": 0.0,
			"-0.013": 0.0,
			"-0.012": 0.0,
			"-0.011": 0.0,
			"-0.01": 0.781178468121,
			"-0.009": 2.32947471399,
			"-0.008": 3.79107501042,
			"-0.007": 4.55951495266,
			"-0.006": 11.67885127,
			"-0.005": 15.3183113815,
			"-0.004": 21.7495797333,
			"-0.003": 28.7787502529,
			"-0.002": 25.246461868,
			"-0.001": 25.4617884889,
			"0.0": 24.960080895,
			"0.001": 11.8820864079,
			"0.002": 9.74558720048,
			"0.003": 11.5975516955,
			"0.004": 12.1468695495,
			"0.005": 7.0856070448,
			"0.006": 3.47403044742,
			"0.007": 5.96163633568,
			"0.008": 12.1852749259,
			"0.009": 8.30196247436,
			"0.01": 3.43433453858,
			"0.011": 3.53232908342,
			"0.012": 1.98771474815,
			"0.013": 0.288349328608,
			"0.014": 0.0,
			"0.015": 0.0,
			"0.016": 0.0,
			"0.017": 0.0,
			"0.018": 0.0,
			"0.019": 0.0,
			"0.02": 0.0,
			"0.021": 0.0,
			"0.022": 0.0,
			"0.023": 0.0,
			"0.024": 0.0,
			"0.025": 0.0
		}
	}
}
