{
	 "smiles": "[O-][N+](=O)C1=CC=C(C=C1)N=N/C1=CC=C(C=C1)[N+]([O-])=O", 
	 "Tm": 485.15, 
	 "num_atms": 28, 
	 "gaussian": { 
		 "optdone": 1, 
		 "sigma_profile": "yes", 
		 "theory": "DFT", 
		 "functional": "B3LYP", 
		 "basiset": "6-31G**", 
		 "properties": { 
			 "R2extent": 11800.6487, 
			 "electric_dipole_moment_norm": 0.000943398113206, 
			 "electric_quadrupole_moment_norm": 46.9761818361, 
			 "total_energy": -981.753717496, 
			 "HOMO_LUMO_gap": 0.12882, 
			 "cosmo_polarized_energy": -13.12, 
			 "cosmo_cavitation_energy": 36.04, 
			 "cosmo_dispersion_energy": -26.16, 
			 "cosmo_repulsion_energy": 1.97, 
			 "cosmo_total_nonelectrostatic_energy": 11.85, 
			 "SMD_solvation_energy": 9.49 
		},
		"coords": [
			{
				"x": 5.7541076111,
				"y": 3.9167587652,
				"z": 4.0078582817,
				"element": "O" 
			},
			{
				"x": 5.4498526002,
				"y": 2.7347066294,
				"z": 4.1599557937,
				"element": "N" 
			},
			{
				"x": 6.0346133053,
				"y": 1.9463220401,
				"z": 4.9013199243,
				"element": "O" 
			},
			{
				"x": 4.2978836409,
				"y": 2.2241538783,
				"z": 3.3963203801,
				"element": "C" 
			},
			{
				"x": 3.6160583489,
				"y": 3.0936202985,
				"z": 2.5480613026,
				"element": "C" 
			},
			{
				"x": 2.5301868763,
				"y": 2.6011757409,
				"z": 1.8319054115,
				"element": "C" 
			},
			{
				"x": 2.1400946243,
				"y": 1.2607703991,
				"z": 1.9680751699,
				"element": "C" 
			},
			{
				"x": 2.844861932,
				"y": 0.4016216237,
				"z": 2.8315660764,
				"element": "C" 
			},
			{
				"x": 3.9287513015,
				"y": 0.884451725,
				"z": 3.5493492339,
				"element": "C" 
			},
			{
				"x": 1.0206401499,
				"y": 0.87621299,
				"z": 1.1880727927,
				"element": "N" 
			},
			{
				"x": 0.6798104261,
				"y": -0.3299382708,
				"z": 1.31848471,
				"element": "N" 
			},
			{
				"x": -0.4397180138,
				"y": -0.714465079,
				"z": 0.5385734463,
				"element": "C" 
			},
			{
				"x": -0.8294245158,
				"y": -2.0550301678,
				"z": 0.6742723539,
				"element": "C" 
			},
			{
				"x": -1.9152625696,
				"y": -2.5474915211,
				"z": -0.0419236632,
				"element": "C" 
			},
			{
				"x": -2.597436621,
				"y": -1.6778819372,
				"z": -0.8897554286,
				"element": "C" 
			},
			{
				"x": -2.2287635955,
				"y": -0.3379885405,
				"z": -1.0422215062,
				"element": "C" 
			},
			{
				"x": -1.1449189343,
				"y": 0.1448625522,
				"z": -0.3243849209,
				"element": "C" 
			},
			{
				"x": -3.7492615314,
				"y": -2.1884952466,
				"z": -1.6535666927,
				"element": "N" 
			},
			{
				"x": -4.3340178685,
				"y": -1.4001125373,
				"z": -2.3949351693,
				"element": "O" 
			},
			{
				"x": -4.0533101092,
				"y": -3.370631825,
				"z": -1.5017201158,
				"element": "O" 
			},
			{
				"x": 3.9408916622,
				"y": 4.1228034234,
				"z": 2.4640891088,
				"element": "H" 
			},
			{
				"x": 1.966437344,
				"y": 3.2375849923,
				"z": 1.1584190364,
				"element": "H" 
			},
			{
				"x": 2.5268037824,
				"y": -0.6299327538,
				"z": 2.9219833133,
				"element": "H" 
			},
			{
				"x": 4.4948873168,
				"y": 0.253367104,
				"z": 4.2229322951,
				"element": "H" 
			},
			{
				"x": -0.2653978536,
				"y": -2.6915527774,
				"z": 1.3474193089,
				"element": "H" 
			},
			{
				"x": -2.2398318985,
				"y": -3.5767838572,
				"z": 0.0417265747,
				"element": "H" 
			},
			{
				"x": -2.7951516311,
				"y": 0.2931989898,
				"z": -1.7154958826,
				"element": "H" 
			},
			{
				"x": -0.8272857796,
				"y": 1.1765933618,
				"z": -0.4142811349,
				"element": "H" 
			}
		],
		 "valence_orbital": [ 
			{
				"type": "occ",
				"energy": -0.30123,
				"method": "rhf"
			},
			{
				"type": "occ",
				"energy": -0.29368,
				"method": "rhf"
			},
			{
				"type": "occ",
				"energy": -0.29346,
				"method": "rhf"
			},
			{
				"type": "occ",
				"energy": -0.26992,
				"method": "rhf"
			},
			{
				"type": "occ",
				"energy": -0.2624,
				"method": "rhf"
			},
			{
				"type": "unocc",
				"energy": -0.13358,
				"method": "rhf"
			},
			{
				"type": "unocc",
				"energy": -0.09481,
				"method": "rhf"
			},
			{
				"type": "unocc",
				"energy": -0.07076,
				"method": "rhf"
			},
			{
				"type": "unocc",
				"energy": -0.04068,
				"method": "rhf"
			},
			{
				"type": "unocc",
				"energy": -0.0404,
				"method": "rhf"
			}
		],
		"cosmo_sigma_profile": { 
			"-0.025": 0.0,
			"-0.024": 0.0,
			"-0.023": 0.0,
			"-0.022": 0.0,
			"-0.021": 0.0,
			"-0.02": 0.0,
			"-0.019": 0.0,
			"-0.018": 0.0,
			"-0.017": 0.0,
			"-0.016": 0.0,
			"-0.015": 0.0,
			"-0.014": 0.0,
			"-0.013": 0.0,
			"-0.012": 0.0,
			"-0.011": 0.0,
			"-0.01": 0.0,
			"-0.009": 0.385335523749,
			"-0.008": 7.22461453341,
			"-0.007": 15.4079716845,
			"-0.006": 15.8662545906,
			"-0.005": 13.40421903,
			"-0.004": 15.2611147658,
			"-0.003": 15.3954411537,
			"-0.002": 24.9622514197,
			"-0.001": 36.8134872253,
			"0.0": 41.3373263891,
			"0.001": 19.5138481441,
			"0.002": 8.94827749302,
			"0.003": 8.35057313638,
			"0.004": 9.12883518432,
			"0.005": 9.01465643577,
			"0.006": 8.27953770193,
			"0.007": 18.2959166538,
			"0.008": 12.5313448346,
			"0.009": 8.06656620066,
			"0.01": 3.37526558055,
			"0.011": 0.0,
			"0.012": 0.0,
			"0.013": 0.0,
			"0.014": 0.0,
			"0.015": 0.0,
			"0.016": 0.0,
			"0.017": 0.0,
			"0.018": 0.0,
			"0.019": 0.0,
			"0.02": 0.0,
			"0.021": 0.0,
			"0.022": 0.0,
			"0.023": 0.0,
			"0.024": 0.0,
			"0.025": 0.0
		}
	}
}
