{
	 "smiles": "FC1=C(C=C(Br)C=C1)C#N", 
	 "Tm": 352.15, 
	 "num_atms": 13, 
	 "gaussian": { 
		 "optdone": 1, 
		 "sigma_profile": "yes", 
		 "theory": "DFT", 
		 "functional": "B3LYP", 
		 "basiset": "6-31G**", 
		 "properties": { 
			 "R2extent": 2982.2996, 
			 "electric_dipole_moment_norm": 4.17350777165, 
			 "electric_quadrupole_moment_norm": 19.4798240418, 
			 "total_energy": -2994.51903549, 
			 "HOMO_LUMO_gap": 0.19147, 
			 "cosmo_polarized_energy": -8.32, 
			 "cosmo_cavitation_energy": 21.82, 
			 "cosmo_dispersion_energy": -15.8, 
			 "cosmo_repulsion_energy": 1.26, 
			 "cosmo_total_nonelectrostatic_energy": 7.29, 
			 "SMD_solvation_energy": 4.52 
		},
		"coords": [
			{
				"x": 2.4844871631,
				"y": -2.1363745395,
				"z": -3.3865663689,
				"element": "F" 
			},
			{
				"x": 1.7194396513,
				"y": -1.7633258625,
				"z": -2.3531287766,
				"element": "C" 
			},
			{
				"x": 1.7219162307,
				"y": -0.4178973296,
				"z": -1.9588920975,
				"element": "C" 
			},
			{
				"x": 0.9181062586,
				"y": -0.0275294551,
				"z": -0.8735392798,
				"element": "C" 
			},
			{
				"x": 0.143132176,
				"y": -0.9781141101,
				"z": -0.2189031938,
				"element": "C" 
			},
			{
				"x": -0.9451856213,
				"y": -0.4462611363,
				"z": 1.2516986981,
				"element": "Br" 
			},
			{
				"x": 0.1499461723,
				"y": -2.3157408156,
				"z": -0.6220883406,
				"element": "C" 
			},
			{
				"x": 0.9444044667,
				"y": -2.7101816755,
				"z": -1.6973502583,
				"element": "C" 
			},
			{
				"x": 2.5303712036,
				"y": 0.5369774925,
				"z": -2.6526900088,
				"element": "C" 
			},
			{
				"x": 3.1826254342,
				"y": 1.3231141006,
				"z": -3.2078154853,
				"element": "N" 
			},
			{
				"x": 0.9107139151,
				"y": 1.0086973503,
				"z": -0.558667777,
				"element": "H" 
			},
			{
				"x": -0.4605239512,
				"y": -3.0434193213,
				"z": -0.1002107161,
				"element": "H" 
			},
			{
				"x": 0.970066901,
				"y": -3.7408446978,
				"z": -2.0326463953,
				"element": "H" 
			}
		],
		 "valence_orbital": [ 
			{
				"type": "occ",
				"energy": -0.34431,
				"method": "rhf"
			},
			{
				"type": "occ",
				"energy": -0.32686,
				"method": "rhf"
			},
			{
				"type": "occ",
				"energy": -0.30819,
				"method": "rhf"
			},
			{
				"type": "occ",
				"energy": -0.29074,
				"method": "rhf"
			},
			{
				"type": "occ",
				"energy": -0.26313,
				"method": "rhf"
			},
			{
				"type": "unocc",
				"energy": -0.07166,
				"method": "rhf"
			},
			{
				"type": "unocc",
				"energy": -0.03939,
				"method": "rhf"
			},
			{
				"type": "unocc",
				"energy": -0.01701,
				"method": "rhf"
			},
			{
				"type": "unocc",
				"energy": 0.02151,
				"method": "rhf"
			},
			{
				"type": "unocc",
				"energy": 0.05765,
				"method": "rhf"
			}
		],
		"cosmo_sigma_profile": { 
			"-0.025": 0.0,
			"-0.024": 0.0,
			"-0.023": 0.0,
			"-0.022": 0.0,
			"-0.021": 0.0,
			"-0.02": 0.0,
			"-0.019": 0.0,
			"-0.018": 0.0,
			"-0.017": 0.0,
			"-0.016": 0.0,
			"-0.015": 0.0,
			"-0.014": 0.0,
			"-0.013": 0.0,
			"-0.012": 0.0,
			"-0.011": 0.0,
			"-0.01": 0.657647706993,
			"-0.009": 5.10025282194,
			"-0.008": 6.50165346114,
			"-0.007": 5.70610547545,
			"-0.006": 4.83999821946,
			"-0.005": 6.24349913761,
			"-0.004": 8.33220764006,
			"-0.003": 13.6851537064,
			"-0.002": 17.66350926,
			"-0.001": 17.1603210046,
			"0.0": 18.6549808821,
			"0.001": 10.5253764658,
			"0.002": 14.5472843478,
			"0.003": 18.0062019436,
			"0.004": 10.3699040269,
			"0.005": 3.04428061425,
			"0.006": 2.76734805895,
			"0.007": 3.03253245165,
			"0.008": 3.56631025746,
			"0.009": 3.12805175678,
			"0.01": 2.81623032894,
			"0.011": 2.2948014157,
			"0.012": 2.11497828126,
			"0.013": 0.343111561214,
			"0.014": 0.0,
			"0.015": 0.0,
			"0.016": 0.0,
			"0.017": 0.0,
			"0.018": 0.0,
			"0.019": 0.0,
			"0.02": 0.0,
			"0.021": 0.0,
			"0.022": 0.0,
			"0.023": 0.0,
			"0.024": 0.0,
			"0.025": 0.0
		}
	}
}
