{
	 "smiles": "CC(=O)OC1=CC=C(C=C1)C(C)=O", 
	 "Tm": 326.65, 
	 "num_atms": 23, 
	 "gaussian": { 
		 "optdone": 1, 
		 "sigma_profile": "yes", 
		 "theory": "DFT", 
		 "functional": "B3LYP", 
		 "basiset": "6-31G**", 
		 "properties": { 
			 "R2extent": 3715.7973, 
			 "electric_dipole_moment_norm": 2.64133639281, 
			 "electric_quadrupole_moment_norm": 19.5354998884, 
			 "total_energy": -612.776537153, 
			 "HOMO_LUMO_gap": 0.19055, 
			 "cosmo_polarized_energy": -10.54, 
			 "cosmo_cavitation_energy": 27.85, 
			 "cosmo_dispersion_energy": -20.29, 
			 "cosmo_repulsion_energy": 1.61, 
			 "cosmo_total_nonelectrostatic_energy": 9.17, 
			 "SMD_solvation_energy": 6.94 
		},
		"coords": [
			{
				"x": 2.4302083722,
				"y": 2.9198667218,
				"z": 0.0891838554,
				"element": "C" 
			},
			{
				"x": 2.0844304649,
				"y": 1.5185457218,
				"z": -0.350750231,
				"element": "C" 
			},
			{
				"x": 2.8251738441,
				"y": 0.7622663077,
				"z": -0.930841528,
				"element": "O" 
			},
			{
				"x": 0.7944673067,
				"y": 1.2403427797,
				"z": 0.0134434696,
				"element": "O" 
			},
			{
				"x": 0.1260150458,
				"y": 0.0452144525,
				"z": -0.2229944896,
				"element": "C" 
			},
			{
				"x": 0.6491094097,
				"y": -1.0744043012,
				"z": -0.8774120309,
				"element": "C" 
			},
			{
				"x": -0.1665811056,
				"y": -2.1969293243,
				"z": -1.0298030688,
				"element": "C" 
			},
			{
				"x": -1.4811771715,
				"y": -2.2235226309,
				"z": -0.5465792922,
				"element": "C" 
			},
			{
				"x": -1.9797372044,
				"y": -1.0836953623,
				"z": 0.1067958517,
				"element": "C" 
			},
			{
				"x": -1.1865057997,
				"y": 0.0408260144,
				"z": 0.2684808016,
				"element": "C" 
			},
			{
				"x": -2.3837032418,
				"y": -3.4090697018,
				"z": -0.6920877898,
				"element": "C" 
			},
			{
				"x": -1.8590855504,
				"y": -4.6495313885,
				"z": -1.3963698596,
				"element": "C" 
			},
			{
				"x": -3.5238894049,
				"y": -3.3804613681,
				"z": -0.2519400886,
				"element": "O" 
			},
			{
				"x": 1.7452688579,
				"y": 3.6379727325,
				"z": -0.3711616496,
				"element": "H" 
			},
			{
				"x": 2.3185838891,
				"y": 3.0114169542,
				"z": 1.1735845363,
				"element": "H" 
			},
			{
				"x": 3.4560786799,
				"y": 3.1439397125,
				"z": -0.2005858682,
				"element": "H" 
			},
			{
				"x": 1.6601569257,
				"y": -1.0661787841,
				"z": -1.2538159647,
				"element": "H" 
			},
			{
				"x": 0.2460153632,
				"y": -3.0621199432,
				"z": -1.5386375566,
				"element": "H" 
			},
			{
				"x": -2.9981252104,
				"y": -1.1088534954,
				"z": 0.4792518193,
				"element": "H" 
			},
			{
				"x": -1.5576123103,
				"y": 0.9280726412,
				"z": 0.7706506974,
				"element": "H" 
			},
			{
				"x": -2.6473476503,
				"y": -5.4026388994,
				"z": -1.4082288494,
				"element": "H" 
			},
			{
				"x": -0.9795494699,
				"y": -5.0521541073,
				"z": -0.8818832194,
				"element": "H" 
			},
			{
				"x": -1.5591940399,
				"y": -4.4211047318,
				"z": -2.425099545,
				"element": "H" 
			}
		],
		 "valence_orbital": [ 
			{
				"type": "occ",
				"energy": -0.33587,
				"method": "rhf"
			},
			{
				"type": "occ",
				"energy": -0.28539,
				"method": "rhf"
			},
			{
				"type": "occ",
				"energy": -0.26512,
				"method": "rhf"
			},
			{
				"type": "occ",
				"energy": -0.24782,
				"method": "rhf"
			},
			{
				"type": "occ",
				"energy": -0.24714,
				"method": "rhf"
			},
			{
				"type": "unocc",
				"energy": -0.05659,
				"method": "rhf"
			},
			{
				"type": "unocc",
				"energy": -0.01434,
				"method": "rhf"
			},
			{
				"type": "unocc",
				"energy": -0.00414,
				"method": "rhf"
			},
			{
				"type": "unocc",
				"energy": 0.04771,
				"method": "rhf"
			},
			{
				"type": "unocc",
				"energy": 0.08582,
				"method": "rhf"
			}
		],
		"cosmo_sigma_profile": { 
			"-0.025": 0.0,
			"-0.024": 0.0,
			"-0.023": 0.0,
			"-0.022": 0.0,
			"-0.021": 0.0,
			"-0.02": 0.0,
			"-0.019": 0.0,
			"-0.018": 0.0,
			"-0.017": 0.0,
			"-0.016": 0.0,
			"-0.015": 0.0,
			"-0.014": 0.0,
			"-0.013": 0.0,
			"-0.012": 0.0,
			"-0.011": 0.0,
			"-0.01": 0.0,
			"-0.009": 0.0,
			"-0.008": 0.05274719616,
			"-0.007": 6.44283957785,
			"-0.006": 18.2709131077,
			"-0.005": 18.7808068611,
			"-0.004": 18.0572536902,
			"-0.003": 19.3827163196,
			"-0.002": 19.4723910149,
			"-0.001": 16.9731091232,
			"0.0": 14.7177241198,
			"0.001": 14.5143678302,
			"0.002": 18.0298113569,
			"0.003": 16.752053878,
			"0.004": 6.86163899967,
			"0.005": 4.51852166933,
			"0.006": 3.33473923137,
			"0.007": 2.42626343251,
			"0.008": 3.33842819311,
			"0.009": 4.07571988324,
			"0.01": 4.68465984707,
			"0.011": 5.0379965171,
			"0.012": 4.69984302673,
			"0.013": 1.81578881552,
			"0.014": 0.129930200697,
			"0.015": 0.0,
			"0.016": 0.0,
			"0.017": 0.0,
			"0.018": 0.0,
			"0.019": 0.0,
			"0.02": 0.0,
			"0.021": 0.0,
			"0.022": 0.0,
			"0.023": 0.0,
			"0.024": 0.0,
			"0.025": 0.0
		}
	}
}
