{
	 "smiles": "OC(=O)C1CCCCC1C(=O)C1=CC=CS1", 
	 "Tm": 455.15, 
	 "num_atms": 30, 
	 "gaussian": { 
		 "optdone": 1, 
		 "sigma_profile": "yes", 
		 "theory": "DFT", 
		 "functional": "B3LYP", 
		 "basiset": "6-31G**", 
		 "properties": { 
			 "R2extent": 4522.9145, 
			 "electric_dipole_moment_norm": 3.33615453779, 
			 "electric_quadrupole_moment_norm": 12.431097795, 
			 "total_energy": -1089.58667867, 
			 "HOMO_LUMO_gap": 0.18012, 
			 "cosmo_polarized_energy": -12.88, 
			 "cosmo_cavitation_energy": 33.16, 
			 "cosmo_dispersion_energy": -24.13, 
			 "cosmo_repulsion_energy": 1.83, 
			 "cosmo_total_nonelectrostatic_energy": 10.86, 
			 "SMD_solvation_energy": 6.53 
		},
		"coords": [
			{
				"x": 0.2854939491,
				"y": -2.7355615406,
				"z": 1.182591001,
				"element": "O" 
			},
			{
				"x": -0.7981617697,
				"y": -1.9168424784,
				"z": 1.181241893,
				"element": "C" 
			},
			{
				"x": -1.7312412473,
				"y": -2.0941911999,
				"z": 1.9334042875,
				"element": "O" 
			},
			{
				"x": -0.651779775,
				"y": -0.7608149855,
				"z": 0.1959495977,
				"element": "C" 
			},
			{
				"x": -1.9706274508,
				"y": 0.0188235009,
				"z": 0.0496726078,
				"element": "C" 
			},
			{
				"x": -3.0271292022,
				"y": -0.7680041057,
				"z": -0.7403161496,
				"element": "C" 
			},
			{
				"x": -2.5015508709,
				"y": -1.1786551934,
				"z": -2.1224672258,
				"element": "C" 
			},
			{
				"x": -1.1729937301,
				"y": -1.9463636835,
				"z": -2.0203921309,
				"element": "C" 
			},
			{
				"x": -0.0886588292,
				"y": -1.2310842088,
				"z": -1.1858592073,
				"element": "C" 
			},
			{
				"x": 0.5427641819,
				"y": -0.0428373005,
				"z": -1.9166134982,
				"element": "C" 
			},
			{
				"x": -0.0398392229,
				"y": 0.5701660408,
				"z": -2.8026247116,
				"element": "O" 
			},
			{
				"x": 1.9090130341,
				"y": 0.3840465857,
				"z": -1.5265653477,
				"element": "C" 
			},
			{
				"x": 2.5561654611,
				"y": 1.4920719527,
				"z": -2.0326230222,
				"element": "C" 
			},
			{
				"x": 3.8601874554,
				"y": 1.6748956994,
				"z": -1.5063000647,
				"element": "C" 
			},
			{
				"x": 4.2019069058,
				"y": 0.7017189986,
				"z": -0.5999319629,
				"element": "C" 
			},
			{
				"x": 2.9356486472,
				"y": -0.4502558164,
				"z": -0.3761730417,
				"element": "S" 
			},
			{
				"x": 0.1143444557,
				"y": -3.4035581428,
				"z": 1.8676021791,
				"element": "H" 
			},
			{
				"x": 0.1004452081,
				"y": -0.1093392614,
				"z": 0.6638956684,
				"element": "H" 
			},
			{
				"x": -2.3470662228,
				"y": 0.2693839467,
				"z": 1.0454666009,
				"element": "H" 
			},
			{
				"x": -1.7545758293,
				"y": 0.9614371569,
				"z": -0.4669120172,
				"element": "H" 
			},
			{
				"x": -3.3135745141,
				"y": -1.656353448,
				"z": -0.1642949727,
				"element": "H" 
			},
			{
				"x": -3.9324799882,
				"y": -0.159160974,
				"z": -0.8466876251,
				"element": "H" 
			},
			{
				"x": -3.2405501122,
				"y": -1.8062722849,
				"z": -2.6352085002,
				"element": "H" 
			},
			{
				"x": -2.3482795133,
				"y": -0.2886046988,
				"z": -2.7391343966,
				"element": "H" 
			},
			{
				"x": -0.7774714251,
				"y": -2.1490661734,
				"z": -3.0214996634,
				"element": "H" 
			},
			{
				"x": -1.3548699753,
				"y": -2.9237764403,
				"z": -1.5523746083,
				"element": "H" 
			},
			{
				"x": 0.7165806598,
				"y": -1.9455024008,
				"z": -0.9844702087,
				"element": "H" 
			},
			{
				"x": 2.0809137141,
				"y": 2.1350279462,
				"z": -2.7634462257,
				"element": "H" 
			},
			{
				"x": 4.5205239617,
				"y": 2.487936976,
				"z": -1.7849730687,
				"element": "H" 
			},
			{
				"x": 5.1288620445,
				"y": 0.5963355332,
				"z": -0.0522561861,
				"element": "H" 
			}
		],
		 "valence_orbital": [ 
			{
				"type": "occ",
				"energy": -0.30081,
				"method": "rhf"
			},
			{
				"type": "occ",
				"energy": -0.2814,
				"method": "rhf"
			},
			{
				"type": "occ",
				"energy": -0.26601,
				"method": "rhf"
			},
			{
				"type": "occ",
				"energy": -0.25027,
				"method": "rhf"
			},
			{
				"type": "occ",
				"energy": -0.24602,
				"method": "rhf"
			},
			{
				"type": "unocc",
				"energy": -0.0659,
				"method": "rhf"
			},
			{
				"type": "unocc",
				"energy": 0.00201,
				"method": "rhf"
			},
			{
				"type": "unocc",
				"energy": 0.0157,
				"method": "rhf"
			},
			{
				"type": "unocc",
				"energy": 0.02071,
				"method": "rhf"
			},
			{
				"type": "unocc",
				"energy": 0.06864,
				"method": "rhf"
			}
		],
		"cosmo_sigma_profile": { 
			"-0.025": 0.0,
			"-0.024": 0.0,
			"-0.023": 0.0,
			"-0.022": 0.0,
			"-0.021": 0.0,
			"-0.02": 0.0,
			"-0.019": 0.0,
			"-0.018": 0.693163579636,
			"-0.017": 0.947582416904,
			"-0.016": 0.754706724952,
			"-0.015": 0.714881906876,
			"-0.014": 1.43795636321,
			"-0.013": 0.252558768422,
			"-0.012": 0.0981261763346,
			"-0.011": 1.17664779159,
			"-0.01": 1.04122001382,
			"-0.009": 2.54330097076,
			"-0.008": 3.51697853296,
			"-0.007": 6.35349503737,
			"-0.006": 7.78762737729,
			"-0.005": 12.0098322213,
			"-0.004": 13.3661791938,
			"-0.003": 19.8517266589,
			"-0.002": 23.3515766319,
			"-0.001": 26.9504054172,
			"0.0": 29.0594042532,
			"0.001": 23.018515197,
			"0.002": 20.1366837602,
			"0.003": 19.7143028977,
			"0.004": 10.1347521133,
			"0.005": 5.6780547102,
			"0.006": 4.99257352854,
			"0.007": 4.39953977836,
			"0.008": 3.59327979547,
			"0.009": 3.43923257805,
			"0.01": 3.31655308899,
			"0.011": 6.69684341703,
			"0.012": 5.94512411015,
			"0.013": 0.102677041597,
			"0.014": 0.0,
			"0.015": 0.0,
			"0.016": 0.0,
			"0.017": 0.0,
			"0.018": 0.0,
			"0.019": 0.0,
			"0.02": 0.0,
			"0.021": 0.0,
			"0.022": 0.0,
			"0.023": 0.0,
			"0.024": 0.0,
			"0.025": 0.0
		}
	}
}
