{
	 "smiles": "CC1=CC=C(C=C1)S(=O)(=O)OC1=C(N=CC=C1)[N+]([O-])=O", 
	 "Tm": 357.15, 
	 "num_atms": 30, 
	 "gaussian": { 
		 "optdone": 1, 
		 "sigma_profile": "yes", 
		 "theory": "DFT", 
		 "functional": "B3LYP", 
		 "basiset": "6-31G**", 
		 "properties": { 
			 "R2extent": 5482.92, 
			 "electric_dipole_moment_norm": 4.00097632335, 
			 "electric_quadrupole_moment_norm": 27.8159162055, 
			 "total_energy": -1346.92355049, 
			 "HOMO_LUMO_gap": 0.18299, 
			 "cosmo_polarized_energy": -17.11, 
			 "cosmo_cavitation_energy": 37.12, 
			 "cosmo_dispersion_energy": -25.35, 
			 "cosmo_repulsion_energy": 1.89, 
			 "cosmo_total_nonelectrostatic_energy": 13.67, 
			 "SMD_solvation_energy": 6.33 
		},
		"coords": [
			{
				"x": 0.0146515999,
				"y": -4.6329705851,
				"z": -0.708834748,
				"element": "C" 
			},
			{
				"x": -0.0888015962,
				"y": -3.1493109636,
				"z": -0.9577929377,
				"element": "C" 
			},
			{
				"x": -1.3157963455,
				"y": -2.5596501009,
				"z": -1.2902093061,
				"element": "C" 
			},
			{
				"x": -1.4283620907,
				"y": -1.1827761547,
				"z": -1.472089438,
				"element": "C" 
			},
			{
				"x": -0.2863470931,
				"y": -0.3929429128,
				"z": -1.328441656,
				"element": "C" 
			},
			{
				"x": 0.9574822419,
				"y": -0.9509195793,
				"z": -1.0155481364,
				"element": "C" 
			},
			{
				"x": 1.0425430618,
				"y": -2.3259947035,
				"z": -0.8326538539,
				"element": "C" 
			},
			{
				"x": -0.4183096825,
				"y": 1.3687335418,
				"z": -1.5031435135,
				"element": "S" 
			},
			{
				"x": -1.7465022844,
				"y": 1.7143237499,
				"z": -2.0012429266,
				"element": "O" 
			},
			{
				"x": 0.7979520165,
				"y": 1.9260204795,
				"z": -2.0667899511,
				"element": "O" 
			},
			{
				"x": -0.3266545759,
				"y": 1.8742330642,
				"z": 0.1204523707,
				"element": "O" 
			},
			{
				"x": -1.429301211,
				"y": 1.7268522413,
				"z": 0.9275373757,
				"element": "C" 
			},
			{
				"x": -1.4780732293,
				"y": 0.7568004245,
				"z": 1.9396340482,
				"element": "C" 
			},
			{
				"x": -2.4901702282,
				"y": 0.5882282161,
				"z": 2.7702529515,
				"element": "N" 
			},
			{
				"x": -3.5382014396,
				"y": 1.4084847397,
				"z": 2.6486395028,
				"element": "C" 
			},
			{
				"x": -3.6077127537,
				"y": 2.4086905919,
				"z": 1.6765941043,
				"element": "C" 
			},
			{
				"x": -2.5388656085,
				"y": 2.5662817003,
				"z": 0.798896745,
				"element": "C" 
			},
			{
				"x": -0.3413719476,
				"y": -0.179915639,
				"z": 2.1485170628,
				"element": "N" 
			},
			{
				"x": 0.783211897,
				"y": 0.3113503707,
				"z": 2.1756894824,
				"element": "O" 
			},
			{
				"x": -0.6185219623,
				"y": -1.3652058202,
				"z": 2.282107577,
				"element": "O" 
			},
			{
				"x": -0.0290590174,
				"y": -4.8426304981,
				"z": 0.3667476873,
				"element": "H" 
			},
			{
				"x": -0.8036374694,
				"y": -5.1791434965,
				"z": -1.1855185903,
				"element": "H" 
			},
			{
				"x": 0.9610349184,
				"y": -5.0364612527,
				"z": -1.0809692882,
				"element": "H" 
			},
			{
				"x": -2.1973011788,
				"y": -3.1843345477,
				"z": -1.4023543128,
				"element": "H" 
			},
			{
				"x": -2.3765688946,
				"y": -0.7251270405,
				"z": -1.7304484556,
				"element": "H" 
			},
			{
				"x": 1.8322129196,
				"y": -0.3182952664,
				"z": -0.9150098116,
				"element": "H" 
			},
			{
				"x": 2.0019513328,
				"y": -2.7697392241,
				"z": -0.5828728915,
				"element": "H" 
			},
			{
				"x": -4.3508538013,
				"y": 1.2553418428,
				"z": 3.354003387,
				"element": "H" 
			},
			{
				"x": -4.4808908728,
				"y": 3.0488519183,
				"z": 1.6074818425,
				"element": "H" 
			},
			{
				"x": -2.5418367052,
				"y": 3.3157249043,
				"z": 0.0165656799,
				"element": "H" 
			}
		],
		 "valence_orbital": [ 
			{
				"type": "occ",
				"energy": -0.30016,
				"method": "rhf"
			},
			{
				"type": "occ",
				"energy": -0.28943,
				"method": "rhf"
			},
			{
				"type": "occ",
				"energy": -0.27995,
				"method": "rhf"
			},
			{
				"type": "occ",
				"energy": -0.27673,
				"method": "rhf"
			},
			{
				"type": "occ",
				"energy": -0.27097,
				"method": "rhf"
			},
			{
				"type": "unocc",
				"energy": -0.08798,
				"method": "rhf"
			},
			{
				"type": "unocc",
				"energy": -0.05979,
				"method": "rhf"
			},
			{
				"type": "unocc",
				"energy": -0.04853,
				"method": "rhf"
			},
			{
				"type": "unocc",
				"energy": -0.02921,
				"method": "rhf"
			},
			{
				"type": "unocc",
				"energy": -0.02792,
				"method": "rhf"
			}
		],
		"cosmo_sigma_profile": { 
			"-0.025": 0.0,
			"-0.024": 0.0,
			"-0.023": 0.0,
			"-0.022": 0.0,
			"-0.021": 0.0,
			"-0.02": 0.0,
			"-0.019": 0.0,
			"-0.018": 0.0,
			"-0.017": 0.0,
			"-0.016": 0.0,
			"-0.015": 0.0,
			"-0.014": 0.0,
			"-0.013": 0.0,
			"-0.012": 0.0,
			"-0.011": 0.0,
			"-0.01": 0.0959429805394,
			"-0.009": 4.2211130639,
			"-0.008": 10.4619968582,
			"-0.007": 13.1153084704,
			"-0.006": 15.534562692,
			"-0.005": 20.6075603102,
			"-0.004": 19.5468059596,
			"-0.003": 22.1059751205,
			"-0.002": 25.3891481004,
			"-0.001": 27.4559349559,
			"0.0": 18.4274360291,
			"0.001": 14.9455053179,
			"0.002": 15.8030596012,
			"0.003": 11.2793222589,
			"0.004": 10.2117155775,
			"0.005": 9.38941187673,
			"0.006": 10.3446074474,
			"0.007": 14.7216749816,
			"0.008": 14.5217600843,
			"0.009": 13.4320109436,
			"0.01": 3.6999553373,
			"0.011": 1.75064025956,
			"0.012": 0.943572778619,
			"0.013": 0.224430085531,
			"0.014": 0.0,
			"0.015": 0.0,
			"0.016": 0.0,
			"0.017": 0.0,
			"0.018": 0.0,
			"0.019": 0.0,
			"0.02": 0.0,
			"0.021": 0.0,
			"0.022": 0.0,
			"0.023": 0.0,
			"0.024": 0.0,
			"0.025": 0.0
		}
	}
}
