{
	 "smiles": "CC1CC(=O)CC(C)(C)C1", 
	 "Tm": 263.15, 
	 "num_atms": 26, 
	 "gaussian": { 
		 "optdone": 1, 
		 "sigma_profile": "yes", 
		 "theory": "DFT", 
		 "functional": "B3LYP", 
		 "basiset": "6-31G**", 
		 "properties": { 
			 "R2extent": 1937.9854, 
			 "electric_dipole_moment_norm": 3.04694010607, 
			 "electric_quadrupole_moment_norm": 6.74781465884, 
			 "total_energy": -427.839818457, 
			 "HOMO_LUMO_gap": 0.2215, 
			 "cosmo_polarized_energy": -7.05, 
			 "cosmo_cavitation_energy": 25.94, 
			 "cosmo_dispersion_energy": -18.59, 
			 "cosmo_repulsion_energy": 1.49, 
			 "cosmo_total_nonelectrostatic_energy": 8.85, 
			 "SMD_solvation_energy": 4.77 
		},
		"coords": [
			{
				"x": 0.9322921565,
				"y": -1.0528091386,
				"z": 3.1671715968,
				"element": "C" 
			},
			{
				"x": 1.1716355728,
				"y": 0.1169249553,
				"z": 2.2023097538,
				"element": "C" 
			},
			{
				"x": 2.1981384737,
				"y": -0.2675031221,
				"z": 1.0936435333,
				"element": "C" 
			},
			{
				"x": 1.6194993902,
				"y": -0.4061411646,
				"z": -0.3064292797,
				"element": "C" 
			},
			{
				"x": 1.9571276002,
				"y": -1.3060593965,
				"z": -1.0532279025,
				"element": "O" 
			},
			{
				"x": 0.6147288808,
				"y": 0.6520670115,
				"z": -0.7644563208,
				"element": "C" 
			},
			{
				"x": -0.0228240343,
				"y": 1.5102536867,
				"z": 0.3597300993,
				"element": "C" 
			},
			{
				"x": -1.4178994448,
				"y": 1.9778762768,
				"z": -0.0947122524,
				"element": "C" 
			},
			{
				"x": 0.8326496714,
				"y": 2.7580020659,
				"z": 0.6623798562,
				"element": "C" 
			},
			{
				"x": -0.165052474,
				"y": 0.611278822,
				"z": 1.6086226523,
				"element": "C" 
			},
			{
				"x": 0.5395051714,
				"y": -1.9265061022,
				"z": 2.6338446539,
				"element": "H" 
			},
			{
				"x": 0.2081308363,
				"y": -0.7822440677,
				"z": 3.9437197215,
				"element": "H" 
			},
			{
				"x": 1.8603415518,
				"y": -1.3545794694,
				"z": 3.6642265865,
				"element": "H" 
			},
			{
				"x": 1.6031329864,
				"y": 0.9401882824,
				"z": 2.7844690646,
				"element": "H" 
			},
			{
				"x": 2.9682865291,
				"y": 0.5133046095,
				"z": 1.0185415443,
				"element": "H" 
			},
			{
				"x": 2.724171166,
				"y": -1.1974514043,
				"z": 1.3261799065,
				"element": "H" 
			},
			{
				"x": -0.1573445625,
				"y": 0.1086995641,
				"z": -1.3216170844,
				"element": "H" 
			},
			{
				"x": 1.1210920584,
				"y": 1.2873076737,
				"z": -1.5043419293,
				"element": "H" 
			},
			{
				"x": -2.0835536404,
				"y": 1.1254015326,
				"z": -0.270261843,
				"element": "H" 
			},
			{
				"x": -1.3571305684,
				"y": 2.5520710393,
				"z": -1.0263275555,
				"element": "H" 
			},
			{
				"x": -1.8847324,
				"y": 2.6183071651,
				"z": 0.6622954585,
				"element": "H" 
			},
			{
				"x": 1.865420305,
				"y": 2.510789334,
				"z": 0.925184086,
				"element": "H" 
			},
			{
				"x": 0.8675245179,
				"y": 3.4196784113,
				"z": -0.2103934901,
				"element": "H" 
			},
			{
				"x": 0.4068997578,
				"y": 3.3293320673,
				"z": 1.4951061411,
				"element": "H" 
			},
			{
				"x": -0.7739465355,
				"y": -0.2613667877,
				"z": 1.3278781617,
				"element": "H" 
			},
			{
				"x": -0.7301929659,
				"y": 1.1385781552,
				"z": 2.3877648414,
				"element": "H" 
			}
		],
		 "valence_orbital": [ 
			{
				"type": "occ",
				"energy": -0.33675,
				"method": "rhf"
			},
			{
				"type": "occ",
				"energy": -0.31963,
				"method": "rhf"
			},
			{
				"type": "occ",
				"energy": -0.31222,
				"method": "rhf"
			},
			{
				"type": "occ",
				"energy": -0.30745,
				"method": "rhf"
			},
			{
				"type": "occ",
				"energy": -0.23236,
				"method": "rhf"
			},
			{
				"type": "unocc",
				"energy": -0.01086,
				"method": "rhf"
			},
			{
				"type": "unocc",
				"energy": 0.06685,
				"method": "rhf"
			},
			{
				"type": "unocc",
				"energy": 0.09943,
				"method": "rhf"
			},
			{
				"type": "unocc",
				"energy": 0.11294,
				"method": "rhf"
			},
			{
				"type": "unocc",
				"energy": 0.12316,
				"method": "rhf"
			}
		],
		"cosmo_sigma_profile": { 
			"-0.025": 0.0,
			"-0.024": 0.0,
			"-0.023": 0.0,
			"-0.022": 0.0,
			"-0.021": 0.0,
			"-0.02": 0.0,
			"-0.019": 0.0,
			"-0.018": 0.0,
			"-0.017": 0.0,
			"-0.016": 0.0,
			"-0.015": 0.0,
			"-0.014": 0.0,
			"-0.013": 0.0,
			"-0.012": 0.0,
			"-0.011": 0.0,
			"-0.01": 0.0,
			"-0.009": 0.0,
			"-0.008": 0.0,
			"-0.007": 0.0,
			"-0.006": 2.84051227153,
			"-0.005": 5.82724979664,
			"-0.004": 9.88601659894,
			"-0.003": 26.8042330366,
			"-0.002": 39.0212199514,
			"-0.001": 32.0062304597,
			"0.0": 23.7199205641,
			"0.001": 24.4031726103,
			"0.002": 10.3871563238,
			"0.003": 1.49619153103,
			"0.004": 1.53269792796,
			"0.005": 1.0241362733,
			"0.006": 2.37791409355,
			"0.007": 1.52768114254,
			"0.008": 0.483408125378,
			"0.009": 1.92539060546,
			"0.01": 2.19484077568,
			"0.011": 2.11960517331,
			"0.012": 3.94577182667,
			"0.013": 4.38338651604,
			"0.014": 1.45102550795,
			"0.015": 0.0,
			"0.016": 0.0,
			"0.017": 0.0,
			"0.018": 0.0,
			"0.019": 0.0,
			"0.02": 0.0,
			"0.021": 0.0,
			"0.022": 0.0,
			"0.023": 0.0,
			"0.024": 0.0,
			"0.025": 0.0
		}
	}
}
