{
	 "smiles": "SC1=NN=C(NCC2=CC=CO2)S1", 
	 "Tm": 398.15, 
	 "num_atms": 20, 
	 "gaussian": { 
		 "optdone": 1, 
		 "sigma_profile": "yes", 
		 "theory": "DFT", 
		 "functional": "B3LYP", 
		 "basiset": "6-31G**", 
		 "properties": { 
			 "R2extent": 3886.0085, 
			 "electric_dipole_moment_norm": 3.39288409764, 
			 "electric_quadrupole_moment_norm": 9.59611776084, 
			 "total_energy": -1306.74366514, 
			 "HOMO_LUMO_gap": 0.19407, 
			 "cosmo_polarized_energy": -13.87, 
			 "cosmo_cavitation_energy": 28.77, 
			 "cosmo_dispersion_energy": -21.58, 
			 "cosmo_repulsion_energy": 1.63, 
			 "cosmo_total_nonelectrostatic_energy": 8.83, 
			 "SMD_solvation_energy": 2.16 
		},
		"coords": [
			{
				"x": -0.2778151012,
				"y": 2.8601478706,
				"z": 2.8990925016,
				"element": "S" 
			},
			{
				"x": -0.8558086475,
				"y": 1.360400307,
				"z": 2.1595121534,
				"element": "C" 
			},
			{
				"x": -1.3617275919,
				"y": 0.3604384324,
				"z": 2.8082298447,
				"element": "N" 
			},
			{
				"x": -1.7097555247,
				"y": -0.6935747481,
				"z": 2.0012595828,
				"element": "N" 
			},
			{
				"x": -1.4796349489,
				"y": -0.4660498023,
				"z": 0.7363479351,
				"element": "C" 
			},
			{
				"x": -1.8470549229,
				"y": -1.3321450101,
				"z": -0.2613460908,
				"element": "N" 
			},
			{
				"x": -1.1124280536,
				"y": -1.4270574062,
				"z": -1.5295954602,
				"element": "C" 
			},
			{
				"x": 0.2445846988,
				"y": -2.0466364906,
				"z": -1.4370681716,
				"element": "C" 
			},
			{
				"x": 1.5166581868,
				"y": -1.5664847956,
				"z": -1.5476677906,
				"element": "C" 
			},
			{
				"x": 2.3940764207,
				"y": -2.6787478891,
				"z": -1.3232940426,
				"element": "C" 
			},
			{
				"x": 1.5904274625,
				"y": -3.7510831545,
				"z": -1.0889850861,
				"element": "C" 
			},
			{
				"x": 0.2772016452,
				"y": -3.3876711427,
				"z": -1.1567026691,
				"element": "O" 
			},
			{
				"x": -0.7575860411,
				"y": 1.119551344,
				"z": 0.4092516379,
				"element": "S" 
			},
			{
				"x": -0.5473600778,
				"y": 2.4329659312,
				"z": 4.1489622126,
				"element": "H" 
			},
			{
				"x": -2.14667624,
				"y": -2.2209490517,
				"z": 0.1243301303,
				"element": "H" 
			},
			{
				"x": -1.7445695397,
				"y": -2.0038191105,
				"z": -2.2126106842,
				"element": "H" 
			},
			{
				"x": -1.0191334133,
				"y": -0.4244460888,
				"z": -1.9568617578,
				"element": "H" 
			},
			{
				"x": 1.7966854397,
				"y": -0.5447578064,
				"z": -1.7609235236,
				"element": "H" 
			},
			{
				"x": 3.4743407999,
				"y": -2.6739327809,
				"z": -1.3342988739,
				"element": "H" 
			},
			{
				"x": 1.7797754491,
				"y": -4.7906486078,
				"z": -0.8709318478,
				"element": "H" 
			}
		],
		 "valence_orbital": [ 
			{
				"type": "occ",
				"energy": -0.28667,
				"method": "rhf"
			},
			{
				"type": "occ",
				"energy": -0.27429,
				"method": "rhf"
			},
			{
				"type": "occ",
				"energy": -0.26318,
				"method": "rhf"
			},
			{
				"type": "occ",
				"energy": -0.23658,
				"method": "rhf"
			},
			{
				"type": "occ",
				"energy": -0.21508,
				"method": "rhf"
			},
			{
				"type": "unocc",
				"energy": -0.02101,
				"method": "rhf"
			},
			{
				"type": "unocc",
				"energy": -0.0137,
				"method": "rhf"
			},
			{
				"type": "unocc",
				"energy": 0.00021,
				"method": "rhf"
			},
			{
				"type": "unocc",
				"energy": 0.01836,
				"method": "rhf"
			},
			{
				"type": "unocc",
				"energy": 0.03843,
				"method": "rhf"
			}
		],
		"cosmo_sigma_profile": { 
			"-0.025": 0.0,
			"-0.024": 0.0,
			"-0.023": 0.0,
			"-0.022": 0.0,
			"-0.021": 0.0,
			"-0.02": 0.0,
			"-0.019": 0.0,
			"-0.018": 0.0,
			"-0.017": 0.0,
			"-0.016": 0.0,
			"-0.015": 0.106561991991,
			"-0.014": 0.846173281448,
			"-0.013": 0.759105082343,
			"-0.012": 2.40134462972,
			"-0.011": 2.22033946225,
			"-0.01": 1.98092970361,
			"-0.009": 2.98489774913,
			"-0.008": 6.52415613839,
			"-0.007": 12.0250387358,
			"-0.006": 10.9912581495,
			"-0.005": 12.6615511919,
			"-0.004": 13.7758730661,
			"-0.003": 11.7328615319,
			"-0.002": 11.6978066314,
			"-0.001": 15.5839968203,
			"0.0": 18.9787467852,
			"0.001": 17.8799477768,
			"0.002": 20.1350822942,
			"0.003": 14.441801651,
			"0.004": 13.9723341603,
			"0.005": 11.9785644959,
			"0.006": 8.03299874346,
			"0.007": 4.10758196941,
			"0.008": 3.55408203949,
			"0.009": 1.80476381412,
			"0.01": 2.74664406685,
			"0.011": 2.82752660457,
			"0.012": 3.6041709712,
			"0.013": 2.83587793669,
			"0.014": 1.80246344669,
			"0.015": 0.687108071285,
			"0.016": 0.0,
			"0.017": 0.0,
			"0.018": 0.0,
			"0.019": 0.0,
			"0.02": 0.0,
			"0.021": 0.0,
			"0.022": 0.0,
			"0.023": 0.0,
			"0.024": 0.0,
			"0.025": 0.0
		}
	}
}
