{
	 "smiles": "NC1=NC(=NC(N)=N1)C1CCCC1", 
	 "Tm": 476.15, 
	 "num_atms": 26, 
	 "gaussian": { 
		 "optdone": 1, 
		 "sigma_profile": "yes", 
		 "theory": "DFT", 
		 "functional": "B3LYP", 
		 "basiset": "6-31G**", 
		 "properties": { 
			 "R2extent": 2881.0371, 
			 "electric_dipole_moment_norm": 1.68990595596, 
			 "electric_quadrupole_moment_norm": 9.84753505401, 
			 "total_energy": -586.498164229, 
			 "HOMO_LUMO_gap": 0.22653, 
			 "cosmo_polarized_energy": -13.02, 
			 "cosmo_cavitation_energy": 28.47, 
			 "cosmo_dispersion_energy": -21.5, 
			 "cosmo_repulsion_energy": 1.78, 
			 "cosmo_total_nonelectrostatic_energy": 8.75, 
			 "SMD_solvation_energy": 0.32 
		},
		"coords": [
			{
				"x": -3.2390428075,
				"y": -1.6044547757,
				"z": -0.1711060403,
				"element": "N" 
			},
			{
				"x": -2.2493194729,
				"y": -0.6792735501,
				"z": -0.2575465301,
				"element": "C" 
			},
			{
				"x": -1.1092200664,
				"y": -0.9495119045,
				"z": 0.4160242006,
				"element": "N" 
			},
			{
				"x": -0.1775422426,
				"y": 0.0056110749,
				"z": 0.3248015037,
				"element": "C" 
			},
			{
				"x": -0.3010713342,
				"y": 1.1497288446,
				"z": -0.3607448557,
				"element": "N" 
			},
			{
				"x": -1.4806022046,
				"y": 1.2959643973,
				"z": -0.9950614091,
				"element": "C" 
			},
			{
				"x": -1.6451629254,
				"y": 2.4252147834,
				"z": -1.7324809561,
				"element": "N" 
			},
			{
				"x": -2.4982501623,
				"y": 0.4205905355,
				"z": -0.9826414247,
				"element": "N" 
			},
			{
				"x": 1.1216096745,
				"y": -0.2222474391,
				"z": 1.0582385508,
				"element": "C" 
			},
			{
				"x": 2.372897458,
				"y": -0.1922689434,
				"z": 0.1476082068,
				"element": "C" 
			},
			{
				"x": 3.5650948464,
				"y": 0.0841149203,
				"z": 1.1012145709,
				"element": "C" 
			},
			{
				"x": 2.9418236973,
				"y": 0.622320223,
				"z": 2.42244865,
				"element": "C" 
			},
			{
				"x": 1.453528726,
				"y": 0.8628696658,
				"z": 2.1062906101,
				"element": "C" 
			},
			{
				"x": -3.0165426623,
				"y": -2.4957115774,
				"z": 0.240391191,
				"element": "H" 
			},
			{
				"x": -4.0353749134,
				"y": -1.5140775452,
				"z": -0.7800343245,
				"element": "H" 
			},
			{
				"x": -0.9659767091,
				"y": 3.1602775063,
				"z": -1.6244309524,
				"element": "H" 
			},
			{
				"x": -2.5665557013,
				"y": 2.6400911843,
				"z": -2.0762676487,
				"element": "H" 
			},
			{
				"x": 1.04375361,
				"y": -1.1960726833,
				"z": 1.5536173646,
				"element": "H" 
			},
			{
				"x": 2.4906126817,
				"y": -1.1169666387,
				"z": -0.4261142101,
				"element": "H" 
			},
			{
				"x": 2.254357479,
				"y": 0.62639638,
				"z": -0.5692606938,
				"element": "H" 
			},
			{
				"x": 4.1411010871,
				"y": -0.8276575893,
				"z": 1.2897213468,
				"element": "H" 
			},
			{
				"x": 4.2594714701,
				"y": 0.8048018918,
				"z": 0.6577170945,
				"element": "H" 
			},
			{
				"x": 3.4391660392,
				"y": 1.5273011911,
				"z": 2.7855395805,
				"element": "H" 
			},
			{
				"x": 3.0357399362,
				"y": -0.1289098173,
				"z": 3.2150157772,
				"element": "H" 
			},
			{
				"x": 0.8112460268,
				"y": 0.8084094588,
				"z": 2.9914019521,
				"element": "H" 
			},
			{
				"x": 1.3053584698,
				"y": 1.8461604069,
				"z": 1.6460584459,
				"element": "H" 
			}
		],
		 "valence_orbital": [ 
			{
				"type": "occ",
				"energy": -0.29356,
				"method": "rhf"
			},
			{
				"type": "occ",
				"energy": -0.25028,
				"method": "rhf"
			},
			{
				"type": "occ",
				"energy": -0.24819,
				"method": "rhf"
			},
			{
				"type": "occ",
				"energy": -0.2461,
				"method": "rhf"
			},
			{
				"type": "occ",
				"energy": -0.23272,
				"method": "rhf"
			},
			{
				"type": "unocc",
				"energy": -0.00619,
				"method": "rhf"
			},
			{
				"type": "unocc",
				"energy": 0.01648,
				"method": "rhf"
			},
			{
				"type": "unocc",
				"energy": 0.09342,
				"method": "rhf"
			},
			{
				"type": "unocc",
				"energy": 0.09391,
				"method": "rhf"
			},
			{
				"type": "unocc",
				"energy": 0.09641,
				"method": "rhf"
			}
		],
		"cosmo_sigma_profile": { 
			"-0.025": 0.0,
			"-0.024": 0.0,
			"-0.023": 0.0,
			"-0.022": 0.0,
			"-0.021": 0.0,
			"-0.02": 0.0,
			"-0.019": 0.0,
			"-0.018": 0.0,
			"-0.017": 0.0,
			"-0.016": 0.0,
			"-0.015": 0.0,
			"-0.014": 2.22858154646,
			"-0.013": 4.14915972564,
			"-0.012": 3.98616858423,
			"-0.011": 4.50475287511,
			"-0.01": 3.60012214863,
			"-0.009": 3.29793182337,
			"-0.008": 3.11181636813,
			"-0.007": 2.89490130591,
			"-0.006": 3.24465199276,
			"-0.005": 3.23052350783,
			"-0.004": 2.47529754922,
			"-0.003": 9.91204189244,
			"-0.002": 21.6406732822,
			"-0.001": 30.848539927,
			"0.0": 26.9627754884,
			"0.001": 25.8731247111,
			"0.002": 15.6401133629,
			"0.003": 7.19928925771,
			"0.004": 6.52527655998,
			"0.005": 7.90226558028,
			"0.006": 6.52958624654,
			"0.007": 5.35728355619,
			"0.008": 4.95688599898,
			"0.009": 4.59962677705,
			"0.01": 3.2449990462,
			"0.011": 2.04359087198,
			"0.012": 2.42458538157,
			"0.013": 2.28671289692,
			"0.014": 1.27917484425,
			"0.015": 0.633885343151,
			"0.016": 0.0139576357973,
			"0.017": 0.0,
			"0.018": 0.0,
			"0.019": 0.0,
			"0.02": 0.0,
			"0.021": 0.0,
			"0.022": 0.0,
			"0.023": 0.0,
			"0.024": 0.0,
			"0.025": 0.0
		}
	}
}
