{
	 "smiles": "NCCC(=O)NC1=CC(Cl)=C(C=C1)C(N)=O", 
	 "Tm": 538.15, 
	 "num_atms": 28, 
	 "gaussian": { 
		 "optdone": 1, 
		 "sigma_profile": "yes", 
		 "theory": "DFT", 
		 "functional": "B3LYP", 
		 "basiset": "6-31G**", 
		 "properties": { 
			 "R2extent": 6721.8752, 
			 "electric_dipole_moment_norm": 8.14752901007, 
			 "electric_quadrupole_moment_norm": 11.7800660898, 
			 "total_energy": -1163.2183823, 
			 "HOMO_LUMO_gap": 0.19255, 
			 "cosmo_polarized_energy": -29.01, 
			 "cosmo_cavitation_energy": 34.57, 
			 "cosmo_dispersion_energy": -25.14, 
			 "cosmo_repulsion_energy": 2.02, 
			 "cosmo_total_nonelectrostatic_energy": 11.45, 
			 "SMD_solvation_energy": 5.4 
		},
		"coords": [
			{
				"x": -5.3713520534,
				"y": -1.1723699905,
				"z": -2.1017160433,
				"element": "N" 
			},
			{
				"x": -4.0028690848,
				"y": -1.3810848014,
				"z": -1.6426241539,
				"element": "C" 
			},
			{
				"x": -3.2284024615,
				"y": -0.1042536586,
				"z": -1.2383350326,
				"element": "C" 
			},
			{
				"x": -1.7694887222,
				"y": -0.412963778,
				"z": -0.9197758463,
				"element": "C" 
			},
			{
				"x": -1.0765658989,
				"y": -1.0769197873,
				"z": -1.6772774802,
				"element": "O" 
			},
			{
				"x": -1.3150895509,
				"y": 0.1098004308,
				"z": 0.2770761801,
				"element": "N" 
			},
			{
				"x": -0.0359137953,
				"y": 0.0177263872,
				"z": 0.8540495088,
				"element": "C" 
			},
			{
				"x": 1.0177111627,
				"y": -0.6988183114,
				"z": 0.2677549845,
				"element": "C" 
			},
			{
				"x": 2.2523967183,
				"y": -0.7536705873,
				"z": 0.9122793859,
				"element": "C" 
			},
			{
				"x": 3.5266962926,
				"y": -1.639023941,
				"z": 0.0970181706,
				"element": "Cl" 
			},
			{
				"x": 2.4891001838,
				"y": -0.0969286395,
				"z": 2.1306201018,
				"element": "C" 
			},
			{
				"x": 1.4201188159,
				"y": 0.6230009615,
				"z": 2.6872385431,
				"element": "C" 
			},
			{
				"x": 0.1773065119,
				"y": 0.6807054855,
				"z": 2.0728896969,
				"element": "C" 
			},
			{
				"x": 3.7923088432,
				"y": -0.1861322377,
				"z": 2.8820547019,
				"element": "C" 
			},
			{
				"x": 4.211405879,
				"y": 1.0092971099,
				"z": 3.4251304844,
				"element": "N" 
			},
			{
				"x": 4.3975349058,
				"y": -1.230001592,
				"z": 3.0596323565,
				"element": "O" 
			},
			{
				"x": -5.3834235584,
				"y": -0.576961714,
				"z": -2.9263478446,
				"element": "H" 
			},
			{
				"x": -5.9226645606,
				"y": -0.6979886114,
				"z": -1.3905868748,
				"element": "H" 
			},
			{
				"x": -4.0290117294,
				"y": -2.0706121711,
				"z": -0.7904354664,
				"element": "H" 
			},
			{
				"x": -3.4367560888,
				"y": -1.8843324295,
				"z": -2.4311994203,
				"element": "H" 
			},
			{
				"x": -3.2318885713,
				"y": 0.5948687326,
				"z": -2.0846837912,
				"element": "H" 
			},
			{
				"x": -3.7351509225,
				"y": 0.3979240195,
				"z": -0.4039805916,
				"element": "H" 
			},
			{
				"x": -1.9853631473,
				"y": 0.643884094,
				"z": 0.8107615017,
				"element": "H" 
			},
			{
				"x": 0.8667835796,
				"y": -1.2007301923,
				"z": -0.676303838,
				"element": "H" 
			},
			{
				"x": 1.5691965555,
				"y": 1.1247322661,
				"z": 3.6381637455,
				"element": "H" 
			},
			{
				"x": -0.6322280631,
				"y": 1.2356086546,
				"z": 2.5405352049,
				"element": "H" 
			},
			{
				"x": 3.9071248639,
				"y": 1.8811591971,
				"z": 3.0194684226,
				"element": "H" 
			},
			{
				"x": 5.1256838963,
				"y": 0.9943851044,
				"z": 3.8551933939,
				"element": "H" 
			}
		],
		 "valence_orbital": [ 
			{
				"type": "occ",
				"energy": -0.27041,
				"method": "rhf"
			},
			{
				"type": "occ",
				"energy": -0.25558,
				"method": "rhf"
			},
			{
				"type": "occ",
				"energy": -0.25083,
				"method": "rhf"
			},
			{
				"type": "occ",
				"energy": -0.24171,
				"method": "rhf"
			},
			{
				"type": "occ",
				"energy": -0.23379,
				"method": "rhf"
			},
			{
				"type": "unocc",
				"energy": -0.04124,
				"method": "rhf"
			},
			{
				"type": "unocc",
				"energy": -0.02125,
				"method": "rhf"
			},
			{
				"type": "unocc",
				"energy": 0.01354,
				"method": "rhf"
			},
			{
				"type": "unocc",
				"energy": 0.03591,
				"method": "rhf"
			},
			{
				"type": "unocc",
				"energy": 0.04933,
				"method": "rhf"
			}
		],
		"cosmo_sigma_profile": { 
			"-0.025": 0.0,
			"-0.024": 0.0,
			"-0.023": 0.0,
			"-0.022": 0.0,
			"-0.021": 0.0,
			"-0.02": 0.0,
			"-0.019": 0.0,
			"-0.018": 0.0,
			"-0.017": 0.0,
			"-0.016": 0.265242545704,
			"-0.015": 1.57467947197,
			"-0.014": 3.25069883552,
			"-0.013": 3.66812156135,
			"-0.012": 4.12171342133,
			"-0.011": 3.72770979716,
			"-0.01": 5.08609772704,
			"-0.009": 7.30123107456,
			"-0.008": 7.68750825816,
			"-0.007": 9.53907764584,
			"-0.006": 12.1322388665,
			"-0.005": 13.4416147185,
			"-0.004": 14.0416349196,
			"-0.003": 14.3500066407,
			"-0.002": 15.1541543373,
			"-0.001": 14.4896828633,
			"0.0": 16.2393037733,
			"0.001": 18.4004872112,
			"0.002": 23.8034194669,
			"0.003": 16.6642753899,
			"0.004": 12.3777174431,
			"0.005": 9.37906422061,
			"0.006": 5.57740558592,
			"0.007": 3.59182370273,
			"0.008": 5.01714494961,
			"0.009": 4.41803089279,
			"0.01": 3.24292613302,
			"0.011": 4.98605225574,
			"0.012": 5.9802561095,
			"0.013": 8.20282376351,
			"0.014": 4.07314426214,
			"0.015": 0.834057086337,
			"0.016": 0.648870358623,
			"0.017": 0.789264790413,
			"0.018": 0.622747897557,
			"0.019": 0.53202635448,
			"0.02": 0.251454420928,
			"0.021": 0.0,
			"0.022": 0.0,
			"0.023": 0.0,
			"0.024": 0.0,
			"0.025": 0.0
		}
	}
}
