{
	 "smiles": "OC(=O)C=CC1=C(C=C(F)C=C1)C(F)(F)F", 
	 "Tm": 455.15, 
	 "num_atms": 22, 
	 "gaussian": { 
		 "optdone": 1, 
		 "sigma_profile": "yes", 
		 "theory": "DFT", 
		 "functional": "B3LYP", 
		 "basiset": "6-31G**", 
		 "properties": { 
			 "R2extent": 5385.3359, 
			 "electric_dipole_moment_norm": 1.74972380963, 
			 "electric_quadrupole_moment_norm": 13.2680571456, 
			 "total_energy": -934.488193328, 
			 "HOMO_LUMO_gap": 0.17185, 
			 "cosmo_polarized_energy": -10.46, 
			 "cosmo_cavitation_energy": 29.4, 
			 "cosmo_dispersion_energy": -20.44, 
			 "cosmo_repulsion_energy": 1.51, 
			 "cosmo_total_nonelectrostatic_energy": 10.47, 
			 "SMD_solvation_energy": 8.05 
		},
		"coords": [
			{
				"x": 2.2324334607,
				"y": -0.4013972904,
				"z": -1.078270065,
				"element": "O" 
			},
			{
				"x": 1.0515136014,
				"y": -0.4903785066,
				"z": -1.7436517368,
				"element": "C" 
			},
			{
				"x": 0.9807800564,
				"y": -0.8780951604,
				"z": -2.8940091912,
				"element": "O" 
			},
			{
				"x": -0.1158112509,
				"y": -0.0757864241,
				"z": -0.9435896556,
				"element": "C" 
			},
			{
				"x": -0.036213559,
				"y": 0.3479469784,
				"z": 0.3307425707,
				"element": "C" 
			},
			{
				"x": -1.1737443475,
				"y": 0.7960469489,
				"z": 1.147424686,
				"element": "C" 
			},
			{
				"x": -1.1247237968,
				"y": 0.7832868449,
				"z": 2.5627997666,
				"element": "C" 
			},
			{
				"x": -2.212736305,
				"y": 1.2087350508,
				"z": 3.3233264888,
				"element": "C" 
			},
			{
				"x": -3.3555501809,
				"y": 1.6599269662,
				"z": 2.6755985333,
				"element": "C" 
			},
			{
				"x": -4.3996443862,
				"y": 2.0740523541,
				"z": 3.4136620734,
				"element": "F" 
			},
			{
				"x": -3.4429218252,
				"y": 1.7006475536,
				"z": 1.2894172343,
				"element": "C" 
			},
			{
				"x": -2.3513657977,
				"y": 1.2722649475,
				"z": 0.5423536385,
				"element": "C" 
			},
			{
				"x": 0.1017853616,
				"y": 0.2822524027,
				"z": 3.2917402696,
				"element": "C" 
			},
			{
				"x": 0.4146729564,
				"y": -0.9816540178,
				"z": 2.9333996867,
				"element": "F" 
			},
			{
				"x": 1.188678485,
				"y": 1.0471880853,
				"z": 3.0245015428,
				"element": "F" 
			},
			{
				"x": -0.0647974342,
				"y": 0.2903267179,
				"z": 4.6296495112,
				"element": "F" 
			},
			{
				"x": 2.9103931884,
				"y": -0.7041734825,
				"z": -1.7038475045,
				"element": "H" 
			},
			{
				"x": -1.0560445145,
				"y": -0.1590816354,
				"z": -1.4783110635,
				"element": "H" 
			},
			{
				"x": 0.9425307834,
				"y": 0.3560797935,
				"z": 0.7964047301,
				"element": "H" 
			},
			{
				"x": -2.1806757423,
				"y": 1.1900680583,
				"z": 4.4050490396,
				"element": "H" 
			},
			{
				"x": -4.3450665787,
				"y": 2.0727344454,
				"z": 0.816595865,
				"element": "H" 
			},
			{
				"x": -2.4016921742,
				"y": 1.3302093698,
				"z": -0.5393864199,
				"element": "H" 
			}
		],
		 "valence_orbital": [ 
			{
				"type": "occ",
				"energy": -0.32285,
				"method": "rhf"
			},
			{
				"type": "occ",
				"energy": -0.31267,
				"method": "rhf"
			},
			{
				"type": "occ",
				"energy": -0.29061,
				"method": "rhf"
			},
			{
				"type": "occ",
				"energy": -0.2772,
				"method": "rhf"
			},
			{
				"type": "occ",
				"energy": -0.25101,
				"method": "rhf"
			},
			{
				"type": "unocc",
				"energy": -0.07916,
				"method": "rhf"
			},
			{
				"type": "unocc",
				"energy": -0.04377,
				"method": "rhf"
			},
			{
				"type": "unocc",
				"energy": 0.00169,
				"method": "rhf"
			},
			{
				"type": "unocc",
				"energy": 0.07355,
				"method": "rhf"
			},
			{
				"type": "unocc",
				"energy": 0.07758,
				"method": "rhf"
			}
		],
		"cosmo_sigma_profile": { 
			"-0.025": 0.0,
			"-0.024": 0.0,
			"-0.023": 0.0,
			"-0.022": 0.0,
			"-0.021": 0.0,
			"-0.02": 0.0,
			"-0.019": 0.0,
			"-0.018": 0.652829999754,
			"-0.017": 1.23235071355,
			"-0.016": 0.330181155678,
			"-0.015": 0.889335494324,
			"-0.014": 0.787283080781,
			"-0.013": 0.987279518716,
			"-0.012": 0.850814543168,
			"-0.011": 0.383529786243,
			"-0.01": 0.540875092918,
			"-0.009": 2.91354193836,
			"-0.008": 6.35900697211,
			"-0.007": 6.3248407722,
			"-0.006": 7.35610682388,
			"-0.005": 6.33265403537,
			"-0.004": 6.9063079583,
			"-0.003": 11.0020412704,
			"-0.002": 16.8399711407,
			"-0.001": 22.7143478491,
			"0.0": 29.8966599246,
			"0.001": 27.6124857621,
			"0.002": 33.6378606044,
			"0.003": 20.4323516162,
			"0.004": 7.63156442482,
			"0.005": 3.57284154359,
			"0.006": 3.37327701943,
			"0.007": 1.76292929285,
			"0.008": 1.83190492772,
			"0.009": 1.89452001682,
			"0.01": 1.75713421351,
			"0.011": 3.46318969847,
			"0.012": 5.16420363395,
			"0.013": 1.35851906592,
			"0.014": 0.0,
			"0.015": 0.0,
			"0.016": 0.0,
			"0.017": 0.0,
			"0.018": 0.0,
			"0.019": 0.0,
			"0.02": 0.0,
			"0.021": 0.0,
			"0.022": 0.0,
			"0.023": 0.0,
			"0.024": 0.0,
			"0.025": 0.0
		}
	}
}
