{
	 "smiles": "O=C1N(CC2CNCCO2)C(=O)C2=C1C=CC=C2", 
	 "Tm": 413.15, 
	 "num_atms": 32, 
	 "gaussian": { 
		 "optdone": 1, 
		 "sigma_profile": "yes", 
		 "theory": "DFT", 
		 "functional": "B3LYP", 
		 "basiset": "6-31G**", 
		 "properties": { 
			 "R2extent": 5079.4937, 
			 "electric_dipole_moment_norm": 1.90321015918, 
			 "electric_quadrupole_moment_norm": 13.5515907096, 
			 "total_energy": -839.000491272, 
			 "HOMO_LUMO_gap": 0.13796, 
			 "cosmo_polarized_energy": -14.97, 
			 "cosmo_cavitation_energy": 34.82, 
			 "cosmo_dispersion_energy": -24.75, 
			 "cosmo_repulsion_energy": 1.88, 
			 "cosmo_total_nonelectrostatic_energy": 11.95, 
			 "SMD_solvation_energy": 3.88 
		},
		"coords": [
			{
				"x": 1.3483406051,
				"y": 1.9337562574,
				"z": 0.3544987018,
				"element": "O" 
			},
			{
				"x": 1.5785954929,
				"y": 0.7529575949,
				"z": 0.1782068151,
				"element": "C" 
			},
			{
				"x": 1.2491531892,
				"y": 0.0187158124,
				"z": -0.9720837803,
				"element": "N" 
			},
			{
				"x": 0.4656459016,
				"y": 0.5567813173,
				"z": -2.0677591392,
				"element": "C" 
			},
			{
				"x": -1.0291325683,
				"y": 0.1880395601,
				"z": -1.9673754697,
				"element": "C" 
			},
			{
				"x": -1.8737954215,
				"y": 1.0106371009,
				"z": -2.9541761032,
				"element": "C" 
			},
			{
				"x": -1.9680839466,
				"y": 2.4331642403,
				"z": -2.6121606997,
				"element": "N" 
			},
			{
				"x": -2.0097286529,
				"y": 2.697943079,
				"z": -1.1590694169,
				"element": "C" 
			},
			{
				"x": -2.4058268696,
				"y": 1.4307510687,
				"z": -0.4111698774,
				"element": "C" 
			},
			{
				"x": -1.475379067,
				"y": 0.3695598449,
				"z": -0.6187256201,
				"element": "O" 
			},
			{
				"x": 1.6442703841,
				"y": -1.323607077,
				"z": -0.8797613192,
				"element": "C" 
			},
			{
				"x": 1.4548023421,
				"y": -2.1693020788,
				"z": -1.7330089734,
				"element": "O" 
			},
			{
				"x": 2.3234996994,
				"y": -1.452882354,
				"z": 0.4441809158,
				"element": "C" 
			},
			{
				"x": 2.2806109983,
				"y": -0.2096348847,
				"z": 1.0792807468,
				"element": "C" 
			},
			{
				"x": 2.8367558444,
				"y": -0.0174340625,
				"z": 2.3352987769,
				"element": "C" 
			},
			{
				"x": 3.4430431307,
				"y": -1.122465472,
				"z": 2.9481569929,
				"element": "C" 
			},
			{
				"x": 3.4853233114,
				"y": -2.3694551278,
				"z": 2.3114469892,
				"element": "C" 
			},
			{
				"x": 2.9226564982,
				"y": -2.5523394042,
				"z": 1.0409385495,
				"element": "C" 
			},
			{
				"x": 0.8738599667,
				"y": 0.170548723,
				"z": -3.0072276233,
				"element": "H" 
			},
			{
				"x": 0.5970136682,
				"y": 1.6408863123,
				"z": -2.0387751726,
				"element": "H" 
			},
			{
				"x": -1.1302020302,
				"y": -0.8813324036,
				"z": -2.195336288,
				"element": "H" 
			},
			{
				"x": -1.4659292351,
				"y": 0.9139612322,
				"z": -3.965949074,
				"element": "H" 
			},
			{
				"x": -2.8802382366,
				"y": 0.5749543823,
				"z": -2.9892092471,
				"element": "H" 
			},
			{
				"x": -1.2090024952,
				"y": 2.9518097238,
				"z": -3.0381387147,
				"element": "H" 
			},
			{
				"x": -2.7398303922,
				"y": 3.4903161029,
				"z": -0.9417375195,
				"element": "H" 
			},
			{
				"x": -1.036879756,
				"y": 3.0260652859,
				"z": -0.767269723,
				"element": "H" 
			},
			{
				"x": -3.4201197664,
				"y": 1.1186169551,
				"z": -0.704501971,
				"element": "H" 
			},
			{
				"x": -2.4147344685,
				"y": 1.6152594743,
				"z": 0.6665279556,
				"element": "H" 
			},
			{
				"x": 2.7985190487,
				"y": 0.9533979985,
				"z": 2.8187467793,
				"element": "H" 
			},
			{
				"x": 3.8876934891,
				"y": -1.01255758,
				"z": 3.9328065384,
				"element": "H" 
			},
			{
				"x": 3.9620259533,
				"y": -3.2067549525,
				"z": 2.8124462276,
				"element": "H" 
			},
			{
				"x": 2.9497733828,
				"y": -3.5135566691,
				"z": 0.5378997435,
				"element": "H" 
			}
		],
		 "valence_orbital": [ 
			{
				"type": "occ",
				"energy": -0.27465,
				"method": "rhf"
			},
			{
				"type": "occ",
				"energy": -0.26745,
				"method": "rhf"
			},
			{
				"type": "occ",
				"energy": -0.26428,
				"method": "rhf"
			},
			{
				"type": "occ",
				"energy": -0.24355,
				"method": "rhf"
			},
			{
				"type": "occ",
				"energy": -0.21565,
				"method": "rhf"
			},
			{
				"type": "unocc",
				"energy": -0.07769,
				"method": "rhf"
			},
			{
				"type": "unocc",
				"energy": -0.03741,
				"method": "rhf"
			},
			{
				"type": "unocc",
				"energy": 0.03158,
				"method": "rhf"
			},
			{
				"type": "unocc",
				"energy": 0.0679,
				"method": "rhf"
			},
			{
				"type": "unocc",
				"energy": 0.08122,
				"method": "rhf"
			}
		],
		"cosmo_sigma_profile": { 
			"-0.025": 0.0,
			"-0.024": 0.0,
			"-0.023": 0.0,
			"-0.022": 0.0,
			"-0.021": 0.0,
			"-0.02": 0.0,
			"-0.019": 0.0,
			"-0.018": 0.0,
			"-0.017": 0.0,
			"-0.016": 0.0,
			"-0.015": 0.0,
			"-0.014": 0.0,
			"-0.013": 0.0,
			"-0.012": 0.0,
			"-0.011": 0.242404448907,
			"-0.01": 1.60890437908,
			"-0.009": 2.33637723737,
			"-0.008": 3.45657716563,
			"-0.007": 10.7840995145,
			"-0.006": 16.3721957222,
			"-0.005": 18.2861062217,
			"-0.004": 22.8441693797,
			"-0.003": 27.8278992492,
			"-0.002": 24.7867451624,
			"-0.001": 21.7967328433,
			"0.0": 20.4191050722,
			"0.001": 16.9043489089,
			"0.002": 18.5810454879,
			"0.003": 10.8814018469,
			"0.004": 6.25202048563,
			"0.005": 5.89857655957,
			"0.006": 6.3269436806,
			"0.007": 6.32660762998,
			"0.008": 5.14310819672,
			"0.009": 5.30069335998,
			"0.01": 5.99344752287,
			"0.011": 8.01041153018,
			"0.012": 5.53413716219,
			"0.013": 1.0965947401,
			"0.014": 0.715848873728,
			"0.015": 0.369202933924,
			"0.016": 0.728515783111,
			"0.017": 0.469388572884,
			"0.018": 0.221637306605,
			"0.019": 0.0,
			"0.02": 0.0,
			"0.021": 0.0,
			"0.022": 0.0,
			"0.023": 0.0,
			"0.024": 0.0,
			"0.025": 0.0
		}
	}
}
