{
	 "smiles": "CN(C)C1=C(C=CC=C1)C1=C(C=CC=C1)P(C1=CC=CC=C1)C1=CC=CC=C1", 
	 "Tm": 400.15, 
	 "num_atms": 52, 
	 "gaussian": { 
		 "optdone": 1, 
		 "sigma_profile": "yes", 
		 "theory": "DFT", 
		 "functional": "B3LYP", 
		 "basiset": "6-31G**", 
		 "properties": { 
			 "R2extent": 10027.2833, 
			 "electric_dipole_moment_norm": 1.34193397751, 
			 "electric_quadrupole_moment_norm": 3.37627449565, 
			 "total_energy": -1401.32258509, 
			 "HOMO_LUMO_gap": 0.17223, 
			 "cosmo_polarized_energy": -10.37, 
			 "cosmo_cavitation_energy": 53.72, 
			 "cosmo_dispersion_energy": -34.61, 
			 "cosmo_repulsion_energy": 2.64, 
			 "cosmo_total_nonelectrostatic_energy": 21.75, 
			 "SMD_solvation_energy": 9.48 
		},
		"coords": [
			{
				"x": 0.5394565873,
				"y": -0.106755586,
				"z": 3.2041936888,
				"element": "C" 
			},
			{
				"x": 0.646278739,
				"y": -1.0710214222,
				"z": 2.1182833773,
				"element": "N" 
			},
			{
				"x": 2.0040608478,
				"y": -1.6059882472,
				"z": 2.0048996697,
				"element": "C" 
			},
			{
				"x": -0.4022415034,
				"y": -2.0246553251,
				"z": 2.0014263786,
				"element": "C" 
			},
			{
				"x": -0.6486694622,
				"y": -2.6475583714,
				"z": 0.7512108385,
				"element": "C" 
			},
			{
				"x": -1.6722730864,
				"y": -3.6009418428,
				"z": 0.6622571267,
				"element": "C" 
			},
			{
				"x": -2.4801034802,
				"y": -3.9204692829,
				"z": 1.7538327433,
				"element": "C" 
			},
			{
				"x": -2.2580035538,
				"y": -3.2800169867,
				"z": 2.969770873,
				"element": "C" 
			},
			{
				"x": -1.2245820946,
				"y": -2.3509082473,
				"z": 3.0911077092,
				"element": "C" 
			},
			{
				"x": 0.1291020908,
				"y": -2.3467200264,
				"z": -0.4917677938,
				"element": "C" 
			},
			{
				"x": 0.1553802072,
				"y": -1.0736960125,
				"z": -1.1129399743,
				"element": "C" 
			},
			{
				"x": 0.8434479711,
				"y": -0.9309016775,
				"z": -2.3291331862,
				"element": "C" 
			},
			{
				"x": 1.5150552187,
				"y": -1.9981783845,
				"z": -2.9241389672,
				"element": "C" 
			},
			{
				"x": 1.4943931769,
				"y": -3.2492279298,
				"z": -2.3091655072,
				"element": "C" 
			},
			{
				"x": 0.8035484042,
				"y": -3.4152913461,
				"z": -1.1106640526,
				"element": "C" 
			},
			{
				"x": -0.8076744672,
				"y": 0.3442609185,
				"z": -0.382285619,
				"element": "P" 
			},
			{
				"x": -1.5434887265,
				"y": 1.0807345175,
				"z": -1.9252352597,
				"element": "C" 
			},
			{
				"x": -1.0099212532,
				"y": 2.1658569348,
				"z": -2.6377458638,
				"element": "C" 
			},
			{
				"x": -1.6580159604,
				"y": 2.6637448598,
				"z": -3.7710415732,
				"element": "C" 
			},
			{
				"x": -2.8471777155,
				"y": 2.0836639872,
				"z": -4.2140627181,
				"element": "C" 
			},
			{
				"x": -3.391881347,
				"y": 1.0057649781,
				"z": -3.5120037509,
				"element": "C" 
			},
			{
				"x": -2.7506388093,
				"y": 0.5172526526,
				"z": -2.3742680661,
				"element": "C" 
			},
			{
				"x": 0.4939705358,
				"y": 1.5958356828,
				"z": 0.0381867297,
				"element": "C" 
			},
			{
				"x": 0.0481128853,
				"y": 2.7800685747,
				"z": 0.6529055417,
				"element": "C" 
			},
			{
				"x": 0.9481466671,
				"y": 3.767022883,
				"z": 1.0538249395,
				"element": "C" 
			},
			{
				"x": 2.3201372295,
				"y": 3.5814705807,
				"z": 0.8671039656,
				"element": "C" 
			},
			{
				"x": 2.778452622,
				"y": 2.4059266734,
				"z": 0.2711248791,
				"element": "C" 
			},
			{
				"x": 1.874281128,
				"y": 1.4237802623,
				"z": -0.1435267705,
				"element": "C" 
			},
			{
				"x": -0.4654321312,
				"y": 0.3208803653,
				"z": 3.223631797,
				"element": "H" 
			},
			{
				"x": 0.7625699152,
				"y": -0.5333306154,
				"z": 4.1985910559,
				"element": "H" 
			},
			{
				"x": 1.2508323065,
				"y": 0.703675305,
				"z": 3.020365755,
				"element": "H" 
			},
			{
				"x": 2.7038553824,
				"y": -0.7773469941,
				"z": 1.8576120729,
				"element": "H" 
			},
			{
				"x": 2.3087873202,
				"y": -2.1614716242,
				"z": 2.9090727421,
				"element": "H" 
			},
			{
				"x": 2.0839225825,
				"y": -2.2747113718,
				"z": 1.147553259,
				"element": "H" 
			},
			{
				"x": -1.8556693643,
				"y": -4.0715532543,
				"z": -0.2996831464,
				"element": "H" 
			},
			{
				"x": -3.2785616748,
				"y": -4.6485918726,
				"z": 1.6473375643,
				"element": "H" 
			},
			{
				"x": -2.8771069317,
				"y": -3.5081911087,
				"z": 3.8330914659,
				"element": "H" 
			},
			{
				"x": -1.0482188807,
				"y": -1.8817703078,
				"z": 4.052468545,
				"element": "H" 
			},
			{
				"x": 0.8367319359,
				"y": 0.0326251343,
				"z": -2.8294048045,
				"element": "H" 
			},
			{
				"x": 2.0405052731,
				"y": -1.8535564817,
				"z": -3.8639375711,
				"element": "H" 
			},
			{
				"x": 2.0062320977,
				"y": -4.0942468628,
				"z": -2.7612425351,
				"element": "H" 
			},
			{
				"x": 0.7808554334,
				"y": -4.3899509007,
				"z": -0.631325259,
				"element": "H" 
			},
			{
				"x": -0.0868445866,
				"y": 2.6294806833,
				"z": -2.3041103262,
				"element": "H" 
			},
			{
				"x": -1.2299641071,
				"y": 3.5058453435,
				"z": -4.3085349091,
				"element": "H" 
			},
			{
				"x": -3.3499444877,
				"y": 2.4720564592,
				"z": -5.0953550253,
				"element": "H" 
			},
			{
				"x": -4.321855133,
				"y": 0.552605279,
				"z": -3.8445550395,
				"element": "H" 
			},
			{
				"x": -3.1925340756,
				"y": -0.3095528658,
				"z": -1.8230806043,
				"element": "H" 
			},
			{
				"x": -1.0160661051,
				"y": 2.9295251472,
				"z": 0.819877326,
				"element": "H" 
			},
			{
				"x": 0.5788477986,
				"y": 4.6764096246,
				"z": 1.520067495,
				"element": "H" 
			},
			{
				"x": 3.0242966714,
				"y": 4.3447925895,
				"z": 1.1859109347,
				"element": "H" 
			},
			{
				"x": 3.8438547692,
				"y": 2.251539895,
				"z": 0.1213281899,
				"element": "H" 
			},
			{
				"x": 2.2485531406,
				"y": 0.5189856172,
				"z": -0.6099283405,
				"element": "H" 
			}
		],
		 "valence_orbital": [ 
			{
				"type": "occ",
				"energy": -0.24388,
				"method": "rhf"
			},
			{
				"type": "occ",
				"energy": -0.24168,
				"method": "rhf"
			},
			{
				"type": "occ",
				"energy": -0.23149,
				"method": "rhf"
			},
			{
				"type": "occ",
				"energy": -0.20532,
				"method": "rhf"
			},
			{
				"type": "occ",
				"energy": -0.19541,
				"method": "rhf"
			},
			{
				"type": "unocc",
				"energy": -0.02318,
				"method": "rhf"
			},
			{
				"type": "unocc",
				"energy": -0.01302,
				"method": "rhf"
			},
			{
				"type": "unocc",
				"energy": -0.00976,
				"method": "rhf"
			},
			{
				"type": "unocc",
				"energy": -0.00381,
				"method": "rhf"
			},
			{
				"type": "unocc",
				"energy": 0.00057,
				"method": "rhf"
			}
		],
		"cosmo_sigma_profile": { 
			"-0.025": 0.0,
			"-0.024": 0.0,
			"-0.023": 0.0,
			"-0.022": 0.0,
			"-0.021": 0.0,
			"-0.02": 0.0,
			"-0.019": 0.0,
			"-0.018": 0.0,
			"-0.017": 0.0,
			"-0.016": 0.0,
			"-0.015": 0.0,
			"-0.014": 0.0,
			"-0.013": 0.0,
			"-0.012": 0.0,
			"-0.011": 0.0,
			"-0.01": 0.0,
			"-0.009": 0.0,
			"-0.008": 0.0,
			"-0.007": 0.0136508366736,
			"-0.006": 10.4655057945,
			"-0.005": 30.2752438362,
			"-0.004": 36.6950648786,
			"-0.003": 46.6705811522,
			"-0.002": 44.7652094353,
			"-0.001": 44.3468612223,
			"0.0": 38.0738028389,
			"0.001": 28.8506861914,
			"0.002": 29.8271550641,
			"0.003": 33.2019955487,
			"0.004": 31.5417951412,
			"0.005": 26.8256651455,
			"0.006": 14.6486428014,
			"0.007": 4.18688682101,
			"0.008": 1.62298244342,
			"0.009": 1.37667494899,
			"0.01": 1.0704121682,
			"0.011": 1.09766373486,
			"0.012": 0.727485903451,
			"0.013": 0.484470291325,
			"0.014": 0.0922428807993,
			"0.015": 0.0,
			"0.016": 0.0,
			"0.017": 0.0,
			"0.018": 0.0,
			"0.019": 0.0,
			"0.02": 0.0,
			"0.021": 0.0,
			"0.022": 0.0,
			"0.023": 0.0,
			"0.024": 0.0,
			"0.025": 0.0
		}
	}
}
