{
	 "smiles": "CC1=CC(C(=O)CCl)=C(C)N1C1=CC=CC=C1", 
	 "Tm": 366.65, 
	 "num_atms": 31, 
	 "gaussian": { 
		 "optdone": 1, 
		 "sigma_profile": "yes", 
		 "theory": "DFT", 
		 "functional": "B3LYP", 
		 "basiset": "6-31G**", 
		 "properties": { 
			 "R2extent": 6853.8963, 
			 "electric_dipole_moment_norm": 7.48388178755, 
			 "electric_quadrupole_moment_norm": 31.68995283, 
			 "total_energy": -1132.10211988, 
			 "HOMO_LUMO_gap": 0.18153, 
			 "cosmo_polarized_energy": -13.94, 
			 "cosmo_cavitation_energy": 36.59, 
			 "cosmo_dispersion_energy": -25.33, 
			 "cosmo_repulsion_energy": 1.99, 
			 "cosmo_total_nonelectrostatic_energy": 13.25, 
			 "SMD_solvation_energy": 6.58 
		},
		"coords": [
			{
				"x": 0.226077284,
				"y": 0.9261504349,
				"z": 2.3805272124,
				"element": "C" 
			},
			{
				"x": 0.2748552021,
				"y": -0.2989992932,
				"z": 1.5261413371,
				"element": "C" 
			},
			{
				"x": 0.2336794861,
				"y": -1.6254683557,
				"z": 1.8636366703,
				"element": "C" 
			},
			{
				"x": 0.3059118571,
				"y": -2.4019817835,
				"z": 0.6555817609,
				"element": "C" 
			},
			{
				"x": 0.2976031566,
				"y": -3.8643123055,
				"z": 0.5342874166,
				"element": "C" 
			},
			{
				"x": 0.3604796909,
				"y": -4.4714313761,
				"z": -0.5242818104,
				"element": "O" 
			},
			{
				"x": 0.2014560022,
				"y": -4.6113510063,
				"z": 1.8771675027,
				"element": "C" 
			},
			{
				"x": 0.1929135391,
				"y": -6.3949275906,
				"z": 1.7031382099,
				"element": "Cl" 
			},
			{
				"x": 0.390215008,
				"y": -1.4997069338,
				"z": -0.4077497274,
				"element": "C" 
			},
			{
				"x": 0.4940698061,
				"y": -1.731783317,
				"z": -1.8802766556,
				"element": "C" 
			},
			{
				"x": 0.3705617581,
				"y": -0.2322925482,
				"z": 0.1316350275,
				"element": "N" 
			},
			{
				"x": 0.4384444456,
				"y": 0.9843830414,
				"z": -0.6243295724,
				"element": "C" 
			},
			{
				"x": -0.7314731994,
				"y": 1.5486358545,
				"z": -1.1411798836,
				"element": "C" 
			},
			{
				"x": -0.6623320622,
				"y": 2.7341862684,
				"z": -1.874059026,
				"element": "C" 
			},
			{
				"x": 0.5698865863,
				"y": 3.3554191039,
				"z": -2.0879025037,
				"element": "C" 
			},
			{
				"x": 1.7363237003,
				"y": 2.7895650106,
				"z": -1.5690326457,
				"element": "C" 
			},
			{
				"x": 1.673904107,
				"y": 1.6029603305,
				"z": -0.8372124514,
				"element": "C" 
			},
			{
				"x": -0.6299698031,
				"y": 1.5667277429,
				"z": 2.1374093216,
				"element": "H" 
			},
			{
				"x": 0.1387515067,
				"y": 0.6330799401,
				"z": 3.4293113854,
				"element": "H" 
			},
			{
				"x": 1.1272022844,
				"y": 1.5420993167,
				"z": 2.2773384051,
				"element": "H" 
			},
			{
				"x": 0.15770108,
				"y": -1.9981601016,
				"z": 2.87558708,
				"element": "H" 
			},
			{
				"x": -0.7159905493,
				"y": -4.3247964105,
				"z": 2.3971124411,
				"element": "H" 
			},
			{
				"x": 1.0495396978,
				"y": -4.3443768908,
				"z": 2.5124878307,
				"element": "H" 
			},
			{
				"x": 1.3978142599,
				"y": -1.2700424052,
				"z": -2.2951371891,
				"element": "H" 
			},
			{
				"x": 0.5231222002,
				"y": -2.8041852732,
				"z": -2.0654624977,
				"element": "H" 
			},
			{
				"x": -0.3603219093,
				"y": -1.3020390847,
				"z": -2.4166106645,
				"element": "H" 
			},
			{
				"x": -1.6825761549,
				"y": 1.0558181635,
				"z": -0.9651263274,
				"element": "H" 
			},
			{
				"x": -1.5709553235,
				"y": 3.1718056932,
				"z": -2.2764960204,
				"element": "H" 
			},
			{
				"x": 0.621104774,
				"y": 4.2780816354,
				"z": -2.6581918252,
				"element": "H" 
			},
			{
				"x": 2.6960654245,
				"y": 3.2695565013,
				"z": -1.7350832307,
				"element": "H" 
			},
			{
				"x": 2.5729361447,
				"y": 1.1491856385,
				"z": -0.4318295698,
				"element": "H" 
			}
		],
		 "valence_orbital": [ 
			{
				"type": "occ",
				"energy": -0.27366,
				"method": "rhf"
			},
			{
				"type": "occ",
				"energy": -0.27276,
				"method": "rhf"
			},
			{
				"type": "occ",
				"energy": -0.24989,
				"method": "rhf"
			},
			{
				"type": "occ",
				"energy": -0.24132,
				"method": "rhf"
			},
			{
				"type": "occ",
				"energy": -0.21093,
				"method": "rhf"
			},
			{
				"type": "unocc",
				"energy": -0.0294,
				"method": "rhf"
			},
			{
				"type": "unocc",
				"energy": -0.02688,
				"method": "rhf"
			},
			{
				"type": "unocc",
				"energy": -0.02466,
				"method": "rhf"
			},
			{
				"type": "unocc",
				"energy": 0.03117,
				"method": "rhf"
			},
			{
				"type": "unocc",
				"energy": 0.04107,
				"method": "rhf"
			}
		],
		"cosmo_sigma_profile": { 
			"-0.025": 0.0,
			"-0.024": 0.0,
			"-0.023": 0.0,
			"-0.022": 0.0,
			"-0.021": 0.0,
			"-0.02": 0.0,
			"-0.019": 0.0,
			"-0.018": 0.0,
			"-0.017": 0.0,
			"-0.016": 0.0,
			"-0.015": 0.0,
			"-0.014": 0.0,
			"-0.013": 0.0,
			"-0.012": 0.0,
			"-0.011": 0.0,
			"-0.01": 0.0,
			"-0.009": 0.61260433948,
			"-0.008": 4.18305527137,
			"-0.007": 9.3161305466,
			"-0.006": 16.088566681,
			"-0.005": 19.1563013263,
			"-0.004": 25.4152353077,
			"-0.003": 24.6762177328,
			"-0.002": 22.6686980529,
			"-0.001": 27.6842667155,
			"0.0": 23.8930297075,
			"0.001": 17.1299379494,
			"0.002": 17.5776586295,
			"0.003": 17.1982695,
			"0.004": 19.7945775803,
			"0.005": 13.1125801142,
			"0.006": 12.8240947431,
			"0.007": 5.09504736668,
			"0.008": 3.09425348753,
			"0.009": 1.87799086568,
			"0.01": 2.39436894208,
			"0.011": 2.46289654538,
			"0.012": 3.09265203967,
			"0.013": 2.26885400547,
			"0.014": 1.58233686538,
			"0.015": 0.150497706449,
			"0.016": 0.0,
			"0.017": 0.0,
			"0.018": 0.0,
			"0.019": 0.0,
			"0.02": 0.0,
			"0.021": 0.0,
			"0.022": 0.0,
			"0.023": 0.0,
			"0.024": 0.0,
			"0.025": 0.0
		}
	}
}
