{
	 "smiles": "CN(C)C1=CC2=CC=C(C)N=C2C=C1", 
	 "Tm": 374.15, 
	 "num_atms": 28, 
	 "gaussian": { 
		 "optdone": 1, 
		 "sigma_profile": "yes", 
		 "theory": "DFT", 
		 "functional": "B3LYP", 
		 "basiset": "6-31G**", 
		 "properties": { 
			 "R2extent": 4125.1474, 
			 "electric_dipole_moment_norm": 3.23360689478, 
			 "electric_quadrupole_moment_norm": 11.5537230571, 
			 "total_energy": -575.227107594, 
			 "HOMO_LUMO_gap": 0.15028, 
			 "cosmo_polarized_energy": -9.13, 
			 "cosmo_cavitation_energy": 30.29, 
			 "cosmo_dispersion_energy": -22.5, 
			 "cosmo_repulsion_energy": 1.74, 
			 "cosmo_total_nonelectrostatic_energy": 9.54, 
			 "SMD_solvation_energy": 3.18 
		},
		"coords": [
			{
				"x": -2.0095149545,
				"y": 0.8434288929,
				"z": 1.6809211624,
				"element": "C" 
			},
			{
				"x": -0.6434778584,
				"y": 0.361381823,
				"z": 1.7806308982,
				"element": "N" 
			},
			{
				"x": 0.1676525639,
				"y": 0.8442978266,
				"z": 2.8872137347,
				"element": "C" 
			},
			{
				"x": -0.0268411449,
				"y": -0.1408197988,
				"z": 0.6387510363,
				"element": "C" 
			},
			{
				"x": -0.7302295589,
				"y": -0.3559613891,
				"z": -0.5476969449,
				"element": "C" 
			},
			{
				"x": -0.098171968,
				"y": -0.9025255886,
				"z": -1.6888324358,
				"element": "C" 
			},
			{
				"x": -0.7769888524,
				"y": -1.1439333236,
				"z": -2.9143826483,
				"element": "C" 
			},
			{
				"x": -0.0888104207,
				"y": -1.6740419076,
				"z": -3.9765530512,
				"element": "C" 
			},
			{
				"x": 1.2988684979,
				"y": -1.9762850092,
				"z": -3.8423024556,
				"element": "C" 
			},
			{
				"x": 2.062632809,
				"y": -2.5605505619,
				"z": -5.0056426806,
				"element": "C" 
			},
			{
				"x": 1.9612730006,
				"y": -1.762447936,
				"z": -2.7193282098,
				"element": "N" 
			},
			{
				"x": 1.2899102883,
				"y": -1.2362894073,
				"z": -1.6542714091,
				"element": "C" 
			},
			{
				"x": 1.995179124,
				"y": -0.9980257959,
				"z": -0.4472366628,
				"element": "C" 
			},
			{
				"x": 1.3682818441,
				"y": -0.4695436919,
				"z": 0.6546537672,
				"element": "C" 
			},
			{
				"x": -2.3517359264,
				"y": 1.1615857756,
				"z": 2.6670680567,
				"element": "H" 
			},
			{
				"x": -2.6790827934,
				"y": 0.0452510371,
				"z": 1.3409328956,
				"element": "H" 
			},
			{
				"x": -2.1170290927,
				"y": 1.6926596733,
				"z": 0.9868075371,
				"element": "H" 
			},
			{
				"x": -0.4920507547,
				"y": 1.1947628094,
				"z": 3.6826718894,
				"element": "H" 
			},
			{
				"x": 0.8340955194,
				"y": 1.6744931438,
				"z": 2.6055312613,
				"element": "H" 
			},
			{
				"x": 0.7842072137,
				"y": 0.0425432555,
				"z": 3.3080424347,
				"element": "H" 
			},
			{
				"x": -1.7822875083,
				"y": -0.1076715325,
				"z": -0.6241830269,
				"element": "H" 
			},
			{
				"x": -1.8352313036,
				"y": -0.9066167728,
				"z": -2.9967604219,
				"element": "H" 
			},
			{
				"x": -0.5888551033,
				"y": -1.867189667,
				"z": -4.9216975886,
				"element": "H" 
			},
			{
				"x": 1.6324868874,
				"y": -3.5180524094,
				"z": -5.3234499468,
				"element": "H" 
			},
			{
				"x": 3.1027806446,
				"y": -2.7212852009,
				"z": -4.717870216,
				"element": "H" 
			},
			{
				"x": 2.0360652632,
				"y": -1.8925639124,
				"z": -5.8750671212,
				"element": "H" 
			},
			{
				"x": 3.05205761,
				"y": -1.2442801993,
				"z": -0.422402219,
				"element": "H" 
			},
			{
				"x": 1.9501159741,
				"y": -0.3015201331,
				"z": 1.5525523648,
				"element": "H" 
			}
		],
		 "valence_orbital": [ 
			{
				"type": "occ",
				"energy": -0.29113,
				"method": "rhf"
			},
			{
				"type": "occ",
				"energy": -0.26405,
				"method": "rhf"
			},
			{
				"type": "occ",
				"energy": -0.23758,
				"method": "rhf"
			},
			{
				"type": "occ",
				"energy": -0.22692,
				"method": "rhf"
			},
			{
				"type": "occ",
				"energy": -0.18508,
				"method": "rhf"
			},
			{
				"type": "unocc",
				"energy": -0.0348,
				"method": "rhf"
			},
			{
				"type": "unocc",
				"energy": 0.00406,
				"method": "rhf"
			},
			{
				"type": "unocc",
				"energy": 0.03644,
				"method": "rhf"
			},
			{
				"type": "unocc",
				"energy": 0.08525,
				"method": "rhf"
			},
			{
				"type": "unocc",
				"energy": 0.10007,
				"method": "rhf"
			}
		],
		"cosmo_sigma_profile": { 
			"-0.025": 0.0,
			"-0.024": 0.0,
			"-0.023": 0.0,
			"-0.022": 0.0,
			"-0.021": 0.0,
			"-0.02": 0.0,
			"-0.019": 0.0,
			"-0.018": 0.0,
			"-0.017": 0.0,
			"-0.016": 0.0,
			"-0.015": 0.0,
			"-0.014": 0.0,
			"-0.013": 0.0,
			"-0.012": 0.0,
			"-0.011": 0.0,
			"-0.01": 0.0,
			"-0.009": 0.0,
			"-0.008": 0.0,
			"-0.007": 1.10844927675,
			"-0.006": 9.63970487181,
			"-0.005": 16.2249566616,
			"-0.004": 23.6169454639,
			"-0.003": 27.5963216387,
			"-0.002": 28.0865839482,
			"-0.001": 24.4705342337,
			"0.0": 17.0526846932,
			"0.001": 12.0910430899,
			"0.002": 10.4494530303,
			"0.003": 16.2397730155,
			"0.004": 19.2031691188,
			"0.005": 15.7054792661,
			"0.006": 6.58099596049,
			"0.007": 2.09476464124,
			"0.008": 2.00792309703,
			"0.009": 1.12766952879,
			"0.01": 1.95878312898,
			"0.011": 0.924033399117,
			"0.012": 0.73957641359,
			"0.013": 1.0498580487,
			"0.014": 0.714092820392,
			"0.015": 0.574965389699,
			"0.016": 0.794497693697,
			"0.017": 0.0860013967642,
			"0.018": 0.0,
			"0.019": 0.0,
			"0.02": 0.0,
			"0.021": 0.0,
			"0.022": 0.0,
			"0.023": 0.0,
			"0.024": 0.0,
			"0.025": 0.0
		}
	}
}
