{
	 "smiles": "CC1=CC=C(C=O)C(Br)=C1", 
	 "Tm": 308.15, 
	 "num_atms": 17, 
	 "gaussian": { 
		 "optdone": 1, 
		 "sigma_profile": "yes", 
		 "theory": "DFT", 
		 "functional": "B3LYP", 
		 "basiset": "6-31G**", 
		 "properties": { 
			 "R2extent": 3610.9001, 
			 "electric_dipole_moment_norm": 4.8234026672, 
			 "electric_quadrupole_moment_norm": 12.5371329589, 
			 "total_energy": -2955.69003686, 
			 "HOMO_LUMO_gap": 0.17886, 
			 "cosmo_polarized_energy": -9.45, 
			 "cosmo_cavitation_energy": 23.43, 
			 "cosmo_dispersion_energy": -17.57, 
			 "cosmo_repulsion_energy": 1.41, 
			 "cosmo_total_nonelectrostatic_energy": 7.28, 
			 "SMD_solvation_energy": 4.1 
		},
		"coords": [
			{
				"x": 0.943191755,
				"y": 1.6645679526,
				"z": -1.7226530091,
				"element": "C" 
			},
			{
				"x": 0.2995128332,
				"y": 1.1098758089,
				"z": -0.4759450365,
				"element": "C" 
			},
			{
				"x": 1.056621093,
				"y": 0.4243750418,
				"z": 0.4845497106,
				"element": "C" 
			},
			{
				"x": 0.4507816185,
				"y": -0.054047759,
				"z": 1.6378145982,
				"element": "C" 
			},
			{
				"x": -0.9215490213,
				"y": 0.1211541853,
				"z": 1.8883472209,
				"element": "C" 
			},
			{
				"x": -1.4316111975,
				"y": -0.4454997995,
				"z": 3.1619561833,
				"element": "C" 
			},
			{
				"x": -2.57076804,
				"y": -0.4109915249,
				"z": 3.5773306132,
				"element": "O" 
			},
			{
				"x": -1.674973631,
				"y": 0.8071948712,
				"z": 0.91785817,
				"element": "C" 
			},
			{
				"x": -3.5445778431,
				"y": 1.1232041719,
				"z": 1.1017296378,
				"element": "Br" 
			},
			{
				"x": -1.0697596104,
				"y": 1.2888605888,
				"z": -0.241289806,
				"element": "C" 
			},
			{
				"x": 1.7275344571,
				"y": 0.9987876412,
				"z": -2.0949928624,
				"element": "H" 
			},
			{
				"x": 0.2112711928,
				"y": 1.8130470389,
				"z": -2.5209362042,
				"element": "H" 
			},
			{
				"x": 1.4106425399,
				"y": 2.6359806482,
				"z": -1.5194664442,
				"element": "H" 
			},
			{
				"x": 2.1193964346,
				"y": 0.2670313773,
				"z": 0.3233824529,
				"element": "H" 
			},
			{
				"x": 1.0432761256,
				"y": -0.5862440365,
				"z": 2.3787797878,
				"element": "H" 
			},
			{
				"x": -0.6291489639,
				"y": -0.9423628026,
				"z": 3.753953367,
				"element": "H" 
			},
			{
				"x": -1.6785397425,
				"y": 1.8106665963,
				"z": -0.9720183795,
				"element": "H" 
			}
		],
		 "valence_orbital": [ 
			{
				"type": "occ",
				"energy": -0.31582,
				"method": "rhf"
			},
			{
				"type": "occ",
				"energy": -0.29085,
				"method": "rhf"
			},
			{
				"type": "occ",
				"energy": -0.26749,
				"method": "rhf"
			},
			{
				"type": "occ",
				"energy": -0.24946,
				"method": "rhf"
			},
			{
				"type": "occ",
				"energy": -0.24593,
				"method": "rhf"
			},
			{
				"type": "unocc",
				"energy": -0.06707,
				"method": "rhf"
			},
			{
				"type": "unocc",
				"energy": -0.02446,
				"method": "rhf"
			},
			{
				"type": "unocc",
				"energy": 0.00867,
				"method": "rhf"
			},
			{
				"type": "unocc",
				"energy": 0.03233,
				"method": "rhf"
			},
			{
				"type": "unocc",
				"energy": 0.09284,
				"method": "rhf"
			}
		],
		"cosmo_sigma_profile": { 
			"-0.025": 0.0,
			"-0.024": 0.0,
			"-0.023": 0.0,
			"-0.022": 0.0,
			"-0.021": 0.0,
			"-0.02": 0.0,
			"-0.019": 0.0,
			"-0.018": 0.0,
			"-0.017": 0.0,
			"-0.016": 0.0,
			"-0.015": 0.0,
			"-0.014": 0.0,
			"-0.013": 0.0,
			"-0.012": 0.0,
			"-0.011": 0.0,
			"-0.01": 0.0,
			"-0.009": 0.14999297125,
			"-0.008": 2.58520636806,
			"-0.007": 6.11647963456,
			"-0.006": 10.460755035,
			"-0.005": 14.4669918759,
			"-0.004": 14.0202535481,
			"-0.003": 14.5680105777,
			"-0.002": 15.4289227513,
			"-0.001": 17.1304928372,
			"0.0": 15.2222803652,
			"0.001": 14.6181619889,
			"0.002": 18.8181066661,
			"0.003": 11.9488674833,
			"0.004": 9.63815180729,
			"0.005": 5.15392468656,
			"0.006": 1.67736678277,
			"0.007": 2.10900404045,
			"0.008": 2.70480445974,
			"0.009": 2.18482094901,
			"0.01": 2.78041616065,
			"0.011": 4.37565404601,
			"0.012": 3.86757763827,
			"0.013": 0.499345228613,
			"0.014": 0.0,
			"0.015": 0.0,
			"0.016": 0.0,
			"0.017": 0.0,
			"0.018": 0.0,
			"0.019": 0.0,
			"0.02": 0.0,
			"0.021": 0.0,
			"0.022": 0.0,
			"0.023": 0.0,
			"0.024": 0.0,
			"0.025": 0.0
		}
	}
}
