{
	 "smiles": "COC1=C(OC)C(=O)C1=O", 
	 "Tm": 329.15, 
	 "num_atms": 16, 
	 "gaussian": { 
		 "optdone": 1, 
		 "sigma_profile": "yes", 
		 "theory": "DFT", 
		 "functional": "B3LYP", 
		 "basiset": "6-31G**", 
		 "properties": { 
			 "R2extent": 2420.4095, 
			 "electric_dipole_moment_norm": 6.66871514686, 
			 "electric_quadrupole_moment_norm": 19.8354644138, 
			 "total_energy": -533.061841065, 
			 "HOMO_LUMO_gap": 0.18399, 
			 "cosmo_polarized_energy": -14.83, 
			 "cosmo_cavitation_energy": 21.9, 
			 "cosmo_dispersion_energy": -15.56, 
			 "cosmo_repulsion_energy": 1.3, 
			 "cosmo_total_nonelectrostatic_energy": 7.63, 
			 "SMD_solvation_energy": 7.38 
		},
		"coords": [
			{
				"x": -0.219794902,
				"y": 1.2769151348,
				"z": 0.9205343207,
				"element": "C" 
			},
			{
				"x": 0.5125008989,
				"y": 1.9417482976,
				"z": -0.1279509728,
				"element": "O" 
			},
			{
				"x": 0.80039834,
				"y": 1.2316095677,
				"z": -1.2022743027,
				"element": "C" 
			},
			{
				"x": 0.5920313244,
				"y": -0.0614087885,
				"z": -1.6560343336,
				"element": "C" 
			},
			{
				"x": -0.0214251105,
				"y": -1.1050333344,
				"z": -1.1089419466,
				"element": "O" 
			},
			{
				"x": -0.0357445574,
				"y": -2.3131789252,
				"z": -1.9038724911,
				"element": "C" 
			},
			{
				"x": 1.3031564164,
				"y": 0.1862013368,
				"z": -2.9457601078,
				"element": "C" 
			},
			{
				"x": 1.5624125499,
				"y": -0.4732696282,
				"z": -3.9263324073,
				"element": "O" 
			},
			{
				"x": 1.53825469,
				"y": 1.6377488101,
				"z": -2.4379623432,
				"element": "C" 
			},
			{
				"x": 2.0677456508,
				"y": 2.6438313825,
				"z": -2.8380054531,
				"element": "O" 
			},
			{
				"x": 0.3484424966,
				"y": 0.4248807169,
				"z": 1.3035286967,
				"element": "H" 
			},
			{
				"x": -0.3545274108,
				"y": 2.020709521,
				"z": 1.7050574483,
				"element": "H" 
			},
			{
				"x": -1.19204592,
				"y": 0.9377173358,
				"z": 0.5528069207,
				"element": "H" 
			},
			{
				"x": -0.5537510637,
				"y": -2.1429800412,
				"z": -2.8502877604,
				"element": "H" 
			},
			{
				"x": -0.5714725018,
				"y": -3.0490374754,
				"z": -1.305099445,
				"element": "H" 
			},
			{
				"x": 0.9830190994,
				"y": -2.6532539104,
				"z": -2.1025058227,
				"element": "H" 
			}
		],
		 "valence_orbital": [ 
			{
				"type": "occ",
				"energy": -0.37062,
				"method": "rhf"
			},
			{
				"type": "occ",
				"energy": -0.35642,
				"method": "rhf"
			},
			{
				"type": "occ",
				"energy": -0.30455,
				"method": "rhf"
			},
			{
				"type": "occ",
				"energy": -0.24469,
				"method": "rhf"
			},
			{
				"type": "occ",
				"energy": -0.2284,
				"method": "rhf"
			},
			{
				"type": "unocc",
				"energy": -0.04441,
				"method": "rhf"
			},
			{
				"type": "unocc",
				"energy": -0.03883,
				"method": "rhf"
			},
			{
				"type": "unocc",
				"energy": 0.05395,
				"method": "rhf"
			},
			{
				"type": "unocc",
				"energy": 0.09572,
				"method": "rhf"
			},
			{
				"type": "unocc",
				"energy": 0.0995,
				"method": "rhf"
			}
		],
		"cosmo_sigma_profile": { 
			"-0.025": 0.0,
			"-0.024": 0.0,
			"-0.023": 0.0,
			"-0.022": 0.0,
			"-0.021": 0.0,
			"-0.02": 0.0,
			"-0.019": 0.0,
			"-0.018": 0.0,
			"-0.017": 0.0,
			"-0.016": 0.0,
			"-0.015": 0.0,
			"-0.014": 0.0,
			"-0.013": 0.0,
			"-0.012": 0.0,
			"-0.011": 0.0,
			"-0.01": 0.0,
			"-0.009": 0.0,
			"-0.008": 1.32124313797,
			"-0.007": 14.1862555639,
			"-0.006": 18.4104016726,
			"-0.005": 21.0123170723,
			"-0.004": 20.9661577158,
			"-0.003": 10.0997726604,
			"-0.002": 7.92045081476,
			"-0.001": 7.40220734641,
			"0.0": 4.84349621352,
			"0.001": 6.25006649954,
			"0.002": 5.25481018682,
			"0.003": 5.54366846966,
			"0.004": 5.43706694844,
			"0.005": 6.49059100232,
			"0.006": 4.67912417458,
			"0.007": 4.56539457254,
			"0.008": 4.52192775799,
			"0.009": 4.59374311474,
			"0.01": 6.27850847605,
			"0.011": 10.605963331,
			"0.012": 4.64537378383,
			"0.013": 0.182954044778,
			"0.014": 0.0,
			"0.015": 0.0,
			"0.016": 0.0,
			"0.017": 0.0,
			"0.018": 0.0,
			"0.019": 0.0,
			"0.02": 0.0,
			"0.021": 0.0,
			"0.022": 0.0,
			"0.023": 0.0,
			"0.024": 0.0,
			"0.025": 0.0
		}
	}
}
