{
	 "smiles": "NC1=C(C(=NO1)C1=CC=CC=C1)C1=CC=CC=C1", 
	 "Tm": 418.15, 
	 "num_atms": 30, 
	 "gaussian": { 
		 "optdone": 1, 
		 "sigma_profile": "yes", 
		 "theory": "DFT", 
		 "functional": "B3LYP", 
		 "basiset": "6-31G**", 
		 "properties": { 
			 "R2extent": 5453.5205, 
			 "electric_dipole_moment_norm": 3.49036832584, 
			 "electric_quadrupole_moment_norm": 18.0682336765, 
			 "total_energy": -763.517209722, 
			 "HOMO_LUMO_gap": 0.18225, 
			 "cosmo_polarized_energy": -13.76, 
			 "cosmo_cavitation_energy": 34.11, 
			 "cosmo_dispersion_energy": -24.34, 
			 "cosmo_repulsion_energy": 1.88, 
			 "cosmo_total_nonelectrostatic_energy": 11.66, 
			 "SMD_solvation_energy": 5.59 
		},
		"coords": [
			{
				"x": -2.6836717057,
				"y": -4.0982176014,
				"z": 0.5285939019,
				"element": "N" 
			},
			{
				"x": -1.5121209362,
				"y": -3.4311258522,
				"z": 0.7847352047,
				"element": "C" 
			},
			{
				"x": -1.1550081029,
				"y": -2.1027406333,
				"z": 0.6800075563,
				"element": "C" 
			},
			{
				"x": 0.2265703002,
				"y": -2.1223374935,
				"z": 1.0801373165,
				"element": "C" 
			},
			{
				"x": 0.6453799747,
				"y": -3.3354447879,
				"z": 1.3854424292,
				"element": "N" 
			},
			{
				"x": -0.4795658638,
				"y": -4.1756737703,
				"z": 1.2014983232,
				"element": "O" 
			},
			{
				"x": 1.1986764976,
				"y": -1.0105270005,
				"z": 1.1599458455,
				"element": "C" 
			},
			{
				"x": 2.1875913526,
				"y": -1.020555099,
				"z": 2.1570175852,
				"element": "C" 
			},
			{
				"x": 3.1335715084,
				"y": 0.0004985502,
				"z": 2.2224428242,
				"element": "C" 
			},
			{
				"x": 3.1056840759,
				"y": 1.0451196653,
				"z": 1.2955357934,
				"element": "C" 
			},
			{
				"x": 2.1284548146,
				"y": 1.0596344775,
				"z": 0.2984573527,
				"element": "C" 
			},
			{
				"x": 1.1806532541,
				"y": 0.0390940612,
				"z": 0.2284226151,
				"element": "C" 
			},
			{
				"x": -2.0567879481,
				"y": -0.9893908031,
				"z": 0.3380761746,
				"element": "C" 
			},
			{
				"x": -2.0599448892,
				"y": 0.207014633,
				"z": 1.0796237147,
				"element": "C" 
			},
			{
				"x": -2.9462023363,
				"y": 1.2362475651,
				"z": 0.7694750938,
				"element": "C" 
			},
			{
				"x": -3.8599421474,
				"y": 1.0930307101,
				"z": -0.2782812617,
				"element": "C" 
			},
			{
				"x": -3.8718696676,
				"y": -0.088286535,
				"z": -1.0203528962,
				"element": "C" 
			},
			{
				"x": -2.976047504,
				"y": -1.1159694624,
				"z": -0.7206023756,
				"element": "C" 
			},
			{
				"x": -2.7905535419,
				"y": -4.9694182265,
				"z": 1.0317038667,
				"element": "H" 
			},
			{
				"x": -3.5081524484,
				"y": -3.5123444167,
				"z": 0.5419753004,
				"element": "H" 
			},
			{
				"x": 2.2032683215,
				"y": -1.835779515,
				"z": 2.8725209627,
				"element": "H" 
			},
			{
				"x": 3.8919900122,
				"y": -0.0179084872,
				"z": 2.999913222,
				"element": "H" 
			},
			{
				"x": 3.8417497671,
				"y": 1.842217227,
				"z": 1.349334375,
				"element": "H" 
			},
			{
				"x": 2.1057084682,
				"y": 1.8642291469,
				"z": -0.4309430552,
				"element": "H" 
			},
			{
				"x": 0.4316345757,
				"y": 0.0494758443,
				"z": -0.5559977441,
				"element": "H" 
			},
			{
				"x": -1.3655573899,
				"y": 0.3217735705,
				"z": 1.905617299,
				"element": "H" 
			},
			{
				"x": -2.9303978842,
				"y": 2.1509499199,
				"z": 1.35552625,
				"element": "H" 
			},
			{
				"x": -4.5530887567,
				"y": 1.8952823454,
				"z": -0.5137931099,
				"element": "H" 
			},
			{
				"x": -4.5702502468,
				"y": -0.2082356148,
				"z": -1.8440275701,
				"element": "H" 
			},
			{
				"x": -2.9685715536,
				"y": -2.0176124176,
				"z": -1.3272049943,
				"element": "H" 
			}
		],
		 "valence_orbital": [ 
			{
				"type": "occ",
				"energy": -0.2635,
				"method": "rhf"
			},
			{
				"type": "occ",
				"energy": -0.25604,
				"method": "rhf"
			},
			{
				"type": "occ",
				"energy": -0.24797,
				"method": "rhf"
			},
			{
				"type": "occ",
				"energy": -0.23311,
				"method": "rhf"
			},
			{
				"type": "occ",
				"energy": -0.20723,
				"method": "rhf"
			},
			{
				"type": "unocc",
				"energy": -0.02498,
				"method": "rhf"
			},
			{
				"type": "unocc",
				"energy": -0.01295,
				"method": "rhf"
			},
			{
				"type": "unocc",
				"energy": -0.00972,
				"method": "rhf"
			},
			{
				"type": "unocc",
				"energy": 0.0036,
				"method": "rhf"
			},
			{
				"type": "unocc",
				"energy": 0.03154,
				"method": "rhf"
			}
		],
		"cosmo_sigma_profile": { 
			"-0.025": 0.0,
			"-0.024": 0.0,
			"-0.023": 0.0,
			"-0.022": 0.0,
			"-0.021": 0.0,
			"-0.02": 0.0,
			"-0.019": 0.0,
			"-0.018": 0.0,
			"-0.017": 0.0,
			"-0.016": 0.0,
			"-0.015": 0.437250156284,
			"-0.014": 1.67871410543,
			"-0.013": 1.72618498821,
			"-0.012": 2.78937720431,
			"-0.011": 2.269990771,
			"-0.01": 2.08445817002,
			"-0.009": 1.88678167281,
			"-0.008": 1.96458276115,
			"-0.007": 2.59410955178,
			"-0.006": 10.5918698893,
			"-0.005": 21.5844772253,
			"-0.004": 23.1199073173,
			"-0.003": 20.401801994,
			"-0.002": 16.9491136078,
			"-0.001": 15.8391436125,
			"0.0": 16.3433695208,
			"0.001": 18.9641105794,
			"0.002": 22.430875756,
			"0.003": 20.2662336253,
			"0.004": 21.3190859831,
			"0.005": 20.3548601086,
			"0.006": 6.94919958061,
			"0.007": 3.76777333947,
			"0.008": 5.11082082236,
			"0.009": 3.67615105702,
			"0.01": 2.16100109544,
			"0.011": 2.16259087126,
			"0.012": 1.37402049397,
			"0.013": 1.18149886521,
			"0.014": 1.08224898893,
			"0.015": 0.534020025451,
			"0.016": 0.0,
			"0.017": 0.0,
			"0.018": 0.0,
			"0.019": 0.0,
			"0.02": 0.0,
			"0.021": 0.0,
			"0.022": 0.0,
			"0.023": 0.0,
			"0.024": 0.0,
			"0.025": 0.0
		}
	}
}
