{
	 "smiles": "OC(=O)CCC1NC(=O)NC1=O", 
	 "Tm": 443.15, 
	 "num_atms": 20, 
	 "gaussian": { 
		 "optdone": 1, 
		 "sigma_profile": "yes", 
		 "theory": "DFT", 
		 "functional": "B3LYP", 
		 "basiset": "6-31G**", 
		 "properties": { 
			 "R2extent": 2608.2724, 
			 "electric_dipole_moment_norm": 1.9941579802, 
			 "electric_quadrupole_moment_norm": 24.4998932598, 
			 "total_energy": -643.907108673, 
			 "HOMO_LUMO_gap": 0.25137, 
			 "cosmo_polarized_energy": -26.71, 
			 "cosmo_cavitation_energy": 25.1, 
			 "cosmo_dispersion_energy": -18.08, 
			 "cosmo_repulsion_energy": 1.5, 
			 "cosmo_total_nonelectrostatic_energy": 8.51, 
			 "SMD_solvation_energy": 6.58 
		},
		"coords": [
			{
				"x": -1.3263457484,
				"y": 2.8340977955,
				"z": 2.835436474,
				"element": "O" 
			},
			{
				"x": -1.7092653256,
				"y": 2.5210385017,
				"z": 1.5696591436,
				"element": "C" 
			},
			{
				"x": -2.6200962773,
				"y": 3.1145077559,
				"z": 1.0488657189,
				"element": "O" 
			},
			{
				"x": -0.9327426953,
				"y": 1.3845703629,
				"z": 0.9149093806,
				"element": "C" 
			},
			{
				"x": -1.2662248748,
				"y": 1.2422729719,
				"z": -0.5706771175,
				"element": "C" 
			},
			{
				"x": -0.7173608463,
				"y": -0.0385671632,
				"z": -1.2117411919,
				"element": "C" 
			},
			{
				"x": -1.1662034567,
				"y": -1.2824956332,
				"z": -0.5939241384,
				"element": "N" 
			},
			{
				"x": -0.1343560728,
				"y": -2.1618110743,
				"z": -0.3452615468,
				"element": "C" 
			},
			{
				"x": -0.1958743795,
				"y": -3.3093958398,
				"z": 0.0384210474,
				"element": "O" 
			},
			{
				"x": 1.0471734764,
				"y": -1.4372288136,
				"z": -0.6149188084,
				"element": "N" 
			},
			{
				"x": 0.8133604565,
				"y": -0.1645801266,
				"z": -1.0923623598,
				"element": "C" 
			},
			{
				"x": 1.6354460092,
				"y": 0.6872957584,
				"z": -1.3552347554,
				"element": "O" 
			},
			{
				"x": -0.5805874526,
				"y": 2.2812074723,
				"z": 3.1091309532,
				"element": "H" 
			},
			{
				"x": -1.1788053632,
				"y": 0.4573418859,
				"z": 1.4507835137,
				"element": "H" 
			},
			{
				"x": 0.1428741678,
				"y": 1.5542873734,
				"z": 1.0540258787,
				"element": "H" 
			},
			{
				"x": -0.8560765661,
				"y": 2.0912734998,
				"z": -1.1257764749,
				"element": "H" 
			},
			{
				"x": -2.3518188673,
				"y": 1.2801860993,
				"z": -0.7006487408,
				"element": "H" 
			},
			{
				"x": -0.9576912567,
				"y": -0.0206388918,
				"z": -2.2850098592,
				"element": "H" 
			},
			{
				"x": -2.0958068005,
				"y": -1.6561798845,
				"z": -0.7158273504,
				"element": "H" 
			},
			{
				"x": 1.9649018732,
				"y": -1.82158205,
				"z": -0.4405497666,
				"element": "H" 
			}
		],
		 "valence_orbital": [ 
			{
				"type": "occ",
				"energy": -0.30269,
				"method": "rhf"
			},
			{
				"type": "occ",
				"energy": -0.30174,
				"method": "rhf"
			},
			{
				"type": "occ",
				"energy": -0.28299,
				"method": "rhf"
			},
			{
				"type": "occ",
				"energy": -0.28031,
				"method": "rhf"
			},
			{
				"type": "occ",
				"energy": -0.27439,
				"method": "rhf"
			},
			{
				"type": "unocc",
				"energy": -0.02302,
				"method": "rhf"
			},
			{
				"type": "unocc",
				"energy": 0.00346,
				"method": "rhf"
			},
			{
				"type": "unocc",
				"energy": 0.04303,
				"method": "rhf"
			},
			{
				"type": "unocc",
				"energy": 0.04894,
				"method": "rhf"
			},
			{
				"type": "unocc",
				"energy": 0.06432,
				"method": "rhf"
			}
		],
		"cosmo_sigma_profile": { 
			"-0.025": 0.0,
			"-0.024": 0.0,
			"-0.023": 0.0,
			"-0.022": 0.0,
			"-0.021": 0.0,
			"-0.02": 0.0,
			"-0.019": 0.68238870552,
			"-0.018": 1.2614987115,
			"-0.017": 1.21931201911,
			"-0.016": 3.06204407775,
			"-0.015": 3.107990248,
			"-0.014": 3.66263908099,
			"-0.013": 3.17356475393,
			"-0.012": 3.22430268691,
			"-0.011": 2.89545674404,
			"-0.01": 3.07715253669,
			"-0.009": 2.57361019682,
			"-0.008": 8.01060828181,
			"-0.007": 9.43087680178,
			"-0.006": 8.62218090005,
			"-0.005": 12.0079053511,
			"-0.004": 11.9933721384,
			"-0.003": 9.72459723718,
			"-0.002": 10.2795304416,
			"-0.001": 7.90092260828,
			"0.0": 5.81698600494,
			"0.001": 4.51376917085,
			"0.002": 5.25565897133,
			"0.003": 4.47863712988,
			"0.004": 3.99444609968,
			"0.005": 5.05817997473,
			"0.006": 4.89222232918,
			"0.007": 4.07769586014,
			"0.008": 5.16942750217,
			"0.009": 5.9620366276,
			"0.01": 7.77962525175,
			"0.011": 11.4569140108,
			"0.012": 15.163106298,
			"0.013": 7.81169702812,
			"0.014": 0.375795341348,
			"0.015": 0.0,
			"0.016": 0.0,
			"0.017": 0.0,
			"0.018": 0.0,
			"0.019": 0.0,
			"0.02": 0.0,
			"0.021": 0.0,
			"0.022": 0.0,
			"0.023": 0.0,
			"0.024": 0.0,
			"0.025": 0.0
		}
	}
}
