{
	 "smiles": "OC(=O)C1=CC2=C(N=C1)N(N=C2)C1CCCC1", 
	 "Tm": 415.15, 
	 "num_atms": 30, 
	 "gaussian": { 
		 "optdone": 1, 
		 "sigma_profile": "yes", 
		 "theory": "DFT", 
		 "functional": "B3LYP", 
		 "basiset": "6-31G**", 
		 "properties": { 
			 "R2extent": 6129.1103, 
			 "electric_dipole_moment_norm": 4.14443912973, 
			 "electric_quadrupole_moment_norm": 25.908669138, 
			 "total_energy": -779.814095425, 
			 "HOMO_LUMO_gap": 0.17795, 
			 "cosmo_polarized_energy": -15.66, 
			 "cosmo_cavitation_energy": 32.94, 
			 "cosmo_dispersion_energy": -24.08, 
			 "cosmo_repulsion_energy": 1.86, 
			 "cosmo_total_nonelectrostatic_energy": 10.72, 
			 "SMD_solvation_energy": 4.3 
		},
		"coords": [
			{
				"x": 4.0992401101,
				"y": -1.4900381449,
				"z": 4.0878171312,
				"element": "O" 
			},
			{
				"x": 4.5774798591,
				"y": -1.4300439608,
				"z": 2.8153390774,
				"element": "C" 
			},
			{
				"x": 5.7497912386,
				"y": -1.6360320032,
				"z": 2.6036968594,
				"element": "O" 
			},
			{
				"x": 3.5974086945,
				"y": -1.1072213866,
				"z": 1.7326181086,
				"element": "C" 
			},
			{
				"x": 3.9671347661,
				"y": -1.3914490598,
				"z": 0.4161818393,
				"element": "C" 
			},
			{
				"x": 3.0512930313,
				"y": -1.0854230174,
				"z": -0.5900853797,
				"element": "C" 
			},
			{
				"x": 1.818541909,
				"y": -0.4886008741,
				"z": -0.200190654,
				"element": "C" 
			},
			{
				"x": 1.4477517795,
				"y": -0.1770379673,
				"z": 1.0509903179,
				"element": "N" 
			},
			{
				"x": 2.3424699663,
				"y": -0.492945571,
				"z": 1.9814892736,
				"element": "C" 
			},
			{
				"x": 1.1014016901,
				"y": -0.2828142916,
				"z": -1.3414740566,
				"element": "N" 
			},
			{
				"x": 1.7963413795,
				"y": -0.7102457795,
				"z": -2.4363802328,
				"element": "N" 
			},
			{
				"x": 2.9514961023,
				"y": -1.1871395519,
				"z": -2.0090977492,
				"element": "C" 
			},
			{
				"x": -0.2333922132,
				"y": 0.2964536547,
				"z": -1.5066676042,
				"element": "C" 
			},
			{
				"x": -0.3764682428,
				"y": 1.7464568737,
				"z": -0.9396414252,
				"element": "C" 
			},
			{
				"x": -1.5598875956,
				"y": 1.6945421058,
				"z": 0.0499113101,
				"element": "C" 
			},
			{
				"x": -2.4108390645,
				"y": 0.5106429783,
				"z": -0.4429405162,
				"element": "C" 
			},
			{
				"x": -1.354353151,
				"y": -0.5349576338,
				"z": -0.8304091083,
				"element": "C" 
			},
			{
				"x": 3.1324595058,
				"y": -1.4756926809,
				"z": 4.0909526483,
				"element": "H" 
			},
			{
				"x": 4.9382839292,
				"y": -1.8350303233,
				"z": 0.2218388253,
				"element": "H" 
			},
			{
				"x": 2.0654723354,
				"y": -0.2095945107,
				"z": 2.9970805841,
				"element": "H" 
			},
			{
				"x": 3.6681840255,
				"y": -1.5821367973,
				"z": -2.7163560189,
				"element": "H" 
			},
			{
				"x": -0.3698753864,
				"y": 0.301717867,
				"z": -2.5892420497,
				"element": "H" 
			},
			{
				"x": 0.5477524118,
				"y": 2.0849188623,
				"z": -0.4667156921,
				"element": "H" 
			},
			{
				"x": -0.5881460198,
				"y": 2.4335799122,
				"z": -1.7652979324,
				"element": "H" 
			},
			{
				"x": -2.1147529947,
				"y": 2.6365035814,
				"z": 0.094450861,
				"element": "H" 
			},
			{
				"x": -1.1851964974,
				"y": 1.4787141438,
				"z": 1.0563190344,
				"element": "H" 
			},
			{
				"x": -2.9974297943,
				"y": 0.8046681981,
				"z": -1.3232988142,
				"element": "H" 
			},
			{
				"x": -3.1148084542,
				"y": 0.1411610721,
				"z": 0.3090286649,
				"element": "H" 
			},
			{
				"x": -0.9576638551,
				"y": -1.0048842687,
				"z": 0.074889017,
				"element": "H" 
			},
			{
				"x": -1.728789465,
				"y": -1.3271714267,
				"z": -1.4852063191,
				"element": "H" 
			}
		],
		 "valence_orbital": [ 
			{
				"type": "occ",
				"energy": -0.30902,
				"method": "rhf"
			},
			{
				"type": "occ",
				"energy": -0.28999,
				"method": "rhf"
			},
			{
				"type": "occ",
				"energy": -0.2744,
				"method": "rhf"
			},
			{
				"type": "occ",
				"energy": -0.26796,
				"method": "rhf"
			},
			{
				"type": "occ",
				"energy": -0.24461,
				"method": "rhf"
			},
			{
				"type": "unocc",
				"energy": -0.06666,
				"method": "rhf"
			},
			{
				"type": "unocc",
				"energy": -0.04315,
				"method": "rhf"
			},
			{
				"type": "unocc",
				"energy": 0.02816,
				"method": "rhf"
			},
			{
				"type": "unocc",
				"energy": 0.05588,
				"method": "rhf"
			},
			{
				"type": "unocc",
				"energy": 0.06085,
				"method": "rhf"
			}
		],
		"cosmo_sigma_profile": { 
			"-0.025": 0.0,
			"-0.024": 0.0,
			"-0.023": 0.0,
			"-0.022": 0.0,
			"-0.021": 0.0,
			"-0.02": 0.113708120139,
			"-0.019": 0.752168564051,
			"-0.018": 0.710242773358,
			"-0.017": 1.50487520362,
			"-0.016": 0.746776781427,
			"-0.015": 0.972873554383,
			"-0.014": 1.08371776295,
			"-0.013": 0.704295568422,
			"-0.012": 0.816245394819,
			"-0.011": 2.13950546594,
			"-0.01": 1.00824483179,
			"-0.009": 1.84036796356,
			"-0.008": 4.199376727,
			"-0.007": 5.065381436,
			"-0.006": 6.94097213066,
			"-0.005": 7.55922871821,
			"-0.004": 11.9235567949,
			"-0.003": 21.8485589065,
			"-0.002": 26.8206185498,
			"-0.001": 35.6048806066,
			"0.0": 33.2771200267,
			"0.001": 23.9542840227,
			"0.002": 9.93009749759,
			"0.003": 6.96912841466,
			"0.004": 6.79309084932,
			"0.005": 5.13516314255,
			"0.006": 5.14769191568,
			"0.007": 6.79631417214,
			"0.008": 5.88733534272,
			"0.009": 4.94889577137,
			"0.01": 5.32406807905,
			"0.011": 6.88764225153,
			"0.012": 4.98791721685,
			"0.013": 2.36056136209,
			"0.014": 0.693888465003,
			"0.015": 0.0,
			"0.016": 0.0,
			"0.017": 0.0,
			"0.018": 0.0,
			"0.019": 0.0,
			"0.02": 0.0,
			"0.021": 0.0,
			"0.022": 0.0,
			"0.023": 0.0,
			"0.024": 0.0,
			"0.025": 0.0
		}
	}
}
