{
	 "smiles": "COC1=CC=C(Cl)C=C1S(Cl)(=O)=O", 
	 "Tm": 375.15, 
	 "num_atms": 19, 
	 "gaussian": { 
		 "optdone": 1, 
		 "sigma_profile": "yes", 
		 "theory": "DFT", 
		 "functional": "B3LYP", 
		 "basiset": "6-31G**", 
		 "properties": { 
			 "R2extent": 4045.3827, 
			 "electric_dipole_moment_norm": 6.25629598245, 
			 "electric_quadrupole_moment_norm": 10.2647142615, 
			 "total_energy": -1814.51648601, 
			 "HOMO_LUMO_gap": 0.16523, 
			 "cosmo_polarized_energy": -12.12, 
			 "cosmo_cavitation_energy": 28.62, 
			 "cosmo_dispersion_energy": -21.31, 
			 "cosmo_repulsion_energy": 1.66, 
			 "cosmo_total_nonelectrostatic_energy": 8.96, 
			 "SMD_solvation_energy": 4.22 
		},
		"coords": [
			{
				"x": -2.8137525346,
				"y": -0.6768710797,
				"z": -1.4798016228,
				"element": "C" 
			},
			{
				"x": -1.4526183161,
				"y": -0.84469356,
				"z": -1.0918932486,
				"element": "O" 
			},
			{
				"x": -0.6491293237,
				"y": 0.2324634703,
				"z": -1.0316017132,
				"element": "C" 
			},
			{
				"x": -1.0390520567,
				"y": 1.5427527824,
				"z": -1.3426061233,
				"element": "C" 
			},
			{
				"x": -0.1251925167,
				"y": 2.5925202572,
				"z": -1.2685504054,
				"element": "C" 
			},
			{
				"x": 1.1944164487,
				"y": 2.3528383934,
				"z": -0.8876694215,
				"element": "C" 
			},
			{
				"x": 2.3344698468,
				"y": 3.6799709535,
				"z": -0.8013767414,
				"element": "Cl" 
			},
			{
				"x": 1.613292189,
				"y": 1.0627828527,
				"z": -0.5740331444,
				"element": "C" 
			},
			{
				"x": 0.6907901568,
				"y": 0.0194229877,
				"z": -0.641249685,
				"element": "C" 
			},
			{
				"x": 1.2742820357,
				"y": -1.6021247105,
				"z": -0.1572613375,
				"element": "S" 
			},
			{
				"x": 1.2014114415,
				"y": -2.6545473471,
				"z": -2.006913907,
				"element": "Cl" 
			},
			{
				"x": 0.3257500875,
				"y": -2.2514792495,
				"z": 0.7349787262,
				"element": "O" 
			},
			{
				"x": 2.687853126,
				"y": -1.4894769215,
				"z": 0.1837024787,
				"element": "O" 
			},
			{
				"x": -3.3463487706,
				"y": -0.0205408241,
				"z": -0.7821645765,
				"element": "H" 
			},
			{
				"x": -3.2506706264,
				"y": -1.6743574626,
				"z": -1.4464315745,
				"element": "H" 
			},
			{
				"x": -2.8904196071,
				"y": -0.2769248899,
				"z": -2.4974449805,
				"element": "H" 
			},
			{
				"x": -2.057352163,
				"y": 1.7507679035,
				"z": -1.64634704,
				"element": "H" 
			},
			{
				"x": -0.4414053454,
				"y": 3.6010089856,
				"z": -1.5115494722,
				"element": "H" 
			},
			{
				"x": 2.6344759283,
				"y": 0.8578874586,
				"z": -0.2772862111,
				"element": "H" 
			}
		],
		 "valence_orbital": [ 
			{
				"type": "occ",
				"energy": -0.32897,
				"method": "rhf"
			},
			{
				"type": "occ",
				"energy": -0.32548,
				"method": "rhf"
			},
			{
				"type": "occ",
				"energy": -0.30949,
				"method": "rhf"
			},
			{
				"type": "occ",
				"energy": -0.29758,
				"method": "rhf"
			},
			{
				"type": "occ",
				"energy": -0.25221,
				"method": "rhf"
			},
			{
				"type": "unocc",
				"energy": -0.08698,
				"method": "rhf"
			},
			{
				"type": "unocc",
				"energy": -0.05185,
				"method": "rhf"
			},
			{
				"type": "unocc",
				"energy": -0.03184,
				"method": "rhf"
			},
			{
				"type": "unocc",
				"energy": 0.01135,
				"method": "rhf"
			},
			{
				"type": "unocc",
				"energy": 0.04738,
				"method": "rhf"
			}
		],
		"cosmo_sigma_profile": { 
			"-0.025": 0.0,
			"-0.024": 0.0,
			"-0.023": 0.0,
			"-0.022": 0.0,
			"-0.021": 0.0,
			"-0.02": 0.0,
			"-0.019": 0.0,
			"-0.018": 0.0,
			"-0.017": 0.0,
			"-0.016": 0.0,
			"-0.015": 0.0,
			"-0.014": 0.0,
			"-0.013": 0.0,
			"-0.012": 0.0,
			"-0.011": 0.0,
			"-0.01": 0.0,
			"-0.009": 3.10828781929,
			"-0.008": 6.73626034126,
			"-0.007": 11.3752315686,
			"-0.006": 13.4709156341,
			"-0.005": 12.5783838429,
			"-0.004": 13.4264680785,
			"-0.003": 11.4981696217,
			"-0.002": 14.845649702,
			"-0.001": 19.9157920142,
			"0.0": 21.3390538755,
			"0.001": 17.330811318,
			"0.002": 13.5350703643,
			"0.003": 20.8287189223,
			"0.004": 18.7935902524,
			"0.005": 6.45777678378,
			"0.006": 5.10234383903,
			"0.007": 5.38660532669,
			"0.008": 11.0957042938,
			"0.009": 6.72855722977,
			"0.01": 1.02778667816,
			"0.011": 0.0305870608015,
			"0.012": 0.0,
			"0.013": 0.0,
			"0.014": 0.0,
			"0.015": 0.0,
			"0.016": 0.0,
			"0.017": 0.0,
			"0.018": 0.0,
			"0.019": 0.0,
			"0.02": 0.0,
			"0.021": 0.0,
			"0.022": 0.0,
			"0.023": 0.0,
			"0.024": 0.0,
			"0.025": 0.0
		}
	}
}
