{
	 "smiles": "OC1=NC=C(C=C1)C(F)(F)F", 
	 "Tm": 419.15, 
	 "num_atms": 15, 
	 "gaussian": { 
		 "optdone": 1, 
		 "sigma_profile": "yes", 
		 "theory": "DFT", 
		 "functional": "B3LYP", 
		 "basiset": "6-31G**", 
		 "properties": { 
			 "R2extent": 2050.0113, 
			 "electric_dipole_moment_norm": 3.68913105487, 
			 "electric_quadrupole_moment_norm": 11.3108092995, 
			 "total_energy": -660.544501397, 
			 "HOMO_LUMO_gap": 0.21607, 
			 "cosmo_polarized_energy": -12.29, 
			 "cosmo_cavitation_energy": 21.2, 
			 "cosmo_dispersion_energy": -15.38, 
			 "cosmo_repulsion_energy": 1.18, 
			 "cosmo_total_nonelectrostatic_energy": 6.99, 
			 "SMD_solvation_energy": 3.84 
		},
		"coords": [
			{
				"x": 1.4030924838,
				"y": -0.7180519976,
				"z": -3.8220787636,
				"element": "O" 
			},
			{
				"x": 0.751936385,
				"y": -0.5794494152,
				"z": -2.6437178904,
				"element": "C" 
			},
			{
				"x": 0.1740482564,
				"y": -1.6926643978,
				"z": -2.2009132163,
				"element": "N" 
			},
			{
				"x": -0.489177276,
				"y": -1.6292858092,
				"z": -1.0439007993,
				"element": "C" 
			},
			{
				"x": -0.6056929096,
				"y": -0.4669195306,
				"z": -0.2804961279,
				"element": "C" 
			},
			{
				"x": 0.0108158167,
				"y": 0.6957652011,
				"z": -0.7564840953,
				"element": "C" 
			},
			{
				"x": 0.7036294426,
				"y": 0.6477472378,
				"z": -1.9553353695,
				"element": "C" 
			},
			{
				"x": -1.4062280732,
				"y": -0.4439571711,
				"z": 0.9866808603,
				"element": "C" 
			},
			{
				"x": -1.5180140004,
				"y": -1.6728459425,
				"z": 1.5346359855,
				"element": "F" 
			},
			{
				"x": -0.8461520093,
				"y": 0.3698017215,
				"z": 1.9120303028,
				"element": "F" 
			},
			{
				"x": -2.6643102291,
				"y": 0.0133072391,
				"z": 0.7819108346,
				"element": "F" 
			},
			{
				"x": 1.7914932,
				"y": 0.1290674095,
				"z": -4.0775123447,
				"element": "H" 
			},
			{
				"x": -0.9456013627,
				"y": -2.5545818152,
				"z": -0.7018408039,
				"element": "H" 
			},
			{
				"x": -0.046133071,
				"y": 1.6186571154,
				"z": -0.1885791026,
				"element": "H" 
			},
			{
				"x": 1.1980933469,
				"y": 1.5312101547,
				"z": -2.3493994698,
				"element": "H" 
			}
		],
		 "valence_orbital": [ 
			{
				"type": "occ",
				"energy": -0.3814,
				"method": "rhf"
			},
			{
				"type": "occ",
				"energy": -0.36566,
				"method": "rhf"
			},
			{
				"type": "occ",
				"energy": -0.30492,
				"method": "rhf"
			},
			{
				"type": "occ",
				"energy": -0.27682,
				"method": "rhf"
			},
			{
				"type": "occ",
				"energy": -0.25667,
				"method": "rhf"
			},
			{
				"type": "unocc",
				"energy": -0.0406,
				"method": "rhf"
			},
			{
				"type": "unocc",
				"energy": -0.02571,
				"method": "rhf"
			},
			{
				"type": "unocc",
				"energy": 0.05302,
				"method": "rhf"
			},
			{
				"type": "unocc",
				"energy": 0.09375,
				"method": "rhf"
			},
			{
				"type": "unocc",
				"energy": 0.11643,
				"method": "rhf"
			}
		],
		"cosmo_sigma_profile": { 
			"-0.025": 0.0,
			"-0.024": 0.0,
			"-0.023": 0.0,
			"-0.022": 0.0,
			"-0.021": 0.0,
			"-0.02": 0.0268513323113,
			"-0.019": 0.956709324539,
			"-0.018": 1.37307388012,
			"-0.017": 1.03034503697,
			"-0.016": 1.31240689339,
			"-0.015": 0.704563912536,
			"-0.014": 0.50380708949,
			"-0.013": 0.824752132927,
			"-0.012": 1.5836437261,
			"-0.011": 1.36444740036,
			"-0.01": 1.13781776364,
			"-0.009": 1.68211964359,
			"-0.008": 3.98083483797,
			"-0.007": 6.33886079041,
			"-0.006": 4.7826310205,
			"-0.005": 6.03260532894,
			"-0.004": 5.48001763763,
			"-0.003": 5.24303667507,
			"-0.002": 7.49772240603,
			"-0.001": 12.0304102917,
			"0.0": 17.5655675455,
			"0.001": 14.3140772203,
			"0.002": 20.9396497906,
			"0.003": 27.9453677975,
			"0.004": 3.97560459469,
			"0.005": 1.85515194509,
			"0.006": 1.93445789267,
			"0.007": 1.86049795836,
			"0.008": 2.09771000228,
			"0.009": 2.51683641477,
			"0.01": 2.4571482904,
			"0.011": 2.97836767989,
			"0.012": 2.31011336916,
			"0.013": 1.39068252803,
			"0.014": 1.04216212178,
			"0.015": 1.01210979392,
			"0.016": 0.319182999751,
			"0.017": 0.0,
			"0.018": 0.0,
			"0.019": 0.0,
			"0.02": 0.0,
			"0.021": 0.0,
			"0.022": 0.0,
			"0.023": 0.0,
			"0.024": 0.0,
			"0.025": 0.0
		}
	}
}
