{
	 "smiles": "CCCC1=CC=C(C=C1)S(Cl)(=O)=O", 
	 "Tm": 294.15, 
	 "num_atms": 24, 
	 "gaussian": { 
		 "optdone": 1, 
		 "sigma_profile": "yes", 
		 "theory": "DFT", 
		 "functional": "B3LYP", 
		 "basiset": "6-31G**", 
		 "properties": { 
			 "R2extent": 6259.3003, 
			 "electric_dipole_moment_norm": 6.28129681356, 
			 "electric_quadrupole_moment_norm": 20.91861578, 
			 "total_energy": -1358.3614966, 
			 "HOMO_LUMO_gap": 0.19041, 
			 "cosmo_polarized_energy": -8.99, 
			 "cosmo_cavitation_energy": 30.84, 
			 "cosmo_dispersion_energy": -22.37, 
			 "cosmo_repulsion_energy": 1.75, 
			 "cosmo_total_nonelectrostatic_energy": 10.23, 
			 "SMD_solvation_energy": 3.74 
		},
		"coords": [
			{
				"x": 0.0274687264,
				"y": 2.8142516275,
				"z": -0.1605346332,
				"element": "C" 
			},
			{
				"x": -1.1980956714,
				"y": 1.9258845006,
				"z": 0.0708327387,
				"element": "C" 
			},
			{
				"x": -0.8938903794,
				"y": 0.6200749551,
				"z": 0.8411747629,
				"element": "C" 
			},
			{
				"x": 0.0027905716,
				"y": -0.3381420323,
				"z": 0.0881750418,
				"element": "C" 
			},
			{
				"x": 1.3603197193,
				"y": -0.4733046819,
				"z": 0.4149621745,
				"element": "C" 
			},
			{
				"x": 2.1923502317,
				"y": -1.3389344214,
				"z": -0.2922312634,
				"element": "C" 
			},
			{
				"x": 1.6437844897,
				"y": -2.079356311,
				"z": -1.3389228646,
				"element": "C" 
			},
			{
				"x": 0.2968010555,
				"y": -1.9767551658,
				"z": -1.6923199081,
				"element": "C" 
			},
			{
				"x": -0.5122082107,
				"y": -1.1048379079,
				"z": -0.9705216676,
				"element": "C" 
			},
			{
				"x": 2.6891777953,
				"y": -3.2082340813,
				"z": -2.2389425275,
				"element": "S" 
			},
			{
				"x": 3.4146745377,
				"y": -1.9529663387,
				"z": -3.8134288155,
				"element": "Cl" 
			},
			{
				"x": 3.853005933,
				"y": -3.5466230078,
				"z": -1.4288983432,
				"element": "O" 
			},
			{
				"x": 1.8671353186,
				"y": -4.2243266332,
				"z": -2.8847461535,
				"element": "O" 
			},
			{
				"x": -0.2486749085,
				"y": 3.7292109386,
				"z": -0.693750417,
				"element": "H" 
			},
			{
				"x": 0.4866861805,
				"y": 3.1101676006,
				"z": 0.789852201,
				"element": "H" 
			},
			{
				"x": 0.7911731362,
				"y": 2.3016683165,
				"z": -0.7540413317,
				"element": "H" 
			},
			{
				"x": -1.6594336342,
				"y": 1.6738674027,
				"z": -0.8924976947,
				"element": "H" 
			},
			{
				"x": -1.9541363268,
				"y": 2.4836652395,
				"z": 0.6367054827,
				"element": "H" 
			},
			{
				"x": -0.4339813023,
				"y": 0.8700952279,
				"z": 1.8045566743,
				"element": "H" 
			},
			{
				"x": -1.8420452289,
				"y": 0.1171797461,
				"z": 1.0669018316,
				"element": "H" 
			},
			{
				"x": 1.7712572052,
				"y": 0.102274023,
				"z": 1.2393639299,
				"element": "H" 
			},
			{
				"x": 3.2394162653,
				"y": -1.4499009018,
				"z": -0.0336885816,
				"element": "H" 
			},
			{
				"x": -0.1031578707,
				"y": -2.5774997807,
				"z": -2.5014310227,
				"element": "H" 
			},
			{
				"x": -1.5650176335,
				"y": -1.023658314,
				"z": -1.2270696131,
				"element": "H" 
			}
		],
		 "valence_orbital": [ 
			{
				"type": "occ",
				"energy": -0.33133,
				"method": "rhf"
			},
			{
				"type": "occ",
				"energy": -0.32626,
				"method": "rhf"
			},
			{
				"type": "occ",
				"energy": -0.30904,
				"method": "rhf"
			},
			{
				"type": "occ",
				"energy": -0.28433,
				"method": "rhf"
			},
			{
				"type": "occ",
				"energy": -0.27707,
				"method": "rhf"
			},
			{
				"type": "unocc",
				"energy": -0.08666,
				"method": "rhf"
			},
			{
				"type": "unocc",
				"energy": -0.03963,
				"method": "rhf"
			},
			{
				"type": "unocc",
				"energy": -0.03467,
				"method": "rhf"
			},
			{
				"type": "unocc",
				"energy": 0.05077,
				"method": "rhf"
			},
			{
				"type": "unocc",
				"energy": 0.07705,
				"method": "rhf"
			}
		],
		"cosmo_sigma_profile": { 
			"-0.025": 0.0,
			"-0.024": 0.0,
			"-0.023": 0.0,
			"-0.022": 0.0,
			"-0.021": 0.0,
			"-0.02": 0.0,
			"-0.019": 0.0,
			"-0.018": 0.0,
			"-0.017": 0.0,
			"-0.016": 0.0,
			"-0.015": 0.0,
			"-0.014": 0.0,
			"-0.013": 0.0,
			"-0.012": 0.0,
			"-0.011": 0.0,
			"-0.01": 0.0,
			"-0.009": 0.124632787618,
			"-0.008": 2.2068589852,
			"-0.007": 6.32268248701,
			"-0.006": 10.3115933365,
			"-0.005": 10.9533314175,
			"-0.004": 13.4979423767,
			"-0.003": 19.7699782917,
			"-0.002": 23.5833453807,
			"-0.001": 28.1710799772,
			"0.0": 30.2808747356,
			"0.001": 26.9578581274,
			"0.002": 20.3981638692,
			"0.003": 12.7687842153,
			"0.004": 14.0249331748,
			"0.005": 3.21288264053,
			"0.006": 3.30272992294,
			"0.007": 5.25837320235,
			"0.008": 10.0103682768,
			"0.009": 5.71328451455,
			"0.01": 0.171398167419,
			"0.011": 0.0,
			"0.012": 0.0,
			"0.013": 0.0,
			"0.014": 0.0,
			"0.015": 0.0,
			"0.016": 0.0,
			"0.017": 0.0,
			"0.018": 0.0,
			"0.019": 0.0,
			"0.02": 0.0,
			"0.021": 0.0,
			"0.022": 0.0,
			"0.023": 0.0,
			"0.024": 0.0,
			"0.025": 0.0
		}
	}
}
