{
	 "smiles": "ClCC(=O)N1C(CSC2=C1C=CC=C2)C1=CC=CC=C1", 
	 "Tm": 436.15, 
	 "num_atms": 34, 
	 "gaussian": { 
		 "optdone": 1, 
		 "sigma_profile": "yes", 
		 "theory": "DFT", 
		 "functional": "B3LYP", 
		 "basiset": "6-31G**", 
		 "properties": { 
			 "R2extent": 7088.6884, 
			 "electric_dipole_moment_norm": 3.3440982671, 
			 "electric_quadrupole_moment_norm": 16.3776748508, 
			 "total_energy": -1606.49411477, 
			 "HOMO_LUMO_gap": 0.19071, 
			 "cosmo_polarized_energy": -14.36, 
			 "cosmo_cavitation_energy": 39.53, 
			 "cosmo_dispersion_energy": -27.56, 
			 "cosmo_repulsion_energy": 2.06, 
			 "cosmo_total_nonelectrostatic_energy": 14.03, 
			 "SMD_solvation_energy": 5.79 
		},
		"coords": [
			{
				"x": -2.4744946263,
				"y": -1.2614552536,
				"z": -3.674913409,
				"element": "Cl" 
			},
			{
				"x": -1.9273712036,
				"y": -2.4133027397,
				"z": -2.385536167,
				"element": "C" 
			},
			{
				"x": -1.5324793162,
				"y": -1.6515487503,
				"z": -1.119534511,
				"element": "C" 
			},
			{
				"x": -2.3692458912,
				"y": -1.4474560301,
				"z": -0.254176367,
				"element": "O" 
			},
			{
				"x": -0.2142934629,
				"y": -1.2368313355,
				"z": -0.9931286518,
				"element": "N" 
			},
			{
				"x": 0.1268710568,
				"y": -0.3291393059,
				"z": 0.140273408,
				"element": "C" 
			},
			{
				"x": -0.4438259206,
				"y": 1.0565217825,
				"z": -0.1565762269,
				"element": "C" 
			},
			{
				"x": 0.1621117417,
				"y": 1.6985908389,
				"z": -1.7874003283,
				"element": "S" 
			},
			{
				"x": 0.9078087169,
				"y": 0.2711152916,
				"z": -2.545395967,
				"element": "C" 
			},
			{
				"x": 0.6497555723,
				"y": -1.0465130704,
				"z": -2.121675403,
				"element": "C" 
			},
			{
				"x": 1.3031440848,
				"y": -2.1201884921,
				"z": -2.7332326412,
				"element": "C" 
			},
			{
				"x": 2.1508985034,
				"y": -1.9058498305,
				"z": -3.8179959884,
				"element": "C" 
			},
			{
				"x": 2.3828859003,
				"y": -0.6020259399,
				"z": -4.2634771115,
				"element": "C" 
			},
			{
				"x": 1.7842870674,
				"y": 0.4785253033,
				"z": -3.6206042821,
				"element": "C" 
			},
			{
				"x": -0.192650248,
				"y": -0.9062452642,
				"z": 1.5156488817,
				"element": "C" 
			},
			{
				"x": -1.1349532684,
				"y": -0.3481782746,
				"z": 2.3847444122,
				"element": "C" 
			},
			{
				"x": -1.3298431295,
				"y": -0.8839679164,
				"z": 3.6583322058,
				"element": "C" 
			},
			{
				"x": -0.5916488064,
				"y": -1.9911066328,
				"z": 4.0781759404,
				"element": "C" 
			},
			{
				"x": 0.348879997,
				"y": -2.5579128735,
				"z": 3.2161265806,
				"element": "C" 
			},
			{
				"x": 0.5498662822,
				"y": -2.0127955853,
				"z": 1.9487469679,
				"element": "C" 
			},
			{
				"x": -2.78498503,
				"y": -3.0327712653,
				"z": -2.1303060822,
				"element": "H" 
			},
			{
				"x": -1.1295252026,
				"y": -3.0124984794,
				"z": -2.8168639453,
				"element": "H" 
			},
			{
				"x": 1.2180486726,
				"y": -0.2536509205,
				"z": 0.0948218694,
				"element": "H" 
			},
			{
				"x": -1.5339314281,
				"y": 1.0232970142,
				"z": -0.1845863401,
				"element": "H" 
			},
			{
				"x": -0.1230650726,
				"y": 1.7801724682,
				"z": 0.5964998114,
				"element": "H" 
			},
			{
				"x": 1.1426065433,
				"y": -3.1211687352,
				"z": -2.3435453981,
				"element": "H" 
			},
			{
				"x": 2.6416157851,
				"y": -2.7467714985,
				"z": -4.2975468657,
				"element": "H" 
			},
			{
				"x": 3.0503826938,
				"y": -0.4224544478,
				"z": -5.1009087673,
				"element": "H" 
			},
			{
				"x": 1.9936234034,
				"y": 1.4920065676,
				"z": -3.9500367796,
				"element": "H" 
			},
			{
				"x": -1.7363044912,
				"y": 0.4970694021,
				"z": 2.0682378845,
				"element": "H" 
			},
			{
				"x": -2.0674804816,
				"y": -0.4385623052,
				"z": 4.3196514369,
				"element": "H" 
			},
			{
				"x": -0.7471227235,
				"y": -2.408362699,
				"z": 5.0688618144,
				"element": "H" 
			},
			{
				"x": 0.9323629032,
				"y": -3.4177875201,
				"z": 3.5328671743,
				"element": "H" 
			},
			{
				"x": 1.2901713786,
				"y": -2.4514535028,
				"z": 1.2839528452,
				"element": "H" 
			}
		],
		 "valence_orbital": [ 
			{
				"type": "occ",
				"energy": -0.27216,
				"method": "rhf"
			},
			{
				"type": "occ",
				"energy": -0.25303,
				"method": "rhf"
			},
			{
				"type": "occ",
				"energy": -0.24899,
				"method": "rhf"
			},
			{
				"type": "occ",
				"energy": -0.23638,
				"method": "rhf"
			},
			{
				"type": "occ",
				"energy": -0.21728,
				"method": "rhf"
			},
			{
				"type": "unocc",
				"energy": -0.02657,
				"method": "rhf"
			},
			{
				"type": "unocc",
				"energy": -0.01898,
				"method": "rhf"
			},
			{
				"type": "unocc",
				"energy": -0.01676,
				"method": "rhf"
			},
			{
				"type": "unocc",
				"energy": -0.00664,
				"method": "rhf"
			},
			{
				"type": "unocc",
				"energy": -0.00063,
				"method": "rhf"
			}
		],
		"cosmo_sigma_profile": { 
			"-0.025": 0.0,
			"-0.024": 0.0,
			"-0.023": 0.0,
			"-0.022": 0.0,
			"-0.021": 0.0,
			"-0.02": 0.0,
			"-0.019": 0.0,
			"-0.018": 0.0,
			"-0.017": 0.0,
			"-0.016": 0.0,
			"-0.015": 0.0,
			"-0.014": 0.0,
			"-0.013": 0.0,
			"-0.012": 0.0,
			"-0.011": 0.0,
			"-0.01": 0.0479432544964,
			"-0.009": 1.71303796915,
			"-0.008": 4.75781427278,
			"-0.007": 10.4719007254,
			"-0.006": 24.244790027,
			"-0.005": 29.6532229885,
			"-0.004": 27.201784231,
			"-0.003": 21.2037405851,
			"-0.002": 17.4679019747,
			"-0.001": 16.6019599927,
			"0.0": 17.915405108,
			"0.001": 18.231510192,
			"0.002": 19.5438754124,
			"0.003": 22.1172813105,
			"0.004": 26.6338635521,
			"0.005": 27.4768840092,
			"0.006": 13.9175386857,
			"0.007": 5.06871793309,
			"0.008": 3.49515867717,
			"0.009": 2.21764882657,
			"0.01": 1.87831912218,
			"0.011": 2.69887314017,
			"0.012": 2.99384209445,
			"0.013": 1.94369758099,
			"0.014": 0.105646940445,
			"0.015": 0.0,
			"0.016": 0.0,
			"0.017": 0.0,
			"0.018": 0.0,
			"0.019": 0.0,
			"0.02": 0.0,
			"0.021": 0.0,
			"0.022": 0.0,
			"0.023": 0.0,
			"0.024": 0.0,
			"0.025": 0.0
		}
	}
}
