{
	 "smiles": "CC1=CC(C=CC(O)=O)=CC=C1", 
	 "Tm": 391.15, 
	 "num_atms": 22, 
	 "gaussian": { 
		 "optdone": 1, 
		 "sigma_profile": "yes", 
		 "theory": "DFT", 
		 "functional": "B3LYP", 
		 "basiset": "6-31G**", 
		 "properties": { 
			 "R2extent": 3526.727, 
			 "electric_dipole_moment_norm": 3.15086529544, 
			 "electric_quadrupole_moment_norm": 18.3903483572, 
			 "total_energy": -537.539321478, 
			 "HOMO_LUMO_gap": 0.17118, 
			 "cosmo_polarized_energy": -10.4, 
			 "cosmo_cavitation_energy": 26.44, 
			 "cosmo_dispersion_energy": -19.17, 
			 "cosmo_repulsion_energy": 1.54, 
			 "cosmo_total_nonelectrostatic_energy": 8.81, 
			 "SMD_solvation_energy": 5.95 
		},
		"coords": [
			{
				"x": 1.2399729338,
				"y": 2.1795765497,
				"z": 0.2587719682,
				"element": "C" 
			},
			{
				"x": 0.5179213734,
				"y": 0.904145284,
				"z": -0.1085507991,
				"element": "C" 
			},
			{
				"x": 0.766976858,
				"y": -0.2875531984,
				"z": 0.5754003002,
				"element": "C" 
			},
			{
				"x": 0.074740475,
				"y": -1.4796195963,
				"z": 0.2848940835,
				"element": "C" 
			},
			{
				"x": 0.4486970737,
				"y": -2.6751403354,
				"z": 1.0553337662,
				"element": "C" 
			},
			{
				"x": -0.2040904286,
				"y": -3.7995816403,
				"z": 1.4223661706,
				"element": "C" 
			},
			{
				"x": -1.6090919779,
				"y": -4.2296797753,
				"z": 1.2824966919,
				"element": "C" 
			},
			{
				"x": -2.4824530932,
				"y": -3.28299376,
				"z": 0.854410579,
				"element": "O" 
			},
			{
				"x": -1.9815769678,
				"y": -5.3515317215,
				"z": 1.574144909,
				"element": "O" 
			},
			{
				"x": -0.8592652217,
				"y": -1.4692131357,
				"z": -0.7646620563,
				"element": "C" 
			},
			{
				"x": -1.100667415,
				"y": -0.2930639052,
				"z": -1.47014746,
				"element": "C" 
			},
			{
				"x": -0.4279617271,
				"y": 0.8846499069,
				"z": -1.1430952232,
				"element": "C" 
			},
			{
				"x": 2.1499174817,
				"y": 1.9745046298,
				"z": 0.8299089392,
				"element": "H" 
			},
			{
				"x": 1.5208598012,
				"y": 2.7510201564,
				"z": -0.6317512605,
				"element": "H" 
			},
			{
				"x": 0.6062952621,
				"y": 2.8303542237,
				"z": 0.8738850038,
				"element": "H" 
			},
			{
				"x": 1.5138522058,
				"y": -0.295528417,
				"z": 1.3666696167,
				"element": "H" 
			},
			{
				"x": 1.4814682408,
				"y": -2.6364954124,
				"z": 1.4040504478,
				"element": "H" 
			},
			{
				"x": 0.3673327726,
				"y": -4.551957948,
				"z": 1.9571117462,
				"element": "H" 
			},
			{
				"x": -3.3511729293,
				"y": -3.7188102213,
				"z": 0.8578749224,
				"element": "H" 
			},
			{
				"x": -1.3806557202,
				"y": -2.3781463495,
				"z": -1.0324431982,
				"element": "H" 
			},
			{
				"x": -1.8148154504,
				"y": -0.2961759854,
				"z": -2.2887746419,
				"element": "H" 
			},
			{
				"x": -0.6273835467,
				"y": 1.7945406509,
				"z": -1.7040945055,
				"element": "H" 
			}
		],
		 "valence_orbital": [ 
			{
				"type": "occ",
				"energy": -0.31453,
				"method": "rhf"
			},
			{
				"type": "occ",
				"energy": -0.29692,
				"method": "rhf"
			},
			{
				"type": "occ",
				"energy": -0.2717,
				"method": "rhf"
			},
			{
				"type": "occ",
				"energy": -0.24822,
				"method": "rhf"
			},
			{
				"type": "occ",
				"energy": -0.23439,
				"method": "rhf"
			},
			{
				"type": "unocc",
				"energy": -0.06321,
				"method": "rhf"
			},
			{
				"type": "unocc",
				"energy": -0.00264,
				"method": "rhf"
			},
			{
				"type": "unocc",
				"energy": 0.01344,
				"method": "rhf"
			},
			{
				"type": "unocc",
				"energy": 0.07789,
				"method": "rhf"
			},
			{
				"type": "unocc",
				"energy": 0.08975,
				"method": "rhf"
			}
		],
		"cosmo_sigma_profile": { 
			"-0.025": 0.0,
			"-0.024": 0.0,
			"-0.023": 0.0,
			"-0.022": 0.0,
			"-0.021": 0.0,
			"-0.02": 0.0,
			"-0.019": 0.0,
			"-0.018": 0.336686595178,
			"-0.017": 1.03514916974,
			"-0.016": 0.680396226334,
			"-0.015": 0.88643786887,
			"-0.014": 0.467708572059,
			"-0.013": 0.63302895707,
			"-0.012": 0.612360129751,
			"-0.011": 1.44228503958,
			"-0.01": 0.53944002835,
			"-0.009": 0.473051077075,
			"-0.008": 0.529568121828,
			"-0.007": 3.02016306215,
			"-0.006": 9.75016237316,
			"-0.005": 12.9147970938,
			"-0.004": 17.7129416072,
			"-0.003": 18.0682190845,
			"-0.002": 16.4299546285,
			"-0.001": 18.0367417819,
			"0.0": 18.2440860537,
			"0.001": 14.4521010101,
			"0.002": 13.6655971729,
			"0.003": 12.4925805259,
			"0.004": 10.6847154878,
			"0.005": 11.8959946818,
			"0.006": 4.95985995154,
			"0.007": 2.68840006802,
			"0.008": 2.23378247239,
			"0.009": 2.91043923941,
			"0.01": 2.13198662362,
			"0.011": 2.64159107182,
			"0.012": 5.32200219496,
			"0.013": 2.27946836275,
			"0.014": 0.0855727619185,
			"0.015": 0.0,
			"0.016": 0.0,
			"0.017": 0.0,
			"0.018": 0.0,
			"0.019": 0.0,
			"0.02": 0.0,
			"0.021": 0.0,
			"0.022": 0.0,
			"0.023": 0.0,
			"0.024": 0.0,
			"0.025": 0.0
		}
	}
}
