{
	 "smiles": "COC(=O)C1=CC2=C(N1)C=C(OCC1=CC=CC=C1)C=C2", 
	 "Tm": 410.15, 
	 "num_atms": 36, 
	 "gaussian": { 
		 "optdone": 1, 
		 "sigma_profile": "yes", 
		 "theory": "DFT", 
		 "functional": "B3LYP", 
		 "basiset": "6-31G**", 
		 "properties": { 
			 "R2extent": 9091.9505, 
			 "electric_dipole_moment_norm": 4.03905417765, 
			 "electric_quadrupole_moment_norm": 13.455988792, 
			 "total_energy": -937.28158137, 
			 "HOMO_LUMO_gap": 0.16061, 
			 "cosmo_polarized_energy": -14.34, 
			 "cosmo_cavitation_energy": 40.9, 
			 "cosmo_dispersion_energy": -29.13, 
			 "cosmo_repulsion_energy": 2.24, 
			 "cosmo_total_nonelectrostatic_energy": 14.01, 
			 "SMD_solvation_energy": 8.14 
		},
		"coords": [
			{
				"x": 2.3368061038,
				"y": 3.2122523002,
				"z": 3.3339400623,
				"element": "C" 
			},
			{
				"x": 1.4760740126,
				"y": 2.6823835442,
				"z": 2.3153816182,
				"element": "O" 
			},
			{
				"x": 0.4215608487,
				"y": 3.4807786745,
				"z": 1.9797250209,
				"element": "C" 
			},
			{
				"x": 0.2104688601,
				"y": 4.5623853754,
				"z": 2.4923828686,
				"element": "O" 
			},
			{
				"x": -0.3966921168,
				"y": 2.8613782263,
				"z": 0.9401598227,
				"element": "C" 
			},
			{
				"x": -1.538442686,
				"y": 3.3527539087,
				"z": 0.3435153003,
				"element": "C" 
			},
			{
				"x": -1.9672724962,
				"y": 2.3800441319,
				"z": -0.6077994888,
				"element": "C" 
			},
			{
				"x": -1.0380492905,
				"y": 1.3005747468,
				"z": -0.5512951977,
				"element": "C" 
			},
			{
				"x": -0.0976154785,
				"y": 1.6177592474,
				"z": 0.3940039529,
				"element": "N" 
			},
			{
				"x": -1.1494577368,
				"y": 0.1538089344,
				"z": -1.3542091697,
				"element": "C" 
			},
			{
				"x": -2.2252388317,
				"y": 0.1079873657,
				"z": -2.2340527633,
				"element": "C" 
			},
			{
				"x": -2.4789546798,
				"y": -0.9269376395,
				"z": -3.0962159299,
				"element": "O" 
			},
			{
				"x": -1.5139809034,
				"y": -1.9643255071,
				"z": -3.2410916374,
				"element": "C" 
			},
			{
				"x": -1.5293974007,
				"y": -2.995342607,
				"z": -2.1275325948,
				"element": "C" 
			},
			{
				"x": -0.3642366733,
				"y": -3.706543828,
				"z": -1.817232469,
				"element": "C" 
			},
			{
				"x": -0.379267862,
				"y": -4.7020806622,
				"z": -0.8386596259,
				"element": "C" 
			},
			{
				"x": -1.5607564075,
				"y": -4.9899056179,
				"z": -0.1533595787,
				"element": "C" 
			},
			{
				"x": -2.7250169139,
				"y": -4.279561241,
				"z": -0.4546150147,
				"element": "C" 
			},
			{
				"x": -2.7112899584,
				"y": -3.2909011333,
				"z": -1.4387877197,
				"element": "C" 
			},
			{
				"x": -3.1681061693,
				"y": 1.1680052469,
				"z": -2.3084823976,
				"element": "C" 
			},
			{
				"x": -3.0473070997,
				"y": 2.2876179582,
				"z": -1.5112617276,
				"element": "C" 
			},
			{
				"x": 1.7815962983,
				"y": 3.3772078209,
				"z": 4.2608457651,
				"element": "H" 
			},
			{
				"x": 3.1153197238,
				"y": 2.4637060143,
				"z": 3.4829326155,
				"element": "H" 
			},
			{
				"x": 2.7742230169,
				"y": 4.1614554977,
				"z": 3.0140444047,
				"element": "H" 
			},
			{
				"x": -1.9968004796,
				"y": 4.3024855452,
				"z": 0.5772447293,
				"element": "H" 
			},
			{
				"x": 0.6904297218,
				"y": 1.0593477985,
				"z": 0.6796503755,
				"element": "H" 
			},
			{
				"x": -0.4449287776,
				"y": -0.6631447585,
				"z": -1.2621880687,
				"element": "H" 
			},
			{
				"x": -1.7776668652,
				"y": -2.440907333,
				"z": -4.1919486873,
				"element": "H" 
			},
			{
				"x": -0.508666017,
				"y": -1.5368994149,
				"z": -3.3566217256,
				"element": "H" 
			},
			{
				"x": 0.5608730495,
				"y": -3.4817639321,
				"z": -2.3442033641,
				"element": "H" 
			},
			{
				"x": 0.5321577494,
				"y": -5.2462792049,
				"z": -0.6075293469,
				"element": "H" 
			},
			{
				"x": -1.5735744603,
				"y": -5.7599046616,
				"z": 0.6126018935,
				"element": "H" 
			},
			{
				"x": -3.6468487184,
				"y": -4.4961105561,
				"z": 0.0778751902,
				"element": "H" 
			},
			{
				"x": -3.6136968125,
				"y": -2.7348244565,
				"z": -1.6725416035,
				"element": "H" 
			},
			{
				"x": -3.9811620978,
				"y": 1.0663672836,
				"z": -3.019256623,
				"element": "H" 
			},
			{
				"x": -3.7755824516,
				"y": 3.0902329329,
				"z": -1.5820188857,
				"element": "H" 
			}
		],
		 "valence_orbital": [ 
			{
				"type": "occ",
				"energy": -0.27168,
				"method": "rhf"
			},
			{
				"type": "occ",
				"energy": -0.25522,
				"method": "rhf"
			},
			{
				"type": "occ",
				"energy": -0.24949,
				"method": "rhf"
			},
			{
				"type": "occ",
				"energy": -0.22015,
				"method": "rhf"
			},
			{
				"type": "occ",
				"energy": -0.19958,
				"method": "rhf"
			},
			{
				"type": "unocc",
				"energy": -0.03897,
				"method": "rhf"
			},
			{
				"type": "unocc",
				"energy": -0.00931,
				"method": "rhf"
			},
			{
				"type": "unocc",
				"energy": -0.00769,
				"method": "rhf"
			},
			{
				"type": "unocc",
				"energy": 0.0174,
				"method": "rhf"
			},
			{
				"type": "unocc",
				"energy": 0.04053,
				"method": "rhf"
			}
		],
		"cosmo_sigma_profile": { 
			"-0.025": 0.0,
			"-0.024": 0.0,
			"-0.023": 0.0,
			"-0.022": 0.0,
			"-0.021": 0.0,
			"-0.02": 0.0,
			"-0.019": 0.0,
			"-0.018": 0.0,
			"-0.017": 0.0,
			"-0.016": 0.0140112124934,
			"-0.015": 0.701496858028,
			"-0.014": 0.871023998586,
			"-0.013": 0.924650809606,
			"-0.012": 1.46478266034,
			"-0.011": 0.686627963709,
			"-0.01": 0.594510870775,
			"-0.009": 1.03687601278,
			"-0.008": 1.3049383392,
			"-0.007": 3.93241954652,
			"-0.006": 19.8494616235,
			"-0.005": 28.1947214303,
			"-0.004": 28.9306596324,
			"-0.003": 29.4836294555,
			"-0.002": 22.0785904256,
			"-0.001": 18.6469938748,
			"0.0": 18.7584726732,
			"0.001": 17.3982208617,
			"0.002": 20.8444912401,
			"0.003": 27.2920424785,
			"0.004": 29.7660903922,
			"0.005": 23.8945822245,
			"0.006": 11.057853343,
			"0.007": 2.18114081815,
			"0.008": 2.70347528674,
			"0.009": 2.56116858236,
			"0.01": 2.8915527037,
			"0.011": 2.55772565214,
			"0.012": 5.03087199998,
			"0.013": 1.3018821476,
			"0.014": 0.0,
			"0.015": 0.0,
			"0.016": 0.0,
			"0.017": 0.0,
			"0.018": 0.0,
			"0.019": 0.0,
			"0.02": 0.0,
			"0.021": 0.0,
			"0.022": 0.0,
			"0.023": 0.0,
			"0.024": 0.0,
			"0.025": 0.0
		}
	}
}
