{
	 "smiles": "CC(C)N1N=C(C)C(N)=C1C", 
	 "Tm": 332.15, 
	 "num_atms": 26, 
	 "gaussian": { 
		 "optdone": 1, 
		 "sigma_profile": "yes", 
		 "theory": "DFT", 
		 "functional": "B3LYP", 
		 "basiset": "6-31G**", 
		 "properties": { 
			 "R2extent": 2088.6977, 
			 "electric_dipole_moment_norm": 0.877233640486, 
			 "electric_quadrupole_moment_norm": 8.42595634097, 
			 "total_energy": -478.147560554, 
			 "HOMO_LUMO_gap": 0.25067, 
			 "cosmo_polarized_energy": -9.5, 
			 "cosmo_cavitation_energy": 28.24, 
			 "cosmo_dispersion_energy": -19.73, 
			 "cosmo_repulsion_energy": 1.64, 
			 "cosmo_total_nonelectrostatic_energy": 10.14, 
			 "SMD_solvation_energy": 4.58 
		},
		"coords": [
			{
				"x": -2.0425381692,
				"y": -2.518637368,
				"z": 0.2009642522,
				"element": "C" 
			},
			{
				"x": -1.632403236,
				"y": -1.6908996245,
				"z": -1.0232126431,
				"element": "C" 
			},
			{
				"x": -2.8345650726,
				"y": -1.0256884576,
				"z": -1.7046096708,
				"element": "C" 
			},
			{
				"x": -0.6345394677,
				"y": -0.683224037,
				"z": -0.648303966,
				"element": "N" 
			},
			{
				"x": -0.9783375064,
				"y": 0.2784761617,
				"z": 0.2474017568,
				"element": "N" 
			},
			{
				"x": 0.1093306369,
				"y": 1.03491707,
				"z": 0.3896132041,
				"element": "C" 
			},
			{
				"x": 0.1117250844,
				"y": 2.2145978691,
				"z": 1.3127500827,
				"element": "C" 
			},
			{
				"x": 1.1694400343,
				"y": 0.554962329,
				"z": -0.4250390378,
				"element": "C" 
			},
			{
				"x": 2.499851084,
				"y": 1.0454661918,
				"z": -0.5913431026,
				"element": "N" 
			},
			{
				"x": 0.6528143358,
				"y": -0.5557768577,
				"z": -1.0811361839,
				"element": "C" 
			},
			{
				"x": 1.3262178118,
				"y": -1.4556802708,
				"z": -2.0644737256,
				"element": "C" 
			},
			{
				"x": -1.1742184276,
				"y": -3.0126273014,
				"z": 0.6473317308,
				"element": "H" 
			},
			{
				"x": -2.7686633345,
				"y": -3.2864490649,
				"z": -0.0846750382,
				"element": "H" 
			},
			{
				"x": -2.4935614441,
				"y": -1.8707673739,
				"z": 0.9567565576,
				"element": "H" 
			},
			{
				"x": -1.1321165636,
				"y": -2.3454221858,
				"z": -1.7440042614,
				"element": "H" 
			},
			{
				"x": -3.3141002112,
				"y": -0.3246821468,
				"z": -1.0168475814,
				"element": "H" 
			},
			{
				"x": -2.5219716663,
				"y": -0.4720818087,
				"z": -2.5951495522,
				"element": "H" 
			},
			{
				"x": -3.567107428,
				"y": -1.7812080198,
				"z": -2.006197876,
				"element": "H" 
			},
			{
				"x": 0.3250910954,
				"y": 3.1482251759,
				"z": 0.7778120472,
				"element": "H" 
			},
			{
				"x": 0.8711090369,
				"y": 2.1140360463,
				"z": 2.0979796542,
				"element": "H" 
			},
			{
				"x": -0.8644944518,
				"y": 2.3120101021,
				"z": 1.7928600462,
				"element": "H" 
			},
			{
				"x": 3.0031942491,
				"y": 1.0515462657,
				"z": 0.2924815346,
				"element": "H" 
			},
			{
				"x": 2.4991632883,
				"y": 2.0034238371,
				"z": -0.933216455,
				"element": "H" 
			},
			{
				"x": 2.348026576,
				"y": -1.0946492965,
				"z": -2.2023192598,
				"element": "H" 
			},
			{
				"x": 0.827859319,
				"y": -1.4559768191,
				"z": -3.0412720799,
				"element": "H" 
			},
			{
				"x": 1.3734944269,
				"y": -2.4946904161,
				"z": -1.7170504327,
				"element": "H" 
			}
		],
		 "valence_orbital": [ 
			{
				"type": "occ",
				"energy": -0.34008,
				"method": "rhf"
			},
			{
				"type": "occ",
				"energy": -0.28121,
				"method": "rhf"
			},
			{
				"type": "occ",
				"energy": -0.23449,
				"method": "rhf"
			},
			{
				"type": "occ",
				"energy": -0.22201,
				"method": "rhf"
			},
			{
				"type": "occ",
				"energy": -0.21479,
				"method": "rhf"
			},
			{
				"type": "unocc",
				"energy": 0.03588,
				"method": "rhf"
			},
			{
				"type": "unocc",
				"energy": 0.08107,
				"method": "rhf"
			},
			{
				"type": "unocc",
				"energy": 0.08253,
				"method": "rhf"
			},
			{
				"type": "unocc",
				"energy": 0.08973,
				"method": "rhf"
			},
			{
				"type": "unocc",
				"energy": 0.12537,
				"method": "rhf"
			}
		],
		"cosmo_sigma_profile": { 
			"-0.025": 0.0,
			"-0.024": 0.0,
			"-0.023": 0.0,
			"-0.022": 0.0,
			"-0.021": 0.0,
			"-0.02": 0.0,
			"-0.019": 0.0,
			"-0.018": 0.0,
			"-0.017": 0.0,
			"-0.016": 0.0,
			"-0.015": 0.0,
			"-0.014": 0.0,
			"-0.013": 0.0,
			"-0.012": 0.0,
			"-0.011": 0.317310806988,
			"-0.01": 1.99806696708,
			"-0.009": 2.26247016288,
			"-0.008": 3.40133400974,
			"-0.007": 2.23124256747,
			"-0.006": 1.50519933393,
			"-0.005": 7.92325242221,
			"-0.004": 20.9153388155,
			"-0.003": 25.7308393142,
			"-0.002": 25.3999462916,
			"-0.001": 23.9064203878,
			"0.0": 28.6684730924,
			"0.001": 19.8909469094,
			"0.002": 7.0068417295,
			"0.003": 7.22519969002,
			"0.004": 6.57194636664,
			"0.005": 6.47778001462,
			"0.006": 6.85880528417,
			"0.007": 3.9731321345,
			"0.008": 3.95985237765,
			"0.009": 2.95289235795,
			"0.01": 2.34409913265,
			"0.011": 1.51669182375,
			"0.012": 2.48779950156,
			"0.013": 1.56626779297,
			"0.014": 1.1695665808,
			"0.015": 1.1494153075,
			"0.016": 0.479728931497,
			"0.017": 0.0,
			"0.018": 0.0,
			"0.019": 0.0,
			"0.02": 0.0,
			"0.021": 0.0,
			"0.022": 0.0,
			"0.023": 0.0,
			"0.024": 0.0,
			"0.025": 0.0
		}
	}
}
