{
	 "smiles": "CCOC=C(C#N)C#N", 
	 "Tm": 338.65, 
	 "num_atms": 15, 
	 "gaussian": { 
		 "optdone": 1, 
		 "sigma_profile": "yes", 
		 "theory": "DFT", 
		 "functional": "B3LYP", 
		 "basiset": "6-31G**", 
		 "properties": { 
			 "R2extent": 2685.6361, 
			 "electric_dipole_moment_norm": 7.65616873181, 
			 "electric_quadrupole_moment_norm": 25.5879839698, 
			 "total_energy": -416.913060572, 
			 "HOMO_LUMO_gap": 0.19338, 
			 "cosmo_polarized_energy": -17.05, 
			 "cosmo_cavitation_energy": 22.17, 
			 "cosmo_dispersion_energy": -14.68, 
			 "cosmo_repulsion_energy": 1.27, 
			 "cosmo_total_nonelectrostatic_energy": 8.76, 
			 "SMD_solvation_energy": 7.77 
		},
		"coords": [
			{
				"x": -0.9992175435,
				"y": -1.0938907122,
				"z": -0.9415034349,
				"element": "C" 
			},
			{
				"x": -0.4580286383,
				"y": 0.1912367054,
				"z": -0.338618396,
				"element": "C" 
			},
			{
				"x": 0.146743663,
				"y": -0.0561899427,
				"z": 0.9554709292,
				"element": "O" 
			},
			{
				"x": -0.6341870735,
				"y": 0.0035560235,
				"z": 2.0210873816,
				"element": "C" 
			},
			{
				"x": -0.1849824517,
				"y": -0.3195498429,
				"z": 3.2679417595,
				"element": "C" 
			},
			{
				"x": 1.1534691708,
				"y": -0.7704260768,
				"z": 3.4906036549,
				"element": "C" 
			},
			{
				"x": 2.2411464596,
				"y": -1.1394559022,
				"z": 3.6736646671,
				"element": "N" 
			},
			{
				"x": -1.0762221381,
				"y": -0.2020597078,
				"z": 4.3793897007,
				"element": "C" 
			},
			{
				"x": -1.8107315309,
				"y": -0.1049392646,
				"z": 5.2766886442,
				"element": "N" 
			},
			{
				"x": -1.8110487491,
				"y": -1.507346181,
				"z": -0.3350726913,
				"element": "H" 
			},
			{
				"x": -1.3905381885,
				"y": -0.8946131731,
				"z": -1.944122444,
				"element": "H" 
			},
			{
				"x": -0.208571031,
				"y": -1.8444293023,
				"z": -1.0211876441,
				"element": "H" 
			},
			{
				"x": 0.3494208953,
				"y": 0.6103769063,
				"z": -0.9419828835,
				"element": "H" 
			},
			{
				"x": -1.2382885703,
				"y": 0.9535995792,
				"z": -0.2269697826,
				"element": "H" 
			},
			{
				"x": -1.6623642738,
				"y": 0.3372308911,
				"z": 1.8836105393,
				"element": "H" 
			}
		],
		 "valence_orbital": [ 
			{
				"type": "occ",
				"energy": -0.36693,
				"method": "rhf"
			},
			{
				"type": "occ",
				"energy": -0.349,
				"method": "rhf"
			},
			{
				"type": "occ",
				"energy": -0.34616,
				"method": "rhf"
			},
			{
				"type": "occ",
				"energy": -0.33714,
				"method": "rhf"
			},
			{
				"type": "occ",
				"energy": -0.2627,
				"method": "rhf"
			},
			{
				"type": "unocc",
				"energy": -0.06932,
				"method": "rhf"
			},
			{
				"type": "unocc",
				"energy": -0.00093,
				"method": "rhf"
			},
			{
				"type": "unocc",
				"energy": 0.03066,
				"method": "rhf"
			},
			{
				"type": "unocc",
				"energy": 0.04078,
				"method": "rhf"
			},
			{
				"type": "unocc",
				"energy": 0.0666,
				"method": "rhf"
			}
		],
		"cosmo_sigma_profile": { 
			"-0.025": 0.0,
			"-0.024": 0.0,
			"-0.023": 0.0,
			"-0.022": 0.0,
			"-0.021": 0.0,
			"-0.02": 0.0,
			"-0.019": 0.0,
			"-0.018": 0.0,
			"-0.017": 0.0,
			"-0.016": 0.0,
			"-0.015": 0.0,
			"-0.014": 0.0,
			"-0.013": 0.406144342207,
			"-0.012": 3.57395727482,
			"-0.011": 2.51048243502,
			"-0.01": 3.01869602134,
			"-0.009": 1.98708859407,
			"-0.008": 3.45187049743,
			"-0.007": 7.12324931321,
			"-0.006": 8.64997625174,
			"-0.005": 13.7561120881,
			"-0.004": 14.6762519255,
			"-0.003": 16.3802943988,
			"-0.002": 13.68194963,
			"-0.001": 12.3852401003,
			"0.0": 7.55815991699,
			"0.001": 4.97107876498,
			"0.002": 4.58901760145,
			"0.003": 4.79761906971,
			"0.004": 6.14715195879,
			"0.005": 6.81880891186,
			"0.006": 6.02043344172,
			"0.007": 6.65356427441,
			"0.008": 6.45577215386,
			"0.009": 6.51390857041,
			"0.01": 6.0157061361,
			"0.011": 5.03523984973,
			"0.012": 4.55315351143,
			"0.013": 1.21447157292,
			"0.014": 0.0,
			"0.015": 0.0,
			"0.016": 0.0,
			"0.017": 0.0,
			"0.018": 0.0,
			"0.019": 0.0,
			"0.02": 0.0,
			"0.021": 0.0,
			"0.022": 0.0,
			"0.023": 0.0,
			"0.024": 0.0,
			"0.025": 0.0
		}
	}
}
