{
	 "smiles": "OC(=O)CC1=C2C=CSC2=CC=C1", 
	 "Tm": 401.15, 
	 "num_atms": 21, 
	 "gaussian": { 
		 "optdone": 1, 
		 "sigma_profile": "yes", 
		 "theory": "DFT", 
		 "functional": "B3LYP", 
		 "basiset": "6-31G**", 
		 "properties": { 
			 "R2extent": 2716.2875, 
			 "electric_dipole_moment_norm": 1.37288904869, 
			 "electric_quadrupole_moment_norm": 4.34445691082, 
			 "total_energy": -934.538463384, 
			 "HOMO_LUMO_gap": 0.18596, 
			 "cosmo_polarized_energy": -10.54, 
			 "cosmo_cavitation_energy": 26.82, 
			 "cosmo_dispersion_energy": -20.01, 
			 "cosmo_repulsion_energy": 1.53, 
			 "cosmo_total_nonelectrostatic_energy": 8.33, 
			 "SMD_solvation_energy": 5.33 
		},
		"coords": [
			{
				"x": -1.404963544,
				"y": -2.8812059724,
				"z": -0.2971211806,
				"element": "O" 
			},
			{
				"x": -1.5071530825,
				"y": -1.8089077315,
				"z": -1.1148791222,
				"element": "C" 
			},
			{
				"x": -2.573759434,
				"y": -1.3351883464,
				"z": -1.4427273798,
				"element": "O" 
			},
			{
				"x": -0.1430844102,
				"y": -1.2877942338,
				"z": -1.5356811989,
				"element": "C" 
			},
			{
				"x": 0.5198553654,
				"y": -0.4522346757,
				"z": -0.4537017085,
				"element": "C" 
			},
			{
				"x": 0.0253948016,
				"y": 0.8337219263,
				"z": -0.1264383745,
				"element": "C" 
			},
			{
				"x": -1.1081437913,
				"y": 1.5409844797,
				"z": -0.6718459549,
				"element": "C" 
			},
			{
				"x": -1.2738564631,
				"y": 2.7720002564,
				"z": -0.1227549257,
				"element": "C" 
			},
			{
				"x": -0.0745694839,
				"y": 3.1558383968,
				"z": 1.091794865,
				"element": "S" 
			},
			{
				"x": 0.6951847798,
				"y": 1.5943129419,
				"z": 0.8655724393,
				"element": "C" 
			},
			{
				"x": 1.8198499607,
				"y": 1.1079533432,
				"z": 1.5400132394,
				"element": "C" 
			},
			{
				"x": 2.2803632177,
				"y": -0.1610402762,
				"z": 1.213031163,
				"element": "C" 
			},
			{
				"x": 1.6358775507,
				"y": -0.9281649233,
				"z": 0.2270409673,
				"element": "C" 
			},
			{
				"x": -2.3138839372,
				"y": -3.1226255259,
				"z": -0.0505590511,
				"element": "H" 
			},
			{
				"x": 0.4957705028,
				"y": -2.1414743866,
				"z": -1.7775992504,
				"element": "H" 
			},
			{
				"x": -0.2944531248,
				"y": -0.6981890948,
				"z": -2.4437893529,
				"element": "H" 
			},
			{
				"x": -1.7767706436,
				"y": 1.1225238679,
				"z": -1.4141381344,
				"element": "H" 
			},
			{
				"x": -2.0447562272,
				"y": 3.4963371805,
				"z": -0.3488582606,
				"element": "H" 
			},
			{
				"x": 2.3192531745,
				"y": 1.7047146612,
				"z": 2.2968798074,
				"element": "H" 
			},
			{
				"x": 3.1510603978,
				"y": -0.5653604746,
				"z": 1.720426944,
				"element": "H" 
			},
			{
				"x": 2.0212843907,
				"y": -1.9151014129,
				"z": -0.013565531,
				"element": "H" 
			}
		],
		 "valence_orbital": [ 
			{
				"type": "occ",
				"energy": -0.32142,
				"method": "rhf"
			},
			{
				"type": "occ",
				"energy": -0.28706,
				"method": "rhf"
			},
			{
				"type": "occ",
				"energy": -0.27341,
				"method": "rhf"
			},
			{
				"type": "occ",
				"energy": -0.237,
				"method": "rhf"
			},
			{
				"type": "occ",
				"energy": -0.21628,
				"method": "rhf"
			},
			{
				"type": "unocc",
				"energy": -0.03032,
				"method": "rhf"
			},
			{
				"type": "unocc",
				"energy": -0.0105,
				"method": "rhf"
			},
			{
				"type": "unocc",
				"energy": 0.01289,
				"method": "rhf"
			},
			{
				"type": "unocc",
				"energy": 0.02451,
				"method": "rhf"
			},
			{
				"type": "unocc",
				"energy": 0.04932,
				"method": "rhf"
			}
		],
		"cosmo_sigma_profile": { 
			"-0.025": 0.0,
			"-0.024": 0.0,
			"-0.023": 0.0,
			"-0.022": 0.0,
			"-0.021": 0.0,
			"-0.02": 0.0,
			"-0.019": 0.0,
			"-0.018": 0.804579748284,
			"-0.017": 0.870384391452,
			"-0.016": 1.03689316895,
			"-0.015": 0.813397948873,
			"-0.014": 0.215882847989,
			"-0.013": 1.15512692686,
			"-0.012": 0.501627294418,
			"-0.011": 0.866724614367,
			"-0.01": 0.748297262329,
			"-0.009": 1.44626243687,
			"-0.008": 3.13794465954,
			"-0.007": 6.00381450833,
			"-0.006": 13.290349781,
			"-0.005": 14.4525019849,
			"-0.004": 16.0112215601,
			"-0.003": 13.6941058656,
			"-0.002": 10.9697163965,
			"-0.001": 10.8734938953,
			"0.0": 11.5826598163,
			"0.001": 11.6980616872,
			"0.002": 14.4272487434,
			"0.003": 21.7103693964,
			"0.004": 22.4927771503,
			"0.005": 17.5632075348,
			"0.006": 3.12651165801,
			"0.007": 2.77454204786,
			"0.008": 2.86706245969,
			"0.009": 3.02607344386,
			"0.01": 2.43478002731,
			"0.011": 3.53768689788,
			"0.012": 2.62216599514,
			"0.013": 0.0226971170059,
			"0.014": 0.0,
			"0.015": 0.0,
			"0.016": 0.0,
			"0.017": 0.0,
			"0.018": 0.0,
			"0.019": 0.0,
			"0.02": 0.0,
			"0.021": 0.0,
			"0.022": 0.0,
			"0.023": 0.0,
			"0.024": 0.0,
			"0.025": 0.0
		}
	}
}
