{
	 "smiles": "CC1(C)OC(=O)C(=CC2=CC=C(O2)C2=CC=C(Br)C=C2)C(=O)O1", 
	 "Tm": 455.15, 
	 "num_atms": 36, 
	 "gaussian": { 
		 "optdone": 1, 
		 "sigma_profile": "yes", 
		 "theory": "DFT", 
		 "functional": "B3LYP", 
		 "basiset": "6-31G**", 
		 "properties": { 
			 "R2extent": 15255.3641, 
			 "electric_dipole_moment_norm": 3.3961705287, 
			 "electric_quadrupole_moment_norm": 29.7169526047, 
			 "total_energy": -3603.17056324, 
			 "HOMO_LUMO_gap": 0.12177, 
			 "cosmo_polarized_energy": -17.75, 
			 "cosmo_cavitation_energy": 43.68, 
			 "cosmo_dispersion_energy": -31.38, 
			 "cosmo_repulsion_energy": 2.36, 
			 "cosmo_total_nonelectrostatic_energy": 14.66, 
			 "SMD_solvation_energy": 8.42 
		},
		"coords": [
			{
				"x": -1.1473427571,
				"y": -0.6008977243,
				"z": -4.1892007523,
				"element": "C" 
			},
			{
				"x": -0.3789099252,
				"y": 0.7195296339,
				"z": -4.1315729991,
				"element": "C" 
			},
			{
				"x": 0.65442308,
				"y": 0.8611780618,
				"z": -5.2358949504,
				"element": "C" 
			},
			{
				"x": 0.3428772419,
				"y": 0.8193723901,
				"z": -2.8982981083,
				"element": "O" 
			},
			{
				"x": -0.3171283709,
				"y": 1.1225850553,
				"z": -1.7360813321,
				"element": "C" 
			},
			{
				"x": 0.2760749944,
				"y": 0.987620196,
				"z": -0.6905023734,
				"element": "O" 
			},
			{
				"x": -1.6808036211,
				"y": 1.6723258168,
				"z": -1.9062859507,
				"element": "C" 
			},
			{
				"x": -2.6098339246,
				"y": 1.8589980621,
				"z": -0.9152085347,
				"element": "C" 
			},
			{
				"x": -2.6825324604,
				"y": 1.5167643817,
				"z": 0.456970111,
				"element": "C" 
			},
			{
				"x": -3.7156671698,
				"y": 1.771795086,
				"z": 1.3517689328,
				"element": "C" 
			},
			{
				"x": -3.3371175001,
				"y": 1.2238723799,
				"z": 2.5916169752,
				"element": "C" 
			},
			{
				"x": -2.0888647062,
				"y": 0.6518839493,
				"z": 2.3987857715,
				"element": "C" 
			},
			{
				"x": -1.7014749688,
				"y": 0.8266976149,
				"z": 1.1145943156,
				"element": "O" 
			},
			{
				"x": -1.1581724168,
				"y": -0.0485428186,
				"z": 3.2680545018,
				"element": "C" 
			},
			{
				"x": 0.1252836122,
				"y": -0.3892632374,
				"z": 2.7994093059,
				"element": "C" 
			},
			{
				"x": 1.021606034,
				"y": -1.0583596082,
				"z": 3.6269422765,
				"element": "C" 
			},
			{
				"x": 0.6403193192,
				"y": -1.3887382846,
				"z": 4.9278878924,
				"element": "C" 
			},
			{
				"x": 1.8680506355,
				"y": -2.3052166093,
				"z": 6.0641195899,
				"element": "Br" 
			},
			{
				"x": -0.6261849929,
				"y": -1.0592021313,
				"z": 5.4137489672,
				"element": "C" 
			},
			{
				"x": -1.5195486764,
				"y": -0.3921849642,
				"z": 4.5828293425,
				"element": "C" 
			},
			{
				"x": -2.0862207665,
				"y": 2.1764931726,
				"z": -3.2478390657,
				"element": "C" 
			},
			{
				"x": -3.0444918382,
				"y": 2.8877419978,
				"z": -3.4571825176,
				"element": "O" 
			},
			{
				"x": -1.2815383388,
				"y": 1.8229508431,
				"z": -4.2906575396,
				"element": "O" 
			},
			{
				"x": -1.877709068,
				"y": -0.6654860595,
				"z": -3.378182127,
				"element": "H" 
			},
			{
				"x": -0.4511617821,
				"y": -1.4380072564,
				"z": -4.0963709205,
				"element": "H" 
			},
			{
				"x": -1.6776076978,
				"y": -0.6802912408,
				"z": -5.1413222843,
				"element": "H" 
			},
			{
				"x": 0.1658642902,
				"y": 0.8134867265,
				"z": -6.2117130668,
				"element": "H" 
			},
			{
				"x": 1.1627468736,
				"y": 1.8224503195,
				"z": -5.1373925933,
				"element": "H" 
			},
			{
				"x": 1.3912582996,
				"y": 0.0583214128,
				"z": -5.1609112612,
				"element": "H" 
			},
			{
				"x": -3.5082980761,
				"y": 2.3664718446,
				"z": -1.2621723242,
				"element": "H" 
			},
			{
				"x": -4.6297713408,
				"y": 2.2998693912,
				"z": 1.1184707966,
				"element": "H" 
			},
			{
				"x": -3.8959781128,
				"y": 1.2514030974,
				"z": 3.5151156621,
				"element": "H" 
			},
			{
				"x": 0.4144727388,
				"y": -0.1185697894,
				"z": 1.7888555879,
				"element": "H" 
			},
			{
				"x": 2.0101646737,
				"y": -1.3180851372,
				"z": 3.2662635778,
				"element": "H" 
			},
			{
				"x": -0.907835612,
				"y": -1.3242740724,
				"z": 6.4261966394,
				"element": "H" 
			},
			{
				"x": -2.5069476696,
				"y": -0.1443924997,
				"z": 4.959958455,
				"element": "H" 
			}
		],
		 "valence_orbital": [ 
			{
				"type": "occ",
				"energy": -0.28441,
				"method": "rhf"
			},
			{
				"type": "occ",
				"energy": -0.27512,
				"method": "rhf"
			},
			{
				"type": "occ",
				"energy": -0.26711,
				"method": "rhf"
			},
			{
				"type": "occ",
				"energy": -0.26563,
				"method": "rhf"
			},
			{
				"type": "occ",
				"energy": -0.22081,
				"method": "rhf"
			},
			{
				"type": "unocc",
				"energy": -0.09904,
				"method": "rhf"
			},
			{
				"type": "unocc",
				"energy": -0.03923,
				"method": "rhf"
			},
			{
				"type": "unocc",
				"energy": -0.02376,
				"method": "rhf"
			},
			{
				"type": "unocc",
				"energy": 0.00035,
				"method": "rhf"
			},
			{
				"type": "unocc",
				"energy": 0.00489,
				"method": "rhf"
			}
		],
		"cosmo_sigma_profile": { 
			"-0.025": 0.0,
			"-0.024": 0.0,
			"-0.023": 0.0,
			"-0.022": 0.0,
			"-0.021": 0.0,
			"-0.02": 0.0,
			"-0.019": 0.0,
			"-0.018": 0.0,
			"-0.017": 0.0,
			"-0.016": 0.0,
			"-0.015": 0.0,
			"-0.014": 0.0,
			"-0.013": 0.0,
			"-0.012": 0.0,
			"-0.011": 0.0,
			"-0.01": 1.27295619577,
			"-0.009": 6.04301873066,
			"-0.008": 7.51530819503,
			"-0.007": 9.73511962326,
			"-0.006": 14.9283174868,
			"-0.005": 25.3575940625,
			"-0.004": 23.6188861607,
			"-0.003": 23.1079271906,
			"-0.002": 29.7938365148,
			"-0.001": 33.7260413423,
			"0.0": 32.0693385365,
			"0.001": 29.7010968173,
			"0.002": 30.3143204638,
			"0.003": 18.2218727732,
			"0.004": 16.3974746723,
			"0.005": 7.53566265171,
			"0.006": 4.58259705919,
			"0.007": 6.43427721415,
			"0.008": 5.26899922739,
			"0.009": 5.6297363811,
			"0.01": 6.5334215367,
			"0.011": 8.08912866404,
			"0.012": 5.71677436416,
			"0.013": 2.20982998618,
			"0.014": 0.0173887078201,
			"0.015": 0.0,
			"0.016": 0.0,
			"0.017": 0.0,
			"0.018": 0.0,
			"0.019": 0.0,
			"0.02": 0.0,
			"0.021": 0.0,
			"0.022": 0.0,
			"0.023": 0.0,
			"0.024": 0.0,
			"0.025": 0.0
		}
	}
}
