{
	 "smiles": "CCOC(=O)C1=C(Cl)C=C(C)N=C1Cl", 
	 "Tm": 328.15, 
	 "num_atms": 23, 
	 "gaussian": { 
		 "optdone": 1, 
		 "sigma_profile": "yes", 
		 "theory": "DFT", 
		 "functional": "B3LYP", 
		 "basiset": "6-31G**", 
		 "properties": { 
			 "R2extent": 4183.3164, 
			 "electric_dipole_moment_norm": 2.59000247876, 
			 "electric_quadrupole_moment_norm": 19.2329893831, 
			 "total_energy": -1473.97658766, 
			 "HOMO_LUMO_gap": 0.21349, 
			 "cosmo_polarized_energy": -9.67, 
			 "cosmo_cavitation_energy": 31.67, 
			 "cosmo_dispersion_energy": -22.25, 
			 "cosmo_repulsion_energy": 1.81, 
			 "cosmo_total_nonelectrostatic_energy": 11.24, 
			 "SMD_solvation_energy": 4.61 
		},
		"coords": [
			{
				"x": -3.4752150816,
				"y": 0.6548677366,
				"z": 1.3076927045,
				"element": "C" 
			},
			{
				"x": -2.2808561635,
				"y": 1.5881084342,
				"z": 1.2875866524,
				"element": "C" 
			},
			{
				"x": -1.1749008619,
				"y": 0.8640942708,
				"z": 0.6866987936,
				"element": "O" 
			},
			{
				"x": -0.0216273719,
				"y": 1.5394358391,
				"z": 0.5890455506,
				"element": "C" 
			},
			{
				"x": 0.1482408038,
				"y": 2.6869536397,
				"z": 0.931003781,
				"element": "O" 
			},
			{
				"x": 1.0577031951,
				"y": 0.6792705663,
				"z": -0.016388204,
				"element": "C" 
			},
			{
				"x": 1.4364083851,
				"y": 0.7919844495,
				"z": -1.3552223895,
				"element": "C" 
			},
			{
				"x": 0.598323828,
				"y": 1.8996391165,
				"z": -2.4154872128,
				"element": "Cl" 
			},
			{
				"x": 2.4743485182,
				"y": 0.0161896651,
				"z": -1.8685923854,
				"element": "C" 
			},
			{
				"x": 3.1277643091,
				"y": -0.8731134843,
				"z": -1.0133106865,
				"element": "C" 
			},
			{
				"x": 4.2593361646,
				"y": -1.7466505743,
				"z": -1.4852861533,
				"element": "C" 
			},
			{
				"x": 2.7776708095,
				"y": -0.994162356,
				"z": 0.2807997049,
				"element": "N" 
			},
			{
				"x": 1.7930292373,
				"y": -0.2504611649,
				"z": 0.7373163119,
				"element": "C" 
			},
			{
				"x": 1.396451579,
				"y": -0.4514737564,
				"z": 2.4410463569,
				"element": "Cl" 
			},
			{
				"x": -3.748827615,
				"y": 0.3471982313,
				"z": 0.2945161438,
				"element": "H" 
			},
			{
				"x": -4.333402783,
				"y": 1.1645030999,
				"z": 1.7565567221,
				"element": "H" 
			},
			{
				"x": -3.2605064342,
				"y": -0.2418955814,
				"z": 1.8954713546,
				"element": "H" 
			},
			{
				"x": -2.4673308798,
				"y": 2.4900476854,
				"z": 0.6969082423,
				"element": "H" 
			},
			{
				"x": -1.9829128046,
				"y": 1.9030148238,
				"z": 2.2922032868,
				"element": "H" 
			},
			{
				"x": 2.7612019241,
				"y": 0.1052498529,
				"z": -2.9094158824,
				"element": "H" 
			},
			{
				"x": 5.1667128191,
				"y": -1.5288030421,
				"z": -0.9130261577,
				"element": "H" 
			},
			{
				"x": 4.4688589339,
				"y": -1.5992380057,
				"z": -2.5471416702,
				"element": "H" 
			},
			{
				"x": 4.0178294887,
				"y": -2.8004594459,
				"z": -1.3147748635,
				"element": "H" 
			}
		],
		 "valence_orbital": [ 
			{
				"type": "occ",
				"energy": -0.3082,
				"method": "rhf"
			},
			{
				"type": "occ",
				"energy": -0.30027,
				"method": "rhf"
			},
			{
				"type": "occ",
				"energy": -0.28589,
				"method": "rhf"
			},
			{
				"type": "occ",
				"energy": -0.27846,
				"method": "rhf"
			},
			{
				"type": "occ",
				"energy": -0.26376,
				"method": "rhf"
			},
			{
				"type": "unocc",
				"energy": -0.05027,
				"method": "rhf"
			},
			{
				"type": "unocc",
				"energy": -0.03726,
				"method": "rhf"
			},
			{
				"type": "unocc",
				"energy": -0.00322,
				"method": "rhf"
			},
			{
				"type": "unocc",
				"energy": 0.00166,
				"method": "rhf"
			},
			{
				"type": "unocc",
				"energy": 0.04504,
				"method": "rhf"
			}
		],
		"cosmo_sigma_profile": { 
			"-0.025": 0.0,
			"-0.024": 0.0,
			"-0.023": 0.0,
			"-0.022": 0.0,
			"-0.021": 0.0,
			"-0.02": 0.0,
			"-0.019": 0.0,
			"-0.018": 0.0,
			"-0.017": 0.0,
			"-0.016": 0.0,
			"-0.015": 0.0,
			"-0.014": 0.0,
			"-0.013": 0.0,
			"-0.012": 0.0,
			"-0.011": 0.0,
			"-0.01": 0.0,
			"-0.009": 1.05392434906,
			"-0.008": 2.65259859113,
			"-0.007": 2.80972571241,
			"-0.006": 7.57845072056,
			"-0.005": 14.2217835208,
			"-0.004": 20.9296296143,
			"-0.003": 24.6300263926,
			"-0.002": 31.3271742524,
			"-0.001": 31.8542713941,
			"0.0": 21.2858637749,
			"0.001": 18.7579976856,
			"0.002": 17.3634197522,
			"0.003": 18.14852836,
			"0.004": 11.7969965799,
			"0.005": 5.90378915701,
			"0.006": 4.57608377263,
			"0.007": 3.55488682653,
			"0.008": 3.94167240705,
			"0.009": 3.17465041386,
			"0.01": 3.54057029521,
			"0.011": 5.33116897915,
			"0.012": 1.35155506284,
			"0.013": 0.736218262144,
			"0.014": 0.0772370346422,
			"0.015": 0.0,
			"0.016": 0.0,
			"0.017": 0.0,
			"0.018": 0.0,
			"0.019": 0.0,
			"0.02": 0.0,
			"0.021": 0.0,
			"0.022": 0.0,
			"0.023": 0.0,
			"0.024": 0.0,
			"0.025": 0.0
		}
	}
}
