{
	 "smiles": "ClC1=C(C=CC=C1)N=C=O", 
	 "Tm": 303.65, 
	 "num_atms": 14, 
	 "gaussian": { 
		 "optdone": 1, 
		 "sigma_profile": "yes", 
		 "theory": "DFT", 
		 "functional": "B3LYP", 
		 "basiset": "6-31G**", 
		 "properties": { 
			 "R2extent": 2461.3958, 
			 "electric_dipole_moment_norm": 3.3496318141, 
			 "electric_quadrupole_moment_norm": 7.61476771609, 
			 "total_energy": -859.321254363, 
			 "HOMO_LUMO_gap": 0.20964, 
			 "cosmo_polarized_energy": -4.59, 
			 "cosmo_cavitation_energy": 21.27, 
			 "cosmo_dispersion_energy": -15.69, 
			 "cosmo_repulsion_energy": 1.27, 
			 "cosmo_total_nonelectrostatic_energy": 6.85, 
			 "SMD_solvation_energy": 5.52 
		},
		"coords": [
			{
				"x": -1.097516224,
				"y": 0.4030523286,
				"z": 1.9403169347,
				"element": "Cl" 
			},
			{
				"x": 0.4595077889,
				"y": 0.6391213193,
				"z": 1.1726984204,
				"element": "C" 
			},
			{
				"x": 0.7619053483,
				"y": 1.8710981598,
				"z": 0.5588162841,
				"element": "C" 
			},
			{
				"x": 2.0191441176,
				"y": 2.0224327665,
				"z": -0.0455374975,
				"element": "C" 
			},
			{
				"x": 2.944261374,
				"y": 0.9836481759,
				"z": -0.0396338246,
				"element": "C" 
			},
			{
				"x": 2.6299886137,
				"y": -0.2311491056,
				"z": 0.5725691781,
				"element": "C" 
			},
			{
				"x": 1.3860717951,
				"y": -0.4017833975,
				"z": 1.17879662,
				"element": "C" 
			},
			{
				"x": -0.1140823702,
				"y": 2.9459082811,
				"z": 0.5174399897,
				"element": "N" 
			},
			{
				"x": -1.2284334578,
				"y": 3.2640447916,
				"z": 0.8758793918,
				"element": "C" 
			},
			{
				"x": -2.2739498451,
				"y": 3.7288212182,
				"z": 1.1470340145,
				"element": "O" 
			},
			{
				"x": 2.2445924469,
				"y": 2.9733617108,
				"z": -0.5158495753,
				"element": "H" 
			},
			{
				"x": 3.9106065693,
				"y": 1.1238803293,
				"z": -0.5135262335,
				"element": "H" 
			},
			{
				"x": 3.3466227976,
				"y": -1.0461397461,
				"z": 0.5811649153,
				"element": "H" 
			},
			{
				"x": 1.1243810457,
				"y": -1.3380968317,
				"z": 1.6591313822,
				"element": "H" 
			}
		],
		 "valence_orbital": [ 
			{
				"type": "occ",
				"energy": -0.3341,
				"method": "rhf"
			},
			{
				"type": "occ",
				"energy": -0.3278,
				"method": "rhf"
			},
			{
				"type": "occ",
				"energy": -0.31432,
				"method": "rhf"
			},
			{
				"type": "occ",
				"energy": -0.26355,
				"method": "rhf"
			},
			{
				"type": "occ",
				"energy": -0.24292,
				"method": "rhf"
			},
			{
				"type": "unocc",
				"energy": -0.03328,
				"method": "rhf"
			},
			{
				"type": "unocc",
				"energy": -0.02374,
				"method": "rhf"
			},
			{
				"type": "unocc",
				"energy": 0.00353,
				"method": "rhf"
			},
			{
				"type": "unocc",
				"energy": 0.03291,
				"method": "rhf"
			},
			{
				"type": "unocc",
				"energy": 0.07238,
				"method": "rhf"
			}
		],
		"cosmo_sigma_profile": { 
			"-0.025": 0.0,
			"-0.024": 0.0,
			"-0.023": 0.0,
			"-0.022": 0.0,
			"-0.021": 0.0,
			"-0.02": 0.0,
			"-0.019": 0.0,
			"-0.018": 0.0,
			"-0.017": 0.0,
			"-0.016": 0.0,
			"-0.015": 0.0,
			"-0.014": 0.0,
			"-0.013": 0.0,
			"-0.012": 0.0,
			"-0.011": 0.0,
			"-0.01": 0.0,
			"-0.009": 0.0,
			"-0.008": 0.832620945046,
			"-0.007": 6.46768317298,
			"-0.006": 8.51682034521,
			"-0.005": 8.65492242148,
			"-0.004": 9.38991978416,
			"-0.003": 14.08846394,
			"-0.002": 12.0488898348,
			"-0.001": 12.1131462491,
			"0.0": 16.4017383598,
			"0.001": 20.493850022,
			"0.002": 19.4591822874,
			"0.003": 19.6611063298,
			"0.004": 12.1558824774,
			"0.005": 2.44498168644,
			"0.006": 3.26542495486,
			"0.007": 7.30989048509,
			"0.008": 1.44492676637,
			"0.009": 0.0,
			"0.01": 0.0,
			"0.011": 0.0,
			"0.012": 0.0,
			"0.013": 0.0,
			"0.014": 0.0,
			"0.015": 0.0,
			"0.016": 0.0,
			"0.017": 0.0,
			"0.018": 0.0,
			"0.019": 0.0,
			"0.02": 0.0,
			"0.021": 0.0,
			"0.022": 0.0,
			"0.023": 0.0,
			"0.024": 0.0,
			"0.025": 0.0
		}
	}
}
