{
	 "smiles": "NC1=NC(=O)C(O1)C1=CC=CC=C1", 
	 "Tm": 529.15, 
	 "num_atms": 21, 
	 "gaussian": { 
		 "optdone": 1, 
		 "sigma_profile": "yes", 
		 "theory": "DFT", 
		 "functional": "B3LYP", 
		 "basiset": "6-31G**", 
		 "properties": { 
			 "R2extent": 2618.5797, 
			 "electric_dipole_moment_norm": 5.392669734, 
			 "electric_quadrupole_moment_norm": 21.6109051856, 
			 "total_energy": -607.739209676, 
			 "HOMO_LUMO_gap": 0.21701, 
			 "cosmo_polarized_energy": -19.25, 
			 "cosmo_cavitation_energy": 25.66, 
			 "cosmo_dispersion_energy": -19.01, 
			 "cosmo_repulsion_energy": 1.52, 
			 "cosmo_total_nonelectrostatic_energy": 8.17, 
			 "SMD_solvation_energy": 3.5 
		},
		"coords": [
			{
				"x": -0.2294872267,
				"y": -1.4206071155,
				"z": 2.7044162289,
				"element": "N" 
			},
			{
				"x": -0.558205358,
				"y": -0.5172383851,
				"z": 1.7709233276,
				"element": "C" 
			},
			{
				"x": -1.7355299422,
				"y": 0.0194415059,
				"z": 1.6149242633,
				"element": "N" 
			},
			{
				"x": -1.6027664217,
				"y": 0.8966503188,
				"z": 0.5429890083,
				"element": "C" 
			},
			{
				"x": -2.4477737669,
				"y": 1.6252075439,
				"z": 0.070186248,
				"element": "O" 
			},
			{
				"x": -0.1308856817,
				"y": 0.8105253357,
				"z": 0.035241704,
				"element": "C" 
			},
			{
				"x": 0.4524062308,
				"y": -0.1503059057,
				"z": 0.9476480807,
				"element": "O" 
			},
			{
				"x": 0.0175656612,
				"y": 0.3909412193,
				"z": -1.4100882091,
				"element": "C" 
			},
			{
				"x": -0.5867537718,
				"y": 1.1754015456,
				"z": -2.4026361393,
				"element": "C" 
			},
			{
				"x": -0.4586424873,
				"y": 0.82306753,
				"z": -3.7452287558,
				"element": "C" 
			},
			{
				"x": 0.2731667196,
				"y": -0.3092325394,
				"z": -4.111272139,
				"element": "C" 
			},
			{
				"x": 0.87404776,
				"y": -1.0903889212,
				"z": -3.1242691684,
				"element": "C" 
			},
			{
				"x": 0.7484658982,
				"y": -0.7431187454,
				"z": -1.777394111,
				"element": "C" 
			},
			{
				"x": 0.7034071025,
				"y": -1.795726173,
				"z": 2.746065892,
				"element": "H" 
			},
			{
				"x": -0.9410032209,
				"y": -1.7398265202,
				"z": 3.3402967072,
				"element": "H" 
			},
			{
				"x": 0.3634678205,
				"y": 1.7718634494,
				"z": 0.2170915548,
				"element": "H" 
			},
			{
				"x": -1.1761969807,
				"y": 2.0393189584,
				"z": -2.113977222,
				"element": "H" 
			},
			{
				"x": -0.9351844899,
				"y": 1.4334924232,
				"z": -4.5069085577,
				"element": "H" 
			},
			{
				"x": 0.3728119057,
				"y": -0.5801175454,
				"z": -5.1584053695,
				"element": "H" 
			},
			{
				"x": 1.4441249718,
				"y": -1.9733314854,
				"z": -3.3994304766,
				"element": "H" 
			},
			{
				"x": 1.2188652774,
				"y": -1.3496164938,
				"z": -1.0114728663,
				"element": "H" 
			}
		],
		 "valence_orbital": [ 
			{
				"type": "occ",
				"energy": -0.29903,
				"method": "rhf"
			},
			{
				"type": "occ",
				"energy": -0.26162,
				"method": "rhf"
			},
			{
				"type": "occ",
				"energy": -0.26047,
				"method": "rhf"
			},
			{
				"type": "occ",
				"energy": -0.24942,
				"method": "rhf"
			},
			{
				"type": "occ",
				"energy": -0.23471,
				"method": "rhf"
			},
			{
				"type": "unocc",
				"energy": -0.0177,
				"method": "rhf"
			},
			{
				"type": "unocc",
				"energy": -0.00157,
				"method": "rhf"
			},
			{
				"type": "unocc",
				"energy": -0.00047,
				"method": "rhf"
			},
			{
				"type": "unocc",
				"energy": 0.05422,
				"method": "rhf"
			},
			{
				"type": "unocc",
				"energy": 0.07264,
				"method": "rhf"
			}
		],
		"cosmo_sigma_profile": { 
			"-0.025": 0.0,
			"-0.024": 0.0,
			"-0.023": 0.0,
			"-0.022": 0.0,
			"-0.021": 0.0,
			"-0.02": 0.0,
			"-0.019": 0.0,
			"-0.018": 0.0,
			"-0.017": 0.349402366587,
			"-0.016": 2.28516497682,
			"-0.015": 2.68234579889,
			"-0.014": 2.13257017053,
			"-0.013": 1.99891785445,
			"-0.012": 1.98270060695,
			"-0.011": 1.9816890121,
			"-0.01": 1.83010041556,
			"-0.009": 3.04319746225,
			"-0.008": 4.49418666985,
			"-0.007": 3.74174421104,
			"-0.006": 7.73493180433,
			"-0.005": 11.8842585446,
			"-0.004": 14.9118644338,
			"-0.003": 14.7203684523,
			"-0.002": 12.417229411,
			"-0.001": 13.0035869574,
			"0.0": 11.4173080369,
			"0.001": 11.4053113572,
			"0.002": 11.7720804316,
			"0.003": 9.95011901583,
			"0.004": 10.5452944727,
			"0.005": 12.4744152247,
			"0.006": 7.73911450673,
			"0.007": 2.55516538632,
			"0.008": 2.51659467693,
			"0.009": 2.37690115964,
			"0.01": 3.14442599457,
			"0.011": 3.03184974087,
			"0.012": 6.20252385342,
			"0.013": 4.859056836,
			"0.014": 2.58277514452,
			"0.015": 1.30565262541,
			"0.016": 0.284618244212,
			"0.017": 0.0,
			"0.018": 0.0,
			"0.019": 0.0,
			"0.02": 0.0,
			"0.021": 0.0,
			"0.022": 0.0,
			"0.023": 0.0,
			"0.024": 0.0,
			"0.025": 0.0
		}
	}
}
