{
	 "smiles": "CN1CCN(CC1)C1=C2C=CC=CC2=NC2=C(N1)C=C(Cl)C=C2", 
	 "Tm": 458.15, 
	 "num_atms": 42, 
	 "gaussian": { 
		 "optdone": 1, 
		 "sigma_profile": "yes", 
		 "theory": "DFT", 
		 "functional": "B3LYP", 
		 "basiset": "6-31G**", 
		 "properties": { 
			 "R2extent": 10232.5268, 
			 "electric_dipole_moment_norm": 7.09662052177, 
			 "electric_quadrupole_moment_norm": 9.70994292105, 
			 "total_energy": -1376.50375172, 
			 "HOMO_LUMO_gap": 0.1013, 
			 "cosmo_polarized_energy": -20.25, 
			 "cosmo_cavitation_energy": 44.47, 
			 "cosmo_dispersion_energy": -31.9, 
			 "cosmo_repulsion_energy": 2.4, 
			 "cosmo_total_nonelectrostatic_energy": 14.96, 
			 "SMD_solvation_energy": 2.04 
		},
		"coords": [
			{
				"x": 0.5208700501,
				"y": 1.8651322388,
				"z": 5.0216832653,
				"element": "C" 
			},
			{
				"x": 0.2785042983,
				"y": 0.7920580557,
				"z": 4.0688045363,
				"element": "N" 
			},
			{
				"x": -0.7698906648,
				"y": 1.0837229728,
				"z": 3.0744014616,
				"element": "C" 
			},
			{
				"x": -0.2100946105,
				"y": 1.4197013558,
				"z": 1.6873548591,
				"element": "C" 
			},
			{
				"x": 0.5786224933,
				"y": 0.2732148203,
				"z": 1.1868427155,
				"element": "N" 
			},
			{
				"x": 1.2169589183,
				"y": -0.5435998022,
				"z": 2.2352978704,
				"element": "C" 
			},
			{
				"x": 1.5198614772,
				"y": 0.3269860623,
				"z": 3.4505178746,
				"element": "C" 
			},
			{
				"x": 0.4724626669,
				"y": -0.1950626244,
				"z": -0.1032611587,
				"element": "C" 
			},
			{
				"x": 0.2577601532,
				"y": 0.660893391,
				"z": -1.2045045202,
				"element": "C" 
			},
			{
				"x": 0.5690261645,
				"y": 2.0601419741,
				"z": -1.0839666191,
				"element": "C" 
			},
			{
				"x": 0.0211612116,
				"y": 2.9976733955,
				"z": -1.9114372616,
				"element": "C" 
			},
			{
				"x": -0.9317738124,
				"y": 2.575808506,
				"z": -2.8935839097,
				"element": "C" 
			},
			{
				"x": -1.188554897,
				"y": 1.2521892173,
				"z": -3.1031109931,
				"element": "C" 
			},
			{
				"x": -0.4747465205,
				"y": 0.2023519015,
				"z": -2.3996356328,
				"element": "C" 
			},
			{
				"x": -0.5533750338,
				"y": -0.9963836803,
				"z": -2.9409062395,
				"element": "N" 
			},
			{
				"x": 0.3116970942,
				"y": -2.0335675025,
				"z": -2.6339273985,
				"element": "C" 
			},
			{
				"x": 0.9135195811,
				"y": -2.2934061998,
				"z": -1.3854961776,
				"element": "C" 
			},
			{
				"x": 0.5295513705,
				"y": -1.5481292002,
				"z": -0.2235906883,
				"element": "N" 
			},
			{
				"x": 1.8039442218,
				"y": -3.350412831,
				"z": -1.2022173001,
				"element": "C" 
			},
			{
				"x": 2.0956204568,
				"y": -4.1999416132,
				"z": -2.2686106311,
				"element": "C" 
			},
			{
				"x": 3.201470682,
				"y": -5.5478805012,
				"z": -2.0216274527,
				"element": "Cl" 
			},
			{
				"x": 1.5033999938,
				"y": -3.9963051989,
				"z": -3.5131527305,
				"element": "C" 
			},
			{
				"x": 0.6282154462,
				"y": -2.927111964,
				"z": -3.6791837411,
				"element": "C" 
			},
			{
				"x": -0.4075621784,
				"y": 2.1213258335,
				"z": 5.5403030629,
				"element": "H" 
			},
			{
				"x": 1.2388427232,
				"y": 1.5255140204,
				"z": 5.7760224683,
				"element": "H" 
			},
			{
				"x": 0.9291602147,
				"y": 2.7871653738,
				"z": 4.564523089,
				"element": "H" 
			},
			{
				"x": -1.374682012,
				"y": 1.9272603593,
				"z": 3.4212498344,
				"element": "H" 
			},
			{
				"x": -1.4490689255,
				"y": 0.2245288483,
				"z": 2.9862986208,
				"element": "H" 
			},
			{
				"x": -1.0170842576,
				"y": 1.6201405226,
				"z": 0.9810166215,
				"element": "H" 
			},
			{
				"x": 0.4039070531,
				"y": 2.3253692402,
				"z": 1.7472682992,
				"element": "H" 
			},
			{
				"x": 0.5721437731,
				"y": -1.3729949495,
				"z": 2.5673796609,
				"element": "H" 
			},
			{
				"x": 2.1402069663,
				"y": -0.9726064059,
				"z": 1.8367171003,
				"element": "H" 
			},
			{
				"x": 2.1753435085,
				"y": 1.1603999713,
				"z": 3.1315184277,
				"element": "H" 
			},
			{
				"x": 2.0895709454,
				"y": -0.2621438381,
				"z": 4.1796030325,
				"element": "H" 
			},
			{
				"x": 1.2754886259,
				"y": 2.3605874291,
				"z": -0.3157874542,
				"element": "H" 
			},
			{
				"x": 0.2901952537,
				"y": 4.0452437699,
				"z": -1.8231821835,
				"element": "H" 
			},
			{
				"x": -1.4312854138,
				"y": 3.3226624087,
				"z": -3.5059411437,
				"element": "H" 
			},
			{
				"x": -1.8545184813,
				"y": 0.9208411947,
				"z": -3.8934240761,
				"element": "H" 
			},
			{
				"x": 0.3190259064,
				"y": -2.0956891715,
				"z": 0.5978060659,
				"element": "H" 
			},
			{
				"x": 2.2501348386,
				"y": -3.5235188806,
				"z": -0.227809609,
				"element": "H" 
			},
			{
				"x": 1.7205679948,
				"y": -4.6671138664,
				"z": -4.3371900393,
				"element": "H" 
			},
			{
				"x": 0.1483027243,
				"y": -2.7508446331,
				"z": -4.6360619057,
				"element": "H" 
			}
		],
		 "valence_orbital": [ 
			{
				"type": "occ",
				"energy": -0.23903,
				"method": "rhf"
			},
			{
				"type": "occ",
				"energy": -0.23599,
				"method": "rhf"
			},
			{
				"type": "occ",
				"energy": -0.2262,
				"method": "rhf"
			},
			{
				"type": "occ",
				"energy": -0.2174,
				"method": "rhf"
			},
			{
				"type": "occ",
				"energy": -0.16015,
				"method": "rhf"
			},
			{
				"type": "unocc",
				"energy": -0.05885,
				"method": "rhf"
			},
			{
				"type": "unocc",
				"energy": -0.00507,
				"method": "rhf"
			},
			{
				"type": "unocc",
				"energy": 0.00586,
				"method": "rhf"
			},
			{
				"type": "unocc",
				"energy": 0.037,
				"method": "rhf"
			},
			{
				"type": "unocc",
				"energy": 0.04624,
				"method": "rhf"
			}
		],
		"cosmo_sigma_profile": { 
			"-0.025": 0.0,
			"-0.024": 0.0,
			"-0.023": 0.0,
			"-0.022": 0.0,
			"-0.021": 0.0,
			"-0.02": 0.0,
			"-0.019": 0.0,
			"-0.018": 0.0,
			"-0.017": 0.0,
			"-0.016": 0.0200395462573,
			"-0.015": 0.680535282654,
			"-0.014": 1.27996787814,
			"-0.013": 1.26778529914,
			"-0.012": 1.20174960487,
			"-0.011": 1.78995883655,
			"-0.01": 1.66311968712,
			"-0.009": 1.70570124258,
			"-0.008": 1.96521898444,
			"-0.007": 4.36698081189,
			"-0.006": 11.7551006112,
			"-0.005": 23.2046873883,
			"-0.004": 39.2290266531,
			"-0.003": 34.3078987281,
			"-0.002": 29.3704179053,
			"-0.001": 27.9449957443,
			"0.0": 23.4674402566,
			"0.001": 16.1508051041,
			"0.002": 18.176166591,
			"0.003": 22.7117807798,
			"0.004": 28.5174499681,
			"0.005": 28.1901432313,
			"0.006": 13.0760084069,
			"0.007": 4.72432589537,
			"0.008": 3.20761738052,
			"0.009": 1.69263241937,
			"0.01": 2.31128552543,
			"0.011": 2.46036571836,
			"0.012": 1.52515905975,
			"0.013": 1.7261055291,
			"0.014": 1.6170471765,
			"0.015": 0.937864046729,
			"0.016": 0.983387262506,
			"0.017": 0.692061480999,
			"0.018": 0.303051504839,
			"0.019": 0.0,
			"0.02": 0.0,
			"0.021": 0.0,
			"0.022": 0.0,
			"0.023": 0.0,
			"0.024": 0.0,
			"0.025": 0.0
		}
	}
}
