{
	 "smiles": "CC(C)(NO)C=NO", 
	 "Tm": 372.15, 
	 "num_atms": 18, 
	 "gaussian": { 
		 "optdone": 1, 
		 "sigma_profile": "yes", 
		 "theory": "DFT", 
		 "functional": "B3LYP", 
		 "basiset": "6-31G**", 
		 "properties": { 
			 "R2extent": 1169.9325, 
			 "electric_dipole_moment_norm": 3.61113363641, 
			 "electric_quadrupole_moment_norm": 13.9023732888, 
			 "total_energy": -418.2778222, 
			 "HOMO_LUMO_gap": 0.23827, 
			 "cosmo_polarized_energy": -13.46, 
			 "cosmo_cavitation_energy": 20.54, 
			 "cosmo_dispersion_energy": -14.87, 
			 "cosmo_repulsion_energy": 1.24, 
			 "cosmo_total_nonelectrostatic_energy": 6.9, 
			 "SMD_solvation_energy": 4.6 
		},
		"coords": [
			{
				"x": -1.0121407802,
				"y": -0.4274947279,
				"z": -0.890937142,
				"element": "C" 
			},
			{
				"x": 0.158865918,
				"y": 0.3880702919,
				"z": -0.3091101011,
				"element": "C" 
			},
			{
				"x": -0.3557308946,
				"y": 1.5664287252,
				"z": 0.5327966505,
				"element": "C" 
			},
			{
				"x": 1.0147502445,
				"y": 0.8485410448,
				"z": -1.4414192829,
				"element": "N" 
			},
			{
				"x": 0.2796935739,
				"y": 1.7713083368,
				"z": -2.2652834624,
				"element": "O" 
			},
			{
				"x": 1.0325076518,
				"y": -0.5287452818,
				"z": 0.5475682443,
				"element": "C" 
			},
			{
				"x": 1.8546919701,
				"y": -1.444820784,
				"z": 0.18502851,
				"element": "N" 
			},
			{
				"x": 2.074307065,
				"y": -1.6268879621,
				"z": -1.1665989094,
				"element": "O" 
			},
			{
				"x": -1.619286644,
				"y": 0.2021290168,
				"z": -1.5468281361,
				"element": "H" 
			},
			{
				"x": -0.6405052563,
				"y": -1.2857613888,
				"z": -1.457177375,
				"element": "H" 
			},
			{
				"x": -1.6478902232,
				"y": -0.8003421705,
				"z": -0.0839303414,
				"element": "H" 
			},
			{
				"x": 0.4767026549,
				"y": 2.1251100569,
				"z": 0.9757925542,
				"element": "H" 
			},
			{
				"x": -0.9928286897,
				"y": 1.2103974448,
				"z": 1.3484060836,
				"element": "H" 
			},
			{
				"x": -0.9381433184,
				"y": 2.2475376727,
				"z": -0.0911855745,
				"element": "H" 
			},
			{
				"x": 1.7661617583,
				"y": 1.4212316258,
				"z": -1.0531551935,
				"element": "H" 
			},
			{
				"x": 0.2592755654,
				"y": 1.3255073365,
				"z": -3.1228653238,
				"element": "H" 
			},
			{
				"x": 0.9109791788,
				"y": -0.4541624085,
				"z": 1.6273108576,
				"element": "H" 
			},
			{
				"x": 1.7172902257,
				"y": -0.8342468285,
				"z": -1.638712058,
				"element": "H" 
			}
		],
		 "valence_orbital": [ 
			{
				"type": "occ",
				"energy": -0.35663,
				"method": "rhf"
			},
			{
				"type": "occ",
				"energy": -0.31154,
				"method": "rhf"
			},
			{
				"type": "occ",
				"energy": -0.2909,
				"method": "rhf"
			},
			{
				"type": "occ",
				"energy": -0.25637,
				"method": "rhf"
			},
			{
				"type": "occ",
				"energy": -0.24331,
				"method": "rhf"
			},
			{
				"type": "unocc",
				"energy": -0.00504,
				"method": "rhf"
			},
			{
				"type": "unocc",
				"energy": 0.05057,
				"method": "rhf"
			},
			{
				"type": "unocc",
				"energy": 0.07448,
				"method": "rhf"
			},
			{
				"type": "unocc",
				"energy": 0.11267,
				"method": "rhf"
			},
			{
				"type": "unocc",
				"energy": 0.11998,
				"method": "rhf"
			}
		],
		"cosmo_sigma_profile": { 
			"-0.025": 0.0,
			"-0.024": 0.0,
			"-0.023": 0.0,
			"-0.022": 0.0,
			"-0.021": 0.0,
			"-0.02": 0.0,
			"-0.019": 0.0,
			"-0.018": 0.0,
			"-0.017": 0.31959034591,
			"-0.016": 0.766719868604,
			"-0.015": 0.971547285523,
			"-0.014": 0.743618668858,
			"-0.013": 1.96914594282,
			"-0.012": 1.43427237749,
			"-0.011": 1.23512424969,
			"-0.01": 2.33443583955,
			"-0.009": 2.06511793569,
			"-0.008": 2.69712951305,
			"-0.007": 3.53141806154,
			"-0.006": 4.04383307456,
			"-0.005": 9.68469963564,
			"-0.004": 12.9553328326,
			"-0.003": 15.5107731878,
			"-0.002": 13.0000458715,
			"-0.001": 14.0253154693,
			"0.0": 16.052011135,
			"0.001": 8.15585529529,
			"0.002": 4.09979121061,
			"0.003": 3.53125699895,
			"0.004": 4.07509613148,
			"0.005": 3.08161856184,
			"0.006": 2.58303651617,
			"0.007": 3.78020446224,
			"0.008": 3.22543379652,
			"0.009": 3.06628063134,
			"0.01": 4.54226180918,
			"0.011": 4.42154543789,
			"0.012": 5.13760752341,
			"0.013": 4.21289747986,
			"0.014": 1.42715779618,
			"0.015": 0.779819209635,
			"0.016": 0.0950900401857,
			"0.017": 0.0,
			"0.018": 0.0,
			"0.019": 0.0,
			"0.02": 0.0,
			"0.021": 0.0,
			"0.022": 0.0,
			"0.023": 0.0,
			"0.024": 0.0,
			"0.025": 0.0
		}
	}
}
