{
	 "smiles": "COC1=NC(N)=C2C(N)=NC(OC)=C(C#N)C2=C1", 
	 "Tm": 523.15, 
	 "num_atms": 29, 
	 "gaussian": { 
		 "optdone": 1, 
		 "sigma_profile": "yes", 
		 "theory": "DFT", 
		 "functional": "B3LYP", 
		 "basiset": "6-31G**", 
		 "properties": { 
			 "R2extent": 6311.3396, 
			 "electric_dipole_moment_norm": 8.44165284586, 
			 "electric_quadrupole_moment_norm": 25.4765312772, 
			 "total_energy": -850.015741125, 
			 "HOMO_LUMO_gap": 0.15186, 
			 "cosmo_polarized_energy": -20.91, 
			 "cosmo_cavitation_energy": 34.02, 
			 "cosmo_dispersion_energy": -24.72, 
			 "cosmo_repulsion_energy": 1.93, 
			 "cosmo_total_nonelectrostatic_energy": 11.22, 
			 "SMD_solvation_energy": 7.0 
		},
		"coords": [
			{
				"x": -3.2874759615,
				"y": -2.9727130543,
				"z": -1.3682786576,
				"element": "C" 
			},
			{
				"x": -1.9332088632,
				"y": -3.0074735245,
				"z": -0.9116834981,
				"element": "O" 
			},
			{
				"x": -1.5384155862,
				"y": -2.0710075274,
				"z": -0.0270799074,
				"element": "C" 
			},
			{
				"x": -2.4379362578,
				"y": -1.1521650722,
				"z": 0.3699273798,
				"element": "N" 
			},
			{
				"x": -2.061752914,
				"y": -0.2467145058,
				"z": 1.2638528113,
				"element": "C" 
			},
			{
				"x": -3.0359845387,
				"y": 0.6849015588,
				"z": 1.6144345709,
				"element": "N" 
			},
			{
				"x": -0.759967931,
				"y": -0.2270725133,
				"z": 1.8555683541,
				"element": "C" 
			},
			{
				"x": -0.3405133557,
				"y": 0.6348314447,
				"z": 2.9209107515,
				"element": "C" 
			},
			{
				"x": -1.2177066261,
				"y": 1.4877403253,
				"z": 3.5521154648,
				"element": "N" 
			},
			{
				"x": 0.914482598,
				"y": 0.6848380766,
				"z": 3.3631613023,
				"element": "N" 
			},
			{
				"x": 1.8235312558,
				"y": -0.1375498174,
				"z": 2.8247493117,
				"element": "C" 
			},
			{
				"x": 3.0912567226,
				"y": -0.0602258549,
				"z": 3.2557955036,
				"element": "O" 
			},
			{
				"x": 3.4052366942,
				"y": 0.9040850252,
				"z": 4.2662343187,
				"element": "C" 
			},
			{
				"x": 1.5351023336,
				"y": -1.102854528,
				"z": 1.8530705001,
				"element": "C" 
			},
			{
				"x": 2.5412362565,
				"y": -1.988607318,
				"z": 1.3797556223,
				"element": "C" 
			},
			{
				"x": 3.3397647483,
				"y": -2.7311628067,
				"z": 0.9687302794,
				"element": "N" 
			},
			{
				"x": 0.198135794,
				"y": -1.1671233992,
				"z": 1.3485746714,
				"element": "C" 
			},
			{
				"x": -0.2153715538,
				"y": -2.1049388653,
				"z": 0.3888704042,
				"element": "C" 
			},
			{
				"x": -3.5085630426,
				"y": -2.0332584603,
				"z": -1.8830061674,
				"element": "H" 
			},
			{
				"x": -3.3777298235,
				"y": -3.8112626603,
				"z": -2.0599313084,
				"element": "H" 
			},
			{
				"x": -3.989794698,
				"y": -3.0912936784,
				"z": -0.5382369084,
				"element": "H" 
			},
			{
				"x": -2.7046030901,
				"y": 1.6372894176,
				"z": 1.7148433386,
				"element": "H" 
			},
			{
				"x": -3.8421143842,
				"y": 0.6086081085,
				"z": 1.005198101,
				"element": "H" 
			},
			{
				"x": -0.83070616,
				"y": 1.896808183,
				"z": 4.3924545415,
				"element": "H" 
			},
			{
				"x": -2.1827547732,
				"y": 1.1887271231,
				"z": 3.6124846893,
				"element": "H" 
			},
			{
				"x": 3.1891373547,
				"y": 1.9191485257,
				"z": 3.9226503499,
				"element": "H" 
			},
			{
				"x": 2.8396689423,
				"y": 0.7123391571,
				"z": 5.1819672413,
				"element": "H" 
			},
			{
				"x": 4.4735327327,
				"y": 0.7849448769,
				"z": 4.4482982084,
				"element": "H" 
			},
			{
				"x": 0.4682141271,
				"y": -2.8414382369,
				"z": -0.0134312687,
				"element": "H" 
			}
		],
		 "valence_orbital": [ 
			{
				"type": "occ",
				"energy": -0.28419,
				"method": "rhf"
			},
			{
				"type": "occ",
				"energy": -0.27974,
				"method": "rhf"
			},
			{
				"type": "occ",
				"energy": -0.27388,
				"method": "rhf"
			},
			{
				"type": "occ",
				"energy": -0.23566,
				"method": "rhf"
			},
			{
				"type": "occ",
				"energy": -0.20372,
				"method": "rhf"
			},
			{
				"type": "unocc",
				"energy": -0.05186,
				"method": "rhf"
			},
			{
				"type": "unocc",
				"energy": -0.02042,
				"method": "rhf"
			},
			{
				"type": "unocc",
				"energy": 0.00793,
				"method": "rhf"
			},
			{
				"type": "unocc",
				"energy": 0.05254,
				"method": "rhf"
			},
			{
				"type": "unocc",
				"energy": 0.0676,
				"method": "rhf"
			}
		],
		"cosmo_sigma_profile": { 
			"-0.025": 0.0,
			"-0.024": 0.0,
			"-0.023": 0.0,
			"-0.022": 0.0,
			"-0.021": 0.0,
			"-0.02": 0.0,
			"-0.019": 0.0,
			"-0.018": 0.0,
			"-0.017": 0.0,
			"-0.016": 0.0,
			"-0.015": 0.0,
			"-0.014": 0.495507617454,
			"-0.013": 2.12279514719,
			"-0.012": 4.15488256584,
			"-0.011": 4.71832094365,
			"-0.01": 5.15036103957,
			"-0.009": 4.35864507429,
			"-0.008": 3.37406358151,
			"-0.007": 4.5855325828,
			"-0.006": 8.68170569958,
			"-0.005": 15.6288393415,
			"-0.004": 18.0296832045,
			"-0.003": 21.628121245,
			"-0.002": 16.1055100014,
			"-0.001": 20.1474944569,
			"0.0": 21.0278288087,
			"0.001": 22.7472431757,
			"0.002": 15.4165060161,
			"0.003": 14.5150323356,
			"0.004": 11.726574631,
			"0.005": 9.20430061794,
			"0.006": 9.24956272486,
			"0.007": 8.68352977245,
			"0.008": 9.31918072543,
			"0.009": 6.48120707147,
			"0.01": 4.28175439614,
			"0.011": 3.56352523602,
			"0.012": 2.65554740351,
			"0.013": 2.58323985523,
			"0.014": 1.4625397847,
			"0.015": 0.0,
			"0.016": 0.0,
			"0.017": 0.0,
			"0.018": 0.0,
			"0.019": 0.0,
			"0.02": 0.0,
			"0.021": 0.0,
			"0.022": 0.0,
			"0.023": 0.0,
			"0.024": 0.0,
			"0.025": 0.0
		}
	}
}
