{
	 "smiles": "COC1=C(C=CC=C1)N1CCN(CC(N)=S)CC1", 
	 "Tm": 404.15, 
	 "num_atms": 37, 
	 "gaussian": { 
		 "optdone": 1, 
		 "sigma_profile": "yes", 
		 "theory": "DFT", 
		 "functional": "B3LYP", 
		 "basiset": "6-31G**", 
		 "properties": { 
			 "R2extent": 7781.024, 
			 "electric_dipole_moment_norm": 5.58219835549, 
			 "electric_quadrupole_moment_norm": 23.3835027207, 
			 "total_energy": -1144.46486222, 
			 "HOMO_LUMO_gap": 0.17713, 
			 "cosmo_polarized_energy": -17.96, 
			 "cosmo_cavitation_energy": 39.64, 
			 "cosmo_dispersion_energy": -28.1, 
			 "cosmo_repulsion_energy": 2.13, 
			 "cosmo_total_nonelectrostatic_energy": 13.67, 
			 "SMD_solvation_energy": 5.08 
		},
		"coords": [
			{
				"x": -3.4136785406,
				"y": 0.5244792578,
				"z": -3.5921759253,
				"element": "C" 
			},
			{
				"x": -2.071702444,
				"y": 0.3544021273,
				"z": -4.0576163811,
				"element": "O" 
			},
			{
				"x": -1.2249451078,
				"y": 1.404480083,
				"z": -3.7559079015,
				"element": "C" 
			},
			{
				"x": -0.7123341508,
				"y": 1.5792462778,
				"z": -2.4475067457,
				"element": "C" 
			},
			{
				"x": 0.1518290797,
				"y": 2.666697322,
				"z": -2.2325974008,
				"element": "C" 
			},
			{
				"x": 0.491409995,
				"y": 3.5444713665,
				"z": -3.2631748378,
				"element": "C" 
			},
			{
				"x": -0.0041260454,
				"y": 3.3427173288,
				"z": -4.5502043445,
				"element": "C" 
			},
			{
				"x": -0.8613207904,
				"y": 2.2678255642,
				"z": -4.7880533907,
				"element": "C" 
			},
			{
				"x": -1.0785085719,
				"y": 0.6552079859,
				"z": -1.4362229428,
				"element": "N" 
			},
			{
				"x": -1.0180272534,
				"y": 1.069147692,
				"z": -0.0278760647,
				"element": "C" 
			},
			{
				"x": 0.117587517,
				"y": 0.3829471984,
				"z": 0.7317262599,
				"element": "C" 
			},
			{
				"x": -0.1291127005,
				"y": -1.0708136973,
				"z": 0.7852429754,
				"element": "N" 
			},
			{
				"x": 1.0797912,
				"y": -1.8334466803,
				"z": 1.0896350315,
				"element": "C" 
			},
			{
				"x": 0.7977668215,
				"y": -3.1390601056,
				"z": 1.8360393879,
				"element": "C" 
			},
			{
				"x": -0.3808744702,
				"y": -3.1390385444,
				"z": 2.4697385625,
				"element": "N" 
			},
			{
				"x": 1.9002689813,
				"y": -4.3838051571,
				"z": 1.8831228273,
				"element": "S" 
			},
			{
				"x": -0.8556653095,
				"y": -1.5688924312,
				"z": -0.4096002674,
				"element": "C" 
			},
			{
				"x": -0.6068103962,
				"y": -0.7281879988,
				"z": -1.6606592052,
				"element": "C" 
			},
			{
				"x": -3.8721958033,
				"y": 1.4143871806,
				"z": -4.0421704411,
				"element": "H" 
			},
			{
				"x": -3.4467553014,
				"y": 0.6086553119,
				"z": -2.5008243818,
				"element": "H" 
			},
			{
				"x": -3.9651178872,
				"y": -0.3632413272,
				"z": -3.9100357361,
				"element": "H" 
			},
			{
				"x": 0.5844616626,
				"y": 2.8219177263,
				"z": -1.2495456472,
				"element": "H" 
			},
			{
				"x": 1.1634886709,
				"y": 4.3727718359,
				"z": -3.0581515588,
				"element": "H" 
			},
			{
				"x": 0.2663917305,
				"y": 4.0144777234,
				"z": -5.3590297873,
				"element": "H" 
			},
			{
				"x": -1.2758241583,
				"y": 2.0812989019,
				"z": -5.7740129356,
				"element": "H" 
			},
			{
				"x": -0.9173327449,
				"y": 2.1534396204,
				"z": 0.0340197205,
				"element": "H" 
			},
			{
				"x": -1.9674170678,
				"y": 0.8183546342,
				"z": 0.4666894721,
				"element": "H" 
			},
			{
				"x": 0.1826486931,
				"y": 0.7727125745,
				"z": 1.7554557287,
				"element": "H" 
			},
			{
				"x": 1.0732193125,
				"y": 0.6176857103,
				"z": 0.2320710594,
				"element": "H" 
			},
			{
				"x": 1.6924199652,
				"y": -2.068237117,
				"z": 0.2074421266,
				"element": "H" 
			},
			{
				"x": 1.7114969728,
				"y": -1.2323113088,
				"z": 1.7550898791,
				"element": "H" 
			},
			{
				"x": -0.9778254645,
				"y": -2.3263701478,
				"z": 2.3534053804,
				"element": "H" 
			},
			{
				"x": -0.6569237603,
				"y": -3.9351844301,
				"z": 3.0243843814,
				"element": "H" 
			},
			{
				"x": -0.5527085638,
				"y": -2.602357881,
				"z": -0.6002563826,
				"element": "H" 
			},
			{
				"x": -1.9329289985,
				"y": -1.5887557557,
				"z": -0.2014130443,
				"element": "H" 
			},
			{
				"x": -1.1341546466,
				"y": -1.155691136,
				"z": -2.5173184667,
				"element": "H" 
			},
			{
				"x": 0.4691095751,
				"y": -0.741429705,
				"z": -1.9032090037,
				"element": "H" 
			}
		],
		 "valence_orbital": [ 
			{
				"type": "occ",
				"energy": -0.23986,
				"method": "rhf"
			},
			{
				"type": "occ",
				"energy": -0.23484,
				"method": "rhf"
			},
			{
				"type": "occ",
				"energy": -0.22438,
				"method": "rhf"
			},
			{
				"type": "occ",
				"energy": -0.2031,
				"method": "rhf"
			},
			{
				"type": "occ",
				"energy": -0.20108,
				"method": "rhf"
			},
			{
				"type": "unocc",
				"energy": -0.02395,
				"method": "rhf"
			},
			{
				"type": "unocc",
				"energy": -0.00131,
				"method": "rhf"
			},
			{
				"type": "unocc",
				"energy": 0.00318,
				"method": "rhf"
			},
			{
				"type": "unocc",
				"energy": 0.06309,
				"method": "rhf"
			},
			{
				"type": "unocc",
				"energy": 0.08144,
				"method": "rhf"
			}
		],
		"cosmo_sigma_profile": { 
			"-0.025": 0.0,
			"-0.024": 0.0,
			"-0.023": 0.0,
			"-0.022": 0.0,
			"-0.021": 0.0,
			"-0.02": 0.0,
			"-0.019": 0.0,
			"-0.018": 0.0,
			"-0.017": 0.0,
			"-0.016": 0.0171570365615,
			"-0.015": 0.796914301612,
			"-0.014": 0.980913649878,
			"-0.013": 1.3368535135,
			"-0.012": 1.77556335839,
			"-0.011": 2.06700101413,
			"-0.01": 1.51850137582,
			"-0.009": 1.67959791158,
			"-0.008": 1.46369632033,
			"-0.007": 2.83684560711,
			"-0.006": 7.65786494064,
			"-0.005": 19.8661204575,
			"-0.004": 31.7436004306,
			"-0.003": 42.408005961,
			"-0.002": 35.498871612,
			"-0.001": 24.9318877067,
			"0.0": 16.7278015928,
			"0.001": 15.3174537891,
			"0.002": 14.7179294223,
			"0.003": 13.4683641356,
			"0.004": 13.8815839996,
			"0.005": 12.856335093,
			"0.006": 11.8470026697,
			"0.007": 6.98631498798,
			"0.008": 5.11395513256,
			"0.009": 6.55271447686,
			"0.01": 8.13979298514,
			"0.011": 5.14963550274,
			"0.012": 4.48926451537,
			"0.013": 2.12105880973,
			"0.014": 0.0365858273037,
			"0.015": 0.0,
			"0.016": 0.0,
			"0.017": 0.0,
			"0.018": 0.0,
			"0.019": 0.0,
			"0.02": 0.0,
			"0.021": 0.0,
			"0.022": 0.0,
			"0.023": 0.0,
			"0.024": 0.0,
			"0.025": 0.0
		}
	}
}
