{
	 "smiles": "CC(C)(C(O)=O)C1=CC(Cl)=C(Cl)C=C1", 
	 "Tm": 368.15, 
	 "num_atms": 24, 
	 "gaussian": { 
		 "optdone": 1, 
		 "sigma_profile": "yes", 
		 "theory": "DFT", 
		 "functional": "B3LYP", 
		 "basiset": "6-31G**", 
		 "properties": { 
			 "R2extent": 5185.2199, 
			 "electric_dipole_moment_norm": 3.50204360481, 
			 "electric_quadrupole_moment_norm": 8.75197726917, 
			 "total_energy": -1457.94316648, 
			 "HOMO_LUMO_gap": 0.21913, 
			 "cosmo_polarized_energy": -10.31, 
			 "cosmo_cavitation_energy": 30.9, 
			 "cosmo_dispersion_energy": -22.02, 
			 "cosmo_repulsion_energy": 1.75, 
			 "cosmo_total_nonelectrostatic_energy": 10.63, 
			 "SMD_solvation_energy": 5.92 
		},
		"coords": [
			{
				"x": -2.0588773269,
				"y": 0.5142411587,
				"z": 0.3358325308,
				"element": "C" 
			},
			{
				"x": -0.6416137544,
				"y": 1.0573983217,
				"z": 0.0524867395,
				"element": "C" 
			},
			{
				"x": 0.0435576466,
				"y": 1.4198565472,
				"z": 1.3849958429,
				"element": "C" 
			},
			{
				"x": -0.764477919,
				"y": 2.3158053139,
				"z": -0.8212320837,
				"element": "C" 
			},
			{
				"x": 0.3702669792,
				"y": 3.052866101,
				"z": -0.8296644507,
				"element": "O" 
			},
			{
				"x": -1.7418670949,
				"y": 2.6285315701,
				"z": -1.4667184653,
				"element": "O" 
			},
			{
				"x": 0.1539368346,
				"y": 0.0212588636,
				"z": -0.7678380162,
				"element": "C" 
			},
			{
				"x": -0.2707949708,
				"y": -0.289174522,
				"z": -2.0670629657,
				"element": "C" 
			},
			{
				"x": 0.3927457711,
				"y": -1.2423044328,
				"z": -2.8380781336,
				"element": "C" 
			},
			{
				"x": -0.1927398237,
				"y": -1.570893343,
				"z": -4.4514660694,
				"element": "Cl" 
			},
			{
				"x": 1.5059984417,
				"y": -1.9138839499,
				"z": -2.3147490045,
				"element": "C" 
			},
			{
				"x": 2.3705173185,
				"y": -3.1183626221,
				"z": -3.2372238467,
				"element": "Cl" 
			},
			{
				"x": 1.9363185611,
				"y": -1.6099284394,
				"z": -1.0239008286,
				"element": "C" 
			},
			{
				"x": 1.2706934983,
				"y": -0.6520953185,
				"z": -0.2608828545,
				"element": "C" 
			},
			{
				"x": -1.9894634491,
				"y": -0.4125462268,
				"z": 0.9124657606,
				"element": "H" 
			},
			{
				"x": -2.6391317701,
				"y": 1.2411931582,
				"z": 0.9120081775,
				"element": "H" 
			},
			{
				"x": -2.6034187645,
				"y": 0.312075245,
				"z": -0.5874407659,
				"element": "H" 
			},
			{
				"x": -0.5279004703,
				"y": 2.1999852326,
				"z": 1.8964284032,
				"element": "H" 
			},
			{
				"x": 1.059669472,
				"y": 1.7898028484,
				"z": 1.2368050462,
				"element": "H" 
			},
			{
				"x": 0.0742138072,
				"y": 0.5489923764,
				"z": 2.0464232581,
				"element": "H" 
			},
			{
				"x": 0.2037061335,
				"y": 3.7963976283,
				"z": -1.4334740817,
				"element": "H" 
			},
			{
				"x": -1.1246506282,
				"y": 0.2212260951,
				"z": -2.4997754853,
				"element": "H" 
			},
			{
				"x": 2.7996618643,
				"y": -2.1285037451,
				"z": -0.6217019726,
				"element": "H" 
			},
			{
				"x": 1.6390496441,
				"y": -0.4403378606,
				"z": 0.7355632657,
				"element": "H" 
			}
		],
		 "valence_orbital": [ 
			{
				"type": "occ",
				"energy": -0.32722,
				"method": "rhf"
			},
			{
				"type": "occ",
				"energy": -0.3087,
				"method": "rhf"
			},
			{
				"type": "occ",
				"energy": -0.28319,
				"method": "rhf"
			},
			{
				"type": "occ",
				"energy": -0.26198,
				"method": "rhf"
			},
			{
				"type": "occ",
				"energy": -0.24885,
				"method": "rhf"
			},
			{
				"type": "unocc",
				"energy": -0.02972,
				"method": "rhf"
			},
			{
				"type": "unocc",
				"energy": -0.02754,
				"method": "rhf"
			},
			{
				"type": "unocc",
				"energy": 0.00199,
				"method": "rhf"
			},
			{
				"type": "unocc",
				"energy": 0.00685,
				"method": "rhf"
			},
			{
				"type": "unocc",
				"energy": 0.06148,
				"method": "rhf"
			}
		],
		"cosmo_sigma_profile": { 
			"-0.025": 0.0,
			"-0.024": 0.0,
			"-0.023": 0.0,
			"-0.022": 0.0,
			"-0.021": 0.0,
			"-0.02": 0.0,
			"-0.019": 0.0921744988353,
			"-0.018": 0.744523895541,
			"-0.017": 0.981290468191,
			"-0.016": 0.832817782376,
			"-0.015": 0.846704192036,
			"-0.014": 0.464623790852,
			"-0.013": 0.73812438828,
			"-0.012": 0.570071075202,
			"-0.011": 0.958691868663,
			"-0.01": 0.854686482095,
			"-0.009": 0.40167593804,
			"-0.008": 1.64867802857,
			"-0.007": 4.62773409993,
			"-0.006": 7.14132913182,
			"-0.005": 11.2083163577,
			"-0.004": 17.3794196974,
			"-0.003": 16.2868699321,
			"-0.002": 19.1030153931,
			"-0.001": 21.3408027199,
			"0.0": 27.2329362091,
			"0.001": 26.1644438698,
			"0.002": 22.148057227,
			"0.003": 19.6316477451,
			"0.004": 19.2449780317,
			"0.005": 8.86450517727,
			"0.006": 3.90938347084,
			"0.007": 2.96210541633,
			"0.008": 2.4080812278,
			"0.009": 1.97660525046,
			"0.01": 1.5310372543,
			"0.011": 4.02889158804,
			"0.012": 2.83666585482,
			"0.013": 0.00221210886176,
			"0.014": 0.0,
			"0.015": 0.0,
			"0.016": 0.0,
			"0.017": 0.0,
			"0.018": 0.0,
			"0.019": 0.0,
			"0.02": 0.0,
			"0.021": 0.0,
			"0.022": 0.0,
			"0.023": 0.0,
			"0.024": 0.0,
			"0.025": 0.0
		}
	}
}
