{
	 "smiles": "CC(=O)C1=CC=C(C=C1)S(=O)(=O)NCCCC(O)=O", 
	 "Tm": 414.15, 
	 "num_atms": 34, 
	 "gaussian": { 
		 "optdone": 1, 
		 "sigma_profile": "yes", 
		 "theory": "DFT", 
		 "functional": "B3LYP", 
		 "basiset": "6-31G**", 
		 "properties": { 
			 "R2extent": 7772.9544, 
			 "electric_dipole_moment_norm": 4.51664517313, 
			 "electric_quadrupole_moment_norm": 14.6494858248, 
			 "total_energy": -1295.32061235, 
			 "HOMO_LUMO_gap": 0.18289, 
			 "cosmo_polarized_energy": -27.57, 
			 "cosmo_cavitation_energy": 39.92, 
			 "cosmo_dispersion_energy": -27.35, 
			 "cosmo_repulsion_energy": 2.1, 
			 "cosmo_total_nonelectrostatic_energy": 14.66, 
			 "SMD_solvation_energy": 7.3 
		},
		"coords": [
			{
				"x": 1.5764279808,
				"y": -3.360324633,
				"z": -3.5931741832,
				"element": "C" 
			},
			{
				"x": 0.4848160426,
				"y": -3.6335301922,
				"z": -2.5752036721,
				"element": "C" 
			},
			{
				"x": -0.4612895282,
				"y": -4.3548724155,
				"z": -2.8478344287,
				"element": "O" 
			},
			{
				"x": 0.5827042751,
				"y": -2.999335172,
				"z": -1.2137720929,
				"element": "C" 
			},
			{
				"x": 1.6155284434,
				"y": -2.1219138439,
				"z": -0.8583697524,
				"element": "C" 
			},
			{
				"x": 1.6545291712,
				"y": -1.5519945507,
				"z": 0.4155873371,
				"element": "C" 
			},
			{
				"x": 0.6519754048,
				"y": -1.8697436596,
				"z": 1.3296737956,
				"element": "C" 
			},
			{
				"x": -0.3791252894,
				"y": -2.7575254668,
				"z": 1.0021596914,
				"element": "C" 
			},
			{
				"x": -0.4115187091,
				"y": -3.3121207406,
				"z": -0.2706229695,
				"element": "C" 
			},
			{
				"x": 0.7225971097,
				"y": -1.1695988642,
				"z": 2.9859477651,
				"element": "S" 
			},
			{
				"x": 0.5027005323,
				"y": -2.2569553163,
				"z": 3.9446792495,
				"element": "O" 
			},
			{
				"x": 1.9167634812,
				"y": -0.3186322353,
				"z": 3.0394721119,
				"element": "O" 
			},
			{
				"x": -0.6782547315,
				"y": -0.2239236949,
				"z": 3.0712229554,
				"element": "N" 
			},
			{
				"x": -0.5770173572,
				"y": 1.2354775692,
				"z": 2.8465804431,
				"element": "C" 
			},
			{
				"x": -0.6599120578,
				"y": 1.6129945843,
				"z": 1.3635365145,
				"element": "C" 
			},
			{
				"x": -1.9418285821,
				"y": 1.1451553766,
				"z": 0.6693232529,
				"element": "C" 
			},
			{
				"x": -3.1932888275,
				"y": 1.8647381056,
				"z": 1.1571553698,
				"element": "C" 
			},
			{
				"x": -4.357387022,
				"y": 1.4590610537,
				"z": 0.5840003102,
				"element": "O" 
			},
			{
				"x": -3.206970788,
				"y": 2.7406382781,
				"z": 1.98754883,
				"element": "O" 
			},
			{
				"x": 2.5546947611,
				"y": -3.6770613224,
				"z": -3.2151045533,
				"element": "H" 
			},
			{
				"x": 1.3460058706,
				"y": -3.9080369006,
				"z": -4.5070885734,
				"element": "H" 
			},
			{
				"x": 1.644703747,
				"y": -2.2903764219,
				"z": -3.8195582804,
				"element": "H" 
			},
			{
				"x": 2.3976893276,
				"y": -1.8756951399,
				"z": -1.5686154862,
				"element": "H" 
			},
			{
				"x": 2.449697584,
				"y": -0.8754305118,
				"z": 0.7081436525,
				"element": "H" 
			},
			{
				"x": -1.1341932639,
				"y": -3.0103103394,
				"z": 1.7389349238,
				"element": "H" 
			},
			{
				"x": -1.1961186467,
				"y": -4.0013944164,
				"z": -0.5636787923,
				"element": "H" 
			},
			{
				"x": -1.1312622385,
				"y": -0.4739088418,
				"z": 3.9464583752,
				"element": "H" 
			},
			{
				"x": 0.3486856024,
				"y": 1.6327104877,
				"z": 3.2763944888,
				"element": "H" 
			},
			{
				"x": -1.4192819187,
				"y": 1.685409245,
				"z": 3.3762500761,
				"element": "H" 
			},
			{
				"x": -0.5866497642,
				"y": 2.7031777278,
				"z": 1.2949477956,
				"element": "H" 
			},
			{
				"x": 0.2030293992,
				"y": 1.2006602851,
				"z": 0.8297916289,
				"element": "H" 
			},
			{
				"x": -1.865042616,
				"y": 1.3024898913,
				"z": -0.4150826411,
				"element": "H" 
			},
			{
				"x": -2.0786436499,
				"y": 0.0661902108,
				"z": 0.8178185135,
				"element": "H" 
			},
			{
				"x": -4.1874637424,
				"y": 0.754381864,
				"z": -0.0575216552,
				"element": "H" 
			}
		],
		 "valence_orbital": [ 
			{
				"type": "occ",
				"energy": -0.29794,
				"method": "rhf"
			},
			{
				"type": "occ",
				"energy": -0.28614,
				"method": "rhf"
			},
			{
				"type": "occ",
				"energy": -0.27997,
				"method": "rhf"
			},
			{
				"type": "occ",
				"energy": -0.27305,
				"method": "rhf"
			},
			{
				"type": "occ",
				"energy": -0.2676,
				"method": "rhf"
			},
			{
				"type": "unocc",
				"energy": -0.08471,
				"method": "rhf"
			},
			{
				"type": "unocc",
				"energy": -0.03638,
				"method": "rhf"
			},
			{
				"type": "unocc",
				"energy": 0.00102,
				"method": "rhf"
			},
			{
				"type": "unocc",
				"energy": 0.00236,
				"method": "rhf"
			},
			{
				"type": "unocc",
				"energy": 0.04585,
				"method": "rhf"
			}
		],
		"cosmo_sigma_profile": { 
			"-0.025": 0.0,
			"-0.024": 0.0,
			"-0.023": 0.0,
			"-0.022": 0.0,
			"-0.021": 0.0,
			"-0.02": 0.0,
			"-0.019": 0.765480631463,
			"-0.018": 0.859825679391,
			"-0.017": 0.593011240473,
			"-0.016": 1.34167629695,
			"-0.015": 1.88890334027,
			"-0.014": 1.76305975589,
			"-0.013": 2.16872648302,
			"-0.012": 1.81912066234,
			"-0.011": 2.4346122391,
			"-0.01": 2.73982957396,
			"-0.009": 2.34728512257,
			"-0.008": 5.25871265051,
			"-0.007": 13.5504319972,
			"-0.006": 17.8679355746,
			"-0.005": 16.4601026896,
			"-0.004": 21.5895763567,
			"-0.003": 27.5643055738,
			"-0.002": 25.4775937513,
			"-0.001": 25.4472502363,
			"0.0": 19.3110316921,
			"0.001": 19.0092714965,
			"0.002": 13.7326132808,
			"0.003": 6.83618743797,
			"0.004": 7.18117341424,
			"0.005": 7.13551698693,
			"0.006": 6.79549929815,
			"0.007": 5.52799826064,
			"0.008": 7.49984413607,
			"0.009": 8.45668918247,
			"0.01": 14.8614012078,
			"0.011": 17.0014827815,
			"0.012": 8.20834011589,
			"0.013": 2.44354192695,
			"0.014": 0.0785321756166,
			"0.015": 0.0,
			"0.016": 0.0,
			"0.017": 0.0,
			"0.018": 0.0,
			"0.019": 0.0,
			"0.02": 0.0,
			"0.021": 0.0,
			"0.022": 0.0,
			"0.023": 0.0,
			"0.024": 0.0,
			"0.025": 0.0
		}
	}
}
