{
	 "smiles": "ClC1=CC2=C(C=C1)C(C=O)=CN2", 
	 "Tm": 483.15, 
	 "num_atms": 18, 
	 "gaussian": { 
		 "optdone": 1, 
		 "sigma_profile": "yes", 
		 "theory": "DFT", 
		 "functional": "B3LYP", 
		 "basiset": "6-31G**", 
		 "properties": { 
			 "R2extent": 3616.8345, 
			 "electric_dipole_moment_norm": 2.92162184069, 
			 "electric_quadrupole_moment_norm": 28.7649263665, 
			 "total_energy": -936.738162276, 
			 "HOMO_LUMO_gap": 0.1737, 
			 "cosmo_polarized_energy": -14.5, 
			 "cosmo_cavitation_energy": 24.83, 
			 "cosmo_dispersion_energy": -18.42, 
			 "cosmo_repulsion_energy": 1.45, 
			 "cosmo_total_nonelectrostatic_energy": 7.86, 
			 "SMD_solvation_energy": 4.9 
		},
		"coords": [
			{
				"x": -4.3561923457,
				"y": 0.286271128,
				"z": 2.7075940144,
				"element": "Cl" 
			},
			{
				"x": -2.9234041939,
				"y": 0.4472397187,
				"z": 1.6994867491,
				"element": "C" 
			},
			{
				"x": -2.4016533364,
				"y": 1.7140655364,
				"z": 1.4730075193,
				"element": "C" 
			},
			{
				"x": -1.2640277136,
				"y": 1.7808397577,
				"z": 0.665393153,
				"element": "C" 
			},
			{
				"x": -0.6514610588,
				"y": 0.6351232704,
				"z": 0.0929586249,
				"element": "C" 
			},
			{
				"x": -1.2159805331,
				"y": -0.6246075721,
				"z": 0.3509444919,
				"element": "C" 
			},
			{
				"x": -2.3476180522,
				"y": -0.7144519529,
				"z": 1.1515767242,
				"element": "C" 
			},
			{
				"x": 0.4861323359,
				"y": 1.108744419,
				"z": -0.6672876508,
				"element": "C" 
			},
			{
				"x": 1.4508934503,
				"y": 0.3434062008,
				"z": -1.4479361544,
				"element": "C" 
			},
			{
				"x": 2.3864305426,
				"y": 0.8334566909,
				"z": -2.0619698313,
				"element": "O" 
			},
			{
				"x": 0.5125234759,
				"y": 2.4836261424,
				"z": -0.5261442039,
				"element": "C" 
			},
			{
				"x": -0.5261844535,
				"y": 2.8854911568,
				"z": 0.2651495444,
				"element": "N" 
			},
			{
				"x": -2.8613749383,
				"y": 2.5958986675,
				"z": 1.9051638731,
				"element": "H" 
			},
			{
				"x": -0.7805568411,
				"y": -1.5272115312,
				"z": -0.0662180692,
				"element": "H" 
			},
			{
				"x": -2.7984675333,
				"y": -1.6773750685,
				"z": 1.3626186439,
				"element": "H" 
			},
			{
				"x": 1.2835590133,
				"y": -0.7559773224,
				"z": -1.4565059431,
				"element": "H" 
			},
			{
				"x": 1.2145961874,
				"y": 3.1881699926,
				"z": -0.9473314687,
				"element": "H" 
			},
			{
				"x": -0.7254140055,
				"y": 3.8405907658,
				"z": 0.519199983,
				"element": "H" 
			}
		],
		 "valence_orbital": [ 
			{
				"type": "occ",
				"energy": -0.31606,
				"method": "rhf"
			},
			{
				"type": "occ",
				"energy": -0.28945,
				"method": "rhf"
			},
			{
				"type": "occ",
				"energy": -0.24727,
				"method": "rhf"
			},
			{
				"type": "occ",
				"energy": -0.24633,
				"method": "rhf"
			},
			{
				"type": "occ",
				"energy": -0.22469,
				"method": "rhf"
			},
			{
				"type": "unocc",
				"energy": -0.05099,
				"method": "rhf"
			},
			{
				"type": "unocc",
				"energy": -0.02126,
				"method": "rhf"
			},
			{
				"type": "unocc",
				"energy": 0.0023,
				"method": "rhf"
			},
			{
				"type": "unocc",
				"energy": 0.02522,
				"method": "rhf"
			},
			{
				"type": "unocc",
				"energy": 0.05833,
				"method": "rhf"
			}
		],
		"cosmo_sigma_profile": { 
			"-0.025": 0.0,
			"-0.024": 0.0,
			"-0.023": 0.0,
			"-0.022": 0.0,
			"-0.021": 0.0,
			"-0.02": 0.0,
			"-0.019": 0.0,
			"-0.018": 0.00919491981552,
			"-0.017": 1.46422776642,
			"-0.016": 1.57671809421,
			"-0.015": 1.71370281677,
			"-0.014": 1.54197502753,
			"-0.013": 1.10706188539,
			"-0.012": 1.44887434299,
			"-0.011": 1.43682385215,
			"-0.01": 2.23490033103,
			"-0.009": 3.59908621623,
			"-0.008": 3.85060397086,
			"-0.007": 6.2225512046,
			"-0.006": 10.3935569917,
			"-0.005": 8.88324772774,
			"-0.004": 7.80503445659,
			"-0.003": 8.22617566076,
			"-0.002": 10.2924980841,
			"-0.001": 9.38505392888,
			"0.0": 11.4404203046,
			"0.001": 16.8242309278,
			"0.002": 20.2205953003,
			"0.003": 22.7908017137,
			"0.004": 18.2477746784,
			"0.005": 11.6642015447,
			"0.006": 2.2788325121,
			"0.007": 1.05218699989,
			"0.008": 1.20787959053,
			"0.009": 1.97124831595,
			"0.01": 2.11706466558,
			"0.011": 2.3543291743,
			"0.012": 4.37338005624,
			"0.013": 3.34285224734,
			"0.014": 1.15469699596,
			"0.015": 0.000279920974933,
			"0.016": 0.0,
			"0.017": 0.0,
			"0.018": 0.0,
			"0.019": 0.0,
			"0.02": 0.0,
			"0.021": 0.0,
			"0.022": 0.0,
			"0.023": 0.0,
			"0.024": 0.0,
			"0.025": 0.0
		}
	}
}
