{
	 "smiles": "CC1(C)OC(=O)C2=C(Cl)N=CC=C12", 
	 "Tm": 432.15, 
	 "num_atms": 21, 
	 "gaussian": { 
		 "optdone": 1, 
		 "sigma_profile": "yes", 
		 "theory": "DFT", 
		 "functional": "B3LYP", 
		 "basiset": "6-31G**", 
		 "properties": { 
			 "R2extent": 3227.6016, 
			 "electric_dipole_moment_norm": 6.35253539463, 
			 "electric_quadrupole_moment_norm": 9.54041749977, 
			 "total_energy": -1013.18542662, 
			 "HOMO_LUMO_gap": 0.20664, 
			 "cosmo_polarized_energy": -14.89, 
			 "cosmo_cavitation_energy": 26.87, 
			 "cosmo_dispersion_energy": -19.35, 
			 "cosmo_repulsion_energy": 1.53, 
			 "cosmo_total_nonelectrostatic_energy": 9.05, 
			 "SMD_solvation_energy": 4.09 
		},
		"coords": [
			{
				"x": 1.7720297408,
				"y": -0.4186783868,
				"z": 1.1170156428,
				"element": "C" 
			},
			{
				"x": 1.6054505111,
				"y": 0.6236843198,
				"z": 0.0064813963,
				"element": "C" 
			},
			{
				"x": 2.9198343602,
				"y": 1.3393461361,
				"z": -0.3218899319,
				"element": "C" 
			},
			{
				"x": 0.6597484364,
				"y": 1.6255442184,
				"z": 0.4761202305,
				"element": "O" 
			},
			{
				"x": -0.4597671256,
				"y": 1.7068921882,
				"z": -0.3175282799,
				"element": "C" 
			},
			{
				"x": -1.3579023841,
				"y": 2.4751344826,
				"z": -0.0961005255,
				"element": "O" 
			},
			{
				"x": -0.2891496044,
				"y": 0.7060716735,
				"z": -1.4045975323,
				"element": "C" 
			},
			{
				"x": -1.0891028979,
				"y": 0.3384544191,
				"z": -2.4925006338,
				"element": "C" 
			},
			{
				"x": -2.6267570585,
				"y": 1.1133350951,
				"z": -2.7726856964,
				"element": "Cl" 
			},
			{
				"x": -0.7275246106,
				"y": -0.6009965414,
				"z": -3.3519970031,
				"element": "N" 
			},
			{
				"x": 0.4507375631,
				"y": -1.2162897128,
				"z": -3.1635059588,
				"element": "C" 
			},
			{
				"x": 1.3289280269,
				"y": -0.9323005327,
				"z": -2.1155209197,
				"element": "C" 
			},
			{
				"x": 0.9279188651,
				"y": 0.0581936387,
				"z": -1.2250122495,
				"element": "C" 
			},
			{
				"x": 2.1606829578,
				"y": 0.0614072796,
				"z": 2.0189302894,
				"element": "H" 
			},
			{
				"x": 2.4729717564,
				"y": -1.2000459601,
				"z": 0.8078550552,
				"element": "H" 
			},
			{
				"x": 0.8124505196,
				"y": -0.8841779223,
				"z": 1.3553563597,
				"element": "H" 
			},
			{
				"x": 2.7620433986,
				"y": 2.1017017575,
				"z": -1.0888352975,
				"element": "H" 
			},
			{
				"x": 3.3110633261,
				"y": 1.8238059553,
				"z": 0.5765639809,
				"element": "H" 
			},
			{
				"x": 3.6649038608,
				"y": 0.6254042949,
				"z": -0.6860232235,
				"element": "H" 
			},
			{
				"x": 0.7018861624,
				"y": -1.9798858389,
				"z": -3.8963530085,
				"element": "H" 
			},
			{
				"x": 2.2680541957,
				"y": -1.4669005637,
				"z": -2.0194726944,
				"element": "H" 
			}
		],
		 "valence_orbital": [ 
			{
				"type": "occ",
				"energy": -0.31635,
				"method": "rhf"
			},
			{
				"type": "occ",
				"energy": -0.29759,
				"method": "rhf"
			},
			{
				"type": "occ",
				"energy": -0.2918,
				"method": "rhf"
			},
			{
				"type": "occ",
				"energy": -0.27578,
				"method": "rhf"
			},
			{
				"type": "occ",
				"energy": -0.27551,
				"method": "rhf"
			},
			{
				"type": "unocc",
				"energy": -0.06887,
				"method": "rhf"
			},
			{
				"type": "unocc",
				"energy": -0.04979,
				"method": "rhf"
			},
			{
				"type": "unocc",
				"energy": 0.0335,
				"method": "rhf"
			},
			{
				"type": "unocc",
				"energy": 0.03631,
				"method": "rhf"
			},
			{
				"type": "unocc",
				"energy": 0.06721,
				"method": "rhf"
			}
		],
		"cosmo_sigma_profile": { 
			"-0.025": 0.0,
			"-0.024": 0.0,
			"-0.023": 0.0,
			"-0.022": 0.0,
			"-0.021": 0.0,
			"-0.02": 0.0,
			"-0.019": 0.0,
			"-0.018": 0.0,
			"-0.017": 0.0,
			"-0.016": 0.0,
			"-0.015": 0.0,
			"-0.014": 0.0,
			"-0.013": 0.0,
			"-0.012": 0.0,
			"-0.011": 0.0,
			"-0.01": 0.0,
			"-0.009": 1.31500146986,
			"-0.008": 7.09541800437,
			"-0.007": 7.07619568054,
			"-0.006": 9.8655101181,
			"-0.005": 17.1678126669,
			"-0.004": 15.3241860652,
			"-0.003": 21.3369874663,
			"-0.002": 23.1191620102,
			"-0.001": 23.9022935567,
			"0.0": 13.3815324706,
			"0.001": 7.94733878863,
			"0.002": 8.43253409231,
			"0.003": 9.45677819217,
			"0.004": 7.9373935897,
			"0.005": 6.51494156093,
			"0.006": 4.75020295351,
			"0.007": 3.81098561605,
			"0.008": 4.13041377725,
			"0.009": 6.11769306489,
			"0.01": 5.67044071871,
			"0.011": 7.32181597528,
			"0.012": 3.58410052067,
			"0.013": 1.12968596425,
			"0.014": 0.288978920061,
			"0.015": 0.0,
			"0.016": 0.0,
			"0.017": 0.0,
			"0.018": 0.0,
			"0.019": 0.0,
			"0.02": 0.0,
			"0.021": 0.0,
			"0.022": 0.0,
			"0.023": 0.0,
			"0.024": 0.0,
			"0.025": 0.0
		}
	}
}
