{
	 "smiles": "OC1CCCCC=CC2=CC=CC=C12", 
	 "Tm": 370.15, 
	 "num_atms": 30, 
	 "gaussian": { 
		 "optdone": 1, 
		 "sigma_profile": "yes", 
		 "theory": "DFT", 
		 "functional": "B3LYP", 
		 "basiset": "6-31G**", 
		 "properties": { 
			 "R2extent": 2546.4021, 
			 "electric_dipole_moment_norm": 1.14488906013, 
			 "electric_quadrupole_moment_norm": 3.28774943692, 
			 "total_energy": -580.221097601, 
			 "HOMO_LUMO_gap": 0.22748, 
			 "cosmo_polarized_energy": -7.35, 
			 "cosmo_cavitation_energy": 29.67, 
			 "cosmo_dispersion_energy": -21.67, 
			 "cosmo_repulsion_energy": 1.71, 
			 "cosmo_total_nonelectrostatic_energy": 9.71, 
			 "SMD_solvation_energy": 4.26 
		},
		"coords": [
			{
				"x": 1.9482738931,
				"y": 0.4328689093,
				"z": -0.8987674789,
				"element": "O" 
			},
			{
				"x": 0.9029000687,
				"y": 1.2935595517,
				"z": -0.4575898039,
				"element": "C" 
			},
			{
				"x": -0.0880198915,
				"y": 1.4393679684,
				"z": -1.632628171,
				"element": "C" 
			},
			{
				"x": -0.7151587149,
				"y": 0.1459013349,
				"z": -2.1768345012,
				"element": "C" 
			},
			{
				"x": -1.8195320596,
				"y": -0.4864904271,
				"z": -1.2897300316,
				"element": "C" 
			},
			{
				"x": -1.5872661811,
				"y": -1.9810965569,
				"z": -0.9940999683,
				"element": "C" 
			},
			{
				"x": -0.2313657398,
				"y": -2.3347748921,
				"z": -0.4189386994,
				"element": "C" 
			},
			{
				"x": 0.4898091022,
				"y": -1.6658781619,
				"z": 0.4879073646,
				"element": "C" 
			},
			{
				"x": 0.0770182266,
				"y": -0.4640300635,
				"z": 1.2771386137,
				"element": "C" 
			},
			{
				"x": -0.5194538062,
				"y": -0.7073672439,
				"z": 2.5266159613,
				"element": "C" 
			},
			{
				"x": -0.9249892661,
				"y": 0.3293692097,
				"z": 3.3648591845,
				"element": "C" 
			},
			{
				"x": -0.7263396771,
				"y": 1.6501227474,
				"z": 2.9649324219,
				"element": "C" 
			},
			{
				"x": -0.1223228695,
				"y": 1.9066097464,
				"z": 1.736263172,
				"element": "C" 
			},
			{
				"x": 0.2813047245,
				"y": 0.8750973603,
				"z": 0.8751277366,
				"element": "C" 
			},
			{
				"x": 2.5693267156,
				"y": 0.3243818832,
				"z": -0.1671725409,
				"element": "H" 
			},
			{
				"x": 1.313707875,
				"y": 2.3040384103,
				"z": -0.2921480483,
				"element": "H" 
			},
			{
				"x": -0.8702312026,
				"y": 2.1472523429,
				"z": -1.3295149871,
				"element": "H" 
			},
			{
				"x": 0.4751162726,
				"y": 1.9205112459,
				"z": -2.4418574701,
				"element": "H" 
			},
			{
				"x": 0.0934588881,
				"y": -0.573100434,
				"z": -2.339755449,
				"element": "H" 
			},
			{
				"x": -1.128981803,
				"y": 0.3692829009,
				"z": -3.1673188102,
				"element": "H" 
			},
			{
				"x": -1.9082759065,
				"y": 0.0603452115,
				"z": -0.348172486,
				"element": "H" 
			},
			{
				"x": -2.7952433089,
				"y": -0.386779228,
				"z": -1.7809591734,
				"element": "H" 
			},
			{
				"x": -1.7111444851,
				"y": -2.5473767,
				"z": -1.9260696847,
				"element": "H" 
			},
			{
				"x": -2.3806941823,
				"y": -2.345822668,
				"z": -0.3248855763,
				"element": "H" 
			},
			{
				"x": 0.2182916985,
				"y": -3.2443934454,
				"z": -0.8161652699,
				"element": "H" 
			},
			{
				"x": 1.4597848028,
				"y": -2.0849417694,
				"z": 0.7589495307,
				"element": "H" 
			},
			{
				"x": -0.669449018,
				"y": -1.7388705162,
				"z": 2.8336081387,
				"element": "H" 
			},
			{
				"x": -1.3874874818,
				"y": 0.1055154828,
				"z": 4.3219616163,
				"element": "H" 
			},
			{
				"x": -1.0274129536,
				"y": 2.4733213678,
				"z": 3.6065759692,
				"element": "H" 
			},
			{
				"x": 0.0453762801,
				"y": 2.9371764332,
				"z": 1.4301684406,
				"element": "H" 
			}
		],
		 "valence_orbital": [ 
			{
				"type": "occ",
				"energy": -0.30239,
				"method": "rhf"
			},
			{
				"type": "occ",
				"energy": -0.27549,
				"method": "rhf"
			},
			{
				"type": "occ",
				"energy": -0.24597,
				"method": "rhf"
			},
			{
				"type": "occ",
				"energy": -0.23597,
				"method": "rhf"
			},
			{
				"type": "occ",
				"energy": -0.23221,
				"method": "rhf"
			},
			{
				"type": "unocc",
				"energy": -0.00473,
				"method": "rhf"
			},
			{
				"type": "unocc",
				"energy": -0.0023,
				"method": "rhf"
			},
			{
				"type": "unocc",
				"energy": 0.0249,
				"method": "rhf"
			},
			{
				"type": "unocc",
				"energy": 0.08081,
				"method": "rhf"
			},
			{
				"type": "unocc",
				"energy": 0.09836,
				"method": "rhf"
			}
		],
		"cosmo_sigma_profile": { 
			"-0.025": 0.0,
			"-0.024": 0.0,
			"-0.023": 0.0,
			"-0.022": 0.0,
			"-0.021": 0.0,
			"-0.02": 0.0,
			"-0.019": 0.0,
			"-0.018": 0.0,
			"-0.017": 0.0,
			"-0.016": 0.0,
			"-0.015": 0.473173241025,
			"-0.014": 0.931162505465,
			"-0.013": 0.722445336096,
			"-0.012": 0.650641928354,
			"-0.011": 1.43996997032,
			"-0.01": 0.514863582664,
			"-0.009": 0.653771197615,
			"-0.008": 0.673169747369,
			"-0.007": 1.32383110971,
			"-0.006": 2.94017009512,
			"-0.005": 10.5687259107,
			"-0.004": 13.6088839053,
			"-0.003": 22.4467373845,
			"-0.002": 26.8546611515,
			"-0.001": 27.504233272,
			"0.0": 31.7779609611,
			"0.001": 23.7286576136,
			"0.002": 14.0516840796,
			"0.003": 11.390020311,
			"0.004": 9.40730061174,
			"0.005": 9.85884496533,
			"0.006": 8.22766443319,
			"0.007": 1.59166122873,
			"0.008": 0.85613813011,
			"0.009": 1.63934880658,
			"0.01": 1.85766527529,
			"0.011": 1.06976147741,
			"0.012": 0.982539159997,
			"0.013": 2.08152533507,
			"0.014": 1.76686352978,
			"0.015": 0.172309915739,
			"0.016": 0.0,
			"0.017": 0.0,
			"0.018": 0.0,
			"0.019": 0.0,
			"0.02": 0.0,
			"0.021": 0.0,
			"0.022": 0.0,
			"0.023": 0.0,
			"0.024": 0.0,
			"0.025": 0.0
		}
	}
}
