{
	 "smiles": "FC(F)(F)C1=CC(Br)=CC=C1S(Cl)(=O)=O", 
	 "Tm": 335.65, 
	 "num_atms": 18, 
	 "gaussian": { 
		 "optdone": 1, 
		 "sigma_profile": "yes", 
		 "theory": "DFT", 
		 "functional": "B3LYP", 
		 "basiset": "6-31G**", 
		 "properties": { 
			 "R2extent": 5734.5816, 
			 "electric_dipole_moment_norm": 4.71389080272, 
			 "electric_quadrupole_moment_norm": 6.43945105036, 
			 "total_energy": -4148.22637544, 
			 "HOMO_LUMO_gap": 0.18319, 
			 "cosmo_polarized_energy": -9.02, 
			 "cosmo_cavitation_energy": 29.26, 
			 "cosmo_dispersion_energy": -22.04, 
			 "cosmo_repulsion_energy": 1.62, 
			 "cosmo_total_nonelectrostatic_energy": 8.84, 
			 "SMD_solvation_energy": 3.68 
		},
		"coords": [
			{
				"x": -3.010419383,
				"y": 1.0104611199,
				"z": 0.9260429533,
				"element": "F" 
			},
			{
				"x": -2.379919619,
				"y": 0.8455032194,
				"z": -0.2480982404,
				"element": "C" 
			},
			{
				"x": -2.1105008681,
				"y": 2.0545361013,
				"z": -0.7644017641,
				"element": "F" 
			},
			{
				"x": -3.251988597,
				"y": 0.2405056386,
				"z": -1.0852570392,
				"element": "F" 
			},
			{
				"x": -1.1147062979,
				"y": 0.0107041498,
				"z": -0.1015175696,
				"element": "C" 
			},
			{
				"x": -0.9174732921,
				"y": -1.0082723607,
				"z": -1.0347234382,
				"element": "C" 
			},
			{
				"x": 0.2284082352,
				"y": -1.8026638037,
				"z": -0.9900572386,
				"element": "C" 
			},
			{
				"x": 0.4527636494,
				"y": -3.1793021296,
				"z": -2.2783014137,
				"element": "Br" 
			},
			{
				"x": 1.2024019261,
				"y": -1.6006770794,
				"z": -0.0178131849,
				"element": "C" 
			},
			{
				"x": 1.0183723638,
				"y": -0.5861992618,
				"z": 0.9185538493,
				"element": "C" 
			},
			{
				"x": -0.1233361401,
				"y": 0.216447452,
				"z": 0.8786642679,
				"element": "C" 
			},
			{
				"x": -0.1693826305,
				"y": 1.5025748905,
				"z": 2.151548282,
				"element": "S" 
			},
			{
				"x": -1.3944415713,
				"y": 0.5962380459,
				"z": 3.6278299691,
				"element": "Cl" 
			},
			{
				"x": 1.1611475961,
				"y": 1.5847370574,
				"z": 2.7413994743,
				"element": "O" 
			},
			{
				"x": -0.863151346,
				"y": 2.6832545054,
				"z": 1.6653178944,
				"element": "O" 
			},
			{
				"x": -1.6662793658,
				"y": -1.1814578416,
				"z": -1.7955151348,
				"element": "H" 
			},
			{
				"x": 2.0908846945,
				"y": -2.2201279821,
				"z": 0.0122495933,
				"element": "H" 
			},
			{
				"x": 1.7660206457,
				"y": -0.4066617212,
				"z": 1.6816787401,
				"element": "H" 
			}
		],
		 "valence_orbital": [ 
			{
				"type": "occ",
				"energy": -0.33711,
				"method": "rhf"
			},
			{
				"type": "occ",
				"energy": -0.32182,
				"method": "rhf"
			},
			{
				"type": "occ",
				"energy": -0.32004,
				"method": "rhf"
			},
			{
				"type": "occ",
				"energy": -0.31302,
				"method": "rhf"
			},
			{
				"type": "occ",
				"energy": -0.28715,
				"method": "rhf"
			},
			{
				"type": "unocc",
				"energy": -0.10396,
				"method": "rhf"
			},
			{
				"type": "unocc",
				"energy": -0.07014,
				"method": "rhf"
			},
			{
				"type": "unocc",
				"energy": -0.06164,
				"method": "rhf"
			},
			{
				"type": "unocc",
				"energy": -0.02549,
				"method": "rhf"
			},
			{
				"type": "unocc",
				"energy": 0.03743,
				"method": "rhf"
			}
		],
		"cosmo_sigma_profile": { 
			"-0.025": 0.0,
			"-0.024": 0.0,
			"-0.023": 0.0,
			"-0.022": 0.0,
			"-0.021": 0.0,
			"-0.02": 0.0,
			"-0.019": 0.0,
			"-0.018": 0.0,
			"-0.017": 0.0,
			"-0.016": 0.0,
			"-0.015": 0.0,
			"-0.014": 0.0,
			"-0.013": 0.0,
			"-0.012": 0.0,
			"-0.011": 0.0,
			"-0.01": 0.683561637049,
			"-0.009": 5.24189268307,
			"-0.008": 4.21900082921,
			"-0.007": 5.10749890084,
			"-0.006": 8.20200443083,
			"-0.005": 9.28994683737,
			"-0.004": 11.1319443101,
			"-0.003": 17.1467421014,
			"-0.002": 25.8292497734,
			"-0.001": 20.9320499223,
			"0.0": 15.382295139,
			"0.001": 20.6954755421,
			"0.002": 36.9052955264,
			"0.003": 29.3497884867,
			"0.004": 5.34649092723,
			"0.005": 5.23891491606,
			"0.006": 5.16843734356,
			"0.007": 7.52548404012,
			"0.008": 7.8607102265,
			"0.009": 1.10201220173,
			"0.01": 0.0,
			"0.011": 0.0,
			"0.012": 0.0,
			"0.013": 0.0,
			"0.014": 0.0,
			"0.015": 0.0,
			"0.016": 0.0,
			"0.017": 0.0,
			"0.018": 0.0,
			"0.019": 0.0,
			"0.02": 0.0,
			"0.021": 0.0,
			"0.022": 0.0,
			"0.023": 0.0,
			"0.024": 0.0,
			"0.025": 0.0
		}
	}
}
