{
	 "smiles": "CCC(C)NS(=O)(=O)C1=CC(=CC=C1)C(O)=O", 
	 "Tm": 429.15, 
	 "num_atms": 32, 
	 "gaussian": { 
		 "optdone": 1, 
		 "sigma_profile": "yes", 
		 "theory": "DFT", 
		 "functional": "B3LYP", 
		 "basiset": "6-31G**", 
		 "properties": { 
			 "R2extent": 5595.3292, 
			 "electric_dipole_moment_norm": 3.66782611774, 
			 "electric_quadrupole_moment_norm": 14.4626010538, 
			 "total_energy": -1182.00644623, 
			 "HOMO_LUMO_gap": 0.19482, 
			 "cosmo_polarized_energy": -17.63, 
			 "cosmo_cavitation_energy": 37.02, 
			 "cosmo_dispersion_energy": -25.86, 
			 "cosmo_repulsion_energy": 1.99, 
			 "cosmo_total_nonelectrostatic_energy": 13.15, 
			 "SMD_solvation_energy": 6.5 
		},
		"coords": [
			{
				"x": 1.3050438186,
				"y": 3.8027201863,
				"z": 2.7176246966,
				"element": "C" 
			},
			{
				"x": 1.4223903344,
				"y": 3.127182144,
				"z": 1.3460805705,
				"element": "C" 
			},
			{
				"x": 0.2546924962,
				"y": 2.1908815031,
				"z": 0.965369672,
				"element": "C" 
			},
			{
				"x": -1.0993537297,
				"y": 2.9045145428,
				"z": 0.8752641983,
				"element": "C" 
			},
			{
				"x": 0.1010673155,
				"y": 1.0324085496,
				"z": 1.8763941825,
				"element": "N" 
			},
			{
				"x": 1.0928655141,
				"y": -0.3163352955,
				"z": 1.7247963064,
				"element": "S" 
			},
			{
				"x": 2.3511377112,
				"y": 0.0191082093,
				"z": 1.0464334943,
				"element": "O" 
			},
			{
				"x": 1.0801939886,
				"y": -0.9409056677,
				"z": 3.0518561131,
				"element": "O" 
			},
			{
				"x": 0.1615565201,
				"y": -1.3594825238,
				"z": 0.5937949555,
				"element": "C" 
			},
			{
				"x": 0.6367029918,
				"y": -1.55565139,
				"z": -0.6995539507,
				"element": "C" 
			},
			{
				"x": -0.0891502247,
				"y": -2.3826941598,
				"z": -1.5681187988,
				"element": "C" 
			},
			{
				"x": -1.2654375169,
				"y": -3.0014807855,
				"z": -1.1283347347,
				"element": "C" 
			},
			{
				"x": -1.7205734598,
				"y": -2.8018996054,
				"z": 0.1747901398,
				"element": "C" 
			},
			{
				"x": -1.0076902922,
				"y": -1.9790590914,
				"z": 1.0454913305,
				"element": "C" 
			},
			{
				"x": 0.3533476954,
				"y": -2.6386775154,
				"z": -2.9671100057,
				"element": "C" 
			},
			{
				"x": 1.4983109395,
				"y": -1.9899977591,
				"z": -3.2851351621,
				"element": "O" 
			},
			{
				"x": -0.2355572796,
				"y": -3.3486787548,
				"z": -3.7572594736,
				"element": "O" 
			},
			{
				"x": 2.1829866362,
				"y": 4.4271392106,
				"z": 2.9082099803,
				"element": "H" 
			},
			{
				"x": 1.2571027968,
				"y": 3.0709061957,
				"z": 3.5326356098,
				"element": "H" 
			},
			{
				"x": 0.4231095434,
				"y": 4.4473224573,
				"z": 2.7911104188,
				"element": "H" 
			},
			{
				"x": 1.4949086587,
				"y": 3.8979896175,
				"z": 0.5678167012,
				"element": "H" 
			},
			{
				"x": 2.3474446823,
				"y": 2.5450017951,
				"z": 1.2996445815,
				"element": "H" 
			},
			{
				"x": 0.4815539598,
				"y": 1.7662327438,
				"z": -0.018813597,
				"element": "H" 
			},
			{
				"x": -1.4230676918,
				"y": 3.2772666452,
				"z": 1.8526776196,
				"element": "H" 
			},
			{
				"x": -1.8688213213,
				"y": 2.2219836079,
				"z": 0.5057346987,
				"element": "H" 
			},
			{
				"x": -1.0343615427,
				"y": 3.7609419943,
				"z": 0.1964381487,
				"element": "H" 
			},
			{
				"x": 0.0310879359,
				"y": 1.2624050154,
				"z": 2.8643762759,
				"element": "H" 
			},
			{
				"x": 1.5580717214,
				"y": -1.0831201823,
				"z": -1.0169562084,
				"element": "H" 
			},
			{
				"x": -1.8043749082,
				"y": -3.6381441949,
				"z": -1.8217554683,
				"element": "H" 
			},
			{
				"x": -2.6283380491,
				"y": -3.2905627003,
				"z": 0.5143900803,
				"element": "H" 
			},
			{
				"x": -1.3424822469,
				"y": -1.8230215452,
				"z": 2.0654214514,
				"element": "H" 
			},
			{
				"x": 1.6963330027,
				"y": -2.2293932467,
				"z": -4.2054138265,
				"element": "H" 
			}
		],
		 "valence_orbital": [ 
			{
				"type": "occ",
				"energy": -0.30188,
				"method": "rhf"
			},
			{
				"type": "occ",
				"energy": -0.29034,
				"method": "rhf"
			},
			{
				"type": "occ",
				"energy": -0.28616,
				"method": "rhf"
			},
			{
				"type": "occ",
				"energy": -0.28025,
				"method": "rhf"
			},
			{
				"type": "occ",
				"energy": -0.26044,
				"method": "rhf"
			},
			{
				"type": "unocc",
				"energy": -0.06562,
				"method": "rhf"
			},
			{
				"type": "unocc",
				"energy": -0.03858,
				"method": "rhf"
			},
			{
				"type": "unocc",
				"energy": 0.03226,
				"method": "rhf"
			},
			{
				"type": "unocc",
				"energy": 0.05273,
				"method": "rhf"
			},
			{
				"type": "unocc",
				"energy": 0.07042,
				"method": "rhf"
			}
		],
		"cosmo_sigma_profile": { 
			"-0.025": 0.0,
			"-0.024": 0.0,
			"-0.023": 0.0,
			"-0.022": 0.0,
			"-0.021": 0.0,
			"-0.02": 0.0,
			"-0.019": 0.354758539728,
			"-0.018": 0.793243075737,
			"-0.017": 1.22901147066,
			"-0.016": 0.589279884998,
			"-0.015": 0.764832957447,
			"-0.014": 0.534097751801,
			"-0.013": 0.682731458361,
			"-0.012": 2.14373953238,
			"-0.011": 1.72174018223,
			"-0.01": 1.72889213403,
			"-0.009": 1.55460188634,
			"-0.008": 4.76243577863,
			"-0.007": 8.45262156574,
			"-0.006": 8.58401830011,
			"-0.005": 9.2408226974,
			"-0.004": 17.3738570348,
			"-0.003": 27.7768815191,
			"-0.002": 26.0411362851,
			"-0.001": 31.4003343816,
			"0.0": 33.9305185259,
			"0.001": 30.1207356931,
			"0.002": 14.2752005492,
			"0.003": 6.23201219529,
			"0.004": 7.57255385142,
			"0.005": 6.01691232609,
			"0.006": 6.5193255695,
			"0.007": 6.00652616812,
			"0.008": 4.57672426562,
			"0.009": 5.80158296066,
			"0.01": 8.50606386989,
			"0.011": 12.3826539392,
			"0.012": 4.71241971476,
			"0.013": 0.0,
			"0.014": 0.0,
			"0.015": 0.0,
			"0.016": 0.0,
			"0.017": 0.0,
			"0.018": 0.0,
			"0.019": 0.0,
			"0.02": 0.0,
			"0.021": 0.0,
			"0.022": 0.0,
			"0.023": 0.0,
			"0.024": 0.0,
			"0.025": 0.0
		}
	}
}
