{
	 "smiles": "FC(F)(F)C1=CC=CC2=C1N=CC=C2Cl", 
	 "Tm": 354.15, 
	 "num_atms": 20, 
	 "gaussian": { 
		 "optdone": 1, 
		 "sigma_profile": "yes", 
		 "theory": "DFT", 
		 "functional": "B3LYP", 
		 "basiset": "6-31G**", 
		 "properties": { 
			 "R2extent": 3726.0247, 
			 "electric_dipole_moment_norm": 2.8936268868, 
			 "electric_quadrupole_moment_norm": 14.6486526186, 
			 "total_energy": -1198.55117989, 
			 "HOMO_LUMO_gap": 0.17561, 
			 "cosmo_polarized_energy": -7.1, 
			 "cosmo_cavitation_energy": 27.35, 
			 "cosmo_dispersion_energy": -20.03, 
			 "cosmo_repulsion_energy": 1.48, 
			 "cosmo_total_nonelectrostatic_energy": 8.8, 
			 "SMD_solvation_energy": 4.6 
		},
		"coords": [
			{
				"x": -0.5149751181,
				"y": 2.4617701457,
				"z": 2.1613715568,
				"element": "F" 
			},
			{
				"x": -1.3403323075,
				"y": 2.146169913,
				"z": 1.1454631938,
				"element": "C" 
			},
			{
				"x": -2.5666527326,
				"y": 2.6265491099,
				"z": 1.4733083803,
				"element": "F" 
			},
			{
				"x": -0.934553699,
				"y": 2.8268487469,
				"z": 0.0569214249,
				"element": "F" 
			},
			{
				"x": -1.3950799403,
				"y": 0.6549683496,
				"z": 0.8976931753,
				"element": "C" 
			},
			{
				"x": -2.5905873926,
				"y": -0.0182247858,
				"z": 1.0190090796,
				"element": "C" 
			},
			{
				"x": -2.6634333945,
				"y": -1.4115641063,
				"z": 0.7918706411,
				"element": "C" 
			},
			{
				"x": -1.5394330805,
				"y": -2.1228800001,
				"z": 0.4447603727,
				"element": "C" 
			},
			{
				"x": -0.2899300049,
				"y": -1.4646401532,
				"z": 0.3101488247,
				"element": "C" 
			},
			{
				"x": -0.203564129,
				"y": -0.0492579134,
				"z": 0.5382803616,
				"element": "C" 
			},
			{
				"x": 0.9574508593,
				"y": 0.6509805206,
				"z": 0.428438068,
				"element": "N" 
			},
			{
				"x": 2.0467809349,
				"y": -0.0085243229,
				"z": 0.0973284871,
				"element": "C" 
			},
			{
				"x": 2.093394499,
				"y": -1.4002951969,
				"z": -0.1530455332,
				"element": "C" 
			},
			{
				"x": 0.9253859142,
				"y": -2.1148949923,
				"z": -0.0444022803,
				"element": "C" 
			},
			{
				"x": 0.9479346537,
				"y": -3.841271902,
				"z": -0.3479774278,
				"element": "Cl" 
			},
			{
				"x": -3.4842446066,
				"y": 0.5301186044,
				"z": 1.2920722684,
				"element": "H" 
			},
			{
				"x": -3.6175798944,
				"y": -1.9185544752,
				"z": 0.8939178874,
				"element": "H" 
			},
			{
				"x": -1.593944741,
				"y": -3.1913313771,
				"z": 0.2703723591,
				"element": "H" 
			},
			{
				"x": 2.9630561631,
				"y": 0.5742018262,
				"z": 0.0158696848,
				"element": "H" 
			},
			{
				"x": 3.0250080166,
				"y": -1.883767991,
				"z": -0.4222005243,
				"element": "H" 
			}
		],
		 "valence_orbital": [ 
			{
				"type": "occ",
				"energy": -0.3331,
				"method": "rhf"
			},
			{
				"type": "occ",
				"energy": -0.30358,
				"method": "rhf"
			},
			{
				"type": "occ",
				"energy": -0.27449,
				"method": "rhf"
			},
			{
				"type": "occ",
				"energy": -0.27163,
				"method": "rhf"
			},
			{
				"type": "occ",
				"energy": -0.25325,
				"method": "rhf"
			},
			{
				"type": "unocc",
				"energy": -0.07764,
				"method": "rhf"
			},
			{
				"type": "unocc",
				"energy": -0.03869,
				"method": "rhf"
			},
			{
				"type": "unocc",
				"energy": -0.00602,
				"method": "rhf"
			},
			{
				"type": "unocc",
				"energy": 0.01325,
				"method": "rhf"
			},
			{
				"type": "unocc",
				"energy": 0.06501,
				"method": "rhf"
			}
		],
		"cosmo_sigma_profile": { 
			"-0.025": 0.0,
			"-0.024": 0.0,
			"-0.023": 0.0,
			"-0.022": 0.0,
			"-0.021": 0.0,
			"-0.02": 0.0,
			"-0.019": 0.0,
			"-0.018": 0.0,
			"-0.017": 0.0,
			"-0.016": 0.0,
			"-0.015": 0.0,
			"-0.014": 0.0,
			"-0.013": 0.0,
			"-0.012": 0.0,
			"-0.011": 0.0,
			"-0.01": 0.0,
			"-0.009": 0.677628441105,
			"-0.008": 4.26446675435,
			"-0.007": 9.88288162389,
			"-0.006": 10.1109749158,
			"-0.005": 8.09565975299,
			"-0.004": 7.27508869729,
			"-0.003": 9.89863670351,
			"-0.002": 15.1506872798,
			"-0.001": 23.76343496,
			"0.0": 29.4307691535,
			"0.001": 23.6758650194,
			"0.002": 23.0616097143,
			"0.003": 34.5629692394,
			"0.004": 9.23085660718,
			"0.005": 3.11781098331,
			"0.006": 2.14044603798,
			"0.007": 2.01704819712,
			"0.008": 1.79254090484,
			"0.009": 1.43351211298,
			"0.01": 1.20110830219,
			"0.011": 1.48861127384,
			"0.012": 1.03316915424,
			"0.013": 0.247546869079,
			"0.014": 0.0,
			"0.015": 0.0,
			"0.016": 0.0,
			"0.017": 0.0,
			"0.018": 0.0,
			"0.019": 0.0,
			"0.02": 0.0,
			"0.021": 0.0,
			"0.022": 0.0,
			"0.023": 0.0,
			"0.024": 0.0,
			"0.025": 0.0
		}
	}
}
