{
	 "smiles": "CCCNC1=C(N)C=C(Cl)C=C1", 
	 "Tm": 336.15, 
	 "num_atms": 25, 
	 "gaussian": { 
		 "optdone": 1, 
		 "sigma_profile": "yes", 
		 "theory": "DFT", 
		 "functional": "B3LYP", 
		 "basiset": "6-31G**", 
		 "properties": { 
			 "R2extent": 4456.097, 
			 "electric_dipole_moment_norm": 3.20355241256, 
			 "electric_quadrupole_moment_norm": 15.8502992723, 
			 "total_energy": -920.498521047, 
			 "HOMO_LUMO_gap": 0.19611, 
			 "cosmo_polarized_energy": -9.01, 
			 "cosmo_cavitation_energy": 29.18, 
			 "cosmo_dispersion_energy": -21.14, 
			 "cosmo_repulsion_energy": 1.71, 
			 "cosmo_total_nonelectrostatic_energy": 9.75, 
			 "SMD_solvation_energy": 3.65 
		},
		"coords": [
			{
				"x": -1.4526184159,
				"y": 2.0141149756,
				"z": -0.723069922,
				"element": "C" 
			},
			{
				"x": -1.261658404,
				"y": 1.0665257241,
				"z": 0.4660538124,
				"element": "C" 
			},
			{
				"x": 0.208608454,
				"y": 0.747529443,
				"z": 0.7831984997,
				"element": "C" 
			},
			{
				"x": 0.9413708744,
				"y": -0.0215235594,
				"z": -0.2464486485,
				"element": "N" 
			},
			{
				"x": 0.5331232259,
				"y": -1.3705457844,
				"z": -0.4510714104,
				"element": "C" 
			},
			{
				"x": 0.9524846188,
				"y": -2.3430015183,
				"z": 0.4928537232,
				"element": "C" 
			},
			{
				"x": 1.7011739545,
				"y": -1.933880023,
				"z": 1.5968344858,
				"element": "N" 
			},
			{
				"x": 0.5886522198,
				"y": -3.6829445825,
				"z": 0.3081473742,
				"element": "C" 
			},
			{
				"x": -0.1493106676,
				"y": -4.0535356813,
				"z": -0.8138892124,
				"element": "C" 
			},
			{
				"x": -0.5801666574,
				"y": -5.7500886962,
				"z": -1.0248201132,
				"element": "Cl" 
			},
			{
				"x": -0.5385306163,
				"y": -3.123830202,
				"z": -1.7724289349,
				"element": "C" 
			},
			{
				"x": -0.1964774333,
				"y": -1.7843835734,
				"z": -1.5673261,
				"element": "C" 
			},
			{
				"x": -1.0531168326,
				"y": 1.5903712764,
				"z": -1.6518503907,
				"element": "H" 
			},
			{
				"x": -0.9478203674,
				"y": 2.9725518711,
				"z": -0.5529811661,
				"element": "H" 
			},
			{
				"x": -2.5126354452,
				"y": 2.2235143505,
				"z": -0.8970497758,
				"element": "H" 
			},
			{
				"x": -1.7102328022,
				"y": 1.5152540782,
				"z": 1.362054502,
				"element": "H" 
			},
			{
				"x": -1.8011798878,
				"y": 0.1283301232,
				"z": 0.2880919593,
				"element": "H" 
			},
			{
				"x": 0.2666020681,
				"y": 0.1793636776,
				"z": 1.7162805018,
				"element": "H" 
			},
			{
				"x": 0.7625160004,
				"y": 1.682148837,
				"z": 0.9414024648,
				"element": "H" 
			},
			{
				"x": 0.9478177771,
				"y": 0.4846261965,
				"z": -1.1260417454,
				"element": "H" 
			},
			{
				"x": 2.2490179714,
				"y": -1.1039675067,
				"z": 1.3932651533,
				"element": "H" 
			},
			{
				"x": 2.2529037948,
				"y": -2.6660093162,
				"z": 2.0242103332,
				"element": "H" 
			},
			{
				"x": 0.9009604501,
				"y": -4.4348575726,
				"z": 1.0257245604,
				"element": "H" 
			},
			{
				"x": -1.1043531778,
				"y": -3.4303508166,
				"z": -2.6440900015,
				"element": "H" 
			},
			{
				"x": -0.5053307017,
				"y": -1.0401117207,
				"z": -2.2973499493,
				"element": "H" 
			}
		],
		 "valence_orbital": [ 
			{
				"type": "occ",
				"energy": -0.30284,
				"method": "rhf"
			},
			{
				"type": "occ",
				"energy": -0.2979,
				"method": "rhf"
			},
			{
				"type": "occ",
				"energy": -0.26372,
				"method": "rhf"
			},
			{
				"type": "occ",
				"energy": -0.2268,
				"method": "rhf"
			},
			{
				"type": "occ",
				"energy": -0.19672,
				"method": "rhf"
			},
			{
				"type": "unocc",
				"energy": -0.00061,
				"method": "rhf"
			},
			{
				"type": "unocc",
				"energy": 0.01196,
				"method": "rhf"
			},
			{
				"type": "unocc",
				"energy": 0.03825,
				"method": "rhf"
			},
			{
				"type": "unocc",
				"energy": 0.07109,
				"method": "rhf"
			},
			{
				"type": "unocc",
				"energy": 0.08934,
				"method": "rhf"
			}
		],
		"cosmo_sigma_profile": { 
			"-0.025": 0.0,
			"-0.024": 0.0,
			"-0.023": 0.0,
			"-0.022": 0.0,
			"-0.021": 0.0,
			"-0.02": 0.0,
			"-0.019": 0.0,
			"-0.018": 0.0,
			"-0.017": 0.0,
			"-0.016": 0.0,
			"-0.015": 0.0,
			"-0.014": 0.0,
			"-0.013": 0.200309079131,
			"-0.012": 1.4713379825,
			"-0.011": 1.74153943429,
			"-0.01": 3.12590041633,
			"-0.009": 3.98300609924,
			"-0.008": 4.48137859702,
			"-0.007": 4.99123705516,
			"-0.006": 7.74319309654,
			"-0.005": 7.24324110409,
			"-0.004": 8.39100266515,
			"-0.003": 14.6135600394,
			"-0.002": 20.095587196,
			"-0.001": 22.4205986282,
			"0.0": 24.3620342073,
			"0.001": 22.014877814,
			"0.002": 14.0749775793,
			"0.003": 15.6086411955,
			"0.004": 17.0090070181,
			"0.005": 22.2302201435,
			"0.006": 8.5202909624,
			"0.007": 1.32018877322,
			"0.008": 0.882411070395,
			"0.009": 1.03997667629,
			"0.01": 1.4828425004,
			"0.011": 1.37233968358,
			"0.012": 0.432220425645,
			"0.013": 0.529033446008,
			"0.014": 0.125558347385,
			"0.015": 0.0,
			"0.016": 0.0,
			"0.017": 0.0,
			"0.018": 0.0,
			"0.019": 0.0,
			"0.02": 0.0,
			"0.021": 0.0,
			"0.022": 0.0,
			"0.023": 0.0,
			"0.024": 0.0,
			"0.025": 0.0
		}
	}
}
