{
	 "smiles": "CC(C(O)=O)C1=CC=C(C)C=C1", 
	 "Tm": 314.15, 
	 "num_atms": 24, 
	 "gaussian": { 
		 "optdone": 1, 
		 "sigma_profile": "yes", 
		 "theory": "DFT", 
		 "functional": "B3LYP", 
		 "basiset": "6-31G**", 
		 "properties": { 
			 "R2extent": 2660.1361, 
			 "electric_dipole_moment_norm": 1.83265940916, 
			 "electric_quadrupole_moment_norm": 7.94001341687, 
			 "total_energy": -538.772213705, 
			 "HOMO_LUMO_gap": 0.22442, 
			 "cosmo_polarized_energy": -9.57, 
			 "cosmo_cavitation_energy": 27.49, 
			 "cosmo_dispersion_energy": -19.57, 
			 "cosmo_repulsion_energy": 1.59, 
			 "cosmo_total_nonelectrostatic_energy": 9.52, 
			 "SMD_solvation_energy": 6.06 
		},
		"coords": [
			{
				"x": -3.15885057,
				"y": 0.4256701486,
				"z": -0.4045652142,
				"element": "C" 
			},
			{
				"x": -1.7602341915,
				"y": -0.187415625,
				"z": -0.6119087463,
				"element": "C" 
			},
			{
				"x": -1.6689399856,
				"y": -1.6171404072,
				"z": -0.0905227431,
				"element": "C" 
			},
			{
				"x": -2.2287596814,
				"y": -1.7650955073,
				"z": 1.1389314621,
				"element": "O" 
			},
			{
				"x": -1.1507860883,
				"y": -2.5414964371,
				"z": -0.6756718999,
				"element": "O" 
			},
			{
				"x": -0.6495215225,
				"y": 0.6726237185,
				"z": -0.0113061966,
				"element": "C" 
			},
			{
				"x": -0.5689194409,
				"y": 0.9202551557,
				"z": 1.366753862,
				"element": "C" 
			},
			{
				"x": 0.4375684996,
				"y": 1.7318690173,
				"z": 1.8858893137,
				"element": "C" 
			},
			{
				"x": 1.3992642993,
				"y": 2.3227086774,
				"z": 1.0541750806,
				"element": "C" 
			},
			{
				"x": 2.5045341316,
				"y": 3.1773669357,
				"z": 1.6285716583,
				"element": "C" 
			},
			{
				"x": 1.3147691126,
				"y": 2.0728235509,
				"z": -0.3201156288,
				"element": "C" 
			},
			{
				"x": 0.3098351719,
				"y": 1.2587355249,
				"z": -0.8439589935,
				"element": "C" 
			},
			{
				"x": -3.394927665,
				"y": 0.5248517475,
				"z": 0.6571650998,
				"element": "H" 
			},
			{
				"x": -3.9330088753,
				"y": -0.1942231348,
				"z": -0.8682803706,
				"element": "H" 
			},
			{
				"x": -3.1960195521,
				"y": 1.4195313146,
				"z": -0.8594305981,
				"element": "H" 
			},
			{
				"x": -1.5651875787,
				"y": -0.2801948019,
				"z": -1.6839387488,
				"element": "H" 
			},
			{
				"x": -2.0847791637,
				"y": -2.694471026,
				"z": 1.3852283549,
				"element": "H" 
			},
			{
				"x": -1.2929120753,
				"y": 0.4688920213,
				"z": 2.0381216146,
				"element": "H" 
			},
			{
				"x": 0.4775626402,
				"y": 1.9101441351,
				"z": 2.9580629533,
				"element": "H" 
			},
			{
				"x": 3.3348776024,
				"y": 2.5598204166,
				"z": 1.9936620206,
				"element": "H" 
			},
			{
				"x": 2.1507460649,
				"y": 3.7747620745,
				"z": 2.4748542474,
				"element": "H" 
			},
			{
				"x": 2.9127212458,
				"y": 3.8613052498,
				"z": 0.8786836959,
				"element": "H" 
			},
			{
				"x": 2.0442250431,
				"y": 2.5193807173,
				"z": -0.9915778522,
				"element": "H" 
			},
			{
				"x": 0.2694425791,
				"y": 1.0808965335,
				"z": -1.9157223712,
				"element": "H" 
			}
		],
		 "valence_orbital": [ 
			{
				"type": "occ",
				"energy": -0.33231,
				"method": "rhf"
			},
			{
				"type": "occ",
				"energy": -0.31418,
				"method": "rhf"
			},
			{
				"type": "occ",
				"energy": -0.2729,
				"method": "rhf"
			},
			{
				"type": "occ",
				"energy": -0.24839,
				"method": "rhf"
			},
			{
				"type": "occ",
				"energy": -0.23373,
				"method": "rhf"
			},
			{
				"type": "unocc",
				"energy": -0.00931,
				"method": "rhf"
			},
			{
				"type": "unocc",
				"energy": -0.00135,
				"method": "rhf"
			},
			{
				"type": "unocc",
				"energy": 0.02325,
				"method": "rhf"
			},
			{
				"type": "unocc",
				"energy": 0.07364,
				"method": "rhf"
			},
			{
				"type": "unocc",
				"energy": 0.10077,
				"method": "rhf"
			}
		],
		"cosmo_sigma_profile": { 
			"-0.025": 0.0,
			"-0.024": 0.0,
			"-0.023": 0.0,
			"-0.022": 0.0,
			"-0.021": 0.0,
			"-0.02": 0.0,
			"-0.019": 0.0446727094984,
			"-0.018": 0.617861586146,
			"-0.017": 0.897053462795,
			"-0.016": 0.963838659693,
			"-0.015": 0.963510971984,
			"-0.014": 0.441956735698,
			"-0.013": 0.558708917313,
			"-0.012": 0.540368474895,
			"-0.011": 0.964026174638,
			"-0.01": 0.803391916805,
			"-0.009": 0.278302752725,
			"-0.008": 0.764686606778,
			"-0.007": 0.851986423518,
			"-0.006": 3.69432621871,
			"-0.005": 10.3585421305,
			"-0.004": 22.1500096424,
			"-0.003": 22.7856949807,
			"-0.002": 20.6716470886,
			"-0.001": 19.3791120313,
			"0.0": 22.8879545904,
			"0.001": 15.7461459209,
			"0.002": 11.9097081427,
			"0.003": 10.792134297,
			"0.004": 9.51953210509,
			"0.005": 10.7505003559,
			"0.006": 9.13792546447,
			"0.007": 3.11830726314,
			"0.008": 1.84718669286,
			"0.009": 1.58673126975,
			"0.01": 2.12316271976,
			"0.011": 3.61211113332,
			"0.012": 4.6866525001,
			"0.013": 1.10269300031,
			"0.014": 0.00636971976218,
			"0.015": 0.0,
			"0.016": 0.0,
			"0.017": 0.0,
			"0.018": 0.0,
			"0.019": 0.0,
			"0.02": 0.0,
			"0.021": 0.0,
			"0.022": 0.0,
			"0.023": 0.0,
			"0.024": 0.0,
			"0.025": 0.0
		}
	}
}
