{
	 "smiles": "ClC1=CC=C(C=C1)C(=O)C1=NOC(=C1S(=O)(=O)C1=CC=CC=C1)C1=C2C=CC=CC2=CC=C1", 
	 "Tm": 423.15, 
	 "num_atms": 49, 
	 "gaussian": { 
		 "optdone": 1, 
		 "sigma_profile": "yes", 
		 "theory": "DFT", 
		 "functional": "B3LYP", 
		 "basiset": "6-31G**", 
		 "properties": { 
			 "R2extent": 19510.271, 
			 "electric_dipole_moment_norm": 4.34314572286, 
			 "electric_quadrupole_moment_norm": 23.9815790235, 
			 "total_energy": -2214.31707251, 
			 "HOMO_LUMO_gap": 0.146, 
			 "cosmo_polarized_energy": -19.14, 
			 "cosmo_cavitation_energy": 56.96, 
			 "cosmo_dispersion_energy": -39.08, 
			 "cosmo_repulsion_energy": 2.84, 
			 "cosmo_total_nonelectrostatic_energy": 20.71, 
			 "SMD_solvation_energy": 8.27 
		},
		"coords": [
			{
				"x": -4.5030034119,
				"y": 1.0188044807,
				"z": -6.9685285478,
				"element": "Cl" 
			},
			{
				"x": -3.7654696386,
				"y": 0.2563719761,
				"z": -5.5743278588,
				"element": "C" 
			},
			{
				"x": -4.5190817569,
				"y": -0.6356023126,
				"z": -4.8047341123,
				"element": "C" 
			},
			{
				"x": -3.9283910914,
				"y": -1.2355863248,
				"z": -3.7011845393,
				"element": "C" 
			},
			{
				"x": -2.5931990455,
				"y": -0.9573293215,
				"z": -3.360011277,
				"element": "C" 
			},
			{
				"x": -1.858085955,
				"y": -0.055742913,
				"z": -4.1451634825,
				"element": "C" 
			},
			{
				"x": -2.4403317081,
				"y": 0.5524779696,
				"z": -5.2544841275,
				"element": "C" 
			},
			{
				"x": -2.0394433498,
				"y": -1.626800319,
				"z": -2.1575761737,
				"element": "C" 
			},
			{
				"x": -2.7077462918,
				"y": -2.3819693768,
				"z": -1.4664329494,
				"element": "O" 
			},
			{
				"x": -0.5895562366,
				"y": -1.4160221509,
				"z": -1.7811371445,
				"element": "C" 
			},
			{
				"x": 0.3447892376,
				"y": -1.7052747208,
				"z": -2.6567439975,
				"element": "N" 
			},
			{
				"x": 1.557969437,
				"y": -1.5377496749,
				"z": -1.9851588968,
				"element": "O" 
			},
			{
				"x": 1.3372409198,
				"y": -1.1308116912,
				"z": -0.7142809977,
				"element": "C" 
			},
			{
				"x": -0.0245113744,
				"y": -1.0413397829,
				"z": -0.5188564242,
				"element": "C" 
			},
			{
				"x": -0.9067153072,
				"y": -0.2728642727,
				"z": 0.8342193947,
				"element": "S" 
			},
			{
				"x": 0.000995922,
				"y": 0.6990068829,
				"z": 1.4580303928,
				"element": "O" 
			},
			{
				"x": -2.1903353562,
				"y": 0.151490793,
				"z": 0.260110177,
				"element": "O" 
			},
			{
				"x": -1.2070132048,
				"y": -1.5772298186,
				"z": 2.0383671783,
				"element": "C" 
			},
			{
				"x": -2.0169801617,
				"y": -2.6659903653,
				"z": 1.7032067669,
				"element": "C" 
			},
			{
				"x": -2.2666246172,
				"y": -3.6344703303,
				"z": 2.6755958596,
				"element": "C" 
			},
			{
				"x": -1.7268024948,
				"y": -3.5040318339,
				"z": 3.9581810532,
				"element": "C" 
			},
			{
				"x": -0.9284898174,
				"y": -2.4039669547,
				"z": 4.2785684968,
				"element": "C" 
			},
			{
				"x": -0.6609893531,
				"y": -1.4297771856,
				"z": 3.3154000592,
				"element": "C" 
			},
			{
				"x": 2.5133895256,
				"y": -0.9242816185,
				"z": 0.1393539296,
				"element": "C" 
			},
			{
				"x": 3.6422160026,
				"y": -0.150498943,
				"z": -0.3002162177,
				"element": "C" 
			},
			{
				"x": 3.698540697,
				"y": 0.5273768545,
				"z": -1.5485885549,
				"element": "C" 
			},
			{
				"x": 4.8052918662,
				"y": 1.2665623159,
				"z": -1.9032670625,
				"element": "C" 
			},
			{
				"x": 5.9153306236,
				"y": 1.3708353743,
				"z": -1.0328310245,
				"element": "C" 
			},
			{
				"x": 5.890174731,
				"y": 0.7357384808,
				"z": 0.1865602608,
				"element": "C" 
			},
			{
				"x": 4.7629891683,
				"y": -0.0307262768,
				"z": 0.5882097395,
				"element": "C" 
			},
			{
				"x": 4.7277581833,
				"y": -0.6710126251,
				"z": 1.8551043836,
				"element": "C" 
			},
			{
				"x": 3.6300888585,
				"y": -1.3994713502,
				"z": 2.2498668396,
				"element": "C" 
			},
			{
				"x": 2.520977533,
				"y": -1.5237625934,
				"z": 1.3881662701,
				"element": "C" 
			},
			{
				"x": -5.5482173042,
				"y": -0.8476480083,
				"z": -5.0716817093,
				"element": "H" 
			},
			{
				"x": -4.4873626954,
				"y": -1.9282017513,
				"z": -3.0816220909,
				"element": "H" 
			},
			{
				"x": -0.8272895628,
				"y": 0.1673970296,
				"z": -3.8988988989,
				"element": "H" 
			},
			{
				"x": -1.8766262186,
				"y": 1.2489646909,
				"z": -5.8644996376,
				"element": "H" 
			},
			{
				"x": -2.4320448258,
				"y": -2.7547335894,
				"z": 0.7041947629,
				"element": "H" 
			},
			{
				"x": -2.8891167445,
				"y": -4.4898311417,
				"z": 2.4310966754,
				"element": "H" 
			},
			{
				"x": -1.9309854092,
				"y": -4.2608843669,
				"z": 4.7100223337,
				"element": "H" 
			},
			{
				"x": -0.5157416747,
				"y": -2.3007826668,
				"z": 5.2776260927,
				"element": "H" 
			},
			{
				"x": -0.0481609017,
				"y": -0.5631793556,
				"z": 3.5374953962,
				"element": "H" 
			},
			{
				"x": 2.8626345166,
				"y": 0.4575261255,
				"z": -2.233511425,
				"element": "H" 
			},
			{
				"x": 4.8250041296,
				"y": 1.7764510058,
				"z": -2.8618807215,
				"element": "H" 
			},
			{
				"x": 6.7811105251,
				"y": 1.9557254016,
				"z": -1.3284946593,
				"element": "H" 
			},
			{
				"x": 6.732857683,
				"y": 0.8144163602,
				"z": 0.8682879997,
				"element": "H" 
			},
			{
				"x": 5.5882209162,
				"y": -0.5719922536,
				"z": 2.5116163383,
				"element": "H" 
			},
			{
				"x": 3.6108194763,
				"y": -1.887706846,
				"z": 3.2190576504,
				"element": "H" 
			},
			{
				"x": 1.6680155572,
				"y": -2.1157730051,
				"z": 1.7012744797,
				"element": "H" 
			}
		],
		 "valence_orbital": [ 
			{
				"type": "occ",
				"energy": -0.2702,
				"method": "rhf"
			},
			{
				"type": "occ",
				"energy": -0.26719,
				"method": "rhf"
			},
			{
				"type": "occ",
				"energy": -0.26029,
				"method": "rhf"
			},
			{
				"type": "occ",
				"energy": -0.2575,
				"method": "rhf"
			},
			{
				"type": "occ",
				"energy": -0.22872,
				"method": "rhf"
			},
			{
				"type": "unocc",
				"energy": -0.08272,
				"method": "rhf"
			},
			{
				"type": "unocc",
				"energy": -0.07053,
				"method": "rhf"
			},
			{
				"type": "unocc",
				"energy": -0.04156,
				"method": "rhf"
			},
			{
				"type": "unocc",
				"energy": -0.03352,
				"method": "rhf"
			},
			{
				"type": "unocc",
				"energy": -0.02405,
				"method": "rhf"
			}
		],
		"cosmo_sigma_profile": { 
			"-0.025": 0.0,
			"-0.024": 0.0,
			"-0.023": 0.0,
			"-0.022": 0.0,
			"-0.021": 0.0,
			"-0.02": 0.0,
			"-0.019": 0.0,
			"-0.018": 0.0,
			"-0.017": 0.0,
			"-0.016": 0.0,
			"-0.015": 0.0,
			"-0.014": 0.0,
			"-0.013": 0.0,
			"-0.012": 0.0,
			"-0.011": 0.0,
			"-0.01": 0.0,
			"-0.009": 0.11121005468,
			"-0.008": 3.65276170998,
			"-0.007": 20.699870614,
			"-0.006": 32.381374937,
			"-0.005": 33.1465884405,
			"-0.004": 29.6530004934,
			"-0.003": 26.9698096283,
			"-0.002": 28.5808272463,
			"-0.001": 31.1225913272,
			"0.0": 37.984252354,
			"0.001": 46.4314750276,
			"0.002": 45.6859343667,
			"0.003": 43.3507764581,
			"0.004": 26.4542291441,
			"0.005": 11.3770389186,
			"0.006": 6.43108168435,
			"0.007": 7.91285824013,
			"0.008": 7.39412028572,
			"0.009": 7.74801714439,
			"0.01": 7.63050360952,
			"0.011": 7.47729231753,
			"0.012": 1.05962015206,
			"0.013": 0.0,
			"0.014": 0.0,
			"0.015": 0.0,
			"0.016": 0.0,
			"0.017": 0.0,
			"0.018": 0.0,
			"0.019": 0.0,
			"0.02": 0.0,
			"0.021": 0.0,
			"0.022": 0.0,
			"0.023": 0.0,
			"0.024": 0.0,
			"0.025": 0.0
		}
	}
}
