{
	 "smiles": "NC(=O)C1=C(Br)C=CC(F)=C1", 
	 "Tm": 426.15, 
	 "num_atms": 16, 
	 "gaussian": { 
		 "optdone": 1, 
		 "sigma_profile": "yes", 
		 "theory": "DFT", 
		 "functional": "B3LYP", 
		 "basiset": "6-31G**", 
		 "properties": { 
			 "R2extent": 2565.7399, 
			 "electric_dipole_moment_norm": 3.24948927372, 
			 "electric_quadrupole_moment_norm": 9.54832485151, 
			 "total_energy": -3070.98349877, 
			 "HOMO_LUMO_gap": 0.20089, 
			 "cosmo_polarized_energy": -10.34, 
			 "cosmo_cavitation_energy": 23.13, 
			 "cosmo_dispersion_energy": -17.6, 
			 "cosmo_repulsion_energy": 1.38, 
			 "cosmo_total_nonelectrostatic_energy": 6.91, 
			 "SMD_solvation_energy": 4.2 
		},
		"coords": [
			{
				"x": 2.3499696558,
				"y": 0.7687129149,
				"z": 0.4300323851,
				"element": "N" 
			},
			{
				"x": 1.6848989686,
				"y": -0.3159825337,
				"z": -0.045420722,
				"element": "C" 
			},
			{
				"x": 2.2759193533,
				"y": -1.268975014,
				"z": -0.5413362778,
				"element": "O" 
			},
			{
				"x": 0.1722965967,
				"y": -0.3755624861,
				"z": 0.121470053,
				"element": "C" 
			},
			{
				"x": -0.7590204357,
				"y": 0.6679056661,
				"z": 0.2684064861,
				"element": "C" 
			},
			{
				"x": -0.2988145045,
				"y": 2.5386159985,
				"z": 0.2457074347,
				"element": "Br" 
			},
			{
				"x": -2.1255699593,
				"y": 0.4085106968,
				"z": 0.4029431528,
				"element": "C" 
			},
			{
				"x": -2.6015368417,
				"y": -0.8987935869,
				"z": 0.4005742842,
				"element": "C" 
			},
			{
				"x": -1.6844649457,
				"y": -1.9317289119,
				"z": 0.2463565519,
				"element": "C" 
			},
			{
				"x": -2.1262780808,
				"y": -3.2029253913,
				"z": 0.2340574646,
				"element": "F" 
			},
			{
				"x": -0.3300816241,
				"y": -1.6869510258,
				"z": 0.1022639773,
				"element": "C" 
			},
			{
				"x": 1.8837850071,
				"y": 1.6033887021,
				"z": 0.7476619622,
				"element": "H" 
			},
			{
				"x": 3.3457150448,
				"y": 0.7867231245,
				"z": 0.2683973029,
				"element": "H" 
			},
			{
				"x": -2.817258133,
				"y": 1.2362953954,
				"z": 0.5052348287,
				"element": "H" 
			},
			{
				"x": -3.6583698794,
				"y": -1.1160375645,
				"z": 0.5083092853,
				"element": "H" 
			},
			{
				"x": 0.3702097779,
				"y": -2.5013959842,
				"z": -0.0389581688,
				"element": "H" 
			}
		],
		 "valence_orbital": [ 
			{
				"type": "occ",
				"energy": -0.31125,
				"method": "rhf"
			},
			{
				"type": "occ",
				"energy": -0.282,
				"method": "rhf"
			},
			{
				"type": "occ",
				"energy": -0.27011,
				"method": "rhf"
			},
			{
				"type": "occ",
				"energy": -0.25962,
				"method": "rhf"
			},
			{
				"type": "occ",
				"energy": -0.25308,
				"method": "rhf"
			},
			{
				"type": "unocc",
				"energy": -0.05219,
				"method": "rhf"
			},
			{
				"type": "unocc",
				"energy": -0.02364,
				"method": "rhf"
			},
			{
				"type": "unocc",
				"energy": -0.01596,
				"method": "rhf"
			},
			{
				"type": "unocc",
				"energy": 0.05221,
				"method": "rhf"
			},
			{
				"type": "unocc",
				"energy": 0.08994,
				"method": "rhf"
			}
		],
		"cosmo_sigma_profile": { 
			"-0.025": 0.0,
			"-0.024": 0.0,
			"-0.023": 0.0,
			"-0.022": 0.0,
			"-0.021": 0.0,
			"-0.02": 0.0,
			"-0.019": 0.0,
			"-0.018": 0.0,
			"-0.017": 0.0,
			"-0.016": 0.0,
			"-0.015": 0.256902431716,
			"-0.014": 0.955486258042,
			"-0.013": 1.18293341782,
			"-0.012": 0.850943659086,
			"-0.011": 1.65665982987,
			"-0.01": 1.94860713207,
			"-0.009": 2.6904940398,
			"-0.008": 5.18063773672,
			"-0.007": 6.5838409812,
			"-0.006": 7.05937415877,
			"-0.005": 6.3369417168,
			"-0.004": 7.80441128592,
			"-0.003": 9.8480730739,
			"-0.002": 10.3373304622,
			"-0.001": 16.2221866585,
			"0.0": 21.4636667281,
			"0.001": 24.3206351924,
			"0.002": 15.3052305757,
			"0.003": 14.3519885919,
			"0.004": 14.3515448862,
			"0.005": 2.31008628851,
			"0.006": 2.07269147628,
			"0.007": 1.47371928426,
			"0.008": 1.33881118023,
			"0.009": 0.947312425244,
			"0.01": 0.780581563846,
			"0.011": 2.15253027211,
			"0.012": 2.39534843616,
			"0.013": 5.03944376278,
			"0.014": 1.89975160618,
			"0.015": 0.0360245816358,
			"0.016": 0.0,
			"0.017": 0.0,
			"0.018": 0.0,
			"0.019": 0.0,
			"0.02": 0.0,
			"0.021": 0.0,
			"0.022": 0.0,
			"0.023": 0.0,
			"0.024": 0.0,
			"0.025": 0.0
		}
	}
}
