{
	 "smiles": "CC(C)(C)NC(=O)C=C", 
	 "Tm": 402.15, 
	 "num_atms": 22, 
	 "gaussian": { 
		 "optdone": 1, 
		 "sigma_profile": "yes", 
		 "theory": "DFT", 
		 "functional": "B3LYP", 
		 "basiset": "6-31G**", 
		 "properties": { 
			 "R2extent": 1672.0574, 
			 "electric_dipole_moment_norm": 3.7620292782, 
			 "electric_quadrupole_moment_norm": 8.52952893131, 
			 "total_energy": -404.553157427, 
			 "HOMO_LUMO_gap": 0.21066, 
			 "cosmo_polarized_energy": -10.42, 
			 "cosmo_cavitation_energy": 24.11, 
			 "cosmo_dispersion_energy": -17.04, 
			 "cosmo_repulsion_energy": 1.39, 
			 "cosmo_total_nonelectrostatic_energy": 8.46, 
			 "SMD_solvation_energy": 5.66 
		},
		"coords": [
			{
				"x": 0.1145440432,
				"y": 1.355773836,
				"z": -2.4806001541,
				"element": "C" 
			},
			{
				"x": -0.2473636051,
				"y": 0.1912014515,
				"z": -1.5356717214,
				"element": "C" 
			},
			{
				"x": -1.7171186414,
				"y": 0.2777681345,
				"z": -1.0747631791,
				"element": "C" 
			},
			{
				"x": -0.0512942035,
				"y": -1.1342060628,
				"z": -2.2964900194,
				"element": "C" 
			},
			{
				"x": 0.6787478125,
				"y": 0.1212492059,
				"z": -0.3827326354,
				"element": "N" 
			},
			{
				"x": 0.9805084602,
				"y": 0.9676716668,
				"z": 0.6583935871,
				"element": "C" 
			},
			{
				"x": 1.820308056,
				"y": 0.6270847161,
				"z": 1.4907520331,
				"element": "O" 
			},
			{
				"x": 0.2822558233,
				"y": 2.2875397486,
				"z": 0.7602559771,
				"element": "C" 
			},
			{
				"x": 0.5706059434,
				"y": 3.115005357,
				"z": 1.7671090584,
				"element": "C" 
			},
			{
				"x": -0.0032331952,
				"y": 2.3316893352,
				"z": -2.004220517,
				"element": "H" 
			},
			{
				"x": -0.5304116759,
				"y": 1.3383240663,
				"z": -3.3654392061,
				"element": "H" 
			},
			{
				"x": 1.1540084764,
				"y": 1.2676608494,
				"z": -2.8103908741,
				"element": "H" 
			},
			{
				"x": -1.9597009925,
				"y": -0.5647468741,
				"z": -0.4202917543,
				"element": "H" 
			},
			{
				"x": -1.9289706124,
				"y": 1.1985062961,
				"z": -0.5265181635,
				"element": "H" 
			},
			{
				"x": -2.38677788,
				"y": 0.2455031319,
				"z": -1.9406269565,
				"element": "H" 
			},
			{
				"x": -0.7033974342,
				"y": -1.1695825446,
				"z": -3.1733647702,
				"element": "H" 
			},
			{
				"x": -0.29478549,
				"y": -1.9909507065,
				"z": -1.6589476919,
				"element": "H" 
			},
			{
				"x": 0.9835331912,
				"y": -1.2387310395,
				"z": -2.6399503087,
				"element": "H" 
			},
			{
				"x": 1.2310019853,
				"y": -0.7240389134,
				"z": -0.3111395823,
				"element": "H" 
			},
			{
				"x": -0.4545736435,
				"y": 2.5664291071,
				"z": 0.0165426516,
				"element": "H" 
			},
			{
				"x": 0.083149619,
				"y": 4.079189627,
				"z": 1.8709093529,
				"element": "H" 
			},
			{
				"x": 1.3102639633,
				"y": 2.8268596118,
				"z": 2.5074848737,
				"element": "H" 
			}
		],
		 "valence_orbital": [ 
			{
				"type": "occ",
				"energy": -0.34948,
				"method": "rhf"
			},
			{
				"type": "occ",
				"energy": -0.33993,
				"method": "rhf"
			},
			{
				"type": "occ",
				"energy": -0.27001,
				"method": "rhf"
			},
			{
				"type": "occ",
				"energy": -0.24129,
				"method": "rhf"
			},
			{
				"type": "occ",
				"energy": -0.2408,
				"method": "rhf"
			},
			{
				"type": "unocc",
				"energy": -0.03014,
				"method": "rhf"
			},
			{
				"type": "unocc",
				"energy": 0.06914,
				"method": "rhf"
			},
			{
				"type": "unocc",
				"energy": 0.09518,
				"method": "rhf"
			},
			{
				"type": "unocc",
				"energy": 0.09579,
				"method": "rhf"
			},
			{
				"type": "unocc",
				"energy": 0.12019,
				"method": "rhf"
			}
		],
		"cosmo_sigma_profile": { 
			"-0.025": 0.0,
			"-0.024": 0.0,
			"-0.023": 0.0,
			"-0.022": 0.0,
			"-0.021": 0.0,
			"-0.02": 0.0,
			"-0.019": 0.0,
			"-0.018": 0.0,
			"-0.017": 0.0,
			"-0.016": 0.0,
			"-0.015": 0.0,
			"-0.014": 0.0,
			"-0.013": 0.0,
			"-0.012": 0.456320017404,
			"-0.011": 0.548018000634,
			"-0.01": 0.932304501316,
			"-0.009": 0.733491497611,
			"-0.008": 1.06006294504,
			"-0.007": 3.92202472169,
			"-0.006": 5.14818441451,
			"-0.005": 6.58697972962,
			"-0.004": 17.8037123746,
			"-0.003": 23.8619657417,
			"-0.002": 19.9573432347,
			"-0.001": 20.3368823573,
			"0.0": 27.7815335778,
			"0.001": 16.4575401833,
			"0.002": 6.58188629481,
			"0.003": 6.27194350313,
			"0.004": 5.91495010545,
			"0.005": 2.64756881936,
			"0.006": 2.2001834065,
			"0.007": 1.21503542926,
			"0.008": 1.30218556373,
			"0.009": 2.17667994803,
			"0.01": 1.15179757573,
			"0.011": 1.08774392841,
			"0.012": 1.50439374632,
			"0.013": 2.732405577,
			"0.014": 5.15873741802,
			"0.015": 2.82618030998,
			"0.016": 0.0248396100921,
			"0.017": 0.0,
			"0.018": 0.0,
			"0.019": 0.0,
			"0.02": 0.0,
			"0.021": 0.0,
			"0.022": 0.0,
			"0.023": 0.0,
			"0.024": 0.0,
			"0.025": 0.0
		}
	}
}
