{
	 "smiles": "OC(CC1CCCCCN1)C1=CC=CS1", 
	 "Tm": 334.15, 
	 "num_atms": 34, 
	 "gaussian": { 
		 "optdone": 1, 
		 "sigma_profile": "yes", 
		 "theory": "DFT", 
		 "functional": "B3LYP", 
		 "basiset": "6-31G**", 
		 "properties": { 
			 "R2extent": 4678.1232, 
			 "electric_dipole_moment_norm": 2.05013075193, 
			 "electric_quadrupole_moment_norm": 8.96377799814, 
			 "total_energy": -996.861112612, 
			 "HOMO_LUMO_gap": 0.18909, 
			 "cosmo_polarized_energy": -10.23, 
			 "cosmo_cavitation_energy": 34.5, 
			 "cosmo_dispersion_energy": -25.08, 
			 "cosmo_repulsion_energy": 1.92, 
			 "cosmo_total_nonelectrostatic_energy": 11.33, 
			 "SMD_solvation_energy": 2.68 
		},
		"coords": [
			{
				"x": 1.4178479691,
				"y": 1.0755581191,
				"z": 1.4501359735,
				"element": "O" 
			},
			{
				"x": 0.9435155939,
				"y": 0.4162795999,
				"z": 0.2680631731,
				"element": "C" 
			},
			{
				"x": 0.3637779229,
				"y": 1.4328851936,
				"z": -0.7329387782,
				"element": "C" 
			},
			{
				"x": 0.1734184136,
				"y": 0.8907558693,
				"z": -2.1783798506,
				"element": "C" 
			},
			{
				"x": 0.4762115385,
				"y": 1.9526322534,
				"z": -3.2580609225,
				"element": "C" 
			},
			{
				"x": -0.1975786436,
				"y": 3.3351297912,
				"z": -3.1480599359,
				"element": "C" 
			},
			{
				"x": -1.7098161742,
				"y": 3.3621910787,
				"z": -2.827216768,
				"element": "C" 
			},
			{
				"x": -2.5198649613,
				"y": 2.1284200761,
				"z": -3.2581439974,
				"element": "C" 
			},
			{
				"x": -2.3543569369,
				"y": 0.9206740192,
				"z": -2.3242591393,
				"element": "C" 
			},
			{
				"x": -1.0926967387,
				"y": 0.2007180302,
				"z": -2.4768130039,
				"element": "N" 
			},
			{
				"x": 0.0157697718,
				"y": -0.7196568651,
				"z": 0.6357622231,
				"element": "C" 
			},
			{
				"x": -1.3455215795,
				"y": -0.709146595,
				"z": 0.8287300288,
				"element": "C" 
			},
			{
				"x": -1.8641231023,
				"y": -1.9488345995,
				"z": 1.3128599598,
				"element": "C" 
			},
			{
				"x": -0.891063623,
				"y": -2.8931449926,
				"z": 1.4922503161,
				"element": "C" 
			},
			{
				"x": 0.6733079547,
				"y": -2.2779854442,
				"z": 1.0753694281,
				"element": "S" 
			},
			{
				"x": 0.6412812413,
				"y": 1.3099966193,
				"z": 1.976497958,
				"element": "H" 
			},
			{
				"x": 1.8523578024,
				"y": -0.0039423878,
				"z": -0.1797522872,
				"element": "H" 
			},
			{
				"x": -0.5730560985,
				"y": 1.8519354503,
				"z": -0.345184266,
				"element": "H" 
			},
			{
				"x": 1.0818601139,
				"y": 2.2603540972,
				"z": -0.7442530686,
				"element": "H" 
			},
			{
				"x": 0.9367103365,
				"y": 0.1129261902,
				"z": -2.3234160535,
				"element": "H" 
			},
			{
				"x": 0.2169914703,
				"y": 1.4922209667,
				"z": -4.2175394042,
				"element": "H" 
			},
			{
				"x": 1.5612489697,
				"y": 2.1180321856,
				"z": -3.2778303844,
				"element": "H" 
			},
			{
				"x": -0.0236706159,
				"y": 3.8448543277,
				"z": -4.1040457199,
				"element": "H" 
			},
			{
				"x": 0.3258237773,
				"y": 3.940764431,
				"z": -2.3978811689,
				"element": "H" 
			},
			{
				"x": -1.8533573989,
				"y": 3.4908272606,
				"z": -1.7458564059,
				"element": "H" 
			},
			{
				"x": -2.1441415802,
				"y": 4.2587781595,
				"z": -3.2859832775,
				"element": "H" 
			},
			{
				"x": -2.2774767544,
				"y": 1.8319087746,
				"z": -4.2860218472,
				"element": "H" 
			},
			{
				"x": -3.5837362494,
				"y": 2.3980461835,
				"z": -3.2523211767,
				"element": "H" 
			},
			{
				"x": -2.5463865311,
				"y": 1.2761081253,
				"z": -1.2911406713,
				"element": "H" 
			},
			{
				"x": -3.1462689743,
				"y": 0.1940898199,
				"z": -2.5433373248,
				"element": "H" 
			},
			{
				"x": -1.138947187,
				"y": -0.6517949369,
				"z": -1.9270160158,
				"element": "H" 
			},
			{
				"x": -1.9660103094,
				"y": 0.1573061759,
				"z": 0.6289043868,
				"element": "H" 
			},
			{
				"x": -2.9147984021,
				"y": -2.1271761762,
				"z": 1.5121272454,
				"element": "H" 
			},
			{
				"x": -1.0013510152,
				"y": -3.9133108005,
				"z": 1.8332507749,
				"element": "H" 
			}
		],
		 "valence_orbital": [ 
			{
				"type": "occ",
				"energy": -0.30394,
				"method": "rhf"
			},
			{
				"type": "occ",
				"energy": -0.27219,
				"method": "rhf"
			},
			{
				"type": "occ",
				"energy": -0.25491,
				"method": "rhf"
			},
			{
				"type": "occ",
				"energy": -0.23527,
				"method": "rhf"
			},
			{
				"type": "occ",
				"energy": -0.20917,
				"method": "rhf"
			},
			{
				"type": "unocc",
				"energy": -0.02008,
				"method": "rhf"
			},
			{
				"type": "unocc",
				"energy": 0.02585,
				"method": "rhf"
			},
			{
				"type": "unocc",
				"energy": 0.05625,
				"method": "rhf"
			},
			{
				"type": "unocc",
				"energy": 0.06845,
				"method": "rhf"
			},
			{
				"type": "unocc",
				"energy": 0.08034,
				"method": "rhf"
			}
		],
		"cosmo_sigma_profile": { 
			"-0.025": 0.0,
			"-0.024": 0.0,
			"-0.023": 0.0,
			"-0.022": 0.0,
			"-0.021": 0.0,
			"-0.02": 0.0,
			"-0.019": 0.0,
			"-0.018": 0.0,
			"-0.017": 0.0,
			"-0.016": 0.0,
			"-0.015": 0.104934960581,
			"-0.014": 0.698001041775,
			"-0.013": 1.02212845833,
			"-0.012": 0.386138211667,
			"-0.011": 1.18036611928,
			"-0.01": 0.825408315562,
			"-0.009": 1.13484980905,
			"-0.008": 2.36350896981,
			"-0.007": 4.84098847612,
			"-0.006": 7.18080107866,
			"-0.005": 11.7894265674,
			"-0.004": 13.5928061247,
			"-0.003": 19.3866464153,
			"-0.002": 33.986354348,
			"-0.001": 35.6177708358,
			"0.0": 34.9471692354,
			"0.001": 28.0349710842,
			"0.002": 15.5726868508,
			"0.003": 11.2132810787,
			"0.004": 12.4578964078,
			"0.005": 9.80360514223,
			"0.006": 4.4201948621,
			"0.007": 2.47612810152,
			"0.008": 2.45410446693,
			"0.009": 1.54297345771,
			"0.01": 1.97952173172,
			"0.011": 2.41069780842,
			"0.012": 1.50714181528,
			"0.013": 2.28706182767,
			"0.014": 2.05295355435,
			"0.015": 1.1572676359,
			"0.016": 0.725531623152,
			"0.017": 0.214342317035,
			"0.018": 0.343137427906,
			"0.019": 0.0,
			"0.02": 0.0,
			"0.021": 0.0,
			"0.022": 0.0,
			"0.023": 0.0,
			"0.024": 0.0,
			"0.025": 0.0
		}
	}
}
