{
	 "smiles": "CC1=CC2=C(N1)C=CC(C)=C2", 
	 "Tm": 388.15, 
	 "num_atms": 22, 
	 "gaussian": { 
		 "optdone": 1, 
		 "sigma_profile": "yes", 
		 "theory": "DFT", 
		 "functional": "B3LYP", 
		 "basiset": "6-31G**", 
		 "properties": { 
			 "R2extent": 2523.4513, 
			 "electric_dipole_moment_norm": 2.30080089751, 
			 "electric_quadrupole_moment_norm": 6.51969301425, 
			 "total_energy": -442.464626674, 
			 "HOMO_LUMO_gap": 0.19406, 
			 "cosmo_polarized_energy": -8.18, 
			 "cosmo_cavitation_energy": 25.03, 
			 "cosmo_dispersion_energy": -18.7, 
			 "cosmo_repulsion_energy": 1.5, 
			 "cosmo_total_nonelectrostatic_energy": 7.84, 
			 "SMD_solvation_energy": 4.06 
		},
		"coords": [
			{
				"x": -1.9189222736,
				"y": 1.9253476257,
				"z": 2.0774388749,
				"element": "C" 
			},
			{
				"x": -1.4980962505,
				"y": 1.2421792979,
				"z": 0.8167260518,
				"element": "C" 
			},
			{
				"x": -2.2025705509,
				"y": 0.4186965358,
				"z": -0.0275219172,
				"element": "C" 
			},
			{
				"x": -1.3246908384,
				"y": 0.0315623964,
				"z": -1.0968960246,
				"element": "C" 
			},
			{
				"x": -0.0755251489,
				"y": 0.6605040303,
				"z": -0.8479781255,
				"element": "C" 
			},
			{
				"x": -0.2104456003,
				"y": 1.3881641883,
				"z": 0.3196149905,
				"element": "N" 
			},
			{
				"x": 1.0182197376,
				"y": 0.4966138633,
				"z": -1.7030814582,
				"element": "C" 
			},
			{
				"x": 0.846681483,
				"y": -0.3112128675,
				"z": -2.8204556587,
				"element": "C" 
			},
			{
				"x": -0.3827462377,
				"y": -0.9550028939,
				"z": -3.1025496326,
				"element": "C" 
			},
			{
				"x": -0.50729832,
				"y": -1.8219831884,
				"z": -4.3356867252,
				"element": "C" 
			},
			{
				"x": -1.4602164212,
				"y": -0.7788962435,
				"z": -2.2382538705,
				"element": "C" 
			},
			{
				"x": -1.313583226,
				"y": 1.6075149528,
				"z": 2.9359560265,
				"element": "H" 
			},
			{
				"x": -1.829700772,
				"y": 3.0164682795,
				"z": 2.0001526301,
				"element": "H" 
			},
			{
				"x": -2.9620981137,
				"y": 1.6914362146,
				"z": 2.3005797851,
				"element": "H" 
			},
			{
				"x": -3.2345508728,
				"y": 0.1241304758,
				"z": 0.1048919568,
				"element": "H" 
			},
			{
				"x": 0.5130727899,
				"y": 1.9427562114,
				"z": 0.7475713138,
				"element": "H" 
			},
			{
				"x": 1.9705803252,
				"y": 0.9814046358,
				"z": -1.5052037266,
				"element": "H" 
			},
			{
				"x": 1.6822272709,
				"y": -0.4548524863,
				"z": -3.5013022933,
				"element": "H" 
			},
			{
				"x": -1.5095097001,
				"y": -2.2519368467,
				"z": -4.4200878403,
				"element": "H" 
			},
			{
				"x": 0.2095028602,
				"y": -2.6519155843,
				"z": -4.3194668948,
				"element": "H" 
			},
			{
				"x": -0.3134180926,
				"y": -1.2508162921,
				"z": -5.2517495403,
				"element": "H" 
			},
			{
				"x": -2.4080120479,
				"y": -1.2695623051,
				"z": -2.4471979218,
				"element": "H" 
			}
		],
		 "valence_orbital": [ 
			{
				"type": "occ",
				"energy": -0.32105,
				"method": "rhf"
			},
			{
				"type": "occ",
				"energy": -0.30839,
				"method": "rhf"
			},
			{
				"type": "occ",
				"energy": -0.26489,
				"method": "rhf"
			},
			{
				"type": "occ",
				"energy": -0.20254,
				"method": "rhf"
			},
			{
				"type": "occ",
				"energy": -0.1922,
				"method": "rhf"
			},
			{
				"type": "unocc",
				"energy": 0.00186,
				"method": "rhf"
			},
			{
				"type": "unocc",
				"energy": 0.03679,
				"method": "rhf"
			},
			{
				"type": "unocc",
				"energy": 0.07651,
				"method": "rhf"
			},
			{
				"type": "unocc",
				"energy": 0.0823,
				"method": "rhf"
			},
			{
				"type": "unocc",
				"energy": 0.11347,
				"method": "rhf"
			}
		],
		"cosmo_sigma_profile": { 
			"-0.025": 0.0,
			"-0.024": 0.0,
			"-0.023": 0.0,
			"-0.022": 0.0,
			"-0.021": 0.0,
			"-0.02": 0.0,
			"-0.019": 0.0,
			"-0.018": 0.0,
			"-0.017": 0.0,
			"-0.016": 0.0,
			"-0.015": 0.731781006881,
			"-0.014": 1.33773308139,
			"-0.013": 1.08390074977,
			"-0.012": 1.10395336354,
			"-0.011": 1.36215670313,
			"-0.01": 1.06020131122,
			"-0.009": 1.4745817121,
			"-0.008": 1.39387448291,
			"-0.007": 1.37229774451,
			"-0.006": 2.6096073918,
			"-0.005": 8.06106270961,
			"-0.004": 16.6643951952,
			"-0.003": 20.1248098944,
			"-0.002": 19.2299632584,
			"-0.001": 20.3169042529,
			"0.0": 19.0866003045,
			"0.001": 13.5769338333,
			"0.002": 9.10024014326,
			"0.003": 7.94850330061,
			"0.004": 8.76914456825,
			"0.005": 10.6479014296,
			"0.006": 11.5605731151,
			"0.007": 13.3909949058,
			"0.008": 6.29581917383,
			"0.009": 0.0,
			"0.01": 0.0,
			"0.011": 0.0,
			"0.012": 0.0,
			"0.013": 0.0,
			"0.014": 0.0,
			"0.015": 0.0,
			"0.016": 0.0,
			"0.017": 0.0,
			"0.018": 0.0,
			"0.019": 0.0,
			"0.02": 0.0,
			"0.021": 0.0,
			"0.022": 0.0,
			"0.023": 0.0,
			"0.024": 0.0,
			"0.025": 0.0
		}
	}
}
