{
	 "smiles": "COC1=CC=C(C=C2C(=O)NC(=O)NC2=O)C=C1OC", 
	 "Tm": 538.15, 
	 "num_atms": 32, 
	 "gaussian": { 
		 "optdone": 1, 
		 "sigma_profile": "yes", 
		 "theory": "DFT", 
		 "functional": "B3LYP", 
		 "basiset": "6-31G**", 
		 "properties": { 
			 "R2extent": 8357.8448, 
			 "electric_dipole_moment_norm": 4.81964932438, 
			 "electric_quadrupole_moment_norm": 7.88002407039, 
			 "total_energy": -988.249475201, 
			 "HOMO_LUMO_gap": 0.14076, 
			 "cosmo_polarized_energy": -17.27, 
			 "cosmo_cavitation_energy": 37.18, 
			 "cosmo_dispersion_energy": -27.03, 
			 "cosmo_repulsion_energy": 2.05, 
			 "cosmo_total_nonelectrostatic_energy": 12.2, 
			 "SMD_solvation_energy": 9.99 
		},
		"coords": [
			{
				"x": 3.8859622166,
				"y": -3.4821577595,
				"z": -2.7481940039,
				"element": "C" 
			},
			{
				"x": 2.5039899312,
				"y": -3.4920499942,
				"z": -2.3518697736,
				"element": "O" 
			},
			{
				"x": 2.0816143299,
				"y": -2.4462446496,
				"z": -1.5826271703,
				"element": "C" 
			},
			{
				"x": 1.0292010171,
				"y": -1.6553907356,
				"z": -2.059702218,
				"element": "C" 
			},
			{
				"x": 0.534780046,
				"y": -0.5866707891,
				"z": -1.3252341879,
				"element": "C" 
			},
			{
				"x": 1.093768254,
				"y": -0.269632621,
				"z": -0.0654241981,
				"element": "C" 
			},
			{
				"x": 0.709209398,
				"y": 0.8107768694,
				"z": 0.8192187303,
				"element": "C" 
			},
			{
				"x": -0.1916488734,
				"y": 1.8455045725,
				"z": 0.836124968,
				"element": "C" 
			},
			{
				"x": -1.1707731764,
				"y": 2.2100937392,
				"z": -0.2079585487,
				"element": "C" 
			},
			{
				"x": -1.3461393495,
				"y": 1.6412481004,
				"z": -1.2784592998,
				"element": "O" 
			},
			{
				"x": -1.9655424229,
				"y": 3.3229902999,
				"z": 0.0798576578,
				"element": "N" 
			},
			{
				"x": -1.9569355516,
				"y": 4.1267838743,
				"z": 1.2097940761,
				"element": "C" 
			},
			{
				"x": -2.6996988567,
				"y": 5.0778565865,
				"z": 1.3552944446,
				"element": "O" 
			},
			{
				"x": -1.0203719079,
				"y": 3.7399433039,
				"z": 2.1548985405,
				"element": "N" 
			},
			{
				"x": -0.1290699038,
				"y": 2.6724832302,
				"z": 2.0826056647,
				"element": "C" 
			},
			{
				"x": 0.6375717736,
				"y": 2.4683735492,
				"z": 3.0126017622,
				"element": "O" 
			},
			{
				"x": 2.1387568487,
				"y": -1.0960408584,
				"z": 0.4190591577,
				"element": "C" 
			},
			{
				"x": 2.6256619609,
				"y": -2.1715788095,
				"z": -0.3082229432,
				"element": "C" 
			},
			{
				"x": 3.6459682142,
				"y": -2.9302722065,
				"z": 0.2208170694,
				"element": "O" 
			},
			{
				"x": 3.2520742604,
				"y": -4.245067114,
				"z": 0.6378980621,
				"element": "C" 
			},
			{
				"x": 4.0366337176,
				"y": -4.3956560969,
				"z": -3.3253386046,
				"element": "H" 
			},
			{
				"x": 4.0901644966,
				"y": -2.6129378417,
				"z": -3.3841843411,
				"element": "H" 
			},
			{
				"x": 4.5528463135,
				"y": -3.4678949388,
				"z": -1.8831114088,
				"element": "H" 
			},
			{
				"x": 0.6170854937,
				"y": -1.8976700642,
				"z": -3.0339872591,
				"element": "H" 
			},
			{
				"x": -0.2683514861,
				"y": 0.0229946766,
				"z": -1.7131948141,
				"element": "H" 
			},
			{
				"x": 1.2947121012,
				"y": 0.8148052544,
				"z": 1.7384755521,
				"element": "H" 
			},
			{
				"x": -2.6379722133,
				"y": 3.5768237807,
				"z": -0.6332675772,
				"element": "H" 
			},
			{
				"x": -0.9809159695,
				"y": 4.3010166202,
				"z": 2.9965469674,
				"element": "H" 
			},
			{
				"x": 2.5844408559,
				"y": -0.9044173916,
				"z": 1.390581148,
				"element": "H" 
			},
			{
				"x": 2.4946485617,
				"y": -4.1891608607,
				"z": 1.4290814203,
				"element": "H" 
			},
			{
				"x": 4.1513458991,
				"y": -4.7229139592,
				"z": 1.0307658791,
				"element": "H" 
			},
			{
				"x": 2.8589840212,
				"y": -4.8293377672,
				"z": -0.200644752,
				"element": "H" 
			}
		],
		 "valence_orbital": [ 
			{
				"type": "occ",
				"energy": -0.29041,
				"method": "rhf"
			},
			{
				"type": "occ",
				"energy": -0.28097,
				"method": "rhf"
			},
			{
				"type": "occ",
				"energy": -0.26139,
				"method": "rhf"
			},
			{
				"type": "occ",
				"energy": -0.25949,
				"method": "rhf"
			},
			{
				"type": "occ",
				"energy": -0.23854,
				"method": "rhf"
			},
			{
				"type": "unocc",
				"energy": -0.09778,
				"method": "rhf"
			},
			{
				"type": "unocc",
				"energy": -0.01463,
				"method": "rhf"
			},
			{
				"type": "unocc",
				"energy": -0.00691,
				"method": "rhf"
			},
			{
				"type": "unocc",
				"energy": 0.00052,
				"method": "rhf"
			},
			{
				"type": "unocc",
				"energy": 0.03774,
				"method": "rhf"
			}
		],
		"cosmo_sigma_profile": { 
			"-0.025": 0.0,
			"-0.024": 0.0,
			"-0.023": 0.0,
			"-0.022": 0.0,
			"-0.021": 0.0,
			"-0.02": 0.0,
			"-0.019": 0.0,
			"-0.018": 0.0,
			"-0.017": 0.177139028236,
			"-0.016": 1.39098212451,
			"-0.015": 1.96867631534,
			"-0.014": 1.49194370673,
			"-0.013": 1.92916089389,
			"-0.012": 1.03916642452,
			"-0.011": 1.06448993144,
			"-0.01": 1.62427661256,
			"-0.009": 2.41213080697,
			"-0.008": 4.61128426562,
			"-0.007": 5.93151619443,
			"-0.006": 11.4560944589,
			"-0.005": 18.0957414747,
			"-0.004": 23.419254266,
			"-0.003": 31.4828215615,
			"-0.002": 28.576691481,
			"-0.001": 21.93137719,
			"0.0": 19.9890943858,
			"0.001": 19.6676525069,
			"0.002": 21.1055006979,
			"0.003": 11.9147986994,
			"0.004": 6.45874316231,
			"0.005": 7.46133167308,
			"0.006": 4.5869349472,
			"0.007": 6.13201762881,
			"0.008": 5.98845880226,
			"0.009": 5.65801934879,
			"0.01": 7.60688017996,
			"0.011": 10.4468248398,
			"0.012": 11.0267650252,
			"0.013": 0.888420248261,
			"0.014": 0.0,
			"0.015": 0.0,
			"0.016": 0.0,
			"0.017": 0.0,
			"0.018": 0.0,
			"0.019": 0.0,
			"0.02": 0.0,
			"0.021": 0.0,
			"0.022": 0.0,
			"0.023": 0.0,
			"0.024": 0.0,
			"0.025": 0.0
		}
	}
}
