{
	 "smiles": "CC(=O)NC(CC(N)=O)C(O)=O", 
	 "Tm": 442.15, 
	 "num_atms": 22, 
	 "gaussian": { 
		 "optdone": 1, 
		 "sigma_profile": "yes", 
		 "theory": "DFT", 
		 "functional": "B3LYP", 
		 "basiset": "6-31G**", 
		 "properties": { 
			 "R2extent": 2713.2373, 
			 "electric_dipole_moment_norm": 8.55122683947, 
			 "electric_quadrupole_moment_norm": 19.7619864062, 
			 "total_energy": -645.114343759, 
			 "HOMO_LUMO_gap": 0.2243, 
			 "cosmo_polarized_energy": -27.49, 
			 "cosmo_cavitation_energy": 26.16, 
			 "cosmo_dispersion_energy": -18.71, 
			 "cosmo_repulsion_energy": 1.52, 
			 "cosmo_total_nonelectrostatic_energy": 8.98, 
			 "SMD_solvation_energy": 6.75 
		},
		"coords": [
			{
				"x": -0.2748425473,
				"y": 1.5442999514,
				"z": 1.0372113702,
				"element": "C" 
			},
			{
				"x": -1.4234046213,
				"y": 0.558999312,
				"z": 1.2135765861,
				"element": "C" 
			},
			{
				"x": -2.2895693992,
				"y": 0.7239205633,
				"z": 2.0595688972,
				"element": "O" 
			},
			{
				"x": -1.4508026951,
				"y": -0.5305341043,
				"z": 0.3730512124,
				"element": "N" 
			},
			{
				"x": -0.6011097762,
				"y": -0.7910367297,
				"z": -0.7648232403,
				"element": "C" 
			},
			{
				"x": 0.6713223812,
				"y": -1.6036260744,
				"z": -0.3677007415,
				"element": "C" 
			},
			{
				"x": 1.8372645101,
				"y": -1.4016356048,
				"z": -1.3234616025,
				"element": "C" 
			},
			{
				"x": 3.0760782803,
				"y": -1.5028579893,
				"z": -0.7924458562,
				"element": "N" 
			},
			{
				"x": 1.6737662833,
				"y": -1.152137576,
				"z": -2.524537018,
				"element": "O" 
			},
			{
				"x": -1.4452161282,
				"y": -1.5580984847,
				"z": -1.816193629,
				"element": "C" 
			},
			{
				"x": -0.8425407547,
				"y": -1.800537411,
				"z": -2.9747692174,
				"element": "O" 
			},
			{
				"x": -2.5759140323,
				"y": -1.9213743641,
				"z": -1.5763166527,
				"element": "O" 
			},
			{
				"x": -0.3049980141,
				"y": 2.2432391735,
				"z": 1.8725110252,
				"element": "H" 
			},
			{
				"x": -0.3905578783,
				"y": 2.1091569483,
				"z": 0.1047662981,
				"element": "H" 
			},
			{
				"x": 0.7051878189,
				"y": 1.0570934768,
				"z": 1.0084116439,
				"element": "H" 
			},
			{
				"x": -2.3121002964,
				"y": -1.0691811057,
				"z": 0.3855109926,
				"element": "H" 
			},
			{
				"x": -0.2742166961,
				"y": 0.1469353769,
				"z": -1.2292241688,
				"element": "H" 
			},
			{
				"x": 0.4356360043,
				"y": -2.6747781731,
				"z": -0.3280451268,
				"element": "H" 
			},
			{
				"x": 0.9603855297,
				"y": -1.3162147889,
				"z": 0.6472399575,
				"element": "H" 
			},
			{
				"x": 3.8710323997,
				"y": -1.4213215697,
				"z": -1.4099020005,
				"element": "H" 
			},
			{
				"x": 3.2317479334,
				"y": -1.7089561989,
				"z": 0.181019533,
				"element": "H" 
			},
			{
				"x": 0.0999516985,
				"y": -1.4787546276,
				"z": -2.9579482624,
				"element": "H" 
			}
		],
		 "valence_orbital": [ 
			{
				"type": "occ",
				"energy": -0.30977,
				"method": "rhf"
			},
			{
				"type": "occ",
				"energy": -0.30575,
				"method": "rhf"
			},
			{
				"type": "occ",
				"energy": -0.27592,
				"method": "rhf"
			},
			{
				"type": "occ",
				"energy": -0.25486,
				"method": "rhf"
			},
			{
				"type": "occ",
				"energy": -0.24583,
				"method": "rhf"
			},
			{
				"type": "unocc",
				"energy": -0.02153,
				"method": "rhf"
			},
			{
				"type": "unocc",
				"energy": 0.00491,
				"method": "rhf"
			},
			{
				"type": "unocc",
				"energy": 0.02628,
				"method": "rhf"
			},
			{
				"type": "unocc",
				"energy": 0.03984,
				"method": "rhf"
			},
			{
				"type": "unocc",
				"energy": 0.07123,
				"method": "rhf"
			}
		],
		"cosmo_sigma_profile": { 
			"-0.025": 0.0,
			"-0.024": 0.0,
			"-0.023": 0.0,
			"-0.022": 0.0,
			"-0.021": 0.0,
			"-0.02": 0.0,
			"-0.019": 0.0,
			"-0.018": 0.0,
			"-0.017": 0.0,
			"-0.016": 0.508959839125,
			"-0.015": 2.1082622282,
			"-0.014": 3.08803165854,
			"-0.013": 3.06652224393,
			"-0.012": 2.71853243262,
			"-0.011": 2.23794116669,
			"-0.01": 2.88614184379,
			"-0.009": 4.98193912289,
			"-0.008": 12.2411826644,
			"-0.007": 11.5027798618,
			"-0.006": 10.8459835787,
			"-0.005": 10.7232948626,
			"-0.004": 11.3692160567,
			"-0.003": 10.1166552089,
			"-0.002": 10.6726242493,
			"-0.001": 12.7964243517,
			"0.0": 8.91696547189,
			"0.001": 8.60241273703,
			"0.002": 7.17671789174,
			"0.003": 4.36791248181,
			"0.004": 4.34305990161,
			"0.005": 4.72630234014,
			"0.006": 5.18659855336,
			"0.007": 4.19907778774,
			"0.008": 5.79600690419,
			"0.009": 5.78869841012,
			"0.01": 6.80454227394,
			"0.011": 8.6845170747,
			"0.012": 6.80508321664,
			"0.013": 5.47242042041,
			"0.014": 5.6063363569,
			"0.015": 1.57199406981,
			"0.016": 0.0,
			"0.017": 0.0,
			"0.018": 0.0,
			"0.019": 0.0,
			"0.02": 0.0,
			"0.021": 0.0,
			"0.022": 0.0,
			"0.023": 0.0,
			"0.024": 0.0,
			"0.025": 0.0
		}
	}
}
