{
	 "smiles": "FC1=CC=C(C=C1)C(=O)C1=C(Cl)C=CC=C1", 
	 "Tm": 335.15, 
	 "num_atms": 24, 
	 "gaussian": { 
		 "optdone": 1, 
		 "sigma_profile": "yes", 
		 "theory": "DFT", 
		 "functional": "B3LYP", 
		 "basiset": "6-31G**", 
		 "properties": { 
			 "R2extent": 4390.8352, 
			 "electric_dipole_moment_norm": 2.88112548147, 
			 "electric_quadrupole_moment_norm": 10.5567549858, 
			 "total_energy": -1135.45170925, 
			 "HOMO_LUMO_gap": 0.18578, 
			 "cosmo_polarized_energy": -8.81, 
			 "cosmo_cavitation_energy": 31.09, 
			 "cosmo_dispersion_energy": -21.97, 
			 "cosmo_repulsion_energy": 1.68, 
			 "cosmo_total_nonelectrostatic_energy": 10.8, 
			 "SMD_solvation_energy": 6.01 
		},
		"coords": [
			{
				"x": 1.6528324637,
				"y": 4.6512458302,
				"z": -1.2308028631,
				"element": "F" 
			},
			{
				"x": 1.5752982548,
				"y": 3.4202873382,
				"z": -0.6931839833,
				"element": "C" 
			},
			{
				"x": 0.3292887647,
				"y": 2.8097738702,
				"z": -0.5903608503,
				"element": "C" 
			},
			{
				"x": 0.257163693,
				"y": 1.5333683024,
				"z": -0.0387706347,
				"element": "C" 
			},
			{
				"x": 1.4162980368,
				"y": 0.8814719962,
				"z": 0.4096366804,
				"element": "C" 
			},
			{
				"x": 2.6564497587,
				"y": 1.5339668632,
				"z": 0.302330177,
				"element": "C" 
			},
			{
				"x": 2.7456395721,
				"y": 2.802949384,
				"z": -0.2557697964,
				"element": "C" 
			},
			{
				"x": 1.3844796014,
				"y": -0.4589011784,
				"z": 1.0615835869,
				"element": "C" 
			},
			{
				"x": 2.3476691989,
				"y": -0.8829327865,
				"z": 1.6856160403,
				"element": "O" 
			},
			{
				"x": 0.115863861,
				"y": -1.2844388664,
				"z": 1.0408638775,
				"element": "C" 
			},
			{
				"x": -0.5007298656,
				"y": -1.7840603625,
				"z": -0.1143823799,
				"element": "C" 
			},
			{
				"x": 0.1875922484,
				"y": -1.4838021414,
				"z": -1.7074684713,
				"element": "Cl" 
			},
			{
				"x": -1.6451965405,
				"y": -2.5799977627,
				"z": -0.0405219696,
				"element": "C" 
			},
			{
				"x": -2.1925994248,
				"y": -2.8849725727,
				"z": 1.2044702841,
				"element": "C" 
			},
			{
				"x": -1.5847176036,
				"y": -2.4158679377,
				"z": 2.3706613909,
				"element": "C" 
			},
			{
				"x": -0.4349720868,
				"y": -1.6362906233,
				"z": 2.2833843344,
				"element": "C" 
			},
			{
				"x": -0.5542168182,
				"y": 3.3332788489,
				"z": -0.9384029625,
				"element": "H" 
			},
			{
				"x": -0.707860872,
				"y": 1.0462049488,
				"z": 0.0510507845,
				"element": "H" 
			},
			{
				"x": 3.540563008,
				"y": 1.02229183,
				"z": 0.6668418562,
				"element": "H" 
			},
			{
				"x": 3.693294043,
				"y": 3.3207973522,
				"z": -0.3557810527,
				"element": "H" 
			},
			{
				"x": -2.0896607341,
				"y": -2.9609188637,
				"z": -0.9533355794,
				"element": "H" 
			},
			{
				"x": -3.0860919128,
				"y": -3.4995353773,
				"z": 1.2593309827,
				"element": "H" 
			},
			{
				"x": -1.999100917,
				"y": -2.6639738198,
				"z": 3.3427897216,
				"element": "H" 
			},
			{
				"x": 0.0610142712,
				"y": -1.2838442719,
				"z": 3.1822208268,
				"element": "H" 
			}
		],
		 "valence_orbital": [ 
			{
				"type": "occ",
				"energy": -0.27615,
				"method": "rhf"
			},
			{
				"type": "occ",
				"energy": -0.27152,
				"method": "rhf"
			},
			{
				"type": "occ",
				"energy": -0.25831,
				"method": "rhf"
			},
			{
				"type": "occ",
				"energy": -0.25458,
				"method": "rhf"
			},
			{
				"type": "occ",
				"energy": -0.25226,
				"method": "rhf"
			},
			{
				"type": "unocc",
				"energy": -0.06648,
				"method": "rhf"
			},
			{
				"type": "unocc",
				"energy": -0.02372,
				"method": "rhf"
			},
			{
				"type": "unocc",
				"energy": -0.02315,
				"method": "rhf"
			},
			{
				"type": "unocc",
				"energy": -0.01775,
				"method": "rhf"
			},
			{
				"type": "unocc",
				"energy": 0.02295,
				"method": "rhf"
			}
		],
		"cosmo_sigma_profile": { 
			"-0.025": 0.0,
			"-0.024": 0.0,
			"-0.023": 0.0,
			"-0.022": 0.0,
			"-0.021": 0.0,
			"-0.02": 0.0,
			"-0.019": 0.0,
			"-0.018": 0.0,
			"-0.017": 0.0,
			"-0.016": 0.0,
			"-0.015": 0.0,
			"-0.014": 0.0,
			"-0.013": 0.0,
			"-0.012": 0.0,
			"-0.011": 0.0,
			"-0.01": 0.0,
			"-0.009": 0.0,
			"-0.008": 2.73578053938,
			"-0.007": 11.972740663,
			"-0.006": 16.1166202026,
			"-0.005": 16.6255005711,
			"-0.004": 12.9856339083,
			"-0.003": 13.4647877303,
			"-0.002": 13.9505217177,
			"-0.001": 17.0596279819,
			"0.0": 24.4585190185,
			"0.001": 25.5776595726,
			"0.002": 28.5074909119,
			"0.003": 28.1549498436,
			"0.004": 22.1792405694,
			"0.005": 3.3867645696,
			"0.006": 1.58300596463,
			"0.007": 1.24749744001,
			"0.008": 2.12709435376,
			"0.009": 1.96557036719,
			"0.01": 2.58358495001,
			"0.011": 3.64403630944,
			"0.012": 2.2652340596,
			"0.013": 0.279013300584,
			"0.014": 0.0,
			"0.015": 0.0,
			"0.016": 0.0,
			"0.017": 0.0,
			"0.018": 0.0,
			"0.019": 0.0,
			"0.02": 0.0,
			"0.021": 0.0,
			"0.022": 0.0,
			"0.023": 0.0,
			"0.024": 0.0,
			"0.025": 0.0
		}
	}
}
