{
	 "smiles": "CNC(=O)NC1=CC=C(N)C=C1", 
	 "Tm": 421.15, 
	 "num_atms": 23, 
	 "gaussian": { 
		 "optdone": 1, 
		 "sigma_profile": "yes", 
		 "theory": "DFT", 
		 "functional": "B3LYP", 
		 "basiset": "6-31G**", 
		 "properties": { 
			 "R2extent": 3241.4284, 
			 "electric_dipole_moment_norm": 3.74506509156, 
			 "electric_quadrupole_moment_norm": 16.7877704714, 
			 "total_energy": -550.984711478, 
			 "HOMO_LUMO_gap": 0.18731, 
			 "cosmo_polarized_energy": -19.73, 
			 "cosmo_cavitation_energy": 26.85, 
			 "cosmo_dispersion_energy": -20.19, 
			 "cosmo_repulsion_energy": 1.62, 
			 "cosmo_total_nonelectrostatic_energy": 8.28, 
			 "SMD_solvation_energy": 4.66 
		},
		"coords": [
			{
				"x": -3.3493446447,
				"y": 2.7671692991,
				"z": -0.3103663791,
				"element": "C" 
			},
			{
				"x": -2.230538142,
				"y": 1.9998225841,
				"z": -0.8347351251,
				"element": "N" 
			},
			{
				"x": -1.1872487064,
				"y": 1.6649104692,
				"z": 0.019191388,
				"element": "C" 
			},
			{
				"x": -1.0892084099,
				"y": 2.1262383767,
				"z": 1.1506928574,
				"element": "O" 
			},
			{
				"x": -0.2777328194,
				"y": 0.7951167303,
				"z": -0.5584074044,
				"element": "N" 
			},
			{
				"x": 0.9053144209,
				"y": 0.2659519627,
				"z": 0.0080815794,
				"element": "C" 
			},
			{
				"x": 1.3192682178,
				"y": 0.5099842899,
				"z": 1.3258690083,
				"element": "C" 
			},
			{
				"x": 2.4929714076,
				"y": -0.0666252768,
				"z": 1.8050521496,
				"element": "C" 
			},
			{
				"x": 3.2914778096,
				"y": -0.8957573058,
				"z": 1.0028289026,
				"element": "C" 
			},
			{
				"x": 4.5036021107,
				"y": -1.4180580724,
				"z": 1.4802438609,
				"element": "N" 
			},
			{
				"x": 2.8704335509,
				"y": -1.1331540434,
				"z": -0.314359244,
				"element": "C" 
			},
			{
				"x": 1.6977630788,
				"y": -0.562808648,
				"z": -0.7988193413,
				"element": "C" 
			},
			{
				"x": -3.8585368854,
				"y": 3.2758864453,
				"z": -1.1334748258,
				"element": "H" 
			},
			{
				"x": -2.9573084313,
				"y": 3.510674307,
				"z": 0.3834886571,
				"element": "H" 
			},
			{
				"x": -4.0780093771,
				"y": 2.1489307876,
				"z": 0.23195562,
				"element": "H" 
			},
			{
				"x": -2.4518579059,
				"y": 1.3426352726,
				"z": -1.5696412128,
				"element": "H" 
			},
			{
				"x": -0.3880969785,
				"y": 0.6142844385,
				"z": -1.545399969,
				"element": "H" 
			},
			{
				"x": 0.7209215641,
				"y": 1.1504973157,
				"z": 1.9581718228,
				"element": "H" 
			},
			{
				"x": 2.7989797961,
				"y": 0.139683352,
				"z": 2.8281580502,
				"element": "H" 
			},
			{
				"x": 4.7963276787,
				"y": -2.2725653997,
				"z": 1.024726762,
				"element": "H" 
			},
			{
				"x": 4.5440294104,
				"y": -1.5149707984,
				"z": 2.4863851526,
				"element": "H" 
			},
			{
				"x": 3.4673021513,
				"y": -1.7659667954,
				"z": -0.9666664251,
				"element": "H" 
			},
			{
				"x": 1.3931911035,
				"y": -0.770079291,
				"z": -1.8230758843,
				"element": "H" 
			}
		],
		 "valence_orbital": [ 
			{
				"type": "occ",
				"energy": -0.26458,
				"method": "rhf"
			},
			{
				"type": "occ",
				"energy": -0.25832,
				"method": "rhf"
			},
			{
				"type": "occ",
				"energy": -0.24478,
				"method": "rhf"
			},
			{
				"type": "occ",
				"energy": -0.23985,
				"method": "rhf"
			},
			{
				"type": "occ",
				"energy": -0.17904,
				"method": "rhf"
			},
			{
				"type": "unocc",
				"energy": 0.00827,
				"method": "rhf"
			},
			{
				"type": "unocc",
				"energy": 0.02156,
				"method": "rhf"
			},
			{
				"type": "unocc",
				"energy": 0.0605,
				"method": "rhf"
			},
			{
				"type": "unocc",
				"energy": 0.07374,
				"method": "rhf"
			},
			{
				"type": "unocc",
				"energy": 0.08846,
				"method": "rhf"
			}
		],
		"cosmo_sigma_profile": { 
			"-0.025": 0.0,
			"-0.024": 0.0,
			"-0.023": 0.0,
			"-0.022": 0.0,
			"-0.021": 0.0,
			"-0.02": 0.0,
			"-0.019": 0.0,
			"-0.018": 0.0,
			"-0.017": 0.115477279153,
			"-0.016": 1.40318739752,
			"-0.015": 1.69587748119,
			"-0.014": 2.04113907921,
			"-0.013": 2.42203603893,
			"-0.012": 3.08421054267,
			"-0.011": 4.9858045107,
			"-0.01": 3.97983491261,
			"-0.009": 5.30075356879,
			"-0.008": 5.28091978852,
			"-0.007": 4.85495404052,
			"-0.006": 6.42783322107,
			"-0.005": 10.3597485827,
			"-0.004": 12.1345164125,
			"-0.003": 13.2934889842,
			"-0.002": 14.0731997224,
			"-0.001": 13.3510419683,
			"0.0": 8.6835193666,
			"0.001": 7.86990456342,
			"0.002": 9.72560986974,
			"0.003": 9.05923340342,
			"0.004": 12.2903499802,
			"0.005": 13.5633810357,
			"0.006": 11.9512003377,
			"0.007": 11.3692190086,
			"0.008": 4.08939888692,
			"0.009": 3.342785078,
			"0.01": 2.0272720148,
			"0.011": 1.97407690512,
			"0.012": 2.86590995889,
			"0.013": 3.05779288252,
			"0.014": 4.332861388,
			"0.015": 0.992751694654,
			"0.016": 0.238349783647,
			"0.017": 0.0,
			"0.018": 0.0,
			"0.019": 0.0,
			"0.02": 0.0,
			"0.021": 0.0,
			"0.022": 0.0,
			"0.023": 0.0,
			"0.024": 0.0,
			"0.025": 0.0
		}
	}
}
