{
	 "smiles": "N#CC1=CN=C(C=C1)N1CCN(CC1)C1=NC=CC=C1", 
	 "Tm": 439.15, 
	 "num_atms": 35, 
	 "gaussian": { 
		 "optdone": 1, 
		 "sigma_profile": "yes", 
		 "theory": "DFT", 
		 "functional": "B3LYP", 
		 "basiset": "6-31G**", 
		 "properties": { 
			 "R2extent": 9686.5721, 
			 "electric_dipole_moment_norm": 5.8475628248, 
			 "electric_quadrupole_moment_norm": 58.6531225609, 
			 "total_energy": -854.375311904, 
			 "HOMO_LUMO_gap": 0.16786, 
			 "cosmo_polarized_energy": -15.54, 
			 "cosmo_cavitation_energy": 38.62, 
			 "cosmo_dispersion_energy": -27.92, 
			 "cosmo_repulsion_energy": 2.11, 
			 "cosmo_total_nonelectrostatic_energy": 12.81, 
			 "SMD_solvation_energy": 4.53 
		},
		"coords": [
			{
				"x": 1.655314735,
				"y": 0.0636124197,
				"z": -8.6433359251,
				"element": "N" 
			},
			{
				"x": 1.3418428144,
				"y": 0.154992593,
				"z": -7.525425035,
				"element": "C" 
			},
			{
				"x": 0.9565276821,
				"y": 0.2630005922,
				"z": -6.1561796089,
				"element": "C" 
			},
			{
				"x": 0.2108244378,
				"y": -0.7502402358,
				"z": -5.5318481538,
				"element": "C" 
			},
			{
				"x": -0.1826938489,
				"y": -0.7094913802,
				"z": -4.2655614148,
				"element": "N" 
			},
			{
				"x": 0.1482385606,
				"y": 0.3628928233,
				"z": -3.5113525444,
				"element": "C" 
			},
			{
				"x": 0.9044845491,
				"y": 1.4401621207,
				"z": -4.0496801975,
				"element": "C" 
			},
			{
				"x": 1.3016856163,
				"y": 1.3804402488,
				"z": -5.3699330733,
				"element": "C" 
			},
			{
				"x": -0.2753958436,
				"y": 0.3681977635,
				"z": -2.2100507232,
				"element": "N" 
			},
			{
				"x": 0.0265616963,
				"y": 1.490875882,
				"z": -1.3182226597,
				"element": "C" 
			},
			{
				"x": -0.595549676,
				"y": 1.2617385469,
				"z": 0.060359329,
				"element": "C" 
			},
			{
				"x": -0.2346394507,
				"y": -0.0501571095,
				"z": 0.5786939887,
				"element": "N" 
			},
			{
				"x": -0.4138272332,
				"y": -1.1932578544,
				"z": -0.3107089366,
				"element": "C" 
			},
			{
				"x": -1.0270031119,
				"y": -0.7476517147,
				"z": -1.6395730276,
				"element": "C" 
			},
			{
				"x": 0.2752032091,
				"y": -0.2097272188,
				"z": 1.8527712614,
				"element": "C" 
			},
			{
				"x": 0.4021958037,
				"y": 0.9001315686,
				"z": 2.6045113741,
				"element": "N" 
			},
			{
				"x": 0.8950031406,
				"y": 0.7796181445,
				"z": 3.8405119436,
				"element": "C" 
			},
			{
				"x": 1.2866404183,
				"y": -0.4269547235,
				"z": 4.4135707881,
				"element": "C" 
			},
			{
				"x": 1.1529682495,
				"y": -1.5778274486,
				"z": 3.6314219999,
				"element": "C" 
			},
			{
				"x": 0.6471311224,
				"y": -1.4860648595,
				"z": 2.342577677,
				"element": "C" 
			},
			{
				"x": -0.0771776361,
				"y": -1.6337024681,
				"z": -6.0984076611,
				"element": "H" 
			},
			{
				"x": 1.1729216647,
				"y": 2.2958454381,
				"z": -3.4442918409,
				"element": "H" 
			},
			{
				"x": 1.8797260679,
				"y": 2.1896048296,
				"z": -5.8046852699,
				"element": "H" 
			},
			{
				"x": -0.3641863742,
				"y": 2.4296302572,
				"z": -1.7360435086,
				"element": "H" 
			},
			{
				"x": 1.114574221,
				"y": 1.6020672423,
				"z": -1.2109693344,
				"element": "H" 
			},
			{
				"x": -0.2280410816,
				"y": 2.0092126112,
				"z": 0.7621989438,
				"element": "H" 
			},
			{
				"x": -1.6877797788,
				"y": 1.3764059488,
				"z": 0.0039169484,
				"element": "H" 
			},
			{
				"x": -1.0751828547,
				"y": -1.9455397287,
				"z": 0.1445928985,
				"element": "H" 
			},
			{
				"x": 0.5521294822,
				"y": -1.6827617364,
				"z": -0.5040166265,
				"element": "H" 
			},
			{
				"x": -1.0059332724,
				"y": -1.5674485152,
				"z": -2.3553888465,
				"element": "H" 
			},
			{
				"x": -2.0782398031,
				"y": -0.4637901981,
				"z": -1.4952357353,
				"element": "H" 
			},
			{
				"x": 0.9779394031,
				"y": 1.7083109951,
				"z": 4.4038545333,
				"element": "H" 
			},
			{
				"x": 1.6766324991,
				"y": -0.4637103313,
				"z": 5.4245947165,
				"element": "H" 
			},
			{
				"x": 1.4437592392,
				"y": -2.5484435857,
				"z": 4.0241312021,
				"element": "H" 
			},
			{
				"x": 0.5459453528,
				"y": -2.375170917,
				"z": 1.7331025188,
				"element": "H" 
			}
		],
		 "valence_orbital": [ 
			{
				"type": "occ",
				"energy": -0.27993,
				"method": "rhf"
			},
			{
				"type": "occ",
				"energy": -0.27265,
				"method": "rhf"
			},
			{
				"type": "occ",
				"energy": -0.25832,
				"method": "rhf"
			},
			{
				"type": "occ",
				"energy": -0.21873,
				"method": "rhf"
			},
			{
				"type": "occ",
				"energy": -0.20661,
				"method": "rhf"
			},
			{
				"type": "unocc",
				"energy": -0.03875,
				"method": "rhf"
			},
			{
				"type": "unocc",
				"energy": -0.03188,
				"method": "rhf"
			},
			{
				"type": "unocc",
				"energy": -0.01967,
				"method": "rhf"
			},
			{
				"type": "unocc",
				"energy": 0.00715,
				"method": "rhf"
			},
			{
				"type": "unocc",
				"energy": 0.04093,
				"method": "rhf"
			}
		],
		"cosmo_sigma_profile": { 
			"-0.025": 0.0,
			"-0.024": 0.0,
			"-0.023": 0.0,
			"-0.022": 0.0,
			"-0.021": 0.0,
			"-0.02": 0.0,
			"-0.019": 0.0,
			"-0.018": 0.0,
			"-0.017": 0.0,
			"-0.016": 0.0,
			"-0.015": 0.0,
			"-0.014": 0.0,
			"-0.013": 0.0,
			"-0.012": 0.0,
			"-0.011": 0.0,
			"-0.01": 0.0,
			"-0.009": 0.12650018497,
			"-0.008": 3.49678427277,
			"-0.007": 7.68829051102,
			"-0.006": 16.0188817152,
			"-0.005": 34.2583682279,
			"-0.004": 35.1538192611,
			"-0.003": 25.1881761966,
			"-0.002": 18.4632912639,
			"-0.001": 18.2998541362,
			"0.0": 22.7119491082,
			"0.001": 21.6107558256,
			"0.002": 17.55823222,
			"0.003": 16.7361397946,
			"0.004": 16.1045521505,
			"0.005": 13.1414265268,
			"0.006": 6.94085752062,
			"0.007": 5.88717164574,
			"0.008": 5.22516656411,
			"0.009": 7.18930129467,
			"0.01": 5.37927468428,
			"0.011": 5.15161056665,
			"0.012": 3.38900998435,
			"0.013": 2.55869707084,
			"0.014": 0.683202582343,
			"0.015": 0.0,
			"0.016": 0.0,
			"0.017": 0.0,
			"0.018": 0.0,
			"0.019": 0.0,
			"0.02": 0.0,
			"0.021": 0.0,
			"0.022": 0.0,
			"0.023": 0.0,
			"0.024": 0.0,
			"0.025": 0.0
		}
	}
}
