{
	 "smiles": "CC(C)C1=C(SC=C1)C(O)=O", 
	 "Tm": 371.15, 
	 "num_atms": 21, 
	 "gaussian": { 
		 "optdone": 1, 
		 "sigma_profile": "yes", 
		 "theory": "DFT", 
		 "functional": "B3LYP", 
		 "basiset": "6-31G**", 
		 "properties": { 
			 "R2extent": 2221.397, 
			 "electric_dipole_moment_norm": 5.55138277639, 
			 "electric_quadrupole_moment_norm": 11.2971256021, 
			 "total_energy": -859.515652323, 
			 "HOMO_LUMO_gap": 0.19549, 
			 "cosmo_polarized_energy": -13.51, 
			 "cosmo_cavitation_energy": 25.55, 
			 "cosmo_dispersion_energy": -18.91, 
			 "cosmo_repulsion_energy": 1.47, 
			 "cosmo_total_nonelectrostatic_energy": 8.11, 
			 "SMD_solvation_energy": 5.56 
		},
		"coords": [
			{
				"x": -0.0661426431,
				"y": -1.297900779,
				"z": -1.7258084717,
				"element": "C" 
			},
			{
				"x": 0.1525400065,
				"y": -1.3500121992,
				"z": -0.1984012664,
				"element": "C" 
			},
			{
				"x": -0.2037430159,
				"y": -2.7418835747,
				"z": 0.3556871604,
				"element": "C" 
			},
			{
				"x": -0.6193024728,
				"y": -0.2432852677,
				"z": 0.5059791445,
				"element": "C" 
			},
			{
				"x": -0.0907976491,
				"y": 0.9366083355,
				"z": 1.0111267977,
				"element": "C" 
			},
			{
				"x": -1.3036764881,
				"y": 1.8997506853,
				"z": 1.8206953023,
				"element": "S" 
			},
			{
				"x": -2.5248904481,
				"y": 0.748796081,
				"z": 1.4376313889,
				"element": "C" 
			},
			{
				"x": -2.0258512749,
				"y": -0.3272976038,
				"z": 0.754249193,
				"element": "C" 
			},
			{
				"x": 1.2809018127,
				"y": 1.4981141308,
				"z": 1.0341069228,
				"element": "C" 
			},
			{
				"x": 2.1495615218,
				"y": 1.0660694962,
				"z": 0.0767842852,
				"element": "O" 
			},
			{
				"x": 1.641092449,
				"y": 2.3227919967,
				"z": 1.8429360043,
				"element": "O" 
			},
			{
				"x": 0.517022012,
				"y": -2.0770893791,
				"z": -2.227459466,
				"element": "H" 
			},
			{
				"x": 0.2230129598,
				"y": -0.3302822912,
				"z": -2.1529531218,
				"element": "H" 
			},
			{
				"x": -1.1217878518,
				"y": -1.453286733,
				"z": -1.9720195103,
				"element": "H" 
			},
			{
				"x": 1.2194272065,
				"y": -1.2030428168,
				"z": 0.0036340193,
				"element": "H" 
			},
			{
				"x": -1.2438685036,
				"y": -3.0079002261,
				"z": 0.1410737812,
				"element": "H" 
			},
			{
				"x": 0.4323438864,
				"y": -3.5040534401,
				"z": -0.1057713741,
				"element": "H" 
			},
			{
				"x": -0.0589560997,
				"y": -2.7866285088,
				"z": 1.438782401,
				"element": "H" 
			},
			{
				"x": -3.5490580434,
				"y": 0.9208740756,
				"z": 1.7405607705,
				"element": "H" 
			},
			{
				"x": -2.6403689954,
				"y": -1.1639218074,
				"z": 0.4429106378,
				"element": "H" 
			},
			{
				"x": 1.6764416313,
				"y": 0.5719798261,
				"z": -0.6060445987,
				"element": "H" 
			}
		],
		 "valence_orbital": [ 
			{
				"type": "occ",
				"energy": -0.34274,
				"method": "rhf"
			},
			{
				"type": "occ",
				"energy": -0.3143,
				"method": "rhf"
			},
			{
				"type": "occ",
				"energy": -0.27686,
				"method": "rhf"
			},
			{
				"type": "occ",
				"energy": -0.25871,
				"method": "rhf"
			},
			{
				"type": "occ",
				"energy": -0.24903,
				"method": "rhf"
			},
			{
				"type": "unocc",
				"energy": -0.05354,
				"method": "rhf"
			},
			{
				"type": "unocc",
				"energy": 0.01528,
				"method": "rhf"
			},
			{
				"type": "unocc",
				"energy": 0.03025,
				"method": "rhf"
			},
			{
				"type": "unocc",
				"energy": 0.05544,
				"method": "rhf"
			},
			{
				"type": "unocc",
				"energy": 0.07471,
				"method": "rhf"
			}
		],
		"cosmo_sigma_profile": { 
			"-0.025": 0.0,
			"-0.024": 0.0,
			"-0.023": 0.0,
			"-0.022": 0.0,
			"-0.021": 0.0,
			"-0.02": 0.0,
			"-0.019": 0.0,
			"-0.018": 0.0,
			"-0.017": 0.0,
			"-0.016": 0.0,
			"-0.015": 0.022235303553,
			"-0.014": 0.997516110132,
			"-0.013": 1.69156606918,
			"-0.012": 1.60154599469,
			"-0.011": 1.2817398813,
			"-0.01": 0.976604110542,
			"-0.009": 3.21676746624,
			"-0.008": 3.09184108189,
			"-0.007": 5.01549575624,
			"-0.006": 6.18402146892,
			"-0.005": 7.80928383058,
			"-0.004": 13.3532558468,
			"-0.003": 20.3432926924,
			"-0.002": 18.6770684445,
			"-0.001": 16.1085764972,
			"0.0": 20.7371715965,
			"0.001": 15.5461658307,
			"0.002": 13.6423809496,
			"0.003": 14.9483134378,
			"0.004": 8.1264844346,
			"0.005": 2.40437602356,
			"0.006": 2.98543223106,
			"0.007": 2.72731258464,
			"0.008": 2.88832131624,
			"0.009": 3.06315886097,
			"0.01": 5.11530944496,
			"0.011": 5.08330983526,
			"0.012": 5.07590933507,
			"0.013": 1.53458305585,
			"0.014": 0.0640305769591,
			"0.015": 0.0,
			"0.016": 0.0,
			"0.017": 0.0,
			"0.018": 0.0,
			"0.019": 0.0,
			"0.02": 0.0,
			"0.021": 0.0,
			"0.022": 0.0,
			"0.023": 0.0,
			"0.024": 0.0,
			"0.025": 0.0
		}
	}
}
