{
	 "smiles": "C[Si](C)(C)N(C1=CC=CC=C1)[Si](C)(C)C", 
	 "Tm": 289.65, 
	 "num_atms": 38, 
	 "gaussian": { 
		 "optdone": 1, 
		 "sigma_profile": "yes", 
		 "theory": "DFT", 
		 "functional": "B3LYP", 
		 "basiset": "6-31G**", 
		 "properties": { 
			 "R2extent": 4204.9428, 
			 "electric_dipole_moment_norm": 0.0868228656519, 
			 "electric_quadrupole_moment_norm": 2.60548706195, 
			 "total_energy": -1105.01138925, 
			 "HOMO_LUMO_gap": 0.21869, 
			 "cosmo_polarized_energy": -3.98, 
			 "cosmo_cavitation_energy": 41.29, 
			 "cosmo_dispersion_energy": -23.04, 
			 "cosmo_repulsion_energy": 1.98, 
			 "cosmo_total_nonelectrostatic_energy": 20.23, 
			 "SMD_solvation_energy": 9.39 
		},
		"coords": [
			{
				"x": -0.4958424362,
				"y": 2.0591008433,
				"z": -2.2166179079,
				"element": "C" 
			},
			{
				"x": 0.4047307999,
				"y": 1.5653761667,
				"z": -0.6317395705,
				"element": "Si" 
			},
			{
				"x": -0.1633357014,
				"y": 2.7221995938,
				"z": 0.7557839113,
				"element": "C" 
			},
			{
				"x": 2.2667658877,
				"y": 1.7930983258,
				"z": -0.8924058806,
				"element": "C" 
			},
			{
				"x": -0.0003173809,
				"y": -0.1165445836,
				"z": -0.2320372266,
				"element": "N" 
			},
			{
				"x": -0.4624610993,
				"y": -0.9494621543,
				"z": -1.3082093887,
				"element": "C" 
			},
			{
				"x": -1.8288412145,
				"y": -1.2351331064,
				"z": -1.4626621304,
				"element": "C" 
			},
			{
				"x": -2.2765929266,
				"y": -2.0483606178,
				"z": -2.5049843501,
				"element": "C" 
			},
			{
				"x": -1.3694715973,
				"y": -2.583394834,
				"z": -3.4215324839,
				"element": "C" 
			},
			{
				"x": -0.0091196985,
				"y": -2.3020188709,
				"z": -3.2820600937,
				"element": "C" 
			},
			{
				"x": 0.4406316453,
				"y": -1.4984423531,
				"z": -2.2331439219,
				"element": "C" 
			},
			{
				"x": 0.1132218553,
				"y": -0.8636279792,
				"z": 1.3746193977,
				"element": "Si" 
			},
			{
				"x": 1.6664768751,
				"y": -0.2550915043,
				"z": 2.2710017357,
				"element": "C" 
			},
			{
				"x": -1.4014349256,
				"y": -0.4655616558,
				"z": 2.4396864066,
				"element": "C" 
			},
			{
				"x": 0.242944599,
				"y": -2.7374837822,
				"z": 1.1781769939,
				"element": "C" 
			},
			{
				"x": -0.2887564783,
				"y": 3.1107446948,
				"z": -2.4467686948,
				"element": "H" 
			},
			{
				"x": -0.1797715122,
				"y": 1.4603139373,
				"z": -3.0757788451,
				"element": "H" 
			},
			{
				"x": -1.5800728284,
				"y": 1.9453370599,
				"z": -2.1160293487,
				"element": "H" 
			},
			{
				"x": 0.3051621289,
				"y": 2.508478756,
				"z": 1.7211830855,
				"element": "H" 
			},
			{
				"x": -1.2487435215,
				"y": 2.6696832985,
				"z": 0.8919563645,
				"element": "H" 
			},
			{
				"x": 0.0878989843,
				"y": 3.7576571934,
				"z": 0.4970340731,
				"element": "H" 
			},
			{
				"x": 2.8370758218,
				"y": 1.5291851676,
				"z": 0.0041765788,
				"element": "H" 
			},
			{
				"x": 2.503425316,
				"y": 2.8342241832,
				"z": -1.1425446369,
				"element": "H" 
			},
			{
				"x": 2.6313925685,
				"y": 1.1658239838,
				"z": -1.7133171276,
				"element": "H" 
			},
			{
				"x": -2.5359172904,
				"y": -0.804363509,
				"z": -0.7595512016,
				"element": "H" 
			},
			{
				"x": -3.3383450533,
				"y": -2.2574490469,
				"z": -2.604470117,
				"element": "H" 
			},
			{
				"x": -1.7186629113,
				"y": -3.2123688572,
				"z": -4.2351425477,
				"element": "H" 
			},
			{
				"x": 0.7073239761,
				"y": -2.7148981552,
				"z": -3.9871629152,
				"element": "H" 
			},
			{
				"x": 1.5006009036,
				"y": -1.2931324134,
				"z": -2.1140303716,
				"element": "H" 
			},
			{
				"x": 1.728116611,
				"y": -0.7250876737,
				"z": 3.2597249848,
				"element": "H" 
			},
			{
				"x": 1.6842992552,
				"y": 0.8277032571,
				"z": 2.4272324758,
				"element": "H" 
			},
			{
				"x": 2.5718046737,
				"y": -0.5280718884,
				"z": 1.7184604831,
				"element": "H" 
			},
			{
				"x": -1.5162907888,
				"y": 0.6121270473,
				"z": 2.5952580306,
				"element": "H" 
			},
			{
				"x": -1.3218627277,
				"y": -0.9372606013,
				"z": 3.4264486834,
				"element": "H" 
			},
			{
				"x": -2.3217475934,
				"y": -0.832622248,
				"z": 1.9721359718,
				"element": "H" 
			},
			{
				"x": 1.1075691667,
				"y": -3.0196371319,
				"z": 0.5687207642,
				"element": "H" 
			},
			{
				"x": 0.3599464605,
				"y": -3.2046187873,
				"z": 2.1630148932,
				"element": "H" 
			},
			{
				"x": -0.646299843,
				"y": -3.1672217546,
				"z": 0.7078739267,
				"element": "H" 
			}
		],
		 "valence_orbital": [ 
			{
				"type": "occ",
				"energy": -0.29057,
				"method": "rhf"
			},
			{
				"type": "occ",
				"energy": -0.28773,
				"method": "rhf"
			},
			{
				"type": "occ",
				"energy": -0.24606,
				"method": "rhf"
			},
			{
				"type": "occ",
				"energy": -0.23628,
				"method": "rhf"
			},
			{
				"type": "occ",
				"energy": -0.21914,
				"method": "rhf"
			},
			{
				"type": "unocc",
				"energy": -0.00045,
				"method": "rhf"
			},
			{
				"type": "unocc",
				"energy": 0.00499,
				"method": "rhf"
			},
			{
				"type": "unocc",
				"energy": 0.06508,
				"method": "rhf"
			},
			{
				"type": "unocc",
				"energy": 0.08167,
				"method": "rhf"
			},
			{
				"type": "unocc",
				"energy": 0.08617,
				"method": "rhf"
			}
		],
		"cosmo_sigma_profile": { 
			"-0.025": 0.0,
			"-0.024": 0.0,
			"-0.023": 0.0,
			"-0.022": 0.0,
			"-0.021": 0.0,
			"-0.02": 0.0,
			"-0.019": 0.0,
			"-0.018": 0.0,
			"-0.017": 0.0,
			"-0.016": 0.0,
			"-0.015": 0.0,
			"-0.014": 0.0,
			"-0.013": 0.0,
			"-0.012": 0.0,
			"-0.011": 0.0,
			"-0.01": 0.0,
			"-0.009": 0.0,
			"-0.008": 0.0,
			"-0.007": 0.0,
			"-0.006": 1.24766607974,
			"-0.005": 7.87088228922,
			"-0.004": 13.0494434915,
			"-0.003": 33.4984969227,
			"-0.002": 41.8591966439,
			"-0.001": 41.7235943353,
			"0.0": 40.6154812074,
			"0.001": 43.1380168488,
			"0.002": 41.4955868519,
			"0.003": 20.9012576703,
			"0.004": 11.0475536314,
			"0.005": 8.79984991689,
			"0.006": 6.6720176905,
			"0.007": 0.790400678444,
			"0.008": 0.0,
			"0.009": 0.0,
			"0.01": 0.0,
			"0.011": 0.0,
			"0.012": 0.0,
			"0.013": 0.0,
			"0.014": 0.0,
			"0.015": 0.0,
			"0.016": 0.0,
			"0.017": 0.0,
			"0.018": 0.0,
			"0.019": 0.0,
			"0.02": 0.0,
			"0.021": 0.0,
			"0.022": 0.0,
			"0.023": 0.0,
			"0.024": 0.0,
			"0.025": 0.0
		}
	}
}
