{
	 "smiles": "CCC1CC1", 
	 "Tm": 124.15, 
	 "num_atms": 15, 
	 "gaussian": { 
		 "optdone": 1, 
		 "sigma_profile": "yes", 
		 "theory": "DFT", 
		 "functional": "B3LYP", 
		 "basiset": "6-31G**", 
		 "properties": { 
			 "R2extent": 971.01, 
			 "electric_dipole_moment_norm": 0.18094145462, 
			 "electric_quadrupole_moment_norm": 1.26154704629, 
			 "total_energy": -196.534047461, 
			 "HOMO_LUMO_gap": 0.36274, 
			 "cosmo_polarized_energy": -1.22, 
			 "cosmo_cavitation_energy": 16.57, 
			 "cosmo_dispersion_energy": -12.52, 
			 "cosmo_repulsion_energy": 1.11, 
			 "cosmo_total_nonelectrostatic_energy": 5.16, 
			 "SMD_solvation_energy": 2.6 
		},
		"coords": [
			{
				"x": 0.2302755862,
				"y": -1.0337071498,
				"z": -1.5419274449,
				"element": "C" 
			},
			{
				"x": 1.0549390891,
				"y": -0.1143482242,
				"z": -0.6345788047,
				"element": "C" 
			},
			{
				"x": 1.2098584827,
				"y": 1.3321349723,
				"z": -1.0892354244,
				"element": "C" 
			},
			{
				"x": 1.3632308469,
				"y": 1.7337030883,
				"z": -2.5363870138,
				"element": "C" 
			},
			{
				"x": 0.1107167834,
				"y": 2.1067867497,
				"z": -1.7754574004,
				"element": "C" 
			},
			{
				"x": 0.185974185,
				"y": -2.0427741558,
				"z": -1.1200219913,
				"element": "H" 
			},
			{
				"x": -0.8006052645,
				"y": -0.6815868279,
				"z": -1.6524378855,
				"element": "H" 
			},
			{
				"x": 0.6659911231,
				"y": -1.118274744,
				"z": -2.5428792799,
				"element": "H" 
			},
			{
				"x": 0.6058342901,
				"y": -0.1127162258,
				"z": 0.3682196042,
				"element": "H" 
			},
			{
				"x": 2.058297663,
				"y": -0.5454963471,
				"z": -0.5134123593,
				"element": "H" 
			},
			{
				"x": 1.8073728767,
				"y": 1.9208612459,
				"z": -0.3943639868,
				"element": "H" 
			},
			{
				"x": 1.2749858172,
				"y": 0.9675385936,
				"z": -3.3009274676,
				"element": "H" 
			},
			{
				"x": 2.0753942842,
				"y": 2.5165965542,
				"z": -2.7806119934,
				"element": "H" 
			},
			{
				"x": -0.0376583313,
				"y": 3.1460378504,
				"z": -1.4967409228,
				"element": "H" 
			},
			{
				"x": -0.8068074316,
				"y": 1.5876446202,
				"z": -2.0361376293,
				"element": "H" 
			}
		],
		 "valence_orbital": [ 
			{
				"type": "occ",
				"energy": -0.35537,
				"method": "rhf"
			},
			{
				"type": "occ",
				"energy": -0.34685,
				"method": "rhf"
			},
			{
				"type": "occ",
				"energy": -0.32937,
				"method": "rhf"
			},
			{
				"type": "occ",
				"energy": -0.27968,
				"method": "rhf"
			},
			{
				"type": "occ",
				"energy": -0.26923,
				"method": "rhf"
			},
			{
				"type": "unocc",
				"energy": 0.09351,
				"method": "rhf"
			},
			{
				"type": "unocc",
				"energy": 0.1032,
				"method": "rhf"
			},
			{
				"type": "unocc",
				"energy": 0.13451,
				"method": "rhf"
			},
			{
				"type": "unocc",
				"energy": 0.13744,
				"method": "rhf"
			},
			{
				"type": "unocc",
				"energy": 0.1512,
				"method": "rhf"
			}
		],
		"cosmo_sigma_profile": { 
			"-0.025": 0.0,
			"-0.024": 0.0,
			"-0.023": 0.0,
			"-0.022": 0.0,
			"-0.021": 0.0,
			"-0.02": 0.0,
			"-0.019": 0.0,
			"-0.018": 0.0,
			"-0.017": 0.0,
			"-0.016": 0.0,
			"-0.015": 0.0,
			"-0.014": 0.0,
			"-0.013": 0.0,
			"-0.012": 0.0,
			"-0.011": 0.0,
			"-0.01": 0.0,
			"-0.009": 0.0,
			"-0.008": 0.0,
			"-0.007": 0.0,
			"-0.006": 0.0,
			"-0.005": 0.00743565533563,
			"-0.004": 5.24843332492,
			"-0.003": 13.6541307553,
			"-0.002": 19.2480330636,
			"-0.001": 18.9893477225,
			"0.0": 21.8554294842,
			"0.001": 21.3352248625,
			"0.002": 10.776688254,
			"0.003": 5.02521034306,
			"0.004": 4.49628429155,
			"0.005": 5.0472377107,
			"0.006": 2.56034274818,
			"0.007": 0.360335112063,
			"0.008": 0.0,
			"0.009": 0.0,
			"0.01": 0.0,
			"0.011": 0.0,
			"0.012": 0.0,
			"0.013": 0.0,
			"0.014": 0.0,
			"0.015": 0.0,
			"0.016": 0.0,
			"0.017": 0.0,
			"0.018": 0.0,
			"0.019": 0.0,
			"0.02": 0.0,
			"0.021": 0.0,
			"0.022": 0.0,
			"0.023": 0.0,
			"0.024": 0.0,
			"0.025": 0.0
		}
	}
}
