{
	 "smiles": "CC(C)(C)NCC(O)COC1=CC(Cl)=CC=C1Cl", 
	 "Tm": 355.15, 
	 "num_atms": 37, 
	 "gaussian": { 
		 "optdone": 1, 
		 "sigma_profile": "yes", 
		 "theory": "DFT", 
		 "functional": "B3LYP", 
		 "basiset": "6-31G**", 
		 "properties": { 
			 "R2extent": 9998.1267, 
			 "electric_dipole_moment_norm": 2.299681591, 
			 "electric_quadrupole_moment_norm": 15.3390081228, 
			 "total_energy": -1632.40709263, 
			 "HOMO_LUMO_gap": 0.21056, 
			 "cosmo_polarized_energy": -10.4, 
			 "cosmo_cavitation_energy": 42.58, 
			 "cosmo_dispersion_energy": -29.26, 
			 "cosmo_repulsion_energy": 2.29, 
			 "cosmo_total_nonelectrostatic_energy": 15.61, 
			 "SMD_solvation_energy": 6.34 
		},
		"coords": [
			{
				"x": 2.0964700451,
				"y": 0.803730971,
				"z": 3.0388649916,
				"element": "C" 
			},
			{
				"x": 2.9299632613,
				"y": 1.7168881744,
				"z": 2.1257669598,
				"element": "C" 
			},
			{
				"x": 4.4258726763,
				"y": 1.4719244959,
				"z": 2.3871136652,
				"element": "C" 
			},
			{
				"x": 2.5948879706,
				"y": 3.1970158048,
				"z": 2.4114153238,
				"element": "C" 
			},
			{
				"x": 2.6965555261,
				"y": 1.3557955809,
				"z": 0.7034467706,
				"element": "N" 
			},
			{
				"x": 1.3311284689,
				"y": 1.4204930876,
				"z": 0.1539776701,
				"element": "C" 
			},
			{
				"x": 0.7499979513,
				"y": -0.0054028005,
				"z": 0.0259596441,
				"element": "C" 
			},
			{
				"x": 1.7333255782,
				"y": -0.8709181369,
				"z": -0.5040808793,
				"element": "O" 
			},
			{
				"x": -0.4430261106,
				"y": -0.0647818206,
				"z": -0.9177405336,
				"element": "C" 
			},
			{
				"x": -1.4764515954,
				"y": 0.7745880445,
				"z": -0.3653888192,
				"element": "O" 
			},
			{
				"x": -2.6487169659,
				"y": 0.805286832,
				"z": -1.0666399283,
				"element": "C" 
			},
			{
				"x": -2.8406873851,
				"y": 1.7882794428,
				"z": -2.0428293338,
				"element": "C" 
			},
			{
				"x": -4.0528817535,
				"y": 1.8624027807,
				"z": -2.7236942216,
				"element": "C" 
			},
			{
				"x": -4.2784275974,
				"y": 3.1071618717,
				"z": -3.9424510755,
				"element": "Cl" 
			},
			{
				"x": -5.0890150118,
				"y": 0.969480161,
				"z": -2.453204624,
				"element": "C" 
			},
			{
				"x": -4.9001379967,
				"y": -0.0096946956,
				"z": -1.4789141322,
				"element": "C" 
			},
			{
				"x": -3.6903272248,
				"y": -0.0952589244,
				"z": -0.7907695609,
				"element": "C" 
			},
			{
				"x": -3.4778143527,
				"y": -1.3213833063,
				"z": 0.439602315,
				"element": "Cl" 
			},
			{
				"x": 1.0225654459,
				"y": 0.9706910271,
				"z": 2.9119284276,
				"element": "H" 
			},
			{
				"x": 2.3370194518,
				"y": 1.0017622545,
				"z": 4.0881183314,
				"element": "H" 
			},
			{
				"x": 2.3079553734,
				"y": -0.2494504488,
				"z": 2.8304123415,
				"element": "H" 
			},
			{
				"x": 5.0472452057,
				"y": 2.0992505502,
				"z": 1.7364228663,
				"element": "H" 
			},
			{
				"x": 4.6851777012,
				"y": 1.7120704392,
				"z": 3.4229105507,
				"element": "H" 
			},
			{
				"x": 4.6838488176,
				"y": 0.4261550781,
				"z": 2.1961380236,
				"element": "H" 
			},
			{
				"x": 2.8001615611,
				"y": 3.4507501717,
				"z": 3.4569126467,
				"element": "H" 
			},
			{
				"x": 3.1987450579,
				"y": 3.8608807478,
				"z": 1.7818196885,
				"element": "H" 
			},
			{
				"x": 1.539787014,
				"y": 3.4173290443,
				"z": 2.2213109285,
				"element": "H" 
			},
			{
				"x": 3.3146712646,
				"y": 1.9240984103,
				"z": 0.1329932265,
				"element": "H" 
			},
			{
				"x": 1.3929470669,
				"y": 1.850632491,
				"z": -0.85287341,
				"element": "H" 
			},
			{
				"x": 0.6520476206,
				"y": 2.0561723842,
				"z": 0.7335112476,
				"element": "H" 
			},
			{
				"x": 0.4136379619,
				"y": -0.3507443192,
				"z": 1.0167797014,
				"element": "H" 
			},
			{
				"x": 2.5618940008,
				"y": -0.5235806482,
				"z": -0.120353483,
				"element": "H" 
			},
			{
				"x": -0.1553542882,
				"y": 0.2964554801,
				"z": -1.9146903014,
				"element": "H" 
			},
			{
				"x": -0.7973998906,
				"y": -1.0976049803,
				"z": -1.0087521402,
				"element": "H" 
			},
			{
				"x": -2.0392921098,
				"y": 2.4893955076,
				"z": -2.2446209323,
				"element": "H" 
			},
			{
				"x": -6.0283847789,
				"y": 1.0398217207,
				"z": -2.9890712242,
				"element": "H" 
			},
			{
				"x": -5.6945879599,
				"y": -0.7108924731,
				"z": -1.248530721,
				"element": "H" 
			}
		],
		 "valence_orbital": [ 
			{
				"type": "occ",
				"energy": -0.28465,
				"method": "rhf"
			},
			{
				"type": "occ",
				"energy": -0.26604,
				"method": "rhf"
			},
			{
				"type": "occ",
				"energy": -0.25864,
				"method": "rhf"
			},
			{
				"type": "occ",
				"energy": -0.24312,
				"method": "rhf"
			},
			{
				"type": "occ",
				"energy": -0.23553,
				"method": "rhf"
			},
			{
				"type": "unocc",
				"energy": -0.02497,
				"method": "rhf"
			},
			{
				"type": "unocc",
				"energy": -0.02004,
				"method": "rhf"
			},
			{
				"type": "unocc",
				"energy": 0.01469,
				"method": "rhf"
			},
			{
				"type": "unocc",
				"energy": 0.03717,
				"method": "rhf"
			},
			{
				"type": "unocc",
				"energy": 0.05747,
				"method": "rhf"
			}
		],
		"cosmo_sigma_profile": { 
			"-0.025": 0.0,
			"-0.024": 0.0,
			"-0.023": 0.0,
			"-0.022": 0.0,
			"-0.021": 0.0,
			"-0.02": 0.0,
			"-0.019": 0.0,
			"-0.018": 0.0,
			"-0.017": 0.0,
			"-0.016": 0.0,
			"-0.015": 0.0,
			"-0.014": 0.0,
			"-0.013": 0.0,
			"-0.012": 0.0,
			"-0.011": 0.0,
			"-0.01": 0.914027787819,
			"-0.009": 1.37485393909,
			"-0.008": 5.6503045648,
			"-0.007": 7.60473509425,
			"-0.006": 7.36321412266,
			"-0.005": 11.3577404222,
			"-0.004": 19.1757805335,
			"-0.003": 29.9895733677,
			"-0.002": 34.5177030449,
			"-0.001": 34.4605473731,
			"0.0": 35.6925891822,
			"0.001": 49.0515591901,
			"0.002": 32.8950769537,
			"0.003": 17.2310867024,
			"0.004": 20.6610181115,
			"0.005": 10.2201991798,
			"0.006": 3.0044557827,
			"0.007": 3.34681330545,
			"0.008": 2.42803216312,
			"0.009": 1.69910312358,
			"0.01": 2.13915766835,
			"0.011": 1.10857286178,
			"0.012": 1.34396280488,
			"0.013": 1.45032467639,
			"0.014": 2.07798181322,
			"0.015": 1.06379265591,
			"0.016": 0.00272904298177,
			"0.017": 0.0,
			"0.018": 0.0,
			"0.019": 0.0,
			"0.02": 0.0,
			"0.021": 0.0,
			"0.022": 0.0,
			"0.023": 0.0,
			"0.024": 0.0,
			"0.025": 0.0
		}
	}
}
