{
	 "smiles": "O=C1C2=C(C=CC=C2)C(=O)C1=C1NC2=C(C=C1)C=C(C=C2)C1=CC=CC=C1", 
	 "Tm": 543.15, 
	 "num_atms": 42, 
	 "gaussian": { 
		 "optdone": 1, 
		 "sigma_profile": "yes", 
		 "theory": "DFT", 
		 "functional": "B3LYP", 
		 "basiset": "6-31G**", 
		 "properties": { 
			 "R2extent": 16170.7265, 
			 "electric_dipole_moment_norm": 3.71952927936, 
			 "electric_quadrupole_moment_norm": 19.4087716178, 
			 "total_energy": -1128.84000161, 
			 "HOMO_LUMO_gap": 0.12426, 
			 "cosmo_polarized_energy": -15.5, 
			 "cosmo_cavitation_energy": 46.81, 
			 "cosmo_dispersion_energy": -34.11, 
			 "cosmo_repulsion_energy": 2.45, 
			 "cosmo_total_nonelectrostatic_energy": 15.15, 
			 "SMD_solvation_energy": 7.61 
		},
		"coords": [
			{
				"x": -2.3473810004,
				"y": 0.5812207162,
				"z": -3.9027368802,
				"element": "O" 
			},
			{
				"x": -2.1882144074,
				"y": 1.5656027208,
				"z": -3.1835937359,
				"element": "C" 
			},
			{
				"x": -2.6434590508,
				"y": 2.9627253931,
				"z": -3.5157665646,
				"element": "C" 
			},
			{
				"x": -2.294286356,
				"y": 3.8274084313,
				"z": -2.4687914481,
				"element": "C" 
			},
			{
				"x": -2.5986940093,
				"y": 5.1811150818,
				"z": -2.5193994955,
				"element": "C" 
			},
			{
				"x": -3.2686625176,
				"y": 5.6589763024,
				"z": -3.6539885399,
				"element": "C" 
			},
			{
				"x": -3.6176750967,
				"y": 4.7956335956,
				"z": -4.700043438,
				"element": "C" 
			},
			{
				"x": -3.3066472258,
				"y": 3.4298377783,
				"z": -4.6413003772,
				"element": "C" 
			},
			{
				"x": -1.5968499803,
				"y": 3.0366430474,
				"z": -1.4076970303,
				"element": "C" 
			},
			{
				"x": -1.151374611,
				"y": 3.4898847236,
				"z": -0.338296243,
				"element": "O" 
			},
			{
				"x": -1.5464389616,
				"y": 1.6616802249,
				"z": -1.8700351994,
				"element": "C" 
			},
			{
				"x": -0.9610143548,
				"y": 0.6247042679,
				"z": -1.1326047202,
				"element": "C" 
			},
			{
				"x": -0.4115177426,
				"y": 0.9252527913,
				"z": 0.0822630151,
				"element": "N" 
			},
			{
				"x": 0.1942994811,
				"y": 0.0115680869,
				"z": 0.9112684216,
				"element": "C" 
			},
			{
				"x": 0.2636920548,
				"y": -1.3445430743,
				"z": 0.5014096392,
				"element": "C" 
			},
			{
				"x": -0.3030899575,
				"y": -1.6835040916,
				"z": -0.7740126222,
				"element": "C" 
			},
			{
				"x": -0.8939408236,
				"y": -0.7446319027,
				"z": -1.5643137056,
				"element": "C" 
			},
			{
				"x": 0.8850932605,
				"y": -2.2807305182,
				"z": 1.3492948706,
				"element": "C" 
			},
			{
				"x": 1.4294279216,
				"y": -1.9101001366,
				"z": 2.5772939616,
				"element": "C" 
			},
			{
				"x": 1.3428159472,
				"y": -0.5474037408,
				"z": 2.9569383399,
				"element": "C" 
			},
			{
				"x": 0.7408111624,
				"y": 0.3991424196,
				"z": 2.1480896234,
				"element": "C" 
			},
			{
				"x": 2.0804126609,
				"y": -2.9059483456,
				"z": 3.4649315102,
				"element": "C" 
			},
			{
				"x": 1.5656016113,
				"y": -4.2079255311,
				"z": 3.5886101721,
				"element": "C" 
			},
			{
				"x": 2.1803408293,
				"y": -5.1449257226,
				"z": 4.4176391646,
				"element": "C" 
			},
			{
				"x": 3.3214084199,
				"y": -4.7996871869,
				"z": 5.1444167328,
				"element": "C" 
			},
			{
				"x": 3.8426103373,
				"y": -3.5092275857,
				"z": 5.033789032,
				"element": "C" 
			},
			{
				"x": 3.2293134503,
				"y": -2.5727947375,
				"z": 4.2028302091,
				"element": "C" 
			},
			{
				"x": -2.3228738351,
				"y": 5.8403831236,
				"z": -1.7021444718,
				"element": "H" 
			},
			{
				"x": -3.5217993741,
				"y": 6.7129730355,
				"z": -3.725366443,
				"element": "H" 
			},
			{
				"x": -4.1366471319,
				"y": 5.1927259411,
				"z": -5.5679107462,
				"element": "H" 
			},
			{
				"x": -3.5712917159,
				"y": 2.7495899926,
				"z": -5.445016736,
				"element": "H" 
			},
			{
				"x": -0.4860676978,
				"y": 1.92166559,
				"z": 0.3399446558,
				"element": "H" 
			},
			{
				"x": -0.2533789425,
				"y": -2.7181975009,
				"z": -1.1031956882,
				"element": "H" 
			},
			{
				"x": -1.3300857066,
				"y": -0.9746691508,
				"z": -2.5286066185,
				"element": "H" 
			},
			{
				"x": 0.9572742637,
				"y": -3.3117077025,
				"z": 1.0148151438,
				"element": "H" 
			},
			{
				"x": 1.7384539838,
				"y": -0.2422811087,
				"z": 3.9205504244,
				"element": "H" 
			},
			{
				"x": 0.6761008795,
				"y": 1.4366459118,
				"z": 2.462707035,
				"element": "H" 
			},
			{
				"x": 0.6611658496,
				"y": -4.4779730801,
				"z": 3.051288827,
				"element": "H" 
			},
			{
				"x": 1.7607649433,
				"y": -6.1431826035,
				"z": 4.5040300523,
				"element": "H" 
			},
			{
				"x": 3.7992632648,
				"y": -5.5290969435,
				"z": 5.7917403715,
				"element": "H" 
			},
			{
				"x": 4.7345636827,
				"y": -3.2325237155,
				"z": 5.5886373331,
				"element": "H" 
			},
			{
				"x": 3.6606764953,
				"y": -1.5809247965,
				"z": 4.1035321686,
				"element": "H" 
			}
		],
		 "valence_orbital": [ 
			{
				"type": "occ",
				"energy": -0.25745,
				"method": "rhf"
			},
			{
				"type": "occ",
				"energy": -0.25607,
				"method": "rhf"
			},
			{
				"type": "occ",
				"energy": -0.24192,
				"method": "rhf"
			},
			{
				"type": "occ",
				"energy": -0.23177,
				"method": "rhf"
			},
			{
				"type": "occ",
				"energy": -0.20252,
				"method": "rhf"
			},
			{
				"type": "unocc",
				"energy": -0.07826,
				"method": "rhf"
			},
			{
				"type": "unocc",
				"energy": -0.05967,
				"method": "rhf"
			},
			{
				"type": "unocc",
				"energy": -0.04422,
				"method": "rhf"
			},
			{
				"type": "unocc",
				"energy": -0.02363,
				"method": "rhf"
			},
			{
				"type": "unocc",
				"energy": -0.01102,
				"method": "rhf"
			}
		],
		"cosmo_sigma_profile": { 
			"-0.025": 0.0,
			"-0.024": 0.0,
			"-0.023": 0.0,
			"-0.022": 0.0,
			"-0.021": 0.0,
			"-0.02": 0.0,
			"-0.019": 0.0,
			"-0.018": 0.0,
			"-0.017": 0.0,
			"-0.016": 0.0,
			"-0.015": 0.0,
			"-0.014": 0.0,
			"-0.013": 0.0,
			"-0.012": 0.162048568918,
			"-0.011": 0.818603431635,
			"-0.01": 0.740085022019,
			"-0.009": 1.23872387776,
			"-0.008": 4.768014458,
			"-0.007": 10.8340445503,
			"-0.006": 23.577860184,
			"-0.005": 27.6516233996,
			"-0.004": 25.5625020849,
			"-0.003": 23.6099477937,
			"-0.002": 24.4898668846,
			"-0.001": 28.6615868864,
			"0.0": 32.8514241438,
			"0.001": 38.7867441821,
			"0.002": 37.8493944058,
			"0.003": 30.7722808078,
			"0.004": 18.5737024078,
			"0.005": 13.5283176544,
			"0.006": 7.14061673032,
			"0.007": 3.64258858126,
			"0.008": 2.52226436786,
			"0.009": 2.66981655284,
			"0.01": 3.82291910179,
			"0.011": 4.02807061304,
			"0.012": 5.57619792472,
			"0.013": 3.94482646196,
			"0.014": 0.63097777664,
			"0.015": 0.0,
			"0.016": 0.0,
			"0.017": 0.0,
			"0.018": 0.0,
			"0.019": 0.0,
			"0.02": 0.0,
			"0.021": 0.0,
			"0.022": 0.0,
			"0.023": 0.0,
			"0.024": 0.0,
			"0.025": 0.0
		}
	}
}
