{
	 "smiles": "NC1(CCS(=O)(=O)CC1)C(O)=O", 
	 "Tm": 568.15, 
	 "num_atms": 23, 
	 "gaussian": { 
		 "optdone": 1, 
		 "sigma_profile": "yes", 
		 "theory": "DFT", 
		 "functional": "B3LYP", 
		 "basiset": "6-31G**", 
		 "properties": { 
			 "R2extent": 2627.7504, 
			 "electric_dipole_moment_norm": 6.56713967417, 
			 "electric_quadrupole_moment_norm": 11.7370108235, 
			 "total_energy": -989.053433126, 
			 "HOMO_LUMO_gap": 0.24464, 
			 "cosmo_polarized_energy": -22.7, 
			 "cosmo_cavitation_energy": 26.43, 
			 "cosmo_dispersion_energy": -19.77, 
			 "cosmo_repulsion_energy": 1.52, 
			 "cosmo_total_nonelectrostatic_energy": 8.18, 
			 "SMD_solvation_energy": 3.83 
		},
		"coords": [
			{
				"x": 2.6585795535,
				"y": -1.6598868659,
				"z": 0.5876077912,
				"element": "N" 
			},
			{
				"x": 1.5713982724,
				"y": -0.6904528569,
				"z": 0.3878069754,
				"element": "C" 
			},
			{
				"x": 0.426574276,
				"y": -1.0405470986,
				"z": 1.3831886672,
				"element": "C" 
			},
			{
				"x": -0.4242137558,
				"y": -2.2051961172,
				"z": 0.8803031131,
				"element": "C" 
			},
			{
				"x": -1.4559948049,
				"y": -1.6617640299,
				"z": -0.5264687467,
				"element": "S" 
			},
			{
				"x": -1.6083418401,
				"y": -2.7933404793,
				"z": -1.4561770953,
				"element": "O" 
			},
			{
				"x": -2.6378486703,
				"y": -0.9651226102,
				"z": 0.009976062,
				"element": "O" 
			},
			{
				"x": -0.3593645982,
				"y": -0.4199339545,
				"z": -1.3011929414,
				"element": "C" 
			},
			{
				"x": 1.1072455599,
				"y": -0.7927961309,
				"z": -1.0864353387,
				"element": "C" 
			},
			{
				"x": 2.0296768616,
				"y": 0.7490829004,
				"z": 0.6829057816,
				"element": "C" 
			},
			{
				"x": 2.5443289051,
				"y": 0.8537634695,
				"z": 1.9341718294,
				"element": "O" 
			},
			{
				"x": 1.9665169974,
				"y": 1.6940591836,
				"z": -0.0725877861,
				"element": "O" 
			},
			{
				"x": 3.3726178645,
				"y": -1.5450149111,
				"z": -0.1286765212,
				"element": "H" 
			},
			{
				"x": 3.1092920366,
				"y": -1.498510789,
				"z": 1.4852340065,
				"element": "H" 
			},
			{
				"x": 0.8682054759,
				"y": -1.2934133734,
				"z": 2.3515070648,
				"element": "H" 
			},
			{
				"x": -0.2156586595,
				"y": -0.1692626705,
				"z": 1.5561643197,
				"element": "H" 
			},
			{
				"x": -1.1383498455,
				"y": -2.5544069883,
				"z": 1.6300943137,
				"element": "H" 
			},
			{
				"x": 0.1933503787,
				"y": -3.0398040321,
				"z": 0.5428570459,
				"element": "H" 
			},
			{
				"x": -0.6324952597,
				"y": -0.4326741191,
				"z": -2.3591072641,
				"element": "H" 
			},
			{
				"x": -0.6092168665,
				"y": 0.5557847264,
				"z": -0.8799989737,
				"element": "H" 
			},
			{
				"x": 1.7288893697,
				"y": -0.1409737549,
				"z": -1.7060764634,
				"element": "H" 
			},
			{
				"x": 1.2714034659,
				"y": -1.8225262234,
				"z": -1.4195495055,
				"element": "H" 
			},
			{
				"x": 2.8089052833,
				"y": 1.7822367254,
				"z": 2.0482536652,
				"element": "H" 
			}
		],
		 "valence_orbital": [ 
			{
				"type": "occ",
				"energy": -0.31365,
				"method": "rhf"
			},
			{
				"type": "occ",
				"energy": -0.30256,
				"method": "rhf"
			},
			{
				"type": "occ",
				"energy": -0.28844,
				"method": "rhf"
			},
			{
				"type": "occ",
				"energy": -0.27507,
				"method": "rhf"
			},
			{
				"type": "occ",
				"energy": -0.261,
				"method": "rhf"
			},
			{
				"type": "unocc",
				"energy": -0.01636,
				"method": "rhf"
			},
			{
				"type": "unocc",
				"energy": 0.04535,
				"method": "rhf"
			},
			{
				"type": "unocc",
				"energy": 0.06465,
				"method": "rhf"
			},
			{
				"type": "unocc",
				"energy": 0.07424,
				"method": "rhf"
			},
			{
				"type": "unocc",
				"energy": 0.08176,
				"method": "rhf"
			}
		],
		"cosmo_sigma_profile": { 
			"-0.025": 0.0,
			"-0.024": 0.0,
			"-0.023": 0.0,
			"-0.022": 0.0,
			"-0.021": 0.0,
			"-0.02": 0.0,
			"-0.019": 0.0640558010929,
			"-0.018": 1.1263671602,
			"-0.017": 0.635310798541,
			"-0.016": 0.827380349455,
			"-0.015": 0.946793732816,
			"-0.014": 0.719655544466,
			"-0.013": 0.688112038777,
			"-0.012": 0.790730453486,
			"-0.011": 2.01759762803,
			"-0.01": 3.63010797,
			"-0.009": 4.49520795554,
			"-0.008": 9.76542359426,
			"-0.007": 10.8594627294,
			"-0.006": 15.0577827007,
			"-0.005": 16.3565975234,
			"-0.004": 18.3750324003,
			"-0.003": 14.6085173499,
			"-0.002": 8.17573696527,
			"-0.001": 7.65262589491,
			"0.0": 5.83023754948,
			"0.001": 5.75945273674,
			"0.002": 5.33726111476,
			"0.003": 5.80719566367,
			"0.004": 4.34118270409,
			"0.005": 5.57618731565,
			"0.006": 4.95814290013,
			"0.007": 4.73230714568,
			"0.008": 4.0152129001,
			"0.009": 5.10604546185,
			"0.01": 5.79754772071,
			"0.011": 12.8794050243,
			"0.012": 14.3295572853,
			"0.013": 3.89192805934,
			"0.014": 0.403344583515,
			"0.015": 0.406585808253,
			"0.016": 0.0,
			"0.017": 0.0,
			"0.018": 0.0,
			"0.019": 0.0,
			"0.02": 0.0,
			"0.021": 0.0,
			"0.022": 0.0,
			"0.023": 0.0,
			"0.024": 0.0,
			"0.025": 0.0
		}
	}
}
