{
	 "smiles": "CN(C1=CC=C(O)C=C1)S(=O)(=O)C1=CC=C(F)C=C1", 
	 "Tm": 426.15, 
	 "num_atms": 31, 
	 "gaussian": { 
		 "optdone": 1, 
		 "sigma_profile": "yes", 
		 "theory": "DFT", 
		 "functional": "B3LYP", 
		 "basiset": "6-31G**", 
		 "properties": { 
			 "R2extent": 6175.1087, 
			 "electric_dipole_moment_norm": 3.6032451901, 
			 "electric_quadrupole_moment_norm": 23.026222642, 
			 "total_energy": -1280.97944611, 
			 "HOMO_LUMO_gap": 0.18147, 
			 "cosmo_polarized_energy": -17.6, 
			 "cosmo_cavitation_energy": 36.7, 
			 "cosmo_dispersion_energy": -25.62, 
			 "cosmo_repulsion_energy": 1.9, 
			 "cosmo_total_nonelectrostatic_energy": 12.98, 
			 "SMD_solvation_energy": 5.98 
		},
		"coords": [
			{
				"x": 0.4260385126,
				"y": -0.006371322,
				"z": 3.5872239075,
				"element": "C" 
			},
			{
				"x": 0.0159057896,
				"y": -0.7197823556,
				"z": 2.3700956976,
				"element": "N" 
			},
			{
				"x": -1.0030700789,
				"y": -0.126682624,
				"z": 1.5496622717,
				"element": "C" 
			},
			{
				"x": -1.9645799147,
				"y": -0.9486188006,
				"z": 0.9482964289,
				"element": "C" 
			},
			{
				"x": -2.974490575,
				"y": -0.3962350003,
				"z": 0.1654804358,
				"element": "C" 
			},
			{
				"x": -3.0536650913,
				"y": 0.9907901732,
				"z": -0.0071026657,
				"element": "C" 
			},
			{
				"x": -4.0298453428,
				"y": 1.5893585934,
				"z": -0.7498529393,
				"element": "O" 
			},
			{
				"x": -2.1058460121,
				"y": 1.819996528,
				"z": 0.6019646254,
				"element": "C" 
			},
			{
				"x": -1.083605141,
				"y": 1.2616485806,
				"z": 1.3637058125,
				"element": "C" 
			},
			{
				"x": 1.25309796,
				"y": -1.5934426556,
				"z": 1.5839212352,
				"element": "S" 
			},
			{
				"x": 0.606961035,
				"y": -2.4089801203,
				"z": 0.5559710829,
				"element": "O" 
			},
			{
				"x": 2.0615067199,
				"y": -2.1874457241,
				"z": 2.6514033867,
				"element": "O" 
			},
			{
				"x": 2.2735585273,
				"y": -0.3797412636,
				"z": 0.7446446217,
				"element": "C" 
			},
			{
				"x": 1.9008378771,
				"y": 0.0714172541,
				"z": -0.5264196837,
				"element": "C" 
			},
			{
				"x": 2.67364048,
				"y": 1.0393597434,
				"z": -1.1634131273,
				"element": "C" 
			},
			{
				"x": 3.8014531729,
				"y": 1.5315256827,
				"z": -0.5117199536,
				"element": "C" 
			},
			{
				"x": 4.5491534741,
				"y": 2.4650740331,
				"z": -1.1273968205,
				"element": "F" 
			},
			{
				"x": 4.1884762074,
				"y": 1.0872742716,
				"z": 0.7491635021,
				"element": "C" 
			},
			{
				"x": 3.4122677301,
				"y": 0.119640459,
				"z": 1.3845224094,
				"element": "C" 
			},
			{
				"x": 0.9812297234,
				"y": -0.6927688455,
				"z": 4.2253925796,
				"element": "H" 
			},
			{
				"x": 1.0470413055,
				"y": 0.8789033737,
				"z": 3.3887350888,
				"element": "H" 
			},
			{
				"x": -0.4805390522,
				"y": 0.310778408,
				"z": 4.1065972454,
				"element": "H" 
			},
			{
				"x": -1.9050970814,
				"y": -2.020294108,
				"z": 1.0927042373,
				"element": "H" 
			},
			{
				"x": -3.7128465127,
				"y": -1.0459557356,
				"z": -0.2996168331,
				"element": "H" 
			},
			{
				"x": -4.6173123264,
				"y": 0.9114796325,
				"z": -1.1084031612,
				"element": "H" 
			},
			{
				"x": -2.1793189644,
				"y": 2.893331329,
				"z": 0.4626381331,
				"element": "H" 
			},
			{
				"x": -0.3481786154,
				"y": 1.9158449102,
				"z": 1.8204271999,
				"element": "H" 
			},
			{
				"x": 1.0286526537,
				"y": -0.3484209029,
				"z": -1.014017307,
				"element": "H" 
			},
			{
				"x": 2.4213194439,
				"y": 1.4090770988,
				"z": -2.1510368485,
				"element": "H" 
			},
			{
				"x": 5.0841896302,
				"y": 1.4905543261,
				"z": 1.2084176552,
				"element": "H" 
			},
			{
				"x": 3.6956644654,
				"y": -0.2690149391,
				"z": 2.3562117831,
				"element": "H" 
			}
		],
		 "valence_orbital": [ 
			{
				"type": "occ",
				"energy": -0.28409,
				"method": "rhf"
			},
			{
				"type": "occ",
				"energy": -0.28025,
				"method": "rhf"
			},
			{
				"type": "occ",
				"energy": -0.26314,
				"method": "rhf"
			},
			{
				"type": "occ",
				"energy": -0.25918,
				"method": "rhf"
			},
			{
				"type": "occ",
				"energy": -0.21897,
				"method": "rhf"
			},
			{
				"type": "unocc",
				"energy": -0.0375,
				"method": "rhf"
			},
			{
				"type": "unocc",
				"energy": -0.03113,
				"method": "rhf"
			},
			{
				"type": "unocc",
				"energy": -0.0115,
				"method": "rhf"
			},
			{
				"type": "unocc",
				"energy": -0.00243,
				"method": "rhf"
			},
			{
				"type": "unocc",
				"energy": 0.06054,
				"method": "rhf"
			}
		],
		"cosmo_sigma_profile": { 
			"-0.025": 0.0,
			"-0.024": 0.0,
			"-0.023": 0.0,
			"-0.022": 0.0,
			"-0.021": 0.0,
			"-0.02": 0.0,
			"-0.019": 0.0,
			"-0.018": 0.359575433154,
			"-0.017": 1.41152186631,
			"-0.016": 1.02087736977,
			"-0.015": 1.00122973835,
			"-0.014": 1.37161725011,
			"-0.013": 0.861894789738,
			"-0.012": 0.598151931855,
			"-0.011": 1.53761954502,
			"-0.01": 0.974346106505,
			"-0.009": 1.27562351692,
			"-0.008": 5.79536774377,
			"-0.007": 10.4302711692,
			"-0.006": 16.8056712415,
			"-0.005": 15.8017253312,
			"-0.004": 19.6471073112,
			"-0.003": 20.9650850545,
			"-0.002": 16.8112836794,
			"-0.001": 18.2986772517,
			"0.0": 19.2223595571,
			"0.001": 24.6688262932,
			"0.002": 20.3191361063,
			"0.003": 22.7989693984,
			"0.004": 22.2268468557,
			"0.005": 8.6255146061,
			"0.006": 6.08737921601,
			"0.007": 4.86311092255,
			"0.008": 4.75285936357,
			"0.009": 5.8673412882,
			"0.01": 8.3952742565,
			"0.011": 8.56135676962,
			"0.012": 2.06002369454,
			"0.013": 0.0,
			"0.014": 0.0,
			"0.015": 0.0,
			"0.016": 0.0,
			"0.017": 0.0,
			"0.018": 0.0,
			"0.019": 0.0,
			"0.02": 0.0,
			"0.021": 0.0,
			"0.022": 0.0,
			"0.023": 0.0,
			"0.024": 0.0,
			"0.025": 0.0
		}
	}
}
