{
	 "smiles": "CCOC(=O)N1CCC(CC1)NC(N)=O", 
	 "Tm": 477.15, 
	 "num_atms": 32, 
	 "gaussian": { 
		 "optdone": 1, 
		 "sigma_profile": "yes", 
		 "theory": "DFT", 
		 "functional": "B3LYP", 
		 "basiset": "6-31G**", 
		 "properties": { 
			 "R2extent": 5437.6477, 
			 "electric_dipole_moment_norm": 3.9721966039, 
			 "electric_quadrupole_moment_norm": 24.1052894343, 
			 "total_energy": -743.183022275, 
			 "HOMO_LUMO_gap": 0.27833, 
			 "cosmo_polarized_energy": -20.86, 
			 "cosmo_cavitation_energy": 34.19, 
			 "cosmo_dispersion_energy": -24.71, 
			 "cosmo_repulsion_energy": 2.0, 
			 "cosmo_total_nonelectrostatic_energy": 11.48, 
			 "SMD_solvation_energy": 6.15 
		},
		"coords": [
			{
				"x": 4.7149390597,
				"y": -2.1182644466,
				"z": -2.373522392,
				"element": "C" 
			},
			{
				"x": 3.2010761465,
				"y": -2.2167447016,
				"z": -2.4130679839,
				"element": "C" 
			},
			{
				"x": 2.6908859738,
				"y": -1.4417609736,
				"z": -1.3103147511,
				"element": "O" 
			},
			{
				"x": 1.3318214678,
				"y": -1.4315852941,
				"z": -1.1966063949,
				"element": "C" 
			},
			{
				"x": 0.5865418714,
				"y": -2.0434120157,
				"z": -1.9470227858,
				"element": "O" 
			},
			{
				"x": 0.9220802402,
				"y": -0.6580910132,
				"z": -0.1492538613,
				"element": "N" 
			},
			{
				"x": -0.5133239558,
				"y": -0.618386691,
				"z": 0.1671282753,
				"element": "C" 
			},
			{
				"x": -0.7037780519,
				"y": -0.4475084918,
				"z": 1.6726444709,
				"element": "C" 
			},
			{
				"x": -0.0810760341,
				"y": 0.8698180185,
				"z": 2.194865916,
				"element": "C" 
			},
			{
				"x": 1.1512091692,
				"y": 1.2647089515,
				"z": 1.3510251709,
				"element": "C" 
			},
			{
				"x": 1.8502214727,
				"y": 0.0478025129,
				"z": 0.739962138,
				"element": "C" 
			},
			{
				"x": -1.0486178723,
				"y": 1.9732424953,
				"z": 2.1574579819,
				"element": "N" 
			},
			{
				"x": -2.0057697484,
				"y": 2.0650994267,
				"z": 3.1516813714,
				"element": "C" 
			},
			{
				"x": -2.725153907,
				"y": 3.2572815798,
				"z": 3.1382665718,
				"element": "N" 
			},
			{
				"x": -2.1948388494,
				"y": 1.186880719,
				"z": 3.9834365461,
				"element": "O" 
			},
			{
				"x": 5.146881292,
				"y": -2.6965373706,
				"z": -3.1963122512,
				"element": "H" 
			},
			{
				"x": 5.1083062012,
				"y": -2.5130874411,
				"z": -1.4321447806,
				"element": "H" 
			},
			{
				"x": 5.0432017043,
				"y": -1.0794319266,
				"z": -2.4744888433,
				"element": "H" 
			},
			{
				"x": 2.79056262,
				"y": -1.8243868515,
				"z": -3.3491344892,
				"element": "H" 
			},
			{
				"x": 2.8562658072,
				"y": -3.2507828944,
				"z": -2.3142702309,
				"element": "H" 
			},
			{
				"x": -0.9598513672,
				"y": -1.5462360179,
				"z": -0.193965897,
				"element": "H" 
			},
			{
				"x": -1.0033546948,
				"y": 0.2048746307,
				"z": -0.3728802412,
				"element": "H" 
			},
			{
				"x": -0.2330469978,
				"y": -1.2921217237,
				"z": 2.1891550729,
				"element": "H" 
			},
			{
				"x": -1.7635253962,
				"y": -0.4725695009,
				"z": 1.9340949756,
				"element": "H" 
			},
			{
				"x": 0.2170118009,
				"y": 0.7093834358,
				"z": 3.2375129597,
				"element": "H" 
			},
			{
				"x": 1.8651526825,
				"y": 1.8363283488,
				"z": 1.9533862139,
				"element": "H" 
			},
			{
				"x": 0.8328532021,
				"y": 1.9139631157,
				"z": 0.5243716035,
				"element": "H" 
			},
			{
				"x": 2.7197501838,
				"y": 0.3621295318,
				"z": 0.1616914366,
				"element": "H" 
			},
			{
				"x": 2.2181591338,
				"y": -0.6174171685,
				"z": 1.5357863777,
				"element": "H" 
			},
			{
				"x": -0.7165747193,
				"y": 2.8478627401,
				"z": 1.7746477256,
				"element": "H" 
			},
			{
				"x": -2.8900498394,
				"y": 3.6909903575,
				"z": 2.2398603553,
				"element": "H" 
			},
			{
				"x": -3.5434585954,
				"y": 3.2155586588,
				"z": 3.7296097395,
				"element": "H" 
			}
		],
		 "valence_orbital": [ 
			{
				"type": "occ",
				"energy": -0.27518,
				"method": "rhf"
			},
			{
				"type": "occ",
				"energy": -0.26038,
				"method": "rhf"
			},
			{
				"type": "occ",
				"energy": -0.25494,
				"method": "rhf"
			},
			{
				"type": "occ",
				"energy": -0.25172,
				"method": "rhf"
			},
			{
				"type": "occ",
				"energy": -0.23064,
				"method": "rhf"
			},
			{
				"type": "unocc",
				"energy": 0.04769,
				"method": "rhf"
			},
			{
				"type": "unocc",
				"energy": 0.06065,
				"method": "rhf"
			},
			{
				"type": "unocc",
				"energy": 0.06621,
				"method": "rhf"
			},
			{
				"type": "unocc",
				"energy": 0.08129,
				"method": "rhf"
			},
			{
				"type": "unocc",
				"energy": 0.10079,
				"method": "rhf"
			}
		],
		"cosmo_sigma_profile": { 
			"-0.025": 0.0,
			"-0.024": 0.0,
			"-0.023": 0.0,
			"-0.022": 0.0,
			"-0.021": 0.0,
			"-0.02": 0.0,
			"-0.019": 0.0,
			"-0.018": 0.0,
			"-0.017": 0.0,
			"-0.016": 0.0,
			"-0.015": 0.0,
			"-0.014": 0.858915898554,
			"-0.013": 3.85207354358,
			"-0.012": 3.89436551161,
			"-0.011": 2.86363938626,
			"-0.01": 3.19213471929,
			"-0.009": 3.08617367705,
			"-0.008": 3.50778276637,
			"-0.007": 2.77343334932,
			"-0.006": 2.33146925855,
			"-0.005": 7.79066825105,
			"-0.004": 29.8713541605,
			"-0.003": 37.6277912892,
			"-0.002": 29.1971931771,
			"-0.001": 22.5133359024,
			"0.0": 21.9754427476,
			"0.001": 13.2116104188,
			"0.002": 8.96262158479,
			"0.003": 7.71484478333,
			"0.004": 6.66540223456,
			"0.005": 7.26349654756,
			"0.006": 6.1422199074,
			"0.007": 4.45696155073,
			"0.008": 3.78981470308,
			"0.009": 3.22456764778,
			"0.01": 3.51674802566,
			"0.011": 3.0615405461,
			"0.012": 4.04181572114,
			"0.013": 5.34391469512,
			"0.014": 9.40970017791,
			"0.015": 3.39325981841,
			"0.016": 0.0711534751195,
			"0.017": 0.0,
			"0.018": 0.0,
			"0.019": 0.0,
			"0.02": 0.0,
			"0.021": 0.0,
			"0.022": 0.0,
			"0.023": 0.0,
			"0.024": 0.0,
			"0.025": 0.0
		}
	}
}
