{
	 "smiles": "OC(=O)C(CCBr)(C1=CC=CC=C1)C1=CC=CC=C1", 
	 "Tm": 409.15, 
	 "num_atms": 34, 
	 "gaussian": { 
		 "optdone": 1, 
		 "sigma_profile": "yes", 
		 "theory": "DFT", 
		 "functional": "B3LYP", 
		 "basiset": "6-31G**", 
		 "properties": { 
			 "R2extent": 6599.7707, 
			 "electric_dipole_moment_norm": 2.69948711795, 
			 "electric_quadrupole_moment_norm": 12.2567232493, 
			 "total_energy": -3340.60315196, 
			 "HOMO_LUMO_gap": 0.21228, 
			 "cosmo_polarized_energy": -14.14, 
			 "cosmo_cavitation_energy": 37.96, 
			 "cosmo_dispersion_energy": -26.24, 
			 "cosmo_repulsion_energy": 2.05, 
			 "cosmo_total_nonelectrostatic_energy": 13.76, 
			 "SMD_solvation_energy": 6.16 
		},
		"coords": [
			{
				"x": 1.8827298484,
				"y": 0.7493021633,
				"z": -1.3248707004,
				"element": "O" 
			},
			{
				"x": 1.7403150344,
				"y": -0.0653797357,
				"z": -0.2556885448,
				"element": "C" 
			},
			{
				"x": 2.6694243717,
				"y": -0.3352721713,
				"z": 0.4739995499,
				"element": "O" 
			},
			{
				"x": 0.2866679716,
				"y": -0.5583938708,
				"z": -0.0604404962,
				"element": "C" 
			},
			{
				"x": 0.3653497594,
				"y": -1.7122373747,
				"z": 0.9832675118,
				"element": "C" 
			},
			{
				"x": -0.9692725098,
				"y": -2.361489985,
				"z": 1.3674730881,
				"element": "C" 
			},
			{
				"x": -1.3083423631,
				"y": -4.0899726007,
				"z": 0.4506331757,
				"element": "Br" 
			},
			{
				"x": -0.4806943601,
				"y": 0.6813120376,
				"z": 0.4651999632,
				"element": "C" 
			},
			{
				"x": -0.8143955326,
				"y": 0.8351079472,
				"z": 1.8181252959,
				"element": "C" 
			},
			{
				"x": -1.4640197587,
				"y": 1.9847294161,
				"z": 2.2765170439,
				"element": "C" 
			},
			{
				"x": -1.7856143905,
				"y": 3.0113699582,
				"z": 1.3921111803,
				"element": "C" 
			},
			{
				"x": -1.4471929315,
				"y": 2.8797082283,
				"z": 0.0434168498,
				"element": "C" 
			},
			{
				"x": -0.801839057,
				"y": 1.7323898778,
				"z": -0.412323196,
				"element": "C" 
			},
			{
				"x": -0.2813421022,
				"y": -1.1122420927,
				"z": -1.381828795,
				"element": "C" 
			},
			{
				"x": -1.6346411649,
				"y": -0.9860865555,
				"z": -1.7182325661,
				"element": "C" 
			},
			{
				"x": -2.1439988018,
				"y": -1.5806767359,
				"z": -2.8747635746,
				"element": "C" 
			},
			{
				"x": -1.3090861877,
				"y": -2.3123504353,
				"z": -3.7170826088,
				"element": "C" 
			},
			{
				"x": 0.041050329,
				"y": -2.4508771937,
				"z": -3.3897939025,
				"element": "C" 
			},
			{
				"x": 0.5452966815,
				"y": -1.8606460431,
				"z": -2.2331709094,
				"element": "C" 
			},
			{
				"x": 2.8108834233,
				"y": 1.0382515586,
				"z": -1.3192463816,
				"element": "H" 
			},
			{
				"x": 1.0467009423,
				"y": -2.4721548638,
				"z": 0.5966136257,
				"element": "H" 
			},
			{
				"x": 0.850413041,
				"y": -1.3295262939,
				"z": 1.885145694,
				"element": "H" 
			},
			{
				"x": -0.9949928679,
				"y": -2.6202069888,
				"z": 2.4247955765,
				"element": "H" 
			},
			{
				"x": -1.8349704983,
				"y": -1.7455023774,
				"z": 1.1319223102,
				"element": "H" 
			},
			{
				"x": -0.5701287124,
				"y": 0.0634762739,
				"z": 2.5386102159,
				"element": "H" 
			},
			{
				"x": -1.7133714747,
				"y": 2.0717897416,
				"z": 3.330145396,
				"element": "H" 
			},
			{
				"x": -2.2901535782,
				"y": 3.9050804421,
				"z": 1.7474935585,
				"element": "H" 
			},
			{
				"x": -1.6845065868,
				"y": 3.6739398878,
				"z": -0.6587189784,
				"element": "H" 
			},
			{
				"x": -0.5385904431,
				"y": 1.6493189926,
				"z": -1.4602955246,
				"element": "H" 
			},
			{
				"x": -2.3002902409,
				"y": -0.4150999703,
				"z": -1.0800984865,
				"element": "H" 
			},
			{
				"x": -3.1980776274,
				"y": -1.4694930634,
				"z": -3.1126274577,
				"element": "H" 
			},
			{
				"x": -1.7044859966,
				"y": -2.7719335371,
				"z": -4.6182038665,
				"element": "H" 
			},
			{
				"x": 0.7038423147,
				"y": -3.0212035793,
				"z": -4.0342845161,
				"element": "H" 
			},
			{
				"x": 1.5973334689,
				"y": -1.9894310568,
				"z": -1.9922995304,
				"element": "H" 
			}
		],
		 "valence_orbital": [ 
			{
				"type": "occ",
				"energy": -0.26401,
				"method": "rhf"
			},
			{
				"type": "occ",
				"energy": -0.25791,
				"method": "rhf"
			},
			{
				"type": "occ",
				"energy": -0.25355,
				"method": "rhf"
			},
			{
				"type": "occ",
				"energy": -0.24746,
				"method": "rhf"
			},
			{
				"type": "occ",
				"energy": -0.23799,
				"method": "rhf"
			},
			{
				"type": "unocc",
				"energy": -0.02571,
				"method": "rhf"
			},
			{
				"type": "unocc",
				"energy": -0.01365,
				"method": "rhf"
			},
			{
				"type": "unocc",
				"energy": -0.00621,
				"method": "rhf"
			},
			{
				"type": "unocc",
				"energy": 0.00016,
				"method": "rhf"
			},
			{
				"type": "unocc",
				"energy": 0.01101,
				"method": "rhf"
			}
		],
		"cosmo_sigma_profile": { 
			"-0.025": 0.0,
			"-0.024": 0.0,
			"-0.023": 0.0,
			"-0.022": 0.0,
			"-0.021": 0.0,
			"-0.02": 0.0,
			"-0.019": 0.06669569873,
			"-0.018": 0.848944290888,
			"-0.017": 1.16745257762,
			"-0.016": 0.618849536997,
			"-0.015": 0.509580061303,
			"-0.014": 0.828507622664,
			"-0.013": 0.918751801077,
			"-0.012": 0.742553950594,
			"-0.011": 0.984869279097,
			"-0.01": 0.569595939911,
			"-0.009": 0.565546910772,
			"-0.008": 2.77768012471,
			"-0.007": 6.15924877977,
			"-0.006": 15.4964763904,
			"-0.005": 25.1201437559,
			"-0.004": 27.2294392655,
			"-0.003": 24.0328722563,
			"-0.002": 19.5120387447,
			"-0.001": 19.2871843824,
			"0.0": 16.2012586078,
			"0.001": 17.8188059044,
			"0.002": 17.7510746192,
			"0.003": 18.4465959608,
			"0.004": 19.8701169452,
			"0.005": 23.6438642459,
			"0.006": 17.9863988986,
			"0.007": 10.0574223527,
			"0.008": 4.44804941565,
			"0.009": 2.46363796189,
			"0.01": 2.02394367108,
			"0.011": 4.62808377871,
			"0.012": 1.71590950984,
			"0.013": 0.0,
			"0.014": 0.0,
			"0.015": 0.0,
			"0.016": 0.0,
			"0.017": 0.0,
			"0.018": 0.0,
			"0.019": 0.0,
			"0.02": 0.0,
			"0.021": 0.0,
			"0.022": 0.0,
			"0.023": 0.0,
			"0.024": 0.0,
			"0.025": 0.0
		}
	}
}
