{
	 "smiles": "CC(=O)NC1=CC=C(C=C1)S(Cl)(=O)=O", 
	 "Tm": 422.15, 
	 "num_atms": 22, 
	 "gaussian": { 
		 "optdone": 1, 
		 "sigma_profile": "yes", 
		 "theory": "DFT", 
		 "functional": "B3LYP", 
		 "basiset": "6-31G**", 
		 "properties": { 
			 "R2extent": 5888.8031, 
			 "electric_dipole_moment_norm": 8.0261332421, 
			 "electric_quadrupole_moment_norm": 7.53523050411, 
			 "total_energy": -1448.43003951, 
			 "HOMO_LUMO_gap": 0.16954, 
			 "cosmo_polarized_energy": -18.18, 
			 "cosmo_cavitation_energy": 30.27, 
			 "cosmo_dispersion_energy": -22.68, 
			 "cosmo_repulsion_energy": 1.74, 
			 "cosmo_total_nonelectrostatic_energy": 9.33, 
			 "SMD_solvation_energy": 4.68 
		},
		"coords": [
			{
				"x": 3.0654267648,
				"y": -2.252379789,
				"z": -2.5115407955,
				"element": "C" 
			},
			{
				"x": 2.525130165,
				"y": -0.8963483551,
				"z": -2.0877449134,
				"element": "C" 
			},
			{
				"x": 2.966956998,
				"y": 0.1515306746,
				"z": -2.5273085156,
				"element": "O" 
			},
			{
				"x": 1.4705340305,
				"y": -0.9681922061,
				"z": -1.1867162894,
				"element": "N" 
			},
			{
				"x": 0.7130526443,
				"y": 0.073190045,
				"z": -0.635383558,
				"element": "C" 
			},
			{
				"x": 0.9437626381,
				"y": 1.4306868223,
				"z": -0.9284308386,
				"element": "C" 
			},
			{
				"x": 0.1452052273,
				"y": 2.405354298,
				"z": -0.3403180515,
				"element": "C" 
			},
			{
				"x": -0.8723969539,
				"y": 2.0293006564,
				"z": 0.5381600308,
				"element": "C" 
			},
			{
				"x": -1.1162776651,
				"y": 0.6879730782,
				"z": 0.8420127154,
				"element": "C" 
			},
			{
				"x": -0.3192661199,
				"y": -0.2827937641,
				"z": 0.2544358676,
				"element": "C" 
			},
			{
				"x": -1.8787610487,
				"y": 3.2817970921,
				"z": 1.2958695589,
				"element": "S" 
			},
			{
				"x": -3.4746416636,
				"y": 3.4755425808,
				"z": -0.120301644,
				"element": "Cl" 
			},
			{
				"x": -1.1721776254,
				"y": 4.5566660861,
				"z": 1.274940413,
				"element": "O" 
			},
			{
				"x": -2.4886266497,
				"y": 2.7471397943,
				"z": 2.5079685511,
				"element": "O" 
			},
			{
				"x": 2.510691614,
				"y": -2.6074274554,
				"z": -3.3872205428,
				"element": "H" 
			},
			{
				"x": 4.1099989111,
				"y": -2.1317496665,
				"z": -2.7995834338,
				"element": "H" 
			},
			{
				"x": 2.9892315255,
				"y": -3.0108094218,
				"z": -1.7265979433,
				"element": "H" 
			},
			{
				"x": 1.1999255343,
				"y": -1.8965656913,
				"z": -0.8945489881,
				"element": "H" 
			},
			{
				"x": 1.7414674909,
				"y": 1.6992512832,
				"z": -1.605412322,
				"element": "H" 
			},
			{
				"x": 0.3183967934,
				"y": 3.454290571,
				"z": -0.5534679565,
				"element": "H" 
			},
			{
				"x": -1.9064659642,
				"y": 0.4170743402,
				"z": 1.5328497876,
				"element": "H" 
			},
			{
				"x": -0.4937666467,
				"y": -1.3300309728,
				"z": 0.4878388681,
				"element": "H" 
			}
		],
		 "valence_orbital": [ 
			{
				"type": "occ",
				"energy": -0.32015,
				"method": "rhf"
			},
			{
				"type": "occ",
				"energy": -0.30723,
				"method": "rhf"
			},
			{
				"type": "occ",
				"energy": -0.28774,
				"method": "rhf"
			},
			{
				"type": "occ",
				"energy": -0.27895,
				"method": "rhf"
			},
			{
				"type": "occ",
				"energy": -0.25564,
				"method": "rhf"
			},
			{
				"type": "unocc",
				"energy": -0.0861,
				"method": "rhf"
			},
			{
				"type": "unocc",
				"energy": -0.04459,
				"method": "rhf"
			},
			{
				"type": "unocc",
				"energy": -0.03607,
				"method": "rhf"
			},
			{
				"type": "unocc",
				"energy": 0.00786,
				"method": "rhf"
			},
			{
				"type": "unocc",
				"energy": 0.04152,
				"method": "rhf"
			}
		],
		"cosmo_sigma_profile": { 
			"-0.025": 0.0,
			"-0.024": 0.0,
			"-0.023": 0.0,
			"-0.022": 0.0,
			"-0.021": 0.0,
			"-0.02": 0.0,
			"-0.019": 0.0,
			"-0.018": 0.0,
			"-0.017": 0.109293506811,
			"-0.016": 1.5366230013,
			"-0.015": 1.13311163924,
			"-0.014": 1.61271985716,
			"-0.013": 1.53594574059,
			"-0.012": 1.34794786369,
			"-0.011": 2.03845428396,
			"-0.01": 1.25155774393,
			"-0.009": 2.40997977699,
			"-0.008": 6.32854932589,
			"-0.007": 8.09734866508,
			"-0.006": 10.9730376032,
			"-0.005": 12.896221642,
			"-0.004": 11.8674009084,
			"-0.003": 13.3668663353,
			"-0.002": 15.9354917539,
			"-0.001": 18.8314938374,
			"0.0": 18.5945063951,
			"0.001": 24.4008336238,
			"0.002": 15.9094186475,
			"0.003": 14.1184031502,
			"0.004": 15.4733283124,
			"0.005": 5.61063559199,
			"0.006": 5.50825710799,
			"0.007": 6.07308075899,
			"0.008": 10.7070823956,
			"0.009": 8.34031358614,
			"0.01": 2.16091892005,
			"0.011": 1.74569576052,
			"0.012": 2.93709514262,
			"0.013": 1.94171919773,
			"0.014": 0.348432833597,
			"0.015": 0.0,
			"0.016": 0.0,
			"0.017": 0.0,
			"0.018": 0.0,
			"0.019": 0.0,
			"0.02": 0.0,
			"0.021": 0.0,
			"0.022": 0.0,
			"0.023": 0.0,
			"0.024": 0.0,
			"0.025": 0.0
		}
	}
}
