{
	 "smiles": "CCOC(=O)C(O)C(O)C(O)=O", 
	 "Tm": 363.15, 
	 "num_atms": 22, 
	 "gaussian": { 
		 "optdone": 1, 
		 "sigma_profile": "yes", 
		 "theory": "DFT", 
		 "functional": "B3LYP", 
		 "basiset": "6-31G**", 
		 "properties": { 
			 "R2extent": 2858.0167, 
			 "electric_dipole_moment_norm": 2.50231439072, 
			 "electric_quadrupole_moment_norm": 11.4752610445, 
			 "total_energy": -686.020406439, 
			 "HOMO_LUMO_gap": 0.24418, 
			 "cosmo_polarized_energy": -15.28, 
			 "cosmo_cavitation_energy": 26.11, 
			 "cosmo_dispersion_energy": -18.91, 
			 "cosmo_repulsion_energy": 1.57, 
			 "cosmo_total_nonelectrostatic_energy": 8.77, 
			 "SMD_solvation_energy": 6.47 
		},
		"coords": [
			{
				"x": -1.164155971,
				"y": 0.8869963249,
				"z": 3.8685976348,
				"element": "C" 
			},
			{
				"x": -1.5026357448,
				"y": 0.9645574965,
				"z": 2.3931996779,
				"element": "C" 
			},
			{
				"x": -0.2959132742,
				"y": 0.6348154606,
				"z": 1.6546136336,
				"element": "O" 
			},
			{
				"x": -0.39326171,
				"y": 0.6533289533,
				"z": 0.3288669332,
				"element": "C" 
			},
			{
				"x": -1.4202469722,
				"y": 0.9267529979,
				"z": -0.2779881027,
				"element": "O" 
			},
			{
				"x": 0.9150420347,
				"y": 0.2761869867,
				"z": -0.3844104019,
				"element": "C" 
			},
			{
				"x": 2.0710427163,
				"y": 0.4867789471,
				"z": 0.3776790574,
				"element": "O" 
			},
			{
				"x": 0.9616075553,
				"y": 0.9874054544,
				"z": -1.7661166732,
				"element": "C" 
			},
			{
				"x": -0.0257544688,
				"y": 0.5381517331,
				"z": -2.6509655134,
				"element": "O" 
			},
			{
				"x": 0.9635282351,
				"y": 2.5058263463,
				"z": -1.5490425927,
				"element": "C" 
			},
			{
				"x": 0.4404971077,
				"y": 3.1977268781,
				"z": -2.5667016604,
				"element": "O" 
			},
			{
				"x": 1.4147799316,
				"y": 3.0419351379,
				"z": -0.5485271301,
				"element": "O" 
			},
			{
				"x": -0.8304706945,
				"y": -0.1180010889,
				"z": 4.1411701138,
				"element": "H" 
			},
			{
				"x": -2.0505040913,
				"y": 1.1298080744,
				"z": 4.4628329782,
				"element": "H" 
			},
			{
				"x": -0.3716520522,
				"y": 1.5952337145,
				"z": 4.1254048756,
				"element": "H" 
			},
			{
				"x": -2.2882297122,
				"y": 0.2581417601,
				"z": 2.1084302406,
				"element": "H" 
			},
			{
				"x": -1.8297514229,
				"y": 1.964442642,
				"z": 2.0931981586,
				"element": "H" 
			},
			{
				"x": 0.8544478189,
				"y": -0.7988469292,
				"z": -0.5947943857,
				"element": "H" 
			},
			{
				"x": 2.1375429286,
				"y": 1.4496183665,
				"z": 0.4966777454,
				"element": "H" 
			},
			{
				"x": 1.9354326567,
				"y": 0.7412298971,
				"z": -2.2081072216,
				"element": "H" 
			},
			{
				"x": -0.8727243383,
				"y": 0.6843115705,
				"z": -2.1939032183,
				"element": "H" 
			},
			{
				"x": 0.5078794677,
				"y": 4.1375992762,
				"z": -2.3237141491,
				"element": "H" 
			}
		],
		 "valence_orbital": [ 
			{
				"type": "occ",
				"energy": -0.32264,
				"method": "rhf"
			},
			{
				"type": "occ",
				"energy": -0.31498,
				"method": "rhf"
			},
			{
				"type": "occ",
				"energy": -0.3136,
				"method": "rhf"
			},
			{
				"type": "occ",
				"energy": -0.27416,
				"method": "rhf"
			},
			{
				"type": "occ",
				"energy": -0.25583,
				"method": "rhf"
			},
			{
				"type": "unocc",
				"energy": -0.01165,
				"method": "rhf"
			},
			{
				"type": "unocc",
				"energy": -0.00748,
				"method": "rhf"
			},
			{
				"type": "unocc",
				"energy": 0.06519,
				"method": "rhf"
			},
			{
				"type": "unocc",
				"energy": 0.09251,
				"method": "rhf"
			},
			{
				"type": "unocc",
				"energy": 0.09728,
				"method": "rhf"
			}
		],
		"cosmo_sigma_profile": { 
			"-0.025": 0.0,
			"-0.024": 0.0,
			"-0.023": 0.0,
			"-0.022": 0.0,
			"-0.021": 0.0,
			"-0.02": 0.0821798606656,
			"-0.019": 0.801958613302,
			"-0.018": 1.16303903255,
			"-0.017": 0.457953556079,
			"-0.016": 0.721905155176,
			"-0.015": 0.792384419199,
			"-0.014": 0.391779622047,
			"-0.013": 1.27097706896,
			"-0.012": 0.710982304224,
			"-0.011": 0.73798473331,
			"-0.01": 1.12405464332,
			"-0.009": 2.99659204604,
			"-0.008": 7.10284483834,
			"-0.007": 5.86343892396,
			"-0.006": 8.36867849448,
			"-0.005": 14.012490792,
			"-0.004": 20.2728809155,
			"-0.003": 16.3995375289,
			"-0.002": 13.2674568628,
			"-0.001": 14.1736056893,
			"0.0": 15.1965867658,
			"0.001": 7.74934669444,
			"0.002": 6.43580613849,
			"0.003": 6.88343421402,
			"0.004": 4.78052493712,
			"0.005": 4.87236120376,
			"0.006": 5.45023792652,
			"0.007": 6.78921995861,
			"0.008": 5.98444940466,
			"0.009": 6.39794337268,
			"0.01": 7.3247503844,
			"0.011": 5.8520685663,
			"0.012": 5.26338094214,
			"0.013": 4.49274642568,
			"0.014": 0.318298454317,
			"0.015": 0.0,
			"0.016": 0.0,
			"0.017": 0.0,
			"0.018": 0.0,
			"0.019": 0.0,
			"0.02": 0.0,
			"0.021": 0.0,
			"0.022": 0.0,
			"0.023": 0.0,
			"0.024": 0.0,
			"0.025": 0.0
		}
	}
}
