{
	 "smiles": "OC(=O)C1=CC=C(NC1=O)C1=CC=NC=C1", 
	 "Tm": 589.15, 
	 "num_atms": 24, 
	 "gaussian": { 
		 "optdone": 1, 
		 "sigma_profile": "yes", 
		 "theory": "DFT", 
		 "functional": "B3LYP", 
		 "basiset": "6-31G**", 
		 "properties": { 
			 "R2extent": 4660.8826, 
			 "electric_dipole_moment_norm": 3.06802261074, 
			 "electric_quadrupole_moment_norm": 9.19162862881, 
			 "total_energy": -759.183611621, 
			 "HOMO_LUMO_gap": 0.14093, 
			 "cosmo_polarized_energy": -22.85, 
			 "cosmo_cavitation_energy": 29.72, 
			 "cosmo_dispersion_energy": -21.88, 
			 "cosmo_repulsion_energy": 1.67, 
			 "cosmo_total_nonelectrostatic_energy": 9.52, 
			 "SMD_solvation_energy": 5.52 
		},
		"coords": [
			{
				"x": 2.2685589058,
				"y": -2.7845963274,
				"z": -3.0287045987,
				"element": "O" 
			},
			{
				"x": 1.0845310656,
				"y": -2.1632723687,
				"z": -3.1794325597,
				"element": "C" 
			},
			{
				"x": 0.3716922191,
				"y": -2.3506353743,
				"z": -4.1513599405,
				"element": "O" 
			},
			{
				"x": 0.7219107207,
				"y": -1.2409195234,
				"z": -2.0707699001,
				"element": "C" 
			},
			{
				"x": -0.4902862226,
				"y": -0.5931545573,
				"z": -2.1795946693,
				"element": "C" 
			},
			{
				"x": -0.9709465353,
				"y": 0.3088710332,
				"z": -1.2064888782,
				"element": "C" 
			},
			{
				"x": -0.1950949888,
				"y": 0.5576907645,
				"z": -0.0951096779,
				"element": "C" 
			},
			{
				"x": 1.0048702545,
				"y": -0.0798961496,
				"z": 0.0102592249,
				"element": "N" 
			},
			{
				"x": 1.5807205262,
				"y": -1.0000121356,
				"z": -0.9103433904,
				"element": "C" 
			},
			{
				"x": 2.6814028347,
				"y": -1.4609502222,
				"z": -0.6506686816,
				"element": "O" 
			},
			{
				"x": -0.5986756083,
				"y": 1.4579965593,
				"z": 1.0064238566,
				"element": "C" 
			},
			{
				"x": -1.3481255524,
				"y": 2.6158089902,
				"z": 0.7535384538,
				"element": "C" 
			},
			{
				"x": -1.7085758791,
				"y": 3.4332447269,
				"z": 1.8231828006,
				"element": "C" 
			},
			{
				"x": -1.3811047884,
				"y": 3.1842228725,
				"z": 3.097718841,
				"element": "N" 
			},
			{
				"x": -0.6667535008,
				"y": 2.0777480521,
				"z": 3.3342174307,
				"element": "C" 
			},
			{
				"x": -0.2530485743,
				"y": 1.191834318,
				"z": 2.339654423,
				"element": "C" 
			},
			{
				"x": 2.3647638432,
				"y": -3.3443739308,
				"z": -3.8178053284,
				"element": "H" 
			},
			{
				"x": -1.0873204003,
				"y": -0.8107707524,
				"z": -3.0601492694,
				"element": "H" 
			},
			{
				"x": -1.9460175275,
				"y": 0.7672116287,
				"z": -1.304315911,
				"element": "H" 
			},
			{
				"x": 1.6207426145,
				"y": 0.1283622801,
				"z": 0.7877061472,
				"element": "H" 
			},
			{
				"x": -1.6226700634,
				"y": 2.8894787724,
				"z": -0.2595582334,
				"element": "H" 
			},
			{
				"x": -2.2841533536,
				"y": 4.3392714429,
				"z": 1.64407665,
				"element": "H" 
			},
			{
				"x": -0.4137546056,
				"y": 1.8819529419,
				"z": 4.3743789798,
				"element": "H" 
			},
			{
				"x": 0.2961346162,
				"y": 0.295686959,
				"z": 2.6123442309,
				"element": "H" 
			}
		],
		 "valence_orbital": [ 
			{
				"type": "occ",
				"energy": -0.28789,
				"method": "rhf"
			},
			{
				"type": "occ",
				"energy": -0.27704,
				"method": "rhf"
			},
			{
				"type": "occ",
				"energy": -0.27554,
				"method": "rhf"
			},
			{
				"type": "occ",
				"energy": -0.25995,
				"method": "rhf"
			},
			{
				"type": "occ",
				"energy": -0.2324,
				"method": "rhf"
			},
			{
				"type": "unocc",
				"energy": -0.09147,
				"method": "rhf"
			},
			{
				"type": "unocc",
				"energy": -0.03828,
				"method": "rhf"
			},
			{
				"type": "unocc",
				"energy": -0.03463,
				"method": "rhf"
			},
			{
				"type": "unocc",
				"energy": -0.00033,
				"method": "rhf"
			},
			{
				"type": "unocc",
				"energy": 0.04045,
				"method": "rhf"
			}
		],
		"cosmo_sigma_profile": { 
			"-0.025": 0.0,
			"-0.024": 0.0,
			"-0.023": 0.0,
			"-0.022": 0.0,
			"-0.021": 0.0,
			"-0.02": 0.0,
			"-0.019": 0.0312686729366,
			"-0.018": 0.566025584719,
			"-0.017": 1.05373059297,
			"-0.016": 1.43629752571,
			"-0.015": 1.54952066206,
			"-0.014": 1.46960412708,
			"-0.013": 1.75441659923,
			"-0.012": 2.54003929762,
			"-0.011": 1.9072031048,
			"-0.01": 2.26505835969,
			"-0.009": 2.3007781524,
			"-0.008": 7.91878191604,
			"-0.007": 12.4870046735,
			"-0.006": 13.5022188409,
			"-0.005": 11.2554892703,
			"-0.004": 11.0680961383,
			"-0.003": 13.1517261557,
			"-0.002": 19.6574827365,
			"-0.001": 18.2564684547,
			"0.0": 19.9726881203,
			"0.001": 22.2064823376,
			"0.002": 8.50077388369,
			"0.003": 4.84689785013,
			"0.004": 4.49727469916,
			"0.005": 5.02770859007,
			"0.006": 4.14075635692,
			"0.007": 3.89140378406,
			"0.008": 3.93693847336,
			"0.009": 4.71590989938,
			"0.01": 4.34648195183,
			"0.011": 5.20337169256,
			"0.012": 7.39604953011,
			"0.013": 7.19598877943,
			"0.014": 4.17562499412,
			"0.015": 2.54984046096,
			"0.016": 2.18816235638,
			"0.017": 0.223390592838,
			"0.018": 0.0,
			"0.019": 0.0,
			"0.02": 0.0,
			"0.021": 0.0,
			"0.022": 0.0,
			"0.023": 0.0,
			"0.024": 0.0,
			"0.025": 0.0
		}
	}
}
