{
	 "smiles": "OC(=O)C1=CC2=C(OC1=O)C=CC(F)=C2", 
	 "Tm": 459.15, 
	 "num_atms": 20, 
	 "gaussian": { 
		 "optdone": 1, 
		 "sigma_profile": "yes", 
		 "theory": "DFT", 
		 "functional": "B3LYP", 
		 "basiset": "6-31G**", 
		 "properties": { 
			 "R2extent": 3667.0107, 
			 "electric_dipole_moment_norm": 5.00585100158, 
			 "electric_quadrupole_moment_norm": 26.3166651991, 
			 "total_energy": -784.815552692, 
			 "HOMO_LUMO_gap": 0.14931, 
			 "cosmo_polarized_energy": -18.6, 
			 "cosmo_cavitation_energy": 26.53, 
			 "cosmo_dispersion_energy": -19.6, 
			 "cosmo_repulsion_energy": 1.48, 
			 "cosmo_total_nonelectrostatic_energy": 8.41, 
			 "SMD_solvation_energy": 7.36 
		},
		"coords": [
			{
				"x": -1.6295488255,
				"y": -0.9261626767,
				"z": 2.5039087997,
				"element": "O" 
			},
			{
				"x": -2.2929181942,
				"y": -0.2691217393,
				"z": 1.5091904062,
				"element": "C" 
			},
			{
				"x": -3.4522623739,
				"y": 0.0553413557,
				"z": 1.6183354038,
				"element": "O" 
			},
			{
				"x": -1.4095031693,
				"y": -0.0285712746,
				"z": 0.3328566537,
				"element": "C" 
			},
			{
				"x": -0.1115708624,
				"y": -0.4441888689,
				"z": 0.3386081522,
				"element": "C" 
			},
			{
				"x": 0.7584318997,
				"y": -0.2246045748,
				"z": -0.7789311132,
				"element": "C" 
			},
			{
				"x": 0.2184553118,
				"y": 0.4428907689,
				"z": -1.8947438097,
				"element": "C" 
			},
			{
				"x": -1.0736002876,
				"y": 0.8593184791,
				"z": -1.9071913667,
				"element": "O" 
			},
			{
				"x": -1.970639098,
				"y": 0.6703553687,
				"z": -0.8396804002,
				"element": "C" 
			},
			{
				"x": -3.0855929944,
				"y": 1.0903432204,
				"z": -0.9881845253,
				"element": "O" 
			},
			{
				"x": 0.9973190703,
				"y": 0.69860764,
				"z": -3.0277934493,
				"element": "C" 
			},
			{
				"x": 2.323527964,
				"y": 0.2855958013,
				"z": -3.0476269089,
				"element": "C" 
			},
			{
				"x": 2.8583405544,
				"y": -0.377967882,
				"z": -1.9370428632,
				"element": "C" 
			},
			{
				"x": 4.1466953282,
				"y": -0.7694579209,
				"z": -1.9782526367,
				"element": "F" 
			},
			{
				"x": 2.1053993513,
				"y": -0.6393346192,
				"z": -0.8097827315,
				"element": "C" 
			},
			{
				"x": -2.2795972235,
				"y": -1.0345121231,
				"z": 3.2169554633,
				"element": "H" 
			},
			{
				"x": 0.2762335644,
				"y": -0.9559910671,
				"z": 1.2131695072,
				"element": "H" 
			},
			{
				"x": 0.5514927923,
				"y": 1.2147885262,
				"z": -3.8703753926,
				"element": "H" 
			},
			{
				"x": 2.956051341,
				"y": 0.4674015587,
				"z": -3.9096092482,
				"element": "H" 
			},
			{
				"x": 2.5480858512,
				"y": -1.1556299726,
				"z": 0.0352900593,
				"element": "H" 
			}
		],
		 "valence_orbital": [ 
			{
				"type": "occ",
				"energy": -0.32608,
				"method": "rhf"
			},
			{
				"type": "occ",
				"energy": -0.29855,
				"method": "rhf"
			},
			{
				"type": "occ",
				"energy": -0.27567,
				"method": "rhf"
			},
			{
				"type": "occ",
				"energy": -0.26931,
				"method": "rhf"
			},
			{
				"type": "occ",
				"energy": -0.24841,
				"method": "rhf"
			},
			{
				"type": "unocc",
				"energy": -0.0991,
				"method": "rhf"
			},
			{
				"type": "unocc",
				"energy": -0.02653,
				"method": "rhf"
			},
			{
				"type": "unocc",
				"energy": -0.01491,
				"method": "rhf"
			},
			{
				"type": "unocc",
				"energy": 0.00846,
				"method": "rhf"
			},
			{
				"type": "unocc",
				"energy": 0.06954,
				"method": "rhf"
			}
		],
		"cosmo_sigma_profile": { 
			"-0.025": 0.0,
			"-0.024": 0.0,
			"-0.023": 0.0,
			"-0.022": 0.0,
			"-0.021": 0.0,
			"-0.02": 0.0,
			"-0.019": 0.213508050664,
			"-0.018": 1.10294429076,
			"-0.017": 0.571322028562,
			"-0.016": 0.778092745874,
			"-0.015": 0.761654907532,
			"-0.014": 0.339261824413,
			"-0.013": 0.592432660632,
			"-0.012": 1.11696873698,
			"-0.011": 1.34974059807,
			"-0.01": 2.47504756789,
			"-0.009": 4.86245500289,
			"-0.008": 6.97798139612,
			"-0.007": 8.38650644361,
			"-0.006": 9.17826507075,
			"-0.005": 8.1438371599,
			"-0.004": 11.6473839671,
			"-0.003": 14.1619694515,
			"-0.002": 17.8765220982,
			"-0.001": 19.7054960891,
			"0.0": 19.4928853398,
			"0.001": 13.3104077719,
			"0.002": 7.33348681634,
			"0.003": 7.91484490859,
			"0.004": 12.076974422,
			"0.005": 5.28849660826,
			"0.006": 4.08743726026,
			"0.007": 2.72305503373,
			"0.008": 3.65140580062,
			"0.009": 3.71714327561,
			"0.01": 4.78833022404,
			"0.011": 9.23950939562,
			"0.012": 5.42172336067,
			"0.013": 1.7107152298,
			"0.014": 1.87741660023,
			"0.015": 0.936980330089,
			"0.016": 0.706563142948,
			"0.017": 0.0,
			"0.018": 0.0,
			"0.019": 0.0,
			"0.02": 0.0,
			"0.021": 0.0,
			"0.022": 0.0,
			"0.023": 0.0,
			"0.024": 0.0,
			"0.025": 0.0
		}
	}
}
