{
	 "smiles": "CCC1=C(Br)C(Br)=C(Br)C(Br)=C1Br", 
	 "Tm": 411.15, 
	 "num_atms": 18, 
	 "gaussian": { 
		 "optdone": 1, 
		 "sigma_profile": "yes", 
		 "theory": "DFT", 
		 "functional": "B3LYP", 
		 "basiset": "6-31G**", 
		 "properties": { 
			 "R2extent": 9120.6669, 
			 "electric_dipole_moment_norm": 1.4575900967, 
			 "electric_quadrupole_moment_norm": 3.57174322425, 
			 "total_energy": -13164.8661273, 
			 "HOMO_LUMO_gap": 0.18325, 
			 "cosmo_polarized_energy": -3.31, 
			 "cosmo_cavitation_energy": 31.73, 
			 "cosmo_dispersion_energy": -25.01, 
			 "cosmo_repulsion_energy": 1.94, 
			 "cosmo_total_nonelectrostatic_energy": 8.66, 
			 "SMD_solvation_energy": 0.62 
		},
		"coords": [
			{
				"x": 1.9901669116,
				"y": -0.3506107738,
				"z": 2.1066327926,
				"element": "C" 
			},
			{
				"x": 0.8058999289,
				"y": 0.6282409769,
				"z": 2.011697853,
				"element": "C" 
			},
			{
				"x": -0.0304776531,
				"y": 0.4209963767,
				"z": 0.7653784678,
				"element": "C" 
			},
			{
				"x": 0.2618008362,
				"y": 1.0925551927,
				"z": -0.4352377186,
				"element": "C" 
			},
			{
				"x": 1.7605237236,
				"y": 2.2742409267,
				"z": -0.4850080686,
				"element": "Br" 
			},
			{
				"x": -0.5062439595,
				"y": 0.912811263,
				"z": -1.5954751671,
				"element": "C" 
			},
			{
				"x": -0.0792425966,
				"y": 1.8511342302,
				"z": -3.1856216143,
				"element": "Br" 
			},
			{
				"x": -1.5990365584,
				"y": 0.031697036,
				"z": -1.5725175246,
				"element": "C" 
			},
			{
				"x": -2.6527007157,
				"y": -0.2182444793,
				"z": -3.1277438998,
				"element": "Br" 
			},
			{
				"x": -1.9060115185,
				"y": -0.6659102969,
				"z": -0.3934571193,
				"element": "C" 
			},
			{
				"x": -3.3731050562,
				"y": -1.8649634625,
				"z": -0.3567618224,
				"element": "Br" 
			},
			{
				"x": -1.1210978149,
				"y": -0.4668593087,
				"z": 0.7522423765,
				"element": "C" 
			},
			{
				"x": -1.5326449997,
				"y": -1.4391678336,
				"z": 2.3428503555,
				"element": "Br" 
			},
			{
				"x": 2.560988704,
				"y": -0.1607048764,
				"z": 3.0208171972,
				"element": "H" 
			},
			{
				"x": 2.6656747135,
				"y": -0.2343125057,
				"z": 1.2545026055,
				"element": "H" 
			},
			{
				"x": 1.6424392415,
				"y": -1.3871225398,
				"z": 2.1329341356,
				"element": "H" 
			},
			{
				"x": 1.1792507491,
				"y": 1.6537991031,
				"z": 2.0187354027,
				"element": "H" 
			},
			{
				"x": 0.166116064,
				"y": 0.5124209714,
				"z": 2.8883317483,
				"element": "H" 
			}
		],
		 "valence_orbital": [ 
			{
				"type": "occ",
				"energy": -0.29797,
				"method": "rhf"
			},
			{
				"type": "occ",
				"energy": -0.28724,
				"method": "rhf"
			},
			{
				"type": "occ",
				"energy": -0.26285,
				"method": "rhf"
			},
			{
				"type": "occ",
				"energy": -0.25435,
				"method": "rhf"
			},
			{
				"type": "occ",
				"energy": -0.25136,
				"method": "rhf"
			},
			{
				"type": "unocc",
				"energy": -0.06811,
				"method": "rhf"
			},
			{
				"type": "unocc",
				"energy": -0.04918,
				"method": "rhf"
			},
			{
				"type": "unocc",
				"energy": -0.0472,
				"method": "rhf"
			},
			{
				"type": "unocc",
				"energy": -0.01544,
				"method": "rhf"
			},
			{
				"type": "unocc",
				"energy": 0.0018,
				"method": "rhf"
			}
		],
		"cosmo_sigma_profile": { 
			"-0.025": 0.0,
			"-0.024": 0.0,
			"-0.023": 0.0,
			"-0.022": 0.0,
			"-0.021": 0.0,
			"-0.02": 0.0,
			"-0.019": 0.0,
			"-0.018": 0.0,
			"-0.017": 0.0,
			"-0.016": 0.0,
			"-0.015": 0.0,
			"-0.014": 0.0,
			"-0.013": 0.0,
			"-0.012": 0.0,
			"-0.011": 0.0,
			"-0.01": 0.0,
			"-0.009": 0.0,
			"-0.008": 0.0,
			"-0.007": 0.317092768121,
			"-0.006": 4.25215313709,
			"-0.005": 6.89149099191,
			"-0.004": 10.9415716253,
			"-0.003": 20.8365846116,
			"-0.002": 36.134085155,
			"-0.001": 43.0112567599,
			"0.0": 32.3669073328,
			"0.001": 27.8599359146,
			"0.002": 25.1937605538,
			"0.003": 36.6053404001,
			"0.004": 23.4611584086,
			"0.005": 1.3326883861,
			"0.006": 0.0,
			"0.007": 0.0,
			"0.008": 0.0,
			"0.009": 0.0,
			"0.01": 0.0,
			"0.011": 0.0,
			"0.012": 0.0,
			"0.013": 0.0,
			"0.014": 0.0,
			"0.015": 0.0,
			"0.016": 0.0,
			"0.017": 0.0,
			"0.018": 0.0,
			"0.019": 0.0,
			"0.02": 0.0,
			"0.021": 0.0,
			"0.022": 0.0,
			"0.023": 0.0,
			"0.024": 0.0,
			"0.025": 0.0
		}
	}
}
