{
	 "smiles": "CCOC(=O)C1N=C(C2=C(F)C=CC=C2)C2=C(NC1=O)C=CC(Cl)=C2", 
	 "Tm": 467.15, 
	 "num_atms": 39, 
	 "gaussian": { 
		 "optdone": 1, 
		 "sigma_profile": "yes", 
		 "theory": "DFT", 
		 "functional": "B3LYP", 
		 "basiset": "6-31G**", 
		 "properties": { 
			 "R2extent": 9110.5259, 
			 "electric_dipole_moment_norm": 3.31056001456, 
			 "electric_quadrupole_moment_norm": 32.1233333291, 
			 "total_energy": -1589.56193317, 
			 "HOMO_LUMO_gap": 0.17373, 
			 "cosmo_polarized_energy": -20.81, 
			 "cosmo_cavitation_energy": 46.1, 
			 "cosmo_dispersion_energy": -30.55, 
			 "cosmo_repulsion_energy": 2.37, 
			 "cosmo_total_nonelectrostatic_energy": 17.92, 
			 "SMD_solvation_energy": 7.15 
		},
		"coords": [
			{
				"x": 2.2765708903,
				"y": 2.5609608659,
				"z": -4.1215141932,
				"element": "C" 
			},
			{
				"x": 1.2991083092,
				"y": 2.4236463254,
				"z": -2.9707480859,
				"element": "C" 
			},
			{
				"x": 1.9695442493,
				"y": 1.6851846991,
				"z": -1.9171786022,
				"element": "O" 
			},
			{
				"x": 1.2517369848,
				"y": 1.4685138515,
				"z": -0.7998705227,
				"element": "C" 
			},
			{
				"x": 0.1114070503,
				"y": 1.8306533256,
				"z": -0.6343803889,
				"element": "O" 
			},
			{
				"x": 2.1297800646,
				"y": 0.7571782575,
				"z": 0.2531821692,
				"element": "C" 
			},
			{
				"x": 1.423876867,
				"y": 0.37937286,
				"z": 1.4580839038,
				"element": "N" 
			},
			{
				"x": 0.4289132827,
				"y": -0.431447615,
				"z": 1.4121711598,
				"element": "C" 
			},
			{
				"x": -0.2628488141,
				"y": -0.7128192181,
				"z": 2.7078953228,
				"element": "C" 
			},
			{
				"x": -0.5608739625,
				"y": 0.308615479,
				"z": 3.6228318425,
				"element": "C" 
			},
			{
				"x": -0.2994537802,
				"y": 1.5880153354,
				"z": 3.3144227177,
				"element": "F" 
			},
			{
				"x": -1.16122048,
				"y": 0.049918208,
				"z": 4.850674944,
				"element": "C" 
			},
			{
				"x": -1.4714879082,
				"y": -1.2640821725,
				"z": 5.1976497953,
				"element": "C" 
			},
			{
				"x": -1.1904189889,
				"y": -2.3055564264,
				"z": 4.3108337668,
				"element": "C" 
			},
			{
				"x": -0.6016877412,
				"y": -2.0249683241,
				"z": 3.0797400768,
				"element": "C" 
			},
			{
				"x": -0.07574361,
				"y": -1.1481836989,
				"z": 0.2059066569,
				"element": "C" 
			},
			{
				"x": 0.7939307003,
				"y": -1.6647281444,
				"z": -0.7810791522,
				"element": "C" 
			},
			{
				"x": 2.1887512154,
				"y": -1.5259652039,
				"z": -0.7046219829,
				"element": "N" 
			},
			{
				"x": 2.9313029524,
				"y": -0.4137923843,
				"z": -0.3389817164,
				"element": "C" 
			},
			{
				"x": 4.1402090256,
				"y": -0.4001265634,
				"z": -0.4576888997,
				"element": "O" 
			},
			{
				"x": 0.2641005874,
				"y": -2.400835596,
				"z": -1.8545935258,
				"element": "C" 
			},
			{
				"x": -1.1017071859,
				"y": -2.6095655337,
				"z": -1.9807258679,
				"element": "C" 
			},
			{
				"x": -1.9610526829,
				"y": -2.0655665479,
				"z": -1.0227730407,
				"element": "C" 
			},
			{
				"x": -3.6939069178,
				"y": -2.2957160011,
				"z": -1.184922485,
				"element": "Cl" 
			},
			{
				"x": -1.4585666803,
				"y": -1.3555793679,
				"z": 0.0576847355,
				"element": "C" 
			},
			{
				"x": 2.5784642774,
				"y": 1.5797484691,
				"z": -4.4985985934,
				"element": "H" 
			},
			{
				"x": 1.8073615963,
				"y": 3.1156464784,
				"z": -4.9400137609,
				"element": "H" 
			},
			{
				"x": 3.1749679294,
				"y": 3.1004307367,
				"z": -3.8092178065,
				"element": "H" 
			},
			{
				"x": 0.3939170819,
				"y": 1.8793233372,
				"z": -3.2568185095,
				"element": "H" 
			},
			{
				"x": 0.9895647075,
				"y": 3.394512636,
				"z": -2.5720486702,
				"element": "H" 
			},
			{
				"x": 2.9003969423,
				"y": 1.4851059846,
				"z": 0.5268248665,
				"element": "H" 
			},
			{
				"x": -1.376577183,
				"y": 0.8835060691,
				"z": 5.5103186583,
				"element": "H" 
			},
			{
				"x": -1.9353786906,
				"y": -1.4707085255,
				"z": 6.1574166922,
				"element": "H" 
			},
			{
				"x": -1.4284851434,
				"y": -3.3307284388,
				"z": 4.5758557086,
				"element": "H" 
			},
			{
				"x": -0.3828543986,
				"y": -2.8346345727,
				"z": 2.3907142456,
				"element": "H" 
			},
			{
				"x": 2.7479265161,
				"y": -2.2179048938,
				"z": -1.1889541693,
				"element": "H" 
			},
			{
				"x": 0.9409161118,
				"y": -2.8047657382,
				"z": -2.6023862684,
				"element": "H" 
			},
			{
				"x": -1.4995507146,
				"y": -3.1758770852,
				"z": -2.8152566982,
				"element": "H" 
			},
			{
				"x": -2.1361324599,
				"y": -0.9541808668,
				"z": 0.8012656776,
				"element": "H" 
			}
		],
		 "valence_orbital": [ 
			{
				"type": "occ",
				"energy": -0.26827,
				"method": "rhf"
			},
			{
				"type": "occ",
				"energy": -0.2545,
				"method": "rhf"
			},
			{
				"type": "occ",
				"energy": -0.25211,
				"method": "rhf"
			},
			{
				"type": "occ",
				"energy": -0.24428,
				"method": "rhf"
			},
			{
				"type": "occ",
				"energy": -0.23577,
				"method": "rhf"
			},
			{
				"type": "unocc",
				"energy": -0.06204,
				"method": "rhf"
			},
			{
				"type": "unocc",
				"energy": -0.0345,
				"method": "rhf"
			},
			{
				"type": "unocc",
				"energy": -0.02806,
				"method": "rhf"
			},
			{
				"type": "unocc",
				"energy": -0.00433,
				"method": "rhf"
			},
			{
				"type": "unocc",
				"energy": -0.00267,
				"method": "rhf"
			}
		],
		"cosmo_sigma_profile": { 
			"-0.025": 0.0,
			"-0.024": 0.0,
			"-0.023": 0.0,
			"-0.022": 0.0,
			"-0.021": 0.0,
			"-0.02": 0.0,
			"-0.019": 0.0,
			"-0.018": 0.0,
			"-0.017": 0.0,
			"-0.016": 0.404319136751,
			"-0.015": 1.53078808339,
			"-0.014": 1.27562902582,
			"-0.013": 1.01336865441,
			"-0.012": 1.34173948037,
			"-0.011": 1.24986224938,
			"-0.01": 1.50892242442,
			"-0.009": 1.84790267053,
			"-0.008": 6.53241824938,
			"-0.007": 11.8011552225,
			"-0.006": 17.3766465471,
			"-0.005": 23.2300938607,
			"-0.004": 29.5392242206,
			"-0.003": 24.6130114973,
			"-0.002": 25.2758910624,
			"-0.001": 27.9047244533,
			"0.0": 31.5382523462,
			"0.001": 29.1900808006,
			"0.002": 26.0195172227,
			"0.003": 22.7065597227,
			"0.004": 25.5837257427,
			"0.005": 11.6845545425,
			"0.006": 6.78150127369,
			"0.007": 6.91252186459,
			"0.008": 5.6503953672,
			"0.009": 5.77356750542,
			"0.01": 5.59905231313,
			"0.011": 7.78098046652,
			"0.012": 6.37634593031,
			"0.013": 2.01874649771,
			"0.014": 0.558174329627,
			"0.015": 0.0,
			"0.016": 0.0,
			"0.017": 0.0,
			"0.018": 0.0,
			"0.019": 0.0,
			"0.02": 0.0,
			"0.021": 0.0,
			"0.022": 0.0,
			"0.023": 0.0,
			"0.024": 0.0,
			"0.025": 0.0
		}
	}
}
