{
	 "smiles": "CC1=NN(CC(O)=O)C(C)=C1C=NO", 
	 "Tm": 477.15, 
	 "num_atms": 25, 
	 "gaussian": { 
		 "optdone": 1, 
		 "sigma_profile": "yes", 
		 "theory": "DFT", 
		 "functional": "B3LYP", 
		 "basiset": "6-31G**", 
		 "properties": { 
			 "R2extent": 3867.3375, 
			 "electric_dipole_moment_norm": 1.88867805885, 
			 "electric_quadrupole_moment_norm": 11.3609122429, 
			 "total_energy": -701.346300828, 
			 "HOMO_LUMO_gap": 0.20371, 
			 "cosmo_polarized_energy": -17.77, 
			 "cosmo_cavitation_energy": 29.64, 
			 "cosmo_dispersion_energy": -20.89, 
			 "cosmo_repulsion_energy": 1.69, 
			 "cosmo_total_nonelectrostatic_energy": 10.43, 
			 "SMD_solvation_energy": 5.57 
		},
		"coords": [
			{
				"x": 3.0709126814,
				"y": -2.0072179358,
				"z": -1.7345664055,
				"element": "C" 
			},
			{
				"x": 2.4685310522,
				"y": -0.7803213984,
				"z": -1.120910392,
				"element": "C" 
			},
			{
				"x": 2.5271989712,
				"y": 0.3810283792,
				"z": -1.7543373342,
				"element": "N" 
			},
			{
				"x": 1.9034618535,
				"y": 1.2632235045,
				"z": -0.9241777938,
				"element": "N" 
			},
			{
				"x": 1.7939505232,
				"y": 2.6371289516,
				"z": -1.3501988433,
				"element": "C" 
			},
			{
				"x": 0.5170302251,
				"y": 3.0157476783,
				"z": -2.0977855715,
				"element": "C" 
			},
			{
				"x": -0.4699993353,
				"y": 2.1097462429,
				"z": -1.9619600652,
				"element": "O" 
			},
			{
				"x": 0.4053946718,
				"y": 4.048153962,
				"z": -2.7172361934,
				"element": "O" 
			},
			{
				"x": 1.4265316501,
				"y": 0.6877730112,
				"z": 0.2164907337,
				"element": "C" 
			},
			{
				"x": 0.7695084362,
				"y": 1.5083859595,
				"z": 1.2801743369,
				"element": "C" 
			},
			{
				"x": 1.7747737412,
				"y": -0.6639784868,
				"z": 0.1274285909,
				"element": "C" 
			},
			{
				"x": 1.6050771984,
				"y": -1.8015314408,
				"z": 1.0244984726,
				"element": "C" 
			},
			{
				"x": 0.7111344822,
				"y": -2.1259864324,
				"z": 1.8889599247,
				"element": "N" 
			},
			{
				"x": -0.3269268188,
				"y": -1.1797164802,
				"z": 1.9941487573,
				"element": "O" 
			},
			{
				"x": 2.3171126069,
				"y": -2.7826342442,
				"z": -1.9090577371,
				"element": "H" 
			},
			{
				"x": 3.5286204792,
				"y": -1.7481060405,
				"z": -2.6914651698,
				"element": "H" 
			},
			{
				"x": 3.8447821511,
				"y": -2.4433198341,
				"z": -1.0917308914,
				"element": "H" 
			},
			{
				"x": 1.8741752051,
				"y": 3.3079890378,
				"z": -0.4888211529,
				"element": "H" 
			},
			{
				"x": 2.6319254889,
				"y": 2.8503705804,
				"z": -2.015277079,
				"element": "H" 
			},
			{
				"x": -1.228334348,
				"y": 2.4536643568,
				"z": -2.464178796,
				"element": "H" 
			},
			{
				"x": 0.3839247824,
				"y": 0.8594304544,
				"z": 2.0626318308,
				"element": "H" 
			},
			{
				"x": -0.0694526457,
				"y": 2.0810872875,
				"z": 0.8697068245,
				"element": "H" 
			},
			{
				"x": 1.4766467821,
				"y": 2.2193490589,
				"z": 1.7261658912,
				"element": "H" 
			},
			{
				"x": 2.364456768,
				"y": -2.5789018203,
				"z": 0.9368772742,
				"element": "H" 
			},
			{
				"x": -0.9060366024,
				"y": -1.5937643518,
				"z": 2.6474207884,
				"element": "H" 
			}
		],
		 "valence_orbital": [ 
			{
				"type": "occ",
				"energy": -0.29162,
				"method": "rhf"
			},
			{
				"type": "occ",
				"energy": -0.28051,
				"method": "rhf"
			},
			{
				"type": "occ",
				"energy": -0.26746,
				"method": "rhf"
			},
			{
				"type": "occ",
				"energy": -0.24144,
				"method": "rhf"
			},
			{
				"type": "occ",
				"energy": -0.2208,
				"method": "rhf"
			},
			{
				"type": "unocc",
				"energy": -0.01709,
				"method": "rhf"
			},
			{
				"type": "unocc",
				"energy": -0.00384,
				"method": "rhf"
			},
			{
				"type": "unocc",
				"energy": 0.02258,
				"method": "rhf"
			},
			{
				"type": "unocc",
				"energy": 0.06227,
				"method": "rhf"
			},
			{
				"type": "unocc",
				"energy": 0.07229,
				"method": "rhf"
			}
		],
		"cosmo_sigma_profile": { 
			"-0.025": 0.0,
			"-0.024": 0.0,
			"-0.023": 0.0,
			"-0.022": 0.0,
			"-0.021": 0.0,
			"-0.02": 0.0,
			"-0.019": 0.522099755231,
			"-0.018": 0.935611181651,
			"-0.017": 1.94743149634,
			"-0.016": 1.82138246612,
			"-0.015": 1.98833234996,
			"-0.014": 0.893895919356,
			"-0.013": 0.767079271059,
			"-0.012": 2.12501862104,
			"-0.011": 1.49432641326,
			"-0.01": 1.2106387056,
			"-0.009": 4.58879518587,
			"-0.008": 6.44662942246,
			"-0.007": 7.68782177176,
			"-0.006": 9.0001245394,
			"-0.005": 13.0592156969,
			"-0.004": 13.6264799846,
			"-0.003": 14.7768988509,
			"-0.002": 14.8922137456,
			"-0.001": 17.9299867753,
			"0.0": 15.8094948299,
			"0.001": 11.7073789538,
			"0.002": 9.62935926941,
			"0.003": 12.1580965783,
			"0.004": 9.62578065772,
			"0.005": 10.2881025566,
			"0.006": 8.80748700943,
			"0.007": 7.70260393037,
			"0.008": 5.61270510704,
			"0.009": 5.43013047011,
			"0.01": 6.13577437417,
			"0.011": 7.94932043976,
			"0.012": 3.96741559803,
			"0.013": 1.92109991798,
			"0.014": 1.08160949198,
			"0.015": 0.786789790341,
			"0.016": 0.0218492555623,
			"0.017": 0.0,
			"0.018": 0.0,
			"0.019": 0.0,
			"0.02": 0.0,
			"0.021": 0.0,
			"0.022": 0.0,
			"0.023": 0.0,
			"0.024": 0.0,
			"0.025": 0.0
		}
	}
}
