{
	 "smiles": "CCOC(=O)C(C#N)=C1SC(S1)=C(C#N)C(=O)OCC", 
	 "Tm": 433.15, 
	 "num_atms": 30, 
	 "gaussian": { 
		 "optdone": 1, 
		 "sigma_profile": "yes", 
		 "theory": "DFT", 
		 "functional": "B3LYP", 
		 "basiset": "6-31G**", 
		 "properties": { 
			 "R2extent": 9230.917, 
			 "electric_dipole_moment_norm": 0.338863231998, 
			 "electric_quadrupole_moment_norm": 57.4543646345, 
			 "total_energy": -1670.01156336, 
			 "HOMO_LUMO_gap": 0.14745, 
			 "cosmo_polarized_energy": -18.99, 
			 "cosmo_cavitation_energy": 41.77, 
			 "cosmo_dispersion_energy": -28.18, 
			 "cosmo_repulsion_energy": 2.15, 
			 "cosmo_total_nonelectrostatic_energy": 15.74, 
			 "SMD_solvation_energy": 11.67 
		},
		"coords": [
			{
				"x": 2.0054808028,
				"y": 5.0176556652,
				"z": -3.5386696147,
				"element": "C" 
			},
			{
				"x": 0.5062467346,
				"y": 4.9114442378,
				"z": -3.3468455083,
				"element": "C" 
			},
			{
				"x": 0.2374210379,
				"y": 3.671511538,
				"z": -2.6337445056,
				"element": "O" 
			},
			{
				"x": -1.0605784747,
				"y": 3.4088945706,
				"z": -2.3739067424,
				"element": "C" 
			},
			{
				"x": -1.9872595573,
				"y": 4.1207512389,
				"z": -2.6884317376,
				"element": "O" 
			},
			{
				"x": -1.2112654724,
				"y": 2.1187048601,
				"z": -1.6431694804,
				"element": "C" 
			},
			{
				"x": -2.5353603291,
				"y": 1.7095725078,
				"z": -1.2987032692,
				"element": "C" 
			},
			{
				"x": -3.590318637,
				"y": 1.3260235267,
				"z": -0.9918904659,
				"element": "N" 
			},
			{
				"x": -0.1730297804,
				"y": 1.3202088003,
				"z": -1.2905519608,
				"element": "C" 
			},
			{
				"x": -0.1947357778,
				"y": -0.2315210971,
				"z": -0.4256784853,
				"element": "S" 
			},
			{
				"x": 1.5490846267,
				"y": -0.0673934577,
				"z": -0.6700389615,
				"element": "C" 
			},
			{
				"x": 1.5715897487,
				"y": 1.4835669185,
				"z": -1.5347422562,
				"element": "S" 
			},
			{
				"x": 2.5867477657,
				"y": -0.8664308321,
				"z": -0.3158189462,
				"element": "C" 
			},
			{
				"x": 3.9120608753,
				"y": -0.4592728034,
				"z": -0.6571466506,
				"element": "C" 
			},
			{
				"x": 4.9683275797,
				"y": -0.0769105064,
				"z": -0.9609990867,
				"element": "N" 
			},
			{
				"x": 2.4296254184,
				"y": -2.1549749622,
				"z": 0.4157060137,
				"element": "C" 
			},
			{
				"x": 3.3540049403,
				"y": -2.869062095,
				"z": 0.7328001678,
				"element": "O" 
			},
			{
				"x": 1.1267661111,
				"y": -2.4093375607,
				"z": 0.665144004,
				"element": "O" 
			},
			{
				"x": 0.8227237225,
				"y": -3.6396138422,
				"z": 1.3841706982,
				"element": "C" 
			},
			{
				"x": 0.927158526,
				"y": -3.4381644959,
				"z": 2.8864639373,
				"element": "C" 
			},
			{
				"x": 2.5259821424,
				"y": 5.0381230867,
				"z": -2.5771238437,
				"element": "H" 
			},
			{
				"x": 2.2385906158,
				"y": 5.9433665824,
				"z": -4.073462826,
				"element": "H" 
			},
			{
				"x": 2.3888522269,
				"y": 4.1782287857,
				"z": -4.1254304519,
				"element": "H" 
			},
			{
				"x": -0.0344387628,
				"y": 4.8821177425,
				"z": -4.2970261314,
				"element": "H" 
			},
			{
				"x": 0.1021045183,
				"y": 5.7385059627,
				"z": -2.7563299271,
				"element": "H" 
			},
			{
				"x": -0.1957574579,
				"y": -3.881125872,
				"z": 1.0745863675,
				"element": "H" 
			},
			{
				"x": 1.5062721968,
				"y": -4.4156408936,
				"z": 1.0338876188,
				"element": "H" 
			},
			{
				"x": 0.6263108679,
				"y": -4.3576759598,
				"z": 3.3989654016,
				"element": "H" 
			},
			{
				"x": 1.9549908267,
				"y": -3.2068235881,
				"z": 3.1759735523,
				"element": "H" 
			},
			{
				"x": 0.2706029649,
				"y": -2.6296280579,
				"z": 3.22021309,
				"element": "H" 
			}
		],
		 "valence_orbital": [ 
			{
				"type": "occ",
				"energy": -0.31829,
				"method": "rhf"
			},
			{
				"type": "occ",
				"energy": -0.30725,
				"method": "rhf"
			},
			{
				"type": "occ",
				"energy": -0.30573,
				"method": "rhf"
			},
			{
				"type": "occ",
				"energy": -0.30407,
				"method": "rhf"
			},
			{
				"type": "occ",
				"energy": -0.26078,
				"method": "rhf"
			},
			{
				"type": "unocc",
				"energy": -0.11333,
				"method": "rhf"
			},
			{
				"type": "unocc",
				"energy": -0.07941,
				"method": "rhf"
			},
			{
				"type": "unocc",
				"energy": -0.07071,
				"method": "rhf"
			},
			{
				"type": "unocc",
				"energy": -0.0152,
				"method": "rhf"
			},
			{
				"type": "unocc",
				"energy": 0.00135,
				"method": "rhf"
			}
		],
		"cosmo_sigma_profile": { 
			"-0.025": 0.0,
			"-0.024": 0.0,
			"-0.023": 0.0,
			"-0.022": 0.0,
			"-0.021": 0.0,
			"-0.02": 0.0,
			"-0.019": 0.0,
			"-0.018": 0.0,
			"-0.017": 0.0,
			"-0.016": 0.0,
			"-0.015": 0.0,
			"-0.014": 0.0,
			"-0.013": 0.0,
			"-0.012": 0.0,
			"-0.011": 0.0,
			"-0.01": 0.0,
			"-0.009": 0.0,
			"-0.008": 0.0,
			"-0.007": 2.38363783727,
			"-0.006": 16.1642096567,
			"-0.005": 37.2616485001,
			"-0.004": 46.8665187537,
			"-0.003": 36.0229036219,
			"-0.002": 30.0767336343,
			"-0.001": 33.2683177633,
			"0.0": 27.6006097744,
			"0.001": 15.8557498241,
			"0.002": 6.66327369683,
			"0.003": 7.18811931661,
			"0.004": 6.88378871916,
			"0.005": 10.1306736479,
			"0.006": 9.18425330858,
			"0.007": 8.66937700984,
			"0.008": 10.0942246124,
			"0.009": 9.90226431833,
			"0.01": 12.8466059769,
			"0.011": 10.2548256315,
			"0.012": 2.63811057805,
			"0.013": 0.00598206121204,
			"0.014": 0.0,
			"0.015": 0.0,
			"0.016": 0.0,
			"0.017": 0.0,
			"0.018": 0.0,
			"0.019": 0.0,
			"0.02": 0.0,
			"0.021": 0.0,
			"0.022": 0.0,
			"0.023": 0.0,
			"0.024": 0.0,
			"0.025": 0.0
		}
	}
}
