{
	 "smiles": "CC(C)(C)NS(=O)(=O)C1=C(Cl)C=CC(=C1)C(O)=O", 
	 "Tm": 486.15, 
	 "num_atms": 32, 
	 "gaussian": { 
		 "optdone": 1, 
		 "sigma_profile": "yes", 
		 "theory": "DFT", 
		 "functional": "B3LYP", 
		 "basiset": "6-31G**", 
		 "properties": { 
			 "R2extent": 6421.0846, 
			 "electric_dipole_moment_norm": 4.31883153874, 
			 "electric_quadrupole_moment_norm": 18.1657865712, 
			 "total_energy": -1641.58668232, 
			 "HOMO_LUMO_gap": 0.19579, 
			 "cosmo_polarized_energy": -18.7, 
			 "cosmo_cavitation_energy": 38.02, 
			 "cosmo_dispersion_energy": -26.37, 
			 "cosmo_repulsion_energy": 1.98, 
			 "cosmo_total_nonelectrostatic_energy": 13.62, 
			 "SMD_solvation_energy": 7.06 
		},
		"coords": [
			{
				"x": 0.4214901511,
				"y": 1.743976194,
				"z": 1.520758412,
				"element": "C" 
			},
			{
				"x": 0.8018882687,
				"y": 2.3781095554,
				"z": 0.1744512457,
				"element": "C" 
			},
			{
				"x": 1.9842828168,
				"y": 3.3510914295,
				"z": 0.3384073788,
				"element": "C" 
			},
			{
				"x": -0.4131742909,
				"y": 3.1208792762,
				"z": -0.4083963384,
				"element": "C" 
			},
			{
				"x": 1.1052515243,
				"y": 1.3075897352,
				"z": -0.8333423717,
				"element": "N" 
			},
			{
				"x": 2.3095208774,
				"y": 0.1483082794,
				"z": -0.6684721351,
				"element": "S" 
			},
			{
				"x": 2.9376609393,
				"y": 0.0363449765,
				"z": -1.9881467501,
				"element": "O" 
			},
			{
				"x": 3.1040675059,
				"y": 0.3978217391,
				"z": 0.5369648107,
				"element": "O" 
			},
			{
				"x": 1.3735535578,
				"y": -1.380803335,
				"z": -0.3835521654,
				"element": "C" 
			},
			{
				"x": 2.0380150334,
				"y": -2.5923913794,
				"z": -0.1213420351,
				"element": "C" 
			},
			{
				"x": 3.7756504128,
				"y": -2.7026368542,
				"z": -0.0477789141,
				"element": "Cl" 
			},
			{
				"x": 1.3051221397,
				"y": -3.7656193909,
				"z": 0.0807757939,
				"element": "C" 
			},
			{
				"x": -0.0824919506,
				"y": -3.7428488002,
				"z": 0.0163436922,
				"element": "C" 
			},
			{
				"x": -0.7518995317,
				"y": -2.5456481902,
				"z": -0.2578670029,
				"element": "C" 
			},
			{
				"x": -0.0183430293,
				"y": -1.3720025785,
				"z": -0.4615476254,
				"element": "C" 
			},
			{
				"x": -2.2373838258,
				"y": -2.5681626156,
				"z": -0.3230448993,
				"element": "C" 
			},
			{
				"x": -2.7754055659,
				"y": -1.3502842152,
				"z": -0.5783654464,
				"element": "O" 
			},
			{
				"x": -2.9186873747,
				"y": -3.5608222698,
				"z": -0.1650483376,
				"element": "O" 
			},
			{
				"x": -0.4248144676,
				"y": 1.0597675956,
				"z": 1.4075616663,
				"element": "H" 
			},
			{
				"x": 1.2610274839,
				"y": 1.2006629874,
				"z": 1.9579472942,
				"element": "H" 
			},
			{
				"x": 0.1269073767,
				"y": 2.5331251197,
				"z": 2.2191161799,
				"element": "H" 
			},
			{
				"x": 2.860510374,
				"y": 2.8349062178,
				"z": 0.7340323349,
				"element": "H" 
			},
			{
				"x": 1.7147640823,
				"y": 4.1609619885,
				"z": 1.0245590529,
				"element": "H" 
			},
			{
				"x": 2.251380109,
				"y": 3.8019383841,
				"z": -0.6239277496,
				"element": "H" 
			},
			{
				"x": -0.1777868277,
				"y": 3.5675654298,
				"z": -1.3815661139,
				"element": "H" 
			},
			{
				"x": -1.2648436701,
				"y": 2.4461201163,
				"z": -0.5353029374,
				"element": "H" 
			},
			{
				"x": -0.7099294802,
				"y": 3.9317998142,
				"z": 0.26334124,
				"element": "H" 
			},
			{
				"x": 1.1811880339,
				"y": 1.6644389173,
				"z": -1.7826676523,
				"element": "H" 
			},
			{
				"x": 1.8360119158,
				"y": -4.6884663032,
				"z": 0.2850717254,
				"element": "H" 
			},
			{
				"x": -0.6629349986,
				"y": -4.6455522191,
				"z": 0.1726256645,
				"element": "H" 
			},
			{
				"x": -0.5238243397,
				"y": -0.442494721,
				"z": -0.6849400153,
				"element": "H" 
			},
			{
				"x": -3.7372732501,
				"y": -1.4838748838,
				"z": -0.6015480014,
				"element": "H" 
			}
		],
		 "valence_orbital": [ 
			{
				"type": "occ",
				"energy": -0.3082,
				"method": "rhf"
			},
			{
				"type": "occ",
				"energy": -0.29167,
				"method": "rhf"
			},
			{
				"type": "occ",
				"energy": -0.28237,
				"method": "rhf"
			},
			{
				"type": "occ",
				"energy": -0.27425,
				"method": "rhf"
			},
			{
				"type": "occ",
				"energy": -0.26724,
				"method": "rhf"
			},
			{
				"type": "unocc",
				"energy": -0.07145,
				"method": "rhf"
			},
			{
				"type": "unocc",
				"energy": -0.04299,
				"method": "rhf"
			},
			{
				"type": "unocc",
				"energy": 0.01086,
				"method": "rhf"
			},
			{
				"type": "unocc",
				"energy": 0.02625,
				"method": "rhf"
			},
			{
				"type": "unocc",
				"energy": 0.05386,
				"method": "rhf"
			}
		],
		"cosmo_sigma_profile": { 
			"-0.025": 0.0,
			"-0.024": 0.0,
			"-0.023": 0.0,
			"-0.022": 0.0,
			"-0.021": 0.0,
			"-0.02": 0.0,
			"-0.019": 0.272435039295,
			"-0.018": 1.22069429611,
			"-0.017": 0.277696574955,
			"-0.016": 1.20178383841,
			"-0.015": 0.862630483626,
			"-0.014": 1.03720015305,
			"-0.013": 1.12749383432,
			"-0.012": 1.80327858576,
			"-0.011": 1.59992780393,
			"-0.01": 2.20711976357,
			"-0.009": 2.31494717713,
			"-0.008": 5.70537640264,
			"-0.007": 6.44489874892,
			"-0.006": 5.3211414827,
			"-0.005": 6.35945156684,
			"-0.004": 20.3391913783,
			"-0.003": 26.8665083332,
			"-0.002": 30.0758003049,
			"-0.001": 38.9337749917,
			"0.0": 40.6507209644,
			"0.001": 21.4853974864,
			"0.002": 12.3698555243,
			"0.003": 10.4195737527,
			"0.004": 8.28293135838,
			"0.005": 6.05735117848,
			"0.006": 6.72605882747,
			"0.007": 6.26277727137,
			"0.008": 5.2209930295,
			"0.009": 6.21114976658,
			"0.01": 10.8041704736,
			"0.011": 12.2568887376,
			"0.012": 1.98265378678,
			"0.013": 0.0,
			"0.014": 0.0,
			"0.015": 0.0,
			"0.016": 0.0,
			"0.017": 0.0,
			"0.018": 0.0,
			"0.019": 0.0,
			"0.02": 0.0,
			"0.021": 0.0,
			"0.022": 0.0,
			"0.023": 0.0,
			"0.024": 0.0,
			"0.025": 0.0
		}
	}
}
