{
	 "smiles": "BrC1=CC=C(S1)S(=O)(=O)N1CCNCC1", 
	 "Tm": 473.15, 
	 "num_atms": 26, 
	 "gaussian": { 
		 "optdone": 1, 
		 "sigma_profile": "yes", 
		 "theory": "DFT", 
		 "functional": "B3LYP", 
		 "basiset": "6-31G**", 
		 "properties": { 
			 "R2extent": 8290.5791, 
			 "electric_dipole_moment_norm": 3.60851422888, 
			 "electric_quadrupole_moment_norm": 18.3740958077, 
			 "total_energy": -3939.09078341, 
			 "HOMO_LUMO_gap": 0.17532, 
			 "cosmo_polarized_energy": -13.76, 
			 "cosmo_cavitation_energy": 33.64, 
			 "cosmo_dispersion_energy": -25.36, 
			 "cosmo_repulsion_energy": 1.91, 
			 "cosmo_total_nonelectrostatic_energy": 10.19, 
			 "SMD_solvation_energy": -0.12 
		},
		"coords": [
			{
				"x": 4.6878074449,
				"y": 3.0633940203,
				"z": 1.7919107714,
				"element": "Br" 
			},
			{
				"x": 3.0314355192,
				"y": 2.6316524959,
				"z": 1.0062415018,
				"element": "C" 
			},
			{
				"x": 2.7959088063,
				"y": 2.3937426635,
				"z": -0.3235046591,
				"element": "C" 
			},
			{
				"x": 1.4271582122,
				"y": 2.0981251355,
				"z": -0.5731298975,
				"element": "C" 
			},
			{
				"x": 0.6663810818,
				"y": 2.1134281877,
				"z": 0.567545692,
				"element": "C" 
			},
			{
				"x": 1.600734739,
				"y": 2.5159785994,
				"z": 1.9833652207,
				"element": "S" 
			},
			{
				"x": -1.0864964652,
				"y": 1.8425895496,
				"z": 0.6654452034,
				"element": "S" 
			},
			{
				"x": -1.5003032322,
				"y": 2.3682503682,
				"z": 1.972407735,
				"element": "O" 
			},
			{
				"x": -1.6863467322,
				"y": 2.3254972839,
				"z": -0.5802031322,
				"element": "O" 
			},
			{
				"x": -1.2039531106,
				"y": 0.1597102055,
				"z": 0.6331205341,
				"element": "N" 
			},
			{
				"x": -0.9060998065,
				"y": -0.5279028564,
				"z": 1.9075135317,
				"element": "C" 
			},
			{
				"x": -1.1354738655,
				"y": -2.0510192519,
				"z": 1.7106913958,
				"element": "C" 
			},
			{
				"x": -0.932328534,
				"y": -2.4943914087,
				"z": 0.3362173385,
				"element": "N" 
			},
			{
				"x": -1.8901023564,
				"y": -1.8499293671,
				"z": -0.5738658398,
				"element": "C" 
			},
			{
				"x": -2.3256892541,
				"y": -0.433093114,
				"z": -0.1164812713,
				"element": "C" 
			},
			{
				"x": 3.5657536703,
				"y": 2.4369378331,
				"z": -1.0833729517,
				"element": "H" 
			},
			{
				"x": 1.0126179916,
				"y": 1.8956220125,
				"z": -1.5533947578,
				"element": "H" 
			},
			{
				"x": -1.5249183247,
				"y": -0.1407866079,
				"z": 2.7284385312,
				"element": "H" 
			},
			{
				"x": 0.1425712267,
				"y": -0.3326339251,
				"z": 2.1583875294,
				"element": "H" 
			},
			{
				"x": -0.469916951,
				"y": -2.6047713609,
				"z": 2.3801332549,
				"element": "H" 
			},
			{
				"x": -2.1598188802,
				"y": -2.3131335039,
				"z": 1.9998132367,
				"element": "H" 
			},
			{
				"x": 0.0102122135,
				"y": -2.2437912381,
				"z": 0.0496796742,
				"element": "H" 
			},
			{
				"x": -1.433015258,
				"y": -1.8007397711,
				"z": -1.5665292289,
				"element": "H" 
			},
			{
				"x": -2.7883565624,
				"y": -2.4756049417,
				"z": -0.6616419699,
				"element": "H" 
			},
			{
				"x": -2.5553523601,
				"y": 0.2045123304,
				"z": -0.9698857837,
				"element": "H" 
			},
			{
				"x": -3.2266092124,
				"y": -0.4834433388,
				"z": 0.5126983409,
				"element": "H" 
			}
		],
		 "valence_orbital": [ 
			{
				"type": "occ",
				"energy": -0.30796,
				"method": "rhf"
			},
			{
				"type": "occ",
				"energy": -0.28189,
				"method": "rhf"
			},
			{
				"type": "occ",
				"energy": -0.26647,
				"method": "rhf"
			},
			{
				"type": "occ",
				"energy": -0.24392,
				"method": "rhf"
			},
			{
				"type": "occ",
				"energy": -0.23302,
				"method": "rhf"
			},
			{
				"type": "unocc",
				"energy": -0.0577,
				"method": "rhf"
			},
			{
				"type": "unocc",
				"energy": -0.02104,
				"method": "rhf"
			},
			{
				"type": "unocc",
				"energy": 0.00179,
				"method": "rhf"
			},
			{
				"type": "unocc",
				"energy": 0.02453,
				"method": "rhf"
			},
			{
				"type": "unocc",
				"energy": 0.05614,
				"method": "rhf"
			}
		],
		"cosmo_sigma_profile": { 
			"-0.025": 0.0,
			"-0.024": 0.0,
			"-0.023": 0.0,
			"-0.022": 0.0,
			"-0.021": 0.0,
			"-0.02": 0.0,
			"-0.019": 0.0,
			"-0.018": 0.0,
			"-0.017": 0.0,
			"-0.016": 0.0,
			"-0.015": 0.0,
			"-0.014": 0.0,
			"-0.013": 0.0,
			"-0.012": 0.0,
			"-0.011": 0.00465580632809,
			"-0.01": 0.930657972727,
			"-0.009": 3.31986170248,
			"-0.008": 4.68908244677,
			"-0.007": 5.70479800733,
			"-0.006": 6.88006192011,
			"-0.005": 19.3033002678,
			"-0.004": 29.8026563352,
			"-0.003": 27.1517035413,
			"-0.002": 22.1247045885,
			"-0.001": 20.6008697239,
			"0.0": 24.4189197009,
			"0.001": 24.0642983178,
			"0.002": 19.7370052417,
			"0.003": 16.1054040128,
			"0.004": 4.86489054467,
			"0.005": 4.45390104985,
			"0.006": 3.34159553388,
			"0.007": 4.55340171402,
			"0.008": 4.47302282075,
			"0.009": 4.26855963271,
			"0.01": 8.67733826684,
			"0.011": 7.53531748475,
			"0.012": 2.02430758318,
			"0.013": 0.332075833729,
			"0.014": 0.305584772011,
			"0.015": 0.816947592364,
			"0.016": 0.52610925991,
			"0.017": 0.617109871108,
			"0.018": 0.362304260268,
			"0.019": 0.00263004337113,
			"0.02": 0.0,
			"0.021": 0.0,
			"0.022": 0.0,
			"0.023": 0.0,
			"0.024": 0.0,
			"0.025": 0.0
		}
	}
}
