{
	 "smiles": "CC1=C(C)C(CCl)=C(C)C(CCl)=C1C", 
	 "Tm": 390.15, 
	 "num_atms": 30, 
	 "gaussian": { 
		 "optdone": 1, 
		 "sigma_profile": "yes", 
		 "theory": "DFT", 
		 "functional": "B3LYP", 
		 "basiset": "6-31G**", 
		 "properties": { 
			 "R2extent": 4421.4873, 
			 "electric_dipole_moment_norm": 2.15676656363, 
			 "electric_quadrupole_moment_norm": 16.9619881812, 
			 "total_energy": -1387.33240026, 
			 "HOMO_LUMO_gap": 0.20238, 
			 "cosmo_polarized_energy": -8.5, 
			 "cosmo_cavitation_energy": 33.36, 
			 "cosmo_dispersion_energy": -24.12, 
			 "cosmo_repulsion_energy": 1.88, 
			 "cosmo_total_nonelectrostatic_energy": 11.13, 
			 "SMD_solvation_energy": 4.81 
		},
		"coords": [
			{
				"x": -1.6997915397,
				"y": 2.7606131826,
				"z": 0.169029936,
				"element": "C" 
			},
			{
				"x": -1.237485121,
				"y": 1.3178692407,
				"z": 0.0995664335,
				"element": "C" 
			},
			{
				"x": -0.2509438332,
				"y": 0.8705743627,
				"z": 0.9982842508,
				"element": "C" 
			},
			{
				"x": 0.3583949404,
				"y": 1.8419176666,
				"z": 1.9904932229,
				"element": "C" 
			},
			{
				"x": 0.1609128053,
				"y": -0.4801264617,
				"z": 0.9823419703,
				"element": "C" 
			},
			{
				"x": 1.0978066547,
				"y": -0.9686489854,
				"z": 2.0488241138,
				"element": "C" 
			},
			{
				"x": 2.874596027,
				"y": -0.9064254997,
				"z": 1.5451674942,
				"element": "Cl" 
			},
			{
				"x": -0.3220652712,
				"y": -1.35961339,
				"z": -0.0055117825,
				"element": "C" 
			},
			{
				"x": 0.1688044666,
				"y": -2.7902995748,
				"z": -0.1094902029,
				"element": "C" 
			},
			{
				"x": -1.2741402301,
				"y": -0.8883695815,
				"z": -0.9343701209,
				"element": "C" 
			},
			{
				"x": -1.7329172708,
				"y": -1.8052635504,
				"z": -2.0311968669,
				"element": "C" 
			},
			{
				"x": -3.2412331832,
				"y": -2.7782902186,
				"z": -1.5831273845,
				"element": "Cl" 
			},
			{
				"x": -1.7752771202,
				"y": 0.4279815894,
				"z": -0.8531890698,
				"element": "C" 
			},
			{
				"x": -2.8849887505,
				"y": 0.8931476171,
				"z": -1.7773185354,
				"element": "C" 
			},
			{
				"x": -0.9026498207,
				"y": 3.4488779698,
				"z": -0.1388497064,
				"element": "H" 
			},
			{
				"x": -2.5539958697,
				"y": 2.9579936151,
				"z": -0.4763669503,
				"element": "H" 
			},
			{
				"x": -1.9875084289,
				"y": 3.0435972458,
				"z": 1.1870382339,
				"element": "H" 
			},
			{
				"x": 1.3993503799,
				"y": 1.598126391,
				"z": 2.2112155529,
				"element": "H" 
			},
			{
				"x": 0.347427784,
				"y": 2.8630649781,
				"z": 1.6069937636,
				"element": "H" 
			},
			{
				"x": -0.192128665,
				"y": 1.8540141955,
				"z": 2.9412184051,
				"element": "H" 
			},
			{
				"x": 0.9201167397,
				"y": -2.0061110449,
				"z": 2.320519477,
				"element": "H" 
			},
			{
				"x": 1.0447324394,
				"y": -0.3675197812,
				"z": 2.9526293586,
				"element": "H" 
			},
			{
				"x": -0.66583983,
				"y": -3.4960492129,
				"z": -0.1624729812,
				"element": "H" 
			},
			{
				"x": 0.7768547865,
				"y": -2.9303949338,
				"z": -1.0114288151,
				"element": "H" 
			},
			{
				"x": 0.8006490813,
				"y": -3.0859365888,
				"z": 0.7260748037,
				"element": "H" 
			},
			{
				"x": -0.9889135474,
				"y": -2.5563376399,
				"z": -2.2821563118,
				"element": "H" 
			},
			{
				"x": -2.0039064543,
				"y": -1.2738198984,
				"z": -2.9399344639,
				"element": "H" 
			},
			{
				"x": -3.6799008684,
				"y": 1.3876247923,
				"z": -1.2116560853,
				"element": "H" 
			},
			{
				"x": -2.5236304486,
				"y": 1.6147823383,
				"z": -2.5204749993,
				"element": "H" 
			},
			{
				"x": -3.3598298519,
				"y": 0.0708211771,
				"z": -2.3102527401,
				"element": "H" 
			}
		],
		 "valence_orbital": [ 
			{
				"type": "occ",
				"energy": -0.2923,
				"method": "rhf"
			},
			{
				"type": "occ",
				"energy": -0.2919,
				"method": "rhf"
			},
			{
				"type": "occ",
				"energy": -0.28906,
				"method": "rhf"
			},
			{
				"type": "occ",
				"energy": -0.23976,
				"method": "rhf"
			},
			{
				"type": "occ",
				"energy": -0.2354,
				"method": "rhf"
			},
			{
				"type": "unocc",
				"energy": -0.03302,
				"method": "rhf"
			},
			{
				"type": "unocc",
				"energy": -0.02081,
				"method": "rhf"
			},
			{
				"type": "unocc",
				"energy": 0.02911,
				"method": "rhf"
			},
			{
				"type": "unocc",
				"energy": 0.04678,
				"method": "rhf"
			},
			{
				"type": "unocc",
				"energy": 0.08649,
				"method": "rhf"
			}
		],
		"cosmo_sigma_profile": { 
			"-0.025": 0.0,
			"-0.024": 0.0,
			"-0.023": 0.0,
			"-0.022": 0.0,
			"-0.021": 0.0,
			"-0.02": 0.0,
			"-0.019": 0.0,
			"-0.018": 0.0,
			"-0.017": 0.0,
			"-0.016": 0.0,
			"-0.015": 0.0,
			"-0.014": 0.0,
			"-0.013": 0.0,
			"-0.012": 0.0,
			"-0.011": 0.0,
			"-0.01": 0.0,
			"-0.009": 0.0501576814901,
			"-0.008": 1.58881953297,
			"-0.007": 6.85535079695,
			"-0.006": 9.43197462666,
			"-0.005": 13.7571356714,
			"-0.004": 24.852210996,
			"-0.003": 25.1456515423,
			"-0.002": 26.9075728798,
			"-0.001": 23.9754659639,
			"0.0": 27.4857762164,
			"0.001": 17.2088690007,
			"0.002": 12.7085368705,
			"0.003": 12.5906866518,
			"0.004": 14.4718367526,
			"0.005": 19.1685526433,
			"0.006": 15.9816998825,
			"0.007": 14.6365658331,
			"0.008": 0.36957834763,
			"0.009": 0.0,
			"0.01": 0.0,
			"0.011": 0.0,
			"0.012": 0.0,
			"0.013": 0.0,
			"0.014": 0.0,
			"0.015": 0.0,
			"0.016": 0.0,
			"0.017": 0.0,
			"0.018": 0.0,
			"0.019": 0.0,
			"0.02": 0.0,
			"0.021": 0.0,
			"0.022": 0.0,
			"0.023": 0.0,
			"0.024": 0.0,
			"0.025": 0.0
		}
	}
}
