{
	 "smiles": "CN1C(O)C2=CC=CC=C2C1=O", 
	 "Tm": 406.15, 
	 "num_atms": 21, 
	 "gaussian": { 
		 "optdone": 1, 
		 "sigma_profile": "yes", 
		 "theory": "DFT", 
		 "functional": "B3LYP", 
		 "basiset": "6-31G**", 
		 "properties": { 
			 "R2extent": 2698.071, 
			 "electric_dipole_moment_norm": 2.77451996569, 
			 "electric_quadrupole_moment_norm": 15.5528617328, 
			 "total_energy": -553.596376616, 
			 "HOMO_LUMO_gap": 0.20311, 
			 "cosmo_polarized_energy": -12.37, 
			 "cosmo_cavitation_energy": 24.83, 
			 "cosmo_dispersion_energy": -18.12, 
			 "cosmo_repulsion_energy": 1.43, 
			 "cosmo_total_nonelectrostatic_energy": 8.14, 
			 "SMD_solvation_energy": 4.62 
		},
		"coords": [
			{
				"x": -3.0010935033,
				"y": -1.6053211408,
				"z": 1.238797389,
				"element": "C" 
			},
			{
				"x": -1.6953023156,
				"y": -0.9982614879,
				"z": 1.382849014,
				"element": "N" 
			},
			{
				"x": -1.1130558085,
				"y": -0.1376113602,
				"z": 0.3606096863,
				"element": "C" 
			},
			{
				"x": -1.8943907699,
				"y": 1.0055425065,
				"z": 0.0745275088,
				"element": "O" 
			},
			{
				"x": 0.2581306012,
				"y": 0.159135953,
				"z": 0.9388220405,
				"element": "C" 
			},
			{
				"x": 1.2708391971,
				"y": 0.9730638751,
				"z": 0.4450592799,
				"element": "C" 
			},
			{
				"x": 2.4472788228,
				"y": 1.083794274,
				"z": 1.1968178687,
				"element": "C" 
			},
			{
				"x": 2.5976477118,
				"y": 0.3988722717,
				"z": 2.4103385971,
				"element": "C" 
			},
			{
				"x": 1.5704664784,
				"y": -0.409479854,
				"z": 2.9059842007,
				"element": "C" 
			},
			{
				"x": 0.4067463394,
				"y": -0.5109902424,
				"z": 2.1521124438,
				"element": "C" 
			},
			{
				"x": -0.8438111567,
				"y": -1.2738904576,
				"z": 2.4398181809,
				"element": "C" 
			},
			{
				"x": -1.0901414692,
				"y": -1.9930943839,
				"z": 3.3957618136,
				"element": "O" 
			},
			{
				"x": -3.0157194046,
				"y": -2.3388035029,
				"z": 0.4219254477,
				"element": "H" 
			},
			{
				"x": -3.7564189499,
				"y": -0.840844605,
				"z": 1.0339304126,
				"element": "H" 
			},
			{
				"x": -3.2331318545,
				"y": -2.114331515,
				"z": 2.1757650882,
				"element": "H" 
			},
			{
				"x": -1.0540670368,
				"y": -0.6677760479,
				"z": -0.5994137652,
				"element": "H" 
			},
			{
				"x": -1.9051570706,
				"y": 1.5552231544,
				"z": 0.8719833158,
				"element": "H" 
			},
			{
				"x": 1.1543373052,
				"y": 1.5102234843,
				"z": -0.4917545468,
				"element": "H" 
			},
			{
				"x": 3.2571316708,
				"y": 1.7103283117,
				"z": 0.834171525,
				"element": "H" 
			},
			{
				"x": 3.5224543744,
				"y": 0.5018202799,
				"z": 2.9704363317,
				"element": "H" 
			},
			{
				"x": 1.6636568384,
				"y": -0.9437995129,
				"z": 3.8462581677,
				"element": "H" 
			}
		],
		 "valence_orbital": [ 
			{
				"type": "occ",
				"energy": -0.30339,
				"method": "rhf"
			},
			{
				"type": "occ",
				"energy": -0.26479,
				"method": "rhf"
			},
			{
				"type": "occ",
				"energy": -0.26463,
				"method": "rhf"
			},
			{
				"type": "occ",
				"energy": -0.25244,
				"method": "rhf"
			},
			{
				"type": "occ",
				"energy": -0.24438,
				"method": "rhf"
			},
			{
				"type": "unocc",
				"energy": -0.04127,
				"method": "rhf"
			},
			{
				"type": "unocc",
				"energy": -0.02077,
				"method": "rhf"
			},
			{
				"type": "unocc",
				"energy": 0.05975,
				"method": "rhf"
			},
			{
				"type": "unocc",
				"energy": 0.08474,
				"method": "rhf"
			},
			{
				"type": "unocc",
				"energy": 0.09412,
				"method": "rhf"
			}
		],
		"cosmo_sigma_profile": { 
			"-0.025": 0.0,
			"-0.024": 0.0,
			"-0.023": 0.0,
			"-0.022": 0.0,
			"-0.021": 0.0,
			"-0.02": 0.0,
			"-0.019": 0.0,
			"-0.018": 0.0,
			"-0.017": 0.0444139014678,
			"-0.016": 0.786329112957,
			"-0.015": 0.922558920452,
			"-0.014": 0.455809987967,
			"-0.013": 1.4712246501,
			"-0.012": 0.552039332075,
			"-0.011": 0.930129681651,
			"-0.01": 1.07417685322,
			"-0.009": 0.33223192893,
			"-0.008": 0.662197684927,
			"-0.007": 5.27799507989,
			"-0.006": 12.3755938389,
			"-0.005": 15.6719699332,
			"-0.004": 17.2362245339,
			"-0.003": 15.3503733386,
			"-0.002": 17.5979144325,
			"-0.001": 13.2189558962,
			"0.0": 12.9288011036,
			"0.001": 12.5719697728,
			"0.002": 11.5148115771,
			"0.003": 12.4602830047,
			"0.004": 11.7230571278,
			"0.005": 3.40794267547,
			"0.006": 2.28412332319,
			"0.007": 2.59404471668,
			"0.008": 2.84134947424,
			"0.009": 2.20931339398,
			"0.01": 2.77390856386,
			"0.011": 2.50630387982,
			"0.012": 4.45788655121,
			"0.013": 6.30774640662,
			"0.014": 2.83831390188,
			"0.015": 0.0274020351193,
			"0.016": 0.0,
			"0.017": 0.0,
			"0.018": 0.0,
			"0.019": 0.0,
			"0.02": 0.0,
			"0.021": 0.0,
			"0.022": 0.0,
			"0.023": 0.0,
			"0.024": 0.0,
			"0.025": 0.0
		}
	}
}
