{
	 "smiles": "FC1=CC=CC=C1", 
	 "Tm": 232.05, 
	 "num_atms": 12, 
	 "gaussian": { 
		 "optdone": 1, 
		 "sigma_profile": "yes", 
		 "theory": "DFT", 
		 "functional": "B3LYP", 
		 "basiset": "6-31G**", 
		 "properties": { 
			 "R2extent": 1151.3497, 
			 "electric_dipole_moment_norm": 1.33939736449, 
			 "electric_quadrupole_moment_norm": 4.90459636464, 
			 "total_energy": -331.484516123, 
			 "HOMO_LUMO_gap": 0.23405, 
			 "cosmo_polarized_energy": -3.14, 
			 "cosmo_cavitation_energy": 16.21, 
			 "cosmo_dispersion_energy": -12.12, 
			 "cosmo_repulsion_energy": 1.0, 
			 "cosmo_total_nonelectrostatic_energy": 5.09, 
			 "SMD_solvation_energy": 3.43 
		},
		"coords": [
			{
				"x": -1.2433043727,
				"y": 2.3492745724,
				"z": -2.0580851451,
				"element": "F" 
			},
			{
				"x": -0.555499473,
				"y": 1.2176899342,
				"z": -1.7955573705,
				"element": "C" 
			},
			{
				"x": -1.0394577553,
				"y": 0.3469263457,
				"z": -0.8251424514,
				"element": "C" 
			},
			{
				"x": -0.3220442073,
				"y": -0.8208940899,
				"z": -0.5599997994,
				"element": "C" 
			},
			{
				"x": 0.8551535892,
				"y": -1.1031532153,
				"z": -1.2572055212,
				"element": "C" 
			},
			{
				"x": 1.3182587032,
				"y": -0.2105778196,
				"z": -2.2269387954,
				"element": "C" 
			},
			{
				"x": 0.6132141003,
				"y": 0.9618570845,
				"z": -2.5046364606,
				"element": "C" 
			},
			{
				"x": -1.9559295936,
				"y": 0.5893806174,
				"z": -0.298089752,
				"element": "H" 
			},
			{
				"x": -0.6873485949,
				"y": -1.5107783789,
				"z": 0.1951084648,
				"element": "H" 
			},
			{
				"x": 1.4081459529,
				"y": -2.0129638716,
				"z": -1.046151599,
				"element": "H" 
			},
			{
				"x": 2.2327721924,
				"y": -0.4242488856,
				"z": -2.7724531798,
				"element": "H" 
			},
			{
				"x": 0.9512394588,
				"y": 1.6710877067,
				"z": -3.2524483903,
				"element": "H" 
			}
		],
		 "valence_orbital": [ 
			{
				"type": "occ",
				"energy": -0.37073,
				"method": "rhf"
			},
			{
				"type": "occ",
				"energy": -0.35787,
				"method": "rhf"
			},
			{
				"type": "occ",
				"energy": -0.34335,
				"method": "rhf"
			},
			{
				"type": "occ",
				"energy": -0.25907,
				"method": "rhf"
			},
			{
				"type": "occ",
				"energy": -0.24351,
				"method": "rhf"
			},
			{
				"type": "unocc",
				"energy": -0.00946,
				"method": "rhf"
			},
			{
				"type": "unocc",
				"energy": 0.00292,
				"method": "rhf"
			},
			{
				"type": "unocc",
				"energy": 0.08347,
				"method": "rhf"
			},
			{
				"type": "unocc",
				"energy": 0.1384,
				"method": "rhf"
			},
			{
				"type": "unocc",
				"energy": 0.14618,
				"method": "rhf"
			}
		],
		"cosmo_sigma_profile": { 
			"-0.025": 0.0,
			"-0.024": 0.0,
			"-0.023": 0.0,
			"-0.022": 0.0,
			"-0.021": 0.0,
			"-0.02": 0.0,
			"-0.019": 0.0,
			"-0.018": 0.0,
			"-0.017": 0.0,
			"-0.016": 0.0,
			"-0.015": 0.0,
			"-0.014": 0.0,
			"-0.013": 0.0,
			"-0.012": 0.0,
			"-0.011": 0.0,
			"-0.01": 0.0,
			"-0.009": 0.0,
			"-0.008": 0.0188882683159,
			"-0.007": 2.78168949963,
			"-0.006": 9.32118650172,
			"-0.005": 9.30780694681,
			"-0.004": 11.9648716778,
			"-0.003": 8.03601743011,
			"-0.002": 7.05271939713,
			"-0.001": 6.57447333182,
			"0.0": 7.00562265151,
			"0.001": 12.8083811165,
			"0.002": 11.3593704846,
			"0.003": 11.7781542156,
			"0.004": 18.4166110576,
			"0.005": 13.4825870032,
			"0.006": 0.430026548713,
			"0.007": 0.0,
			"0.008": 0.0,
			"0.009": 0.0,
			"0.01": 0.0,
			"0.011": 0.0,
			"0.012": 0.0,
			"0.013": 0.0,
			"0.014": 0.0,
			"0.015": 0.0,
			"0.016": 0.0,
			"0.017": 0.0,
			"0.018": 0.0,
			"0.019": 0.0,
			"0.02": 0.0,
			"0.021": 0.0,
			"0.022": 0.0,
			"0.023": 0.0,
			"0.024": 0.0,
			"0.025": 0.0
		}
	}
}
