{
	 "smiles": "CN1C=C(Br)C(CCl)=N1", 
	 "Tm": 350.65, 
	 "num_atms": 15, 
	 "gaussian": { 
		 "optdone": 1, 
		 "sigma_profile": "yes", 
		 "theory": "DFT", 
		 "functional": "B3LYP", 
		 "basiset": "6-31G**", 
		 "properties": { 
			 "R2extent": 3423.4043, 
			 "electric_dipole_moment_norm": 4.49270401985, 
			 "electric_quadrupole_moment_norm": 11.444422698, 
			 "total_energy": -3335.22507941, 
			 "HOMO_LUMO_gap": 0.22576, 
			 "cosmo_polarized_energy": -9.94, 
			 "cosmo_cavitation_energy": 23.49, 
			 "cosmo_dispersion_energy": -17.49, 
			 "cosmo_repulsion_energy": 1.46, 
			 "cosmo_total_nonelectrostatic_energy": 7.45, 
			 "SMD_solvation_energy": 2.09 
		},
		"coords": [
			{
				"x": 2.0426778334,
				"y": -0.3694472677,
				"z": -2.2037950988,
				"element": "C" 
			},
			{
				"x": 1.2454336181,
				"y": -0.7994775582,
				"z": -1.0681134891,
				"element": "N" 
			},
			{
				"x": 0.6872958694,
				"y": -2.0207547901,
				"z": -0.8543791371,
				"element": "C" 
			},
			{
				"x": 0.0277464611,
				"y": -1.9292740687,
				"z": 0.3548017861,
				"element": "C" 
			},
			{
				"x": -0.9607333804,
				"y": -3.2879890993,
				"z": 1.2021604805,
				"element": "Br" 
			},
			{
				"x": 0.2413514308,
				"y": -0.606235432,
				"z": 0.8072452852,
				"element": "C" 
			},
			{
				"x": -0.2381151647,
				"y": 0.0469039189,
				"z": 2.0504381325,
				"element": "C" 
			},
			{
				"x": 0.8499367624,
				"y": -0.289441502,
				"z": 3.4895966266,
				"element": "Cl" 
			},
			{
				"x": 0.9858457704,
				"y": 0.0692854349,
				"z": -0.075064778,
				"element": "N" 
			},
			{
				"x": 1.5516925427,
				"y": 0.464761533,
				"z": -2.7109373088,
				"element": "H" 
			},
			{
				"x": 2.1480993954,
				"y": -1.2048769453,
				"z": -2.8972662853,
				"element": "H" 
			},
			{
				"x": 3.031274461,
				"y": -0.0503315757,
				"z": -1.8652561611,
				"element": "H" 
			},
			{
				"x": 0.7897943117,
				"y": -2.8395540459,
				"z": -1.5497249575,
				"element": "H" 
			},
			{
				"x": -0.2509696571,
				"y": 1.1289130223,
				"z": 1.9309561007,
				"element": "H" 
			},
			{
				"x": -1.2231302542,
				"y": -0.3166816242,
				"z": 2.3413388039,
				"element": "H" 
			}
		],
		 "valence_orbital": [ 
			{
				"type": "occ",
				"energy": -0.29556,
				"method": "rhf"
			},
			{
				"type": "occ",
				"energy": -0.28801,
				"method": "rhf"
			},
			{
				"type": "occ",
				"energy": -0.28385,
				"method": "rhf"
			},
			{
				"type": "occ",
				"energy": -0.264,
				"method": "rhf"
			},
			{
				"type": "occ",
				"energy": -0.24037,
				"method": "rhf"
			},
			{
				"type": "unocc",
				"energy": -0.01461,
				"method": "rhf"
			},
			{
				"type": "unocc",
				"energy": 0.01183,
				"method": "rhf"
			},
			{
				"type": "unocc",
				"energy": 0.01596,
				"method": "rhf"
			},
			{
				"type": "unocc",
				"energy": 0.07598,
				"method": "rhf"
			},
			{
				"type": "unocc",
				"energy": 0.08614,
				"method": "rhf"
			}
		],
		"cosmo_sigma_profile": { 
			"-0.025": 0.0,
			"-0.024": 0.0,
			"-0.023": 0.0,
			"-0.022": 0.0,
			"-0.021": 0.0,
			"-0.02": 0.0,
			"-0.019": 0.0,
			"-0.018": 0.0,
			"-0.017": 0.0,
			"-0.016": 0.0,
			"-0.015": 0.0,
			"-0.014": 0.0,
			"-0.013": 0.0,
			"-0.012": 0.0,
			"-0.011": 0.214292676408,
			"-0.01": 3.07289732195,
			"-0.009": 2.52638545735,
			"-0.008": 4.77074767951,
			"-0.007": 8.3049471563,
			"-0.006": 10.9535223036,
			"-0.005": 12.6686360886,
			"-0.004": 14.4990620015,
			"-0.003": 13.8078414375,
			"-0.002": 6.56567579168,
			"-0.001": 9.11286586088,
			"0.0": 10.0739209734,
			"0.001": 11.4228798565,
			"0.002": 16.6060809362,
			"0.003": 16.8260665423,
			"0.004": 16.7556746205,
			"0.005": 10.2387096787,
			"0.006": 11.2153261991,
			"0.007": 7.06510835813,
			"0.008": 0.952886715698,
			"0.009": 1.04514243981,
			"0.01": 0.756100120019,
			"0.011": 1.24504492753,
			"0.012": 0.56617732915,
			"0.013": 0.970885098626,
			"0.014": 0.781834247662,
			"0.015": 0.103369959411,
			"0.016": 0.0,
			"0.017": 0.0,
			"0.018": 0.0,
			"0.019": 0.0,
			"0.02": 0.0,
			"0.021": 0.0,
			"0.022": 0.0,
			"0.023": 0.0,
			"0.024": 0.0,
			"0.025": 0.0
		}
	}
}
