{
	 "smiles": "COC1=CC=C(C=NO)C=C1", 
	 "Tm": 338.15, 
	 "num_atms": 20, 
	 "gaussian": { 
		 "optdone": 1, 
		 "sigma_profile": "yes", 
		 "theory": "DFT", 
		 "functional": "B3LYP", 
		 "basiset": "6-31G**", 
		 "properties": { 
			 "R2extent": 2612.7962, 
			 "electric_dipole_moment_norm": 2.14529455786, 
			 "electric_quadrupole_moment_norm": 10.725826315, 
			 "total_energy": -515.400295395, 
			 "HOMO_LUMO_gap": 0.18038, 
			 "cosmo_polarized_energy": -10.18, 
			 "cosmo_cavitation_energy": 24.16, 
			 "cosmo_dispersion_energy": -18.09, 
			 "cosmo_repulsion_energy": 1.45, 
			 "cosmo_total_nonelectrostatic_energy": 7.52, 
			 "SMD_solvation_energy": 5.1 
		},
		"coords": [
			{
				"x": 0.938802118,
				"y": -2.8321832551,
				"z": -0.0406494891,
				"element": "C" 
			},
			{
				"x": 1.4565790964,
				"y": -1.5507014425,
				"z": -0.3651228194,
				"element": "O" 
			},
			{
				"x": 0.6691824186,
				"y": -0.4608749545,
				"z": -0.1509949803,
				"element": "C" 
			},
			{
				"x": -0.6304217234,
				"y": -0.5057298186,
				"z": 0.3699402689,
				"element": "C" 
			},
			{
				"x": -1.3362944759,
				"y": 0.6824465966,
				"z": 0.5423716963,
				"element": "C" 
			},
			{
				"x": -0.7885402403,
				"y": 1.9337145775,
				"z": 0.210661081,
				"element": "C" 
			},
			{
				"x": -1.6348592517,
				"y": 3.1075017775,
				"z": 0.4400374768,
				"element": "C" 
			},
			{
				"x": -1.4712952136,
				"y": 4.3706955556,
				"z": 0.2610048325,
				"element": "N" 
			},
			{
				"x": -0.2140755615,
				"y": 4.7082060212,
				"z": -0.2680665142,
				"element": "O" 
			},
			{
				"x": 0.5244807923,
				"y": 1.9551983972,
				"z": -0.3133872102,
				"element": "C" 
			},
			{
				"x": 1.2356901872,
				"y": 0.7786455774,
				"z": -0.4891370619,
				"element": "C" 
			},
			{
				"x": 0.7000997517,
				"y": -2.9134107661,
				"z": 1.0274252988,
				"element": "H" 
			},
			{
				"x": 1.7259509948,
				"y": -3.5460152737,
				"z": -0.2876348785,
				"element": "H" 
			},
			{
				"x": 0.0418432872,
				"y": -3.0665868947,
				"z": -0.6279324289,
				"element": "H" 
			},
			{
				"x": -1.0947582675,
				"y": -1.4465545455,
				"z": 0.6401407225,
				"element": "H" 
			},
			{
				"x": -2.3442720507,
				"y": 0.636573478,
				"z": 0.94726794,
				"element": "H" 
			},
			{
				"x": -2.6220835766,
				"y": 2.8939951018,
				"z": 0.850824556,
				"element": "H" 
			},
			{
				"x": -0.2764288318,
				"y": 5.6699503645,
				"z": -0.3303206309,
				"element": "H" 
			},
			{
				"x": 0.9762437172,
				"y": 2.899882155,
				"z": -0.5789261623,
				"element": "H" 
			},
			{
				"x": 2.2436568296,
				"y": 0.7905473486,
				"z": -0.8910016969,
				"element": "H" 
			}
		],
		 "valence_orbital": [ 
			{
				"type": "occ",
				"energy": -0.32792,
				"method": "rhf"
			},
			{
				"type": "occ",
				"energy": -0.26814,
				"method": "rhf"
			},
			{
				"type": "occ",
				"energy": -0.26413,
				"method": "rhf"
			},
			{
				"type": "occ",
				"energy": -0.25387,
				"method": "rhf"
			},
			{
				"type": "occ",
				"energy": -0.21045,
				"method": "rhf"
			},
			{
				"type": "unocc",
				"energy": -0.03007,
				"method": "rhf"
			},
			{
				"type": "unocc",
				"energy": -0.00232,
				"method": "rhf"
			},
			{
				"type": "unocc",
				"energy": 0.06737,
				"method": "rhf"
			},
			{
				"type": "unocc",
				"energy": 0.07257,
				"method": "rhf"
			},
			{
				"type": "unocc",
				"energy": 0.09489,
				"method": "rhf"
			}
		],
		"cosmo_sigma_profile": { 
			"-0.025": 0.0,
			"-0.024": 0.0,
			"-0.023": 0.0,
			"-0.022": 0.0,
			"-0.021": 0.0,
			"-0.02": 0.0,
			"-0.019": 0.0,
			"-0.018": 0.109673422046,
			"-0.017": 0.867789295362,
			"-0.016": 0.958124912718,
			"-0.015": 0.780518871128,
			"-0.014": 0.64443424107,
			"-0.013": 0.823452954963,
			"-0.012": 0.994064353216,
			"-0.011": 0.363700650932,
			"-0.01": 0.504799177352,
			"-0.009": 0.421352014962,
			"-0.008": 1.84085369981,
			"-0.007": 5.90137713817,
			"-0.006": 12.9074300461,
			"-0.005": 14.8524018514,
			"-0.004": 16.0844517586,
			"-0.003": 14.4007762136,
			"-0.002": 9.40895987885,
			"-0.001": 8.78652998227,
			"0.0": 7.60425990981,
			"0.001": 9.19778458833,
			"0.002": 12.146133372,
			"0.003": 16.9432346897,
			"0.004": 18.854288649,
			"0.005": 11.4712670901,
			"0.006": 5.78564188984,
			"0.007": 5.56010853429,
			"0.008": 4.48987753841,
			"0.009": 3.78565197902,
			"0.01": 2.29547568447,
			"0.011": 1.03570883042,
			"0.012": 0.922563437453,
			"0.013": 1.00756746535,
			"0.014": 0.625405159591,
			"0.015": 0.0495989376345,
			"0.016": 0.0,
			"0.017": 0.0,
			"0.018": 0.0,
			"0.019": 0.0,
			"0.02": 0.0,
			"0.021": 0.0,
			"0.022": 0.0,
			"0.023": 0.0,
			"0.024": 0.0,
			"0.025": 0.0
		}
	}
}
