{
	 "smiles": "OC(=O)CNC1=NCCCCC1", 
	 "Tm": 437.15, 
	 "num_atms": 26, 
	 "gaussian": { 
		 "optdone": 1, 
		 "sigma_profile": "yes", 
		 "theory": "DFT", 
		 "functional": "B3LYP", 
		 "basiset": "6-31G**", 
		 "properties": { 
			 "R2extent": 3512.9073, 
			 "electric_dipole_moment_norm": 0.603313086216, 
			 "electric_quadrupole_moment_norm": 10.9540984125, 
			 "total_energy": -573.241850695, 
			 "HOMO_LUMO_gap": 0.21316, 
			 "cosmo_polarized_energy": -14.56, 
			 "cosmo_cavitation_energy": 27.58, 
			 "cosmo_dispersion_energy": -20.18, 
			 "cosmo_repulsion_energy": 1.65, 
			 "cosmo_total_nonelectrostatic_energy": 9.05, 
			 "SMD_solvation_energy": 1.55 
		},
		"coords": [
			{
				"x": 4.4719969171,
				"y": -0.2458972398,
				"z": -0.6038303673,
				"element": "O" 
			},
			{
				"x": 3.9605448132,
				"y": 0.9550073168,
				"z": -0.9460840353,
				"element": "C" 
			},
			{
				"x": 4.3256253438,
				"y": 1.5856623813,
				"z": -1.9129623057,
				"element": "O" 
			},
			{
				"x": 2.889253119,
				"y": 1.4503392597,
				"z": 0.0301686573,
				"element": "C" 
			},
			{
				"x": 2.3511573373,
				"y": 0.5163803163,
				"z": 0.9872941472,
				"element": "N" 
			},
			{
				"x": 1.6114728156,
				"y": -0.6220167545,
				"z": 0.6765855787,
				"element": "C" 
			},
			{
				"x": 1.5995405724,
				"y": -1.565955136,
				"z": 1.5470884364,
				"element": "N" 
			},
			{
				"x": 0.7265468211,
				"y": -2.7014992959,
				"z": 1.2863994585,
				"element": "C" 
			},
			{
				"x": -0.7718982647,
				"y": -2.3865747693,
				"z": 1.5163956978,
				"element": "C" 
			},
			{
				"x": -1.1885471053,
				"y": -0.9841303928,
				"z": 1.0424528288,
				"element": "C" 
			},
			{
				"x": -0.7333847159,
				"y": -0.5931849414,
				"z": -0.3746303145,
				"element": "C" 
			},
			{
				"x": 0.8075097245,
				"y": -0.6421690513,
				"z": -0.6140574447,
				"element": "C" 
			},
			{
				"x": 5.1445665763,
				"y": -0.4554743268,
				"z": -1.2740588536,
				"element": "H" 
			},
			{
				"x": 2.103190313,
				"y": 1.9029494395,
				"z": -0.5810483897,
				"element": "H" 
			},
			{
				"x": 3.341950555,
				"y": 2.2831188597,
				"z": 0.5802772485,
				"element": "H" 
			},
			{
				"x": 2.9203182677,
				"y": 0.3515551264,
				"z": 1.8089304583,
				"element": "H" 
			},
			{
				"x": 1.0259334582,
				"y": -3.5206402692,
				"z": 1.9493263992,
				"element": "H" 
			},
			{
				"x": 0.8541274453,
				"y": -3.0825851236,
				"z": 0.2595692512,
				"element": "H" 
			},
			{
				"x": -1.0034139945,
				"y": -2.4667145061,
				"z": 2.5850342575,
				"element": "H" 
			},
			{
				"x": -1.3698486454,
				"y": -3.1554499903,
				"z": 1.0094968416,
				"element": "H" 
			},
			{
				"x": -2.2805662467,
				"y": -0.896038914,
				"z": 1.0957655886,
				"element": "H" 
			},
			{
				"x": -0.790670098,
				"y": -0.2460796588,
				"z": 1.7478952573,
				"element": "H" 
			},
			{
				"x": -1.2212810593,
				"y": -1.2370251397,
				"z": -1.1164183208,
				"element": "H" 
			},
			{
				"x": -1.0897989069,
				"y": 0.424236915,
				"z": -0.5725383903,
				"element": "H" 
			},
			{
				"x": 1.067321467,
				"y": -1.5728434831,
				"z": -1.1302247654,
				"element": "H" 
			},
			{
				"x": 1.0982534902,
				"y": 0.1637293778,
				"z": -1.2913269194,
				"element": "H" 
			}
		],
		 "valence_orbital": [ 
			{
				"type": "occ",
				"energy": -0.31361,
				"method": "rhf"
			},
			{
				"type": "occ",
				"energy": -0.31006,
				"method": "rhf"
			},
			{
				"type": "occ",
				"energy": -0.28245,
				"method": "rhf"
			},
			{
				"type": "occ",
				"energy": -0.23041,
				"method": "rhf"
			},
			{
				"type": "occ",
				"energy": -0.21258,
				"method": "rhf"
			},
			{
				"type": "unocc",
				"energy": 0.00058,
				"method": "rhf"
			},
			{
				"type": "unocc",
				"energy": 0.02904,
				"method": "rhf"
			},
			{
				"type": "unocc",
				"energy": 0.06331,
				"method": "rhf"
			},
			{
				"type": "unocc",
				"energy": 0.08309,
				"method": "rhf"
			},
			{
				"type": "unocc",
				"energy": 0.09999,
				"method": "rhf"
			}
		],
		"cosmo_sigma_profile": { 
			"-0.025": 0.0,
			"-0.024": 0.0,
			"-0.023": 0.0,
			"-0.022": 0.0,
			"-0.021": 0.0,
			"-0.02": 0.0,
			"-0.019": 0.0777288547582,
			"-0.018": 1.00328916264,
			"-0.017": 0.902649153464,
			"-0.016": 0.617838432403,
			"-0.015": 0.937590738319,
			"-0.014": 0.749790720173,
			"-0.013": 1.11278169824,
			"-0.012": 1.3487015664,
			"-0.011": 1.66394595283,
			"-0.01": 1.93417499098,
			"-0.009": 2.27974301616,
			"-0.008": 5.44836461683,
			"-0.007": 5.94194406685,
			"-0.006": 5.66995442385,
			"-0.005": 7.21540912988,
			"-0.004": 8.57003635007,
			"-0.003": 17.3523054478,
			"-0.002": 24.9821744133,
			"-0.001": 28.005678401,
			"0.0": 24.518369533,
			"0.001": 15.1910038966,
			"0.002": 5.68722403048,
			"0.003": 4.72945185923,
			"0.004": 5.03928700773,
			"0.005": 3.76419950659,
			"0.006": 5.29663525326,
			"0.007": 3.8686190406,
			"0.008": 4.40036373949,
			"0.009": 4.56125122323,
			"0.01": 4.99778550247,
			"0.011": 4.99036666016,
			"0.012": 5.50697934253,
			"0.013": 1.25799984248,
			"0.014": 1.25743604708,
			"0.015": 1.07876985376,
			"0.016": 0.657349424239,
			"0.017": 0.889907172031,
			"0.018": 0.669082833697,
			"0.019": 0.10453337937,
			"0.02": 0.0,
			"0.021": 0.0,
			"0.022": 0.0,
			"0.023": 0.0,
			"0.024": 0.0,
			"0.025": 0.0
		}
	}
}
