{
	 "smiles": "NC1=C(C#N)C(NC2=NC(=NN12)C(F)(F)F)C1=CC=CO1", 
	 "Tm": 533.15, 
	 "num_atms": 28, 
	 "gaussian": { 
		 "optdone": 1, 
		 "sigma_profile": "yes", 
		 "theory": "DFT", 
		 "functional": "B3LYP", 
		 "basiset": "6-31G**", 
		 "properties": { 
			 "R2extent": 6691.346, 
			 "electric_dipole_moment_norm": 1.6289554291, 
			 "electric_quadrupole_moment_norm": 28.3107575693, 
			 "total_energy": -1126.57493437, 
			 "HOMO_LUMO_gap": 0.16921, 
			 "cosmo_polarized_energy": -20.26, 
			 "cosmo_cavitation_energy": 36.26, 
			 "cosmo_dispersion_energy": -24.67, 
			 "cosmo_repulsion_energy": 1.83, 
			 "cosmo_total_nonelectrostatic_energy": 13.42, 
			 "SMD_solvation_energy": 5.73 
		},
		"coords": [
			{
				"x": -0.5749642579,
				"y": -2.7808727536,
				"z": -1.5958037045,
				"element": "N" 
			},
			{
				"x": -0.0627808996,
				"y": -1.689442226,
				"z": -0.9927575752,
				"element": "C" 
			},
			{
				"x": 1.1540418846,
				"y": -1.0921638724,
				"z": -1.2158177101,
				"element": "C" 
			},
			{
				"x": 2.0410631421,
				"y": -1.6762944721,
				"z": -2.146411876,
				"element": "C" 
			},
			{
				"x": 2.7468242853,
				"y": -2.198326728,
				"z": -2.9167787849,
				"element": "N" 
			},
			{
				"x": 1.5096088781,
				"y": 0.2454852614,
				"z": -0.5510164041,
				"element": "C" 
			},
			{
				"x": 0.8240535662,
				"y": 0.3427381632,
				"z": 0.7453458737,
				"element": "N" 
			},
			{
				"x": -0.433300202,
				"y": -0.1529218531,
				"z": 0.8643385485,
				"element": "C" 
			},
			{
				"x": -1.3647280444,
				"y": 0.0938954899,
				"z": 1.7681785229,
				"element": "N" 
			},
			{
				"x": -2.3505712495,
				"y": -0.781531399,
				"z": 1.4042722016,
				"element": "C" 
			},
			{
				"x": -2.1180536667,
				"y": -1.5436804846,
				"z": 0.3536424702,
				"element": "N" 
			},
			{
				"x": -0.8631920844,
				"y": -1.1175420941,
				"z": -0.0055075765,
				"element": "N" 
			},
			{
				"x": -3.6488228903,
				"y": -0.8534346628,
				"z": 2.1599190528,
				"element": "C" 
			},
			{
				"x": -4.3090008074,
				"y": 0.3187122303,
				"z": 2.0870654739,
				"element": "F" 
			},
			{
				"x": -4.4452237677,
				"y": -1.8145247722,
				"z": 1.6655087567,
				"element": "F" 
			},
			{
				"x": -3.4287560286,
				"y": -1.115298216,
				"z": 3.4616884363,
				"element": "F" 
			},
			{
				"x": 1.1942023018,
				"y": 1.4416018525,
				"z": -1.4160376784,
				"element": "C" 
			},
			{
				"x": 0.2292956204,
				"y": 2.4066969851,
				"z": -1.3863106373,
				"element": "C" 
			},
			{
				"x": 0.4718829884,
				"y": 3.2493746626,
				"z": -2.5229268225,
				"element": "C" 
			},
			{
				"x": 1.561207581,
				"y": 2.7336189879,
				"z": -3.1528108137,
				"element": "C" 
			},
			{
				"x": 2.017505825,
				"y": 1.631900326,
				"z": -2.4870664027,
				"element": "O" 
			},
			{
				"x": -1.4313439717,
				"y": -3.1781325992,
				"z": -1.2409045928,
				"element": "H" 
			},
			{
				"x": -0.0361592628,
				"y": -3.2626725057,
				"z": -2.2975894442,
				"element": "H" 
			},
			{
				"x": 2.5879984787,
				"y": 0.2409570537,
				"z": -0.3567203503,
				"element": "H" 
			},
			{
				"x": 1.0304337355,
				"y": 1.1475587746,
				"z": 1.3213821597,
				"element": "H" 
			},
			{
				"x": -0.5593876929,
				"y": 2.5113599799,
				"z": -0.6551634742,
				"element": "H" 
			},
			{
				"x": -0.0928026393,
				"y": 4.120589511,
				"z": -2.8216534104,
				"element": "H" 
			},
			{
				"x": 2.1170691781,
				"y": 3.011649361,
				"z": -4.0344642384,
				"element": "H" 
			}
		],
		 "valence_orbital": [ 
			{
				"type": "occ",
				"energy": -0.31261,
				"method": "rhf"
			},
			{
				"type": "occ",
				"energy": -0.29202,
				"method": "rhf"
			},
			{
				"type": "occ",
				"energy": -0.26599,
				"method": "rhf"
			},
			{
				"type": "occ",
				"energy": -0.23895,
				"method": "rhf"
			},
			{
				"type": "occ",
				"energy": -0.22707,
				"method": "rhf"
			},
			{
				"type": "unocc",
				"energy": -0.05786,
				"method": "rhf"
			},
			{
				"type": "unocc",
				"energy": -0.00607,
				"method": "rhf"
			},
			{
				"type": "unocc",
				"energy": 0.00733,
				"method": "rhf"
			},
			{
				"type": "unocc",
				"energy": 0.02162,
				"method": "rhf"
			},
			{
				"type": "unocc",
				"energy": 0.0393,
				"method": "rhf"
			}
		],
		"cosmo_sigma_profile": { 
			"-0.025": 0.0,
			"-0.024": 0.0,
			"-0.023": 0.0,
			"-0.022": 0.0,
			"-0.021": 0.0,
			"-0.02": 0.0,
			"-0.019": 0.0,
			"-0.018": 0.0,
			"-0.017": 0.139305205547,
			"-0.016": 1.41865693506,
			"-0.015": 2.61578638651,
			"-0.014": 2.76751316273,
			"-0.013": 3.01760195349,
			"-0.012": 2.71938801805,
			"-0.011": 2.8218362002,
			"-0.01": 3.32887532775,
			"-0.009": 5.49388811853,
			"-0.008": 7.55345109128,
			"-0.007": 8.70663214778,
			"-0.006": 10.1789343163,
			"-0.005": 12.8282682702,
			"-0.004": 12.1243480207,
			"-0.003": 14.434264007,
			"-0.002": 15.1057002478,
			"-0.001": 15.4864961752,
			"0.0": 18.1965213289,
			"0.001": 21.8467856175,
			"0.002": 39.8287488955,
			"0.003": 25.6663403792,
			"0.004": 12.5549358273,
			"0.005": 13.0531726177,
			"0.006": 8.30055803014,
			"0.007": 6.32806422698,
			"0.008": 4.1287199716,
			"0.009": 5.18287442649,
			"0.01": 4.20237154267,
			"0.011": 4.01301204393,
			"0.012": 3.70431910449,
			"0.013": 3.38675741631,
			"0.014": 1.76778773015,
			"0.015": 0.0,
			"0.016": 0.0,
			"0.017": 0.0,
			"0.018": 0.0,
			"0.019": 0.0,
			"0.02": 0.0,
			"0.021": 0.0,
			"0.022": 0.0,
			"0.023": 0.0,
			"0.024": 0.0,
			"0.025": 0.0
		}
	}
}
