{
	 "smiles": "O=C1CCCN1", 
	 "Tm": 296.65, 
	 "num_atms": 13, 
	 "gaussian": { 
		 "optdone": 1, 
		 "sigma_profile": "yes", 
		 "theory": "DFT", 
		 "functional": "B3LYP", 
		 "basiset": "6-31G**", 
		 "properties": { 
			 "R2extent": 591.9929, 
			 "electric_dipole_moment_norm": 3.89355342329, 
			 "electric_quadrupole_moment_norm": 8.66840121072, 
			 "total_energy": -286.636355316, 
			 "HOMO_LUMO_gap": 0.27332, 
			 "cosmo_polarized_energy": -10.56, 
			 "cosmo_cavitation_energy": 15.7, 
			 "cosmo_dispersion_energy": -12.28, 
			 "cosmo_repulsion_energy": 1.09, 
			 "cosmo_total_nonelectrostatic_energy": 4.51, 
			 "SMD_solvation_energy": 2.54 
		},
		"coords": [
			{
				"x": 0.9355539108,
				"y": -0.4440957052,
				"z": -2.0870632298,
				"element": "O" 
			},
			{
				"x": 0.6653681317,
				"y": 0.0373663702,
				"z": -1.0009945002,
				"element": "C" 
			},
			{
				"x": 0.4586086191,
				"y": 1.5184978472,
				"z": -0.6612572728,
				"element": "C" 
			},
			{
				"x": 0.4533272171,
				"y": 1.5641307595,
				"z": 0.8760065907,
				"element": "C" 
			},
			{
				"x": 0.0125502904,
				"y": 0.1396882923,
				"z": 1.2902705045,
				"element": "C" 
			},
			{
				"x": 0.4656434204,
				"y": -0.6627943147,
				"z": 0.1638961729,
				"element": "N" 
			},
			{
				"x": -0.5042045718,
				"y": 1.8258054611,
				"z": -1.0877021983,
				"element": "H" 
			},
			{
				"x": 1.2323412219,
				"y": 2.1301863995,
				"z": -1.1297056342,
				"element": "H" 
			},
			{
				"x": 1.4655815152,
				"y": 1.7523970678,
				"z": 1.2473412337,
				"element": "H" 
			},
			{
				"x": -0.2028848553,
				"y": 2.3326494703,
				"z": 1.2912835083,
				"element": "H" 
			},
			{
				"x": 0.4778529657,
				"y": -0.1849002541,
				"z": 2.22679067,
				"element": "H" 
			},
			{
				"x": -1.0786101429,
				"y": 0.0785660328,
				"z": 1.419262606,
				"element": "H" 
			},
			{
				"x": 0.4066722777,
				"y": -1.6704974268,
				"z": 0.1367715494,
				"element": "H" 
			}
		],
		 "valence_orbital": [ 
			{
				"type": "occ",
				"energy": -0.38347,
				"method": "rhf"
			},
			{
				"type": "occ",
				"energy": -0.36218,
				"method": "rhf"
			},
			{
				"type": "occ",
				"energy": -0.33264,
				"method": "rhf"
			},
			{
				"type": "occ",
				"energy": -0.24981,
				"method": "rhf"
			},
			{
				"type": "occ",
				"energy": -0.23702,
				"method": "rhf"
			},
			{
				"type": "unocc",
				"energy": 0.0363,
				"method": "rhf"
			},
			{
				"type": "unocc",
				"energy": 0.07917,
				"method": "rhf"
			},
			{
				"type": "unocc",
				"energy": 0.11034,
				"method": "rhf"
			},
			{
				"type": "unocc",
				"energy": 0.11375,
				"method": "rhf"
			},
			{
				"type": "unocc",
				"energy": 0.13497,
				"method": "rhf"
			}
		],
		"cosmo_sigma_profile": { 
			"-0.025": 0.0,
			"-0.024": 0.0,
			"-0.023": 0.0,
			"-0.022": 0.0,
			"-0.021": 0.0,
			"-0.02": 0.0,
			"-0.019": 0.0,
			"-0.018": 0.0,
			"-0.017": 0.0,
			"-0.016": 0.0,
			"-0.015": 0.0,
			"-0.014": 0.629090556951,
			"-0.013": 1.38341522026,
			"-0.012": 1.00574288578,
			"-0.011": 0.665001363806,
			"-0.01": 1.3009089042,
			"-0.009": 0.870288000252,
			"-0.008": 0.951854322043,
			"-0.007": 1.06360573476,
			"-0.006": 1.24608656486,
			"-0.005": 7.57377591979,
			"-0.004": 16.7709816016,
			"-0.003": 21.6052645272,
			"-0.002": 16.2119042924,
			"-0.001": 10.2980767441,
			"0.0": 7.03659800467,
			"0.001": 3.16185521421,
			"0.002": 2.37777983293,
			"0.003": 1.41888562486,
			"0.004": 2.28551057131,
			"0.005": 2.31067301268,
			"0.006": 1.99813353751,
			"0.007": 0.690894348841,
			"0.008": 1.03395460447,
			"0.009": 1.94582816774,
			"0.01": 1.27379964499,
			"0.011": 1.0794562052,
			"0.012": 1.44001282884,
			"0.013": 3.09787776771,
			"0.014": 6.34858453696,
			"0.015": 3.40369585343,
			"0.016": 0.275946037636,
			"0.017": 0.0,
			"0.018": 0.0,
			"0.019": 0.0,
			"0.02": 0.0,
			"0.021": 0.0,
			"0.022": 0.0,
			"0.023": 0.0,
			"0.024": 0.0,
			"0.025": 0.0
		}
	}
}
