{
	 "smiles": "NC1=C(C=CC(Br)=C1)N1CCOCC1", 
	 "Tm": 427.15, 
	 "num_atms": 27, 
	 "gaussian": { 
		 "optdone": 1, 
		 "sigma_profile": "yes", 
		 "theory": "DFT", 
		 "functional": "B3LYP", 
		 "basiset": "6-31G**", 
		 "properties": { 
			 "R2extent": 5506.3662, 
			 "electric_dipole_moment_norm": 2.27404992909, 
			 "electric_quadrupole_moment_norm": 15.5937761331, 
			 "total_energy": -3145.0016968, 
			 "HOMO_LUMO_gap": 0.19251, 
			 "cosmo_polarized_energy": -10.78, 
			 "cosmo_cavitation_energy": 30.84, 
			 "cosmo_dispersion_energy": -23.3, 
			 "cosmo_repulsion_energy": 1.84, 
			 "cosmo_total_nonelectrostatic_energy": 9.38, 
			 "SMD_solvation_energy": 3.07 
		},
		"coords": [
			{
				"x": -0.7466497416,
				"y": -1.8836582969,
				"z": -1.2340546454,
				"element": "N" 
			},
			{
				"x": -0.9704252101,
				"y": -0.6348160226,
				"z": -0.6508443834,
				"element": "C" 
			},
			{
				"x": 0.1404344029,
				"y": 0.1145085843,
				"z": -0.1770115296,
				"element": "C" 
			},
			{
				"x": -0.0905120082,
				"y": 1.3790238157,
				"z": 0.372470842,
				"element": "C" 
			},
			{
				"x": -1.3798770485,
				"y": 1.9045548101,
				"z": 0.4977855043,
				"element": "C" 
			},
			{
				"x": -2.4532897765,
				"y": 1.1340859985,
				"z": 0.0684253264,
				"element": "C" 
			},
			{
				"x": -4.2347873633,
				"y": 1.8155731563,
				"z": 0.2394927746,
				"element": "Br" 
			},
			{
				"x": -2.2642773727,
				"y": -0.1206557007,
				"z": -0.5052811576,
				"element": "C" 
			},
			{
				"x": 1.4335847939,
				"y": -0.4519488116,
				"z": -0.3392860158,
				"element": "N" 
			},
			{
				"x": 2.5676945944,
				"y": 0.4695603279,
				"z": -0.4303319544,
				"element": "C" 
			},
			{
				"x": 3.8529260179,
				"y": -0.3319917541,
				"z": -0.6015357793,
				"element": "C" 
			},
			{
				"x": 4.1291196235,
				"y": -1.1668571157,
				"z": 0.5238642798,
				"element": "O" 
			},
			{
				"x": 2.9831672318,
				"y": -1.4794721512,
				"z": 1.30960977,
				"element": "C" 
			},
			{
				"x": 1.7316302428,
				"y": -1.6736224594,
				"z": 0.4578341103,
				"element": "C" 
			},
			{
				"x": -1.5016458514,
				"y": -2.2083864336,
				"z": -1.8238118492,
				"element": "H" 
			},
			{
				"x": 0.1516418676,
				"y": -1.9289878669,
				"z": -1.7027422011,
				"element": "H" 
			},
			{
				"x": 0.7464395231,
				"y": 1.974404934,
				"z": 0.7205996418,
				"element": "H" 
			},
			{
				"x": -1.5383711543,
				"y": 2.8847061386,
				"z": 0.9309526965,
				"element": "H" 
			},
			{
				"x": -3.1155276408,
				"y": -0.6905875188,
				"z": -0.862970679,
				"element": "H" 
			},
			{
				"x": 2.4217980583,
				"y": 1.1311066311,
				"z": -1.2916495552,
				"element": "H" 
			},
			{
				"x": 2.6799412699,
				"y": 1.1144937978,
				"z": 0.4575891917,
				"element": "H" 
			},
			{
				"x": 4.7048171786,
				"y": 0.3466619007,
				"z": -0.7199634017,
				"element": "H" 
			},
			{
				"x": 3.7786559279,
				"y": -0.945534429,
				"z": -1.5125513207,
				"element": "H" 
			},
			{
				"x": 3.2166598032,
				"y": -2.4046500041,
				"z": 1.8464938177,
				"element": "H" 
			},
			{
				"x": 2.8042486052,
				"y": -0.6959443017,
				"z": 2.062731941,
				"element": "H" 
			},
			{
				"x": 0.8818817763,
				"y": -1.9091146398,
				"z": 1.1043461485,
				"element": "H" 
			},
			{
				"x": 1.8850222503,
				"y": -2.536352589,
				"z": -0.2035615721,
				"element": "H" 
			}
		],
		 "valence_orbital": [ 
			{
				"type": "occ",
				"energy": -0.27853,
				"method": "rhf"
			},
			{
				"type": "occ",
				"energy": -0.25765,
				"method": "rhf"
			},
			{
				"type": "occ",
				"energy": -0.2502,
				"method": "rhf"
			},
			{
				"type": "occ",
				"energy": -0.22547,
				"method": "rhf"
			},
			{
				"type": "occ",
				"energy": -0.19489,
				"method": "rhf"
			},
			{
				"type": "unocc",
				"energy": -0.00238,
				"method": "rhf"
			},
			{
				"type": "unocc",
				"energy": 0.00802,
				"method": "rhf"
			},
			{
				"type": "unocc",
				"energy": 0.01559,
				"method": "rhf"
			},
			{
				"type": "unocc",
				"energy": 0.07445,
				"method": "rhf"
			},
			{
				"type": "unocc",
				"energy": 0.08316,
				"method": "rhf"
			}
		],
		"cosmo_sigma_profile": { 
			"-0.025": 0.0,
			"-0.024": 0.0,
			"-0.023": 0.0,
			"-0.022": 0.0,
			"-0.021": 0.0,
			"-0.02": 0.0,
			"-0.019": 0.0,
			"-0.018": 0.0,
			"-0.017": 0.0,
			"-0.016": 0.0,
			"-0.015": 0.0,
			"-0.014": 0.0,
			"-0.013": 0.263228092034,
			"-0.012": 1.61568581029,
			"-0.011": 1.5132165848,
			"-0.01": 2.37431180901,
			"-0.009": 2.19037333596,
			"-0.008": 2.93161578661,
			"-0.007": 3.38228112009,
			"-0.006": 6.24005635177,
			"-0.005": 16.1503096585,
			"-0.004": 27.0379028986,
			"-0.003": 27.2236045693,
			"-0.002": 20.5136068261,
			"-0.001": 14.6885544485,
			"0.0": 13.1640534226,
			"0.001": 9.32969966506,
			"0.002": 13.4450201222,
			"0.003": 16.3349164574,
			"0.004": 20.500573505,
			"0.005": 24.159885618,
			"0.006": 7.93976454284,
			"0.007": 1.76960810485,
			"0.008": 2.72723093264,
			"0.009": 2.30406247755,
			"0.01": 1.22608590742,
			"0.011": 0.977617244618,
			"0.012": 2.55045304894,
			"0.013": 2.20336383923,
			"0.014": 1.18735028105,
			"0.015": 0.0,
			"0.016": 0.0,
			"0.017": 0.0,
			"0.018": 0.0,
			"0.019": 0.0,
			"0.02": 0.0,
			"0.021": 0.0,
			"0.022": 0.0,
			"0.023": 0.0,
			"0.024": 0.0,
			"0.025": 0.0
		}
	}
}
