{
	 "smiles": "OC(=O)C(F)(F)C(F)(F)C(F)(F)C(F)(F)C(F)(F)C(F)(F)C(F)(F)C(F)(F)C(F)(F)C(F)(F)C(F)(F)C(F)(F)C(F)(F)F", 
	 "Tm": 403.15, 
	 "num_atms": 44, 
	 "gaussian": { 
		 "optdone": 1, 
		 "sigma_profile": "yes", 
		 "theory": "DFT", 
		 "functional": "B3LYP", 
		 "basiset": "6-31G**", 
		 "properties": { 
			 "R2extent": 25989.7897, 
			 "electric_dipole_moment_norm": 2.13846396509, 
			 "electric_quadrupole_moment_norm": 14.3892055778, 
			 "total_energy": -3380.10322056, 
			 "HOMO_LUMO_gap": 0.27059, 
			 "cosmo_polarized_energy": -8.91, 
			 "cosmo_cavitation_energy": 57.85, 
			 "cosmo_dispersion_energy": -36.14, 
			 "cosmo_repulsion_energy": 2.24, 
			 "cosmo_total_nonelectrostatic_energy": 23.96, 
			 "SMD_solvation_energy": 18.8 
		},
		"coords": [
			{
				"x": 2.5525500177,
				"y": -2.6687877693,
				"z": -4.6534648352,
				"element": "O" 
			},
			{
				"x": 3.0637319892,
				"y": -1.4426631618,
				"z": -4.4808153525,
				"element": "C" 
			},
			{
				"x": 3.9526579721,
				"y": -1.1468323264,
				"z": -3.7276310631,
				"element": "O" 
			},
			{
				"x": 2.3925545246,
				"y": -0.4285112355,
				"z": -5.4375503556,
				"element": "C" 
			},
			{
				"x": 3.0065689411,
				"y": 0.7630804264,
				"z": -5.2932306219,
				"element": "F" 
			},
			{
				"x": 2.5717857924,
				"y": -0.8692590063,
				"z": -6.7108633334,
				"element": "F" 
			},
			{
				"x": 0.8610760286,
				"y": -0.1986616334,
				"z": -5.2687270033,
				"element": "C" 
			},
			{
				"x": 0.2188659884,
				"y": -1.3768212147,
				"z": -5.4391565656,
				"element": "F" 
			},
			{
				"x": 0.4766285018,
				"y": 0.6568078774,
				"z": -6.241187017,
				"element": "F" 
			},
			{
				"x": 0.4580241136,
				"y": 0.404914459,
				"z": -3.8956617274,
				"element": "C" 
			},
			{
				"x": 0.8682311911,
				"y": 1.6890258349,
				"z": -3.8524923332,
				"element": "F" 
			},
			{
				"x": 1.1035029877,
				"y": -0.3003554567,
				"z": -2.9243423717,
				"element": "F" 
			},
			{
				"x": -1.0653049385,
				"y": 0.3394722217,
				"z": -3.5943764908,
				"element": "C" 
			},
			{
				"x": -1.7333290936,
				"y": 0.750375808,
				"z": -4.6993029241,
				"element": "F" 
			},
			{
				"x": -1.402732525,
				"y": -0.9389803582,
				"z": -3.327555974,
				"element": "F" 
			},
			{
				"x": -1.5866985519,
				"y": 1.2436143869,
				"z": -2.427158454,
				"element": "C" 
			},
			{
				"x": -2.9059882333,
				"y": 0.9563212379,
				"z": -2.304616022,
				"element": "F" 
			},
			{
				"x": -1.4465320049,
				"y": 2.5324197585,
				"z": -2.7965937755,
				"element": "F" 
			},
			{
				"x": -0.9148537842,
				"y": 1.0378828368,
				"z": -1.0388253794,
				"element": "C" 
			},
			{
				"x": -0.7838511885,
				"y": -0.2903135477,
				"z": -0.8154335761,
				"element": "F" 
			},
			{
				"x": 0.3110069187,
				"y": 1.6096264028,
				"z": -1.0791472092,
				"element": "F" 
			},
			{
				"x": -1.7355957618,
				"y": 1.647507404,
				"z": 0.1385082724,
				"element": "C" 
			},
			{
				"x": -2.7378763193,
				"y": 0.796770216,
				"z": 0.4418249796,
				"element": "F" 
			},
			{
				"x": -2.263378227,
				"y": 2.8255876756,
				"z": -0.2747918463,
				"element": "F" 
			},
			{
				"x": -0.9714317562,
				"y": 1.9903249594,
				"z": 1.4633531293,
				"element": "C" 
			},
			{
				"x": -1.9171062545,
				"y": 2.4928511582,
				"z": 2.2903370274,
				"element": "F" 
			},
			{
				"x": -0.0584820764,
				"y": 2.9504358172,
				"z": 1.2015146782,
				"element": "F" 
			},
			{
				"x": -0.2681621123,
				"y": 0.8118070402,
				"z": 2.1901829897,
				"element": "C" 
			},
			{
				"x": -1.2058639902,
				"y": -0.1039394162,
				"z": 2.5194225465,
				"element": "F" 
			},
			{
				"x": 0.6238063369,
				"y": 0.2534232202,
				"z": 1.333888972,
				"element": "F" 
			},
			{
				"x": 0.5202077703,
				"y": 1.2241263105,
				"z": 3.4674929524,
				"element": "C" 
			},
			{
				"x": 1.6123318123,
				"y": 1.9205221682,
				"z": 3.0899318193,
				"element": "F" 
			},
			{
				"x": -0.263057581,
				"y": 2.0172014716,
				"z": 4.2352094723,
				"element": "F" 
			},
			{
				"x": 0.977036737,
				"y": 0.056989349,
				"z": 4.4045721501,
				"element": "C" 
			},
			{
				"x": -0.1213325329,
				"y": -0.5049147051,
				"z": 4.9518191206,
				"element": "F" 
			},
			{
				"x": 1.7055719706,
				"y": 0.6434993297,
				"z": 5.3864699107,
				"element": "F" 
			},
			{
				"x": 1.8397009642,
				"y": -1.0627101008,
				"z": 3.7682018655,
				"element": "C" 
			},
			{
				"x": 2.7948140545,
				"y": -0.5094388663,
				"z": 2.9876658342,
				"element": "F" 
			},
			{
				"x": 1.0342242331,
				"y": -1.8410854995,
				"z": 3.008630839,
				"element": "F" 
			},
			{
				"x": 2.5497613766,
				"y": -1.9836437067,
				"z": 4.7966759643,
				"element": "C" 
			},
			{
				"x": 3.5362380315,
				"y": -1.3264191905,
				"z": 5.4130234015,
				"element": "F" 
			},
			{
				"x": 1.6764519705,
				"y": -2.427031655,
				"z": 5.7101675664,
				"element": "F" 
			},
			{
				"x": 3.0682219879,
				"y": -3.0326119339,
				"z": 4.1474079848,
				"element": "F" 
			},
			{
				"x": 3.0297247192,
				"y": -3.2643065857,
				"z": -4.0499772447,
				"element": "H" 
			}
		],
		 "valence_orbital": [ 
			{
				"type": "occ",
				"energy": -0.36475,
				"method": "rhf"
			},
			{
				"type": "occ",
				"energy": -0.35675,
				"method": "rhf"
			},
			{
				"type": "occ",
				"energy": -0.35178,
				"method": "rhf"
			},
			{
				"type": "occ",
				"energy": -0.3438,
				"method": "rhf"
			},
			{
				"type": "occ",
				"energy": -0.3128,
				"method": "rhf"
			},
			{
				"type": "unocc",
				"energy": -0.04221,
				"method": "rhf"
			},
			{
				"type": "unocc",
				"energy": -0.00347,
				"method": "rhf"
			},
			{
				"type": "unocc",
				"energy": -0.00038,
				"method": "rhf"
			},
			{
				"type": "unocc",
				"energy": 0.01212,
				"method": "rhf"
			},
			{
				"type": "unocc",
				"energy": 0.01624,
				"method": "rhf"
			}
		],
		"cosmo_sigma_profile": { 
			"-0.025": 0.0,
			"-0.024": 0.0,
			"-0.023": 0.0,
			"-0.022": 0.0,
			"-0.021": 0.251328150034,
			"-0.02": 1.205439544,
			"-0.019": 0.993411343638,
			"-0.018": 1.31888284749,
			"-0.017": 0.248999270802,
			"-0.016": 0.152349995479,
			"-0.015": 0.984702916243,
			"-0.014": 1.61401691889,
			"-0.013": 0.680567656667,
			"-0.012": 0.284489313767,
			"-0.011": 0.502128855378,
			"-0.01": 0.67765273274,
			"-0.009": 1.33297185397,
			"-0.008": 1.12168792552,
			"-0.007": 1.12264865338,
			"-0.006": 1.60500355483,
			"-0.005": 3.33771220214,
			"-0.004": 7.21931268681,
			"-0.003": 13.4721727452,
			"-0.002": 25.2533127328,
			"-0.001": 47.5253843586,
			"0.0": 137.365382986,
			"0.001": 170.229775664,
			"0.002": 19.3463934342,
			"0.003": 5.27572428062,
			"0.004": 3.67764596596,
			"0.005": 3.22913608385,
			"0.006": 3.3921265455,
			"0.007": 2.34237805305,
			"0.008": 2.40446325375,
			"0.009": 4.6981360392,
			"0.01": 2.07754281363,
			"0.011": 0.0,
			"0.012": 0.0,
			"0.013": 0.0,
			"0.014": 0.0,
			"0.015": 0.0,
			"0.016": 0.0,
			"0.017": 0.0,
			"0.018": 0.0,
			"0.019": 0.0,
			"0.02": 0.0,
			"0.021": 0.0,
			"0.022": 0.0,
			"0.023": 0.0,
			"0.024": 0.0,
			"0.025": 0.0
		}
	}
}
