{
	 "smiles": "OC1N=C(C2=CC=CC=C2Cl)C2=CC(Cl)=CC=C2NC1=O", 
	 "Tm": 439.15, 
	 "num_atms": 31, 
	 "gaussian": { 
		 "optdone": 1, 
		 "sigma_profile": "yes", 
		 "theory": "DFT", 
		 "functional": "B3LYP", 
		 "basiset": "6-31G**", 
		 "properties": { 
			 "R2extent": 6970.2452, 
			 "electric_dipole_moment_norm": 3.27993184838, 
			 "electric_quadrupole_moment_norm": 25.2173636068, 
			 "total_energy": -1757.95541496, 
			 "HOMO_LUMO_gap": 0.17666, 
			 "cosmo_polarized_energy": -18.06, 
			 "cosmo_cavitation_energy": 38.84, 
			 "cosmo_dispersion_energy": -27.25, 
			 "cosmo_repulsion_energy": 2.1, 
			 "cosmo_total_nonelectrostatic_energy": 13.69, 
			 "SMD_solvation_energy": 4.02 
		},
		"coords": [
			{
				"x": 3.3032917237,
				"y": -3.1036427645,
				"z": 1.3069251516,
				"element": "O" 
			},
			{
				"x": 2.0246631892,
				"y": -2.5842363482,
				"z": 1.1623886656,
				"element": "C" 
			},
			{
				"x": 2.05232925,
				"y": -1.1811832361,
				"z": 0.7733119503,
				"element": "N" 
			},
			{
				"x": 0.9766078784,
				"y": -0.6107617078,
				"z": 0.3678400175,
				"element": "C" 
			},
			{
				"x": 1.1259328276,
				"y": 0.7899849969,
				"z": -0.1465756698,
				"element": "C" 
			},
			{
				"x": 2.1330568067,
				"y": 1.0389691848,
				"z": -1.094127502,
				"element": "C" 
			},
			{
				"x": 2.3373564167,
				"y": 2.3103005032,
				"z": -1.6225885185,
				"element": "C" 
			},
			{
				"x": 1.5378131004,
				"y": 3.3726953717,
				"z": -1.1984872591,
				"element": "C" 
			},
			{
				"x": 0.5479805157,
				"y": 3.1611199711,
				"z": -0.2401044842,
				"element": "C" 
			},
			{
				"x": 0.349164743,
				"y": 1.8808648548,
				"z": 0.2773632688,
				"element": "C" 
			},
			{
				"x": -0.864455443,
				"y": 1.6970182648,
				"z": 1.5403879081,
				"element": "Cl" 
			},
			{
				"x": -0.3656458884,
				"y": -1.2549716265,
				"z": 0.2980075443,
				"element": "C" 
			},
			{
				"x": -1.2090649232,
				"y": -0.9708374262,
				"z": -0.7897352386,
				"element": "C" 
			},
			{
				"x": -2.4826788776,
				"y": -1.516522009,
				"z": -0.8619533166,
				"element": "C" 
			},
			{
				"x": -3.5061194545,
				"y": -1.1573631835,
				"z": -2.2408625598,
				"element": "Cl" 
			},
			{
				"x": -2.9643460533,
				"y": -2.3424936186,
				"z": 0.1568723619,
				"element": "C" 
			},
			{
				"x": -2.1383757822,
				"y": -2.6386417682,
				"z": 1.2324968051,
				"element": "C" 
			},
			{
				"x": -0.8378210894,
				"y": -2.1181063548,
				"z": 1.3129442826,
				"element": "C" 
			},
			{
				"x": -0.0691881443,
				"y": -2.4241327771,
				"z": 2.451640294,
				"element": "N" 
			},
			{
				"x": 1.2774176676,
				"y": -2.6865871568,
				"z": 2.5023204331,
				"element": "C" 
			},
			{
				"x": 1.8580732243,
				"y": -2.9711984416,
				"z": 3.5378761172,
				"element": "O" 
			},
			{
				"x": 3.5004725762,
				"y": -3.0668527451,
				"z": 2.2593931268,
				"element": "H" 
			},
			{
				"x": 1.4914713451,
				"y": -3.1789038766,
				"z": 0.4033333838,
				"element": "H" 
			},
			{
				"x": 2.7550634838,
				"y": 0.2051304725,
				"z": -1.4017077969,
				"element": "H" 
			},
			{
				"x": 3.1180941947,
				"y": 2.4709500766,
				"z": -2.3593812714,
				"element": "H" 
			},
			{
				"x": 1.6865678742,
				"y": 4.3695769264,
				"z": -1.602329047,
				"element": "H" 
			},
			{
				"x": -0.0635785059,
				"y": 3.9811197833,
				"z": 0.1193731898,
				"element": "H" 
			},
			{
				"x": -0.8601254188,
				"y": -0.3082323515,
				"z": -1.5731593972,
				"element": "H" 
			},
			{
				"x": -3.9656022973,
				"y": -2.7541604085,
				"z": 0.0998648455,
				"element": "H" 
			},
			{
				"x": -2.4967437041,
				"y": -3.291901966,
				"z": 2.0229546352,
				"element": "H" 
			},
			{
				"x": -0.5593112352,
				"y": -2.6008006396,
				"z": 3.32021808,
				"element": "H" 
			}
		],
		 "valence_orbital": [ 
			{
				"type": "occ",
				"energy": -0.28045,
				"method": "rhf"
			},
			{
				"type": "occ",
				"energy": -0.26481,
				"method": "rhf"
			},
			{
				"type": "occ",
				"energy": -0.25997,
				"method": "rhf"
			},
			{
				"type": "occ",
				"energy": -0.25297,
				"method": "rhf"
			},
			{
				"type": "occ",
				"energy": -0.24374,
				"method": "rhf"
			},
			{
				"type": "unocc",
				"energy": -0.06708,
				"method": "rhf"
			},
			{
				"type": "unocc",
				"energy": -0.04014,
				"method": "rhf"
			},
			{
				"type": "unocc",
				"energy": -0.03313,
				"method": "rhf"
			},
			{
				"type": "unocc",
				"energy": -0.01932,
				"method": "rhf"
			},
			{
				"type": "unocc",
				"energy": 0.00499,
				"method": "rhf"
			}
		],
		"cosmo_sigma_profile": { 
			"-0.025": 0.0,
			"-0.024": 0.0,
			"-0.023": 0.0,
			"-0.022": 0.0,
			"-0.021": 0.0,
			"-0.02": 0.0,
			"-0.019": 0.0,
			"-0.018": 0.0,
			"-0.017": 0.121960821394,
			"-0.016": 1.03184497011,
			"-0.015": 1.35816697601,
			"-0.014": 1.21997805022,
			"-0.013": 1.12872274504,
			"-0.012": 1.70100825607,
			"-0.011": 1.65957264543,
			"-0.01": 1.6551651638,
			"-0.009": 2.39055645424,
			"-0.008": 6.19429473017,
			"-0.007": 13.7965116985,
			"-0.006": 17.2041215647,
			"-0.005": 17.5022495816,
			"-0.004": 16.2699270279,
			"-0.003": 16.5319506719,
			"-0.002": 18.1041203018,
			"-0.001": 19.1762048132,
			"0.0": 24.6867125787,
			"0.001": 31.2204457173,
			"0.002": 30.2697629634,
			"0.003": 26.4565985373,
			"0.004": 24.357677239,
			"0.005": 8.08539989078,
			"0.006": 3.18581386201,
			"0.007": 3.65739004262,
			"0.008": 2.94505541157,
			"0.009": 3.11641246618,
			"0.01": 4.0180655536,
			"0.011": 6.32295765409,
			"0.012": 4.7430001538,
			"0.013": 3.00357793579,
			"0.014": 1.90749310239,
			"0.015": 0.985755014088,
			"0.016": 0.00658267422388,
			"0.017": 0.0,
			"0.018": 0.0,
			"0.019": 0.0,
			"0.02": 0.0,
			"0.021": 0.0,
			"0.022": 0.0,
			"0.023": 0.0,
			"0.024": 0.0,
			"0.025": 0.0
		}
	}
}
