{
	 "smiles": "NCC1(O)CC2=C(C1)C=CC=C2", 
	 "Tm": 338.15, 
	 "num_atms": 25, 
	 "gaussian": { 
		 "optdone": 1, 
		 "sigma_profile": "yes", 
		 "theory": "DFT", 
		 "functional": "B3LYP", 
		 "basiset": "6-31G**", 
		 "properties": { 
			 "R2extent": 2637.3766, 
			 "electric_dipole_moment_norm": 1.29602836775, 
			 "electric_quadrupole_moment_norm": 10.2691866582, 
			 "total_energy": -518.870864117, 
			 "HOMO_LUMO_gap": 0.23146, 
			 "cosmo_polarized_energy": -12.76, 
			 "cosmo_cavitation_energy": 26.84, 
			 "cosmo_dispersion_energy": -19.67, 
			 "cosmo_repulsion_energy": 1.56, 
			 "cosmo_total_nonelectrostatic_energy": 8.73, 
			 "SMD_solvation_energy": 2.54 
		},
		"coords": [
			{
				"x": 4.0927593617,
				"y": 1.4641123818,
				"z": -0.7749113836,
				"element": "N" 
			},
			{
				"x": 3.3432086289,
				"y": 1.0480467011,
				"z": 0.4098741719,
				"element": "C" 
			},
			{
				"x": 1.8293712606,
				"y": 1.3339893776,
				"z": 0.3994896195,
				"element": "C" 
			},
			{
				"x": 1.6009497391,
				"y": 2.73723305,
				"z": 0.2106548926,
				"element": "O" 
			},
			{
				"x": 1.1415125034,
				"y": 0.9882677605,
				"z": 1.7428947327,
				"element": "C" 
			},
			{
				"x": -0.2583060908,
				"y": 0.5760188413,
				"z": 1.3483697577,
				"element": "C" 
			},
			{
				"x": -0.3218686594,
				"y": 0.3116142277,
				"z": -0.0261797413,
				"element": "C" 
			},
			{
				"x": 1.0339520723,
				"y": 0.5167759727,
				"z": -0.6642644179,
				"element": "C" 
			},
			{
				"x": -1.5171229454,
				"y": -0.0969825308,
				"z": -0.6140514297,
				"element": "C" 
			},
			{
				"x": -2.6546503079,
				"y": -0.2402411087,
				"z": 0.186972289,
				"element": "C" 
			},
			{
				"x": -2.5915344726,
				"y": 0.0226363755,
				"z": 1.558572151,
				"element": "C" 
			},
			{
				"x": -1.3908544424,
				"y": 0.4323993074,
				"z": 2.1472243059,
				"element": "C" 
			},
			{
				"x": 4.0436727969,
				"y": 2.472608907,
				"z": -0.8915241363,
				"element": "H" 
			},
			{
				"x": 3.7211998527,
				"y": 1.0340539464,
				"z": -1.618239689,
				"element": "H" 
			},
			{
				"x": 3.5058422178,
				"y": -0.0267308377,
				"z": 0.5596153535,
				"element": "H" 
			},
			{
				"x": 3.7809538577,
				"y": 1.5600246874,
				"z": 1.2748201787,
				"element": "H" 
			},
			{
				"x": 1.8672972347,
				"y": 2.954262353,
				"z": -0.6928182967,
				"element": "H" 
			},
			{
				"x": 1.1745818204,
				"y": 1.8537243952,
				"z": 2.4118149791,
				"element": "H" 
			},
			{
				"x": 1.6678191588,
				"y": 0.163382533,
				"z": 2.2436393264,
				"element": "H" 
			},
			{
				"x": 1.5207707064,
				"y": -0.4508205995,
				"z": -0.8547228321,
				"element": "H" 
			},
			{
				"x": 0.9833939989,
				"y": 1.0403641498,
				"z": -1.6270085938,
				"element": "H" 
			},
			{
				"x": -1.5710736884,
				"y": -0.2986758767,
				"z": -1.6811432159,
				"element": "H" 
			},
			{
				"x": -3.5940538494,
				"y": -0.5530227437,
				"z": -0.2602598081,
				"element": "H" 
			},
			{
				"x": -3.4826429389,
				"y": -0.0868466281,
				"z": 2.1703839307,
				"element": "H" 
			},
			{
				"x": -1.3475778152,
				"y": 0.6418053579,
				"z": 3.2130978559,
				"element": "H" 
			}
		],
		 "valence_orbital": [ 
			{
				"type": "occ",
				"energy": -0.31708,
				"method": "rhf"
			},
			{
				"type": "occ",
				"energy": -0.27673,
				"method": "rhf"
			},
			{
				"type": "occ",
				"energy": -0.2414,
				"method": "rhf"
			},
			{
				"type": "occ",
				"energy": -0.23468,
				"method": "rhf"
			},
			{
				"type": "occ",
				"energy": -0.23106,
				"method": "rhf"
			},
			{
				"type": "unocc",
				"energy": 0.0004,
				"method": "rhf"
			},
			{
				"type": "unocc",
				"energy": 0.00836,
				"method": "rhf"
			},
			{
				"type": "unocc",
				"energy": 0.05468,
				"method": "rhf"
			},
			{
				"type": "unocc",
				"energy": 0.10168,
				"method": "rhf"
			},
			{
				"type": "unocc",
				"energy": 0.10827,
				"method": "rhf"
			}
		],
		"cosmo_sigma_profile": { 
			"-0.025": 0.0,
			"-0.024": 0.0,
			"-0.023": 0.0,
			"-0.022": 0.0,
			"-0.021": 0.0,
			"-0.02": 0.0,
			"-0.019": 0.0,
			"-0.018": 0.0,
			"-0.017": 0.0,
			"-0.016": 0.0,
			"-0.015": 0.0972072628555,
			"-0.014": 1.04090192739,
			"-0.013": 1.13725726637,
			"-0.012": 1.50580862373,
			"-0.011": 2.19821089018,
			"-0.01": 1.6982553022,
			"-0.009": 3.40442947735,
			"-0.008": 3.56832012523,
			"-0.007": 3.7710424018,
			"-0.006": 4.48778053216,
			"-0.005": 11.5647058553,
			"-0.004": 21.1357403823,
			"-0.003": 23.1464551291,
			"-0.002": 20.6749901054,
			"-0.001": 18.7050436036,
			"0.0": 12.1044956721,
			"0.001": 8.80801583964,
			"0.002": 8.64907528662,
			"0.003": 8.0213400259,
			"0.004": 9.05178986612,
			"0.005": 8.79054410439,
			"0.006": 8.67554656165,
			"0.007": 8.35227188973,
			"0.008": 2.98076773263,
			"0.009": 1.94400935114,
			"0.01": 2.38803248552,
			"0.011": 1.89502378215,
			"0.012": 2.00864689126,
			"0.013": 2.1128296132,
			"0.014": 2.45782624591,
			"0.015": 1.02984721716,
			"0.016": 0.581214237475,
			"0.017": 0.667037441827,
			"0.018": 0.467733516113,
			"0.019": 0.760208154657,
			"0.02": 0.0593711678653,
			"0.021": 0.0,
			"0.022": 0.0,
			"0.023": 0.0,
			"0.024": 0.0,
			"0.025": 0.0
		}
	}
}
