{
	 "smiles": "CCCC(=O)NC1=CC=C(O)C=C1", 
	 "Tm": 413.15, 
	 "num_atms": 26, 
	 "gaussian": { 
		 "optdone": 1, 
		 "sigma_profile": "yes", 
		 "theory": "DFT", 
		 "functional": "B3LYP", 
		 "basiset": "6-31G**", 
		 "properties": { 
			 "R2extent": 3703.7374, 
			 "electric_dipole_moment_norm": 1.95199316853, 
			 "electric_quadrupole_moment_norm": 17.2857017931, 
			 "total_energy": -594.121094296, 
			 "HOMO_LUMO_gap": 0.19803, 
			 "cosmo_polarized_energy": -16.02, 
			 "cosmo_cavitation_energy": 29.44, 
			 "cosmo_dispersion_energy": -21.56, 
			 "cosmo_repulsion_energy": 1.72, 
			 "cosmo_total_nonelectrostatic_energy": 9.61, 
			 "SMD_solvation_energy": 5.64 
		},
		"coords": [
			{
				"x": -2.7221032976,
				"y": -3.0743972024,
				"z": -0.613753611,
				"element": "C" 
			},
			{
				"x": -3.1610298961,
				"y": -1.6175609084,
				"z": -0.4368729354,
				"element": "C" 
			},
			{
				"x": -2.4950372085,
				"y": -0.8992037088,
				"z": 0.7597001429,
				"element": "C" 
			},
			{
				"x": -0.9918290725,
				"y": -0.7196089203,
				"z": 0.5698701655,
				"element": "C" 
			},
			{
				"x": -0.1998342859,
				"y": -1.6377488448,
				"z": 0.7553768668,
				"element": "O" 
			},
			{
				"x": -0.6227067054,
				"y": 0.5346295534,
				"z": 0.1386716565,
				"element": "N" 
			},
			{
				"x": 0.6656844462,
				"y": 1.0216437725,
				"z": -0.1836290433,
				"element": "C" 
			},
			{
				"x": 1.8279693187,
				"y": 0.2413872249,
				"z": -0.1101469873,
				"element": "C" 
			},
			{
				"x": 3.0601995112,
				"y": 0.8016096398,
				"z": -0.4471188161,
				"element": "C" 
			},
			{
				"x": 3.1580543667,
				"y": 2.1330059081,
				"z": -0.8588375975,
				"element": "C" 
			},
			{
				"x": 4.3443032463,
				"y": 2.7249850587,
				"z": -1.1990196043,
				"element": "O" 
			},
			{
				"x": 1.9998789397,
				"y": 2.9135359257,
				"z": -0.9329086179,
				"element": "C" 
			},
			{
				"x": 0.770596139,
				"y": 2.3593021416,
				"z": -0.5976699432,
				"element": "C" 
			},
			{
				"x": -2.9866096762,
				"y": -3.6711619823,
				"z": 0.2662134026,
				"element": "H" 
			},
			{
				"x": -3.2134296731,
				"y": -3.5228343074,
				"z": -1.4834601762,
				"element": "H" 
			},
			{
				"x": -1.6405075209,
				"y": -3.1516676636,
				"z": -0.7471166046,
				"element": "H" 
			},
			{
				"x": -2.9540039893,
				"y": -1.0509153081,
				"z": -1.3543726074,
				"element": "H" 
			},
			{
				"x": -4.2474335258,
				"y": -1.5759480707,
				"z": -0.2909488451,
				"element": "H" 
			},
			{
				"x": -2.630545716,
				"y": -1.4963003017,
				"z": 1.6672086476,
				"element": "H" 
			},
			{
				"x": -2.9867029608,
				"y": 0.067223334,
				"z": 0.9268099878,
				"element": "H" 
			},
			{
				"x": -1.3685676652,
				"y": 1.2067173491,
				"z": 0.0340464021,
				"element": "H" 
			},
			{
				"x": 1.7551100426,
				"y": -0.7883571885,
				"z": 0.2091200007,
				"element": "H" 
			},
			{
				"x": 3.9556415797,
				"y": 0.18609011,
				"z": -0.3857857914,
				"element": "H" 
			},
			{
				"x": 5.0559628516,
				"y": 2.0791753646,
				"z": -1.1030314774,
				"element": "H" 
			},
			{
				"x": 2.0784386643,
				"y": 3.9471015931,
				"z": -1.2528274762,
				"element": "H" 
			},
			{
				"x": -0.1233979125,
				"y": 2.9764974312,
				"z": -0.659017138,
				"element": "H" 
			}
		],
		 "valence_orbital": [ 
			{
				"type": "occ",
				"energy": -0.32981,
				"method": "rhf"
			},
			{
				"type": "occ",
				"energy": -0.28437,
				"method": "rhf"
			},
			{
				"type": "occ",
				"energy": -0.25232,
				"method": "rhf"
			},
			{
				"type": "occ",
				"energy": -0.24548,
				"method": "rhf"
			},
			{
				"type": "occ",
				"energy": -0.20081,
				"method": "rhf"
			},
			{
				"type": "unocc",
				"energy": -0.00278,
				"method": "rhf"
			},
			{
				"type": "unocc",
				"energy": -0.00265,
				"method": "rhf"
			},
			{
				"type": "unocc",
				"energy": 0.04987,
				"method": "rhf"
			},
			{
				"type": "unocc",
				"energy": 0.06463,
				"method": "rhf"
			},
			{
				"type": "unocc",
				"energy": 0.07556,
				"method": "rhf"
			}
		],
		"cosmo_sigma_profile": { 
			"-0.025": 0.0,
			"-0.024": 0.0,
			"-0.023": 0.0,
			"-0.022": 0.0,
			"-0.021": 0.0,
			"-0.02": 0.0,
			"-0.019": 0.0,
			"-0.018": 0.142571983069,
			"-0.017": 0.981999761019,
			"-0.016": 1.11775648909,
			"-0.015": 1.69162140211,
			"-0.014": 2.48470439817,
			"-0.013": 2.45716779262,
			"-0.012": 2.29145593734,
			"-0.011": 2.02430857718,
			"-0.01": 2.66303306873,
			"-0.009": 3.11684573635,
			"-0.008": 2.60309024213,
			"-0.007": 3.60944582904,
			"-0.006": 6.33174889092,
			"-0.005": 8.09848820269,
			"-0.004": 10.4426633805,
			"-0.003": 18.0113625733,
			"-0.002": 20.8297995803,
			"-0.001": 20.3306701986,
			"0.0": 19.1769688217,
			"0.001": 15.8961553878,
			"0.002": 12.4428056607,
			"0.003": 13.4329666228,
			"0.004": 14.8410756466,
			"0.005": 14.7847424868,
			"0.006": 7.04895052244,
			"0.007": 4.0295037703,
			"0.008": 3.42688382221,
			"0.009": 3.36224177835,
			"0.01": 2.94163765286,
			"0.011": 3.69535983513,
			"0.012": 2.96559838662,
			"0.013": 2.65128876159,
			"0.014": 1.81127443373,
			"0.015": 0.328265707258,
			"0.016": 0.0,
			"0.017": 0.0,
			"0.018": 0.0,
			"0.019": 0.0,
			"0.02": 0.0,
			"0.021": 0.0,
			"0.022": 0.0,
			"0.023": 0.0,
			"0.024": 0.0,
			"0.025": 0.0
		}
	}
}
