{
	 "smiles": "NC1=C(Br)N=CC(Br)=C1", 
	 "Tm": 411.15, 
	 "num_atms": 13, 
	 "gaussian": { 
		 "optdone": 1, 
		 "sigma_profile": "yes", 
		 "theory": "DFT", 
		 "functional": "B3LYP", 
		 "basiset": "6-31G**", 
		 "properties": { 
			 "R2extent": 4419.8318, 
			 "electric_dipole_moment_norm": 3.40932455774, 
			 "electric_quadrupole_moment_norm": 10.1936399583, 
			 "total_energy": -5445.25071564, 
			 "HOMO_LUMO_gap": 0.18809, 
			 "cosmo_polarized_energy": -9.67, 
			 "cosmo_cavitation_energy": 21.96, 
			 "cosmo_dispersion_energy": -17.49, 
			 "cosmo_repulsion_energy": 1.44, 
			 "cosmo_total_nonelectrostatic_energy": 5.9, 
			 "SMD_solvation_energy": 0.19 
		},
		"coords": [
			{
				"x": 2.8386788536,
				"y": -0.8878926129,
				"z": -1.6567111486,
				"element": "N" 
			},
			{
				"x": 2.0286311111,
				"y": -0.0401225939,
				"z": -0.9392882437,
				"element": "C" 
			},
			{
				"x": 1.6757585356,
				"y": 1.2531777323,
				"z": -1.3938852316,
				"element": "C" 
			},
			{
				"x": 2.2983158914,
				"y": 1.8095815868,
				"z": -3.135825809,
				"element": "Br" 
			},
			{
				"x": 0.9479973511,
				"y": 2.1126245268,
				"z": -0.7247786642,
				"element": "N" 
			},
			{
				"x": 0.4791177544,
				"y": 1.7815644248,
				"z": 0.4839005632,
				"element": "C" 
			},
			{
				"x": 0.7574483662,
				"y": 0.5307858868,
				"z": 1.0312796664,
				"element": "C" 
			},
			{
				"x": 0.0732305123,
				"y": 0.0775605275,
				"z": 2.751164288,
				"element": "Br" 
			},
			{
				"x": 1.5296354877,
				"y": -0.386083279,
				"z": 0.3282077521,
				"element": "C" 
			},
			{
				"x": 2.9583004606,
				"y": -0.6729196841,
				"z": -2.6364899605,
				"element": "H" 
			},
			{
				"x": 2.7935164048,
				"y": -1.8702699558,
				"z": -1.4324883443,
				"element": "H" 
			},
			{
				"x": -0.1205494748,
				"y": 2.5162815493,
				"z": 1.0103520476,
				"element": "H" 
			},
			{
				"x": 1.753418746,
				"y": -1.3589881086,
				"z": 0.7529630845,
				"element": "H" 
			}
		],
		 "valence_orbital": [ 
			{
				"type": "occ",
				"energy": -0.30095,
				"method": "rhf"
			},
			{
				"type": "occ",
				"energy": -0.29793,
				"method": "rhf"
			},
			{
				"type": "occ",
				"energy": -0.27522,
				"method": "rhf"
			},
			{
				"type": "occ",
				"energy": -0.26451,
				"method": "rhf"
			},
			{
				"type": "occ",
				"energy": -0.2275,
				"method": "rhf"
			},
			{
				"type": "unocc",
				"energy": -0.03941,
				"method": "rhf"
			},
			{
				"type": "unocc",
				"energy": -0.01682,
				"method": "rhf"
			},
			{
				"type": "unocc",
				"energy": -0.0018,
				"method": "rhf"
			},
			{
				"type": "unocc",
				"energy": 0.00352,
				"method": "rhf"
			},
			{
				"type": "unocc",
				"energy": 0.07016,
				"method": "rhf"
			}
		],
		"cosmo_sigma_profile": { 
			"-0.025": 0.0,
			"-0.024": 0.0,
			"-0.023": 0.0,
			"-0.022": 0.0,
			"-0.021": 0.0,
			"-0.02": 0.0,
			"-0.019": 0.0,
			"-0.018": 0.0,
			"-0.017": 0.0,
			"-0.016": 0.0,
			"-0.015": 0.23788575205,
			"-0.014": 1.48005796227,
			"-0.013": 1.98221538398,
			"-0.012": 1.78412116765,
			"-0.011": 3.11846738529,
			"-0.01": 2.60352149825,
			"-0.009": 3.04485961699,
			"-0.008": 3.54473536345,
			"-0.007": 4.40869139878,
			"-0.006": 4.04365600057,
			"-0.005": 5.46479651935,
			"-0.004": 7.09831200619,
			"-0.003": 7.90875567737,
			"-0.002": 8.27672186468,
			"-0.001": 12.4867580304,
			"0.0": 20.0929666673,
			"0.001": 20.8643108151,
			"0.002": 16.54005933,
			"0.003": 15.1377336657,
			"0.004": 21.3196570358,
			"0.005": 6.59995358016,
			"0.006": 3.27711007453,
			"0.007": 2.37622035701,
			"0.008": 2.24539830233,
			"0.009": 1.9233735963,
			"0.01": 1.98093523442,
			"0.011": 0.915333023184,
			"0.012": 1.09516328273,
			"0.013": 0.895401460563,
			"0.014": 0.235945014497,
			"0.015": 0.0,
			"0.016": 0.0,
			"0.017": 0.0,
			"0.018": 0.0,
			"0.019": 0.0,
			"0.02": 0.0,
			"0.021": 0.0,
			"0.022": 0.0,
			"0.023": 0.0,
			"0.024": 0.0,
			"0.025": 0.0
		}
	}
}
