{
	 "smiles": "COC1=C(OC)C(Cl)=C(Cl)C(Cl)=C1", 
	 "Tm": 339.15, 
	 "num_atms": 20, 
	 "gaussian": { 
		 "optdone": 1, 
		 "sigma_profile": "yes", 
		 "theory": "DFT", 
		 "functional": "B3LYP", 
		 "basiset": "6-31G**", 
		 "properties": { 
			 "R2extent": 5716.9303, 
			 "electric_dipole_moment_norm": 3.43182716785, 
			 "electric_quadrupole_moment_norm": 10.409688662, 
			 "total_energy": -1840.04847856, 
			 "HOMO_LUMO_gap": 0.21287, 
			 "cosmo_polarized_energy": -6.05, 
			 "cosmo_cavitation_energy": 29.2, 
			 "cosmo_dispersion_energy": -21.3, 
			 "cosmo_repulsion_energy": 1.7, 
			 "cosmo_total_nonelectrostatic_energy": 9.6, 
			 "SMD_solvation_energy": 5.84 
		},
		"coords": [
			{
				"x": 1.108149717,
				"y": 1.1098076945,
				"z": 0.8610773396,
				"element": "C" 
			},
			{
				"x": 0.7247704749,
				"y": -0.1999651941,
				"z": 0.411627791,
				"element": "O" 
			},
			{
				"x": -0.6209092568,
				"y": -0.3874703359,
				"z": 0.2325180665,
				"element": "C" 
			},
			{
				"x": -1.303372011,
				"y": 0.2343243891,
				"z": -0.8290382179,
				"element": "C" 
			},
			{
				"x": -0.6552577128,
				"y": 1.0996215766,
				"z": -1.6639859936,
				"element": "O" 
			},
			{
				"x": 0.2001954724,
				"y": 0.4733461968,
				"z": -2.6354586041,
				"element": "C" 
			},
			{
				"x": -2.6745705969,
				"y": -0.0133527283,
				"z": -0.9976638895,
				"element": "C" 
			},
			{
				"x": -3.4925663274,
				"y": 0.768511541,
				"z": -2.3202345848,
				"element": "Cl" 
			},
			{
				"x": -3.3680785401,
				"y": -0.874535769,
				"z": -0.127217109,
				"element": "C" 
			},
			{
				"x": -5.0666426261,
				"y": -1.1695412499,
				"z": -0.3447844451,
				"element": "Cl" 
			},
			{
				"x": -2.6579270742,
				"y": -1.4972045495,
				"z": 0.9100488941,
				"element": "C" 
			},
			{
				"x": -3.4526504761,
				"y": -2.5866928022,
				"z": 2.020020685,
				"element": "Cl" 
			},
			{
				"x": -1.2982092461,
				"y": -1.2502701624,
				"z": 1.0892128604,
				"element": "C" 
			},
			{
				"x": 0.8026110007,
				"y": 1.879184196,
				"z": 0.1467529173,
				"element": "H" 
			},
			{
				"x": 2.1959116611,
				"y": 1.0916149624,
				"z": 0.9459659368,
				"element": "H" 
			},
			{
				"x": 0.6700276612,
				"y": 1.3221204668,
				"z": 1.84362817,
				"element": "H" 
			},
			{
				"x": 0.6505223829,
				"y": 1.2863056483,
				"z": -3.2069922884,
				"element": "H" 
			},
			{
				"x": -0.383549956,
				"y": -0.1647246928,
				"z": -3.3080168806,
				"element": "H" 
			},
			{
				"x": 0.981581491,
				"y": -0.115537326,
				"z": -2.145735732,
				"element": "H" 
			},
			{
				"x": -0.754336038,
				"y": -1.7272418613,
				"z": 1.8954750844,
				"element": "H" 
			}
		],
		 "valence_orbital": [ 
			{
				"type": "occ",
				"energy": -0.30877,
				"method": "rhf"
			},
			{
				"type": "occ",
				"energy": -0.2999,
				"method": "rhf"
			},
			{
				"type": "occ",
				"energy": -0.28332,
				"method": "rhf"
			},
			{
				"type": "occ",
				"energy": -0.25339,
				"method": "rhf"
			},
			{
				"type": "occ",
				"energy": -0.2435,
				"method": "rhf"
			},
			{
				"type": "unocc",
				"energy": -0.03063,
				"method": "rhf"
			},
			{
				"type": "unocc",
				"energy": -0.02766,
				"method": "rhf"
			},
			{
				"type": "unocc",
				"energy": -0.0193,
				"method": "rhf"
			},
			{
				"type": "unocc",
				"energy": 0.04788,
				"method": "rhf"
			},
			{
				"type": "unocc",
				"energy": 0.06214,
				"method": "rhf"
			}
		],
		"cosmo_sigma_profile": { 
			"-0.025": 0.0,
			"-0.024": 0.0,
			"-0.023": 0.0,
			"-0.022": 0.0,
			"-0.021": 0.0,
			"-0.02": 0.0,
			"-0.019": 0.0,
			"-0.018": 0.0,
			"-0.017": 0.0,
			"-0.016": 0.0,
			"-0.015": 0.0,
			"-0.014": 0.0,
			"-0.013": 0.0,
			"-0.012": 0.0,
			"-0.011": 0.0,
			"-0.01": 0.0,
			"-0.009": 0.274184669787,
			"-0.008": 1.36111610581,
			"-0.007": 1.68700110095,
			"-0.006": 5.88314556552,
			"-0.005": 12.0416383604,
			"-0.004": 18.139338417,
			"-0.003": 26.826313935,
			"-0.002": 19.4746925279,
			"-0.001": 26.3546342411,
			"0.0": 27.2265211584,
			"0.001": 18.9753960643,
			"0.002": 17.5695803289,
			"0.003": 23.3817110759,
			"0.004": 21.6232291745,
			"0.005": 7.55564197602,
			"0.006": 2.87062159569,
			"0.007": 2.06733928043,
			"0.008": 1.49852259958,
			"0.009": 2.5255763004,
			"0.01": 1.8180199777,
			"0.011": 0.751235527825,
			"0.012": 0.0,
			"0.013": 0.0,
			"0.014": 0.0,
			"0.015": 0.0,
			"0.016": 0.0,
			"0.017": 0.0,
			"0.018": 0.0,
			"0.019": 0.0,
			"0.02": 0.0,
			"0.021": 0.0,
			"0.022": 0.0,
			"0.023": 0.0,
			"0.024": 0.0,
			"0.025": 0.0
		}
	}
}
