{
	 "smiles": "CC1=NN(CN2CCCCC2)C(=O)C1=NNC1=CN=CC=C1", 
	 "Tm": 450.15, 
	 "num_atms": 42, 
	 "gaussian": { 
		 "optdone": 1, 
		 "sigma_profile": "yes", 
		 "theory": "DFT", 
		 "functional": "B3LYP", 
		 "basiset": "6-31G**", 
		 "properties": { 
			 "R2extent": 11390.0356, 
			 "electric_dipole_moment_norm": 6.04037152251, 
			 "electric_quadrupole_moment_norm": 38.801574033, 
			 "total_energy": -987.313492585, 
			 "HOMO_LUMO_gap": 0.12004, 
			 "cosmo_polarized_energy": -24.55, 
			 "cosmo_cavitation_energy": 44.87, 
			 "cosmo_dispersion_energy": -31.54, 
			 "cosmo_repulsion_energy": 2.42, 
			 "cosmo_total_nonelectrostatic_energy": 15.75, 
			 "SMD_solvation_energy": 2.82 
		},
		"coords": [
			{
				"x": -2.3760197734,
				"y": -0.9045542499,
				"z": 2.1880312344,
				"element": "C" 
			},
			{
				"x": -1.2302001934,
				"y": -0.0893683957,
				"z": 1.6693734763,
				"element": "C" 
			},
			{
				"x": -0.0034816214,
				"y": -0.4411494163,
				"z": 1.9426221117,
				"element": "N" 
			},
			{
				"x": 0.860798384,
				"y": 0.4632752263,
				"z": 1.3654790575,
				"element": "N" 
			},
			{
				"x": 2.2962499603,
				"y": 0.2886649887,
				"z": 1.441372319,
				"element": "C" 
			},
			{
				"x": 2.8367730985,
				"y": -0.5228060978,
				"z": 0.3670799692,
				"element": "N" 
			},
			{
				"x": 4.2614343561,
				"y": -0.2389538642,
				"z": 0.1417695814,
				"element": "C" 
			},
			{
				"x": 4.890993828,
				"y": -1.2788108121,
				"z": -0.8119253566,
				"element": "C" 
			},
			{
				"x": 3.8238801661,
				"y": -1.8999106562,
				"z": -1.7200061476,
				"element": "C" 
			},
			{
				"x": 2.7760199999,
				"y": -2.6476370267,
				"z": -0.8673078958,
				"element": "C" 
			},
			{
				"x": 2.5784905696,
				"y": -1.9580159921,
				"z": 0.5010565894,
				"element": "C" 
			},
			{
				"x": 0.209756619,
				"y": 1.4720173435,
				"z": 0.660466793,
				"element": "C" 
			},
			{
				"x": 0.7360865734,
				"y": 2.3983024165,
				"z": 0.0692760034,
				"element": "O" 
			},
			{
				"x": -1.2361349546,
				"y": 1.1261910733,
				"z": 0.8538283216,
				"element": "C" 
			},
			{
				"x": -2.1556954043,
				"y": 1.8808358222,
				"z": 0.3295275734,
				"element": "N" 
			},
			{
				"x": -3.4387934436,
				"y": 1.6070922546,
				"z": 0.4826732215,
				"element": "N" 
			},
			{
				"x": -4.4269060154,
				"y": 2.4224489777,
				"z": -0.0853077763,
				"element": "C" 
			},
			{
				"x": -4.1071769932,
				"y": 3.5641868753,
				"z": -0.8417413972,
				"element": "C" 
			},
			{
				"x": -5.0373864704,
				"y": 4.3483839258,
				"z": -1.3874468872,
				"element": "N" 
			},
			{
				"x": -6.326297562,
				"y": 4.0317728354,
				"z": -1.2050763009,
				"element": "C" 
			},
			{
				"x": -6.7403474063,
				"y": 2.9197144601,
				"z": -0.4707477063,
				"element": "C" 
			},
			{
				"x": -5.774463868,
				"y": 2.0978385568,
				"z": 0.1010208778,
				"element": "C" 
			},
			{
				"x": -2.9916915731,
				"y": -1.3129989252,
				"z": 1.3758060255,
				"element": "H" 
			},
			{
				"x": -1.9823406235,
				"y": -1.7461422438,
				"z": 2.7626636022,
				"element": "H" 
			},
			{
				"x": -3.0284825846,
				"y": -0.3226883376,
				"z": 2.8524065875,
				"element": "H" 
			},
			{
				"x": 2.7253407464,
				"y": 1.2909910782,
				"z": 1.358588221,
				"element": "H" 
			},
			{
				"x": 2.519884855,
				"y": -0.1111166305,
				"z": 2.4454338986,
				"element": "H" 
			},
			{
				"x": 4.3330686407,
				"y": 0.7676876225,
				"z": -0.2887180965,
				"element": "H" 
			},
			{
				"x": 4.8335622693,
				"y": -0.2258322786,
				"z": 1.0901974375,
				"element": "H" 
			},
			{
				"x": 5.68399544,
				"y": -0.8023678138,
				"z": -1.3980392772,
				"element": "H" 
			},
			{
				"x": 5.3732163816,
				"y": -2.0748473405,
				"z": -0.2306618606,
				"element": "H" 
			},
			{
				"x": 4.2826729955,
				"y": -2.5791946853,
				"z": -2.4470056087,
				"element": "H" 
			},
			{
				"x": 3.3332110988,
				"y": -1.1045995177,
				"z": -2.2913337136,
				"element": "H" 
			},
			{
				"x": 1.8237111465,
				"y": -2.6862504915,
				"z": -1.4071205391,
				"element": "H" 
			},
			{
				"x": 3.0888092181,
				"y": -3.6857260228,
				"z": -0.7009767649,
				"element": "H" 
			},
			{
				"x": 1.5552985284,
				"y": -2.0973672791,
				"z": 0.8579857451,
				"element": "H" 
			},
			{
				"x": 3.2385759182,
				"y": -2.413548766,
				"z": 1.2660213909,
				"element": "H" 
			},
			{
				"x": -3.7431323893,
				"y": 0.7968630263,
				"z": 1.0156202682,
				"element": "H" 
			},
			{
				"x": -3.0667049154,
				"y": 3.8317230329,
				"z": -0.9971843443,
				"element": "H" 
			},
			{
				"x": -7.0559387342,
				"y": 4.6945342922,
				"z": -1.6649966477,
				"element": "H" 
			},
			{
				"x": -7.7962478028,
				"y": 2.7007655695,
				"z": -0.3484292328,
				"element": "H" 
			},
			{
				"x": -6.0583884644,
				"y": 1.2220974658,
				"z": 0.6803252472,
				"element": "H" 
			}
		],
		 "valence_orbital": [ 
			{
				"type": "occ",
				"energy": -0.25949,
				"method": "rhf"
			},
			{
				"type": "occ",
				"energy": -0.2464,
				"method": "rhf"
			},
			{
				"type": "occ",
				"energy": -0.24417,
				"method": "rhf"
			},
			{
				"type": "occ",
				"energy": -0.21387,
				"method": "rhf"
			},
			{
				"type": "occ",
				"energy": -0.20711,
				"method": "rhf"
			},
			{
				"type": "unocc",
				"energy": -0.08707,
				"method": "rhf"
			},
			{
				"type": "unocc",
				"energy": -0.03302,
				"method": "rhf"
			},
			{
				"type": "unocc",
				"energy": -0.00347,
				"method": "rhf"
			},
			{
				"type": "unocc",
				"energy": 0.035,
				"method": "rhf"
			},
			{
				"type": "unocc",
				"energy": 0.04787,
				"method": "rhf"
			}
		],
		"cosmo_sigma_profile": { 
			"-0.025": 0.0,
			"-0.024": 0.0,
			"-0.023": 0.0,
			"-0.022": 0.0,
			"-0.021": 0.0,
			"-0.02": 0.0,
			"-0.019": 0.0,
			"-0.018": 0.0,
			"-0.017": 0.0,
			"-0.016": 0.201398354823,
			"-0.015": 1.46374685285,
			"-0.014": 1.76134399087,
			"-0.013": 1.9374425915,
			"-0.012": 1.69541230194,
			"-0.011": 2.00633179428,
			"-0.01": 2.59268578379,
			"-0.009": 2.42491850947,
			"-0.008": 4.26446008125,
			"-0.007": 7.38905553421,
			"-0.006": 10.9299166622,
			"-0.005": 14.8332106652,
			"-0.004": 15.511348667,
			"-0.003": 24.9386092868,
			"-0.002": 44.7843009112,
			"-0.001": 52.5797152975,
			"0.0": 41.196867346,
			"0.001": 30.6404201062,
			"0.002": 19.952401006,
			"0.003": 10.0173406542,
			"0.004": 7.24779962534,
			"0.005": 7.15554591121,
			"0.006": 4.96408832758,
			"0.007": 4.36715804906,
			"0.008": 5.51792027069,
			"0.009": 5.20087339924,
			"0.01": 4.4321325408,
			"0.011": 4.7415227419,
			"0.012": 5.8966866202,
			"0.013": 7.85028693683,
			"0.014": 3.88641493533,
			"0.015": 0.989139399465,
			"0.016": 0.772161428976,
			"0.017": 0.116455281001,
			"0.018": 0.0,
			"0.019": 0.0,
			"0.02": 0.0,
			"0.021": 0.0,
			"0.022": 0.0,
			"0.023": 0.0,
			"0.024": 0.0,
			"0.025": 0.0
		}
	}
}
