{
	 "smiles": "CC(C)CC=NO", 
	 "Tm": 321.65, 
	 "num_atms": 18, 
	 "gaussian": { 
		 "optdone": 1, 
		 "sigma_profile": "yes", 
		 "theory": "DFT", 
		 "functional": "B3LYP", 
		 "basiset": "6-31G**", 
		 "properties": { 
			 "R2extent": 1293.2955, 
			 "electric_dipole_moment_norm": 0.664539035723, 
			 "electric_quadrupole_moment_norm": 4.81093823282, 
			 "total_energy": -327.084577963, 
			 "HOMO_LUMO_gap": 0.25312, 
			 "cosmo_polarized_energy": -6.53, 
			 "cosmo_cavitation_energy": 20.96, 
			 "cosmo_dispersion_energy": -15.1, 
			 "cosmo_repulsion_energy": 1.31, 
			 "cosmo_total_nonelectrostatic_energy": 7.17, 
			 "SMD_solvation_energy": 4.04 
		},
		"coords": [
			{
				"x": -1.0657933235,
				"y": 0.5474849263,
				"z": -2.7393162793,
				"element": "C" 
			},
			{
				"x": 0.0983834667,
				"y": 0.0047799805,
				"z": -1.8985815324,
				"element": "C" 
			},
			{
				"x": 1.442527115,
				"y": 0.2656862065,
				"z": -2.5943633522,
				"element": "C" 
			},
			{
				"x": 0.0452511898,
				"y": 0.6062701908,
				"z": -0.4719032231,
				"element": "C" 
			},
			{
				"x": 1.0575928385,
				"y": 0.0403388932,
				"z": 0.4796310992,
				"element": "C" 
			},
			{
				"x": 0.6662341145,
				"y": -0.6523225182,
				"z": 1.4784545083,
				"element": "N" 
			},
			{
				"x": 1.7603114153,
				"y": -1.0993428121,
				"z": 2.243411361,
				"element": "O" 
			},
			{
				"x": -2.0325710651,
				"y": 0.3317017629,
				"z": -2.2718691945,
				"element": "H" 
			},
			{
				"x": -1.0697230541,
				"y": 0.1027548846,
				"z": -3.7401535509,
				"element": "H" 
			},
			{
				"x": -0.9886447326,
				"y": 1.6351190781,
				"z": -2.8599456562,
				"element": "H" 
			},
			{
				"x": -0.0299162437,
				"y": -1.0819784294,
				"z": -1.7977216025,
				"element": "H" 
			},
			{
				"x": 1.6322804936,
				"y": 1.3422525373,
				"z": -2.6887720107,
				"element": "H" 
			},
			{
				"x": 2.2822890786,
				"y": -0.1760870554,
				"z": -2.0488467027,
				"element": "H" 
			},
			{
				"x": 1.4469227345,
				"y": -0.1598505847,
				"z": -3.6034940648,
				"element": "H" 
			},
			{
				"x": 0.1937543169,
				"y": 1.6941486125,
				"z": -0.5457530304,
				"element": "H" 
			},
			{
				"x": -0.9487917706,
				"y": 0.4428521078,
				"z": -0.0426222917,
				"element": "H" 
			},
			{
				"x": 2.1242919335,
				"y": 0.2169410155,
				"z": 0.3174406883,
				"element": "H" 
			},
			{
				"x": 1.3269014929,
				"y": -1.5911487964,
				"z": 2.9533048347,
				"element": "H" 
			}
		],
		 "valence_orbital": [ 
			{
				"type": "occ",
				"energy": -0.33647,
				"method": "rhf"
			},
			{
				"type": "occ",
				"energy": -0.33062,
				"method": "rhf"
			},
			{
				"type": "occ",
				"energy": -0.32709,
				"method": "rhf"
			},
			{
				"type": "occ",
				"energy": -0.27118,
				"method": "rhf"
			},
			{
				"type": "occ",
				"energy": -0.24651,
				"method": "rhf"
			},
			{
				"type": "unocc",
				"energy": 0.00661,
				"method": "rhf"
			},
			{
				"type": "unocc",
				"energy": 0.0785,
				"method": "rhf"
			},
			{
				"type": "unocc",
				"energy": 0.09577,
				"method": "rhf"
			},
			{
				"type": "unocc",
				"energy": 0.11787,
				"method": "rhf"
			},
			{
				"type": "unocc",
				"energy": 0.12877,
				"method": "rhf"
			}
		],
		"cosmo_sigma_profile": { 
			"-0.025": 0.0,
			"-0.024": 0.0,
			"-0.023": 0.0,
			"-0.022": 0.0,
			"-0.021": 0.0,
			"-0.02": 0.0,
			"-0.019": 0.0,
			"-0.018": 0.0,
			"-0.017": 0.66014478522,
			"-0.016": 1.15317072401,
			"-0.015": 0.726884544876,
			"-0.014": 0.748325554254,
			"-0.013": 0.66363269615,
			"-0.012": 0.474072309686,
			"-0.011": 0.538448011222,
			"-0.01": 1.02474394909,
			"-0.009": 0.601867003756,
			"-0.008": 0.643137754388,
			"-0.007": 1.00418589254,
			"-0.006": 2.00499143269,
			"-0.005": 2.8018470088,
			"-0.004": 6.60867132317,
			"-0.003": 17.8209772615,
			"-0.002": 24.2020190867,
			"-0.001": 21.3028960457,
			"0.0": 19.615681601,
			"0.001": 18.903318612,
			"0.002": 8.79866569614,
			"0.003": 2.86750103701,
			"0.004": 3.70987089516,
			"0.005": 3.69568999836,
			"0.006": 3.58387058364,
			"0.007": 3.15957421719,
			"0.008": 2.97071696379,
			"0.009": 3.04574176216,
			"0.01": 2.55940833464,
			"0.011": 3.55416426362,
			"0.012": 1.72545730308,
			"0.013": 0.613874433504,
			"0.014": 0.47883270894,
			"0.015": 0.0,
			"0.016": 0.0,
			"0.017": 0.0,
			"0.018": 0.0,
			"0.019": 0.0,
			"0.02": 0.0,
			"0.021": 0.0,
			"0.022": 0.0,
			"0.023": 0.0,
			"0.024": 0.0,
			"0.025": 0.0
		}
	}
}
