{
	 "smiles": "CN(C)CCCN1C2=CC=CC=C2SC2=CC=CC=C12", 
	 "Tm": 306.15, 
	 "num_atms": 40, 
	 "gaussian": { 
		 "optdone": 1, 
		 "sigma_profile": "yes", 
		 "theory": "DFT", 
		 "functional": "B3LYP", 
		 "basiset": "6-31G**", 
		 "properties": { 
			 "R2extent": 8873.5284, 
			 "electric_dipole_moment_norm": 1.79104962522, 
			 "electric_quadrupole_moment_norm": 11.9456945139, 
			 "total_energy": -1167.53802926, 
			 "HOMO_LUMO_gap": 0.17512, 
			 "cosmo_polarized_energy": -9.17, 
			 "cosmo_cavitation_energy": 41.97, 
			 "cosmo_dispersion_energy": -29.62, 
			 "cosmo_repulsion_energy": 2.21, 
			 "cosmo_total_nonelectrostatic_energy": 14.56, 
			 "SMD_solvation_energy": 3.75 
		},
		"coords": [
			{
				"x": 0.0051195148,
				"y": 3.132355881,
				"z": 2.1431345182,
				"element": "C" 
			},
			{
				"x": -1.2065014556,
				"y": 2.3598301382,
				"z": 2.3476198718,
				"element": "N" 
			},
			{
				"x": -2.4146463436,
				"y": 3.0923520932,
				"z": 2.0153192291,
				"element": "C" 
			},
			{
				"x": -1.1893760047,
				"y": 0.9702979521,
				"z": 1.8988787807,
				"element": "C" 
			},
			{
				"x": -1.3540741661,
				"y": 0.6476220271,
				"z": 0.3948578831,
				"element": "C" 
			},
			{
				"x": -0.1671336767,
				"y": 1.0533019071,
				"z": -0.4929334147,
				"element": "C" 
			},
			{
				"x": -0.3018899943,
				"y": 0.5559758123,
				"z": -1.8654084618,
				"element": "N" 
			},
			{
				"x": 0.0422655035,
				"y": 1.4029847266,
				"z": -2.9485779519,
				"element": "C" 
			},
			{
				"x": 0.9329418534,
				"y": 2.4797495387,
				"z": -2.8132695478,
				"element": "C" 
			},
			{
				"x": 1.2125431818,
				"y": 3.3156411659,
				"z": -3.8957209317,
				"element": "C" 
			},
			{
				"x": 0.6458878877,
				"y": 3.0701350596,
				"z": -5.1451539889,
				"element": "C" 
			},
			{
				"x": -0.203420346,
				"y": 1.97435374,
				"z": -5.3066731772,
				"element": "C" 
			},
			{
				"x": -0.5167086958,
				"y": 1.1586140344,
				"z": -4.2191381809,
				"element": "C" 
			},
			{
				"x": -1.6865104682,
				"y": -0.1743181675,
				"z": -4.3997134812,
				"element": "S" 
			},
			{
				"x": -0.91757821,
				"y": -1.3316352035,
				"z": -3.282875509,
				"element": "C" 
			},
			{
				"x": -0.944931388,
				"y": -2.7001862666,
				"z": -3.5526001108,
				"element": "C" 
			},
			{
				"x": -0.4247629158,
				"y": -3.6108460923,
				"z": -2.6314464431,
				"element": "C" 
			},
			{
				"x": 0.155617401,
				"y": -3.1371155201,
				"z": -1.4559877442,
				"element": "C" 
			},
			{
				"x": 0.2196732824,
				"y": -1.7666149391,
				"z": -1.1989831094,
				"element": "C" 
			},
			{
				"x": -0.3294469094,
				"y": -0.8410491936,
				"z": -2.1002036882,
				"element": "C" 
			},
			{
				"x": -0.020103025,
				"y": 4.0235430453,
				"z": 2.7819849988,
				"element": "H" 
			},
			{
				"x": 0.1659003568,
				"y": 3.4851854979,
				"z": 1.1066788061,
				"element": "H" 
			},
			{
				"x": 0.8774393778,
				"y": 2.5385140329,
				"z": 2.4350875027,
				"element": "H" 
			},
			{
				"x": -2.5068040718,
				"y": 3.3635489326,
				"z": 0.9465334124,
				"element": "H" 
			},
			{
				"x": -2.4476214636,
				"y": 4.0238938567,
				"z": 2.5919262977,
				"element": "H" 
			},
			{
				"x": -3.2945491966,
				"y": 2.4988643269,
				"z": 2.2864703337,
				"element": "H" 
			},
			{
				"x": -2.0045082234,
				"y": 0.4555763006,
				"z": 2.4253494982,
				"element": "H" 
			},
			{
				"x": -0.2568805636,
				"y": 0.5191419743,
				"z": 2.2639399524,
				"element": "H" 
			},
			{
				"x": -2.2615328698,
				"y": 1.1178161535,
				"z": -0.0005309177,
				"element": "H" 
			},
			{
				"x": -1.514919263,
				"y": -0.4330590846,
				"z": 0.3148697785,
				"element": "H" 
			},
			{
				"x": 0.7841087568,
				"y": 0.7384425197,
				"z": -0.0337345486,
				"element": "H" 
			},
			{
				"x": -0.1326597978,
				"y": 2.1398492788,
				"z": -0.5577946779,
				"element": "H" 
			},
			{
				"x": 1.4184850966,
				"y": 2.6661386762,
				"z": -1.861888845,
				"element": "H" 
			},
			{
				"x": 1.8933655654,
				"y": 4.1506566591,
				"z": -3.7585333631,
				"element": "H" 
			},
			{
				"x": 0.8691050596,
				"y": 3.71417292,
				"z": -5.9899389742,
				"element": "H" 
			},
			{
				"x": -0.6396600834,
				"y": 1.7529886649,
				"z": -6.2761827722,
				"element": "H" 
			},
			{
				"x": -1.3881838027,
				"y": -3.0472838303,
				"z": -4.4811769841,
				"element": "H" 
			},
			{
				"x": -0.4686771816,
				"y": -4.6759909981,
				"z": -2.8359869182,
				"element": "H" 
			},
			{
				"x": 0.5755052765,
				"y": -3.8322586129,
				"z": -0.7348307696,
				"element": "H" 
			},
			{
				"x": 0.6973220027,
				"y": -1.4189890069,
				"z": -0.2899663518,
				"element": "H" 
			}
		],
		 "valence_orbital": [ 
			{
				"type": "occ",
				"energy": -0.2538,
				"method": "rhf"
			},
			{
				"type": "occ",
				"energy": -0.24848,
				"method": "rhf"
			},
			{
				"type": "occ",
				"energy": -0.22193,
				"method": "rhf"
			},
			{
				"type": "occ",
				"energy": -0.20344,
				"method": "rhf"
			},
			{
				"type": "occ",
				"energy": -0.18574,
				"method": "rhf"
			},
			{
				"type": "unocc",
				"energy": -0.01062,
				"method": "rhf"
			},
			{
				"type": "unocc",
				"energy": -0.00694,
				"method": "rhf"
			},
			{
				"type": "unocc",
				"energy": -0.00036,
				"method": "rhf"
			},
			{
				"type": "unocc",
				"energy": 0.01212,
				"method": "rhf"
			},
			{
				"type": "unocc",
				"energy": 0.04125,
				"method": "rhf"
			}
		],
		"cosmo_sigma_profile": { 
			"-0.025": 0.0,
			"-0.024": 0.0,
			"-0.023": 0.0,
			"-0.022": 0.0,
			"-0.021": 0.0,
			"-0.02": 0.0,
			"-0.019": 0.0,
			"-0.018": 0.0,
			"-0.017": 0.0,
			"-0.016": 0.0,
			"-0.015": 0.0,
			"-0.014": 0.0,
			"-0.013": 0.0,
			"-0.012": 0.0,
			"-0.011": 0.0,
			"-0.01": 0.0,
			"-0.009": 0.0,
			"-0.008": 0.0,
			"-0.007": 0.929838489443,
			"-0.006": 12.8388313737,
			"-0.005": 19.4913605908,
			"-0.004": 27.4615401638,
			"-0.003": 37.6498196749,
			"-0.002": 38.3465513509,
			"-0.001": 33.8842230606,
			"0.0": 32.2875376485,
			"0.001": 20.534349111,
			"0.002": 19.3269767335,
			"0.003": 20.2208434087,
			"0.004": 24.2043461036,
			"0.005": 22.7612259731,
			"0.006": 11.2021042651,
			"0.007": 3.80542542904,
			"0.008": 3.54527965325,
			"0.009": 1.6325371212,
			"0.01": 0.746470960602,
			"0.011": 0.354572788482,
			"0.012": 0.68154554783,
			"0.013": 0.603015937049,
			"0.014": 0.246636171635,
			"0.015": 0.593683854624,
			"0.016": 0.273750961741,
			"0.017": 0.0,
			"0.018": 0.0,
			"0.019": 0.0,
			"0.02": 0.0,
			"0.021": 0.0,
			"0.022": 0.0,
			"0.023": 0.0,
			"0.024": 0.0,
			"0.025": 0.0
		}
	}
}
