{
	 "smiles": "OC(=O)[C@@H]1CC(=O)C2=CC=CC=C12", 
	 "Tm": 386.0, 
	 "num_atms": 21, 
	 "gaussian": { 
		 "optdone": 1, 
		 "sigma_profile": "yes", 
		 "theory": "DFT", 
		 "functional": "B3LYP", 
		 "basiset": "6-31G**", 
		 "properties": { 
			 "R2extent": 2263.3798, 
			 "electric_dipole_moment_norm": 2.09395215084, 
			 "electric_quadrupole_moment_norm": 16.9216100224, 
			 "total_energy": -611.576050503, 
			 "HOMO_LUMO_gap": 0.18575, 
			 "cosmo_polarized_energy": -13.43, 
			 "cosmo_cavitation_energy": 25.49, 
			 "cosmo_dispersion_energy": -18.54, 
			 "cosmo_repulsion_energy": 1.47, 
			 "cosmo_total_nonelectrostatic_energy": 8.42, 
			 "SMD_solvation_energy": 5.87 
		},
		"coords": [
			{
				"x": 1.7005355669,
				"y": -2.3671712467,
				"z": -0.9473717491,
				"element": "O" 
			},
			{
				"x": 1.8527441009,
				"y": -1.7127415557,
				"z": 0.2258506946,
				"element": "C" 
			},
			{
				"x": 2.9164271699,
				"y": -1.6452385048,
				"z": 0.8031230096,
				"element": "O" 
			},
			{
				"x": 0.5838833902,
				"y": -1.0274326596,
				"z": 0.7100450871,
				"element": "C" 
			},
			{
				"x": -0.7655071944,
				"y": -1.5977709423,
				"z": 0.2113751536,
				"element": "C" 
			},
			{
				"x": -1.5399162267,
				"y": -0.4143638659,
				"z": -0.3936873251,
				"element": "C" 
			},
			{
				"x": -2.6778950796,
				"y": -0.4543308235,
				"z": -0.819541905,
				"element": "O" 
			},
			{
				"x": -0.6400225628,
				"y": 0.7631701847,
				"z": -0.3617856155,
				"element": "C" 
			},
			{
				"x": -0.8881652819,
				"y": 2.0523145077,
				"z": -0.8410217209,
				"element": "C" 
			},
			{
				"x": 0.1131166795,
				"y": 3.0104425834,
				"z": -0.7055739008,
				"element": "C" 
			},
			{
				"x": 1.3353510639,
				"y": 2.6769212818,
				"z": -0.0997139943,
				"element": "C" 
			},
			{
				"x": 1.5785229854,
				"y": 1.3879966007,
				"z": 0.3820299156,
				"element": "C" 
			},
			{
				"x": 0.572901685,
				"y": 0.4321039156,
				"z": 0.2453305101,
				"element": "C" 
			},
			{
				"x": 2.5771685827,
				"y": -2.7199894464,
				"z": -1.17586235,
				"element": "H" 
			},
			{
				"x": 0.651244168,
				"y": -1.0517456943,
				"z": 1.802859195,
				"element": "H" 
			},
			{
				"x": -0.6295669259,
				"y": -2.3577596696,
				"z": -0.5624352168,
				"element": "H" 
			},
			{
				"x": -1.3521079611,
				"y": -2.0537995855,
				"z": 1.0138666779,
				"element": "H" 
			},
			{
				"x": -1.8428827965,
				"y": 2.2800958836,
				"z": -1.3054969782,
				"element": "H" 
			},
			{
				"x": -0.0466633523,
				"y": 4.0213759637,
				"z": -1.0686354742,
				"element": "H" 
			},
			{
				"x": 2.1064213872,
				"y": 3.4361869469,
				"z": -0.0032497644,
				"element": "H" 
			},
			{
				"x": 2.5265106016,
				"y": 1.1334361262,
				"z": 0.8462957508,
				"element": "H" 
			}
		],
		 "valence_orbital": [ 
			{
				"type": "occ",
				"energy": -0.32902,
				"method": "rhf"
			},
			{
				"type": "occ",
				"energy": -0.28936,
				"method": "rhf"
			},
			{
				"type": "occ",
				"energy": -0.26646,
				"method": "rhf"
			},
			{
				"type": "occ",
				"energy": -0.26114,
				"method": "rhf"
			},
			{
				"type": "occ",
				"energy": -0.2456,
				"method": "rhf"
			},
			{
				"type": "unocc",
				"energy": -0.05985,
				"method": "rhf"
			},
			{
				"type": "unocc",
				"energy": -0.02315,
				"method": "rhf"
			},
			{
				"type": "unocc",
				"energy": 0.00311,
				"method": "rhf"
			},
			{
				"type": "unocc",
				"energy": 0.04069,
				"method": "rhf"
			},
			{
				"type": "unocc",
				"energy": 0.06549,
				"method": "rhf"
			}
		],
		"cosmo_sigma_profile": { 
			"-0.025": 0.0,
			"-0.024": 0.0,
			"-0.023": 0.0,
			"-0.022": 0.0,
			"-0.021": 0.0,
			"-0.02": 0.0,
			"-0.019": 0.109767166406,
			"-0.018": 1.23857940599,
			"-0.017": 0.674758156687,
			"-0.016": 1.10025205648,
			"-0.015": 0.645940255183,
			"-0.014": 0.718707908814,
			"-0.013": 0.44194513488,
			"-0.012": 0.527329335597,
			"-0.011": 0.819293318018,
			"-0.01": 0.910365833317,
			"-0.009": 0.553257833456,
			"-0.008": 0.704292349702,
			"-0.007": 6.91933959531,
			"-0.006": 16.7557577156,
			"-0.005": 16.4619639025,
			"-0.004": 14.8971530667,
			"-0.003": 13.1387460442,
			"-0.002": 13.4560123032,
			"-0.001": 11.9927892303,
			"0.0": 12.2409865726,
			"0.001": 13.4415957832,
			"0.002": 13.6408032883,
			"0.003": 14.9408847616,
			"0.004": 7.64384861123,
			"0.005": 4.306423495,
			"0.006": 4.58805331994,
			"0.007": 3.09833050743,
			"0.008": 2.93693659658,
			"0.009": 2.910518687,
			"0.01": 4.6013662375,
			"0.011": 7.27977997137,
			"0.012": 7.47100338841,
			"0.013": 2.2330442899,
			"0.014": 0.0915084785019,
			"0.015": 0.0,
			"0.016": 0.0,
			"0.017": 0.0,
			"0.018": 0.0,
			"0.019": 0.0,
			"0.02": 0.0,
			"0.021": 0.0,
			"0.022": 0.0,
			"0.023": 0.0,
			"0.024": 0.0,
			"0.025": 0.0
		}
	}
}
