{
	 "smiles": "ClC1=NC=CN=C1Cl", 
	 "Tm": 296.65, 
	 "num_atms": 10, 
	 "gaussian": { 
		 "optdone": 1, 
		 "sigma_profile": "yes", 
		 "theory": "DFT", 
		 "functional": "B3LYP", 
		 "basiset": "6-31G**", 
		 "properties": { 
			 "R2extent": 1825.1542, 
			 "electric_dipole_moment_norm": 2.41264033581, 
			 "electric_quadrupole_moment_norm": 8.0356811603, 
			 "total_energy": -1183.49631046, 
			 "HOMO_LUMO_gap": 0.20051, 
			 "cosmo_polarized_energy": -6.13, 
			 "cosmo_cavitation_energy": 18.36, 
			 "cosmo_dispersion_energy": -14.26, 
			 "cosmo_repulsion_energy": 1.19, 
			 "cosmo_total_nonelectrostatic_energy": 5.29, 
			 "SMD_solvation_energy": 0.13 
		},
		"coords": [
			{
				"x": -2.1780248403,
				"y": -1.2219272901,
				"z": 2.6548770785,
				"element": "Cl" 
			},
			{
				"x": -0.7391523142,
				"y": -0.7901285935,
				"z": 1.7682854781,
				"element": "C" 
			},
			{
				"x": 0.3467465919,
				"y": -0.5262328751,
				"z": 2.4677966122,
				"element": "N" 
			},
			{
				"x": 1.4566309759,
				"y": -0.1936593738,
				"z": 1.7964131971,
				"element": "C" 
			},
			{
				"x": 1.463895963,
				"y": -0.1286475975,
				"z": 0.4063440604,
				"element": "C" 
			},
			{
				"x": 0.3612323172,
				"y": -0.3965637493,
				"z": -0.3046866653,
				"element": "N" 
			},
			{
				"x": -0.7317756715,
				"y": -0.7240518879,
				"z": 0.355778808,
				"element": "C" 
			},
			{
				"x": -2.1611233517,
				"y": -1.070440462,
				"z": -0.5821946652,
				"element": "Cl" 
			},
			{
				"x": 2.3446132486,
				"y": 0.0213692624,
				"z": 2.3843824911,
				"element": "H" 
			},
			{
				"x": 2.357857081,
				"y": 0.1398825667,
				"z": -0.1496963948,
				"element": "H" 
			}
		],
		 "valence_orbital": [ 
			{
				"type": "occ",
				"energy": -0.34641,
				"method": "rhf"
			},
			{
				"type": "occ",
				"energy": -0.32596,
				"method": "rhf"
			},
			{
				"type": "occ",
				"energy": -0.31077,
				"method": "rhf"
			},
			{
				"type": "occ",
				"energy": -0.285,
				"method": "rhf"
			},
			{
				"type": "occ",
				"energy": -0.27551,
				"method": "rhf"
			},
			{
				"type": "unocc",
				"energy": -0.075,
				"method": "rhf"
			},
			{
				"type": "unocc",
				"energy": -0.05155,
				"method": "rhf"
			},
			{
				"type": "unocc",
				"energy": 0.00647,
				"method": "rhf"
			},
			{
				"type": "unocc",
				"energy": 0.04032,
				"method": "rhf"
			},
			{
				"type": "unocc",
				"energy": 0.1002,
				"method": "rhf"
			}
		],
		"cosmo_sigma_profile": { 
			"-0.025": 0.0,
			"-0.024": 0.0,
			"-0.023": 0.0,
			"-0.022": 0.0,
			"-0.021": 0.0,
			"-0.02": 0.0,
			"-0.019": 0.0,
			"-0.018": 0.0,
			"-0.017": 0.0,
			"-0.016": 0.0,
			"-0.015": 0.0,
			"-0.014": 0.0,
			"-0.013": 0.0,
			"-0.012": 0.0,
			"-0.011": 0.0,
			"-0.01": 0.397834409205,
			"-0.009": 5.05493252296,
			"-0.008": 4.96214761307,
			"-0.007": 3.86878858603,
			"-0.006": 4.25561294107,
			"-0.005": 6.14404300393,
			"-0.004": 10.2216461493,
			"-0.003": 10.4861593015,
			"-0.002": 14.7054627096,
			"-0.001": 10.0487246181,
			"0.0": 9.87696422158,
			"0.001": 11.6865668372,
			"0.002": 11.6606814622,
			"0.003": 20.4502779432,
			"0.004": 11.8266340248,
			"0.005": 3.69503314034,
			"0.006": 2.26720226487,
			"0.007": 3.36873379994,
			"0.008": 1.94508874978,
			"0.009": 1.91402190555,
			"0.01": 1.43038002198,
			"0.011": 1.95328433068,
			"0.012": 1.26644042491,
			"0.013": 0.0536225722389,
			"0.014": 0.0,
			"0.015": 0.0,
			"0.016": 0.0,
			"0.017": 0.0,
			"0.018": 0.0,
			"0.019": 0.0,
			"0.02": 0.0,
			"0.021": 0.0,
			"0.022": 0.0,
			"0.023": 0.0,
			"0.024": 0.0,
			"0.025": 0.0
		}
	}
}
