{
	 "smiles": "CC(C)C1=CC=C(C=C1)C1CC1C(O)=O", 
	 "Tm": 341.15, 
	 "num_atms": 31, 
	 "gaussian": { 
		 "optdone": 1, 
		 "sigma_profile": "yes", 
		 "theory": "DFT", 
		 "functional": "B3LYP", 
		 "basiset": "6-31G**", 
		 "properties": { 
			 "R2extent": 5568.2331, 
			 "electric_dipole_moment_norm": 2.16002152073, 
			 "electric_quadrupole_moment_norm": 13.7127758707, 
			 "total_energy": -655.476504611, 
			 "HOMO_LUMO_gap": 0.22406, 
			 "cosmo_polarized_energy": -10.88, 
			 "cosmo_cavitation_energy": 33.81, 
			 "cosmo_dispersion_energy": -23.31, 
			 "cosmo_repulsion_energy": 1.87, 
			 "cosmo_total_nonelectrostatic_energy": 12.37, 
			 "SMD_solvation_energy": 6.6 
		},
		"coords": [
			{
				"x": 2.5719431938,
				"y": 0.6519149203,
				"z": 0.4724909064,
				"element": "C" 
			},
			{
				"x": 2.055410415,
				"y": -0.7789023181,
				"z": 0.2295836204,
				"element": "C" 
			},
			{
				"x": 2.38572755,
				"y": -1.2503881966,
				"z": -1.1993320324,
				"element": "C" 
			},
			{
				"x": 0.5698739818,
				"y": -0.9059458703,
				"z": 0.5393691979,
				"element": "C" 
			},
			{
				"x": 0.1186444995,
				"y": -1.7571985226,
				"z": 1.5539192181,
				"element": "C" 
			},
			{
				"x": -1.2405674186,
				"y": -1.8832339582,
				"z": 1.8470229891,
				"element": "C" 
			},
			{
				"x": -2.1971867575,
				"y": -1.1557550614,
				"z": 1.1335786509,
				"element": "C" 
			},
			{
				"x": -1.7504678986,
				"y": -0.3043579232,
				"z": 0.1113048802,
				"element": "C" 
			},
			{
				"x": -0.3945413368,
				"y": -0.1806984029,
				"z": -0.1783736485,
				"element": "C" 
			},
			{
				"x": -3.6670536783,
				"y": -1.304157228,
				"z": 1.385957557,
				"element": "C" 
			},
			{
				"x": -4.2514485932,
				"y": -1.6794125213,
				"z": 2.7098408307,
				"element": "C" 
			},
			{
				"x": -4.4977667449,
				"y": -0.2790109971,
				"z": 2.1842159177,
				"element": "C" 
			},
			{
				"x": -3.8728509248,
				"y": 0.9145139437,
				"z": 2.8092250729,
				"element": "C" 
			},
			{
				"x": -2.796686734,
				"y": 0.6231137195,
				"z": 3.5822688416,
				"element": "O" 
			},
			{
				"x": -4.2699797107,
				"y": 2.051481825,
				"z": 2.6547591675,
				"element": "O" 
			},
			{
				"x": 2.3728940685,
				"y": 0.9762074411,
				"z": 1.4986559303,
				"element": "H" 
			},
			{
				"x": 2.0906961105,
				"y": 1.3681830816,
				"z": -0.2025394013,
				"element": "H" 
			},
			{
				"x": 3.6524177321,
				"y": 0.7079675287,
				"z": 0.3000468259,
				"element": "H" 
			},
			{
				"x": 2.5856370563,
				"y": -1.4425239295,
				"z": 0.9254868177,
				"element": "H" 
			},
			{
				"x": 1.8974062484,
				"y": -0.6182983934,
				"z": -1.9492383672,
				"element": "H" 
			},
			{
				"x": 3.4652226871,
				"y": -1.2072723578,
				"z": -1.3814355229,
				"element": "H" 
			},
			{
				"x": 2.0526724399,
				"y": -2.2798410441,
				"z": -1.3638510728,
				"element": "H" 
			},
			{
				"x": 0.8419303523,
				"y": -2.33509635,
				"z": 2.1247774558,
				"element": "H" 
			},
			{
				"x": -1.5580728399,
				"y": -2.5586190005,
				"z": 2.6359642741,
				"element": "H" 
			},
			{
				"x": -2.4763006413,
				"y": 0.2708263994,
				"z": -0.4585773373,
				"element": "H" 
			},
			{
				"x": -0.0844404828,
				"y": 0.4911343933,
				"z": -0.9745892257,
				"element": "H" 
			},
			{
				"x": -4.2173585143,
				"y": -1.6665347177,
				"z": 0.5186775111,
				"element": "H" 
			},
			{
				"x": -3.5794099691,
				"y": -1.7548538792,
				"z": 3.557665545,
				"element": "H" 
			},
			{
				"x": -5.0973528079,
				"y": -2.3591992563,
				"z": 2.7357243925,
				"element": "H" 
			},
			{
				"x": -5.4740816022,
				"y": -0.0454499139,
				"z": 1.7744971702,
				"element": "H" 
			},
			{
				"x": -2.4541096804,
				"y": 1.4783065899,
				"z": 3.8901038351,
				"element": "H" 
			}
		],
		 "valence_orbital": [ 
			{
				"type": "occ",
				"energy": -0.31539,
				"method": "rhf"
			},
			{
				"type": "occ",
				"energy": -0.29724,
				"method": "rhf"
			},
			{
				"type": "occ",
				"energy": -0.26368,
				"method": "rhf"
			},
			{
				"type": "occ",
				"energy": -0.24677,
				"method": "rhf"
			},
			{
				"type": "occ",
				"energy": -0.2309,
				"method": "rhf"
			},
			{
				"type": "unocc",
				"energy": -0.00684,
				"method": "rhf"
			},
			{
				"type": "unocc",
				"energy": 0.00082,
				"method": "rhf"
			},
			{
				"type": "unocc",
				"energy": 0.01619,
				"method": "rhf"
			},
			{
				"type": "unocc",
				"energy": 0.08049,
				"method": "rhf"
			},
			{
				"type": "unocc",
				"energy": 0.08829,
				"method": "rhf"
			}
		],
		"cosmo_sigma_profile": { 
			"-0.025": 0.0,
			"-0.024": 0.0,
			"-0.023": 0.0,
			"-0.022": 0.0,
			"-0.021": 0.0,
			"-0.02": 0.0,
			"-0.019": 0.0,
			"-0.018": 0.470178571444,
			"-0.017": 0.760274524526,
			"-0.016": 1.12315039584,
			"-0.015": 0.720462613481,
			"-0.014": 1.1931734078,
			"-0.013": 0.280400974904,
			"-0.012": 0.275287406417,
			"-0.011": 0.499373908657,
			"-0.01": 1.12225232258,
			"-0.009": 0.482182059819,
			"-0.008": 0.434292724503,
			"-0.007": 1.33978035049,
			"-0.006": 8.06787938352,
			"-0.005": 15.9611227322,
			"-0.004": 18.4413306673,
			"-0.003": 24.5639089413,
			"-0.002": 26.5188557488,
			"-0.001": 27.7942669929,
			"0.0": 28.0573133821,
			"0.001": 28.4345088066,
			"0.002": 17.7233965074,
			"0.003": 10.6377684838,
			"0.004": 8.77662344705,
			"0.005": 8.86901404703,
			"0.006": 8.91388674605,
			"0.007": 5.73362307257,
			"0.008": 3.0673988191,
			"0.009": 2.64916781478,
			"0.01": 1.77629542428,
			"0.011": 2.22923788797,
			"0.012": 5.54141852463,
			"0.013": 2.72998054531,
			"0.014": 0.186917772822,
			"0.015": 0.0,
			"0.016": 0.0,
			"0.017": 0.0,
			"0.018": 0.0,
			"0.019": 0.0,
			"0.02": 0.0,
			"0.021": 0.0,
			"0.022": 0.0,
			"0.023": 0.0,
			"0.024": 0.0,
			"0.025": 0.0
		}
	}
}
