{
	 "smiles": "CC1=CC=C(C=C1)S(=O)(=O)OCC1=C(F)C(F)=C(F)C(F)=C1F", 
	 "Tm": 351.15, 
	 "num_atms": 32, 
	 "gaussian": { 
		 "optdone": 1, 
		 "sigma_profile": "yes", 
		 "theory": "DFT", 
		 "functional": "B3LYP", 
		 "basiset": "6-31G**", 
		 "properties": { 
			 "R2extent": 8043.6115, 
			 "electric_dipole_moment_norm": 4.28923840443, 
			 "electric_quadrupole_moment_norm": 25.0563463149, 
			 "total_energy": -1661.84156997, 
			 "HOMO_LUMO_gap": 0.2167, 
			 "cosmo_polarized_energy": -12.8, 
			 "cosmo_cavitation_energy": 41.01, 
			 "cosmo_dispersion_energy": -27.23, 
			 "cosmo_repulsion_energy": 1.95, 
			 "cosmo_total_nonelectrostatic_energy": 15.73, 
			 "SMD_solvation_energy": 8.24 
		},
		"coords": [
			{
				"x": -2.7495813952,
				"y": 2.1779964583,
				"z": 2.0493130854,
				"element": "C" 
			},
			{
				"x": -1.9027896097,
				"y": 1.7564215179,
				"z": 0.8731860189,
				"element": "C" 
			},
			{
				"x": -2.469085079,
				"y": 1.0441357827,
				"z": -0.1960723092,
				"element": "C" 
			},
			{
				"x": -1.7073169551,
				"y": 0.6756920069,
				"z": -1.3007918546,
				"element": "C" 
			},
			{
				"x": -0.3534830872,
				"y": 1.020362036,
				"z": -1.3330952451,
				"element": "C" 
			},
			{
				"x": 0.2389367737,
				"y": 1.7302829375,
				"z": -0.2881147272,
				"element": "C" 
			},
			{
				"x": -0.5431944008,
				"y": 2.090664314,
				"z": 0.8085489319,
				"element": "C" 
			},
			{
				"x": 0.6283264447,
				"y": 0.5423943855,
				"z": -2.7434303844,
				"element": "S" 
			},
			{
				"x": 1.8814306837,
				"y": 1.2969655177,
				"z": -2.7290901063,
				"element": "O" 
			},
			{
				"x": -0.2316816813,
				"y": 0.4918183383,
				"z": -3.9161922047,
				"element": "O" 
			},
			{
				"x": 0.975294053,
				"y": -1.0466118378,
				"z": -2.4339100392,
				"element": "O" 
			},
			{
				"x": 2.2618641585,
				"y": -1.4009293932,
				"z": -1.8659103282,
				"element": "C" 
			},
			{
				"x": 2.1246672066,
				"y": -1.8354603936,
				"z": -0.4295778605,
				"element": "C" 
			},
			{
				"x": 2.4879112543,
				"y": -1.0050485191,
				"z": 0.6314500855,
				"element": "C" 
			},
			{
				"x": 2.998536322,
				"y": 0.213208168,
				"z": 0.3854517543,
				"element": "F" 
			},
			{
				"x": 2.3456698691,
				"y": -1.397734819,
				"z": 1.9598800214,
				"element": "C" 
			},
			{
				"x": 2.7034976475,
				"y": -0.579233589,
				"z": 2.9549097116,
				"element": "F" 
			},
			{
				"x": 1.8232822085,
				"y": -2.6568277859,
				"z": 2.2470249609,
				"element": "C" 
			},
			{
				"x": 1.6802861863,
				"y": -3.0459495523,
				"z": 3.5150905287,
				"element": "F" 
			},
			{
				"x": 1.4523491473,
				"y": -3.511940086,
				"z": 1.2101470192,
				"element": "C" 
			},
			{
				"x": 0.9572354105,
				"y": -4.7216323579,
				"z": 1.4886768509,
				"element": "F" 
			},
			{
				"x": 1.6055501202,
				"y": -3.092187005,
				"z": -0.1080596331,
				"element": "C" 
			},
			{
				"x": 1.2529174501,
				"y": -3.933733693,
				"z": -1.0888659695,
				"element": "F" 
			},
			{
				"x": -2.139110115,
				"y": 2.3639329844,
				"z": 2.9370979111,
				"element": "H" 
			},
			{
				"x": -3.4944479361,
				"y": 1.416466842,
				"z": 2.2990860471,
				"element": "H" 
			},
			{
				"x": -3.2943938587,
				"y": 3.1033803076,
				"z": 1.8253458398,
				"element": "H" 
			},
			{
				"x": -3.5224830207,
				"y": 0.7790551384,
				"z": -0.1640093863,
				"element": "H" 
			},
			{
				"x": -2.1511757737,
				"y": 0.1401566926,
				"z": -2.1328007969,
				"element": "H" 
			},
			{
				"x": 1.2886321069,
				"y": 1.9939061275,
				"z": -0.3372049585,
				"element": "H" 
			},
			{
				"x": -0.0890070569,
				"y": 2.6449543239,
				"z": 1.6253481601,
				"element": "H" 
			},
			{
				"x": 2.6209640059,
				"y": -2.2296004108,
				"z": -2.4787425545,
				"element": "H" 
			},
			{
				"x": 2.9500989205,
				"y": -0.5599044366,
				"z": -1.9553885685,
				"element": "H" 
			}
		],
		 "valence_orbital": [ 
			{
				"type": "occ",
				"energy": -0.31114,
				"method": "rhf"
			},
			{
				"type": "occ",
				"energy": -0.27737,
				"method": "rhf"
			},
			{
				"type": "occ",
				"energy": -0.27565,
				"method": "rhf"
			},
			{
				"type": "occ",
				"energy": -0.26795,
				"method": "rhf"
			},
			{
				"type": "occ",
				"energy": -0.2664,
				"method": "rhf"
			},
			{
				"type": "unocc",
				"energy": -0.0497,
				"method": "rhf"
			},
			{
				"type": "unocc",
				"energy": -0.04125,
				"method": "rhf"
			},
			{
				"type": "unocc",
				"energy": -0.02871,
				"method": "rhf"
			},
			{
				"type": "unocc",
				"energy": -0.02436,
				"method": "rhf"
			},
			{
				"type": "unocc",
				"energy": 0.00302,
				"method": "rhf"
			}
		],
		"cosmo_sigma_profile": { 
			"-0.025": 0.0,
			"-0.024": 0.0,
			"-0.023": 0.0,
			"-0.022": 0.0,
			"-0.021": 0.0,
			"-0.02": 0.0,
			"-0.019": 0.0,
			"-0.018": 0.0,
			"-0.017": 0.0,
			"-0.016": 0.0120662251353,
			"-0.015": 0.151338268726,
			"-0.014": 0.115386714629,
			"-0.013": 0.0507027398888,
			"-0.012": 0.0626879486209,
			"-0.011": 0.0742386346474,
			"-0.01": 0.0607305363526,
			"-0.009": 0.38141692305,
			"-0.008": 3.02576119893,
			"-0.007": 7.82169600188,
			"-0.006": 13.6558097846,
			"-0.005": 19.1489301589,
			"-0.004": 28.9841929616,
			"-0.003": 28.2279681348,
			"-0.002": 24.3101753771,
			"-0.001": 27.3108540583,
			"0.0": 24.4898317421,
			"0.001": 23.3069861403,
			"0.002": 53.7682969615,
			"0.003": 35.3785780195,
			"0.004": 3.90161343757,
			"0.005": 4.00888535257,
			"0.006": 4.57379512551,
			"0.007": 3.24498378777,
			"0.008": 5.44705615705,
			"0.009": 7.58088080615,
			"0.01": 9.01948332734,
			"0.011": 2.3393593995,
			"0.012": 0.0,
			"0.013": 0.0,
			"0.014": 0.0,
			"0.015": 0.0,
			"0.016": 0.0,
			"0.017": 0.0,
			"0.018": 0.0,
			"0.019": 0.0,
			"0.02": 0.0,
			"0.021": 0.0,
			"0.022": 0.0,
			"0.023": 0.0,
			"0.024": 0.0,
			"0.025": 0.0
		}
	}
}
