{
	 "smiles": "CCOC(=O)C(N)C1=CC(O)=CC=C1", 
	 "Tm": 422.15, 
	 "num_atms": 27, 
	 "gaussian": { 
		 "optdone": 1, 
		 "sigma_profile": "yes", 
		 "theory": "DFT", 
		 "functional": "B3LYP", 
		 "basiset": "6-31G**", 
		 "properties": { 
			 "R2extent": 3975.2744, 
			 "electric_dipole_moment_norm": 3.28876823598, 
			 "electric_quadrupole_moment_norm": 10.2928193222, 
			 "total_energy": -669.328632034, 
			 "HOMO_LUMO_gap": 0.21071, 
			 "cosmo_polarized_energy": -14.48, 
			 "cosmo_cavitation_energy": 30.89, 
			 "cosmo_dispersion_energy": -21.91, 
			 "cosmo_repulsion_energy": 1.78, 
			 "cosmo_total_nonelectrostatic_energy": 10.76, 
			 "SMD_solvation_energy": 5.84 
		},
		"coords": [
			{
				"x": -3.5574703745,
				"y": 2.4180074486,
				"z": 1.1099109134,
				"element": "C" 
			},
			{
				"x": -2.0841402898,
				"y": 2.386421086,
				"z": 0.7521066612,
				"element": "C" 
			},
			{
				"x": -1.519651172,
				"y": 1.1852625674,
				"z": 1.3311437566,
				"element": "O" 
			},
			{
				"x": -0.2032526026,
				"y": 0.9846789589,
				"z": 1.1113365077,
				"element": "C" 
			},
			{
				"x": 0.5021286595,
				"y": 1.7572260763,
				"z": 0.4968403617,
				"element": "O" 
			},
			{
				"x": 0.276808905,
				"y": -0.3440800566,
				"z": 1.716573881,
				"element": "C" 
			},
			{
				"x": -0.3436535179,
				"y": -0.6850181515,
				"z": 2.9955727041,
				"element": "N" 
			},
			{
				"x": 0.1054526674,
				"y": -1.465767205,
				"z": 0.6821870953,
				"element": "C" 
			},
			{
				"x": -0.3632015776,
				"y": -2.7182111943,
				"z": 1.0868544303,
				"element": "C" 
			},
			{
				"x": -0.4986618785,
				"y": -3.7542374941,
				"z": 0.1569612344,
				"element": "C" 
			},
			{
				"x": -0.9535951227,
				"y": -4.9942232383,
				"z": 0.5121471123,
				"element": "O" 
			},
			{
				"x": -0.1653699374,
				"y": -3.5484209485,
				"z": -1.1848030055,
				"element": "C" 
			},
			{
				"x": 0.3088471457,
				"y": -2.2995087592,
				"z": -1.57951688,
				"element": "C" 
			},
			{
				"x": 0.4473914261,
				"y": -1.2578108818,
				"z": -0.6605602195,
				"element": "C" 
			},
			{
				"x": -4.0754739552,
				"y": 1.540490012,
				"z": 0.712530503,
				"element": "H" 
			},
			{
				"x": -4.0225174774,
				"y": 3.3131962257,
				"z": 0.6855671238,
				"element": "H" 
			},
			{
				"x": -3.6979753636,
				"y": 2.4404240476,
				"z": 2.1946313427,
				"element": "H" 
			},
			{
				"x": -1.5440362404,
				"y": 3.2532078567,
				"z": 1.145343064,
				"element": "H" 
			},
			{
				"x": -1.9226927174,
				"y": 2.3610765254,
				"z": -0.3299791995,
				"element": "H" 
			},
			{
				"x": 1.3500747422,
				"y": -0.203670545,
				"z": 1.8890856042,
				"element": "H" 
			},
			{
				"x": -0.0606103588,
				"y": -0.0109277083,
				"z": 3.7017192557,
				"element": "H" 
			},
			{
				"x": -1.3538830576,
				"y": -0.6015741675,
				"z": 2.9065027511,
				"element": "H" 
			},
			{
				"x": -0.6016125999,
				"y": -2.8786029276,
				"z": 2.1346216753,
				"element": "H" 
			},
			{
				"x": -1.1304175843,
				"y": -5.0006501042,
				"z": 1.4618396391,
				"element": "H" 
			},
			{
				"x": -0.2781166608,
				"y": -4.3653969594,
				"z": -1.88966232,
				"element": "H" 
			},
			{
				"x": 0.5756336363,
				"y": -2.1351608438,
				"z": -2.6197726564,
				"element": "H" 
			},
			{
				"x": 0.8232953064,
				"y": -0.2923296194,
				"z": -0.9822813359,
				"element": "H" 
			}
		],
		 "valence_orbital": [ 
			{
				"type": "occ",
				"energy": -0.30536,
				"method": "rhf"
			},
			{
				"type": "occ",
				"energy": -0.29505,
				"method": "rhf"
			},
			{
				"type": "occ",
				"energy": -0.24722,
				"method": "rhf"
			},
			{
				"type": "occ",
				"energy": -0.23813,
				"method": "rhf"
			},
			{
				"type": "occ",
				"energy": -0.21463,
				"method": "rhf"
			},
			{
				"type": "unocc",
				"energy": -0.00392,
				"method": "rhf"
			},
			{
				"type": "unocc",
				"energy": 0.01305,
				"method": "rhf"
			},
			{
				"type": "unocc",
				"energy": 0.01727,
				"method": "rhf"
			},
			{
				"type": "unocc",
				"energy": 0.07693,
				"method": "rhf"
			},
			{
				"type": "unocc",
				"energy": 0.08197,
				"method": "rhf"
			}
		],
		"cosmo_sigma_profile": { 
			"-0.025": 0.0,
			"-0.024": 0.0,
			"-0.023": 0.0,
			"-0.022": 0.0,
			"-0.021": 0.0,
			"-0.02": 0.0,
			"-0.019": 0.0,
			"-0.018": 0.275878995508,
			"-0.017": 0.838182118403,
			"-0.016": 1.24759159554,
			"-0.015": 0.930471465829,
			"-0.014": 0.863391344236,
			"-0.013": 0.938608598509,
			"-0.012": 0.763295907902,
			"-0.011": 2.65217417606,
			"-0.01": 2.57731396977,
			"-0.009": 3.72420936858,
			"-0.008": 3.39267583853,
			"-0.007": 3.46001890082,
			"-0.006": 8.23645387182,
			"-0.005": 13.6097559572,
			"-0.004": 22.1196109496,
			"-0.003": 21.3368371149,
			"-0.002": 17.668062305,
			"-0.001": 18.0881913416,
			"0.0": 17.2959675306,
			"0.001": 11.3989688274,
			"0.002": 11.4057943786,
			"0.003": 13.1958534453,
			"0.004": 14.9123590481,
			"0.005": 14.3880089422,
			"0.006": 9.82320647239,
			"0.007": 3.73256740997,
			"0.008": 3.19427520059,
			"0.009": 3.24867063154,
			"0.01": 3.91184052492,
			"0.011": 6.10623156091,
			"0.012": 5.49627286402,
			"0.013": 1.21140888607,
			"0.014": 0.505449927735,
			"0.015": 0.366649884214,
			"0.016": 0.233840237453,
			"0.017": 0.0,
			"0.018": 0.0,
			"0.019": 0.0,
			"0.02": 0.0,
			"0.021": 0.0,
			"0.022": 0.0,
			"0.023": 0.0,
			"0.024": 0.0,
			"0.025": 0.0
		}
	}
}
