{
	 "smiles": "CCOC(=O)C1=CC(=C(Cl)C=C1)[N+]([O-])=O", 
	 "Tm": 332.15, 
	 "num_atms": 23, 
	 "gaussian": { 
		 "optdone": 1, 
		 "sigma_profile": "yes", 
		 "theory": "DFT", 
		 "functional": "B3LYP", 
		 "basiset": "6-31G**", 
		 "properties": { 
			 "R2extent": 6808.419, 
			 "electric_dipole_moment_norm": 6.11299088581, 
			 "electric_quadrupole_moment_norm": 17.7309034048, 
			 "total_energy": -1163.52358838, 
			 "HOMO_LUMO_gap": 0.1823, 
			 "cosmo_polarized_energy": -11.16, 
			 "cosmo_cavitation_energy": 30.55, 
			 "cosmo_dispersion_energy": -22.14, 
			 "cosmo_repulsion_energy": 1.75, 
			 "cosmo_total_nonelectrostatic_energy": 10.16, 
			 "SMD_solvation_energy": 8.4 
		},
		"coords": [
			{
				"x": 0.8111908695,
				"y": -0.3843244265,
				"z": -3.1095103316,
				"element": "C" 
			},
			{
				"x": -0.0358304739,
				"y": -1.0755330769,
				"z": -2.0525648489,
				"element": "C" 
			},
			{
				"x": 0.3093131017,
				"y": -0.6181046098,
				"z": -0.7190660532,
				"element": "O" 
			},
			{
				"x": -0.2993292555,
				"y": 0.5064727407,
				"z": -0.2921496153,
				"element": "C" 
			},
			{
				"x": -1.1072645173,
				"y": 1.1392615636,
				"z": -0.9424928774,
				"element": "O" 
			},
			{
				"x": 0.1323332453,
				"y": 0.8865231162,
				"z": 1.0871726659,
				"element": "C" 
			},
			{
				"x": -0.4185187592,
				"y": 2.0401365234,
				"z": 1.6448249289,
				"element": "C" 
			},
			{
				"x": -0.0708986076,
				"y": 2.4327164575,
				"z": 2.9342048082,
				"element": "C" 
			},
			{
				"x": 0.8626357405,
				"y": 1.6930087239,
				"z": 3.6793075939,
				"element": "C" 
			},
			{
				"x": 1.4162728681,
				"y": 2.1581255678,
				"z": 5.2607128796,
				"element": "Cl" 
			},
			{
				"x": 1.4270844067,
				"y": 0.549477075,
				"z": 3.1043899947,
				"element": "C" 
			},
			{
				"x": 1.0598862784,
				"y": 0.1414731587,
				"z": 1.8266992548,
				"element": "C" 
			},
			{
				"x": -0.7393233166,
				"y": 3.6409790541,
				"z": 3.4534013831,
				"element": "N" 
			},
			{
				"x": -1.0079921483,
				"y": 3.6807370984,
				"z": 4.6490775075,
				"element": "O" 
			},
			{
				"x": -1.0088283715,
				"y": 4.5155669719,
				"z": 2.6319586167,
				"element": "O" 
			},
			{
				"x": 0.5830653057,
				"y": -0.8026567944,
				"z": -4.0953272991,
				"element": "H" 
			},
			{
				"x": 0.5973940359,
				"y": 0.6868339939,
				"z": -3.1350083169,
				"element": "H" 
			},
			{
				"x": 1.8773792669,
				"y": -0.5303669232,
				"z": -2.9132957488,
				"element": "H" 
			},
			{
				"x": 0.1532345038,
				"y": -2.1509002256,
				"z": -2.0236064141,
				"element": "H" 
			},
			{
				"x": -1.1005367991,
				"y": -0.8961952625,
				"z": -2.2174332726,
				"element": "H" 
			},
			{
				"x": -1.1242085286,
				"y": 2.6328293563,
				"z": 1.0756882942,
				"element": "H" 
			},
			{
				"x": 2.1591050892,
				"y": -0.0119315525,
				"z": 3.6735887713,
				"element": "H" 
			},
			{
				"x": 1.4967360658,
				"y": -0.75162853,
				"z": 1.3959280792,
				"element": "H" 
			}
		],
		 "valence_orbital": [ 
			{
				"type": "occ",
				"energy": -0.31395,
				"method": "rhf"
			},
			{
				"type": "occ",
				"energy": -0.305,
				"method": "rhf"
			},
			{
				"type": "occ",
				"energy": -0.29207,
				"method": "rhf"
			},
			{
				"type": "occ",
				"energy": -0.28576,
				"method": "rhf"
			},
			{
				"type": "occ",
				"energy": -0.27728,
				"method": "rhf"
			},
			{
				"type": "unocc",
				"energy": -0.09498,
				"method": "rhf"
			},
			{
				"type": "unocc",
				"energy": -0.06975,
				"method": "rhf"
			},
			{
				"type": "unocc",
				"energy": -0.0276,
				"method": "rhf"
			},
			{
				"type": "unocc",
				"energy": 0.00614,
				"method": "rhf"
			},
			{
				"type": "unocc",
				"energy": 0.03373,
				"method": "rhf"
			}
		],
		"cosmo_sigma_profile": { 
			"-0.025": 0.0,
			"-0.024": 0.0,
			"-0.023": 0.0,
			"-0.022": 0.0,
			"-0.021": 0.0,
			"-0.02": 0.0,
			"-0.019": 0.0,
			"-0.018": 0.0,
			"-0.017": 0.0,
			"-0.016": 0.0,
			"-0.015": 0.0,
			"-0.014": 0.0,
			"-0.013": 0.0,
			"-0.012": 0.0,
			"-0.011": 0.0,
			"-0.01": 0.0,
			"-0.009": 1.84499738214,
			"-0.008": 5.32029026102,
			"-0.007": 5.68647075717,
			"-0.006": 7.79532740973,
			"-0.005": 12.101034067,
			"-0.004": 19.026537064,
			"-0.003": 22.9353327547,
			"-0.002": 30.9934275353,
			"-0.001": 30.2113739145,
			"0.0": 21.631838803,
			"0.001": 12.469424464,
			"0.002": 12.2862421022,
			"0.003": 11.3276245351,
			"0.004": 7.89620502173,
			"0.005": 6.36454767016,
			"0.006": 6.40086673831,
			"0.007": 12.5472500218,
			"0.008": 8.04489697553,
			"0.009": 4.84024454581,
			"0.01": 1.9164775747,
			"0.011": 3.91044765796,
			"0.012": 1.07592217023,
			"0.013": 0.0,
			"0.014": 0.0,
			"0.015": 0.0,
			"0.016": 0.0,
			"0.017": 0.0,
			"0.018": 0.0,
			"0.019": 0.0,
			"0.02": 0.0,
			"0.021": 0.0,
			"0.022": 0.0,
			"0.023": 0.0,
			"0.024": 0.0,
			"0.025": 0.0
		}
	}
}
