{
	 "smiles": "CN1N=C(C=C1CCl)C1=CC=CS1", 
	 "Tm": 369.65, 
	 "num_atms": 22, 
	 "gaussian": { 
		 "optdone": 1, 
		 "sigma_profile": "yes", 
		 "theory": "DFT", 
		 "functional": "B3LYP", 
		 "basiset": "6-31G**", 
		 "properties": { 
			 "R2extent": 4582.2586, 
			 "electric_dipole_moment_norm": 2.19457105148, 
			 "electric_quadrupole_moment_norm": 12.3909104395, 
			 "total_energy": -1316.23977595, 
			 "HOMO_LUMO_gap": 0.17514, 
			 "cosmo_polarized_energy": -11.61, 
			 "cosmo_cavitation_energy": 29.62, 
			 "cosmo_dispersion_energy": -22.1, 
			 "cosmo_repulsion_energy": 1.71, 
			 "cosmo_total_nonelectrostatic_energy": 9.23, 
			 "SMD_solvation_energy": 3.75 
		},
		"coords": [
			{
				"x": -1.0881049774,
				"y": -2.7001011748,
				"z": -0.7740242255,
				"element": "C" 
			},
			{
				"x": -1.0018905411,
				"y": -1.3476816147,
				"z": -0.2501949382,
				"element": "N" 
			},
			{
				"x": -1.0048488251,
				"y": -1.1500121198,
				"z": 1.0804176496,
				"element": "N" 
			},
			{
				"x": -0.9384010713,
				"y": 0.1792372964,
				"z": 1.2487936516,
				"element": "C" 
			},
			{
				"x": -0.8920363718,
				"y": 0.8393897035,
				"z": -0.0036057415,
				"element": "C" 
			},
			{
				"x": -0.9387157159,
				"y": -0.172617014,
				"z": -0.9470195622,
				"element": "C" 
			},
			{
				"x": -0.9412291823,
				"y": -0.0982058441,
				"z": -2.4253777025,
				"element": "C" 
			},
			{
				"x": 0.680025865,
				"y": -0.5491951354,
				"z": -3.1812329851,
				"element": "Cl" 
			},
			{
				"x": -0.9197227596,
				"y": 0.7618617631,
				"z": 2.5817280987,
				"element": "C" 
			},
			{
				"x": -0.8454566203,
				"y": 2.0896450728,
				"z": 2.9349674085,
				"element": "C" 
			},
			{
				"x": -0.8502655019,
				"y": 2.299769451,
				"z": 4.3445937731,
				"element": "C" 
			},
			{
				"x": -0.9280552813,
				"y": 1.1306724521,
				"z": 5.0508450951,
				"element": "C" 
			},
			{
				"x": -0.9968885513,
				"y": -0.251742709,
				"z": 4.0054946408,
				"element": "S" 
			},
			{
				"x": -0.8930936473,
				"y": -3.3786966096,
				"z": 0.0552322751,
				"element": "H" 
			},
			{
				"x": -0.3408413357,
				"y": -2.8501248977,
				"z": -1.5567606288,
				"element": "H" 
			},
			{
				"x": -2.0857163635,
				"y": -2.9058263849,
				"z": -1.1779508232,
				"element": "H" 
			},
			{
				"x": -0.8277878903,
				"y": 1.8994136418,
				"z": -0.1989490857,
				"element": "H" 
			},
			{
				"x": -1.1470243349,
				"y": 0.9183903889,
				"z": -2.7556427815,
				"element": "H" 
			},
			{
				"x": -1.6612267292,
				"y": -0.777512579,
				"z": -2.8833781054,
				"element": "H" 
			},
			{
				"x": -0.7877570977,
				"y": 2.8920439677,
				"z": 2.2079701855,
				"element": "H" 
			},
			{
				"x": -0.7973619607,
				"y": 3.2781485184,
				"z": 4.8085596669,
				"element": "H" 
			},
			{
				"x": -0.9483011064,
				"y": 0.9962438273,
				"z": 6.1235341345,
				"element": "H" 
			}
		],
		 "valence_orbital": [ 
			{
				"type": "occ",
				"energy": -0.2932,
				"method": "rhf"
			},
			{
				"type": "occ",
				"energy": -0.28217,
				"method": "rhf"
			},
			{
				"type": "occ",
				"energy": -0.25512,
				"method": "rhf"
			},
			{
				"type": "occ",
				"energy": -0.24406,
				"method": "rhf"
			},
			{
				"type": "occ",
				"energy": -0.20607,
				"method": "rhf"
			},
			{
				"type": "unocc",
				"energy": -0.03093,
				"method": "rhf"
			},
			{
				"type": "unocc",
				"energy": -0.02053,
				"method": "rhf"
			},
			{
				"type": "unocc",
				"energy": 0.04252,
				"method": "rhf"
			},
			{
				"type": "unocc",
				"energy": 0.04737,
				"method": "rhf"
			},
			{
				"type": "unocc",
				"energy": 0.05713,
				"method": "rhf"
			}
		],
		"cosmo_sigma_profile": { 
			"-0.025": 0.0,
			"-0.024": 0.0,
			"-0.023": 0.0,
			"-0.022": 0.0,
			"-0.021": 0.0,
			"-0.02": 0.0,
			"-0.019": 0.0,
			"-0.018": 0.0,
			"-0.017": 0.0,
			"-0.016": 0.0,
			"-0.015": 0.0,
			"-0.014": 0.0,
			"-0.013": 0.0,
			"-0.012": 0.0,
			"-0.011": 0.0,
			"-0.01": 0.0,
			"-0.009": 2.40904716626,
			"-0.008": 8.42236511605,
			"-0.007": 13.1613870496,
			"-0.006": 16.4599837459,
			"-0.005": 17.8696554159,
			"-0.004": 15.1493041868,
			"-0.003": 15.5172339559,
			"-0.002": 10.80048259,
			"-0.001": 9.78994975402,
			"0.0": 10.3090010198,
			"0.001": 12.41731351,
			"0.002": 13.2567064421,
			"0.003": 19.4887240279,
			"0.004": 30.2687487934,
			"0.005": 21.7491599837,
			"0.006": 13.5219879641,
			"0.007": 3.56614664291,
			"0.008": 1.94791067033,
			"0.009": 1.44214310104,
			"0.01": 1.35528145828,
			"0.011": 0.959816622187,
			"0.012": 1.04161842974,
			"0.013": 0.495005053927,
			"0.014": 0.0,
			"0.015": 0.0,
			"0.016": 0.0,
			"0.017": 0.0,
			"0.018": 0.0,
			"0.019": 0.0,
			"0.02": 0.0,
			"0.021": 0.0,
			"0.022": 0.0,
			"0.023": 0.0,
			"0.024": 0.0,
			"0.025": 0.0
		}
	}
}
