{
	 "smiles": "OC(=O)C=CC1=CNC=C1", 
	 "Tm": 457.15, 
	 "num_atms": 17, 
	 "gaussian": { 
		 "optdone": 1, 
		 "sigma_profile": "yes", 
		 "theory": "DFT", 
		 "functional": "B3LYP", 
		 "basiset": "6-31G**", 
		 "properties": { 
			 "R2extent": 2020.7813, 
			 "electric_dipole_moment_norm": 2.40267192309, 
			 "electric_quadrupole_moment_norm": 9.08294540719, 
			 "total_energy": -476.152505941, 
			 "HOMO_LUMO_gap": 0.1639, 
			 "cosmo_polarized_energy": -12.49, 
			 "cosmo_cavitation_energy": 21.64, 
			 "cosmo_dispersion_energy": -16.27, 
			 "cosmo_repulsion_energy": 1.32, 
			 "cosmo_total_nonelectrostatic_energy": 6.69, 
			 "SMD_solvation_energy": 5.48 
		},
		"coords": [
			{
				"x": 2.688609196,
				"y": 0.1981897737,
				"z": 3.1438360216,
				"element": "O" 
			},
			{
				"x": 1.9529307347,
				"y": 0.5115862311,
				"z": 2.0388467755,
				"element": "C" 
			},
			{
				"x": 2.4995980036,
				"y": 0.9375619516,
				"z": 1.0306250434,
				"element": "O" 
			},
			{
				"x": 0.5322019249,
				"y": 0.2633560088,
				"z": 2.2747692719,
				"element": "C" 
			},
			{
				"x": -0.5073631424,
				"y": 0.4518512976,
				"z": 1.4201829212,
				"element": "C" 
			},
			{
				"x": -0.6235123561,
				"y": 0.9276059531,
				"z": 0.0621958335,
				"element": "C" 
			},
			{
				"x": 0.346106277,
				"y": 1.3656364119,
				"z": -0.8423024801,
				"element": "C" 
			},
			{
				"x": -0.2883380601,
				"y": 1.7086452575,
				"z": -1.9965972311,
				"element": "N" 
			},
			{
				"x": -1.6522033737,
				"y": 1.5096243502,
				"z": -1.8812322497,
				"element": "C" 
			},
			{
				"x": -1.8882623882,
				"y": 1.0285050831,
				"z": -0.6211343906,
				"element": "C" 
			},
			{
				"x": 3.6091322064,
				"y": 0.3909543353,
				"z": 2.9026803195,
				"element": "H" 
			},
			{
				"x": 0.3063120737,
				"y": -0.1191029543,
				"z": 3.2644830851,
				"element": "H" 
			},
			{
				"x": -1.4761672162,
				"y": 0.1875562449,
				"z": 1.8450278424,
				"element": "H" 
			},
			{
				"x": 1.4124952599,
				"y": 1.4414241219,
				"z": -0.7127163125,
				"element": "H" 
			},
			{
				"x": 0.1776440716,
				"y": 2.0582588201,
				"z": -2.819029092,
				"element": "H" 
			},
			{
				"x": -2.3209976303,
				"y": 1.727633378,
				"z": -2.6999891686,
				"element": "H" 
			},
			{
				"x": -2.8533855809,
				"y": 0.7686137354,
				"z": -0.2080461894,
				"element": "H" 
			}
		],
		 "valence_orbital": [ 
			{
				"type": "occ",
				"energy": -0.31144,
				"method": "rhf"
			},
			{
				"type": "occ",
				"energy": -0.2972,
				"method": "rhf"
			},
			{
				"type": "occ",
				"energy": -0.26191,
				"method": "rhf"
			},
			{
				"type": "occ",
				"energy": -0.23512,
				"method": "rhf"
			},
			{
				"type": "occ",
				"energy": -0.20828,
				"method": "rhf"
			},
			{
				"type": "unocc",
				"energy": -0.04438,
				"method": "rhf"
			},
			{
				"type": "unocc",
				"energy": 0.03961,
				"method": "rhf"
			},
			{
				"type": "unocc",
				"energy": 0.07422,
				"method": "rhf"
			},
			{
				"type": "unocc",
				"energy": 0.07466,
				"method": "rhf"
			},
			{
				"type": "unocc",
				"energy": 0.09551,
				"method": "rhf"
			}
		],
		"cosmo_sigma_profile": { 
			"-0.025": 0.0,
			"-0.024": 0.0,
			"-0.023": 0.0,
			"-0.022": 0.0,
			"-0.021": 0.0,
			"-0.02": 0.0,
			"-0.019": 0.0,
			"-0.018": 0.130222665471,
			"-0.017": 0.755301062809,
			"-0.016": 2.60613569787,
			"-0.015": 2.04056676653,
			"-0.014": 1.44941534765,
			"-0.013": 2.32982158685,
			"-0.012": 1.70023647242,
			"-0.011": 1.8880867941,
			"-0.01": 2.25141992316,
			"-0.009": 1.7048450481,
			"-0.008": 2.87252016691,
			"-0.007": 4.41735977776,
			"-0.006": 9.21129990782,
			"-0.005": 9.27078159436,
			"-0.004": 7.92543174667,
			"-0.003": 7.23271806718,
			"-0.002": 7.02406280911,
			"-0.001": 7.58153960474,
			"0.0": 9.42879527643,
			"0.001": 9.46441022192,
			"0.002": 10.7660644922,
			"0.003": 10.8088332677,
			"0.004": 14.1468703306,
			"0.005": 14.885845279,
			"0.006": 9.43310980958,
			"0.007": 7.08748701534,
			"0.008": 3.46532589786,
			"0.009": 2.65329137537,
			"0.01": 3.54229709964,
			"0.011": 2.23669147167,
			"0.012": 1.94533281156,
			"0.013": 0.772151978554,
			"0.014": 0.0,
			"0.015": 0.0,
			"0.016": 0.0,
			"0.017": 0.0,
			"0.018": 0.0,
			"0.019": 0.0,
			"0.02": 0.0,
			"0.021": 0.0,
			"0.022": 0.0,
			"0.023": 0.0,
			"0.024": 0.0,
			"0.025": 0.0
		}
	}
}
