{
	 "smiles": "CCCN(CCC)C1=C(C=C(C(N)=C1N(=O)=O)C(F)(F)F)N(=O)=O", 
	 "Tm": 397.15, 
	 "num_atms": 41, 
	 "gaussian": { 
		 "optdone": 1, 
		 "sigma_profile": "yes", 
		 "theory": "DFT", 
		 "functional": "B3LYP", 
		 "basiset": "6-31G**", 
		 "properties": { 
			 "R2extent": 9530.0342, 
			 "electric_dipole_moment_norm": 2.21036427993, 
			 "electric_quadrupole_moment_norm": 19.3057356814, 
			 "total_energy": -1324.8477069, 
			 "HOMO_LUMO_gap": 0.12624, 
			 "cosmo_polarized_energy": -12.62, 
			 "cosmo_cavitation_energy": 43.09, 
			 "cosmo_dispersion_energy": -28.96, 
			 "cosmo_repulsion_energy": 2.12, 
			 "cosmo_total_nonelectrostatic_energy": 16.24, 
			 "SMD_solvation_energy": 11.91 
		},
		"coords": [
			{
				"x": 0.6746155454,
				"y": 3.2806693753,
				"z": -0.3513147094,
				"element": "C" 
			},
			{
				"x": 0.2947694479,
				"y": 2.8195219716,
				"z": 1.0600202979,
				"element": "C" 
			},
			{
				"x": 0.7962250479,
				"y": 1.4107852581,
				"z": 1.4118266016,
				"element": "C" 
			},
			{
				"x": 0.2659531346,
				"y": 0.3365239026,
				"z": 0.5556790821,
				"element": "N" 
			},
			{
				"x": 0.983312234,
				"y": -0.9616291936,
				"z": 0.6152574348,
				"element": "C" 
			},
			{
				"x": 2.5112907757,
				"y": -0.9116643634,
				"z": 0.488219018,
				"element": "C" 
			},
			{
				"x": 3.0638532559,
				"y": -0.3160072798,
				"z": -0.8088638329,
				"element": "C" 
			},
			{
				"x": -1.0785135988,
				"y": 0.273243922,
				"z": 0.2099907911,
				"element": "C" 
			},
			{
				"x": -1.4938120165,
				"y": -0.1789304417,
				"z": -1.0668585281,
				"element": "C" 
			},
			{
				"x": -2.8374003164,
				"y": -0.2413970658,
				"z": -1.4250396063,
				"element": "C" 
			},
			{
				"x": -3.8340743641,
				"y": 0.2422041486,
				"z": -0.5979963637,
				"element": "C" 
			},
			{
				"x": -3.5037344376,
				"y": 0.7567732411,
				"z": 0.6876921243,
				"element": "C" 
			},
			{
				"x": -4.4570513255,
				"y": 1.2609968348,
				"z": 1.5003907475,
				"element": "N" 
			},
			{
				"x": -2.1339239067,
				"y": 0.6472003926,
				"z": 1.0879341671,
				"element": "C" 
			},
			{
				"x": -1.8607064559,
				"y": 0.7334789866,
				"z": 2.5133106089,
				"element": "N" 
			},
			{
				"x": -1.0935243221,
				"y": -0.0882846378,
				"z": 3.0132643885,
				"element": "O" 
			},
			{
				"x": -2.4457136973,
				"y": 1.6056230856,
				"z": 3.1804820663,
				"element": "O" 
			},
			{
				"x": -5.2471904863,
				"y": 0.3068956401,
				"z": -1.0993157615,
				"element": "C" 
			},
			{
				"x": -5.4038826476,
				"y": -0.3389243528,
				"z": -2.2664572569,
				"element": "F" 
			},
			{
				"x": -6.1262863077,
				"y": -0.246915296,
				"z": -0.2123670485,
				"element": "F" 
			},
			{
				"x": -5.6632643045,
				"y": 1.5828096214,
				"z": -1.2780112545,
				"element": "F" 
			},
			{
				"x": -0.5580217449,
				"y": -0.4977027671,
				"z": -2.1473452418,
				"element": "N" 
			},
			{
				"x": -0.8447428579,
				"y": -1.4596840496,
				"z": -2.8641227174,
				"element": "O" 
			},
			{
				"x": 0.4225393985,
				"y": 0.2260407728,
				"z": -2.3120812868,
				"element": "O" 
			},
			{
				"x": 0.2848191727,
				"y": 4.2841185547,
				"z": -0.549658506,
				"element": "H" 
			},
			{
				"x": 0.2888867156,
				"y": 2.6032541447,
				"z": -1.1174499011,
				"element": "H" 
			},
			{
				"x": 1.7635614977,
				"y": 3.3185453814,
				"z": -0.4691930242,
				"element": "H" 
			},
			{
				"x": -0.7881447944,
				"y": 2.8981863418,
				"z": 1.2031299414,
				"element": "H" 
			},
			{
				"x": 0.7357914863,
				"y": 3.4956568634,
				"z": 1.8027486219,
				"element": "H" 
			},
			{
				"x": 0.6422818501,
				"y": 1.1999479094,
				"z": 2.4794432885,
				"element": "H" 
			},
			{
				"x": 1.8768758629,
				"y": 1.4029290079,
				"z": 1.2501363393,
				"element": "H" 
			},
			{
				"x": 0.5819650157,
				"y": -1.604136485,
				"z": -0.1729954171,
				"element": "H" 
			},
			{
				"x": 0.7279855264,
				"y": -1.4405054803,
				"z": 1.5725772401,
				"element": "H" 
			},
			{
				"x": 2.9434838531,
				"y": -0.3989479349,
				"z": 1.355668378,
				"element": "H" 
			},
			{
				"x": 2.8418003145,
				"y": -1.9543279821,
				"z": 0.5812987537,
				"element": "H" 
			},
			{
				"x": 4.1574056192,
				"y": -0.3708404673,
				"z": -0.8166912411,
				"element": "H" 
			},
			{
				"x": 2.7750745343,
				"y": 0.731465096,
				"z": -0.929803382,
				"element": "H" 
			},
			{
				"x": 2.6886585181,
				"y": -0.8509930857,
				"z": -1.6854148182,
				"element": "H" 
			},
			{
				"x": -3.0878914125,
				"y": -0.6154274473,
				"z": -2.4094691596,
				"element": "H" 
			},
			{
				"x": -4.1769253799,
				"y": 1.6443060395,
				"z": 2.3922291181,
				"element": "H" 
			},
			{
				"x": -5.4295444298,
				"y": 1.1023418381,
				"z": 1.2942500481,
				"element": "H" 
			}
		],
		 "valence_orbital": [ 
			{
				"type": "occ",
				"energy": -0.31032,
				"method": "rhf"
			},
			{
				"type": "occ",
				"energy": -0.29917,
				"method": "rhf"
			},
			{
				"type": "occ",
				"energy": -0.29255,
				"method": "rhf"
			},
			{
				"type": "occ",
				"energy": -0.25276,
				"method": "rhf"
			},
			{
				"type": "occ",
				"energy": -0.22856,
				"method": "rhf"
			},
			{
				"type": "unocc",
				"energy": -0.10232,
				"method": "rhf"
			},
			{
				"type": "unocc",
				"energy": -0.08614,
				"method": "rhf"
			},
			{
				"type": "unocc",
				"energy": -0.0407,
				"method": "rhf"
			},
			{
				"type": "unocc",
				"energy": -0.01989,
				"method": "rhf"
			},
			{
				"type": "unocc",
				"energy": 0.06907,
				"method": "rhf"
			}
		],
		"cosmo_sigma_profile": { 
			"-0.025": 0.0,
			"-0.024": 0.0,
			"-0.023": 0.0,
			"-0.022": 0.0,
			"-0.021": 0.0,
			"-0.02": 0.0,
			"-0.019": 0.0,
			"-0.018": 0.0,
			"-0.017": 0.0,
			"-0.016": 0.0,
			"-0.015": 0.127779747101,
			"-0.014": 0.613008625564,
			"-0.013": 1.01090525929,
			"-0.012": 1.74835699338,
			"-0.011": 1.63884169093,
			"-0.01": 1.96030622006,
			"-0.009": 1.28284617217,
			"-0.008": 2.58872553044,
			"-0.007": 4.70547179045,
			"-0.006": 6.58337502821,
			"-0.005": 9.81931690519,
			"-0.004": 18.574750678,
			"-0.003": 37.3830863217,
			"-0.002": 42.0168819698,
			"-0.001": 39.4282972886,
			"0.0": 33.0957788366,
			"0.001": 30.7445845307,
			"0.002": 35.3753525078,
			"0.003": 14.8281896855,
			"0.004": 6.48273697998,
			"0.005": 8.2577482503,
			"0.006": 8.54584104798,
			"0.007": 10.8087002401,
			"0.008": 10.7573825148,
			"0.009": 7.8915119346,
			"0.01": 3.97949498564,
			"0.011": 0.0928697271567,
			"0.012": 0.0,
			"0.013": 0.0,
			"0.014": 0.0,
			"0.015": 0.0,
			"0.016": 0.0,
			"0.017": 0.0,
			"0.018": 0.0,
			"0.019": 0.0,
			"0.02": 0.0,
			"0.021": 0.0,
			"0.022": 0.0,
			"0.023": 0.0,
			"0.024": 0.0,
			"0.025": 0.0
		}
	}
}
