{
	 "smiles": "NC1=C(C=C2C=CC=CC2=C1)C(O)=O", 
	 "Tm": 489.15, 
	 "num_atms": 23, 
	 "gaussian": { 
		 "optdone": 1, 
		 "sigma_profile": "yes", 
		 "theory": "DFT", 
		 "functional": "B3LYP", 
		 "basiset": "6-31G**", 
		 "properties": { 
			 "R2extent": 3258.6531, 
			 "electric_dipole_moment_norm": 6.20769947887, 
			 "electric_quadrupole_moment_norm": 23.6728350372, 
			 "total_energy": -629.823178796, 
			 "HOMO_LUMO_gap": 0.16595, 
			 "cosmo_polarized_energy": -17.28, 
			 "cosmo_cavitation_energy": 26.9, 
			 "cosmo_dispersion_energy": -20.25, 
			 "cosmo_repulsion_energy": 1.56, 
			 "cosmo_total_nonelectrostatic_energy": 8.21, 
			 "SMD_solvation_energy": 5.73 
		},
		"coords": [
			{
				"x": 1.8340050256,
				"y": -0.739866052,
				"z": -1.1450110934,
				"element": "N" 
			},
			{
				"x": 0.5468881978,
				"y": -0.3913224434,
				"z": -0.6136950541,
				"element": "C" 
			},
			{
				"x": -0.327675596,
				"y": -1.441602399,
				"z": -0.1847566117,
				"element": "C" 
			},
			{
				"x": -1.5605624373,
				"y": -1.1106434836,
				"z": 0.3432844367,
				"element": "C" 
			},
			{
				"x": -2.0073152264,
				"y": 0.2293500928,
				"z": 0.4320376152,
				"element": "C" 
			},
			{
				"x": -3.2822714655,
				"y": 0.5703008565,
				"z": 0.9596436119,
				"element": "C" 
			},
			{
				"x": -3.6884501887,
				"y": 1.884078332,
				"z": 1.0190449602,
				"element": "C" 
			},
			{
				"x": -2.8358126191,
				"y": 2.915138557,
				"z": 0.5515212728,
				"element": "C" 
			},
			{
				"x": -1.5948078073,
				"y": 2.6176657199,
				"z": 0.0333518064,
				"element": "C" 
			},
			{
				"x": -1.1466175753,
				"y": 1.2719843403,
				"z": -0.0410199903,
				"element": "C" 
			},
			{
				"x": 0.1326649554,
				"y": 0.9214546499,
				"z": -0.5452225876,
				"element": "C" 
			},
			{
				"x": -0.0295070917,
				"y": -2.9172037869,
				"z": -0.3228678267,
				"element": "C" 
			},
			{
				"x": 0.9850443291,
				"y": -3.2621170291,
				"z": -1.1357687312,
				"element": "O" 
			},
			{
				"x": -0.691891677,
				"y": -3.7607218355,
				"z": 0.2427957229,
				"element": "O" 
			},
			{
				"x": 2.2528276854,
				"y": 0.0368739626,
				"z": -1.6468436536,
				"element": "H" 
			},
			{
				"x": 2.4800508394,
				"y": -1.027195655,
				"z": -0.4116147687,
				"element": "H" 
			},
			{
				"x": -2.2009894455,
				"y": -1.9223570957,
				"z": 0.6741287019,
				"element": "H" 
			},
			{
				"x": -3.9302812775,
				"y": -0.2265269997,
				"z": 1.3144290399,
				"element": "H" 
			},
			{
				"x": -4.6640240566,
				"y": 2.1363010187,
				"z": 1.4235916022,
				"element": "H" 
			},
			{
				"x": -3.1675840407,
				"y": 3.9481466775,
				"z": 0.6031825399,
				"element": "H" 
			},
			{
				"x": -0.9428840589,
				"y": 3.4106084603,
				"z": -0.3238684773,
				"element": "H" 
			},
			{
				"x": 0.803886368,
				"y": 1.7142700554,
				"z": -0.8692120191,
				"element": "H" 
			},
			{
				"x": 1.3983071628,
				"y": -2.4457159429,
				"z": -1.5066304964,
				"element": "H" 
			}
		],
		 "valence_orbital": [ 
			{
				"type": "occ",
				"energy": -0.29588,
				"method": "rhf"
			},
			{
				"type": "occ",
				"energy": -0.2889,
				"method": "rhf"
			},
			{
				"type": "occ",
				"energy": -0.25889,
				"method": "rhf"
			},
			{
				"type": "occ",
				"energy": -0.24759,
				"method": "rhf"
			},
			{
				"type": "occ",
				"energy": -0.22458,
				"method": "rhf"
			},
			{
				"type": "unocc",
				"energy": -0.05863,
				"method": "rhf"
			},
			{
				"type": "unocc",
				"energy": -0.03194,
				"method": "rhf"
			},
			{
				"type": "unocc",
				"energy": 0.01755,
				"method": "rhf"
			},
			{
				"type": "unocc",
				"energy": 0.04137,
				"method": "rhf"
			},
			{
				"type": "unocc",
				"energy": 0.05905,
				"method": "rhf"
			}
		],
		"cosmo_sigma_profile": { 
			"-0.025": 0.0,
			"-0.024": 0.0,
			"-0.023": 0.0,
			"-0.022": 0.0,
			"-0.021": 0.0,
			"-0.02": 0.0,
			"-0.019": 0.0,
			"-0.018": 0.0,
			"-0.017": 0.0,
			"-0.016": 0.0,
			"-0.015": 0.0,
			"-0.014": 0.295310502795,
			"-0.013": 3.22401061563,
			"-0.012": 3.51944255472,
			"-0.011": 3.46480927339,
			"-0.01": 3.77314122612,
			"-0.009": 2.64961112888,
			"-0.008": 2.35336442162,
			"-0.007": 6.0811721989,
			"-0.006": 14.0690681338,
			"-0.005": 13.1644725142,
			"-0.004": 14.0865451289,
			"-0.003": 11.8333129942,
			"-0.002": 10.3349496256,
			"-0.001": 10.294513019,
			"0.0": 10.5193656634,
			"0.001": 13.1781807658,
			"0.002": 16.5425195761,
			"0.003": 24.9466191883,
			"0.004": 14.7106771496,
			"0.005": 6.83407633348,
			"0.006": 2.28262243529,
			"0.007": 2.33959875399,
			"0.008": 2.11695003518,
			"0.009": 2.72575495515,
			"0.01": 3.47715910426,
			"0.011": 4.50779268849,
			"0.012": 6.75295855436,
			"0.013": 3.89911654545,
			"0.014": 1.28328614031,
			"0.015": 0.0,
			"0.016": 0.0,
			"0.017": 0.0,
			"0.018": 0.0,
			"0.019": 0.0,
			"0.02": 0.0,
			"0.021": 0.0,
			"0.022": 0.0,
			"0.023": 0.0,
			"0.024": 0.0,
			"0.025": 0.0
		}
	}
}
