{
	 "smiles": "[O-][N+](=O)C1=CC=CC(=C1)N1C(=O)C2ON=C(C2C1=O)C(=O)C1=CC=CC2=C1C=CC=C2", 
	 "Tm": 464.15, 
	 "num_atms": 44, 
	 "gaussian": { 
		 "optdone": 1, 
		 "sigma_profile": "yes", 
		 "theory": "DFT", 
		 "functional": "B3LYP", 
		 "basiset": "6-31G**", 
		 "properties": { 
			 "R2extent": 17574.1672, 
			 "electric_dipole_moment_norm": 7.83335556706, 
			 "electric_quadrupole_moment_norm": 35.107627791, 
			 "total_energy": -1461.62463616, 
			 "HOMO_LUMO_gap": 0.14213, 
			 "cosmo_polarized_energy": -24.77, 
			 "cosmo_cavitation_energy": 50.61, 
			 "cosmo_dispersion_energy": -35.51, 
			 "cosmo_repulsion_energy": 2.59, 
			 "cosmo_total_nonelectrostatic_energy": 17.69, 
			 "SMD_solvation_energy": 11.55 
		},
		"coords": [
			{
				"x": -1.7537757818,
				"y": -6.4626200246,
				"z": -5.1904234569,
				"element": "O" 
			},
			{
				"x": -1.691368561,
				"y": -6.1612544307,
				"z": -3.9994667607,
				"element": "N" 
			},
			{
				"x": -1.6827427019,
				"y": -6.9658724542,
				"z": -3.0698531959,
				"element": "O" 
			},
			{
				"x": -1.6271071268,
				"y": -4.7269248001,
				"z": -3.6636079183,
				"element": "C" 
			},
			{
				"x": -1.6736166937,
				"y": -3.7921614255,
				"z": -4.6944594562,
				"element": "C" 
			},
			{
				"x": -1.6170754916,
				"y": -2.4405355447,
				"z": -4.3605255126,
				"element": "C" 
			},
			{
				"x": -1.5114069256,
				"y": -2.0413135925,
				"z": -3.0288697314,
				"element": "C" 
			},
			{
				"x": -1.4722755531,
				"y": -3.0067067748,
				"z": -2.0138747641,
				"element": "C" 
			},
			{
				"x": -1.5310173443,
				"y": -4.3661643359,
				"z": -2.3229444323,
				"element": "C" 
			},
			{
				"x": -1.3647303615,
				"y": -2.5830753916,
				"z": -0.6553534662,
				"element": "N" 
			},
			{
				"x": -0.592042297,
				"y": -3.2377462266,
				"z": 0.3201383975,
				"element": "C" 
			},
			{
				"x": 0.0979633495,
				"y": -4.2128211065,
				"z": 0.1483003303,
				"element": "O" 
			},
			{
				"x": -0.8158093286,
				"y": -2.4990585601,
				"z": 1.6568555262,
				"element": "C" 
			},
			{
				"x": 0.445288954,
				"y": -2.1054412426,
				"z": 2.2362267577,
				"element": "O" 
			},
			{
				"x": 0.6836067915,
				"y": -0.7756780655,
				"z": 1.9105544452,
				"element": "N" 
			},
			{
				"x": -0.3539565735,
				"y": -0.2519506822,
				"z": 1.3633069716,
				"element": "C" 
			},
			{
				"x": -1.5385648791,
				"y": -1.211333162,
				"z": 1.2679430161,
				"element": "C" 
			},
			{
				"x": -2.0795002773,
				"y": -1.4767987918,
				"z": -0.1380964002,
				"element": "C" 
			},
			{
				"x": -2.9784072887,
				"y": -0.902082326,
				"z": -0.6967806295,
				"element": "O" 
			},
			{
				"x": -0.3103898704,
				"y": 1.1173477393,
				"z": 0.7296198289,
				"element": "C" 
			},
			{
				"x": -0.8106713548,
				"y": 1.1816802674,
				"z": -0.3896753328,
				"element": "O" 
			},
			{
				"x": 0.3238576763,
				"y": 2.2492510875,
				"z": 1.446130021,
				"element": "C" 
			},
			{
				"x": 0.5164439697,
				"y": 2.1392198535,
				"z": 2.8200511687,
				"element": "C" 
			},
			{
				"x": 1.068165261,
				"y": 3.1874898069,
				"z": 3.5801723995,
				"element": "C" 
			},
			{
				"x": 1.4428413014,
				"y": 4.3551505218,
				"z": 2.9579987508,
				"element": "C" 
			},
			{
				"x": 1.2777958139,
				"y": 4.5255436195,
				"z": 1.5582603853,
				"element": "C" 
			},
			{
				"x": 0.7011792913,
				"y": 3.4708613586,
				"z": 0.7701485708,
				"element": "C" 
			},
			{
				"x": 0.56126568,
				"y": 3.6916579021,
				"z": -0.6274833767,
				"element": "C" 
			},
			{
				"x": 0.9662719991,
				"y": 4.8792804064,
				"z": -1.2016217596,
				"element": "C" 
			},
			{
				"x": 1.5283898032,
				"y": 5.9142118137,
				"z": -0.4222144404,
				"element": "C" 
			},
			{
				"x": 1.6797036696,
				"y": 5.7358154466,
				"z": 0.9330265136,
				"element": "C" 
			},
			{
				"x": -1.749907797,
				"y": -4.130891931,
				"z": -5.7196464783,
				"element": "H" 
			},
			{
				"x": -1.6501228587,
				"y": -1.6897168569,
				"z": -5.1429698352,
				"element": "H" 
			},
			{
				"x": -1.462532467,
				"y": -0.9900186127,
				"z": -2.7715156029,
				"element": "H" 
			},
			{
				"x": -1.4880746778,
				"y": -5.1322806985,
				"z": -1.5624144322,
				"element": "H" 
			},
			{
				"x": -1.3249384929,
				"y": -3.15074008,
				"z": 2.3697806092,
				"element": "H" 
			},
			{
				"x": -2.3610421167,
				"y": -0.8856293276,
				"z": 1.9111252653,
				"element": "H" 
			},
			{
				"x": 0.2327139805,
				"y": 1.2262934298,
				"z": 3.3272692963,
				"element": "H" 
			},
			{
				"x": 1.1952755523,
				"y": 3.0648817732,
				"z": 4.6509008272,
				"element": "H" 
			},
			{
				"x": 1.873533635,
				"y": 5.1711779064,
				"z": 3.5326949219,
				"element": "H" 
			},
			{
				"x": 0.1198968224,
				"y": 2.91821143,
				"z": -1.2383548036,
				"element": "H" 
			},
			{
				"x": 0.8478940329,
				"y": 5.0193624177,
				"z": -2.2722591241,
				"element": "H" 
			},
			{
				"x": 1.839146281,
				"y": 6.8422272417,
				"z": -0.8926969864,
				"element": "H" 
			},
			{
				"x": 2.1131429562,
				"y": 6.5185524225,
				"z": 1.5499038934,
				"element": "H" 
			}
		],
		 "valence_orbital": [ 
			{
				"type": "occ",
				"energy": -0.27706,
				"method": "rhf"
			},
			{
				"type": "occ",
				"energy": -0.2717,
				"method": "rhf"
			},
			{
				"type": "occ",
				"energy": -0.26565,
				"method": "rhf"
			},
			{
				"type": "occ",
				"energy": -0.26225,
				"method": "rhf"
			},
			{
				"type": "occ",
				"energy": -0.23688,
				"method": "rhf"
			},
			{
				"type": "unocc",
				"energy": -0.09475,
				"method": "rhf"
			},
			{
				"type": "unocc",
				"energy": -0.09116,
				"method": "rhf"
			},
			{
				"type": "unocc",
				"energy": -0.05635,
				"method": "rhf"
			},
			{
				"type": "unocc",
				"energy": -0.0506,
				"method": "rhf"
			},
			{
				"type": "unocc",
				"energy": -0.04254,
				"method": "rhf"
			}
		],
		"cosmo_sigma_profile": { 
			"-0.025": 0.0,
			"-0.024": 0.0,
			"-0.023": 0.0,
			"-0.022": 0.0,
			"-0.021": 0.0,
			"-0.02": 0.0,
			"-0.019": 0.0,
			"-0.018": 0.0,
			"-0.017": 0.0,
			"-0.016": 0.0,
			"-0.015": 0.0,
			"-0.014": 0.0,
			"-0.013": 0.513428086533,
			"-0.012": 1.54695597836,
			"-0.011": 3.76676235215,
			"-0.01": 8.16817841322,
			"-0.009": 6.85002642828,
			"-0.008": 9.78191529641,
			"-0.007": 20.8954324326,
			"-0.006": 24.1113284694,
			"-0.005": 22.4160283285,
			"-0.004": 23.7085951149,
			"-0.003": 20.4401032575,
			"-0.002": 23.3698884851,
			"-0.001": 25.1456912747,
			"0.0": 28.141626398,
			"0.001": 26.0896126154,
			"0.002": 31.8535899626,
			"0.003": 24.8633411573,
			"0.004": 19.7256793536,
			"0.005": 11.2340277737,
			"0.006": 13.1807095538,
			"0.007": 18.6932163584,
			"0.008": 13.4995700322,
			"0.009": 13.6229448567,
			"0.01": 12.2281219839,
			"0.011": 4.95059134625,
			"0.012": 0.167831435542,
			"0.013": 0.0,
			"0.014": 0.0,
			"0.015": 0.0,
			"0.016": 0.0,
			"0.017": 0.0,
			"0.018": 0.0,
			"0.019": 0.0,
			"0.02": 0.0,
			"0.021": 0.0,
			"0.022": 0.0,
			"0.023": 0.0,
			"0.024": 0.0,
			"0.025": 0.0
		}
	}
}
