{
	 "smiles": "OC(=O)CCC1=NC=CS1", 
	 "Tm": 397.15, 
	 "num_atms": 17, 
	 "gaussian": { 
		 "optdone": 1, 
		 "sigma_profile": "yes", 
		 "theory": "DFT", 
		 "functional": "B3LYP", 
		 "basiset": "6-31G**", 
		 "properties": { 
			 "R2extent": 2815.8721, 
			 "electric_dipole_moment_norm": 0.679624109343, 
			 "electric_quadrupole_moment_norm": 9.6665727696, 
			 "total_energy": -836.251717133, 
			 "HOMO_LUMO_gap": 0.21839, 
			 "cosmo_polarized_energy": -11.64, 
			 "cosmo_cavitation_energy": 23.2, 
			 "cosmo_dispersion_energy": -17.31, 
			 "cosmo_repulsion_energy": 1.39, 
			 "cosmo_total_nonelectrostatic_energy": 7.27, 
			 "SMD_solvation_energy": 3.82 
		},
		"coords": [
			{
				"x": -0.0421393581,
				"y": 0.1526836735,
				"z": 2.9387876229,
				"element": "O" 
			},
			{
				"x": -0.9624357529,
				"y": 0.2748930504,
				"z": 1.9536551179,
				"element": "C" 
			},
			{
				"x": -0.9430732407,
				"y": 1.1807780587,
				"z": 1.1492760469,
				"element": "O" 
			},
			{
				"x": -1.9982271492,
				"y": -0.827304664,
				"z": 2.0226054345,
				"element": "C" 
			},
			{
				"x": -2.8999471655,
				"y": -0.8537038408,
				"z": 0.7860326705,
				"element": "C" 
			},
			{
				"x": -2.1801349163,
				"y": -1.3684837825,
				"z": -0.4335679037,
				"element": "C" 
			},
			{
				"x": -1.2066804834,
				"y": -2.2330408352,
				"z": -0.4000992687,
				"element": "N" 
			},
			{
				"x": -0.7729488542,
				"y": -2.5506246408,
				"z": -1.6679969951,
				"element": "C" 
			},
			{
				"x": -1.4198134324,
				"y": -1.928027353,
				"z": -2.6944682406,
				"element": "C" 
			},
			{
				"x": -2.6394412649,
				"y": -0.8720834563,
				"z": -2.0580038162,
				"element": "S" 
			},
			{
				"x": 0.567950017,
				"y": 0.9018678724,
				"z": 2.8323490531,
				"element": "H" 
			},
			{
				"x": -2.5948958186,
				"y": -0.6626164443,
				"z": 2.9281970201,
				"element": "H" 
			},
			{
				"x": -1.483442323,
				"y": -1.7829757748,
				"z": 2.1497080643,
				"element": "H" 
			},
			{
				"x": -3.2882306162,
				"y": 0.1494703185,
				"z": 0.5891671627,
				"element": "H" 
			},
			{
				"x": -3.7625065042,
				"y": -1.5017874077,
				"z": 0.9872404233,
				"element": "H" 
			},
			{
				"x": 0.0400822375,
				"y": -3.2574697486,
				"z": -1.786565907,
				"element": "H" 
			},
			{
				"x": -1.2482153748,
				"y": -2.0191750255,
				"z": -3.7573164848,
				"element": "H" 
			}
		],
		 "valence_orbital": [ 
			{
				"type": "occ",
				"energy": -0.31809,
				"method": "rhf"
			},
			{
				"type": "occ",
				"energy": -0.28067,
				"method": "rhf"
			},
			{
				"type": "occ",
				"energy": -0.27666,
				"method": "rhf"
			},
			{
				"type": "occ",
				"energy": -0.27108,
				"method": "rhf"
			},
			{
				"type": "occ",
				"energy": -0.23962,
				"method": "rhf"
			},
			{
				"type": "unocc",
				"energy": -0.02123,
				"method": "rhf"
			},
			{
				"type": "unocc",
				"energy": 0.01163,
				"method": "rhf"
			},
			{
				"type": "unocc",
				"energy": 0.02073,
				"method": "rhf"
			},
			{
				"type": "unocc",
				"energy": 0.05303,
				"method": "rhf"
			},
			{
				"type": "unocc",
				"energy": 0.07982,
				"method": "rhf"
			}
		],
		"cosmo_sigma_profile": { 
			"-0.025": 0.0,
			"-0.024": 0.0,
			"-0.023": 0.0,
			"-0.022": 0.0,
			"-0.021": 0.0,
			"-0.02": 0.0,
			"-0.019": 0.0,
			"-0.018": 0.655243852075,
			"-0.017": 0.867376337172,
			"-0.016": 1.04765381275,
			"-0.015": 0.991891644327,
			"-0.014": 0.72371926799,
			"-0.013": 0.19933385012,
			"-0.012": 0.296130575596,
			"-0.011": 1.06219454848,
			"-0.01": 1.05739391551,
			"-0.009": 2.06023631288,
			"-0.008": 2.83605264345,
			"-0.007": 6.40763258178,
			"-0.006": 11.3893227572,
			"-0.005": 13.5263837819,
			"-0.004": 14.4760424234,
			"-0.003": 13.3780719521,
			"-0.002": 8.76792157442,
			"-0.001": 9.03151525588,
			"0.0": 9.38324832676,
			"0.001": 10.6914589351,
			"0.002": 13.7819772936,
			"0.003": 15.8555349571,
			"0.004": 11.6701326968,
			"0.005": 6.10154810159,
			"0.006": 3.92970288351,
			"0.007": 4.43093077274,
			"0.008": 4.73583300397,
			"0.009": 4.02675075387,
			"0.01": 2.85688192526,
			"0.011": 4.71667809359,
			"0.012": 4.83983723059,
			"0.013": 0.840141977536,
			"0.014": 0.0120664280321,
			"0.015": 0.0,
			"0.016": 0.0,
			"0.017": 0.0,
			"0.018": 0.0,
			"0.019": 0.0,
			"0.02": 0.0,
			"0.021": 0.0,
			"0.022": 0.0,
			"0.023": 0.0,
			"0.024": 0.0,
			"0.025": 0.0
		}
	}
}
