{
	 "smiles": "CC1CCCCN1S(=O)(=O)C1=CC(=CC=C1)C(O)=O", 
	 "Tm": 423.15, 
	 "num_atms": 36, 
	 "gaussian": { 
		 "optdone": 1, 
		 "sigma_profile": "yes", 
		 "theory": "DFT", 
		 "functional": "B3LYP", 
		 "basiset": "6-31G**", 
		 "properties": { 
			 "R2extent": 6955.3141, 
			 "electric_dipole_moment_norm": 3.53396536627, 
			 "electric_quadrupole_moment_norm": 25.2629563646, 
			 "total_energy": -1259.4128181, 
			 "HOMO_LUMO_gap": 0.18369, 
			 "cosmo_polarized_energy": -19.85, 
			 "cosmo_cavitation_energy": 38.73, 
			 "cosmo_dispersion_energy": -27.37, 
			 "cosmo_repulsion_energy": 2.06, 
			 "cosmo_total_nonelectrostatic_energy": 13.42, 
			 "SMD_solvation_energy": 6.05 
		},
		"coords": [
			{
				"x": -2.7508090833,
				"y": -1.1866307871,
				"z": 0.1782147179,
				"element": "C" 
			},
			{
				"x": -1.3092557619,
				"y": -1.6975540882,
				"z": 0.3044963821,
				"element": "C" 
			},
			{
				"x": -1.0028264282,
				"y": -2.353532374,
				"z": 1.6672686884,
				"element": "C" 
			},
			{
				"x": -0.9003109948,
				"y": -1.331160429,
				"z": 2.8103308326,
				"element": "C" 
			},
			{
				"x": 0.1188864356,
				"y": -0.233892219,
				"z": 2.4693992558,
				"element": "C" 
			},
			{
				"x": -0.2069392204,
				"y": 0.4091485606,
				"z": 1.1156892076,
				"element": "C" 
			},
			{
				"x": -0.358765292,
				"y": -0.580508926,
				"z": 0.0251727473,
				"element": "N" 
			},
			{
				"x": 1.0546302914,
				"y": -0.9580475132,
				"z": -0.8146599126,
				"element": "S" 
			},
			{
				"x": 0.7424233278,
				"y": -2.109092514,
				"z": -1.6707371706,
				"element": "O" 
			},
			{
				"x": 2.2310764673,
				"y": -0.9827947649,
				"z": 0.0674187949,
				"element": "O" 
			},
			{
				"x": 1.2426109232,
				"y": 0.4845111296,
				"z": -1.8770221574,
				"element": "C" 
			},
			{
				"x": 0.3406187503,
				"y": 0.6708964817,
				"z": -2.9257389604,
				"element": "C" 
			},
			{
				"x": 0.4952668817,
				"y": 1.7679412121,
				"z": -3.7773501078,
				"element": "C" 
			},
			{
				"x": 1.5411316212,
				"y": 2.6776045556,
				"z": -3.5520264363,
				"element": "C" 
			},
			{
				"x": 2.4443842368,
				"y": 2.4697094871,
				"z": -2.5149031751,
				"element": "C" 
			},
			{
				"x": 2.3045266004,
				"y": 1.3627991156,
				"z": -1.6708209836,
				"element": "C" 
			},
			{
				"x": -0.4415050843,
				"y": 2.047302123,
				"z": -4.9177053376,
				"element": "C" 
			},
			{
				"x": -1.144937159,
				"y": 0.993040887,
				"z": -5.4048106931,
				"element": "O" 
			},
			{
				"x": -0.584101905,
				"y": 3.1476956196,
				"z": -5.394982645,
				"element": "O" 
			},
			{
				"x": -2.9128838882,
				"y": -0.7391115622,
				"z": -0.806125077,
				"element": "H" 
			},
			{
				"x": -3.4479674053,
				"y": -2.0225405436,
				"z": 0.2950297651,
				"element": "H" 
			},
			{
				"x": -3.0048337351,
				"y": -0.4393094138,
				"z": 0.9355445805,
				"element": "H" 
			},
			{
				"x": -1.1456429312,
				"y": -2.4340655701,
				"z": -0.4839248918,
				"element": "H" 
			},
			{
				"x": -1.7746366148,
				"y": -3.1009423595,
				"z": 1.886653753,
				"element": "H" 
			},
			{
				"x": -0.0523699675,
				"y": -2.8949967099,
				"z": 1.5830545303,
				"element": "H" 
			},
			{
				"x": -0.613556871,
				"y": -1.8390728923,
				"z": 3.737760574,
				"element": "H" 
			},
			{
				"x": -1.882281333,
				"y": -0.876964737,
				"z": 2.9995002477,
				"element": "H" 
			},
			{
				"x": 1.1267473801,
				"y": -0.6600369167,
				"z": 2.4219873153,
				"element": "H" 
			},
			{
				"x": 0.1257264845,
				"y": 0.5433351519,
				"z": 3.2431029323,
				"element": "H" 
			},
			{
				"x": -1.1513827132,
				"y": 0.9632764887,
				"z": 1.1728310202,
				"element": "H" 
			},
			{
				"x": 0.5593394236,
				"y": 1.1326849663,
				"z": 0.825338635,
				"element": "H" 
			},
			{
				"x": -0.4821699162,
				"y": -0.0285275658,
				"z": -3.0395016012,
				"element": "H" 
			},
			{
				"x": 1.6252248863,
				"y": 3.5360618151,
				"z": -4.2095637917,
				"element": "H" 
			},
			{
				"x": 3.2622942251,
				"y": 3.1660787968,
				"z": -2.3588612058,
				"element": "H" 
			},
			{
				"x": 3.0040941376,
				"y": 1.1711137395,
				"z": -0.8646244252,
				"element": "H" 
			},
			{
				"x": -0.7996057687,
				"y": 0.160381756,
				"z": -5.053235408,
				"element": "H" 
			}
		],
		 "valence_orbital": [ 
			{
				"type": "occ",
				"energy": -0.30707,
				"method": "rhf"
			},
			{
				"type": "occ",
				"energy": -0.29102,
				"method": "rhf"
			},
			{
				"type": "occ",
				"energy": -0.28959,
				"method": "rhf"
			},
			{
				"type": "occ",
				"energy": -0.27916,
				"method": "rhf"
			},
			{
				"type": "occ",
				"energy": -0.24906,
				"method": "rhf"
			},
			{
				"type": "unocc",
				"energy": -0.06537,
				"method": "rhf"
			},
			{
				"type": "unocc",
				"energy": -0.05221,
				"method": "rhf"
			},
			{
				"type": "unocc",
				"energy": 0.02914,
				"method": "rhf"
			},
			{
				"type": "unocc",
				"energy": 0.04269,
				"method": "rhf"
			},
			{
				"type": "unocc",
				"energy": 0.06316,
				"method": "rhf"
			}
		],
		"cosmo_sigma_profile": { 
			"-0.025": 0.0,
			"-0.024": 0.0,
			"-0.023": 0.0,
			"-0.022": 0.0,
			"-0.021": 0.0,
			"-0.02": 0.00325717598577,
			"-0.019": 0.958848752489,
			"-0.018": 0.610231921021,
			"-0.017": 0.912341266822,
			"-0.016": 1.41300739323,
			"-0.015": 1.12032745361,
			"-0.014": 0.824693806044,
			"-0.013": 1.05787667324,
			"-0.012": 1.4661857728,
			"-0.011": 0.862557695179,
			"-0.01": 0.707493520793,
			"-0.009": 1.11636563958,
			"-0.008": 3.4829103689,
			"-0.007": 6.98955702281,
			"-0.006": 8.7478892801,
			"-0.005": 13.4842847392,
			"-0.004": 19.3066063376,
			"-0.003": 33.5247791585,
			"-0.002": 32.9088492212,
			"-0.001": 35.3859406549,
			"0.0": 34.4300717477,
			"0.001": 23.1679001328,
			"0.002": 10.4109944744,
			"0.003": 6.7721178866,
			"0.004": 6.32409122004,
			"0.005": 5.11222564535,
			"0.006": 4.47273360585,
			"0.007": 5.93887815462,
			"0.008": 5.65209135981,
			"0.009": 7.81820773945,
			"0.01": 11.9796199884,
			"0.011": 11.7589823403,
			"0.012": 5.95379809997,
			"0.013": 0.651321264652,
			"0.014": 0.0,
			"0.015": 0.0,
			"0.016": 0.0,
			"0.017": 0.0,
			"0.018": 0.0,
			"0.019": 0.0,
			"0.02": 0.0,
			"0.021": 0.0,
			"0.022": 0.0,
			"0.023": 0.0,
			"0.024": 0.0,
			"0.025": 0.0
		}
	}
}
