{
	 "smiles": "ClCC(=O)NC1CC1", 
	 "Tm": 355.15, 
	 "num_atms": 16, 
	 "gaussian": { 
		 "optdone": 1, 
		 "sigma_profile": "yes", 
		 "theory": "DFT", 
		 "functional": "B3LYP", 
		 "basiset": "6-31G**", 
		 "properties": { 
			 "R2extent": 3719.3995, 
			 "electric_dipole_moment_norm": 5.5339931704, 
			 "electric_quadrupole_moment_norm": 25.9135582518, 
			 "total_energy": -785.495884946, 
			 "HOMO_LUMO_gap": 0.27357, 
			 "cosmo_polarized_energy": -14.08, 
			 "cosmo_cavitation_energy": 21.3, 
			 "cosmo_dispersion_energy": -15.73, 
			 "cosmo_repulsion_energy": 1.34, 
			 "cosmo_total_nonelectrostatic_energy": 6.91, 
			 "SMD_solvation_energy": 3.38 
		},
		"coords": [
			{
				"x": 2.2301731149,
				"y": 2.6783811156,
				"z": 3.2618891686,
				"element": "Cl" 
			},
			{
				"x": 0.9207412157,
				"y": 1.586510751,
				"z": 2.7211416914,
				"element": "C" 
			},
			{
				"x": 0.4872709371,
				"y": 0.6009144623,
				"z": 3.815797238,
				"element": "C" 
			},
			{
				"x": 0.9573830914,
				"y": 0.579206174,
				"z": 4.937378019,
				"element": "O" 
			},
			{
				"x": -0.4911004683,
				"y": -0.2830643605,
				"z": 3.4180857546,
				"element": "N" 
			},
			{
				"x": -1.2491432316,
				"y": -0.2478024565,
				"z": 2.1994738586,
				"element": "C" 
			},
			{
				"x": -0.6370027473,
				"y": -0.7807006033,
				"z": 0.9200070404,
				"element": "C" 
			},
			{
				"x": -1.7094209043,
				"y": -1.5638906801,
				"z": 1.6299664141,
				"element": "C" 
			},
			{
				"x": 1.2737488833,
				"y": 1.0476793641,
				"z": 1.8403428323,
				"element": "H" 
			},
			{
				"x": 0.0746479523,
				"y": 2.2078544084,
				"z": 2.417343748,
				"element": "H" 
			},
			{
				"x": -0.8410535211,
				"y": -0.8497946149,
				"z": 4.1811154676,
				"element": "H" 
			},
			{
				"x": -1.9406637111,
				"y": 0.5892510398,
				"z": 2.0956389861,
				"element": "H" 
			},
			{
				"x": 0.3768592679,
				"y": -1.1633984254,
				"z": 0.9782020409,
				"element": "H" 
			},
			{
				"x": -0.8848090262,
				"y": -0.2777693952,
				"z": -0.0094893808,
				"element": "H" 
			},
			{
				"x": -2.7030518204,
				"y": -1.6073651285,
				"z": 1.1962418886,
				"element": "H" 
			},
			{
				"x": -1.4042790324,
				"y": -2.4638116508,
				"z": 2.1552652327,
				"element": "H" 
			}
		],
		 "valence_orbital": [ 
			{
				"type": "occ",
				"energy": -0.32485,
				"method": "rhf"
			},
			{
				"type": "occ",
				"energy": -0.29462,
				"method": "rhf"
			},
			{
				"type": "occ",
				"energy": -0.29352,
				"method": "rhf"
			},
			{
				"type": "occ",
				"energy": -0.26139,
				"method": "rhf"
			},
			{
				"type": "occ",
				"energy": -0.2574,
				"method": "rhf"
			},
			{
				"type": "unocc",
				"energy": 0.01617,
				"method": "rhf"
			},
			{
				"type": "unocc",
				"energy": 0.02819,
				"method": "rhf"
			},
			{
				"type": "unocc",
				"energy": 0.0733,
				"method": "rhf"
			},
			{
				"type": "unocc",
				"energy": 0.08147,
				"method": "rhf"
			},
			{
				"type": "unocc",
				"energy": 0.0914,
				"method": "rhf"
			}
		],
		"cosmo_sigma_profile": { 
			"-0.025": 0.0,
			"-0.024": 0.0,
			"-0.023": 0.0,
			"-0.022": 0.0,
			"-0.021": 0.0,
			"-0.02": 0.0,
			"-0.019": 0.0,
			"-0.018": 0.0,
			"-0.017": 0.0,
			"-0.016": 0.0,
			"-0.015": 0.0,
			"-0.014": 0.322104909294,
			"-0.013": 0.766774385129,
			"-0.012": 0.98119902048,
			"-0.011": 1.02816320109,
			"-0.01": 1.18504330803,
			"-0.009": 1.82782969763,
			"-0.008": 5.27643434032,
			"-0.007": 5.64852747611,
			"-0.006": 10.2408206339,
			"-0.005": 15.9840856945,
			"-0.004": 13.1868897659,
			"-0.003": 11.7710481396,
			"-0.002": 11.9913387033,
			"-0.001": 13.2698639533,
			"0.0": 8.7218246437,
			"0.001": 7.57590674185,
			"0.002": 8.1056943506,
			"0.003": 6.42970343114,
			"0.004": 7.39352283774,
			"0.005": 6.78115803003,
			"0.006": 8.30437996,
			"0.007": 3.38225127673,
			"0.008": 1.44620960957,
			"0.009": 2.05349652359,
			"0.01": 1.85781851708,
			"0.011": 2.0759677302,
			"0.012": 2.78978588719,
			"0.013": 6.15897090624,
			"0.014": 2.85456490556,
			"0.015": 0.599471674029,
			"0.016": 0.0,
			"0.017": 0.0,
			"0.018": 0.0,
			"0.019": 0.0,
			"0.02": 0.0,
			"0.021": 0.0,
			"0.022": 0.0,
			"0.023": 0.0,
			"0.024": 0.0,
			"0.025": 0.0
		}
	}
}
