{
	 "smiles": "CCC1CCC(C)C1", 
	 "Tm": 165.15, 
	 "num_atms": 24, 
	 "gaussian": { 
		 "optdone": 1, 
		 "sigma_profile": "yes", 
		 "theory": "DFT", 
		 "functional": "B3LYP", 
		 "basiset": "6-31G**", 
		 "properties": { 
			 "R2extent": 1543.3552, 
			 "electric_dipole_moment_norm": 0.133407833353, 
			 "electric_quadrupole_moment_norm": 0.571654108706, 
			 "total_energy": -314.515184611, 
			 "HOMO_LUMO_gap": 0.378, 
			 "cosmo_polarized_energy": -0.61, 
			 "cosmo_cavitation_energy": 23.69, 
			 "cosmo_dispersion_energy": -17.5, 
			 "cosmo_repulsion_energy": 1.47, 
			 "cosmo_total_nonelectrostatic_energy": 7.66, 
			 "SMD_solvation_energy": 3.58 
		},
		"coords": [
			{
				"x": -1.634456055,
				"y": 1.7573478138,
				"z": -0.7942067785,
				"element": "C" 
			},
			{
				"x": -0.9077981301,
				"y": 1.5820288751,
				"z": 0.5456978967,
				"element": "C" 
			},
			{
				"x": 0.4196670979,
				"y": 0.8018601658,
				"z": 0.5043080096,
				"element": "C" 
			},
			{
				"x": 0.3017672983,
				"y": -0.7001584242,
				"z": 0.1054596125,
				"element": "C" 
			},
			{
				"x": 1.5899853327,
				"y": -1.0373379105,
				"z": -0.6952978217,
				"element": "C" 
			},
			{
				"x": 2.5148604209,
				"y": 0.193969949,
				"z": -0.5504767842,
				"element": "C" 
			},
			{
				"x": 3.5485011537,
				"y": 0.3405383895,
				"z": -1.6668781088,
				"element": "C" 
			},
			{
				"x": 1.5119062542,
				"y": 1.3546148673,
				"z": -0.4326924534,
				"element": "C" 
			},
			{
				"x": -2.5872246424,
				"y": 2.2768368391,
				"z": -0.6479392585,
				"element": "H" 
			},
			{
				"x": -1.8577456935,
				"y": 0.7965639356,
				"z": -1.2702975106,
				"element": "H" 
			},
			{
				"x": -1.0462279445,
				"y": 2.3487879109,
				"z": -1.5031134693,
				"element": "H" 
			},
			{
				"x": -0.7159665705,
				"y": 2.5749038748,
				"z": 0.9744109836,
				"element": "H" 
			},
			{
				"x": -1.5809745705,
				"y": 1.0781484854,
				"z": 1.2526533431,
				"element": "H" 
			},
			{
				"x": 0.8322268444,
				"y": 0.8370794056,
				"z": 1.5227622137,
				"element": "H" 
			},
			{
				"x": 0.1945824868,
				"y": -1.3288380187,
				"z": 0.9956420206,
				"element": "H" 
			},
			{
				"x": -0.5888781613,
				"y": -0.8787603453,
				"z": -0.5060500425,
				"element": "H" 
			},
			{
				"x": 1.3485373768,
				"y": -1.1792350398,
				"z": -1.7566275143,
				"element": "H" 
			},
			{
				"x": 2.0730191585,
				"y": -1.96053512,
				"z": -0.3581818024,
				"element": "H" 
			},
			{
				"x": 3.0474700662,
				"y": 0.113902127,
				"z": 0.4092085687,
				"element": "H" 
			},
			{
				"x": 4.2141461828,
				"y": -0.5288484943,
				"z": -1.7126307282,
				"element": "H" 
			},
			{
				"x": 4.1736862685,
				"y": 1.2286216028,
				"z": -1.5215355159,
				"element": "H" 
			},
			{
				"x": 3.057782428,
				"y": 0.4342830011,
				"z": -2.6434100131,
				"element": "H" 
			},
			{
				"x": 1.9641192827,
				"y": 2.2806365406,
				"z": -0.0586129668,
				"element": "H" 
			},
			{
				"x": 1.0975141155,
				"y": 1.5728895692,
				"z": -1.4267918804,
				"element": "H" 
			}
		],
		 "valence_orbital": [ 
			{
				"type": "occ",
				"energy": -0.314,
				"method": "rhf"
			},
			{
				"type": "occ",
				"energy": -0.30964,
				"method": "rhf"
			},
			{
				"type": "occ",
				"energy": -0.30551,
				"method": "rhf"
			},
			{
				"type": "occ",
				"energy": -0.29736,
				"method": "rhf"
			},
			{
				"type": "occ",
				"energy": -0.29664,
				"method": "rhf"
			},
			{
				"type": "unocc",
				"energy": 0.08136,
				"method": "rhf"
			},
			{
				"type": "unocc",
				"energy": 0.09787,
				"method": "rhf"
			},
			{
				"type": "unocc",
				"energy": 0.10519,
				"method": "rhf"
			},
			{
				"type": "unocc",
				"energy": 0.1266,
				"method": "rhf"
			},
			{
				"type": "unocc",
				"energy": 0.14759,
				"method": "rhf"
			}
		],
		"cosmo_sigma_profile": { 
			"-0.025": 0.0,
			"-0.024": 0.0,
			"-0.023": 0.0,
			"-0.022": 0.0,
			"-0.021": 0.0,
			"-0.02": 0.0,
			"-0.019": 0.0,
			"-0.018": 0.0,
			"-0.017": 0.0,
			"-0.016": 0.0,
			"-0.015": 0.0,
			"-0.014": 0.0,
			"-0.013": 0.0,
			"-0.012": 0.0,
			"-0.011": 0.0,
			"-0.01": 0.0,
			"-0.009": 0.0,
			"-0.008": 0.0,
			"-0.007": 0.0,
			"-0.006": 0.0,
			"-0.005": 0.0,
			"-0.004": 0.0,
			"-0.003": 3.37429012485,
			"-0.002": 23.5084922025,
			"-0.001": 38.5942520693,
			"0.0": 47.1721766706,
			"0.001": 42.8327969424,
			"0.002": 24.0822281392,
			"0.003": 1.86553090505,
			"0.004": 0.0,
			"0.005": 0.0,
			"0.006": 0.0,
			"0.007": 0.0,
			"0.008": 0.0,
			"0.009": 0.0,
			"0.01": 0.0,
			"0.011": 0.0,
			"0.012": 0.0,
			"0.013": 0.0,
			"0.014": 0.0,
			"0.015": 0.0,
			"0.016": 0.0,
			"0.017": 0.0,
			"0.018": 0.0,
			"0.019": 0.0,
			"0.02": 0.0,
			"0.021": 0.0,
			"0.022": 0.0,
			"0.023": 0.0,
			"0.024": 0.0,
			"0.025": 0.0
		}
	}
}
