{
	 "smiles": "CC1=CC(C)=C(N)C(C)=C1N", 
	 "Tm": 363.15, 
	 "num_atms": 25, 
	 "gaussian": { 
		 "optdone": 1, 
		 "sigma_profile": "yes", 
		 "theory": "DFT", 
		 "functional": "B3LYP", 
		 "basiset": "6-31G**", 
		 "properties": { 
			 "R2extent": 2363.0707, 
			 "electric_dipole_moment_norm": 2.23540706584, 
			 "electric_quadrupole_moment_norm": 10.917362502, 
			 "total_energy": -460.922121163, 
			 "HOMO_LUMO_gap": 0.20275, 
			 "cosmo_polarized_energy": -10.93, 
			 "cosmo_cavitation_energy": 26.2, 
			 "cosmo_dispersion_energy": -19.67, 
			 "cosmo_repulsion_energy": 1.57, 
			 "cosmo_total_nonelectrostatic_energy": 8.1, 
			 "SMD_solvation_energy": 4.16 
		},
		"coords": [
			{
				"x": -1.8720848629,
				"y": -0.4584965051,
				"z": -3.2228061668,
				"element": "C" 
			},
			{
				"x": -0.7840734859,
				"y": 0.0100772832,
				"z": -2.2869848157,
				"element": "C" 
			},
			{
				"x": 0.5255225432,
				"y": 0.1828459866,
				"z": -2.7346319627,
				"element": "C" 
			},
			{
				"x": 1.5668943742,
				"y": 0.6004460066,
				"z": -1.9060996505,
				"element": "C" 
			},
			{
				"x": 2.9708702512,
				"y": 0.757667608,
				"z": -2.4382924139,
				"element": "C" 
			},
			{
				"x": 1.2672411047,
				"y": 0.879938552,
				"z": -0.5562191862,
				"element": "C" 
			},
			{
				"x": 2.2820531273,
				"y": 1.3445361814,
				"z": 0.2997562174,
				"element": "N" 
			},
			{
				"x": -0.0506041011,
				"y": 0.7589916752,
				"z": -0.0715621992,
				"element": "C" 
			},
			{
				"x": -0.3801806829,
				"y": 1.1544316144,
				"z": 1.3498859188,
				"element": "C" 
			},
			{
				"x": -1.0639854696,
				"y": 0.294592041,
				"z": -0.9339149942,
				"element": "C" 
			},
			{
				"x": -2.3812540313,
				"y": 0.1736847797,
				"z": -0.4558625089,
				"element": "N" 
			},
			{
				"x": -2.3198965255,
				"y": -1.4113448085,
				"z": -2.9027592343,
				"element": "H" 
			},
			{
				"x": -2.6911290703,
				"y": 0.2686797557,
				"z": -3.3034242402,
				"element": "H" 
			},
			{
				"x": -1.4759197251,
				"y": -0.6167122135,
				"z": -4.2294540942,
				"element": "H" 
			},
			{
				"x": 0.7487927452,
				"y": -0.033144163,
				"z": -3.7779292604,
				"element": "H" 
			},
			{
				"x": 3.3443330458,
				"y": 1.784308935,
				"z": -2.3258302733,
				"element": "H" 
			},
			{
				"x": 3.6894261874,
				"y": 0.0977324661,
				"z": -1.929332977,
				"element": "H" 
			},
			{
				"x": 3.0119123552,
				"y": 0.510238522,
				"z": -3.5024435312,
				"element": "H" 
			},
			{
				"x": 3.2178418489,
				"y": 1.1505546367,
				"z": -0.0281695232,
				"element": "H" 
			},
			{
				"x": 2.1790678251,
				"y": 1.0653010082,
				"z": 1.265503044,
				"element": "H" 
			},
			{
				"x": -0.2878905388,
				"y": 0.3237053037,
				"z": 2.0664518671,
				"element": "H" 
			},
			{
				"x": 0.2778754611,
				"y": 1.9576294541,
				"z": 1.6954497669,
				"element": "H" 
			},
			{
				"x": -1.4033162669,
				"y": 1.5357934795,
				"z": 1.4229513495,
				"element": "H" 
			},
			{
				"x": -2.9766911248,
				"y": -0.40470628,
				"z": -1.0318631456,
				"element": "H" 
			},
			{
				"x": -2.4539049842,
				"y": -0.0976513187,
				"z": 0.5148820139,
				"element": "H" 
			}
		],
		 "valence_orbital": [ 
			{
				"type": "occ",
				"energy": -0.32185,
				"method": "rhf"
			},
			{
				"type": "occ",
				"energy": -0.31201,
				"method": "rhf"
			},
			{
				"type": "occ",
				"energy": -0.2659,
				"method": "rhf"
			},
			{
				"type": "occ",
				"energy": -0.19525,
				"method": "rhf"
			},
			{
				"type": "occ",
				"energy": -0.17569,
				"method": "rhf"
			},
			{
				"type": "unocc",
				"energy": 0.02706,
				"method": "rhf"
			},
			{
				"type": "unocc",
				"energy": 0.03875,
				"method": "rhf"
			},
			{
				"type": "unocc",
				"energy": 0.07692,
				"method": "rhf"
			},
			{
				"type": "unocc",
				"energy": 0.09161,
				"method": "rhf"
			},
			{
				"type": "unocc",
				"energy": 0.11012,
				"method": "rhf"
			}
		],
		"cosmo_sigma_profile": { 
			"-0.025": 0.0,
			"-0.024": 0.0,
			"-0.023": 0.0,
			"-0.022": 0.0,
			"-0.021": 0.0,
			"-0.02": 0.0,
			"-0.019": 0.0,
			"-0.018": 0.0,
			"-0.017": 0.0,
			"-0.016": 0.0,
			"-0.015": 0.0,
			"-0.014": 0.0,
			"-0.013": 0.0,
			"-0.012": 0.024008949145,
			"-0.011": 2.36182508622,
			"-0.01": 3.99982879022,
			"-0.009": 4.36251294678,
			"-0.008": 6.94553129031,
			"-0.007": 4.739260565,
			"-0.006": 4.98549327259,
			"-0.005": 6.52367792201,
			"-0.004": 12.1729831106,
			"-0.003": 22.3629558875,
			"-0.002": 17.296790563,
			"-0.001": 16.0922642436,
			"0.0": 19.6444704755,
			"0.001": 19.4200830812,
			"0.002": 9.07332336858,
			"0.003": 6.32616396553,
			"0.004": 6.27260814036,
			"0.005": 7.22286051311,
			"0.006": 6.09256187403,
			"0.007": 7.79937399638,
			"0.008": 8.42196925653,
			"0.009": 4.59606726818,
			"0.01": 1.13666676017,
			"0.011": 1.30586345077,
			"0.012": 1.57754104431,
			"0.013": 0.91149341578,
			"0.014": 1.35778014838,
			"0.015": 1.08278906724,
			"0.016": 0.506982572047,
			"0.017": 0.0,
			"0.018": 0.0,
			"0.019": 0.0,
			"0.02": 0.0,
			"0.021": 0.0,
			"0.022": 0.0,
			"0.023": 0.0,
			"0.024": 0.0,
			"0.025": 0.0
		}
	}
}
