{
	 "smiles": "COC1=CC=C(C=C1)C1=NNC=C1", 
	 "Tm": 401.15, 
	 "num_atms": 23, 
	 "gaussian": { 
		 "optdone": 1, 
		 "sigma_profile": "yes", 
		 "theory": "DFT", 
		 "functional": "B3LYP", 
		 "basiset": "6-31G**", 
		 "properties": { 
			 "R2extent": 3292.3935, 
			 "electric_dipole_moment_norm": 1.6028890417, 
			 "electric_quadrupole_moment_norm": 18.4575968923, 
			 "total_energy": -571.788021307, 
			 "HOMO_LUMO_gap": 0.18903, 
			 "cosmo_polarized_energy": -12.89, 
			 "cosmo_cavitation_energy": 27.04, 
			 "cosmo_dispersion_energy": -20.36, 
			 "cosmo_repulsion_energy": 1.59, 
			 "cosmo_total_nonelectrostatic_energy": 8.28, 
			 "SMD_solvation_energy": 4.86 
		},
		"coords": [
			{
				"x": 1.4140399266,
				"y": 2.3585937447,
				"z": 3.4452100538,
				"element": "C" 
			},
			{
				"x": 0.555372638,
				"y": 1.233352642,
				"z": 3.3629381512,
				"element": "O" 
			},
			{
				"x": 0.4203529831,
				"y": 0.6118071257,
				"z": 2.1538774351,
				"element": "C" 
			},
			{
				"x": 1.0706318061,
				"y": 1.0033552911,
				"z": 0.9767257327,
				"element": "C" 
			},
			{
				"x": 0.8559507628,
				"y": 0.2911442072,
				"z": -0.2027029294,
				"element": "C" 
			},
			{
				"x": -0.0009548526,
				"y": -0.8171214786,
				"z": -0.2448704665,
				"element": "C" 
			},
			{
				"x": -0.6443642542,
				"y": -1.1942241933,
				"z": 0.9472515032,
				"element": "C" 
			},
			{
				"x": -0.4403043256,
				"y": -0.4948261428,
				"z": 2.1287292172,
				"element": "C" 
			},
			{
				"x": -0.2145243146,
				"y": -1.556083359,
				"z": -1.4997919907,
				"element": "C" 
			},
			{
				"x": 0.4065539078,
				"y": -1.1833614633,
				"z": -2.6274141796,
				"element": "N" 
			},
			{
				"x": -0.0122233593,
				"y": -2.0635499954,
				"z": -3.5578994163,
				"element": "N" 
			},
			{
				"x": -0.8795892757,
				"y": -2.9875961852,
				"z": -3.0685425467,
				"element": "C" 
			},
			{
				"x": -1.0389100616,
				"y": -2.6935241486,
				"z": -1.7316392159,
				"element": "C" 
			},
			{
				"x": 1.0795663103,
				"y": 3.1739658211,
				"z": 2.7904874714,
				"element": "H" 
			},
			{
				"x": 2.449862862,
				"y": 2.0990888494,
				"z": 3.1900708512,
				"element": "H" 
			},
			{
				"x": 1.3743001239,
				"y": 2.6937211973,
				"z": 4.4829754339,
				"element": "H" 
			},
			{
				"x": 1.7412672848,
				"y": 1.8545893354,
				"z": 0.9663194638,
				"element": "H" 
			},
			{
				"x": 1.3601727209,
				"y": 0.5953430392,
				"z": -1.1137546884,
				"element": "H" 
			},
			{
				"x": -1.3158125919,
				"y": -2.0475998409,
				"z": 0.9544245469,
				"element": "H" 
			},
			{
				"x": -0.9370330963,
				"y": -0.7862366374,
				"z": 3.0484641467,
				"element": "H" 
			},
			{
				"x": 0.3315897883,
				"y": -1.9758721145,
				"z": -4.5009611698,
				"element": "H" 
			},
			{
				"x": -1.3043227122,
				"y": -3.7610106467,
				"z": -3.691723775,
				"element": "H" 
			},
			{
				"x": -1.6605222705,
				"y": -3.2241550474,
				"z": -1.0270736288,
				"element": "H" 
			}
		],
		 "valence_orbital": [ 
			{
				"type": "occ",
				"energy": -0.28223,
				"method": "rhf"
			},
			{
				"type": "occ",
				"energy": -0.26315,
				"method": "rhf"
			},
			{
				"type": "occ",
				"energy": -0.24608,
				"method": "rhf"
			},
			{
				"type": "occ",
				"energy": -0.24093,
				"method": "rhf"
			},
			{
				"type": "occ",
				"energy": -0.1955,
				"method": "rhf"
			},
			{
				"type": "unocc",
				"energy": -0.00647,
				"method": "rhf"
			},
			{
				"type": "unocc",
				"energy": 0.00749,
				"method": "rhf"
			},
			{
				"type": "unocc",
				"energy": 0.03611,
				"method": "rhf"
			},
			{
				"type": "unocc",
				"energy": 0.08132,
				"method": "rhf"
			},
			{
				"type": "unocc",
				"energy": 0.10002,
				"method": "rhf"
			}
		],
		"cosmo_sigma_profile": { 
			"-0.025": 0.0,
			"-0.024": 0.0,
			"-0.023": 0.0,
			"-0.022": 0.0,
			"-0.021": 0.0,
			"-0.02": 0.0,
			"-0.019": 0.0,
			"-0.018": 0.0,
			"-0.017": 0.321244875508,
			"-0.016": 1.50420543037,
			"-0.015": 1.66755745913,
			"-0.014": 1.09850941529,
			"-0.013": 0.807356205987,
			"-0.012": 0.802568126896,
			"-0.011": 1.6557723936,
			"-0.01": 0.89016707095,
			"-0.009": 2.49671074355,
			"-0.008": 3.00793931867,
			"-0.007": 4.94605241807,
			"-0.006": 10.6261259352,
			"-0.005": 18.1876407354,
			"-0.004": 16.2197433829,
			"-0.003": 17.2944548004,
			"-0.002": 11.9341369348,
			"-0.001": 9.84403470854,
			"0.0": 8.7741953961,
			"0.001": 9.23143757039,
			"0.002": 10.4196327603,
			"0.003": 12.734599335,
			"0.004": 18.9419542711,
			"0.005": 22.690018698,
			"0.006": 12.7556174572,
			"0.007": 3.48339694387,
			"0.008": 3.05097731128,
			"0.009": 2.67480418576,
			"0.01": 3.21335699486,
			"0.011": 1.80064531959,
			"0.012": 0.897084979862,
			"0.013": 1.32058348309,
			"0.014": 0.882110304995,
			"0.015": 0.109106045207,
			"0.016": 0.0,
			"0.017": 0.0,
			"0.018": 0.0,
			"0.019": 0.0,
			"0.02": 0.0,
			"0.021": 0.0,
			"0.022": 0.0,
			"0.023": 0.0,
			"0.024": 0.0,
			"0.025": 0.0
		}
	}
}
