{
	 "smiles": "CCCCCCCCCCCCN(CCCCCCCCCCCC)CCCCCCCCCCCC", 
	 "Tm": 289.15, 
	 "num_atms": 112, 
	 "gaussian": { 
		 "optdone": 1, 
		 "sigma_profile": "yes", 
		 "theory": "DFT", 
		 "functional": "B3LYP", 
		 "basiset": "6-31G**", 
		 "properties": { 
			 "R2extent": 33426.2363, 
			 "electric_dipole_moment_norm": 0.717059314144, 
			 "electric_quadrupole_moment_norm": 2.73686687108, 
			 "total_energy": -1471.86626294, 
			 "HOMO_LUMO_gap": 0.25216, 
			 "cosmo_polarized_energy": -3.87, 
			 "cosmo_cavitation_energy": 102.64, 
			 "cosmo_dispersion_energy": -57.56, 
			 "cosmo_repulsion_energy": 4.54, 
			 "cosmo_total_nonelectrostatic_energy": 49.62, 
			 "SMD_solvation_energy": 11.26 
		},
		"coords": [
			{
				"x": 7.5641488404,
				"y": -0.5395901233,
				"z": -0.681216339,
				"element": "C" 
			},
			{
				"x": 6.2789834789,
				"y": -1.1094235666,
				"z": -0.070749208,
				"element": "C" 
			},
			{
				"x": 6.5233654275,
				"y": -2.3930876469,
				"z": 0.7344349309,
				"element": "C" 
			},
			{
				"x": 5.2995115214,
				"y": -2.9787418117,
				"z": 1.4616955058,
				"element": "C" 
			},
			{
				"x": 4.15270121,
				"y": -3.4693225554,
				"z": 0.5462778953,
				"element": "C" 
			},
			{
				"x": 3.023143411,
				"y": -2.4557464299,
				"z": 0.27514635,
				"element": "C" 
			},
			{
				"x": 2.112455254,
				"y": -2.207647151,
				"z": 1.4870312885,
				"element": "C" 
			},
			{
				"x": 0.908491017,
				"y": -1.2811014252,
				"z": 1.2357289209,
				"element": "C" 
			},
			{
				"x": 1.2617368922,
				"y": 0.1815959398,
				"z": 0.8742472086,
				"element": "C" 
			},
			{
				"x": 1.2874248553,
				"y": 0.5155958085,
				"z": -0.6317680747,
				"element": "C" 
			},
			{
				"x": -0.0757735029,
				"y": 0.4912971105,
				"z": -1.3474334389,
				"element": "C" 
			},
			{
				"x": -1.0609743919,
				"y": 1.5583542694,
				"z": -0.8463439409,
				"element": "C" 
			},
			{
				"x": -2.3043684843,
				"y": 1.6053266736,
				"z": -1.6245265575,
				"element": "N" 
			},
			{
				"x": -2.1480728328,
				"y": 2.360685867,
				"z": -2.8707372102,
				"element": "C" 
			},
			{
				"x": -3.3233747842,
				"y": 2.2281430332,
				"z": -3.8505063346,
				"element": "C" 
			},
			{
				"x": -3.6990254585,
				"y": 0.7929895196,
				"z": -4.2516905738,
				"element": "C" 
			},
			{
				"x": -2.594599623,
				"y": 0.0213671084,
				"z": -4.9878753227,
				"element": "C" 
			},
			{
				"x": -3.0977672233,
				"y": -1.2933483337,
				"z": -5.6028325315,
				"element": "C" 
			},
			{
				"x": -2.0100383548,
				"y": -2.1206057249,
				"z": -6.3129455217,
				"element": "C" 
			},
			{
				"x": -1.0248713426,
				"y": -2.8556347067,
				"z": -5.3850271663,
				"element": "C" 
			},
			{
				"x": -1.6339172911,
				"y": -4.073558123,
				"z": -4.6722639219,
				"element": "C" 
			},
			{
				"x": -0.6484251042,
				"y": -4.8145744864,
				"z": -3.747936088,
				"element": "C" 
			},
			{
				"x": -0.3119066794,
				"y": -4.1039407081,
				"z": -2.4160081603,
				"element": "C" 
			},
			{
				"x": -1.164754797,
				"y": -4.5321414981,
				"z": -1.2078205545,
				"element": "C" 
			},
			{
				"x": -2.6622281167,
				"y": -4.2193484834,
				"z": -1.3077799158,
				"element": "C" 
			},
			{
				"x": -3.4755724823,
				"y": 1.9758653329,
				"z": -0.8201303463,
				"element": "C" 
			},
			{
				"x": -3.5203846254,
				"y": 3.4126813706,
				"z": -0.2606774109,
				"element": "C" 
			},
			{
				"x": -4.790215877,
				"y": 3.7148806186,
				"z": 0.5566710127,
				"element": "C" 
			},
			{
				"x": -4.9693826675,
				"y": 2.9103582767,
				"z": 1.8576166475,
				"element": "C" 
			},
			{
				"x": -3.8727422703,
				"y": 3.1354894325,
				"z": 2.9080680878,
				"element": "C" 
			},
			{
				"x": -4.1465451154,
				"y": 2.3964526052,
				"z": 4.2261911267,
				"element": "C" 
			},
			{
				"x": -3.0985765649,
				"y": 2.6292149052,
				"z": 5.3277203192,
				"element": "C" 
			},
			{
				"x": -1.7167871148,
				"y": 2.0239491296,
				"z": 5.0339154239,
				"element": "C" 
			},
			{
				"x": -0.7013054945,
				"y": 2.207099086,
				"z": 6.17877909,
				"element": "C" 
			},
			{
				"x": -0.1565362717,
				"y": 3.6416445275,
				"z": 6.3753948044,
				"element": "C" 
			},
			{
				"x": 1.1777518096,
				"y": 3.942792664,
				"z": 5.6690324897,
				"element": "C" 
			},
			{
				"x": 1.1494158285,
				"y": 3.870397074,
				"z": 4.1378766518,
				"element": "C" 
			},
			{
				"x": 7.3672248184,
				"y": 0.3731704105,
				"z": -1.2532071375,
				"element": "H" 
			},
			{
				"x": 8.2969106601,
				"y": -0.293984675,
				"z": 0.0961302617,
				"element": "H" 
			},
			{
				"x": 8.034064845,
				"y": -1.2614524979,
				"z": -1.3592205822,
				"element": "H" 
			},
			{
				"x": 5.8168172915,
				"y": -0.3543598176,
				"z": 0.5802732253,
				"element": "H" 
			},
			{
				"x": 5.55672284,
				"y": -1.3044686521,
				"z": -0.8730203923,
				"element": "H" 
			},
			{
				"x": 7.3055597392,
				"y": -2.1922981471,
				"z": 1.4801417589,
				"element": "H" 
			},
			{
				"x": 6.938807936,
				"y": -3.1597369959,
				"z": 0.0640034398,
				"element": "H" 
			},
			{
				"x": 5.6511053448,
				"y": -3.8215952113,
				"z": 2.0695854304,
				"element": "H" 
			},
			{
				"x": 4.9169007893,
				"y": -2.2397823274,
				"z": 2.1785630172,
				"element": "H" 
			},
			{
				"x": 3.6989865921,
				"y": -4.3666677422,
				"z": 0.9878988936,
				"element": "H" 
			},
			{
				"x": 4.5807605187,
				"y": -3.7965594942,
				"z": -0.4109880317,
				"element": "H" 
			},
			{
				"x": 3.4515338192,
				"y": -1.5074815559,
				"z": -0.0683590991,
				"element": "H" 
			},
			{
				"x": 2.4065487828,
				"y": -2.8305371339,
				"z": -0.5537942291,
				"element": "H" 
			},
			{
				"x": 2.7032876644,
				"y": -1.7945265379,
				"z": 2.3162527864,
				"element": "H" 
			},
			{
				"x": 1.7354745517,
				"y": -3.1774936171,
				"z": 1.8414907524,
				"element": "H" 
			},
			{
				"x": 0.2745040722,
				"y": -1.7175842356,
				"z": 0.4521586443,
				"element": "H" 
			},
			{
				"x": 0.2949593676,
				"y": -1.2846588503,
				"z": 2.1451476103,
				"element": "H" 
			},
			{
				"x": 0.5552354275,
				"y": 0.8572487183,
				"z": 1.3717880373,
				"element": "H" 
			},
			{
				"x": 2.2431876746,
				"y": 0.4257987338,
				"z": 1.3028945976,
				"element": "H" 
			},
			{
				"x": 1.9628078243,
				"y": -0.1772380864,
				"z": -1.1468507757,
				"element": "H" 
			},
			{
				"x": 1.727852956,
				"y": 1.5145473565,
				"z": -0.7582402327,
				"element": "H" 
			},
			{
				"x": -0.5523092875,
				"y": -0.4918483294,
				"z": -1.2514661133,
				"element": "H" 
			},
			{
				"x": 0.102013276,
				"y": 0.6352159607,
				"z": -2.4200634635,
				"element": "H" 
			},
			{
				"x": -0.5504204769,
				"y": 2.5407943697,
				"z": -0.8230842219,
				"element": "H" 
			},
			{
				"x": -1.3281609861,
				"y": 1.3322381004,
				"z": 0.1915122722,
				"element": "H" 
			},
			{
				"x": -1.2419775266,
				"y": 1.991042771,
				"z": -3.3618744394,
				"element": "H" 
			},
			{
				"x": -1.9673417496,
				"y": 3.4371928477,
				"z": -2.6842393319,
				"element": "H" 
			},
			{
				"x": -3.0582686421,
				"y": 2.7991109108,
				"z": -4.7509674772,
				"element": "H" 
			},
			{
				"x": -4.2088201318,
				"y": 2.7273416859,
				"z": -3.4372379225,
				"element": "H" 
			},
			{
				"x": -3.9919514988,
				"y": 0.2293443771,
				"z": -3.357714507,
				"element": "H" 
			},
			{
				"x": -4.5883386714,
				"y": 0.8406928654,
				"z": -4.8954549112,
				"element": "H" 
			},
			{
				"x": -2.1778247445,
				"y": 0.6496247051,
				"z": -5.7893993836,
				"element": "H" 
			},
			{
				"x": -1.7696490178,
				"y": -0.1808144231,
				"z": -4.2940768045,
				"element": "H" 
			},
			{
				"x": -3.8891320912,
				"y": -1.0557089905,
				"z": -6.3266684481,
				"element": "H" 
			},
			{
				"x": -3.5810454982,
				"y": -1.8988382094,
				"z": -4.8241920379,
				"element": "H" 
			},
			{
				"x": -2.4914515401,
				"y": -2.8625826288,
				"z": -6.9647127418,
				"element": "H" 
			},
			{
				"x": -1.4469100631,
				"y": -1.45497583,
				"z": -6.9814026576,
				"element": "H" 
			},
			{
				"x": -0.1667152845,
				"y": -3.1975282483,
				"z": -5.9798702675,
				"element": "H" 
			},
			{
				"x": -0.6150094203,
				"y": -2.1527333777,
				"z": -4.6481732518,
				"element": "H" 
			},
			{
				"x": -2.5187071419,
				"y": -3.7687656779,
				"z": -4.1018807598,
				"element": "H" 
			},
			{
				"x": -1.9947523128,
				"y": -4.7737401201,
				"z": -5.4385553225,
				"element": "H" 
			},
			{
				"x": -1.045112225,
				"y": -5.8141338358,
				"z": -3.523658209,
				"element": "H" 
			},
			{
				"x": 0.2788498321,
				"y": -4.9859052677,
				"z": -4.3109598872,
				"element": "H" 
			},
			{
				"x": 0.7381904026,
				"y": -4.299634857,
				"z": -2.1641909776,
				"element": "H" 
			},
			{
				"x": -0.3871907368,
				"y": -3.0153702739,
				"z": -2.5440527975,
				"element": "H" 
			},
			{
				"x": -1.0320931155,
				"y": -5.6112449714,
				"z": -1.0472697622,
				"element": "H" 
			},
			{
				"x": -0.761514239,
				"y": -4.0435540181,
				"z": -0.3108214857,
				"element": "H" 
			},
			{
				"x": -2.8350413157,
				"y": -3.1505643375,
				"z": -1.4798985752,
				"element": "H" 
			},
			{
				"x": -3.1405116871,
				"y": -4.7695470849,
				"z": -2.1244264833,
				"element": "H" 
			},
			{
				"x": -3.1807562943,
				"y": -4.4940227718,
				"z": -0.3827802107,
				"element": "H" 
			},
			{
				"x": -3.5283541755,
				"y": 1.2582081139,
				"z": 0.0069176157,
				"element": "H" 
			},
			{
				"x": -4.3766062892,
				"y": 1.8033988523,
				"z": -1.4213648456,
				"element": "H" 
			},
			{
				"x": -3.4718312797,
				"y": 4.1270438137,
				"z": -1.0917126393,
				"element": "H" 
			},
			{
				"x": -2.6282234607,
				"y": 3.5999937479,
				"z": 0.3495662448,
				"element": "H" 
			},
			{
				"x": -5.6684556978,
				"y": 3.5470040696,
				"z": -0.0823520354,
				"element": "H" 
			},
			{
				"x": -4.800263861,
				"y": 4.7850012163,
				"z": 0.8044533275,
				"element": "H" 
			},
			{
				"x": -5.9391501916,
				"y": 3.1820931464,
				"z": 2.2966046698,
				"element": "H" 
			},
			{
				"x": -5.0387441575,
				"y": 1.8377134291,
				"z": 1.6322623023,
				"element": "H" 
			},
			{
				"x": -3.7806940187,
				"y": 4.2128572986,
				"z": 3.1107512356,
				"element": "H" 
			},
			{
				"x": -2.9037452175,
				"y": 2.8195733612,
				"z": 2.5029373482,
				"element": "H" 
			},
			{
				"x": -4.2281462071,
				"y": 1.3179849487,
				"z": 4.0267776717,
				"element": "H" 
			},
			{
				"x": -5.1301484555,
				"y": 2.7074604675,
				"z": 4.6039419632,
				"element": "H" 
			},
			{
				"x": -3.0053737886,
				"y": 3.7088882695,
				"z": 5.5088654458,
				"element": "H" 
			},
			{
				"x": -3.4728045995,
				"y": 2.1980372455,
				"z": 6.2665361332,
				"element": "H" 
			},
			{
				"x": -1.8443559192,
				"y": 0.9487517045,
				"z": 4.844928869,
				"element": "H" 
			},
			{
				"x": -1.3116918471,
				"y": 2.448493643,
				"z": 4.1083877247,
				"element": "H" 
			},
			{
				"x": 0.1459683653,
				"y": 1.5257695092,
				"z": 6.0219082107,
				"element": "H" 
			},
			{
				"x": -1.1795657085,
				"y": 1.8723921093,
				"z": 7.1089915926,
				"element": "H" 
			},
			{
				"x": -0.0097540799,
				"y": 3.821745743,
				"z": 7.4476235089,
				"element": "H" 
			},
			{
				"x": -0.9085388536,
				"y": 4.3749732051,
				"z": 6.0540502769,
				"element": "H" 
			},
			{
				"x": 1.9418694193,
				"y": 3.2496046556,
				"z": 6.0475736566,
				"element": "H" 
			},
			{
				"x": 1.5075029614,
				"y": 4.9462158785,
				"z": 5.9690176847,
				"element": "H" 
			},
			{
				"x": 0.9344175673,
				"y": 2.8580704065,
				"z": 3.7804981506,
				"element": "H" 
			},
			{
				"x": 0.3871735397,
				"y": 4.5394582272,
				"z": 3.7216239093,
				"element": "H" 
			},
			{
				"x": 2.115631553,
				"y": 4.1659743774,
				"z": 3.7149850466,
				"element": "H" 
			}
		],
		 "valence_orbital": [ 
			{
				"type": "occ",
				"energy": -0.29678,
				"method": "rhf"
			},
			{
				"type": "occ",
				"energy": -0.29507,
				"method": "rhf"
			},
			{
				"type": "occ",
				"energy": -0.29481,
				"method": "rhf"
			},
			{
				"type": "occ",
				"energy": -0.29392,
				"method": "rhf"
			},
			{
				"type": "occ",
				"energy": -0.19718,
				"method": "rhf"
			},
			{
				"type": "unocc",
				"energy": 0.05498,
				"method": "rhf"
			},
			{
				"type": "unocc",
				"energy": 0.06445,
				"method": "rhf"
			},
			{
				"type": "unocc",
				"energy": 0.07833,
				"method": "rhf"
			},
			{
				"type": "unocc",
				"energy": 0.08509,
				"method": "rhf"
			},
			{
				"type": "unocc",
				"energy": 0.0869,
				"method": "rhf"
			}
		],
		"cosmo_sigma_profile": { 
			"-0.025": 0.0,
			"-0.024": 0.0,
			"-0.023": 0.0,
			"-0.022": 0.0,
			"-0.021": 0.0,
			"-0.02": 0.0,
			"-0.019": 0.0,
			"-0.018": 0.0,
			"-0.017": 0.0,
			"-0.016": 0.0,
			"-0.015": 0.0,
			"-0.014": 0.0,
			"-0.013": 0.0,
			"-0.012": 0.0,
			"-0.011": 0.0,
			"-0.01": 0.0,
			"-0.009": 0.0,
			"-0.008": 0.0,
			"-0.007": 0.0,
			"-0.006": 0.0,
			"-0.005": 0.0,
			"-0.004": 0.138890651124,
			"-0.003": 9.65084671111,
			"-0.002": 91.0023845314,
			"-0.001": 199.128690126,
			"0.0": 224.329337181,
			"0.001": 169.682475395,
			"0.002": 75.0906617764,
			"0.003": 3.54712902482,
			"0.004": 2.05021638583,
			"0.005": 1.08338481927,
			"0.006": 0.685266669633,
			"0.007": 0.739379933793,
			"0.008": 1.36367827742,
			"0.009": 0.796359863962,
			"0.01": 0.518569983592,
			"0.011": 0.625574020001,
			"0.012": 0.956603725536,
			"0.013": 0.353340047017,
			"0.014": 0.199800841179,
			"0.015": 0.0,
			"0.016": 0.0,
			"0.017": 0.0,
			"0.018": 0.0,
			"0.019": 0.0,
			"0.02": 0.0,
			"0.021": 0.0,
			"0.022": 0.0,
			"0.023": 0.0,
			"0.024": 0.0,
			"0.025": 0.0
		}
	}
}
