{
	 "smiles": "CC1=CC(=CC=C1N)C(O)=O", 
	 "Tm": 443.15, 
	 "num_atms": 20, 
	 "gaussian": { 
		 "optdone": 1, 
		 "sigma_profile": "yes", 
		 "theory": "DFT", 
		 "functional": "B3LYP", 
		 "basiset": "6-31G**", 
		 "properties": { 
			 "R2extent": 2113.0716, 
			 "electric_dipole_moment_norm": 6.82812114274, 
			 "electric_quadrupole_moment_norm": 12.3532601098, 
			 "total_energy": -515.49674358, 
			 "HOMO_LUMO_gap": 0.18613, 
			 "cosmo_polarized_energy": -18.91, 
			 "cosmo_cavitation_energy": 23.85, 
			 "cosmo_dispersion_energy": -17.76, 
			 "cosmo_repulsion_energy": 1.42, 
			 "cosmo_total_nonelectrostatic_energy": 7.51, 
			 "SMD_solvation_energy": 5.16 
		},
		"coords": [
			{
				"x": 1.8039140021,
				"y": -1.9834690839,
				"z": 1.2041689629,
				"element": "C" 
			},
			{
				"x": 1.3173032716,
				"y": -1.02044982,
				"z": 0.1501519582,
				"element": "C" 
			},
			{
				"x": 0.0232927722,
				"y": -0.5055258314,
				"z": 0.1813427229,
				"element": "C" 
			},
			{
				"x": -0.4528511558,
				"y": 0.39129593,
				"z": -0.7875441072,
				"element": "C" 
			},
			{
				"x": 0.4212610534,
				"y": 0.7924566124,
				"z": -1.8078834208,
				"element": "C" 
			},
			{
				"x": 1.7109092941,
				"y": 0.2908332272,
				"z": -1.8684484245,
				"element": "C" 
			},
			{
				"x": 2.1784869111,
				"y": -0.6187042623,
				"z": -0.9007256513,
				"element": "C" 
			},
			{
				"x": 3.4552197562,
				"y": -1.1508897505,
				"z": -1.002500383,
				"element": "N" 
			},
			{
				"x": -1.824965953,
				"y": 0.972232312,
				"z": -0.7734774308,
				"element": "C" 
			},
			{
				"x": -2.7600850601,
				"y": 0.327934787,
				"z": -0.0159074978,
				"element": "O" 
			},
			{
				"x": -2.1407316565,
				"y": 1.9648364761,
				"z": -1.390461155,
				"element": "O" 
			},
			{
				"x": 1.0139856756,
				"y": -2.2126922305,
				"z": 1.9236004095,
				"element": "H" 
			},
			{
				"x": 2.1378560182,
				"y": -2.9300916222,
				"z": 0.7609386349,
				"element": "H" 
			},
			{
				"x": 2.6510306899,
				"y": -1.5769968025,
				"z": 1.7747487341,
				"element": "H" 
			},
			{
				"x": -0.6082692765,
				"y": -0.7949146629,
				"z": 1.0197065962,
				"element": "H" 
			},
			{
				"x": 0.063890114,
				"y": 1.5029387709,
				"z": -2.5453853509,
				"element": "H" 
			},
			{
				"x": 2.3773137368,
				"y": 0.5999295092,
				"z": -2.6700722188,
				"element": "H" 
			},
			{
				"x": 3.8820989252,
				"y": -1.4875804175,
				"z": -0.1524695435,
				"element": "H" 
			},
			{
				"x": 4.0988020505,
				"y": -0.6505989882,
				"z": -1.5983731177,
				"element": "H" 
			},
			{
				"x": -2.4188611691,
				"y": -0.5317441527,
				"z": 0.2653902825,
				"element": "H" 
			}
		],
		 "valence_orbital": [ 
			{
				"type": "occ",
				"energy": -0.32456,
				"method": "rhf"
			},
			{
				"type": "occ",
				"energy": -0.29949,
				"method": "rhf"
			},
			{
				"type": "occ",
				"energy": -0.26007,
				"method": "rhf"
			},
			{
				"type": "occ",
				"energy": -0.25668,
				"method": "rhf"
			},
			{
				"type": "occ",
				"energy": -0.21682,
				"method": "rhf"
			},
			{
				"type": "unocc",
				"energy": -0.03069,
				"method": "rhf"
			},
			{
				"type": "unocc",
				"energy": -0.01003,
				"method": "rhf"
			},
			{
				"type": "unocc",
				"energy": 0.05805,
				"method": "rhf"
			},
			{
				"type": "unocc",
				"energy": 0.06574,
				"method": "rhf"
			},
			{
				"type": "unocc",
				"energy": 0.0716,
				"method": "rhf"
			}
		],
		"cosmo_sigma_profile": { 
			"-0.025": 0.0,
			"-0.024": 0.0,
			"-0.023": 0.0,
			"-0.022": 0.0,
			"-0.021": 0.0,
			"-0.02": 0.0,
			"-0.019": 0.0,
			"-0.018": 0.419538938666,
			"-0.017": 0.649651769718,
			"-0.016": 1.05609688641,
			"-0.015": 1.14435943331,
			"-0.014": 0.809357699422,
			"-0.013": 1.80940564433,
			"-0.012": 3.60606869398,
			"-0.011": 4.05864362714,
			"-0.01": 4.47957508079,
			"-0.009": 3.82125413117,
			"-0.008": 4.07664582671,
			"-0.007": 4.52557885706,
			"-0.006": 7.29046308641,
			"-0.005": 8.84221872297,
			"-0.004": 11.6410952982,
			"-0.003": 9.25090577188,
			"-0.002": 11.0253671172,
			"-0.001": 12.115940302,
			"0.0": 13.0724283768,
			"0.001": 9.2636595284,
			"0.002": 7.82233253708,
			"0.003": 9.83433105638,
			"0.004": 12.8710212752,
			"0.005": 10.7485422357,
			"0.006": 3.33983460889,
			"0.007": 2.97471149705,
			"0.008": 3.40664904254,
			"0.009": 3.46505005104,
			"0.01": 4.61472782418,
			"0.011": 5.00824390505,
			"0.012": 6.51191070702,
			"0.013": 4.16431285648,
			"0.014": 1.26670297392,
			"0.015": 0.0226736639803,
			"0.016": 0.0,
			"0.017": 0.0,
			"0.018": 0.0,
			"0.019": 0.0,
			"0.02": 0.0,
			"0.021": 0.0,
			"0.022": 0.0,
			"0.023": 0.0,
			"0.024": 0.0,
			"0.025": 0.0
		}
	}
}
