{
	 "smiles": "COC1=C(OC(F)F)C=C(N)C(=C1)C(O)=O", 
	 "Tm": 426.15, 
	 "num_atms": 25, 
	 "gaussian": { 
		 "optdone": 1, 
		 "sigma_profile": "yes", 
		 "theory": "DFT", 
		 "functional": "B3LYP", 
		 "basiset": "6-31G**", 
		 "properties": { 
			 "R2extent": 5338.802, 
			 "electric_dipole_moment_norm": 1.37798154922, 
			 "electric_quadrupole_moment_norm": 26.4112052665, 
			 "total_energy": -903.699517713, 
			 "HOMO_LUMO_gap": 0.16329, 
			 "cosmo_polarized_energy": -16.36, 
			 "cosmo_cavitation_energy": 30.1, 
			 "cosmo_dispersion_energy": -21.81, 
			 "cosmo_repulsion_energy": 1.66, 
			 "cosmo_total_nonelectrostatic_energy": 9.94, 
			 "SMD_solvation_energy": 7.87 
		},
		"coords": [
			{
				"x": 0.8488760572,
				"y": 3.252165943,
				"z": -1.4279561333,
				"element": "C" 
			},
			{
				"x": 0.8963872438,
				"y": 1.9351566478,
				"z": -0.8567380934,
				"element": "O" 
			},
			{
				"x": -0.1857290585,
				"y": 1.1381735156,
				"z": -1.1643462689,
				"element": "C" 
			},
			{
				"x": -1.4043816188,
				"y": 1.2511216398,
				"z": -0.4608187229,
				"element": "C" 
			},
			{
				"x": -1.5933627357,
				"y": 2.2080267234,
				"z": 0.5172641388,
				"element": "O" 
			},
			{
				"x": -0.6633038541,
				"y": 2.3198273822,
				"z": 1.5351000765,
				"element": "C" 
			},
			{
				"x": -0.1486164179,
				"y": 3.573610481,
				"z": 1.5160486541,
				"element": "F" 
			},
			{
				"x": -1.31779034,
				"y": 2.1802859177,
				"z": 2.711398315,
				"element": "F" 
			},
			{
				"x": -2.4879202321,
				"y": 0.4541346116,
				"z": -0.7829827654,
				"element": "C" 
			},
			{
				"x": -2.4137397981,
				"y": -0.5073682765,
				"z": -1.8152617448,
				"element": "C" 
			},
			{
				"x": -3.4969612604,
				"y": -1.283574397,
				"z": -2.1029435552,
				"element": "N" 
			},
			{
				"x": -1.166242073,
				"y": -0.6750119975,
				"z": -2.4901080283,
				"element": "C" 
			},
			{
				"x": -0.0954566608,
				"y": 0.1757641097,
				"z": -2.1556602327,
				"element": "C" 
			},
			{
				"x": -1.0332813649,
				"y": -1.6944074277,
				"z": -3.5577951348,
				"element": "C" 
			},
			{
				"x": 0.2230892846,
				"y": -2.036234014,
				"z": -3.9462293082,
				"element": "O" 
			},
			{
				"x": -1.9750646086,
				"y": -2.2414350527,
				"z": -4.1074196433,
				"element": "O" 
			},
			{
				"x": -0.014149991,
				"y": 3.8146152854,
				"z": -1.059107243,
				"element": "H" 
			},
			{
				"x": 1.7660738009,
				"y": 3.7534143908,
				"z": -1.1142796486,
				"element": "H" 
			},
			{
				"x": 0.814830656,
				"y": 3.1974353017,
				"z": -2.522548858,
				"element": "H" 
			},
			{
				"x": 0.1432049596,
				"y": 1.5882260519,
				"z": 1.4662411502,
				"element": "H" 
			},
			{
				"x": -3.4083445725,
				"y": 0.5848864042,
				"z": -0.2230649457,
				"element": "H" 
			},
			{
				"x": -3.4588139698,
				"y": -1.8171339902,
				"z": -2.9634133171,
				"element": "H" 
			},
			{
				"x": -4.3921362379,
				"y": -1.0250752875,
				"z": -1.7217264774,
				"element": "H" 
			},
			{
				"x": 0.8428423179,
				"y": 0.1347052982,
				"z": -2.7022038055,
				"element": "H" 
			},
			{
				"x": 0.8728904743,
				"y": -1.694109261,
				"z": -3.3176484082,
				"element": "H" 
			}
		],
		 "valence_orbital": [ 
			{
				"type": "occ",
				"energy": -0.31256,
				"method": "rhf"
			},
			{
				"type": "occ",
				"energy": -0.29368,
				"method": "rhf"
			},
			{
				"type": "occ",
				"energy": -0.27901,
				"method": "rhf"
			},
			{
				"type": "occ",
				"energy": -0.26417,
				"method": "rhf"
			},
			{
				"type": "occ",
				"energy": -0.21642,
				"method": "rhf"
			},
			{
				"type": "unocc",
				"energy": -0.05313,
				"method": "rhf"
			},
			{
				"type": "unocc",
				"energy": -0.00793,
				"method": "rhf"
			},
			{
				"type": "unocc",
				"energy": 0.04424,
				"method": "rhf"
			},
			{
				"type": "unocc",
				"energy": 0.05756,
				"method": "rhf"
			},
			{
				"type": "unocc",
				"energy": 0.07747,
				"method": "rhf"
			}
		],
		"cosmo_sigma_profile": { 
			"-0.025": 0.0,
			"-0.024": 0.0,
			"-0.023": 0.0,
			"-0.022": 0.0,
			"-0.021": 0.0,
			"-0.02": 0.0,
			"-0.019": 0.298893555803,
			"-0.018": 0.883819406297,
			"-0.017": 0.78403934776,
			"-0.016": 0.917955399622,
			"-0.015": 0.854643693444,
			"-0.014": 1.48193506123,
			"-0.013": 3.1245264031,
			"-0.012": 2.48822401425,
			"-0.011": 2.45975210385,
			"-0.01": 3.96001224129,
			"-0.009": 4.98057609062,
			"-0.008": 5.30597635559,
			"-0.007": 5.41516579311,
			"-0.006": 7.0595653195,
			"-0.005": 8.89054287921,
			"-0.004": 12.2235937541,
			"-0.003": 15.9843617266,
			"-0.002": 14.2908606136,
			"-0.001": 10.9796864476,
			"0.0": 12.7321490348,
			"0.001": 16.1176233778,
			"0.002": 22.4141357919,
			"0.003": 22.6417660186,
			"0.004": 21.9260512145,
			"0.005": 7.26481243687,
			"0.006": 5.18876295988,
			"0.007": 4.56879512867,
			"0.008": 5.43703153669,
			"0.009": 4.49090055939,
			"0.01": 4.98635257005,
			"0.011": 4.78426234226,
			"0.012": 2.92770118317,
			"0.013": 1.80728651527,
			"0.014": 0.192417388602,
			"0.015": 0.0,
			"0.016": 0.0,
			"0.017": 0.0,
			"0.018": 0.0,
			"0.019": 0.0,
			"0.02": 0.0,
			"0.021": 0.0,
			"0.022": 0.0,
			"0.023": 0.0,
			"0.024": 0.0,
			"0.025": 0.0
		}
	}
}
