{
	 "smiles": "CC(C)=CC=C(C)C", 
	 "Tm": 285.65, 
	 "num_atms": 22, 
	 "gaussian": { 
		 "optdone": 1, 
		 "sigma_profile": "yes", 
		 "theory": "DFT", 
		 "functional": "B3LYP", 
		 "basiset": "6-31G**", 
		 "properties": { 
			 "R2extent": 1550.9319, 
			 "electric_dipole_moment_norm": 0.431804979128, 
			 "electric_quadrupole_moment_norm": 2.54967605982, 
			 "total_energy": -313.273494287, 
			 "HOMO_LUMO_gap": 0.2157, 
			 "cosmo_polarized_energy": -2.06, 
			 "cosmo_cavitation_energy": 23.8, 
			 "cosmo_dispersion_energy": -16.92, 
			 "cosmo_repulsion_energy": 1.42, 
			 "cosmo_total_nonelectrostatic_energy": 8.3, 
			 "SMD_solvation_energy": 4.56 
		},
		"coords": [
			{
				"x": 1.2915996519,
				"y": -0.8642776899,
				"z": 1.8284367133,
				"element": "C" 
			},
			{
				"x": 1.4055687806,
				"y": -0.615592548,
				"z": 0.3458990003,
				"element": "C" 
			},
			{
				"x": 2.717858646,
				"y": -0.0245608251,
				"z": -0.1080702816,
				"element": "C" 
			},
			{
				"x": 0.4420071184,
				"y": -0.9228318858,
				"z": -0.5448533291,
				"element": "C" 
			},
			{
				"x": -0.8874813678,
				"y": -1.5018753188,
				"z": -0.2941191208,
				"element": "C" 
			},
			{
				"x": -1.868500519,
				"y": -1.0374419085,
				"z": 0.5047516387,
				"element": "C" 
			},
			{
				"x": -3.177396527,
				"y": -1.7778061498,
				"z": 0.6318363368,
				"element": "C" 
			},
			{
				"x": -1.7778361184,
				"y": 0.2465870311,
				"z": 1.2895058563,
				"element": "C" 
			},
			{
				"x": 2.1870240443,
				"y": -1.3813411596,
				"z": 2.1967890718,
				"element": "H" 
			},
			{
				"x": 0.4167482917,
				"y": -1.4690095565,
				"z": 2.0738379497,
				"element": "H" 
			},
			{
				"x": 1.2240072891,
				"y": 0.0769753009,
				"z": 2.390660013,
				"element": "H" 
			},
			{
				"x": 3.5609448101,
				"y": -0.6690224676,
				"z": 0.1750833869,
				"element": "H" 
			},
			{
				"x": 2.8993761364,
				"y": 0.9474314031,
				"z": 0.3703003715,
				"element": "H" 
			},
			{
				"x": 2.7480700525,
				"y": 0.1222507574,
				"z": -1.1913339577,
				"element": "H" 
			},
			{
				"x": 0.6847807161,
				"y": -0.7818267259,
				"z": -1.6006376715,
				"element": "H" 
			},
			{
				"x": -1.1132643772,
				"y": -2.3939622901,
				"z": -0.8829351724,
				"element": "H" 
			},
			{
				"x": -4.020196743,
				"y": -1.1483169355,
				"z": 0.3160425152,
				"element": "H" 
			},
			{
				"x": -3.1903463429,
				"y": -2.6927081495,
				"z": 0.0329033972,
				"element": "H" 
			},
			{
				"x": -3.3744774688,
				"y": -2.0544251105,
				"z": 1.6764403667,
				"element": "H" 
			},
			{
				"x": -2.6756413185,
				"y": 0.8563476964,
				"z": 1.1253202485,
				"element": "H" 
			},
			{
				"x": -1.7263752541,
				"y": 0.0554107185,
				"z": 2.3699846121,
				"element": "H" 
			},
			{
				"x": -0.9029695004,
				"y": 0.8351958137,
				"z": 1.0076580552,
				"element": "H" 
			}
		],
		 "valence_orbital": [ 
			{
				"type": "occ",
				"energy": -0.35394,
				"method": "rhf"
			},
			{
				"type": "occ",
				"energy": -0.34053,
				"method": "rhf"
			},
			{
				"type": "occ",
				"energy": -0.3195,
				"method": "rhf"
			},
			{
				"type": "occ",
				"energy": -0.25879,
				"method": "rhf"
			},
			{
				"type": "occ",
				"energy": -0.20991,
				"method": "rhf"
			},
			{
				"type": "unocc",
				"energy": 0.00579,
				"method": "rhf"
			},
			{
				"type": "unocc",
				"energy": 0.06195,
				"method": "rhf"
			},
			{
				"type": "unocc",
				"energy": 0.09361,
				"method": "rhf"
			},
			{
				"type": "unocc",
				"energy": 0.11316,
				"method": "rhf"
			},
			{
				"type": "unocc",
				"energy": 0.12981,
				"method": "rhf"
			}
		],
		"cosmo_sigma_profile": { 
			"-0.025": 0.0,
			"-0.024": 0.0,
			"-0.023": 0.0,
			"-0.022": 0.0,
			"-0.021": 0.0,
			"-0.02": 0.0,
			"-0.019": 0.0,
			"-0.018": 0.0,
			"-0.017": 0.0,
			"-0.016": 0.0,
			"-0.015": 0.0,
			"-0.014": 0.0,
			"-0.013": 0.0,
			"-0.012": 0.0,
			"-0.011": 0.0,
			"-0.01": 0.0,
			"-0.009": 0.0,
			"-0.008": 0.0,
			"-0.007": 0.0,
			"-0.006": 0.0,
			"-0.005": 0.0,
			"-0.004": 4.36467920338,
			"-0.003": 25.5213757569,
			"-0.002": 25.4330952151,
			"-0.001": 31.4713236242,
			"0.0": 30.934593,
			"0.001": 28.1232569973,
			"0.002": 12.0802527839,
			"0.003": 6.82773381411,
			"0.004": 6.94356589194,
			"0.005": 6.819197845,
			"0.006": 4.88610275129,
			"0.007": 1.7455352463,
			"0.008": 0.00105557546905,
			"0.009": 0.0,
			"0.01": 0.0,
			"0.011": 0.0,
			"0.012": 0.0,
			"0.013": 0.0,
			"0.014": 0.0,
			"0.015": 0.0,
			"0.016": 0.0,
			"0.017": 0.0,
			"0.018": 0.0,
			"0.019": 0.0,
			"0.02": 0.0,
			"0.021": 0.0,
			"0.022": 0.0,
			"0.023": 0.0,
			"0.024": 0.0,
			"0.025": 0.0
		}
	}
}
