{
	 "smiles": "N#CCCNCCC#N", 
	 "Tm": 267.15, 
	 "num_atms": 18, 
	 "gaussian": { 
		 "optdone": 1, 
		 "sigma_profile": "yes", 
		 "theory": "DFT", 
		 "functional": "B3LYP", 
		 "basiset": "6-31G**", 
		 "properties": { 
			 "R2extent": 2274.1124, 
			 "electric_dipole_moment_norm": 5.34210256828, 
			 "electric_quadrupole_moment_norm": 26.424887143, 
			 "total_energy": -398.272644155, 
			 "HOMO_LUMO_gap": 0.27119, 
			 "cosmo_polarized_energy": -21.36, 
			 "cosmo_cavitation_energy": 23.79, 
			 "cosmo_dispersion_energy": -15.87, 
			 "cosmo_repulsion_energy": 1.36, 
			 "cosmo_total_nonelectrostatic_energy": 9.28, 
			 "SMD_solvation_energy": 5.39 
		},
		"coords": [
			{
				"x": 2.6669799922,
				"y": -3.3453340783,
				"z": -0.0801172819,
				"element": "N" 
			},
			{
				"x": 2.456866587,
				"y": -2.2405315217,
				"z": 0.2052298408,
				"element": "C" 
			},
			{
				"x": 2.2100547284,
				"y": -0.8483241911,
				"z": 0.5911948146,
				"element": "C" 
			},
			{
				"x": 0.7315507484,
				"y": -0.5627937783,
				"z": 0.917969137,
				"element": "C" 
			},
			{
				"x": -0.1076281926,
				"y": -0.7860131223,
				"z": -0.2480471441,
				"element": "N" 
			},
			{
				"x": -1.5375437073,
				"y": -0.8740824239,
				"z": -0.0187975834,
				"element": "C" 
			},
			{
				"x": -2.209963885,
				"y": 0.4331188884,
				"z": 0.4981312908,
				"element": "C" 
			},
			{
				"x": -3.651593912,
				"y": 0.2741804202,
				"z": 0.6893502589,
				"element": "C" 
			},
			{
				"x": -4.7926463999,
				"y": 0.112397368,
				"z": 0.8293171759,
				"element": "N" 
			},
			{
				"x": 2.5476438736,
				"y": -0.1955323214,
				"z": -0.2235397532,
				"element": "H" 
			},
			{
				"x": 2.8327399954,
				"y": -0.610527744,
				"z": 1.4614220212,
				"element": "H" 
			},
			{
				"x": 0.6798453703,
				"y": 0.4580424191,
				"z": 1.3368909138,
				"element": "H" 
			},
			{
				"x": 0.4014535106,
				"y": -1.2464841451,
				"z": 1.7081891375,
				"element": "H" 
			},
			{
				"x": 0.1060097186,
				"y": -0.1221788828,
				"z": -0.9875449491,
				"element": "H" 
			},
			{
				"x": -1.7252492294,
				"y": -1.6777988547,
				"z": 0.7014551645,
				"element": "H" 
			},
			{
				"x": -2.0200823972,
				"y": -1.1700514278,
				"z": -0.9553978021,
				"element": "H" 
			},
			{
				"x": -2.0393536701,
				"y": 1.2479215479,
				"z": -0.2164333748,
				"element": "H" 
			},
			{
				"x": -1.7659831308,
				"y": 0.7428918476,
				"z": 1.4510281336,
				"element": "H" 
			}
		],
		 "valence_orbital": [ 
			{
				"type": "occ",
				"energy": -0.33469,
				"method": "rhf"
			},
			{
				"type": "occ",
				"energy": -0.32907,
				"method": "rhf"
			},
			{
				"type": "occ",
				"energy": -0.3266,
				"method": "rhf"
			},
			{
				"type": "occ",
				"energy": -0.32491,
				"method": "rhf"
			},
			{
				"type": "occ",
				"energy": -0.25173,
				"method": "rhf"
			},
			{
				"type": "unocc",
				"energy": 0.01946,
				"method": "rhf"
			},
			{
				"type": "unocc",
				"energy": 0.02752,
				"method": "rhf"
			},
			{
				"type": "unocc",
				"energy": 0.03292,
				"method": "rhf"
			},
			{
				"type": "unocc",
				"energy": 0.03642,
				"method": "rhf"
			},
			{
				"type": "unocc",
				"energy": 0.06744,
				"method": "rhf"
			}
		],
		"cosmo_sigma_profile": { 
			"-0.025": 0.0,
			"-0.024": 0.0,
			"-0.023": 0.0,
			"-0.022": 0.0,
			"-0.021": 0.0,
			"-0.02": 0.0,
			"-0.019": 0.0,
			"-0.018": 0.0,
			"-0.017": 0.0,
			"-0.016": 0.0,
			"-0.015": 0.0,
			"-0.014": 0.0,
			"-0.013": 0.0,
			"-0.012": 0.0687632006787,
			"-0.011": 1.93345764321,
			"-0.01": 2.56477170252,
			"-0.009": 3.38855984612,
			"-0.008": 10.3614335194,
			"-0.007": 12.7596235743,
			"-0.006": 18.0532509438,
			"-0.005": 25.3491806354,
			"-0.004": 16.3357457231,
			"-0.003": 7.34545421571,
			"-0.002": 7.46930926359,
			"-0.001": 3.73157299461,
			"0.0": 4.20771314523,
			"0.001": 4.54256298797,
			"0.002": 3.07842031933,
			"0.003": 3.59989686467,
			"0.004": 4.7436543293,
			"0.005": 3.38709754371,
			"0.006": 6.5929987734,
			"0.007": 5.93322505466,
			"0.008": 7.06618234898,
			"0.009": 8.96531760139,
			"0.01": 7.83707347833,
			"0.011": 6.6677952447,
			"0.012": 6.04516757965,
			"0.013": 5.21612121814,
			"0.014": 1.57397444206,
			"0.015": 0.0,
			"0.016": 0.0,
			"0.017": 0.0,
			"0.018": 0.0,
			"0.019": 0.0,
			"0.02": 0.0,
			"0.021": 0.0,
			"0.022": 0.0,
			"0.023": 0.0,
			"0.024": 0.0,
			"0.025": 0.0
		}
	}
}
