{
	 "smiles": "OC(=O)C1=CC=CN=C1Cl", 
	 "Tm": 450.15, 
	 "num_atms": 14, 
	 "gaussian": { 
		 "optdone": 1, 
		 "sigma_profile": "yes", 
		 "theory": "DFT", 
		 "functional": "B3LYP", 
		 "basiset": "6-31G**", 
		 "properties": { 
			 "R2extent": 2255.3231, 
			 "electric_dipole_moment_norm": 1.85412994151, 
			 "electric_quadrupole_moment_norm": 18.3725499365, 
			 "total_energy": -896.442877114, 
			 "HOMO_LUMO_gap": 0.19998, 
			 "cosmo_polarized_energy": -11.03, 
			 "cosmo_cavitation_energy": 20.73, 
			 "cosmo_dispersion_energy": -15.81, 
			 "cosmo_repulsion_energy": 1.28, 
			 "cosmo_total_nonelectrostatic_energy": 6.2, 
			 "SMD_solvation_energy": 3.46 
		},
		"coords": [
			{
				"x": -0.0819739286,
				"y": -0.6196406188,
				"z": -2.4514899262,
				"element": "O" 
			},
			{
				"x": 0.2039546672,
				"y": -0.1051173982,
				"z": -1.2436944562,
				"element": "C" 
			},
			{
				"x": 0.6163004712,
				"y": 1.0315026766,
				"z": -1.1070696404,
				"element": "O" 
			},
			{
				"x": -0.0197244204,
				"y": -1.0210898687,
				"z": -0.0793948246,
				"element": "C" 
			},
			{
				"x": 0.2735325512,
				"y": -0.4594330221,
				"z": 1.1734405148,
				"element": "C" 
			},
			{
				"x": 0.110126916,
				"y": -1.1977557937,
				"z": 2.3374156637,
				"element": "C" 
			},
			{
				"x": -0.3519807825,
				"y": -2.5061151214,
				"z": 2.2129752875,
				"element": "C" 
			},
			{
				"x": -0.6389685244,
				"y": -3.0698965879,
				"z": 1.0353867035,
				"element": "N" 
			},
			{
				"x": -0.4797921714,
				"y": -2.3573149943,
				"z": -0.0697220049,
				"element": "C" 
			},
			{
				"x": -0.8941246943,
				"y": -3.2301967692,
				"z": -1.5343164618,
				"element": "Cl" 
			},
			{
				"x": 0.1130517084,
				"y": 0.0885510197,
				"z": -3.0888450568,
				"element": "H" 
			},
			{
				"x": 0.6290714749,
				"y": 0.5648583353,
				"z": 1.1904523533,
				"element": "H" 
			},
			{
				"x": 0.3329380763,
				"y": -0.7751992417,
				"z": 3.3110322783,
				"element": "H" 
			},
			{
				"x": -0.5009113436,
				"y": -3.1354526156,
				"z": 3.0878295699,
				"element": "H" 
			}
		],
		 "valence_orbital": [ 
			{
				"type": "occ",
				"energy": -0.31213,
				"method": "rhf"
			},
			{
				"type": "occ",
				"energy": -0.30538,
				"method": "rhf"
			},
			{
				"type": "occ",
				"energy": -0.29802,
				"method": "rhf"
			},
			{
				"type": "occ",
				"energy": -0.27746,
				"method": "rhf"
			},
			{
				"type": "occ",
				"energy": -0.27129,
				"method": "rhf"
			},
			{
				"type": "unocc",
				"energy": -0.07131,
				"method": "rhf"
			},
			{
				"type": "unocc",
				"energy": -0.04138,
				"method": "rhf"
			},
			{
				"type": "unocc",
				"energy": 0.03039,
				"method": "rhf"
			},
			{
				"type": "unocc",
				"energy": 0.03427,
				"method": "rhf"
			},
			{
				"type": "unocc",
				"energy": 0.07353,
				"method": "rhf"
			}
		],
		"cosmo_sigma_profile": { 
			"-0.025": 0.0,
			"-0.024": 0.0,
			"-0.023": 0.0,
			"-0.022": 0.0,
			"-0.021": 0.0,
			"-0.02": 0.0,
			"-0.019": 0.276011390121,
			"-0.018": 0.984608972073,
			"-0.017": 0.874196056162,
			"-0.016": 1.11797678006,
			"-0.015": 0.54560297435,
			"-0.014": 0.555962909253,
			"-0.013": 1.07570268266,
			"-0.012": 0.668432209125,
			"-0.011": 0.556611609156,
			"-0.01": 0.427031396532,
			"-0.009": 0.965173270866,
			"-0.008": 5.90721551301,
			"-0.007": 7.74420305501,
			"-0.006": 6.97069886993,
			"-0.005": 5.43674290215,
			"-0.004": 6.75770383283,
			"-0.003": 10.803432036,
			"-0.002": 16.0501874535,
			"-0.001": 15.4454629146,
			"0.0": 14.9958361473,
			"0.001": 8.67579306838,
			"0.002": 7.82714593493,
			"0.003": 7.64072287122,
			"0.004": 9.61466331336,
			"0.005": 6.3565242901,
			"0.006": 5.81342258322,
			"0.007": 4.81248830326,
			"0.008": 4.5706918112,
			"0.009": 3.62266338554,
			"0.01": 3.64371933113,
			"0.011": 5.20024338657,
			"0.012": 1.83500339918,
			"0.013": 1.02518936209,
			"0.014": 0.504391612016,
			"0.015": 0.0,
			"0.016": 0.0,
			"0.017": 0.0,
			"0.018": 0.0,
			"0.019": 0.0,
			"0.02": 0.0,
			"0.021": 0.0,
			"0.022": 0.0,
			"0.023": 0.0,
			"0.024": 0.0,
			"0.025": 0.0
		}
	}
}
