{
	 "smiles": "OC(=O)C1=CC=C2OCCOC2=C1", 
	 "Tm": 408.15, 
	 "num_atms": 21, 
	 "gaussian": { 
		 "optdone": 1, 
		 "sigma_profile": "yes", 
		 "theory": "DFT", 
		 "functional": "B3LYP", 
		 "basiset": "6-31G**", 
		 "properties": { 
			 "R2extent": 2934.5372, 
			 "electric_dipole_moment_norm": 3.1960157509, 
			 "electric_quadrupole_moment_norm": 14.7363182016, 
			 "total_energy": -648.674431223, 
			 "HOMO_LUMO_gap": 0.18401, 
			 "cosmo_polarized_energy": -12.33, 
			 "cosmo_cavitation_energy": 25.12, 
			 "cosmo_dispersion_energy": -19.24, 
			 "cosmo_repulsion_energy": 1.51, 
			 "cosmo_total_nonelectrostatic_energy": 7.4, 
			 "SMD_solvation_energy": 5.87 
		},
		"coords": [
			{
				"x": 0.882911195,
				"y": -0.6041306424,
				"z": 4.2836273162,
				"element": "O" 
			},
			{
				"x": 1.1229673259,
				"y": 0.0630718177,
				"z": 3.123813015,
				"element": "C" 
			},
			{
				"x": 2.0377262916,
				"y": 0.8584681466,
				"z": 3.0212844071,
				"element": "O" 
			},
			{
				"x": 0.1696639631,
				"y": -0.2857055252,
				"z": 2.0443375079,
				"element": "C" 
			},
			{
				"x": -0.8679549411,
				"y": -1.2134276936,
				"z": 2.2272438768,
				"element": "C" 
			},
			{
				"x": -1.7269171658,
				"y": -1.5079467513,
				"z": 1.1752278503,
				"element": "C" 
			},
			{
				"x": -1.5657643207,
				"y": -0.8805172338,
				"z": -0.0632403045,
				"element": "C" 
			},
			{
				"x": -2.42659983,
				"y": -1.2122274873,
				"z": -1.07280639,
				"element": "O" 
			},
			{
				"x": -2.0115914191,
				"y": -0.7747653079,
				"z": -2.3699450168,
				"element": "C" 
			},
			{
				"x": -1.4955748887,
				"y": 0.6527711786,
				"z": -2.3018087311,
				"element": "C" 
			},
			{
				"x": -0.3633808267,
				"y": 0.723505278,
				"z": -1.4362266882,
				"element": "O" 
			},
			{
				"x": -0.5399734404,
				"y": 0.0691851311,
				"z": -0.2414158176,
				"element": "C" 
			},
			{
				"x": 0.3231294031,
				"y": 0.3557067564,
				"z": 0.8090180466,
				"element": "C" 
			},
			{
				"x": 1.562770788,
				"y": -0.2954591464,
				"z": 4.90438365,
				"element": "H" 
			},
			{
				"x": -0.9903237474,
				"y": -1.7032931675,
				"z": 3.1856557278,
				"element": "H" 
			},
			{
				"x": -2.5295348893,
				"y": -2.2300492682,
				"z": 1.2832756517,
				"element": "H" 
			},
			{
				"x": -1.2251550183,
				"y": -1.4402433424,
				"z": -2.7498423023,
				"element": "H" 
			},
			{
				"x": -2.8888307312,
				"y": -0.8528799712,
				"z": -3.0168185505,
				"element": "H" 
			},
			{
				"x": -2.2883447718,
				"y": 1.3209061902,
				"z": -1.9380667151,
				"element": "H" 
			},
			{
				"x": -1.1598544101,
				"y": 0.9997091827,
				"z": -3.2821251279,
				"element": "H" 
			},
			{
				"x": 1.1150314339,
				"y": 1.083221856,
				"z": 0.6713285946,
				"element": "H" 
			}
		],
		 "valence_orbital": [ 
			{
				"type": "occ",
				"energy": -0.31209,
				"method": "rhf"
			},
			{
				"type": "occ",
				"energy": -0.30881,
				"method": "rhf"
			},
			{
				"type": "occ",
				"energy": -0.26975,
				"method": "rhf"
			},
			{
				"type": "occ",
				"energy": -0.24364,
				"method": "rhf"
			},
			{
				"type": "occ",
				"energy": -0.2216,
				"method": "rhf"
			},
			{
				"type": "unocc",
				"energy": -0.03759,
				"method": "rhf"
			},
			{
				"type": "unocc",
				"energy": -0.00183,
				"method": "rhf"
			},
			{
				"type": "unocc",
				"energy": 0.06733,
				"method": "rhf"
			},
			{
				"type": "unocc",
				"energy": 0.07533,
				"method": "rhf"
			},
			{
				"type": "unocc",
				"energy": 0.08869,
				"method": "rhf"
			}
		],
		"cosmo_sigma_profile": { 
			"-0.025": 0.0,
			"-0.024": 0.0,
			"-0.023": 0.0,
			"-0.022": 0.0,
			"-0.021": 0.0,
			"-0.02": 0.0,
			"-0.019": 0.0,
			"-0.018": 0.39491431108,
			"-0.017": 1.15548769821,
			"-0.016": 0.956946751203,
			"-0.015": 0.315812119467,
			"-0.014": 0.658861839945,
			"-0.013": 1.04357324006,
			"-0.012": 0.80188479426,
			"-0.011": 0.736077506726,
			"-0.01": 0.563873578972,
			"-0.009": 0.524395668755,
			"-0.008": 1.30706956987,
			"-0.007": 9.82711784274,
			"-0.006": 18.6762660541,
			"-0.005": 13.8125555568,
			"-0.004": 12.5807098639,
			"-0.003": 9.23415701878,
			"-0.002": 9.1673916169,
			"-0.001": 10.1241010322,
			"0.0": 10.3121805151,
			"0.001": 13.9935169653,
			"0.002": 18.3989836131,
			"0.003": 16.7794292812,
			"0.004": 10.7979322829,
			"0.005": 4.66898483275,
			"0.006": 5.49337025046,
			"0.007": 5.5061421118,
			"0.008": 5.57938499963,
			"0.009": 4.40248962007,
			"0.01": 3.67552324181,
			"0.011": 2.8123486266,
			"0.012": 5.4020653633,
			"0.013": 0.484905227023,
			"0.014": 0.0,
			"0.015": 0.0,
			"0.016": 0.0,
			"0.017": 0.0,
			"0.018": 0.0,
			"0.019": 0.0,
			"0.02": 0.0,
			"0.021": 0.0,
			"0.022": 0.0,
			"0.023": 0.0,
			"0.024": 0.0,
			"0.025": 0.0
		}
	}
}
