{
	 "smiles": "CCCCCCCC(=O)OC1=CC=C(C=C1)N=NC1=CC=C(CCCC)C=C1", 
	 "Tm": 336.75, 
	 "num_atms": 60, 
	 "gaussian": { 
		 "optdone": 1, 
		 "sigma_profile": "yes", 
		 "theory": "DFT", 
		 "functional": "B3LYP", 
		 "basiset": "6-31G**", 
		 "properties": { 
			 "R2extent": 28741.7343, 
			 "electric_dipole_moment_norm": 1.37155684534, 
			 "electric_quadrupole_moment_norm": 19.3593525088, 
			 "total_energy": -1193.80037151, 
			 "HOMO_LUMO_gap": 0.14007, 
			 "cosmo_polarized_energy": -10.43, 
			 "cosmo_cavitation_energy": 62.8, 
			 "cosmo_dispersion_energy": -43.23, 
			 "cosmo_repulsion_energy": 3.35, 
			 "cosmo_total_nonelectrostatic_energy": 22.91, 
			 "SMD_solvation_energy": 8.95 
		},
		"coords": [
			{
				"x": 0.8054154903,
				"y": -5.27686734,
				"z": 5.5067645106,
				"element": "C" 
			},
			{
				"x": -0.4099593126,
				"y": -4.3508497941,
				"z": 5.6240961638,
				"element": "C" 
			},
			{
				"x": -1.6754240937,
				"y": -5.0875528842,
				"z": 6.0859556114,
				"element": "C" 
			},
			{
				"x": -2.8917927391,
				"y": -4.1799375256,
				"z": 6.3438201429,
				"element": "C" 
			},
			{
				"x": -3.3597678243,
				"y": -3.3330706651,
				"z": 5.1476236157,
				"element": "C" 
			},
			{
				"x": -3.8253705406,
				"y": -4.153862572,
				"z": 3.9365680831,
				"element": "C" 
			},
			{
				"x": -4.2580666409,
				"y": -3.2894339393,
				"z": 2.7483340324,
				"element": "C" 
			},
			{
				"x": -3.0984182617,
				"y": -2.6034737077,
				"z": 2.0537956361,
				"element": "C" 
			},
			{
				"x": -1.9249295573,
				"y": -2.8280348744,
				"z": 2.2301735038,
				"element": "O" 
			},
			{
				"x": -3.5809623388,
				"y": -1.6826047856,
				"z": 1.1590504375,
				"element": "O" 
			},
			{
				"x": -2.7376390452,
				"y": -0.9298816904,
				"z": 0.3456239232,
				"element": "C" 
			},
			{
				"x": -3.1231887172,
				"y": 0.3956385058,
				"z": 0.1459508096,
				"element": "C" 
			},
			{
				"x": -2.3807920962,
				"y": 1.1998749641,
				"z": -0.7124376159,
				"element": "C" 
			},
			{
				"x": -1.2552364343,
				"y": 0.6861039415,
				"z": -1.3706292776,
				"element": "C" 
			},
			{
				"x": -0.8838696888,
				"y": -0.6537798898,
				"z": -1.1616661368,
				"element": "C" 
			},
			{
				"x": -1.6204506042,
				"y": -1.4652038874,
				"z": -0.3088401788,
				"element": "C" 
			},
			{
				"x": -0.5744654575,
				"y": 1.5927905015,
				"z": -2.218312039,
				"element": "N" 
			},
			{
				"x": 0.4409525019,
				"y": 1.1159536928,
				"z": -2.7960102559,
				"element": "N" 
			},
			{
				"x": 1.1232112663,
				"y": 2.0193102461,
				"z": -3.6451018468,
				"element": "C" 
			},
			{
				"x": 0.7439552003,
				"y": 3.3548871762,
				"z": -3.8728292849,
				"element": "C" 
			},
			{
				"x": 1.4928803442,
				"y": 4.1458171885,
				"z": -4.7316662063,
				"element": "C" 
			},
			{
				"x": 2.6340627423,
				"y": 3.6443746162,
				"z": -5.3879763271,
				"element": "C" 
			},
			{
				"x": 3.4426741465,
				"y": 4.5355787114,
				"z": -6.3058463586,
				"element": "C" 
			},
			{
				"x": 4.298206106,
				"y": 5.5893980205,
				"z": -5.5630332221,
				"element": "C" 
			},
			{
				"x": 5.4144943537,
				"y": 5.0217140756,
				"z": -4.6717608752,
				"element": "C" 
			},
			{
				"x": 6.5382063214,
				"y": 4.3143567448,
				"z": -5.4385778838,
				"element": "C" 
			},
			{
				"x": 2.9973448027,
				"y": 2.3117523137,
				"z": -5.1543471579,
				"element": "C" 
			},
			{
				"x": 2.2535088516,
				"y": 1.506994245,
				"z": -4.2935505602,
				"element": "C" 
			},
			{
				"x": 1.0447458965,
				"y": -5.7446723929,
				"z": 6.4690062752,
				"element": "H" 
			},
			{
				"x": 0.6208165412,
				"y": -6.0822319417,
				"z": 4.7862842657,
				"element": "H" 
			},
			{
				"x": 1.6934429347,
				"y": -4.7311415107,
				"z": 5.17141105,
				"element": "H" 
			},
			{
				"x": -0.591737806,
				"y": -3.8708750256,
				"z": 4.6550721271,
				"element": "H" 
			},
			{
				"x": -0.1851002323,
				"y": -3.5407147692,
				"z": 6.3322334862,
				"element": "H" 
			},
			{
				"x": -1.4528363385,
				"y": -5.6325756123,
				"z": 7.013756143,
				"element": "H" 
			},
			{
				"x": -1.9317157644,
				"y": -5.8583054365,
				"z": 5.3462075612,
				"element": "H" 
			},
			{
				"x": -2.6538544809,
				"y": -3.5007386338,
				"z": 7.1736772641,
				"element": "H" 
			},
			{
				"x": -3.7288208753,
				"y": -4.8009158517,
				"z": 6.692495868,
				"element": "H" 
			},
			{
				"x": -4.1876517642,
				"y": -2.6900204202,
				"z": 5.4775451582,
				"element": "H" 
			},
			{
				"x": -2.5539825863,
				"y": -2.6594591801,
				"z": 4.8359163938,
				"element": "H" 
			},
			{
				"x": -3.0252203547,
				"y": -4.822694786,
				"z": 3.6038218462,
				"element": "H" 
			},
			{
				"x": -4.6694281298,
				"y": -4.7910116868,
				"z": 4.2294510008,
				"element": "H" 
			},
			{
				"x": -4.983643518,
				"y": -2.5226604679,
				"z": 3.0442752287,
				"element": "H" 
			},
			{
				"x": -4.7643829154,
				"y": -3.8948753963,
				"z": 1.9845720588,
				"element": "H" 
			},
			{
				"x": -3.9990386691,
				"y": 0.7744965338,
				"z": 0.6616071583,
				"element": "H" 
			},
			{
				"x": -2.6542141499,
				"y": 2.2349777515,
				"z": -0.8891701633,
				"element": "H" 
			},
			{
				"x": -0.0139705502,
				"y": -1.0393530851,
				"z": -1.6805026777,
				"element": "H" 
			},
			{
				"x": -1.3316926671,
				"y": -2.4940813794,
				"z": -0.1408978074,
				"element": "H" 
			},
			{
				"x": -0.1365097925,
				"y": 3.7405760313,
				"z": -3.3717012173,
				"element": "H" 
			},
			{
				"x": 1.190064117,
				"y": 5.1754305977,
				"z": -4.9087890875,
				"element": "H" 
			},
			{
				"x": 4.085325608,
				"y": 3.9176838382,
				"z": -6.9426277789,
				"element": "H" 
			},
			{
				"x": 2.7604018881,
				"y": 5.0666140516,
				"z": -6.9816917095,
				"element": "H" 
			},
			{
				"x": 4.7400318204,
				"y": 6.2621433227,
				"z": -6.3106186264,
				"element": "H" 
			},
			{
				"x": 3.6317023826,
				"y": 6.2082484631,
				"z": -4.9489645371,
				"element": "H" 
			},
			{
				"x": 5.8458462087,
				"y": 5.8487808264,
				"z": -4.0938285885,
				"element": "H" 
			},
			{
				"x": 4.9796221121,
				"y": 4.3327125999,
				"z": -3.9370611502,
				"element": "H" 
			},
			{
				"x": 6.1769475221,
				"y": 3.4318189228,
				"z": -5.9771013326,
				"element": "H" 
			},
			{
				"x": 7.3270793701,
				"y": 3.9784104618,
				"z": -4.7577511866,
				"element": "H" 
			},
			{
				"x": 6.9978037694,
				"y": 4.9842355962,
				"z": -6.1748925273,
				"element": "H" 
			},
			{
				"x": 3.8687680868,
				"y": 1.8992467457,
				"z": -5.6560696575,
				"element": "H" 
			},
			{
				"x": 2.5278235618,
				"y": 0.4731604457,
				"z": -4.1082360806,
				"element": "H" 
			}
		],
		 "valence_orbital": [ 
			{
				"type": "occ",
				"energy": -0.26145,
				"method": "rhf"
			},
			{
				"type": "occ",
				"energy": -0.25847,
				"method": "rhf"
			},
			{
				"type": "occ",
				"energy": -0.25347,
				"method": "rhf"
			},
			{
				"type": "occ",
				"energy": -0.22307,
				"method": "rhf"
			},
			{
				"type": "occ",
				"energy": -0.21857,
				"method": "rhf"
			},
			{
				"type": "unocc",
				"energy": -0.0785,
				"method": "rhf"
			},
			{
				"type": "unocc",
				"energy": -0.00905,
				"method": "rhf"
			},
			{
				"type": "unocc",
				"energy": -0.00615,
				"method": "rhf"
			},
			{
				"type": "unocc",
				"energy": -0.00336,
				"method": "rhf"
			},
			{
				"type": "unocc",
				"energy": 0.01764,
				"method": "rhf"
			}
		],
		"cosmo_sigma_profile": { 
			"-0.025": 0.0,
			"-0.024": 0.0,
			"-0.023": 0.0,
			"-0.022": 0.0,
			"-0.021": 0.0,
			"-0.02": 0.0,
			"-0.019": 0.0,
			"-0.018": 0.0,
			"-0.017": 0.0,
			"-0.016": 0.0,
			"-0.015": 0.0,
			"-0.014": 0.0,
			"-0.013": 0.0,
			"-0.012": 0.0,
			"-0.011": 0.0,
			"-0.01": 0.0,
			"-0.009": 0.0,
			"-0.008": 0.0556775735434,
			"-0.007": 3.42078934289,
			"-0.006": 11.5967887639,
			"-0.005": 21.2230795781,
			"-0.004": 25.3028034396,
			"-0.003": 33.984887677,
			"-0.002": 56.4641958384,
			"-0.001": 60.802420198,
			"0.0": 70.239443444,
			"0.001": 70.0075952567,
			"0.002": 52.8016584582,
			"0.003": 31.9041268159,
			"0.004": 20.8784279279,
			"0.005": 11.5733321199,
			"0.006": 6.915356337,
			"0.007": 5.18899149545,
			"0.008": 4.23772713713,
			"0.009": 2.51100988189,
			"0.01": 2.16330072876,
			"0.011": 1.24190217272,
			"0.012": 0.0186497270778,
			"0.013": 0.0,
			"0.014": 0.0,
			"0.015": 0.0,
			"0.016": 0.0,
			"0.017": 0.0,
			"0.018": 0.0,
			"0.019": 0.0,
			"0.02": 0.0,
			"0.021": 0.0,
			"0.022": 0.0,
			"0.023": 0.0,
			"0.024": 0.0,
			"0.025": 0.0
		}
	}
}
