{
	 "smiles": "FC(F)(F)CC1=NC2=C(N1)C=CC(Br)=C2", 
	 "Tm": 413.15, 
	 "num_atms": 21, 
	 "gaussian": { 
		 "optdone": 1, 
		 "sigma_profile": "yes", 
		 "theory": "DFT", 
		 "functional": "B3LYP", 
		 "basiset": "6-31G**", 
		 "properties": { 
			 "R2extent": 6894.5309, 
			 "electric_dipole_moment_norm": 3.63042413225, 
			 "electric_quadrupole_moment_norm": 12.3785351197, 
			 "total_energy": -3327.02898123, 
			 "HOMO_LUMO_gap": 0.19647, 
			 "cosmo_polarized_energy": -12.14, 
			 "cosmo_cavitation_energy": 29.32, 
			 "cosmo_dispersion_energy": -21.71, 
			 "cosmo_repulsion_energy": 1.63, 
			 "cosmo_total_nonelectrostatic_energy": 9.25, 
			 "SMD_solvation_energy": 2.41 
		},
		"coords": [
			{
				"x": -0.4513407171,
				"y": -0.7801945946,
				"z": 3.6595671865,
				"element": "F" 
			},
			{
				"x": -0.2988433424,
				"y": 0.5459651693,
				"z": 3.3723738027,
				"element": "C" 
			},
			{
				"x": 0.0383263074,
				"y": 1.1603213376,
				"z": 4.5205852235,
				"element": "F" 
			},
			{
				"x": -1.5008123809,
				"y": 1.0075101934,
				"z": 2.9882708033,
				"element": "F" 
			},
			{
				"x": 0.7653776826,
				"y": 0.752713802,
				"z": 2.3126080855,
				"element": "C" 
			},
			{
				"x": 0.4487832798,
				"y": 0.1148624372,
				"z": 0.994665324,
				"element": "C" 
			},
			{
				"x": 0.5662437369,
				"y": 0.7213146177,
				"z": -0.1614672134,
				"element": "N" 
			},
			{
				"x": 0.222959757,
				"y": -0.2377659571,
				"z": -1.1034841752,
				"element": "C" 
			},
			{
				"x": -0.1125157208,
				"y": -1.4575436837,
				"z": -0.4676043613,
				"element": "C" 
			},
			{
				"x": 0.0538148242,
				"y": -1.2019103322,
				"z": 0.8816840482,
				"element": "N" 
			},
			{
				"x": -0.5065722962,
				"y": -2.5890737278,
				"z": -1.1831267881,
				"element": "C" 
			},
			{
				"x": -0.5547096644,
				"y": -2.4770940484,
				"z": -2.5696380333,
				"element": "C" 
			},
			{
				"x": -0.2175544251,
				"y": -1.2657049953,
				"z": -3.2028167567,
				"element": "C" 
			},
			{
				"x": -0.3057549027,
				"y": -1.1881503383,
				"z": -5.1150185909,
				"element": "Br" 
			},
			{
				"x": 0.1727959128,
				"y": -0.1345068232,
				"z": -2.4996129459,
				"element": "C" 
			},
			{
				"x": 0.8869428658,
				"y": 1.8242889973,
				"z": 2.1466870054,
				"element": "H" 
			},
			{
				"x": 1.7051216123,
				"y": 0.3656891818,
				"z": 2.7237222802,
				"element": "H" 
			},
			{
				"x": -0.1570804143,
				"y": -1.8141294737,
				"z": 1.6549077003,
				"element": "H" 
			},
			{
				"x": -0.765592615,
				"y": -3.5224318112,
				"z": -0.6933547551,
				"element": "H" 
			},
			{
				"x": -0.8529667904,
				"y": -3.3265883517,
				"z": -3.1725540899,
				"element": "H" 
			},
			{
				"x": 0.4273772907,
				"y": 0.7916284008,
				"z": -3.0001937499,
				"element": "H" 
			}
		],
		 "valence_orbital": [ 
			{
				"type": "occ",
				"energy": -0.29742,
				"method": "rhf"
			},
			{
				"type": "occ",
				"energy": -0.28704,
				"method": "rhf"
			},
			{
				"type": "occ",
				"energy": -0.28283,
				"method": "rhf"
			},
			{
				"type": "occ",
				"energy": -0.24014,
				"method": "rhf"
			},
			{
				"type": "occ",
				"energy": -0.22952,
				"method": "rhf"
			},
			{
				"type": "unocc",
				"energy": -0.03305,
				"method": "rhf"
			},
			{
				"type": "unocc",
				"energy": 0.00413,
				"method": "rhf"
			},
			{
				"type": "unocc",
				"energy": 0.00989,
				"method": "rhf"
			},
			{
				"type": "unocc",
				"energy": 0.03529,
				"method": "rhf"
			},
			{
				"type": "unocc",
				"energy": 0.07625,
				"method": "rhf"
			}
		],
		"cosmo_sigma_profile": { 
			"-0.025": 0.0,
			"-0.024": 0.0,
			"-0.023": 0.0,
			"-0.022": 0.0,
			"-0.021": 0.0,
			"-0.02": 0.0,
			"-0.019": 0.0,
			"-0.018": 0.0,
			"-0.017": 0.0,
			"-0.016": 0.620752033456,
			"-0.015": 0.641022379011,
			"-0.014": 0.876952182075,
			"-0.013": 1.46867347461,
			"-0.012": 0.89038515096,
			"-0.011": 1.0429393943,
			"-0.01": 1.68060191843,
			"-0.009": 6.40109998741,
			"-0.008": 6.41064827695,
			"-0.007": 9.58264034805,
			"-0.006": 8.50496504441,
			"-0.005": 10.1325898013,
			"-0.004": 9.39778958107,
			"-0.003": 8.74198670947,
			"-0.002": 9.18534403638,
			"-0.001": 12.9249906741,
			"0.0": 15.2177104607,
			"0.001": 19.8708054334,
			"0.002": 38.5692829744,
			"0.003": 35.7075003956,
			"0.004": 17.2255265268,
			"0.005": 11.8776900075,
			"0.006": 2.27455245736,
			"0.007": 1.04009408428,
			"0.008": 0.760901680213,
			"0.009": 1.08387686198,
			"0.01": 0.892495848291,
			"0.011": 1.39216310369,
			"0.012": 0.959852799034,
			"0.013": 0.834318970569,
			"0.014": 1.00998715119,
			"0.015": 0.779972132107,
			"0.016": 0.713975582685,
			"0.017": 0.312874029303,
			"0.018": 0.0,
			"0.019": 0.0,
			"0.02": 0.0,
			"0.021": 0.0,
			"0.022": 0.0,
			"0.023": 0.0,
			"0.024": 0.0,
			"0.025": 0.0
		}
	}
}
