{
	 "smiles": "O=C1N2C3CC(C=C3)N2C(=O)C2=CC=CC=C12", 
	 "Tm": 504.15, 
	 "num_atms": 27, 
	 "gaussian": { 
		 "optdone": 1, 
		 "sigma_profile": "yes", 
		 "theory": "DFT", 
		 "functional": "B3LYP", 
		 "basiset": "6-31G**", 
		 "properties": { 
			 "R2extent": 3806.0431, 
			 "electric_dipole_moment_norm": 1.29546759512, 
			 "electric_quadrupole_moment_norm": 18.5073153456, 
			 "total_energy": -761.312923427, 
			 "HOMO_LUMO_gap": 0.15874, 
			 "cosmo_polarized_energy": -14.11, 
			 "cosmo_cavitation_energy": 30.14, 
			 "cosmo_dispersion_energy": -22.24, 
			 "cosmo_repulsion_energy": 1.67, 
			 "cosmo_total_nonelectrostatic_energy": 9.57, 
			 "SMD_solvation_energy": 5.2 
		},
		"coords": [
			{
				"x": -0.1157650455,
				"y": -1.5652799016,
				"z": -2.387429396,
				"element": "O" 
			},
			{
				"x": -0.4253279016,
				"y": -0.8641273701,
				"z": -1.4257716585,
				"element": "C" 
			},
			{
				"x": 0.1395403926,
				"y": -1.0509869838,
				"z": -0.1902009047,
				"element": "N" 
			},
			{
				"x": 0.8946202777,
				"y": -2.2506122772,
				"z": 0.2699272186,
				"element": "C" 
			},
			{
				"x": 1.5907484203,
				"y": -1.6340989505,
				"z": 1.506458781,
				"element": "C" 
			},
			{
				"x": 0.2347960526,
				"y": -1.2070989991,
				"z": 2.1169413,
				"element": "C" 
			},
			{
				"x": -0.5348393771,
				"y": -2.5268238873,
				"z": 2.0583447282,
				"element": "C" 
			},
			{
				"x": -0.1364630018,
				"y": -3.1569296388,
				"z": 0.9428704352,
				"element": "C" 
			},
			{
				"x": -0.2795901841,
				"y": -0.3881808179,
				"z": 0.9830520404,
				"element": "N" 
			},
			{
				"x": -1.3020298371,
				"y": 0.524451509,
				"z": 1.0305814766,
				"element": "C" 
			},
			{
				"x": -1.7167208446,
				"y": 0.9710223107,
				"z": 2.0986921945,
				"element": "O" 
			},
			{
				"x": -1.8052501297,
				"y": 0.9305391238,
				"z": -0.308762188,
				"element": "C" 
			},
			{
				"x": -2.7455231893,
				"y": 1.9646850806,
				"z": -0.3901586014,
				"element": "C" 
			},
			{
				"x": -3.2530694306,
				"y": 2.344124472,
				"z": -1.6282799728,
				"element": "C" 
			},
			{
				"x": -2.8371604355,
				"y": 1.6851533152,
				"z": -2.7938306914,
				"element": "C" 
			},
			{
				"x": -1.9141040309,
				"y": 0.6473340277,
				"z": -2.7201765839,
				"element": "C" 
			},
			{
				"x": -1.3875402515,
				"y": 0.2686783345,
				"z": -1.4793919271,
				"element": "C" 
			},
			{
				"x": 1.4874542181,
				"y": -2.6487952057,
				"z": -0.5486851752,
				"element": "H" 
			},
			{
				"x": 2.24740533,
				"y": -0.7942418302,
				"z": 1.2665842346,
				"element": "H" 
			},
			{
				"x": 2.1075207428,
				"y": -2.3782957872,
				"z": 2.1114952461,
				"element": "H" 
			},
			{
				"x": 0.2076169807,
				"y": -0.6248364918,
				"z": 3.0336541664,
				"element": "H" 
			},
			{
				"x": -1.3343160691,
				"y": -2.8039759813,
				"z": 2.7348537196,
				"element": "H" 
			},
			{
				"x": -0.538122789,
				"y": -4.0631962455,
				"z": 0.5058394586,
				"element": "H" 
			},
			{
				"x": -3.0574842633,
				"y": 2.4471148268,
				"z": 0.5299750455,
				"element": "H" 
			},
			{
				"x": -3.9765081223,
				"y": 3.151676395,
				"z": -1.6920160621,
				"element": "H" 
			},
			{
				"x": -3.2394905274,
				"y": 1.9840215979,
				"z": -3.7573517557,
				"element": "H" 
			},
			{
				"x": -1.5826969846,
				"y": 0.110679375,
				"z": -3.6027151286,
				"element": "H" 
			}
		],
		 "valence_orbital": [ 
			{
				"type": "occ",
				"energy": -0.26513,
				"method": "rhf"
			},
			{
				"type": "occ",
				"energy": -0.26409,
				"method": "rhf"
			},
			{
				"type": "occ",
				"energy": -0.26043,
				"method": "rhf"
			},
			{
				"type": "occ",
				"energy": -0.2588,
				"method": "rhf"
			},
			{
				"type": "occ",
				"energy": -0.21357,
				"method": "rhf"
			},
			{
				"type": "unocc",
				"energy": -0.05483,
				"method": "rhf"
			},
			{
				"type": "unocc",
				"energy": -0.03461,
				"method": "rhf"
			},
			{
				"type": "unocc",
				"energy": -0.01186,
				"method": "rhf"
			},
			{
				"type": "unocc",
				"energy": 0.04773,
				"method": "rhf"
			},
			{
				"type": "unocc",
				"energy": 0.0686,
				"method": "rhf"
			}
		],
		"cosmo_sigma_profile": { 
			"-0.025": 0.0,
			"-0.024": 0.0,
			"-0.023": 0.0,
			"-0.022": 0.0,
			"-0.021": 0.0,
			"-0.02": 0.0,
			"-0.019": 0.0,
			"-0.018": 0.0,
			"-0.017": 0.0,
			"-0.016": 0.0,
			"-0.015": 0.0,
			"-0.014": 0.0,
			"-0.013": 0.0,
			"-0.012": 0.0,
			"-0.011": 0.0,
			"-0.01": 0.0,
			"-0.009": 0.0,
			"-0.008": 2.08928218165,
			"-0.007": 11.5410635758,
			"-0.006": 16.9464317227,
			"-0.005": 21.0678563616,
			"-0.004": 20.9579005537,
			"-0.003": 20.9678504024,
			"-0.002": 20.0168684576,
			"-0.001": 16.4943606812,
			"0.0": 17.1782110692,
			"0.001": 19.4767518909,
			"0.002": 18.3550479062,
			"0.003": 12.9305343104,
			"0.004": 4.95395869932,
			"0.005": 3.96691103873,
			"0.006": 2.54387963798,
			"0.007": 2.63872149555,
			"0.008": 3.21313788224,
			"0.009": 2.25017548225,
			"0.01": 3.40692242655,
			"0.011": 2.56237942217,
			"0.012": 4.43954505781,
			"0.013": 11.046815134,
			"0.014": 2.623291267,
			"0.015": 0.0,
			"0.016": 0.0,
			"0.017": 0.0,
			"0.018": 0.0,
			"0.019": 0.0,
			"0.02": 0.0,
			"0.021": 0.0,
			"0.022": 0.0,
			"0.023": 0.0,
			"0.024": 0.0,
			"0.025": 0.0
		}
	}
}
