{
	 "smiles": "CN1C=C(C(C)=O)C2=C1C=CC=C2", 
	 "Tm": 380.15, 
	 "num_atms": 24, 
	 "gaussian": { 
		 "optdone": 1, 
		 "sigma_profile": "yes", 
		 "theory": "DFT", 
		 "functional": "B3LYP", 
		 "basiset": "6-31G**", 
		 "properties": { 
			 "R2extent": 3168.4256, 
			 "electric_dipole_moment_norm": 5.53961569335, 
			 "electric_quadrupole_moment_norm": 14.9844190915, 
			 "total_energy": -555.78766811, 
			 "HOMO_LUMO_gap": 0.17592, 
			 "cosmo_polarized_energy": -13.94, 
			 "cosmo_cavitation_energy": 27.54, 
			 "cosmo_dispersion_energy": -20.0, 
			 "cosmo_repulsion_energy": 1.56, 
			 "cosmo_total_nonelectrostatic_energy": 9.09, 
			 "SMD_solvation_energy": 5.38 
		},
		"coords": [
			{
				"x": -0.1103807017,
				"y": -2.800276982,
				"z": -1.1272481378,
				"element": "C" 
			},
			{
				"x": 0.6229996219,
				"y": -1.6776153562,
				"z": -0.5754816245,
				"element": "N" 
			},
			{
				"x": 1.2014928552,
				"y": -1.6205121158,
				"z": 0.6645978279,
				"element": "C" 
			},
			{
				"x": 1.8183262673,
				"y": -0.3964925225,
				"z": 0.8572646379,
				"element": "C" 
			},
			{
				"x": 2.5445788728,
				"y": 0.0515093126,
				"z": 2.048422791,
				"element": "C" 
			},
			{
				"x": 2.6545101448,
				"y": -0.9091118327,
				"z": 3.2272446709,
				"element": "C" 
			},
			{
				"x": 3.0543014884,
				"y": 1.1664840561,
				"z": 2.1073189652,
				"element": "O" 
			},
			{
				"x": 1.6030289908,
				"y": 0.3589692935,
				"z": -0.3584712593,
				"element": "C" 
			},
			{
				"x": 0.8537443098,
				"y": -0.4715955148,
				"z": -1.2299672714,
				"element": "C" 
			},
			{
				"x": 0.4613811146,
				"y": -0.0607067528,
				"z": -2.5078225036,
				"element": "C" 
			},
			{
				"x": 0.8378202551,
				"y": 1.2181033627,
				"z": -2.9067324254,
				"element": "C" 
			},
			{
				"x": 1.5823714858,
				"y": 2.0588239512,
				"z": -2.0556221329,
				"element": "C" 
			},
			{
				"x": 1.9697348831,
				"y": 1.6446757922,
				"z": -0.7858209532,
				"element": "C" 
			},
			{
				"x": 0.3704067413,
				"y": -3.168119716,
				"z": -2.0400457968,
				"element": "H" 
			},
			{
				"x": -0.1331972026,
				"y": -3.6082872231,
				"z": -0.3942080036,
				"element": "H" 
			},
			{
				"x": -1.1402720556,
				"y": -2.5130886251,
				"z": -1.364988105,
				"element": "H" 
			},
			{
				"x": 1.1308480043,
				"y": -2.4693835537,
				"z": 1.3307275595,
				"element": "H" 
			},
			{
				"x": 1.6627486748,
				"y": -1.1834449746,
				"z": 3.6040923424,
				"element": "H" 
			},
			{
				"x": 3.1634028087,
				"y": -1.8342063137,
				"z": 2.9338341433,
				"element": "H" 
			},
			{
				"x": 3.220432377,
				"y": -0.4242506853,
				"z": 4.0235406845,
				"element": "H" 
			},
			{
				"x": -0.112369793,
				"y": -0.7071387939,
				"z": -3.165019524,
				"element": "H" 
			},
			{
				"x": 0.551837585,
				"y": 1.5734589571,
				"z": -3.8924029977,
				"element": "H" 
			},
			{
				"x": 1.8579870173,
				"y": 3.050819313,
				"z": -2.4017301726,
				"element": "H" 
			},
			{
				"x": 2.5421662551,
				"y": 2.2830869237,
				"z": -0.1237827147,
				"element": "H" 
			}
		],
		 "valence_orbital": [ 
			{
				"type": "occ",
				"energy": -0.33001,
				"method": "rhf"
			},
			{
				"type": "occ",
				"energy": -0.27079,
				"method": "rhf"
			},
			{
				"type": "occ",
				"energy": -0.23194,
				"method": "rhf"
			},
			{
				"type": "occ",
				"energy": -0.22593,
				"method": "rhf"
			},
			{
				"type": "occ",
				"energy": -0.20885,
				"method": "rhf"
			},
			{
				"type": "unocc",
				"energy": -0.03293,
				"method": "rhf"
			},
			{
				"type": "unocc",
				"energy": 0.00227,
				"method": "rhf"
			},
			{
				"type": "unocc",
				"energy": 0.02465,
				"method": "rhf"
			},
			{
				"type": "unocc",
				"energy": 0.07761,
				"method": "rhf"
			},
			{
				"type": "unocc",
				"energy": 0.10112,
				"method": "rhf"
			}
		],
		"cosmo_sigma_profile": { 
			"-0.025": 0.0,
			"-0.024": 0.0,
			"-0.023": 0.0,
			"-0.022": 0.0,
			"-0.021": 0.0,
			"-0.02": 0.0,
			"-0.019": 0.0,
			"-0.018": 0.0,
			"-0.017": 0.0,
			"-0.016": 0.0,
			"-0.015": 0.0,
			"-0.014": 0.0,
			"-0.013": 0.0,
			"-0.012": 0.0,
			"-0.011": 0.0,
			"-0.01": 0.483757978691,
			"-0.009": 2.55342019424,
			"-0.008": 2.87267269582,
			"-0.007": 4.50941426947,
			"-0.006": 13.0101261323,
			"-0.005": 21.3141784882,
			"-0.004": 20.4589176534,
			"-0.003": 22.6500033348,
			"-0.002": 15.2787223036,
			"-0.001": 13.9934065429,
			"0.0": 13.2978042205,
			"0.001": 10.1401781934,
			"0.002": 9.3763707604,
			"0.003": 11.3750239978,
			"0.004": 13.0217764082,
			"0.005": 13.9889336826,
			"0.006": 10.3471992831,
			"0.007": 4.63097140598,
			"0.008": 2.15307794244,
			"0.009": 1.7190197033,
			"0.01": 2.07853303564,
			"0.011": 2.31810960957,
			"0.012": 2.51126311094,
			"0.013": 3.12852447544,
			"0.014": 1.82004633128,
			"0.015": 0.358883349847,
			"0.016": 0.0,
			"0.017": 0.0,
			"0.018": 0.0,
			"0.019": 0.0,
			"0.02": 0.0,
			"0.021": 0.0,
			"0.022": 0.0,
			"0.023": 0.0,
			"0.024": 0.0,
			"0.025": 0.0
		}
	}
}
