{
	 "smiles": "CC1=NC2=C(C=C1)C(O)=C(C=N2)C(O)=O", 
	 "Tm": 553.15, 
	 "num_atms": 23, 
	 "gaussian": { 
		 "optdone": 1, 
		 "sigma_profile": "yes", 
		 "theory": "DFT", 
		 "functional": "B3LYP", 
		 "basiset": "6-31G**", 
		 "properties": { 
			 "R2extent": 4416.3194, 
			 "electric_dipole_moment_norm": 8.68506902103, 
			 "electric_quadrupole_moment_norm": 28.3646401015, 
			 "total_energy": -721.075531676, 
			 "HOMO_LUMO_gap": 0.17739, 
			 "cosmo_polarized_energy": -26.81, 
			 "cosmo_cavitation_energy": 27.52, 
			 "cosmo_dispersion_energy": -21.01, 
			 "cosmo_repulsion_energy": 1.61, 
			 "cosmo_total_nonelectrostatic_energy": 8.11, 
			 "SMD_solvation_energy": 3.04 
		},
		"coords": [
			{
				"x": -0.2458760258,
				"y": -3.0407219301,
				"z": -1.0678246029,
				"element": "C" 
			},
			{
				"x": 0.2329705917,
				"y": -1.652551102,
				"z": -0.7284566011,
				"element": "C" 
			},
			{
				"x": -0.6734012403,
				"y": -0.7692603753,
				"z": -0.3514020787,
				"element": "N" 
			},
			{
				"x": -0.2835345892,
				"y": 0.4951433497,
				"z": -0.0386207548,
				"element": "C" 
			},
			{
				"x": 1.0874203134,
				"y": 0.9020166258,
				"z": -0.1128049871,
				"element": "C" 
			},
			{
				"x": 2.0406770152,
				"y": -0.069382027,
				"z": -0.5114593004,
				"element": "C" 
			},
			{
				"x": 1.6209819658,
				"y": -1.3378834709,
				"z": -0.8186365866,
				"element": "C" 
			},
			{
				"x": 1.3973621029,
				"y": 2.2499153978,
				"z": 0.2234461371,
				"element": "C" 
			},
			{
				"x": 2.6803295279,
				"y": 2.7173574441,
				"z": 0.1712199104,
				"element": "O" 
			},
			{
				"x": 0.3843540441,
				"y": 3.1099366719,
				"z": 0.6209179439,
				"element": "C" 
			},
			{
				"x": -0.9340745829,
				"y": 2.5728523411,
				"z": 0.6603428078,
				"element": "C" 
			},
			{
				"x": -1.2756305254,
				"y": 1.342666221,
				"z": 0.3499904999,
				"element": "N" 
			},
			{
				"x": 0.5366530529,
				"y": 4.5554940703,
				"z": 1.0068030615,
				"element": "C" 
			},
			{
				"x": 1.7690296071,
				"y": 5.1003163297,
				"z": 0.9566367586,
				"element": "O" 
			},
			{
				"x": -0.4146383119,
				"y": 5.2206458724,
				"z": 1.3518033328,
				"element": "O" 
			},
			{
				"x": 0.003541083,
				"y": -3.2986576458,
				"z": -2.1036788746,
				"element": "H" 
			},
			{
				"x": 0.2330831225,
				"y": -3.7885101964,
				"z": -0.4251288447,
				"element": "H" 
			},
			{
				"x": -1.3267449302,
				"y": -3.0986785953,
				"z": -0.9370898551,
				"element": "H" 
			},
			{
				"x": 3.1029855455,
				"y": 0.1624710289,
				"z": -0.5710995959,
				"element": "H" 
			},
			{
				"x": 2.32991323,
				"y": -2.1007917593,
				"z": -1.124403329,
				"element": "H" 
			},
			{
				"x": 3.2818214652,
				"y": 2.0655889605,
				"z": -0.2092699727,
				"element": "H" 
			},
			{
				"x": -1.7246470067,
				"y": 3.2508638212,
				"z": 0.9725964692,
				"element": "H" 
			},
			{
				"x": 2.423324545,
				"y": 4.4442689676,
				"z": 0.6631184624,
				"element": "H" 
			}
		],
		 "valence_orbital": [ 
			{
				"type": "occ",
				"energy": -0.28363,
				"method": "rhf"
			},
			{
				"type": "occ",
				"energy": -0.27252,
				"method": "rhf"
			},
			{
				"type": "occ",
				"energy": -0.27154,
				"method": "rhf"
			},
			{
				"type": "occ",
				"energy": -0.26247,
				"method": "rhf"
			},
			{
				"type": "occ",
				"energy": -0.25862,
				"method": "rhf"
			},
			{
				"type": "unocc",
				"energy": -0.08123,
				"method": "rhf"
			},
			{
				"type": "unocc",
				"energy": -0.05424,
				"method": "rhf"
			},
			{
				"type": "unocc",
				"energy": -0.00532,
				"method": "rhf"
			},
			{
				"type": "unocc",
				"energy": 0.01354,
				"method": "rhf"
			},
			{
				"type": "unocc",
				"energy": 0.02024,
				"method": "rhf"
			}
		],
		"cosmo_sigma_profile": { 
			"-0.025": 0.0,
			"-0.024": 0.0,
			"-0.023": 0.0,
			"-0.022": 0.0,
			"-0.021": 0.216922053949,
			"-0.02": 1.29070472188,
			"-0.019": 0.88216046223,
			"-0.018": 1.12796150258,
			"-0.017": 1.25832251981,
			"-0.016": 0.756361486186,
			"-0.015": 0.963170039613,
			"-0.014": 1.5206169415,
			"-0.013": 1.07876867964,
			"-0.012": 1.04607818085,
			"-0.011": 1.43731345959,
			"-0.01": 1.99572978338,
			"-0.009": 2.35443564977,
			"-0.008": 3.4642266041,
			"-0.007": 6.6532108136,
			"-0.006": 8.22095075607,
			"-0.005": 14.7101494566,
			"-0.004": 13.2835469726,
			"-0.003": 16.4276560294,
			"-0.002": 21.5160659626,
			"-0.001": 24.9321500256,
			"0.0": 17.8209994571,
			"0.001": 10.0029988214,
			"0.002": 6.74325834062,
			"0.003": 5.08169524228,
			"0.004": 4.94290297791,
			"0.005": 4.14737185205,
			"0.006": 3.56633079788,
			"0.007": 5.03888013091,
			"0.008": 4.80441288532,
			"0.009": 3.46930172147,
			"0.01": 5.80754147513,
			"0.011": 7.75902046088,
			"0.012": 6.17312213024,
			"0.013": 3.20207343873,
			"0.014": 1.79411976733,
			"0.015": 1.7052099626,
			"0.016": 1.77786194408,
			"0.017": 2.05570657896,
			"0.018": 0.28362310347,
			"0.019": 0.0,
			"0.02": 0.0,
			"0.021": 0.0,
			"0.022": 0.0,
			"0.023": 0.0,
			"0.024": 0.0,
			"0.025": 0.0
		}
	}
}
