{
	 "smiles": "CC1=C(N=NN1C1=C2N=CC=CC2=CC=C1)C(O)=O", 
	 "Tm": 462.15, 
	 "num_atms": 29, 
	 "gaussian": { 
		 "optdone": 1, 
		 "sigma_profile": "yes", 
		 "theory": "DFT", 
		 "functional": "B3LYP", 
		 "basiset": "6-31G**", 
		 "properties": { 
			 "R2extent": 5485.1389, 
			 "electric_dipole_moment_norm": 8.55339768396, 
			 "electric_quadrupole_moment_norm": 23.4688422716, 
			 "total_energy": -870.846681855, 
			 "HOMO_LUMO_gap": 0.16899, 
			 "cosmo_polarized_energy": -21.36, 
			 "cosmo_cavitation_energy": 34.14, 
			 "cosmo_dispersion_energy": -24.42, 
			 "cosmo_repulsion_energy": 1.85, 
			 "cosmo_total_nonelectrostatic_energy": 11.56, 
			 "SMD_solvation_energy": 5.12 
		},
		"coords": [
			{
				"x": -1.0784502907,
				"y": 1.3321976495,
				"z": 0.2757593328,
				"element": "C" 
			},
			{
				"x": -1.5523703113,
				"y": 0.0447949185,
				"z": -0.3088976898,
				"element": "C" 
			},
			{
				"x": -2.775247626,
				"y": -0.3626631396,
				"z": -0.8354338753,
				"element": "C" 
			},
			{
				"x": -2.6940319051,
				"y": -1.6854531146,
				"z": -1.1862098418,
				"element": "N" 
			},
			{
				"x": -1.5160573597,
				"y": -2.1290485924,
				"z": -0.9199479773,
				"element": "N" 
			},
			{
				"x": -0.7918504352,
				"y": -1.0804523799,
				"z": -0.384937078,
				"element": "N" 
			},
			{
				"x": 0.5453305714,
				"y": -1.3237494961,
				"z": 0.0369803017,
				"element": "C" 
			},
			{
				"x": 1.6331949401,
				"y": -0.5819299388,
				"z": -0.5194552745,
				"element": "C" 
			},
			{
				"x": 1.382139951,
				"y": 0.388012073,
				"z": -1.4414558995,
				"element": "N" 
			},
			{
				"x": 2.409551258,
				"y": 1.0416279891,
				"z": -1.9471574294,
				"element": "C" 
			},
			{
				"x": 3.759126398,
				"y": 0.8046380306,
				"z": -1.5864565919,
				"element": "C" 
			},
			{
				"x": 4.0284775063,
				"y": -0.1709724947,
				"z": -0.6571174807,
				"element": "C" 
			},
			{
				"x": 2.9594593599,
				"y": -0.9121255696,
				"z": -0.0902657614,
				"element": "C" 
			},
			{
				"x": 3.1614215785,
				"y": -1.957462577,
				"z": 0.8475180764,
				"element": "C" 
			},
			{
				"x": 2.0894893,
				"y": -2.6637655265,
				"z": 1.3433980105,
				"element": "C" 
			},
			{
				"x": 0.7746898349,
				"y": -2.345456761,
				"z": 0.9356714785,
				"element": "C" 
			},
			{
				"x": -4.0320253818,
				"y": 0.3755759694,
				"z": -1.035670258,
				"element": "C" 
			},
			{
				"x": -3.9317406814,
				"y": 1.6831050484,
				"z": -0.6564679724,
				"element": "O" 
			},
			{
				"x": -5.0582625976,
				"y": -0.0855888744,
				"z": -1.4831923929,
				"element": "O" 
			},
			{
				"x": -0.4866446626,
				"y": 1.884575395,
				"z": -0.4594638356,
				"element": "H" 
			},
			{
				"x": -0.4381224602,
				"y": 1.1496365772,
				"z": 1.1443372188,
				"element": "H" 
			},
			{
				"x": -1.9308512343,
				"y": 1.9398573617,
				"z": 0.5747176937,
				"element": "H" 
			},
			{
				"x": 2.1767480666,
				"y": 1.8059641862,
				"z": -2.6873029352,
				"element": "H" 
			},
			{
				"x": 4.5521573788,
				"y": 1.386879688,
				"z": -2.0441034721,
				"element": "H" 
			},
			{
				"x": 5.0479939763,
				"y": -0.3914165658,
				"z": -0.3516021995,
				"element": "H" 
			},
			{
				"x": 4.1748365164,
				"y": -2.1956800944,
				"z": 1.1590631928,
				"element": "H" 
			},
			{
				"x": 2.2438353947,
				"y": -3.4698442928,
				"z": 2.0534643503,
				"element": "H" 
			},
			{
				"x": -0.071314888,
				"y": -2.906235863,
				"z": 1.3169282413,
				"element": "H" 
			},
			{
				"x": -4.8089821972,
				"y": 2.0643803939,
				"z": -0.8266999315,
				"element": "H" 
			}
		],
		 "valence_orbital": [ 
			{
				"type": "occ",
				"energy": -0.2738,
				"method": "rhf"
			},
			{
				"type": "occ",
				"energy": -0.27059,
				"method": "rhf"
			},
			{
				"type": "occ",
				"energy": -0.26318,
				"method": "rhf"
			},
			{
				"type": "occ",
				"energy": -0.25659,
				"method": "rhf"
			},
			{
				"type": "occ",
				"energy": -0.24626,
				"method": "rhf"
			},
			{
				"type": "unocc",
				"energy": -0.07727,
				"method": "rhf"
			},
			{
				"type": "unocc",
				"energy": -0.0378,
				"method": "rhf"
			},
			{
				"type": "unocc",
				"energy": -0.02226,
				"method": "rhf"
			},
			{
				"type": "unocc",
				"energy": -0.01018,
				"method": "rhf"
			},
			{
				"type": "unocc",
				"energy": 0.01002,
				"method": "rhf"
			}
		],
		"cosmo_sigma_profile": { 
			"-0.025": 0.0,
			"-0.024": 0.0,
			"-0.023": 0.0,
			"-0.022": 0.0,
			"-0.021": 0.0,
			"-0.02": 0.0,
			"-0.019": 0.093719023994,
			"-0.018": 0.811901633626,
			"-0.017": 0.907817133064,
			"-0.016": 0.61322807142,
			"-0.015": 1.11229881574,
			"-0.014": 0.780948599955,
			"-0.013": 0.335667159072,
			"-0.012": 0.427923190187,
			"-0.011": 1.10302757676,
			"-0.01": 0.714186595767,
			"-0.009": 0.327450436818,
			"-0.008": 4.98637854287,
			"-0.007": 14.1087764807,
			"-0.006": 17.4833184219,
			"-0.005": 15.2800347316,
			"-0.004": 16.4553466643,
			"-0.003": 17.9787779013,
			"-0.002": 22.5891128354,
			"-0.001": 20.478758932,
			"0.0": 23.3244770532,
			"0.001": 26.0917628545,
			"0.002": 19.1060413335,
			"0.003": 11.8787662425,
			"0.004": 6.39050623139,
			"0.005": 5.31816207468,
			"0.006": 4.41333162232,
			"0.007": 5.42337705496,
			"0.008": 4.71581889931,
			"0.009": 5.23780480829,
			"0.01": 5.81296229189,
			"0.011": 7.87726339451,
			"0.012": 6.4182795869,
			"0.013": 2.75769792869,
			"0.014": 2.27126682465,
			"0.015": 1.08734967861,
			"0.016": 0.0508966235569,
			"0.017": 0.0,
			"0.018": 0.0,
			"0.019": 0.0,
			"0.02": 0.0,
			"0.021": 0.0,
			"0.022": 0.0,
			"0.023": 0.0,
			"0.024": 0.0,
			"0.025": 0.0
		}
	}
}
