{
	 "smiles": "OCC(=O)N1CCNCC1", 
	 "Tm": 343.15, 
	 "num_atms": 22, 
	 "gaussian": { 
		 "optdone": 1, 
		 "sigma_profile": "yes", 
		 "theory": "DFT", 
		 "functional": "B3LYP", 
		 "basiset": "6-31G**", 
		 "properties": { 
			 "R2extent": 1742.8386, 
			 "electric_dipole_moment_norm": 2.54620399418, 
			 "electric_quadrupole_moment_norm": 9.573840382, 
			 "total_energy": -495.808860343, 
			 "HOMO_LUMO_gap": 0.22582, 
			 "cosmo_polarized_energy": -14.7, 
			 "cosmo_cavitation_energy": 23.61, 
			 "cosmo_dispersion_energy": -17.59, 
			 "cosmo_repulsion_energy": 1.44, 
			 "cosmo_total_nonelectrostatic_energy": 7.46, 
			 "SMD_solvation_energy": 1.51 
		},
		"coords": [
			{
				"x": 1.5369319005,
				"y": -0.7068501399,
				"z": -1.5002661925,
				"element": "O" 
			},
			{
				"x": 0.7525682181,
				"y": 0.4773140195,
				"z": -1.5746357309,
				"element": "C" 
			},
			{
				"x": 0.5137157514,
				"y": 1.1968824215,
				"z": -0.2354864842,
				"element": "C" 
			},
			{
				"x": 0.7428844445,
				"y": 2.4029179029,
				"z": -0.1588205562,
				"element": "O" 
			},
			{
				"x": 0.0552980839,
				"y": 0.4626087733,
				"z": 0.827426489,
				"element": "N" 
			},
			{
				"x": -0.1843738223,
				"y": 1.1325790409,
				"z": 2.1082911879,
				"element": "C" 
			},
			{
				"x": -1.6634379152,
				"y": 1.0008721616,
				"z": 2.5062939011,
				"element": "C" 
			},
			{
				"x": -2.1592100247,
				"y": -0.3792977111,
				"z": 2.4859813427,
				"element": "N" 
			},
			{
				"x": -1.8578039857,
				"y": -1.0367622196,
				"z": 1.2126251905,
				"element": "C" 
			},
			{
				"x": -0.3797311751,
				"y": -0.935267243,
				"z": 0.7936789225,
				"element": "C" 
			},
			{
				"x": 2.4112683615,
				"y": -0.4607198476,
				"z": -1.17152352,
				"element": "H" 
			},
			{
				"x": 1.2009705139,
				"y": 1.2318029831,
				"z": -2.2303674602,
				"element": "H" 
			},
			{
				"x": -0.2056840562,
				"y": 0.1776935488,
				"z": -2.0140268499,
				"element": "H" 
			},
			{
				"x": 0.1159200771,
				"y": 2.1751773516,
				"z": 1.9970696451,
				"element": "H" 
			},
			{
				"x": 0.4491470081,
				"y": 0.6625913234,
				"z": 2.8764004277,
				"element": "H" 
			},
			{
				"x": -2.2714101745,
				"y": 1.5886646617,
				"z": 1.8065371303,
				"element": "H" 
			},
			{
				"x": -1.8209207969,
				"y": 1.4194856429,
				"z": 3.5063854932,
				"element": "H" 
			},
			{
				"x": -1.7227645423,
				"y": -0.9028461715,
				"z": 3.2433396917,
				"element": "H" 
			},
			{
				"x": -2.4791616736,
				"y": -0.5701004877,
				"z": 0.4364571205,
				"element": "H" 
			},
			{
				"x": -2.1525331183,
				"y": -2.0902025492,
				"z": 1.2771702533,
				"element": "H" 
			},
			{
				"x": 0.2378623084,
				"y": -1.510740206,
				"z": 1.5012780378,
				"element": "H" 
			},
			{
				"x": -0.2074353824,
				"y": -1.3608032555,
				"z": -0.1932080393,
				"element": "H" 
			}
		],
		 "valence_orbital": [ 
			{
				"type": "occ",
				"energy": -0.34799,
				"method": "rhf"
			},
			{
				"type": "occ",
				"energy": -0.29307,
				"method": "rhf"
			},
			{
				"type": "occ",
				"energy": -0.25624,
				"method": "rhf"
			},
			{
				"type": "occ",
				"energy": -0.24,
				"method": "rhf"
			},
			{
				"type": "occ",
				"energy": -0.21397,
				"method": "rhf"
			},
			{
				"type": "unocc",
				"energy": 0.01185,
				"method": "rhf"
			},
			{
				"type": "unocc",
				"energy": 0.08305,
				"method": "rhf"
			},
			{
				"type": "unocc",
				"energy": 0.08416,
				"method": "rhf"
			},
			{
				"type": "unocc",
				"energy": 0.10297,
				"method": "rhf"
			},
			{
				"type": "unocc",
				"energy": 0.121,
				"method": "rhf"
			}
		],
		"cosmo_sigma_profile": { 
			"-0.025": 0.0,
			"-0.024": 0.0,
			"-0.023": 0.0,
			"-0.022": 0.0,
			"-0.021": 0.0,
			"-0.02": 0.0,
			"-0.019": 0.0,
			"-0.018": 0.0,
			"-0.017": 0.210474811998,
			"-0.016": 1.18786714501,
			"-0.015": 0.752686741375,
			"-0.014": 0.95038260632,
			"-0.013": 1.32853049815,
			"-0.012": 0.748150463409,
			"-0.011": 0.690933584619,
			"-0.01": 1.91525467866,
			"-0.009": 2.29533372698,
			"-0.008": 2.51349199598,
			"-0.007": 4.07924635229,
			"-0.006": 7.00985905371,
			"-0.005": 11.089481652,
			"-0.004": 22.0929453306,
			"-0.003": 24.444747149,
			"-0.002": 18.1004519957,
			"-0.001": 13.2078831582,
			"0.0": 8.50395312511,
			"0.001": 7.42635755113,
			"0.002": 5.13914760909,
			"0.003": 3.15942385227,
			"0.004": 4.6301134433,
			"0.005": 4.02404838377,
			"0.006": 4.12533969465,
			"0.007": 3.09563341066,
			"0.008": 4.28948561517,
			"0.009": 2.54832609134,
			"0.01": 2.38150918462,
			"0.011": 2.61563396097,
			"0.012": 3.69532272344,
			"0.013": 5.16466748855,
			"0.014": 5.92505177604,
			"0.015": 2.18723482815,
			"0.016": 0.279347095566,
			"0.017": 0.814849151223,
			"0.018": 0.519405750347,
			"0.019": 0.0445746916146,
			"0.02": 0.0,
			"0.021": 0.0,
			"0.022": 0.0,
			"0.023": 0.0,
			"0.024": 0.0,
			"0.025": 0.0
		}
	}
}
