{
	 "smiles": "ClC1=CC=C(C=C1Cl)C(Cl)(Cl)Cl", 
	 "Tm": 298.95, 
	 "num_atms": 15, 
	 "gaussian": { 
		 "optdone": 1, 
		 "sigma_profile": "yes", 
		 "theory": "DFT", 
		 "functional": "B3LYP", 
		 "basiset": "6-31G**", 
		 "properties": { 
			 "R2extent": 4319.4713, 
			 "electric_dipole_moment_norm": 1.45335386262, 
			 "electric_quadrupole_moment_norm": 7.48698117, 
			 "total_energy": -2569.49160392, 
			 "HOMO_LUMO_gap": 0.20152, 
			 "cosmo_polarized_energy": -4.34, 
			 "cosmo_cavitation_energy": 28.08, 
			 "cosmo_dispersion_energy": -20.97, 
			 "cosmo_repulsion_energy": 1.68, 
			 "cosmo_total_nonelectrostatic_energy": 8.8, 
			 "SMD_solvation_energy": 3.26 
		},
		"coords": [
			{
				"x": -1.0190245688,
				"y": 4.0750877755,
				"z": 0.0689045824,
				"element": "Cl" 
			},
			{
				"x": -0.5129893022,
				"y": 2.4132749838,
				"z": -0.0510065804,
				"element": "C" 
			},
			{
				"x": 0.8099560045,
				"y": 2.1294434373,
				"z": -0.3837302645,
				"element": "C" 
			},
			{
				"x": 1.2512596882,
				"y": 0.8117239315,
				"z": -0.4888697034,
				"element": "C" 
			},
			{
				"x": 0.3667167791,
				"y": -0.2444637962,
				"z": -0.2604923688,
				"element": "C" 
			},
			{
				"x": -0.9640335969,
				"y": 0.0390861558,
				"z": 0.0741491916,
				"element": "C" 
			},
			{
				"x": -1.4060723905,
				"y": 1.3541316616,
				"z": 0.1795389642,
				"element": "C" 
			},
			{
				"x": -3.0732182969,
				"y": 1.6447071548,
				"z": 0.5991602537,
				"element": "Cl" 
			},
			{
				"x": 0.7799882636,
				"y": -1.7062200779,
				"z": -0.357963379,
				"element": "C" 
			},
			{
				"x": 0.4978110459,
				"y": -2.5351495407,
				"z": 1.2311320964,
				"element": "Cl" 
			},
			{
				"x": -0.2182522424,
				"y": -2.5476308486,
				"z": -1.6179106868,
				"element": "Cl" 
			},
			{
				"x": 2.5134728327,
				"y": -1.9261561724,
				"z": -0.7926503101,
				"element": "Cl" 
			},
			{
				"x": 1.4969360591,
				"y": 2.9491212695,
				"z": -0.5611388523,
				"element": "H" 
			},
			{
				"x": 2.2839285837,
				"y": 0.6203602619,
				"z": -0.7487458818,
				"element": "H" 
			},
			{
				"x": -1.6694788589,
				"y": -0.7629161957,
				"z": 0.2561229389,
				"element": "H" 
			}
		],
		 "valence_orbital": [ 
			{
				"type": "occ",
				"energy": -0.32629,
				"method": "rhf"
			},
			{
				"type": "occ",
				"energy": -0.32146,
				"method": "rhf"
			},
			{
				"type": "occ",
				"energy": -0.31485,
				"method": "rhf"
			},
			{
				"type": "occ",
				"energy": -0.27748,
				"method": "rhf"
			},
			{
				"type": "occ",
				"energy": -0.2671,
				"method": "rhf"
			},
			{
				"type": "unocc",
				"energy": -0.06558,
				"method": "rhf"
			},
			{
				"type": "unocc",
				"energy": -0.05223,
				"method": "rhf"
			},
			{
				"type": "unocc",
				"energy": -0.04045,
				"method": "rhf"
			},
			{
				"type": "unocc",
				"energy": -0.01595,
				"method": "rhf"
			},
			{
				"type": "unocc",
				"energy": -0.00747,
				"method": "rhf"
			}
		],
		"cosmo_sigma_profile": { 
			"-0.025": 0.0,
			"-0.024": 0.0,
			"-0.023": 0.0,
			"-0.022": 0.0,
			"-0.021": 0.0,
			"-0.02": 0.0,
			"-0.019": 0.0,
			"-0.018": 0.0,
			"-0.017": 0.0,
			"-0.016": 0.0,
			"-0.015": 0.0,
			"-0.014": 0.0,
			"-0.013": 0.0,
			"-0.012": 0.0,
			"-0.011": 0.0,
			"-0.01": 0.0,
			"-0.009": 1.09050284021,
			"-0.008": 4.70289237037,
			"-0.007": 4.06770911637,
			"-0.006": 5.07863392153,
			"-0.005": 5.28098041622,
			"-0.004": 9.29472408632,
			"-0.003": 15.4405715691,
			"-0.002": 17.246703798,
			"-0.001": 26.5919851285,
			"0.0": 32.5332656549,
			"0.001": 29.1201716997,
			"0.002": 29.6238600507,
			"0.003": 42.3625659964,
			"0.004": 12.5297807211,
			"0.005": 2.13600660211,
			"0.006": 0.0115570663931,
			"0.007": 0.0,
			"0.008": 0.0,
			"0.009": 0.0,
			"0.01": 0.0,
			"0.011": 0.0,
			"0.012": 0.0,
			"0.013": 0.0,
			"0.014": 0.0,
			"0.015": 0.0,
			"0.016": 0.0,
			"0.017": 0.0,
			"0.018": 0.0,
			"0.019": 0.0,
			"0.02": 0.0,
			"0.021": 0.0,
			"0.022": 0.0,
			"0.023": 0.0,
			"0.024": 0.0,
			"0.025": 0.0
		}
	}
}
