{
	 "smiles": "NC1=C(NC(=O)C2=CC=CC=C2)C=CC=C1", 
	 "Tm": 423.15, 
	 "num_atms": 28, 
	 "gaussian": { 
		 "optdone": 1, 
		 "sigma_profile": "yes", 
		 "theory": "DFT", 
		 "functional": "B3LYP", 
		 "basiset": "6-31G**", 
		 "properties": { 
			 "R2extent": 3531.1982, 
			 "electric_dipole_moment_norm": 3.57822100212, 
			 "electric_quadrupole_moment_norm": 10.5462230324, 
			 "total_energy": -687.357846119, 
			 "HOMO_LUMO_gap": 0.17239, 
			 "cosmo_polarized_energy": -14.14, 
			 "cosmo_cavitation_energy": 31.72, 
			 "cosmo_dispersion_energy": -22.27, 
			 "cosmo_repulsion_energy": 1.75, 
			 "cosmo_total_nonelectrostatic_energy": 11.2, 
			 "SMD_solvation_energy": 5.89 
		},
		"coords": [
			{
				"x": -0.9778409214,
				"y": 1.9424722069,
				"z": 1.2400288107,
				"element": "N" 
			},
			{
				"x": -0.3227922319,
				"y": 2.2142962751,
				"z": 0.0475708964,
				"element": "C" 
			},
			{
				"x": -0.5586271439,
				"y": 1.4453853464,
				"z": -1.1164894229,
				"element": "C" 
			},
			{
				"x": -1.4652998995,
				"y": 0.3379428785,
				"z": -1.0859375953,
				"element": "N" 
			},
			{
				"x": -1.3869660543,
				"y": -0.8841772248,
				"z": -0.4463002545,
				"element": "C" 
			},
			{
				"x": -2.3850733656,
				"y": -1.5973055373,
				"z": -0.3832864329,
				"element": "O" 
			},
			{
				"x": -0.0928872255,
				"y": -1.3219621729,
				"z": 0.1846442626,
				"element": "C" 
			},
			{
				"x": -0.2034507759,
				"y": -2.2003170927,
				"z": 1.2744827037,
				"element": "C" 
			},
			{
				"x": 0.93550493,
				"y": -2.6929722394,
				"z": 1.905937157,
				"element": "C" 
			},
			{
				"x": 2.2027563097,
				"y": -2.3348848049,
				"z": 1.438465664,
				"element": "C" 
			},
			{
				"x": 2.3217164106,
				"y": -1.4857198195,
				"z": 0.3372922069,
				"element": "C" 
			},
			{
				"x": 1.1821400083,
				"y": -0.9757845567,
				"z": -0.2868877433,
				"element": "C" 
			},
			{
				"x": 0.0360462103,
				"y": 1.8092724377,
				"z": -2.3286502444,
				"element": "C" 
			},
			{
				"x": 0.887869924,
				"y": 2.9082404538,
				"z": -2.4155602721,
				"element": "C" 
			},
			{
				"x": 1.1477814456,
				"y": 3.6519513914,
				"z": -1.2609319019,
				"element": "C" 
			},
			{
				"x": 0.5543060664,
				"y": 3.3111667639,
				"z": -0.0506455334,
				"element": "C" 
			},
			{
				"x": -1.3505436717,
				"y": 1.0109015124,
				"z": 1.3448427013,
				"element": "H" 
			},
			{
				"x": -0.520280422,
				"y": 2.2779943904,
				"z": 2.0751669543,
				"element": "H" 
			},
			{
				"x": -2.3912985615,
				"y": 0.4841023595,
				"z": -1.4732435342,
				"element": "H" 
			},
			{
				"x": -1.1959296824,
				"y": -2.4923406217,
				"z": 1.6008729772,
				"element": "H" 
			},
			{
				"x": 0.8363878284,
				"y": -3.3634794669,
				"z": 2.7547273863,
				"element": "H" 
			},
			{
				"x": 3.0931574605,
				"y": -2.7236266101,
				"z": 1.9246425738,
				"element": "H" 
			},
			{
				"x": 3.3042931107,
				"y": -1.2197904211,
				"z": -0.0416167889,
				"element": "H" 
			},
			{
				"x": 1.2911536711,
				"y": -0.3241538232,
				"z": -1.1446731601,
				"element": "H" 
			},
			{
				"x": -0.178412621,
				"y": 1.2022324115,
				"z": -3.2038468414,
				"element": "H" 
			},
			{
				"x": 1.3430341027,
				"y": 3.1766709491,
				"z": -3.3632297628,
				"element": "H" 
			},
			{
				"x": 1.8152121938,
				"y": 4.5080992999,
				"z": -1.3026644562,
				"element": "H" 
			},
			{
				"x": 0.7475429046,
				"y": 3.9080857148,
				"z": 0.8372896501,
				"element": "H" 
			}
		],
		 "valence_orbital": [ 
			{
				"type": "occ",
				"energy": -0.2611,
				"method": "rhf"
			},
			{
				"type": "occ",
				"energy": -0.25691,
				"method": "rhf"
			},
			{
				"type": "occ",
				"energy": -0.24633,
				"method": "rhf"
			},
			{
				"type": "occ",
				"energy": -0.2423,
				"method": "rhf"
			},
			{
				"type": "occ",
				"energy": -0.20808,
				"method": "rhf"
			},
			{
				"type": "unocc",
				"energy": -0.03569,
				"method": "rhf"
			},
			{
				"type": "unocc",
				"energy": -0.0124,
				"method": "rhf"
			},
			{
				"type": "unocc",
				"energy": -0.00157,
				"method": "rhf"
			},
			{
				"type": "unocc",
				"energy": 0.00935,
				"method": "rhf"
			},
			{
				"type": "unocc",
				"energy": 0.0566,
				"method": "rhf"
			}
		],
		"cosmo_sigma_profile": { 
			"-0.025": 0.0,
			"-0.024": 0.0,
			"-0.023": 0.0,
			"-0.022": 0.0,
			"-0.021": 0.0,
			"-0.02": 0.0,
			"-0.019": 0.0,
			"-0.018": 0.0,
			"-0.017": 0.0,
			"-0.016": 0.0,
			"-0.015": 0.0,
			"-0.014": 0.265438114644,
			"-0.013": 1.92286999194,
			"-0.012": 1.99933130601,
			"-0.011": 2.70430073753,
			"-0.01": 3.33512871956,
			"-0.009": 4.47570264063,
			"-0.008": 2.35257923204,
			"-0.007": 4.06870050474,
			"-0.006": 11.8194912084,
			"-0.005": 18.8616940398,
			"-0.004": 21.0721491031,
			"-0.003": 20.1496218133,
			"-0.002": 17.1985488341,
			"-0.001": 15.1542297412,
			"0.0": 13.7295136803,
			"0.001": 13.7701954606,
			"0.002": 16.0402636594,
			"0.003": 17.3135456997,
			"0.004": 19.8815483248,
			"0.005": 16.173085461,
			"0.006": 7.79566318153,
			"0.007": 2.95465298905,
			"0.008": 1.79711736701,
			"0.009": 1.91611561702,
			"0.01": 2.70480913704,
			"0.011": 2.17256522509,
			"0.012": 2.25583371761,
			"0.013": 5.37192150465,
			"0.014": 3.86681740671,
			"0.015": 0.156859647645,
			"0.016": 0.0,
			"0.017": 0.0,
			"0.018": 0.0,
			"0.019": 0.0,
			"0.02": 0.0,
			"0.021": 0.0,
			"0.022": 0.0,
			"0.023": 0.0,
			"0.024": 0.0,
			"0.025": 0.0
		}
	}
}
