{
	 "smiles": "FC1=CC=C(C=C1)N1C=CNC1=S", 
	 "Tm": 481.15, 
	 "num_atms": 20, 
	 "gaussian": { 
		 "optdone": 1, 
		 "sigma_profile": "yes", 
		 "theory": "DFT", 
		 "functional": "B3LYP", 
		 "basiset": "6-31G**", 
		 "properties": { 
			 "R2extent": 3477.8605, 
			 "electric_dipole_moment_norm": 5.58196161488, 
			 "electric_quadrupole_moment_norm": 19.7826445707, 
			 "total_energy": -954.700519986, 
			 "HOMO_LUMO_gap": 0.16822, 
			 "cosmo_polarized_energy": -18.08, 
			 "cosmo_cavitation_energy": 26.65, 
			 "cosmo_dispersion_energy": -19.76, 
			 "cosmo_repulsion_energy": 1.49, 
			 "cosmo_total_nonelectrostatic_energy": 8.37, 
			 "SMD_solvation_energy": 4.8 
		},
		"coords": [
			{
				"x": 1.453532026,
				"y": -2.5535722527,
				"z": 2.7294434346,
				"element": "F" 
			},
			{
				"x": 1.1829710203,
				"y": -1.7313246677,
				"z": 1.6961987432,
				"element": "C" 
			},
			{
				"x": 0.2792982724,
				"y": -2.1453177013,
				"z": 0.7248545025,
				"element": "C" 
			},
			{
				"x": 0.0091881865,
				"y": -1.2928348138,
				"z": -0.3445956245,
				"element": "C" 
			},
			{
				"x": 0.6273552927,
				"y": -0.0402797502,
				"z": -0.4189019529,
				"element": "C" 
			},
			{
				"x": 1.5321578566,
				"y": 0.359649923,
				"z": 0.5704762219,
				"element": "C" 
			},
			{
				"x": 1.8163976192,
				"y": -0.4944344722,
				"z": 1.6331451295,
				"element": "C" 
			},
			{
				"x": 0.2961507109,
				"y": 0.8324325017,
				"z": -1.4980049275,
				"element": "N" 
			},
			{
				"x": -1.016435244,
				"y": 1.0639286559,
				"z": -1.9267381544,
				"element": "C" 
			},
			{
				"x": -0.9610277752,
				"y": 1.8949812865,
				"z": -2.9918017929,
				"element": "C" 
			},
			{
				"x": 0.3801674498,
				"y": 2.1660115535,
				"z": -3.2102517338,
				"element": "N" 
			},
			{
				"x": 1.1901778694,
				"y": 1.5208511121,
				"z": -2.3091553502,
				"element": "C" 
			},
			{
				"x": 2.8649337898,
				"y": 1.5810782425,
				"z": -2.2754574641,
				"element": "S" 
			},
			{
				"x": -0.1868227365,
				"y": -3.1210792368,
				"z": 0.8033919838,
				"element": "H" 
			},
			{
				"x": -0.6702202077,
				"y": -1.6079552354,
				"z": -1.1299506585,
				"element": "H" 
			},
			{
				"x": 2.0147353019,
				"y": 1.3258050065,
				"z": 0.4978769724,
				"element": "H" 
			},
			{
				"x": 2.5158989188,
				"y": -0.2102399974,
				"z": 2.4113287502,
				"element": "H" 
			},
			{
				"x": -1.859472576,
				"y": 0.6412154882,
				"z": -1.4060017843,
				"element": "H" 
			},
			{
				"x": -1.747291775,
				"y": 2.3216084692,
				"z": -3.5929524916,
				"element": "H" 
			},
			{
				"x": 0.775906,
				"y": 2.7428758885,
				"z": -3.9359038037,
				"element": "H" 
			}
		],
		 "valence_orbital": [ 
			{
				"type": "occ",
				"energy": -0.29035,
				"method": "rhf"
			},
			{
				"type": "occ",
				"energy": -0.27065,
				"method": "rhf"
			},
			{
				"type": "occ",
				"energy": -0.24977,
				"method": "rhf"
			},
			{
				"type": "occ",
				"energy": -0.2025,
				"method": "rhf"
			},
			{
				"type": "occ",
				"energy": -0.1904,
				"method": "rhf"
			},
			{
				"type": "unocc",
				"energy": -0.02218,
				"method": "rhf"
			},
			{
				"type": "unocc",
				"energy": -0.01964,
				"method": "rhf"
			},
			{
				"type": "unocc",
				"energy": 0.01468,
				"method": "rhf"
			},
			{
				"type": "unocc",
				"energy": 0.02381,
				"method": "rhf"
			},
			{
				"type": "unocc",
				"energy": 0.06885,
				"method": "rhf"
			}
		],
		"cosmo_sigma_profile": { 
			"-0.025": 0.0,
			"-0.024": 0.0,
			"-0.023": 0.0,
			"-0.022": 0.0,
			"-0.021": 0.0,
			"-0.02": 0.0,
			"-0.019": 0.0,
			"-0.018": 0.0,
			"-0.017": 0.727191006999,
			"-0.016": 1.13802726302,
			"-0.015": 1.41063371493,
			"-0.014": 0.951641146419,
			"-0.013": 1.028670465,
			"-0.012": 0.918412265573,
			"-0.011": 1.01073957014,
			"-0.01": 4.39856993737,
			"-0.009": 4.4805431059,
			"-0.008": 7.42712635817,
			"-0.007": 10.6659755775,
			"-0.006": 9.99415583334,
			"-0.005": 11.0969043757,
			"-0.004": 8.69533997575,
			"-0.003": 8.62695948874,
			"-0.002": 9.42510342765,
			"-0.001": 12.8730014361,
			"0.0": 17.0138844959,
			"0.001": 18.8033660848,
			"0.002": 17.6170358897,
			"0.003": 14.1954543746,
			"0.004": 13.6495488942,
			"0.005": 5.80676402865,
			"0.006": 3.56356142564,
			"0.007": 3.51479694912,
			"0.008": 3.49113028168,
			"0.009": 4.61343369772,
			"0.01": 5.47673125105,
			"0.011": 5.24302300683,
			"0.012": 7.62777813291,
			"0.013": 1.92439703986,
			"0.014": 0.0,
			"0.015": 0.0,
			"0.016": 0.0,
			"0.017": 0.0,
			"0.018": 0.0,
			"0.019": 0.0,
			"0.02": 0.0,
			"0.021": 0.0,
			"0.022": 0.0,
			"0.023": 0.0,
			"0.024": 0.0,
			"0.025": 0.0
		}
	}
}
