{
	 "smiles": "NC(=O)C(Cl)C1=CC=CC=C1", 
	 "Tm": 393.15, 
	 "num_atms": 19, 
	 "gaussian": { 
		 "optdone": 1, 
		 "sigma_profile": "yes", 
		 "theory": "DFT", 
		 "functional": "B3LYP", 
		 "basiset": "6-31G**", 
		 "properties": { 
			 "R2extent": 2081.0405, 
			 "electric_dipole_moment_norm": 1.86036875914, 
			 "electric_quadrupole_moment_norm": 15.6042547297, 
			 "total_energy": -899.858495333, 
			 "HOMO_LUMO_gap": 0.21706, 
			 "cosmo_polarized_energy": -12.76, 
			 "cosmo_cavitation_energy": 24.85, 
			 "cosmo_dispersion_energy": -17.99, 
			 "cosmo_repulsion_energy": 1.47, 
			 "cosmo_total_nonelectrostatic_energy": 8.33, 
			 "SMD_solvation_energy": 4.74 
		},
		"coords": [
			{
				"x": 0.6785051279,
				"y": -0.7391030293,
				"z": 2.6242662731,
				"element": "N" 
			},
			{
				"x": 1.028805023,
				"y": 0.2649611624,
				"z": 1.7782361427,
				"element": "C" 
			},
			{
				"x": 1.0799570449,
				"y": 1.4425391835,
				"z": 2.0946250427,
				"element": "O" 
			},
			{
				"x": 1.3053121383,
				"y": -0.1001610519,
				"z": 0.3077359097,
				"element": "C" 
			},
			{
				"x": 1.8340274428,
				"y": -1.8692445047,
				"z": 0.0945406425,
				"element": "Cl" 
			},
			{
				"x": 0.1431448542,
				"y": 0.2159682215,
				"z": -0.6000111593,
				"element": "C" 
			},
			{
				"x": 0.3673394127,
				"y": 0.9303082127,
				"z": -1.7825565857,
				"element": "C" 
			},
			{
				"x": -0.692258592,
				"y": 1.2323258205,
				"z": -2.6383589553,
				"element": "C" 
			},
			{
				"x": -1.9864390412,
				"y": 0.8202024735,
				"z": -2.3188584865,
				"element": "C" 
			},
			{
				"x": -2.2173355016,
				"y": 0.1068728194,
				"z": -1.1397469055,
				"element": "C" 
			},
			{
				"x": -1.1596363361,
				"y": -0.1942178497,
				"z": -0.2844589139,
				"element": "C" 
			},
			{
				"x": 0.8272920246,
				"y": -1.7036938214,
				"z": 2.3702504855,
				"element": "H" 
			},
			{
				"x": 0.5578829381,
				"y": -0.497907735,
				"z": 3.5967854859,
				"element": "H" 
			},
			{
				"x": 2.181326595,
				"y": 0.4760001904,
				"z": 0.0137014533,
				"element": "H" 
			},
			{
				"x": 1.3747829249,
				"y": 1.252189411,
				"z": -2.0321428055,
				"element": "H" 
			},
			{
				"x": -0.506163654,
				"y": 1.789757654,
				"z": -3.5515962295,
				"element": "H" 
			},
			{
				"x": -2.812704003,
				"y": 1.0551223005,
				"z": -2.9834782754,
				"element": "H" 
			},
			{
				"x": -3.2235618734,
				"y": -0.2128091909,
				"z": -0.8851576377,
				"element": "H" 
			},
			{
				"x": -1.3432765251,
				"y": -0.7456102664,
				"z": 0.6328245188,
				"element": "H" 
			}
		],
		 "valence_orbital": [ 
			{
				"type": "occ",
				"energy": -0.30875,
				"method": "rhf"
			},
			{
				"type": "occ",
				"energy": -0.27824,
				"method": "rhf"
			},
			{
				"type": "occ",
				"energy": -0.26051,
				"method": "rhf"
			},
			{
				"type": "occ",
				"energy": -0.25896,
				"method": "rhf"
			},
			{
				"type": "occ",
				"energy": -0.25317,
				"method": "rhf"
			},
			{
				"type": "unocc",
				"energy": -0.03611,
				"method": "rhf"
			},
			{
				"type": "unocc",
				"energy": -0.01065,
				"method": "rhf"
			},
			{
				"type": "unocc",
				"energy": 0.01765,
				"method": "rhf"
			},
			{
				"type": "unocc",
				"energy": 0.03444,
				"method": "rhf"
			},
			{
				"type": "unocc",
				"energy": 0.07999,
				"method": "rhf"
			}
		],
		"cosmo_sigma_profile": { 
			"-0.025": 0.0,
			"-0.024": 0.0,
			"-0.023": 0.0,
			"-0.022": 0.0,
			"-0.021": 0.0,
			"-0.02": 0.0,
			"-0.019": 0.0,
			"-0.018": 0.0,
			"-0.017": 0.0,
			"-0.016": 0.0,
			"-0.015": 0.552838579407,
			"-0.014": 1.3518156192,
			"-0.013": 1.38490891391,
			"-0.012": 1.8480145894,
			"-0.011": 2.17560179341,
			"-0.01": 2.70211913372,
			"-0.009": 3.26101990144,
			"-0.008": 3.75407219934,
			"-0.007": 4.92809618526,
			"-0.006": 11.5797906346,
			"-0.005": 13.3032606505,
			"-0.004": 14.6475212588,
			"-0.003": 10.8435737695,
			"-0.002": 9.87419237826,
			"-0.001": 10.1117141445,
			"0.0": 11.9770653846,
			"0.001": 12.3571736795,
			"0.002": 11.7752999855,
			"0.003": 13.0459676944,
			"0.004": 17.7252362957,
			"0.005": 15.8889031656,
			"0.006": 6.98840147317,
			"0.007": 1.76249781525,
			"0.008": 1.62255849328,
			"0.009": 0.899251602548,
			"0.01": 1.28016634155,
			"0.011": 1.90178116944,
			"0.012": 3.50525750709,
			"0.013": 5.87527859455,
			"0.014": 1.11917145458,
			"0.015": 0.0,
			"0.016": 0.0,
			"0.017": 0.0,
			"0.018": 0.0,
			"0.019": 0.0,
			"0.02": 0.0,
			"0.021": 0.0,
			"0.022": 0.0,
			"0.023": 0.0,
			"0.024": 0.0,
			"0.025": 0.0
		}
	}
}
