{
	 "smiles": "CN1C=NC2=C1C(=O)N=C(N)N2", 
	 "Tm": 643.15, 
	 "num_atms": 19, 
	 "gaussian": { 
		 "optdone": 1, 
		 "sigma_profile": "yes", 
		 "theory": "DFT", 
		 "functional": "B3LYP", 
		 "basiset": "6-31G**", 
		 "properties": { 
			 "R2extent": 2132.4924, 
			 "electric_dipole_moment_norm": 4.07217926177, 
			 "electric_quadrupole_moment_norm": 30.794776988, 
			 "total_energy": -581.858073778, 
			 "HOMO_LUMO_gap": 0.19747, 
			 "cosmo_polarized_energy": -25.74, 
			 "cosmo_cavitation_energy": 23.35, 
			 "cosmo_dispersion_energy": -17.87, 
			 "cosmo_repulsion_energy": 1.41, 
			 "cosmo_total_nonelectrostatic_energy": 6.89, 
			 "SMD_solvation_energy": 1.72 
		},
		"coords": [
			{
				"x": -0.9807736775,
				"y": 0.5104801604,
				"z": -2.0432533955,
				"element": "C" 
			},
			{
				"x": -0.0445536714,
				"y": 0.0164713111,
				"z": -1.0354987491,
				"element": "N" 
			},
			{
				"x": 1.1829042894,
				"y": -0.5354780382,
				"z": -1.230968061,
				"element": "C" 
			},
			{
				"x": 1.8011095194,
				"y": -0.8750072853,
				"z": -0.1013046736,
				"element": "N" 
			},
			{
				"x": 0.9092521381,
				"y": -0.5140158413,
				"z": 0.855008682,
				"element": "C" 
			},
			{
				"x": -0.2424506854,
				"y": 0.0386704794,
				"z": 0.3364672631,
				"element": "C" 
			},
			{
				"x": -1.3558341926,
				"y": 0.4678051619,
				"z": 1.1691102842,
				"element": "C" 
			},
			{
				"x": -2.4081358698,
				"y": 0.9341504356,
				"z": 0.7349197928,
				"element": "O" 
			},
			{
				"x": -1.1156150211,
				"y": 0.3115890983,
				"z": 2.541823198,
				"element": "N" 
			},
			{
				"x": -0.0157906868,
				"y": -0.2208202206,
				"z": 2.9966590557,
				"element": "C" 
			},
			{
				"x": 0.1248429975,
				"y": -0.428611446,
				"z": 4.3552528279,
				"element": "N" 
			},
			{
				"x": 1.0430301914,
				"y": -0.64662867,
				"z": 2.2229857975,
				"element": "N" 
			},
			{
				"x": -0.5571970813,
				"y": 1.3702231373,
				"z": -2.5702866599,
				"element": "H" 
			},
			{
				"x": -1.8879909101,
				"y": 0.8125975854,
				"z": -1.5191399205,
				"element": "H" 
			},
			{
				"x": -1.2111166351,
				"y": -0.2785407984,
				"z": -2.7639842001,
				"element": "H" 
			},
			{
				"x": 1.5955830911,
				"y": -0.674596444,
				"z": -2.221194268,
				"element": "H" 
			},
			{
				"x": -0.609354447,
				"y": 0.0275941615,
				"z": 4.8799505694,
				"element": "H" 
			},
			{
				"x": 1.0481853632,
				"y": -0.3000063809,
				"z": 4.7471528164,
				"element": "H" 
			},
			{
				"x": 1.804605288,
				"y": -1.1883764062,
				"z": 2.6063996408,
				"element": "H" 
			}
		],
		 "valence_orbital": [ 
			{
				"type": "occ",
				"energy": -0.27494,
				"method": "rhf"
			},
			{
				"type": "occ",
				"energy": -0.27175,
				"method": "rhf"
			},
			{
				"type": "occ",
				"energy": -0.2511,
				"method": "rhf"
			},
			{
				"type": "occ",
				"energy": -0.23254,
				"method": "rhf"
			},
			{
				"type": "occ",
				"energy": -0.21683,
				"method": "rhf"
			},
			{
				"type": "unocc",
				"energy": -0.01936,
				"method": "rhf"
			},
			{
				"type": "unocc",
				"energy": 0.01462,
				"method": "rhf"
			},
			{
				"type": "unocc",
				"energy": 0.04419,
				"method": "rhf"
			},
			{
				"type": "unocc",
				"energy": 0.0561,
				"method": "rhf"
			},
			{
				"type": "unocc",
				"energy": 0.09623,
				"method": "rhf"
			}
		],
		"cosmo_sigma_profile": { 
			"-0.025": 0.0,
			"-0.024": 0.0,
			"-0.023": 0.0,
			"-0.022": 0.0,
			"-0.021": 0.0,
			"-0.02": 0.0,
			"-0.019": 0.0,
			"-0.018": 0.136945419135,
			"-0.017": 2.11083975257,
			"-0.016": 2.08413801434,
			"-0.015": 2.42762485625,
			"-0.014": 2.47246043782,
			"-0.013": 2.80084297709,
			"-0.012": 2.8788552338,
			"-0.011": 3.3825508028,
			"-0.01": 3.93669274464,
			"-0.009": 4.32905354398,
			"-0.008": 3.73575893813,
			"-0.007": 6.49888034245,
			"-0.006": 10.6266414664,
			"-0.005": 8.36257325662,
			"-0.004": 8.23834682722,
			"-0.003": 11.0568812243,
			"-0.002": 11.0311014159,
			"-0.001": 9.61746184089,
			"0.0": 13.6484878988,
			"0.001": 11.0398721307,
			"0.002": 5.88051682123,
			"0.003": 5.40554738853,
			"0.004": 4.45116133455,
			"0.005": 4.51685316162,
			"0.006": 3.91291021324,
			"0.007": 4.058449427,
			"0.008": 3.80385129723,
			"0.009": 4.37116178354,
			"0.01": 2.67282214834,
			"0.011": 3.78161975396,
			"0.012": 3.55927105188,
			"0.013": 4.36691673418,
			"0.014": 5.27422395419,
			"0.015": 4.51569382147,
			"0.016": 3.20530631322,
			"0.017": 2.30718082387,
			"0.018": 0.169170863057,
			"0.019": 0.0,
			"0.02": 0.0,
			"0.021": 0.0,
			"0.022": 0.0,
			"0.023": 0.0,
			"0.024": 0.0,
			"0.025": 0.0
		}
	}
}
