{
	 "smiles": "CN1CCC(CC1)N(CC1=CC=CS1)C1=CC=CC=C1", 
	 "Tm": 368.15, 
	 "num_atms": 42, 
	 "gaussian": { 
		 "optdone": 1, 
		 "sigma_profile": "yes", 
		 "theory": "DFT", 
		 "functional": "B3LYP", 
		 "basiset": "6-31G**", 
		 "properties": { 
			 "R2extent": 6686.699, 
			 "electric_dipole_moment_norm": 0.889518459617, 
			 "electric_quadrupole_moment_norm": 7.62495710283, 
			 "total_energy": -1168.71825669, 
			 "HOMO_LUMO_gap": 0.18608, 
			 "cosmo_polarized_energy": -9.04, 
			 "cosmo_cavitation_energy": 42.88, 
			 "cosmo_dispersion_energy": -29.26, 
			 "cosmo_repulsion_energy": 2.2, 
			 "cosmo_total_nonelectrostatic_energy": 15.82, 
			 "SMD_solvation_energy": 3.57 
		},
		"coords": [
			{
				"x": -1.2986004433,
				"y": 4.7196907992,
				"z": -0.0826578581,
				"element": "C" 
			},
			{
				"x": -1.3783203105,
				"y": 3.2665890907,
				"z": -0.0146677602,
				"element": "N" 
			},
			{
				"x": -1.1190446634,
				"y": 2.5975557951,
				"z": -1.2920851743,
				"element": "C" 
			},
			{
				"x": 0.3688522106,
				"y": 2.5605333962,
				"z": -1.6911023323,
				"element": "C" 
			},
			{
				"x": 1.2379770568,
				"y": 1.8851758832,
				"z": -0.6024426571,
				"element": "C" 
			},
			{
				"x": 0.9492149855,
				"y": 2.620036674,
				"z": 0.7260990655,
				"element": "C" 
			},
			{
				"x": -0.5576358276,
				"y": 2.6751355117,
				"z": 1.0469778394,
				"element": "C" 
			},
			{
				"x": 0.9441088032,
				"y": 0.4283203783,
				"z": -0.5025365597,
				"element": "N" 
			},
			{
				"x": 1.3592298001,
				"y": -0.325366961,
				"z": -1.7040166878,
				"element": "C" 
			},
			{
				"x": 0.7319081292,
				"y": -1.6935028629,
				"z": -1.7893345826,
				"element": "C" 
			},
			{
				"x": -0.5992912554,
				"y": -2.018535073,
				"z": -1.8432466398,
				"element": "C" 
			},
			{
				"x": -0.8373004783,
				"y": -3.4217551641,
				"z": -1.9507405555,
				"element": "C" 
			},
			{
				"x": 0.3179105933,
				"y": -4.1545067457,
				"z": -1.9797422715,
				"element": "C" 
			},
			{
				"x": 1.7131606601,
				"y": -3.1329110374,
				"z": -1.868145025,
				"element": "S" 
			},
			{
				"x": 1.4448607441,
				"y": -0.2167381187,
				"z": 0.6926442217,
				"element": "C" 
			},
			{
				"x": 2.8017856181,
				"y": -0.1792100771,
				"z": 1.0485707543,
				"element": "C" 
			},
			{
				"x": 3.249972889,
				"y": -0.8260944596,
				"z": 2.2005768485,
				"element": "C" 
			},
			{
				"x": 2.3510108532,
				"y": -1.5309194021,
				"z": 3.0045468476,
				"element": "C" 
			},
			{
				"x": 1.0024508154,
				"y": -1.5825960811,
				"z": 2.6497778843,
				"element": "C" 
			},
			{
				"x": 0.5526037886,
				"y": -0.9281096018,
				"z": 1.5011095254,
				"element": "C" 
			},
			{
				"x": -1.5962129349,
				"y": 5.1425836239,
				"z": 0.8830247973,
				"element": "H" 
			},
			{
				"x": -0.3042200214,
				"y": 5.1340146343,
				"z": -0.3321273424,
				"element": "H" 
			},
			{
				"x": -2.0042091663,
				"y": 5.0849389227,
				"z": -0.8368993806,
				"element": "H" 
			},
			{
				"x": -1.4855480862,
				"y": 1.5670757468,
				"z": -1.2103159853,
				"element": "H" 
			},
			{
				"x": -1.70791082,
				"y": 3.0927187451,
				"z": -2.0727174475,
				"element": "H" 
			},
			{
				"x": 0.4782809822,
				"y": 2.0769143293,
				"z": -2.6670664568,
				"element": "H" 
			},
			{
				"x": 0.7463690741,
				"y": 3.5820425687,
				"z": -1.8241207034,
				"element": "H" 
			},
			{
				"x": 2.3018496741,
				"y": 2.044523196,
				"z": -0.8614243174,
				"element": "H" 
			},
			{
				"x": 1.4900938816,
				"y": 2.1602790209,
				"z": 1.5572777386,
				"element": "H" 
			},
			{
				"x": 1.3438719086,
				"y": 3.6386584888,
				"z": 0.6259928605,
				"element": "H" 
			},
			{
				"x": -0.7221328262,
				"y": 3.2412865693,
				"z": 1.9708555927,
				"element": "H" 
			},
			{
				"x": -0.9220714767,
				"y": 1.6569463112,
				"z": 1.226295551,
				"element": "H" 
			},
			{
				"x": 1.0517293067,
				"y": 0.2440842524,
				"z": -2.5842982919,
				"element": "H" 
			},
			{
				"x": 2.4581186743,
				"y": -0.4175334911,
				"z": -1.766754362,
				"element": "H" 
			},
			{
				"x": -1.3847115189,
				"y": -1.2719183492,
				"z": -1.8025263949,
				"element": "H" 
			},
			{
				"x": -1.8254837849,
				"y": -3.8647895829,
				"z": -2.007248641,
				"element": "H" 
			},
			{
				"x": 0.4334972784,
				"y": -5.2262601861,
				"z": -2.0613880836,
				"element": "H" 
			},
			{
				"x": 3.5082420688,
				"y": 0.3646217396,
				"z": 0.4270326612,
				"element": "H" 
			},
			{
				"x": 4.3020404316,
				"y": -0.7827286409,
				"z": 2.4689447122,
				"element": "H" 
			},
			{
				"x": 2.7008685802,
				"y": -2.0367721558,
				"z": 3.8998557678,
				"element": "H" 
			},
			{
				"x": 0.297325093,
				"y": -2.1320017133,
				"z": 3.2671830681,
				"element": "H" 
			},
			{
				"x": -0.4919402871,
				"y": -0.9640759735,
				"z": 1.2110397745,
				"element": "H" 
			}
		],
		 "valence_orbital": [ 
			{
				"type": "occ",
				"energy": -0.245,
				"method": "rhf"
			},
			{
				"type": "occ",
				"energy": -0.24111,
				"method": "rhf"
			},
			{
				"type": "occ",
				"energy": -0.22674,
				"method": "rhf"
			},
			{
				"type": "occ",
				"energy": -0.21574,
				"method": "rhf"
			},
			{
				"type": "occ",
				"energy": -0.19297,
				"method": "rhf"
			},
			{
				"type": "unocc",
				"energy": -0.00689,
				"method": "rhf"
			},
			{
				"type": "unocc",
				"energy": -0.00072,
				"method": "rhf"
			},
			{
				"type": "unocc",
				"energy": 0.00216,
				"method": "rhf"
			},
			{
				"type": "unocc",
				"energy": 0.03489,
				"method": "rhf"
			},
			{
				"type": "unocc",
				"energy": 0.06459,
				"method": "rhf"
			}
		],
		"cosmo_sigma_profile": { 
			"-0.025": 0.0,
			"-0.024": 0.0,
			"-0.023": 0.0,
			"-0.022": 0.0,
			"-0.021": 0.0,
			"-0.02": 0.0,
			"-0.019": 0.0,
			"-0.018": 0.0,
			"-0.017": 0.0,
			"-0.016": 0.0,
			"-0.015": 0.0,
			"-0.014": 0.0,
			"-0.013": 0.0,
			"-0.012": 0.0,
			"-0.011": 0.0,
			"-0.01": 0.0,
			"-0.009": 0.0618918989769,
			"-0.008": 1.3152179285,
			"-0.007": 2.19807043694,
			"-0.006": 6.84354185539,
			"-0.005": 17.178640304,
			"-0.004": 24.6196022257,
			"-0.003": 40.3851349961,
			"-0.002": 41.0431791412,
			"-0.001": 42.0541176466,
			"0.0": 35.4296279947,
			"0.001": 25.9830210946,
			"0.002": 19.0202576549,
			"0.003": 17.9723794424,
			"0.004": 18.1453766959,
			"0.005": 20.4547241037,
			"0.006": 15.8011032695,
			"0.007": 3.49679389637,
			"0.008": 1.56833820706,
			"0.009": 0.667856595411,
			"0.01": 0.807981978407,
			"0.011": 0.654773403358,
			"0.012": 0.379462973089,
			"0.013": 0.74731206692,
			"0.014": 0.593213521841,
			"0.015": 0.682632445329,
			"0.016": 0.314625846445,
			"0.017": 0.376697553141,
			"0.018": 0.0967622036173,
			"0.019": 0.0,
			"0.02": 0.0,
			"0.021": 0.0,
			"0.022": 0.0,
			"0.023": 0.0,
			"0.024": 0.0,
			"0.025": 0.0
		}
	}
}
