{
	 "smiles": "OC(=O)CC1=CCCCC1", 
	 "Tm": 306.15, 
	 "num_atms": 22, 
	 "gaussian": { 
		 "optdone": 1, 
		 "sigma_profile": "yes", 
		 "theory": "DFT", 
		 "functional": "B3LYP", 
		 "basiset": "6-31G**", 
		 "properties": { 
			 "R2extent": 1775.5983, 
			 "electric_dipole_moment_norm": 4.97168081337, 
			 "electric_quadrupole_moment_norm": 14.3613739886, 
			 "total_energy": -462.539796235, 
			 "HOMO_LUMO_gap": 0.24542, 
			 "cosmo_polarized_energy": -11.17, 
			 "cosmo_cavitation_energy": 24.04, 
			 "cosmo_dispersion_energy": -17.61, 
			 "cosmo_repulsion_energy": 1.46, 
			 "cosmo_total_nonelectrostatic_energy": 7.89, 
			 "SMD_solvation_energy": 4.56 
		},
		"coords": [
			{
				"x": -2.2030503015,
				"y": -1.3317963453,
				"z": 0.4534722283,
				"element": "O" 
			},
			{
				"x": -1.7650857448,
				"y": -1.1110437657,
				"z": 1.7169643345,
				"element": "C" 
			},
			{
				"x": -2.5167772039,
				"y": -1.171379228,
				"z": 2.6571267853,
				"element": "O" 
			},
			{
				"x": -0.2581538696,
				"y": -0.8348016508,
				"z": 1.8413598397,
				"element": "C" 
			},
			{
				"x": 0.3162839678,
				"y": -0.0391759903,
				"z": 0.6911601903,
				"element": "C" 
			},
			{
				"x": 1.0622715259,
				"y": -0.6237513314,
				"z": -0.2627513514,
				"element": "C" 
			},
			{
				"x": 1.6132442148,
				"y": 0.0939378365,
				"z": -1.4698117225,
				"element": "C" 
			},
			{
				"x": 0.9461228917,
				"y": 1.4598104102,
				"z": -1.6896322506,
				"element": "C" 
			},
			{
				"x": 0.8232084531,
				"y": 2.2201303119,
				"z": -0.3636182758,
				"element": "C" 
			},
			{
				"x": -0.0311204376,
				"y": 1.4367043512,
				"z": 0.6443430824,
				"element": "C" 
			},
			{
				"x": -1.4553017596,
				"y": -1.2087611743,
				"z": -0.1570778138,
				"element": "H" 
			},
			{
				"x": -0.1133762185,
				"y": -0.3325215831,
				"z": 2.8019713728,
				"element": "H" 
			},
			{
				"x": 0.2334032243,
				"y": -1.813940285,
				"z": 1.9082633388,
				"element": "H" 
			},
			{
				"x": 1.3137850616,
				"y": -1.6801131076,
				"z": -0.1624816461,
				"element": "H" 
			},
			{
				"x": 1.4952753252,
				"y": -0.5385481383,
				"z": -2.3592483507,
				"element": "H" 
			},
			{
				"x": 2.6996347785,
				"y": 0.2201807043,
				"z": -1.3445454368,
				"element": "H" 
			},
			{
				"x": -0.0553341867,
				"y": 1.3114572099,
				"z": -2.1156580286,
				"element": "H" 
			},
			{
				"x": 1.5151780836,
				"y": 2.0441486681,
				"z": -2.4208219976,
				"element": "H" 
			},
			{
				"x": 0.3928012293,
				"y": 3.2145537797,
				"z": -0.5240222755,
				"element": "H" 
			},
			{
				"x": 1.8261301383,
				"y": 2.3746575423,
				"z": 0.0559232195,
				"element": "H" 
			},
			{
				"x": -1.0993792593,
				"y": 1.5462325916,
				"z": 0.4032871807,
				"element": "H" 
			},
			{
				"x": 0.0828400872,
				"y": 1.8623191941,
				"z": 1.6499975771,
				"element": "H" 
			}
		],
		 "valence_orbital": [ 
			{
				"type": "occ",
				"energy": -0.33166,
				"method": "rhf"
			},
			{
				"type": "occ",
				"energy": -0.32163,
				"method": "rhf"
			},
			{
				"type": "occ",
				"energy": -0.30712,
				"method": "rhf"
			},
			{
				"type": "occ",
				"energy": -0.2767,
				"method": "rhf"
			},
			{
				"type": "occ",
				"energy": -0.24804,
				"method": "rhf"
			},
			{
				"type": "unocc",
				"energy": -0.00262,
				"method": "rhf"
			},
			{
				"type": "unocc",
				"energy": 0.01943,
				"method": "rhf"
			},
			{
				"type": "unocc",
				"energy": 0.06404,
				"method": "rhf"
			},
			{
				"type": "unocc",
				"energy": 0.09677,
				"method": "rhf"
			},
			{
				"type": "unocc",
				"energy": 0.11067,
				"method": "rhf"
			}
		],
		"cosmo_sigma_profile": { 
			"-0.025": 0.0,
			"-0.024": 0.0,
			"-0.023": 0.0,
			"-0.022": 0.0,
			"-0.021": 0.0,
			"-0.02": 0.0,
			"-0.019": 0.0,
			"-0.018": 0.0,
			"-0.017": 0.0,
			"-0.016": 0.0,
			"-0.015": 0.0,
			"-0.014": 0.0,
			"-0.013": 0.486116819365,
			"-0.012": 0.496146098203,
			"-0.011": 0.508445905475,
			"-0.01": 1.55146657991,
			"-0.009": 1.45016996708,
			"-0.008": 1.82368749842,
			"-0.007": 4.35206378729,
			"-0.006": 4.92870534972,
			"-0.005": 7.62055983923,
			"-0.004": 11.9955053443,
			"-0.003": 22.1497725773,
			"-0.002": 27.1648789847,
			"-0.001": 28.2277419648,
			"0.0": 21.6210786608,
			"0.001": 10.8081126952,
			"0.002": 3.39242549291,
			"0.003": 3.06117382975,
			"0.004": 2.99356957208,
			"0.005": 2.73443801678,
			"0.006": 2.17370594263,
			"0.007": 2.53752196746,
			"0.008": 2.52836659037,
			"0.009": 3.28203539441,
			"0.01": 4.34026528571,
			"0.011": 5.51930941627,
			"0.012": 5.77508919966,
			"0.013": 3.36963530686,
			"0.014": 0.295725025333,
			"0.015": 0.0,
			"0.016": 0.0,
			"0.017": 0.0,
			"0.018": 0.0,
			"0.019": 0.0,
			"0.02": 0.0,
			"0.021": 0.0,
			"0.022": 0.0,
			"0.023": 0.0,
			"0.024": 0.0,
			"0.025": 0.0
		}
	}
}
