{
	 "smiles": "NC1=NC=CC=C1OCC1=CC=CC=C1", 
	 "Tm": 369.15, 
	 "num_atms": 27, 
	 "gaussian": { 
		 "optdone": 1, 
		 "sigma_profile": "yes", 
		 "theory": "DFT", 
		 "functional": "B3LYP", 
		 "basiset": "6-31G**", 
		 "properties": { 
			 "R2extent": 4241.8547, 
			 "electric_dipole_moment_norm": 1.91062070019, 
			 "electric_quadrupole_moment_norm": 8.44914038645, 
			 "total_energy": -649.228802474, 
			 "HOMO_LUMO_gap": 0.19208, 
			 "cosmo_polarized_energy": -10.95, 
			 "cosmo_cavitation_energy": 31.45, 
			 "cosmo_dispersion_energy": -22.42, 
			 "cosmo_repulsion_energy": 1.75, 
			 "cosmo_total_nonelectrostatic_energy": 10.79, 
			 "SMD_solvation_energy": 3.84 
		},
		"coords": [
			{
				"x": -2.2528917213,
				"y": 0.0981662295,
				"z": -0.1610419091,
				"element": "N" 
			},
			{
				"x": -1.9855294643,
				"y": 0.8580615077,
				"z": 0.9641379353,
				"element": "C" 
			},
			{
				"x": -2.8868897919,
				"y": 1.7694420195,
				"z": 1.342779357,
				"element": "N" 
			},
			{
				"x": -2.6029987648,
				"y": 2.5262627631,
				"z": 2.4137955509,
				"element": "C" 
			},
			{
				"x": -1.4375972004,
				"y": 2.4089743151,
				"z": 3.1636614484,
				"element": "C" 
			},
			{
				"x": -0.4966009336,
				"y": 1.4487944887,
				"z": 2.7673914855,
				"element": "C" 
			},
			{
				"x": -0.7638965256,
				"y": 0.6682218408,
				"z": 1.6561128609,
				"element": "C" 
			},
			{
				"x": 0.0919912505,
				"y": -0.3256047186,
				"z": 1.221061294,
				"element": "O" 
			},
			{
				"x": 1.0427136162,
				"y": 0.1176933433,
				"z": 0.2198146035,
				"element": "C" 
			},
			{
				"x": 1.6339338222,
				"y": -1.0930227398,
				"z": -0.4507743926,
				"element": "C" 
			},
			{
				"x": 2.7078436152,
				"y": -1.7787405789,
				"z": 0.1298189874,
				"element": "C" 
			},
			{
				"x": 3.2325418678,
				"y": -2.9195650528,
				"z": -0.4774561044,
				"element": "C" 
			},
			{
				"x": 2.6872338606,
				"y": -3.3872147784,
				"z": -1.6754615731,
				"element": "C" 
			},
			{
				"x": 1.6156879563,
				"y": -2.7110932444,
				"z": -2.2619675311,
				"element": "C" 
			},
			{
				"x": 1.0920121373,
				"y": -1.5713458372,
				"z": -1.650176647,
				"element": "C" 
			},
			{
				"x": -3.2270195548,
				"y": 0.1065893456,
				"z": -0.4309750785,
				"element": "H" 
			},
			{
				"x": -1.8112421666,
				"y": -0.811498692,
				"z": -0.16835637,
				"element": "H" 
			},
			{
				"x": -3.3609566395,
				"y": 3.2585611842,
				"z": 2.6863095167,
				"element": "H" 
			},
			{
				"x": -1.2680989527,
				"y": 3.0396004504,
				"z": 4.029836572,
				"element": "H" 
			},
			{
				"x": 0.4296740982,
				"y": 1.2957131549,
				"z": 3.3134927124,
				"element": "H" 
			},
			{
				"x": 0.5295853692,
				"y": 0.7530136668,
				"z": -0.5113117172,
				"element": "H" 
			},
			{
				"x": 1.8200150704,
				"y": 0.7177700702,
				"z": 0.7112013371,
				"element": "H" 
			},
			{
				"x": 3.1323870926,
				"y": -1.4151416318,
				"z": 1.0621259511,
				"element": "H" 
			},
			{
				"x": 4.0674376461,
				"y": -3.4418865721,
				"z": -0.0190615885,
				"element": "H" 
			},
			{
				"x": 3.0981897763,
				"y": -4.2730921341,
				"z": -2.1512395138,
				"element": "H" 
			},
			{
				"x": 1.1908129638,
				"y": -3.0688493868,
				"z": -3.1955391649,
				"element": "H" 
			},
			{
				"x": 0.2585615727,
				"y": -1.0419090131,
				"z": -2.106078022,
				"element": "H" 
			}
		],
		 "valence_orbital": [ 
			{
				"type": "occ",
				"energy": -0.2671,
				"method": "rhf"
			},
			{
				"type": "occ",
				"energy": -0.25472,
				"method": "rhf"
			},
			{
				"type": "occ",
				"energy": -0.25304,
				"method": "rhf"
			},
			{
				"type": "occ",
				"energy": -0.24567,
				"method": "rhf"
			},
			{
				"type": "occ",
				"energy": -0.20802,
				"method": "rhf"
			},
			{
				"type": "unocc",
				"energy": -0.01594,
				"method": "rhf"
			},
			{
				"type": "unocc",
				"energy": -0.00655,
				"method": "rhf"
			},
			{
				"type": "unocc",
				"energy": -0.00604,
				"method": "rhf"
			},
			{
				"type": "unocc",
				"energy": 0.01423,
				"method": "rhf"
			},
			{
				"type": "unocc",
				"energy": 0.08348,
				"method": "rhf"
			}
		],
		"cosmo_sigma_profile": { 
			"-0.025": 0.0,
			"-0.024": 0.0,
			"-0.023": 0.0,
			"-0.022": 0.0,
			"-0.021": 0.0,
			"-0.02": 0.0,
			"-0.019": 0.0,
			"-0.018": 0.0,
			"-0.017": 0.0,
			"-0.016": 0.0,
			"-0.015": 0.0,
			"-0.014": 0.0,
			"-0.013": 0.203072431306,
			"-0.012": 0.938941856585,
			"-0.011": 1.50828271006,
			"-0.01": 1.41950889263,
			"-0.009": 2.28483046517,
			"-0.008": 2.00820470996,
			"-0.007": 2.86240887073,
			"-0.006": 11.0112596968,
			"-0.005": 23.0234875894,
			"-0.004": 25.9637724749,
			"-0.003": 23.9893420078,
			"-0.002": 17.4307631264,
			"-0.001": 14.0246443396,
			"0.0": 14.6797113495,
			"0.001": 13.4918463157,
			"0.002": 15.0265124077,
			"0.003": 17.5893593355,
			"0.004": 18.5117065981,
			"0.005": 14.8622055771,
			"0.006": 9.42489837841,
			"0.007": 3.62557565117,
			"0.008": 3.91451399173,
			"0.009": 3.12694879596,
			"0.01": 2.18914386883,
			"0.011": 2.38688195705,
			"0.012": 1.88787354474,
			"0.013": 1.08989284041,
			"0.014": 0.893270422939,
			"0.015": 0.754313486605,
			"0.016": 0.562689656245,
			"0.017": 0.023590005019,
			"0.018": 0.0,
			"0.019": 0.0,
			"0.02": 0.0,
			"0.021": 0.0,
			"0.022": 0.0,
			"0.023": 0.0,
			"0.024": 0.0,
			"0.025": 0.0
		}
	}
}
