{
	 "smiles": "OC1=C(C=CC(Br)=C1)C(F)(F)F", 
	 "Tm": 363.15, 
	 "num_atms": 16, 
	 "gaussian": { 
		 "optdone": 1, 
		 "sigma_profile": "yes", 
		 "theory": "DFT", 
		 "functional": "B3LYP", 
		 "basiset": "6-31G**", 
		 "properties": { 
			 "R2extent": 4681.2141, 
			 "electric_dipole_moment_norm": 2.15667417567, 
			 "electric_quadrupole_moment_norm": 11.2266251746, 
			 "total_energy": -3215.3041301, 
			 "HOMO_LUMO_gap": 0.20957, 
			 "cosmo_polarized_energy": -9.32, 
			 "cosmo_cavitation_energy": 24.26, 
			 "cosmo_dispersion_energy": -17.99, 
			 "cosmo_repulsion_energy": 1.38, 
			 "cosmo_total_nonelectrostatic_energy": 7.65, 
			 "SMD_solvation_energy": 4.56 
		},
		"coords": [
			{
				"x": 2.0475915284,
				"y": 0.8035031725,
				"z": 1.2880963496,
				"element": "O" 
			},
			{
				"x": 0.8361231143,
				"y": 1.2142507484,
				"z": 0.8346714174,
				"element": "C" 
			},
			{
				"x": -0.0581682227,
				"y": 0.2353706328,
				"z": 0.3624898329,
				"element": "C" 
			},
			{
				"x": -1.3098924975,
				"y": 0.6294590458,
				"z": -0.1093348883,
				"element": "C" 
			},
			{
				"x": -1.6948042762,
				"y": 1.9695784286,
				"z": -0.1237464113,
				"element": "C" 
			},
			{
				"x": -0.7944316158,
				"y": 2.9208935655,
				"z": 0.3480476746,
				"element": "C" 
			},
			{
				"x": -1.2850628979,
				"y": 4.7646254584,
				"z": 0.3443383821,
				"element": "Br" 
			},
			{
				"x": 0.4631700833,
				"y": 2.5619955569,
				"z": 0.8260389385,
				"element": "C" 
			},
			{
				"x": 0.3388108098,
				"y": -1.2175212728,
				"z": 0.3697685365,
				"element": "C" 
			},
			{
				"x": -0.6510387004,
				"y": -2.0002297773,
				"z": -0.1201294379,
				"element": "F" 
			},
			{
				"x": 1.4346030089,
				"y": -1.44474532,
				"z": -0.384712324,
				"element": "F" 
			},
			{
				"x": 0.6141481642,
				"y": -1.6588653735,
				"z": 1.615176394,
				"element": "F" 
			},
			{
				"x": 2.5624080713,
				"y": 1.5667216165,
				"z": 1.5812885087,
				"element": "H" 
			},
			{
				"x": -1.9937179822,
				"y": -0.1293375518,
				"z": -0.4715179988,
				"element": "H" 
			},
			{
				"x": -2.6690510833,
				"y": 2.2655339104,
				"z": -0.4921522364,
				"element": "H" 
			},
			{
				"x": 1.1485124958,
				"y": 3.3214671597,
				"z": 1.1889772625,
				"element": "H" 
			}
		],
		 "valence_orbital": [ 
			{
				"type": "occ",
				"energy": -0.35841,
				"method": "rhf"
			},
			{
				"type": "occ",
				"energy": -0.31934,
				"method": "rhf"
			},
			{
				"type": "occ",
				"energy": -0.29913,
				"method": "rhf"
			},
			{
				"type": "occ",
				"energy": -0.26594,
				"method": "rhf"
			},
			{
				"type": "occ",
				"energy": -0.24717,
				"method": "rhf"
			},
			{
				"type": "unocc",
				"energy": -0.0376,
				"method": "rhf"
			},
			{
				"type": "unocc",
				"energy": -0.01706,
				"method": "rhf"
			},
			{
				"type": "unocc",
				"energy": -0.00588,
				"method": "rhf"
			},
			{
				"type": "unocc",
				"energy": 0.051,
				"method": "rhf"
			},
			{
				"type": "unocc",
				"energy": 0.11317,
				"method": "rhf"
			}
		],
		"cosmo_sigma_profile": { 
			"-0.025": 0.0,
			"-0.024": 0.0,
			"-0.023": 0.0,
			"-0.022": 0.0,
			"-0.021": 0.0,
			"-0.02": 0.0,
			"-0.019": 0.735143822415,
			"-0.018": 1.50675052796,
			"-0.017": 1.18307938005,
			"-0.016": 1.2161060613,
			"-0.015": 0.927541133656,
			"-0.014": 1.23768218517,
			"-0.013": 0.765034335356,
			"-0.012": 0.981154943894,
			"-0.011": 1.0674652874,
			"-0.01": 1.02013100242,
			"-0.009": 1.72850456367,
			"-0.008": 1.97413341655,
			"-0.007": 5.01252730867,
			"-0.006": 5.06173315023,
			"-0.005": 5.33368657898,
			"-0.004": 5.77619046832,
			"-0.003": 8.12183102008,
			"-0.002": 8.70625456849,
			"-0.001": 10.3936513891,
			"0.0": 14.4671842981,
			"0.001": 24.0195903183,
			"0.002": 30.0487738633,
			"0.003": 35.7327048983,
			"0.004": 17.7358140245,
			"0.005": 4.18278681511,
			"0.006": 2.45590030638,
			"0.007": 1.97905265906,
			"0.008": 3.50968760548,
			"0.009": 1.37183149283,
			"0.01": 0.0,
			"0.011": 0.0,
			"0.012": 0.0,
			"0.013": 0.0,
			"0.014": 0.0,
			"0.015": 0.0,
			"0.016": 0.0,
			"0.017": 0.0,
			"0.018": 0.0,
			"0.019": 0.0,
			"0.02": 0.0,
			"0.021": 0.0,
			"0.022": 0.0,
			"0.023": 0.0,
			"0.024": 0.0,
			"0.025": 0.0
		}
	}
}
