{
	 "smiles": "COC1=CC=C(C=C1)N1C(C)=CC(C(O)=O)=C1C", 
	 "Tm": 506.15, 
	 "num_atms": 33, 
	 "gaussian": { 
		 "optdone": 1, 
		 "sigma_profile": "yes", 
		 "theory": "DFT", 
		 "functional": "B3LYP", 
		 "basiset": "6-31G**", 
		 "properties": { 
			 "R2extent": 6426.5625, 
			 "electric_dipole_moment_norm": 7.64945721342, 
			 "electric_quadrupole_moment_norm": 34.3885887903, 
			 "total_energy": -822.95884618, 
			 "HOMO_LUMO_gap": 0.18392, 
			 "cosmo_polarized_energy": -17.72, 
			 "cosmo_cavitation_energy": 36.97, 
			 "cosmo_dispersion_energy": -25.67, 
			 "cosmo_repulsion_energy": 1.99, 
			 "cosmo_total_nonelectrostatic_energy": 13.29, 
			 "SMD_solvation_energy": 8.37 
		},
		"coords": [
			{
				"x": 2.831845724,
				"y": 2.4537616934,
				"z": 4.3152975751,
				"element": "C" 
			},
			{
				"x": 2.3582715158,
				"y": 1.1320950514,
				"z": 4.098396486,
				"element": "O" 
			},
			{
				"x": 1.8587563637,
				"y": 0.8154803101,
				"z": 2.8728904078,
				"element": "C" 
			},
			{
				"x": 1.4157837219,
				"y": -0.5087174768,
				"z": 2.7213482665,
				"element": "C" 
			},
			{
				"x": 0.890612546,
				"y": -0.9350207959,
				"z": 1.5092968555,
				"element": "C" 
			},
			{
				"x": 0.7950450378,
				"y": -0.0470451661,
				"z": 0.4292310926,
				"element": "C" 
			},
			{
				"x": 1.233045367,
				"y": 1.2680056822,
				"z": 0.581067409,
				"element": "C" 
			},
			{
				"x": 1.7664753022,
				"y": 1.7061267325,
				"z": 1.7953988193,
				"element": "C" 
			},
			{
				"x": 0.2487579373,
				"y": -0.4870946423,
				"z": -0.8203077838,
				"element": "N" 
			},
			{
				"x": -1.1128753695,
				"y": -0.5180809683,
				"z": -1.1270041483,
				"element": "C" 
			},
			{
				"x": -2.1581562587,
				"y": -0.0515325689,
				"z": -0.1662477387,
				"element": "C" 
			},
			{
				"x": -1.2284423216,
				"y": -1.0072722914,
				"z": -2.4027258745,
				"element": "C" 
			},
			{
				"x": 0.0904845646,
				"y": -1.2826448622,
				"z": -2.8991046531,
				"element": "C" 
			},
			{
				"x": 0.4629060768,
				"y": -1.8254696895,
				"z": -4.2161308405,
				"element": "C" 
			},
			{
				"x": -0.5664089306,
				"y": -2.3295442968,
				"z": -4.9613294833,
				"element": "O" 
			},
			{
				"x": 1.5859850756,
				"y": -1.8552582795,
				"z": -4.6773757138,
				"element": "O" 
			},
			{
				"x": 0.989649661,
				"y": -0.9440835582,
				"z": -1.8919157491,
				"element": "C" 
			},
			{
				"x": 2.4799770694,
				"y": -1.0379306854,
				"z": -1.8459963579,
				"element": "C" 
			},
			{
				"x": 3.6633328031,
				"y": 2.7000591003,
				"z": 3.6429924363,
				"element": "H" 
			},
			{
				"x": 2.0330352226,
				"y": 3.195209029,
				"z": 4.1874224657,
				"element": "H" 
			},
			{
				"x": 3.1843804159,
				"y": 2.4805040232,
				"z": 5.3471192783,
				"element": "H" 
			},
			{
				"x": 1.4984230773,
				"y": -1.1821864556,
				"z": 3.567723156,
				"element": "H" 
			},
			{
				"x": 0.5535501798,
				"y": -1.9598684841,
				"z": 1.3881829291,
				"element": "H" 
			},
			{
				"x": 1.1565373608,
				"y": 1.9543776806,
				"z": -0.2566272215,
				"element": "H" 
			},
			{
				"x": 2.1015062429,
				"y": 2.7320252431,
				"z": 1.8877044436,
				"element": "H" 
			},
			{
				"x": -3.1442045938,
				"y": -0.1468558327,
				"z": -0.6270463329,
				"element": "H" 
			},
			{
				"x": -2.0190955502,
				"y": 0.9981199965,
				"z": 0.1184009824,
				"element": "H" 
			},
			{
				"x": -2.1622804325,
				"y": -0.6368742021,
				"z": 0.7607641519,
				"element": "H" 
			},
			{
				"x": -2.1684087554,
				"y": -1.1049515933,
				"z": -2.9318819874,
				"element": "H" 
			},
			{
				"x": -1.3731309034,
				"y": -2.3499039951,
				"z": -4.4290619832,
				"element": "H" 
			},
			{
				"x": 2.8177191457,
				"y": -1.6831839526,
				"z": -1.0264487051,
				"element": "H" 
			},
			{
				"x": 2.8346216453,
				"y": -1.4399082733,
				"z": -2.7941624363,
				"element": "H" 
			},
			{
				"x": 2.939701059,
				"y": -0.0548364722,
				"z": -1.6911697453,
				"element": "H" 
			}
		],
		 "valence_orbital": [ 
			{
				"type": "occ",
				"energy": -0.27169,
				"method": "rhf"
			},
			{
				"type": "occ",
				"energy": -0.25099,
				"method": "rhf"
			},
			{
				"type": "occ",
				"energy": -0.24665,
				"method": "rhf"
			},
			{
				"type": "occ",
				"energy": -0.2371,
				"method": "rhf"
			},
			{
				"type": "occ",
				"energy": -0.20703,
				"method": "rhf"
			},
			{
				"type": "unocc",
				"energy": -0.02311,
				"method": "rhf"
			},
			{
				"type": "unocc",
				"energy": -0.01203,
				"method": "rhf"
			},
			{
				"type": "unocc",
				"energy": -0.00221,
				"method": "rhf"
			},
			{
				"type": "unocc",
				"energy": 0.03633,
				"method": "rhf"
			},
			{
				"type": "unocc",
				"energy": 0.07445,
				"method": "rhf"
			}
		],
		"cosmo_sigma_profile": { 
			"-0.025": 0.0,
			"-0.024": 0.0,
			"-0.023": 0.0,
			"-0.022": 0.0,
			"-0.021": 0.0,
			"-0.02": 0.0,
			"-0.019": 0.0,
			"-0.018": 0.0307912425936,
			"-0.017": 0.485060098695,
			"-0.016": 0.949009249587,
			"-0.015": 1.11572143852,
			"-0.014": 0.773137359275,
			"-0.013": 0.548027233168,
			"-0.012": 0.601913506185,
			"-0.011": 1.27917786429,
			"-0.01": 2.08169347224,
			"-0.009": 0.576404474814,
			"-0.008": 0.808088227229,
			"-0.007": 5.47318759996,
			"-0.006": 14.2755572555,
			"-0.005": 22.0176006905,
			"-0.004": 25.3107868196,
			"-0.003": 26.9416768737,
			"-0.002": 24.8671800827,
			"-0.001": 24.8293627515,
			"0.0": 23.6293088237,
			"0.001": 17.7996793653,
			"0.002": 15.6708612308,
			"0.003": 15.5796636977,
			"0.004": 19.4074753671,
			"0.005": 8.24489643256,
			"0.006": 6.25638709269,
			"0.007": 5.36796773545,
			"0.008": 3.9469239883,
			"0.009": 4.23447520048,
			"0.01": 4.84074236718,
			"0.011": 4.3963237666,
			"0.012": 5.00547306902,
			"0.013": 3.99098249022,
			"0.014": 2.03525676569,
			"0.015": 0.189585235071,
			"0.016": 0.0,
			"0.017": 0.0,
			"0.018": 0.0,
			"0.019": 0.0,
			"0.02": 0.0,
			"0.021": 0.0,
			"0.022": 0.0,
			"0.023": 0.0,
			"0.024": 0.0,
			"0.025": 0.0
		}
	}
}
