{
	 "smiles": "[O-][N+](=O)C1=C(NC2=C(F)C=C(F)C=C2)C=CC=C1", 
	 "Tm": 353.15, 
	 "num_atms": 26, 
	 "gaussian": { 
		 "optdone": 1, 
		 "sigma_profile": "yes", 
		 "theory": "DFT", 
		 "functional": "B3LYP", 
		 "basiset": "6-31G**", 
		 "properties": { 
			 "R2extent": 5281.9481, 
			 "electric_dipole_moment_norm": 4.42797619461, 
			 "electric_quadrupole_moment_norm": 13.9043714676, 
			 "total_energy": -921.619649493, 
			 "HOMO_LUMO_gap": 0.12581, 
			 "cosmo_polarized_energy": -9.75, 
			 "cosmo_cavitation_energy": 32.03, 
			 "cosmo_dispersion_energy": -23.1, 
			 "cosmo_repulsion_energy": 1.71, 
			 "cosmo_total_nonelectrostatic_energy": 10.64, 
			 "SMD_solvation_energy": 8.21 
		},
		"coords": [
			{
				"x": -2.21212927,
				"y": 0.3832629434,
				"z": -3.6771082646,
				"element": "O" 
			},
			{
				"x": -1.5328903361,
				"y": 0.5343591825,
				"z": -2.6622238808,
				"element": "N" 
			},
			{
				"x": -1.6678175188,
				"y": 1.5185355451,
				"z": -1.907712205,
				"element": "O" 
			},
			{
				"x": -0.5342536232,
				"y": -0.4686909445,
				"z": -2.3384975751,
				"element": "C" 
			},
			{
				"x": 0.1793720292,
				"y": -0.4671666308,
				"z": -1.1014696883,
				"element": "C" 
			},
			{
				"x": -0.0491315718,
				"y": 0.4803340999,
				"z": -0.1365158439,
				"element": "N" 
			},
			{
				"x": 0.4103558575,
				"y": 0.5095307149,
				"z": 1.1880023424,
				"element": "C" 
			},
			{
				"x": 0.7084260824,
				"y": 1.762877279,
				"z": 1.747853272,
				"element": "C" 
			},
			{
				"x": 0.5715230855,
				"y": 2.8520204141,
				"z": 0.9644733159,
				"element": "F" 
			},
			{
				"x": 1.1165170109,
				"y": 1.9244324876,
				"z": 3.0620380512,
				"element": "C" 
			},
			{
				"x": 1.2366607938,
				"y": 0.7817858161,
				"z": 3.8467028231,
				"element": "C" 
			},
			{
				"x": 1.6430608086,
				"y": 0.9127986922,
				"z": 5.1239194902,
				"element": "F" 
			},
			{
				"x": 0.9401828449,
				"y": -0.4819929675,
				"z": 3.350756875,
				"element": "C" 
			},
			{
				"x": 0.5137483859,
				"y": -0.6093318142,
				"z": 2.0286860941,
				"element": "C" 
			},
			{
				"x": 1.1522396545,
				"y": -1.484768528,
				"z": -0.9398297629,
				"element": "C" 
			},
			{
				"x": 1.3761636019,
				"y": -2.4381579951,
				"z": -1.9172480119,
				"element": "C" 
			},
			{
				"x": 0.6439223839,
				"y": -2.4380808358,
				"z": -3.114715146,
				"element": "C" 
			},
			{
				"x": -0.2998962776,
				"y": -1.448860323,
				"z": -3.3156120229,
				"element": "C" 
			},
			{
				"x": -0.5991900896,
				"y": 1.2710606504,
				"z": -0.4623761583,
				"element": "H" 
			},
			{
				"x": 1.3388466122,
				"y": 2.9085142375,
				"z": 3.4560603741,
				"element": "H" 
			},
			{
				"x": 1.0237383734,
				"y": -1.3463402005,
				"z": 3.999474229,
				"element": "H" 
			},
			{
				"x": 0.2395407197,
				"y": -1.5864407183,
				"z": 1.6488983859,
				"element": "H" 
			},
			{
				"x": 1.752874907,
				"y": -1.4896240831,
				"z": -0.0393727347,
				"element": "H" 
			},
			{
				"x": 2.1431593144,
				"y": -3.1892537364,
				"z": -1.7508948742,
				"element": "H" 
			},
			{
				"x": 0.8219465478,
				"y": -3.1894554984,
				"z": -3.8758971193,
				"element": "H" 
			},
			{
				"x": -0.8815703267,
				"y": -1.3946477868,
				"z": -4.226791965,
				"element": "H" 
			}
		],
		 "valence_orbital": [ 
			{
				"type": "occ",
				"energy": -0.29209,
				"method": "rhf"
			},
			{
				"type": "occ",
				"energy": -0.28009,
				"method": "rhf"
			},
			{
				"type": "occ",
				"energy": -0.27556,
				"method": "rhf"
			},
			{
				"type": "occ",
				"energy": -0.2668,
				"method": "rhf"
			},
			{
				"type": "occ",
				"energy": -0.21461,
				"method": "rhf"
			},
			{
				"type": "unocc",
				"energy": -0.0888,
				"method": "rhf"
			},
			{
				"type": "unocc",
				"energy": -0.0322,
				"method": "rhf"
			},
			{
				"type": "unocc",
				"energy": -0.02131,
				"method": "rhf"
			},
			{
				"type": "unocc",
				"energy": -0.00153,
				"method": "rhf"
			},
			{
				"type": "unocc",
				"energy": 0.00927,
				"method": "rhf"
			}
		],
		"cosmo_sigma_profile": { 
			"-0.025": 0.0,
			"-0.024": 0.0,
			"-0.023": 0.0,
			"-0.022": 0.0,
			"-0.021": 0.0,
			"-0.02": 0.0,
			"-0.019": 0.0,
			"-0.018": 0.0,
			"-0.017": 0.0,
			"-0.016": 0.0,
			"-0.015": 0.0,
			"-0.014": 0.0,
			"-0.013": 0.0,
			"-0.012": 0.0,
			"-0.011": 0.0,
			"-0.01": 0.0205167999206,
			"-0.009": 1.12182661004,
			"-0.008": 3.67697311598,
			"-0.007": 9.38487997906,
			"-0.006": 15.4467506349,
			"-0.005": 15.9682346686,
			"-0.004": 15.3747930522,
			"-0.003": 13.7428782058,
			"-0.002": 15.634414434,
			"-0.001": 20.5973584834,
			"0.0": 27.2436304169,
			"0.001": 29.9403925672,
			"0.002": 22.8012775606,
			"0.003": 22.9848222632,
			"0.004": 17.814423008,
			"0.005": 3.81563976133,
			"0.006": 2.91577637944,
			"0.007": 3.76835980237,
			"0.008": 6.96327349925,
			"0.009": 4.20345136369,
			"0.01": 3.94194722947,
			"0.011": 1.58945202655,
			"0.012": 0.0,
			"0.013": 0.0,
			"0.014": 0.0,
			"0.015": 0.0,
			"0.016": 0.0,
			"0.017": 0.0,
			"0.018": 0.0,
			"0.019": 0.0,
			"0.02": 0.0,
			"0.021": 0.0,
			"0.022": 0.0,
			"0.023": 0.0,
			"0.024": 0.0,
			"0.025": 0.0
		}
	}
}
