{
	 "smiles": "CCNC1=C(N)N(CC)C(=O)NC1=O", 
	 "Tm": 484.15, 
	 "num_atms": 28, 
	 "gaussian": { 
		 "optdone": 1, 
		 "sigma_profile": "yes", 
		 "theory": "DFT", 
		 "functional": "B3LYP", 
		 "basiset": "6-31G**", 
		 "properties": { 
			 "R2extent": 3243.6201, 
			 "electric_dipole_moment_norm": 4.81696218794, 
			 "electric_quadrupole_moment_norm": 6.35818422743, 
			 "total_energy": -682.793390897, 
			 "HOMO_LUMO_gap": 0.19803, 
			 "cosmo_polarized_energy": -17.43, 
			 "cosmo_cavitation_energy": 31.09, 
			 "cosmo_dispersion_energy": -22.13, 
			 "cosmo_repulsion_energy": 1.76, 
			 "cosmo_total_nonelectrostatic_energy": 10.73, 
			 "SMD_solvation_energy": 6.07 
		},
		"coords": [
			{
				"x": -1.9425341509,
				"y": -3.6389032761,
				"z": 1.9109943858,
				"element": "C" 
			},
			{
				"x": -1.3378947015,
				"y": -2.6676967794,
				"z": 0.9019140169,
				"element": "C" 
			},
			{
				"x": -0.4891626271,
				"y": -1.6664729982,
				"z": 1.5889165368,
				"element": "N" 
			},
			{
				"x": 0.131286942,
				"y": -0.7279226384,
				"z": 0.7101118725,
				"element": "C" 
			},
			{
				"x": -0.3727068918,
				"y": 0.5520546514,
				"z": 0.6479761621,
				"element": "C" 
			},
			{
				"x": -1.4888933185,
				"y": 0.8885121197,
				"z": 1.3794896011,
				"element": "N" 
			},
			{
				"x": 0.1781742369,
				"y": 1.5131735198,
				"z": -0.1877768035,
				"element": "N" 
			},
			{
				"x": -0.4109585893,
				"y": 2.85515087,
				"z": -0.3345026346,
				"element": "C" 
			},
			{
				"x": 0.1646681896,
				"y": 3.8761246224,
				"z": 0.6500621038,
				"element": "C" 
			},
			{
				"x": 1.3225622678,
				"y": 1.248138581,
				"z": -0.9574843878,
				"element": "C" 
			},
			{
				"x": 1.8341720483,
				"y": 2.0960526478,
				"z": -1.6745645693,
				"element": "O" 
			},
			{
				"x": 1.8093514131,
				"y": -0.0347259251,
				"z": -0.8419565853,
				"element": "N" 
			},
			{
				"x": 1.2951856639,
				"y": -1.0896825186,
				"z": -0.0576298588,
				"element": "C" 
			},
			{
				"x": 1.8556497856,
				"y": -2.1825488568,
				"z": -0.0460032558,
				"element": "O" 
			},
			{
				"x": -1.1605272653,
				"y": -4.2027697118,
				"z": 2.4328931244,
				"element": "H" 
			},
			{
				"x": -2.5916081414,
				"y": -4.3630750475,
				"z": 1.4090750734,
				"element": "H" 
			},
			{
				"x": -2.5329323392,
				"y": -3.1059913944,
				"z": 2.6632469072,
				"element": "H" 
			},
			{
				"x": -0.7656786268,
				"y": -3.217672204,
				"z": 0.1412376292,
				"element": "H" 
			},
			{
				"x": -2.1327692598,
				"y": -2.1219262912,
				"z": 0.3807597035,
				"element": "H" 
			},
			{
				"x": 0.2466042244,
				"y": -2.1720256825,
				"z": 2.0804763714,
				"element": "H" 
			},
			{
				"x": -1.6764799309,
				"y": 0.156390551,
				"z": 2.0613975936,
				"element": "H" 
			},
			{
				"x": -1.5296672668,
				"y": 1.8267722698,
				"z": 1.7520591292,
				"element": "H" 
			},
			{
				"x": -0.1956360954,
				"y": 3.1709064634,
				"z": -1.3555421932,
				"element": "H" 
			},
			{
				"x": -1.4940711734,
				"y": 2.7538989067,
				"z": -0.231094685,
				"element": "H" 
			},
			{
				"x": 1.2400334673,
				"y": 3.9847136081,
				"z": 0.4893090409,
				"element": "H" 
			},
			{
				"x": 0.003179004,
				"y": 3.5851523939,
				"z": 1.6941968041,
				"element": "H" 
			},
			{
				"x": -0.3060846794,
				"y": 4.8521212108,
				"z": 0.4949955641,
				"element": "H" 
			},
			{
				"x": 2.6372378147,
				"y": -0.2373490919,
				"z": -1.3882566463,
				"element": "H" 
			}
		],
		 "valence_orbital": [ 
			{
				"type": "occ",
				"energy": -0.28469,
				"method": "rhf"
			},
			{
				"type": "occ",
				"energy": -0.27249,
				"method": "rhf"
			},
			{
				"type": "occ",
				"energy": -0.25657,
				"method": "rhf"
			},
			{
				"type": "occ",
				"energy": -0.24391,
				"method": "rhf"
			},
			{
				"type": "occ",
				"energy": -0.20875,
				"method": "rhf"
			},
			{
				"type": "unocc",
				"energy": -0.01072,
				"method": "rhf"
			},
			{
				"type": "unocc",
				"energy": 0.02076,
				"method": "rhf"
			},
			{
				"type": "unocc",
				"energy": 0.05591,
				"method": "rhf"
			},
			{
				"type": "unocc",
				"energy": 0.09188,
				"method": "rhf"
			},
			{
				"type": "unocc",
				"energy": 0.1016,
				"method": "rhf"
			}
		],
		"cosmo_sigma_profile": { 
			"-0.025": 0.0,
			"-0.024": 0.0,
			"-0.023": 0.0,
			"-0.022": 0.0,
			"-0.021": 0.0,
			"-0.02": 0.0,
			"-0.019": 0.0,
			"-0.018": 0.0,
			"-0.017": 0.0,
			"-0.016": 0.0523979578775,
			"-0.015": 0.578352424782,
			"-0.014": 0.909029520636,
			"-0.013": 1.53543914156,
			"-0.012": 2.80256493866,
			"-0.011": 2.37812239062,
			"-0.01": 2.98714279947,
			"-0.009": 4.24187521079,
			"-0.008": 4.4881558148,
			"-0.007": 4.23934505273,
			"-0.006": 6.00203679392,
			"-0.005": 8.93215625134,
			"-0.004": 14.1374771722,
			"-0.003": 23.6280507632,
			"-0.002": 25.7336897739,
			"-0.001": 27.4845808239,
			"0.0": 26.0137655508,
			"0.001": 21.3148715049,
			"0.002": 8.54267432645,
			"0.003": 5.00393170739,
			"0.004": 4.87224981615,
			"0.005": 4.76301730767,
			"0.006": 4.2797277276,
			"0.007": 4.17160407141,
			"0.008": 4.20855262072,
			"0.009": 5.22268794773,
			"0.01": 4.58101627072,
			"0.011": 3.08986817089,
			"0.012": 4.14123968133,
			"0.013": 5.23009409603,
			"0.014": 6.51316916655,
			"0.015": 1.29900534036,
			"0.016": 0.0,
			"0.017": 0.0,
			"0.018": 0.0,
			"0.019": 0.0,
			"0.02": 0.0,
			"0.021": 0.0,
			"0.022": 0.0,
			"0.023": 0.0,
			"0.024": 0.0,
			"0.025": 0.0
		}
	}
}
