{
	 "smiles": "O=C(CC1=CC=CC=C1)C(CC1=CC=CC=C1)=NNC1=CC=CC=C1", 
	 "Tm": 410.15, 
	 "num_atms": 45, 
	 "gaussian": { 
		 "optdone": 1, 
		 "sigma_profile": "yes", 
		 "theory": "DFT", 
		 "functional": "B3LYP", 
		 "basiset": "6-31G**", 
		 "properties": { 
			 "R2extent": 9382.4268, 
			 "electric_dipole_moment_norm": 1.84601381631, 
			 "electric_quadrupole_moment_norm": 10.7440637182, 
			 "total_energy": -1035.07427009, 
			 "HOMO_LUMO_gap": 0.15101, 
			 "cosmo_polarized_energy": -14.25, 
			 "cosmo_cavitation_energy": 49.33, 
			 "cosmo_dispersion_energy": -31.43, 
			 "cosmo_repulsion_energy": 2.4, 
			 "cosmo_total_nonelectrostatic_energy": 20.29, 
			 "SMD_solvation_energy": 7.45 
		},
		"coords": [
			{
				"x": -1.1122478037,
				"y": 0.3536217786,
				"z": -1.7819822609,
				"element": "O" 
			},
			{
				"x": -0.491716614,
				"y": 0.1830215864,
				"z": -0.7496042197,
				"element": "C" 
			},
			{
				"x": 1.010657687,
				"y": 0.4218333578,
				"z": -0.6170986122,
				"element": "C" 
			},
			{
				"x": 1.6124815787,
				"y": 1.2520803711,
				"z": -1.7248963229,
				"element": "C" 
			},
			{
				"x": 1.9435041431,
				"y": 0.6696755984,
				"z": -2.9547868538,
				"element": "C" 
			},
			{
				"x": 2.4925741043,
				"y": 1.4375366246,
				"z": -3.981508959,
				"element": "C" 
			},
			{
				"x": 2.7167561157,
				"y": 2.8027341243,
				"z": -3.7918913722,
				"element": "C" 
			},
			{
				"x": 2.3861134993,
				"y": 3.3932292538,
				"z": -2.5711925762,
				"element": "C" 
			},
			{
				"x": 1.8368256102,
				"y": 2.6225391876,
				"z": -1.5452672702,
				"element": "C" 
			},
			{
				"x": -1.201087733,
				"y": -0.4572675459,
				"z": 0.4401299266,
				"element": "C" 
			},
			{
				"x": -1.9397824241,
				"y": -1.740647268,
				"z": 0.1059162224,
				"element": "C" 
			},
			{
				"x": -1.0038599043,
				"y": -2.8387359845,
				"z": -0.3753432332,
				"element": "C" 
			},
			{
				"x": -0.8738224781,
				"y": -3.133556485,
				"z": -1.7385688689,
				"element": "C" 
			},
			{
				"x": 0.0048333149,
				"y": -4.1295937083,
				"z": -2.1710019125,
				"element": "C" 
			},
			{
				"x": 0.7670046993,
				"y": -4.8428926925,
				"z": -1.244764078,
				"element": "C" 
			},
			{
				"x": 0.6476610392,
				"y": -4.5536765745,
				"z": 0.1168531451,
				"element": "C" 
			},
			{
				"x": -0.2288540973,
				"y": -3.5572435387,
				"z": 0.5465341911,
				"element": "C" 
			},
			{
				"x": -1.2312940618,
				"y": -0.0620424768,
				"z": 1.6630124454,
				"element": "N" 
			},
			{
				"x": -0.5798382291,
				"y": 1.1165256067,
				"z": 2.0277454393,
				"element": "N" 
			},
			{
				"x": -0.9083232602,
				"y": 2.4037271072,
				"z": 1.5109557646,
				"element": "C" 
			},
			{
				"x": -1.8988711654,
				"y": 2.6392276881,
				"z": 0.5492429764,
				"element": "C" 
			},
			{
				"x": -2.1517582637,
				"y": 3.9440400606,
				"z": 0.1199312599,
				"element": "C" 
			},
			{
				"x": -1.4425050179,
				"y": 5.0246586679,
				"z": 0.6419558457,
				"element": "C" 
			},
			{
				"x": -0.4615932172,
				"y": 4.7889996726,
				"z": 1.609324843,
				"element": "C" 
			},
			{
				"x": -0.1900012699,
				"y": 3.4922494399,
				"z": 2.0364444769,
				"element": "C" 
			},
			{
				"x": 1.4475417616,
				"y": -0.5885868848,
				"z": -0.6053575789,
				"element": "H" 
			},
			{
				"x": 1.2145112003,
				"y": 0.844186085,
				"z": 0.370585446,
				"element": "H" 
			},
			{
				"x": 1.7689371179,
				"y": -0.3924116825,
				"z": -3.1065400918,
				"element": "H" 
			},
			{
				"x": 2.7464159518,
				"y": 0.9700843992,
				"z": -4.9288805851,
				"element": "H" 
			},
			{
				"x": 3.1470779251,
				"y": 3.4014047888,
				"z": -4.5897960816,
				"element": "H" 
			},
			{
				"x": 2.556556156,
				"y": 4.4549027735,
				"z": -2.4153682581,
				"element": "H" 
			},
			{
				"x": 1.5762450492,
				"y": 3.0885456906,
				"z": -0.5984260645,
				"element": "H" 
			},
			{
				"x": -2.477299986,
				"y": -2.0538136819,
				"z": 1.0047213596,
				"element": "H" 
			},
			{
				"x": -2.6734458169,
				"y": -1.5154459758,
				"z": -0.6756225046,
				"element": "H" 
			},
			{
				"x": -1.4624578687,
				"y": -2.5769673041,
				"z": -2.4626993909,
				"element": "H" 
			},
			{
				"x": 0.0903024029,
				"y": -4.3490261193,
				"z": -3.2316166902,
				"element": "H" 
			},
			{
				"x": 1.4479289686,
				"y": -5.6199466752,
				"z": -1.5800896298,
				"element": "H" 
			},
			{
				"x": 1.2359548245,
				"y": -5.1058646653,
				"z": 0.844484303,
				"element": "H" 
			},
			{
				"x": -0.3185571049,
				"y": -3.3326860287,
				"z": 1.606568149,
				"element": "H" 
			},
			{
				"x": -0.5545691001,
				"y": 1.1370758798,
				"z": 3.0401228196,
				"element": "H" 
			},
			{
				"x": -2.4762884585,
				"y": 1.8218075813,
				"z": 0.1368456515,
				"element": "H" 
			},
			{
				"x": -2.9211622876,
				"y": 4.1089583999,
				"z": -0.6287476612,
				"element": "H" 
			},
			{
				"x": -1.6470160354,
				"y": 6.0343505618,
				"z": 0.3001580348,
				"element": "H" 
			},
			{
				"x": 0.1024670249,
				"y": 5.6170646515,
				"z": 2.0294082727,
				"element": "H" 
			},
			{
				"x": 0.5835020232,
				"y": 3.3098243548,
				"z": 2.7783105037,
				"element": "H" 
			}
		],
		 "valence_orbital": [ 
			{
				"type": "occ",
				"energy": -0.25119,
				"method": "rhf"
			},
			{
				"type": "occ",
				"energy": -0.24489,
				"method": "rhf"
			},
			{
				"type": "occ",
				"energy": -0.24059,
				"method": "rhf"
			},
			{
				"type": "occ",
				"energy": -0.23271,
				"method": "rhf"
			},
			{
				"type": "occ",
				"energy": -0.20384,
				"method": "rhf"
			},
			{
				"type": "unocc",
				"energy": -0.05283,
				"method": "rhf"
			},
			{
				"type": "unocc",
				"energy": -0.01104,
				"method": "rhf"
			},
			{
				"type": "unocc",
				"energy": -0.00491,
				"method": "rhf"
			},
			{
				"type": "unocc",
				"energy": -0.00086,
				"method": "rhf"
			},
			{
				"type": "unocc",
				"energy": 0.00371,
				"method": "rhf"
			}
		],
		"cosmo_sigma_profile": { 
			"-0.025": 0.0,
			"-0.024": 0.0,
			"-0.023": 0.0,
			"-0.022": 0.0,
			"-0.021": 0.0,
			"-0.02": 0.0,
			"-0.019": 0.0,
			"-0.018": 0.0,
			"-0.017": 0.0,
			"-0.016": 0.0,
			"-0.015": 0.0174334848858,
			"-0.014": 0.654031495783,
			"-0.013": 1.4132844566,
			"-0.012": 0.324792892248,
			"-0.011": 1.64448844154,
			"-0.01": 0.900063602603,
			"-0.009": 0.910646543266,
			"-0.008": 1.32405165509,
			"-0.007": 2.0648275028,
			"-0.006": 12.2338728921,
			"-0.005": 32.8838256557,
			"-0.004": 39.0185811694,
			"-0.003": 41.5538038407,
			"-0.002": 29.8375260426,
			"-0.001": 29.7178126735,
			"0.0": 25.8797983971,
			"0.001": 27.8642667117,
			"0.002": 27.3696292641,
			"0.003": 26.177555452,
			"0.004": 27.699863077,
			"0.005": 25.2695964991,
			"0.006": 17.8228487678,
			"0.007": 3.92055099852,
			"0.008": 3.43453603847,
			"0.009": 3.14140051069,
			"0.01": 3.11822939122,
			"0.011": 4.72893350418,
			"0.012": 1.77981333298,
			"0.013": 0.479144237639,
			"0.014": 0.102908111819,
			"0.015": 0.0,
			"0.016": 0.0,
			"0.017": 0.0,
			"0.018": 0.0,
			"0.019": 0.0,
			"0.02": 0.0,
			"0.021": 0.0,
			"0.022": 0.0,
			"0.023": 0.0,
			"0.024": 0.0,
			"0.025": 0.0
		}
	}
}
