{
	 "smiles": "OC(=O)CCC(=O)N1CC(=O)NC2=C1C=CC=C2", 
	 "Tm": 455.15, 
	 "num_atms": 30, 
	 "gaussian": { 
		 "optdone": 1, 
		 "sigma_profile": "yes", 
		 "theory": "DFT", 
		 "functional": "B3LYP", 
		 "basiset": "6-31G**", 
		 "properties": { 
			 "R2extent": 5333.602, 
			 "electric_dipole_moment_norm": 6.82726583341, 
			 "electric_quadrupole_moment_norm": 12.5991549582, 
			 "total_energy": -874.953833592, 
			 "HOMO_LUMO_gap": 0.19585, 
			 "cosmo_polarized_energy": -23.77, 
			 "cosmo_cavitation_energy": 34.12, 
			 "cosmo_dispersion_energy": -24.44, 
			 "cosmo_repulsion_energy": 1.91, 
			 "cosmo_total_nonelectrostatic_energy": 11.59, 
			 "SMD_solvation_energy": 7.53 
		},
		"coords": [
			{
				"x": -1.28783485,
				"y": -4.4564973777,
				"z": 0.7885347192,
				"element": "O" 
			},
			{
				"x": -1.5461515236,
				"y": -4.1995673569,
				"z": -0.520165933,
				"element": "C" 
			},
			{
				"x": -1.5510939705,
				"y": -5.0657831518,
				"z": -1.363217292,
				"element": "O" 
			},
			{
				"x": -1.9158099089,
				"y": -2.7491222476,
				"z": -0.7604666537,
				"element": "C" 
			},
			{
				"x": -1.2228349825,
				"y": -1.7305534168,
				"z": 0.150460306,
				"element": "C" 
			},
			{
				"x": 0.2795578842,
				"y": -1.7029725907,
				"z": -0.1102222106,
				"element": "C" 
			},
			{
				"x": 0.829033215,
				"y": -2.6241750925,
				"z": -0.7003871069,
				"element": "O" 
			},
			{
				"x": 1.0110047043,
				"y": -0.594688066,
				"z": 0.3117608001,
				"element": "N" 
			},
			{
				"x": 2.3924560757,
				"y": -0.4735844474,
				"z": -0.1638179826,
				"element": "C" 
			},
			{
				"x": 2.5961917516,
				"y": 0.7925008345,
				"z": -0.9910603626,
				"element": "C" 
			},
			{
				"x": 3.4331519806,
				"y": 0.8967420909,
				"z": -1.8682806315,
				"element": "O" 
			},
			{
				"x": 1.7634784487,
				"y": 1.8354746872,
				"z": -0.6328569774,
				"element": "N" 
			},
			{
				"x": 0.8973457318,
				"y": 1.8065260212,
				"z": 0.4683582986,
				"element": "C" 
			},
			{
				"x": 0.4997910522,
				"y": 0.5519512295,
				"z": 0.9763753033,
				"element": "C" 
			},
			{
				"x": -0.3100820161,
				"y": 0.5040892604,
				"z": 2.1143635764,
				"element": "C" 
			},
			{
				"x": -0.787045625,
				"y": 1.6800486457,
				"z": 2.6946503408,
				"element": "C" 
			},
			{
				"x": -0.4239306419,
				"y": 2.9178809279,
				"z": 2.1617748214,
				"element": "C" 
			},
			{
				"x": 0.4292554053,
				"y": 2.9822633382,
				"z": 1.0614144079,
				"element": "C" 
			},
			{
				"x": -1.0767697652,
				"y": -5.403834356,
				"z": 0.8332620282,
				"element": "H" 
			},
			{
				"x": -3.0002848798,
				"y": -2.6727778525,
				"z": -0.6090707096,
				"element": "H" 
			},
			{
				"x": -1.7210354103,
				"y": -2.5460020005,
				"z": -1.8149160488,
				"element": "H" 
			},
			{
				"x": -1.6548014947,
				"y": -0.7357505208,
				"z": 0.0061863822,
				"element": "H" 
			},
			{
				"x": -1.4015498298,
				"y": -2.0036117574,
				"z": 1.1945667577,
				"element": "H" 
			},
			{
				"x": 3.091700735,
				"y": -0.4537455457,
				"z": 0.6831852968,
				"element": "H" 
			},
			{
				"x": 2.6194254,
				"y": -1.3406597194,
				"z": -0.7809653888,
				"element": "H" 
			},
			{
				"x": 1.9446893454,
				"y": 2.7148069843,
				"z": -1.1004092383,
				"element": "H" 
			},
			{
				"x": -0.5618015456,
				"y": -0.4568702152,
				"z": 2.5476075671,
				"element": "H" 
			},
			{
				"x": -1.4256187484,
				"y": 1.6257090638,
				"z": 3.5703399551,
				"element": "H" 
			},
			{
				"x": -0.7876790168,
				"y": 3.8360418053,
				"z": 2.6121583934,
				"element": "H" 
			},
			{
				"x": 0.7387424791,
				"y": 3.9426608258,
				"z": 0.6580375816,
				"element": "H" 
			}
		],
		 "valence_orbital": [ 
			{
				"type": "occ",
				"energy": -0.27643,
				"method": "rhf"
			},
			{
				"type": "occ",
				"energy": -0.26558,
				"method": "rhf"
			},
			{
				"type": "occ",
				"energy": -0.26416,
				"method": "rhf"
			},
			{
				"type": "occ",
				"energy": -0.24878,
				"method": "rhf"
			},
			{
				"type": "occ",
				"energy": -0.22866,
				"method": "rhf"
			},
			{
				"type": "unocc",
				"energy": -0.03281,
				"method": "rhf"
			},
			{
				"type": "unocc",
				"energy": -0.02549,
				"method": "rhf"
			},
			{
				"type": "unocc",
				"energy": 0.01282,
				"method": "rhf"
			},
			{
				"type": "unocc",
				"energy": 0.02224,
				"method": "rhf"
			},
			{
				"type": "unocc",
				"energy": 0.02368,
				"method": "rhf"
			}
		],
		"cosmo_sigma_profile": { 
			"-0.025": 0.0,
			"-0.024": 0.0,
			"-0.023": 0.0,
			"-0.022": 0.0,
			"-0.021": 0.0,
			"-0.02": 0.0,
			"-0.019": 0.0,
			"-0.018": 0.460399549349,
			"-0.017": 1.08474347257,
			"-0.016": 0.813961172198,
			"-0.015": 1.96354229315,
			"-0.014": 1.8423168636,
			"-0.013": 2.81560351172,
			"-0.012": 1.05155804884,
			"-0.011": 1.27497037787,
			"-0.01": 2.33578673516,
			"-0.009": 3.00368329278,
			"-0.008": 5.82754391871,
			"-0.007": 11.0668951172,
			"-0.006": 16.4773525339,
			"-0.005": 22.7285387102,
			"-0.004": 22.7496517252,
			"-0.003": 17.4093502306,
			"-0.002": 16.0377277922,
			"-0.001": 14.0958256007,
			"0.0": 12.2483392664,
			"0.001": 14.6372196581,
			"0.002": 10.8181574828,
			"0.003": 12.8782269664,
			"0.004": 11.8834558007,
			"0.005": 9.18042922027,
			"0.006": 4.99410270782,
			"0.007": 6.16488975721,
			"0.008": 5.2071654913,
			"0.009": 5.35620398615,
			"0.01": 6.08587849116,
			"0.011": 8.21842975175,
			"0.012": 13.1726324991,
			"0.013": 6.41554731835,
			"0.014": 0.558644793482,
			"0.015": 0.0,
			"0.016": 0.0,
			"0.017": 0.0,
			"0.018": 0.0,
			"0.019": 0.0,
			"0.02": 0.0,
			"0.021": 0.0,
			"0.022": 0.0,
			"0.023": 0.0,
			"0.024": 0.0,
			"0.025": 0.0
		}
	}
}
