{
	 "smiles": "CCCCCCCCCCCC(=O)OC1OC(CO)C(OC2OC(CO)C(O)C(O)C2O)C(O)C1O", 
	 "Tm": 468.15, 
	 "num_atms": 80, 
	 "gaussian": { 
		 "optdone": 1, 
		 "sigma_profile": "yes", 
		 "theory": "DFT", 
		 "functional": "B3LYP", 
		 "basiset": "6-31G**", 
		 "properties": { 
			 "R2extent": 26244.5314, 
			 "electric_dipole_moment_norm": 2.88385134672, 
			 "electric_quadrupole_moment_norm": 34.6212036501, 
			 "total_energy": -1843.72345718, 
			 "HOMO_LUMO_gap": 0.24589, 
			 "cosmo_polarized_energy": -32.7, 
			 "cosmo_cavitation_energy": 75.65, 
			 "cosmo_dispersion_energy": -48.24, 
			 "cosmo_repulsion_energy": 3.71, 
			 "cosmo_total_nonelectrostatic_energy": 31.12, 
			 "SMD_solvation_energy": 10.94 
		},
		"coords": [
			{
				"x": 6.2924196379,
				"y": -2.697648616,
				"z": 0.6767771393,
				"element": "C" 
			},
			{
				"x": 6.2730703548,
				"y": -4.2295794738,
				"z": 0.6237708248,
				"element": "C" 
			},
			{
				"x": 4.9657809319,
				"y": -4.8671097038,
				"z": 0.1188826228,
				"element": "C" 
			},
			{
				"x": 3.7120773338,
				"y": -4.6121499332,
				"z": 0.9873457603,
				"element": "C" 
			},
			{
				"x": 2.8597759248,
				"y": -3.4081445325,
				"z": 0.5516472461,
				"element": "C" 
			},
			{
				"x": 1.6581174563,
				"y": -3.1037614062,
				"z": 1.4616387507,
				"element": "C" 
			},
			{
				"x": 0.5710922656,
				"y": -4.1877220522,
				"z": 1.4758807329,
				"element": "C" 
			},
			{
				"x": -0.6256978484,
				"y": -3.8280010013,
				"z": 2.3678854347,
				"element": "C" 
			},
			{
				"x": -1.751516321,
				"y": -4.8710918761,
				"z": 2.3080553327,
				"element": "C" 
			},
			{
				"x": -2.8960392863,
				"y": -4.6631153552,
				"z": 3.3157447447,
				"element": "C" 
			},
			{
				"x": -3.5594642935,
				"y": -3.2779331983,
				"z": 3.2748246227,
				"element": "C" 
			},
			{
				"x": -4.1692424859,
				"y": -2.9435505635,
				"z": 1.9298983244,
				"element": "C" 
			},
			{
				"x": -4.5744756453,
				"y": -3.7382916542,
				"z": 1.1149860058,
				"element": "O" 
			},
			{
				"x": -4.2228294948,
				"y": -1.5857591324,
				"z": 1.7464469488,
				"element": "O" 
			},
			{
				"x": -4.6234767547,
				"y": -1.111405049,
				"z": 0.4396558793,
				"element": "C" 
			},
			{
				"x": -3.5457758244,
				"y": -1.1601281766,
				"z": -0.4451545236,
				"element": "O" 
			},
			{
				"x": -2.6709925082,
				"y": -0.0098709508,
				"z": -0.3834932628,
				"element": "C" 
			},
			{
				"x": -1.4063648693,
				"y": -0.4003958231,
				"z": -1.1297796874,
				"element": "C" 
			},
			{
				"x": -0.7964140088,
				"y": -1.5405375249,
				"z": -0.5416286928,
				"element": "O" 
			},
			{
				"x": -3.4118274383,
				"y": 1.1956785775,
				"z": -0.9754330141,
				"element": "C" 
			},
			{
				"x": -2.7902482082,
				"y": 2.3694285622,
				"z": -0.4512920868,
				"element": "O" 
			},
			{
				"x": -2.6199380937,
				"y": 3.4240369722,
				"z": -1.3809857156,
				"element": "C" 
			},
			{
				"x": -1.7780146155,
				"y": 3.0194384908,
				"z": -2.4475066307,
				"element": "O" 
			},
			{
				"x": -0.5064575732,
				"y": 3.6611976684,
				"z": -2.5705019273,
				"element": "C" 
			},
			{
				"x": 0.2378338422,
				"y": 2.9758916559,
				"z": -3.7085585983,
				"element": "C" 
			},
			{
				"x": 0.6417713059,
				"y": 1.6582858238,
				"z": -3.3236393213,
				"element": "O" 
			},
			{
				"x": 0.2625220787,
				"y": 3.7271537105,
				"z": -1.2366778262,
				"element": "C" 
			},
			{
				"x": 0.721294362,
				"y": 2.4734141756,
				"z": -0.761879751,
				"element": "O" 
			},
			{
				"x": -0.6276747197,
				"y": 4.3376700275,
				"z": -0.1188559853,
				"element": "C" 
			},
			{
				"x": -0.1577108183,
				"y": 5.6093349412,
				"z": 0.3340242691,
				"element": "O" 
			},
			{
				"x": -2.0725033881,
				"y": 4.6011108674,
				"z": -0.572989531,
				"element": "C" 
			},
			{
				"x": -2.1495420215,
				"y": 5.759570616,
				"z": -1.3895083871,
				"element": "O" 
			},
			{
				"x": -4.9348128791,
				"y": 1.1500039578,
				"z": -0.6113276006,
				"element": "C" 
			},
			{
				"x": -5.4730551008,
				"y": 2.4466514229,
				"z": -0.4684346174,
				"element": "O" 
			},
			{
				"x": -5.1847017833,
				"y": 0.3124956048,
				"z": 0.6515158907,
				"element": "C" 
			},
			{
				"x": -4.5640538826,
				"y": 1.0035196707,
				"z": 1.7250805428,
				"element": "O" 
			},
			{
				"x": 7.2799539107,
				"y": -2.3300339508,
				"z": 0.9765539075,
				"element": "H" 
			},
			{
				"x": 6.0593580689,
				"y": -2.2622962087,
				"z": -0.3019724446,
				"element": "H" 
			},
			{
				"x": 5.5663788042,
				"y": -2.3049501852,
				"z": 1.395549851,
				"element": "H" 
			},
			{
				"x": 6.4943869578,
				"y": -4.6259747901,
				"z": 1.6245549778,
				"element": "H" 
			},
			{
				"x": 7.0933276631,
				"y": -4.5708124656,
				"z": -0.0217888206,
				"element": "H" 
			},
			{
				"x": 5.1363937803,
				"y": -5.9489199585,
				"z": 0.0490349723,
				"element": "H" 
			},
			{
				"x": 4.7698634052,
				"y": -4.5305608345,
				"z": -0.9093454623,
				"element": "H" 
			},
			{
				"x": 4.0151824491,
				"y": -4.4849865346,
				"z": 2.0372654931,
				"element": "H" 
			},
			{
				"x": 3.0836927135,
				"y": -5.5105606488,
				"z": 0.9683856499,
				"element": "H" 
			},
			{
				"x": 3.4898844057,
				"y": -2.5127361686,
				"z": 0.4980277542,
				"element": "H" 
			},
			{
				"x": 2.4986056911,
				"y": -3.5801479641,
				"z": -0.4724790177,
				"element": "H" 
			},
			{
				"x": 1.1964208815,
				"y": -2.1673445674,
				"z": 1.127537378,
				"element": "H" 
			},
			{
				"x": 2.0154745752,
				"y": -2.9331263617,
				"z": 2.4882638905,
				"element": "H" 
			},
			{
				"x": 0.2184214906,
				"y": -4.3477267925,
				"z": 0.4466705979,
				"element": "H" 
			},
			{
				"x": 0.9867457056,
				"y": -5.1480882184,
				"z": 1.8091071965,
				"element": "H" 
			},
			{
				"x": -0.2819945382,
				"y": -3.7121413308,
				"z": 3.4066264384,
				"element": "H" 
			},
			{
				"x": -1.0041827159,
				"y": -2.8448887792,
				"z": 2.0569265079,
				"element": "H" 
			},
			{
				"x": -1.3269186812,
				"y": -5.8683091418,
				"z": 2.484593101,
				"element": "H" 
			},
			{
				"x": -2.1694449215,
				"y": -4.8970372128,
				"z": 1.2943181974,
				"element": "H" 
			},
			{
				"x": -3.6631691943,
				"y": -5.4255258429,
				"z": 3.143057392,
				"element": "H" 
			},
			{
				"x": -2.5200910938,
				"y": -4.8170237049,
				"z": 4.335081225,
				"element": "H" 
			},
			{
				"x": -2.858403596,
				"y": -2.483288221,
				"z": 3.5442699828,
				"element": "H" 
			},
			{
				"x": -4.3713996326,
				"y": -3.2327665331,
				"z": 4.0137266943,
				"element": "H" 
			},
			{
				"x": -5.3765300854,
				"y": -1.7925507892,
				"z": 0.0406106736,
				"element": "H" 
			},
			{
				"x": -2.4239722028,
				"y": 0.2086399971,
				"z": 0.6598958648,
				"element": "H" 
			},
			{
				"x": -0.6988142061,
				"y": 0.4280674464,
				"z": -1.0761035941,
				"element": "H" 
			},
			{
				"x": -1.648263244,
				"y": -0.5793834384,
				"z": -2.1895433225,
				"element": "H" 
			},
			{
				"x": -1.4860777351,
				"y": -2.2181675575,
				"z": -0.5015822939,
				"element": "H" 
			},
			{
				"x": -3.3094088722,
				"y": 1.1890993576,
				"z": -2.0656062936,
				"element": "H" 
			},
			{
				"x": -3.5871926872,
				"y": 3.6896714703,
				"z": -1.8233238663,
				"element": "H" 
			},
			{
				"x": -0.6650764446,
				"y": 4.7007965705,
				"z": -2.8874187897,
				"element": "H" 
			},
			{
				"x": 1.1113846335,
				"y": 3.5930397657,
				"z": -3.9671397196,
				"element": "H" 
			},
			{
				"x": -0.4289641252,
				"y": 2.9367050674,
				"z": -4.5797821163,
				"element": "H" 
			},
			{
				"x": 1.1415546386,
				"y": 1.2584608264,
				"z": -4.0452575177,
				"element": "H" 
			},
			{
				"x": 1.1101914278,
				"y": 4.4177954114,
				"z": -1.4020162031,
				"element": "H" 
			},
			{
				"x": 0.9877331287,
				"y": 1.9479602605,
				"z": -1.5359427983,
				"element": "H" 
			},
			{
				"x": -0.6431081401,
				"y": 3.6040501939,
				"z": 0.6943936534,
				"element": "H" 
			},
			{
				"x": 0.731684604,
				"y": 5.4977001709,
				"z": 0.6920537009,
				"element": "H" 
			},
			{
				"x": -2.7037621473,
				"y": 4.7144497609,
				"z": 0.3194872316,
				"element": "H" 
			},
			{
				"x": -1.5711017861,
				"y": 6.4109920906,
				"z": -0.9636912411,
				"element": "H" 
			},
			{
				"x": -5.4747096034,
				"y": 0.6808961409,
				"z": -1.4406630347,
				"element": "H" 
			},
			{
				"x": -4.9880400898,
				"y": 2.8411441089,
				"z": 0.2724348773,
				"element": "H" 
			},
			{
				"x": -6.2688658405,
				"y": 0.2381963514,
				"z": 0.8244929284,
				"element": "H" 
			},
			{
				"x": -4.4471729828,
				"y": 0.3692964878,
				"z": 2.4458224849,
				"element": "H" 
			}
		],
		 "valence_orbital": [ 
			{
				"type": "occ",
				"energy": -0.27177,
				"method": "rhf"
			},
			{
				"type": "occ",
				"energy": -0.26552,
				"method": "rhf"
			},
			{
				"type": "occ",
				"energy": -0.26341,
				"method": "rhf"
			},
			{
				"type": "occ",
				"energy": -0.25075,
				"method": "rhf"
			},
			{
				"type": "occ",
				"energy": -0.24731,
				"method": "rhf"
			},
			{
				"type": "unocc",
				"energy": -0.00142,
				"method": "rhf"
			},
			{
				"type": "unocc",
				"energy": 0.04828,
				"method": "rhf"
			},
			{
				"type": "unocc",
				"energy": 0.05979,
				"method": "rhf"
			},
			{
				"type": "unocc",
				"energy": 0.06679,
				"method": "rhf"
			},
			{
				"type": "unocc",
				"energy": 0.06924,
				"method": "rhf"
			}
		],
		"cosmo_sigma_profile": { 
			"-0.025": 0.0,
			"-0.024": 0.0,
			"-0.023": 0.0,
			"-0.022": 0.0,
			"-0.021": 0.0,
			"-0.02": 0.0,
			"-0.019": 0.0,
			"-0.018": 0.0,
			"-0.017": 1.0039569555,
			"-0.016": 2.09944228083,
			"-0.015": 2.06840985655,
			"-0.014": 1.9218204615,
			"-0.013": 2.46197139742,
			"-0.012": 2.66046979187,
			"-0.011": 3.59856376783,
			"-0.01": 3.05924693665,
			"-0.009": 4.45541021367,
			"-0.008": 7.85108073266,
			"-0.007": 11.6571247995,
			"-0.006": 20.6112027777,
			"-0.005": 29.4872395298,
			"-0.004": 32.7350350879,
			"-0.003": 35.2940610156,
			"-0.002": 53.5694184994,
			"-0.001": 70.8394922993,
			"0.0": 68.5058347338,
			"0.001": 57.3539749464,
			"0.002": 34.575798953,
			"0.003": 14.8923703338,
			"0.004": 14.9129422968,
			"0.005": 14.1062725454,
			"0.006": 15.5404229691,
			"0.007": 14.8014344318,
			"0.008": 13.2723445247,
			"0.009": 15.0372290316,
			"0.01": 10.1773644809,
			"0.011": 9.93221481269,
			"0.012": 6.27764428272,
			"0.013": 4.74980729153,
			"0.014": 1.95362640056,
			"0.015": 0.150007047654,
			"0.016": 0.0,
			"0.017": 0.0,
			"0.018": 0.0,
			"0.019": 0.0,
			"0.02": 0.0,
			"0.021": 0.0,
			"0.022": 0.0,
			"0.023": 0.0,
			"0.024": 0.0,
			"0.025": 0.0
		}
	}
}
