{
	 "smiles": "NS(=O)(=O)C1=CC(Br)=CC=C1", 
	 "Tm": 429.15, 
	 "num_atms": 17, 
	 "gaussian": { 
		 "optdone": 1, 
		 "sigma_profile": "yes", 
		 "theory": "DFT", 
		 "functional": "B3LYP", 
		 "basiset": "6-31G**", 
		 "properties": { 
			 "R2extent": 3589.092, 
			 "electric_dipole_moment_norm": 5.38890587225, 
			 "electric_quadrupole_moment_norm": 15.2237419654, 
			 "total_energy": -3406.97193718, 
			 "HOMO_LUMO_gap": 0.21049, 
			 "cosmo_polarized_energy": -17.86, 
			 "cosmo_cavitation_energy": 25.27, 
			 "cosmo_dispersion_energy": -19.51, 
			 "cosmo_repulsion_energy": 1.53, 
			 "cosmo_total_nonelectrostatic_energy": 7.29, 
			 "SMD_solvation_energy": 2.89 
		},
		"coords": [
			{
				"x": 0.9202842056,
				"y": 0.1450256584,
				"z": -3.1193520101,
				"element": "N" 
			},
			{
				"x": 0.5518253381,
				"y": 1.4184105522,
				"z": -2.0897742134,
				"element": "S" 
			},
			{
				"x": -0.7016807408,
				"y": 1.9791630004,
				"z": -2.5879742466,
				"element": "O" 
			},
			{
				"x": 1.7837155598,
				"y": 2.1931140023,
				"z": -1.9607109982,
				"element": "O" 
			},
			{
				"x": 0.2094347066,
				"y": 0.6943483533,
				"z": -0.4732744405,
				"element": "C" 
			},
			{
				"x": -1.0976727495,
				"y": 0.3056312432,
				"z": -0.1728825364,
				"element": "C" 
			},
			{
				"x": -1.3417400495,
				"y": -0.2795432101,
				"z": 1.0675324685,
				"element": "C" 
			},
			{
				"x": -3.1164658614,
				"y": -0.8237786938,
				"z": 1.5097686623,
				"element": "Br" 
			},
			{
				"x": -0.3156437343,
				"y": -0.4685844574,
				"z": 1.9944713289,
				"element": "C" 
			},
			{
				"x": 0.9795763215,
				"y": -0.0572559699,
				"z": 1.675022441,
				"element": "C" 
			},
			{
				"x": 1.253138339,
				"y": 0.528846904,
				"z": 0.4389039216,
				"element": "C" 
			},
			{
				"x": 0.1353486191,
				"y": -0.4759191429,
				"z": -3.2869424462,
				"element": "H" 
			},
			{
				"x": 1.7761871659,
				"y": -0.3396297277,
				"z": -2.8699675403,
				"element": "H" 
			},
			{
				"x": -1.8992012109,
				"y": 0.4792549704,
				"z": -0.8809912928,
				"element": "H" 
			},
			{
				"x": -0.5306811024,
				"y": -0.9226220881,
				"z": 2.9549843832,
				"element": "H" 
			},
			{
				"x": 1.7764802765,
				"y": -0.1888973667,
				"z": 2.4004763203,
				"element": "H" 
			},
			{
				"x": 2.2491949165,
				"y": 0.8762359724,
				"z": 0.1877101988,
				"element": "H" 
			}
		],
		 "valence_orbital": [ 
			{
				"type": "occ",
				"energy": -0.31273,
				"method": "rhf"
			},
			{
				"type": "occ",
				"energy": -0.3114,
				"method": "rhf"
			},
			{
				"type": "occ",
				"energy": -0.30046,
				"method": "rhf"
			},
			{
				"type": "occ",
				"energy": -0.28299,
				"method": "rhf"
			},
			{
				"type": "occ",
				"energy": -0.26373,
				"method": "rhf"
			},
			{
				"type": "unocc",
				"energy": -0.05324,
				"method": "rhf"
			},
			{
				"type": "unocc",
				"energy": -0.03842,
				"method": "rhf"
			},
			{
				"type": "unocc",
				"energy": -0.01134,
				"method": "rhf"
			},
			{
				"type": "unocc",
				"energy": 0.04752,
				"method": "rhf"
			},
			{
				"type": "unocc",
				"energy": 0.07814,
				"method": "rhf"
			}
		],
		"cosmo_sigma_profile": { 
			"-0.025": 0.0,
			"-0.024": 0.0,
			"-0.023": 0.0,
			"-0.022": 0.0,
			"-0.021": 0.0,
			"-0.02": 0.0,
			"-0.019": 0.0,
			"-0.018": 0.0,
			"-0.017": 0.0,
			"-0.016": 0.333419818691,
			"-0.015": 2.70011179945,
			"-0.014": 2.66845971617,
			"-0.013": 2.31504372986,
			"-0.012": 3.84357277989,
			"-0.011": 2.4071057589,
			"-0.01": 1.97045404114,
			"-0.009": 2.38770105574,
			"-0.008": 5.4317653832,
			"-0.007": 8.90409039547,
			"-0.006": 9.68859854426,
			"-0.005": 8.16624966027,
			"-0.004": 7.91828691132,
			"-0.003": 9.60700470702,
			"-0.002": 8.09511648219,
			"-0.001": 11.4962214404,
			"0.0": 15.3369521733,
			"0.001": 21.2219213131,
			"0.002": 14.9596329527,
			"0.003": 10.4050814833,
			"0.004": 13.182386502,
			"0.005": 4.22227468105,
			"0.006": 3.14851758253,
			"0.007": 4.7269712559,
			"0.008": 5.01909033447,
			"0.009": 3.68142955942,
			"0.01": 8.52125453743,
			"0.011": 10.2652018776,
			"0.012": 3.10815281148,
			"0.013": 0.0248750598051,
			"0.014": 0.0,
			"0.015": 0.0,
			"0.016": 0.0,
			"0.017": 0.0,
			"0.018": 0.0,
			"0.019": 0.0,
			"0.02": 0.0,
			"0.021": 0.0,
			"0.022": 0.0,
			"0.023": 0.0,
			"0.024": 0.0,
			"0.025": 0.0
		}
	}
}
