{
	 "smiles": "CSC1=NC(N)=C(C=N1)C(N)=O", 
	 "Tm": 524.15, 
	 "num_atms": 20, 
	 "gaussian": { 
		 "optdone": 1, 
		 "sigma_profile": "yes", 
		 "theory": "DFT", 
		 "functional": "B3LYP", 
		 "basiset": "6-31G**", 
		 "properties": { 
			 "R2extent": 3008.4329, 
			 "electric_dipole_moment_norm": 3.03051742942, 
			 "electric_quadrupole_moment_norm": 17.9846783043, 
			 "total_energy": -925.910570226, 
			 "HOMO_LUMO_gap": 0.18037, 
			 "cosmo_polarized_energy": -17.46, 
			 "cosmo_cavitation_energy": 26.0, 
			 "cosmo_dispersion_energy": -20.09, 
			 "cosmo_repulsion_energy": 1.58, 
			 "cosmo_total_nonelectrostatic_energy": 7.49, 
			 "SMD_solvation_energy": 3.12 
		},
		"coords": [
			{
				"x": 0.408170543,
				"y": -0.5790791944,
				"z": -4.6715230531,
				"element": "C" 
			},
			{
				"x": -1.0779806731,
				"y": -0.8698745861,
				"z": -3.654067401,
				"element": "S" 
			},
			{
				"x": -0.4743459927,
				"y": -0.5094957614,
				"z": -2.030251268,
				"element": "C" 
			},
			{
				"x": -1.3967349999,
				"y": -0.6389570667,
				"z": -1.0734911025,
				"element": "N" 
			},
			{
				"x": -1.0092998505,
				"y": -0.4088267138,
				"z": 0.1887354553,
				"element": "C" 
			},
			{
				"x": -1.9833895894,
				"y": -0.5520756881,
				"z": 1.1438056329,
				"element": "N" 
			},
			{
				"x": 0.3356198509,
				"y": -0.0563753601,
				"z": 0.4913986008,
				"element": "C" 
			},
			{
				"x": 1.1742922621,
				"y": 0.0894944624,
				"z": -0.6140645753,
				"element": "C" 
			},
			{
				"x": 0.8038774226,
				"y": -0.1350270219,
				"z": -1.8778354308,
				"element": "N" 
			},
			{
				"x": 0.9203564114,
				"y": 0.1951640773,
				"z": 1.8396197694,
				"element": "C" 
			},
			{
				"x": 0.2336727261,
				"y": -0.3328367656,
				"z": 2.9244818999,
				"element": "N" 
			},
			{
				"x": 1.9444287775,
				"y": 0.8478899986,
				"z": 1.9921294538,
				"element": "O" 
			},
			{
				"x": 0.7432719117,
				"y": 0.4540521195,
				"z": -4.5797244251,
				"element": "H" 
			},
			{
				"x": 0.105191602,
				"y": -0.7847284864,
				"z": -5.700657297,
				"element": "H" 
			},
			{
				"x": 1.215456106,
				"y": -1.2503150956,
				"z": -4.3784128121,
				"element": "H" 
			},
			{
				"x": -2.9185427762,
				"y": -0.6217003018,
				"z": 0.7654328208,
				"element": "H" 
			},
			{
				"x": -1.8795149383,
				"y": -0.0279248825,
				"z": 2.0016513862,
				"element": "H" 
			},
			{
				"x": 2.202733104,
				"y": 0.3986890396,
				"z": -0.4433600779,
				"element": "H" 
			},
			{
				"x": 0.7573628166,
				"y": -0.2775380159,
				"z": 3.7891153185,
				"element": "H" 
			},
			{
				"x": -0.2873247138,
				"y": -1.1900347569,
				"z": 2.7873171053,
				"element": "H" 
			}
		],
		 "valence_orbital": [ 
			{
				"type": "occ",
				"energy": -0.287,
				"method": "rhf"
			},
			{
				"type": "occ",
				"energy": -0.26128,
				"method": "rhf"
			},
			{
				"type": "occ",
				"energy": -0.25812,
				"method": "rhf"
			},
			{
				"type": "occ",
				"energy": -0.25634,
				"method": "rhf"
			},
			{
				"type": "occ",
				"energy": -0.22797,
				"method": "rhf"
			},
			{
				"type": "unocc",
				"energy": -0.0476,
				"method": "rhf"
			},
			{
				"type": "unocc",
				"energy": -0.02255,
				"method": "rhf"
			},
			{
				"type": "unocc",
				"energy": 0.03698,
				"method": "rhf"
			},
			{
				"type": "unocc",
				"energy": 0.04019,
				"method": "rhf"
			},
			{
				"type": "unocc",
				"energy": 0.07464,
				"method": "rhf"
			}
		],
		"cosmo_sigma_profile": { 
			"-0.025": 0.0,
			"-0.024": 0.0,
			"-0.023": 0.0,
			"-0.022": 0.0,
			"-0.021": 0.0,
			"-0.02": 0.0,
			"-0.019": 0.0,
			"-0.018": 0.0,
			"-0.017": 0.0,
			"-0.016": 0.0,
			"-0.015": 0.0221219566593,
			"-0.014": 1.28957571319,
			"-0.013": 3.81639027999,
			"-0.012": 3.23164801043,
			"-0.011": 4.7027269809,
			"-0.01": 5.4617469889,
			"-0.009": 4.15315023504,
			"-0.008": 3.26373994454,
			"-0.007": 6.5297334532,
			"-0.006": 7.2113160188,
			"-0.005": 9.88620492095,
			"-0.004": 9.94638277041,
			"-0.003": 11.7574346957,
			"-0.002": 17.5216279482,
			"-0.001": 14.8512464978,
			"0.0": 11.422258515,
			"0.001": 11.2295575041,
			"0.002": 9.84387046344,
			"0.003": 8.97722935389,
			"0.004": 11.4318298596,
			"0.005": 9.25879350536,
			"0.006": 9.20945882483,
			"0.007": 8.49173865249,
			"0.008": 4.55981510635,
			"0.009": 3.35628992944,
			"0.01": 3.375594305,
			"0.011": 3.37029262215,
			"0.012": 3.84541575828,
			"0.013": 5.43811334047,
			"0.014": 1.45223015773,
			"0.015": 0.0,
			"0.016": 0.0,
			"0.017": 0.0,
			"0.018": 0.0,
			"0.019": 0.0,
			"0.02": 0.0,
			"0.021": 0.0,
			"0.022": 0.0,
			"0.023": 0.0,
			"0.024": 0.0,
			"0.025": 0.0
		}
	}
}
