{
	 "smiles": "CCCOP(=S)(OCCC)SCC(=O)N1CCCCC1C", 
	 "Tm": 298.15, 
	 "num_atms": 49, 
	 "gaussian": { 
		 "optdone": 1, 
		 "sigma_profile": "yes", 
		 "theory": "DFT", 
		 "functional": "B3LYP", 
		 "basiset": "6-31G**", 
		 "properties": { 
			 "R2extent": 10631.5846, 
			 "electric_dipole_moment_norm": 5.57485177561, 
			 "electric_quadrupole_moment_norm": 19.8620330211, 
			 "total_energy": -1968.61701686, 
			 "HOMO_LUMO_gap": 0.22006, 
			 "cosmo_polarized_energy": -15.25, 
			 "cosmo_cavitation_energy": 52.77, 
			 "cosmo_dispersion_energy": -34.97, 
			 "cosmo_repulsion_energy": 2.68, 
			 "cosmo_total_nonelectrostatic_energy": 20.48, 
			 "SMD_solvation_energy": 7.55 
		},
		"coords": [
			{
				"x": 5.1157163871,
				"y": 0.142216897,
				"z": 3.9486074493,
				"element": "C" 
			},
			{
				"x": 4.9779247725,
				"y": 0.4069484242,
				"z": 2.4466314702,
				"element": "C" 
			},
			{
				"x": 4.2550129288,
				"y": -0.7020056273,
				"z": 1.6957408541,
				"element": "C" 
			},
			{
				"x": 2.8994646456,
				"y": -0.7759863423,
				"z": 2.2036169536,
				"element": "O" 
			},
			{
				"x": 1.8954045429,
				"y": -1.9448037939,
				"z": 1.7074734245,
				"element": "P" 
			},
			{
				"x": 2.5821570664,
				"y": -3.7579425739,
				"z": 1.6109007987,
				"element": "S" 
			},
			{
				"x": 0.7338163474,
				"y": -1.5963204237,
				"z": 2.7644571965,
				"element": "O" 
			},
			{
				"x": -0.5294100992,
				"y": -2.3290652374,
				"z": 2.7726071441,
				"element": "C" 
			},
			{
				"x": -1.2692817616,
				"y": -1.9699299764,
				"z": 4.0520720217,
				"element": "C" 
			},
			{
				"x": -1.5904142866,
				"y": -0.4768114032,
				"z": 4.1773093716,
				"element": "C" 
			},
			{
				"x": 1.17973695,
				"y": -1.3350153781,
				"z": -0.199870638,
				"element": "S" 
			},
			{
				"x": 0.389620354,
				"y": 0.304406065,
				"z": 0.1891149117,
				"element": "C" 
			},
			{
				"x": -1.0810579005,
				"y": 0.2830987664,
				"z": -0.2291458138,
				"element": "C" 
			},
			{
				"x": -1.9358820848,
				"y": -0.0696222296,
				"z": 0.5847994509,
				"element": "O" 
			},
			{
				"x": -1.3910969965,
				"y": 0.6537564415,
				"z": -1.5080092107,
				"element": "N" 
			},
			{
				"x": -2.7866814026,
				"y": 0.559901785,
				"z": -1.9494146842,
				"element": "C" 
			},
			{
				"x": -2.9680707009,
				"y": -0.6209211226,
				"z": -2.9256799716,
				"element": "C" 
			},
			{
				"x": -1.6944576465,
				"y": -0.8276634158,
				"z": -3.7793230012,
				"element": "C" 
			},
			{
				"x": -0.9268364806,
				"y": 0.4909408088,
				"z": -3.9297359852,
				"element": "C" 
			},
			{
				"x": -0.4104272092,
				"y": 0.9995586432,
				"z": -2.5612216822,
				"element": "C" 
			},
			{
				"x": -0.1100218375,
				"y": 2.5039687039,
				"z": -2.5923157101,
				"element": "C" 
			},
			{
				"x": 5.6764783081,
				"y": -0.7800838418,
				"z": 4.1366453305,
				"element": "H" 
			},
			{
				"x": 4.1334239302,
				"y": 0.0380091672,
				"z": 4.416908065,
				"element": "H" 
			},
			{
				"x": 5.6441804551,
				"y": 0.9630629885,
				"z": 4.4430847861,
				"element": "H" 
			},
			{
				"x": 5.9691315287,
				"y": 0.5133761213,
				"z": 1.987065161,
				"element": "H" 
			},
			{
				"x": 4.4496215865,
				"y": 1.3525613061,
				"z": 2.2747860176,
				"element": "H" 
			},
			{
				"x": 4.7421623778,
				"y": -1.6713886115,
				"z": 1.8466619473,
				"element": "H" 
			},
			{
				"x": 4.218136572,
				"y": -0.4933051601,
				"z": 0.6198141871,
				"element": "H" 
			},
			{
				"x": -0.3110841409,
				"y": -3.4005498302,
				"z": 2.7237925177,
				"element": "H" 
			},
			{
				"x": -1.1016152187,
				"y": -2.0226077208,
				"z": 1.8920289139,
				"element": "H" 
			},
			{
				"x": -2.1975139553,
				"y": -2.5562948084,
				"z": 4.0495889267,
				"element": "H" 
			},
			{
				"x": -0.6835681669,
				"y": -2.3115521291,
				"z": 4.9138964352,
				"element": "H" 
			},
			{
				"x": -2.204254117,
				"y": -0.2839305657,
				"z": 5.0629115299,
				"element": "H" 
			},
			{
				"x": -0.6717668671,
				"y": 0.1096361563,
				"z": 4.2716286587,
				"element": "H" 
			},
			{
				"x": -2.1278995984,
				"y": -0.1181906379,
				"z": 3.2941068454,
				"element": "H" 
			},
			{
				"x": 0.4064908659,
				"y": 0.4429017473,
				"z": 1.269435508,
				"element": "H" 
			},
			{
				"x": 0.9800591113,
				"y": 1.0885508508,
				"z": -0.284462047,
				"element": "H" 
			},
			{
				"x": -3.0551629542,
				"y": 1.5045762529,
				"z": -2.4369395877,
				"element": "H" 
			},
			{
				"x": -3.4059225544,
				"y": 0.4520828726,
				"z": -1.0603925681,
				"element": "H" 
			},
			{
				"x": -3.1954724347,
				"y": -1.5336893579,
				"z": -2.366249323,
				"element": "H" 
			},
			{
				"x": -3.8336349622,
				"y": -0.4150121138,
				"z": -3.5664772734,
				"element": "H" 
			},
			{
				"x": -1.9503980226,
				"y": -1.2365797755,
				"z": -4.7620691927,
				"element": "H" 
			},
			{
				"x": -1.0404021806,
				"y": -1.5640275225,
				"z": -3.297279638,
				"element": "H" 
			},
			{
				"x": -1.576364593,
				"y": 1.2493459298,
				"z": -4.3865234957,
				"element": "H" 
			},
			{
				"x": -0.0689522616,
				"y": 0.3765746401,
				"z": -4.6006841699,
				"element": "H" 
			},
			{
				"x": 0.5127832534,
				"y": 0.4527125823,
				"z": -2.3456223799,
				"element": "H" 
			},
			{
				"x": -1.0255550903,
				"y": 3.0769743568,
				"z": -2.7729905387,
				"element": "H" 
			},
			{
				"x": 0.3210616179,
				"y": 2.8511543814,
				"z": -1.6483776502,
				"element": "H" 
			},
			{
				"x": 0.5975219229,
				"y": 2.7352837112,
				"z": -3.3958013158,
				"element": "H" 
			}
		],
		 "valence_orbital": [ 
			{
				"type": "occ",
				"energy": -0.27319,
				"method": "rhf"
			},
			{
				"type": "occ",
				"energy": -0.25314,
				"method": "rhf"
			},
			{
				"type": "occ",
				"energy": -0.24296,
				"method": "rhf"
			},
			{
				"type": "occ",
				"energy": -0.23701,
				"method": "rhf"
			},
			{
				"type": "occ",
				"energy": -0.23485,
				"method": "rhf"
			},
			{
				"type": "unocc",
				"energy": -0.01479,
				"method": "rhf"
			},
			{
				"type": "unocc",
				"energy": -0.0052,
				"method": "rhf"
			},
			{
				"type": "unocc",
				"energy": 0.03954,
				"method": "rhf"
			},
			{
				"type": "unocc",
				"energy": 0.04719,
				"method": "rhf"
			},
			{
				"type": "unocc",
				"energy": 0.06045,
				"method": "rhf"
			}
		],
		"cosmo_sigma_profile": { 
			"-0.025": 0.0,
			"-0.024": 0.0,
			"-0.023": 0.0,
			"-0.022": 0.0,
			"-0.021": 0.0,
			"-0.02": 0.0,
			"-0.019": 0.0,
			"-0.018": 0.0,
			"-0.017": 0.0,
			"-0.016": 0.0,
			"-0.015": 0.0,
			"-0.014": 0.0,
			"-0.013": 0.0,
			"-0.012": 0.0,
			"-0.011": 0.0,
			"-0.01": 0.0,
			"-0.009": 0.0,
			"-0.008": 0.715396341053,
			"-0.007": 3.54544687048,
			"-0.006": 4.50235056486,
			"-0.005": 13.6772352823,
			"-0.004": 38.9921726167,
			"-0.003": 52.6719412658,
			"-0.002": 53.7932734171,
			"-0.001": 53.9853002442,
			"0.0": 49.9012683025,
			"0.001": 35.1350548651,
			"0.002": 18.7431745487,
			"0.003": 15.7991292796,
			"0.004": 15.0227193493,
			"0.005": 10.5195831249,
			"0.006": 10.9314529279,
			"0.007": 12.0563243877,
			"0.008": 10.2510909651,
			"0.009": 6.62933372436,
			"0.01": 2.81364574235,
			"0.011": 1.35486338129,
			"0.012": 1.53105538941,
			"0.013": 1.27045816874,
			"0.014": 0.196456898584,
			"0.015": 0.0,
			"0.016": 0.0,
			"0.017": 0.0,
			"0.018": 0.0,
			"0.019": 0.0,
			"0.02": 0.0,
			"0.021": 0.0,
			"0.022": 0.0,
			"0.023": 0.0,
			"0.024": 0.0,
			"0.025": 0.0
		}
	}
}
