{
	 "smiles": "OCC1=CSC2=CC=C(Cl)C=C12", 
	 "Tm": 366.65, 
	 "num_atms": 19, 
	 "gaussian": { 
		 "optdone": 1, 
		 "sigma_profile": "yes", 
		 "theory": "DFT", 
		 "functional": "B3LYP", 
		 "basiset": "6-31G**", 
		 "properties": { 
			 "R2extent": 3198.6052, 
			 "electric_dipole_moment_norm": 1.60416587983, 
			 "electric_quadrupole_moment_norm": 5.90640790329, 
			 "total_energy": -1280.76875095, 
			 "HOMO_LUMO_gap": 0.18787, 
			 "cosmo_polarized_energy": -9.41, 
			 "cosmo_cavitation_energy": 26.35, 
			 "cosmo_dispersion_energy": -20.04, 
			 "cosmo_repulsion_energy": 1.55, 
			 "cosmo_total_nonelectrostatic_energy": 7.86, 
			 "SMD_solvation_energy": 3.73 
		},
		"coords": [
			{
				"x": -0.4001211525,
				"y": 2.9372296792,
				"z": 0.7630679863,
				"element": "O" 
			},
			{
				"x": -0.9849480022,
				"y": 2.0714374177,
				"z": 1.7333160578,
				"element": "C" 
			},
			{
				"x": -0.1693090826,
				"y": 0.8323746731,
				"z": 2.0013012102,
				"element": "C" 
			},
			{
				"x": 0.6443774676,
				"y": 0.6573169759,
				"z": 3.0781235657,
				"element": "C" 
			},
			{
				"x": 1.5047393028,
				"y": -0.8638816407,
				"z": 3.0846122552,
				"element": "S" 
			},
			{
				"x": 0.7571456833,
				"y": -1.3184412703,
				"z": 1.5633022843,
				"element": "C" 
			},
			{
				"x": 0.9456171981,
				"y": -2.5029776572,
				"z": 0.8450005479,
				"element": "C" 
			},
			{
				"x": 0.252837349,
				"y": -2.6843002542,
				"z": -0.3461046708,
				"element": "C" 
			},
			{
				"x": -0.6221271506,
				"y": -1.6840324772,
				"z": -0.8020970889,
				"element": "C" 
			},
			{
				"x": -1.4900225367,
				"y": -1.9430246957,
				"z": -2.3101939714,
				"element": "Cl" 
			},
			{
				"x": -0.8213273934,
				"y": -0.5047964327,
				"z": -0.1002296387,
				"element": "C" 
			},
			{
				"x": -0.1214191215,
				"y": -0.3061545025,
				"z": 1.1051036219,
				"element": "C" 
			},
			{
				"x": -0.2149596209,
				"y": 2.4173582155,
				"z": -0.0298234411,
				"element": "H" 
			},
			{
				"x": -1.0709047044,
				"y": 2.666003236,
				"z": 2.6466709338,
				"element": "H" 
			},
			{
				"x": -2.0063409746,
				"y": 1.7816935314,
				"z": 1.4383844429,
				"element": "H" 
			},
			{
				"x": 0.8002618053,
				"y": 1.3524533269,
				"z": 3.8930230489,
				"element": "H" 
			},
			{
				"x": 1.6202531926,
				"y": -3.2736178782,
				"z": 1.2044168537,
				"element": "H" 
			},
			{
				"x": 0.3800462392,
				"y": -3.5914780087,
				"z": -0.9255301705,
				"element": "H" 
			},
			{
				"x": -1.5124984984,
				"y": 0.2419377617,
				"z": -0.4773438273,
				"element": "H" 
			}
		],
		 "valence_orbital": [ 
			{
				"type": "occ",
				"energy": -0.31709,
				"method": "rhf"
			},
			{
				"type": "occ",
				"energy": -0.29322,
				"method": "rhf"
			},
			{
				"type": "occ",
				"energy": -0.27598,
				"method": "rhf"
			},
			{
				"type": "occ",
				"energy": -0.24397,
				"method": "rhf"
			},
			{
				"type": "occ",
				"energy": -0.23008,
				"method": "rhf"
			},
			{
				"type": "unocc",
				"energy": -0.04221,
				"method": "rhf"
			},
			{
				"type": "unocc",
				"energy": -0.0208,
				"method": "rhf"
			},
			{
				"type": "unocc",
				"energy": 0.00806,
				"method": "rhf"
			},
			{
				"type": "unocc",
				"energy": 0.02392,
				"method": "rhf"
			},
			{
				"type": "unocc",
				"energy": 0.03035,
				"method": "rhf"
			}
		],
		"cosmo_sigma_profile": { 
			"-0.025": 0.0,
			"-0.024": 0.0,
			"-0.023": 0.0,
			"-0.022": 0.0,
			"-0.021": 0.0,
			"-0.02": 0.0,
			"-0.019": 0.0,
			"-0.018": 0.0,
			"-0.017": 0.0,
			"-0.016": 0.0,
			"-0.015": 0.0146022775657,
			"-0.014": 0.470371410435,
			"-0.013": 0.996503267189,
			"-0.012": 1.44787352422,
			"-0.011": 1.62821860802,
			"-0.01": 1.29741141257,
			"-0.009": 2.90914411759,
			"-0.008": 5.70140611487,
			"-0.007": 9.62709467941,
			"-0.006": 9.77856482752,
			"-0.005": 11.8848084083,
			"-0.004": 9.94055267829,
			"-0.003": 11.2085289759,
			"-0.002": 11.2678486802,
			"-0.001": 9.66150599905,
			"0.0": 14.2970135829,
			"0.001": 16.71158449,
			"0.002": 25.0389914062,
			"0.003": 28.9027224627,
			"0.004": 17.1864860941,
			"0.005": 11.396874108,
			"0.006": 1.73710970908,
			"0.007": 0.94490053599,
			"0.008": 0.947313474662,
			"0.009": 2.0358194519,
			"0.01": 0.904932539249,
			"0.011": 1.28566680102,
			"0.012": 1.98167707747,
			"0.013": 1.48949458583,
			"0.014": 2.51319657669,
			"0.015": 0.151239671073,
			"0.016": 0.0,
			"0.017": 0.0,
			"0.018": 0.0,
			"0.019": 0.0,
			"0.02": 0.0,
			"0.021": 0.0,
			"0.022": 0.0,
			"0.023": 0.0,
			"0.024": 0.0,
			"0.025": 0.0
		}
	}
}
