{
	 "smiles": "COC1=C(C=CC(CCl)=C1)[N+]([O-])=O", 
	 "Tm": 323.15, 
	 "num_atms": 21, 
	 "gaussian": { 
		 "optdone": 1, 
		 "sigma_profile": "yes", 
		 "theory": "DFT", 
		 "functional": "B3LYP", 
		 "basiset": "6-31G**", 
		 "properties": { 
			 "R2extent": 4612.9313, 
			 "electric_dipole_moment_norm": 4.66099053314, 
			 "electric_quadrupole_moment_norm": 23.24451354, 
			 "total_energy": -1050.17034833, 
			 "HOMO_LUMO_gap": 0.1658, 
			 "cosmo_polarized_energy": -14.37, 
			 "cosmo_cavitation_energy": 27.79, 
			 "cosmo_dispersion_energy": -20.05, 
			 "cosmo_repulsion_energy": 1.61, 
			 "cosmo_total_nonelectrostatic_energy": 9.36, 
			 "SMD_solvation_energy": 7.5 
		},
		"coords": [
			{
				"x": -1.5875142321,
				"y": -0.5158107788,
				"z": -1.4470697643,
				"element": "C" 
			},
			{
				"x": -1.2179023293,
				"y": 0.8047881628,
				"z": -1.8313798292,
				"element": "O" 
			},
			{
				"x": -0.4492749041,
				"y": 1.5352810278,
				"z": -1.001880286,
				"element": "C" 
			},
			{
				"x": -0.0172965183,
				"y": 2.8172265047,
				"z": -1.4220426288,
				"element": "C" 
			},
			{
				"x": 0.8249883051,
				"y": 3.5875091035,
				"z": -0.6234509365,
				"element": "C" 
			},
			{
				"x": 1.2361750479,
				"y": 3.125334843,
				"z": 0.6206016948,
				"element": "C" 
			},
			{
				"x": 0.8105125519,
				"y": 1.8694529204,
				"z": 1.0660850307,
				"element": "C" 
			},
			{
				"x": 1.2396810771,
				"y": 1.3538421267,
				"z": 2.4099604665,
				"element": "C" 
			},
			{
				"x": 2.683492412,
				"y": 0.2339209428,
				"z": 2.2876373651,
				"element": "Cl" 
			},
			{
				"x": -0.0171468096,
				"y": 1.086743959,
				"z": 0.2546592872,
				"element": "C" 
			},
			{
				"x": -0.4351423544,
				"y": 3.4028960023,
				"z": -2.7026325834,
				"element": "N" 
			},
			{
				"x": -1.5034531965,
				"y": 3.0442874772,
				"z": -3.1890399297,
				"element": "O" 
			},
			{
				"x": 0.3134649812,
				"y": 4.2496428954,
				"z": -3.1974195152,
				"element": "O" 
			},
			{
				"x": -0.7070996866,
				"y": -1.149855812,
				"z": -1.2889996223,
				"element": "H" 
			},
			{
				"x": -2.2046535055,
				"y": -0.5114818683,
				"z": -0.540780237,
				"element": "H" 
			},
			{
				"x": -2.172883836,
				"y": -0.9061829265,
				"z": -2.2794737147,
				"element": "H" 
			},
			{
				"x": 1.1418777933,
				"y": 4.5509146539,
				"z": -1.0031930069,
				"element": "H" 
			},
			{
				"x": 1.8846192314,
				"y": 3.7360870602,
				"z": 1.2403938961,
				"element": "H" 
			},
			{
				"x": 1.5466143369,
				"y": 2.1628737561,
				"z": 3.0723272538,
				"element": "H" 
			},
			{
				"x": 0.4564359608,
				"y": 0.768780729,
				"z": 2.8926358994,
				"element": "H" 
			},
			{
				"x": -0.3183943252,
				"y": 0.1075492209,
				"z": 0.6063611603,
				"element": "H" 
			}
		],
		 "valence_orbital": [ 
			{
				"type": "occ",
				"energy": -0.30153,
				"method": "rhf"
			},
			{
				"type": "occ",
				"energy": -0.29911,
				"method": "rhf"
			},
			{
				"type": "occ",
				"energy": -0.28959,
				"method": "rhf"
			},
			{
				"type": "occ",
				"energy": -0.27301,
				"method": "rhf"
			},
			{
				"type": "occ",
				"energy": -0.2514,
				"method": "rhf"
			},
			{
				"type": "unocc",
				"energy": -0.0856,
				"method": "rhf"
			},
			{
				"type": "unocc",
				"energy": -0.02603,
				"method": "rhf"
			},
			{
				"type": "unocc",
				"energy": -0.01979,
				"method": "rhf"
			},
			{
				"type": "unocc",
				"energy": 0.03182,
				"method": "rhf"
			},
			{
				"type": "unocc",
				"energy": 0.06252,
				"method": "rhf"
			}
		],
		"cosmo_sigma_profile": { 
			"-0.025": 0.0,
			"-0.024": 0.0,
			"-0.023": 0.0,
			"-0.022": 0.0,
			"-0.021": 0.0,
			"-0.02": 0.0,
			"-0.019": 0.0,
			"-0.018": 0.0,
			"-0.017": 0.0,
			"-0.016": 0.0,
			"-0.015": 0.0,
			"-0.014": 0.0,
			"-0.013": 0.0,
			"-0.012": 0.0,
			"-0.011": 0.0,
			"-0.01": 0.0,
			"-0.009": 1.45491349572,
			"-0.008": 10.1767740498,
			"-0.007": 13.3927751159,
			"-0.006": 18.0305823734,
			"-0.005": 16.7768148771,
			"-0.004": 16.5033837925,
			"-0.003": 12.447216304,
			"-0.002": 8.80034391757,
			"-0.001": 12.3253877218,
			"0.0": 13.921542906,
			"0.001": 13.2005202952,
			"0.002": 12.5618380098,
			"0.003": 10.298356197,
			"0.004": 8.58303156168,
			"0.005": 8.04495491157,
			"0.006": 14.8570018259,
			"0.007": 7.80130137192,
			"0.008": 10.2709403139,
			"0.009": 6.55587052559,
			"0.01": 5.2822290284,
			"0.011": 1.65188896231,
			"0.012": 0.970418581516,
			"0.013": 0.117888998222,
			"0.014": 0.0,
			"0.015": 0.0,
			"0.016": 0.0,
			"0.017": 0.0,
			"0.018": 0.0,
			"0.019": 0.0,
			"0.02": 0.0,
			"0.021": 0.0,
			"0.022": 0.0,
			"0.023": 0.0,
			"0.024": 0.0,
			"0.025": 0.0
		}
	}
}
