{
	 "smiles": "COC1=CC=C(C=C1)N=[N+]([O-])C1=CC=C(OC)C=C1", 
	 "Tm": 405.15, 
	 "num_atms": 33, 
	 "gaussian": { 
		 "optdone": 1, 
		 "sigma_profile": "yes", 
		 "theory": "DFT", 
		 "functional": "B3LYP", 
		 "basiset": "6-31G**", 
		 "properties": { 
			 "R2extent": 9216.4664, 
			 "electric_dipole_moment_norm": 1.78812542066, 
			 "electric_quadrupole_moment_norm": 32.8716223305, 
			 "total_energy": -876.996904093, 
			 "HOMO_LUMO_gap": 0.13334, 
			 "cosmo_polarized_energy": -11.7, 
			 "cosmo_cavitation_energy": 37.67, 
			 "cosmo_dispersion_energy": -27.89, 
			 "cosmo_repulsion_energy": 2.11, 
			 "cosmo_total_nonelectrostatic_energy": 11.89, 
			 "SMD_solvation_energy": 8.21 
		},
		"coords": [
			{
				"x": 0.2814354503,
				"y": -4.5788482696,
				"z": -4.1475386128,
				"element": "C" 
			},
			{
				"x": -0.2397494022,
				"y": -4.5626234633,
				"z": -2.8268734763,
				"element": "O" 
			},
			{
				"x": -0.0845094569,
				"y": -3.4323375093,
				"z": -2.0838459241,
				"element": "C" 
			},
			{
				"x": -0.621140324,
				"y": -3.4779043217,
				"z": -0.7849683891,
				"element": "C" 
			},
			{
				"x": -0.5122897852,
				"y": -2.3783514436,
				"z": 0.0431142542,
				"element": "C" 
			},
			{
				"x": 0.1315035645,
				"y": -1.1900269884,
				"z": -0.3801195465,
				"element": "C" 
			},
			{
				"x": 0.6660221767,
				"y": -1.1568078701,
				"z": -1.6857535897,
				"element": "C" 
			},
			{
				"x": 0.5561746455,
				"y": -2.2677732777,
				"z": -2.5229073203,
				"element": "C" 
			},
			{
				"x": 0.136284663,
				"y": -0.1975199763,
				"z": 0.6008494803,
				"element": "N" 
			},
			{
				"x": 0.6763337785,
				"y": 0.9457612929,
				"z": 0.3917955666,
				"element": "N" 
			},
			{
				"x": 1.254988148,
				"y": 1.3452839611,
				"z": -0.6574008123,
				"element": "O" 
			},
			{
				"x": 0.6064395932,
				"y": 1.8844078605,
				"z": 1.5053178718,
				"element": "C" 
			},
			{
				"x": 1.1801908818,
				"y": 3.1478718828,
				"z": 1.3324198068,
				"element": "C" 
			},
			{
				"x": 1.1337274943,
				"y": 4.0679454499,
				"z": 2.3682358486,
				"element": "C" 
			},
			{
				"x": 0.5151917273,
				"y": 3.7366232901,
				"z": 3.5846824219,
				"element": "C" 
			},
			{
				"x": 0.5233925332,
				"y": 4.7090431037,
				"z": 4.535420025,
				"element": "O" 
			},
			{
				"x": -0.0866266237,
				"y": 4.4369695161,
				"z": 5.7891659263,
				"element": "C" 
			},
			{
				"x": -0.0577705912,
				"y": 2.4666061688,
				"z": 3.7492725479,
				"element": "C" 
			},
			{
				"x": -0.010603365,
				"y": 1.5423024488,
				"z": 2.7075375652,
				"element": "C" 
			},
			{
				"x": 0.0484076541,
				"y": -5.56543259,
				"z": -4.5508128785,
				"element": "H" 
			},
			{
				"x": -0.1873562229,
				"y": -3.8113812964,
				"z": -4.7763203548,
				"element": "H" 
			},
			{
				"x": 1.3690222275,
				"y": -4.4331516254,
				"z": -4.1544970472,
				"element": "H" 
			},
			{
				"x": -1.115034629,
				"y": -4.3866889611,
				"z": -0.457479292,
				"element": "H" 
			},
			{
				"x": -0.9228063315,
				"y": -2.4025214619,
				"z": 1.0472835965,
				"element": "H" 
			},
			{
				"x": 1.1622294012,
				"y": -0.2665987204,
				"z": -2.0373842336,
				"element": "H" 
			},
			{
				"x": 0.9774609798,
				"y": -2.2089843659,
				"z": -3.519638547,
				"element": "H" 
			},
			{
				"x": 1.6518493053,
				"y": 3.3832213704,
				"z": 0.3873144571,
				"element": "H" 
			},
			{
				"x": 1.5707295086,
				"y": 5.0548955534,
				"z": 2.2610310074,
				"element": "H" 
			},
			{
				"x": 0.0365290172,
				"y": 5.3421142631,
				"z": 6.3853084675,
				"element": "H" 
			},
			{
				"x": -1.1564889311,
				"y": 4.2198140394,
				"z": 5.6788458736,
				"element": "H" 
			},
			{
				"x": 0.4005366074,
				"y": 3.5978713394,
				"z": 6.3015277529,
				"element": "H" 
			},
			{
				"x": -0.5403289342,
				"y": 2.1877364257,
				"z": 4.6780060263,
				"element": "H" 
			},
			{
				"x": -0.4480447605,
				"y": 0.5589841749,
				"z": 2.8194115284,
				"element": "H" 
			}
		],
		 "valence_orbital": [ 
			{
				"type": "occ",
				"energy": -0.26087,
				"method": "rhf"
			},
			{
				"type": "occ",
				"energy": -0.25381,
				"method": "rhf"
			},
			{
				"type": "occ",
				"energy": -0.24984,
				"method": "rhf"
			},
			{
				"type": "occ",
				"energy": -0.23566,
				"method": "rhf"
			},
			{
				"type": "occ",
				"energy": -0.19824,
				"method": "rhf"
			},
			{
				"type": "unocc",
				"energy": -0.0649,
				"method": "rhf"
			},
			{
				"type": "unocc",
				"energy": -0.01001,
				"method": "rhf"
			},
			{
				"type": "unocc",
				"energy": 0.00209,
				"method": "rhf"
			},
			{
				"type": "unocc",
				"energy": 0.01676,
				"method": "rhf"
			},
			{
				"type": "unocc",
				"energy": 0.05386,
				"method": "rhf"
			}
		],
		"cosmo_sigma_profile": { 
			"-0.025": 0.0,
			"-0.024": 0.0,
			"-0.023": 0.0,
			"-0.022": 0.0,
			"-0.021": 0.0,
			"-0.02": 0.0,
			"-0.019": 0.0,
			"-0.018": 0.0,
			"-0.017": 0.0,
			"-0.016": 0.0,
			"-0.015": 0.0,
			"-0.014": 0.0,
			"-0.013": 0.0,
			"-0.012": 0.0,
			"-0.011": 0.0,
			"-0.01": 0.0,
			"-0.009": 0.0,
			"-0.008": 0.0971523461761,
			"-0.007": 5.51038793728,
			"-0.006": 22.6466020967,
			"-0.005": 28.2044521749,
			"-0.004": 28.5414131349,
			"-0.003": 23.7527099727,
			"-0.002": 16.3788437962,
			"-0.001": 15.1769849394,
			"0.0": 16.5347032726,
			"0.001": 20.5254026497,
			"0.002": 26.7148703828,
			"0.003": 36.0044474149,
			"0.004": 24.4589724533,
			"0.005": 9.24851443048,
			"0.006": 6.04982581218,
			"0.007": 4.74250252634,
			"0.008": 4.92527639751,
			"0.009": 4.97283571002,
			"0.01": 4.93038236102,
			"0.011": 1.87815151082,
			"0.012": 0.0,
			"0.013": 0.0,
			"0.014": 0.0,
			"0.015": 0.0,
			"0.016": 0.0,
			"0.017": 0.0,
			"0.018": 0.0,
			"0.019": 0.0,
			"0.02": 0.0,
			"0.021": 0.0,
			"0.022": 0.0,
			"0.023": 0.0,
			"0.024": 0.0,
			"0.025": 0.0
		}
	}
}
