{
	 "smiles": "CCSC1=NN=C(NC(=O)C(F)(F)C(F)(F)C(F)(F)C(F)(F)C(F)(F)C(F)(F)C(F)(F)C(F)(F)F)S1", 
	 "Tm": 404.15, 
	 "num_atms": 42, 
	 "gaussian": { 
		 "optdone": 1, 
		 "sigma_profile": "yes", 
		 "theory": "DFT", 
		 "functional": "B3LYP", 
		 "basiset": "6-31G**", 
		 "properties": { 
			 "R2extent": 19153.0555, 
			 "electric_dipole_moment_norm": 3.94740444723, 
			 "electric_quadrupole_moment_norm": 13.3117412824, 
			 "total_energy": -3232.02754152, 
			 "HOMO_LUMO_gap": 0.18173, 
			 "cosmo_polarized_energy": -15.34, 
			 "cosmo_cavitation_energy": 55.21, 
			 "cosmo_dispersion_energy": -35.53, 
			 "cosmo_repulsion_energy": 2.31, 
			 "cosmo_total_nonelectrostatic_energy": 21.99, 
			 "SMD_solvation_energy": 12.96 
		},
		"coords": [
			{
				"x": 3.4310206185,
				"y": -4.6864674832,
				"z": -2.6615428541,
				"element": "C" 
			},
			{
				"x": 3.9663901918,
				"y": -4.6727192111,
				"z": -1.2334740169,
				"element": "C" 
			},
			{
				"x": 2.9248517082,
				"y": -5.6013041191,
				"z": -0.0237062264,
				"element": "S" 
			},
			{
				"x": 1.6181717891,
				"y": -4.4550953958,
				"z": 0.2230505953,
				"element": "C" 
			},
			{
				"x": 1.5386417874,
				"y": -3.2692613774,
				"z": -0.3226788783,
				"element": "N" 
			},
			{
				"x": 0.4450478073,
				"y": -2.5594881976,
				"z": 0.0808321647,
				"element": "N" 
			},
			{
				"x": -0.3079439816,
				"y": -3.2136060679,
				"z": 0.9094318105,
				"element": "C" 
			},
			{
				"x": -1.498370648,
				"y": -2.7149755401,
				"z": 1.4464316535,
				"element": "N" 
			},
			{
				"x": -2.5640281874,
				"y": -2.3129189045,
				"z": 0.6699354111,
				"element": "C" 
			},
			{
				"x": -2.6547428289,
				"y": -2.4212790255,
				"z": -0.5280110383,
				"element": "O" 
			},
			{
				"x": -3.7335165087,
				"y": -1.7321744229,
				"z": 1.5233039135,
				"element": "C" 
			},
			{
				"x": -3.8383724277,
				"y": -2.514532524,
				"z": 2.6481102562,
				"element": "F" 
			},
			{
				"x": -4.8743959887,
				"y": -1.8307687296,
				"z": 0.8213347925,
				"element": "F" 
			},
			{
				"x": -3.5906546044,
				"y": -0.2734653262,
				"z": 2.0658254399,
				"element": "C" 
			},
			{
				"x": -4.4516684551,
				"y": -0.162515517,
				"z": 3.1054752959,
				"element": "F" 
			},
			{
				"x": -2.3266196775,
				"y": -0.1200153905,
				"z": 2.5471781012,
				"element": "F" 
			},
			{
				"x": -3.9280467229,
				"y": 0.9430491511,
				"z": 1.1510234597,
				"element": "C" 
			},
			{
				"x": -3.7948002024,
				"y": 2.041004573,
				"z": 1.9314607948,
				"element": "F" 
			},
			{
				"x": -5.2249148604,
				"y": 0.8281135881,
				"z": 0.7849752429,
				"element": "F" 
			},
			{
				"x": -3.133187251,
				"y": 1.1984053775,
				"z": -0.1653033088,
				"element": "C" 
			},
			{
				"x": -3.402548075,
				"y": 0.1837390702,
				"z": -1.0110637388,
				"element": "F" 
			},
			{
				"x": -3.6318636243,
				"y": 2.349955569,
				"z": -0.6773139212,
				"element": "F" 
			},
			{
				"x": -1.5915529096,
				"y": 1.355334013,
				"z": -0.0357493109,
				"element": "C" 
			},
			{
				"x": -1.0633757146,
				"y": 0.1299423887,
				"z": 0.1913863493,
				"element": "F" 
			},
			{
				"x": -1.3139654022,
				"y": 2.1584651335,
				"z": 1.0190368038,
				"element": "F" 
			},
			{
				"x": -0.9190351848,
				"y": 1.9746046275,
				"z": -1.294923527,
				"element": "C" 
			},
			{
				"x": -1.1587629566,
				"y": 3.3040226652,
				"z": -1.2939483355,
				"element": "F" 
			},
			{
				"x": -1.4755913793,
				"y": 1.4252705622,
				"z": -2.3995395792,
				"element": "F" 
			},
			{
				"x": 0.6196770081,
				"y": 1.7590460227,
				"z": -1.4350092512,
				"element": "C" 
			},
			{
				"x": 0.9889467804,
				"y": 2.447062399,
				"z": -2.5428575345,
				"element": "F" 
			},
			{
				"x": 0.8663988044,
				"y": 0.4492042484,
				"z": -1.6262272509,
				"element": "F" 
			},
			{
				"x": 1.511835731,
				"y": 2.2576798675,
				"z": -0.2731215229,
				"element": "C" 
			},
			{
				"x": 2.7947709058,
				"y": 2.1646830518,
				"z": -0.640225361,
				"element": "F" 
			},
			{
				"x": 1.2354609576,
				"y": 3.5352626336,
				"z": 0.0185753591,
				"element": "F" 
			},
			{
				"x": 1.3227100639,
				"y": 1.5084700869,
				"z": 0.8209272172,
				"element": "F" 
			},
			{
				"x": 0.2755285307,
				"y": -4.8359882131,
				"z": 1.2948323708,
				"element": "S" 
			},
			{
				"x": 2.4676561071,
				"y": -4.1761888985,
				"z": -2.7178336968,
				"element": "H" 
			},
			{
				"x": 3.3149916602,
				"y": -5.7074242579,
				"z": -3.0353699622,
				"element": "H" 
			},
			{
				"x": 4.1336633843,
				"y": -4.1591998289,
				"z": -3.3167118047,
				"element": "H" 
			},
			{
				"x": 4.935649012,
				"y": -5.1745226368,
				"z": -1.1573825925,
				"element": "H" 
			},
			{
				"x": 4.0720771659,
				"y": -3.6560168529,
				"z": -0.8505902342,
				"element": "H" 
			},
			{
				"x": -1.5964324227,
				"y": -2.6679871084,
				"z": 2.4514569144,
				"element": "H" 
			}
		],
		 "valence_orbital": [ 
			{
				"type": "occ",
				"energy": -0.31884,
				"method": "rhf"
			},
			{
				"type": "occ",
				"energy": -0.30115,
				"method": "rhf"
			},
			{
				"type": "occ",
				"energy": -0.29571,
				"method": "rhf"
			},
			{
				"type": "occ",
				"energy": -0.27853,
				"method": "rhf"
			},
			{
				"type": "occ",
				"energy": -0.24328,
				"method": "rhf"
			},
			{
				"type": "unocc",
				"energy": -0.06155,
				"method": "rhf"
			},
			{
				"type": "unocc",
				"energy": -0.03373,
				"method": "rhf"
			},
			{
				"type": "unocc",
				"energy": -0.02319,
				"method": "rhf"
			},
			{
				"type": "unocc",
				"energy": 0.00735,
				"method": "rhf"
			},
			{
				"type": "unocc",
				"energy": 0.00998,
				"method": "rhf"
			}
		],
		"cosmo_sigma_profile": { 
			"-0.025": 0.0,
			"-0.024": 0.0,
			"-0.023": 0.0,
			"-0.022": 0.0,
			"-0.021": 0.0,
			"-0.02": 0.0,
			"-0.019": 0.0376344887722,
			"-0.018": 0.631603320855,
			"-0.017": 0.990059258065,
			"-0.016": 0.995034326514,
			"-0.015": 0.760271745699,
			"-0.014": 1.09247277379,
			"-0.013": 1.23401929087,
			"-0.012": 0.820197934954,
			"-0.011": 1.26544637874,
			"-0.01": 0.945587627576,
			"-0.009": 1.45738943018,
			"-0.008": 2.09317188348,
			"-0.007": 5.20255867779,
			"-0.006": 6.71084499313,
			"-0.005": 11.051099102,
			"-0.004": 17.1275070135,
			"-0.003": 23.9737772287,
			"-0.002": 32.0196892945,
			"-0.001": 47.6079418365,
			"0.0": 94.3661298778,
			"0.001": 110.587617014,
			"0.002": 24.2991738196,
			"0.003": 11.1040966106,
			"0.004": 7.68312985559,
			"0.005": 7.85745736007,
			"0.006": 8.95694860294,
			"0.007": 7.49343156769,
			"0.008": 7.61783934725,
			"0.009": 4.81983656925,
			"0.01": 5.26913250082,
			"0.011": 1.13468640838,
			"0.012": 0.0,
			"0.013": 0.0,
			"0.014": 0.0,
			"0.015": 0.0,
			"0.016": 0.0,
			"0.017": 0.0,
			"0.018": 0.0,
			"0.019": 0.0,
			"0.02": 0.0,
			"0.021": 0.0,
			"0.022": 0.0,
			"0.023": 0.0,
			"0.024": 0.0,
			"0.025": 0.0
		}
	}
}
