{
	 "smiles": "OC(=O)C1=NC(=NC=C1)N1CCCCC1", 
	 "Tm": 373.15, 
	 "num_atms": 28, 
	 "gaussian": { 
		 "optdone": 1, 
		 "sigma_profile": "yes", 
		 "theory": "DFT", 
		 "functional": "B3LYP", 
		 "basiset": "6-31G**", 
		 "properties": { 
			 "R2extent": 4523.0652, 
			 "electric_dipole_moment_norm": 5.92533806462, 
			 "electric_quadrupole_moment_norm": 22.8597107878, 
			 "total_energy": -703.628166363, 
			 "HOMO_LUMO_gap": 0.15614, 
			 "cosmo_polarized_energy": -11.08, 
			 "cosmo_cavitation_energy": 30.47, 
			 "cosmo_dispersion_energy": -22.67, 
			 "cosmo_repulsion_energy": 1.78, 
			 "cosmo_total_nonelectrostatic_energy": 9.58, 
			 "SMD_solvation_energy": 3.91 
		},
		"coords": [
			{
				"x": -2.6723763495,
				"y": -1.9128915739,
				"z": 3.4384994127,
				"element": "O" 
			},
			{
				"x": -2.9492967766,
				"y": -2.7503758686,
				"z": 2.4282887414,
				"element": "C" 
			},
			{
				"x": -3.6787596391,
				"y": -3.7089578463,
				"z": 2.5353509025,
				"element": "O" 
			},
			{
				"x": -2.2562103875,
				"y": -2.3791762032,
				"z": 1.1340213555,
				"element": "C" 
			},
			{
				"x": -1.4937132605,
				"y": -1.2809419371,
				"z": 1.1871498007,
				"element": "N" 
			},
			{
				"x": -0.8606416603,
				"y": -0.9201748626,
				"z": 0.0443783847,
				"element": "C" 
			},
			{
				"x": -0.9437754929,
				"y": -1.6049446073,
				"z": -1.1237678502,
				"element": "N" 
			},
			{
				"x": -1.7037363592,
				"y": -2.6948011926,
				"z": -1.1283819096,
				"element": "C" 
			},
			{
				"x": -2.41120977,
				"y": -3.148418142,
				"z": -0.0108731206,
				"element": "C" 
			},
			{
				"x": -0.0952043858,
				"y": 0.2028357326,
				"z": 0.0770825694,
				"element": "N" 
			},
			{
				"x": -0.0069640576,
				"y": 0.9992655531,
				"z": 1.3097073571,
				"element": "C" 
			},
			{
				"x": 0.6126041712,
				"y": 2.3669837086,
				"z": 1.0162208153,
				"element": "C" 
			},
			{
				"x": 2.019297414,
				"y": 2.2518130988,
				"z": 0.3976638189,
				"element": "C" 
			},
			{
				"x": 2.1049020553,
				"y": 1.0695404629,
				"z": -0.6019934058,
				"element": "C" 
			},
			{
				"x": 0.7213320676,
				"y": 0.6107071422,
				"z": -1.0739824852,
				"element": "C" 
			},
			{
				"x": -2.0616788189,
				"y": -1.241579095,
				"z": 3.0652082963,
				"element": "H" 
			},
			{
				"x": -1.7549285996,
				"y": -3.2340517646,
				"z": -2.0733962902,
				"element": "H" 
			},
			{
				"x": -3.0351628611,
				"y": -4.0319454136,
				"z": -0.0137446441,
				"element": "H" 
			},
			{
				"x": -1.0108865768,
				"y": 1.1160133148,
				"z": 1.7277610579,
				"element": "H" 
			},
			{
				"x": 0.5879784903,
				"y": 0.4631030973,
				"z": 2.064229939,
				"element": "H" 
			},
			{
				"x": 0.6459317936,
				"y": 2.943983767,
				"z": 1.9461197466,
				"element": "H" 
			},
			{
				"x": -0.0524631922,
				"y": 2.9140451215,
				"z": 0.3375522359,
				"element": "H" 
			},
			{
				"x": 2.2701485405,
				"y": 3.1952895433,
				"z": -0.0989414016,
				"element": "H" 
			},
			{
				"x": 2.7627581893,
				"y": 2.1146677613,
				"z": 1.1907983685,
				"element": "H" 
			},
			{
				"x": 2.7068829883,
				"y": 1.3395375989,
				"z": -1.4760314753,
				"element": "H" 
			},
			{
				"x": 2.6033543374,
				"y": 0.2139518544,
				"z": -0.1321853573,
				"element": "H" 
			},
			{
				"x": 0.7940495965,
				"y": -0.2422794896,
				"z": -1.74703822,
				"element": "H" 
			},
			{
				"x": 0.2169685438,
				"y": 1.4150002396,
				"z": -1.6287966425,
				"element": "H" 
			}
		],
		 "valence_orbital": [ 
			{
				"type": "occ",
				"energy": -0.31421,
				"method": "rhf"
			},
			{
				"type": "occ",
				"energy": -0.30331,
				"method": "rhf"
			},
			{
				"type": "occ",
				"energy": -0.27848,
				"method": "rhf"
			},
			{
				"type": "occ",
				"energy": -0.2576,
				"method": "rhf"
			},
			{
				"type": "occ",
				"energy": -0.22415,
				"method": "rhf"
			},
			{
				"type": "unocc",
				"energy": -0.06801,
				"method": "rhf"
			},
			{
				"type": "unocc",
				"energy": -0.0166,
				"method": "rhf"
			},
			{
				"type": "unocc",
				"energy": 0.05387,
				"method": "rhf"
			},
			{
				"type": "unocc",
				"energy": 0.06524,
				"method": "rhf"
			},
			{
				"type": "unocc",
				"energy": 0.09865,
				"method": "rhf"
			}
		],
		"cosmo_sigma_profile": { 
			"-0.025": 0.0,
			"-0.024": 0.0,
			"-0.023": 0.0,
			"-0.022": 0.0,
			"-0.021": 0.0,
			"-0.02": 0.0,
			"-0.019": 0.0,
			"-0.018": 0.0,
			"-0.017": 0.0,
			"-0.016": 0.0,
			"-0.015": 0.0,
			"-0.014": 0.0,
			"-0.013": 0.0,
			"-0.012": 0.169567447559,
			"-0.011": 0.715479449441,
			"-0.01": 0.42092879954,
			"-0.009": 0.649662449372,
			"-0.008": 1.9057345086,
			"-0.007": 4.81877279098,
			"-0.006": 5.09077215649,
			"-0.005": 5.55263233542,
			"-0.004": 16.762453389,
			"-0.003": 32.7820695308,
			"-0.002": 41.0283524368,
			"-0.001": 28.456597397,
			"0.0": 28.3692141777,
			"0.001": 17.0565354845,
			"0.002": 8.34500535354,
			"0.003": 5.54824825505,
			"0.004": 4.802796135,
			"0.005": 3.49877419396,
			"0.006": 3.94921739262,
			"0.007": 4.27340479397,
			"0.008": 4.51739271263,
			"0.009": 5.28942860864,
			"0.01": 6.17609269029,
			"0.011": 5.90565151654,
			"0.012": 3.56525225549,
			"0.013": 0.816164305984,
			"0.014": 0.0,
			"0.015": 0.0,
			"0.016": 0.0,
			"0.017": 0.0,
			"0.018": 0.0,
			"0.019": 0.0,
			"0.02": 0.0,
			"0.021": 0.0,
			"0.022": 0.0,
			"0.023": 0.0,
			"0.024": 0.0,
			"0.025": 0.0
		}
	}
}
