{
	 "smiles": "OCC1=CC=C(C=C1)C1=CC=CN=C1", 
	 "Tm": 379.15, 
	 "num_atms": 25, 
	 "gaussian": { 
		 "optdone": 1, 
		 "sigma_profile": "yes", 
		 "theory": "DFT", 
		 "functional": "B3LYP", 
		 "basiset": "6-31G**", 
		 "properties": { 
			 "R2extent": 4298.2211, 
			 "electric_dipole_moment_norm": 0.884621529243, 
			 "electric_quadrupole_moment_norm": 16.1534214466, 
			 "total_energy": -593.872632784, 
			 "HOMO_LUMO_gap": 0.19189, 
			 "cosmo_polarized_energy": -11.32, 
			 "cosmo_cavitation_energy": 29.0, 
			 "cosmo_dispersion_energy": -21.31, 
			 "cosmo_repulsion_energy": 1.66, 
			 "cosmo_total_nonelectrostatic_energy": 9.35, 
			 "SMD_solvation_energy": 3.36 
		},
		"coords": [
			{
				"x": 0.1759645228,
				"y": -1.6904222701,
				"z": 3.9312723439,
				"element": "O" 
			},
			{
				"x": 0.2597419466,
				"y": -0.273998535,
				"z": 3.8729119916,
				"element": "C" 
			},
			{
				"x": 0.1660722967,
				"y": 0.2867878612,
				"z": 2.4665650492,
				"element": "C" 
			},
			{
				"x": 0.6239677863,
				"y": -0.4559042947,
				"z": 1.3716146113,
				"element": "C" 
			},
			{
				"x": 0.5633785368,
				"y": 0.0664707682,
				"z": 0.0820784939,
				"element": "C" 
			},
			{
				"x": 0.048862944,
				"y": 1.3522527985,
				"z": -0.1561451799,
				"element": "C" 
			},
			{
				"x": -0.4083039619,
				"y": 2.0930719599,
				"z": 0.9468523299,
				"element": "C" 
			},
			{
				"x": -0.3555787378,
				"y": 1.5644785343,
				"z": 2.2347067145,
				"element": "C" 
			},
			{
				"x": -0.0152621285,
				"y": 1.90721632,
				"z": -1.529115219,
				"element": "C" 
			},
			{
				"x": 0.9983347924,
				"y": 1.6804434406,
				"z": -2.47224733,
				"element": "C" 
			},
			{
				"x": 0.8833806227,
				"y": 2.2269817131,
				"z": -3.747320808,
				"element": "C" 
			},
			{
				"x": -0.2429095697,
				"y": 2.994515435,
				"z": -4.0468230997,
				"element": "C" 
			},
			{
				"x": -1.2284378642,
				"y": 3.2237905346,
				"z": -3.169920073,
				"element": "N" 
			},
			{
				"x": -1.1068544932,
				"y": 2.686605824,
				"z": -1.9529177209,
				"element": "C" 
			},
			{
				"x": -0.6700543624,
				"y": -1.9474233633,
				"z": 3.5405060087,
				"element": "H" 
			},
			{
				"x": 1.235794822,
				"y": -0.0285746295,
				"z": 4.3092463013,
				"element": "H" 
			},
			{
				"x": -0.4999155896,
				"y": 0.2044259464,
				"z": 4.511409583,
				"element": "H" 
			},
			{
				"x": 1.0151327509,
				"y": -1.4543238784,
				"z": 1.5414005811,
				"element": "H" 
			},
			{
				"x": 0.8976332665,
				"y": -0.539311152,
				"z": -0.7554962855,
				"element": "H" 
			},
			{
				"x": -0.7932501373,
				"y": 3.0972226366,
				"z": 0.7958879567,
				"element": "H" 
			},
			{
				"x": -0.7194190795,
				"y": 2.1574018568,
				"z": 3.0709926659,
				"element": "H" 
			},
			{
				"x": 1.8754480961,
				"y": 1.1009415268,
				"z": -2.1986515269,
				"element": "H" 
			},
			{
				"x": 1.656870013,
				"y": 2.0724561562,
				"z": -4.4933492872,
				"element": "H" 
			},
			{
				"x": -0.3599887221,
				"y": 3.444240741,
				"z": -5.0311986587,
				"element": "H" 
			},
			{
				"x": -1.9353077507,
				"y": 2.8659540698,
				"z": -1.2695594424,
				"element": "H" 
			}
		],
		 "valence_orbital": [ 
			{
				"type": "occ",
				"energy": -0.2818,
				"method": "rhf"
			},
			{
				"type": "occ",
				"energy": -0.27104,
				"method": "rhf"
			},
			{
				"type": "occ",
				"energy": -0.25753,
				"method": "rhf"
			},
			{
				"type": "occ",
				"energy": -0.25293,
				"method": "rhf"
			},
			{
				"type": "occ",
				"energy": -0.23045,
				"method": "rhf"
			},
			{
				"type": "unocc",
				"energy": -0.03856,
				"method": "rhf"
			},
			{
				"type": "unocc",
				"energy": -0.02183,
				"method": "rhf"
			},
			{
				"type": "unocc",
				"energy": -0.00971,
				"method": "rhf"
			},
			{
				"type": "unocc",
				"energy": 0.01639,
				"method": "rhf"
			},
			{
				"type": "unocc",
				"energy": 0.08248,
				"method": "rhf"
			}
		],
		"cosmo_sigma_profile": { 
			"-0.025": 0.0,
			"-0.024": 0.0,
			"-0.023": 0.0,
			"-0.022": 0.0,
			"-0.021": 0.0,
			"-0.02": 0.0,
			"-0.019": 0.0,
			"-0.018": 0.0,
			"-0.017": 0.0,
			"-0.016": 0.135456890875,
			"-0.015": 1.14374886173,
			"-0.014": 0.750565118878,
			"-0.013": 0.552371498562,
			"-0.012": 1.22267155718,
			"-0.011": 0.823523339181,
			"-0.01": 0.572108149442,
			"-0.009": 0.558076196964,
			"-0.008": 0.44041261984,
			"-0.007": 4.38455927509,
			"-0.006": 15.1479232553,
			"-0.005": 21.4287274133,
			"-0.004": 20.4056368304,
			"-0.003": 18.2859403822,
			"-0.002": 14.680715551,
			"-0.001": 13.2333952159,
			"0.0": 13.0302622774,
			"0.001": 16.4063444474,
			"0.002": 21.8187316801,
			"0.003": 17.0326781714,
			"0.004": 12.257098811,
			"0.005": 11.7881736437,
			"0.006": 4.3637567258,
			"0.007": 2.37207853572,
			"0.008": 2.12642019463,
			"0.009": 2.91965955451,
			"0.01": 1.39471352208,
			"0.011": 2.08485215867,
			"0.012": 2.83315871027,
			"0.013": 2.08620738349,
			"0.014": 3.07705594683,
			"0.015": 0.92715950225,
			"0.016": 0.797209697673,
			"0.017": 0.416588094159,
			"0.018": 0.0,
			"0.019": 0.0,
			"0.02": 0.0,
			"0.021": 0.0,
			"0.022": 0.0,
			"0.023": 0.0,
			"0.024": 0.0,
			"0.025": 0.0
		}
	}
}
