{
	 "smiles": "CCOC(=O)CC(=O)C1=CC(F)=C(Cl)N=C1Cl", 
	 "Tm": 343.15, 
	 "num_atms": 25, 
	 "gaussian": { 
		 "optdone": 1, 
		 "sigma_profile": "yes", 
		 "theory": "DFT", 
		 "functional": "B3LYP", 
		 "basiset": "6-31G**", 
		 "properties": { 
			 "R2extent": 6953.1541, 
			 "electric_dipole_moment_norm": 2.99822058895, 
			 "electric_quadrupole_moment_norm": 8.72932962145, 
			 "total_energy": -1686.52212887, 
			 "HOMO_LUMO_gap": 0.17921, 
			 "cosmo_polarized_energy": -10.74, 
			 "cosmo_cavitation_energy": 34.62, 
			 "cosmo_dispersion_energy": -24.43, 
			 "cosmo_repulsion_energy": 1.92, 
			 "cosmo_total_nonelectrostatic_energy": 12.11, 
			 "SMD_solvation_energy": 6.06 
		},
		"coords": [
			{
				"x": 0.203812983,
				"y": -2.1157228298,
				"z": 3.8989954277,
				"element": "C" 
			},
			{
				"x": -0.3501612706,
				"y": -1.9921850602,
				"z": 2.4931178649,
				"element": "C" 
			},
			{
				"x": 0.7215658052,
				"y": -1.5036109326,
				"z": 1.6450280299,
				"element": "O" 
			},
			{
				"x": 0.4141934626,
				"y": -1.3366548735,
				"z": 0.3491649286,
				"element": "C" 
			},
			{
				"x": -0.6735519264,
				"y": -1.5645223362,
				"z": -0.1363406249,
				"element": "O" 
			},
			{
				"x": 1.6268093651,
				"y": -0.8638700218,
				"z": -0.4360257217,
				"element": "C" 
			},
			{
				"x": 1.2868275186,
				"y": -0.4607192161,
				"z": -1.863389048,
				"element": "C" 
			},
			{
				"x": 1.8578682126,
				"y": -1.013238833,
				"z": -2.7879020067,
				"element": "O" 
			},
			{
				"x": 0.2360354387,
				"y": 0.5763809371,
				"z": -2.1940286464,
				"element": "C" 
			},
			{
				"x": -0.2682438472,
				"y": 0.5055347832,
				"z": -3.5029183537,
				"element": "C" 
			},
			{
				"x": -1.2390070018,
				"y": 1.3904203551,
				"z": -3.9275389411,
				"element": "C" 
			},
			{
				"x": -1.7316634501,
				"y": 1.3193358423,
				"z": -5.1666740759,
				"element": "F" 
			},
			{
				"x": -1.6945521772,
				"y": 2.363968187,
				"z": -3.0323015049,
				"element": "C" 
			},
			{
				"x": -2.9264598312,
				"y": 3.4863856989,
				"z": -3.5326355153,
				"element": "Cl" 
			},
			{
				"x": -1.2125895947,
				"y": 2.4647878782,
				"z": -1.808890737,
				"element": "N" 
			},
			{
				"x": -0.2885737406,
				"y": 1.6117366961,
				"z": -1.3967306909,
				"element": "C" 
			},
			{
				"x": 0.2755885319,
				"y": 1.9234126125,
				"z": 0.2399030454,
				"element": "Cl" 
			},
			{
				"x": 1.0415561824,
				"y": -2.8181459649,
				"z": 3.9302309016,
				"element": "H" 
			},
			{
				"x": -0.5774175614,
				"y": -2.4817969057,
				"z": 4.5722020248,
				"element": "H" 
			},
			{
				"x": 0.5508379083,
				"y": -1.1471179168,
				"z": 4.2697059525,
				"element": "H" 
			},
			{
				"x": -1.1854798465,
				"y": -1.2878438678,
				"z": 2.4374007739,
				"element": "H" 
			},
			{
				"x": -0.6979671712,
				"y": -2.9518303001,
				"z": 2.0988333791,
				"element": "H" 
			},
			{
				"x": 2.3405504617,
				"y": -1.6896910497,
				"z": -0.5132587005,
				"element": "H" 
			},
			{
				"x": 2.120498993,
				"y": -0.0530864334,
				"z": 0.1050481717,
				"element": "H" 
			},
			{
				"x": 0.1142225558,
				"y": -0.2558264487,
				"z": -4.1729959332,
				"element": "H" 
			}
		],
		 "valence_orbital": [ 
			{
				"type": "occ",
				"energy": -0.31365,
				"method": "rhf"
			},
			{
				"type": "occ",
				"energy": -0.31051,
				"method": "rhf"
			},
			{
				"type": "occ",
				"energy": -0.28839,
				"method": "rhf"
			},
			{
				"type": "occ",
				"energy": -0.27672,
				"method": "rhf"
			},
			{
				"type": "occ",
				"energy": -0.26819,
				"method": "rhf"
			},
			{
				"type": "unocc",
				"energy": -0.08898,
				"method": "rhf"
			},
			{
				"type": "unocc",
				"energy": -0.05214,
				"method": "rhf"
			},
			{
				"type": "unocc",
				"energy": -0.00455,
				"method": "rhf"
			},
			{
				"type": "unocc",
				"energy": -0.00139,
				"method": "rhf"
			},
			{
				"type": "unocc",
				"energy": 0.00734,
				"method": "rhf"
			}
		],
		"cosmo_sigma_profile": { 
			"-0.025": 0.0,
			"-0.024": 0.0,
			"-0.023": 0.0,
			"-0.022": 0.0,
			"-0.021": 0.0,
			"-0.02": 0.0,
			"-0.019": 0.0,
			"-0.018": 0.0,
			"-0.017": 0.0,
			"-0.016": 0.0,
			"-0.015": 0.0,
			"-0.014": 0.0,
			"-0.013": 0.0,
			"-0.012": 0.0,
			"-0.011": 0.0,
			"-0.01": 0.364851276873,
			"-0.009": 1.4374203178,
			"-0.008": 6.13348158113,
			"-0.007": 5.32195487387,
			"-0.006": 8.12891549742,
			"-0.005": 18.7446104855,
			"-0.004": 28.7320613593,
			"-0.003": 26.5410755856,
			"-0.002": 23.0982439678,
			"-0.001": 22.8892205719,
			"0.0": 21.2381498252,
			"0.001": 18.7720020184,
			"0.002": 24.346935715,
			"0.003": 24.3574504603,
			"0.004": 10.1034511913,
			"0.005": 5.81898221519,
			"0.006": 6.58517719958,
			"0.007": 5.97988307315,
			"0.008": 5.30433429238,
			"0.009": 4.63567433232,
			"0.01": 6.41027508054,
			"0.011": 5.26221739228,
			"0.012": 1.04974260933,
			"0.013": 0.0,
			"0.014": 0.0,
			"0.015": 0.0,
			"0.016": 0.0,
			"0.017": 0.0,
			"0.018": 0.0,
			"0.019": 0.0,
			"0.02": 0.0,
			"0.021": 0.0,
			"0.022": 0.0,
			"0.023": 0.0,
			"0.024": 0.0,
			"0.025": 0.0
		}
	}
}
