{
	 "smiles": "NS(=O)(=O)C1=CC=CC=C1", 
	 "Tm": 425.15, 
	 "num_atms": 17, 
	 "gaussian": { 
		 "optdone": 1, 
		 "sigma_profile": "yes", 
		 "theory": "DFT", 
		 "functional": "B3LYP", 
		 "basiset": "6-31G**", 
		 "properties": { 
			 "R2extent": 2446.0, 
			 "electric_dipole_moment_norm": 6.02134615265, 
			 "electric_quadrupole_moment_norm": 16.9037361003, 
			 "total_energy": -836.172163763, 
			 "HOMO_LUMO_gap": 0.22881, 
			 "cosmo_polarized_energy": -17.79, 
			 "cosmo_cavitation_energy": 22.47, 
			 "cosmo_dispersion_energy": -17.22, 
			 "cosmo_repulsion_energy": 1.35, 
			 "cosmo_total_nonelectrostatic_energy": 6.6, 
			 "SMD_solvation_energy": 3.59 
		},
		"coords": [
			{
				"x": -0.0591394312,
				"y": 2.0288256293,
				"z": -2.595057072,
				"element": "N" 
			},
			{
				"x": -1.3967295721,
				"y": 1.7807126811,
				"z": -1.6048688398,
				"element": "S" 
			},
			{
				"x": -2.0592321596,
				"y": 0.5895946639,
				"z": -2.1329717735,
				"element": "O" 
			},
			{
				"x": -2.0545714536,
				"y": 3.081942197,
				"z": -1.5017524996,
				"element": "O" 
			},
			{
				"x": -0.7625807547,
				"y": 1.3659470166,
				"z": 0.0283130521,
				"element": "C" 
			},
			{
				"x": -0.5215311432,
				"y": 0.027726292,
				"z": 0.3484929439,
				"element": "C" 
			},
			{
				"x": -0.0045263458,
				"y": -0.2847891853,
				"z": 1.6060741932,
				"element": "C" 
			},
			{
				"x": 0.2613999446,
				"y": 0.7311509422,
				"z": 2.5274542454,
				"element": "C" 
			},
			{
				"x": 0.0031646092,
				"y": 2.0644611116,
				"z": 2.1996443007,
				"element": "C" 
			},
			{
				"x": -0.5138300838,
				"y": 2.3899673648,
				"z": 0.9453795405,
				"element": "C" 
			},
			{
				"x": 0.4930265544,
				"y": 1.1878456729,
				"z": -2.7300036354,
				"element": "H" 
			},
			{
				"x": 0.496830938,
				"y": 2.8300313952,
				"z": -2.3134632104,
				"element": "H" 
			},
			{
				"x": -0.7595522347,
				"y": -0.7491209903,
				"z": -0.3703900284,
				"element": "H" 
			},
			{
				"x": 0.181430147,
				"y": -1.3217311518,
				"z": 1.8691984031,
				"element": "H" 
			},
			{
				"x": 0.6609643247,
				"y": 0.4825240488,
				"z": 3.5062135868,
				"element": "H" 
			},
			{
				"x": 0.1950690242,
				"y": 2.8508019428,
				"z": 2.9234511097,
				"element": "H" 
			},
			{
				"x": -0.7460923633,
				"y": 3.4165103692,
				"z": 0.6822856837,
				"element": "H" 
			}
		],
		 "valence_orbital": [ 
			{
				"type": "occ",
				"energy": -0.31715,
				"method": "rhf"
			},
			{
				"type": "occ",
				"energy": -0.30394,
				"method": "rhf"
			},
			{
				"type": "occ",
				"energy": -0.30214,
				"method": "rhf"
			},
			{
				"type": "occ",
				"energy": -0.27522,
				"method": "rhf"
			},
			{
				"type": "occ",
				"energy": -0.27064,
				"method": "rhf"
			},
			{
				"type": "unocc",
				"energy": -0.04183,
				"method": "rhf"
			},
			{
				"type": "unocc",
				"energy": -0.02596,
				"method": "rhf"
			},
			{
				"type": "unocc",
				"energy": 0.04957,
				"method": "rhf"
			},
			{
				"type": "unocc",
				"energy": 0.07271,
				"method": "rhf"
			},
			{
				"type": "unocc",
				"energy": 0.0899,
				"method": "rhf"
			}
		],
		"cosmo_sigma_profile": { 
			"-0.025": 0.0,
			"-0.024": 0.0,
			"-0.023": 0.0,
			"-0.022": 0.0,
			"-0.021": 0.0,
			"-0.02": 0.0,
			"-0.019": 0.0,
			"-0.018": 0.0,
			"-0.017": 0.0,
			"-0.016": 0.190817336772,
			"-0.015": 2.01742338915,
			"-0.014": 3.03883858352,
			"-0.013": 2.09983329397,
			"-0.012": 3.13126283896,
			"-0.011": 2.5381496292,
			"-0.01": 1.96692632306,
			"-0.009": 2.10715342115,
			"-0.008": 2.29977729333,
			"-0.007": 7.82689162399,
			"-0.006": 12.2119138972,
			"-0.005": 13.4701823494,
			"-0.004": 9.52085595138,
			"-0.003": 7.50597185385,
			"-0.002": 7.72960721686,
			"-0.001": 8.36069226192,
			"0.0": 6.97934510454,
			"0.001": 10.1871648772,
			"0.002": 11.8684507063,
			"0.003": 14.6421200104,
			"0.004": 6.84691722027,
			"0.005": 3.16809817352,
			"0.006": 2.89516138939,
			"0.007": 3.71012394938,
			"0.008": 4.72846101514,
			"0.009": 4.97508527313,
			"0.01": 6.85371495589,
			"0.011": 10.7311554864,
			"0.012": 5.72113328039,
			"0.013": 0.187373907349,
			"0.014": 0.0,
			"0.015": 0.0,
			"0.016": 0.0,
			"0.017": 0.0,
			"0.018": 0.0,
			"0.019": 0.0,
			"0.02": 0.0,
			"0.021": 0.0,
			"0.022": 0.0,
			"0.023": 0.0,
			"0.024": 0.0,
			"0.025": 0.0
		}
	}
}
