{
	 "smiles": "CC(C)(C)C1=CC(OCC(O)=O)=CC=C1", 
	 "Tm": 391.15, 
	 "num_atms": 31, 
	 "gaussian": { 
		 "optdone": 1, 
		 "sigma_profile": "yes", 
		 "theory": "DFT", 
		 "functional": "B3LYP", 
		 "basiset": "6-31G**", 
		 "properties": { 
			 "R2extent": 4657.0646, 
			 "electric_dipole_moment_norm": 1.93646519721, 
			 "electric_quadrupole_moment_norm": 12.4788854374, 
			 "total_energy": -692.601199925, 
			 "HOMO_LUMO_gap": 0.23158, 
			 "cosmo_polarized_energy": -11.76, 
			 "cosmo_cavitation_energy": 33.55, 
			 "cosmo_dispersion_energy": -23.2, 
			 "cosmo_repulsion_energy": 1.83, 
			 "cosmo_total_nonelectrostatic_energy": 12.19, 
			 "SMD_solvation_energy": 7.22 
		},
		"coords": [
			{
				"x": 3.2583220107,
				"y": -0.061250288,
				"z": -0.3943702352,
				"element": "C" 
			},
			{
				"x": 2.1952406576,
				"y": -1.1202858391,
				"z": -0.0468995722,
				"element": "C" 
			},
			{
				"x": 2.8607430109,
				"y": -2.1995741317,
				"z": 0.8396460022,
				"element": "C" 
			},
			{
				"x": 1.7074509967,
				"y": -1.7689981292,
				"z": -1.3646593323,
				"element": "C" 
			},
			{
				"x": 0.9892385499,
				"y": -0.5172878872,
				"z": 0.6968802886,
				"element": "C" 
			},
			{
				"x": -0.0587515332,
				"y": -1.3598977391,
				"z": 1.1033375653,
				"element": "C" 
			},
			{
				"x": -1.170224819,
				"y": -0.8506537758,
				"z": 1.7679365389,
				"element": "C" 
			},
			{
				"x": -2.152824845,
				"y": -1.731616222,
				"z": 2.2061619377,
				"element": "O" 
			},
			{
				"x": -3.3527246418,
				"y": -1.737617225,
				"z": 1.4714387167,
				"element": "C" 
			},
			{
				"x": -3.2841330933,
				"y": -2.6279086071,
				"z": 0.2337856165,
				"element": "C" 
			},
			{
				"x": -4.4650594731,
				"y": -2.5862037115,
				"z": -0.4291207638,
				"element": "O" 
			},
			{
				"x": -2.342174445,
				"y": -3.2924759717,
				"z": -0.1258088639,
				"element": "O" 
			},
			{
				"x": -1.2763094664,
				"y": 0.5128378374,
				"z": 2.0527887997,
				"element": "C" 
			},
			{
				"x": -0.2452259344,
				"y": 1.3576718668,
				"z": 1.6497944614,
				"element": "C" 
			},
			{
				"x": 0.8730996134,
				"y": 0.8507920471,
				"z": 0.9814005796,
				"element": "C" 
			},
			{
				"x": 2.8590990883,
				"y": 0.7172615132,
				"z": -1.0528760458,
				"element": "H" 
			},
			{
				"x": 3.6611582981,
				"y": 0.4217038454,
				"z": 0.5021565272,
				"element": "H" 
			},
			{
				"x": 4.0946616395,
				"y": -0.5367005202,
				"z": -0.9171052619,
				"element": "H" 
			},
			{
				"x": 3.718761663,
				"y": -2.6417545808,
				"z": 0.3206610278,
				"element": "H" 
			},
			{
				"x": 3.2182082765,
				"y": -1.7681160196,
				"z": 1.7805034763,
				"element": "H" 
			},
			{
				"x": 2.1672662029,
				"y": -3.0088336142,
				"z": 1.0852853551,
				"element": "H" 
			},
			{
				"x": 0.9633229687,
				"y": -2.5496679392,
				"z": -1.1827894789,
				"element": "H" 
			},
			{
				"x": 1.2516452435,
				"y": -1.0210314459,
				"z": -2.0221160673,
				"element": "H" 
			},
			{
				"x": 2.5490529836,
				"y": -2.2234784359,
				"z": -1.8999365314,
				"element": "H" 
			},
			{
				"x": -0.0461848973,
				"y": -2.4241391646,
				"z": 0.9008879652,
				"element": "H" 
			},
			{
				"x": -4.1400984662,
				"y": -2.1306242513,
				"z": 2.123982373,
				"element": "H" 
			},
			{
				"x": -3.6594031401,
				"y": -0.7307133992,
				"z": 1.1571833051,
				"element": "H" 
			},
			{
				"x": -4.3711846985,
				"y": -3.1763378367,
				"z": -1.1957487833,
				"element": "H" 
			},
			{
				"x": -2.1391984458,
				"y": 0.8897401357,
				"z": 2.5935330598,
				"element": "H" 
			},
			{
				"x": -0.3048707441,
				"y": 2.4209191057,
				"z": 1.8653563958,
				"element": "H" 
			},
			{
				"x": 1.6566974398,
				"y": 1.5390403836,
				"z": 0.6872109441,
				"element": "H" 
			}
		],
		 "valence_orbital": [ 
			{
				"type": "occ",
				"energy": -0.31379,
				"method": "rhf"
			},
			{
				"type": "occ",
				"energy": -0.29294,
				"method": "rhf"
			},
			{
				"type": "occ",
				"energy": -0.27423,
				"method": "rhf"
			},
			{
				"type": "occ",
				"energy": -0.23894,
				"method": "rhf"
			},
			{
				"type": "occ",
				"energy": -0.23242,
				"method": "rhf"
			},
			{
				"type": "unocc",
				"energy": -0.00084,
				"method": "rhf"
			},
			{
				"type": "unocc",
				"energy": 0.00302,
				"method": "rhf"
			},
			{
				"type": "unocc",
				"energy": 0.00993,
				"method": "rhf"
			},
			{
				"type": "unocc",
				"energy": 0.06984,
				"method": "rhf"
			},
			{
				"type": "unocc",
				"energy": 0.08719,
				"method": "rhf"
			}
		],
		"cosmo_sigma_profile": { 
			"-0.025": 0.0,
			"-0.024": 0.0,
			"-0.023": 0.0,
			"-0.022": 0.0,
			"-0.021": 0.0,
			"-0.02": 0.0,
			"-0.019": 0.222385021368,
			"-0.018": 0.818139859941,
			"-0.017": 1.00133449159,
			"-0.016": 1.05527387242,
			"-0.015": 0.531606582587,
			"-0.014": 0.538802238232,
			"-0.013": 0.755242549336,
			"-0.012": 0.752319054675,
			"-0.011": 0.645972690037,
			"-0.01": 0.830546753364,
			"-0.009": 0.682381512934,
			"-0.008": 3.32395990863,
			"-0.007": 5.57093643841,
			"-0.006": 8.36819028742,
			"-0.005": 11.3146119029,
			"-0.004": 12.096561394,
			"-0.003": 25.905825394,
			"-0.002": 28.1358393639,
			"-0.001": 25.1765004082,
			"0.0": 19.9999095115,
			"0.001": 29.7223638518,
			"0.002": 16.5174067657,
			"0.003": 9.24729492185,
			"0.004": 13.0937689983,
			"0.005": 13.5262825668,
			"0.006": 9.03535783938,
			"0.007": 4.43560746684,
			"0.008": 4.17644774586,
			"0.009": 5.09852139787,
			"0.01": 4.61202888453,
			"0.011": 4.69134811106,
			"0.012": 1.08561288864,
			"0.013": 0.0,
			"0.014": 0.0,
			"0.015": 0.0,
			"0.016": 0.0,
			"0.017": 0.0,
			"0.018": 0.0,
			"0.019": 0.0,
			"0.02": 0.0,
			"0.021": 0.0,
			"0.022": 0.0,
			"0.023": 0.0,
			"0.024": 0.0,
			"0.025": 0.0
		}
	}
}
