{
	 "smiles": "CN(C1CCCCC1)C(=O)C(F)(F)C(F)(F)C(F)(F)C(F)(F)C(F)(F)C(F)(F)C(F)(F)C(F)(F)F", 
	 "Tm": 330.15, 
	 "num_atms": 49, 
	 "gaussian": { 
		 "optdone": 1, 
		 "sigma_profile": "yes", 
		 "theory": "DFT", 
		 "functional": "B3LYP", 
		 "basiset": "6-31G**", 
		 "properties": { 
			 "R2extent": 19230.3307, 
			 "electric_dipole_moment_norm": 4.94464307408, 
			 "electric_quadrupole_moment_norm": 8.47417085679, 
			 "total_energy": -2445.33995073, 
			 "HOMO_LUMO_gap": 0.2372, 
			 "cosmo_polarized_energy": -6.8, 
			 "cosmo_cavitation_energy": 53.28, 
			 "cosmo_dispersion_energy": -34.77, 
			 "cosmo_repulsion_energy": 2.3, 
			 "cosmo_total_nonelectrostatic_energy": 20.81, 
			 "SMD_solvation_energy": 12.98 
		},
		"coords": [
			{
				"x": 3.0850750685,
				"y": 1.5790653911,
				"z": -0.2491246784,
				"element": "C" 
			},
			{
				"x": 1.8477102694,
				"y": 0.8240679138,
				"z": -0.047341438,
				"element": "N" 
			},
			{
				"x": 1.7945782399,
				"y": -0.3168268353,
				"z": 0.917773874,
				"element": "C" 
			},
			{
				"x": 2.7346209212,
				"y": -0.1630425175,
				"z": 2.1317353153,
				"element": "C" 
			},
			{
				"x": 4.1931864012,
				"y": -0.6134113289,
				"z": 1.9181527432,
				"element": "C" 
			},
			{
				"x": 4.2750477436,
				"y": -2.0003353875,
				"z": 1.2625484268,
				"element": "C" 
			},
			{
				"x": 3.4570666857,
				"y": -2.0509446459,
				"z": -0.03636006,
				"element": "C" 
			},
			{
				"x": 1.9892580706,
				"y": -1.683651297,
				"z": 0.2227898861,
				"element": "C" 
			},
			{
				"x": 0.6939582635,
				"y": 1.029709007,
				"z": -0.7379874023,
				"element": "C" 
			},
			{
				"x": -0.3077230446,
				"y": 0.3319009572,
				"z": -0.6123760431,
				"element": "O" 
			},
			{
				"x": 0.6426203532,
				"y": 2.209963613,
				"z": -1.7424557405,
				"element": "C" 
			},
			{
				"x": 0.9515407741,
				"y": 3.3969456794,
				"z": -1.1370072048,
				"element": "F" 
			},
			{
				"x": 1.5730197029,
				"y": 1.9889311438,
				"z": -2.7186521707,
				"element": "F" 
			},
			{
				"x": -0.711161544,
				"y": 2.4280553849,
				"z": -2.4963299325,
				"element": "C" 
			},
			{
				"x": -1.1796952116,
				"y": 1.2651809815,
				"z": -2.9800152495,
				"element": "F" 
			},
			{
				"x": -0.4029176152,
				"y": 3.2195202685,
				"z": -3.5624120886,
				"element": "F" 
			},
			{
				"x": -1.8592615258,
				"y": 3.2255897585,
				"z": -1.7828517167,
				"element": "C" 
			},
			{
				"x": -2.910336148,
				"y": 3.2197142545,
				"z": -2.640857815,
				"element": "F" 
			},
			{
				"x": -1.417538919,
				"y": 4.498688521,
				"z": -1.6507310098,
				"element": "F" 
			},
			{
				"x": -2.4033999835,
				"y": 2.8258813741,
				"z": -0.3764977324,
				"element": "C" 
			},
			{
				"x": -3.0872599825,
				"y": 3.901820417,
				"z": 0.088517419,
				"element": "F" 
			},
			{
				"x": -1.3535162163,
				"y": 2.6180935517,
				"z": 0.4543799293,
				"element": "F" 
			},
			{
				"x": -3.403421321,
				"y": 1.6312766502,
				"z": -0.340807006,
				"element": "C" 
			},
			{
				"x": -2.9887045079,
				"y": 0.6510050766,
				"z": -1.1664052673,
				"element": "F" 
			},
			{
				"x": -4.6005121224,
				"y": 2.0809109619,
				"z": -0.7831337241,
				"element": "F" 
			},
			{
				"x": -3.6241019025,
				"y": 0.9628711481,
				"z": 1.0549891829,
				"element": "C" 
			},
			{
				"x": -2.4745266391,
				"y": 0.3770396395,
				"z": 1.447683553,
				"element": "F" 
			},
			{
				"x": -4.5618585574,
				"y": 0.0015831759,
				"z": 0.8587030036,
				"element": "F" 
			},
			{
				"x": -4.1223705852,
				"y": 1.8834626466,
				"z": 2.2004205292,
				"element": "C" 
			},
			{
				"x": -5.1452751614,
				"y": 2.6497474424,
				"z": 1.760723907,
				"element": "F" 
			},
			{
				"x": -3.1002167656,
				"y": 2.6826005705,
				"z": 2.5865944576,
				"element": "F" 
			},
			{
				"x": -4.6210470029,
				"y": 1.1237655279,
				"z": 3.4590355325,
				"element": "C" 
			},
			{
				"x": -4.8227814665,
				"y": 2.0092502334,
				"z": 4.4429814416,
				"element": "F" 
			},
			{
				"x": -5.7716292363,
				"y": 0.4933977789,
				"z": 3.2051452214,
				"element": "F" 
			},
			{
				"x": -3.7095126099,
				"y": 0.2293062449,
				"z": 3.8640906552,
				"element": "F" 
			},
			{
				"x": 3.4605231699,
				"y": 1.9463048103,
				"z": 0.7083294361,
				"element": "H" 
			},
			{
				"x": 2.9187162817,
				"y": 2.4377053397,
				"z": -0.8891468226,
				"element": "H" 
			},
			{
				"x": 3.8550520909,
				"y": 0.9523291229,
				"z": -0.7091804191,
				"element": "H" 
			},
			{
				"x": 0.7671929267,
				"y": -0.2911312339,
				"z": 1.2872405394,
				"element": "H" 
			},
			{
				"x": 2.6896268048,
				"y": 0.860105527,
				"z": 2.5224693217,
				"element": "H" 
			},
			{
				"x": 2.3007079182,
				"y": -0.797064843,
				"z": 2.915686139,
				"element": "H" 
			},
			{
				"x": 4.7361915329,
				"y": 0.1068936921,
				"z": 1.2960076503,
				"element": "H" 
			},
			{
				"x": 4.7057383402,
				"y": -0.6217092991,
				"z": 2.8873792608,
				"element": "H" 
			},
			{
				"x": 3.8855485739,
				"y": -2.7566777618,
				"z": 1.9588952622,
				"element": "H" 
			},
			{
				"x": 5.3216786627,
				"y": -2.2635752823,
				"z": 1.0704826039,
				"element": "H" 
			},
			{
				"x": 3.895231007,
				"y": -1.3678731287,
				"z": -0.776898942,
				"element": "H" 
			},
			{
				"x": 3.509925519,
				"y": -3.0522764436,
				"z": -0.4794583063,
				"element": "H" 
			},
			{
				"x": 1.5511661973,
				"y": -2.443931631,
				"z": 0.8841727013,
				"element": "H" 
			},
			{
				"x": 1.3990865496,
				"y": -1.7040321706,
				"z": -0.6973972231,
				"element": "H" 
			}
		],
		 "valence_orbital": [ 
			{
				"type": "occ",
				"energy": -0.32902,
				"method": "rhf"
			},
			{
				"type": "occ",
				"energy": -0.31898,
				"method": "rhf"
			},
			{
				"type": "occ",
				"energy": -0.31273,
				"method": "rhf"
			},
			{
				"type": "occ",
				"energy": -0.27378,
				"method": "rhf"
			},
			{
				"type": "occ",
				"energy": -0.25701,
				"method": "rhf"
			},
			{
				"type": "unocc",
				"energy": -0.01981,
				"method": "rhf"
			},
			{
				"type": "unocc",
				"energy": 0.02096,
				"method": "rhf"
			},
			{
				"type": "unocc",
				"energy": 0.02215,
				"method": "rhf"
			},
			{
				"type": "unocc",
				"energy": 0.04487,
				"method": "rhf"
			},
			{
				"type": "unocc",
				"energy": 0.0564,
				"method": "rhf"
			}
		],
		"cosmo_sigma_profile": { 
			"-0.025": 0.0,
			"-0.024": 0.0,
			"-0.023": 0.0,
			"-0.022": 0.0,
			"-0.021": 0.0,
			"-0.02": 0.0,
			"-0.019": 0.0,
			"-0.018": 0.0,
			"-0.017": 0.0,
			"-0.016": 0.0,
			"-0.015": 0.0,
			"-0.014": 0.0,
			"-0.013": 0.0,
			"-0.012": 0.0,
			"-0.011": 0.0,
			"-0.01": 0.0,
			"-0.009": 0.0,
			"-0.008": 0.0,
			"-0.007": 0.0,
			"-0.006": 2.8121917273,
			"-0.005": 9.16909066901,
			"-0.004": 15.2897756038,
			"-0.003": 31.2077247301,
			"-0.002": 42.3423526004,
			"-0.001": 50.3664450996,
			"0.0": 74.6958673484,
			"0.001": 127.025673076,
			"0.002": 46.2671304001,
			"0.003": 6.56228278509,
			"0.004": 2.83702105812,
			"0.005": 2.1530578911,
			"0.006": 1.81101914167,
			"0.007": 1.76342459669,
			"0.008": 2.16337779987,
			"0.009": 1.87398470023,
			"0.01": 1.47289604956,
			"0.011": 1.45350847133,
			"0.012": 0.392611110055,
			"0.013": 0.0,
			"0.014": 0.0,
			"0.015": 0.0,
			"0.016": 0.0,
			"0.017": 0.0,
			"0.018": 0.0,
			"0.019": 0.0,
			"0.02": 0.0,
			"0.021": 0.0,
			"0.022": 0.0,
			"0.023": 0.0,
			"0.024": 0.0,
			"0.025": 0.0
		}
	}
}
