{
	 "smiles": "CC(C)(C)C1=CC=C(S)C=C1", 
	 "Tm": 262.15, 
	 "num_atms": 25, 
	 "gaussian": { 
		 "optdone": 1, 
		 "sigma_profile": "yes", 
		 "theory": "DFT", 
		 "functional": "B3LYP", 
		 "basiset": "6-31G**", 
		 "properties": { 
			 "R2extent": 2743.8835, 
			 "electric_dipole_moment_norm": 1.56125470376, 
			 "electric_quadrupole_moment_norm": 7.8672269155, 
			 "total_energy": -787.700678693, 
			 "HOMO_LUMO_gap": 0.20819, 
			 "cosmo_polarized_energy": -5.8, 
			 "cosmo_cavitation_energy": 28.21, 
			 "cosmo_dispersion_energy": -20.74, 
			 "cosmo_repulsion_energy": 1.6, 
			 "cosmo_total_nonelectrostatic_energy": 9.08, 
			 "SMD_solvation_energy": 4.42 
		},
		"coords": [
			{
				"x": -2.627740388,
				"y": 1.5919250652,
				"z": -0.3877135512,
				"element": "C" 
			},
			{
				"x": -1.3334010689,
				"y": 1.6165682869,
				"z": -1.2353846494,
				"element": "C" 
			},
			{
				"x": -1.6796554958,
				"y": 1.287453931,
				"z": -2.7072242915,
				"element": "C" 
			},
			{
				"x": -0.7544885492,
				"y": 3.0432388808,
				"z": -1.1859373336,
				"element": "C" 
			},
			{
				"x": -0.3456759043,
				"y": 0.5677730079,
				"z": -0.6941374171,
				"element": "C" 
			},
			{
				"x": 0.9302402339,
				"y": 0.8918563592,
				"z": -0.2168044935,
				"element": "C" 
			},
			{
				"x": 1.8060977708,
				"y": -0.0820757399,
				"z": 0.2687514803,
				"element": "C" 
			},
			{
				"x": 1.426427718,
				"y": -1.4258804155,
				"z": 0.2906543726,
				"element": "C" 
			},
			{
				"x": 2.4842595218,
				"y": -2.734107011,
				"z": 0.8955147489,
				"element": "S" 
			},
			{
				"x": 0.153678396,
				"y": -1.772583709,
				"z": -0.1826076791,
				"element": "C" 
			},
			{
				"x": -0.7066574476,
				"y": -0.7905490221,
				"z": -0.6622945876,
				"element": "C" 
			},
			{
				"x": -2.4145688285,
				"y": 1.8299969295,
				"z": 0.6595600712,
				"element": "H" 
			},
			{
				"x": -3.3456129103,
				"y": 2.3291000807,
				"z": -0.7650293514,
				"element": "H" 
			},
			{
				"x": -3.113412212,
				"y": 0.6118787263,
				"z": -0.4142762317,
				"element": "H" 
			},
			{
				"x": -2.1359314393,
				"y": 0.2980188248,
				"z": -2.8068404607,
				"element": "H" 
			},
			{
				"x": -0.782022585,
				"y": 1.3052009254,
				"z": -3.3339872063,
				"element": "H" 
			},
			{
				"x": -2.3881849723,
				"y": 2.0221025502,
				"z": -3.1064999064,
				"element": "H" 
			},
			{
				"x": 0.1515109584,
				"y": 3.137072626,
				"z": -1.7938182343,
				"element": "H" 
			},
			{
				"x": -0.5141889994,
				"y": 3.3505745,
				"z": -0.1627221509,
				"element": "H" 
			},
			{
				"x": -1.4893976108,
				"y": 3.7532634571,
				"z": -1.5788245411,
				"element": "H" 
			},
			{
				"x": 1.2680355585,
				"y": 1.9219892524,
				"z": -0.2148017948,
				"element": "H" 
			},
			{
				"x": 2.7861715288,
				"y": 0.2179288169,
				"z": 0.6293487378,
				"element": "H" 
			},
			{
				"x": 3.5386151221,
				"y": -1.9573946754,
				"z": 1.2087703173,
				"element": "H" 
			},
			{
				"x": -0.1656314905,
				"y": -2.8110362615,
				"z": -0.176656991,
				"element": "H" 
			},
			{
				"x": -1.6847669065,
				"y": -1.0983153856,
				"z": -1.0205388564,
				"element": "H" 
			}
		],
		 "valence_orbital": [ 
			{
				"type": "occ",
				"energy": -0.31982,
				"method": "rhf"
			},
			{
				"type": "occ",
				"energy": -0.31677,
				"method": "rhf"
			},
			{
				"type": "occ",
				"energy": -0.28618,
				"method": "rhf"
			},
			{
				"type": "occ",
				"energy": -0.2516,
				"method": "rhf"
			},
			{
				"type": "occ",
				"energy": -0.21215,
				"method": "rhf"
			},
			{
				"type": "unocc",
				"energy": -0.00396,
				"method": "rhf"
			},
			{
				"type": "unocc",
				"energy": 0.00064,
				"method": "rhf"
			},
			{
				"type": "unocc",
				"energy": 0.01826,
				"method": "rhf"
			},
			{
				"type": "unocc",
				"energy": 0.07061,
				"method": "rhf"
			},
			{
				"type": "unocc",
				"energy": 0.08745,
				"method": "rhf"
			}
		],
		"cosmo_sigma_profile": { 
			"-0.025": 0.0,
			"-0.024": 0.0,
			"-0.023": 0.0,
			"-0.022": 0.0,
			"-0.021": 0.0,
			"-0.02": 0.0,
			"-0.019": 0.0,
			"-0.018": 0.0,
			"-0.017": 0.0,
			"-0.016": 0.0,
			"-0.015": 0.0,
			"-0.014": 0.0,
			"-0.013": 0.0,
			"-0.012": 0.0,
			"-0.011": 0.292386476146,
			"-0.01": 2.02313348771,
			"-0.009": 2.33579921119,
			"-0.008": 2.34635426719,
			"-0.007": 2.57239676722,
			"-0.006": 5.0479790105,
			"-0.005": 9.40148478952,
			"-0.004": 11.641660988,
			"-0.003": 18.8866239806,
			"-0.002": 28.036654029,
			"-0.001": 21.1180828045,
			"0.0": 20.8484620441,
			"0.001": 28.1590912239,
			"0.002": 16.8180688975,
			"0.003": 9.51913331557,
			"0.004": 11.7688229034,
			"0.005": 13.965019081,
			"0.006": 11.1227021121,
			"0.007": 2.88482381617,
			"0.008": 2.76884782389,
			"0.009": 1.89913299732,
			"0.01": 0.148450366599,
			"0.011": 0.0,
			"0.012": 0.0,
			"0.013": 0.0,
			"0.014": 0.0,
			"0.015": 0.0,
			"0.016": 0.0,
			"0.017": 0.0,
			"0.018": 0.0,
			"0.019": 0.0,
			"0.02": 0.0,
			"0.021": 0.0,
			"0.022": 0.0,
			"0.023": 0.0,
			"0.024": 0.0,
			"0.025": 0.0
		}
	}
}
