{
	 "smiles": "CC1=CC=C(C=C1)C1=CSC(CN)=N1", 
	 "Tm": 346.15, 
	 "num_atms": 26, 
	 "gaussian": { 
		 "optdone": 1, 
		 "sigma_profile": "yes", 
		 "theory": "DFT", 
		 "functional": "B3LYP", 
		 "basiset": "6-31G**", 
		 "properties": { 
			 "R2extent": 4269.0267, 
			 "electric_dipole_moment_norm": 1.59160847573, 
			 "electric_quadrupole_moment_norm": 7.11455590392, 
			 "total_energy": -934.096880569, 
			 "HOMO_LUMO_gap": 0.17526, 
			 "cosmo_polarized_energy": -9.55, 
			 "cosmo_cavitation_energy": 31.31, 
			 "cosmo_dispersion_energy": -23.32, 
			 "cosmo_repulsion_energy": 1.79, 
			 "cosmo_total_nonelectrostatic_energy": 9.77, 
			 "SMD_solvation_energy": 2.78 
		},
		"coords": [
			{
				"x": 1.3332174917,
				"y": 1.2370947548,
				"z": 4.9973275339,
				"element": "C" 
			},
			{
				"x": 1.083265634,
				"y": 0.9367725149,
				"z": 3.5387328253,
				"element": "C" 
			},
			{
				"x": -0.2113821945,
				"y": 0.7208575155,
				"z": 3.0512670213,
				"element": "C" 
			},
			{
				"x": -0.4407432503,
				"y": 0.4159531885,
				"z": 1.7115000282,
				"element": "C" 
			},
			{
				"x": 0.6250743844,
				"y": 0.3176324435,
				"z": 0.803530081,
				"element": "C" 
			},
			{
				"x": 1.9251487146,
				"y": 0.5379482172,
				"z": 1.2890239498,
				"element": "C" 
			},
			{
				"x": 2.1460622734,
				"y": 0.8418110585,
				"z": 2.6281919213,
				"element": "C" 
			},
			{
				"x": 0.3621339385,
				"y": -0.0038058369,
				"z": -0.6121979212,
				"element": "C" 
			},
			{
				"x": 1.2912942045,
				"y": -0.1390231099,
				"z": -1.6127270589,
				"element": "C" 
			},
			{
				"x": 0.5239216762,
				"y": -0.5224114445,
				"z": -3.1181697259,
				"element": "S" 
			},
			{
				"x": -1.0344838534,
				"y": -0.4765456295,
				"z": -2.2912986506,
				"element": "C" 
			},
			{
				"x": -2.3417742031,
				"y": -0.7388203662,
				"z": -3.0182883228,
				"element": "C" 
			},
			{
				"x": -3.5356186052,
				"y": -0.6691551493,
				"z": -2.1904224591,
				"element": "N" 
			},
			{
				"x": -0.9489215165,
				"y": -0.2011333939,
				"z": -1.0271353805,
				"element": "N" 
			},
			{
				"x": 0.4461711195,
				"y": 1.6623238909,
				"z": 5.4759501251,
				"element": "H" 
			},
			{
				"x": 2.1592706513,
				"y": 1.9438793163,
				"z": 5.1257562619,
				"element": "H" 
			},
			{
				"x": 1.5980589806,
				"y": 0.3271670054,
				"z": 5.5509367911,
				"element": "H" 
			},
			{
				"x": -1.0565614187,
				"y": 0.7939859041,
				"z": 3.7316804907,
				"element": "H" 
			},
			{
				"x": -1.4496393716,
				"y": 0.2534840169,
				"z": 1.3497709476,
				"element": "H" 
			},
			{
				"x": 2.7763285738,
				"y": 0.4772446799,
				"z": 0.6171541163,
				"element": "H" 
			},
			{
				"x": 3.1630007624,
				"y": 1.0108445398,
				"z": 2.974430333,
				"element": "H" 
			},
			{
				"x": 2.3651304076,
				"y": -0.0388910802,
				"z": -1.5577616787,
				"element": "H" 
			},
			{
				"x": -2.4399902777,
				"y": -0.0207734487,
				"z": -3.8424447489,
				"element": "H" 
			},
			{
				"x": -2.2941630074,
				"y": -1.7290973124,
				"z": -3.4889220839,
				"element": "H" 
			},
			{
				"x": -3.4397998355,
				"y": -1.3275030071,
				"z": -1.4201010938,
				"element": "H" 
			},
			{
				"x": -3.5740012788,
				"y": 0.2458607324,
				"z": -1.7462833022,
				"element": "H" 
			}
		],
		 "valence_orbital": [ 
			{
				"type": "occ",
				"energy": -0.27467,
				"method": "rhf"
			},
			{
				"type": "occ",
				"energy": -0.26819,
				"method": "rhf"
			},
			{
				"type": "occ",
				"energy": -0.24736,
				"method": "rhf"
			},
			{
				"type": "occ",
				"energy": -0.24656,
				"method": "rhf"
			},
			{
				"type": "occ",
				"energy": -0.21089,
				"method": "rhf"
			},
			{
				"type": "unocc",
				"energy": -0.03563,
				"method": "rhf"
			},
			{
				"type": "unocc",
				"energy": -0.00555,
				"method": "rhf"
			},
			{
				"type": "unocc",
				"energy": 0.00577,
				"method": "rhf"
			},
			{
				"type": "unocc",
				"energy": 0.01722,
				"method": "rhf"
			},
			{
				"type": "unocc",
				"energy": 0.07673,
				"method": "rhf"
			}
		],
		"cosmo_sigma_profile": { 
			"-0.025": 0.0,
			"-0.024": 0.0,
			"-0.023": 0.0,
			"-0.022": 0.0,
			"-0.021": 0.0,
			"-0.02": 0.0,
			"-0.019": 0.0,
			"-0.018": 0.0,
			"-0.017": 0.0,
			"-0.016": 0.0,
			"-0.015": 0.0,
			"-0.014": 0.0,
			"-0.013": 0.0,
			"-0.012": 0.0,
			"-0.011": 0.0,
			"-0.01": 0.699158146654,
			"-0.009": 3.96252461473,
			"-0.008": 5.10671213758,
			"-0.007": 4.79852186485,
			"-0.006": 9.67326863309,
			"-0.005": 18.0600283698,
			"-0.004": 20.5930299922,
			"-0.003": 20.4882791262,
			"-0.002": 17.8241442918,
			"-0.001": 16.3518853503,
			"0.0": 20.3140019445,
			"0.001": 18.6538322927,
			"0.002": 17.7349525225,
			"0.003": 22.7737201315,
			"0.004": 18.310517329,
			"0.005": 12.2143738372,
			"0.006": 10.0928022305,
			"0.007": 3.68446399618,
			"0.008": 2.43242451048,
			"0.009": 0.597991407403,
			"0.01": 0.699592143429,
			"0.011": 0.737348433193,
			"0.012": 0.889837136025,
			"0.013": 0.84747597548,
			"0.014": 0.225830617813,
			"0.015": 0.633488576183,
			"0.016": 0.965251012311,
			"0.017": 0.562162898543,
			"0.018": 0.633417221734,
			"0.019": 0.386409021229,
			"0.02": 0.0,
			"0.021": 0.0,
			"0.022": 0.0,
			"0.023": 0.0,
			"0.024": 0.0,
			"0.025": 0.0
		}
	}
}
