{
	 "smiles": "OC1=C(O)C=C2C=CC(=O)OC2=C1", 
	 "Tm": 549.15, 
	 "num_atms": 19, 
	 "gaussian": { 
		 "optdone": 1, 
		 "sigma_profile": "yes", 
		 "theory": "DFT", 
		 "functional": "B3LYP", 
		 "basiset": "6-31G**", 
		 "properties": { 
			 "R2extent": 3186.5069, 
			 "electric_dipole_moment_norm": 4.29089939407, 
			 "electric_quadrupole_moment_norm": 32.9641499467, 
			 "total_energy": -647.4625527, 
			 "HOMO_LUMO_gap": 0.1523, 
			 "cosmo_polarized_energy": -17.43, 
			 "cosmo_cavitation_energy": 24.03, 
			 "cosmo_dispersion_energy": -18.35, 
			 "cosmo_repulsion_energy": 1.43, 
			 "cosmo_total_nonelectrostatic_energy": 7.12, 
			 "SMD_solvation_energy": 5.92 
		},
		"coords": [
			{
				"x": 0.3849708906,
				"y": 2.7926055551,
				"z": 1.21076178,
				"element": "O" 
			},
			{
				"x": 0.6465496325,
				"y": 1.5778988625,
				"z": 0.636552566,
				"element": "C" 
			},
			{
				"x": -0.4459972152,
				"y": 0.6779418527,
				"z": 0.6384713916,
				"element": "C" 
			},
			{
				"x": -1.6377964233,
				"y": 1.0479028966,
				"z": 1.1829357686,
				"element": "O" 
			},
			{
				"x": -0.2874599318,
				"y": -0.5783770991,
				"z": 0.0816741155,
				"element": "C" 
			},
			{
				"x": 0.945249945,
				"y": -0.9654591801,
				"z": -0.4832967301,
				"element": "C" 
			},
			{
				"x": 1.1891603456,
				"y": -2.2515485495,
				"z": -1.0804028717,
				"element": "C" 
			},
			{
				"x": 2.3998472575,
				"y": -2.5560577388,
				"z": -1.6050805655,
				"element": "C" 
			},
			{
				"x": 3.5038087823,
				"y": -1.604479369,
				"z": -1.5907552892,
				"element": "C" 
			},
			{
				"x": 4.6151828113,
				"y": -1.7848668291,
				"z": -2.0309379062,
				"element": "O" 
			},
			{
				"x": 3.2315532001,
				"y": -0.364374624,
				"z": -1.00178363,
				"element": "O" 
			},
			{
				"x": 2.0142352535,
				"y": -0.0516165224,
				"z": -0.4717203891,
				"element": "C" 
			},
			{
				"x": 1.8698778687,
				"y": 1.2212607345,
				"z": 0.0870286305,
				"element": "C" 
			},
			{
				"x": 1.1684111155,
				"y": 3.3558367726,
				"z": 1.1761718117,
				"element": "H" 
			},
			{
				"x": -1.5437793791,
				"y": 1.9530758795,
				"z": 1.5149314168,
				"element": "H" 
			},
			{
				"x": -1.1285239133,
				"y": -1.2641413678,
				"z": 0.085998515,
				"element": "H" 
			},
			{
				"x": 0.3806464218,
				"y": -2.9782181048,
				"z": -1.1030601216,
				"element": "H" 
			},
			{
				"x": 2.6140499386,
				"y": -3.5150868739,
				"z": -2.0608331098,
				"element": "H" 
			},
			{
				"x": 2.7136133997,
				"y": 1.9046037048,
				"z": 0.0808446172,
				"element": "H" 
			}
		],
		 "valence_orbital": [ 
			{
				"type": "occ",
				"energy": -0.34119,
				"method": "rhf"
			},
			{
				"type": "occ",
				"energy": -0.2892,
				"method": "rhf"
			},
			{
				"type": "occ",
				"energy": -0.26902,
				"method": "rhf"
			},
			{
				"type": "occ",
				"energy": -0.24865,
				"method": "rhf"
			},
			{
				"type": "occ",
				"energy": -0.21431,
				"method": "rhf"
			},
			{
				"type": "unocc",
				"energy": -0.06201,
				"method": "rhf"
			},
			{
				"type": "unocc",
				"energy": -0.00609,
				"method": "rhf"
			},
			{
				"type": "unocc",
				"energy": 0.00972,
				"method": "rhf"
			},
			{
				"type": "unocc",
				"energy": 0.03745,
				"method": "rhf"
			},
			{
				"type": "unocc",
				"energy": 0.08499,
				"method": "rhf"
			}
		],
		"cosmo_sigma_profile": { 
			"-0.025": 0.0,
			"-0.024": 0.0,
			"-0.023": 0.0,
			"-0.022": 0.0,
			"-0.021": 0.0,
			"-0.02": 0.0268129919496,
			"-0.019": 0.968866535822,
			"-0.018": 1.17378830872,
			"-0.017": 1.28784531073,
			"-0.016": 1.22941990802,
			"-0.015": 1.22933917009,
			"-0.014": 1.56824629522,
			"-0.013": 1.17409458116,
			"-0.012": 1.58944915193,
			"-0.011": 2.06742826035,
			"-0.01": 1.34665517242,
			"-0.009": 1.89198221102,
			"-0.008": 7.05321672959,
			"-0.007": 9.22134183001,
			"-0.006": 7.36518621959,
			"-0.005": 7.16300663485,
			"-0.004": 6.26171242122,
			"-0.003": 8.7955916305,
			"-0.002": 9.9810139165,
			"-0.001": 9.78393727214,
			"0.0": 14.5080636442,
			"0.001": 21.7423141085,
			"0.002": 18.7771881382,
			"0.003": 10.7923284324,
			"0.004": 5.84565196475,
			"0.005": 4.2844068078,
			"0.006": 4.71348557486,
			"0.007": 3.45878520684,
			"0.008": 3.47639061549,
			"0.009": 4.04447452477,
			"0.01": 4.4705726784,
			"0.011": 4.60186900499,
			"0.012": 6.70768224554,
			"0.013": 4.1009339665,
			"0.014": 0.375642087945,
			"0.015": 0.0,
			"0.016": 0.0,
			"0.017": 0.0,
			"0.018": 0.0,
			"0.019": 0.0,
			"0.02": 0.0,
			"0.021": 0.0,
			"0.022": 0.0,
			"0.023": 0.0,
			"0.024": 0.0,
			"0.025": 0.0
		}
	}
}
