{
	 "smiles": "OC(=O)C1=C(O)C(Br)=CC(Cl)=C1", 
	 "Tm": 488.15, 
	 "num_atms": 16, 
	 "gaussian": { 
		 "optdone": 1, 
		 "sigma_profile": "yes", 
		 "theory": "DFT", 
		 "functional": "B3LYP", 
		 "basiset": "6-31G**", 
		 "properties": { 
			 "R2extent": 3764.0572, 
			 "electric_dipole_moment_norm": 2.61819780192, 
			 "electric_quadrupole_moment_norm": 4.02312569403, 
			 "total_energy": -3526.43195977, 
			 "HOMO_LUMO_gap": 0.17715, 
			 "cosmo_polarized_energy": -11.31, 
			 "cosmo_cavitation_energy": 25.21, 
			 "cosmo_dispersion_energy": -19.47, 
			 "cosmo_repulsion_energy": 1.56, 
			 "cosmo_total_nonelectrostatic_energy": 7.3, 
			 "SMD_solvation_energy": 4.63 
		},
		"coords": [
			{
				"x": -2.4650339902,
				"y": 2.2740011101,
				"z": -0.3272056979,
				"element": "O" 
			},
			{
				"x": -1.8916949542,
				"y": 1.5957545897,
				"z": 0.6849329655,
				"element": "C" 
			},
			{
				"x": -2.3267935514,
				"y": 1.6400873143,
				"z": 1.8205250781,
				"element": "O" 
			},
			{
				"x": -0.6894394134,
				"y": 0.7909894491,
				"z": 0.307548328,
				"element": "C" 
			},
			{
				"x": -0.1394255596,
				"y": 0.7018274658,
				"z": -0.9923435003,
				"element": "C" 
			},
			{
				"x": -0.694657463,
				"y": 1.3703215131,
				"z": -2.0180963493,
				"element": "O" 
			},
			{
				"x": 1.0019445719,
				"y": -0.1087054411,
				"z": -1.1629811812,
				"element": "C" 
			},
			{
				"x": 1.7616222463,
				"y": -0.2422852745,
				"z": -2.9176763864,
				"element": "Br" 
			},
			{
				"x": 1.5894482717,
				"y": -0.8062676034,
				"z": -0.1179212676,
				"element": "C" 
			},
			{
				"x": 1.0271241654,
				"y": -0.7011167596,
				"z": 1.1548072977,
				"element": "C" 
			},
			{
				"x": 1.7545484546,
				"y": -1.5749432584,
				"z": 2.4898633158,
				"element": "Cl" 
			},
			{
				"x": -0.0950622393,
				"y": 0.0854230463,
				"z": 1.3642602998,
				"element": "C" 
			},
			{
				"x": -3.2196192251,
				"y": 2.7388487363,
				"z": 0.0726523011,
				"element": "H" 
			},
			{
				"x": -0.179205792,
				"y": 1.1846830905,
				"z": -2.821321364,
				"element": "H" 
			},
			{
				"x": 2.4659694858,
				"y": -1.4187134882,
				"z": -0.289372579,
				"element": "H" 
			},
			{
				"x": -0.5430250075,
				"y": 0.1770955103,
				"z": 2.34612874,
				"element": "H" 
			}
		],
		 "valence_orbital": [ 
			{
				"type": "occ",
				"energy": -0.32098,
				"method": "rhf"
			},
			{
				"type": "occ",
				"energy": -0.31432,
				"method": "rhf"
			},
			{
				"type": "occ",
				"energy": -0.28581,
				"method": "rhf"
			},
			{
				"type": "occ",
				"energy": -0.27455,
				"method": "rhf"
			},
			{
				"type": "occ",
				"energy": -0.24218,
				"method": "rhf"
			},
			{
				"type": "unocc",
				"energy": -0.06503,
				"method": "rhf"
			},
			{
				"type": "unocc",
				"energy": -0.02762,
				"method": "rhf"
			},
			{
				"type": "unocc",
				"energy": -0.02312,
				"method": "rhf"
			},
			{
				"type": "unocc",
				"energy": 0.03146,
				"method": "rhf"
			},
			{
				"type": "unocc",
				"energy": 0.03817,
				"method": "rhf"
			}
		],
		"cosmo_sigma_profile": { 
			"-0.025": 0.0,
			"-0.024": 0.0,
			"-0.023": 0.0,
			"-0.022": 0.0,
			"-0.021": 0.0,
			"-0.02": 0.0,
			"-0.019": 0.270177398353,
			"-0.018": 0.78977320015,
			"-0.017": 0.968450467724,
			"-0.016": 0.677009588402,
			"-0.015": 1.34616210717,
			"-0.014": 1.34704167245,
			"-0.013": 1.03382945653,
			"-0.012": 1.13170394393,
			"-0.011": 1.60521109541,
			"-0.01": 1.96193615367,
			"-0.009": 2.71774708333,
			"-0.008": 3.6218530495,
			"-0.007": 3.54072349934,
			"-0.006": 5.59249415449,
			"-0.005": 7.5639356245,
			"-0.004": 7.84196561903,
			"-0.003": 11.1717588164,
			"-0.002": 13.3660235802,
			"-0.001": 23.1151784428,
			"0.0": 25.0260922128,
			"0.001": 20.8220039021,
			"0.002": 14.8204487287,
			"0.003": 14.1570788659,
			"0.004": 13.7206627497,
			"0.005": 5.081017354,
			"0.006": 2.24447399862,
			"0.007": 3.13410636791,
			"0.008": 2.38829821323,
			"0.009": 2.76970807219,
			"0.01": 3.81829393406,
			"0.011": 6.14594901445,
			"0.012": 3.30295348209,
			"0.013": 1.17554823448,
			"0.014": 0.00899989441076,
			"0.015": 0.0,
			"0.016": 0.0,
			"0.017": 0.0,
			"0.018": 0.0,
			"0.019": 0.0,
			"0.02": 0.0,
			"0.021": 0.0,
			"0.022": 0.0,
			"0.023": 0.0,
			"0.024": 0.0,
			"0.025": 0.0
		}
	}
}
