{
	 "smiles": "NC(=O)CCC(NC(=O)OCC1=CC=CC=C1)C(O)=O", 
	 "Tm": 409.15, 
	 "num_atms": 36, 
	 "gaussian": { 
		 "optdone": 1, 
		 "sigma_profile": "yes", 
		 "theory": "DFT", 
		 "functional": "B3LYP", 
		 "basiset": "6-31G**", 
		 "properties": { 
			 "R2extent": 7293.9331, 
			 "electric_dipole_moment_norm": 7.1096855261, 
			 "electric_quadrupole_moment_norm": 27.0599556992, 
			 "total_energy": -990.70398454, 
			 "HOMO_LUMO_gap": 0.23621, 
			 "cosmo_polarized_energy": -26.32, 
			 "cosmo_cavitation_energy": 39.87, 
			 "cosmo_dispersion_energy": -27.53, 
			 "cosmo_repulsion_energy": 2.16, 
			 "cosmo_total_nonelectrostatic_energy": 14.49, 
			 "SMD_solvation_energy": 8.69 
		},
		"coords": [
			{
				"x": 5.3670027447,
				"y": -3.2809000154,
				"z": 0.2577189899,
				"element": "N" 
			},
			{
				"x": 4.3881094274,
				"y": -2.3869673041,
				"z": -0.0551182596,
				"element": "C" 
			},
			{
				"x": 4.405428447,
				"y": -1.7553576755,
				"z": -1.1103476082,
				"element": "O" 
			},
			{
				"x": 3.2761916636,
				"y": -2.2209624586,
				"z": 0.9756386718,
				"element": "C" 
			},
			{
				"x": 1.8679936292,
				"y": -2.5514077846,
				"z": 0.4369796424,
				"element": "C" 
			},
			{
				"x": 1.4862433138,
				"y": -1.7528879954,
				"z": -0.8326712262,
				"element": "C" 
			},
			{
				"x": 1.7599231762,
				"y": -0.3311858057,
				"z": -0.7501190116,
				"element": "N" 
			},
			{
				"x": 1.1820121572,
				"y": 0.5633642565,
				"z": 0.1073588072,
				"element": "C" 
			},
			{
				"x": 1.5891966081,
				"y": 1.6916415625,
				"z": 0.3049423059,
				"element": "O" 
			},
			{
				"x": 0.0895972848,
				"y": 0.0179479797,
				"z": 0.7234041664,
				"element": "O" 
			},
			{
				"x": -0.631990427,
				"y": 0.8997220114,
				"z": 1.6007397484,
				"element": "C" 
			},
			{
				"x": -1.6717328421,
				"y": 1.7447959851,
				"z": 0.8944779081,
				"element": "C" 
			},
			{
				"x": -2.1628367385,
				"y": 2.8859507625,
				"z": 1.5410689333,
				"element": "C" 
			},
			{
				"x": -3.1617347538,
				"y": 3.6610353462,
				"z": 0.9530643572,
				"element": "C" 
			},
			{
				"x": -3.6747784595,
				"y": 3.3075945332,
				"z": -0.2969195681,
				"element": "C" 
			},
			{
				"x": -3.181667708,
				"y": 2.1767192602,
				"z": -0.9487096387,
				"element": "C" 
			},
			{
				"x": -2.1880627109,
				"y": 1.3931279745,
				"z": -0.3569900339,
				"element": "C" 
			},
			{
				"x": 0.0627153426,
				"y": -2.0255253546,
				"z": -1.3233436608,
				"element": "C" 
			},
			{
				"x": -0.329314471,
				"y": -3.2900758554,
				"z": -1.0297218503,
				"element": "O" 
			},
			{
				"x": -0.6279520377,
				"y": -1.2658563853,
				"z": -1.9603659125,
				"element": "O" 
			},
			{
				"x": 5.3937744527,
				"y": -3.7714656203,
				"z": 1.1361180601,
				"element": "H" 
			},
			{
				"x": 6.1382989498,
				"y": -3.3851768863,
				"z": -0.3850162446,
				"element": "H" 
			},
			{
				"x": 3.3055513395,
				"y": -1.1742067393,
				"z": 1.2967718555,
				"element": "H" 
			},
			{
				"x": 3.465529837,
				"y": -2.8328290885,
				"z": 1.8642893774,
				"element": "H" 
			},
			{
				"x": 1.1432528598,
				"y": -2.3412158255,
				"z": 1.22833289,
				"element": "H" 
			},
			{
				"x": 1.7942098764,
				"y": -3.6187499212,
				"z": 0.2098216878,
				"element": "H" 
			},
			{
				"x": 2.1288476957,
				"y": -2.1109983744,
				"z": -1.6442236064,
				"element": "H" 
			},
			{
				"x": 2.6646301048,
				"y": -0.0477805916,
				"z": -1.1011089438,
				"element": "H" 
			},
			{
				"x": 0.0791298423,
				"y": 1.5390590648,
				"z": 2.1302424625,
				"element": "H" 
			},
			{
				"x": -1.1089127894,
				"y": 0.2262118408,
				"z": 2.3209973342,
				"element": "H" 
			},
			{
				"x": -1.7563432106,
				"y": 3.1742606786,
				"z": 2.5081535447,
				"element": "H" 
			},
			{
				"x": -3.5305269827,
				"y": 4.5457156575,
				"z": 1.4648112164,
				"element": "H" 
			},
			{
				"x": -4.4475042821,
				"y": 3.9139545357,
				"z": -0.7611488882,
				"element": "H" 
			},
			{
				"x": -3.5686820411,
				"y": 1.9000079356,
				"z": -1.9255627605,
				"element": "H" 
			},
			{
				"x": -1.8029459753,
				"y": 0.5211472844,
				"z": -0.8752936494,
				"element": "H" 
			},
			{
				"x": -1.2114533228,
				"y": -3.3910069871,
				"z": -1.4255710961,
				"element": "H" 
			}
		],
		 "valence_orbital": [ 
			{
				"type": "occ",
				"energy": -0.26649,
				"method": "rhf"
			},
			{
				"type": "occ",
				"energy": -0.2642,
				"method": "rhf"
			},
			{
				"type": "occ",
				"energy": -0.24874,
				"method": "rhf"
			},
			{
				"type": "occ",
				"energy": -0.23657,
				"method": "rhf"
			},
			{
				"type": "occ",
				"energy": -0.23074,
				"method": "rhf"
			},
			{
				"type": "unocc",
				"energy": 0.00547,
				"method": "rhf"
			},
			{
				"type": "unocc",
				"energy": 0.00958,
				"method": "rhf"
			},
			{
				"type": "unocc",
				"energy": 0.0107,
				"method": "rhf"
			},
			{
				"type": "unocc",
				"energy": 0.01249,
				"method": "rhf"
			},
			{
				"type": "unocc",
				"energy": 0.05512,
				"method": "rhf"
			}
		],
		"cosmo_sigma_profile": { 
			"-0.025": 0.0,
			"-0.024": 0.0,
			"-0.023": 0.0,
			"-0.022": 0.0,
			"-0.021": 0.0,
			"-0.02": 0.0,
			"-0.019": 0.055479897403,
			"-0.018": 0.844072973306,
			"-0.017": 1.02585842811,
			"-0.016": 0.621093432441,
			"-0.015": 1.11850136529,
			"-0.014": 2.53653612848,
			"-0.013": 4.06041440719,
			"-0.012": 2.45853480143,
			"-0.011": 3.6692698492,
			"-0.01": 4.60647637371,
			"-0.009": 2.63886225721,
			"-0.008": 4.17240149735,
			"-0.007": 6.54265513305,
			"-0.006": 14.4294508727,
			"-0.005": 21.7554873515,
			"-0.004": 25.789011601,
			"-0.003": 26.8576026813,
			"-0.002": 19.4266909608,
			"-0.001": 16.4143742301,
			"0.0": 14.2018647405,
			"0.001": 15.2205811265,
			"0.002": 17.7133440838,
			"0.003": 18.176625037,
			"0.004": 16.1294681821,
			"0.005": 14.8160066641,
			"0.006": 14.833655746,
			"0.007": 6.78337510933,
			"0.008": 5.08847987905,
			"0.009": 4.63734892485,
			"0.01": 4.96553560757,
			"0.011": 6.26699137528,
			"0.012": 6.38263380639,
			"0.013": 7.12341235685,
			"0.014": 2.78310571859,
			"0.015": 0.54351096458,
			"0.016": 0.0,
			"0.017": 0.0,
			"0.018": 0.0,
			"0.019": 0.0,
			"0.02": 0.0,
			"0.021": 0.0,
			"0.022": 0.0,
			"0.023": 0.0,
			"0.024": 0.0,
			"0.025": 0.0
		}
	}
}
