{
	 "smiles": "CC1=NNC(SCC(=O)C2=CC=C(Cl)C=C2)=N1", 
	 "Tm": 459.15, 
	 "num_atms": 27, 
	 "gaussian": { 
		 "optdone": 1, 
		 "sigma_profile": "yes", 
		 "theory": "DFT", 
		 "functional": "B3LYP", 
		 "basiset": "6-31G**", 
		 "properties": { 
			 "R2extent": 8073.289, 
			 "electric_dipole_moment_norm": 2.03192320229, 
			 "electric_quadrupole_moment_norm": 6.52670451989, 
			 "total_energy": -1523.04534108, 
			 "HOMO_LUMO_gap": 0.15672, 
			 "cosmo_polarized_energy": -17.13, 
			 "cosmo_cavitation_energy": 35.98, 
			 "cosmo_dispersion_energy": -26.23, 
			 "cosmo_repulsion_energy": 2.02, 
			 "cosmo_total_nonelectrostatic_energy": 11.78, 
			 "SMD_solvation_energy": 3.4 
		},
		"coords": [
			{
				"x": 0.979325688,
				"y": 3.8396436529,
				"z": -0.4081459294,
				"element": "C" 
			},
			{
				"x": -0.2565395112,
				"y": 3.0164968155,
				"z": -0.248274733,
				"element": "C" 
			},
			{
				"x": -1.3806544486,
				"y": 3.2874573232,
				"z": -0.8965866837,
				"element": "N" 
			},
			{
				"x": -2.2110369952,
				"y": 2.2978933217,
				"z": -0.4591371944,
				"element": "N" 
			},
			{
				"x": -1.5635203296,
				"y": 1.4995220596,
				"z": 0.4181555702,
				"element": "C" 
			},
			{
				"x": -2.3428278123,
				"y": 0.1454207131,
				"z": 1.2363349358,
				"element": "S" 
			},
			{
				"x": -0.859178739,
				"y": -0.8659355702,
				"z": 1.5462120836,
				"element": "C" 
			},
			{
				"x": -0.3250705179,
				"y": -1.6098427157,
				"z": 0.3150563522,
				"element": "C" 
			},
			{
				"x": -0.8223008221,
				"y": -1.4658086426,
				"z": -0.7865652606,
				"element": "O" 
			},
			{
				"x": 0.8462982044,
				"y": -2.5214677679,
				"z": 0.5203455802,
				"element": "C" 
			},
			{
				"x": 1.3211544155,
				"y": -3.2341479847,
				"z": -0.5926150689,
				"element": "C" 
			},
			{
				"x": 2.4014531057,
				"y": -4.1007988641,
				"z": -0.4787085188,
				"element": "C" 
			},
			{
				"x": 3.0176891851,
				"y": -4.2552458351,
				"z": 0.7659053757,
				"element": "C" 
			},
			{
				"x": 4.3811719536,
				"y": -5.3455901212,
				"z": 0.9211600076,
				"element": "Cl" 
			},
			{
				"x": 2.5693071216,
				"y": -3.5575252212,
				"z": 1.8876355975,
				"element": "C" 
			},
			{
				"x": 1.4836626594,
				"y": -2.6935063549,
				"z": 1.7585835692,
				"element": "C" 
			},
			{
				"x": -0.3230973508,
				"y": 1.9255018962,
				"z": 0.5816166462,
				"element": "N" 
			},
			{
				"x": 0.7962068833,
				"y": 4.6544742391,
				"z": -1.1107426355,
				"element": "H" 
			},
			{
				"x": 1.2919117711,
				"y": 4.260828979,
				"z": 0.5526746689,
				"element": "H" 
			},
			{
				"x": 1.8058029003,
				"y": 3.2265819356,
				"z": -0.7816186675,
				"element": "H" 
			},
			{
				"x": -3.1426947708,
				"y": 2.2080565517,
				"z": -0.8351229063,
				"element": "H" 
			},
			{
				"x": -1.1366499123,
				"y": -1.5744045019,
				"z": 2.3327566841,
				"element": "H" 
			},
			{
				"x": -0.0828026141,
				"y": -0.2041340428,
				"z": 1.9413316014,
				"element": "H" 
			},
			{
				"x": 0.8227490295,
				"y": -3.0906810354,
				"z": -1.5452282782,
				"element": "H" 
			},
			{
				"x": 2.7674090663,
				"y": -4.6519649456,
				"z": -1.3377585959,
				"element": "H" 
			},
			{
				"x": 3.0637770436,
				"y": -3.6892195588,
				"z": 2.843362201,
				"element": "H" 
			},
			{
				"x": 1.1470547965,
				"y": -2.1519043255,
				"z": 2.6361735984,
				"element": "H" 
			}
		],
		 "valence_orbital": [ 
			{
				"type": "occ",
				"energy": -0.2785,
				"method": "rhf"
			},
			{
				"type": "occ",
				"energy": -0.27564,
				"method": "rhf"
			},
			{
				"type": "occ",
				"energy": -0.26845,
				"method": "rhf"
			},
			{
				"type": "occ",
				"energy": -0.26277,
				"method": "rhf"
			},
			{
				"type": "occ",
				"energy": -0.22871,
				"method": "rhf"
			},
			{
				"type": "unocc",
				"energy": -0.07199,
				"method": "rhf"
			},
			{
				"type": "unocc",
				"energy": -0.02905,
				"method": "rhf"
			},
			{
				"type": "unocc",
				"energy": -0.00126,
				"method": "rhf"
			},
			{
				"type": "unocc",
				"energy": 0.01769,
				"method": "rhf"
			},
			{
				"type": "unocc",
				"energy": 0.02154,
				"method": "rhf"
			}
		],
		"cosmo_sigma_profile": { 
			"-0.025": 0.0,
			"-0.024": 0.0,
			"-0.023": 0.0,
			"-0.022": 0.0,
			"-0.021": 0.0,
			"-0.02": 0.0,
			"-0.019": 0.0,
			"-0.018": 0.295156689797,
			"-0.017": 1.47002237488,
			"-0.016": 1.72784803687,
			"-0.015": 0.79381664564,
			"-0.014": 0.89820457721,
			"-0.013": 0.926154843314,
			"-0.012": 1.34491208789,
			"-0.011": 1.31023017863,
			"-0.01": 1.34456904286,
			"-0.009": 6.51476631457,
			"-0.008": 8.64951578604,
			"-0.007": 10.1930413763,
			"-0.006": 10.7395214843,
			"-0.005": 14.4437877284,
			"-0.004": 12.2236630826,
			"-0.003": 16.8696268451,
			"-0.002": 15.4784550894,
			"-0.001": 22.2721228227,
			"0.0": 23.9645801203,
			"0.001": 27.1075962682,
			"0.002": 29.4503005811,
			"0.003": 17.4248252524,
			"0.004": 19.316286307,
			"0.005": 8.2482323704,
			"0.006": 6.60124889416,
			"0.007": 5.24163867454,
			"0.008": 4.76970191597,
			"0.009": 4.71571687577,
			"0.01": 4.87448788154,
			"0.011": 5.73229184415,
			"0.012": 3.2379164841,
			"0.013": 2.46408152336,
			"0.014": 1.02143140217,
			"0.015": 0.83172958392,
			"0.016": 0.0478263773398,
			"0.017": 0.0,
			"0.018": 0.0,
			"0.019": 0.0,
			"0.02": 0.0,
			"0.021": 0.0,
			"0.022": 0.0,
			"0.023": 0.0,
			"0.024": 0.0,
			"0.025": 0.0
		}
	}
}
