{
	 "smiles": "CCCCCCCC1=CC=C(C=C1)C(=O)OC1=CC=C(C=C1)C#N", 
	 "Tm": 317.65, 
	 "num_atms": 47, 
	 "gaussian": { 
		 "optdone": 1, 
		 "sigma_profile": "yes", 
		 "theory": "DFT", 
		 "functional": "B3LYP", 
		 "basiset": "6-31G**", 
		 "properties": { 
			 "R2extent": 17574.1582, 
			 "electric_dipole_moment_norm": 7.2854807947, 
			 "electric_quadrupole_moment_norm": 48.7979615811, 
			 "total_energy": -1019.31972664, 
			 "HOMO_LUMO_gap": 0.18674, 
			 "cosmo_polarized_energy": -12.62, 
			 "cosmo_cavitation_energy": 51.84, 
			 "cosmo_dispersion_energy": -34.93, 
			 "cosmo_repulsion_energy": 2.69, 
			 "cosmo_total_nonelectrostatic_energy": 19.59, 
			 "SMD_solvation_energy": 10.21 
		},
		"coords": [
			{
				"x": -3.6632726635,
				"y": -5.3675997904,
				"z": -0.7235324567,
				"element": "C" 
			},
			{
				"x": -2.3667047432,
				"y": -6.1149450795,
				"z": -0.3887489601,
				"element": "C" 
			},
			{
				"x": -1.1820031784,
				"y": -5.2059220958,
				"z": -0.0217186903,
				"element": "C" 
			},
			{
				"x": -1.3582902824,
				"y": -4.4149646085,
				"z": 1.2825092933,
				"element": "C" 
			},
			{
				"x": -0.1243829759,
				"y": -3.5740167821,
				"z": 1.6405081083,
				"element": "C" 
			},
			{
				"x": -0.223899159,
				"y": -2.8214700305,
				"z": 2.9770813375,
				"element": "C" 
			},
			{
				"x": -1.2759168202,
				"y": -1.6873059635,
				"z": 3.0273809246,
				"element": "C" 
			},
			{
				"x": -0.9822621486,
				"y": -0.5390217377,
				"z": 2.0865611419,
				"element": "C" 
			},
			{
				"x": 0.040415131,
				"y": 0.3778618178,
				"z": 2.3805113819,
				"element": "C" 
			},
			{
				"x": 0.3365719907,
				"y": 1.4296015458,
				"z": 1.5202503261,
				"element": "C" 
			},
			{
				"x": -0.3943214086,
				"y": 1.5904793914,
				"z": 0.3328486414,
				"element": "C" 
			},
			{
				"x": -1.4198279133,
				"y": 0.6843015138,
				"z": 0.0294266145,
				"element": "C" 
			},
			{
				"x": -1.7063961642,
				"y": -0.3644067297,
				"z": 0.897601304,
				"element": "C" 
			},
			{
				"x": -0.141526156,
				"y": 2.6895135678,
				"z": -0.6297126745,
				"element": "C" 
			},
			{
				"x": -0.7568694284,
				"y": 2.8754007066,
				"z": -1.6553257706,
				"element": "O" 
			},
			{
				"x": 0.9042466856,
				"y": 3.4865864401,
				"z": -0.214133675,
				"element": "O" 
			},
			{
				"x": 1.3213598113,
				"y": 4.5912412309,
				"z": -0.9378089719,
				"element": "C" 
			},
			{
				"x": 2.6980681452,
				"y": 4.8303583776,
				"z": -0.9155482814,
				"element": "C" 
			},
			{
				"x": 3.2156888435,
				"y": 5.953755228,
				"z": -1.5475773368,
				"element": "C" 
			},
			{
				"x": 2.3532517704,
				"y": 6.845200383,
				"z": -2.208481236,
				"element": "C" 
			},
			{
				"x": 0.9710511938,
				"y": 6.5934658446,
				"z": -2.2199646413,
				"element": "C" 
			},
			{
				"x": 0.4483298161,
				"y": 5.4710252642,
				"z": -1.5853933383,
				"element": "C" 
			},
			{
				"x": 2.8807836132,
				"y": 8.0055882647,
				"z": -2.8635748511,
				"element": "C" 
			},
			{
				"x": 3.3104745576,
				"y": 8.94791374,
				"z": -3.3938119419,
				"element": "N" 
			},
			{
				"x": -4.0437152727,
				"y": -4.8019896639,
				"z": 0.1333975593,
				"element": "H" 
			},
			{
				"x": -4.4510299399,
				"y": -6.0636454612,
				"z": -1.0298989464,
				"element": "H" 
			},
			{
				"x": -3.5087279473,
				"y": -4.6593843759,
				"z": -1.5461546691,
				"element": "H" 
			},
			{
				"x": -2.5518458018,
				"y": -6.8170748317,
				"z": 0.4359212389,
				"element": "H" 
			},
			{
				"x": -2.0800659497,
				"y": -6.7308249087,
				"z": -1.2506512284,
				"element": "H" 
			},
			{
				"x": -0.995261471,
				"y": -4.5045559284,
				"z": -0.8477756672,
				"element": "H" 
			},
			{
				"x": -0.2764389069,
				"y": -5.8222794709,
				"z": 0.0613567713,
				"element": "H" 
			},
			{
				"x": -1.5701052843,
				"y": -5.1151795607,
				"z": 2.1040660428,
				"element": "H" 
			},
			{
				"x": -2.2397496903,
				"y": -3.766740815,
				"z": 1.2021159554,
				"element": "H" 
			},
			{
				"x": 0.7505997763,
				"y": -4.2362183272,
				"z": 1.6843805061,
				"element": "H" 
			},
			{
				"x": 0.0786273233,
				"y": -2.8600664469,
				"z": 0.8312582918,
				"element": "H" 
			},
			{
				"x": 0.757577425,
				"y": -2.3948771331,
				"z": 3.219887872,
				"element": "H" 
			},
			{
				"x": -0.4539557739,
				"y": -3.5359360247,
				"z": 3.7785947608,
				"element": "H" 
			},
			{
				"x": -2.270314583,
				"y": -2.0920318299,
				"z": 2.8107293034,
				"element": "H" 
			},
			{
				"x": -1.3156169731,
				"y": -1.3047119745,
				"z": 4.0548083097,
				"element": "H" 
			},
			{
				"x": 0.607296927,
				"y": 0.2668806065,
				"z": 3.3014808343,
				"element": "H" 
			},
			{
				"x": 1.1262145166,
				"y": 2.1304711148,
				"z": 1.7646295367,
				"element": "H" 
			},
			{
				"x": -1.9812351619,
				"y": 0.8205141447,
				"z": -0.8887395056,
				"element": "H" 
			},
			{
				"x": -2.507917217,
				"y": -1.0567573685,
				"z": 0.6545958156,
				"element": "H" 
			},
			{
				"x": 3.345213861,
				"y": 4.1298825277,
				"z": -0.3990933399,
				"element": "H" 
			},
			{
				"x": 4.2830121241,
				"y": 6.1460081098,
				"z": -1.5347647514,
				"element": "H" 
			},
			{
				"x": 0.3061485051,
				"y": 7.2838105534,
				"z": -2.7278149295,
				"element": "H" 
			},
			{
				"x": -0.614279002,
				"y": 5.2751665654,
				"z": -1.6035760084,
				"element": "H" 
			}
		],
		 "valence_orbital": [ 
			{
				"type": "occ",
				"energy": -0.29278,
				"method": "rhf"
			},
			{
				"type": "occ",
				"energy": -0.27606,
				"method": "rhf"
			},
			{
				"type": "occ",
				"energy": -0.26819,
				"method": "rhf"
			},
			{
				"type": "occ",
				"energy": -0.26198,
				"method": "rhf"
			},
			{
				"type": "occ",
				"energy": -0.25218,
				"method": "rhf"
			},
			{
				"type": "unocc",
				"energy": -0.06544,
				"method": "rhf"
			},
			{
				"type": "unocc",
				"energy": -0.04145,
				"method": "rhf"
			},
			{
				"type": "unocc",
				"energy": -0.0258,
				"method": "rhf"
			},
			{
				"type": "unocc",
				"energy": -0.01778,
				"method": "rhf"
			},
			{
				"type": "unocc",
				"energy": 0.03865,
				"method": "rhf"
			}
		],
		"cosmo_sigma_profile": { 
			"-0.025": 0.0,
			"-0.024": 0.0,
			"-0.023": 0.0,
			"-0.022": 0.0,
			"-0.021": 0.0,
			"-0.02": 0.0,
			"-0.019": 0.0,
			"-0.018": 0.0,
			"-0.017": 0.0,
			"-0.016": 0.0,
			"-0.015": 0.0,
			"-0.014": 0.0,
			"-0.013": 0.0,
			"-0.012": 0.0,
			"-0.011": 0.0,
			"-0.01": 0.0,
			"-0.009": 0.432999613581,
			"-0.008": 5.37579143283,
			"-0.007": 8.69014104616,
			"-0.006": 12.2970285642,
			"-0.005": 16.3507209237,
			"-0.004": 21.6559426808,
			"-0.003": 23.6502233896,
			"-0.002": 42.1478831718,
			"-0.001": 58.0254348241,
			"0.0": 61.0425457914,
			"0.001": 60.8237945356,
			"0.002": 32.6009949669,
			"0.003": 16.3956679961,
			"0.004": 11.8648965991,
			"0.005": 3.93728011414,
			"0.006": 4.48906151014,
			"0.007": 4.26490005389,
			"0.008": 5.19265594388,
			"0.009": 5.28896645108,
			"0.01": 5.93612039594,
			"0.011": 5.86158543415,
			"0.012": 2.45474041298,
			"0.013": 1.59757743058,
			"0.014": 0.0746882402449,
			"0.015": 0.0,
			"0.016": 0.0,
			"0.017": 0.0,
			"0.018": 0.0,
			"0.019": 0.0,
			"0.02": 0.0,
			"0.021": 0.0,
			"0.022": 0.0,
			"0.023": 0.0,
			"0.024": 0.0,
			"0.025": 0.0
		}
	}
}
