{
	 "smiles": "COC1=C(N)C=C(C=C1)S(=O)(=O)NC1CCOCC1", 
	 "Tm": 438.15, 
	 "num_atms": 37, 
	 "gaussian": { 
		 "optdone": 1, 
		 "sigma_profile": "yes", 
		 "theory": "DFT", 
		 "functional": "B3LYP", 
		 "basiset": "6-31G**", 
		 "properties": { 
			 "R2extent": 7143.2968, 
			 "electric_dipole_moment_norm": 5.6763966255, 
			 "electric_quadrupole_moment_norm": 21.2178099777, 
			 "total_energy": -1276.63052123, 
			 "HOMO_LUMO_gap": 0.18796, 
			 "cosmo_polarized_energy": -21.11, 
			 "cosmo_cavitation_energy": 40.23, 
			 "cosmo_dispersion_energy": -29.01, 
			 "cosmo_repulsion_energy": 2.23, 
			 "cosmo_total_nonelectrostatic_energy": 13.45, 
			 "SMD_solvation_energy": 5.88 
		},
		"coords": [
			{
				"x": 0.6595269689,
				"y": 4.7688044545,
				"z": 2.5930515257,
				"element": "C" 
			},
			{
				"x": -0.5287148688,
				"y": 4.0805525093,
				"z": 2.2300177947,
				"element": "O" 
			},
			{
				"x": -0.4489458193,
				"y": 2.742047266,
				"z": 1.9634089311,
				"element": "C" 
			},
			{
				"x": -1.6960301049,
				"y": 2.1419348642,
				"z": 1.6366914079,
				"element": "C" 
			},
			{
				"x": -2.8282652847,
				"y": 2.9427768674,
				"z": 1.5529208387,
				"element": "N" 
			},
			{
				"x": -1.7213242357,
				"y": 0.7752425544,
				"z": 1.3652569142,
				"element": "C" 
			},
			{
				"x": -0.5374862197,
				"y": 0.0293774338,
				"z": 1.4100125726,
				"element": "C" 
			},
			{
				"x": 0.6820354082,
				"y": 0.6130097166,
				"z": 1.73011071,
				"element": "C" 
			},
			{
				"x": 0.7182261383,
				"y": 1.9851857541,
				"z": 2.0080621146,
				"element": "C" 
			},
			{
				"x": -0.6114659445,
				"y": -1.7284738239,
				"z": 1.0948089519,
				"element": "S" 
			},
			{
				"x": -1.7649053178,
				"y": -2.3096325868,
				"z": 1.7921055227,
				"element": "O" 
			},
			{
				"x": 0.7421511191,
				"y": -2.2631569768,
				"z": 1.3068546568,
				"element": "O" 
			},
			{
				"x": -1.04590935,
				"y": -1.7856392585,
				"z": -0.538835458,
				"element": "N" 
			},
			{
				"x": 0.0043433686,
				"y": -1.7127906697,
				"z": -1.5707558384,
				"element": "C" 
			},
			{
				"x": 0.7227411385,
				"y": -3.0475940501,
				"z": -1.8324510951,
				"element": "C" 
			},
			{
				"x": 1.6984305468,
				"y": -2.9044397276,
				"z": -3.00482803,
				"element": "C" 
			},
			{
				"x": 1.0505738325,
				"y": -2.4352762613,
				"z": -4.1807373838,
				"element": "O" 
			},
			{
				"x": 0.4601567242,
				"y": -1.1591973556,
				"z": -3.9841826844,
				"element": "C" 
			},
			{
				"x": -0.6019922789,
				"y": -1.1834784714,
				"z": -2.8788649805,
				"element": "C" 
			},
			{
				"x": 1.4051660785,
				"y": 4.7300483037,
				"z": 1.7894793855,
				"element": "H" 
			},
			{
				"x": 0.3679273248,
				"y": 5.8059401248,
				"z": 2.7639285285,
				"element": "H" 
			},
			{
				"x": 1.096691129,
				"y": 4.3578444976,
				"z": 3.5115402117,
				"element": "H" 
			},
			{
				"x": -2.7574908346,
				"y": 3.818024622,
				"z": 2.0524732758,
				"element": "H" 
			},
			{
				"x": -3.7076806433,
				"y": 2.4670937155,
				"z": 1.6952998805,
				"element": "H" 
			},
			{
				"x": -2.6605097467,
				"y": 0.2896376089,
				"z": 1.1205248765,
				"element": "H" 
			},
			{
				"x": 1.5788702058,
				"y": 0.0074313335,
				"z": 1.7755992279,
				"element": "H" 
			},
			{
				"x": 1.6626316381,
				"y": 2.4491124906,
				"z": 2.2663010567,
				"element": "H" 
			},
			{
				"x": -1.6934777581,
				"y": -2.5629388003,
				"z": -0.654121681,
				"element": "H" 
			},
			{
				"x": 0.7391810097,
				"y": -0.980985342,
				"z": -1.2112310884,
				"element": "H" 
			},
			{
				"x": 1.2481582337,
				"y": -3.3746529421,
				"z": -0.9305716483,
				"element": "H" 
			},
			{
				"x": -0.024475395,
				"y": -3.8119876149,
				"z": -2.0856911008,
				"element": "H" 
			},
			{
				"x": 2.144392329,
				"y": -3.8687456631,
				"z": -3.2642596642,
				"element": "H" 
			},
			{
				"x": 2.5183136738,
				"y": -2.2183669151,
				"z": -2.727684645,
				"element": "H" 
			},
			{
				"x": 0.0195740577,
				"y": -0.8718737139,
				"z": -4.943314618,
				"element": "H" 
			},
			{
				"x": 1.2389946572,
				"y": -0.4162862654,
				"z": -3.7353976143,
				"element": "H" 
			},
			{
				"x": -1.4240067146,
				"y": -1.8409002171,
				"z": -3.1906219272,
				"element": "H" 
			},
			{
				"x": -1.0197050657,
				"y": -0.1826474612,
				"z": -2.7245989268,
				"element": "H" 
			}
		],
		 "valence_orbital": [ 
			{
				"type": "occ",
				"energy": -0.28863,
				"method": "rhf"
			},
			{
				"type": "occ",
				"energy": -0.2634,
				"method": "rhf"
			},
			{
				"type": "occ",
				"energy": -0.25137,
				"method": "rhf"
			},
			{
				"type": "occ",
				"energy": -0.2416,
				"method": "rhf"
			},
			{
				"type": "occ",
				"energy": -0.20769,
				"method": "rhf"
			},
			{
				"type": "unocc",
				"energy": -0.01973,
				"method": "rhf"
			},
			{
				"type": "unocc",
				"energy": 0.00012,
				"method": "rhf"
			},
			{
				"type": "unocc",
				"energy": 0.06644,
				"method": "rhf"
			},
			{
				"type": "unocc",
				"energy": 0.07647,
				"method": "rhf"
			},
			{
				"type": "unocc",
				"energy": 0.08524,
				"method": "rhf"
			}
		],
		"cosmo_sigma_profile": { 
			"-0.025": 0.0,
			"-0.024": 0.0,
			"-0.023": 0.0,
			"-0.022": 0.0,
			"-0.021": 0.0,
			"-0.02": 0.0,
			"-0.019": 0.0,
			"-0.018": 0.0,
			"-0.017": 0.0,
			"-0.016": 0.0,
			"-0.015": 0.0,
			"-0.014": 0.274672928105,
			"-0.013": 1.76440457973,
			"-0.012": 2.77299666685,
			"-0.011": 3.22430058479,
			"-0.01": 4.11898876014,
			"-0.009": 4.09692536228,
			"-0.008": 3.80470386027,
			"-0.007": 6.52383776331,
			"-0.006": 12.3215708098,
			"-0.005": 23.2389185854,
			"-0.004": 29.2810914816,
			"-0.003": 35.1490781051,
			"-0.002": 26.7840455789,
			"-0.001": 18.7415459357,
			"0.0": 16.3993731483,
			"0.001": 14.0169907912,
			"0.002": 14.0369273889,
			"0.003": 17.2189979682,
			"0.004": 17.3403885282,
			"0.005": 9.34105132142,
			"0.006": 6.98615502959,
			"0.007": 7.96268473782,
			"0.008": 5.99200179306,
			"0.009": 4.45032981028,
			"0.01": 7.07076605028,
			"0.011": 10.6286787922,
			"0.012": 8.42264508126,
			"0.013": 2.62147403612,
			"0.014": 1.13175581207,
			"0.015": 0.0,
			"0.016": 0.0,
			"0.017": 0.0,
			"0.018": 0.0,
			"0.019": 0.0,
			"0.02": 0.0,
			"0.021": 0.0,
			"0.022": 0.0,
			"0.023": 0.0,
			"0.024": 0.0,
			"0.025": 0.0
		}
	}
}
