{
	 "smiles": "C1C=CC=C1", 
	 "Tm": 188.15, 
	 "num_atms": 11, 
	 "gaussian": { 
		 "optdone": 1, 
		 "sigma_profile": "yes", 
		 "theory": "DFT", 
		 "functional": "B3LYP", 
		 "basiset": "6-31G**", 
		 "properties": { 
			 "R2extent": 692.6142, 
			 "electric_dipole_moment_norm": 0.452308125065, 
			 "electric_quadrupole_moment_norm": 3.10337633071, 
			 "total_energy": -194.106577955, 
			 "HOMO_LUMO_gap": 0.20153, 
			 "cosmo_polarized_energy": -2.43, 
			 "cosmo_cavitation_energy": 14.01, 
			 "cosmo_dispersion_energy": -10.7, 
			 "cosmo_repulsion_energy": 0.95, 
			 "cosmo_total_nonelectrostatic_energy": 4.26, 
			 "SMD_solvation_energy": 2.5 
		},
		"coords": [
			{
				"x": -0.2099523043,
				"y": 1.3534108704,
				"z": -1.4046303642,
				"element": "C" 
			},
			{
				"x": 0.489882542,
				"y": 0.4620108291,
				"z": -0.4123585514,
				"element": "C" 
			},
			{
				"x": 0.9872217541,
				"y": -0.6120647287,
				"z": -1.059577691,
				"element": "C" 
			},
			{
				"x": 0.6611850764,
				"y": -0.5120334944,
				"z": -2.4893474022,
				"element": "C" 
			},
			{
				"x": -0.0340380742,
				"y": 0.6227900825,
				"z": -2.7100834123,
				"element": "C" 
			},
			{
				"x": -1.2713880485,
				"y": 1.4972137801,
				"z": -1.1525374832,
				"element": "H" 
			},
			{
				"x": 0.2294018572,
				"y": 2.3618572876,
				"z": -1.4342492109,
				"element": "H" 
			},
			{
				"x": 0.5647783272,
				"y": 0.6770901014,
				"z": 0.6468513074,
				"element": "H" 
			},
			{
				"x": 1.5422980257,
				"y": -1.4299786283,
				"z": -0.613003714,
				"element": "H" 
			},
			{
				"x": 0.9442562959,
				"y": -1.2464823927,
				"z": -3.2356553739,
				"element": "H" 
			},
			{
				"x": -0.4170454514,
				"y": 0.9783862928,
				"z": -3.6591081043,
				"element": "H" 
			}
		],
		 "valence_orbital": [ 
			{
				"type": "occ",
				"energy": -0.36809,
				"method": "rhf"
			},
			{
				"type": "occ",
				"energy": -0.35301,
				"method": "rhf"
			},
			{
				"type": "occ",
				"energy": -0.35197,
				"method": "rhf"
			},
			{
				"type": "occ",
				"energy": -0.29357,
				"method": "rhf"
			},
			{
				"type": "occ",
				"energy": -0.2121,
				"method": "rhf"
			},
			{
				"type": "unocc",
				"energy": -0.01057,
				"method": "rhf"
			},
			{
				"type": "unocc",
				"energy": 0.08823,
				"method": "rhf"
			},
			{
				"type": "unocc",
				"energy": 0.11394,
				"method": "rhf"
			},
			{
				"type": "unocc",
				"energy": 0.14522,
				"method": "rhf"
			},
			{
				"type": "unocc",
				"energy": 0.16866,
				"method": "rhf"
			}
		],
		"cosmo_sigma_profile": { 
			"-0.025": 0.0,
			"-0.024": 0.0,
			"-0.023": 0.0,
			"-0.022": 0.0,
			"-0.021": 0.0,
			"-0.02": 0.0,
			"-0.019": 0.0,
			"-0.018": 0.0,
			"-0.017": 0.0,
			"-0.016": 0.0,
			"-0.015": 0.0,
			"-0.014": 0.0,
			"-0.013": 0.0,
			"-0.012": 0.0,
			"-0.011": 0.0,
			"-0.01": 0.0,
			"-0.009": 0.0,
			"-0.008": 0.0,
			"-0.007": 0.0,
			"-0.006": 1.7779739993,
			"-0.005": 9.43525367305,
			"-0.004": 9.64059760715,
			"-0.003": 11.2066662839,
			"-0.002": 13.2419744855,
			"-0.001": 14.0423107836,
			"0.0": 9.36560169584,
			"0.001": 6.64498664954,
			"0.002": 6.00353333177,
			"0.003": 6.40006458276,
			"0.004": 5.32811744145,
			"0.005": 6.12410046021,
			"0.006": 5.90114581883,
			"0.007": 5.9159391649,
			"0.008": 0.524851485229,
			"0.009": 0.0,
			"0.01": 0.0,
			"0.011": 0.0,
			"0.012": 0.0,
			"0.013": 0.0,
			"0.014": 0.0,
			"0.015": 0.0,
			"0.016": 0.0,
			"0.017": 0.0,
			"0.018": 0.0,
			"0.019": 0.0,
			"0.02": 0.0,
			"0.021": 0.0,
			"0.022": 0.0,
			"0.023": 0.0,
			"0.024": 0.0,
			"0.025": 0.0
		}
	}
}
