{
	 "smiles": "NC1=CC=C(C=C1)S(=O)(=O)CC1CCOC1", 
	 "Tm": 392.15, 
	 "num_atms": 31, 
	 "gaussian": { 
		 "optdone": 1, 
		 "sigma_profile": "yes", 
		 "theory": "DFT", 
		 "functional": "B3LYP", 
		 "basiset": "6-31G**", 
		 "properties": { 
			 "R2extent": 4857.3963, 
			 "electric_dipole_moment_norm": 7.61418639843, 
			 "electric_quadrupole_moment_norm": 24.0160882589, 
			 "total_energy": -1106.74953664, 
			 "HOMO_LUMO_gap": 0.20346, 
			 "cosmo_polarized_energy": -22.06, 
			 "cosmo_cavitation_energy": 34.34, 
			 "cosmo_dispersion_energy": -25.1, 
			 "cosmo_repulsion_energy": 1.93, 
			 "cosmo_total_nonelectrostatic_energy": 11.17, 
			 "SMD_solvation_energy": 4.72 
		},
		"coords": [
			{
				"x": 3.3475570059,
				"y": -3.2260335541,
				"z": -3.1821295686,
				"element": "N" 
			},
			{
				"x": 2.7440450476,
				"y": -2.3065519802,
				"z": -2.3444554848,
				"element": "C" 
			},
			{
				"x": 2.3277498019,
				"y": -2.6792334403,
				"z": -1.0503149632,
				"element": "C" 
			},
			{
				"x": 1.7673029291,
				"y": -1.7429349612,
				"z": -0.1911315685,
				"element": "C" 
			},
			{
				"x": 1.6078944186,
				"y": -0.418717089,
				"z": -0.6117712159,
				"element": "C" 
			},
			{
				"x": 2.0286227663,
				"y": -0.0288506221,
				"z": -1.8879573708,
				"element": "C" 
			},
			{
				"x": 2.5876098049,
				"y": -0.9640529961,
				"z": -2.7476881511,
				"element": "C" 
			},
			{
				"x": 0.8912891493,
				"y": 0.7913656528,
				"z": 0.4925857207,
				"element": "S" 
			},
			{
				"x": 1.44473526,
				"y": 2.1115744721,
				"z": 0.1444475584,
				"element": "O" 
			},
			{
				"x": 1.0017679308,
				"y": 0.2654956808,
				"z": 1.867277663,
				"element": "O" 
			},
			{
				"x": -0.8738782166,
				"y": 0.8582275724,
				"z": 0.0318405286,
				"element": "C" 
			},
			{
				"x": -1.692668995,
				"y": -0.4193131172,
				"z": 0.2579303443,
				"element": "C" 
			},
			{
				"x": -2.0092274928,
				"y": -0.7091037449,
				"z": 1.7451245068,
				"element": "C" 
			},
			{
				"x": -3.349837138,
				"y": 0.0313129611,
				"z": 1.9848997517,
				"element": "C" 
			},
			{
				"x": -3.8056514162,
				"y": 0.4989784057,
				"z": 0.7074779423,
				"element": "O" 
			},
			{
				"x": -3.1188048519,
				"y": -0.2373106924,
				"z": -0.2928846661,
				"element": "C" 
			},
			{
				"x": 3.1921748386,
				"y": -4.2029390928,
				"z": -2.9836322627,
				"element": "H" 
			},
			{
				"x": 3.3711831625,
				"y": -3.0075760582,
				"z": -4.1668181391,
				"element": "H" 
			},
			{
				"x": 2.4621398464,
				"y": -3.7058637587,
				"z": -0.719902154,
				"element": "H" 
			},
			{
				"x": 1.4700930621,
				"y": -2.0234901587,
				"z": 0.8137667465,
				"element": "H" 
			},
			{
				"x": 1.9358664049,
				"y": 1.0090470111,
				"z": -2.1909691765,
				"element": "H" 
			},
			{
				"x": 2.9247479418,
				"y": -0.6594436082,
				"z": -3.7349710075,
				"element": "H" 
			},
			{
				"x": -0.869903812,
				"y": 1.1515643875,
				"z": -1.022436762,
				"element": "H" 
			},
			{
				"x": -1.2677983466,
				"y": 1.6997035719,
				"z": 0.6104119938,
				"element": "H" 
			},
			{
				"x": -1.1905406432,
				"y": -1.2648160709,
				"z": -0.223789165,
				"element": "H" 
			},
			{
				"x": -1.2102401534,
				"y": -0.3776357785,
				"z": 2.4093316393,
				"element": "H" 
			},
			{
				"x": -2.1352622567,
				"y": -1.7868386767,
				"z": 1.8881330772,
				"element": "H" 
			},
			{
				"x": -4.0998430578,
				"y": -0.6354082175,
				"z": 2.4333147122,
				"element": "H" 
			},
			{
				"x": -3.2444185028,
				"y": 0.9056195951,
				"z": 2.6354903585,
				"element": "H" 
			},
			{
				"x": -3.1740213133,
				"y": 0.3301314685,
				"z": -1.2273044714,
				"element": "H" 
			},
			{
				"x": -3.5847831744,
				"y": -1.2238071613,
				"z": -0.4587764159,
				"element": "H" 
			}
		],
		 "valence_orbital": [ 
			{
				"type": "occ",
				"energy": -0.28597,
				"method": "rhf"
			},
			{
				"type": "occ",
				"energy": -0.27322,
				"method": "rhf"
			},
			{
				"type": "occ",
				"energy": -0.26931,
				"method": "rhf"
			},
			{
				"type": "occ",
				"energy": -0.24905,
				"method": "rhf"
			},
			{
				"type": "occ",
				"energy": -0.22589,
				"method": "rhf"
			},
			{
				"type": "unocc",
				"energy": -0.02243,
				"method": "rhf"
			},
			{
				"type": "unocc",
				"energy": -0.01903,
				"method": "rhf"
			},
			{
				"type": "unocc",
				"energy": 0.05789,
				"method": "rhf"
			},
			{
				"type": "unocc",
				"energy": 0.06972,
				"method": "rhf"
			},
			{
				"type": "unocc",
				"energy": 0.08485,
				"method": "rhf"
			}
		],
		"cosmo_sigma_profile": { 
			"-0.025": 0.0,
			"-0.024": 0.0,
			"-0.023": 0.0,
			"-0.022": 0.0,
			"-0.021": 0.0,
			"-0.02": 0.0,
			"-0.019": 0.0,
			"-0.018": 0.0,
			"-0.017": 0.0,
			"-0.016": 0.0,
			"-0.015": 0.0,
			"-0.014": 0.420385291516,
			"-0.013": 2.63780834341,
			"-0.012": 2.66502735095,
			"-0.011": 3.4056808534,
			"-0.01": 3.02440799263,
			"-0.009": 3.59068709295,
			"-0.008": 4.04914654998,
			"-0.007": 8.83145132237,
			"-0.006": 14.2566255982,
			"-0.005": 14.299997968,
			"-0.004": 26.7406114537,
			"-0.003": 29.0452134349,
			"-0.002": 20.1776409854,
			"-0.001": 16.0933117684,
			"0.0": 13.3908444666,
			"0.001": 10.1600230995,
			"0.002": 10.5527524188,
			"0.003": 14.2863134948,
			"0.004": 17.0778543144,
			"0.005": 6.39489046112,
			"0.006": 4.48409726871,
			"0.007": 3.96628865038,
			"0.008": 5.36985785804,
			"0.009": 4.29997079446,
			"0.01": 5.99056612058,
			"0.011": 7.91579406043,
			"0.012": 10.1236163925,
			"0.013": 5.63032753428,
			"0.014": 1.42707166062,
			"0.015": 0.0,
			"0.016": 0.0,
			"0.017": 0.0,
			"0.018": 0.0,
			"0.019": 0.0,
			"0.02": 0.0,
			"0.021": 0.0,
			"0.022": 0.0,
			"0.023": 0.0,
			"0.024": 0.0,
			"0.025": 0.0
		}
	}
}
