{
	 "smiles": "NC1=NC(S)=NC(S)=N1", 
	 "Tm": 573.15, 
	 "num_atms": 13, 
	 "gaussian": { 
		 "optdone": 1, 
		 "sigma_profile": "yes", 
		 "theory": "DFT", 
		 "functional": "B3LYP", 
		 "basiset": "6-31G**", 
		 "properties": { 
			 "R2extent": 2490.9265, 
			 "electric_dipole_moment_norm": 1.30328115156, 
			 "electric_quadrupole_moment_norm": 15.3522949441, 
			 "total_energy": -1132.12919176, 
			 "HOMO_LUMO_gap": 0.21704, 
			 "cosmo_polarized_energy": -11.54, 
			 "cosmo_cavitation_energy": 21.49, 
			 "cosmo_dispersion_energy": -17.46, 
			 "cosmo_repulsion_energy": 1.37, 
			 "cosmo_total_nonelectrostatic_energy": 5.39, 
			 "SMD_solvation_energy": -1.5 
		},
		"coords": [
			{
				"x": -0.3951911705,
				"y": 2.3433636182,
				"z": 0.177928855,
				"element": "N" 
			},
			{
				"x": -0.386554836,
				"y": 1.1313724234,
				"z": 0.7678421549,
				"element": "C" 
			},
			{
				"x": 0.0596815146,
				"y": 0.0902009201,
				"z": 0.0350388176,
				"element": "N" 
			},
			{
				"x": 0.0393241842,
				"y": -1.069978324,
				"z": 0.6831644626,
				"element": "C" 
			},
			{
				"x": 0.6202474406,
				"y": -2.4594381223,
				"z": -0.2525487981,
				"element": "S" 
			},
			{
				"x": -0.3679752422,
				"y": -1.282726443,
				"z": 1.9435432601,
				"element": "N" 
			},
			{
				"x": -0.7861910198,
				"y": -0.1645204031,
				"z": 2.5554346108,
				"element": "C" 
			},
			{
				"x": -1.3561772949,
				"y": -0.2918033132,
				"z": 4.2295093936,
				"element": "S" 
			},
			{
				"x": -0.8250287362,
				"y": 1.0606885758,
				"z": 2.0417809672,
				"element": "N" 
			},
			{
				"x": -0.7219342085,
				"y": 3.1419791023,
				"z": 0.6955792839,
				"element": "H" 
			},
			{
				"x": -0.0749691116,
				"y": 2.4323869103,
				"z": -0.771829593,
				"element": "H" 
			},
			{
				"x": 0.4292297988,
				"y": -3.3486048826,
				"z": 0.7408798803,
				"element": "H" 
			},
			{
				"x": -1.1477613184,
				"y": -1.6196200619,
				"z": 4.315976705,
				"element": "H" 
			}
		],
		 "valence_orbital": [ 
			{
				"type": "occ",
				"energy": -0.27798,
				"method": "rhf"
			},
			{
				"type": "occ",
				"energy": -0.27382,
				"method": "rhf"
			},
			{
				"type": "occ",
				"energy": -0.26705,
				"method": "rhf"
			},
			{
				"type": "occ",
				"energy": -0.2569,
				"method": "rhf"
			},
			{
				"type": "occ",
				"energy": -0.25479,
				"method": "rhf"
			},
			{
				"type": "unocc",
				"energy": -0.03775,
				"method": "rhf"
			},
			{
				"type": "unocc",
				"energy": -0.0194,
				"method": "rhf"
			},
			{
				"type": "unocc",
				"energy": 0.00698,
				"method": "rhf"
			},
			{
				"type": "unocc",
				"energy": 0.02659,
				"method": "rhf"
			},
			{
				"type": "unocc",
				"energy": 0.07441,
				"method": "rhf"
			}
		],
		"cosmo_sigma_profile": { 
			"-0.025": 0.0,
			"-0.024": 0.0,
			"-0.023": 0.0,
			"-0.022": 0.0,
			"-0.021": 0.0,
			"-0.02": 0.0,
			"-0.019": 0.0,
			"-0.018": 0.0,
			"-0.017": 0.0,
			"-0.016": 0.0584737893952,
			"-0.015": 1.79212335983,
			"-0.014": 2.01153249857,
			"-0.013": 1.7592105409,
			"-0.012": 2.54387829064,
			"-0.011": 5.26016329632,
			"-0.01": 4.49721718169,
			"-0.009": 4.03466465038,
			"-0.008": 3.16319113823,
			"-0.007": 4.03717016009,
			"-0.006": 3.58559187195,
			"-0.005": 4.92697882908,
			"-0.004": 6.25799749411,
			"-0.003": 7.06146335671,
			"-0.002": 7.17953190676,
			"-0.001": 9.48737176232,
			"0.0": 10.9972866821,
			"0.001": 13.9607903872,
			"0.002": 17.3849092256,
			"0.003": 15.2687194734,
			"0.004": 13.6357301993,
			"0.005": 11.8288805846,
			"0.006": 10.2630160592,
			"0.007": 5.32428974958,
			"0.008": 2.28639682746,
			"0.009": 3.15652852804,
			"0.01": 2.29072937736,
			"0.011": 2.28078399143,
			"0.012": 0.877547327816,
			"0.013": 0.164635968943,
			"0.014": 0.0,
			"0.015": 0.0,
			"0.016": 0.0,
			"0.017": 0.0,
			"0.018": 0.0,
			"0.019": 0.0,
			"0.02": 0.0,
			"0.021": 0.0,
			"0.022": 0.0,
			"0.023": 0.0,
			"0.024": 0.0,
			"0.025": 0.0
		}
	}
}
