{
	 "smiles": "O=C1N2CCC3=C(NC4=C3C=CC=C4)C2=NC2=CC=CC=C12", 
	 "Tm": 533.15, 
	 "num_atms": 35, 
	 "gaussian": { 
		 "optdone": 1, 
		 "sigma_profile": "yes", 
		 "theory": "DFT", 
		 "functional": "B3LYP", 
		 "basiset": "6-31G**", 
		 "properties": { 
			 "R2extent": 8857.7195, 
			 "electric_dipole_moment_norm": 2.48484925499, 
			 "electric_quadrupole_moment_norm": 18.060647446, 
			 "total_energy": -933.285889833, 
			 "HOMO_LUMO_gap": 0.14644, 
			 "cosmo_polarized_energy": -12.93, 
			 "cosmo_cavitation_energy": 38.14, 
			 "cosmo_dispersion_energy": -28.51, 
			 "cosmo_repulsion_energy": 2.1, 
			 "cosmo_total_nonelectrostatic_energy": 11.73, 
			 "SMD_solvation_energy": 4.14 
		},
		"coords": [
			{
				"x": 4.1197980417,
				"y": 0.7969162423,
				"z": 3.0312526191,
				"element": "O" 
			},
			{
				"x": 3.1899102776,
				"y": 1.2979732359,
				"z": 2.40813481,
				"element": "C" 
			},
			{
				"x": 2.362746072,
				"y": 0.512081845,
				"z": 1.5808602974,
				"element": "N" 
			},
			{
				"x": 2.5598004195,
				"y": -0.9568623511,
				"z": 1.6120093207,
				"element": "C" 
			},
			{
				"x": 2.2859262289,
				"y": -1.6334846991,
				"z": 0.2627735552,
				"element": "C" 
			},
			{
				"x": 0.9952877979,
				"y": -1.1170400257,
				"z": -0.2977895932,
				"element": "C" 
			},
			{
				"x": 0.5670173597,
				"y": 0.1462765089,
				"z": 0.0461193674,
				"element": "C" 
			},
			{
				"x": -0.5939213969,
				"y": 0.4599154766,
				"z": -0.6271303531,
				"element": "N" 
			},
			{
				"x": -0.9384360976,
				"y": -0.6075264123,
				"z": -1.4252303764,
				"element": "C" 
			},
			{
				"x": 0.0499073753,
				"y": -1.6264027092,
				"z": -1.2451462935,
				"element": "C" 
			},
			{
				"x": -0.0743380317,
				"y": -2.8328127696,
				"z": -1.9603372343,
				"element": "C" 
			},
			{
				"x": -1.1522458368,
				"y": -2.9981281565,
				"z": -2.8171519304,
				"element": "C" 
			},
			{
				"x": -2.1182843404,
				"y": -1.9802733771,
				"z": -2.9780590493,
				"element": "C" 
			},
			{
				"x": -2.0279426433,
				"y": -0.7783465128,
				"z": -2.2878582531,
				"element": "C" 
			},
			{
				"x": 1.2825176875,
				"y": 1.0659057431,
				"z": 0.9024626622,
				"element": "C" 
			},
			{
				"x": 0.9215934647,
				"y": 2.317536648,
				"z": 0.9556962766,
				"element": "N" 
			},
			{
				"x": 1.6795913922,
				"y": 3.1664649273,
				"z": 1.7398333775,
				"element": "C" 
			},
			{
				"x": 1.3186092846,
				"y": 4.5269667689,
				"z": 1.8254102529,
				"element": "C" 
			},
			{
				"x": 2.0715516812,
				"y": 5.4006675862,
				"z": 2.5940010387,
				"element": "C" 
			},
			{
				"x": 3.2020800749,
				"y": 4.9476179201,
				"z": 3.2986951645,
				"element": "C" 
			},
			{
				"x": 3.5686712858,
				"y": 3.611965103,
				"z": 3.229106943,
				"element": "C" 
			},
			{
				"x": 2.8161922735,
				"y": 2.7168756738,
				"z": 2.4528277474,
				"element": "C" 
			},
			{
				"x": 3.5812464697,
				"y": -1.1166343531,
				"z": 1.9546021239,
				"element": "H" 
			},
			{
				"x": 1.8814563259,
				"y": -1.3674439075,
				"z": 2.3706322384,
				"element": "H" 
			},
			{
				"x": 3.1138427708,
				"y": -1.4449399903,
				"z": -0.4354480993,
				"element": "H" 
			},
			{
				"x": 2.2572510939,
				"y": -2.7165594816,
				"z": 0.4262435701,
				"element": "H" 
			},
			{
				"x": -1.0515911694,
				"y": 1.35510528,
				"z": -0.5522924384,
				"element": "H" 
			},
			{
				"x": 0.663799039,
				"y": -3.621121088,
				"z": -1.8422140555,
				"element": "H" 
			},
			{
				"x": -1.2599037017,
				"y": -3.9233661816,
				"z": -3.3751621743,
				"element": "H" 
			},
			{
				"x": -2.9506437716,
				"y": -2.1412390069,
				"z": -3.6568027646,
				"element": "H" 
			},
			{
				"x": -2.7733182493,
				"y": 0.0011821208,
				"z": -2.4149319704,
				"element": "H" 
			},
			{
				"x": 0.4458756185,
				"y": 4.861036736,
				"z": 1.2738733656,
				"element": "H" 
			},
			{
				"x": 1.7859217577,
				"y": 6.4473151503,
				"z": 2.6519310279,
				"element": "H" 
			},
			{
				"x": 3.7836543564,
				"y": 5.6429948998,
				"z": 3.8960772428,
				"element": "H" 
			},
			{
				"x": 4.4301770896,
				"y": 3.2265831564,
				"z": 3.7642115843,
				"element": "H" 
			}
		],
		 "valence_orbital": [ 
			{
				"type": "occ",
				"energy": -0.26044,
				"method": "rhf"
			},
			{
				"type": "occ",
				"energy": -0.25698,
				"method": "rhf"
			},
			{
				"type": "occ",
				"energy": -0.2406,
				"method": "rhf"
			},
			{
				"type": "occ",
				"energy": -0.22058,
				"method": "rhf"
			},
			{
				"type": "occ",
				"energy": -0.20585,
				"method": "rhf"
			},
			{
				"type": "unocc",
				"energy": -0.05941,
				"method": "rhf"
			},
			{
				"type": "unocc",
				"energy": -0.03779,
				"method": "rhf"
			},
			{
				"type": "unocc",
				"energy": -0.00014,
				"method": "rhf"
			},
			{
				"type": "unocc",
				"energy": 0.01694,
				"method": "rhf"
			},
			{
				"type": "unocc",
				"energy": 0.03135,
				"method": "rhf"
			}
		],
		"cosmo_sigma_profile": { 
			"-0.025": 0.0,
			"-0.024": 0.0,
			"-0.023": 0.0,
			"-0.022": 0.0,
			"-0.021": 0.0,
			"-0.02": 0.0,
			"-0.019": 0.0,
			"-0.018": 0.0,
			"-0.017": 0.0,
			"-0.016": 0.031400444157,
			"-0.015": 0.511553442673,
			"-0.014": 1.02694516652,
			"-0.013": 0.771266236714,
			"-0.012": 0.980327318037,
			"-0.011": 0.882348447626,
			"-0.01": 0.917810424382,
			"-0.009": 0.803211248861,
			"-0.008": 1.16740613911,
			"-0.007": 2.7749726847,
			"-0.006": 13.8055472312,
			"-0.005": 28.1795516272,
			"-0.004": 30.9681020628,
			"-0.003": 26.4422130009,
			"-0.002": 22.465126012,
			"-0.001": 18.5574970776,
			"0.0": 16.8783217704,
			"0.001": 17.8924288459,
			"0.002": 23.3092898639,
			"0.003": 28.8578775699,
			"0.004": 23.3288538376,
			"0.005": 13.6513979197,
			"0.006": 11.0600189688,
			"0.007": 4.60423197212,
			"0.008": 2.14288178609,
			"0.009": 2.13041798681,
			"0.01": 2.5160666609,
			"0.011": 2.3791280715,
			"0.012": 3.10251058088,
			"0.013": 4.06392475373,
			"0.014": 0.14577342119,
			"0.015": 0.0,
			"0.016": 0.0,
			"0.017": 0.0,
			"0.018": 0.0,
			"0.019": 0.0,
			"0.02": 0.0,
			"0.021": 0.0,
			"0.022": 0.0,
			"0.023": 0.0,
			"0.024": 0.0,
			"0.025": 0.0
		}
	}
}
