{
	 "smiles": "OC1=CC=C(C=CC(=O)C2=CC=CC=C2)C=C1", 
	 "Tm": 457.15, 
	 "num_atms": 29, 
	 "gaussian": { 
		 "optdone": 1, 
		 "sigma_profile": "yes", 
		 "theory": "DFT", 
		 "functional": "B3LYP", 
		 "basiset": "6-31G**", 
		 "properties": { 
			 "R2extent": 7374.8802, 
			 "electric_dipole_moment_norm": 2.94218578611, 
			 "electric_quadrupole_moment_norm": 27.6864044538, 
			 "total_energy": -729.264023827, 
			 "HOMO_LUMO_gap": 0.1448, 
			 "cosmo_polarized_energy": -15.79, 
			 "cosmo_cavitation_energy": 34.25, 
			 "cosmo_dispersion_energy": -24.93, 
			 "cosmo_repulsion_energy": 1.89, 
			 "cosmo_total_nonelectrostatic_energy": 11.22, 
			 "SMD_solvation_energy": 6.64 
		},
		"coords": [
			{
				"x": -4.0385707458,
				"y": -5.6408387487,
				"z": -1.1280388926,
				"element": "O" 
			},
			{
				"x": -3.2219993207,
				"y": -4.7115282859,
				"z": -0.5599777857,
				"element": "C" 
			},
			{
				"x": -2.9189949913,
				"y": -4.6984131976,
				"z": 0.8059561218,
				"element": "C" 
			},
			{
				"x": -2.0756278321,
				"y": -3.716465757,
				"z": 1.3152542461,
				"element": "C" 
			},
			{
				"x": -1.5122320344,
				"y": -2.7261248104,
				"z": 0.4896381591,
				"element": "C" 
			},
			{
				"x": -0.6372070769,
				"y": -1.7264133238,
				"z": 1.0876264044,
				"element": "C" 
			},
			{
				"x": 0.0053086682,
				"y": -0.7051587916,
				"z": 0.4814338692,
				"element": "C" 
			},
			{
				"x": 0.8429157361,
				"y": 0.2190632293,
				"z": 1.2800296972,
				"element": "C" 
			},
			{
				"x": 0.9120763698,
				"y": 0.1208005595,
				"z": 2.5053005514,
				"element": "O" 
			},
			{
				"x": 1.6077495762,
				"y": 1.3068849341,
				"z": 0.5779561548,
				"element": "C" 
			},
			{
				"x": 2.1777349267,
				"y": 2.3143317453,
				"z": 1.3736130436,
				"element": "C" 
			},
			{
				"x": 2.9042307296,
				"y": 3.3504273413,
				"z": 0.7954396636,
				"element": "C" 
			},
			{
				"x": 3.083461773,
				"y": 3.3906468113,
				"z": -0.5907418789,
				"element": "C" 
			},
			{
				"x": 2.533181975,
				"y": 2.3886385166,
				"z": -1.3913698284,
				"element": "C" 
			},
			{
				"x": 1.7968739531,
				"y": 1.3546871797,
				"z": -0.8119935666,
				"element": "C" 
			},
			{
				"x": -1.8348139582,
				"y": -2.7624887091,
				"z": -0.8844734925,
				"element": "C" 
			},
			{
				"x": -2.6732790226,
				"y": -3.7345412945,
				"z": -1.4053227236,
				"element": "C" 
			},
			{
				"x": -4.3500909862,
				"y": -6.2526807381,
				"z": -0.4480117175,
				"element": "H" 
			},
			{
				"x": -3.3417109374,
				"y": -5.4529840552,
				"z": 1.4658513373,
				"element": "H" 
			},
			{
				"x": -1.8449340345,
				"y": -3.7122240919,
				"z": 2.3770842244,
				"element": "H" 
			},
			{
				"x": -0.4791371858,
				"y": -1.8097371169,
				"z": 2.1622975794,
				"element": "H" 
			},
			{
				"x": -0.0972904709,
				"y": -0.5316444104,
				"z": -0.5838234589,
				"element": "H" 
			},
			{
				"x": 2.0331648359,
				"y": 2.2557879301,
				"z": 2.4470264045,
				"element": "H" 
			},
			{
				"x": 3.3336197827,
				"y": 4.1270122857,
				"z": 1.4220184188,
				"element": "H" 
			},
			{
				"x": 3.6521609909,
				"y": 4.1978059185,
				"z": -1.0439269276,
				"element": "H" 
			},
			{
				"x": 2.6782850598,
				"y": 2.4101209334,
				"z": -2.4676383049,
				"element": "H" 
			},
			{
				"x": 1.3921412874,
				"y": 0.5776463289,
				"z": -1.4515054344,
				"element": "H" 
			},
			{
				"x": -1.421340336,
				"y": -2.015748675,
				"z": -1.5550768527,
				"element": "H" 
			},
			{
				"x": -2.9201767315,
				"y": -3.7606617077,
				"z": -2.4614250112,
				"element": "H" 
			}
		],
		 "valence_orbital": [ 
			{
				"type": "occ",
				"energy": -0.26518,
				"method": "rhf"
			},
			{
				"type": "occ",
				"energy": -0.25443,
				"method": "rhf"
			},
			{
				"type": "occ",
				"energy": -0.25072,
				"method": "rhf"
			},
			{
				"type": "occ",
				"energy": -0.23962,
				"method": "rhf"
			},
			{
				"type": "occ",
				"energy": -0.21631,
				"method": "rhf"
			},
			{
				"type": "unocc",
				"energy": -0.07151,
				"method": "rhf"
			},
			{
				"type": "unocc",
				"energy": -0.01881,
				"method": "rhf"
			},
			{
				"type": "unocc",
				"energy": -0.01207,
				"method": "rhf"
			},
			{
				"type": "unocc",
				"energy": -0.0021,
				"method": "rhf"
			},
			{
				"type": "unocc",
				"energy": 0.04038,
				"method": "rhf"
			}
		],
		"cosmo_sigma_profile": { 
			"-0.025": 0.0,
			"-0.024": 0.0,
			"-0.023": 0.0,
			"-0.022": 0.0,
			"-0.021": 0.0,
			"-0.02": 0.0,
			"-0.019": 0.00947929499936,
			"-0.018": 0.737219483388,
			"-0.017": 1.54495508439,
			"-0.016": 0.929268236478,
			"-0.015": 1.04514402841,
			"-0.014": 1.17780414401,
			"-0.013": 1.3093808396,
			"-0.012": 0.867826817205,
			"-0.011": 0.563804927724,
			"-0.01": 1.24535272285,
			"-0.009": 1.47215752029,
			"-0.008": 4.32324153092,
			"-0.007": 7.89683403272,
			"-0.006": 16.7791156861,
			"-0.005": 17.8980524841,
			"-0.004": 19.4832219288,
			"-0.003": 14.2738836191,
			"-0.002": 13.2891438862,
			"-0.001": 14.9607441729,
			"0.0": 16.7216933099,
			"0.001": 17.5987581013,
			"0.002": 24.2036674361,
			"0.003": 28.7263602299,
			"0.004": 30.6262747316,
			"0.005": 10.6242485543,
			"0.006": 3.01930043481,
			"0.007": 3.70783407574,
			"0.008": 2.71151795247,
			"0.009": 3.23341071028,
			"0.01": 3.50697925683,
			"0.011": 3.5146682973,
			"0.012": 3.0070396333,
			"0.013": 3.93809624356,
			"0.014": 0.114706651454,
			"0.015": 0.0,
			"0.016": 0.0,
			"0.017": 0.0,
			"0.018": 0.0,
			"0.019": 0.0,
			"0.02": 0.0,
			"0.021": 0.0,
			"0.022": 0.0,
			"0.023": 0.0,
			"0.024": 0.0,
			"0.025": 0.0
		}
	}
}
