{
	 "smiles": "CC(=O)NCCC1=CC=C(S1)S(N)(=O)=O", 
	 "Tm": 418.15, 
	 "num_atms": 27, 
	 "gaussian": { 
		 "optdone": 1, 
		 "sigma_profile": "yes", 
		 "theory": "DFT", 
		 "functional": "B3LYP", 
		 "basiset": "6-31G**", 
		 "properties": { 
			 "R2extent": 5273.6211, 
			 "electric_dipole_moment_norm": 6.51517339524, 
			 "electric_quadrupole_moment_norm": 26.7736581938, 
			 "total_energy": -1443.56780479, 
			 "HOMO_LUMO_gap": 0.19549, 
			 "cosmo_polarized_energy": -27.77, 
			 "cosmo_cavitation_energy": 34.37, 
			 "cosmo_dispersion_energy": -24.82, 
			 "cosmo_repulsion_energy": 1.9, 
			 "cosmo_total_nonelectrostatic_energy": 11.45, 
			 "SMD_solvation_energy": 5.72 
		},
		"coords": [
			{
				"x": 0.3027621351,
				"y": -4.3234181958,
				"z": -1.4392555723,
				"element": "C" 
			},
			{
				"x": -0.7921763632,
				"y": -3.3121676664,
				"z": -1.7352261408,
				"element": "C" 
			},
			{
				"x": -1.9825193304,
				"y": -3.5897344234,
				"z": -1.6574513487,
				"element": "O" 
			},
			{
				"x": -0.3655001026,
				"y": -2.055388071,
				"z": -2.0854453851,
				"element": "N" 
			},
			{
				"x": -1.3176666204,
				"y": -0.9948175363,
				"z": -2.3765931572,
				"element": "C" 
			},
			{
				"x": -1.885662812,
				"y": -0.3068140706,
				"z": -1.114698523,
				"element": "C" 
			},
			{
				"x": -0.9031524378,
				"y": 0.5285606872,
				"z": -0.3449013739,
				"element": "C" 
			},
			{
				"x": -0.947485408,
				"y": 1.8855843628,
				"z": -0.1308028533,
				"element": "C" 
			},
			{
				"x": 0.1260310223,
				"y": 2.3794356405,
				"z": 0.6625252799,
				"element": "C" 
			},
			{
				"x": 0.9866607805,
				"y": 1.3847529643,
				"z": 1.046278399,
				"element": "C" 
			},
			{
				"x": 0.4835489859,
				"y": -0.1779482495,
				"z": 0.4566558394,
				"element": "S" 
			},
			{
				"x": 2.459662341,
				"y": 1.5982105035,
				"z": 2.0132707465,
				"element": "S" 
			},
			{
				"x": 3.7418788766,
				"y": 1.7774128407,
				"z": 0.9425622098,
				"element": "N" 
			},
			{
				"x": 2.3296379293,
				"y": 2.8850161142,
				"z": 2.6901396854,
				"element": "O" 
			},
			{
				"x": 2.7080391897,
				"y": 0.3370622171,
				"z": 2.7066372197,
				"element": "O" 
			},
			{
				"x": 1.3050342018,
				"y": -3.9808605143,
				"z": -1.7110701435,
				"element": "H" 
			},
			{
				"x": 0.078926618,
				"y": -5.2471238997,
				"z": -1.9777017873,
				"element": "H" 
			},
			{
				"x": 0.2895142335,
				"y": -4.5564121878,
				"z": -0.3702012952,
				"element": "H" 
			},
			{
				"x": 0.6218013364,
				"y": -1.8561033161,
				"z": -2.119094606,
				"element": "H" 
			},
			{
				"x": -2.1516872221,
				"y": -1.4428935583,
				"z": -2.9232519888,
				"element": "H" 
			},
			{
				"x": -0.8307272953,
				"y": -0.2603467821,
				"z": -3.0249011781,
				"element": "H" 
			},
			{
				"x": -2.3205295107,
				"y": -1.0880647466,
				"z": -0.4817707162,
				"element": "H" 
			},
			{
				"x": -2.7092418206,
				"y": 0.3486521766,
				"z": -1.4201781119,
				"element": "H" 
			},
			{
				"x": -1.7434775918,
				"y": 2.511314332,
				"z": -0.5199202884,
				"element": "H" 
			},
			{
				"x": 0.2562478626,
				"y": 3.4138808544,
				"z": 0.9570759073,
				"element": "H" 
			},
			{
				"x": 3.930332681,
				"y": 0.9352676539,
				"z": 0.4084668496,
				"element": "H" 
			},
			{
				"x": 3.6621483213,
				"y": 2.6090428707,
				"z": 0.3661523334,
				"element": "H" 
			}
		],
		 "valence_orbital": [ 
			{
				"type": "occ",
				"energy": -0.30883,
				"method": "rhf"
			},
			{
				"type": "occ",
				"energy": -0.27744,
				"method": "rhf"
			},
			{
				"type": "occ",
				"energy": -0.26703,
				"method": "rhf"
			},
			{
				"type": "occ",
				"energy": -0.2571,
				"method": "rhf"
			},
			{
				"type": "occ",
				"energy": -0.24717,
				"method": "rhf"
			},
			{
				"type": "unocc",
				"energy": -0.05168,
				"method": "rhf"
			},
			{
				"type": "unocc",
				"energy": 0.00726,
				"method": "rhf"
			},
			{
				"type": "unocc",
				"energy": 0.02169,
				"method": "rhf"
			},
			{
				"type": "unocc",
				"energy": 0.03385,
				"method": "rhf"
			},
			{
				"type": "unocc",
				"energy": 0.04963,
				"method": "rhf"
			}
		],
		"cosmo_sigma_profile": { 
			"-0.025": 0.0,
			"-0.024": 0.0,
			"-0.023": 0.0,
			"-0.022": 0.0,
			"-0.021": 0.0,
			"-0.02": 0.0,
			"-0.019": 0.0,
			"-0.018": 0.0,
			"-0.017": 0.0,
			"-0.016": 0.243174770805,
			"-0.015": 2.14364884718,
			"-0.014": 3.48871078639,
			"-0.013": 2.83867227752,
			"-0.012": 4.42215886607,
			"-0.011": 3.61146112369,
			"-0.01": 3.35845600613,
			"-0.009": 4.03021154633,
			"-0.008": 4.58553671065,
			"-0.007": 8.41976403496,
			"-0.006": 12.8104932634,
			"-0.005": 17.2198211514,
			"-0.004": 20.4234173914,
			"-0.003": 18.3787785542,
			"-0.002": 21.7845895179,
			"-0.001": 18.3790301565,
			"0.0": 13.7008716405,
			"0.001": 13.2058252361,
			"0.002": 13.9055303558,
			"0.003": 13.8959636663,
			"0.004": 7.84882811798,
			"0.005": 5.00827900002,
			"0.006": 5.83212502906,
			"0.007": 5.58826932968,
			"0.008": 6.15719594708,
			"0.009": 5.49855697436,
			"0.01": 10.5724358931,
			"0.011": 11.7807813637,
			"0.012": 5.06328828032,
			"0.013": 2.68546860256,
			"0.014": 4.68906194127,
			"0.015": 1.87773439608,
			"0.016": 0.11745581754,
			"0.017": 0.0,
			"0.018": 0.0,
			"0.019": 0.0,
			"0.02": 0.0,
			"0.021": 0.0,
			"0.022": 0.0,
			"0.023": 0.0,
			"0.024": 0.0,
			"0.025": 0.0
		}
	}
}
