{
	 "smiles": "[O-][N+](=O)C1=CC(=C(Cl)C=C1)S(Cl)(=O)=O", 
	 "Tm": 359.15, 
	 "num_atms": 17, 
	 "gaussian": { 
		 "optdone": 1, 
		 "sigma_profile": "yes", 
		 "theory": "DFT", 
		 "functional": "B3LYP", 
		 "basiset": "6-31G**", 
		 "properties": { 
			 "R2extent": 4310.4137, 
			 "electric_dipole_moment_norm": 3.7821037228, 
			 "electric_quadrupole_moment_norm": 16.8394788925, 
			 "total_energy": -1904.47178111, 
			 "HOMO_LUMO_gap": 0.18272, 
			 "cosmo_polarized_energy": -12.4, 
			 "cosmo_cavitation_energy": 27.89, 
			 "cosmo_dispersion_energy": -20.89, 
			 "cosmo_repulsion_energy": 1.58, 
			 "cosmo_total_nonelectrostatic_energy": 8.58, 
			 "SMD_solvation_energy": 5.63 
		},
		"coords": [
			{
				"x": -3.6926380327,
				"y": -0.7428917078,
				"z": -0.9913740757,
				"element": "O" 
			},
			{
				"x": -2.6931851301,
				"y": -1.3550902025,
				"z": -0.6228596073,
				"element": "N" 
			},
			{
				"x": -2.6518817471,
				"y": -2.5505938702,
				"z": -0.3448381115,
				"element": "O" 
			},
			{
				"x": -1.4399303507,
				"y": -0.5865962817,
				"z": -0.5041733925,
				"element": "C" 
			},
			{
				"x": -0.2909920519,
				"y": -1.2509299194,
				"z": -0.0889388665,
				"element": "C" 
			},
			{
				"x": 0.8934450429,
				"y": -0.5305426615,
				"z": 0.0245632543,
				"element": "C" 
			},
			{
				"x": 0.9160266134,
				"y": 0.8457709218,
				"z": -0.2782841467,
				"element": "C" 
			},
			{
				"x": 2.3612150221,
				"y": 1.8007952638,
				"z": -0.1568247698,
				"element": "Cl" 
			},
			{
				"x": -0.2571753841,
				"y": 1.4833501054,
				"z": -0.6931714984,
				"element": "C" 
			},
			{
				"x": -1.4445832685,
				"y": 0.7699891968,
				"z": -0.8089303997,
				"element": "C" 
			},
			{
				"x": 2.4438541006,
				"y": -1.3197615004,
				"z": 0.5609584092,
				"element": "S" 
			},
			{
				"x": 1.8578650468,
				"y": -3.3379047734,
				"z": 0.8766947211,
				"element": "Cl" 
			},
			{
				"x": 2.8066390358,
				"y": -0.7942746317,
				"z": 1.867745723,
				"element": "O" 
			},
			{
				"x": 3.3700446035,
				"y": -1.3377311166,
				"z": -0.5603270341,
				"element": "O" 
			},
			{
				"x": -0.3438563384,
				"y": -2.3073101093,
				"z": 0.135244408,
				"element": "H" 
			},
			{
				"x": -0.2258609672,
				"y": 2.5420931953,
				"z": -0.9229045648,
				"element": "H" 
			},
			{
				"x": -2.3636861943,
				"y": 1.2450280916,
				"z": -1.1284800486,
				"element": "H" 
			}
		],
		 "valence_orbital": [ 
			{
				"type": "occ",
				"energy": -0.33268,
				"method": "rhf"
			},
			{
				"type": "occ",
				"energy": -0.33174,
				"method": "rhf"
			},
			{
				"type": "occ",
				"energy": -0.31986,
				"method": "rhf"
			},
			{
				"type": "occ",
				"energy": -0.31884,
				"method": "rhf"
			},
			{
				"type": "occ",
				"energy": -0.30375,
				"method": "rhf"
			},
			{
				"type": "unocc",
				"energy": -0.12103,
				"method": "rhf"
			},
			{
				"type": "unocc",
				"energy": -0.10299,
				"method": "rhf"
			},
			{
				"type": "unocc",
				"energy": -0.08096,
				"method": "rhf"
			},
			{
				"type": "unocc",
				"energy": -0.04326,
				"method": "rhf"
			},
			{
				"type": "unocc",
				"energy": -0.01976,
				"method": "rhf"
			}
		],
		"cosmo_sigma_profile": { 
			"-0.025": 0.0,
			"-0.024": 0.0,
			"-0.023": 0.0,
			"-0.022": 0.0,
			"-0.021": 0.0,
			"-0.02": 0.0,
			"-0.019": 0.0,
			"-0.018": 0.0,
			"-0.017": 0.0,
			"-0.016": 0.0,
			"-0.015": 0.0,
			"-0.014": 0.0,
			"-0.013": 0.0,
			"-0.012": 0.0,
			"-0.011": 0.15147668171,
			"-0.01": 3.24339036509,
			"-0.009": 4.3644435139,
			"-0.008": 6.06773324952,
			"-0.007": 6.10599572628,
			"-0.006": 10.2361359755,
			"-0.005": 11.4971366619,
			"-0.004": 21.4258634397,
			"-0.003": 20.8663704145,
			"-0.002": 16.1956583077,
			"-0.001": 13.5593659125,
			"0.0": 11.6254671249,
			"0.001": 15.866321487,
			"0.002": 18.3244467052,
			"0.003": 11.3799173091,
			"0.004": 6.74142021276,
			"0.005": 7.33424817621,
			"0.006": 11.055227052,
			"0.007": 18.9582508819,
			"0.008": 12.0642188765,
			"0.009": 3.04008804266,
			"0.01": 0.122088831524,
			"0.011": 0.0,
			"0.012": 0.0,
			"0.013": 0.0,
			"0.014": 0.0,
			"0.015": 0.0,
			"0.016": 0.0,
			"0.017": 0.0,
			"0.018": 0.0,
			"0.019": 0.0,
			"0.02": 0.0,
			"0.021": 0.0,
			"0.022": 0.0,
			"0.023": 0.0,
			"0.024": 0.0,
			"0.025": 0.0
		}
	}
}
