{
	 "smiles": "NC1=NC=C(I)C=N1", 
	 "Tm": 492.15, 
	 "num_atms": 12, 
	 "gaussian": { 
		 "optdone": 1, 
		 "sigma_profile": "no", 
		 "theory": "DFT", 
		 "functional": "B3LYP", 
		 "basiset": "6-31G**", 
		 "properties": { 
			 "R2extent": 1343.0151, 
			 "electric_dipole_moment_norm": 1.89750474835, 
			 "electric_quadrupole_moment_norm": 9.46794471836, 
			 "total_energy": -330.48089202, 
			 "HOMO_LUMO_gap": 0.18339, 
			 "cosmo_polarized_energy": -100920.08, 
			 "cosmo_cavitation_energy": 19.76, 
			 "cosmo_dispersion_energy": -16.51, 
			 "cosmo_repulsion_energy": 1.34, 
			 "cosmo_total_nonelectrostatic_energy": 4.59, 
			 "SMD_solvation_energy": -0.24 
		},
		"coords": [
			{
				"x": 0.865503175,
				"y": 1.4186967478,
				"z": -2.6622342005,
				"element": "N" 
			},
			{
				"x": 0.791174797,
				"y": 1.2719213652,
				"z": -1.312467888,
				"element": "C" 
			},
			{
				"x": 0.4826896566,
				"y": 0.0425120815,
				"z": -0.8492916498,
				"element": "N" 
			},
			{
				"x": 0.4483136233,
				"y": -0.0955523256,
				"z": 0.4739847858,
				"element": "C" 
			},
			{
				"x": 0.7128784029,
				"y": 0.9666160169,
				"z": 1.3425122981,
				"element": "C" 
			},
			{
				"x": 0.6516335515,
				"y": 0.7259096591,
				"z": 3.4352172154,
				"element": "I" 
			},
			{
				"x": 1.0105135551,
				"y": 2.1987108476,
				"z": 0.7543834715,
				"element": "C" 
			},
			{
				"x": 1.0518416844,
				"y": 2.3651365018,
				"z": -0.5654207765,
				"element": "N" 
			},
			{
				"x": 0.9339915955,
				"y": 2.350556414,
				"z": -3.0364919102,
				"element": "H" 
			},
			{
				"x": 0.5223514723,
				"y": 0.6707559932,
				"z": -3.2418480202,
				"element": "H" 
			},
			{
				"x": 0.199649913,
				"y": -1.0838582797,
				"z": 0.854878023,
				"element": "H" 
			},
			{
				"x": 1.2189585734,
				"y": 3.0758949781,
				"z": 1.3632786513,
				"element": "H" 
			}
		],
		 "valence_orbital": [ 
			{
				"type": "occ",
				"energy": -0.3172,
				"method": "rhf"
			},
			{
				"type": "occ",
				"energy": -0.28315,
				"method": "rhf"
			},
			{
				"type": "occ",
				"energy": -0.27804,
				"method": "rhf"
			},
			{
				"type": "occ",
				"energy": -0.25486,
				"method": "rhf"
			},
			{
				"type": "occ",
				"energy": -0.22691,
				"method": "rhf"
			},
			{
				"type": "unocc",
				"energy": -0.04352,
				"method": "rhf"
			},
			{
				"type": "unocc",
				"energy": -0.04126,
				"method": "rhf"
			},
			{
				"type": "unocc",
				"energy": -0.01275,
				"method": "rhf"
			},
			{
				"type": "unocc",
				"energy": 0.04256,
				"method": "rhf"
			},
			{
				"type": "unocc",
				"energy": 0.04808,
				"method": "rhf"
			}
		],
		"cosmo_sigma_profile": { 
			"0.0": 0.0,
			"0.0": 0.0,
			"0.0": 0.0,
			"0.0": 0.0,
			"0.0": 0.0,
			"0.0": 0.0,
			"0.0": 0.0,
			"0.0": 0.0,
			"0.0": 0.0,
			"0.0": 0.0,
			"0.0": 0.0,
			"0.0": 0.0,
			"0.0": 0.0,
			"0.0": 0.0,
			"0.0": 0.0,
			"0.0": 0.0,
			"0.0": 0.0,
			"0.0": 0.0,
			"0.0": 0.0,
			"0.0": 0.0,
			"0.0": 0.0,
			"0.0": 0.0,
			"0.0": 0.0,
			"0.0": 0.0,
			"0.0": 0.0,
			"0.0": 0.0,
			"0.0": 0.0,
			"0.0": 0.0,
			"0.0": 0.0,
			"0.0": 0.0,
			"0.0": 0.0,
			"0.0": 0.0,
			"0.0": 0.0,
			"0.0": 0.0,
			"0.0": 0.0,
			"0.0": 0.0,
			"0.0": 0.0,
			"0.0": 0.0,
			"0.0": 0.0,
			"0.0": 0.0,
			"0.0": 0.0,
			"0.0": 0.0,
			"0.0": 0.0,
			"0.0": 0.0,
			"0.0": 0.0,
			"0.0": 0.0,
			"0.0": 0.0,
			"0.0": 0.0,
			"0.0": 0.0,
			"0.0": 0.0,
			"0.0": 0.0
		}
	}
}
