{
	 "smiles": "CCCCCC(=O)NC1=C(C=C(OC)C(OC)=C1)C(O)=O", 
	 "Tm": 452.15, 
	 "num_atms": 42, 
	 "gaussian": { 
		 "optdone": 1, 
		 "sigma_profile": "yes", 
		 "theory": "DFT", 
		 "functional": "B3LYP", 
		 "basiset": "6-31G**", 
		 "properties": { 
			 "R2extent": 7459.0413, 
			 "electric_dipole_moment_norm": 3.50712346233, 
			 "electric_quadrupole_moment_norm": 21.6112649077, 
			 "total_energy": -1015.13183997, 
			 "HOMO_LUMO_gap": 0.17221, 
			 "cosmo_polarized_energy": -16.6, 
			 "cosmo_cavitation_energy": 44.16, 
			 "cosmo_dispersion_energy": -29.08, 
			 "cosmo_repulsion_energy": 2.26, 
			 "cosmo_total_nonelectrostatic_energy": 17.34, 
			 "SMD_solvation_energy": 10.17 
		},
		"coords": [
			{
				"x": -0.6420825363,
				"y": -3.6286156553,
				"z": -1.1088084823,
				"element": "C" 
			},
			{
				"x": 0.5296367315,
				"y": -3.9223621991,
				"z": -0.1640206877,
				"element": "C" 
			},
			{
				"x": 0.4549606141,
				"y": -3.1911552809,
				"z": 1.1876499158,
				"element": "C" 
			},
			{
				"x": 0.5073042452,
				"y": -1.6523929056,
				"z": 1.1582296279,
				"element": "C" 
			},
			{
				"x": 1.8461738777,
				"y": -1.0445817115,
				"z": 0.660711111,
				"element": "C" 
			},
			{
				"x": 1.9595480584,
				"y": -0.920578856,
				"z": -0.8530039698,
				"element": "C" 
			},
			{
				"x": 2.6636762203,
				"y": -1.6710357578,
				"z": -1.5145759907,
				"element": "O" 
			},
			{
				"x": 1.1899317538,
				"y": 0.0245991459,
				"z": -1.5304922097,
				"element": "N" 
			},
			{
				"x": 0.3068165948,
				"y": 1.0181604832,
				"z": -1.0703221828,
				"element": "C" 
			},
			{
				"x": -0.9749108294,
				"y": 1.2155965523,
				"z": -1.6523929296,
				"element": "C" 
			},
			{
				"x": -1.7976757672,
				"y": 2.2430614838,
				"z": -1.159029995,
				"element": "C" 
			},
			{
				"x": -1.4077494633,
				"y": 3.0704124995,
				"z": -0.1186110069,
				"element": "C" 
			},
			{
				"x": -2.2640211272,
				"y": 4.0482993224,
				"z": 0.3346858951,
				"element": "O" 
			},
			{
				"x": -1.8975906532,
				"y": 5.3808473067,
				"z": -0.0482185363,
				"element": "C" 
			},
			{
				"x": -0.1352929604,
				"y": 2.8770828957,
				"z": 0.4582248966,
				"element": "C" 
			},
			{
				"x": 0.349898934,
				"y": 3.6933550981,
				"z": 1.4442591744,
				"element": "O" 
			},
			{
				"x": -0.3631928993,
				"y": 3.6593830565,
				"z": 2.6909028231,
				"element": "C" 
			},
			{
				"x": 0.7027586264,
				"y": 1.8813366616,
				"z": -0.0375399535,
				"element": "C" 
			},
			{
				"x": -1.5629700009,
				"y": 0.4408939037,
				"z": -2.7764042393,
				"element": "C" 
			},
			{
				"x": -0.7018948769,
				"y": -0.4205574778,
				"z": -3.388707943,
				"element": "O" 
			},
			{
				"x": -2.7092947879,
				"y": 0.5518246504,
				"z": -3.1634818212,
				"element": "O" 
			},
			{
				"x": -1.6056412866,
				"y": -3.8323883671,
				"z": -0.6260319609,
				"element": "H" 
			},
			{
				"x": -0.5826544155,
				"y": -4.2535716435,
				"z": -2.006169571,
				"element": "H" 
			},
			{
				"x": -0.650819253,
				"y": -2.5863362896,
				"z": -1.4438264942,
				"element": "H" 
			},
			{
				"x": 0.5554775831,
				"y": -5.0002589452,
				"z": 0.0421659672,
				"element": "H" 
			},
			{
				"x": 1.4730251389,
				"y": -3.6824611193,
				"z": -0.665419817,
				"element": "H" 
			},
			{
				"x": 1.2736141466,
				"y": -3.5492377783,
				"z": 1.8268504117,
				"element": "H" 
			},
			{
				"x": -0.4747107811,
				"y": -3.4836519026,
				"z": 1.6958647021,
				"element": "H" 
			},
			{
				"x": -0.3260114218,
				"y": -1.2523332613,
				"z": 0.5695105852,
				"element": "H" 
			},
			{
				"x": 0.3431867758,
				"y": -1.2952576541,
				"z": 2.1817897108,
				"element": "H" 
			},
			{
				"x": 2.6840312773,
				"y": -1.6765894649,
				"z": 0.9663568673,
				"element": "H" 
			},
			{
				"x": 1.9889757869,
				"y": -0.0706319147,
				"z": 1.1322356829,
				"element": "H" 
			},
			{
				"x": 1.1169521504,
				"y": -0.2095365407,
				"z": -2.5129943326,
				"element": "H" 
			},
			{
				"x": -2.7715708929,
				"y": 2.3867611196,
				"z": -1.6128156578,
				"element": "H" 
			},
			{
				"x": -1.9012858331,
				"y": 5.4850503009,
				"z": -1.1400898379,
				"element": "H" 
			},
			{
				"x": -0.9093632391,
				"y": 5.6492458988,
				"z": 0.3398611427,
				"element": "H" 
			},
			{
				"x": -2.6536879016,
				"y": 6.0412860193,
				"z": 0.3804888538,
				"element": "H" 
			},
			{
				"x": 0.1336970858,
				"y": 4.3820459249,
				"z": 3.3401745329,
				"element": "H" 
			},
			{
				"x": -1.412931081,
				"y": 3.9328771159,
				"z": 2.5585255135,
				"element": "H" 
			},
			{
				"x": -0.2966759546,
				"y": 2.66157073,
				"z": 3.1412119655,
				"element": "H" 
			},
			{
				"x": 1.6993181994,
				"y": 1.8153302599,
				"z": 0.3799401318,
				"element": "H" 
			},
			{
				"x": -1.2152558382,
				"y": -0.8528857038,
				"z": -4.0916818918,
				"element": "H" 
			}
		],
		 "valence_orbital": [ 
			{
				"type": "occ",
				"energy": -0.28608,
				"method": "rhf"
			},
			{
				"type": "occ",
				"energy": -0.27766,
				"method": "rhf"
			},
			{
				"type": "occ",
				"energy": -0.25619,
				"method": "rhf"
			},
			{
				"type": "occ",
				"energy": -0.25128,
				"method": "rhf"
			},
			{
				"type": "occ",
				"energy": -0.22846,
				"method": "rhf"
			},
			{
				"type": "unocc",
				"energy": -0.05625,
				"method": "rhf"
			},
			{
				"type": "unocc",
				"energy": -0.0225,
				"method": "rhf"
			},
			{
				"type": "unocc",
				"energy": 0.02414,
				"method": "rhf"
			},
			{
				"type": "unocc",
				"energy": 0.04583,
				"method": "rhf"
			},
			{
				"type": "unocc",
				"energy": 0.06456,
				"method": "rhf"
			}
		],
		"cosmo_sigma_profile": { 
			"-0.025": 0.0,
			"-0.024": 0.0,
			"-0.023": 0.0,
			"-0.022": 0.0,
			"-0.021": 0.0,
			"-0.02": 0.0,
			"-0.019": 0.192768255489,
			"-0.018": 0.795209074414,
			"-0.017": 1.19687259059,
			"-0.016": 0.921318738512,
			"-0.015": 0.0796314587777,
			"-0.014": 0.526112336273,
			"-0.013": 0.754843955872,
			"-0.012": 1.1082862696,
			"-0.011": 0.726648763874,
			"-0.01": 0.550766856511,
			"-0.009": 1.83309121111,
			"-0.008": 3.12464577387,
			"-0.007": 3.11432080067,
			"-0.006": 7.78161934066,
			"-0.005": 13.8415583868,
			"-0.004": 20.3365287698,
			"-0.003": 38.3108898145,
			"-0.002": 44.4533953094,
			"-0.001": 39.8697892457,
			"0.0": 38.7543257236,
			"0.001": 37.7982789802,
			"0.002": 23.7695560296,
			"0.003": 9.82789122735,
			"0.004": 8.13521942359,
			"0.005": 5.08031770993,
			"0.006": 5.18278323401,
			"0.007": 4.14549580816,
			"0.008": 4.98346474284,
			"0.009": 4.54244930984,
			"0.01": 6.56262845434,
			"0.011": 6.68944971687,
			"0.012": 5.57958185749,
			"0.013": 4.50387052305,
			"0.014": 1.83386462274,
			"0.015": 0.0,
			"0.016": 0.0,
			"0.017": 0.0,
			"0.018": 0.0,
			"0.019": 0.0,
			"0.02": 0.0,
			"0.021": 0.0,
			"0.022": 0.0,
			"0.023": 0.0,
			"0.024": 0.0,
			"0.025": 0.0
		}
	}
}
