{
	 "smiles": "OC(=O)C1=CNC2=C1C=C(C=C2)[N+]([O-])=O", 
	 "Tm": 529.15, 
	 "num_atms": 21, 
	 "gaussian": { 
		 "optdone": 1, 
		 "sigma_profile": "yes", 
		 "theory": "DFT", 
		 "functional": "B3LYP", 
		 "basiset": "6-31G**", 
		 "properties": { 
			 "R2extent": 3499.8824, 
			 "electric_dipole_moment_norm": 10.2488153164, 
			 "electric_quadrupole_moment_norm": 10.2440593575, 
			 "total_energy": -756.885504123, 
			 "HOMO_LUMO_gap": 0.16512, 
			 "cosmo_polarized_energy": -28.72, 
			 "cosmo_cavitation_energy": 26.97, 
			 "cosmo_dispersion_energy": -19.97, 
			 "cosmo_repulsion_energy": 1.54, 
			 "cosmo_total_nonelectrostatic_energy": 8.53, 
			 "SMD_solvation_energy": 7.86 
		},
		"coords": [
			{
				"x": 0.7101610077,
				"y": 2.8449380301,
				"z": -2.0726382488,
				"element": "O" 
			},
			{
				"x": 0.855660145,
				"y": 1.5949256423,
				"z": -1.5449297409,
				"element": "C" 
			},
			{
				"x": 1.6086467611,
				"y": 0.8055543866,
				"z": -2.0679547073,
				"element": "O" 
			},
			{
				"x": 0.0710454362,
				"y": 1.28752192,
				"z": -0.3341479454,
				"element": "C" 
			},
			{
				"x": -0.5723288982,
				"y": 2.1615731857,
				"z": 0.5170802701,
				"element": "C" 
			},
			{
				"x": -1.1588662737,
				"y": 1.4615628348,
				"z": 1.543138494,
				"element": "N" 
			},
			{
				"x": -0.9046242362,
				"y": 0.1128484205,
				"z": 1.3897980071,
				"element": "C" 
			},
			{
				"x": -0.1202461146,
				"y": -0.0355334922,
				"z": 0.2156788305,
				"element": "C" 
			},
			{
				"x": 0.2938719153,
				"y": -1.3126503669,
				"z": -0.1813176828,
				"element": "C" 
			},
			{
				"x": -0.1005190459,
				"y": -2.379892318,
				"z": 0.6139262545,
				"element": "C" 
			},
			{
				"x": -0.8807030278,
				"y": -2.2351529575,
				"z": 1.7779716313,
				"element": "C" 
			},
			{
				"x": -1.2935684399,
				"y": -0.9760259508,
				"z": 2.1805452208,
				"element": "C" 
			},
			{
				"x": 0.3168953531,
				"y": -3.7362611664,
				"z": 0.2270530916,
				"element": "N" 
			},
			{
				"x": 0.9943602387,
				"y": -3.8595545535,
				"z": -0.7918017296,
				"element": "O" 
			},
			{
				"x": -0.0391077542,
				"y": -4.6705922363,
				"z": 0.9476698245,
				"element": "O" 
			},
			{
				"x": -0.0521110059,
				"y": 3.2903596623,
				"z": -1.6788439912,
				"element": "H" 
			},
			{
				"x": -0.6342247367,
				"y": 3.2412981711,
				"z": 0.496632445,
				"element": "H" 
			},
			{
				"x": -1.6703447503,
				"y": 1.8754338689,
				"z": 2.3068878,
				"element": "H" 
			},
			{
				"x": 0.9028426807,
				"y": -1.4627838925,
				"z": -1.0626306441,
				"element": "H" 
			},
			{
				"x": -1.1426279751,
				"y": -3.1218162758,
				"z": 2.3402726917,
				"element": "H" 
			},
			{
				"x": -1.8940112792,
				"y": -0.8454529122,
				"z": 3.0752101288,
				"element": "H" 
			}
		],
		 "valence_orbital": [ 
			{
				"type": "occ",
				"energy": -0.30026,
				"method": "rhf"
			},
			{
				"type": "occ",
				"energy": -0.28322,
				"method": "rhf"
			},
			{
				"type": "occ",
				"energy": -0.27935,
				"method": "rhf"
			},
			{
				"type": "occ",
				"energy": -0.26494,
				"method": "rhf"
			},
			{
				"type": "occ",
				"energy": -0.24717,
				"method": "rhf"
			},
			{
				"type": "unocc",
				"energy": -0.08205,
				"method": "rhf"
			},
			{
				"type": "unocc",
				"energy": -0.05152,
				"method": "rhf"
			},
			{
				"type": "unocc",
				"energy": -0.02025,
				"method": "rhf"
			},
			{
				"type": "unocc",
				"energy": 0.015,
				"method": "rhf"
			},
			{
				"type": "unocc",
				"energy": 0.04232,
				"method": "rhf"
			}
		],
		"cosmo_sigma_profile": { 
			"-0.025": 0.0,
			"-0.024": 0.0,
			"-0.023": 0.0,
			"-0.022": 0.0,
			"-0.021": 0.0,
			"-0.02": 0.00571107594998,
			"-0.019": 0.6484149777,
			"-0.018": 1.68460554701,
			"-0.017": 3.09428153449,
			"-0.016": 2.54859546237,
			"-0.015": 2.70926822305,
			"-0.014": 2.29634454838,
			"-0.013": 3.23188497517,
			"-0.012": 3.00421738187,
			"-0.011": 3.97808715364,
			"-0.01": 2.70506237899,
			"-0.009": 3.33317459965,
			"-0.008": 4.2037296719,
			"-0.007": 5.81357804584,
			"-0.006": 5.49781927338,
			"-0.005": 6.46157477476,
			"-0.004": 5.93549065385,
			"-0.003": 8.41224983166,
			"-0.002": 10.2026697642,
			"-0.001": 12.3531610059,
			"0.0": 21.227054427,
			"0.001": 20.0935361032,
			"0.002": 15.77624705,
			"0.003": 7.81703220472,
			"0.004": 4.92044219611,
			"0.005": 4.58725572271,
			"0.006": 5.74060839149,
			"0.007": 8.53362462671,
			"0.008": 11.8320420374,
			"0.009": 8.25393983483,
			"0.01": 7.97074815729,
			"0.011": 5.84322533021,
			"0.012": 4.13058505044,
			"0.013": 2.02015227059,
			"0.014": 0.304693832592,
			"0.015": 0.0,
			"0.016": 0.0,
			"0.017": 0.0,
			"0.018": 0.0,
			"0.019": 0.0,
			"0.02": 0.0,
			"0.021": 0.0,
			"0.022": 0.0,
			"0.023": 0.0,
			"0.024": 0.0,
			"0.025": 0.0
		}
	}
}
