{
	 "smiles": "CS(=O)(=O)C1=CC(OCC(O)=O)=CC=C1", 
	 "Tm": 384.15, 
	 "num_atms": 25, 
	 "gaussian": { 
		 "optdone": 1, 
		 "sigma_profile": "yes", 
		 "theory": "DFT", 
		 "functional": "B3LYP", 
		 "basiset": "6-31G**", 
		 "properties": { 
			 "R2extent": 5019.5009, 
			 "electric_dipole_moment_norm": 6.47376604536, 
			 "electric_quadrupole_moment_norm": 16.9543497434, 
			 "total_energy": -1123.22320359, 
			 "HOMO_LUMO_gap": 0.20397, 
			 "cosmo_polarized_energy": -23.19, 
			 "cosmo_cavitation_energy": 31.44, 
			 "cosmo_dispersion_energy": -22.94, 
			 "cosmo_repulsion_energy": 1.78, 
			 "cosmo_total_nonelectrostatic_energy": 10.28, 
			 "SMD_solvation_energy": 6.62 
		},
		"coords": [
			{
				"x": -1.7392757065,
				"y": 4.0905530446,
				"z": 0.6133352115,
				"element": "C" 
			},
			{
				"x": -2.6067662224,
				"y": 2.5469816576,
				"z": 0.2416728066,
				"element": "S" 
			},
			{
				"x": -3.2660880298,
				"y": 2.1021269535,
				"z": 1.4792398979,
				"element": "O" 
			},
			{
				"x": -3.3732744253,
				"y": 2.7568635745,
				"z": -0.9965235743,
				"element": "O" 
			},
			{
				"x": -1.2677853249,
				"y": 1.3965912908,
				"z": -0.125180011,
				"element": "C" 
			},
			{
				"x": -0.711902088,
				"y": 0.6673615738,
				"z": 0.9194336371,
				"element": "C" 
			},
			{
				"x": 0.3401903669,
				"y": -0.2154838838,
				"z": 0.6455586932,
				"element": "C" 
			},
			{
				"x": 0.8111114481,
				"y": -0.9054786661,
				"z": 1.7296722135,
				"element": "O" 
			},
			{
				"x": 1.8091993819,
				"y": -1.88045194,
				"z": 1.5564160273,
				"element": "C" 
			},
			{
				"x": 3.2011253408,
				"y": -1.2779641722,
				"z": 1.3947305003,
				"element": "C" 
			},
			{
				"x": 4.1187168355,
				"y": -2.2662751772,
				"z": 1.2872834274,
				"element": "O" 
			},
			{
				"x": 3.4668633449,
				"y": -0.1018624309,
				"z": 1.3713359453,
				"element": "O" 
			},
			{
				"x": 0.8135063384,
				"y": -0.3521853218,
				"z": -0.6644257852,
				"element": "C" 
			},
			{
				"x": 0.2243077038,
				"y": 0.3836356414,
				"z": -1.6965664609,
				"element": "C" 
			},
			{
				"x": -0.8230116592,
				"y": 1.2658364265,
				"z": -1.4434461903,
				"element": "C" 
			},
			{
				"x": -2.5122149363,
				"y": 4.8267653721,
				"z": 0.8435559103,
				"element": "H" 
			},
			{
				"x": -1.0891450315,
				"y": 3.9378245034,
				"z": 1.475743469,
				"element": "H" 
			},
			{
				"x": -1.1669312111,
				"y": 4.4000613574,
				"z": -0.2621037522,
				"element": "H" 
			},
			{
				"x": -1.0930360045,
				"y": 0.7544186276,
				"z": 1.9305691001,
				"element": "H" 
			},
			{
				"x": 1.6020634412,
				"y": -2.5529417653,
				"z": 0.7135670638,
				"element": "H" 
			},
			{
				"x": 1.8050271115,
				"y": -2.489803825,
				"z": 2.4650468514,
				"element": "H" 
			},
			{
				"x": 4.9858506725,
				"y": -1.8346408414,
				"z": 1.2040229983,
				"element": "H" 
			},
			{
				"x": 1.637508411,
				"y": -1.0162770309,
				"z": -0.8960544462,
				"element": "H" 
			},
			{
				"x": 0.5938269792,
				"y": 0.260618539,
				"z": -2.7101288608,
				"element": "H" 
			},
			{
				"x": -1.301866736,
				"y": 1.8260264925,
				"z": -2.2382546719,
				"element": "H" 
			}
		],
		 "valence_orbital": [ 
			{
				"type": "occ",
				"energy": -0.30003,
				"method": "rhf"
			},
			{
				"type": "occ",
				"energy": -0.29107,
				"method": "rhf"
			},
			{
				"type": "occ",
				"energy": -0.28508,
				"method": "rhf"
			},
			{
				"type": "occ",
				"energy": -0.27415,
				"method": "rhf"
			},
			{
				"type": "occ",
				"energy": -0.24241,
				"method": "rhf"
			},
			{
				"type": "unocc",
				"energy": -0.03844,
				"method": "rhf"
			},
			{
				"type": "unocc",
				"energy": -0.01582,
				"method": "rhf"
			},
			{
				"type": "unocc",
				"energy": -0.00927,
				"method": "rhf"
			},
			{
				"type": "unocc",
				"energy": 0.05382,
				"method": "rhf"
			},
			{
				"type": "unocc",
				"energy": 0.06685,
				"method": "rhf"
			}
		],
		"cosmo_sigma_profile": { 
			"-0.025": 0.0,
			"-0.024": 0.0,
			"-0.023": 0.0,
			"-0.022": 0.0,
			"-0.021": 0.0,
			"-0.02": 0.0,
			"-0.019": 0.490239408813,
			"-0.018": 0.909239351445,
			"-0.017": 0.700942966428,
			"-0.016": 1.21659033444,
			"-0.015": 0.80051297539,
			"-0.014": 0.194534284803,
			"-0.013": 0.537815609034,
			"-0.012": 1.21025597178,
			"-0.011": 1.45278151026,
			"-0.01": 2.21945870538,
			"-0.009": 6.6519973832,
			"-0.008": 12.2248400086,
			"-0.007": 16.2864019983,
			"-0.006": 18.070861739,
			"-0.005": 17.266338006,
			"-0.004": 14.0060423805,
			"-0.003": 12.1065017033,
			"-0.002": 9.2989350242,
			"-0.001": 8.51452667079,
			"0.0": 11.3977393774,
			"0.001": 11.4411453171,
			"0.002": 16.2787819407,
			"0.003": 14.1144759553,
			"0.004": 6.66219430833,
			"0.005": 5.51858793221,
			"0.006": 7.31022251661,
			"0.007": 5.75117326243,
			"0.008": 8.5439162206,
			"0.009": 7.22011992257,
			"0.01": 7.31616452897,
			"0.011": 14.7008972433,
			"0.012": 9.09556891851,
			"0.013": 0.919939731185,
			"0.014": 0.0,
			"0.015": 0.0,
			"0.016": 0.0,
			"0.017": 0.0,
			"0.018": 0.0,
			"0.019": 0.0,
			"0.02": 0.0,
			"0.021": 0.0,
			"0.022": 0.0,
			"0.023": 0.0,
			"0.024": 0.0,
			"0.025": 0.0
		}
	}
}
