{
	 "smiles": "CCCC1=CC=C(C=C1)C(=O)CCC(O)=O", 
	 "Tm": 391.15, 
	 "num_atms": 32, 
	 "gaussian": { 
		 "optdone": 1, 
		 "sigma_profile": "yes", 
		 "theory": "DFT", 
		 "functional": "B3LYP", 
		 "basiset": "6-31G**", 
		 "properties": { 
			 "R2extent": 6440.2927, 
			 "electric_dipole_moment_norm": 2.81858361593, 
			 "electric_quadrupole_moment_norm": 12.4912802114, 
			 "total_energy": -730.735987023, 
			 "HOMO_LUMO_gap": 0.19551, 
			 "cosmo_polarized_energy": -14.43, 
			 "cosmo_cavitation_energy": 35.75, 
			 "cosmo_dispersion_energy": -25.03, 
			 "cosmo_repulsion_energy": 1.99, 
			 "cosmo_total_nonelectrostatic_energy": 12.71, 
			 "SMD_solvation_energy": 7.21 
		},
		"coords": [
			{
				"x": 2.9118716567,
				"y": 1.8096878695,
				"z": -3.8790664863,
				"element": "C" 
			},
			{
				"x": 1.797076695,
				"y": 0.8605781622,
				"z": -4.3276069553,
				"element": "C" 
			},
			{
				"x": 1.6892509881,
				"y": -0.4275881347,
				"z": -3.4797438349,
				"element": "C" 
			},
			{
				"x": 1.2816448498,
				"y": -0.183786625,
				"z": -2.042841656,
				"element": "C" 
			},
			{
				"x": -0.0528437864,
				"y": 0.1195050002,
				"z": -1.7222659658,
				"element": "C" 
			},
			{
				"x": -0.4373842928,
				"y": 0.3636587283,
				"z": -0.4105681254,
				"element": "C" 
			},
			{
				"x": 0.5028642284,
				"y": 0.3117406584,
				"z": 0.6320541481,
				"element": "C" 
			},
			{
				"x": 1.8353762069,
				"y": 0.0064864331,
				"z": 0.3201854686,
				"element": "C" 
			},
			{
				"x": 2.2149274221,
				"y": -0.2372185922,
				"z": -0.9990803097,
				"element": "C" 
			},
			{
				"x": 0.0316976551,
				"y": 0.5832631129,
				"z": 2.0242802037,
				"element": "C" 
			},
			{
				"x": -1.1413955029,
				"y": 0.8468828918,
				"z": 2.2504172807,
				"element": "O" 
			},
			{
				"x": 1.0443617365,
				"y": 0.5417733184,
				"z": 3.1676967292,
				"element": "C" 
			},
			{
				"x": 0.3882026839,
				"y": 0.801007521,
				"z": 4.5199311002,
				"element": "C" 
			},
			{
				"x": -0.4690230089,
				"y": -0.3663650346,
				"z": 4.9627450459,
				"element": "C" 
			},
			{
				"x": -1.336584747,
				"y": -0.0097958055,
				"z": 5.9372707862,
				"element": "O" 
			},
			{
				"x": -0.3837289717,
				"y": -1.5013383403,
				"z": 4.5461516465,
				"element": "O" 
			},
			{
				"x": 2.9501549567,
				"y": 2.6990846708,
				"z": -4.516174528,
				"element": "H" 
			},
			{
				"x": 2.762503507,
				"y": 2.1437779319,
				"z": -2.8474873668,
				"element": "H" 
			},
			{
				"x": 3.8919213288,
				"y": 1.321099243,
				"z": -3.9318215292,
				"element": "H" 
			},
			{
				"x": 0.8337735744,
				"y": 1.3857193877,
				"z": -4.3031474991,
				"element": "H" 
			},
			{
				"x": 1.9621655104,
				"y": 0.5693284245,
				"z": -5.3724566097,
				"element": "H" 
			},
			{
				"x": 0.9562365193,
				"y": -1.0943766376,
				"z": -3.9506216157,
				"element": "H" 
			},
			{
				"x": 2.6514739235,
				"y": -0.95366734,
				"z": -3.5035239733,
				"element": "H" 
			},
			{
				"x": -0.7961511108,
				"y": 0.1562079826,
				"z": -2.515229854,
				"element": "H" 
			},
			{
				"x": -1.4675857794,
				"y": 0.5931949672,
				"z": -0.1594762802,
				"element": "H" 
			},
			{
				"x": 2.5851758221,
				"y": -0.0493714774,
				"z": 1.1027635476,
				"element": "H" 
			},
			{
				"x": 3.2509111136,
				"y": -0.4784774672,
				"z": -1.2223883859,
				"element": "H" 
			},
			{
				"x": 1.8270282482,
				"y": 1.2856979202,
				"z": 2.9737962909,
				"element": "H" 
			},
			{
				"x": 1.5321456571,
				"y": -0.4390995341,
				"z": 3.1729369821,
				"element": "H" 
			},
			{
				"x": -0.2320545034,
				"y": 1.6996144597,
				"z": 4.4974814304,
				"element": "H" 
			},
			{
				"x": 1.1530968387,
				"y": 0.9528108611,
				"z": 5.2917381651,
				"element": "H" 
			},
			{
				"x": -1.825309419,
				"y": -0.8170345561,
				"z": 6.1702521501,
				"element": "H" 
			}
		],
		 "valence_orbital": [ 
			{
				"type": "occ",
				"energy": -0.3117,
				"method": "rhf"
			},
			{
				"type": "occ",
				"energy": -0.27072,
				"method": "rhf"
			},
			{
				"type": "occ",
				"energy": -0.25778,
				"method": "rhf"
			},
			{
				"type": "occ",
				"energy": -0.24938,
				"method": "rhf"
			},
			{
				"type": "occ",
				"energy": -0.24866,
				"method": "rhf"
			},
			{
				"type": "unocc",
				"energy": -0.05315,
				"method": "rhf"
			},
			{
				"type": "unocc",
				"energy": -0.00819,
				"method": "rhf"
			},
			{
				"type": "unocc",
				"energy": 0.01801,
				"method": "rhf"
			},
			{
				"type": "unocc",
				"energy": 0.03994,
				"method": "rhf"
			},
			{
				"type": "unocc",
				"energy": 0.08451,
				"method": "rhf"
			}
		],
		"cosmo_sigma_profile": { 
			"-0.025": 0.0,
			"-0.024": 0.0,
			"-0.023": 0.0,
			"-0.022": 0.0,
			"-0.021": 0.0,
			"-0.02": 0.0,
			"-0.019": 0.00599088650125,
			"-0.018": 0.654428609182,
			"-0.017": 0.886312688689,
			"-0.016": 0.970697516594,
			"-0.015": 0.705088912299,
			"-0.014": 1.06345314377,
			"-0.013": 0.482820593627,
			"-0.012": 0.492517988348,
			"-0.011": 0.627292949523,
			"-0.01": 0.772785112373,
			"-0.009": 0.397567261635,
			"-0.008": 0.576721339991,
			"-0.007": 4.07035635386,
			"-0.006": 14.0895843764,
			"-0.005": 17.0423787125,
			"-0.004": 21.5348981196,
			"-0.003": 24.6522303981,
			"-0.002": 27.5114062468,
			"-0.001": 25.2518366036,
			"0.0": 25.5149184801,
			"0.001": 23.7393783155,
			"0.002": 16.0322282744,
			"0.003": 12.5796071276,
			"0.004": 15.9079104858,
			"0.005": 8.06960539303,
			"0.006": 4.85453279957,
			"0.007": 5.00408746151,
			"0.008": 4.85469813611,
			"0.009": 5.05511602716,
			"0.01": 4.74441495299,
			"0.011": 5.43274658448,
			"0.012": 7.03439346722,
			"0.013": 0.240769261127,
			"0.014": 0.0,
			"0.015": 0.0,
			"0.016": 0.0,
			"0.017": 0.0,
			"0.018": 0.0,
			"0.019": 0.0,
			"0.02": 0.0,
			"0.021": 0.0,
			"0.022": 0.0,
			"0.023": 0.0,
			"0.024": 0.0,
			"0.025": 0.0
		}
	}
}
