{
	 "smiles": "NC1(CC1)C(O)=O", 
	 "Tm": 530.15, 
	 "num_atms": 14, 
	 "gaussian": { 
		 "optdone": 1, 
		 "sigma_profile": "yes", 
		 "theory": "DFT", 
		 "functional": "B3LYP", 
		 "basiset": "6-31G**", 
		 "properties": { 
			 "R2extent": 1006.9077, 
			 "electric_dipole_moment_norm": 5.63825663659, 
			 "electric_quadrupole_moment_norm": 9.29090641434, 
			 "total_energy": -361.825780023, 
			 "HOMO_LUMO_gap": 0.26876, 
			 "cosmo_polarized_energy": -14.2, 
			 "cosmo_cavitation_energy": 17.38, 
			 "cosmo_dispersion_energy": -13.04, 
			 "cosmo_repulsion_energy": 1.11, 
			 "cosmo_total_nonelectrostatic_energy": 5.45, 
			 "SMD_solvation_energy": 3.84 
		},
		"coords": [
			{
				"x": -1.9770621498,
				"y": 1.0590878405,
				"z": -0.1978043157,
				"element": "N" 
			},
			{
				"x": -0.8413646687,
				"y": 0.8039419689,
				"z": 0.6702312427,
				"element": "C" 
			},
			{
				"x": -1.0223474101,
				"y": 0.4918892176,
				"z": 2.1449299409,
				"element": "C" 
			},
			{
				"x": -0.553743216,
				"y": -0.5834339941,
				"z": 1.2155600775,
				"element": "C" 
			},
			{
				"x": 0.3771385423,
				"y": 1.6367640412,
				"z": 0.3208482368,
				"element": "C" 
			},
			{
				"x": 0.1803924485,
				"y": 2.4540759035,
				"z": -0.7244980066,
				"element": "O" 
			},
			{
				"x": 1.4249082219,
				"y": 1.5705722815,
				"z": 0.9259353665,
				"element": "O" 
			},
			{
				"x": -2.2631469654,
				"y": 0.2365176139,
				"z": -0.7182750939,
				"element": "H" 
			},
			{
				"x": -2.7794568252,
				"y": 1.4223604396,
				"z": 0.3057412616,
				"element": "H" 
			},
			{
				"x": -2.0438163247,
				"y": 0.445223574,
				"z": 2.5120495521,
				"element": "H" 
			},
			{
				"x": -0.2968492376,
				"y": 0.9314289307,
				"z": 2.8207348597,
				"element": "H" 
			},
			{
				"x": -1.2531570216,
				"y": -1.3691611443,
				"z": 0.9438854611,
				"element": "H" 
			},
			{
				"x": 0.4900957841,
				"y": -0.8744373001,
				"z": 1.2600060377,
				"element": "H" 
			},
			{
				"x": -0.7508911778,
				"y": 2.2854706272,
				"z": -0.9990446205,
				"element": "H" 
			}
		],
		 "valence_orbital": [ 
			{
				"type": "occ",
				"energy": -0.33218,
				"method": "rhf"
			},
			{
				"type": "occ",
				"energy": -0.30997,
				"method": "rhf"
			},
			{
				"type": "occ",
				"energy": -0.295,
				"method": "rhf"
			},
			{
				"type": "occ",
				"energy": -0.2902,
				"method": "rhf"
			},
			{
				"type": "occ",
				"energy": -0.24835,
				"method": "rhf"
			},
			{
				"type": "unocc",
				"energy": 0.02041,
				"method": "rhf"
			},
			{
				"type": "unocc",
				"energy": 0.06093,
				"method": "rhf"
			},
			{
				"type": "unocc",
				"energy": 0.09627,
				"method": "rhf"
			},
			{
				"type": "unocc",
				"energy": 0.09652,
				"method": "rhf"
			},
			{
				"type": "unocc",
				"energy": 0.12048,
				"method": "rhf"
			}
		],
		"cosmo_sigma_profile": { 
			"-0.025": 0.0,
			"-0.024": 0.0,
			"-0.023": 0.0,
			"-0.022": 0.0,
			"-0.021": 0.0,
			"-0.02": 0.0,
			"-0.019": 0.0,
			"-0.018": 0.0,
			"-0.017": 0.0,
			"-0.016": 0.0,
			"-0.015": 0.0,
			"-0.014": 0.0,
			"-0.013": 0.000447406106926,
			"-0.012": 1.6475490256,
			"-0.011": 2.74850392684,
			"-0.01": 3.09154377789,
			"-0.009": 3.31688476914,
			"-0.008": 4.40177609729,
			"-0.007": 5.68862944246,
			"-0.006": 6.98835958202,
			"-0.005": 8.72475648056,
			"-0.004": 8.78600129875,
			"-0.003": 9.42800410588,
			"-0.002": 9.68909016226,
			"-0.001": 10.6897428489,
			"0.0": 9.35435826826,
			"0.001": 6.20400677667,
			"0.002": 4.78649337951,
			"0.003": 4.71074210101,
			"0.004": 3.83010971595,
			"0.005": 2.6029221167,
			"0.006": 2.73242992534,
			"0.007": 2.23723406948,
			"0.008": 2.57382942305,
			"0.009": 2.82699961417,
			"0.01": 3.38470568324,
			"0.011": 5.56066421956,
			"0.012": 4.04800532868,
			"0.013": 4.63496726674,
			"0.014": 1.65315463875,
			"0.015": 0.0806249591962,
			"0.016": 0.0,
			"0.017": 0.0,
			"0.018": 0.0,
			"0.019": 0.0,
			"0.02": 0.0,
			"0.021": 0.0,
			"0.022": 0.0,
			"0.023": 0.0,
			"0.024": 0.0,
			"0.025": 0.0
		}
	}
}
