{
	 "smiles": "CN1C=NN=C1C1CCNCC1", 
	 "Tm": 455.15, 
	 "num_atms": 26, 
	 "gaussian": { 
		 "optdone": 1, 
		 "sigma_profile": "yes", 
		 "theory": "DFT", 
		 "functional": "B3LYP", 
		 "basiset": "6-31G**", 
		 "properties": { 
			 "R2extent": 2397.9687, 
			 "electric_dipole_moment_norm": 5.12659239456, 
			 "electric_quadrupole_moment_norm": 19.0331559146, 
			 "total_energy": -532.272327839, 
			 "HOMO_LUMO_gap": 0.23961, 
			 "cosmo_polarized_energy": -20.18, 
			 "cosmo_cavitation_energy": 28.41, 
			 "cosmo_dispersion_energy": -19.99, 
			 "cosmo_repulsion_energy": 1.58, 
			 "cosmo_total_nonelectrostatic_energy": 10.01, 
			 "SMD_solvation_energy": 0.1 
		},
		"coords": [
			{
				"x": -1.8588378524,
				"y": 2.3103833981,
				"z": -0.0162174929,
				"element": "C" 
			},
			{
				"x": -1.724913747,
				"y": 1.0961976444,
				"z": 0.7720694322,
				"element": "N" 
			},
			{
				"x": -2.274070264,
				"y": 0.8428433424,
				"z": 2.002597722,
				"element": "C" 
			},
			{
				"x": -1.9640905986,
				"y": -0.3582709237,
				"z": 2.4184332682,
				"element": "N" 
			},
			{
				"x": -1.181195459,
				"y": -0.9337514828,
				"z": 1.4357094314,
				"element": "N" 
			},
			{
				"x": -1.0456160629,
				"y": -0.061147121,
				"z": 0.4599189832,
				"element": "C" 
			},
			{
				"x": -0.2326001826,
				"y": -0.262153656,
				"z": -0.7866455481,
				"element": "C" 
			},
			{
				"x": -0.2149269628,
				"y": -1.7429345328,
				"z": -1.217154347,
				"element": "C" 
			},
			{
				"x": 0.6853487064,
				"y": -1.9451836846,
				"z": -2.4474840223,
				"element": "C" 
			},
			{
				"x": 2.0508751325,
				"y": -1.4340269855,
				"z": -2.2912414608,
				"element": "N" 
			},
			{
				"x": 2.0626195075,
				"y": -0.0345304973,
				"z": -1.8631928016,
				"element": "C" 
			},
			{
				"x": 1.21933988,
				"y": 0.2496362669,
				"z": -0.6069766942,
				"element": "C" 
			},
			{
				"x": -2.311650943,
				"y": 2.0964048023,
				"z": -0.9887037886,
				"element": "H" 
			},
			{
				"x": -0.8869258422,
				"y": 2.7864884821,
				"z": -0.174611979,
				"element": "H" 
			},
			{
				"x": -2.5044605295,
				"y": 3.008080821,
				"z": 0.5197240811,
				"element": "H" 
			},
			{
				"x": -2.8833301362,
				"y": 1.5617699383,
				"z": 2.5330313719,
				"element": "H" 
			},
			{
				"x": -0.6933741196,
				"y": 0.3217560592,
				"z": -1.5987095978,
				"element": "H" 
			},
			{
				"x": 0.145983414,
				"y": -2.348047425,
				"z": -0.3778029307,
				"element": "H" 
			},
			{
				"x": -1.2354224165,
				"y": -2.083362472,
				"z": -1.4285333425,
				"element": "H" 
			},
			{
				"x": 0.2402470419,
				"y": -1.4354472793,
				"z": -3.3146808658,
				"element": "H" 
			},
			{
				"x": 0.7401032119,
				"y": -3.0083508822,
				"z": -2.7055660728,
				"element": "H" 
			},
			{
				"x": 2.5378680692,
				"y": -1.9974396463,
				"z": -1.5963621885,
				"element": "H" 
			},
			{
				"x": 1.6835952429,
				"y": 0.5718367803,
				"z": -2.6990116942,
				"element": "H" 
			},
			{
				"x": 3.1013364251,
				"y": 0.2733043666,
				"z": -1.6993514035,
				"element": "H" 
			},
			{
				"x": 1.6602901774,
				"y": -0.2589389332,
				"z": 0.2600353665,
				"element": "H" 
			},
			{
				"x": 1.2269083076,
				"y": 1.3242836202,
				"z": -0.3809734261,
				"element": "H" 
			}
		],
		 "valence_orbital": [ 
			{
				"type": "occ",
				"energy": -0.29702,
				"method": "rhf"
			},
			{
				"type": "occ",
				"energy": -0.28253,
				"method": "rhf"
			},
			{
				"type": "occ",
				"energy": -0.24631,
				"method": "rhf"
			},
			{
				"type": "occ",
				"energy": -0.24212,
				"method": "rhf"
			},
			{
				"type": "occ",
				"energy": -0.21799,
				"method": "rhf"
			},
			{
				"type": "unocc",
				"energy": 0.02162,
				"method": "rhf"
			},
			{
				"type": "unocc",
				"energy": 0.05019,
				"method": "rhf"
			},
			{
				"type": "unocc",
				"energy": 0.06101,
				"method": "rhf"
			},
			{
				"type": "unocc",
				"energy": 0.08454,
				"method": "rhf"
			},
			{
				"type": "unocc",
				"energy": 0.10344,
				"method": "rhf"
			}
		],
		"cosmo_sigma_profile": { 
			"-0.025": 0.0,
			"-0.024": 0.0,
			"-0.023": 0.0,
			"-0.022": 0.0,
			"-0.021": 0.0,
			"-0.02": 0.0,
			"-0.019": 0.0,
			"-0.018": 0.0,
			"-0.017": 0.0,
			"-0.016": 0.0,
			"-0.015": 0.0,
			"-0.014": 0.0,
			"-0.013": 0.0,
			"-0.012": 0.0,
			"-0.011": 0.0,
			"-0.01": 1.93305982777,
			"-0.009": 4.52541786157,
			"-0.008": 4.45314942327,
			"-0.007": 6.67974556268,
			"-0.006": 10.3345800929,
			"-0.005": 11.5521983694,
			"-0.004": 21.4190660935,
			"-0.003": 31.9016454104,
			"-0.002": 25.1546854667,
			"-0.001": 25.1180017564,
			"0.0": 15.2364806782,
			"0.001": 7.72193009767,
			"0.002": 5.21805276541,
			"0.003": 3.4149710923,
			"0.004": 3.45716852578,
			"0.005": 4.04961190322,
			"0.006": 2.72149544,
			"0.007": 2.31705035555,
			"0.008": 4.09662492443,
			"0.009": 2.29037266071,
			"0.01": 2.7301863444,
			"0.011": 3.03531701142,
			"0.012": 2.74515353892,
			"0.013": 3.3907052075,
			"0.014": 4.031172265,
			"0.015": 3.86236066674,
			"0.016": 3.47549759783,
			"0.017": 2.81609059011,
			"0.018": 0.988437073714,
			"0.019": 0.315044907438,
			"0.02": 0.0,
			"0.021": 0.0,
			"0.022": 0.0,
			"0.023": 0.0,
			"0.024": 0.0,
			"0.025": 0.0
		}
	}
}
