{
	 "smiles": "COC(=O)C1=CN=C(S)N1C", 
	 "Tm": 480.15, 
	 "num_atms": 19, 
	 "gaussian": { 
		 "optdone": 1, 
		 "sigma_profile": "yes", 
		 "theory": "DFT", 
		 "functional": "B3LYP", 
		 "basiset": "6-31G**", 
		 "properties": { 
			 "R2extent": 2434.5801, 
			 "electric_dipole_moment_norm": 3.82976199913, 
			 "electric_quadrupole_moment_norm": 8.67663658856, 
			 "total_energy": -891.594994637, 
			 "HOMO_LUMO_gap": 0.18867, 
			 "cosmo_polarized_energy": -11.69, 
			 "cosmo_cavitation_energy": 25.03, 
			 "cosmo_dispersion_energy": -18.78, 
			 "cosmo_repulsion_energy": 1.46, 
			 "cosmo_total_nonelectrostatic_energy": 7.7, 
			 "SMD_solvation_energy": 4.08 
		},
		"coords": [
			{
				"x": 0.3706863035,
				"y": -0.2094322674,
				"z": 3.7952981092,
				"element": "C" 
			},
			{
				"x": 0.211894343,
				"y": 0.2589272285,
				"z": 2.4461271603,
				"element": "O" 
			},
			{
				"x": 0.4201686729,
				"y": -0.6830817575,
				"z": 1.4867278253,
				"element": "C" 
			},
			{
				"x": 0.7180270553,
				"y": -1.8348733552,
				"z": 1.7394303315,
				"element": "O" 
			},
			{
				"x": 0.2505904663,
				"y": -0.1723503394,
				"z": 0.1294107995,
				"element": "C" 
			},
			{
				"x": 0.3964981978,
				"y": -0.8918071084,
				"z": -1.0400083947,
				"element": "C" 
			},
			{
				"x": 0.1673418339,
				"y": -0.1122463634,
				"z": -2.1337640535,
				"element": "N" 
			},
			{
				"x": -0.11887653,
				"y": 1.0831636348,
				"z": -1.6394583635,
				"element": "C" 
			},
			{
				"x": -0.5057889423,
				"y": 2.5013071623,
				"z": -2.629888729,
				"element": "S" 
			},
			{
				"x": -0.088491364,
				"y": 1.1251916921,
				"z": -0.2776895985,
				"element": "N" 
			},
			{
				"x": -0.3565893525,
				"y": 2.2897627627,
				"z": 0.5594513199,
				"element": "C" 
			},
			{
				"x": -0.3358118869,
				"y": -1.0151523626,
				"z": 4.0092703733,
				"element": "H" 
			},
			{
				"x": 1.385400334,
				"y": -0.5812000005,
				"z": 3.9573386454,
				"element": "H" 
			},
			{
				"x": 0.1723661486,
				"y": 0.6533154226,
				"z": 4.431341399,
				"element": "H" 
			},
			{
				"x": 0.6573802529,
				"y": -1.9374478714,
				"z": -1.1217667382,
				"element": "H" 
			},
			{
				"x": -0.3669492386,
				"y": 1.8094981903,
				"z": -3.7751091434,
				"element": "H" 
			},
			{
				"x": 0.5159971926,
				"y": 2.5289291928,
				"z": 1.1692587542,
				"element": "H" 
			},
			{
				"x": -0.5900081385,
				"y": 3.1392952565,
				"z": -0.0831230659,
				"element": "H" 
			},
			{
				"x": -1.202235348,
				"y": 2.0961008831,
				"z": 1.2211533691,
				"element": "H" 
			}
		],
		 "valence_orbital": [ 
			{
				"type": "occ",
				"energy": -0.30042,
				"method": "rhf"
			},
			{
				"type": "occ",
				"energy": -0.28427,
				"method": "rhf"
			},
			{
				"type": "occ",
				"energy": -0.28352,
				"method": "rhf"
			},
			{
				"type": "occ",
				"energy": -0.27612,
				"method": "rhf"
			},
			{
				"type": "occ",
				"energy": -0.2211,
				"method": "rhf"
			},
			{
				"type": "unocc",
				"energy": -0.03243,
				"method": "rhf"
			},
			{
				"type": "unocc",
				"energy": 0.00279,
				"method": "rhf"
			},
			{
				"type": "unocc",
				"energy": 0.04002,
				"method": "rhf"
			},
			{
				"type": "unocc",
				"energy": 0.05901,
				"method": "rhf"
			},
			{
				"type": "unocc",
				"energy": 0.10009,
				"method": "rhf"
			}
		],
		"cosmo_sigma_profile": { 
			"-0.025": 0.0,
			"-0.024": 0.0,
			"-0.023": 0.0,
			"-0.022": 0.0,
			"-0.021": 0.0,
			"-0.02": 0.0,
			"-0.019": 0.0,
			"-0.018": 0.0,
			"-0.017": 0.0,
			"-0.016": 0.0,
			"-0.015": 0.0,
			"-0.014": 0.0,
			"-0.013": 0.0402584402207,
			"-0.012": 1.1791393754,
			"-0.011": 1.1364936159,
			"-0.01": 1.29279762759,
			"-0.009": 1.34202905098,
			"-0.008": 2.02501688271,
			"-0.007": 4.5317525654,
			"-0.006": 11.472702127,
			"-0.005": 17.015887243,
			"-0.004": 20.9540237782,
			"-0.003": 19.9475827092,
			"-0.002": 13.7806560627,
			"-0.001": 12.0958888251,
			"0.0": 11.9574817009,
			"0.001": 12.3475098781,
			"0.002": 15.789201969,
			"0.003": 11.6935025536,
			"0.004": 6.54792976466,
			"0.005": 5.6908297436,
			"0.006": 5.33855774351,
			"0.007": 4.03802266677,
			"0.008": 2.57415701123,
			"0.009": 2.42460903543,
			"0.01": 3.12274604777,
			"0.011": 3.92372634126,
			"0.012": 5.55481659305,
			"0.013": 1.8427846094,
			"0.014": 1.0040952877,
			"0.015": 0.885025102489,
			"0.016": 0.506247053622,
			"0.017": 0.0101387354423,
			"0.018": 0.0,
			"0.019": 0.0,
			"0.02": 0.0,
			"0.021": 0.0,
			"0.022": 0.0,
			"0.023": 0.0,
			"0.024": 0.0,
			"0.025": 0.0
		}
	}
}
