{
	 "smiles": "COC1=C(OCCCC(O)=O)C=CC(=C1)C(C)=O", 
	 "Tm": 437.15, 
	 "num_atms": 34, 
	 "gaussian": { 
		 "optdone": 1, 
		 "sigma_profile": "yes", 
		 "theory": "DFT", 
		 "functional": "B3LYP", 
		 "basiset": "6-31G**", 
		 "properties": { 
			 "R2extent": 6953.0202, 
			 "electric_dipole_moment_norm": 5.3813768963, 
			 "electric_quadrupole_moment_norm": 23.4657074848, 
			 "total_energy": -881.134565318, 
			 "HOMO_LUMO_gap": 0.18812, 
			 "cosmo_polarized_energy": -21.44, 
			 "cosmo_cavitation_energy": 38.46, 
			 "cosmo_dispersion_energy": -26.32, 
			 "cosmo_repulsion_energy": 2.07, 
			 "cosmo_total_nonelectrostatic_energy": 14.2, 
			 "SMD_solvation_energy": 9.06 
		},
		"coords": [
			{
				"x": 3.7195754842,
				"y": -1.0694392606,
				"z": 0.5438354428,
				"element": "C" 
			},
			{
				"x": 2.9958070499,
				"y": -0.0851247634,
				"z": 1.2910082645,
				"element": "O" 
			},
			{
				"x": 1.70315494,
				"y": -0.4421651108,
				"z": 1.6053949772,
				"element": "C" 
			},
			{
				"x": 0.6904746688,
				"y": -0.4373220948,
				"z": 0.6214993632,
				"element": "C" 
			},
			{
				"x": 0.9673105881,
				"y": -0.1371927839,
				"z": -0.6887212197,
				"element": "O" 
			},
			{
				"x": 1.3238081578,
				"y": 1.2410074548,
				"z": -0.9549279014,
				"element": "C" 
			},
			{
				"x": 1.596538254,
				"y": 1.3680653447,
				"z": -2.4472016317,
				"element": "C" 
			},
			{
				"x": 0.4007094891,
				"y": 0.9883053262,
				"z": -3.3259024652,
				"element": "C" 
			},
			{
				"x": -0.7397283688,
				"y": 1.9971959876,
				"z": -3.2617940538,
				"element": "C" 
			},
			{
				"x": -1.866629051,
				"y": 1.6425796584,
				"z": -3.936895313,
				"element": "O" 
			},
			{
				"x": -0.6947599342,
				"y": 3.0535595518,
				"z": -2.6811146631,
				"element": "O" 
			},
			{
				"x": -0.6131865801,
				"y": -0.7906864084,
				"z": 0.9752356462,
				"element": "C" 
			},
			{
				"x": -0.9222621137,
				"y": -1.1322469631,
				"z": 2.2904139877,
				"element": "C" 
			},
			{
				"x": 0.073096947,
				"y": -1.1167020906,
				"z": 3.2780168083,
				"element": "C" 
			},
			{
				"x": 1.3855762983,
				"y": -0.7732755169,
				"z": 2.9163083177,
				"element": "C" 
			},
			{
				"x": -0.1926922042,
				"y": -1.4635241644,
				"z": 4.7105639393,
				"element": "C" 
			},
			{
				"x": -1.6077602493,
				"y": -1.8340268488,
				"z": 5.1244709055,
				"element": "C" 
			},
			{
				"x": 0.7105049998,
				"y": -1.4497180227,
				"z": 5.533948885,
				"element": "O" 
			},
			{
				"x": 3.8174173012,
				"y": -1.999020315,
				"z": 1.1182473406,
				"element": "H" 
			},
			{
				"x": 4.7118001044,
				"y": -0.6503769237,
				"z": 0.3652035738,
				"element": "H" 
			},
			{
				"x": 3.2309101281,
				"y": -1.2821494976,
				"z": -0.4128797035,
				"element": "H" 
			},
			{
				"x": 0.4933346059,
				"y": 1.8902294331,
				"z": -0.6567811035,
				"element": "H" 
			},
			{
				"x": 2.2117342603,
				"y": 1.5095834477,
				"z": -0.3747538906,
				"element": "H" 
			},
			{
				"x": 1.8829330989,
				"y": 2.4048347587,
				"z": -2.6500376833,
				"element": "H" 
			},
			{
				"x": 2.4476779164,
				"y": 0.7305902466,
				"z": -2.7104290737,
				"element": "H" 
			},
			{
				"x": 0.0225867201,
				"y": 0.0010184343,
				"z": -3.0333069581,
				"element": "H" 
			},
			{
				"x": 0.7114026439,
				"y": 0.9063600905,
				"z": -4.3763863913,
				"element": "H" 
			},
			{
				"x": -1.7511324912,
				"y": 0.7720933077,
				"z": -4.344012718,
				"element": "H" 
			},
			{
				"x": -1.3746408867,
				"y": -0.7854411739,
				"z": 0.2018493815,
				"element": "H" 
			},
			{
				"x": -1.9438323739,
				"y": -1.3980583943,
				"z": 2.5402970444,
				"element": "H" 
			},
			{
				"x": 2.1602584607,
				"y": -0.7684816931,
				"z": 3.6752868971,
				"element": "H" 
			},
			{
				"x": -1.9610441166,
				"y": -2.7142265813,
				"z": 4.5759931092,
				"element": "H" 
			},
			{
				"x": -2.3061379401,
				"y": -1.016381969,
				"z": 4.9146761034,
				"element": "H" 
			},
			{
				"x": -1.6125058075,
				"y": -2.0486624655,
				"z": 6.1933947826,
				"element": "H" 
			}
		],
		 "valence_orbital": [ 
			{
				"type": "occ",
				"energy": -0.27713,
				"method": "rhf"
			},
			{
				"type": "occ",
				"energy": -0.2707,
				"method": "rhf"
			},
			{
				"type": "occ",
				"energy": -0.25363,
				"method": "rhf"
			},
			{
				"type": "occ",
				"energy": -0.24614,
				"method": "rhf"
			},
			{
				"type": "occ",
				"energy": -0.24074,
				"method": "rhf"
			},
			{
				"type": "unocc",
				"energy": -0.05262,
				"method": "rhf"
			},
			{
				"type": "unocc",
				"energy": -0.00901,
				"method": "rhf"
			},
			{
				"type": "unocc",
				"energy": 0.00521,
				"method": "rhf"
			},
			{
				"type": "unocc",
				"energy": 0.04119,
				"method": "rhf"
			},
			{
				"type": "unocc",
				"energy": 0.05013,
				"method": "rhf"
			}
		],
		"cosmo_sigma_profile": { 
			"-0.025": 0.0,
			"-0.024": 0.0,
			"-0.023": 0.0,
			"-0.022": 0.0,
			"-0.021": 0.0,
			"-0.02": 0.00755648696212,
			"-0.019": 0.624220773088,
			"-0.018": 0.961228224406,
			"-0.017": 0.76310822723,
			"-0.016": 1.40434823002,
			"-0.015": 1.17869736788,
			"-0.014": 0.819187676169,
			"-0.013": 0.838587670883,
			"-0.012": 1.22397020274,
			"-0.011": 1.51679175814,
			"-0.01": 1.20926587677,
			"-0.009": 1.33312198596,
			"-0.008": 1.3700050719,
			"-0.007": 5.63523357599,
			"-0.006": 15.7002391408,
			"-0.005": 17.462535743,
			"-0.004": 26.0955125007,
			"-0.003": 32.9542901034,
			"-0.002": 31.2992789112,
			"-0.001": 25.4191457842,
			"0.0": 17.1996934934,
			"0.001": 14.7516965583,
			"0.002": 17.2818072519,
			"0.003": 17.8371112606,
			"0.004": 9.3861160048,
			"0.005": 6.07146550643,
			"0.006": 5.84916478689,
			"0.007": 5.69156187838,
			"0.008": 5.85346040944,
			"0.009": 6.09041521788,
			"0.01": 7.63598397884,
			"0.011": 9.05343021292,
			"0.012": 9.15916312785,
			"0.013": 3.56353743217,
			"0.014": 0.278965383637,
			"0.015": 0.0,
			"0.016": 0.0,
			"0.017": 0.0,
			"0.018": 0.0,
			"0.019": 0.0,
			"0.02": 0.0,
			"0.021": 0.0,
			"0.022": 0.0,
			"0.023": 0.0,
			"0.024": 0.0,
			"0.025": 0.0
		}
	}
}
