{
	 "smiles": "CCCCC(N)C(O)=O", 
	 "Tm": 573.15, 
	 "num_atms": 22, 
	 "gaussian": { 
		 "optdone": 1, 
		 "sigma_profile": "yes", 
		 "theory": "DFT", 
		 "functional": "B3LYP", 
		 "basiset": "6-31G**", 
		 "properties": { 
			 "R2extent": 2143.2239, 
			 "electric_dipole_moment_norm": 1.25383502105, 
			 "electric_quadrupole_moment_norm": 5.69693925104, 
			 "total_energy": -441.697372909, 
			 "HOMO_LUMO_gap": 0.25205, 
			 "cosmo_polarized_energy": -10.2, 
			 "cosmo_cavitation_energy": 24.73, 
			 "cosmo_dispersion_energy": -17.65, 
			 "cosmo_repulsion_energy": 1.51, 
			 "cosmo_total_nonelectrostatic_energy": 8.59, 
			 "SMD_solvation_energy": 4.41 
		},
		"coords": [
			{
				"x": -0.4297654455,
				"y": -0.0901927107,
				"z": -2.5405030463,
				"element": "C" 
			},
			{
				"x": -1.4603090587,
				"y": 0.7173420679,
				"z": -1.7415946677,
				"element": "C" 
			},
			{
				"x": -1.786396635,
				"y": 0.1402955605,
				"z": -0.3541782549,
				"element": "C" 
			},
			{
				"x": -0.6192487114,
				"y": 0.1980175252,
				"z": 0.6392981031,
				"element": "C" 
			},
			{
				"x": -0.977512219,
				"y": -0.4043099674,
				"z": 2.0180063792,
				"element": "C" 
			},
			{
				"x": -1.2857701097,
				"y": -1.824560237,
				"z": 1.8981972795,
				"element": "N" 
			},
			{
				"x": 0.1628377514,
				"y": -0.1328480292,
				"z": 3.0013255859,
				"element": "C" 
			},
			{
				"x": 0.2216649754,
				"y": 1.167324553,
				"z": 3.377231228,
				"element": "O" 
			},
			{
				"x": 0.9513638936,
				"y": -0.9639659311,
				"z": 3.3987794752,
				"element": "O" 
			},
			{
				"x": -0.2833563577,
				"y": 0.3366359001,
				"z": -3.5382307293,
				"element": "H" 
			},
			{
				"x": 0.548304847,
				"y": -0.1101491812,
				"z": -2.0484935368,
				"element": "H" 
			},
			{
				"x": -0.7570010453,
				"y": -1.1286005219,
				"z": -2.6674939377,
				"element": "H" 
			},
			{
				"x": -1.1102322779,
				"y": 1.7535256775,
				"z": -1.63409177,
				"element": "H" 
			},
			{
				"x": -2.391365276,
				"y": 0.7726564014,
				"z": -2.319922667,
				"element": "H" 
			},
			{
				"x": -2.1189997558,
				"y": -0.8993401394,
				"z": -0.4478263028,
				"element": "H" 
			},
			{
				"x": -2.6325782109,
				"y": 0.6970983733,
				"z": 0.0716290512,
				"element": "H" 
			},
			{
				"x": 0.2476092651,
				"y": -0.3492687222,
				"z": 0.2460487682,
				"element": "H" 
			},
			{
				"x": -0.2985008665,
				"y": 1.2369759251,
				"z": 0.780786748,
				"element": "H" 
			},
			{
				"x": -1.8653962537,
				"y": 0.1173951452,
				"z": 2.3964774059,
				"element": "H" 
			},
			{
				"x": -0.4101955539,
				"y": -2.3306883669,
				"z": 1.7725920819,
				"element": "H" 
			},
			{
				"x": -1.6657651963,
				"y": -2.1663544046,
				"z": 2.7778919782,
				"element": "H" 
			},
			{
				"x": 0.9890122407,
				"y": 1.2466110824,
				"z": 3.9691708284,
				"element": "H" 
			}
		],
		 "valence_orbital": [ 
			{
				"type": "occ",
				"energy": -0.32396,
				"method": "rhf"
			},
			{
				"type": "occ",
				"energy": -0.3194,
				"method": "rhf"
			},
			{
				"type": "occ",
				"energy": -0.3167,
				"method": "rhf"
			},
			{
				"type": "occ",
				"energy": -0.27822,
				"method": "rhf"
			},
			{
				"type": "occ",
				"energy": -0.24523,
				"method": "rhf"
			},
			{
				"type": "unocc",
				"energy": 0.00682,
				"method": "rhf"
			},
			{
				"type": "unocc",
				"energy": 0.07312,
				"method": "rhf"
			},
			{
				"type": "unocc",
				"energy": 0.08804,
				"method": "rhf"
			},
			{
				"type": "unocc",
				"energy": 0.09908,
				"method": "rhf"
			},
			{
				"type": "unocc",
				"energy": 0.11418,
				"method": "rhf"
			}
		],
		"cosmo_sigma_profile": { 
			"-0.025": 0.0,
			"-0.024": 0.0,
			"-0.023": 0.0,
			"-0.022": 0.0,
			"-0.021": 0.0,
			"-0.02": 0.0,
			"-0.019": 0.0573724357552,
			"-0.018": 0.682084046676,
			"-0.017": 1.05814400486,
			"-0.016": 0.897360095716,
			"-0.015": 0.569278785996,
			"-0.014": 0.129225287041,
			"-0.013": 0.890650316013,
			"-0.012": 0.955072774325,
			"-0.011": 0.902287119512,
			"-0.01": 2.19708513762,
			"-0.009": 2.17127128561,
			"-0.008": 3.28540327116,
			"-0.007": 4.06852689133,
			"-0.006": 5.04525169523,
			"-0.005": 5.99932601818,
			"-0.004": 5.99216824135,
			"-0.003": 12.8202919391,
			"-0.002": 21.6104109851,
			"-0.001": 23.4581759264,
			"0.0": 25.2732300893,
			"0.001": 20.5402578258,
			"0.002": 11.2504238112,
			"0.003": 4.76731357493,
			"0.004": 3.13436621019,
			"0.005": 2.4206230464,
			"0.006": 4.65009102023,
			"0.007": 3.41988861411,
			"0.008": 3.98952277623,
			"0.009": 2.26924546613,
			"0.01": 3.78657989957,
			"0.011": 4.36691184151,
			"0.012": 5.26770148722,
			"0.013": 0.854339611119,
			"0.014": 0.792646916741,
			"0.015": 0.29176948136,
			"0.016": 0.633142750028,
			"0.017": 0.193476976034,
			"0.018": 0.0,
			"0.019": 0.0,
			"0.02": 0.0,
			"0.021": 0.0,
			"0.022": 0.0,
			"0.023": 0.0,
			"0.024": 0.0,
			"0.025": 0.0
		}
	}
}
