{
	 "smiles": "COC1=C(O)C=CC(=C1)[N+]([O-])=O", 
	 "Tm": 375.15, 
	 "num_atms": 19, 
	 "gaussian": { 
		 "optdone": 1, 
		 "sigma_profile": "yes", 
		 "theory": "DFT", 
		 "functional": "B3LYP", 
		 "basiset": "6-31G**", 
		 "properties": { 
			 "R2extent": 2336.3016, 
			 "electric_dipole_moment_norm": 6.66840928933, 
			 "electric_quadrupole_moment_norm": 8.1056795588, 
			 "total_energy": -626.484731339, 
			 "HOMO_LUMO_gap": 0.15093, 
			 "cosmo_polarized_energy": -14.19, 
			 "cosmo_cavitation_energy": 24.01, 
			 "cosmo_dispersion_energy": -17.96, 
			 "cosmo_repulsion_energy": 1.43, 
			 "cosmo_total_nonelectrostatic_energy": 7.48, 
			 "SMD_solvation_energy": 7.64 
		},
		"coords": [
			{
				"x": 1.3827265993,
				"y": -3.0585333763,
				"z": -1.3834772793,
				"element": "C" 
			},
			{
				"x": 0.4085419566,
				"y": -2.4787266193,
				"z": -0.513219383,
				"element": "O" 
			},
			{
				"x": 0.2564418177,
				"y": -1.1372935144,
				"z": -0.3546805454,
				"element": "C" 
			},
			{
				"x": 0.9949735641,
				"y": -0.1062011151,
				"z": -0.9868429248,
				"element": "C" 
			},
			{
				"x": 1.9867028392,
				"y": -0.4352635234,
				"z": -1.8669797346,
				"element": "O" 
			},
			{
				"x": 0.7003099922,
				"y": 1.2339659361,
				"z": -0.702652366,
				"element": "C" 
			},
			{
				"x": -0.3026669607,
				"y": 1.5915377403,
				"z": 0.1879872356,
				"element": "C" 
			},
			{
				"x": -1.0189543777,
				"y": 0.56677875,
				"z": 0.800686782,
				"element": "C" 
			},
			{
				"x": -0.7518557985,
				"y": -0.7734397907,
				"z": 0.5407714283,
				"element": "C" 
			},
			{
				"x": -2.0849182188,
				"y": 0.9062542395,
				"z": 1.7465830487,
				"element": "N" 
			},
			{
				"x": -2.300791732,
				"y": 2.1011953541,
				"z": 1.9582219298,
				"element": "O" 
			},
			{
				"x": -2.7028853521,
				"y": -0.0188940742,
				"z": 2.2746193971,
				"element": "O" 
			},
			{
				"x": 1.2414857664,
				"y": -4.135633041,
				"z": -1.278544726,
				"element": "H" 
			},
			{
				"x": 2.4006182625,
				"y": -2.7917342689,
				"z": -1.0882581597,
				"element": "H" 
			},
			{
				"x": 1.2214591629,
				"y": -2.7672994017,
				"z": -2.4244587661,
				"element": "H" 
			},
			{
				"x": 2.3872174558,
				"y": 0.3763026805,
				"z": -2.2050318509,
				"element": "H" 
			},
			{
				"x": 1.2802894751,
				"y": 2.0088519758,
				"z": -1.1997540737,
				"element": "H" 
			},
			{
				"x": -0.5329379301,
				"y": 2.6248914745,
				"z": 0.4098394555,
				"element": "H" 
			},
			{
				"x": -1.3240565219,
				"y": -1.5501594256,
				"z": 1.0309905326,
				"element": "H" 
			}
		],
		 "valence_orbital": [ 
			{
				"type": "occ",
				"energy": -0.30014,
				"method": "rhf"
			},
			{
				"type": "occ",
				"energy": -0.29893,
				"method": "rhf"
			},
			{
				"type": "occ",
				"energy": -0.28129,
				"method": "rhf"
			},
			{
				"type": "occ",
				"energy": -0.26378,
				"method": "rhf"
			},
			{
				"type": "occ",
				"energy": -0.22904,
				"method": "rhf"
			},
			{
				"type": "unocc",
				"energy": -0.07811,
				"method": "rhf"
			},
			{
				"type": "unocc",
				"energy": -0.01883,
				"method": "rhf"
			},
			{
				"type": "unocc",
				"energy": 0.01848,
				"method": "rhf"
			},
			{
				"type": "unocc",
				"energy": 0.04297,
				"method": "rhf"
			},
			{
				"type": "unocc",
				"energy": 0.07489,
				"method": "rhf"
			}
		],
		"cosmo_sigma_profile": { 
			"-0.025": 0.0,
			"-0.024": 0.0,
			"-0.023": 0.0,
			"-0.022": 0.0,
			"-0.021": 0.0,
			"-0.02": 0.0,
			"-0.019": 0.561543609735,
			"-0.018": 1.14039415003,
			"-0.017": 1.45414488932,
			"-0.016": 1.21156998482,
			"-0.015": 0.630173507201,
			"-0.014": 0.95693981994,
			"-0.013": 1.18117497146,
			"-0.012": 1.33194909696,
			"-0.011": 1.04880158233,
			"-0.01": 0.754297430134,
			"-0.009": 1.45914570403,
			"-0.008": 1.91678742357,
			"-0.007": 3.85768828462,
			"-0.006": 6.18136424542,
			"-0.005": 10.2924306523,
			"-0.004": 12.6048095193,
			"-0.003": 14.1160062646,
			"-0.002": 11.7067915549,
			"-0.001": 12.6127218368,
			"0.0": 14.623925238,
			"0.001": 18.8571919269,
			"0.002": 15.7730931528,
			"0.003": 8.70210769949,
			"0.004": 6.29349610436,
			"0.005": 5.9718826781,
			"0.006": 6.45997085012,
			"0.007": 5.97396681949,
			"0.008": 12.055442702,
			"0.009": 6.89048689136,
			"0.01": 3.92230206399,
			"0.011": 1.07235788984,
			"0.012": 0.0,
			"0.013": 0.0,
			"0.014": 0.0,
			"0.015": 0.0,
			"0.016": 0.0,
			"0.017": 0.0,
			"0.018": 0.0,
			"0.019": 0.0,
			"0.02": 0.0,
			"0.021": 0.0,
			"0.022": 0.0,
			"0.023": 0.0,
			"0.024": 0.0,
			"0.025": 0.0
		}
	}
}
