{
	 "smiles": "FC(F)(F)C(=O)CC(=O)C1=CC=CS1", 
	 "Tm": 315.65, 
	 "num_atms": 19, 
	 "gaussian": { 
		 "optdone": 1, 
		 "sigma_profile": "yes", 
		 "theory": "DFT", 
		 "functional": "B3LYP", 
		 "basiset": "6-31G**", 
		 "properties": { 
			 "R2extent": 3726.2053, 
			 "electric_dipole_moment_norm": 3.14934002928, 
			 "electric_quadrupole_moment_norm": 12.2516149625, 
			 "total_energy": -1155.99100887, 
			 "HOMO_LUMO_gap": 0.17234, 
			 "cosmo_polarized_energy": -10.15, 
			 "cosmo_cavitation_energy": 27.39, 
			 "cosmo_dispersion_energy": -19.38, 
			 "cosmo_repulsion_energy": 1.42, 
			 "cosmo_total_nonelectrostatic_energy": 9.43, 
			 "SMD_solvation_energy": 6.99 
		},
		"coords": [
			{
				"x": 1.6357830308,
				"y": -1.6977793094,
				"z": -2.5168603467,
				"element": "F" 
			},
			{
				"x": 1.1537647877,
				"y": -2.687966737,
				"z": -1.7397591904,
				"element": "C" 
			},
			{
				"x": 0.3199821169,
				"y": -3.435768826,
				"z": -2.4610055344,
				"element": "F" 
			},
			{
				"x": 2.1922242972,
				"y": -3.4543705066,
				"z": -1.3451968828,
				"element": "F" 
			},
			{
				"x": 0.4485934279,
				"y": -2.0744684467,
				"z": -0.5040480512,
				"element": "C" 
			},
			{
				"x": -0.7320942956,
				"y": -2.268885196,
				"z": -0.3318762226,
				"element": "O" 
			},
			{
				"x": 1.3320042037,
				"y": -1.2449824738,
				"z": 0.4073787655,
				"element": "C" 
			},
			{
				"x": 1.5846575632,
				"y": 0.1940707756,
				"z": -0.1097033984,
				"element": "C" 
			},
			{
				"x": 2.7022501262,
				"y": 0.5219944931,
				"z": -0.4724818577,
				"element": "O" 
			},
			{
				"x": 0.4561740711,
				"y": 1.1258985774,
				"z": -0.1068676794,
				"element": "C" 
			},
			{
				"x": -0.8597770926,
				"y": 0.9374724267,
				"z": 0.274280207,
				"element": "C" 
			},
			{
				"x": -1.6473437586,
				"y": 2.1080296435,
				"z": 0.1301269344,
				"element": "C" 
			},
			{
				"x": -0.9215465754,
				"y": 3.1697292006,
				"z": -0.3548160917,
				"element": "C" 
			},
			{
				"x": 0.728469975,
				"y": 2.7669819588,
				"z": -0.6472228447,
				"element": "S" 
			},
			{
				"x": 2.3165776017,
				"y": -1.7078591027,
				"z": 0.4957571572,
				"element": "H" 
			},
			{
				"x": 0.846452025,
				"y": -1.2065287414,
				"z": 1.3857361154,
				"element": "H" 
			},
			{
				"x": -1.2464425165,
				"y": -0.0128558659,
				"z": 0.6227807758,
				"element": "H" 
			},
			{
				"x": -2.7022006706,
				"y": 2.1626462417,
				"z": 0.3719557637,
				"element": "H" 
			},
			{
				"x": -1.2749283174,
				"y": 4.1723418882,
				"z": -0.556277619,
				"element": "H" 
			}
		],
		 "valence_orbital": [ 
			{
				"type": "occ",
				"energy": -0.36205,
				"method": "rhf"
			},
			{
				"type": "occ",
				"energy": -0.29568,
				"method": "rhf"
			},
			{
				"type": "occ",
				"energy": -0.27215,
				"method": "rhf"
			},
			{
				"type": "occ",
				"energy": -0.26929,
				"method": "rhf"
			},
			{
				"type": "occ",
				"energy": -0.25814,
				"method": "rhf"
			},
			{
				"type": "unocc",
				"energy": -0.0858,
				"method": "rhf"
			},
			{
				"type": "unocc",
				"energy": -0.06135,
				"method": "rhf"
			},
			{
				"type": "unocc",
				"energy": 0.01166,
				"method": "rhf"
			},
			{
				"type": "unocc",
				"energy": 0.02075,
				"method": "rhf"
			},
			{
				"type": "unocc",
				"energy": 0.06755,
				"method": "rhf"
			}
		],
		"cosmo_sigma_profile": { 
			"-0.025": 0.0,
			"-0.024": 0.0,
			"-0.023": 0.0,
			"-0.022": 0.0,
			"-0.021": 0.0,
			"-0.02": 0.0,
			"-0.019": 0.0,
			"-0.018": 0.0,
			"-0.017": 0.0,
			"-0.016": 0.0,
			"-0.015": 0.0,
			"-0.014": 0.0,
			"-0.013": 0.0,
			"-0.012": 0.0,
			"-0.011": 0.0,
			"-0.01": 0.752850048955,
			"-0.009": 3.5126282036,
			"-0.008": 7.67506825821,
			"-0.007": 11.2225799976,
			"-0.006": 12.3537708,
			"-0.005": 13.2480582839,
			"-0.004": 8.63058399357,
			"-0.003": 8.74162386525,
			"-0.002": 10.7256167742,
			"-0.001": 11.6679417108,
			"0.0": 15.4556449685,
			"0.001": 29.2756752203,
			"0.002": 38.8246079107,
			"0.003": 15.6831209727,
			"0.004": 5.43522786908,
			"0.005": 4.57318249401,
			"0.006": 3.36942637353,
			"0.007": 4.10001897786,
			"0.008": 5.00960443334,
			"0.009": 4.33842937589,
			"0.01": 2.86272652436,
			"0.011": 4.29317439069,
			"0.012": 0.821895056947,
			"0.013": 0.0,
			"0.014": 0.0,
			"0.015": 0.0,
			"0.016": 0.0,
			"0.017": 0.0,
			"0.018": 0.0,
			"0.019": 0.0,
			"0.02": 0.0,
			"0.021": 0.0,
			"0.022": 0.0,
			"0.023": 0.0,
			"0.024": 0.0,
			"0.025": 0.0
		}
	}
}
