{
	 "smiles": "CC1=CC=NC2=C1C=CC1=C2N=CC=C1C", 
	 "Tm": 467.15, 
	 "num_atms": 28, 
	 "gaussian": { 
		 "optdone": 1, 
		 "sigma_profile": "yes", 
		 "theory": "DFT", 
		 "functional": "B3LYP", 
		 "basiset": "6-31G**", 
		 "properties": { 
			 "R2extent": 4227.3698, 
			 "electric_dipole_moment_norm": 3.91768506902, 
			 "electric_quadrupole_moment_norm": 20.8033509346, 
			 "total_energy": -650.249958354, 
			 "HOMO_LUMO_gap": 0.17171, 
			 "cosmo_polarized_energy": -14.77, 
			 "cosmo_cavitation_energy": 30.9, 
			 "cosmo_dispersion_energy": -23.01, 
			 "cosmo_repulsion_energy": 1.73, 
			 "cosmo_total_nonelectrostatic_energy": 9.63, 
			 "SMD_solvation_energy": 2.41 
		},
		"coords": [
			{
				"x": 0.6136804891,
				"y": -1.471951725,
				"z": 3.9931506907,
				"element": "C" 
			},
			{
				"x": -0.2548803289,
				"y": -0.3668859706,
				"z": 3.4458176211,
				"element": "C" 
			},
			{
				"x": -1.0018447637,
				"y": 0.435048738,
				"z": 4.2893946695,
				"element": "C" 
			},
			{
				"x": -1.8036483516,
				"y": 1.4590819827,
				"z": 3.749146464,
				"element": "C" 
			},
			{
				"x": -1.9010485902,
				"y": 1.7218248036,
				"z": 2.4584264995,
				"element": "N" 
			},
			{
				"x": -1.1823057239,
				"y": 0.9549714652,
				"z": 1.6049759897,
				"element": "C" 
			},
			{
				"x": -0.3397864327,
				"y": -0.1068389793,
				"z": 2.0464393385,
				"element": "C" 
			},
			{
				"x": 0.3885319215,
				"y": -0.8721013531,
				"z": 1.0774872076,
				"element": "C" 
			},
			{
				"x": 0.2925386542,
				"y": -0.6060746828,
				"z": -0.2558160722,
				"element": "C" 
			},
			{
				"x": -0.5410292459,
				"y": 0.4508671799,
				"z": -0.7487446816,
				"element": "C" 
			},
			{
				"x": -1.2851748909,
				"y": 1.2400323756,
				"z": 0.1762562168,
				"element": "C" 
			},
			{
				"x": -2.0933255899,
				"y": 2.2545795515,
				"z": -0.2118388733,
				"element": "N" 
			},
			{
				"x": -2.1819838734,
				"y": 2.5073876243,
				"z": -1.505171418,
				"element": "C" 
			},
			{
				"x": -1.4907156721,
				"y": 1.7897254205,
				"z": -2.5004194775,
				"element": "C" 
			},
			{
				"x": -0.6569447837,
				"y": 0.7473185614,
				"z": -2.1386281549,
				"element": "C" 
			},
			{
				"x": 0.0972197578,
				"y": -0.0406738503,
				"z": -3.1804761317,
				"element": "C" 
			},
			{
				"x": 1.6668702492,
				"y": -1.3254817635,
				"z": 3.7273405726,
				"element": "H" 
			},
			{
				"x": 0.5462632214,
				"y": -1.5142317611,
				"z": 5.0828547116,
				"element": "H" 
			},
			{
				"x": 0.315507317,
				"y": -2.4506809641,
				"z": 3.6000870952,
				"element": "H" 
			},
			{
				"x": -0.9747672768,
				"y": 0.2811036867,
				"z": 5.3645901785,
				"element": "H" 
			},
			{
				"x": -2.3914937357,
				"y": 2.0898349451,
				"z": 4.4158550732,
				"element": "H" 
			},
			{
				"x": 1.0291620622,
				"y": -1.6797835754,
				"z": 1.4156520714,
				"element": "H" 
			},
			{
				"x": 0.8579873728,
				"y": -1.2054754713,
				"z": -0.9615848003,
				"element": "H" 
			},
			{
				"x": -2.838543084,
				"y": 3.3284967915,
				"z": -1.792610837,
				"element": "H" 
			},
			{
				"x": -1.6162994279,
				"y": 2.0588279111,
				"z": -3.5455463016,
				"element": "H" 
			},
			{
				"x": -0.1708031258,
				"y": -1.1031149988,
				"z": -3.153942504,
				"element": "H" 
			},
			{
				"x": -0.1207759708,
				"y": 0.334559761,
				"z": -4.1832048716,
				"element": "H" 
			},
			{
				"x": 1.1806098227,
				"y": 0.0220342972,
				"z": -3.0266902762,
				"element": "H" 
			}
		],
		 "valence_orbital": [ 
			{
				"type": "occ",
				"energy": -0.2771,
				"method": "rhf"
			},
			{
				"type": "occ",
				"energy": -0.25063,
				"method": "rhf"
			},
			{
				"type": "occ",
				"energy": -0.23847,
				"method": "rhf"
			},
			{
				"type": "occ",
				"energy": -0.23247,
				"method": "rhf"
			},
			{
				"type": "occ",
				"energy": -0.22302,
				"method": "rhf"
			},
			{
				"type": "unocc",
				"energy": -0.05131,
				"method": "rhf"
			},
			{
				"type": "unocc",
				"energy": -0.04168,
				"method": "rhf"
			},
			{
				"type": "unocc",
				"energy": -0.00156,
				"method": "rhf"
			},
			{
				"type": "unocc",
				"energy": 0.02974,
				"method": "rhf"
			},
			{
				"type": "unocc",
				"energy": 0.07015,
				"method": "rhf"
			}
		],
		"cosmo_sigma_profile": { 
			"-0.025": 0.0,
			"-0.024": 0.0,
			"-0.023": 0.0,
			"-0.022": 0.0,
			"-0.021": 0.0,
			"-0.02": 0.0,
			"-0.019": 0.0,
			"-0.018": 0.0,
			"-0.017": 0.0,
			"-0.016": 0.0,
			"-0.015": 0.0,
			"-0.014": 0.0,
			"-0.013": 0.0,
			"-0.012": 0.0,
			"-0.011": 0.0,
			"-0.01": 0.0,
			"-0.009": 0.0,
			"-0.008": 0.0,
			"-0.007": 1.40125232249,
			"-0.006": 14.9248833946,
			"-0.005": 28.3089085122,
			"-0.004": 23.0501967774,
			"-0.003": 19.8258641023,
			"-0.002": 17.951028675,
			"-0.001": 22.4646320432,
			"0.0": 18.6050787868,
			"0.001": 21.3291244886,
			"0.002": 30.7199722573,
			"0.003": 16.2735741139,
			"0.004": 6.47382187207,
			"0.005": 3.62740094628,
			"0.006": 2.77239813904,
			"0.007": 1.46774757538,
			"0.008": 1.69934525372,
			"0.009": 1.74073640589,
			"0.01": 1.58510837773,
			"0.011": 2.30945167217,
			"0.012": 0.864187124785,
			"0.013": 1.30725178708,
			"0.014": 1.59327670682,
			"0.015": 0.588470828363,
			"0.016": 1.15500532544,
			"0.017": 0.639571193487,
			"0.018": 1.34045017026,
			"0.019": 1.04110507729,
			"0.02": 0.897809726045,
			"0.021": 0.469850144346,
			"0.022": 0.833399286584,
			"0.023": 0.0225224864204,
			"0.024": 0.0,
			"0.025": 0.0
		}
	}
}
