{
	 "smiles": "OC1=CC=C(C=C1)C(=O)C1=CC=C(F)C=C1", 
	 "Tm": 444.15, 
	 "num_atms": 25, 
	 "gaussian": { 
		 "optdone": 1, 
		 "sigma_profile": "yes", 
		 "theory": "DFT", 
		 "functional": "B3LYP", 
		 "basiset": "6-31G**", 
		 "properties": { 
			 "R2extent": 5853.9466, 
			 "electric_dipole_moment_norm": 2.80235270443, 
			 "electric_quadrupole_moment_norm": 21.2695845963, 
			 "total_energy": -751.08895296, 
			 "HOMO_LUMO_gap": 0.17374, 
			 "cosmo_polarized_energy": -13.44, 
			 "cosmo_cavitation_energy": 30.46, 
			 "cosmo_dispersion_energy": -22.07, 
			 "cosmo_repulsion_energy": 1.67, 
			 "cosmo_total_nonelectrostatic_energy": 10.07, 
			 "SMD_solvation_energy": 6.47 
		},
		"coords": [
			{
				"x": 1.0431509541,
				"y": -0.1487474107,
				"z": 6.3367925875,
				"element": "O" 
			},
			{
				"x": 0.7798467514,
				"y": 0.3296043793,
				"z": 5.0906039902,
				"element": "C" 
			},
			{
				"x": 1.0005109924,
				"y": -0.5322006217,
				"z": 4.0092254181,
				"element": "C" 
			},
			{
				"x": 0.7602698204,
				"y": -0.088499492,
				"z": 2.7139391301,
				"element": "C" 
			},
			{
				"x": 0.2884088064,
				"y": 1.2134037979,
				"z": 2.4684585461,
				"element": "C" 
			},
			{
				"x": 0.0455943739,
				"y": 2.0533704491,
				"z": 3.5680137512,
				"element": "C" 
			},
			{
				"x": 0.2989802087,
				"y": 1.6278230655,
				"z": 4.8647550427,
				"element": "C" 
			},
			{
				"x": -0.0582966387,
				"y": 1.7299269592,
				"z": 1.1104160519,
				"element": "C" 
			},
			{
				"x": -0.8921088286,
				"y": 2.6237071797,
				"z": 0.9873300532,
				"element": "O" 
			},
			{
				"x": 0.6031534628,
				"y": 1.1692935979,
				"z": -0.1145769118,
				"element": "C" 
			},
			{
				"x": 1.9145134354,
				"y": 0.6677365976,
				"z": -0.1230852604,
				"element": "C" 
			},
			{
				"x": 2.5026451247,
				"y": 0.2281456016,
				"z": -1.308499015,
				"element": "C" 
			},
			{
				"x": 1.7602948081,
				"y": 0.2874711697,
				"z": -2.4824657685,
				"element": "C" 
			},
			{
				"x": 2.3182270916,
				"y": -0.146609584,
				"z": -3.6289201841,
				"element": "F" 
			},
			{
				"x": 0.4608672992,
				"y": 0.7882815252,
				"z": -2.5132569331,
				"element": "C" 
			},
			{
				"x": -0.10468105,
				"y": 1.2399908421,
				"z": -1.326527629,
				"element": "C" 
			},
			{
				"x": 0.838971998,
				"y": 0.5320875302,
				"z": 6.9915365072,
				"element": "H" 
			},
			{
				"x": 1.3507061266,
				"y": -1.5399799336,
				"z": 4.2053958893,
				"element": "H" 
			},
			{
				"x": 0.9135069636,
				"y": -0.7738136446,
				"z": 1.8872833545,
				"element": "H" 
			},
			{
				"x": -0.3477080355,
				"y": 3.0465792909,
				"z": 3.3790649348,
				"element": "H" 
			},
			{
				"x": 0.1205554509,
				"y": 2.2948441231,
				"z": 5.705784984,
				"element": "H" 
			},
			{
				"x": 2.4926747298,
				"y": 0.6447205842,
				"z": 0.7941733169,
				"element": "H" 
			},
			{
				"x": 3.5189534876,
				"y": -0.1494262728,
				"z": -1.3354978793,
				"element": "H" 
			},
			{
				"x": -0.0774307089,
				"y": 0.8225718019,
				"z": -3.4542645666,
				"element": "H" 
			},
			{
				"x": -1.1046066238,
				"y": 1.6601184646,
				"z": -1.3147794098,
				"element": "H" 
			}
		],
		 "valence_orbital": [ 
			{
				"type": "occ",
				"energy": -0.26866,
				"method": "rhf"
			},
			{
				"type": "occ",
				"energy": -0.26501,
				"method": "rhf"
			},
			{
				"type": "occ",
				"energy": -0.25626,
				"method": "rhf"
			},
			{
				"type": "occ",
				"energy": -0.24479,
				"method": "rhf"
			},
			{
				"type": "occ",
				"energy": -0.2329,
				"method": "rhf"
			},
			{
				"type": "unocc",
				"energy": -0.05916,
				"method": "rhf"
			},
			{
				"type": "unocc",
				"energy": -0.01999,
				"method": "rhf"
			},
			{
				"type": "unocc",
				"energy": -0.0116,
				"method": "rhf"
			},
			{
				"type": "unocc",
				"energy": -0.00543,
				"method": "rhf"
			},
			{
				"type": "unocc",
				"energy": 0.05961,
				"method": "rhf"
			}
		],
		"cosmo_sigma_profile": { 
			"-0.025": 0.0,
			"-0.024": 0.0,
			"-0.023": 0.0,
			"-0.022": 0.0,
			"-0.021": 0.0,
			"-0.02": 0.0,
			"-0.019": 0.0259111064363,
			"-0.018": 1.0182552544,
			"-0.017": 1.2139124207,
			"-0.016": 1.0203283164,
			"-0.015": 1.4405075884,
			"-0.014": 0.955161527592,
			"-0.013": 0.845050459567,
			"-0.012": 0.921326130656,
			"-0.011": 0.985438659948,
			"-0.01": 0.79346300449,
			"-0.009": 1.29206284596,
			"-0.008": 2.38268105316,
			"-0.007": 7.69482703487,
			"-0.006": 12.6458730869,
			"-0.005": 15.277819434,
			"-0.004": 13.1847020897,
			"-0.003": 12.6494517821,
			"-0.002": 15.0717072597,
			"-0.001": 14.3500672935,
			"0.0": 19.7672011282,
			"0.001": 18.7663124595,
			"0.002": 24.0740241124,
			"0.003": 26.2588285345,
			"0.004": 22.1768344249,
			"0.005": 4.43449258301,
			"0.006": 2.91300226662,
			"0.007": 2.83349525698,
			"0.008": 3.58695200217,
			"0.009": 3.46054343113,
			"0.01": 3.0774031916,
			"0.011": 4.05437103732,
			"0.012": 3.65270453035,
			"0.013": 2.17327718184,
			"0.014": 0.0,
			"0.015": 0.0,
			"0.016": 0.0,
			"0.017": 0.0,
			"0.018": 0.0,
			"0.019": 0.0,
			"0.02": 0.0,
			"0.021": 0.0,
			"0.022": 0.0,
			"0.023": 0.0,
			"0.024": 0.0,
			"0.025": 0.0
		}
	}
}
