{
	 "smiles": "OC1=C(O)C=C(C=C1)C#N", 
	 "Tm": 428.15, 
	 "num_atms": 15, 
	 "gaussian": { 
		 "optdone": 1, 
		 "sigma_profile": "yes", 
		 "theory": "DFT", 
		 "functional": "B3LYP", 
		 "basiset": "6-31G**", 
		 "properties": { 
			 "R2extent": 2098.2781, 
			 "electric_dipole_moment_norm": 6.60075128906, 
			 "electric_quadrupole_moment_norm": 24.8595370864, 
			 "total_energy": -474.932589818, 
			 "HOMO_LUMO_gap": 0.19164, 
			 "cosmo_polarized_energy": -16.01, 
			 "cosmo_cavitation_energy": 20.73, 
			 "cosmo_dispersion_energy": -15.08, 
			 "cosmo_repulsion_energy": 1.23, 
			 "cosmo_total_nonelectrostatic_energy": 6.88, 
			 "SMD_solvation_energy": 5.73 
		},
		"coords": [
			{
				"x": 0.3806150727,
				"y": -1.5014516706,
				"z": 1.9084764667,
				"element": "O" 
			},
			{
				"x": 0.7226918064,
				"y": -0.2431634228,
				"z": 1.4886252506,
				"element": "C" 
			},
			{
				"x": 0.2731861995,
				"y": 0.0888922032,
				"z": 0.1946214182,
				"element": "C" 
			},
			{
				"x": -0.4400066466,
				"y": -0.8056343101,
				"z": -0.5373087777,
				"element": "O" 
			},
			{
				"x": 0.5644352963,
				"y": 1.3409515273,
				"z": -0.3307889598,
				"element": "C" 
			},
			{
				"x": 1.3036438648,
				"y": 2.2655789846,
				"z": 0.4300377932,
				"element": "C" 
			},
			{
				"x": 1.7484202774,
				"y": 1.9295510102,
				"z": 1.7173213381,
				"element": "C" 
			},
			{
				"x": 1.4538898078,
				"y": 0.6715092302,
				"z": 2.2411193189,
				"element": "C" 
			},
			{
				"x": 1.6028992797,
				"y": 3.5568616296,
				"z": -0.1144467015,
				"element": "C" 
			},
			{
				"x": 1.8485680008,
				"y": 4.6067345512,
				"z": -0.5519975771,
				"element": "N" 
			},
			{
				"x": 0.7184704808,
				"y": -1.6620247742,
				"z": 2.7984319925,
				"element": "H" 
			},
			{
				"x": -0.5402462096,
				"y": -1.6114064821,
				"z": -0.0084570524,
				"element": "H" 
			},
			{
				"x": 0.2154550816,
				"y": 1.5890389858,
				"z": -1.3264514069,
				"element": "H" 
			},
			{
				"x": 2.3173447437,
				"y": 2.6459322439,
				"z": 2.298496096,
				"element": "H" 
			},
			{
				"x": 1.7941329447,
				"y": 0.4015302938,
				"z": 3.2379208015,
				"element": "H" 
			}
		],
		 "valence_orbital": [ 
			{
				"type": "occ",
				"energy": -0.35157,
				"method": "rhf"
			},
			{
				"type": "occ",
				"energy": -0.3253,
				"method": "rhf"
			},
			{
				"type": "occ",
				"energy": -0.32263,
				"method": "rhf"
			},
			{
				"type": "occ",
				"energy": -0.26122,
				"method": "rhf"
			},
			{
				"type": "occ",
				"energy": -0.23161,
				"method": "rhf"
			},
			{
				"type": "unocc",
				"energy": -0.03997,
				"method": "rhf"
			},
			{
				"type": "unocc",
				"energy": -0.01539,
				"method": "rhf"
			},
			{
				"type": "unocc",
				"energy": 0.03198,
				"method": "rhf"
			},
			{
				"type": "unocc",
				"energy": 0.04582,
				"method": "rhf"
			},
			{
				"type": "unocc",
				"energy": 0.07426,
				"method": "rhf"
			}
		],
		"cosmo_sigma_profile": { 
			"-0.025": 0.0,
			"-0.024": 0.0,
			"-0.023": 0.0,
			"-0.022": 0.0,
			"-0.021": 0.0,
			"-0.02": 0.0248004337045,
			"-0.019": 1.03191349983,
			"-0.018": 1.09821271061,
			"-0.017": 1.30774697342,
			"-0.016": 1.28133434963,
			"-0.015": 1.1294426853,
			"-0.014": 1.64515173184,
			"-0.013": 1.21046800423,
			"-0.012": 2.09888284281,
			"-0.011": 1.32992739543,
			"-0.01": 1.58230991177,
			"-0.009": 2.24497078105,
			"-0.008": 4.42121782458,
			"-0.007": 6.75690137692,
			"-0.006": 8.22005220639,
			"-0.005": 5.90773565562,
			"-0.004": 5.64149405101,
			"-0.003": 5.78181965577,
			"-0.002": 6.95999240028,
			"-0.001": 8.35530167926,
			"0.0": 13.0954453684,
			"0.001": 14.8325015379,
			"0.002": 16.2453153864,
			"0.003": 11.0239231975,
			"0.004": 5.53967752633,
			"0.005": 4.86439146031,
			"0.006": 5.32500135237,
			"0.007": 3.47321115243,
			"0.008": 5.07774767728,
			"0.009": 4.97927680877,
			"0.01": 5.35089268535,
			"0.011": 4.20703664124,
			"0.012": 2.63227547937,
			"0.013": 2.16300219989,
			"0.014": 0.346265803983,
			"0.015": 0.0,
			"0.016": 0.0,
			"0.017": 0.0,
			"0.018": 0.0,
			"0.019": 0.0,
			"0.02": 0.0,
			"0.021": 0.0,
			"0.022": 0.0,
			"0.023": 0.0,
			"0.024": 0.0,
			"0.025": 0.0
		}
	}
}
