{
	 "smiles": "ClC1=C(Cl)C=C2C(=O)NC(=O)C2=C1", 
	 "Tm": 491.15, 
	 "num_atms": 16, 
	 "gaussian": { 
		 "optdone": 1, 
		 "sigma_profile": "yes", 
		 "theory": "DFT", 
		 "functional": "B3LYP", 
		 "basiset": "6-31G**", 
		 "properties": { 
			 "R2extent": 3706.9526, 
			 "electric_dipole_moment_norm": 0.195834419855, 
			 "electric_quadrupole_moment_norm": 5.28219631214, 
			 "total_energy": -1432.26551566, 
			 "HOMO_LUMO_gap": 0.17506, 
			 "cosmo_polarized_energy": -11.16, 
			 "cosmo_cavitation_energy": 25.42, 
			 "cosmo_dispersion_energy": -19.03, 
			 "cosmo_repulsion_energy": 1.5, 
			 "cosmo_total_nonelectrostatic_energy": 7.9, 
			 "SMD_solvation_energy": 5.19 
		},
		"coords": [
			{
				"x": 1.4486606922,
				"y": 0.7389818558,
				"z": 2.8135500658,
				"element": "Cl" 
			},
			{
				"x": 0.3605569599,
				"y": 0.8182504874,
				"z": 1.4566372903,
				"element": "C" 
			},
			{
				"x": -0.5858296151,
				"y": -0.2016039058,
				"z": 1.2255936194,
				"element": "C" 
			},
			{
				"x": -0.6989137883,
				"y": -1.5753759264,
				"z": 2.2892470266,
				"element": "Cl" 
			},
			{
				"x": -1.4597867323,
				"y": -0.1337172569,
				"z": 0.1320535318,
				"element": "C" 
			},
			{
				"x": -1.3590849089,
				"y": 0.9636781037,
				"z": -0.7054472767,
				"element": "C" 
			},
			{
				"x": -2.1420485303,
				"y": 1.3088683744,
				"z": -1.9331463669,
				"element": "C" 
			},
			{
				"x": -3.042392116,
				"y": 0.6966119738,
				"z": -2.4648493131,
				"element": "O" 
			},
			{
				"x": -1.6040012044,
				"y": 2.5312558793,
				"z": -2.3619485669,
				"element": "N" 
			},
			{
				"x": -0.5654693721,
				"y": 3.0076893471,
				"z": -1.5482657685,
				"element": "C" 
			},
			{
				"x": 0.0561177639,
				"y": 4.0353863344,
				"z": -1.7084347249,
				"element": "O" 
			},
			{
				"x": -0.4226023273,
				"y": 1.9728236237,
				"z": -0.4768316762,
				"element": "C" 
			},
			{
				"x": 0.4482113622,
				"y": 1.9223513556,
				"z": 0.5978511709,
				"element": "C" 
			},
			{
				"x": -2.1863708305,
				"y": -0.9189095948,
				"z": -0.0434082293,
				"element": "H" 
			},
			{
				"x": -1.9338957238,
				"y": 3.0229683169,
				"z": -3.181021399,
				"element": "H" 
			},
			{
				"x": 1.1765483708,
				"y": 2.7049410319,
				"z": 0.7776206167,
				"element": "H" 
			}
		],
		 "valence_orbital": [ 
			{
				"type": "occ",
				"energy": -0.30728,
				"method": "rhf"
			},
			{
				"type": "occ",
				"energy": -0.30692,
				"method": "rhf"
			},
			{
				"type": "occ",
				"energy": -0.2908,
				"method": "rhf"
			},
			{
				"type": "occ",
				"energy": -0.2815,
				"method": "rhf"
			},
			{
				"type": "occ",
				"energy": -0.27411,
				"method": "rhf"
			},
			{
				"type": "unocc",
				"energy": -0.09905,
				"method": "rhf"
			},
			{
				"type": "unocc",
				"energy": -0.06365,
				"method": "rhf"
			},
			{
				"type": "unocc",
				"energy": -0.01511,
				"method": "rhf"
			},
			{
				"type": "unocc",
				"energy": 0.00369,
				"method": "rhf"
			},
			{
				"type": "unocc",
				"energy": 0.0411,
				"method": "rhf"
			}
		],
		"cosmo_sigma_profile": { 
			"-0.025": 0.0,
			"-0.024": 0.0,
			"-0.023": 0.0,
			"-0.022": 0.0,
			"-0.021": 0.0,
			"-0.02": 0.0,
			"-0.019": 0.0,
			"-0.018": 0.0,
			"-0.017": 1.01093794842,
			"-0.016": 1.10414797268,
			"-0.015": 0.989000660082,
			"-0.014": 1.10930860692,
			"-0.013": 0.737065839059,
			"-0.012": 0.856139567284,
			"-0.011": 0.967481246198,
			"-0.01": 1.2449575901,
			"-0.009": 3.85064407179,
			"-0.008": 3.27698956876,
			"-0.007": 4.67680251739,
			"-0.006": 5.90886148741,
			"-0.005": 6.79698983023,
			"-0.004": 9.86926421143,
			"-0.003": 18.1063290796,
			"-0.002": 27.7933600919,
			"-0.001": 21.8359640692,
			"0.0": 12.4197849201,
			"0.001": 11.3923143146,
			"0.002": 14.7693079797,
			"0.003": 18.538453069,
			"0.004": 9.15279429436,
			"0.005": 2.99042667699,
			"0.006": 1.97044652888,
			"0.007": 2.80695574637,
			"0.008": 3.14451542126,
			"0.009": 4.56799560543,
			"0.01": 7.54665650502,
			"0.011": 9.42037370077,
			"0.012": 1.38123232407,
			"0.013": 0.0,
			"0.014": 0.0,
			"0.015": 0.0,
			"0.016": 0.0,
			"0.017": 0.0,
			"0.018": 0.0,
			"0.019": 0.0,
			"0.02": 0.0,
			"0.021": 0.0,
			"0.022": 0.0,
			"0.023": 0.0,
			"0.024": 0.0,
			"0.025": 0.0
		}
	}
}
