{
	 "smiles": "CC1=C(C)C(C(N)=O)=C(N=N1)N1CCCC1", 
	 "Tm": 485.15, 
	 "num_atms": 32, 
	 "gaussian": { 
		 "optdone": 1, 
		 "sigma_profile": "yes", 
		 "theory": "DFT", 
		 "functional": "B3LYP", 
		 "basiset": "6-31G**", 
		 "properties": { 
			 "R2extent": 3978.4539, 
			 "electric_dipole_moment_norm": 2.52805057505, 
			 "electric_quadrupole_moment_norm": 16.7455257114, 
			 "total_energy": -723.031938111, 
			 "HOMO_LUMO_gap": 0.16391, 
			 "cosmo_polarized_energy": -15.92, 
			 "cosmo_cavitation_energy": 33.03, 
			 "cosmo_dispersion_energy": -24.05, 
			 "cosmo_repulsion_energy": 1.88, 
			 "cosmo_total_nonelectrostatic_energy": 10.86, 
			 "SMD_solvation_energy": 3.94 
		},
		"coords": [
			{
				"x": 2.4775070019,
				"y": -1.3349837902,
				"z": 3.6455591194,
				"element": "C" 
			},
			{
				"x": 1.4941388222,
				"y": -0.8863561121,
				"z": 2.5962957301,
				"element": "C" 
			},
			{
				"x": 0.5274815459,
				"y": -1.7644620229,
				"z": 2.0420358485,
				"element": "C" 
			},
			{
				"x": 0.4448616663,
				"y": -3.1798553487,
				"z": 2.5555061585,
				"element": "C" 
			},
			{
				"x": -0.3352490176,
				"y": -1.2322148971,
				"z": 1.0839412093,
				"element": "C" 
			},
			{
				"x": -1.5099778876,
				"y": -2.0415323941,
				"z": 0.5777905574,
				"element": "C" 
			},
			{
				"x": -2.7184136375,
				"y": -1.4079510671,
				"z": 0.6919388526,
				"element": "N" 
			},
			{
				"x": -1.4111399299,
				"y": -3.194715699,
				"z": 0.1757958715,
				"element": "O" 
			},
			{
				"x": -0.1113582995,
				"y": 0.1179527577,
				"z": 0.6827684465,
				"element": "C" 
			},
			{
				"x": 0.7936511628,
				"y": 0.8914875331,
				"z": 1.2950447193,
				"element": "N" 
			},
			{
				"x": 1.5692006348,
				"y": 0.4000051807,
				"z": 2.2542296994,
				"element": "N" 
			},
			{
				"x": -0.8523740423,
				"y": 0.7013990381,
				"z": -0.3504903341,
				"element": "N" 
			},
			{
				"x": -1.0071041494,
				"y": -0.04872066,
				"z": -1.6291685959,
				"element": "C" 
			},
			{
				"x": -0.8916672844,
				"y": 1.0124092152,
				"z": -2.7436621224,
				"element": "C" 
			},
			{
				"x": -0.1178756507,
				"y": 2.1618813411,
				"z": -2.0829409732,
				"element": "C" 
			},
			{
				"x": -0.6609335557,
				"y": 2.1405678191,
				"z": -0.6523769407,
				"element": "C" 
			},
			{
				"x": 1.9735501112,
				"y": -1.7100840521,
				"z": 4.5442075111,
				"element": "H" 
			},
			{
				"x": 3.1045012827,
				"y": -0.4869863846,
				"z": 3.9248681019,
				"element": "H" 
			},
			{
				"x": 3.1207966172,
				"y": -2.1437431496,
				"z": 3.2789919236,
				"element": "H" 
			},
			{
				"x": 1.4039549526,
				"y": -3.6883651058,
				"z": 2.4044124339,
				"element": "H" 
			},
			{
				"x": 0.2553488134,
				"y": -3.1846806135,
				"z": 3.6352769338,
				"element": "H" 
			},
			{
				"x": -0.3236913943,
				"y": -3.7578724673,
				"z": 2.0485867915,
				"element": "H" 
			},
			{
				"x": -3.5099898556,
				"y": -1.8759018788,
				"z": 0.2733228408,
				"element": "H" 
			},
			{
				"x": -2.7440956817,
				"y": -0.3999664752,
				"z": 0.7624628527,
				"element": "H" 
			},
			{
				"x": -0.2175825606,
				"y": -0.805125585,
				"z": -1.7097934208,
				"element": "H" 
			},
			{
				"x": -1.9664441113,
				"y": -0.5721038501,
				"z": -1.6757350232,
				"element": "H" 
			},
			{
				"x": -1.8890738985,
				"y": 1.3553237751,
				"z": -3.0417876567,
				"element": "H" 
			},
			{
				"x": -0.4033061107,
				"y": 0.6096177471,
				"z": -3.6352233038,
				"element": "H" 
			},
			{
				"x": 0.9570822207,
				"y": 1.9479808437,
				"z": -2.0724295752,
				"element": "H" 
			},
			{
				"x": -0.2683362312,
				"y": 3.123940714,
				"z": -2.5812501151,
				"element": "H" 
			},
			{
				"x": 0.0065516351,
				"y": 2.586001957,
				"z": 0.0816945507,
				"element": "H" 
			},
			{
				"x": -1.635213168,
				"y": 2.6461536315,
				"z": -0.6037720915,
				"element": "H" 
			}
		],
		 "valence_orbital": [ 
			{
				"type": "occ",
				"energy": -0.28244,
				"method": "rhf"
			},
			{
				"type": "occ",
				"energy": -0.27518,
				"method": "rhf"
			},
			{
				"type": "occ",
				"energy": -0.25856,
				"method": "rhf"
			},
			{
				"type": "occ",
				"energy": -0.22362,
				"method": "rhf"
			},
			{
				"type": "occ",
				"energy": -0.21077,
				"method": "rhf"
			},
			{
				"type": "unocc",
				"energy": -0.04686,
				"method": "rhf"
			},
			{
				"type": "unocc",
				"energy": -0.01227,
				"method": "rhf"
			},
			{
				"type": "unocc",
				"energy": 0.03027,
				"method": "rhf"
			},
			{
				"type": "unocc",
				"energy": 0.07247,
				"method": "rhf"
			},
			{
				"type": "unocc",
				"energy": 0.09295,
				"method": "rhf"
			}
		],
		"cosmo_sigma_profile": { 
			"-0.025": 0.0,
			"-0.024": 0.0,
			"-0.023": 0.0,
			"-0.022": 0.0,
			"-0.021": 0.0,
			"-0.02": 0.0,
			"-0.019": 0.0,
			"-0.018": 0.0,
			"-0.017": 0.0,
			"-0.016": 0.0,
			"-0.015": 0.0348335708982,
			"-0.014": 1.02578997612,
			"-0.013": 0.996190908857,
			"-0.012": 1.37741467378,
			"-0.011": 2.64969961027,
			"-0.01": 1.84055847016,
			"-0.009": 1.77191178187,
			"-0.008": 1.89937130267,
			"-0.007": 1.90458123423,
			"-0.006": 3.60947874525,
			"-0.005": 11.7587000222,
			"-0.004": 21.288139392,
			"-0.003": 32.3422034806,
			"-0.002": 34.6485488836,
			"-0.001": 37.1501746761,
			"0.0": 30.5981805682,
			"0.001": 12.2970908279,
			"0.002": 6.98453668049,
			"0.003": 5.39544319464,
			"0.004": 5.02415715019,
			"0.005": 5.01757786233,
			"0.006": 4.26526426545,
			"0.007": 4.19326219309,
			"0.008": 3.98020470671,
			"0.009": 3.05044877036,
			"0.01": 3.33255907288,
			"0.011": 3.12919164387,
			"0.012": 4.29496389533,
			"0.013": 6.53739980032,
			"0.014": 4.182246018,
			"0.015": 1.53027476919,
			"0.016": 0.736761874835,
			"0.017": 0.339219632627,
			"0.018": 0.0,
			"0.019": 0.0,
			"0.02": 0.0,
			"0.021": 0.0,
			"0.022": 0.0,
			"0.023": 0.0,
			"0.024": 0.0,
			"0.025": 0.0
		}
	}
}
