{
	 "smiles": "CNC1(CCCCC1)C(O)=O", 
	 "Tm": 583.15, 
	 "num_atms": 26, 
	 "gaussian": { 
		 "optdone": 1, 
		 "sigma_profile": "yes", 
		 "theory": "DFT", 
		 "functional": "B3LYP", 
		 "basiset": "6-31G**", 
		 "properties": { 
			 "R2extent": 1893.5457, 
			 "electric_dipole_moment_norm": 1.23163436945, 
			 "electric_quadrupole_moment_norm": 5.45040964516, 
			 "total_energy": -519.112436792, 
			 "HOMO_LUMO_gap": 0.23067, 
			 "cosmo_polarized_energy": -9.0, 
			 "cosmo_cavitation_energy": 26.07, 
			 "cosmo_dispersion_energy": -19.12, 
			 "cosmo_repulsion_energy": 1.54, 
			 "cosmo_total_nonelectrostatic_energy": 8.49, 
			 "SMD_solvation_energy": 3.44 
		},
		"coords": [
			{
				"x": -0.4252109453,
				"y": 1.9729944038,
				"z": 1.988807928,
				"element": "C" 
			},
			{
				"x": -0.048675083,
				"y": 1.4236503693,
				"z": 0.6855373519,
				"element": "N" 
			},
			{
				"x": 0.0008280888,
				"y": -0.0445050396,
				"z": 0.5279173498,
				"element": "C" 
			},
			{
				"x": 1.0330196841,
				"y": -0.6567452015,
				"z": 1.4954200518,
				"element": "C" 
			},
			{
				"x": 1.2938669313,
				"y": -2.1474026824,
				"z": 1.2229837172,
				"element": "C" 
			},
			{
				"x": 1.7063442512,
				"y": -2.4000216886,
				"z": -0.2338197547,
				"element": "C" 
			},
			{
				"x": 0.6722714811,
				"y": -1.8164527338,
				"z": -1.2067524765,
				"element": "C" 
			},
			{
				"x": 0.4199049455,
				"y": -0.327691937,
				"z": -0.9303005421,
				"element": "C" 
			},
			{
				"x": -1.4268059976,
				"y": -0.5907726655,
				"z": 0.7451111773,
				"element": "C" 
			},
			{
				"x": -1.6709310507,
				"y": -0.9978761721,
				"z": 2.0170741229,
				"element": "O" 
			},
			{
				"x": -2.3047803625,
				"y": -0.5803187762,
				"z": -0.0941747104,
				"element": "O" 
			},
			{
				"x": 0.3407514387,
				"y": 1.736686054,
				"z": 2.7323405276,
				"element": "H" 
			},
			{
				"x": -0.4645656423,
				"y": 3.0625217328,
				"z": 1.8981973953,
				"element": "H" 
			},
			{
				"x": -1.3940189371,
				"y": 1.6281233332,
				"z": 2.3848595974,
				"element": "H" 
			},
			{
				"x": -0.6695293446,
				"y": 1.7942954635,
				"z": -0.0300023436,
				"element": "H" 
			},
			{
				"x": 0.7144668338,
				"y": -0.5222901067,
				"z": 2.5321660529,
				"element": "H" 
			},
			{
				"x": 1.9604194423,
				"y": -0.085397198,
				"z": 1.3628275315,
				"element": "H" 
			},
			{
				"x": 0.3878382966,
				"y": -2.7232275288,
				"z": 1.4534923745,
				"element": "H" 
			},
			{
				"x": 2.0696168767,
				"y": -2.508779,
				"z": 1.9081728593,
				"element": "H" 
			},
			{
				"x": 1.835267878,
				"y": -3.4743224821,
				"z": -0.4116906075,
				"element": "H" 
			},
			{
				"x": 2.6832546739,
				"y": -1.9315654237,
				"z": -0.4199564047,
				"element": "H" 
			},
			{
				"x": -0.2723003156,
				"y": -2.369512549,
				"z": -1.1191574766,
				"element": "H" 
			},
			{
				"x": 1.0066938347,
				"y": -1.9424273172,
				"z": -2.2430474625,
				"element": "H" 
			},
			{
				"x": 1.3332836973,
				"y": 0.2505868031,
				"z": -1.111866313,
				"element": "H" 
			},
			{
				"x": -0.3548985137,
				"y": 0.054720705,
				"z": -1.6028417445,
				"element": "H" 
			},
			{
				"x": -2.6140121615,
				"y": -1.2366703625,
				"z": 2.0402017987,
				"element": "H" 
			}
		],
		 "valence_orbital": [ 
			{
				"type": "occ",
				"energy": -0.31852,
				"method": "rhf"
			},
			{
				"type": "occ",
				"energy": -0.30748,
				"method": "rhf"
			},
			{
				"type": "occ",
				"energy": -0.29741,
				"method": "rhf"
			},
			{
				"type": "occ",
				"energy": -0.27658,
				"method": "rhf"
			},
			{
				"type": "occ",
				"energy": -0.2238,
				"method": "rhf"
			},
			{
				"type": "unocc",
				"energy": 0.00687,
				"method": "rhf"
			},
			{
				"type": "unocc",
				"energy": 0.06992,
				"method": "rhf"
			},
			{
				"type": "unocc",
				"energy": 0.0946,
				"method": "rhf"
			},
			{
				"type": "unocc",
				"energy": 0.10487,
				"method": "rhf"
			},
			{
				"type": "unocc",
				"energy": 0.12045,
				"method": "rhf"
			}
		],
		"cosmo_sigma_profile": { 
			"-0.025": 0.0,
			"-0.024": 0.0,
			"-0.023": 0.0,
			"-0.022": 0.0,
			"-0.021": 0.0,
			"-0.02": 0.0,
			"-0.019": 0.0,
			"-0.018": 0.510654738182,
			"-0.017": 0.86892849188,
			"-0.016": 0.740100904169,
			"-0.015": 0.903917451046,
			"-0.014": 0.482222672699,
			"-0.013": 0.757496797027,
			"-0.012": 0.453524801085,
			"-0.011": 0.894456224467,
			"-0.01": 1.48831129698,
			"-0.009": 1.80315306686,
			"-0.008": 1.82140590299,
			"-0.007": 1.62087416449,
			"-0.006": 2.19996167872,
			"-0.005": 2.86665363002,
			"-0.004": 6.26724370871,
			"-0.003": 15.4672623287,
			"-0.002": 32.2432549522,
			"-0.001": 31.6461245151,
			"0.0": 31.8804070182,
			"0.001": 20.2323881482,
			"0.002": 5.85976190085,
			"0.003": 4.80673108233,
			"0.004": 4.20228459503,
			"0.005": 5.12484344629,
			"0.006": 3.41307538349,
			"0.007": 3.59833129288,
			"0.008": 3.18239577079,
			"0.009": 2.25694548593,
			"0.01": 1.57539552143,
			"0.011": 3.23461618875,
			"0.012": 6.05744691853,
			"0.013": 0.935906128185,
			"0.014": 0.521113608711,
			"0.015": 0.304244163123,
			"0.016": 0.361630946155,
			"0.017": 0.0686184278452,
			"0.018": 0.0,
			"0.019": 0.0,
			"0.02": 0.0,
			"0.021": 0.0,
			"0.022": 0.0,
			"0.023": 0.0,
			"0.024": 0.0,
			"0.025": 0.0
		}
	}
}
