{
	 "smiles": "CC1=C(C=CC=C1)N1C(Cl)=NC2=C(C=CC=C2)C1=O", 
	 "Tm": 572.15, 
	 "num_atms": 30, 
	 "gaussian": { 
		 "optdone": 1, 
		 "sigma_profile": "yes", 
		 "theory": "DFT", 
		 "functional": "B3LYP", 
		 "basiset": "6-31G**", 
		 "properties": { 
			 "R2extent": 5331.8577, 
			 "electric_dipole_moment_norm": 0.279439242055, 
			 "electric_quadrupole_moment_norm": 19.010692803, 
			 "total_energy": -1223.17069019, 
			 "HOMO_LUMO_gap": 0.18586, 
			 "cosmo_polarized_energy": -11.03, 
			 "cosmo_cavitation_energy": 35.84, 
			 "cosmo_dispersion_energy": -25.19, 
			 "cosmo_repulsion_energy": 1.91, 
			 "cosmo_total_nonelectrostatic_energy": 12.56, 
			 "SMD_solvation_energy": 5.05 
		},
		"coords": [
			{
				"x": -1.7231868167,
				"y": 0.8124015293,
				"z": -1.7267139926,
				"element": "C" 
			},
			{
				"x": -1.0794833596,
				"y": 1.8409410284,
				"z": -0.8321984475,
				"element": "C" 
			},
			{
				"x": -0.1582647662,
				"y": 1.4788201923,
				"z": 0.1626095342,
				"element": "C" 
			},
			{
				"x": 0.4658921906,
				"y": 2.4301476081,
				"z": 0.9680149909,
				"element": "C" 
			},
			{
				"x": 0.163291306,
				"y": 3.7809898693,
				"z": 0.808506092,
				"element": "C" 
			},
			{
				"x": -0.7581674092,
				"y": 4.1659160448,
				"z": -0.1650737402,
				"element": "C" 
			},
			{
				"x": -1.3661119385,
				"y": 3.2042268724,
				"z": -0.9723958675,
				"element": "C" 
			},
			{
				"x": 0.1875998358,
				"y": 0.0834679363,
				"z": 0.352231638,
				"element": "N" 
			},
			{
				"x": -0.3684688048,
				"y": -0.7054093075,
				"z": 1.3438327675,
				"element": "C" 
			},
			{
				"x": -1.6192779226,
				"y": 0.0521866232,
				"z": 2.3144742112,
				"element": "Cl" 
			},
			{
				"x": -0.0727187574,
				"y": -1.9214663416,
				"z": 1.6061698136,
				"element": "N" 
			},
			{
				"x": 0.9032330692,
				"y": -2.5312950406,
				"z": 0.8296631819,
				"element": "C" 
			},
			{
				"x": 1.5368204372,
				"y": -1.8541073361,
				"z": -0.2328880107,
				"element": "C" 
			},
			{
				"x": 2.5139485975,
				"y": -2.5018955765,
				"z": -1.005893026,
				"element": "C" 
			},
			{
				"x": 2.8597952614,
				"y": -3.8139911654,
				"z": -0.72077558,
				"element": "C" 
			},
			{
				"x": 2.230041187,
				"y": -4.491987356,
				"z": 0.3389649368,
				"element": "C" 
			},
			{
				"x": 1.2618280722,
				"y": -3.8634204602,
				"z": 1.1077540643,
				"element": "C" 
			},
			{
				"x": 1.1726640014,
				"y": -0.46600627,
				"z": -0.5288271459,
				"element": "C" 
			},
			{
				"x": 1.6354185809,
				"y": 0.2113557037,
				"z": -1.4315878444,
				"element": "O" 
			},
			{
				"x": -2.2100705216,
				"y": 0.0189561514,
				"z": -1.1496279494,
				"element": "H" 
			},
			{
				"x": -0.9736420729,
				"y": 0.3407235162,
				"z": -2.3711792002,
				"element": "H" 
			},
			{
				"x": -2.4786955229,
				"y": 1.2743543583,
				"z": -2.3667814189,
				"element": "H" 
			},
			{
				"x": 1.1822917087,
				"y": 2.1051525805,
				"z": 1.7159549642,
				"element": "H" 
			},
			{
				"x": 0.6454214298,
				"y": 4.5227951748,
				"z": 1.4374178388,
				"element": "H" 
			},
			{
				"x": -1.0028982924,
				"y": 5.2154604985,
				"z": -0.2997692651,
				"element": "H" 
			},
			{
				"x": -2.0783985905,
				"y": 3.5125623183,
				"z": -1.7328630075,
				"element": "H" 
			},
			{
				"x": 2.9790486228,
				"y": -1.9498657623,
				"z": -1.815731633,
				"element": "H" 
			},
			{
				"x": 3.6153862673,
				"y": -4.3194867227,
				"z": -1.3140980974,
				"element": "H" 
			},
			{
				"x": 2.5043943829,
				"y": -5.5200705997,
				"z": 0.5574011893,
				"element": "H" 
			},
			{
				"x": 0.7635098245,
				"y": -4.3698560672,
				"z": 1.9274090039,
				"element": "H" 
			}
		],
		 "valence_orbital": [ 
			{
				"type": "occ",
				"energy": -0.27269,
				"method": "rhf"
			},
			{
				"type": "occ",
				"energy": -0.26694,
				"method": "rhf"
			},
			{
				"type": "occ",
				"energy": -0.25655,
				"method": "rhf"
			},
			{
				"type": "occ",
				"energy": -0.25002,
				"method": "rhf"
			},
			{
				"type": "occ",
				"energy": -0.23605,
				"method": "rhf"
			},
			{
				"type": "unocc",
				"energy": -0.05019,
				"method": "rhf"
			},
			{
				"type": "unocc",
				"energy": -0.0422,
				"method": "rhf"
			},
			{
				"type": "unocc",
				"energy": -0.01691,
				"method": "rhf"
			},
			{
				"type": "unocc",
				"energy": -0.00753,
				"method": "rhf"
			},
			{
				"type": "unocc",
				"energy": 0.01976,
				"method": "rhf"
			}
		],
		"cosmo_sigma_profile": { 
			"-0.025": 0.0,
			"-0.024": 0.0,
			"-0.023": 0.0,
			"-0.022": 0.0,
			"-0.021": 0.0,
			"-0.02": 0.0,
			"-0.019": 0.0,
			"-0.018": 0.0,
			"-0.017": 0.0,
			"-0.016": 0.0,
			"-0.015": 0.0,
			"-0.014": 0.0,
			"-0.013": 0.0,
			"-0.012": 0.0,
			"-0.011": 0.0,
			"-0.01": 0.0,
			"-0.009": 0.0,
			"-0.008": 0.0907013600077,
			"-0.007": 7.07198444553,
			"-0.006": 20.446075647,
			"-0.005": 24.4210677224,
			"-0.004": 24.4578258053,
			"-0.003": 22.173220299,
			"-0.002": 19.331063495,
			"-0.001": 20.7368132114,
			"0.0": 22.319345833,
			"0.001": 23.6755463648,
			"0.002": 26.1780143012,
			"0.003": 27.0101621863,
			"0.004": 15.7915878634,
			"0.005": 10.1944624345,
			"0.006": 3.8552187393,
			"0.007": 3.09035952313,
			"0.008": 3.10784605041,
			"0.009": 2.66783042602,
			"0.01": 3.37434172486,
			"0.011": 3.28459468218,
			"0.012": 5.65569961243,
			"0.013": 1.17388384469,
			"0.014": 0.0680986471822,
			"0.015": 0.0,
			"0.016": 0.0,
			"0.017": 0.0,
			"0.018": 0.0,
			"0.019": 0.0,
			"0.02": 0.0,
			"0.021": 0.0,
			"0.022": 0.0,
			"0.023": 0.0,
			"0.024": 0.0,
			"0.025": 0.0
		}
	}
}
