{
	 "smiles": "COC1=CC=C(Br)C2=C1C(=O)C2", 
	 "Tm": 347.15, 
	 "num_atms": 19, 
	 "gaussian": { 
		 "optdone": 1, 
		 "sigma_profile": "yes", 
		 "theory": "DFT", 
		 "functional": "B3LYP", 
		 "basiset": "6-31G**", 
		 "properties": { 
			 "R2extent": 5108.9024, 
			 "electric_dipole_moment_norm": 1.46814760498, 
			 "electric_quadrupole_moment_norm": 6.59120542465, 
			 "total_energy": -3068.9779694, 
			 "HOMO_LUMO_gap": 0.17028, 
			 "cosmo_polarized_energy": -7.11, 
			 "cosmo_cavitation_energy": 25.7, 
			 "cosmo_dispersion_energy": -19.22, 
			 "cosmo_repulsion_energy": 1.54, 
			 "cosmo_total_nonelectrostatic_energy": 8.02, 
			 "SMD_solvation_energy": 4.38 
		},
		"coords": [
			{
				"x": 2.0996042193,
				"y": 1.9872436392,
				"z": -2.6767005835,
				"element": "C" 
			},
			{
				"x": 1.0464933047,
				"y": 1.6942532427,
				"z": -1.7506250122,
				"element": "O" 
			},
			{
				"x": 0.8850542472,
				"y": 0.4107511216,
				"z": -1.3829540846,
				"element": "C" 
			},
			{
				"x": -0.1528304541,
				"y": 0.1264204138,
				"z": -0.4711514149,
				"element": "C" 
			},
			{
				"x": -0.4066517494,
				"y": -1.1690598315,
				"z": -0.0247354334,
				"element": "C" 
			},
			{
				"x": 0.3619608183,
				"y": -2.2628453479,
				"z": -0.4622738678,
				"element": "C" 
			},
			{
				"x": -0.0046089432,
				"y": -4.0260660223,
				"z": 0.1624019344,
				"element": "Br" 
			},
			{
				"x": 1.3770595951,
				"y": -1.9967989025,
				"z": -1.351864606,
				"element": "C" 
			},
			{
				"x": 1.6433096947,
				"y": -0.6902608518,
				"z": -1.8105641434,
				"element": "C" 
			},
			{
				"x": 2.7741335836,
				"y": -1.1959267867,
				"z": -2.6553666255,
				"element": "C" 
			},
			{
				"x": 3.5858417371,
				"y": -0.7254907771,
				"z": -3.4135929555,
				"element": "O" 
			},
			{
				"x": 2.4879953338,
				"y": -2.6547549945,
				"z": -2.1526019799,
				"element": "C" 
			},
			{
				"x": 1.9508426516,
				"y": 1.4582227091,
				"z": -3.622313067,
				"element": "H" 
			},
			{
				"x": 3.0736923507,
				"y": 1.7046859562,
				"z": -2.2674625025,
				"element": "H" 
			},
			{
				"x": 2.0590297432,
				"y": 3.064349753,
				"z": -2.8390343261,
				"element": "H" 
			},
			{
				"x": -0.7619291022,
				"y": 0.9516189445,
				"z": -0.1168975025,
				"element": "H" 
			},
			{
				"x": -1.2168583253,
				"y": -1.336831518,
				"z": 0.6771060724,
				"element": "H" 
			},
			{
				"x": 2.1746696593,
				"y": -3.3533354128,
				"z": -2.9355610245,
				"element": "H" 
			},
			{
				"x": 3.3019916355,
				"y": -3.1055753348,
				"z": -1.5752088776,
				"element": "H" 
			}
		],
		 "valence_orbital": [ 
			{
				"type": "occ",
				"energy": -0.29877,
				"method": "rhf"
			},
			{
				"type": "occ",
				"energy": -0.29346,
				"method": "rhf"
			},
			{
				"type": "occ",
				"energy": -0.2712,
				"method": "rhf"
			},
			{
				"type": "occ",
				"energy": -0.25942,
				"method": "rhf"
			},
			{
				"type": "occ",
				"energy": -0.23238,
				"method": "rhf"
			},
			{
				"type": "unocc",
				"energy": -0.0621,
				"method": "rhf"
			},
			{
				"type": "unocc",
				"energy": -0.0198,
				"method": "rhf"
			},
			{
				"type": "unocc",
				"energy": 0.00457,
				"method": "rhf"
			},
			{
				"type": "unocc",
				"energy": 0.03682,
				"method": "rhf"
			},
			{
				"type": "unocc",
				"energy": 0.08298,
				"method": "rhf"
			}
		],
		"cosmo_sigma_profile": { 
			"-0.025": 0.0,
			"-0.024": 0.0,
			"-0.023": 0.0,
			"-0.022": 0.0,
			"-0.021": 0.0,
			"-0.02": 0.0,
			"-0.019": 0.0,
			"-0.018": 0.0,
			"-0.017": 0.0,
			"-0.016": 0.0,
			"-0.015": 0.0,
			"-0.014": 0.0,
			"-0.013": 0.0,
			"-0.012": 0.0,
			"-0.011": 0.0,
			"-0.01": 0.0,
			"-0.009": 0.0,
			"-0.008": 1.1639166657,
			"-0.007": 6.57474830772,
			"-0.006": 13.1572460438,
			"-0.005": 15.1653558521,
			"-0.004": 17.3292590476,
			"-0.003": 18.652344612,
			"-0.002": 13.3112218718,
			"-0.001": 13.55426712,
			"0.0": 15.662091135,
			"0.001": 20.1085820542,
			"0.002": 19.6681170559,
			"0.003": 12.5976116955,
			"0.004": 14.9966502932,
			"0.005": 7.22800453206,
			"0.006": 2.18442837877,
			"0.007": 2.88922495042,
			"0.008": 3.76826328026,
			"0.009": 2.87415235103,
			"0.01": 2.92133529892,
			"0.011": 3.87578891403,
			"0.012": 1.57194489496,
			"0.013": 0.135944948139,
			"0.014": 0.0,
			"0.015": 0.0,
			"0.016": 0.0,
			"0.017": 0.0,
			"0.018": 0.0,
			"0.019": 0.0,
			"0.02": 0.0,
			"0.021": 0.0,
			"0.022": 0.0,
			"0.023": 0.0,
			"0.024": 0.0,
			"0.025": 0.0
		}
	}
}
