{
	 "smiles": "CCCCC(=O)N(C)C", 
	 "Tm": 222.15, 
	 "num_atms": 24, 
	 "gaussian": { 
		 "optdone": 1, 
		 "sigma_profile": "yes", 
		 "theory": "DFT", 
		 "functional": "B3LYP", 
		 "basiset": "6-31G**", 
		 "properties": { 
			 "R2extent": 2191.8445, 
			 "electric_dipole_moment_norm": 3.53063238953, 
			 "electric_quadrupole_moment_norm": 15.2059426534, 
			 "total_energy": -405.781613596, 
			 "HOMO_LUMO_gap": 0.26573, 
			 "cosmo_polarized_energy": -9.31, 
			 "cosmo_cavitation_energy": 25.66, 
			 "cosmo_dispersion_energy": -18.24, 
			 "cosmo_repulsion_energy": 1.52, 
			 "cosmo_total_nonelectrostatic_energy": 8.94, 
			 "SMD_solvation_energy": 4.92 
		},
		"coords": [
			{
				"x": 2.2859140204,
				"y": -1.1362339873,
				"z": 2.390898947,
				"element": "C" 
			},
			{
				"x": 1.2745076782,
				"y": -0.0813656887,
				"z": 2.8547919179,
				"element": "C" 
			},
			{
				"x": 0.4616330744,
				"y": 0.5655232964,
				"z": 1.7219387007,
				"element": "C" 
			},
			{
				"x": 1.3052658006,
				"y": 1.4228871643,
				"z": 0.7559590092,
				"element": "C" 
			},
			{
				"x": 0.4304789415,
				"y": 2.2020079642,
				"z": -0.2249208106,
				"element": "C" 
			},
			{
				"x": 0.0551147176,
				"y": 3.3360224884,
				"z": 0.0632258606,
				"element": "O" 
			},
			{
				"x": 0.053390753,
				"y": 1.5944302078,
				"z": -1.4034859088,
				"element": "N" 
			},
			{
				"x": -0.782195101,
				"y": 2.3354709071,
				"z": -2.3375533122,
				"element": "C" 
			},
			{
				"x": 0.4093210233,
				"y": 0.2519727748,
				"z": -1.8266609838,
				"element": "C" 
			},
			{
				"x": 1.7909542808,
				"y": -1.9391618997,
				"z": 1.8314226281,
				"element": "H" 
			},
			{
				"x": 2.7952069926,
				"y": -1.5949296292,
				"z": 3.2446138868,
				"element": "H" 
			},
			{
				"x": 3.0586396037,
				"y": -0.7076047002,
				"z": 1.7439494045,
				"element": "H" 
			},
			{
				"x": 1.7957045418,
				"y": 0.705173539,
				"z": 3.4167305079,
				"element": "H" 
			},
			{
				"x": 0.5741724754,
				"y": -0.5453162622,
				"z": 3.5607795264,
				"element": "H" 
			},
			{
				"x": -0.0690990036,
				"y": -0.2180025417,
				"z": 1.163406149,
				"element": "H" 
			},
			{
				"x": -0.3105158482,
				"y": 1.2118508318,
				"z": 2.1551832812,
				"element": "H" 
			},
			{
				"x": 2.0609706838,
				"y": 0.8159542494,
				"z": 0.2484947149,
				"element": "H" 
			},
			{
				"x": 1.8350478163,
				"y": 2.1882634962,
				"z": 1.3297738032,
				"element": "H" 
			},
			{
				"x": -0.9673029009,
				"y": 3.3236919538,
				"z": -1.9205569769,
				"element": "H" 
			},
			{
				"x": -1.7380498701,
				"y": 1.8192182465,
				"z": -2.4959461298,
				"element": "H" 
			},
			{
				"x": -0.2805240198,
				"y": 2.4323936813,
				"z": -3.309154105,
				"element": "H" 
			},
			{
				"x": 1.0321441088,
				"y": 0.2753946686,
				"z": -2.7319314235,
				"element": "H" 
			},
			{
				"x": -0.4955132539,
				"y": -0.3245178184,
				"z": -2.060719154,
				"element": "H" 
			},
			{
				"x": 0.9529334854,
				"y": -0.2817229424,
				"z": -1.0503395329,
				"element": "H" 
			}
		],
		 "valence_orbital": [ 
			{
				"type": "occ",
				"energy": -0.33309,
				"method": "rhf"
			},
			{
				"type": "occ",
				"energy": -0.32914,
				"method": "rhf"
			},
			{
				"type": "occ",
				"energy": -0.32092,
				"method": "rhf"
			},
			{
				"type": "occ",
				"energy": -0.23551,
				"method": "rhf"
			},
			{
				"type": "occ",
				"energy": -0.232,
				"method": "rhf"
			},
			{
				"type": "unocc",
				"energy": 0.03373,
				"method": "rhf"
			},
			{
				"type": "unocc",
				"energy": 0.07531,
				"method": "rhf"
			},
			{
				"type": "unocc",
				"energy": 0.09651,
				"method": "rhf"
			},
			{
				"type": "unocc",
				"energy": 0.11823,
				"method": "rhf"
			},
			{
				"type": "unocc",
				"energy": 0.12802,
				"method": "rhf"
			}
		],
		"cosmo_sigma_profile": { 
			"-0.025": 0.0,
			"-0.024": 0.0,
			"-0.023": 0.0,
			"-0.022": 0.0,
			"-0.021": 0.0,
			"-0.02": 0.0,
			"-0.019": 0.0,
			"-0.018": 0.0,
			"-0.017": 0.0,
			"-0.016": 0.0,
			"-0.015": 0.0,
			"-0.014": 0.0,
			"-0.013": 0.0,
			"-0.012": 0.0,
			"-0.011": 0.0,
			"-0.01": 0.0,
			"-0.009": 0.0,
			"-0.008": 0.0,
			"-0.007": 0.00293981460272,
			"-0.006": 0.996171130731,
			"-0.005": 6.6927929165,
			"-0.004": 18.6682052912,
			"-0.003": 25.507804053,
			"-0.002": 37.6534145313,
			"-0.001": 32.1004959404,
			"0.0": 24.8760092269,
			"0.001": 17.1993028412,
			"0.002": 8.70255113739,
			"0.003": 2.50376954736,
			"0.004": 1.05539863216,
			"0.005": 2.24088267288,
			"0.006": 1.77507286762,
			"0.007": 1.37970668771,
			"0.008": 1.24214638515,
			"0.009": 1.98405015727,
			"0.01": 0.886393088478,
			"0.011": 1.3569770647,
			"0.012": 1.70368129824,
			"0.013": 1.72878598655,
			"0.014": 4.51772190462,
			"0.015": 3.33055089668,
			"0.016": 0.739249828354,
			"0.017": 0.0,
			"0.018": 0.0,
			"0.019": 0.0,
			"0.02": 0.0,
			"0.021": 0.0,
			"0.022": 0.0,
			"0.023": 0.0,
			"0.024": 0.0,
			"0.025": 0.0
		}
	}
}
