{
	 "smiles": "OC(=O)C1=CC2=C(NC(=N2)C2=CC=C(Cl)C=C2)C=C1", 
	 "Tm": 593.15, 
	 "num_atms": 28, 
	 "gaussian": { 
		 "optdone": 1, 
		 "sigma_profile": "yes", 
		 "theory": "DFT", 
		 "functional": "B3LYP", 
		 "basiset": "6-31G**", 
		 "properties": { 
			 "R2extent": 9872.1401, 
			 "electric_dipole_moment_norm": 4.72784427303, 
			 "electric_quadrupole_moment_norm": 17.6054618298, 
			 "total_energy": -1259.10075973, 
			 "HOMO_LUMO_gap": 0.16317, 
			 "cosmo_polarized_energy": -19.91, 
			 "cosmo_cavitation_energy": 35.51, 
			 "cosmo_dispersion_energy": -26.56, 
			 "cosmo_repulsion_energy": 2.0, 
			 "cosmo_total_nonelectrostatic_energy": 10.95, 
			 "SMD_solvation_energy": 4.76 
		},
		"coords": [
			{
				"x": -6.1148453153,
				"y": -1.2339596713,
				"z": 2.2767499441,
				"element": "O" 
			},
			{
				"x": -5.3469926145,
				"y": -0.6201988851,
				"z": 1.3372807708,
				"element": "C" 
			},
			{
				"x": -5.8281179889,
				"y": -0.1690227211,
				"z": 0.3158695093,
				"element": "O" 
			},
			{
				"x": -3.9078936058,
				"y": -0.5719913108,
				"z": 1.6982193111,
				"element": "C" 
			},
			{
				"x": -3.0380521247,
				"y": 0.0406811731,
				"z": 0.7920086791,
				"element": "C" 
			},
			{
				"x": -1.6814402064,
				"y": 0.0944549269,
				"z": 1.1160637309,
				"element": "C" 
			},
			{
				"x": -1.2260588917,
				"y": -0.4652590505,
				"z": 2.3380679503,
				"element": "C" 
			},
			{
				"x": 0.1333555072,
				"y": -0.2413509566,
				"z": 2.3351845153,
				"element": "N" 
			},
			{
				"x": 0.4431173708,
				"y": 0.4216343756,
				"z": 1.1553442669,
				"element": "C" 
			},
			{
				"x": -0.621130568,
				"y": 0.6338137331,
				"z": 0.4110431982,
				"element": "N" 
			},
			{
				"x": 1.8031896708,
				"y": 0.8314468211,
				"z": 0.7942801675,
				"element": "C" 
			},
			{
				"x": 2.0018228872,
				"y": 1.4971737931,
				"z": -0.4277517648,
				"element": "C" 
			},
			{
				"x": 3.2710680347,
				"y": 1.9072994187,
				"z": -0.818164515,
				"element": "C" 
			},
			{
				"x": 4.3597299893,
				"y": 1.6520508812,
				"z": 0.0184995452,
				"element": "C" 
			},
			{
				"x": 5.9651503569,
				"y": 2.1669554995,
				"z": -0.467990629,
				"element": "Cl" 
			},
			{
				"x": 4.1908585503,
				"y": 0.9936731413,
				"z": 1.2357640049,
				"element": "C" 
			},
			{
				"x": 2.9139957319,
				"y": 0.587231802,
				"z": 1.6166049602,
				"element": "C" 
			},
			{
				"x": -2.0866482524,
				"y": -1.0800537379,
				"z": 3.2513153113,
				"element": "C" 
			},
			{
				"x": -3.4330777919,
				"y": -1.1247142624,
				"z": 2.9128711497,
				"element": "C" 
			},
			{
				"x": -7.0212157294,
				"y": -1.2023841961,
				"z": 1.9296459617,
				"element": "H" 
			},
			{
				"x": -3.4208931302,
				"y": 0.4577443917,
				"z": -0.1322623742,
				"element": "H" 
			},
			{
				"x": 0.7786327669,
				"y": -0.5119831079,
				"z": 3.0597340167,
				"element": "H" 
			},
			{
				"x": 1.1409054887,
				"y": 1.683746147,
				"z": -1.0599917888,
				"element": "H" 
			},
			{
				"x": 3.4203786775,
				"y": 2.4205321284,
				"z": -1.7615481429,
				"element": "H" 
			},
			{
				"x": 5.0457136847,
				"y": 0.8026954311,
				"z": 1.8745476997,
				"element": "H" 
			},
			{
				"x": 2.803905028,
				"y": 0.0758595602,
				"z": 2.5687519825,
				"element": "H" 
			},
			{
				"x": -1.7284260558,
				"y": -1.5053474996,
				"z": 4.1837082123,
				"element": "H" 
			},
			{
				"x": -4.14263147,
				"y": -1.5903278248,
				"z": 3.5862543268,
				"element": "H" 
			}
		],
		 "valence_orbital": [ 
			{
				"type": "occ",
				"energy": -0.27668,
				"method": "rhf"
			},
			{
				"type": "occ",
				"energy": -0.2734,
				"method": "rhf"
			},
			{
				"type": "occ",
				"energy": -0.27144,
				"method": "rhf"
			},
			{
				"type": "occ",
				"energy": -0.2415,
				"method": "rhf"
			},
			{
				"type": "occ",
				"energy": -0.22458,
				"method": "rhf"
			},
			{
				"type": "unocc",
				"energy": -0.06141,
				"method": "rhf"
			},
			{
				"type": "unocc",
				"energy": -0.03497,
				"method": "rhf"
			},
			{
				"type": "unocc",
				"energy": -0.02478,
				"method": "rhf"
			},
			{
				"type": "unocc",
				"energy": 0.00059,
				"method": "rhf"
			},
			{
				"type": "unocc",
				"energy": 0.01963,
				"method": "rhf"
			}
		],
		"cosmo_sigma_profile": { 
			"-0.025": 0.0,
			"-0.024": 0.0,
			"-0.023": 0.0,
			"-0.022": 0.0,
			"-0.021": 0.0,
			"-0.02": 0.0,
			"-0.019": 0.00994050892008,
			"-0.018": 0.694137277936,
			"-0.017": 2.53386421106,
			"-0.016": 2.45104289659,
			"-0.015": 1.63558341397,
			"-0.014": 2.13039027858,
			"-0.013": 1.90948836526,
			"-0.012": 2.66743539529,
			"-0.011": 2.20790830112,
			"-0.01": 2.02568135868,
			"-0.009": 2.75548357387,
			"-0.008": 4.2601352865,
			"-0.007": 9.67319382933,
			"-0.006": 10.3007174229,
			"-0.005": 11.9597162034,
			"-0.004": 9.69291099596,
			"-0.003": 11.2190937723,
			"-0.002": 14.5596358684,
			"-0.001": 16.9047073448,
			"0.0": 23.379075388,
			"0.001": 29.0850954706,
			"0.002": 35.1279548221,
			"0.003": 31.3014340153,
			"0.004": 20.1323641461,
			"0.005": 8.55993709631,
			"0.006": 4.93987418224,
			"0.007": 4.42695476494,
			"0.008": 3.48221826194,
			"0.009": 2.93161753274,
			"0.01": 2.96236566409,
			"0.011": 3.79370922802,
			"0.012": 6.35811577146,
			"0.013": 1.58780153355,
			"0.014": 0.776309624448,
			"0.015": 0.183975248345,
			"0.016": 0.0,
			"0.017": 0.0,
			"0.018": 0.0,
			"0.019": 0.0,
			"0.02": 0.0,
			"0.021": 0.0,
			"0.022": 0.0,
			"0.023": 0.0,
			"0.024": 0.0,
			"0.025": 0.0
		}
	}
}
