{
	 "smiles": "CN1N=C(Br)C(=O)N(C)C1=O", 
	 "Tm": 369.15, 
	 "num_atms": 17, 
	 "gaussian": { 
		 "optdone": 1, 
		 "sigma_profile": "yes", 
		 "theory": "DFT", 
		 "functional": "B3LYP", 
		 "basiset": "6-31G**", 
		 "properties": { 
			 "R2extent": 5053.4535, 
			 "electric_dipole_moment_norm": 2.19286378966, 
			 "electric_quadrupole_moment_norm": 12.5112029669, 
			 "total_energy": -3080.24795637, 
			 "HOMO_LUMO_gap": 0.18012, 
			 "cosmo_polarized_energy": -10.99, 
			 "cosmo_cavitation_energy": 23.87, 
			 "cosmo_dispersion_energy": -18.15, 
			 "cosmo_repulsion_energy": 1.46, 
			 "cosmo_total_nonelectrostatic_energy": 7.17, 
			 "SMD_solvation_energy": 4.01 
		},
		"coords": [
			{
				"x": -0.4178350186,
				"y": -1.6079058943,
				"z": -0.0806872179,
				"element": "C" 
			},
			{
				"x": -0.5656455668,
				"y": -0.458256729,
				"z": 0.8127026042,
				"element": "N" 
			},
			{
				"x": -1.5011201105,
				"y": -0.5493295502,
				"z": 1.7781125852,
				"element": "N" 
			},
			{
				"x": -1.661012484,
				"y": 0.4384579631,
				"z": 2.5821244455,
				"element": "C" 
			},
			{
				"x": -2.9793992069,
				"y": 0.2949775708,
				"z": 3.9329797604,
				"element": "Br" 
			},
			{
				"x": -0.8851124787,
				"y": 1.7007716627,
				"z": 2.5373734604,
				"element": "C" 
			},
			{
				"x": -1.0343807459,
				"y": 2.6379005131,
				"z": 3.2976698611,
				"element": "O" 
			},
			{
				"x": 0.060388017,
				"y": 1.6994354625,
				"z": 1.5020368714,
				"element": "N" 
			},
			{
				"x": 0.9164243687,
				"y": 2.8771179662,
				"z": 1.3158490464,
				"element": "C" 
			},
			{
				"x": 0.2607607797,
				"y": 0.6441416239,
				"z": 0.6110424745,
				"element": "C" 
			},
			{
				"x": 1.0925638937,
				"y": 0.673622106,
				"z": -0.2797101018,
				"element": "O" 
			},
			{
				"x": -0.6060207567,
				"y": -1.3087297908,
				"z": -1.1143118573,
				"element": "H" 
			},
			{
				"x": 0.5957694041,
				"y": -2.0096811119,
				"z": -0.0136213099,
				"element": "H" 
			},
			{
				"x": -1.1443775505,
				"y": -2.3527631066,
				"z": 0.2382289686,
				"element": "H" 
			},
			{
				"x": 0.7657769083,
				"y": 3.2865572331,
				"z": 0.3150569041,
				"element": "H" 
			},
			{
				"x": 1.9647253605,
				"y": 2.590095569,
				"z": 1.4194901504,
				"element": "H" 
			},
			{
				"x": 0.6393951867,
				"y": 3.6041885123,
				"z": 2.0755633547,
				"element": "H" 
			}
		],
		 "valence_orbital": [ 
			{
				"type": "occ",
				"energy": -0.30126,
				"method": "rhf"
			},
			{
				"type": "occ",
				"energy": -0.29261,
				"method": "rhf"
			},
			{
				"type": "occ",
				"energy": -0.29164,
				"method": "rhf"
			},
			{
				"type": "occ",
				"energy": -0.2825,
				"method": "rhf"
			},
			{
				"type": "occ",
				"energy": -0.25469,
				"method": "rhf"
			},
			{
				"type": "unocc",
				"energy": -0.07457,
				"method": "rhf"
			},
			{
				"type": "unocc",
				"energy": -0.00809,
				"method": "rhf"
			},
			{
				"type": "unocc",
				"energy": -0.00523,
				"method": "rhf"
			},
			{
				"type": "unocc",
				"energy": 0.0898,
				"method": "rhf"
			},
			{
				"type": "unocc",
				"energy": 0.10391,
				"method": "rhf"
			}
		],
		"cosmo_sigma_profile": { 
			"-0.025": 0.0,
			"-0.024": 0.0,
			"-0.023": 0.0,
			"-0.022": 0.0,
			"-0.021": 0.0,
			"-0.02": 0.0,
			"-0.019": 0.0,
			"-0.018": 0.0,
			"-0.017": 0.0,
			"-0.016": 0.0,
			"-0.015": 0.0,
			"-0.014": 0.0,
			"-0.013": 0.0,
			"-0.012": 0.0,
			"-0.011": 0.000747885424117,
			"-0.01": 0.497727632714,
			"-0.009": 1.20787025099,
			"-0.008": 2.04212314589,
			"-0.007": 6.72113142753,
			"-0.006": 16.1315185647,
			"-0.005": 20.7078366059,
			"-0.004": 20.0223975081,
			"-0.003": 19.2604879112,
			"-0.002": 11.2599018543,
			"-0.001": 8.20605171147,
			"0.0": 8.74406830029,
			"0.001": 8.71261544616,
			"0.002": 9.11341001614,
			"0.003": 12.4305835075,
			"0.004": 8.67313627699,
			"0.005": 6.4494536739,
			"0.006": 3.84817436599,
			"0.007": 4.22174514386,
			"0.008": 4.0768493976,
			"0.009": 3.81651530742,
			"0.01": 4.47566005174,
			"0.011": 8.65644381982,
			"0.012": 4.92372477325,
			"0.013": 0.0,
			"0.014": 0.0,
			"0.015": 0.0,
			"0.016": 0.0,
			"0.017": 0.0,
			"0.018": 0.0,
			"0.019": 0.0,
			"0.02": 0.0,
			"0.021": 0.0,
			"0.022": 0.0,
			"0.023": 0.0,
			"0.024": 0.0,
			"0.025": 0.0
		}
	}
}
