{
	 "smiles": "NCC(CC1=CC=C(F)C=C1)C(N)=O", 
	 "Tm": 393.15, 
	 "num_atms": 27, 
	 "gaussian": { 
		 "optdone": 1, 
		 "sigma_profile": "yes", 
		 "theory": "DFT", 
		 "functional": "B3LYP", 
		 "basiset": "6-31G**", 
		 "properties": { 
			 "R2extent": 3293.5785, 
			 "electric_dipole_moment_norm": 3.36404438288, 
			 "electric_quadrupole_moment_norm": 17.2778533782, 
			 "total_energy": -673.475034309, 
			 "HOMO_LUMO_gap": 0.21816, 
			 "cosmo_polarized_energy": -16.54, 
			 "cosmo_cavitation_energy": 30.38, 
			 "cosmo_dispersion_energy": -20.98, 
			 "cosmo_repulsion_energy": 1.65, 
			 "cosmo_total_nonelectrostatic_energy": 11.06, 
			 "SMD_solvation_energy": 4.8 
		},
		"coords": [
			{
				"x": 2.727964153,
				"y": 2.5273965949,
				"z": 1.141218132,
				"element": "N" 
			},
			{
				"x": 1.4206762619,
				"y": 1.9090279935,
				"z": 0.9113475901,
				"element": "C" 
			},
			{
				"x": 1.2229443824,
				"y": 0.6893974541,
				"z": 1.8228849549,
				"element": "C" 
			},
			{
				"x": -0.2424452137,
				"y": 0.1634987475,
				"z": 1.8455726098,
				"element": "C" 
			},
			{
				"x": -0.7486055045,
				"y": -0.4201494682,
				"z": 0.5412091171,
				"element": "C" 
			},
			{
				"x": -1.4738245902,
				"y": 0.3578346402,
				"z": -0.3731485996,
				"element": "C" 
			},
			{
				"x": -1.9317604249,
				"y": -0.1731137263,
				"z": -1.5800355326,
				"element": "C" 
			},
			{
				"x": -1.6583807734,
				"y": -1.5049255179,
				"z": -1.8671139203,
				"element": "C" 
			},
			{
				"x": -2.0987890005,
				"y": -2.0298356638,
				"z": -3.0309354688,
				"element": "F" 
			},
			{
				"x": -0.9495543326,
				"y": -2.3132392143,
				"z": -0.9856031231,
				"element": "C" 
			},
			{
				"x": -0.5008888016,
				"y": -1.7636297779,
				"z": 0.2154722304,
				"element": "C" 
			},
			{
				"x": 2.1709860469,
				"y": -0.4939829615,
				"z": 1.5774562866,
				"element": "C" 
			},
			{
				"x": 2.8347280339,
				"y": -0.5315324302,
				"z": 0.3719030788,
				"element": "N" 
			},
			{
				"x": 2.3331323566,
				"y": -1.360002584,
				"z": 2.4253856093,
				"element": "O" 
			},
			{
				"x": 2.8214056648,
				"y": 3.3703602811,
				"z": 0.581266049,
				"element": "H" 
			},
			{
				"x": 3.4691851101,
				"y": 1.894323955,
				"z": 0.850942893,
				"element": "H" 
			},
			{
				"x": 0.6531233584,
				"y": 2.6476241892,
				"z": 1.1732963722,
				"element": "H" 
			},
			{
				"x": 1.2160279645,
				"y": 1.634752514,
				"z": -0.1412747916,
				"element": "H" 
			},
			{
				"x": 1.45760897,
				"y": 1.0142523321,
				"z": 2.8424548681,
				"element": "H" 
			},
			{
				"x": -0.2951698836,
				"y": -0.5966946962,
				"z": 2.6306415779,
				"element": "H" 
			},
			{
				"x": -0.8918686331,
				"y": 0.9904117706,
				"z": 2.1549170695,
				"element": "H" 
			},
			{
				"x": -1.6945429115,
				"y": 1.3954357219,
				"z": -0.1358344718,
				"element": "H" 
			},
			{
				"x": -2.4975894823,
				"y": 0.4234323581,
				"z": -2.2876363462,
				"element": "H" 
			},
			{
				"x": -0.7670026697,
				"y": -3.3520334237,
				"z": -1.2395650886,
				"element": "H" 
			},
			{
				"x": 0.0471151101,
				"y": -2.3879722742,
				"z": 0.9157609116,
				"element": "H" 
			},
			{
				"x": 2.4560937097,
				"y": -0.040347879,
				"z": -0.4244914599,
				"element": "H" 
			},
			{
				"x": 3.3181310992,
				"y": -1.398088935,
				"z": 0.1770094523,
				"element": "H" 
			}
		],
		 "valence_orbital": [ 
			{
				"type": "occ",
				"energy": -0.27678,
				"method": "rhf"
			},
			{
				"type": "occ",
				"energy": -0.26362,
				"method": "rhf"
			},
			{
				"type": "occ",
				"energy": -0.24967,
				"method": "rhf"
			},
			{
				"type": "occ",
				"energy": -0.24333,
				"method": "rhf"
			},
			{
				"type": "occ",
				"energy": -0.23475,
				"method": "rhf"
			},
			{
				"type": "unocc",
				"energy": -0.01659,
				"method": "rhf"
			},
			{
				"type": "unocc",
				"energy": -0.00412,
				"method": "rhf"
			},
			{
				"type": "unocc",
				"energy": 0.02197,
				"method": "rhf"
			},
			{
				"type": "unocc",
				"energy": 0.06097,
				"method": "rhf"
			},
			{
				"type": "unocc",
				"energy": 0.08133,
				"method": "rhf"
			}
		],
		"cosmo_sigma_profile": { 
			"-0.025": 0.0,
			"-0.024": 0.0,
			"-0.023": 0.0,
			"-0.022": 0.0,
			"-0.021": 0.0,
			"-0.02": 0.0,
			"-0.019": 0.0,
			"-0.018": 0.0,
			"-0.017": 0.0,
			"-0.016": 0.0,
			"-0.015": 0.0,
			"-0.014": 0.601962678566,
			"-0.013": 1.94696425739,
			"-0.012": 1.8186927631,
			"-0.011": 2.34356349737,
			"-0.01": 3.22949943528,
			"-0.009": 3.39773814132,
			"-0.008": 3.74588237107,
			"-0.007": 6.45222991309,
			"-0.006": 11.678667059,
			"-0.005": 13.6913033937,
			"-0.004": 20.0748253104,
			"-0.003": 18.2882498495,
			"-0.002": 16.2709770144,
			"-0.001": 16.387663123,
			"0.0": 14.6102834927,
			"0.001": 15.585366562,
			"0.002": 15.5242480046,
			"0.003": 15.0973501274,
			"0.004": 19.4964027996,
			"0.005": 11.0912660374,
			"0.006": 1.97205199276,
			"0.007": 1.78109938356,
			"0.008": 2.93928273986,
			"0.009": 1.15325343339,
			"0.01": 1.25791143774,
			"0.011": 2.73707924664,
			"0.012": 1.9268575165,
			"0.013": 4.04837193237,
			"0.014": 4.94979671574,
			"0.015": 1.8637278354,
			"0.016": 0.867917839697,
			"0.017": 0.398102529083,
			"0.018": 0.690978610221,
			"0.019": 0.345204436902,
			"0.02": 0.196124434077,
			"0.021": 0.0,
			"0.022": 0.0,
			"0.023": 0.0,
			"0.024": 0.0,
			"0.025": 0.0
		}
	}
}
