{
	 "smiles": "CC1=C(Cl)C=C(C=C1)N1C(=O)NC(CCC(O)=O)C1=O", 
	 "Tm": 467.15, 
	 "num_atms": 33, 
	 "gaussian": { 
		 "optdone": 1, 
		 "sigma_profile": "yes", 
		 "theory": "DFT", 
		 "functional": "B3LYP", 
		 "basiset": "6-31G**", 
		 "properties": { 
			 "R2extent": 8500.6689, 
			 "electric_dipole_moment_norm": 5.00951408921, 
			 "electric_quadrupole_moment_norm": 16.9146580326, 
			 "total_energy": -1373.87528051, 
			 "HOMO_LUMO_gap": 0.19945, 
			 "cosmo_polarized_energy": -22.33, 
			 "cosmo_cavitation_energy": 38.43, 
			 "cosmo_dispersion_energy": -27.72, 
			 "cosmo_repulsion_energy": 2.13, 
			 "cosmo_total_nonelectrostatic_energy": 12.84, 
			 "SMD_solvation_energy": 7.65 
		},
		"coords": [
			{
				"x": -0.2013098939,
				"y": -2.3296691029,
				"z": -5.8093791795,
				"element": "C" 
			},
			{
				"x": -0.5463862314,
				"y": -1.8616733104,
				"z": -4.4202660214,
				"element": "C" 
			},
			{
				"x": -0.4865659649,
				"y": -0.5105378847,
				"z": -4.0465601501,
				"element": "C" 
			},
			{
				"x": 0.0051922342,
				"y": 0.6992632897,
				"z": -5.2270901981,
				"element": "Cl" 
			},
			{
				"x": -0.8092011097,
				"y": -0.06988372,
				"z": -2.7661246578,
				"element": "C" 
			},
			{
				"x": -1.1970262355,
				"y": -1.0076502437,
				"z": -1.8052515718,
				"element": "C" 
			},
			{
				"x": -1.2648794701,
				"y": -2.3638984976,
				"z": -2.1335144677,
				"element": "C" 
			},
			{
				"x": -0.947112392,
				"y": -2.7659605941,
				"z": -3.4277986337,
				"element": "C" 
			},
			{
				"x": -1.522836878,
				"y": -0.5733797777,
				"z": -0.4818520135,
				"element": "N" 
			},
			{
				"x": -2.6159257468,
				"y": -1.1201865978,
				"z": 0.2842014369,
				"element": "C" 
			},
			{
				"x": -3.3591499853,
				"y": -2.0043016055,
				"z": -0.0766341454,
				"element": "O" 
			},
			{
				"x": -2.6197589771,
				"y": -0.4343482569,
				"z": 1.4633626826,
				"element": "N" 
			},
			{
				"x": -1.550556741,
				"y": 0.5365021367,
				"z": 1.5886154646,
				"element": "C" 
			},
			{
				"x": -0.5911301512,
				"y": 0.2262520718,
				"z": 2.7627553986,
				"element": "C" 
			},
			{
				"x": 0.6805470182,
				"y": 1.0982961595,
				"z": 2.8368546299,
				"element": "C" 
			},
			{
				"x": 0.3648251454,
				"y": 2.5940174509,
				"z": 2.8772328939,
				"element": "C" 
			},
			{
				"x": 0.1820880429,
				"y": 3.1848719062,
				"z": 1.6779045711,
				"element": "O" 
			},
			{
				"x": 0.2403384469,
				"y": 3.2129454242,
				"z": 3.9078228443,
				"element": "O" 
			},
			{
				"x": -0.8875495897,
				"y": 0.4272206735,
				"z": 0.2147584961,
				"element": "C" 
			},
			{
				"x": 0.0455453544,
				"y": 1.1192947553,
				"z": -0.1799306687,
				"element": "O" 
			},
			{
				"x": 0.827948045,
				"y": -2.0651209811,
				"z": -6.0741302425,
				"element": "H" 
			},
			{
				"x": -0.8498492679,
				"y": -1.8629981479,
				"z": -6.5584600109,
				"element": "H" 
			},
			{
				"x": -0.3091661485,
				"y": -3.4139189449,
				"z": -5.8897128015,
				"element": "H" 
			},
			{
				"x": -0.7425235201,
				"y": 0.9813520198,
				"z": -2.5223530732,
				"element": "H" 
			},
			{
				"x": -1.5809016714,
				"y": -3.0885346902,
				"z": -1.3950448325,
				"element": "H" 
			},
			{
				"x": -1.007221275,
				"y": -3.8207909855,
				"z": -3.6797949199,
				"element": "H" 
			},
			{
				"x": -3.2889824806,
				"y": -0.6601565287,
				"z": 2.1823917078,
				"element": "H" 
			},
			{
				"x": -1.9426052171,
				"y": 1.5565799525,
				"z": 1.690110647,
				"element": "H" 
			},
			{
				"x": -0.3013986885,
				"y": -0.8283968623,
				"z": 2.6997620977,
				"element": "H" 
			},
			{
				"x": -1.1620312471,
				"y": 0.3495173827,
				"z": 3.6901270033,
				"element": "H" 
			},
			{
				"x": 1.3402169633,
				"y": 0.8700322834,
				"z": 1.9949970655,
				"element": "H" 
			},
			{
				"x": 1.2076444593,
				"y": 0.8556770685,
				"z": 3.7618343658,
				"element": "H" 
			},
			{
				"x": 0.3020231732,
				"y": 2.538284157,
				"z": 0.9475662833,
				"element": "H" 
			}
		],
		 "valence_orbital": [ 
			{
				"type": "occ",
				"energy": -0.29449,
				"method": "rhf"
			},
			{
				"type": "occ",
				"energy": -0.29168,
				"method": "rhf"
			},
			{
				"type": "occ",
				"energy": -0.26266,
				"method": "rhf"
			},
			{
				"type": "occ",
				"energy": -0.26209,
				"method": "rhf"
			},
			{
				"type": "occ",
				"energy": -0.24914,
				"method": "rhf"
			},
			{
				"type": "unocc",
				"energy": -0.04969,
				"method": "rhf"
			},
			{
				"type": "unocc",
				"energy": -0.02407,
				"method": "rhf"
			},
			{
				"type": "unocc",
				"energy": -0.02091,
				"method": "rhf"
			},
			{
				"type": "unocc",
				"energy": 0.011,
				"method": "rhf"
			},
			{
				"type": "unocc",
				"energy": 0.02271,
				"method": "rhf"
			}
		],
		"cosmo_sigma_profile": { 
			"-0.025": 0.0,
			"-0.024": 0.0,
			"-0.023": 0.0,
			"-0.022": 0.0,
			"-0.021": 0.0,
			"-0.02": 0.0,
			"-0.019": 0.0,
			"-0.018": 0.0,
			"-0.017": 0.143531866222,
			"-0.016": 1.24561981667,
			"-0.015": 1.39672955702,
			"-0.014": 1.45814519992,
			"-0.013": 0.690044633161,
			"-0.012": 0.824052680411,
			"-0.011": 1.20737763011,
			"-0.01": 1.76528066214,
			"-0.009": 2.90420354677,
			"-0.008": 8.08876155437,
			"-0.007": 9.18088632939,
			"-0.006": 19.2348619548,
			"-0.005": 24.3348301532,
			"-0.004": 24.0265307753,
			"-0.003": 22.0082362527,
			"-0.002": 19.2393348084,
			"-0.001": 19.6349057854,
			"0.0": 20.569517918,
			"0.001": 16.554038436,
			"0.002": 19.3359958854,
			"0.003": 20.258014917,
			"0.004": 14.7776969569,
			"0.005": 7.08810445328,
			"0.006": 5.58668082042,
			"0.007": 5.02850377981,
			"0.008": 4.73932447224,
			"0.009": 5.21236567948,
			"0.01": 6.67229998746,
			"0.011": 8.33538274604,
			"0.012": 10.9004684045,
			"0.013": 4.61286959382,
			"0.014": 0.653316231815,
			"0.015": 0.0,
			"0.016": 0.0,
			"0.017": 0.0,
			"0.018": 0.0,
			"0.019": 0.0,
			"0.02": 0.0,
			"0.021": 0.0,
			"0.022": 0.0,
			"0.023": 0.0,
			"0.024": 0.0,
			"0.025": 0.0
		}
	}
}
