{
	 "smiles": "OC(=O)C1=CC=C(C=C)C=C1", 
	 "Tm": 416.15, 
	 "num_atms": 19, 
	 "gaussian": { 
		 "optdone": 1, 
		 "sigma_profile": "yes", 
		 "theory": "DFT", 
		 "functional": "B3LYP", 
		 "basiset": "6-31G**", 
		 "properties": { 
			 "R2extent": 2724.7626, 
			 "electric_dipole_moment_norm": 4.93873935129, 
			 "electric_quadrupole_moment_norm": 16.3566114422, 
			 "total_energy": -498.217236654, 
			 "HOMO_LUMO_gap": 0.17507, 
			 "cosmo_polarized_energy": -14.11, 
			 "cosmo_cavitation_energy": 23.73, 
			 "cosmo_dispersion_energy": -17.33, 
			 "cosmo_repulsion_energy": 1.37, 
			 "cosmo_total_nonelectrostatic_energy": 7.77, 
			 "SMD_solvation_energy": 5.89 
		},
		"coords": [
			{
				"x": 2.2739669219,
				"y": -2.5652673577,
				"z": 2.7058641198,
				"element": "O" 
			},
			{
				"x": 1.4608520231,
				"y": -2.3751440723,
				"z": 1.6308638382,
				"element": "C" 
			},
			{
				"x": 0.8196486629,
				"y": -3.3004181499,
				"z": 1.1900446225,
				"element": "O" 
			},
			{
				"x": 1.4174173103,
				"y": -0.9946014408,
				"z": 1.0527061374,
				"element": "C" 
			},
			{
				"x": 1.8013762114,
				"y": 0.1512073588,
				"z": 1.7615536134,
				"element": "C" 
			},
			{
				"x": 1.7206133044,
				"y": 1.4070343446,
				"z": 1.1662630141,
				"element": "C" 
			},
			{
				"x": 1.2586899866,
				"y": 1.5607835221,
				"z": -0.1521376874,
				"element": "C" 
			},
			{
				"x": 1.2055371524,
				"y": 2.9113639366,
				"z": -0.7328367232,
				"element": "C" 
			},
			{
				"x": 0.831040832,
				"y": 3.2451424017,
				"z": -1.9741418913,
				"element": "C" 
			},
			{
				"x": 0.8602324762,
				"y": 0.4028800751,
				"z": -0.8496444286,
				"element": "C" 
			},
			{
				"x": 0.9301610992,
				"y": -0.8483488323,
				"z": -0.2558591252,
				"element": "C" 
			},
			{
				"x": 2.8392384402,
				"y": -1.7917349991,
				"z": 2.837074605,
				"element": "H" 
			},
			{
				"x": 2.1288022676,
				"y": 0.0846603962,
				"z": 2.7966117557,
				"element": "H" 
			},
			{
				"x": 2.0136822722,
				"y": 2.2874131223,
				"z": 1.7318215558,
				"element": "H" 
			},
			{
				"x": 1.5130604715,
				"y": 3.7082865877,
				"z": -0.056849182,
				"element": "H" 
			},
			{
				"x": 0.8315156031,
				"y": 4.2816003837,
				"z": -2.2947213558,
				"element": "H" 
			},
			{
				"x": 0.5148248948,
				"y": 2.5140898351,
				"z": -2.712141841,
				"element": "H" 
			},
			{
				"x": 0.4862320399,
				"y": 0.4851965457,
				"z": -1.8650402884,
				"element": "H" 
			},
			{
				"x": 0.6117080304,
				"y": -1.7384436574,
				"z": -0.7877307391,
				"element": "H" 
			}
		],
		 "valence_orbital": [ 
			{
				"type": "occ",
				"energy": -0.32185,
				"method": "rhf"
			},
			{
				"type": "occ",
				"energy": -0.30885,
				"method": "rhf"
			},
			{
				"type": "occ",
				"energy": -0.27431,
				"method": "rhf"
			},
			{
				"type": "occ",
				"energy": -0.2702,
				"method": "rhf"
			},
			{
				"type": "occ",
				"energy": -0.24209,
				"method": "rhf"
			},
			{
				"type": "unocc",
				"energy": -0.06702,
				"method": "rhf"
			},
			{
				"type": "unocc",
				"energy": -0.02158,
				"method": "rhf"
			},
			{
				"type": "unocc",
				"energy": 0.00806,
				"method": "rhf"
			},
			{
				"type": "unocc",
				"energy": 0.05941,
				"method": "rhf"
			},
			{
				"type": "unocc",
				"energy": 0.07533,
				"method": "rhf"
			}
		],
		"cosmo_sigma_profile": { 
			"-0.025": 0.0,
			"-0.024": 0.0,
			"-0.023": 0.0,
			"-0.022": 0.0,
			"-0.021": 0.0,
			"-0.02": 0.0,
			"-0.019": 0.176285834272,
			"-0.018": 0.831211745286,
			"-0.017": 1.00297025193,
			"-0.016": 0.74482771627,
			"-0.015": 0.890696706555,
			"-0.014": 1.18435776135,
			"-0.013": 1.18276662607,
			"-0.012": 0.864483811868,
			"-0.011": 1.0318132093,
			"-0.01": 1.36334531167,
			"-0.009": 1.3867773296,
			"-0.008": 1.92774648773,
			"-0.007": 6.9354531386,
			"-0.006": 12.4171034263,
			"-0.005": 11.9918054447,
			"-0.004": 11.4477683976,
			"-0.003": 11.6433177093,
			"-0.002": 11.0871841276,
			"-0.001": 10.2847814652,
			"0.0": 10.5976836485,
			"0.001": 11.9489774799,
			"0.002": 15.3279548183,
			"0.003": 21.2157009899,
			"0.004": 9.21893747938,
			"0.005": 4.87253092062,
			"0.006": 2.80399932847,
			"0.007": 2.984932907,
			"0.008": 2.62281311121,
			"0.009": 3.46473945606,
			"0.01": 4.5672933834,
			"0.011": 5.1535126378,
			"0.012": 5.32688627215,
			"0.013": 1.72246985999,
			"0.014": 0.103946122113,
			"0.015": 0.0,
			"0.016": 0.0,
			"0.017": 0.0,
			"0.018": 0.0,
			"0.019": 0.0,
			"0.02": 0.0,
			"0.021": 0.0,
			"0.022": 0.0,
			"0.023": 0.0,
			"0.024": 0.0,
			"0.025": 0.0
		}
	}
}
