{
	 "smiles": "NC1=CC(F)=C(F)C(Br)=C1", 
	 "Tm": 341.15, 
	 "num_atms": 14, 
	 "gaussian": { 
		 "optdone": 1, 
		 "sigma_profile": "yes", 
		 "theory": "DFT", 
		 "functional": "B3LYP", 
		 "basiset": "6-31G**", 
		 "properties": { 
			 "R2extent": 4290.6748, 
			 "electric_dipole_moment_norm": 4.26485268562, 
			 "electric_quadrupole_moment_norm": 5.37593071663, 
			 "total_energy": -3056.86298889, 
			 "HOMO_LUMO_gap": 0.19741, 
			 "cosmo_polarized_energy": -8.96, 
			 "cosmo_cavitation_energy": 21.76, 
			 "cosmo_dispersion_energy": -16.39, 
			 "cosmo_repulsion_energy": 1.3, 
			 "cosmo_total_nonelectrostatic_energy": 6.67, 
			 "SMD_solvation_energy": 3.61 
		},
		"coords": [
			{
				"x": 1.1193924387,
				"y": 0.6275243626,
				"z": -0.6041918234,
				"element": "N" 
			},
			{
				"x": -0.0032791348,
				"y": -0.1779317205,
				"z": -0.4250754767,
				"element": "C" 
			},
			{
				"x": -0.1210401186,
				"y": -0.9924513614,
				"z": 0.7150772441,
				"element": "C" 
			},
			{
				"x": -1.2158718352,
				"y": -1.8307062017,
				"z": 0.8471199526,
				"element": "C" 
			},
			{
				"x": -1.333095531,
				"y": -2.6080679609,
				"z": 1.9364473765,
				"element": "F" 
			},
			{
				"x": -2.2162263224,
				"y": -1.895106503,
				"z": -0.1225590389,
				"element": "C" 
			},
			{
				"x": -3.2582854443,
				"y": -2.7209888248,
				"z": 0.0526290769,
				"element": "F" 
			},
			{
				"x": -2.095747186,
				"y": -1.0872371951,
				"z": -1.2486164129,
				"element": "C" 
			},
			{
				"x": -3.4524612351,
				"y": -1.158507988,
				"z": -2.5774142563,
				"element": "Br" 
			},
			{
				"x": -1.0060096045,
				"y": -0.233937329,
				"z": -1.4076384022,
				"element": "C" 
			},
			{
				"x": 1.6001058225,
				"y": 0.8975173602,
				"z": 0.2424286367,
				"element": "H" 
			},
			{
				"x": 0.9981769315,
				"y": 1.4056521116,
				"z": -1.2371407138,
				"element": "H" 
			},
			{
				"x": 0.6309497429,
				"y": -0.9874506668,
				"z": 1.4969510807,
				"element": "H" 
			},
			{
				"x": -0.9369085236,
				"y": 0.3806919168,
				"z": -2.2981172434,
				"element": "H" 
			}
		],
		 "valence_orbital": [ 
			{
				"type": "occ",
				"energy": -0.34051,
				"method": "rhf"
			},
			{
				"type": "occ",
				"energy": -0.29258,
				"method": "rhf"
			},
			{
				"type": "occ",
				"energy": -0.29131,
				"method": "rhf"
			},
			{
				"type": "occ",
				"energy": -0.24997,
				"method": "rhf"
			},
			{
				"type": "occ",
				"energy": -0.21632,
				"method": "rhf"
			},
			{
				"type": "unocc",
				"energy": -0.01891,
				"method": "rhf"
			},
			{
				"type": "unocc",
				"energy": -0.00368,
				"method": "rhf"
			},
			{
				"type": "unocc",
				"energy": 0.00431,
				"method": "rhf"
			},
			{
				"type": "unocc",
				"energy": 0.06608,
				"method": "rhf"
			},
			{
				"type": "unocc",
				"energy": 0.09273,
				"method": "rhf"
			}
		],
		"cosmo_sigma_profile": { 
			"-0.025": 0.0,
			"-0.024": 0.0,
			"-0.023": 0.0,
			"-0.022": 0.0,
			"-0.021": 0.0,
			"-0.02": 0.0,
			"-0.019": 0.0,
			"-0.018": 0.0,
			"-0.017": 0.0,
			"-0.016": 0.0,
			"-0.015": 0.0,
			"-0.014": 0.128381111194,
			"-0.013": 2.49694567482,
			"-0.012": 3.15671205708,
			"-0.011": 3.23023792846,
			"-0.01": 4.04307005432,
			"-0.009": 3.0967015772,
			"-0.008": 4.37739440306,
			"-0.007": 3.94586342684,
			"-0.006": 3.85604569746,
			"-0.005": 4.77487215766,
			"-0.004": 4.56696514186,
			"-0.003": 4.90428870601,
			"-0.002": 5.60020282635,
			"-0.001": 9.66673102514,
			"0.0": 15.8032079632,
			"0.001": 17.7420569604,
			"0.002": 18.6892893984,
			"0.003": 26.9430837004,
			"0.004": 28.7873169329,
			"0.005": 6.14449118473,
			"0.006": 1.28383036155,
			"0.007": 0.662174549063,
			"0.008": 0.503150523128,
			"0.009": 0.535084108888,
			"0.01": 0.99295876842,
			"0.011": 0.468916385439,
			"0.012": 0.798298151376,
			"0.013": 0.498248508708,
			"0.014": 0.188781460888,
			"0.015": 0.0,
			"0.016": 0.0,
			"0.017": 0.0,
			"0.018": 0.0,
			"0.019": 0.0,
			"0.02": 0.0,
			"0.021": 0.0,
			"0.022": 0.0,
			"0.023": 0.0,
			"0.024": 0.0,
			"0.025": 0.0
		}
	}
}
