{
	 "smiles": "OCC1=CC2=C(CCC2)C=C1", 
	 "Tm": 343.15, 
	 "num_atms": 23, 
	 "gaussian": { 
		 "optdone": 1, 
		 "sigma_profile": "yes", 
		 "theory": "DFT", 
		 "functional": "B3LYP", 
		 "basiset": "6-31G**", 
		 "properties": { 
			 "R2extent": 2277.1909, 
			 "electric_dipole_moment_norm": 1.48480590314, 
			 "electric_quadrupole_moment_norm": 13.3214099806, 
			 "total_energy": -463.519011448, 
			 "HOMO_LUMO_gap": 0.22338, 
			 "cosmo_polarized_energy": -7.83, 
			 "cosmo_cavitation_energy": 25.07, 
			 "cosmo_dispersion_energy": -19.01, 
			 "cosmo_repulsion_energy": 1.55, 
			 "cosmo_total_nonelectrostatic_energy": 7.62, 
			 "SMD_solvation_energy": 3.66 
		},
		"coords": [
			{
				"x": -0.8561316204,
				"y": 3.4714587038,
				"z": -2.7709153546,
				"element": "O" 
			},
			{
				"x": -1.1114545599,
				"y": 3.0903719128,
				"z": -1.4250383963,
				"element": "C" 
			},
			{
				"x": -0.6494946179,
				"y": 1.6681105523,
				"z": -1.1960730201,
				"element": "C" 
			},
			{
				"x": -1.2268114568,
				"y": 0.9054967554,
				"z": -0.1709783658,
				"element": "C" 
			},
			{
				"x": -0.759294582,
				"y": -0.3811329834,
				"z": 0.0821212026,
				"element": "C" 
			},
			{
				"x": 0.275384332,
				"y": -0.9262172989,
				"z": -0.6916735986,
				"element": "C" 
			},
			{
				"x": 0.5816748032,
				"y": -2.3411492504,
				"z": -0.245507845,
				"element": "C" 
			},
			{
				"x": -0.0790578936,
				"y": -2.4171463074,
				"z": 1.1547414886,
				"element": "C" 
			},
			{
				"x": -1.235956087,
				"y": -1.3862893214,
				"z": 1.1109707197,
				"element": "C" 
			},
			{
				"x": 0.8438743456,
				"y": -0.1789081555,
				"z": -1.7208278195,
				"element": "C" 
			},
			{
				"x": 0.3832801707,
				"y": 1.118007814,
				"z": -1.9654795491,
				"element": "C" 
			},
			{
				"x": -1.0010449166,
				"y": 4.4224557855,
				"z": -2.8419179232,
				"element": "H" 
			},
			{
				"x": -0.5816181763,
				"y": 3.7602096823,
				"z": -0.7257330106,
				"element": "H" 
			},
			{
				"x": -2.1841802818,
				"y": 3.1669548221,
				"z": -1.1835506285,
				"element": "H" 
			},
			{
				"x": -2.0365498544,
				"y": 1.3240014525,
				"z": 0.4247007087,
				"element": "H" 
			},
			{
				"x": 0.1232134332,
				"y": -3.0658530415,
				"z": -0.9339271195,
				"element": "H" 
			},
			{
				"x": 1.6535359336,
				"y": -2.5659747385,
				"z": -0.2214375602,
				"element": "H" 
			},
			{
				"x": 0.6491636745,
				"y": -2.1081583174,
				"z": 1.9132272523,
				"element": "H" 
			},
			{
				"x": -0.4150209879,
				"y": -3.4250940216,
				"z": 1.4147092348,
				"element": "H" 
			},
			{
				"x": -1.4445058228,
				"y": -0.9405283933,
				"z": 2.0896818689,
				"element": "H" 
			},
			{
				"x": -2.1694996018,
				"y": -1.8605861592,
				"z": 0.775119107,
				"element": "H" 
			},
			{
				"x": 1.644265889,
				"y": -0.5928283629,
				"z": -2.3296501577,
				"element": "H" 
			},
			{
				"x": 0.8145278773,
				"y": 1.7142988707,
				"z": -2.7619612342,
				"element": "H" 
			}
		],
		 "valence_orbital": [ 
			{
				"type": "occ",
				"energy": -0.31931,
				"method": "rhf"
			},
			{
				"type": "occ",
				"energy": -0.31566,
				"method": "rhf"
			},
			{
				"type": "occ",
				"energy": -0.27059,
				"method": "rhf"
			},
			{
				"type": "occ",
				"energy": -0.23404,
				"method": "rhf"
			},
			{
				"type": "occ",
				"energy": -0.21931,
				"method": "rhf"
			},
			{
				"type": "unocc",
				"energy": 0.00407,
				"method": "rhf"
			},
			{
				"type": "unocc",
				"energy": 0.01355,
				"method": "rhf"
			},
			{
				"type": "unocc",
				"energy": 0.07853,
				"method": "rhf"
			},
			{
				"type": "unocc",
				"energy": 0.10311,
				"method": "rhf"
			},
			{
				"type": "unocc",
				"energy": 0.11919,
				"method": "rhf"
			}
		],
		"cosmo_sigma_profile": { 
			"-0.025": 0.0,
			"-0.024": 0.0,
			"-0.023": 0.0,
			"-0.022": 0.0,
			"-0.021": 0.0,
			"-0.02": 0.0,
			"-0.019": 0.0,
			"-0.018": 0.0,
			"-0.017": 0.00671657491853,
			"-0.016": 0.664221013426,
			"-0.015": 1.01899756238,
			"-0.014": 0.966183493137,
			"-0.013": 0.798609601654,
			"-0.012": 0.7090079197,
			"-0.011": 1.40388773303,
			"-0.01": 0.896104202171,
			"-0.009": 0.397525873229,
			"-0.008": 0.688908768635,
			"-0.007": 0.786936678718,
			"-0.006": 2.13693874556,
			"-0.005": 4.99337742157,
			"-0.004": 13.541936536,
			"-0.003": 23.2076389581,
			"-0.002": 25.0732280257,
			"-0.001": 25.4318349054,
			"0.0": 20.8688429149,
			"0.001": 15.891466091,
			"0.002": 7.93910267289,
			"0.003": 7.65978023566,
			"0.004": 7.32256010888,
			"0.005": 8.18872304894,
			"0.006": 8.67697131724,
			"0.007": 7.51486944913,
			"0.008": 1.53440918643,
			"0.009": 1.80202118032,
			"0.01": 1.95182699097,
			"0.011": 1.46741246932,
			"0.012": 1.20976606131,
			"0.013": 0.794659084541,
			"0.014": 1.04816834674,
			"0.015": 0.117050789462,
			"0.016": 0.0,
			"0.017": 0.0,
			"0.018": 0.0,
			"0.019": 0.0,
			"0.02": 0.0,
			"0.021": 0.0,
			"0.022": 0.0,
			"0.023": 0.0,
			"0.024": 0.0,
			"0.025": 0.0
		}
	}
}
