{
	 "smiles": "C1CC2=CC=CC=C2C1", 
	 "Tm": 221.95, 
	 "num_atms": 19, 
	 "gaussian": { 
		 "optdone": 1, 
		 "sigma_profile": "yes", 
		 "theory": "DFT", 
		 "functional": "B3LYP", 
		 "basiset": "6-31G**", 
		 "properties": { 
			 "R2extent": 1878.8316, 
			 "electric_dipole_moment_norm": 0.529510736435, 
			 "electric_quadrupole_moment_norm": 3.58494455327, 
			 "total_energy": -348.99563147, 
			 "HOMO_LUMO_gap": 0.2303, 
			 "cosmo_polarized_energy": -2.85, 
			 "cosmo_cavitation_energy": 21.03, 
			 "cosmo_dispersion_energy": -16.09, 
			 "cosmo_repulsion_energy": 1.32, 
			 "cosmo_total_nonelectrostatic_energy": 6.27, 
			 "SMD_solvation_energy": 2.95 
		},
		"coords": [
			{
				"x": -0.1667190969,
				"y": -1.0413706528,
				"z": -2.3230982817,
				"element": "C" 
			},
			{
				"x": 0.7189085526,
				"y": 0.1918062425,
				"z": -2.0117261806,
				"element": "C" 
			},
			{
				"x": -0.2659765425,
				"y": 1.1800260482,
				"z": -1.4199977836,
				"element": "C" 
			},
			{
				"x": -0.1278361705,
				"y": 2.5539702967,
				"z": -1.230508256,
				"element": "C" 
			},
			{
				"x": -1.1754040824,
				"y": 3.2698090538,
				"z": -0.642076166,
				"element": "C" 
			},
			{
				"x": -2.3447951109,
				"y": 2.6145565566,
				"z": -0.2447615128,
				"element": "C" 
			},
			{
				"x": -2.4814240946,
				"y": 1.2351428164,
				"z": -0.4307992161,
				"element": "C" 
			},
			{
				"x": -1.4391657684,
				"y": 0.5226381583,
				"z": -1.0213379875,
				"element": "C" 
			},
			{
				"x": -1.3388256315,
				"y": -0.9612367081,
				"z": -1.3123272719,
				"element": "C" 
			},
			{
				"x": -0.563250548,
				"y": -0.9509471859,
				"z": -3.3407268205,
				"element": "H" 
			},
			{
				"x": 0.3816051664,
				"y": -1.9860354282,
				"z": -2.2672750355,
				"element": "H" 
			},
			{
				"x": 1.2393945425,
				"y": 0.5750825954,
				"z": -2.8959396271,
				"element": "H" 
			},
			{
				"x": 1.4939885033,
				"y": -0.0595071695,
				"z": -1.2733468256,
				"element": "H" 
			},
			{
				"x": 0.7785486267,
				"y": 3.0678962899,
				"z": -1.5414680058,
				"element": "H" 
			},
			{
				"x": -1.0822100253,
				"y": 4.3426431402,
				"z": -0.4975454228,
				"element": "H" 
			},
			{
				"x": -3.154412637,
				"y": 3.1815153135,
				"z": 0.2064862121,
				"element": "H" 
			},
			{
				"x": -3.3939606208,
				"y": 0.7298300096,
				"z": -0.1237369792,
				"element": "H" 
			},
			{
				"x": -1.0999852086,
				"y": -1.5129801377,
				"z": -0.3916541197,
				"element": "H" 
			},
			{
				"x": -2.2674798537,
				"y": -1.3900392391,
				"z": -1.7039607197,
				"element": "H" 
			}
		],
		 "valence_orbital": [ 
			{
				"type": "occ",
				"energy": -0.32981,
				"method": "rhf"
			},
			{
				"type": "occ",
				"energy": -0.32433,
				"method": "rhf"
			},
			{
				"type": "occ",
				"energy": -0.32053,
				"method": "rhf"
			},
			{
				"type": "occ",
				"energy": -0.23915,
				"method": "rhf"
			},
			{
				"type": "occ",
				"energy": -0.22736,
				"method": "rhf"
			},
			{
				"type": "unocc",
				"energy": 0.00294,
				"method": "rhf"
			},
			{
				"type": "unocc",
				"energy": 0.01133,
				"method": "rhf"
			},
			{
				"type": "unocc",
				"energy": 0.10118,
				"method": "rhf"
			},
			{
				"type": "unocc",
				"energy": 0.10567,
				"method": "rhf"
			},
			{
				"type": "unocc",
				"energy": 0.13374,
				"method": "rhf"
			}
		],
		"cosmo_sigma_profile": { 
			"-0.025": 0.0,
			"-0.024": 0.0,
			"-0.023": 0.0,
			"-0.022": 0.0,
			"-0.021": 0.0,
			"-0.02": 0.0,
			"-0.019": 0.0,
			"-0.018": 0.0,
			"-0.017": 0.0,
			"-0.016": 0.0,
			"-0.015": 0.0,
			"-0.014": 0.0,
			"-0.013": 0.0,
			"-0.012": 0.0,
			"-0.011": 0.0,
			"-0.01": 0.0,
			"-0.009": 0.0,
			"-0.008": 0.0,
			"-0.007": 0.0,
			"-0.006": 0.303440439586,
			"-0.005": 6.57528600815,
			"-0.004": 9.34328912914,
			"-0.003": 21.358888477,
			"-0.002": 24.0368562763,
			"-0.001": 24.9132914365,
			"0.0": 20.9180717012,
			"0.001": 14.9058030207,
			"0.002": 7.91897471263,
			"0.003": 7.31980585165,
			"0.004": 6.79199990831,
			"0.005": 7.62175050428,
			"0.006": 7.23375518829,
			"0.007": 6.25772402648,
			"0.008": 0.575008200804,
			"0.009": 0.0,
			"0.01": 0.0,
			"0.011": 0.0,
			"0.012": 0.0,
			"0.013": 0.0,
			"0.014": 0.0,
			"0.015": 0.0,
			"0.016": 0.0,
			"0.017": 0.0,
			"0.018": 0.0,
			"0.019": 0.0,
			"0.02": 0.0,
			"0.021": 0.0,
			"0.022": 0.0,
			"0.023": 0.0,
			"0.024": 0.0,
			"0.025": 0.0
		}
	}
}
