{
	 "smiles": "BrC(C(=O)C1=CC=C2CCC3=C2C1=CC=C3)C1=CC=CC=C1", 
	 "Tm": 391.15, 
	 "num_atms": 37, 
	 "gaussian": { 
		 "optdone": 1, 
		 "sigma_profile": "yes", 
		 "theory": "DFT", 
		 "functional": "B3LYP", 
		 "basiset": "6-31G**", 
		 "properties": { 
			 "R2extent": 10058.9776, 
			 "electric_dipole_moment_norm": 5.28905043557, 
			 "electric_quadrupole_moment_norm": 16.4136735498, 
			 "total_energy": -3417.81168542, 
			 "HOMO_LUMO_gap": 0.14383, 
			 "cosmo_polarized_energy": -13.33, 
			 "cosmo_cavitation_energy": 41.88, 
			 "cosmo_dispersion_energy": -30.2, 
			 "cosmo_repulsion_energy": 2.3, 
			 "cosmo_total_nonelectrostatic_energy": 13.97, 
			 "SMD_solvation_energy": 5.2 
		},
		"coords": [
			{
				"x": -3.6977674668,
				"y": 1.3864867423,
				"z": -1.7614907017,
				"element": "Br" 
			},
			{
				"x": -1.9809315023,
				"y": 0.4867175094,
				"z": -1.2605828084,
				"element": "C" 
			},
			{
				"x": -1.3421194801,
				"y": 1.2663484286,
				"z": -0.0849929234,
				"element": "C" 
			},
			{
				"x": -2.0475506797,
				"y": 1.680762637,
				"z": 0.8213443264,
				"element": "O" 
			},
			{
				"x": 0.1358110726,
				"y": 1.4531598775,
				"z": -0.0973516831,
				"element": "C" 
			},
			{
				"x": 0.9409340373,
				"y": 0.6434437472,
				"z": -0.9011316638,
				"element": "C" 
			},
			{
				"x": 2.3511274986,
				"y": 0.7336082083,
				"z": -0.942597088,
				"element": "C" 
			},
			{
				"x": 2.9721118535,
				"y": 1.6843173775,
				"z": -0.1621822123,
				"element": "C" 
			},
			{
				"x": 4.4331929146,
				"y": 2.0466732384,
				"z": 0.0141760317,
				"element": "C" 
			},
			{
				"x": 4.4328814437,
				"y": 3.2244059931,
				"z": 1.045280855,
				"element": "C" 
			},
			{
				"x": 2.9694771707,
				"y": 3.4378327102,
				"z": 1.3875683843,
				"element": "C" 
			},
			{
				"x": 2.1804952374,
				"y": 2.5190515346,
				"z": 0.6573108841,
				"element": "C" 
			},
			{
				"x": 0.767393621,
				"y": 2.4438862056,
				"z": 0.7434373638,
				"element": "C" 
			},
			{
				"x": 0.1537315038,
				"y": 3.3724091654,
				"z": 1.6291612748,
				"element": "C" 
			},
			{
				"x": 0.9302255307,
				"y": 4.2734878807,
				"z": 2.3397429033,
				"element": "C" 
			},
			{
				"x": 2.3443205125,
				"y": 4.3233386646,
				"z": 2.2360875406,
				"element": "C" 
			},
			{
				"x": -2.215494302,
				"y": -0.9688641176,
				"z": -0.9471708873,
				"element": "C" 
			},
			{
				"x": -2.7567731118,
				"y": -1.3733986839,
				"z": 0.2825624505,
				"element": "C" 
			},
			{
				"x": -2.9499392352,
				"y": -2.7268584037,
				"z": 0.5514919869,
				"element": "C" 
			},
			{
				"x": -2.6062390428,
				"y": -3.6926040742,
				"z": -0.3983073329,
				"element": "C" 
			},
			{
				"x": -2.0701339619,
				"y": -3.2975953128,
				"z": -1.6246814748,
				"element": "C" 
			},
			{
				"x": -1.8771104048,
				"y": -1.9430601857,
				"z": -1.8969436694,
				"element": "C" 
			},
			{
				"x": -1.3883945019,
				"y": 0.5889265779,
				"z": -2.1660091775,
				"element": "H" 
			},
			{
				"x": 0.4762550197,
				"y": -0.1261991652,
				"z": -1.5074912458,
				"element": "H" 
			},
			{
				"x": 2.9128483695,
				"y": 0.0597240115,
				"z": -1.5829594962,
				"element": "H" 
			},
			{
				"x": 4.8859189325,
				"y": 2.3420318244,
				"z": -0.9391938002,
				"element": "H" 
			},
			{
				"x": 5.0116501878,
				"y": 1.1897916064,
				"z": 0.3781046243,
				"element": "H" 
			},
			{
				"x": 4.8809377786,
				"y": 4.1293623141,
				"z": 0.6194321829,
				"element": "H" 
			},
			{
				"x": 5.0208991442,
				"y": 2.9773503718,
				"z": 1.936394667,
				"element": "H" 
			},
			{
				"x": -0.9198176603,
				"y": 3.3619591734,
				"z": 1.7530890145,
				"element": "H" 
			},
			{
				"x": 0.4335304814,
				"y": 4.9711661611,
				"z": 3.0087361723,
				"element": "H" 
			},
			{
				"x": 2.9049723471,
				"y": 5.0490091016,
				"z": 2.8191357906,
				"element": "H" 
			},
			{
				"x": -3.0285235147,
				"y": -0.6218395716,
				"z": 1.0162043235,
				"element": "H" 
			},
			{
				"x": -3.3703645863,
				"y": -3.0292255708,
				"z": 1.5062309081,
				"element": "H" 
			},
			{
				"x": -2.7580694447,
				"y": -4.7465164389,
				"z": -0.1839512549,
				"element": "H" 
			},
			{
				"x": -1.8046282658,
				"y": -4.0412984263,
				"z": -2.3704467213,
				"element": "H" 
			},
			{
				"x": -1.4706574964,
				"y": -1.6375911119,
				"z": -2.8582075439,
				"element": "H" 
			}
		],
		 "valence_orbital": [ 
			{
				"type": "occ",
				"energy": -0.25537,
				"method": "rhf"
			},
			{
				"type": "occ",
				"energy": -0.2516,
				"method": "rhf"
			},
			{
				"type": "occ",
				"energy": -0.25058,
				"method": "rhf"
			},
			{
				"type": "occ",
				"energy": -0.24277,
				"method": "rhf"
			},
			{
				"type": "occ",
				"energy": -0.21612,
				"method": "rhf"
			},
			{
				"type": "unocc",
				"energy": -0.07229,
				"method": "rhf"
			},
			{
				"type": "unocc",
				"energy": -0.03631,
				"method": "rhf"
			},
			{
				"type": "unocc",
				"energy": -0.01748,
				"method": "rhf"
			},
			{
				"type": "unocc",
				"energy": -0.00993,
				"method": "rhf"
			},
			{
				"type": "unocc",
				"energy": -0.00328,
				"method": "rhf"
			}
		],
		"cosmo_sigma_profile": { 
			"-0.025": 0.0,
			"-0.024": 0.0,
			"-0.023": 0.0,
			"-0.022": 0.0,
			"-0.021": 0.0,
			"-0.02": 0.0,
			"-0.019": 0.0,
			"-0.018": 0.0,
			"-0.017": 0.0,
			"-0.016": 0.0,
			"-0.015": 0.0,
			"-0.014": 0.0,
			"-0.013": 0.0,
			"-0.012": 0.0,
			"-0.011": 0.024510361705,
			"-0.01": 0.828045485596,
			"-0.009": 2.10745212793,
			"-0.008": 2.46777971164,
			"-0.007": 4.43521623187,
			"-0.006": 15.0487810277,
			"-0.005": 24.6397875038,
			"-0.004": 31.2071592005,
			"-0.003": 30.577199515,
			"-0.002": 28.3742903442,
			"-0.001": 24.9604680812,
			"0.0": 21.0516835089,
			"0.001": 20.215762198,
			"0.002": 26.8320598324,
			"0.003": 28.8336757722,
			"0.004": 28.3867199883,
			"0.005": 24.5422594466,
			"0.006": 10.4039167677,
			"0.007": 2.77667095117,
			"0.008": 1.95803345995,
			"0.009": 2.74220918381,
			"0.01": 2.09491604999,
			"0.011": 2.35799166435,
			"0.012": 1.594861616,
			"0.013": 0.355519296439,
			"0.014": 0.0,
			"0.015": 0.0,
			"0.016": 0.0,
			"0.017": 0.0,
			"0.018": 0.0,
			"0.019": 0.0,
			"0.02": 0.0,
			"0.021": 0.0,
			"0.022": 0.0,
			"0.023": 0.0,
			"0.024": 0.0,
			"0.025": 0.0
		}
	}
}
