{
	 "smiles": "CCCCCCCCCCCCOS(=O)(=O)C1=CC=C(C)C=C1", 
	 "Tm": 303.15, 
	 "num_atms": 55, 
	 "gaussian": { 
		 "optdone": 1, 
		 "sigma_profile": "yes", 
		 "theory": "DFT", 
		 "functional": "B3LYP", 
		 "basiset": "6-31G**", 
		 "properties": { 
			 "R2extent": 17269.3567, 
			 "electric_dipole_moment_norm": 4.20696347619, 
			 "electric_quadrupole_moment_norm": 38.2788410928, 
			 "total_energy": -1367.13897567, 
			 "HOMO_LUMO_gap": 0.22531, 
			 "cosmo_polarized_energy": -11.75, 
			 "cosmo_cavitation_energy": 57.13, 
			 "cosmo_dispersion_energy": -38.25, 
			 "cosmo_repulsion_energy": 3.0, 
			 "cosmo_total_nonelectrostatic_energy": 21.87, 
			 "SMD_solvation_energy": 7.36 
		},
		"coords": [
			{
				"x": -0.3516712644,
				"y": -4.3957415068,
				"z": 4.318472391,
				"element": "C" 
			},
			{
				"x": 0.8354812058,
				"y": -5.2111777471,
				"z": 3.7881144613,
				"element": "C" 
			},
			{
				"x": 2.0230119727,
				"y": -4.3771930873,
				"z": 3.2581014859,
				"element": "C" 
			},
			{
				"x": 1.9857573685,
				"y": -4.0090828763,
				"z": 1.7636396729,
				"element": "C" 
			},
			{
				"x": 0.8412177606,
				"y": -3.0895631781,
				"z": 1.3145590766,
				"element": "C" 
			},
			{
				"x": 0.9679496955,
				"y": -2.6611943801,
				"z": -0.1551183199,
				"element": "C" 
			},
			{
				"x": -0.1208100953,
				"y": -1.6899076545,
				"z": -0.6412956016,
				"element": "C" 
			},
			{
				"x": -1.5351235778,
				"y": -2.289627788,
				"z": -0.6847219045,
				"element": "C" 
			},
			{
				"x": -2.5921886944,
				"y": -1.3749331804,
				"z": -1.3268686271,
				"element": "C" 
			},
			{
				"x": -2.8770892145,
				"y": -0.0902408719,
				"z": -0.5336128959,
				"element": "C" 
			},
			{
				"x": -4.055711447,
				"y": 0.7389837595,
				"z": -1.0694000767,
				"element": "C" 
			},
			{
				"x": -3.8830494581,
				"y": 1.2559984012,
				"z": -2.4907611521,
				"element": "C" 
			},
			{
				"x": -2.7099721406,
				"y": 2.1248677879,
				"z": -2.5018436874,
				"element": "O" 
			},
			{
				"x": -2.1372202936,
				"y": 2.5004646992,
				"z": -3.9934998076,
				"element": "S" 
			},
			{
				"x": -1.6202188513,
				"y": 1.277730991,
				"z": -4.6115829541,
				"element": "O" 
			},
			{
				"x": -3.1394879415,
				"y": 3.3058755276,
				"z": -4.6920916814,
				"element": "O" 
			},
			{
				"x": -0.7821859004,
				"y": 3.5340708783,
				"z": -3.4789872489,
				"element": "C" 
			},
			{
				"x": 0.4642929523,
				"y": 2.9560484391,
				"z": -3.2348483088,
				"element": "C" 
			},
			{
				"x": 1.5196987541,
				"y": 3.7751015747,
				"z": -2.8411161152,
				"element": "C" 
			},
			{
				"x": 1.3471986282,
				"y": 5.1591411297,
				"z": -2.6901879413,
				"element": "C" 
			},
			{
				"x": 2.4905641261,
				"y": 6.0333519089,
				"z": -2.2350954452,
				"element": "C" 
			},
			{
				"x": 0.0849625248,
				"y": 5.7105914111,
				"z": -2.9552856582,
				"element": "C" 
			},
			{
				"x": -0.9835390529,
				"y": 4.9087079108,
				"z": -3.3496167979,
				"element": "C" 
			},
			{
				"x": -0.7966187542,
				"y": -3.759197889,
				"z": 3.5484788022,
				"element": "H" 
			},
			{
				"x": -0.0378682804,
				"y": -3.74342288,
				"z": 5.1416756754,
				"element": "H" 
			},
			{
				"x": -1.1403302141,
				"y": -5.0530236081,
				"z": 4.7007654715,
				"element": "H" 
			},
			{
				"x": 0.4930649796,
				"y": -5.8965417669,
				"z": 3.0003926322,
				"element": "H" 
			},
			{
				"x": 1.1943783818,
				"y": -5.8528900989,
				"z": 4.6026951028,
				"element": "H" 
			},
			{
				"x": 2.1189763017,
				"y": -3.4610963078,
				"z": 3.8585611634,
				"element": "H" 
			},
			{
				"x": 2.9483500475,
				"y": -4.9419040387,
				"z": 3.4291076395,
				"element": "H" 
			},
			{
				"x": 2.9398318108,
				"y": -3.5268898159,
				"z": 1.5076828075,
				"element": "H" 
			},
			{
				"x": 1.9519035127,
				"y": -4.9353000628,
				"z": 1.1717370363,
				"element": "H" 
			},
			{
				"x": 0.8206609071,
				"y": -2.192850756,
				"z": 1.9513168887,
				"element": "H" 
			},
			{
				"x": -0.1187425911,
				"y": -3.5961062359,
				"z": 1.4664891507,
				"element": "H" 
			},
			{
				"x": 0.9657971227,
				"y": -3.5558857485,
				"z": -0.7945747439,
				"element": "H" 
			},
			{
				"x": 1.9501925827,
				"y": -2.190523112,
				"z": -0.2996783248,
				"element": "H" 
			},
			{
				"x": -0.1122933041,
				"y": -0.7963591807,
				"z": -0.0027729156,
				"element": "H" 
			},
			{
				"x": 0.1410407961,
				"y": -1.3442386099,
				"z": -1.6509245527,
				"element": "H" 
			},
			{
				"x": -1.4979964199,
				"y": -3.2316479579,
				"z": -1.2491007658,
				"element": "H" 
			},
			{
				"x": -1.8618908349,
				"y": -2.5556784246,
				"z": 0.3295454336,
				"element": "H" 
			},
			{
				"x": -3.5283187139,
				"y": -1.9410153557,
				"z": -1.4344527384,
				"element": "H" 
			},
			{
				"x": -2.2673473876,
				"y": -1.1202424637,
				"z": -2.3443703985,
				"element": "H" 
			},
			{
				"x": -3.0941406072,
				"y": -0.354764204,
				"z": 0.5100688159,
				"element": "H" 
			},
			{
				"x": -1.984483558,
				"y": 0.5440086441,
				"z": -0.5121973234,
				"element": "H" 
			},
			{
				"x": -4.9742818285,
				"y": 0.1361680496,
				"z": -1.0602200013,
				"element": "H" 
			},
			{
				"x": -4.2358938443,
				"y": 1.5939215459,
				"z": -0.4068442129,
				"element": "H" 
			},
			{
				"x": -3.7237501194,
				"y": 0.4391790484,
				"z": -3.2008872377,
				"element": "H" 
			},
			{
				"x": -4.7494374272,
				"y": 1.8421597643,
				"z": -2.8122355683,
				"element": "H" 
			},
			{
				"x": 0.6010502467,
				"y": 1.8885667917,
				"z": -3.3678493074,
				"element": "H" 
			},
			{
				"x": 2.4953470205,
				"y": 3.33438935,
				"z": -2.6547335888,
				"element": "H" 
			},
			{
				"x": 3.4556109229,
				"y": 5.6283392116,
				"z": -2.5527812404,
				"element": "H" 
			},
			{
				"x": 2.5124380869,
				"y": 6.108442282,
				"z": -1.1407517883,
				"element": "H" 
			},
			{
				"x": 2.399520357,
				"y": 7.0494821807,
				"z": -2.6292938369,
				"element": "H" 
			},
			{
				"x": -0.0611937116,
				"y": 6.7829855234,
				"z": -2.8581190822,
				"element": "H" 
			},
			{
				"x": -1.9556425373,
				"y": 5.3357639767,
				"z": -3.5699818564,
				"element": "H" 
			}
		],
		 "valence_orbital": [ 
			{
				"type": "occ",
				"energy": -0.30116,
				"method": "rhf"
			},
			{
				"type": "occ",
				"energy": -0.29537,
				"method": "rhf"
			},
			{
				"type": "occ",
				"energy": -0.28112,
				"method": "rhf"
			},
			{
				"type": "occ",
				"energy": -0.27005,
				"method": "rhf"
			},
			{
				"type": "occ",
				"energy": -0.26455,
				"method": "rhf"
			},
			{
				"type": "unocc",
				"energy": -0.03924,
				"method": "rhf"
			},
			{
				"type": "unocc",
				"energy": -0.02046,
				"method": "rhf"
			},
			{
				"type": "unocc",
				"energy": 0.05181,
				"method": "rhf"
			},
			{
				"type": "unocc",
				"energy": 0.0748,
				"method": "rhf"
			},
			{
				"type": "unocc",
				"energy": 0.08563,
				"method": "rhf"
			}
		],
		"cosmo_sigma_profile": { 
			"-0.025": 0.0,
			"-0.024": 0.0,
			"-0.023": 0.0,
			"-0.022": 0.0,
			"-0.021": 0.0,
			"-0.02": 0.0,
			"-0.019": 0.0,
			"-0.018": 0.0,
			"-0.017": 0.0,
			"-0.016": 0.0,
			"-0.015": 0.0,
			"-0.014": 0.0,
			"-0.013": 0.0,
			"-0.012": 0.0,
			"-0.011": 0.0,
			"-0.01": 0.0,
			"-0.009": 0.0,
			"-0.008": 0.201597023401,
			"-0.007": 4.13033314662,
			"-0.006": 10.2183772271,
			"-0.005": 18.2918800755,
			"-0.004": 23.0328213055,
			"-0.003": 23.4890256551,
			"-0.002": 49.9175841068,
			"-0.001": 77.0113006983,
			"0.0": 78.1302645741,
			"0.001": 63.5934421209,
			"0.002": 34.2116805357,
			"0.003": 18.8382975252,
			"0.004": 5.69131460829,
			"0.005": 3.93896283611,
			"0.006": 4.58193212518,
			"0.007": 3.77328832,
			"0.008": 5.02887183609,
			"0.009": 3.84690985644,
			"0.01": 9.70463725402,
			"0.011": 5.7686196386,
			"0.012": 0.294343362014,
			"0.013": 0.0,
			"0.014": 0.0,
			"0.015": 0.0,
			"0.016": 0.0,
			"0.017": 0.0,
			"0.018": 0.0,
			"0.019": 0.0,
			"0.02": 0.0,
			"0.021": 0.0,
			"0.022": 0.0,
			"0.023": 0.0,
			"0.024": 0.0,
			"0.025": 0.0
		}
	}
}
