{
	 "smiles": "ClS(=O)(=O)CC1=NOC2=C1C=CC=C2", 
	 "Tm": 370.15, 
	 "num_atms": 20, 
	 "gaussian": { 
		 "optdone": 1, 
		 "sigma_profile": "yes", 
		 "theory": "DFT", 
		 "functional": "B3LYP", 
		 "basiset": "6-31G**", 
		 "properties": { 
			 "R2extent": 3605.5937, 
			 "electric_dipole_moment_norm": 5.31192484228, 
			 "electric_quadrupole_moment_norm": 10.6118333407, 
			 "total_energy": -1447.15520676, 
			 "HOMO_LUMO_gap": 0.1676, 
			 "cosmo_polarized_energy": -14.11, 
			 "cosmo_cavitation_energy": 28.26, 
			 "cosmo_dispersion_energy": -21.0, 
			 "cosmo_repulsion_energy": 1.59, 
			 "cosmo_total_nonelectrostatic_energy": 8.84, 
			 "SMD_solvation_energy": 3.18 
		},
		"coords": [
			{
				"x": -0.0438886624,
				"y": -0.5410685846,
				"z": 3.1601579537,
				"element": "Cl" 
			},
			{
				"x": 0.9125778897,
				"y": 1.1905258002,
				"z": 2.3460703375,
				"element": "S" 
			},
			{
				"x": 0.8399971785,
				"y": 2.2252218827,
				"z": 3.3691117275,
				"element": "O" 
			},
			{
				"x": 2.1716645392,
				"y": 0.7484893484,
				"z": 1.7687294561,
				"element": "O" 
			},
			{
				"x": -0.2838418582,
				"y": 1.6563779256,
				"z": 1.0202778504,
				"element": "C" 
			},
			{
				"x": -0.2386268022,
				"y": 0.8094833473,
				"z": -0.2009238136,
				"element": "C" 
			},
			{
				"x": 0.5236061427,
				"y": 1.2082445863,
				"z": -1.1929018467,
				"element": "N" 
			},
			{
				"x": 0.3859798256,
				"y": 0.2808732786,
				"z": -2.2210275772,
				"element": "O" 
			},
			{
				"x": -0.4849741639,
				"y": -0.682863714,
				"z": -1.8212020746,
				"element": "C" 
			},
			{
				"x": -0.9327381512,
				"y": -0.408804356,
				"z": -0.5232765166,
				"element": "C" 
			},
			{
				"x": -1.8626503935,
				"y": -1.2656155326,
				"z": 0.0891555559,
				"element": "C" 
			},
			{
				"x": -2.2971385703,
				"y": -2.3673077659,
				"z": -0.6346996179,
				"element": "C" 
			},
			{
				"x": -1.8229168164,
				"y": -2.6232311601,
				"z": -1.9404513308,
				"element": "C" 
			},
			{
				"x": -0.9054755549,
				"y": -1.7856704413,
				"z": -2.5643226885,
				"element": "C" 
			},
			{
				"x": 0.0281659297,
				"y": 2.6785922136,
				"z": 0.7882701676,
				"element": "H" 
			},
			{
				"x": -1.2588461731,
				"y": 1.6726946918,
				"z": 1.5101490583,
				"element": "H" 
			},
			{
				"x": -2.2215403971,
				"y": -1.0809996936,
				"z": 1.0955121793,
				"element": "H" 
			},
			{
				"x": -3.0133844464,
				"y": -3.050971033,
				"z": -0.1904222937,
				"element": "H" 
			},
			{
				"x": -2.1860468015,
				"y": -3.4981188635,
				"z": -2.4710189984,
				"element": "H" 
			},
			{
				"x": -0.5360227144,
				"y": -1.96935193,
				"z": -3.5664875283,
				"element": "H" 
			}
		],
		 "valence_orbital": [ 
			{
				"type": "occ",
				"energy": -0.33158,
				"method": "rhf"
			},
			{
				"type": "occ",
				"energy": -0.32306,
				"method": "rhf"
			},
			{
				"type": "occ",
				"energy": -0.32236,
				"method": "rhf"
			},
			{
				"type": "occ",
				"energy": -0.27281,
				"method": "rhf"
			},
			{
				"type": "occ",
				"energy": -0.26328,
				"method": "rhf"
			},
			{
				"type": "unocc",
				"energy": -0.09568,
				"method": "rhf"
			},
			{
				"type": "unocc",
				"energy": -0.06424,
				"method": "rhf"
			},
			{
				"type": "unocc",
				"energy": -0.01537,
				"method": "rhf"
			},
			{
				"type": "unocc",
				"energy": -0.00216,
				"method": "rhf"
			},
			{
				"type": "unocc",
				"energy": 0.03824,
				"method": "rhf"
			}
		],
		"cosmo_sigma_profile": { 
			"-0.025": 0.0,
			"-0.024": 0.0,
			"-0.023": 0.0,
			"-0.022": 0.0,
			"-0.021": 0.0,
			"-0.02": 0.0,
			"-0.019": 0.0,
			"-0.018": 0.0,
			"-0.017": 0.0,
			"-0.016": 0.0,
			"-0.015": 0.0,
			"-0.014": 0.115881063504,
			"-0.013": 0.699641986355,
			"-0.012": 2.20414309636,
			"-0.011": 4.22236188614,
			"-0.01": 4.4207937488,
			"-0.009": 3.94790220739,
			"-0.008": 5.65975765601,
			"-0.007": 8.3157857086,
			"-0.006": 12.1869737921,
			"-0.005": 11.1451724819,
			"-0.004": 9.59160076011,
			"-0.003": 9.5397088616,
			"-0.002": 14.0544854469,
			"-0.001": 14.5715928117,
			"0.0": 14.6021327373,
			"0.001": 15.888920173,
			"0.002": 18.9794888843,
			"0.003": 23.4405083906,
			"0.004": 10.2387304639,
			"0.005": 5.54149314642,
			"0.006": 7.22654155146,
			"0.007": 12.6948244069,
			"0.008": 13.8505950659,
			"0.009": 3.91876054345,
			"0.01": 0.83110872081,
			"0.011": 1.20627675362,
			"0.012": 0.758271721379,
			"0.013": 0.168095064632,
			"0.014": 0.0,
			"0.015": 0.0,
			"0.016": 0.0,
			"0.017": 0.0,
			"0.018": 0.0,
			"0.019": 0.0,
			"0.02": 0.0,
			"0.021": 0.0,
			"0.022": 0.0,
			"0.023": 0.0,
			"0.024": 0.0,
			"0.025": 0.0
		}
	}
}
