{
	 "smiles": "OC(=O)CNS(=O)(=O)C1=CC2=C(COC2)C=C1", 
	 "Tm": 493.15, 
	 "num_atms": 28, 
	 "gaussian": { 
		 "optdone": 1, 
		 "sigma_profile": "yes", 
		 "theory": "DFT", 
		 "functional": "B3LYP", 
		 "basiset": "6-31G**", 
		 "properties": { 
			 "R2extent": 6692.8669, 
			 "electric_dipole_moment_norm": 2.73563592059, 
			 "electric_quadrupole_moment_norm": 23.6392449444, 
			 "total_energy": -1216.67215295, 
			 "HOMO_LUMO_gap": 0.20583, 
			 "cosmo_polarized_energy": -20.47, 
			 "cosmo_cavitation_energy": 34.06, 
			 "cosmo_dispersion_energy": -25.09, 
			 "cosmo_repulsion_energy": 1.95, 
			 "cosmo_total_nonelectrostatic_energy": 10.91, 
			 "SMD_solvation_energy": 5.53 
		},
		"coords": [
			{
				"x": 1.3539713252,
				"y": -4.5341792344,
				"z": 0.7650406002,
				"element": "O" 
			},
			{
				"x": 1.5976191465,
				"y": -3.8000324869,
				"z": -0.345855865,
				"element": "C" 
			},
			{
				"x": 1.4189673275,
				"y": -4.2102983424,
				"z": -1.4672594803,
				"element": "O" 
			},
			{
				"x": 2.1807835745,
				"y": -2.4393351262,
				"z": -0.014727522,
				"element": "C" 
			},
			{
				"x": 1.7110451695,
				"y": -1.9416081792,
				"z": 1.2807626185,
				"element": "N" 
			},
			{
				"x": 2.4914820511,
				"y": -0.56933292,
				"z": 1.9014250208,
				"element": "S" 
			},
			{
				"x": 3.8602062737,
				"y": -0.4835241064,
				"z": 1.3747410744,
				"element": "O" 
			},
			{
				"x": 2.2274072782,
				"y": -0.6178200628,
				"z": 3.3415131549,
				"element": "O" 
			},
			{
				"x": 1.5526206165,
				"y": 0.7702565564,
				"z": 1.170542314,
				"element": "C" 
			},
			{
				"x": 2.1431327032,
				"y": 1.5395858795,
				"z": 0.1644046161,
				"element": "C" 
			},
			{
				"x": 1.39084174,
				"y": 2.5781534677,
				"z": -0.3769848896,
				"element": "C" 
			},
			{
				"x": 0.0990338972,
				"y": 2.8398628186,
				"z": 0.079008117,
				"element": "C" 
			},
			{
				"x": -0.4434521896,
				"y": 4.0242016014,
				"z": -0.6776770955,
				"element": "C" 
			},
			{
				"x": 0.5270975606,
				"y": 4.3045483323,
				"z": -1.6888135005,
				"element": "O" 
			},
			{
				"x": 1.7384890748,
				"y": 3.5840729514,
				"z": -1.4447079337,
				"element": "C" 
			},
			{
				"x": -0.476844378,
				"y": 2.0736650391,
				"z": 1.092190063,
				"element": "C" 
			},
			{
				"x": 0.259944541,
				"y": 1.0255872884,
				"z": 1.6431158795,
				"element": "C" 
			},
			{
				"x": 1.0155816463,
				"y": -5.394324024,
				"z": 0.4642829829,
				"element": "H" 
			},
			{
				"x": 3.2762940396,
				"y": -2.5308845804,
				"z": -0.0599223445,
				"element": "H" 
			},
			{
				"x": 1.8754497966,
				"y": -1.7556671692,
				"z": -0.8102376677,
				"element": "H" 
			},
			{
				"x": 1.7129214893,
				"y": -2.6533618607,
				"z": 2.0090402481,
				"element": "H" 
			},
			{
				"x": 3.1563982377,
				"y": 1.3221210112,
				"z": -0.1565374317,
				"element": "H" 
			},
			{
				"x": -0.5793299617,
				"y": 4.8960874192,
				"z": -0.0168871866,
				"element": "H" 
			},
			{
				"x": -1.4088431999,
				"y": 3.8207149488,
				"z": -1.1596037256,
				"element": "H" 
			},
			{
				"x": 2.5358382666,
				"y": 4.2681798851,
				"z": -1.112121196,
				"element": "H" 
			},
			{
				"x": 2.0688381328,
				"y": 3.1206345291,
				"z": -2.3833683103,
				"element": "H" 
			},
			{
				"x": -1.4795958661,
				"y": 2.282170513,
				"z": 1.453922436,
				"element": "H" 
			},
			{
				"x": -0.1530982931,
				"y": 0.4133258514,
				"z": 2.4371150237,
				"element": "H" 
			}
		],
		 "valence_orbital": [ 
			{
				"type": "occ",
				"energy": -0.29714,
				"method": "rhf"
			},
			{
				"type": "occ",
				"energy": -0.2885,
				"method": "rhf"
			},
			{
				"type": "occ",
				"energy": -0.277,
				"method": "rhf"
			},
			{
				"type": "occ",
				"energy": -0.27242,
				"method": "rhf"
			},
			{
				"type": "occ",
				"energy": -0.25002,
				"method": "rhf"
			},
			{
				"type": "unocc",
				"energy": -0.04419,
				"method": "rhf"
			},
			{
				"type": "unocc",
				"energy": -0.02919,
				"method": "rhf"
			},
			{
				"type": "unocc",
				"energy": -0.01129,
				"method": "rhf"
			},
			{
				"type": "unocc",
				"energy": 0.04996,
				"method": "rhf"
			},
			{
				"type": "unocc",
				"energy": 0.06466,
				"method": "rhf"
			}
		],
		"cosmo_sigma_profile": { 
			"-0.025": 0.0,
			"-0.024": 0.0,
			"-0.023": 0.0,
			"-0.022": 0.0,
			"-0.021": 0.0,
			"-0.02": 0.00484072458443,
			"-0.019": 0.698000473117,
			"-0.018": 0.95026936091,
			"-0.017": 1.06217841776,
			"-0.016": 0.657552166735,
			"-0.015": 0.913371763849,
			"-0.014": 0.530030216831,
			"-0.013": 0.52008426249,
			"-0.012": 2.10457993167,
			"-0.011": 1.6826729846,
			"-0.01": 1.06512932076,
			"-0.009": 2.30115794459,
			"-0.008": 5.28012566607,
			"-0.007": 11.0145524229,
			"-0.006": 19.1229190747,
			"-0.005": 24.2792054715,
			"-0.004": 20.3842759878,
			"-0.003": 18.3235631472,
			"-0.002": 15.7792218712,
			"-0.001": 12.8833275606,
			"0.0": 15.358720662,
			"0.001": 14.6668493284,
			"0.002": 17.1566683943,
			"0.003": 10.6653774935,
			"0.004": 8.75824674244,
			"0.005": 7.06171146095,
			"0.006": 5.29602954762,
			"0.007": 5.85496839144,
			"0.008": 6.79010625189,
			"0.009": 6.81937584811,
			"0.01": 11.8466841323,
			"0.011": 14.5143647721,
			"0.012": 4.64197928864,
			"0.013": 1.58693058941,
			"0.014": 0.251402973135,
			"0.015": 0.0,
			"0.016": 0.0,
			"0.017": 0.0,
			"0.018": 0.0,
			"0.019": 0.0,
			"0.02": 0.0,
			"0.021": 0.0,
			"0.022": 0.0,
			"0.023": 0.0,
			"0.024": 0.0,
			"0.025": 0.0
		}
	}
}
