{
	 "smiles": "NC1=NN=C(SC2=NC=CC=C2[N+]([O-])=O)S1", 
	 "Tm": 489.15, 
	 "num_atms": 21, 
	 "gaussian": { 
		 "optdone": 1, 
		 "sigma_profile": "yes", 
		 "theory": "DFT", 
		 "functional": "B3LYP", 
		 "basiset": "6-31G**", 
		 "properties": { 
			 "R2extent": 6187.0662, 
			 "electric_dipole_moment_norm": 1.43261856752, 
			 "electric_quadrupole_moment_norm": 27.7060627262, 
			 "total_energy": -1490.17489762, 
			 "HOMO_LUMO_gap": 0.1301, 
			 "cosmo_polarized_energy": -19.92, 
			 "cosmo_cavitation_energy": 30.37, 
			 "cosmo_dispersion_energy": -22.68, 
			 "cosmo_repulsion_energy": 1.68, 
			 "cosmo_total_nonelectrostatic_energy": 9.36, 
			 "SMD_solvation_energy": 3.45 
		},
		"coords": [
			{
				"x": 1.7609518771,
				"y": -3.8260163349,
				"z": 3.6569914193,
				"element": "N" 
			},
			{
				"x": 1.0262930286,
				"y": -3.4275087171,
				"z": 2.5694374472,
				"element": "C" 
			},
			{
				"x": 1.4730624718,
				"y": -2.5830635596,
				"z": 1.6739470968,
				"element": "N" 
			},
			{
				"x": 0.6187265381,
				"y": -2.4320198985,
				"z": 0.6184223165,
				"element": "N" 
			},
			{
				"x": -0.4774294095,
				"y": -3.1163343267,
				"z": 0.7348562962,
				"element": "C" 
			},
			{
				"x": -1.7781473939,
				"y": -3.1582132724,
				"z": -0.4606034087,
				"element": "S" 
			},
			{
				"x": -1.9546499873,
				"y": -1.4565185408,
				"z": -0.9869926733,
				"element": "C" 
			},
			{
				"x": -2.3002261779,
				"y": -1.405132241,
				"z": -2.2760794788,
				"element": "N" 
			},
			{
				"x": -2.447880579,
				"y": -0.2233651124,
				"z": -2.8769441721,
				"element": "C" 
			},
			{
				"x": -2.1987379755,
				"y": 0.9936849398,
				"z": -2.2415350548,
				"element": "C" 
			},
			{
				"x": -1.8644609415,
				"y": 0.9600010447,
				"z": -0.8941307507,
				"element": "C" 
			},
			{
				"x": -1.7839547723,
				"y": -0.2707363976,
				"z": -0.2432675598,
				"element": "C" 
			},
			{
				"x": -1.5952544089,
				"y": -0.2226448367,
				"z": 1.2120057512,
				"element": "N" 
			},
			{
				"x": -1.0117399021,
				"y": 0.7568727645,
				"z": 1.6716298027,
				"element": "O" 
			},
			{
				"x": -2.0760668449,
				"y": -1.1341240235,
				"z": 1.8823914742,
				"element": "O" 
			},
			{
				"x": -0.5591510131,
				"y": -4.0987525325,
				"z": 2.2017472618,
				"element": "S" 
			},
			{
				"x": 1.2533141123,
				"y": -4.0153722844,
				"z": 4.5095484394,
				"element": "H" 
			},
			{
				"x": 2.5915807882,
				"y": -3.2625459517,
				"z": 3.7913855754,
				"element": "H" 
			},
			{
				"x": -2.76230873,
				"y": -0.2564575113,
				"z": -3.9177095564,
				"element": "H" 
			},
			{
				"x": -2.2806789601,
				"y": 1.9322194494,
				"z": -2.7781020639,
				"element": "H" 
			},
			{
				"x": -1.6861417198,
				"y": 1.8609273426,
				"z": -0.3192981621,
				"element": "H" 
			}
		],
		 "valence_orbital": [ 
			{
				"type": "occ",
				"energy": -0.29047,
				"method": "rhf"
			},
			{
				"type": "occ",
				"energy": -0.28478,
				"method": "rhf"
			},
			{
				"type": "occ",
				"energy": -0.27309,
				"method": "rhf"
			},
			{
				"type": "occ",
				"energy": -0.25975,
				"method": "rhf"
			},
			{
				"type": "occ",
				"energy": -0.22716,
				"method": "rhf"
			},
			{
				"type": "unocc",
				"energy": -0.09706,
				"method": "rhf"
			},
			{
				"type": "unocc",
				"energy": -0.05447,
				"method": "rhf"
			},
			{
				"type": "unocc",
				"energy": -0.03319,
				"method": "rhf"
			},
			{
				"type": "unocc",
				"energy": -0.02218,
				"method": "rhf"
			},
			{
				"type": "unocc",
				"energy": -0.0097,
				"method": "rhf"
			}
		],
		"cosmo_sigma_profile": { 
			"-0.025": 0.0,
			"-0.024": 0.0,
			"-0.023": 0.0,
			"-0.022": 0.0,
			"-0.021": 0.0,
			"-0.02": 0.0,
			"-0.019": 0.0,
			"-0.018": 0.0,
			"-0.017": 0.0,
			"-0.016": 0.248131570097,
			"-0.015": 2.00706541597,
			"-0.014": 3.3865256356,
			"-0.013": 2.21266492176,
			"-0.012": 3.14718177197,
			"-0.011": 2.71754955224,
			"-0.01": 1.94459916778,
			"-0.009": 5.41880976467,
			"-0.008": 10.2063738244,
			"-0.007": 9.37253136409,
			"-0.006": 8.38657180498,
			"-0.005": 8.32644066258,
			"-0.004": 9.53267904747,
			"-0.003": 13.1533416339,
			"-0.002": 17.0575532158,
			"-0.001": 22.2067629635,
			"0.0": 18.8391217135,
			"0.001": 14.4830218838,
			"0.002": 12.0108052874,
			"0.003": 11.2455718497,
			"0.004": 11.6841513099,
			"0.005": 8.26816651429,
			"0.006": 10.2609980718,
			"0.007": 12.9532905206,
			"0.008": 8.4196122171,
			"0.009": 6.24707849769,
			"0.01": 4.43301297787,
			"0.011": 3.75994625987,
			"0.012": 3.11616861657,
			"0.013": 2.72932840569,
			"0.014": 1.03173290146,
			"0.015": 0.298044828036,
			"0.016": 0.0,
			"0.017": 0.0,
			"0.018": 0.0,
			"0.019": 0.0,
			"0.02": 0.0,
			"0.021": 0.0,
			"0.022": 0.0,
			"0.023": 0.0,
			"0.024": 0.0,
			"0.025": 0.0
		}
	}
}
