{
	 "smiles": "OC1=NSN=C1N1CCOCC1", 
	 "Tm": 466.15, 
	 "num_atms": 21, 
	 "gaussian": { 
		 "optdone": 1, 
		 "sigma_profile": "yes", 
		 "theory": "DFT", 
		 "functional": "B3LYP", 
		 "basiset": "6-31G**", 
		 "properties": { 
			 "R2extent": 4078.2724, 
			 "electric_dipole_moment_norm": 1.98218093523, 
			 "electric_quadrupole_moment_norm": 12.538154885, 
			 "total_energy": -946.901438232, 
			 "HOMO_LUMO_gap": 0.17301, 
			 "cosmo_polarized_energy": -11.19, 
			 "cosmo_cavitation_energy": 25.2, 
			 "cosmo_dispersion_energy": -19.99, 
			 "cosmo_repulsion_energy": 1.55, 
			 "cosmo_total_nonelectrostatic_energy": 6.76, 
			 "SMD_solvation_energy": 0.93 
		},
		"coords": [
			{
				"x": -1.9596610903,
				"y": 0.195637111,
				"z": 1.7420965877,
				"element": "O" 
			},
			{
				"x": -1.2981504455,
				"y": 1.1469382449,
				"z": 2.4435917026,
				"element": "C" 
			},
			{
				"x": -1.7537894317,
				"y": 1.6270756957,
				"z": 3.563283007,
				"element": "N" 
			},
			{
				"x": -0.6257643828,
				"y": 2.7384754446,
				"z": 4.1183137355,
				"element": "S" 
			},
			{
				"x": 0.4599613513,
				"y": 2.5927220148,
				"z": 2.8501754819,
				"element": "N" 
			},
			{
				"x": -0.0142770402,
				"y": 1.6949457901,
				"z": 2.0062966377,
				"element": "C" 
			},
			{
				"x": 0.6987934542,
				"y": 1.3095428772,
				"z": 0.8994406943,
				"element": "N" 
			},
			{
				"x": 0.0798773631,
				"y": 0.7283445738,
				"z": -0.3007861077,
				"element": "C" 
			},
			{
				"x": 0.5890993243,
				"y": 1.4514917656,
				"z": -1.5462832113,
				"element": "C" 
			},
			{
				"x": 2.004178721,
				"y": 1.3789950774,
				"z": -1.6928551366,
				"element": "O" 
			},
			{
				"x": 2.7182723072,
				"y": 1.2451886451,
				"z": -0.4659517379,
				"element": "C" 
			},
			{
				"x": 2.0189185462,
				"y": 1.9173889895,
				"z": 0.7091127511,
				"element": "C" 
			},
			{
				"x": -2.7609827191,
				"y": -0.01748142,
				"z": 2.2446396151,
				"element": "H" 
			},
			{
				"x": 0.3120961412,
				"y": -0.3427568229,
				"z": -0.3735197796,
				"element": "H" 
			},
			{
				"x": -1.004611393,
				"y": 0.820508889,
				"z": -0.2459964377,
				"element": "H" 
			},
			{
				"x": 0.1512318296,
				"y": 0.9970847452,
				"z": -2.441909153,
				"element": "H" 
			},
			{
				"x": 0.2656759077,
				"y": 2.5035993977,
				"z": -1.5113624128,
				"element": "H" 
			},
			{
				"x": 3.7006138933,
				"y": 1.7024994471,
				"z": -0.6202111574,
				"element": "H" 
			},
			{
				"x": 2.8780647797,
				"y": 0.1805096152,
				"z": -0.2345523209,
				"element": "H" 
			},
			{
				"x": 2.6071107498,
				"y": 1.7889140065,
				"z": 1.6237511076,
				"element": "H" 
			},
			{
				"x": 1.934742134,
				"y": 3.0006759124,
				"z": 0.5374261343,
				"element": "H" 
			}
		],
		 "valence_orbital": [ 
			{
				"type": "occ",
				"energy": -0.3092,
				"method": "rhf"
			},
			{
				"type": "occ",
				"energy": -0.28693,
				"method": "rhf"
			},
			{
				"type": "occ",
				"energy": -0.26678,
				"method": "rhf"
			},
			{
				"type": "occ",
				"energy": -0.25365,
				"method": "rhf"
			},
			{
				"type": "occ",
				"energy": -0.20359,
				"method": "rhf"
			},
			{
				"type": "unocc",
				"energy": -0.03058,
				"method": "rhf"
			},
			{
				"type": "unocc",
				"energy": 0.01084,
				"method": "rhf"
			},
			{
				"type": "unocc",
				"energy": 0.04801,
				"method": "rhf"
			},
			{
				"type": "unocc",
				"energy": 0.07421,
				"method": "rhf"
			},
			{
				"type": "unocc",
				"energy": 0.08435,
				"method": "rhf"
			}
		],
		"cosmo_sigma_profile": { 
			"-0.025": 0.0,
			"-0.024": 0.0,
			"-0.023": 0.0,
			"-0.022": 0.0,
			"-0.021": 0.0,
			"-0.02": 0.0,
			"-0.019": 0.196640694582,
			"-0.018": 1.23504423294,
			"-0.017": 0.585535327369,
			"-0.016": 0.74689369989,
			"-0.015": 0.836999614282,
			"-0.014": 0.690593438569,
			"-0.013": 0.722501217051,
			"-0.012": 0.389091208421,
			"-0.011": 0.751816566913,
			"-0.01": 1.09340583386,
			"-0.009": 0.459470338526,
			"-0.008": 0.601995242543,
			"-0.007": 0.847525917601,
			"-0.006": 4.54657359842,
			"-0.005": 16.0985370601,
			"-0.004": 25.9185814975,
			"-0.003": 19.4648174951,
			"-0.002": 16.1285254028,
			"-0.001": 13.8867565652,
			"0.0": 11.3739160177,
			"0.001": 12.5908978986,
			"0.002": 11.2019414068,
			"0.003": 12.3138107229,
			"0.004": 11.2529316799,
			"0.005": 6.64538814191,
			"0.006": 5.04358542888,
			"0.007": 5.02765299616,
			"0.008": 4.55427208728,
			"0.009": 2.62587400134,
			"0.01": 3.7039178109,
			"0.011": 3.02062235373,
			"0.012": 2.85859110465,
			"0.013": 3.41691881111,
			"0.014": 0.58738663036,
			"0.015": 0.0,
			"0.016": 0.0,
			"0.017": 0.0,
			"0.018": 0.0,
			"0.019": 0.0,
			"0.02": 0.0,
			"0.021": 0.0,
			"0.022": 0.0,
			"0.023": 0.0,
			"0.024": 0.0,
			"0.025": 0.0
		}
	}
}
