{
	 "smiles": "CCOC(=O)C1=C(NC(=O)CN2CCCCC2)SC2=C1CCCC2", 
	 "Tm": 373.15, 
	 "num_atms": 50, 
	 "gaussian": { 
		 "optdone": 1, 
		 "sigma_profile": "yes", 
		 "theory": "DFT", 
		 "functional": "B3LYP", 
		 "basiset": "6-31G**", 
		 "properties": { 
			 "R2extent": 11068.6145, 
			 "electric_dipole_moment_norm": 3.61434694793, 
			 "electric_quadrupole_moment_norm": 14.3108169658, 
			 "total_energy": -1434.99592924, 
			 "HOMO_LUMO_gap": 0.1615, 
			 "cosmo_polarized_energy": -11.37, 
			 "cosmo_cavitation_energy": 50.25, 
			 "cosmo_dispersion_energy": -35.19, 
			 "cosmo_repulsion_energy": 2.67, 
			 "cosmo_total_nonelectrostatic_energy": 17.73, 
			 "SMD_solvation_energy": 7.72 
		},
		"coords": [
			{
				"x": -0.2929164083,
				"y": -2.7656674312,
				"z": -3.907179269,
				"element": "C" 
			},
			{
				"x": 0.2667825614,
				"y": -2.4573825222,
				"z": -2.5311619415,
				"element": "C" 
			},
			{
				"x": 0.1924807264,
				"y": -1.0267867087,
				"z": -2.3428944165,
				"element": "O" 
			},
			{
				"x": 0.6595942117,
				"y": -0.5604708662,
				"z": -1.1632600248,
				"element": "C" 
			},
			{
				"x": 1.1194192193,
				"y": -1.3215879555,
				"z": -0.3117449232,
				"element": "O" 
			},
			{
				"x": 0.572389011,
				"y": 0.8940739319,
				"z": -1.0221198109,
				"element": "C" 
			},
			{
				"x": 1.0805607933,
				"y": 1.5118990117,
				"z": 0.121274657,
				"element": "C" 
			},
			{
				"x": 1.6679058144,
				"y": 0.8645792416,
				"z": 1.1849130977,
				"element": "N" 
			},
			{
				"x": 2.1496823987,
				"y": 1.4694742189,
				"z": 2.3187605267,
				"element": "C" 
			},
			{
				"x": 2.1179738286,
				"y": 2.6792949199,
				"z": 2.503888148,
				"element": "O" 
			},
			{
				"x": 2.792669959,
				"y": 0.5023614827,
				"z": 3.3181266225,
				"element": "C" 
			},
			{
				"x": 2.3300417336,
				"y": -0.8655955963,
				"z": 3.1776059599,
				"element": "N" 
			},
			{
				"x": 1.0146791081,
				"y": -1.0803081339,
				"z": 3.8065005509,
				"element": "C" 
			},
			{
				"x": 0.6549984571,
				"y": -2.5804211926,
				"z": 3.8653593615,
				"element": "C" 
			},
			{
				"x": 1.3575577133,
				"y": -3.352147929,
				"z": 2.7424813782,
				"element": "C" 
			},
			{
				"x": 2.8903452044,
				"y": -3.2471509899,
				"z": 2.9069530039,
				"element": "C" 
			},
			{
				"x": 3.2930751451,
				"y": -1.9038365914,
				"z": 3.5550125975,
				"element": "C" 
			},
			{
				"x": 0.9027352744,
				"y": 3.2431351766,
				"z": 0.065547407,
				"element": "S" 
			},
			{
				"x": 0.1341483646,
				"y": 3.1392627723,
				"z": -1.5098537964,
				"element": "C" 
			},
			{
				"x": 0.0158761391,
				"y": 1.8548871948,
				"z": -1.9580892277,
				"element": "C" 
			},
			{
				"x": -0.6325908228,
				"y": 1.5489568496,
				"z": -3.2911208282,
				"element": "C" 
			},
			{
				"x": -1.3891569703,
				"y": 2.7640464498,
				"z": -3.8552891935,
				"element": "C" 
			},
			{
				"x": -0.580081641,
				"y": 4.0593338623,
				"z": -3.7148241693,
				"element": "C" 
			},
			{
				"x": -0.3226674448,
				"y": 4.3780869012,
				"z": -2.2324525369,
				"element": "C" 
			},
			{
				"x": -1.3360285489,
				"y": -2.4463425788,
				"z": -3.9877809385,
				"element": "H" 
			},
			{
				"x": -0.2487964934,
				"y": -3.8436346998,
				"z": -4.0915362156,
				"element": "H" 
			},
			{
				"x": 0.2836464387,
				"y": -2.25980455,
				"z": -4.6869377735,
				"element": "H" 
			},
			{
				"x": 1.3097199651,
				"y": -2.7740406536,
				"z": -2.4318162736,
				"element": "H" 
			},
			{
				"x": -0.3018345343,
				"y": -2.9506436208,
				"z": -1.7364905467,
				"element": "H" 
			},
			{
				"x": 1.7232653656,
				"y": -0.1554839141,
				"z": 1.1150738877,
				"element": "H" 
			},
			{
				"x": 2.6353444102,
				"y": 0.9334997439,
				"z": 4.3212052075,
				"element": "H" 
			},
			{
				"x": 3.8721538804,
				"y": 0.5393273466,
				"z": 3.1263088955,
				"element": "H" 
			},
			{
				"x": 0.9929642377,
				"y": -0.6494226105,
				"z": 4.8251138618,
				"element": "H" 
			},
			{
				"x": 0.2679402704,
				"y": -0.5352025544,
				"z": 3.2168711266,
				"element": "H" 
			},
			{
				"x": 0.9568782819,
				"y": -2.9978336293,
				"z": 4.8343646936,
				"element": "H" 
			},
			{
				"x": -0.4324338914,
				"y": -2.6950257868,
				"z": 3.8062589899,
				"element": "H" 
			},
			{
				"x": 1.0467341642,
				"y": -4.4027546727,
				"z": 2.746448853,
				"element": "H" 
			},
			{
				"x": 1.0630607442,
				"y": -2.9328756558,
				"z": 1.7752227062,
				"element": "H" 
			},
			{
				"x": 3.3692642936,
				"y": -3.3433466157,
				"z": 1.9269784003,
				"element": "H" 
			},
			{
				"x": 3.2686109588,
				"y": -4.0663703935,
				"z": 3.530389547,
				"element": "H" 
			},
			{
				"x": 3.3631071721,
				"y": -2.0098794618,
				"z": 4.6538314664,
				"element": "H" 
			},
			{
				"x": 4.286154628,
				"y": -1.5997652072,
				"z": 3.2096515365,
				"element": "H" 
			},
			{
				"x": -1.3125533835,
				"y": 0.6987204348,
				"z": -3.1906312014,
				"element": "H" 
			},
			{
				"x": 0.1376622839,
				"y": 1.2214639864,
				"z": -4.0029757569,
				"element": "H" 
			},
			{
				"x": -2.3411454045,
				"y": 2.8798110525,
				"z": -3.319680202,
				"element": "H" 
			},
			{
				"x": -1.6413201538,
				"y": 2.5809250819,
				"z": -4.9059692399,
				"element": "H" 
			},
			{
				"x": -1.10428366,
				"y": 4.8969672206,
				"z": -4.1884659502,
				"element": "H" 
			},
			{
				"x": 0.3804028622,
				"y": 3.9480151364,
				"z": -4.2347619972,
				"element": "H" 
			},
			{
				"x": -1.2432626679,
				"y": 4.7668270378,
				"z": -1.7724880718,
				"element": "H" 
			},
			{
				"x": 0.4236464047,
				"y": 5.1768334676,
				"z": -2.1390181775,
				"element": "H" 
			}
		],
		 "valence_orbital": [ 
			{
				"type": "occ",
				"energy": -0.27683,
				"method": "rhf"
			},
			{
				"type": "occ",
				"energy": -0.25457,
				"method": "rhf"
			},
			{
				"type": "occ",
				"energy": -0.24128,
				"method": "rhf"
			},
			{
				"type": "occ",
				"energy": -0.21777,
				"method": "rhf"
			},
			{
				"type": "occ",
				"energy": -0.19777,
				"method": "rhf"
			},
			{
				"type": "unocc",
				"energy": -0.03627,
				"method": "rhf"
			},
			{
				"type": "unocc",
				"energy": 0.01877,
				"method": "rhf"
			},
			{
				"type": "unocc",
				"energy": 0.03951,
				"method": "rhf"
			},
			{
				"type": "unocc",
				"energy": 0.0425,
				"method": "rhf"
			},
			{
				"type": "unocc",
				"energy": 0.07698,
				"method": "rhf"
			}
		],
		"cosmo_sigma_profile": { 
			"-0.025": 0.0,
			"-0.024": 0.0,
			"-0.023": 0.0,
			"-0.022": 0.0,
			"-0.021": 0.0,
			"-0.02": 0.0,
			"-0.019": 0.0,
			"-0.018": 0.0,
			"-0.017": 0.0,
			"-0.016": 0.0,
			"-0.015": 0.0,
			"-0.014": 0.0,
			"-0.013": 0.0,
			"-0.012": 0.0,
			"-0.011": 0.0,
			"-0.01": 0.0,
			"-0.009": 0.0,
			"-0.008": 0.0926678298385,
			"-0.007": 2.67826136699,
			"-0.006": 3.07042311921,
			"-0.005": 8.4475832846,
			"-0.004": 22.2850054456,
			"-0.003": 44.638221887,
			"-0.002": 68.6060116145,
			"-0.001": 65.0974430649,
			"0.0": 53.2845775594,
			"0.001": 34.9597504949,
			"0.002": 18.8764750176,
			"0.003": 17.2784955148,
			"0.004": 13.4067958513,
			"0.005": 8.60815941704,
			"0.006": 6.55328875434,
			"0.007": 6.64433134106,
			"0.008": 3.55534351345,
			"0.009": 3.14462906918,
			"0.01": 2.77912293234,
			"0.011": 3.01045606832,
			"0.012": 3.55867021119,
			"0.013": 2.72462134223,
			"0.014": 0.594867626096,
			"0.015": 0.0,
			"0.016": 0.0,
			"0.017": 0.0,
			"0.018": 0.0,
			"0.019": 0.0,
			"0.02": 0.0,
			"0.021": 0.0,
			"0.022": 0.0,
			"0.023": 0.0,
			"0.024": 0.0,
			"0.025": 0.0
		}
	}
}
