{
	 "smiles": "CN(C)C1=CC2=C(C=C1)N=C1C=CC(=O)C=C1S2", 
	 "Tm": 489.15, 
	 "num_atms": 30, 
	 "gaussian": { 
		 "optdone": 1, 
		 "sigma_profile": "yes", 
		 "theory": "DFT", 
		 "functional": "B3LYP", 
		 "basiset": "6-31G**", 
		 "properties": { 
			 "R2extent": 7728.4918, 
			 "electric_dipole_moment_norm": 9.95202225781, 
			 "electric_quadrupole_moment_norm": 24.0999607037, 
			 "total_energy": -1123.60685934, 
			 "HOMO_LUMO_gap": 0.10242, 
			 "cosmo_polarized_energy": -17.47, 
			 "cosmo_cavitation_energy": 35.01, 
			 "cosmo_dispersion_energy": -26.41, 
			 "cosmo_repulsion_energy": 1.94, 
			 "cosmo_total_nonelectrostatic_energy": 10.54, 
			 "SMD_solvation_energy": 4.45 
		},
		"coords": [
			{
				"x": -1.2291217597,
				"y": 1.5829306783,
				"z": 4.2763391426,
				"element": "C" 
			},
			{
				"x": -0.0721233939,
				"y": 1.2418665829,
				"z": 3.4614356524,
				"element": "N" 
			},
			{
				"x": 1.2056937184,
				"y": 1.8854710782,
				"z": 3.7258003891,
				"element": "C" 
			},
			{
				"x": -0.1834931878,
				"y": 0.3135961166,
				"z": 2.453730925,
				"element": "C" 
			},
			{
				"x": 0.9294742729,
				"y": -0.0322591564,
				"z": 1.6537859354,
				"element": "C" 
			},
			{
				"x": 0.8155581246,
				"y": -0.9721308923,
				"z": 0.6329647006,
				"element": "C" 
			},
			{
				"x": -0.4185110584,
				"y": -1.6163484962,
				"z": 0.3584514654,
				"element": "C" 
			},
			{
				"x": -1.5216714965,
				"y": -1.2589812422,
				"z": 1.1682053272,
				"element": "C" 
			},
			{
				"x": -1.4239213186,
				"y": -0.3311345656,
				"z": 2.1812942779,
				"element": "C" 
			},
			{
				"x": -0.637615464,
				"y": -2.5518540576,
				"z": -0.6181954939,
				"element": "N" 
			},
			{
				"x": 0.2909998577,
				"y": -2.9755652004,
				"z": -1.4375707948,
				"element": "C" 
			},
			{
				"x": -0.1052678785,
				"y": -3.9732536656,
				"z": -2.4189163521,
				"element": "C" 
			},
			{
				"x": 0.7616121702,
				"y": -4.4872906387,
				"z": -3.3171756185,
				"element": "C" 
			},
			{
				"x": 2.1741641754,
				"y": -4.0640988768,
				"z": -3.3571363189,
				"element": "C" 
			},
			{
				"x": 2.9728642614,
				"y": -4.5297017411,
				"z": -4.1754424213,
				"element": "O" 
			},
			{
				"x": 2.5727646175,
				"y": -3.0584561984,
				"z": -2.3676507632,
				"element": "C" 
			},
			{
				"x": 1.6945853593,
				"y": -2.5439425324,
				"z": -1.4649703118,
				"element": "C" 
			},
			{
				"x": 2.2596099316,
				"y": -1.333782489,
				"z": -0.3075014142,
				"element": "S" 
			},
			{
				"x": -2.0440003639,
				"y": 2.0019896148,
				"z": 3.6720879582,
				"element": "H" 
			},
			{
				"x": -1.6186493505,
				"y": 0.7111263036,
				"z": 4.8178613226,
				"element": "H" 
			},
			{
				"x": -0.9386327657,
				"y": 2.3323816526,
				"z": 5.0125697601,
				"element": "H" 
			},
			{
				"x": 1.5637076967,
				"y": 2.4512082054,
				"z": 2.8556281459,
				"element": "H" 
			},
			{
				"x": 1.0915754819,
				"y": 2.5829274141,
				"z": 4.5555710319,
				"element": "H" 
			},
			{
				"x": 1.9794749483,
				"y": 1.1565787041,
				"z": 4.0006928234,
				"element": "H" 
			},
			{
				"x": 1.8920190083,
				"y": 0.4333032352,
				"z": 1.8264340448,
				"element": "H" 
			},
			{
				"x": -2.4647520298,
				"y": -1.7527709449,
				"z": 0.9571158468,
				"element": "H" 
			},
			{
				"x": -2.3025049213,
				"y": -0.0979693617,
				"z": 2.7685397003,
				"element": "H" 
			},
			{
				"x": -1.147252624,
				"y": -4.2761747036,
				"z": -2.3788590262,
				"element": "H" 
			},
			{
				"x": 0.459592187,
				"y": -5.2318471258,
				"z": -4.0472031201,
				"element": "H" 
			},
			{
				"x": 3.6126218017,
				"y": -2.7461176971,
				"z": -2.3961868145,
				"element": "H" 
			}
		],
		 "valence_orbital": [ 
			{
				"type": "occ",
				"energy": -0.26702,
				"method": "rhf"
			},
			{
				"type": "occ",
				"energy": -0.26166,
				"method": "rhf"
			},
			{
				"type": "occ",
				"energy": -0.22733,
				"method": "rhf"
			},
			{
				"type": "occ",
				"energy": -0.22317,
				"method": "rhf"
			},
			{
				"type": "occ",
				"energy": -0.19806,
				"method": "rhf"
			},
			{
				"type": "unocc",
				"energy": -0.09564,
				"method": "rhf"
			},
			{
				"type": "unocc",
				"energy": -0.02201,
				"method": "rhf"
			},
			{
				"type": "unocc",
				"energy": -0.00783,
				"method": "rhf"
			},
			{
				"type": "unocc",
				"energy": 0.00743,
				"method": "rhf"
			},
			{
				"type": "unocc",
				"energy": 0.01916,
				"method": "rhf"
			}
		],
		"cosmo_sigma_profile": { 
			"-0.025": 0.0,
			"-0.024": 0.0,
			"-0.023": 0.0,
			"-0.022": 0.0,
			"-0.021": 0.0,
			"-0.02": 0.0,
			"-0.019": 0.0,
			"-0.018": 0.0,
			"-0.017": 0.0,
			"-0.016": 0.0,
			"-0.015": 0.0,
			"-0.014": 0.0,
			"-0.013": 0.0,
			"-0.012": 0.0,
			"-0.011": 0.0,
			"-0.01": 0.0,
			"-0.009": 0.0,
			"-0.008": 1.90080295252,
			"-0.007": 9.04485202335,
			"-0.006": 17.9184157754,
			"-0.005": 24.7854337267,
			"-0.004": 22.8120827563,
			"-0.003": 23.1585300496,
			"-0.002": 23.087659323,
			"-0.001": 15.1324938796,
			"0.0": 21.2063786519,
			"0.001": 28.8099822303,
			"0.002": 32.1579664334,
			"0.003": 21.3913328653,
			"0.004": 8.73262681814,
			"0.005": 2.76093220364,
			"0.006": 3.76539813102,
			"0.007": 1.83802099478,
			"0.008": 2.9127350932,
			"0.009": 2.38276353043,
			"0.01": 1.64113657874,
			"0.011": 2.4214908381,
			"0.012": 2.77448475228,
			"0.013": 3.30949269002,
			"0.014": 5.24493953078,
			"0.015": 2.95503855737,
			"0.016": 0.31361103514,
			"0.017": 0.0,
			"0.018": 0.0,
			"0.019": 0.0,
			"0.02": 0.0,
			"0.021": 0.0,
			"0.022": 0.0,
			"0.023": 0.0,
			"0.024": 0.0,
			"0.025": 0.0
		}
	}
}
