{
	 "smiles": "NC1=CC=C(C=C1)S(=O)(=O)NC1=NN=C(Cl)C=C1", 
	 "Tm": 460.15, 
	 "num_atms": 27, 
	 "gaussian": { 
		 "optdone": 1, 
		 "sigma_profile": "yes", 
		 "theory": "DFT", 
		 "functional": "B3LYP", 
		 "basiset": "6-31G**", 
		 "properties": { 
			 "R2extent": 6784.0692, 
			 "electric_dipole_moment_norm": 4.8867525188, 
			 "electric_quadrupole_moment_norm": 44.9394114983, 
			 "total_energy": -1614.2127885, 
			 "HOMO_LUMO_gap": 0.15696, 
			 "cosmo_polarized_energy": -26.78, 
			 "cosmo_cavitation_energy": 35.49, 
			 "cosmo_dispersion_energy": -26.32, 
			 "cosmo_repulsion_energy": 2.0, 
			 "cosmo_total_nonelectrostatic_energy": 11.18, 
			 "SMD_solvation_energy": 3.74 
		},
		"coords": [
			{
				"x": -0.7024044879,
				"y": 4.6337542979,
				"z": 0.3109009149,
				"element": "N" 
			},
			{
				"x": -0.081472727,
				"y": 3.4159573887,
				"z": 0.512040199,
				"element": "C" 
			},
			{
				"x": 0.1916833417,
				"y": 2.5622316673,
				"z": -0.5767760326,
				"element": "C" 
			},
			{
				"x": 0.7725792893,
				"y": 1.3193239402,
				"z": -0.3758792598,
				"element": "C" 
			},
			{
				"x": 1.0877662999,
				"y": 0.9110061443,
				"z": 0.9250353251,
				"element": "C" 
			},
			{
				"x": 0.8296645865,
				"y": 1.7431663976,
				"z": 2.0196838057,
				"element": "C" 
			},
			{
				"x": 0.2495364469,
				"y": 2.9862761251,
				"z": 1.8137636561,
				"element": "C" 
			},
			{
				"x": 1.8708386083,
				"y": -0.6529637418,
				"z": 1.200688531,
				"element": "S" 
			},
			{
				"x": 2.6419119002,
				"y": -1.0268434647,
				"z": 0.0193944036,
				"element": "O" 
			},
			{
				"x": 2.4638219566,
				"y": -0.6618530393,
				"z": 2.5421249073,
				"element": "O" 
			},
			{
				"x": 0.5770800486,
				"y": -1.7827927371,
				"z": 1.4173699407,
				"element": "N" 
			},
			{
				"x": -0.1346974936,
				"y": -2.3963749111,
				"z": 0.3951259809,
				"element": "C" 
			},
			{
				"x": -0.2482608379,
				"y": -1.723544061,
				"z": -0.7544428147,
				"element": "N" 
			},
			{
				"x": -0.9492079511,
				"y": -2.2431454661,
				"z": -1.7631857311,
				"element": "N" 
			},
			{
				"x": -1.5362167596,
				"y": -3.4142054666,
				"z": -1.612467244,
				"element": "C" 
			},
			{
				"x": -2.4454219649,
				"y": -4.0175063337,
				"z": -2.9830971459,
				"element": "Cl" 
			},
			{
				"x": -1.4718164528,
				"y": -4.181127526,
				"z": -0.4370781299,
				"element": "C" 
			},
			{
				"x": -0.7421475292,
				"y": -3.6548422001,
				"z": 0.6031367575,
				"element": "C" 
			},
			{
				"x": -0.6631139803,
				"y": 5.0217105869,
				"z": -0.6197871302,
				"element": "H" 
			},
			{
				"x": -0.6163307964,
				"y": 5.3218639907,
				"z": 1.043864635,
				"element": "H" 
			},
			{
				"x": -0.0592277507,
				"y": 2.8826474541,
				"z": -1.5842566757,
				"element": "H" 
			},
			{
				"x": 0.9739154499,
				"y": 0.6592944949,
				"z": -1.2104916306,
				"element": "H" 
			},
			{
				"x": 1.1027685826,
				"y": 1.4203469042,
				"z": 3.0181871143,
				"element": "H" 
			},
			{
				"x": 0.0504462669,
				"y": 3.6375328219,
				"z": 2.6605573535,
				"element": "H" 
			},
			{
				"x": 0.7421885474,
				"y": -2.3160550382,
				"z": 2.2632354678,
				"element": "H" 
			},
			{
				"x": -1.9701422673,
				"y": -5.1409718943,
				"z": -0.3670044637,
				"element": "H" 
			},
			{
				"x": -0.6324403259,
				"y": -4.1835863339,
				"z": 1.5451572655,
				"element": "H" 
			}
		],
		 "valence_orbital": [ 
			{
				"type": "occ",
				"energy": -0.30054,
				"method": "rhf"
			},
			{
				"type": "occ",
				"energy": -0.26564,
				"method": "rhf"
			},
			{
				"type": "occ",
				"energy": -0.25085,
				"method": "rhf"
			},
			{
				"type": "occ",
				"energy": -0.24905,
				"method": "rhf"
			},
			{
				"type": "occ",
				"energy": -0.22146,
				"method": "rhf"
			},
			{
				"type": "unocc",
				"energy": -0.0645,
				"method": "rhf"
			},
			{
				"type": "unocc",
				"energy": -0.03025,
				"method": "rhf"
			},
			{
				"type": "unocc",
				"energy": -0.02416,
				"method": "rhf"
			},
			{
				"type": "unocc",
				"energy": -0.01242,
				"method": "rhf"
			},
			{
				"type": "unocc",
				"energy": 0.02248,
				"method": "rhf"
			}
		],
		"cosmo_sigma_profile": { 
			"-0.025": 0.0,
			"-0.024": 0.0,
			"-0.023": 0.0,
			"-0.022": 0.0,
			"-0.021": 0.0,
			"-0.02": 0.0,
			"-0.019": 0.0,
			"-0.018": 0.0,
			"-0.017": 0.516523030405,
			"-0.016": 1.60820956628,
			"-0.015": 1.131031385,
			"-0.014": 2.08260189463,
			"-0.013": 3.76853415181,
			"-0.012": 4.28765686264,
			"-0.011": 4.63768871219,
			"-0.01": 7.18563383466,
			"-0.009": 7.83095138616,
			"-0.008": 8.43249671202,
			"-0.007": 8.44598570556,
			"-0.006": 9.85993343212,
			"-0.005": 11.6452638712,
			"-0.004": 11.1930617628,
			"-0.003": 13.5313247845,
			"-0.002": 18.6176906241,
			"-0.001": 17.0098805722,
			"0.0": 13.6722855614,
			"0.001": 13.7911242974,
			"0.002": 16.7012008467,
			"0.003": 24.3913096016,
			"0.004": 23.3047567501,
			"0.005": 9.0323025877,
			"0.006": 6.45115770652,
			"0.007": 7.80788711892,
			"0.008": 7.61591483955,
			"0.009": 6.43010961749,
			"0.01": 12.0117022934,
			"0.011": 10.3450568995,
			"0.012": 2.15937343659,
			"0.013": 0.674959873075,
			"0.014": 1.0532529805,
			"0.015": 0.0325165512166,
			"0.016": 0.0,
			"0.017": 0.0,
			"0.018": 0.0,
			"0.019": 0.0,
			"0.02": 0.0,
			"0.021": 0.0,
			"0.022": 0.0,
			"0.023": 0.0,
			"0.024": 0.0,
			"0.025": 0.0
		}
	}
}
