{
	 "smiles": "NNC1=NC=C(C=C1)S(=O)(=O)N1CCCCC1", 
	 "Tm": 460.15, 
	 "num_atms": 33, 
	 "gaussian": { 
		 "optdone": 1, 
		 "sigma_profile": "yes", 
		 "theory": "DFT", 
		 "functional": "B3LYP", 
		 "basiset": "6-31G**", 
		 "properties": { 
			 "R2extent": 5578.2569, 
			 "electric_dipole_moment_norm": 5.72006847686, 
			 "electric_quadrupole_moment_norm": 15.2100314263, 
			 "total_energy": -1158.25517986, 
			 "HOMO_LUMO_gap": 0.19104, 
			 "cosmo_polarized_energy": -19.44, 
			 "cosmo_cavitation_energy": 36.11, 
			 "cosmo_dispersion_energy": -26.35, 
			 "cosmo_repulsion_energy": 2.02, 
			 "cosmo_total_nonelectrostatic_energy": 11.78, 
			 "SMD_solvation_energy": 2.8 
		},
		"coords": [
			{
				"x": 1.8638649435,
				"y": -4.7526928543,
				"z": 2.0577482958,
				"element": "N" 
			},
			{
				"x": 1.5497753428,
				"y": -3.5809320355,
				"z": 2.7477107437,
				"element": "N" 
			},
			{
				"x": 1.3468273269,
				"y": -2.3545143727,
				"z": 2.1749183138,
				"element": "C" 
			},
			{
				"x": 0.8561025335,
				"y": -1.4156100518,
				"z": 3.0079604046,
				"element": "N" 
			},
			{
				"x": 0.6524064272,
				"y": -0.1927276692,
				"z": 2.5204933042,
				"element": "C" 
			},
			{
				"x": 0.908555624,
				"y": 0.1534081997,
				"z": 1.1913593852,
				"element": "C" 
			},
			{
				"x": 1.4251498612,
				"y": -0.8223008383,
				"z": 0.3284524421,
				"element": "C" 
			},
			{
				"x": 1.648825477,
				"y": -2.0965265968,
				"z": 0.8160818235,
				"element": "C" 
			},
			{
				"x": 0.6574107091,
				"y": 1.8193767742,
				"z": 0.6206428905,
				"element": "S" 
			},
			{
				"x": 0.2919511963,
				"y": 2.6340720994,
				"z": 1.7897071649,
				"element": "O" 
			},
			{
				"x": 1.7907398868,
				"y": 2.2052670464,
				"z": -0.2282632922,
				"element": "O" 
			},
			{
				"x": -0.6687881285,
				"y": 1.6256708633,
				"z": -0.4345836081,
				"element": "N" 
			},
			{
				"x": -1.9594554174,
				"y": 1.4285864024,
				"z": 0.256065509,
				"element": "C" 
			},
			{
				"x": -3.0100991812,
				"y": 0.9524384079,
				"z": -0.7526477262,
				"element": "C" 
			},
			{
				"x": -3.1322977019,
				"y": 1.928926393,
				"z": -1.9301792231,
				"element": "C" 
			},
			{
				"x": -1.7566697503,
				"y": 2.1792077944,
				"z": -2.5630400426,
				"element": "C" 
			},
			{
				"x": -0.7384145933,
				"y": 2.6366569603,
				"z": -1.5144627744,
				"element": "C" 
			},
			{
				"x": 1.2284591052,
				"y": -4.8934617749,
				"z": 1.2733996025,
				"element": "H" 
			},
			{
				"x": 2.8159647196,
				"y": -4.705533008,
				"z": 1.7020123509,
				"element": "H" 
			},
			{
				"x": 1.2045115648,
				"y": -3.6980115648,
				"z": 3.6898531447,
				"element": "H" 
			},
			{
				"x": 0.2713260073,
				"y": 0.5565247419,
				"z": 3.2096026417,
				"element": "H" 
			},
			{
				"x": 1.6523576028,
				"y": -0.5727511592,
				"z": -0.7027453865,
				"element": "H" 
			},
			{
				"x": 2.0566428463,
				"y": -2.8733593938,
				"z": 0.1802461781,
				"element": "H" 
			},
			{
				"x": -1.8230985727,
				"y": 0.6787654181,
				"z": 1.0406476647,
				"element": "H" 
			},
			{
				"x": -2.2855120427,
				"y": 2.3606768112,
				"z": 0.7423393211,
				"element": "H" 
			},
			{
				"x": -2.7211045841,
				"y": -0.0392814052,
				"z": -1.1221086191,
				"element": "H" 
			},
			{
				"x": -3.9711135082,
				"y": 0.841094965,
				"z": -0.2373921879,
				"element": "H" 
			},
			{
				"x": -3.5449296212,
				"y": 2.8818138249,
				"z": -1.5703947284,
				"element": "H" 
			},
			{
				"x": -3.8355130533,
				"y": 1.543025052,
				"z": -2.6767050369,
				"element": "H" 
			},
			{
				"x": -1.3903531736,
				"y": 1.2580938811,
				"z": -3.0330437123,
				"element": "H" 
			},
			{
				"x": -1.8223076082,
				"y": 2.9416515383,
				"z": -3.3478260401,
				"element": "H" 
			},
			{
				"x": -1.0335507179,
				"y": 3.6189617336,
				"z": -1.1102132123,
				"element": "H" 
			},
			{
				"x": 0.2572364802,
				"y": 2.7368838175,
				"z": -1.9475355908,
				"element": "H" 
			}
		],
		 "valence_orbital": [ 
			{
				"type": "occ",
				"energy": -0.29234,
				"method": "rhf"
			},
			{
				"type": "occ",
				"energy": -0.28792,
				"method": "rhf"
			},
			{
				"type": "occ",
				"energy": -0.27011,
				"method": "rhf"
			},
			{
				"type": "occ",
				"energy": -0.24978,
				"method": "rhf"
			},
			{
				"type": "occ",
				"energy": -0.22791,
				"method": "rhf"
			},
			{
				"type": "unocc",
				"energy": -0.03687,
				"method": "rhf"
			},
			{
				"type": "unocc",
				"energy": -0.02292,
				"method": "rhf"
			},
			{
				"type": "unocc",
				"energy": 0.05713,
				"method": "rhf"
			},
			{
				"type": "unocc",
				"energy": 0.06738,
				"method": "rhf"
			},
			{
				"type": "unocc",
				"energy": 0.08754,
				"method": "rhf"
			}
		],
		"cosmo_sigma_profile": { 
			"-0.025": 0.0,
			"-0.024": 0.0,
			"-0.023": 0.0,
			"-0.022": 0.0,
			"-0.021": 0.0,
			"-0.02": 0.0,
			"-0.019": 0.0,
			"-0.018": 0.0,
			"-0.017": 0.0,
			"-0.016": 0.0,
			"-0.015": 0.0,
			"-0.014": 0.188532777566,
			"-0.013": 0.96006712365,
			"-0.012": 2.55172180937,
			"-0.011": 4.24956474189,
			"-0.01": 4.83060262498,
			"-0.009": 4.67977690772,
			"-0.008": 5.42968276788,
			"-0.007": 5.91397811308,
			"-0.006": 6.38750208431,
			"-0.005": 7.34545609042,
			"-0.004": 17.1805202321,
			"-0.003": 34.2296193654,
			"-0.002": 32.9624668754,
			"-0.001": 27.9527188096,
			"0.0": 25.7788423643,
			"0.001": 16.7993995054,
			"0.002": 13.5142493976,
			"0.003": 9.41915894617,
			"0.004": 8.17653299253,
			"0.005": 6.49728043098,
			"0.006": 5.10150269978,
			"0.007": 4.5572720658,
			"0.008": 5.75364569613,
			"0.009": 4.77635624027,
			"0.01": 7.70465017093,
			"0.011": 9.39537177629,
			"0.012": 7.26573209784,
			"0.013": 1.44815916532,
			"0.014": 0.953963439382,
			"0.015": 1.06005293635,
			"0.016": 0.263832098437,
			"0.017": 0.0,
			"0.018": 0.0,
			"0.019": 0.0,
			"0.02": 0.0,
			"0.021": 0.0,
			"0.022": 0.0,
			"0.023": 0.0,
			"0.024": 0.0,
			"0.025": 0.0
		}
	}
}
