{
	 "smiles": "ClC1=CC=C(SN=NC2=C(Cl)C=C(Cl)C(Cl)=C2)C=C1", 
	 "Tm": 397.15, 
	 "num_atms": 25, 
	 "gaussian": { 
		 "optdone": 1, 
		 "sigma_profile": "yes", 
		 "theory": "DFT", 
		 "functional": "B3LYP", 
		 "basiset": "6-31G**", 
		 "properties": { 
			 "R2extent": 12452.4924, 
			 "electric_dipole_moment_norm": 0.880458505553, 
			 "electric_quadrupole_moment_norm": 7.11978186042, 
			 "total_energy": -2809.28789091, 
			 "HOMO_LUMO_gap": 0.13841, 
			 "cosmo_polarized_energy": -7.34, 
			 "cosmo_cavitation_energy": 40.56, 
			 "cosmo_dispersion_energy": -29.86, 
			 "cosmo_repulsion_energy": 2.3, 
			 "cosmo_total_nonelectrostatic_energy": 13.0, 
			 "SMD_solvation_energy": 4.23 
		},
		"coords": [
			{
				"x": 0.6866257392,
				"y": 4.4344016055,
				"z": 5.3603857999,
				"element": "Cl" 
			},
			{
				"x": 1.2106678618,
				"y": 3.2714608847,
				"z": 4.1553563248,
				"element": "C" 
			},
			{
				"x": 0.4968958583,
				"y": 2.0826242297,
				"z": 3.9941320223,
				"element": "C" 
			},
			{
				"x": 0.9224438355,
				"y": 1.1521967064,
				"z": 3.0488311522,
				"element": "C" 
			},
			{
				"x": 2.0373233379,
				"y": 1.4265799253,
				"z": 2.2459685179,
				"element": "C" 
			},
			{
				"x": 2.6465165731,
				"y": 0.2526968791,
				"z": 1.0526699324,
				"element": "S" 
			},
			{
				"x": 1.1213687813,
				"y": -0.213307946,
				"z": 0.3517957563,
				"element": "N" 
			},
			{
				"x": 1.2491558502,
				"y": -1.1020002508,
				"z": -0.5210388339,
				"element": "N" 
			},
			{
				"x": 0.0356637635,
				"y": -1.4931458656,
				"z": -1.1374413994,
				"element": "C" 
			},
			{
				"x": 0.0694827324,
				"y": -2.5912270903,
				"z": -2.0159154324,
				"element": "C" 
			},
			{
				"x": 1.5517521039,
				"y": -3.4592760877,
				"z": -2.3149467868,
				"element": "Cl" 
			},
			{
				"x": -1.0894433463,
				"y": -3.0158228023,
				"z": -2.6618586707,
				"element": "C" 
			},
			{
				"x": -2.2969916525,
				"y": -2.3521069756,
				"z": -2.448192115,
				"element": "C" 
			},
			{
				"x": -3.7166145826,
				"y": -2.9156042032,
				"z": -3.2826142849,
				"element": "Cl" 
			},
			{
				"x": -2.3441118929,
				"y": -1.2498708785,
				"z": -1.576168943,
				"element": "C" 
			},
			{
				"x": -3.8308596621,
				"y": -0.38479567,
				"z": -1.284538428,
				"element": "Cl" 
			},
			{
				"x": -1.1860447896,
				"y": -0.8334044405,
				"z": -0.9348012217,
				"element": "C" 
			},
			{
				"x": 2.7365699004,
				"y": 2.6282690531,
				"z": 2.410450739,
				"element": "C" 
			},
			{
				"x": 2.3326962555,
				"y": 3.5499029064,
				"z": 3.375925105,
				"element": "C" 
			},
			{
				"x": -0.370616804,
				"y": 1.8817180755,
				"z": 4.6128630018,
				"element": "H" 
			},
			{
				"x": 0.3850834369,
				"y": 0.2180161736,
				"z": 2.9304510418,
				"element": "H" 
			},
			{
				"x": -1.0547241855,
				"y": -3.8644958995,
				"z": -3.3335617646,
				"element": "H" 
			},
			{
				"x": -1.2096299774,
				"y": 0.0183149673,
				"z": -0.2656003521,
				"element": "H" 
			},
			{
				"x": 3.5911318567,
				"y": 2.851955448,
				"z": 1.7793889498,
				"element": "H" 
			},
			{
				"x": 2.8715590064,
				"y": 4.4812212556,
				"z": 3.5090598892,
				"element": "H" 
			}
		],
		 "valence_orbital": [ 
			{
				"type": "occ",
				"energy": -0.28048,
				"method": "rhf"
			},
			{
				"type": "occ",
				"energy": -0.27352,
				"method": "rhf"
			},
			{
				"type": "occ",
				"energy": -0.26075,
				"method": "rhf"
			},
			{
				"type": "occ",
				"energy": -0.25587,
				"method": "rhf"
			},
			{
				"type": "occ",
				"energy": -0.23485,
				"method": "rhf"
			},
			{
				"type": "unocc",
				"energy": -0.09644,
				"method": "rhf"
			},
			{
				"type": "unocc",
				"energy": -0.04317,
				"method": "rhf"
			},
			{
				"type": "unocc",
				"energy": -0.04088,
				"method": "rhf"
			},
			{
				"type": "unocc",
				"energy": -0.03014,
				"method": "rhf"
			},
			{
				"type": "unocc",
				"energy": -0.01534,
				"method": "rhf"
			}
		],
		"cosmo_sigma_profile": { 
			"-0.025": 0.0,
			"-0.024": 0.0,
			"-0.023": 0.0,
			"-0.022": 0.0,
			"-0.021": 0.0,
			"-0.02": 0.0,
			"-0.019": 0.0,
			"-0.018": 0.0,
			"-0.017": 0.0,
			"-0.016": 0.0,
			"-0.015": 0.0,
			"-0.014": 0.0,
			"-0.013": 0.0,
			"-0.012": 0.0,
			"-0.011": 0.0,
			"-0.01": 0.110762197412,
			"-0.009": 1.29905738949,
			"-0.008": 5.17231677167,
			"-0.007": 11.0389215611,
			"-0.006": 11.9829895325,
			"-0.005": 9.39562097562,
			"-0.004": 11.9465272382,
			"-0.003": 16.3707077401,
			"-0.002": 27.3041092125,
			"-0.001": 45.2892166673,
			"0.0": 35.58271075,
			"0.001": 36.8914838041,
			"0.002": 43.1634815114,
			"0.003": 40.487580541,
			"0.004": 29.4672369853,
			"0.005": 7.55401319652,
			"0.006": 1.5230657041,
			"0.007": 1.49519331699,
			"0.008": 1.08111342813,
			"0.009": 1.19494808055,
			"0.01": 0.75017274935,
			"0.011": 0.0654565685753,
			"0.012": 0.0,
			"0.013": 0.0,
			"0.014": 0.0,
			"0.015": 0.0,
			"0.016": 0.0,
			"0.017": 0.0,
			"0.018": 0.0,
			"0.019": 0.0,
			"0.02": 0.0,
			"0.021": 0.0,
			"0.022": 0.0,
			"0.023": 0.0,
			"0.024": 0.0,
			"0.025": 0.0
		}
	}
}
