{
	 "smiles": "COC1=CC(OC)=C(Br)C=C1S(Cl)(=O)=O", 
	 "Tm": 467.15, 
	 "num_atms": 23, 
	 "gaussian": { 
		 "optdone": 1, 
		 "sigma_profile": "yes", 
		 "theory": "DFT", 
		 "functional": "B3LYP", 
		 "basiset": "6-31G**", 
		 "properties": { 
			 "R2extent": 6382.4044, 
			 "electric_dipole_moment_norm": 6.25372880608, 
			 "electric_quadrupole_moment_norm": 13.5635776247, 
			 "total_energy": -4040.2399806, 
			 "HOMO_LUMO_gap": 0.16411, 
			 "cosmo_polarized_energy": -13.26, 
			 "cosmo_cavitation_energy": 32.97, 
			 "cosmo_dispersion_energy": -24.33, 
			 "cosmo_repulsion_energy": 1.88, 
			 "cosmo_total_nonelectrostatic_energy": 10.52, 
			 "SMD_solvation_energy": 5.01 
		},
		"coords": [
			{
				"x": 2.0067786498,
				"y": -0.3001841882,
				"z": 2.6636960261,
				"element": "C" 
			},
			{
				"x": 1.6503087931,
				"y": -0.8616781328,
				"z": 1.4032568188,
				"element": "O" 
			},
			{
				"x": 0.3978528497,
				"y": -0.6890970305,
				"z": 0.9357951861,
				"element": "C" 
			},
			{
				"x": -0.6062483093,
				"y": 0.0276693705,
				"z": 1.5897918651,
				"element": "C" 
			},
			{
				"x": -1.8840911157,
				"y": 0.1515313879,
				"z": 1.0329335246,
				"element": "C" 
			},
			{
				"x": -2.8368438951,
				"y": 0.8165855128,
				"z": 1.7471669608,
				"element": "O" 
			},
			{
				"x": -3.0552462494,
				"y": 2.1832928953,
				"z": 1.3670176865,
				"element": "C" 
			},
			{
				"x": -2.1624949163,
				"y": -0.4542958239,
				"z": -0.1999083326,
				"element": "C" 
			},
			{
				"x": -3.9027871104,
				"y": -0.3462162111,
				"z": -0.959975737,
				"element": "Br" 
			},
			{
				"x": -1.1706635696,
				"y": -1.1685812918,
				"z": -0.8686815438,
				"element": "C" 
			},
			{
				"x": 0.0978769304,
				"y": -1.2822076424,
				"z": -0.3116923934,
				"element": "C" 
			},
			{
				"x": 1.4519755588,
				"y": -2.1828265637,
				"z": -1.089898626,
				"element": "S" 
			},
			{
				"x": 0.5542200042,
				"y": -2.8734979102,
				"z": -2.9130743962,
				"element": "Cl" 
			},
			{
				"x": 2.4913553462,
				"y": -1.2473110648,
				"z": -1.4948928781,
				"element": "O" 
			},
			{
				"x": 1.7516910418,
				"y": -3.3816222559,
				"z": -0.3203713092,
				"element": "O" 
			},
			{
				"x": 1.3884614086,
				"y": -0.712612063,
				"z": 3.4689495959,
				"element": "H" 
			},
			{
				"x": 3.0478680053,
				"y": -0.5787118546,
				"z": 2.8232804781,
				"element": "H" 
			},
			{
				"x": 1.9174565959,
				"y": 0.7920731132,
				"z": 2.6492107628,
				"element": "H" 
			},
			{
				"x": -0.4299943028,
				"y": 0.4943196551,
				"z": 2.5505189345,
				"element": "H" 
			},
			{
				"x": -3.8335447814,
				"y": 2.5591450499,
				"z": 2.032300758,
				"element": "H" 
			},
			{
				"x": -3.3946721209,
				"y": 2.2586347967,
				"z": 0.3291726505,
				"element": "H" 
			},
			{
				"x": -2.1409837193,
				"y": 2.7743435515,
				"z": 1.5001461219,
				"element": "H" 
			},
			{
				"x": -1.3947750939,
				"y": -1.6358532999,
				"z": -1.8176421533,
				"element": "H" 
			}
		],
		 "valence_orbital": [ 
			{
				"type": "occ",
				"energy": -0.30949,
				"method": "rhf"
			},
			{
				"type": "occ",
				"energy": -0.30207,
				"method": "rhf"
			},
			{
				"type": "occ",
				"energy": -0.30043,
				"method": "rhf"
			},
			{
				"type": "occ",
				"energy": -0.28352,
				"method": "rhf"
			},
			{
				"type": "occ",
				"energy": -0.24679,
				"method": "rhf"
			},
			{
				"type": "unocc",
				"energy": -0.08268,
				"method": "rhf"
			},
			{
				"type": "unocc",
				"energy": -0.05275,
				"method": "rhf"
			},
			{
				"type": "unocc",
				"energy": -0.0318,
				"method": "rhf"
			},
			{
				"type": "unocc",
				"energy": -0.0138,
				"method": "rhf"
			},
			{
				"type": "unocc",
				"energy": 0.04768,
				"method": "rhf"
			}
		],
		"cosmo_sigma_profile": { 
			"-0.025": 0.0,
			"-0.024": 0.0,
			"-0.023": 0.0,
			"-0.022": 0.0,
			"-0.021": 0.0,
			"-0.02": 0.0,
			"-0.019": 0.0,
			"-0.018": 0.0,
			"-0.017": 0.0,
			"-0.016": 0.0,
			"-0.015": 0.0,
			"-0.014": 0.0,
			"-0.013": 0.0,
			"-0.012": 0.0,
			"-0.011": 0.0,
			"-0.01": 0.0297156024744,
			"-0.009": 1.2297241175,
			"-0.008": 3.1251929256,
			"-0.007": 10.618872227,
			"-0.006": 14.6514268522,
			"-0.005": 20.1997760298,
			"-0.004": 23.762139072,
			"-0.003": 20.0322973817,
			"-0.002": 17.4466695919,
			"-0.001": 22.4350306463,
			"0.0": 22.344016979,
			"0.001": 15.2746351252,
			"0.002": 16.0237551435,
			"0.003": 20.5218563642,
			"0.004": 14.6358653004,
			"0.005": 7.4777979338,
			"0.006": 5.55848084216,
			"0.007": 9.29841117329,
			"0.008": 17.2105374658,
			"0.009": 5.98890884438,
			"0.01": 1.47780222155,
			"0.011": 0.142080982166,
			"0.012": 0.0,
			"0.013": 0.0,
			"0.014": 0.0,
			"0.015": 0.0,
			"0.016": 0.0,
			"0.017": 0.0,
			"0.018": 0.0,
			"0.019": 0.0,
			"0.02": 0.0,
			"0.021": 0.0,
			"0.022": 0.0,
			"0.023": 0.0,
			"0.024": 0.0,
			"0.025": 0.0
		}
	}
}
