{
	 "smiles": "FC(F)(F)CC(=O)C1=CC=C(Cl)C=C1", 
	 "Tm": 313.15, 
	 "num_atms": 20, 
	 "gaussian": { 
		 "optdone": 1, 
		 "sigma_profile": "yes", 
		 "theory": "DFT", 
		 "functional": "B3LYP", 
		 "basiset": "6-31G**", 
		 "properties": { 
			 "R2extent": 5168.4232, 
			 "electric_dipole_moment_norm": 2.16686587725, 
			 "electric_quadrupole_moment_norm": 13.6019271624, 
			 "total_energy": -1181.51876413, 
			 "HOMO_LUMO_gap": 0.1853, 
			 "cosmo_polarized_energy": -8.5, 
			 "cosmo_cavitation_energy": 27.85, 
			 "cosmo_dispersion_energy": -19.83, 
			 "cosmo_repulsion_energy": 1.5, 
			 "cosmo_total_nonelectrostatic_energy": 9.52, 
			 "SMD_solvation_energy": 6.06 
		},
		"coords": [
			{
				"x": -1.2803531704,
				"y": -4.4623888414,
				"z": -1.7933189506,
				"element": "F" 
			},
			{
				"x": -1.9279642686,
				"y": -3.4399423307,
				"z": -2.3792415161,
				"element": "C" 
			},
			{
				"x": -1.0153331855,
				"y": -2.7420143816,
				"z": -3.0974669584,
				"element": "F" 
			},
			{
				"x": -2.8112567724,
				"y": -3.9592041542,
				"z": -3.2579518256,
				"element": "F" 
			},
			{
				"x": -2.6421750262,
				"y": -2.5676367766,
				"z": -1.3619748609,
				"element": "C" 
			},
			{
				"x": -1.735619136,
				"y": -2.0660113103,
				"z": -0.2273150554,
				"element": "C" 
			},
			{
				"x": -1.7086970742,
				"y": -2.6953941758,
				"z": 0.8173476276,
				"element": "O" 
			},
			{
				"x": -0.9389778325,
				"y": -0.8150591284,
				"z": -0.3970574947,
				"element": "C" 
			},
			{
				"x": -0.890861853,
				"y": -0.0787537743,
				"z": -1.5908396218,
				"element": "C" 
			},
			{
				"x": -0.136822769,
				"y": 1.0896511376,
				"z": -1.6758561521,
				"element": "C" 
			},
			{
				"x": 0.5717728119,
				"y": 1.5243732678,
				"z": -0.5556486329,
				"element": "C" 
			},
			{
				"x": 1.5164596031,
				"y": 2.9963630406,
				"z": -0.6548804649,
				"element": "Cl" 
			},
			{
				"x": 0.543856911,
				"y": 0.8073654619,
				"z": 0.6440001486,
				"element": "C" 
			},
			{
				"x": -0.2095961505,
				"y": -0.3571607585,
				"z": 0.7138597856,
				"element": "C" 
			},
			{
				"x": -3.4107763768,
				"y": -3.1863159772,
				"z": -0.8953309566,
				"element": "H" 
			},
			{
				"x": -3.1272687794,
				"y": -1.7511217579,
				"z": -1.9021266405,
				"element": "H" 
			},
			{
				"x": -1.4182633336,
				"y": -0.4197695304,
				"z": -2.4733979889,
				"element": "H" 
			},
			{
				"x": -0.0954751206,
				"y": 1.6567707209,
				"z": -2.5988141348,
				"element": "H" 
			},
			{
				"x": 1.1042905474,
				"y": 1.1620037441,
				"z": 1.50174198,
				"element": "H" 
			},
			{
				"x": -0.2515390247,
				"y": -0.9362544757,
				"z": 1.6299717123,
				"element": "H" 
			}
		],
		 "valence_orbital": [ 
			{
				"type": "occ",
				"energy": -0.34279,
				"method": "rhf"
			},
			{
				"type": "occ",
				"energy": -0.32636,
				"method": "rhf"
			},
			{
				"type": "occ",
				"energy": -0.28126,
				"method": "rhf"
			},
			{
				"type": "occ",
				"energy": -0.27099,
				"method": "rhf"
			},
			{
				"type": "occ",
				"energy": -0.26423,
				"method": "rhf"
			},
			{
				"type": "unocc",
				"energy": -0.07893,
				"method": "rhf"
			},
			{
				"type": "unocc",
				"energy": -0.02982,
				"method": "rhf"
			},
			{
				"type": "unocc",
				"energy": 0.01359,
				"method": "rhf"
			},
			{
				"type": "unocc",
				"energy": 0.01856,
				"method": "rhf"
			},
			{
				"type": "unocc",
				"energy": 0.09347,
				"method": "rhf"
			}
		],
		"cosmo_sigma_profile": { 
			"-0.025": 0.0,
			"-0.024": 0.0,
			"-0.023": 0.0,
			"-0.022": 0.0,
			"-0.021": 0.0,
			"-0.02": 0.0,
			"-0.019": 0.0,
			"-0.018": 0.0,
			"-0.017": 0.0,
			"-0.016": 0.0,
			"-0.015": 0.0,
			"-0.014": 0.0,
			"-0.013": 0.0,
			"-0.012": 0.0,
			"-0.011": 0.354202744867,
			"-0.01": 1.43912905723,
			"-0.009": 2.91753568241,
			"-0.008": 7.47294557576,
			"-0.007": 10.1941582953,
			"-0.006": 9.84345940744,
			"-0.005": 11.1642324608,
			"-0.004": 8.08634165746,
			"-0.003": 8.87451415149,
			"-0.002": 10.5381126799,
			"-0.001": 13.4629659379,
			"0.0": 18.4985363611,
			"0.001": 25.8430326511,
			"0.002": 39.5442154075,
			"0.003": 28.7864455503,
			"0.004": 12.2511553159,
			"0.005": 2.56875951357,
			"0.006": 1.59713242022,
			"0.007": 1.87385141379,
			"0.008": 1.2716800071,
			"0.009": 2.22666113904,
			"0.01": 2.92878864435,
			"0.011": 3.32943788566,
			"0.012": 0.854542975371,
			"0.013": 0.000731073434045,
			"0.014": 0.0,
			"0.015": 0.0,
			"0.016": 0.0,
			"0.017": 0.0,
			"0.018": 0.0,
			"0.019": 0.0,
			"0.02": 0.0,
			"0.021": 0.0,
			"0.022": 0.0,
			"0.023": 0.0,
			"0.024": 0.0,
			"0.025": 0.0
		}
	}
}
