{
	 "smiles": "C1CCC(CC1)N(SC1=NC2=C(S1)C=CC=C2)C1CCCCC1", 
	 "Tm": 372.95, 
	 "num_atms": 49, 
	 "gaussian": { 
		 "optdone": 1, 
		 "sigma_profile": "yes", 
		 "theory": "DFT", 
		 "functional": "B3LYP", 
		 "basiset": "6-31G**", 
		 "properties": { 
			 "R2extent": 9985.3321, 
			 "electric_dipole_moment_norm": 1.18755453348, 
			 "electric_quadrupole_moment_norm": 10.067081966, 
			 "total_energy": -1645.57726692, 
			 "HOMO_LUMO_gap": 0.18606, 
			 "cosmo_polarized_energy": -6.18, 
			 "cosmo_cavitation_energy": 49.64, 
			 "cosmo_dispersion_energy": -34.76, 
			 "cosmo_repulsion_energy": 2.6, 
			 "cosmo_total_nonelectrostatic_energy": 17.48, 
			 "SMD_solvation_energy": 4.83 
		},
		"coords": [
			{
				"x": 3.4070120602,
				"y": -3.4774906815,
				"z": -0.6160799467,
				"element": "C" 
			},
			{
				"x": 2.0640992044,
				"y": -3.2810249678,
				"z": 0.1025588265,
				"element": "C" 
			},
			{
				"x": 1.4494394619,
				"y": -1.9065030553,
				"z": -0.2087065105,
				"element": "C" 
			},
			{
				"x": 2.4234468144,
				"y": -0.7642211217,
				"z": 0.1304779681,
				"element": "C" 
			},
			{
				"x": 3.7715957276,
				"y": -0.961258673,
				"z": -0.5896385304,
				"element": "C" 
			},
			{
				"x": 4.3827559089,
				"y": -2.3388215145,
				"z": -0.2848856383,
				"element": "C" 
			},
			{
				"x": 1.8603211981,
				"y": 0.5850296713,
				"z": -0.0925704869,
				"element": "N" 
			},
			{
				"x": 1.3862108344,
				"y": 1.0513897957,
				"z": -1.6276811388,
				"element": "S" 
			},
			{
				"x": -0.3679055526,
				"y": 0.6990609655,
				"z": -1.743565523,
				"element": "C" 
			},
			{
				"x": -1.1432191277,
				"y": 0.2968264519,
				"z": -0.7950266933,
				"element": "N" 
			},
			{
				"x": -2.4526675552,
				"y": 0.1593737346,
				"z": -1.2401452562,
				"element": "C" 
			},
			{
				"x": -2.6705520505,
				"y": 0.4882097893,
				"z": -2.5997141606,
				"element": "C" 
			},
			{
				"x": -1.1483522778,
				"y": 0.9742536226,
				"z": -3.3334708953,
				"element": "S" 
			},
			{
				"x": -3.9382718582,
				"y": 0.4027742892,
				"z": -3.1770782597,
				"element": "C" 
			},
			{
				"x": -4.9977471643,
				"y": -0.0204279784,
				"z": -2.3756481698,
				"element": "C" 
			},
			{
				"x": -4.7949146615,
				"y": -0.3504256438,
				"z": -1.0259090362,
				"element": "C" 
			},
			{
				"x": -3.5309659298,
				"y": -0.2638751823,
				"z": -0.4512965559,
				"element": "C" 
			},
			{
				"x": 1.6755680231,
				"y": 1.5168859186,
				"z": 1.0427723013,
				"element": "C" 
			},
			{
				"x": 3.0044214223,
				"y": 1.9368126783,
				"z": 1.6981296639,
				"element": "C" 
			},
			{
				"x": 2.7860364567,
				"y": 3.1279192943,
				"z": 2.6655482486,
				"element": "C" 
			},
			{
				"x": 1.3839385809,
				"y": 3.1125614326,
				"z": 3.3214705186,
				"element": "C" 
			},
			{
				"x": 0.8688417026,
				"y": 1.6767353302,
				"z": 3.4831664814,
				"element": "C" 
			},
			{
				"x": 0.6847060638,
				"y": 0.9842209099,
				"z": 2.1107304386,
				"element": "C" 
			},
			{
				"x": 3.235533539,
				"y": -3.5025774928,
				"z": -1.7014928631,
				"element": "H" 
			},
			{
				"x": 3.8464977006,
				"y": -4.4453568566,
				"z": -0.3464312073,
				"element": "H" 
			},
			{
				"x": 2.2184580284,
				"y": -3.3747309613,
				"z": 1.1875156799,
				"element": "H" 
			},
			{
				"x": 1.3606541177,
				"y": -4.0739351533,
				"z": -0.1777486948,
				"element": "H" 
			},
			{
				"x": 1.2042761994,
				"y": -1.8545098657,
				"z": -1.277630556,
				"element": "H" 
			},
			{
				"x": 0.509812501,
				"y": -1.7614185689,
				"z": 0.3325456009,
				"element": "H" 
			},
			{
				"x": 2.6208434492,
				"y": -0.8086215757,
				"z": 1.2090326224,
				"element": "H" 
			},
			{
				"x": 4.4604097573,
				"y": -0.1603878311,
				"z": -0.2975109533,
				"element": "H" 
			},
			{
				"x": 3.6102844487,
				"y": -0.8630920104,
				"z": -1.6713844557,
				"element": "H" 
			},
			{
				"x": 5.3196739267,
				"y": -2.4621726717,
				"z": -0.841019621,
				"element": "H" 
			},
			{
				"x": 4.6473967797,
				"y": -2.3901801641,
				"z": 0.7813667571,
				"element": "H" 
			},
			{
				"x": -4.0986903071,
				"y": 0.6568296939,
				"z": -4.219938227,
				"element": "H" 
			},
			{
				"x": -5.9926934958,
				"y": -0.0950134474,
				"z": -2.8041942259,
				"element": "H" 
			},
			{
				"x": -5.6369512821,
				"y": -0.677267445,
				"z": -0.4231448221,
				"element": "H" 
			},
			{
				"x": -3.3599933401,
				"y": -0.5151906093,
				"z": 0.5903125289,
				"element": "H" 
			},
			{
				"x": 1.2426158756,
				"y": 2.4162199751,
				"z": 0.5942731058,
				"element": "H" 
			},
			{
				"x": 3.7302175215,
				"y": 2.202816251,
				"z": 0.9226957789,
				"element": "H" 
			},
			{
				"x": 3.4280974833,
				"y": 1.0850646163,
				"z": 2.2456655955,
				"element": "H" 
			},
			{
				"x": 2.9249008297,
				"y": 4.0718540397,
				"z": 2.1255688381,
				"element": "H" 
			},
			{
				"x": 3.5597672475,
				"y": 3.102839597,
				"z": 3.44167556,
				"element": "H" 
			},
			{
				"x": 0.6744339701,
				"y": 3.6773994124,
				"z": 2.7026695126,
				"element": "H" 
			},
			{
				"x": 1.4164442345,
				"y": 3.6248937222,
				"z": 4.2895011972,
				"element": "H" 
			},
			{
				"x": -0.0768437687,
				"y": 1.6639781121,
				"z": 4.0365336504,
				"element": "H" 
			},
			{
				"x": 1.5857498514,
				"y": 1.1124232928,
				"z": 4.0944326411,
				"element": "H" 
			},
			{
				"x": 0.8219463121,
				"y": -0.0956191872,
				"z": 2.231828677,
				"element": "H" 
			},
			{
				"x": -0.332338861,
				"y": 1.1165500622,
				"z": 1.731440235,
				"element": "H" 
			}
		],
		 "valence_orbital": [ 
			{
				"type": "occ",
				"energy": -0.27331,
				"method": "rhf"
			},
			{
				"type": "occ",
				"energy": -0.27077,
				"method": "rhf"
			},
			{
				"type": "occ",
				"energy": -0.23287,
				"method": "rhf"
			},
			{
				"type": "occ",
				"energy": -0.21947,
				"method": "rhf"
			},
			{
				"type": "occ",
				"energy": -0.21413,
				"method": "rhf"
			},
			{
				"type": "unocc",
				"energy": -0.02807,
				"method": "rhf"
			},
			{
				"type": "unocc",
				"energy": -0.00385,
				"method": "rhf"
			},
			{
				"type": "unocc",
				"energy": 0.00441,
				"method": "rhf"
			},
			{
				"type": "unocc",
				"energy": 0.02125,
				"method": "rhf"
			},
			{
				"type": "unocc",
				"energy": 0.03722,
				"method": "rhf"
			}
		],
		"cosmo_sigma_profile": { 
			"-0.025": 0.0,
			"-0.024": 0.0,
			"-0.023": 0.0,
			"-0.022": 0.0,
			"-0.021": 0.0,
			"-0.02": 0.0,
			"-0.019": 0.0,
			"-0.018": 0.0,
			"-0.017": 0.0,
			"-0.016": 0.0,
			"-0.015": 0.0,
			"-0.014": 0.0,
			"-0.013": 0.0,
			"-0.012": 0.0,
			"-0.011": 0.0,
			"-0.01": 0.0,
			"-0.009": 0.0,
			"-0.008": 0.186388765659,
			"-0.007": 2.87299149464,
			"-0.006": 7.48699865953,
			"-0.005": 9.23393179347,
			"-0.004": 13.7694480101,
			"-0.003": 22.4874348091,
			"-0.002": 51.6041947715,
			"-0.001": 62.4474002609,
			"0.0": 65.5010490132,
			"0.001": 59.4280772936,
			"0.002": 31.7319692559,
			"0.003": 22.0797096968,
			"0.004": 20.0822017071,
			"0.005": 14.2020019221,
			"0.006": 3.78681500574,
			"0.007": 1.62242977755,
			"0.008": 0.952263294978,
			"0.009": 1.06673501467,
			"0.01": 0.460857243878,
			"0.011": 0.264942883169,
			"0.012": 0.114374075697,
			"0.013": 0.00689243485232,
			"0.014": 0.0,
			"0.015": 0.0,
			"0.016": 0.0,
			"0.017": 0.0,
			"0.018": 0.0,
			"0.019": 0.0,
			"0.02": 0.0,
			"0.021": 0.0,
			"0.022": 0.0,
			"0.023": 0.0,
			"0.024": 0.0,
			"0.025": 0.0
		}
	}
}
