{
	 "smiles": "CSC1=NC(N)=NC(=N1)C(C)(C)C", 
	 "Tm": 376.15, 
	 "num_atms": 27, 
	 "gaussian": { 
		 "optdone": 1, 
		 "sigma_profile": "yes", 
		 "theory": "DFT", 
		 "functional": "B3LYP", 
		 "basiset": "6-31G**", 
		 "properties": { 
			 "R2extent": 5182.021, 
			 "electric_dipole_moment_norm": 1.45334891544, 
			 "electric_quadrupole_moment_norm": 14.8478711565, 
			 "total_energy": -930.526782068, 
			 "HOMO_LUMO_gap": 0.20365, 
			 "cosmo_polarized_energy": -10.43, 
			 "cosmo_cavitation_energy": 31.27, 
			 "cosmo_dispersion_energy": -22.44, 
			 "cosmo_repulsion_energy": 1.77, 
			 "cosmo_total_nonelectrostatic_energy": 10.6, 
			 "SMD_solvation_energy": 2.76 
		},
		"coords": [
			{
				"x": 4.3312619888,
				"y": 1.588093213,
				"z": 0.4112968604,
				"element": "C" 
			},
			{
				"x": 3.7573348749,
				"y": 3.308186349,
				"z": 0.2085587503,
				"element": "S" 
			},
			{
				"x": 1.9999355482,
				"y": 3.098079308,
				"z": 0.1689335302,
				"element": "C" 
			},
			{
				"x": 1.3186724284,
				"y": 4.2335730217,
				"z": 0.0258771382,
				"element": "N" 
			},
			{
				"x": -0.015849952,
				"y": 4.0619429502,
				"z": -0.0030890381,
				"element": "C" 
			},
			{
				"x": -0.7781110507,
				"y": 5.1680568705,
				"z": -0.1571943032,
				"element": "N" 
			},
			{
				"x": -0.6557702015,
				"y": 2.8801242517,
				"z": 0.1019806971,
				"element": "N" 
			},
			{
				"x": 0.1410868153,
				"y": 1.8173296534,
				"z": 0.2415015657,
				"element": "C" 
			},
			{
				"x": 1.4832703769,
				"y": 1.866601233,
				"z": 0.2809964779,
				"element": "N" 
			},
			{
				"x": -0.5477245721,
				"y": 0.4555984204,
				"z": 0.3627556185,
				"element": "C" 
			},
			{
				"x": -1.3882828495,
				"y": 0.2230483801,
				"z": -0.914203932,
				"element": "C" 
			},
			{
				"x": 0.4730689619,
				"y": -0.6814759657,
				"z": 0.5252100052,
				"element": "C" 
			},
			{
				"x": -1.4855702531,
				"y": 0.4934884353,
				"z": 1.591546176,
				"element": "C" 
			},
			{
				"x": 5.4216718363,
				"y": 1.6439285406,
				"z": 0.4440891692,
				"element": "H" 
			},
			{
				"x": 4.0148443899,
				"y": 0.9722011704,
				"z": -0.4304755614,
				"element": "H" 
			},
			{
				"x": 3.9519971524,
				"y": 1.1597325678,
				"z": 1.3390327201,
				"element": "H" 
			},
			{
				"x": -1.7797836429,
				"y": 5.0811714633,
				"z": -0.1275481025,
				"element": "H" 
			},
			{
				"x": -0.3349805919,
				"y": 6.0709252489,
				"z": -0.1844145281,
				"element": "H" 
			},
			{
				"x": -1.9286306288,
				"y": -0.7266753815,
				"z": -0.8378501816,
				"element": "H" 
			},
			{
				"x": -2.1133461373,
				"y": 1.0281617885,
				"z": -1.0548696662,
				"element": "H" 
			},
			{
				"x": -0.7501272615,
				"y": 0.1769162378,
				"z": -1.8034363221,
				"element": "H" 
			},
			{
				"x": 1.0841732164,
				"y": -0.5461094538,
				"z": 1.4214987123,
				"element": "H" 
			},
			{
				"x": 1.1516104927,
				"y": -0.7359004241,
				"z": -0.3301264559,
				"element": "H" 
			},
			{
				"x": -0.0547253402,
				"y": -1.6376536221,
				"z": 0.6085749886,
				"element": "H" 
			},
			{
				"x": -2.0261506623,
				"y": -0.4552174762,
				"z": 1.6781415075,
				"element": "H" 
			},
			{
				"x": -2.2127612103,
				"y": 1.3038653838,
				"z": 1.5014297595,
				"element": "H" 
			},
			{
				"x": -0.9179137278,
				"y": 0.6432078361,
				"z": 2.5164844145,
				"element": "H" 
			}
		],
		 "valence_orbital": [ 
			{
				"type": "occ",
				"energy": -0.30588,
				"method": "rhf"
			},
			{
				"type": "occ",
				"energy": -0.25996,
				"method": "rhf"
			},
			{
				"type": "occ",
				"energy": -0.2569,
				"method": "rhf"
			},
			{
				"type": "occ",
				"energy": -0.2507,
				"method": "rhf"
			},
			{
				"type": "occ",
				"energy": -0.23259,
				"method": "rhf"
			},
			{
				"type": "unocc",
				"energy": -0.02894,
				"method": "rhf"
			},
			{
				"type": "unocc",
				"energy": -0.00508,
				"method": "rhf"
			},
			{
				"type": "unocc",
				"energy": 0.04084,
				"method": "rhf"
			},
			{
				"type": "unocc",
				"energy": 0.08434,
				"method": "rhf"
			},
			{
				"type": "unocc",
				"energy": 0.09086,
				"method": "rhf"
			}
		],
		"cosmo_sigma_profile": { 
			"-0.025": 0.0,
			"-0.024": 0.0,
			"-0.023": 0.0,
			"-0.022": 0.0,
			"-0.021": 0.0,
			"-0.02": 0.0,
			"-0.019": 0.0,
			"-0.018": 0.0,
			"-0.017": 0.0,
			"-0.016": 0.0,
			"-0.015": 0.48148642343,
			"-0.014": 2.01226194099,
			"-0.013": 2.09340195156,
			"-0.012": 1.90903738342,
			"-0.011": 2.22199947955,
			"-0.01": 1.75399055476,
			"-0.009": 1.31402754068,
			"-0.008": 2.47390017426,
			"-0.007": 3.33607676829,
			"-0.006": 3.80318469968,
			"-0.005": 5.89761656422,
			"-0.004": 6.64565294056,
			"-0.003": 21.5059859961,
			"-0.002": 30.4950126173,
			"-0.001": 26.3292082591,
			"0.0": 24.2708707035,
			"0.001": 30.7295555616,
			"0.002": 19.0217944049,
			"0.003": 10.4837531965,
			"0.004": 11.5017501539,
			"0.005": 10.2012127324,
			"0.006": 9.0819022084,
			"0.007": 7.75454415964,
			"0.008": 4.53969034486,
			"0.009": 2.60121688188,
			"0.01": 1.57845470681,
			"0.011": 1.77144131372,
			"0.012": 0.39373584663,
			"0.013": 0.793602292295,
			"0.014": 0.0631105328472,
			"0.015": 0.0,
			"0.016": 0.0,
			"0.017": 0.0,
			"0.018": 0.0,
			"0.019": 0.0,
			"0.02": 0.0,
			"0.021": 0.0,
			"0.022": 0.0,
			"0.023": 0.0,
			"0.024": 0.0,
			"0.025": 0.0
		}
	}
}
