{
	 "smiles": "CN(C1CCCCC1)S(=O)(=O)C1=CC=C(C=C1)C(O)=O", 
	 "Tm": 487.15, 
	 "num_atms": 39, 
	 "gaussian": { 
		 "optdone": 1, 
		 "sigma_profile": "yes", 
		 "theory": "DFT", 
		 "functional": "B3LYP", 
		 "basiset": "6-31G**", 
		 "properties": { 
			 "R2extent": 8135.2683, 
			 "electric_dipole_moment_norm": 2.72143044923, 
			 "electric_quadrupole_moment_norm": 28.4552011731, 
			 "total_energy": -1298.71210431, 
			 "HOMO_LUMO_gap": 0.17734, 
			 "cosmo_polarized_energy": -20.67, 
			 "cosmo_cavitation_energy": 41.18, 
			 "cosmo_dispersion_energy": -29.29, 
			 "cosmo_repulsion_energy": 2.19, 
			 "cosmo_total_nonelectrostatic_energy": 14.08, 
			 "SMD_solvation_energy": 6.42 
		},
		"coords": [
			{
				"x": 1.9495563912,
				"y": -0.1357782511,
				"z": 1.9334480204,
				"element": "C" 
			},
			{
				"x": 1.4746067598,
				"y": -0.5975468473,
				"z": 0.6174703295,
				"element": "N" 
			},
			{
				"x": 2.4474462777,
				"y": -1.4737913764,
				"z": -0.1140032321,
				"element": "C" 
			},
			{
				"x": 3.5569412988,
				"y": -0.7277812853,
				"z": -0.9244880462,
				"element": "C" 
			},
			{
				"x": 3.4589457362,
				"y": -0.9865054655,
				"z": -2.4353858496,
				"element": "C" 
			},
			{
				"x": 3.5415341228,
				"y": -2.4916891274,
				"z": -2.7668072088,
				"element": "C" 
			},
			{
				"x": 2.8035760299,
				"y": -3.3675681807,
				"z": -1.7195008535,
				"element": "C" 
			},
			{
				"x": 1.7474740429,
				"y": -2.5650639997,
				"z": -0.9441001822,
				"element": "C" 
			},
			{
				"x": 0.6733546133,
				"y": 0.6231528551,
				"z": -0.2383879315,
				"element": "S" 
			},
			{
				"x": 0.4353896754,
				"y": 0.1346287741,
				"z": -1.6009807896,
				"element": "O" 
			},
			{
				"x": 1.3090710643,
				"y": 1.9332641848,
				"z": -0.0300859446,
				"element": "O" 
			},
			{
				"x": -0.9111093295,
				"y": 0.6707804144,
				"z": 0.6221563403,
				"element": "C" 
			},
			{
				"x": -1.3342281922,
				"y": 1.8742330785,
				"z": 1.1827268956,
				"element": "C" 
			},
			{
				"x": -2.5907935405,
				"y": 1.9348231525,
				"z": 1.7870207979,
				"element": "C" 
			},
			{
				"x": -3.4116394988,
				"y": 0.8007218973,
				"z": 1.8290306583,
				"element": "C" 
			},
			{
				"x": -2.9580191254,
				"y": -0.4066185419,
				"z": 1.2757124655,
				"element": "C" 
			},
			{
				"x": -1.7144397887,
				"y": -0.4733655805,
				"z": 0.6593720809,
				"element": "C" 
			},
			{
				"x": -4.762744061,
				"y": 0.7969964964,
				"z": 2.4867981147,
				"element": "C" 
			},
			{
				"x": -5.3860058643,
				"y": 1.9972183559,
				"z": 2.6114210617,
				"element": "O" 
			},
			{
				"x": -5.291056492,
				"y": -0.2087493333,
				"z": 2.8964372353,
				"element": "O" 
			},
			{
				"x": 2.8354007385,
				"y": 0.5075413519,
				"z": 1.867828794,
				"element": "H" 
			},
			{
				"x": 1.1584398449,
				"y": 0.4171678378,
				"z": 2.4449227355,
				"element": "H" 
			},
			{
				"x": 2.1830067364,
				"y": -1.0174393898,
				"z": 2.5354575002,
				"element": "H" 
			},
			{
				"x": 2.9420041686,
				"y": -1.9936472705,
				"z": 0.7138717104,
				"element": "H" 
			},
			{
				"x": 4.5380989431,
				"y": -1.0649305029,
				"z": -0.5666459234,
				"element": "H" 
			},
			{
				"x": 3.5123014357,
				"y": 0.3467962433,
				"z": -0.7200136001,
				"element": "H" 
			},
			{
				"x": 4.2561068743,
				"y": -0.4428293664,
				"z": -2.9548372547,
				"element": "H" 
			},
			{
				"x": 2.5132602187,
				"y": -0.5749344427,
				"z": -2.7997038958,
				"element": "H" 
			},
			{
				"x": 4.5908112824,
				"y": -2.8052157605,
				"z": -2.8258589929,
				"element": "H" 
			},
			{
				"x": 3.1163725643,
				"y": -2.659977043,
				"z": -3.7628348139,
				"element": "H" 
			},
			{
				"x": 2.3353153219,
				"y": -4.2305898559,
				"z": -2.2043837062,
				"element": "H" 
			},
			{
				"x": 3.5267155846,
				"y": -3.7811904083,
				"z": -1.0030262522,
				"element": "H" 
			},
			{
				"x": 1.1814612813,
				"y": -3.2158242202,
				"z": -0.2679721467,
				"element": "H" 
			},
			{
				"x": 1.0336722517,
				"y": -2.1151500536,
				"z": -1.6374673465,
				"element": "H" 
			},
			{
				"x": -0.6822094014,
				"y": 2.7397164283,
				"z": 1.1449315111,
				"element": "H" 
			},
			{
				"x": -2.9004601076,
				"y": 2.8650537357,
				"z": 2.2565291775,
				"element": "H" 
			},
			{
				"x": -3.59955913,
				"y": -1.2785886658,
				"z": 1.3398077791,
				"element": "H" 
			},
			{
				"x": -1.3611140361,
				"y": -1.4000383105,
				"z": 0.2208260687,
				"element": "H" 
			},
			{
				"x": -4.9272846912,
				"y": 2.6723184734,
				"z": 2.092314694,
				"element": "H" 
			}
		],
		 "valence_orbital": [ 
			{
				"type": "occ",
				"energy": -0.29647,
				"method": "rhf"
			},
			{
				"type": "occ",
				"energy": -0.29339,
				"method": "rhf"
			},
			{
				"type": "occ",
				"energy": -0.2891,
				"method": "rhf"
			},
			{
				"type": "occ",
				"energy": -0.28027,
				"method": "rhf"
			},
			{
				"type": "occ",
				"energy": -0.25314,
				"method": "rhf"
			},
			{
				"type": "unocc",
				"energy": -0.0758,
				"method": "rhf"
			},
			{
				"type": "unocc",
				"energy": -0.03905,
				"method": "rhf"
			},
			{
				"type": "unocc",
				"energy": 0.0196,
				"method": "rhf"
			},
			{
				"type": "unocc",
				"energy": 0.044,
				"method": "rhf"
			},
			{
				"type": "unocc",
				"energy": 0.06269,
				"method": "rhf"
			}
		],
		"cosmo_sigma_profile": { 
			"-0.025": 0.0,
			"-0.024": 0.0,
			"-0.023": 0.0,
			"-0.022": 0.0,
			"-0.021": 0.0,
			"-0.02": 0.0517279044725,
			"-0.019": 0.658130832145,
			"-0.018": 1.4225627622,
			"-0.017": 0.684852148194,
			"-0.016": 0.618838704259,
			"-0.015": 0.775241016192,
			"-0.014": 1.06425295698,
			"-0.013": 1.6871845551,
			"-0.012": 1.47852146904,
			"-0.011": 1.32224296522,
			"-0.01": 0.98013664445,
			"-0.009": 1.51047714035,
			"-0.008": 3.4396700842,
			"-0.007": 8.80053566866,
			"-0.006": 10.4046903856,
			"-0.005": 12.5885255464,
			"-0.004": 16.8877335593,
			"-0.003": 26.9841251105,
			"-0.002": 35.5486679312,
			"-0.001": 35.3649895228,
			"0.0": 40.6997470074,
			"0.001": 33.6938429329,
			"0.002": 14.5255793025,
			"0.003": 6.70986409554,
			"0.004": 5.85431769768,
			"0.005": 7.31313681114,
			"0.006": 6.25212986728,
			"0.007": 4.3471959498,
			"0.008": 6.39046146784,
			"0.009": 7.63123180222,
			"0.01": 10.7335104057,
			"0.011": 11.7405813036,
			"0.012": 4.94632191683,
			"0.013": 0.529577170203,
			"0.014": 0.0,
			"0.015": 0.0,
			"0.016": 0.0,
			"0.017": 0.0,
			"0.018": 0.0,
			"0.019": 0.0,
			"0.02": 0.0,
			"0.021": 0.0,
			"0.022": 0.0,
			"0.023": 0.0,
			"0.024": 0.0,
			"0.025": 0.0
		}
	}
}
