{
	 "smiles": "NC1=CC=C(C=C1)C1=NC=C2CCCCN12", 
	 "Tm": 456.15, 
	 "num_atms": 31, 
	 "gaussian": { 
		 "optdone": 1, 
		 "sigma_profile": "yes", 
		 "theory": "DFT", 
		 "functional": "B3LYP", 
		 "basiset": "6-31G**", 
		 "properties": { 
			 "R2extent": 5073.6365, 
			 "electric_dipole_moment_norm": 4.76733739733, 
			 "electric_quadrupole_moment_norm": 22.7011610699, 
			 "total_energy": -668.695413795, 
			 "HOMO_LUMO_gap": 0.1786, 
			 "cosmo_polarized_energy": -16.42, 
			 "cosmo_cavitation_energy": 32.82, 
			 "cosmo_dispersion_energy": -24.32, 
			 "cosmo_repulsion_energy": 1.9, 
			 "cosmo_total_nonelectrostatic_energy": 10.39, 
			 "SMD_solvation_energy": 2.79 
		},
		"coords": [
			{
				"x": 0.233449674,
				"y": 4.444065526,
				"z": 2.6171805298,
				"element": "N" 
			},
			{
				"x": -0.085490408,
				"y": 3.1206243438,
				"z": 2.3114549219,
				"element": "C" 
			},
			{
				"x": -0.1532536815,
				"y": 2.1433891292,
				"z": 3.321032897,
				"element": "C" 
			},
			{
				"x": -0.5168037841,
				"y": 0.8372074797,
				"z": 3.0213977086,
				"element": "C" 
			},
			{
				"x": -0.8262262966,
				"y": 0.446373501,
				"z": 1.706929559,
				"element": "C" 
			},
			{
				"x": -0.7839562108,
				"y": 1.4332794523,
				"z": 0.7083104802,
				"element": "C" 
			},
			{
				"x": -0.4134996813,
				"y": 2.7426729002,
				"z": 0.9984197447,
				"element": "C" 
			},
			{
				"x": -1.240269608,
				"y": -0.9426418814,
				"z": 1.4562459746,
				"element": "C" 
			},
			{
				"x": -2.0054982884,
				"y": -1.6419939511,
				"z": 2.2797737731,
				"element": "N" 
			},
			{
				"x": -2.1377669123,
				"y": -2.8825792677,
				"z": 1.7070842563,
				"element": "C" 
			},
			{
				"x": -1.450831217,
				"y": -2.9543170391,
				"z": 0.5205134271,
				"element": "C" 
			},
			{
				"x": -1.300890217,
				"y": -4.0264843056,
				"z": -0.5171216052,
				"element": "C" 
			},
			{
				"x": 0.0124926266,
				"y": -3.8655061868,
				"z": -1.3014907848,
				"element": "C" 
			},
			{
				"x": 0.1653917084,
				"y": -2.4126837889,
				"z": -1.7700252233,
				"element": "C" 
			},
			{
				"x": 0.2267413068,
				"y": -1.4488033826,
				"z": -0.5813484891,
				"element": "C" 
			},
			{
				"x": -0.8798004097,
				"y": -1.6968247594,
				"z": 0.3513303821,
				"element": "N" 
			},
			{
				"x": 0.7657425584,
				"y": 4.5744960244,
				"z": 3.4661824779,
				"element": "H" 
			},
			{
				"x": 0.6026822928,
				"y": 4.9890089677,
				"z": 1.8505211714,
				"element": "H" 
			},
			{
				"x": 0.0810352444,
				"y": 2.4176332023,
				"z": 4.3470047748,
				"element": "H" 
			},
			{
				"x": -0.5717158245,
				"y": 0.0926872601,
				"z": 3.8086509864,
				"element": "H" 
			},
			{
				"x": -1.0815900135,
				"y": 1.1893621289,
				"z": -0.3072168203,
				"element": "H" 
			},
			{
				"x": -0.4009190437,
				"y": 3.4886342454,
				"z": 0.2073126526,
				"element": "H" 
			},
			{
				"x": -2.7377415459,
				"y": -3.6561298156,
				"z": 2.1687062202,
				"element": "H" 
			},
			{
				"x": -2.1399785844,
				"y": -3.9807743805,
				"z": -1.2280434828,
				"element": "H" 
			},
			{
				"x": -1.356226805,
				"y": -5.0104084945,
				"z": -0.0397387856,
				"element": "H" 
			},
			{
				"x": 0.86401848,
				"y": -4.133931184,
				"z": -0.6624083327,
				"element": "H" 
			},
			{
				"x": 0.0265324971,
				"y": -4.5477876672,
				"z": -2.1581216585,
				"element": "H" 
			},
			{
				"x": 1.0769313123,
				"y": -2.2853484458,
				"z": -2.364235609,
				"element": "H" 
			},
			{
				"x": -0.6802718325,
				"y": -2.1449365444,
				"z": -2.4169284118,
				"element": "H" 
			},
			{
				"x": 0.1928093073,
				"y": -0.4137826534,
				"z": -0.9218472809,
				"element": "H" 
			},
			{
				"x": 1.1763033561,
				"y": -1.5822004128,
				"z": -0.0449254538,
				"element": "H" 
			}
		],
		 "valence_orbital": [ 
			{
				"type": "occ",
				"energy": -0.2531,
				"method": "rhf"
			},
			{
				"type": "occ",
				"energy": -0.24712,
				"method": "rhf"
			},
			{
				"type": "occ",
				"energy": -0.24131,
				"method": "rhf"
			},
			{
				"type": "occ",
				"energy": -0.22146,
				"method": "rhf"
			},
			{
				"type": "occ",
				"energy": -0.1806,
				"method": "rhf"
			},
			{
				"type": "unocc",
				"energy": -0.002,
				"method": "rhf"
			},
			{
				"type": "unocc",
				"energy": 0.00611,
				"method": "rhf"
			},
			{
				"type": "unocc",
				"energy": 0.05185,
				"method": "rhf"
			},
			{
				"type": "unocc",
				"energy": 0.07717,
				"method": "rhf"
			},
			{
				"type": "unocc",
				"energy": 0.08364,
				"method": "rhf"
			}
		],
		"cosmo_sigma_profile": { 
			"-0.025": 0.0,
			"-0.024": 0.0,
			"-0.023": 0.0,
			"-0.022": 0.0,
			"-0.021": 0.0,
			"-0.02": 0.0,
			"-0.019": 0.0,
			"-0.018": 0.0,
			"-0.017": 0.0,
			"-0.016": 0.0,
			"-0.015": 0.0,
			"-0.014": 0.0,
			"-0.013": 0.426320451686,
			"-0.012": 2.53740689673,
			"-0.011": 2.98161208505,
			"-0.01": 2.67644642651,
			"-0.009": 3.19770051579,
			"-0.008": 2.74131927578,
			"-0.007": 4.28920332805,
			"-0.006": 7.43165882811,
			"-0.005": 11.6518955397,
			"-0.004": 23.9787920763,
			"-0.003": 33.3155784184,
			"-0.002": 26.6901567815,
			"-0.001": 23.0003492018,
			"0.0": 17.8715571804,
			"0.001": 10.3728780106,
			"0.002": 10.0159467902,
			"0.003": 9.52157164337,
			"0.004": 10.5953702347,
			"0.005": 12.9710590096,
			"0.006": 15.4266431508,
			"0.007": 6.76909524337,
			"0.008": 3.02461089037,
			"0.009": 2.96614551044,
			"0.01": 2.03692849608,
			"0.011": 3.2312799421,
			"0.012": 1.90552399549,
			"0.013": 1.61466923197,
			"0.014": 1.46533897319,
			"0.015": 1.50779237246,
			"0.016": 0.787738960293,
			"0.017": 0.885580442809,
			"0.018": 0.828376638261,
			"0.019": 0.284092882043,
			"0.02": 0.0,
			"0.021": 0.0,
			"0.022": 0.0,
			"0.023": 0.0,
			"0.024": 0.0,
			"0.025": 0.0
		}
	}
}
