{
	 "smiles": "ClC1=C2C(SC=C2C2=CC=CC=C2)=NC(=N1)C1=CN=CC=C1", 
	 "Tm": 429.15, 
	 "num_atms": 32, 
	 "gaussian": { 
		 "optdone": 1, 
		 "sigma_profile": "yes", 
		 "theory": "DFT", 
		 "functional": "B3LYP", 
		 "basiset": "6-31G**", 
		 "properties": { 
			 "R2extent": 9936.9836, 
			 "electric_dipole_moment_norm": 3.61797971249, 
			 "electric_quadrupole_moment_norm": 20.4749974938, 
			 "total_energy": -1676.47114473, 
			 "HOMO_LUMO_gap": 0.16145, 
			 "cosmo_polarized_energy": -10.52, 
			 "cosmo_cavitation_energy": 40.81, 
			 "cosmo_dispersion_energy": -29.57, 
			 "cosmo_repulsion_energy": 2.19, 
			 "cosmo_total_nonelectrostatic_energy": 13.44, 
			 "SMD_solvation_energy": 2.54 
		},
		"coords": [
			{
				"x": 1.4437890114,
				"y": 1.1313784003,
				"z": 0.253488276,
				"element": "Cl" 
			},
			{
				"x": 0.0037855013,
				"y": 0.1399304203,
				"z": 0.399070742,
				"element": "C" 
			},
			{
				"x": -0.2458909199,
				"y": -0.609275825,
				"z": 1.566799569,
				"element": "C" 
			},
			{
				"x": -1.4601718741,
				"y": -1.3442000857,
				"z": 1.4884250463,
				"element": "C" 
			},
			{
				"x": -1.746412703,
				"y": -2.265898935,
				"z": 2.9508354952,
				"element": "S" 
			},
			{
				"x": -0.2556192266,
				"y": -1.6588490362,
				"z": 3.6315396977,
				"element": "C" 
			},
			{
				"x": 0.4426003941,
				"y": -0.8062224678,
				"z": 2.8256814256,
				"element": "C" 
			},
			{
				"x": 1.7357224759,
				"y": -0.1977261193,
				"z": 3.2544142382,
				"element": "C" 
			},
			{
				"x": 1.7517066648,
				"y": 1.0182670851,
				"z": 3.9517321253,
				"element": "C" 
			},
			{
				"x": 2.9586696496,
				"y": 1.5705711298,
				"z": 4.3811716091,
				"element": "C" 
			},
			{
				"x": 4.1622712714,
				"y": 0.9123687832,
				"z": 4.1220210754,
				"element": "C" 
			},
			{
				"x": 4.1541549586,
				"y": -0.3023430355,
				"z": 3.4339287067,
				"element": "C" 
			},
			{
				"x": 2.9479039776,
				"y": -0.8557574026,
				"z": 3.0039229599,
				"element": "C" 
			},
			{
				"x": -2.296078679,
				"y": -1.3564757163,
				"z": 0.4577910145,
				"element": "N" 
			},
			{
				"x": -1.9341159423,
				"y": -0.5992098915,
				"z": -0.583618376,
				"element": "C" 
			},
			{
				"x": -0.8049190836,
				"y": 0.1466941597,
				"z": -0.6348113622,
				"element": "N" 
			},
			{
				"x": -2.8190465253,
				"y": -0.5652738813,
				"z": -1.7673811125,
				"element": "C" 
			},
			{
				"x": -4.0113639632,
				"y": -1.3089842359,
				"z": -1.8010128021,
				"element": "C" 
			},
			{
				"x": -4.8518553024,
				"y": -1.3203858894,
				"z": -2.8390671214,
				"element": "N" 
			},
			{
				"x": -4.5265681393,
				"y": -0.5745113486,
				"z": -3.9038017167,
				"element": "C" 
			},
			{
				"x": -3.3684238745,
				"y": 0.2019655904,
				"z": -3.9780600365,
				"element": "C" 
			},
			{
				"x": -2.4993551377,
				"y": 0.2074346628,
				"z": -2.8922409167,
				"element": "C" 
			},
			{
				"x": 0.0365016636,
				"y": -1.9741772311,
				"z": 4.6243062242,
				"element": "H" 
			},
			{
				"x": 0.815451067,
				"y": 1.5303818802,
				"z": 4.1534864463,
				"element": "H" 
			},
			{
				"x": 2.9579965942,
				"y": 2.5139443667,
				"z": 4.9195644618,
				"element": "H" 
			},
			{
				"x": 5.1016870808,
				"y": 1.3427712305,
				"z": 4.4566328798,
				"element": "H" 
			},
			{
				"x": 5.0869125421,
				"y": -0.8212787741,
				"z": 3.2327085283,
				"element": "H" 
			},
			{
				"x": 2.9417541639,
				"y": -1.8007109906,
				"z": 2.4686089941,
				"element": "H" 
			},
			{
				"x": -4.2836311924,
				"y": -1.9166883261,
				"z": -0.9427062825,
				"element": "H" 
			},
			{
				"x": -5.2263837487,
				"y": -0.5994981936,
				"z": -4.7374706294,
				"element": "H" 
			},
			{
				"x": -3.1564155565,
				"y": 0.7869597184,
				"z": -4.8674968374,
				"element": "H" 
			},
			{
				"x": -1.5857551478,
				"y": 0.7915999582,
				"z": -2.8947623218,
				"element": "H" 
			}
		],
		 "valence_orbital": [ 
			{
				"type": "occ",
				"energy": -0.26654,
				"method": "rhf"
			},
			{
				"type": "occ",
				"energy": -0.25917,
				"method": "rhf"
			},
			{
				"type": "occ",
				"energy": -0.25575,
				"method": "rhf"
			},
			{
				"type": "occ",
				"energy": -0.25192,
				"method": "rhf"
			},
			{
				"type": "occ",
				"energy": -0.23499,
				"method": "rhf"
			},
			{
				"type": "unocc",
				"energy": -0.07354,
				"method": "rhf"
			},
			{
				"type": "unocc",
				"energy": -0.05063,
				"method": "rhf"
			},
			{
				"type": "unocc",
				"energy": -0.02055,
				"method": "rhf"
			},
			{
				"type": "unocc",
				"energy": -0.01844,
				"method": "rhf"
			},
			{
				"type": "unocc",
				"energy": -0.01398,
				"method": "rhf"
			}
		],
		"cosmo_sigma_profile": { 
			"-0.025": 0.0,
			"-0.024": 0.0,
			"-0.023": 0.0,
			"-0.022": 0.0,
			"-0.021": 0.0,
			"-0.02": 0.0,
			"-0.019": 0.0,
			"-0.018": 0.0,
			"-0.017": 0.0,
			"-0.016": 0.0,
			"-0.015": 0.0,
			"-0.014": 0.0,
			"-0.013": 0.0,
			"-0.012": 0.0,
			"-0.011": 0.0,
			"-0.01": 1.01573254847,
			"-0.009": 2.3997758415,
			"-0.008": 1.92149104519,
			"-0.007": 5.52761780681,
			"-0.006": 15.4854174108,
			"-0.005": 20.7383822586,
			"-0.004": 20.6914737479,
			"-0.003": 24.2549993032,
			"-0.002": 28.0186558428,
			"-0.001": 29.2898295196,
			"0.0": 34.5508748763,
			"0.001": 38.2147859299,
			"0.002": 31.1876199741,
			"0.003": 22.5908788944,
			"0.004": 19.3464788296,
			"0.005": 16.7039051428,
			"0.006": 6.835139802,
			"0.007": 4.65782105988,
			"0.008": 3.99194780393,
			"0.009": 1.58875118921,
			"0.01": 0.652599858633,
			"0.011": 0.551365333983,
			"0.012": 1.19507665323,
			"0.013": 0.95701085177,
			"0.014": 0.803911347476,
			"0.015": 0.648758880506,
			"0.016": 1.03168910289,
			"0.017": 0.111889181368,
			"0.018": 0.0,
			"0.019": 0.0,
			"0.02": 0.0,
			"0.021": 0.0,
			"0.022": 0.0,
			"0.023": 0.0,
			"0.024": 0.0,
			"0.025": 0.0
		}
	}
}
