{
	 "smiles": "CCSCCSCC", 
	 "Tm": 453.15, 
	 "num_atms": 22, 
	 "gaussian": { 
		 "optdone": 1, 
		 "sigma_profile": "yes", 
		 "theory": "DFT", 
		 "functional": "B3LYP", 
		 "basiset": "6-31G**", 
		 "properties": { 
			 "R2extent": 2464.1449, 
			 "electric_dipole_moment_norm": 0.341639824962, 
			 "electric_quadrupole_moment_norm": 10.5552710032, 
			 "total_energy": -1033.462975, 
			 "HOMO_LUMO_gap": 0.25497, 
			 "cosmo_polarized_energy": -7.04, 
			 "cosmo_cavitation_energy": 26.9, 
			 "cosmo_dispersion_energy": -20.04, 
			 "cosmo_repulsion_energy": 1.6, 
			 "cosmo_total_nonelectrostatic_energy": 8.45, 
			 "SMD_solvation_energy": 3.72 
		},
		"coords": [
			{
				"x": 2.945245861,
				"y": -2.4959512646,
				"z": 0.167017049,
				"element": "C" 
			},
			{
				"x": 2.683445445,
				"y": -1.1089958121,
				"z": 0.7523271275,
				"element": "C" 
			},
			{
				"x": 1.7759144821,
				"y": 0.0397186494,
				"z": -0.3633530979,
				"element": "S" 
			},
			{
				"x": 0.0719508345,
				"y": -0.6535058144,
				"z": -0.322394438,
				"element": "C" 
			},
			{
				"x": -0.6966113005,
				"y": -0.3047492099,
				"z": 0.9545352017,
				"element": "C" 
			},
			{
				"x": -2.3911115499,
				"y": -1.0285332504,
				"z": 1.0276298225,
				"element": "S" 
			},
			{
				"x": -3.4398503823,
				"y": 0.3548792061,
				"z": 0.4196690253,
				"element": "C" 
			},
			{
				"x": -3.3228345901,
				"y": 0.6868890141,
				"z": -1.0671015186,
				"element": "C" 
			},
			{
				"x": 2.0134301783,
				"y": -3.0292512741,
				"z": -0.0450206922,
				"element": "H" 
			},
			{
				"x": 3.512694772,
				"y": -2.426497158,
				"z": -0.7650587943,
				"element": "H" 
			},
			{
				"x": 3.5183656638,
				"y": -3.1045893041,
				"z": 0.8763655479,
				"element": "H" 
			},
			{
				"x": 3.6268273114,
				"y": -0.5910969653,
				"z": 0.9513526857,
				"element": "H" 
			},
			{
				"x": 2.1540213582,
				"y": -1.1745603897,
				"z": 1.7082472036,
				"element": "H" 
			},
			{
				"x": 0.1114066499,
				"y": -1.7363850931,
				"z": -0.4684258006,
				"element": "H" 
			},
			{
				"x": -0.4235107162,
				"y": -0.2340476051,
				"z": -1.2012035832,
				"element": "H" 
			},
			{
				"x": -0.7700716447,
				"y": 0.7791304105,
				"z": 1.0829676092,
				"element": "H" 
			},
			{
				"x": -0.174786777,
				"y": -0.6965213498,
				"z": 1.8320239682,
				"element": "H" 
			},
			{
				"x": -3.2372261283,
				"y": 1.2357216747,
				"z": 1.0381619929,
				"element": "H" 
			},
			{
				"x": -4.4568061868,
				"y": 0.0264641192,
				"z": 0.6576351667,
				"element": "H" 
			},
			{
				"x": -2.33099334,
				"y": 1.0749712326,
				"z": -1.3173766995,
				"element": "H" 
			},
			{
				"x": -4.0539970515,
				"y": 1.4573768005,
				"z": -1.3394874788,
				"element": "H" 
			},
			{
				"x": -3.508702889,
				"y": -0.1966666163,
				"z": -1.6842102971,
				"element": "H" 
			}
		],
		 "valence_orbital": [ 
			{
				"type": "occ",
				"energy": -0.32797,
				"method": "rhf"
			},
			{
				"type": "occ",
				"energy": -0.30917,
				"method": "rhf"
			},
			{
				"type": "occ",
				"energy": -0.29415,
				"method": "rhf"
			},
			{
				"type": "occ",
				"energy": -0.22668,
				"method": "rhf"
			},
			{
				"type": "occ",
				"energy": -0.21684,
				"method": "rhf"
			},
			{
				"type": "unocc",
				"energy": 0.03813,
				"method": "rhf"
			},
			{
				"type": "unocc",
				"energy": 0.04043,
				"method": "rhf"
			},
			{
				"type": "unocc",
				"energy": 0.06591,
				"method": "rhf"
			},
			{
				"type": "unocc",
				"energy": 0.07553,
				"method": "rhf"
			},
			{
				"type": "unocc",
				"energy": 0.09012,
				"method": "rhf"
			}
		],
		"cosmo_sigma_profile": { 
			"-0.025": 0.0,
			"-0.024": 0.0,
			"-0.023": 0.0,
			"-0.022": 0.0,
			"-0.021": 0.0,
			"-0.02": 0.0,
			"-0.019": 0.0,
			"-0.018": 0.0,
			"-0.017": 0.0,
			"-0.016": 0.0,
			"-0.015": 0.0,
			"-0.014": 0.0,
			"-0.013": 0.0,
			"-0.012": 0.0,
			"-0.011": 0.0,
			"-0.01": 0.0,
			"-0.009": 0.0,
			"-0.008": 0.0,
			"-0.007": 0.0512321079307,
			"-0.006": 4.47106695341,
			"-0.005": 18.5540721518,
			"-0.004": 20.9362567096,
			"-0.003": 25.0060052383,
			"-0.002": 26.2867051279,
			"-0.001": 27.0355765238,
			"0.0": 20.3657704909,
			"0.001": 15.3436914044,
			"0.002": 6.16890590832,
			"0.003": 5.60587173896,
			"0.004": 6.25364994226,
			"0.005": 5.46781271826,
			"0.006": 6.55865297538,
			"0.007": 7.17873082879,
			"0.008": 5.28682892562,
			"0.009": 4.61194232116,
			"0.01": 4.0219002946,
			"0.011": 3.67620227491,
			"0.012": 0.28163387264,
			"0.013": 0.0,
			"0.014": 0.0,
			"0.015": 0.0,
			"0.016": 0.0,
			"0.017": 0.0,
			"0.018": 0.0,
			"0.019": 0.0,
			"0.02": 0.0,
			"0.021": 0.0,
			"0.022": 0.0,
			"0.023": 0.0,
			"0.024": 0.0,
			"0.025": 0.0
		}
	}
}
