{
	 "smiles": "CC(=O)C1=CC=C2NC(=O)SC2=C1", 
	 "Tm": 465.15, 
	 "num_atms": 20, 
	 "gaussian": { 
		 "optdone": 1, 
		 "sigma_profile": "yes", 
		 "theory": "DFT", 
		 "functional": "B3LYP", 
		 "basiset": "6-31G**", 
		 "properties": { 
			 "R2extent": 4017.2425, 
			 "electric_dipole_moment_norm": 0.671726276098, 
			 "electric_quadrupole_moment_norm": 24.9694165937, 
			 "total_energy": -950.591788986, 
			 "HOMO_LUMO_gap": 0.17239, 
			 "cosmo_polarized_energy": -15.48, 
			 "cosmo_cavitation_energy": 26.48, 
			 "cosmo_dispersion_energy": -20.08, 
			 "cosmo_repulsion_energy": 1.52, 
			 "cosmo_total_nonelectrostatic_energy": 7.92, 
			 "SMD_solvation_energy": 5.61 
		},
		"coords": [
			{
				"x": -2.071706928,
				"y": -0.3071483206,
				"z": 4.3714398814,
				"element": "C" 
			},
			{
				"x": -1.362665007,
				"y": 0.5988644456,
				"z": 3.3784980607,
				"element": "C" 
			},
			{
				"x": -1.311649354,
				"y": 1.8056539414,
				"z": 3.5650678253,
				"element": "O" 
			},
			{
				"x": -0.7266849188,
				"y": -0.0109927741,
				"z": 2.1673047137,
				"element": "C" 
			},
			{
				"x": -0.076000267,
				"y": 0.8479012299,
				"z": 1.2625997223,
				"element": "C" 
			},
			{
				"x": 0.5386422595,
				"y": 0.3619955359,
				"z": 0.1154915424,
				"element": "C" 
			},
			{
				"x": 0.5002288785,
				"y": -1.0132467538,
				"z": -0.1298530741,
				"element": "C" 
			},
			{
				"x": 1.0513809142,
				"y": -1.681639214,
				"z": -1.2108953856,
				"element": "N" 
			},
			{
				"x": 0.8987673929,
				"y": -3.0580742916,
				"z": -1.2641256269,
				"element": "C" 
			},
			{
				"x": 1.3116590901,
				"y": -3.7946516536,
				"z": -2.1261473101,
				"element": "O" 
			},
			{
				"x": -0.0434372186,
				"y": -3.5618418762,
				"z": 0.2133822191,
				"element": "S" 
			},
			{
				"x": -0.1472192464,
				"y": -1.8856709392,
				"z": 0.7663387145,
				"element": "C" 
			},
			{
				"x": -0.7595623631,
				"y": -1.3918256779,
				"z": 1.9114314612,
				"element": "C" 
			},
			{
				"x": -2.4681326453,
				"y": 0.3072801393,
				"z": 5.179910763,
				"element": "H" 
			},
			{
				"x": -2.8939323999,
				"y": -0.8506007186,
				"z": 3.8926487885,
				"element": "H" 
			},
			{
				"x": -1.3841625625,
				"y": -1.0526014663,
				"z": 4.7864278722,
				"element": "H" 
			},
			{
				"x": -0.0693216025,
				"y": 1.9081206712,
				"z": 1.4904172772,
				"element": "H" 
			},
			{
				"x": 1.0386511231,
				"y": 1.032149602,
				"z": -0.5773605401,
				"element": "H" 
			},
			{
				"x": 1.5557790065,
				"y": -1.2262558076,
				"z": -1.9593337834,
				"element": "H" 
			},
			{
				"x": -1.2551341517,
				"y": -2.0728160718,
				"z": 2.5944568785,
				"element": "H" 
			}
		],
		 "valence_orbital": [ 
			{
				"type": "occ",
				"energy": -0.31527,
				"method": "rhf"
			},
			{
				"type": "occ",
				"energy": -0.28739,
				"method": "rhf"
			},
			{
				"type": "occ",
				"energy": -0.26017,
				"method": "rhf"
			},
			{
				"type": "occ",
				"energy": -0.25425,
				"method": "rhf"
			},
			{
				"type": "occ",
				"energy": -0.2346,
				"method": "rhf"
			},
			{
				"type": "unocc",
				"energy": -0.06221,
				"method": "rhf"
			},
			{
				"type": "unocc",
				"energy": -0.0274,
				"method": "rhf"
			},
			{
				"type": "unocc",
				"energy": -0.007,
				"method": "rhf"
			},
			{
				"type": "unocc",
				"energy": 0.00631,
				"method": "rhf"
			},
			{
				"type": "unocc",
				"energy": 0.03967,
				"method": "rhf"
			}
		],
		"cosmo_sigma_profile": { 
			"-0.025": 0.0,
			"-0.024": 0.0,
			"-0.023": 0.0,
			"-0.022": 0.0,
			"-0.021": 0.0,
			"-0.02": 0.0,
			"-0.019": 0.0,
			"-0.018": 0.014874764251,
			"-0.017": 1.32817757979,
			"-0.016": 1.65467343075,
			"-0.015": 1.48675662088,
			"-0.014": 0.991227247576,
			"-0.013": 0.951867336715,
			"-0.012": 0.733531726193,
			"-0.011": 0.956499192756,
			"-0.01": 1.78451318757,
			"-0.009": 1.62499800806,
			"-0.008": 4.41083382562,
			"-0.007": 6.97627620008,
			"-0.006": 10.8623977342,
			"-0.005": 11.6944040517,
			"-0.004": 10.4984937672,
			"-0.003": 12.5486001308,
			"-0.002": 15.9345314523,
			"-0.001": 18.6027095474,
			"0.0": 16.001573975,
			"0.001": 18.4499823261,
			"0.002": 18.0181704147,
			"0.003": 14.2983610343,
			"0.004": 6.46525082096,
			"0.005": 4.55737368684,
			"0.006": 2.58184631078,
			"0.007": 2.89821372095,
			"0.008": 3.20872673608,
			"0.009": 2.75503291675,
			"0.01": 4.72660008806,
			"0.011": 8.59144606322,
			"0.012": 7.18487661613,
			"0.013": 1.62196170793,
			"0.014": 0.24107419633,
			"0.015": 0.0,
			"0.016": 0.0,
			"0.017": 0.0,
			"0.018": 0.0,
			"0.019": 0.0,
			"0.02": 0.0,
			"0.021": 0.0,
			"0.022": 0.0,
			"0.023": 0.0,
			"0.024": 0.0,
			"0.025": 0.0
		}
	}
}
