{
	 "smiles": "CC(=O)OCC(=O)[C@@]1(O)CC[C@H]2[C@@H]3CCC4=CC(=O)C=C[C@]4(C)[C@H]3[C@@H](O)C[C@]12C", 
	 "Tm": 511.15, 
	 "num_atms": 59, 
	 "gaussian": { 
		 "optdone": 1, 
		 "sigma_profile": "yes", 
		 "theory": "DFT", 
		 "functional": "B3LYP", 
		 "basiset": "6-31G**", 
		 "properties": { 
			 "R2extent": 13646.8986, 
			 "electric_dipole_moment_norm": 3.34913553175, 
			 "electric_quadrupole_moment_norm": 60.1268068721, 
			 "total_energy": -1345.84931854, 
			 "HOMO_LUMO_gap": 0.17823, 
			 "cosmo_polarized_energy": -25.37, 
			 "cosmo_cavitation_energy": 54.04, 
			 "cosmo_dispersion_energy": -36.22, 
			 "cosmo_repulsion_energy": 2.64, 
			 "cosmo_total_nonelectrostatic_energy": 20.46, 
			 "SMD_solvation_energy": 10.52 
		},
		"coords": [
			{
				"x": 0.0882742532,
				"y": 5.4527715135,
				"z": -1.4617300855,
				"element": "C" 
			},
			{
				"x": -0.2606772321,
				"y": 4.7665448116,
				"z": -2.7582230616,
				"element": "C" 
			},
			{
				"x": -0.5884480322,
				"y": 5.3044526682,
				"z": -3.7871731443,
				"element": "O" 
			},
			{
				"x": -0.1695147683,
				"y": 3.4052826911,
				"z": -2.6332066655,
				"element": "O" 
			},
			{
				"x": -0.4996995538,
				"y": 2.6544561577,
				"z": -3.8225697974,
				"element": "C" 
			},
			{
				"x": -0.3383367203,
				"y": 1.1471114926,
				"z": -3.5997468946,
				"element": "C" 
			},
			{
				"x": 0.0287778611,
				"y": 0.4843957567,
				"z": -4.5512748888,
				"element": "O" 
			},
			{
				"x": -0.7266427225,
				"y": 0.5116000286,
				"z": -2.2515496374,
				"element": "C" 
			},
			{
				"x": -1.6610807611,
				"y": 1.3531622416,
				"z": -1.5748254996,
				"element": "O" 
			},
			{
				"x": -1.4443160774,
				"y": -0.8535182313,
				"z": -2.4632579217,
				"element": "C" 
			},
			{
				"x": -1.0032216747,
				"y": -1.7869818816,
				"z": -1.3022952085,
				"element": "C" 
			},
			{
				"x": -0.2100637875,
				"y": -0.8619482238,
				"z": -0.3657759438,
				"element": "C" 
			},
			{
				"x": 0.7024592238,
				"y": -1.4763617533,
				"z": 0.7052076308,
				"element": "C" 
			},
			{
				"x": -0.1100706608,
				"y": -2.3999832826,
				"z": 1.633765132,
				"element": "C" 
			},
			{
				"x": 0.6879784746,
				"y": -2.8950654884,
				"z": 2.8557601047,
				"element": "C" 
			},
			{
				"x": 1.3412361936,
				"y": -1.7411323578,
				"z": 3.5706880314,
				"element": "C" 
			},
			{
				"x": 1.0786723637,
				"y": -1.4599705395,
				"z": 4.8613535989,
				"element": "C" 
			},
			{
				"x": 1.6569493438,
				"y": -0.3054724625,
				"z": 5.5713889302,
				"element": "C" 
			},
			{
				"x": 1.3990481934,
				"y": -0.0618779871,
				"z": 6.7486419282,
				"element": "O" 
			},
			{
				"x": 2.5720806645,
				"y": 0.542878289,
				"z": 4.778598973,
				"element": "C" 
			},
			{
				"x": 2.8381583632,
				"y": 0.280534106,
				"z": 3.4911707787,
				"element": "C" 
			},
			{
				"x": 2.2601689882,
				"y": -0.8778389365,
				"z": 2.7161822936,
				"element": "C" 
			},
			{
				"x": 3.4682569063,
				"y": -1.744333504,
				"z": 2.2449268799,
				"element": "C" 
			},
			{
				"x": 1.3559639213,
				"y": -0.3310855729,
				"z": 1.529450927,
				"element": "C" 
			},
			{
				"x": 2.004018609,
				"y": 0.7810047423,
				"z": 0.6710819262,
				"element": "C" 
			},
			{
				"x": 3.2746389878,
				"y": 0.3303279224,
				"z": 0.1913304218,
				"element": "O" 
			},
			{
				"x": 1.0857798922,
				"y": 1.2648945582,
				"z": -0.475078813,
				"element": "C" 
			},
			{
				"x": 0.5059072514,
				"y": 0.1239901704,
				"z": -1.3269700776,
				"element": "C" 
			},
			{
				"x": 1.6063851101,
				"y": -0.5506380633,
				"z": -2.1748719978,
				"element": "C" 
			},
			{
				"x": 1.043369528,
				"y": 5.0861267288,
				"z": -1.0766240861,
				"element": "H" 
			},
			{
				"x": 0.1366412147,
				"y": 6.5283046674,
				"z": -1.6276694291,
				"element": "H" 
			},
			{
				"x": -0.6765622051,
				"y": 5.2371610219,
				"z": -0.7084820801,
				"element": "H" 
			},
			{
				"x": -1.5366112719,
				"y": 2.8639738421,
				"z": -4.1104639814,
				"element": "H" 
			},
			{
				"x": 0.1484146077,
				"y": 2.953652584,
				"z": -4.6475642439,
				"element": "H" 
			},
			{
				"x": -1.2452066566,
				"y": 2.2185143499,
				"z": -1.4510767095,
				"element": "H" 
			},
			{
				"x": -2.5199911371,
				"y": -0.6618262433,
				"z": -2.4545351456,
				"element": "H" 
			},
			{
				"x": -1.1822911729,
				"y": -1.263109409,
				"z": -3.4397604019,
				"element": "H" 
			},
			{
				"x": -0.3738978174,
				"y": -2.6035477861,
				"z": -1.6743189082,
				"element": "H" 
			},
			{
				"x": -1.8603982449,
				"y": -2.2463638476,
				"z": -0.8029367107,
				"element": "H" 
			},
			{
				"x": -0.9541597483,
				"y": -0.2545107148,
				"z": 0.1694983927,
				"element": "H" 
			},
			{
				"x": 1.485724815,
				"y": -2.0697671273,
				"z": 0.2172474696,
				"element": "H" 
			},
			{
				"x": -0.4880184954,
				"y": -3.2600936725,
				"z": 1.0702080204,
				"element": "H" 
			},
			{
				"x": -0.9895929776,
				"y": -1.8471347406,
				"z": 1.992101804,
				"element": "H" 
			},
			{
				"x": 1.4529062165,
				"y": -3.6084451728,
				"z": 2.5217878808,
				"element": "H" 
			},
			{
				"x": 0.029994128,
				"y": -3.4375116446,
				"z": 3.5420980083,
				"element": "H" 
			},
			{
				"x": 0.4073207757,
				"y": -2.0842053433,
				"z": 5.4464278821,
				"element": "H" 
			},
			{
				"x": 3.027317517,
				"y": 1.3787989165,
				"z": 5.302648873,
				"element": "H" 
			},
			{
				"x": 3.5460921417,
				"y": 0.9014118495,
				"z": 2.9461412608,
				"element": "H" 
			},
			{
				"x": 4.1899123444,
				"y": -1.1324493768,
				"z": 1.7061630865,
				"element": "H" 
			},
			{
				"x": 3.9536150762,
				"y": -2.1888850734,
				"z": 3.1192388951,
				"element": "H" 
			},
			{
				"x": 3.1601358925,
				"y": -2.5544650788,
				"z": 1.5806544578,
				"element": "H" 
			},
			{
				"x": 0.5239788168,
				"y": 0.1820361891,
				"z": 2.0355836038,
				"element": "H" 
			},
			{
				"x": 2.1646556375,
				"y": 1.6472888774,
				"z": 1.3314431856,
				"element": "H" 
			},
			{
				"x": 3.6156856636,
				"y": 0.9961565074,
				"z": -0.4198401918,
				"element": "H" 
			},
			{
				"x": 0.2634078063,
				"y": 1.8231317231,
				"z": -0.0121443331,
				"element": "H" 
			},
			{
				"x": 1.6444036125,
				"y": 1.9865996255,
				"z": -1.0879229871,
				"element": "H" 
			},
			{
				"x": 2.1110638859,
				"y": 0.1866902843,
				"z": -2.8078563745,
				"element": "H" 
			},
			{
				"x": 1.2063092209,
				"y": -1.312746628,
				"z": -2.846112442,
				"element": "H" 
			},
			{
				"x": 2.3665982163,
				"y": -1.0014841735,
				"z": -1.5376327149,
				"element": "H" 
			}
		],
		 "valence_orbital": [ 
			{
				"type": "occ",
				"energy": -0.27793,
				"method": "rhf"
			},
			{
				"type": "occ",
				"energy": -0.26562,
				"method": "rhf"
			},
			{
				"type": "occ",
				"energy": -0.2549,
				"method": "rhf"
			},
			{
				"type": "occ",
				"energy": -0.24943,
				"method": "rhf"
			},
			{
				"type": "occ",
				"energy": -0.22943,
				"method": "rhf"
			},
			{
				"type": "unocc",
				"energy": -0.0512,
				"method": "rhf"
			},
			{
				"type": "unocc",
				"energy": -0.04455,
				"method": "rhf"
			},
			{
				"type": "unocc",
				"energy": -0.01579,
				"method": "rhf"
			},
			{
				"type": "unocc",
				"energy": 0.00269,
				"method": "rhf"
			},
			{
				"type": "unocc",
				"energy": 0.04581,
				"method": "rhf"
			}
		],
		"cosmo_sigma_profile": { 
			"-0.025": 0.0,
			"-0.024": 0.0,
			"-0.023": 0.0,
			"-0.022": 0.0,
			"-0.021": 0.0,
			"-0.02": 0.0,
			"-0.019": 0.0,
			"-0.018": 0.0,
			"-0.017": 0.0,
			"-0.016": 0.0,
			"-0.015": 0.497501531216,
			"-0.014": 0.897098982016,
			"-0.013": 1.0831453305,
			"-0.012": 0.788748719737,
			"-0.011": 1.0651332858,
			"-0.01": 1.66308712756,
			"-0.009": 2.60221892608,
			"-0.008": 5.79991054141,
			"-0.007": 8.57034983013,
			"-0.006": 14.3477955805,
			"-0.005": 22.7482917936,
			"-0.004": 33.9128496829,
			"-0.003": 45.6371292287,
			"-0.002": 52.76917665,
			"-0.001": 47.6297298197,
			"0.0": 35.2254051397,
			"0.001": 27.9704317261,
			"0.002": 20.4915976477,
			"0.003": 13.045690937,
			"0.004": 10.3652362136,
			"0.005": 8.19047756186,
			"0.006": 7.03172473892,
			"0.007": 6.91974474086,
			"0.008": 6.93926435729,
			"0.009": 6.1569118115,
			"0.01": 8.18429763139,
			"0.011": 11.728504039,
			"0.012": 5.45893442507,
			"0.013": 6.01942554474,
			"0.014": 4.34190857459,
			"0.015": 1.62188930083,
			"0.016": 0.0,
			"0.017": 0.0,
			"0.018": 0.0,
			"0.019": 0.0,
			"0.02": 0.0,
			"0.021": 0.0,
			"0.022": 0.0,
			"0.023": 0.0,
			"0.024": 0.0,
			"0.025": 0.0
		}
	}
}
