{
	 "smiles": "CN(C)C(=O)C1=CC=C(C=C1)C#N", 
	 "Tm": 367.15, 
	 "num_atms": 23, 
	 "gaussian": { 
		 "optdone": 1, 
		 "sigma_profile": "yes", 
		 "theory": "DFT", 
		 "functional": "B3LYP", 
		 "basiset": "6-31G**", 
		 "properties": { 
			 "R2extent": 3952.4624, 
			 "electric_dipole_moment_norm": 5.31118155687, 
			 "electric_quadrupole_moment_norm": 22.2685957573, 
			 "total_energy": -571.809366583, 
			 "HOMO_LUMO_gap": 0.18112, 
			 "cosmo_polarized_energy": -14.54, 
			 "cosmo_cavitation_energy": 28.07, 
			 "cosmo_dispersion_energy": -19.59, 
			 "cosmo_repulsion_energy": 1.55, 
			 "cosmo_total_nonelectrostatic_energy": 10.03, 
			 "SMD_solvation_energy": 6.86 
		},
		"coords": [
			{
				"x": 1.5222807809,
				"y": -0.7272517245,
				"z": 0.3575781989,
				"element": "C" 
			},
			{
				"x": 1.0637842571,
				"y": 0.0741778249,
				"z": -0.7699084624,
				"element": "N" 
			},
			{
				"x": 2.1127797177,
				"y": 0.7981964326,
				"z": -1.4786520686,
				"element": "C" 
			},
			{
				"x": -0.1531891166,
				"y": -0.0649976786,
				"z": -1.3953444991,
				"element": "C" 
			},
			{
				"x": -0.357860889,
				"y": 0.3440640722,
				"z": -2.5360309526,
				"element": "O" 
			},
			{
				"x": -1.2938133079,
				"y": -0.6908688527,
				"z": -0.6300315731,
				"element": "C" 
			},
			{
				"x": -1.6063098191,
				"y": -0.3410654255,
				"z": 0.6913645304,
				"element": "C" 
			},
			{
				"x": -2.7367205496,
				"y": -0.8628834126,
				"z": 1.3136170279,
				"element": "C" 
			},
			{
				"x": -3.5682552326,
				"y": -1.7545401476,
				"z": 0.6165786308,
				"element": "C" 
			},
			{
				"x": -3.2679279787,
				"y": -2.0974638604,
				"z": -0.7137128881,
				"element": "C" 
			},
			{
				"x": -2.1478372088,
				"y": -1.5541738502,
				"z": -1.330667579,
				"element": "C" 
			},
			{
				"x": -4.7253748851,
				"y": -2.3070227633,
				"z": 1.2591254563,
				"element": "C" 
			},
			{
				"x": -5.6617734508,
				"y": -2.7573228653,
				"z": 1.7822078381,
				"element": "N" 
			},
			{
				"x": 1.8479582361,
				"y": -0.0889570731,
				"z": 1.1884527326,
				"element": "H" 
			},
			{
				"x": 0.7348106654,
				"y": -1.3891857443,
				"z": 0.7122559581,
				"element": "H" 
			},
			{
				"x": 2.3766927128,
				"y": -1.3461814893,
				"z": 0.0531059363,
				"element": "H" 
			},
			{
				"x": 2.6765326078,
				"y": 1.4118613291,
				"z": -0.7677435727,
				"element": "H" 
			},
			{
				"x": 1.6555011506,
				"y": 1.4306727872,
				"z": -2.237255378,
				"element": "H" 
			},
			{
				"x": 2.8108537763,
				"y": 0.1075034087,
				"z": -1.9707849907,
				"element": "H" 
			},
			{
				"x": -0.9753052357,
				"y": 0.3585444687,
				"z": 1.2302160533,
				"element": "H" 
			},
			{
				"x": -2.9836028886,
				"y": -0.5834763384,
				"z": 2.3323182052,
				"element": "H" 
			},
			{
				"x": -3.9197132044,
				"y": -2.7770304341,
				"z": -1.2522795957,
				"element": "H" 
			},
			{
				"x": -1.9249101377,
				"y": -1.7816986633,
				"z": -2.3674090081,
				"element": "H" 
			}
		],
		 "valence_orbital": [ 
			{
				"type": "occ",
				"energy": -0.33353,
				"method": "rhf"
			},
			{
				"type": "occ",
				"energy": -0.28244,
				"method": "rhf"
			},
			{
				"type": "occ",
				"energy": -0.27686,
				"method": "rhf"
			},
			{
				"type": "occ",
				"energy": -0.25801,
				"method": "rhf"
			},
			{
				"type": "occ",
				"energy": -0.24841,
				"method": "rhf"
			},
			{
				"type": "unocc",
				"energy": -0.06729,
				"method": "rhf"
			},
			{
				"type": "unocc",
				"energy": -0.0302,
				"method": "rhf"
			},
			{
				"type": "unocc",
				"energy": 0.01957,
				"method": "rhf"
			},
			{
				"type": "unocc",
				"energy": 0.0335,
				"method": "rhf"
			},
			{
				"type": "unocc",
				"energy": 0.07258,
				"method": "rhf"
			}
		],
		"cosmo_sigma_profile": { 
			"-0.025": 0.0,
			"-0.024": 0.0,
			"-0.023": 0.0,
			"-0.022": 0.0,
			"-0.021": 0.0,
			"-0.02": 0.0,
			"-0.019": 0.0,
			"-0.018": 0.0,
			"-0.017": 0.0,
			"-0.016": 0.0,
			"-0.015": 0.0,
			"-0.014": 0.0,
			"-0.013": 0.0,
			"-0.012": 0.0,
			"-0.011": 0.0,
			"-0.01": 0.0,
			"-0.009": 0.315676987932,
			"-0.008": 4.48070889479,
			"-0.007": 8.65989314455,
			"-0.006": 8.98879242642,
			"-0.005": 19.7092572885,
			"-0.004": 23.9162978617,
			"-0.003": 24.3127442562,
			"-0.002": 26.3466019415,
			"-0.001": 15.7154905407,
			"0.0": 13.4664239819,
			"0.001": 14.9198479354,
			"0.002": 11.1506973523,
			"0.003": 4.52861210205,
			"0.004": 3.78938422517,
			"0.005": 4.34175666418,
			"0.006": 3.86870700731,
			"0.007": 4.20659491671,
			"0.008": 5.8347409822,
			"0.009": 4.80700688262,
			"0.01": 3.96630265586,
			"0.011": 4.97271517433,
			"0.012": 4.18836577059,
			"0.013": 5.6602059021,
			"0.014": 2.61037272115,
			"0.015": 0.106355883835,
			"0.016": 0.0,
			"0.017": 0.0,
			"0.018": 0.0,
			"0.019": 0.0,
			"0.02": 0.0,
			"0.021": 0.0,
			"0.022": 0.0,
			"0.023": 0.0,
			"0.024": 0.0,
			"0.025": 0.0
		}
	}
}
