{
	 "smiles": "CCC1=CC=C(Br)C=C1", 
	 "Tm": 229.95, 
	 "num_atms": 18, 
	 "gaussian": { 
		 "optdone": 1, 
		 "sigma_profile": "yes", 
		 "theory": "DFT", 
		 "functional": "B3LYP", 
		 "basiset": "6-31G**", 
		 "properties": { 
			 "R2extent": 2873.2999, 
			 "electric_dipole_moment_norm": 2.25195446668, 
			 "electric_quadrupole_moment_norm": 5.86589712406, 
			 "total_energy": -2881.69085421, 
			 "HOMO_LUMO_gap": 0.22297, 
			 "cosmo_polarized_energy": -3.73, 
			 "cosmo_cavitation_energy": 23.66, 
			 "cosmo_dispersion_energy": -17.67, 
			 "cosmo_repulsion_energy": 1.46, 
			 "cosmo_total_nonelectrostatic_energy": 7.45, 
			 "SMD_solvation_energy": 2.88 
		},
		"coords": [
			{
				"x": 2.6909354909,
				"y": -1.0274403589,
				"z": -2.3968886856,
				"element": "C" 
			},
			{
				"x": 1.4678251407,
				"y": -1.9529654934,
				"z": -2.2673338808,
				"element": "C" 
			},
			{
				"x": 0.3658297578,
				"y": -1.356228848,
				"z": -1.4178185749,
				"element": "C" 
			},
			{
				"x": 0.3339554273,
				"y": -1.5577948959,
				"z": -0.0314967492,
				"element": "C" 
			},
			{
				"x": -0.6551737529,
				"y": -0.9812701578,
				"z": 0.765798588,
				"element": "C" 
			},
			{
				"x": -1.6311879673,
				"y": -0.1883677588,
				"z": 0.1658358939,
				"element": "C" 
			},
			{
				"x": -2.9969949908,
				"y": 0.6050859171,
				"z": 1.2461593244,
				"element": "Br" 
			},
			{
				"x": -1.630249242,
				"y": 0.030742945,
				"z": -1.2101144157,
				"element": "C" 
			},
			{
				"x": -0.6320215168,
				"y": -0.5552191436,
				"z": -1.9889659112,
				"element": "C" 
			},
			{
				"x": 3.1243467121,
				"y": -0.8099998458,
				"z": -1.4152949957,
				"element": "H" 
			},
			{
				"x": 2.4137548965,
				"y": -0.072450047,
				"z": -2.8549477263,
				"element": "H" 
			},
			{
				"x": 3.4669021293,
				"y": -1.4890321842,
				"z": -3.0163718487,
				"element": "H" 
			},
			{
				"x": 1.7834431762,
				"y": -2.9101015574,
				"z": -1.8354886725,
				"element": "H" 
			},
			{
				"x": 1.0769468787,
				"y": -2.1768318431,
				"z": -3.2669893964,
				"element": "H" 
			},
			{
				"x": 1.092595744,
				"y": -2.1800181291,
				"z": 0.4373210061,
				"element": "H" 
			},
			{
				"x": -0.6701901431,
				"y": -1.1488805788,
				"z": 1.8368490596,
				"element": "H" 
			},
			{
				"x": -2.3986811361,
				"y": 0.6450515814,
				"z": -1.6657478105,
				"element": "H" 
			},
			{
				"x": -0.6349366046,
				"y": -0.3870796018,
				"z": -3.0633052046,
				"element": "H" 
			}
		],
		 "valence_orbital": [ 
			{
				"type": "occ",
				"energy": -0.33789,
				"method": "rhf"
			},
			{
				"type": "occ",
				"energy": -0.30302,
				"method": "rhf"
			},
			{
				"type": "occ",
				"energy": -0.2833,
				"method": "rhf"
			},
			{
				"type": "occ",
				"energy": -0.25994,
				"method": "rhf"
			},
			{
				"type": "occ",
				"energy": -0.23432,
				"method": "rhf"
			},
			{
				"type": "unocc",
				"energy": -0.01135,
				"method": "rhf"
			},
			{
				"type": "unocc",
				"energy": -0.01021,
				"method": "rhf"
			},
			{
				"type": "unocc",
				"energy": 0.01052,
				"method": "rhf"
			},
			{
				"type": "unocc",
				"energy": 0.097,
				"method": "rhf"
			},
			{
				"type": "unocc",
				"energy": 0.12296,
				"method": "rhf"
			}
		],
		"cosmo_sigma_profile": { 
			"-0.025": 0.0,
			"-0.024": 0.0,
			"-0.023": 0.0,
			"-0.022": 0.0,
			"-0.021": 0.0,
			"-0.02": 0.0,
			"-0.019": 0.0,
			"-0.018": 0.0,
			"-0.017": 0.0,
			"-0.016": 0.0,
			"-0.015": 0.0,
			"-0.014": 0.0,
			"-0.013": 0.0,
			"-0.012": 0.0,
			"-0.011": 0.0,
			"-0.01": 0.0,
			"-0.009": 0.0,
			"-0.008": 0.0,
			"-0.007": 1.39016848109,
			"-0.006": 6.50458397017,
			"-0.005": 9.11799689048,
			"-0.004": 13.2691836622,
			"-0.003": 17.0757533241,
			"-0.002": 19.5037031039,
			"-0.001": 19.0259100847,
			"0.0": 18.7939151157,
			"0.001": 19.4275640528,
			"0.002": 14.7979154149,
			"0.003": 17.0807028149,
			"0.004": 19.7044331173,
			"0.005": 14.7794501469,
			"0.006": 0.398007082888,
			"0.007": 0.0,
			"0.008": 0.0,
			"0.009": 0.0,
			"0.01": 0.0,
			"0.011": 0.0,
			"0.012": 0.0,
			"0.013": 0.0,
			"0.014": 0.0,
			"0.015": 0.0,
			"0.016": 0.0,
			"0.017": 0.0,
			"0.018": 0.0,
			"0.019": 0.0,
			"0.02": 0.0,
			"0.021": 0.0,
			"0.022": 0.0,
			"0.023": 0.0,
			"0.024": 0.0,
			"0.025": 0.0
		}
	}
}
