{
	 "smiles": "OC[C@H]1O[C@@H](OC2=C(O)C=C3OC(=O)C=CC3=C2)[C@H](O)[C@@H](O)[C@@H]1O", 
	 "Tm": 478.15, 
	 "num_atms": 40, 
	 "gaussian": { 
		 "optdone": 1, 
		 "sigma_profile": "yes", 
		 "theory": "DFT", 
		 "functional": "B3LYP", 
		 "basiset": "6-31G**", 
		 "properties": { 
			 "R2extent": 10763.4489, 
			 "electric_dipole_moment_norm": 7.33658277606, 
			 "electric_quadrupole_moment_norm": 33.0256965368, 
			 "total_energy": -1258.20003595, 
			 "HOMO_LUMO_gap": 0.15884, 
			 "cosmo_polarized_energy": -29.8, 
			 "cosmo_cavitation_energy": 43.34, 
			 "cosmo_dispersion_energy": -30.69, 
			 "cosmo_repulsion_energy": 2.31, 
			 "cosmo_total_nonelectrostatic_energy": 14.96, 
			 "SMD_solvation_energy": 8.52 
		},
		"coords": [
			{
				"x": 3.8477273085,
				"y": -3.8379540431,
				"z": -2.0218405521,
				"element": "O" 
			},
			{
				"x": 3.543275014,
				"y": -2.6400248777,
				"z": -1.326931917,
				"element": "C" 
			},
			{
				"x": 2.2733021487,
				"y": -1.9784175353,
				"z": -1.8772024582,
				"element": "C" 
			},
			{
				"x": 1.977616973,
				"y": -0.8739402649,
				"z": -0.9974009249,
				"element": "O" 
			},
			{
				"x": 1.2688286543,
				"y": 0.2009156223,
				"z": -1.6168693644,
				"element": "C" 
			},
			{
				"x": 0.9034824026,
				"y": 1.1135623926,
				"z": -0.6112261522,
				"element": "O" 
			},
			{
				"x": -0.2831852564,
				"y": 0.8749197421,
				"z": 0.0817923211,
				"element": "C" 
			},
			{
				"x": -0.3190977802,
				"y": -0.0832351333,
				"z": 1.1295292184,
				"element": "C" 
			},
			{
				"x": 0.7343087726,
				"y": -0.8602149942,
				"z": 1.4394356217,
				"element": "O" 
			},
			{
				"x": -1.4851259759,
				"y": -0.2166025585,
				"z": 1.8874720424,
				"element": "C" 
			},
			{
				"x": -2.593202085,
				"y": 0.5753333876,
				"z": 1.6019051948,
				"element": "C" 
			},
			{
				"x": -3.7035932506,
				"y": 0.3965104416,
				"z": 2.372146542,
				"element": "O" 
			},
			{
				"x": -4.8849779972,
				"y": 1.1254717925,
				"z": 2.1838692863,
				"element": "C" 
			},
			{
				"x": -5.8127720622,
				"y": 0.8872175586,
				"z": 2.9204208697,
				"element": "O" 
			},
			{
				"x": -4.8655719598,
				"y": 2.1056401165,
				"z": 1.1052323446,
				"element": "C" 
			},
			{
				"x": -3.7678000815,
				"y": 2.2915720594,
				"z": 0.3342951651,
				"element": "C" 
			},
			{
				"x": -2.5752314218,
				"y": 1.5216944024,
				"z": 0.5557385463,
				"element": "C" 
			},
			{
				"x": -1.392904162,
				"y": 1.6512478759,
				"z": -0.1949824682,
				"element": "C" 
			},
			{
				"x": 2.2354354601,
				"y": 0.9121309561,
				"z": -2.5591159181,
				"element": "C" 
			},
			{
				"x": 1.5704979817,
				"y": 1.8673630557,
				"z": -3.3672263961,
				"element": "O" 
			},
			{
				"x": 2.9663956492,
				"y": -0.1005865455,
				"z": -3.4798020898,
				"element": "C" 
			},
			{
				"x": 4.3580966759,
				"y": -0.1783180397,
				"z": -3.2046346299,
				"element": "O" 
			},
			{
				"x": 2.4115897665,
				"y": -1.531343321,
				"z": -3.3422614059,
				"element": "C" 
			},
			{
				"x": 1.1043508132,
				"y": -1.6077414564,
				"z": -3.9120065442,
				"element": "O" 
			},
			{
				"x": 3.1827286517,
				"y": -4.4998300712,
				"z": -1.7909609205,
				"element": "H" 
			},
			{
				"x": 3.412890424,
				"y": -2.8068073266,
				"z": -0.2478967544,
				"element": "H" 
			},
			{
				"x": 4.3909434503,
				"y": -1.9674923076,
				"z": -1.4700214476,
				"element": "H" 
			},
			{
				"x": 1.4378162565,
				"y": -2.6939390204,
				"z": -1.8429598325,
				"element": "H" 
			},
			{
				"x": 0.3866412824,
				"y": -0.1737449451,
				"z": -2.14796481,
				"element": "H" 
			},
			{
				"x": 1.3898153015,
				"y": -0.8278769836,
				"z": 0.7125508485,
				"element": "H" 
			},
			{
				"x": -1.5226671298,
				"y": -0.9415631672,
				"z": 2.6916773894,
				"element": "H" 
			},
			{
				"x": -5.7808635203,
				"y": 2.6678046044,
				"z": 0.9661879904,
				"element": "H" 
			},
			{
				"x": -3.7743078146,
				"y": 3.0283141746,
				"z": -0.4656182958,
				"element": "H" 
			},
			{
				"x": -1.3351102456,
				"y": 2.3839235731,
				"z": -0.9945788328,
				"element": "H" 
			},
			{
				"x": 2.9931809603,
				"y": 1.3817715881,
				"z": -1.9126925527,
				"element": "H" 
			},
			{
				"x": 1.1462673222,
				"y": 2.4971762478,
				"z": -2.7679906277,
				"element": "H" 
			},
			{
				"x": 2.7901308587,
				"y": 0.2352378574,
				"z": -4.513981383,
				"element": "H" 
			},
			{
				"x": 4.7447476537,
				"y": 0.6977806257,
				"z": -3.3304346043,
				"element": "H" 
			},
			{
				"x": 3.1017691874,
				"y": -2.2259583152,
				"z": -3.8370465025,
				"element": "H" 
			},
			{
				"x": 1.1588717736,
				"y": -1.3483971679,
				"z": -4.8414059959,
				"element": "H" 
			}
		],
		 "valence_orbital": [ 
			{
				"type": "occ",
				"energy": -0.28277,
				"method": "rhf"
			},
			{
				"type": "occ",
				"energy": -0.2735,
				"method": "rhf"
			},
			{
				"type": "occ",
				"energy": -0.26782,
				"method": "rhf"
			},
			{
				"type": "occ",
				"energy": -0.24863,
				"method": "rhf"
			},
			{
				"type": "occ",
				"energy": -0.21929,
				"method": "rhf"
			},
			{
				"type": "unocc",
				"energy": -0.06045,
				"method": "rhf"
			},
			{
				"type": "unocc",
				"energy": -0.01138,
				"method": "rhf"
			},
			{
				"type": "unocc",
				"energy": 0.01061,
				"method": "rhf"
			},
			{
				"type": "unocc",
				"energy": 0.04652,
				"method": "rhf"
			},
			{
				"type": "unocc",
				"energy": 0.0548,
				"method": "rhf"
			}
		],
		"cosmo_sigma_profile": { 
			"-0.025": 0.0,
			"-0.024": 0.0,
			"-0.023": 0.0,
			"-0.022": 0.0,
			"-0.021": 0.0,
			"-0.02": 0.0,
			"-0.019": 0.0,
			"-0.018": 0.0,
			"-0.017": 0.30894267897,
			"-0.016": 2.96256738411,
			"-0.015": 3.31253318194,
			"-0.014": 3.93342832234,
			"-0.013": 3.25201177471,
			"-0.012": 4.84923156093,
			"-0.011": 3.0995455764,
			"-0.01": 3.25676300059,
			"-0.009": 5.98458728939,
			"-0.008": 10.8939252494,
			"-0.007": 12.1580809831,
			"-0.006": 13.7693537498,
			"-0.005": 19.0301501881,
			"-0.004": 18.8406201625,
			"-0.003": 18.330865691,
			"-0.002": 18.6148915756,
			"-0.001": 18.388432337,
			"0.0": 20.5281243318,
			"0.001": 28.2859302243,
			"0.002": 23.4376993613,
			"0.003": 10.9172199717,
			"0.004": 12.3878671758,
			"0.005": 12.3675199824,
			"0.006": 10.5086289518,
			"0.007": 8.03473784641,
			"0.008": 8.56494493928,
			"0.009": 9.83403931335,
			"0.01": 7.38388600144,
			"0.011": 9.19192216404,
			"0.012": 11.292415183,
			"0.013": 6.60330843265,
			"0.014": 1.2449841709,
			"0.015": 0.0,
			"0.016": 0.0,
			"0.017": 0.0,
			"0.018": 0.0,
			"0.019": 0.0,
			"0.02": 0.0,
			"0.021": 0.0,
			"0.022": 0.0,
			"0.023": 0.0,
			"0.024": 0.0,
			"0.025": 0.0
		}
	}
}
