{
	 "smiles": "CCOC(=O)C1=CC=C2C=NNC2=C1", 
	 "Tm": 398.15, 
	 "num_atms": 24, 
	 "gaussian": { 
		 "optdone": 1, 
		 "sigma_profile": "yes", 
		 "theory": "DFT", 
		 "functional": "B3LYP", 
		 "basiset": "6-31G**", 
		 "properties": { 
			 "R2extent": 3930.991, 
			 "electric_dipole_moment_norm": 1.43617388223, 
			 "electric_quadrupole_moment_norm": 8.671218562, 
			 "total_energy": -647.04623276, 
			 "HOMO_LUMO_gap": 0.17394, 
			 "cosmo_polarized_energy": -11.8, 
			 "cosmo_cavitation_energy": 28.49, 
			 "cosmo_dispersion_energy": -21.12, 
			 "cosmo_repulsion_energy": 1.66, 
			 "cosmo_total_nonelectrostatic_energy": 9.04, 
			 "SMD_solvation_energy": 5.03 
		},
		"coords": [
			{
				"x": 2.9340948587,
				"y": 0.9471302527,
				"z": -3.8008378092,
				"element": "C" 
			},
			{
				"x": 2.0737758559,
				"y": 2.0922604154,
				"z": -3.2875335563,
				"element": "C" 
			},
			{
				"x": 1.7724890118,
				"y": 1.9355244921,
				"z": -1.8809039592,
				"element": "O" 
			},
			{
				"x": 0.7046913636,
				"y": 1.1640305298,
				"z": -1.5747815203,
				"element": "C" 
			},
			{
				"x": 0.0069135436,
				"y": 0.6194351279,
				"z": -2.4109516479,
				"element": "O" 
			},
			{
				"x": 0.4791220939,
				"y": 1.0625527992,
				"z": -0.1036403396,
				"element": "C" 
			},
			{
				"x": 1.325692074,
				"y": 1.7155476076,
				"z": 0.8326217619,
				"element": "C" 
			},
			{
				"x": 1.1004984301,
				"y": 1.6096906511,
				"z": 2.1931021917,
				"element": "C" 
			},
			{
				"x": 0.010266719,
				"y": 0.8387439539,
				"z": 2.6407144114,
				"element": "C" 
			},
			{
				"x": -0.5553508729,
				"y": 0.4824957692,
				"z": 3.9026969545,
				"element": "C" 
			},
			{
				"x": -1.6169899853,
				"y": -0.2930604216,
				"z": 3.7581741107,
				"element": "N" 
			},
			{
				"x": -1.7753411535,
				"y": -0.4643275206,
				"z": 2.4217854796,
				"element": "N" 
			},
			{
				"x": -0.8239590209,
				"y": 0.1939822216,
				"z": 1.6897893323,
				"element": "C" 
			},
			{
				"x": -0.6047074331,
				"y": 0.2940436512,
				"z": 0.3123623275,
				"element": "C" 
			},
			{
				"x": 3.210213019,
				"y": 1.1296848458,
				"z": -4.8447918571,
				"element": "H" 
			},
			{
				"x": 3.85248773,
				"y": 0.8552954999,
				"z": -3.2135384693,
				"element": "H" 
			},
			{
				"x": 2.3853710466,
				"y": 0.0036182257,
				"z": -3.7513428093,
				"element": "H" 
			},
			{
				"x": 1.1354315088,
				"y": 2.1593609669,
				"z": -3.8428929387,
				"element": "H" 
			},
			{
				"x": 2.6011433349,
				"y": 3.0474480533,
				"z": -3.3464182007,
				"element": "H" 
			},
			{
				"x": 2.1563139754,
				"y": 2.3015285899,
				"z": 0.4589513417,
				"element": "H" 
			},
			{
				"x": 1.7523693234,
				"y": 2.1119776637,
				"z": 2.9015550042,
				"element": "H" 
			},
			{
				"x": -0.2264064387,
				"y": 0.7629690994,
				"z": 4.8942686956,
				"element": "H" 
			},
			{
				"x": -2.5389233108,
				"y": -1.031259681,
				"z": 2.0896975119,
				"element": "H" 
			},
			{
				"x": -1.2318956738,
				"y": -0.191972793,
				"z": -0.4268860154,
				"element": "H" 
			}
		],
		 "valence_orbital": [ 
			{
				"type": "occ",
				"energy": -0.2979,
				"method": "rhf"
			},
			{
				"type": "occ",
				"energy": -0.29551,
				"method": "rhf"
			},
			{
				"type": "occ",
				"energy": -0.2733,
				"method": "rhf"
			},
			{
				"type": "occ",
				"energy": -0.24928,
				"method": "rhf"
			},
			{
				"type": "occ",
				"energy": -0.22812,
				"method": "rhf"
			},
			{
				"type": "unocc",
				"energy": -0.05418,
				"method": "rhf"
			},
			{
				"type": "unocc",
				"energy": -0.00618,
				"method": "rhf"
			},
			{
				"type": "unocc",
				"energy": 0.03809,
				"method": "rhf"
			},
			{
				"type": "unocc",
				"energy": 0.08,
				"method": "rhf"
			},
			{
				"type": "unocc",
				"energy": 0.08113,
				"method": "rhf"
			}
		],
		"cosmo_sigma_profile": { 
			"-0.025": 0.0,
			"-0.024": 0.0,
			"-0.023": 0.0,
			"-0.022": 0.0,
			"-0.021": 0.0,
			"-0.02": 0.0,
			"-0.019": 0.0,
			"-0.018": 0.0,
			"-0.017": 0.579227281108,
			"-0.016": 1.83394345147,
			"-0.015": 1.19831273388,
			"-0.014": 1.05574209874,
			"-0.013": 0.872669871506,
			"-0.012": 1.12541887724,
			"-0.011": 1.35176008479,
			"-0.01": 1.19895362768,
			"-0.009": 0.802991636732,
			"-0.008": 2.78834756325,
			"-0.007": 4.27581256762,
			"-0.006": 7.82178239423,
			"-0.005": 12.5410978982,
			"-0.004": 15.8015756378,
			"-0.003": 17.4759824585,
			"-0.002": 17.3180563318,
			"-0.001": 17.4592028994,
			"0.0": 17.483668708,
			"0.001": 18.7141538546,
			"0.002": 22.1673186956,
			"0.003": 18.7352262036,
			"0.004": 11.0310614479,
			"0.005": 6.06007008133,
			"0.006": 4.62048616313,
			"0.007": 3.78361791206,
			"0.008": 1.85656126185,
			"0.009": 2.91156682428,
			"0.01": 3.63243184112,
			"0.011": 3.23283385509,
			"0.012": 4.63697629361,
			"0.013": 1.55372075522,
			"0.014": 0.927380295962,
			"0.015": 0.709028080808,
			"0.016": 0.0,
			"0.017": 0.0,
			"0.018": 0.0,
			"0.019": 0.0,
			"0.02": 0.0,
			"0.021": 0.0,
			"0.022": 0.0,
			"0.023": 0.0,
			"0.024": 0.0,
			"0.025": 0.0
		}
	}
}
