{
	 "smiles": "FC(F)(F)C(C(=O)NC1=C(Cl)C=CC=C1Cl)C(F)(F)F", 
	 "Tm": 469.15, 
	 "num_atms": 25, 
	 "gaussian": { 
		 "optdone": 1, 
		 "sigma_profile": "yes", 
		 "theory": "DFT", 
		 "functional": "B3LYP", 
		 "basiset": "6-31G**", 
		 "properties": { 
			 "R2extent": 7432.543, 
			 "electric_dipole_moment_norm": 4.66054197492, 
			 "electric_quadrupole_moment_norm": 15.7220330056, 
			 "total_energy": -2033.49094627, 
			 "HOMO_LUMO_gap": 0.21867, 
			 "cosmo_polarized_energy": -14.68, 
			 "cosmo_cavitation_energy": 36.13, 
			 "cosmo_dispersion_energy": -24.11, 
			 "cosmo_repulsion_energy": 1.74, 
			 "cosmo_total_nonelectrostatic_energy": 13.76, 
			 "SMD_solvation_energy": 8.33 
		},
		"coords": [
			{
				"x": -3.3762463766,
				"y": 0.1839984695,
				"z": 2.0067663117,
				"element": "F" 
			},
			{
				"x": -2.2581213064,
				"y": 0.6899746115,
				"z": 2.5451115318,
				"element": "C" 
			},
			{
				"x": -1.8942276349,
				"y": 1.7705024824,
				"z": 1.8065226899,
				"element": "F" 
			},
			{
				"x": -2.5502567168,
				"y": 1.1370754316,
				"z": 3.7762106779,
				"element": "F" 
			},
			{
				"x": -1.1131826038,
				"y": -0.3310562763,
				"z": 2.5508495212,
				"element": "C" 
			},
			{
				"x": -0.9417687768,
				"y": -0.9696945463,
				"z": 1.1476206101,
				"element": "C" 
			},
			{
				"x": -1.2089805928,
				"y": -2.1298793624,
				"z": 0.9207696286,
				"element": "O" 
			},
			{
				"x": -0.4611792479,
				"y": -0.088894918,
				"z": 0.2060301006,
				"element": "N" 
			},
			{
				"x": -0.1693225637,
				"y": -0.4621932496,
				"z": -1.1263912116,
				"element": "C" 
			},
			{
				"x": 1.1515056189,
				"y": -0.4074179722,
				"z": -1.6047319611,
				"element": "C" 
			},
			{
				"x": 2.4315725761,
				"y": 0.12186842,
				"z": -0.5265631477,
				"element": "Cl" 
			},
			{
				"x": 1.4762768104,
				"y": -0.7548617924,
				"z": -2.9130376742,
				"element": "C" 
			},
			{
				"x": 0.4644829449,
				"y": -1.1811402628,
				"z": -3.7712898764,
				"element": "C" 
			},
			{
				"x": -0.857344401,
				"y": -1.2345914243,
				"z": -3.3355652424,
				"element": "C" 
			},
			{
				"x": -1.1718300262,
				"y": -0.8608006684,
				"z": -2.0292745434,
				"element": "C" 
			},
			{
				"x": -2.8472612486,
				"y": -0.8484918409,
				"z": -1.54408479,
				"element": "Cl" 
			},
			{
				"x": -1.287906165,
				"y": -1.409588845,
				"z": 3.628188604,
				"element": "C" 
			},
			{
				"x": -1.2293926354,
				"y": -0.8502922093,
				"z": 4.856456625,
				"element": "F" 
			},
			{
				"x": -2.4596856352,
				"y": -2.0481317467,
				"z": 3.5236037592,
				"element": "F" 
			},
			{
				"x": -0.291585106,
				"y": -2.3066050587,
				"z": 3.5554267359,
				"element": "F" 
			},
			{
				"x": -0.2068844797,
				"y": 0.2207874068,
				"z": 2.8199009533,
				"element": "H" 
			},
			{
				"x": -0.1801056823,
				"y": 0.8346397828,
				"z": 0.5046549897,
				"element": "H" 
			},
			{
				"x": 2.5070536515,
				"y": -0.6998784745,
				"z": -3.2428515667,
				"element": "H" 
			},
			{
				"x": 0.7074717896,
				"y": -1.4660113616,
				"z": -4.7899226333,
				"element": "H" 
			},
			{
				"x": -1.6520821925,
				"y": -1.5477165952,
				"z": -4.002500092,
				"element": "H" 
			}
		],
		 "valence_orbital": [ 
			{
				"type": "occ",
				"energy": -0.32318,
				"method": "rhf"
			},
			{
				"type": "occ",
				"energy": -0.30641,
				"method": "rhf"
			},
			{
				"type": "occ",
				"energy": -0.28312,
				"method": "rhf"
			},
			{
				"type": "occ",
				"energy": -0.26519,
				"method": "rhf"
			},
			{
				"type": "occ",
				"energy": -0.26228,
				"method": "rhf"
			},
			{
				"type": "unocc",
				"energy": -0.04361,
				"method": "rhf"
			},
			{
				"type": "unocc",
				"energy": -0.03611,
				"method": "rhf"
			},
			{
				"type": "unocc",
				"energy": -0.00725,
				"method": "rhf"
			},
			{
				"type": "unocc",
				"energy": -0.00361,
				"method": "rhf"
			},
			{
				"type": "unocc",
				"energy": 0.04131,
				"method": "rhf"
			}
		],
		"cosmo_sigma_profile": { 
			"-0.025": 0.0,
			"-0.024": 0.0,
			"-0.023": 0.0,
			"-0.022": 0.0,
			"-0.021": 0.0,
			"-0.02": 0.0,
			"-0.019": 0.0,
			"-0.018": 0.0,
			"-0.017": 0.0383183289072,
			"-0.016": 0.418375155879,
			"-0.015": 0.684705042245,
			"-0.014": 2.03460272231,
			"-0.013": 2.14203150613,
			"-0.012": 3.81391630289,
			"-0.011": 2.3809906748,
			"-0.01": 2.35258177859,
			"-0.009": 1.79112640366,
			"-0.008": 7.04270669148,
			"-0.007": 8.91814037766,
			"-0.006": 7.58035706095,
			"-0.005": 7.08185677751,
			"-0.004": 7.24863779594,
			"-0.003": 9.44961609862,
			"-0.002": 14.5595986209,
			"-0.001": 19.0236529063,
			"0.0": 25.5472787344,
			"0.001": 44.5977631105,
			"0.002": 67.6460337173,
			"0.003": 25.3029710806,
			"0.004": 12.4758372254,
			"0.005": 3.36964703229,
			"0.006": 2.42557035662,
			"0.007": 2.8993941772,
			"0.008": 3.26505823671,
			"0.009": 2.39004738283,
			"0.01": 2.94976426222,
			"0.011": 4.25474947923,
			"0.012": 0.927989537912,
			"0.013": 0.0,
			"0.014": 0.0,
			"0.015": 0.0,
			"0.016": 0.0,
			"0.017": 0.0,
			"0.018": 0.0,
			"0.019": 0.0,
			"0.02": 0.0,
			"0.021": 0.0,
			"0.022": 0.0,
			"0.023": 0.0,
			"0.024": 0.0,
			"0.025": 0.0
		}
	}
}
