{
	 "smiles": "FC1=CC=C(C=C1)C(F)(F)F", 
	 "Tm": 231.25, 
	 "num_atms": 15, 
	 "gaussian": { 
		 "optdone": 1, 
		 "sigma_profile": "yes", 
		 "theory": "DFT", 
		 "functional": "B3LYP", 
		 "basiset": "6-31G**", 
		 "properties": { 
			 "R2extent": 2118.5133, 
			 "electric_dipole_moment_norm": 1.26939545454, 
			 "electric_quadrupole_moment_norm": 9.02839704433, 
			 "total_energy": -668.517314455, 
			 "HOMO_LUMO_gap": 0.23623, 
			 "cosmo_polarized_energy": -3.62, 
			 "cosmo_cavitation_energy": 21.33, 
			 "cosmo_dispersion_energy": -15.17, 
			 "cosmo_repulsion_energy": 1.13, 
			 "cosmo_total_nonelectrostatic_energy": 7.29, 
			 "SMD_solvation_energy": 5.42 
		},
		"coords": [
			{
				"x": -2.7717114371,
				"y": 0.2222449017,
				"z": -0.9500055394,
				"element": "F" 
			},
			{
				"x": -1.557739034,
				"y": 0.2615856505,
				"z": -0.3710789602,
				"element": "C" 
			},
			{
				"x": -0.4278620467,
				"y": 0.3204518571,
				"z": -1.1808302535,
				"element": "C" 
			},
			{
				"x": 0.8262792391,
				"y": 0.3601955592,
				"z": -0.5758622244,
				"element": "C" 
			},
			{
				"x": 0.9360255252,
				"y": 0.3381428611,
				"z": 0.818002173,
				"element": "C" 
			},
			{
				"x": -0.2140266467,
				"y": 0.2780723072,
				"z": 1.6112106363,
				"element": "C" 
			},
			{
				"x": -1.4735290083,
				"y": 0.2379366677,
				"z": 1.0175038687,
				"element": "C" 
			},
			{
				"x": 2.2893202444,
				"y": 0.4392599236,
				"z": 1.4653838955,
				"element": "C" 
			},
			{
				"x": 2.6464051693,
				"y": 1.7267590946,
				"z": 1.6842573318,
				"element": "F" 
			},
			{
				"x": 2.3204860051,
				"y": -0.183497609,
				"z": 2.6647939384,
				"element": "F" 
			},
			{
				"x": 3.2565790711,
				"y": -0.1084623346,
				"z": 0.6960798399,
				"element": "F" 
			},
			{
				"x": -0.5403582381,
				"y": 0.330992247,
				"z": -2.2591802347,
				"element": "H" 
			},
			{
				"x": 1.7214177459,
				"y": 0.3983156296,
				"z": -1.1867582162,
				"element": "H" 
			},
			{
				"x": -0.1233836019,
				"y": 0.2526765648,
				"z": 2.6915220696,
				"element": "H" 
			},
			{
				"x": -2.3805029874,
				"y": 0.1858266798,
				"z": 1.6093616752,
				"element": "H" 
			}
		],
		 "valence_orbital": [ 
			{
				"type": "occ",
				"energy": -0.37495,
				"method": "rhf"
			},
			{
				"type": "occ",
				"energy": -0.3726,
				"method": "rhf"
			},
			{
				"type": "occ",
				"energy": -0.36177,
				"method": "rhf"
			},
			{
				"type": "occ",
				"energy": -0.27846,
				"method": "rhf"
			},
			{
				"type": "occ",
				"energy": -0.26419,
				"method": "rhf"
			},
			{
				"type": "unocc",
				"energy": -0.02796,
				"method": "rhf"
			},
			{
				"type": "unocc",
				"energy": -0.02703,
				"method": "rhf"
			},
			{
				"type": "unocc",
				"energy": 0.07865,
				"method": "rhf"
			},
			{
				"type": "unocc",
				"energy": 0.12246,
				"method": "rhf"
			},
			{
				"type": "unocc",
				"energy": 0.12562,
				"method": "rhf"
			}
		],
		"cosmo_sigma_profile": { 
			"-0.025": 0.0,
			"-0.024": 0.0,
			"-0.023": 0.0,
			"-0.022": 0.0,
			"-0.021": 0.0,
			"-0.02": 0.0,
			"-0.019": 0.0,
			"-0.018": 0.0,
			"-0.017": 0.0,
			"-0.016": 0.0,
			"-0.015": 0.0,
			"-0.014": 0.0,
			"-0.013": 0.0,
			"-0.012": 0.0,
			"-0.011": 0.0,
			"-0.01": 0.0,
			"-0.009": 0.0213951067587,
			"-0.008": 3.66418744295,
			"-0.007": 6.31794822605,
			"-0.006": 9.08226934902,
			"-0.005": 6.83202271876,
			"-0.004": 6.86401590187,
			"-0.003": 6.81182122989,
			"-0.002": 7.46808469139,
			"-0.001": 10.3843581589,
			"0.0": 17.7439868676,
			"0.001": 18.6954287692,
			"0.002": 31.2640199931,
			"0.003": 35.1896304848,
			"0.004": 11.4810448534,
			"0.005": 0.172559232165,
			"0.006": 0.0,
			"0.007": 0.0,
			"0.008": 0.0,
			"0.009": 0.0,
			"0.01": 0.0,
			"0.011": 0.0,
			"0.012": 0.0,
			"0.013": 0.0,
			"0.014": 0.0,
			"0.015": 0.0,
			"0.016": 0.0,
			"0.017": 0.0,
			"0.018": 0.0,
			"0.019": 0.0,
			"0.02": 0.0,
			"0.021": 0.0,
			"0.022": 0.0,
			"0.023": 0.0,
			"0.024": 0.0,
			"0.025": 0.0
		}
	}
}
