{
	 "smiles": "NC1=CC(N)=C(C=CC2=CC=CC=C2)C=C1C=CC1=CC=CC=C1", 
	 "Tm": 474.15, 
	 "num_atms": 44, 
	 "gaussian": { 
		 "optdone": 1, 
		 "sigma_profile": "yes", 
		 "theory": "DFT", 
		 "functional": "B3LYP", 
		 "basiset": "6-31G**", 
		 "properties": { 
			 "R2extent": 13551.9953, 
			 "electric_dipole_moment_norm": 3.40502477084, 
			 "electric_quadrupole_moment_norm": 18.4970629136, 
			 "total_energy": -959.895445225, 
			 "HOMO_LUMO_gap": 0.13391, 
			 "cosmo_polarized_energy": -17.58, 
			 "cosmo_cavitation_energy": 48.43, 
			 "cosmo_dispersion_energy": -34.46, 
			 "cosmo_repulsion_energy": 2.61, 
			 "cosmo_total_nonelectrostatic_energy": 16.58, 
			 "SMD_solvation_energy": 7.57 
		},
		"coords": [
			{
				"x": -0.4937310581,
				"y": 1.857376486,
				"z": -4.4982760816,
				"element": "N" 
			},
			{
				"x": 0.1954551121,
				"y": 1.0350447955,
				"z": -3.606194802,
				"element": "C" 
			},
			{
				"x": 1.4712458012,
				"y": 0.5619204496,
				"z": -3.9294305349,
				"element": "C" 
			},
			{
				"x": 2.1832525763,
				"y": -0.2818413417,
				"z": -3.0708841087,
				"element": "C" 
			},
			{
				"x": 3.4448083652,
				"y": -0.7518909876,
				"z": -3.4376304518,
				"element": "N" 
			},
			{
				"x": 1.6035464605,
				"y": -0.679723159,
				"z": -1.8342396177,
				"element": "C" 
			},
			{
				"x": 2.3091713872,
				"y": -1.6131231612,
				"z": -0.9549622687,
				"element": "C" 
			},
			{
				"x": 2.1886689829,
				"y": -1.6811150802,
				"z": 0.3886716223,
				"element": "C" 
			},
			{
				"x": 2.8312287054,
				"y": -2.651844902,
				"z": 1.2794845098,
				"element": "C" 
			},
			{
				"x": 3.4612874373,
				"y": -3.8256640579,
				"z": 0.8190213808,
				"element": "C" 
			},
			{
				"x": 4.0766254901,
				"y": -4.7035623648,
				"z": 1.7065199951,
				"element": "C" 
			},
			{
				"x": 4.0715519375,
				"y": -4.4433018561,
				"z": 3.0804047995,
				"element": "C" 
			},
			{
				"x": 3.4386440213,
				"y": -3.2938643676,
				"z": 3.5564579736,
				"element": "C" 
			},
			{
				"x": 2.8257466107,
				"y": -2.4133103249,
				"z": 2.6672659827,
				"element": "C" 
			},
			{
				"x": 0.3234834022,
				"y": -0.1971099478,
				"z": -1.5346968289,
				"element": "C" 
			},
			{
				"x": -0.4066789582,
				"y": 0.6519830961,
				"z": -2.3755928727,
				"element": "C" 
			},
			{
				"x": -1.766382609,
				"y": 1.0868749601,
				"z": -2.0526152983,
				"element": "C" 
			},
			{
				"x": -2.2661596067,
				"y": 1.2696576624,
				"z": -0.8111249966,
				"element": "C" 
			},
			{
				"x": -3.6423348584,
				"y": 1.6366105599,
				"z": -0.4643900417,
				"element": "C" 
			},
			{
				"x": -3.9264222884,
				"y": 2.0592138868,
				"z": 0.8484502284,
				"element": "C" 
			},
			{
				"x": -5.2133847897,
				"y": 2.4376733207,
				"z": 1.2255328638,
				"element": "C" 
			},
			{
				"x": -6.2555882879,
				"y": 2.3988572704,
				"z": 0.2977906491,
				"element": "C" 
			},
			{
				"x": -5.9953756034,
				"y": 1.9700463762,
				"z": -1.0074800527,
				"element": "C" 
			},
			{
				"x": -4.7105599705,
				"y": 1.5887423327,
				"z": -1.3827903724,
				"element": "C" 
			},
			{
				"x": 0.0706332846,
				"y": 2.2410691089,
				"z": -5.2437977653,
				"element": "H" 
			},
			{
				"x": -1.0770026972,
				"y": 2.5623540226,
				"z": -4.069238176,
				"element": "H" 
			},
			{
				"x": 1.9344667096,
				"y": 0.882476861,
				"z": -4.8610204164,
				"element": "H" 
			},
			{
				"x": 3.8644793314,
				"y": -0.272249069,
				"z": -4.2220657402,
				"element": "H" 
			},
			{
				"x": 4.0984587777,
				"y": -0.8666668802,
				"z": -2.6755018129,
				"element": "H" 
			},
			{
				"x": 2.9799751798,
				"y": -2.3122710049,
				"z": -1.4538208406,
				"element": "H" 
			},
			{
				"x": 1.5762793139,
				"y": -0.9323854705,
				"z": 0.889926966,
				"element": "H" 
			},
			{
				"x": 3.4519625665,
				"y": -4.0612552046,
				"z": -0.2409326101,
				"element": "H" 
			},
			{
				"x": 4.5535337017,
				"y": -5.6030655365,
				"z": 1.3266654479,
				"element": "H" 
			},
			{
				"x": 4.5475215288,
				"y": -5.1338381645,
				"z": 3.7705029008,
				"element": "H" 
			},
			{
				"x": 3.420986462,
				"y": -3.0826819032,
				"z": 4.6221394277,
				"element": "H" 
			},
			{
				"x": 2.3372652171,
				"y": -1.5185846585,
				"z": 3.0456585759,
				"element": "H" 
			},
			{
				"x": -0.1582173798,
				"y": -0.5569951174,
				"z": -0.6310687544,
				"element": "H" 
			},
			{
				"x": -2.4181521416,
				"y": 1.2644468071,
				"z": -2.9077836695,
				"element": "H" 
			},
			{
				"x": -1.5907590521,
				"y": 1.1646355163,
				"z": 0.0372119797,
				"element": "H" 
			},
			{
				"x": -3.1193121009,
				"y": 2.0949553152,
				"z": 1.5762032812,
				"element": "H" 
			},
			{
				"x": -5.402634322,
				"y": 2.7621571444,
				"z": 2.2450830398,
				"element": "H" 
			},
			{
				"x": -7.2607516241,
				"y": 2.6898466599,
				"z": 0.5886447995,
				"element": "H" 
			},
			{
				"x": -6.8024170809,
				"y": 1.9218315962,
				"z": -1.733563636,
				"element": "H" 
			},
			{
				"x": -4.5360139341,
				"y": 1.2317703325,
				"z": -2.3933346734,
				"element": "H" 
			}
		],
		 "valence_orbital": [ 
			{
				"type": "occ",
				"energy": -0.24467,
				"method": "rhf"
			},
			{
				"type": "occ",
				"energy": -0.23824,
				"method": "rhf"
			},
			{
				"type": "occ",
				"energy": -0.22574,
				"method": "rhf"
			},
			{
				"type": "occ",
				"energy": -0.20177,
				"method": "rhf"
			},
			{
				"type": "occ",
				"energy": -0.17306,
				"method": "rhf"
			},
			{
				"type": "unocc",
				"energy": -0.03915,
				"method": "rhf"
			},
			{
				"type": "unocc",
				"energy": -0.03631,
				"method": "rhf"
			},
			{
				"type": "unocc",
				"energy": 0.0058,
				"method": "rhf"
			},
			{
				"type": "unocc",
				"energy": 0.00589,
				"method": "rhf"
			},
			{
				"type": "unocc",
				"energy": 0.01905,
				"method": "rhf"
			}
		],
		"cosmo_sigma_profile": { 
			"-0.025": 0.0,
			"-0.024": 0.0,
			"-0.023": 0.0,
			"-0.022": 0.0,
			"-0.021": 0.0,
			"-0.02": 0.0,
			"-0.019": 0.0,
			"-0.018": 0.0,
			"-0.017": 0.0,
			"-0.016": 0.0,
			"-0.015": 0.0,
			"-0.014": 0.0,
			"-0.013": 0.625143612743,
			"-0.012": 3.94846885068,
			"-0.011": 5.3648411189,
			"-0.01": 5.6199260502,
			"-0.009": 5.40665943435,
			"-0.008": 5.25959033747,
			"-0.007": 6.14096266501,
			"-0.006": 14.9496555334,
			"-0.005": 28.5416999715,
			"-0.004": 33.5676629622,
			"-0.003": 29.4392652354,
			"-0.002": 20.6093247248,
			"-0.001": 21.3237460853,
			"0.0": 18.8184267121,
			"0.001": 19.2598471942,
			"0.002": 20.9923729656,
			"0.003": 23.755320493,
			"0.004": 30.6544594428,
			"0.005": 40.4338341729,
			"0.006": 37.1599828069,
			"0.007": 6.13418376957,
			"0.008": 1.64942952403,
			"0.009": 1.08970812867,
			"0.01": 1.40281437883,
			"0.011": 1.59371671253,
			"0.012": 1.16290545352,
			"0.013": 0.972338949549,
			"0.014": 0.650258932343,
			"0.015": 0.00745345541823,
			"0.016": 0.0,
			"0.017": 0.0,
			"0.018": 0.0,
			"0.019": 0.0,
			"0.02": 0.0,
			"0.021": 0.0,
			"0.022": 0.0,
			"0.023": 0.0,
			"0.024": 0.0,
			"0.025": 0.0
		}
	}
}
