{
	 "smiles": "FC(F)OC1=CC=C(CNC23CC4CC(CC(C4)C2)C3)C=C1", 
	 "Tm": 557.15, 
	 "num_atms": 45, 
	 "gaussian": { 
		 "optdone": 1, 
		 "sigma_profile": "yes", 
		 "theory": "DFT", 
		 "functional": "B3LYP", 
		 "basiset": "6-31G**", 
		 "properties": { 
			 "R2extent": 11135.1239, 
			 "electric_dipole_moment_norm": 3.67865153827, 
			 "electric_quadrupole_moment_norm": 15.7901500686, 
			 "total_energy": -1029.45152541, 
			 "HOMO_LUMO_gap": 0.21202, 
			 "cosmo_polarized_energy": -7.74, 
			 "cosmo_cavitation_energy": 43.34, 
			 "cosmo_dispersion_energy": -30.92, 
			 "cosmo_repulsion_energy": 2.3, 
			 "cosmo_total_nonelectrostatic_energy": 14.72, 
			 "SMD_solvation_energy": 6.17 
		},
		"coords": [
			{
				"x": 4.738014281,
				"y": 4.2464364099,
				"z": -3.0168144044,
				"element": "F" 
			},
			{
				"x": 3.6819647703,
				"y": 5.112862683,
				"z": -3.078166461,
				"element": "C" 
			},
			{
				"x": 3.9021357227,
				"y": 5.9365509725,
				"z": -4.1197603298,
				"element": "F" 
			},
			{
				"x": 2.5148441658,
				"y": 4.4449684065,
				"z": -3.3370808512,
				"element": "O" 
			},
			{
				"x": 1.8605263945,
				"y": 3.839084402,
				"z": -2.2694929982,
				"element": "C" 
			},
			{
				"x": 0.4708964817,
				"y": 3.7636857366,
				"z": -2.3650935791,
				"element": "C" 
			},
			{
				"x": -0.2509747538,
				"y": 3.1428730941,
				"z": -1.3485189522,
				"element": "C" 
			},
			{
				"x": 0.39127586,
				"y": 2.6052834616,
				"z": -0.2253952952,
				"element": "C" 
			},
			{
				"x": -0.4208739451,
				"y": 1.9941235308,
				"z": 0.9088971465,
				"element": "C" 
			},
			{
				"x": 0.2761781529,
				"y": 0.9330908855,
				"z": 1.6405629021,
				"element": "N" 
			},
			{
				"x": 0.0596526962,
				"y": -0.4710669385,
				"z": 1.2396746536,
				"element": "C" 
			},
			{
				"x": 0.9728378064,
				"y": -1.3408262953,
				"z": 2.1344830677,
				"element": "C" 
			},
			{
				"x": 0.8433189737,
				"y": -2.8330104265,
				"z": 1.7688294157,
				"element": "C" 
			},
			{
				"x": -0.6182461304,
				"y": -3.2872904537,
				"z": 1.961110598,
				"element": "C" 
			},
			{
				"x": -1.541235354,
				"y": -2.4455938271,
				"z": 1.0564024564,
				"element": "C" 
			},
			{
				"x": -1.1310738542,
				"y": -2.6374403586,
				"z": -0.4181488922,
				"element": "C" 
			},
			{
				"x": 0.3312784784,
				"y": -2.1853274806,
				"z": -0.6090877493,
				"element": "C" 
			},
			{
				"x": 1.2518359729,
				"y": -3.0304732727,
				"z": 0.294631752,
				"element": "C" 
			},
			{
				"x": 0.4664643189,
				"y": -0.6941323516,
				"z": -0.2340471454,
				"element": "C" 
			},
			{
				"x": -1.4041768013,
				"y": -0.95422075,
				"z": 1.4323031324,
				"element": "C" 
			},
			{
				"x": 1.784544271,
				"y": 2.6922790544,
				"z": -0.1536810041,
				"element": "C" 
			},
			{
				"x": 2.5283780464,
				"y": 3.2941217131,
				"z": -1.1705754553,
				"element": "C" 
			},
			{
				"x": 3.6516687389,
				"y": 5.6815497223,
				"z": -2.1408250987,
				"element": "H" 
			},
			{
				"x": -0.0213277702,
				"y": 4.1856190288,
				"z": -3.2350372932,
				"element": "H" 
			},
			{
				"x": -1.3337693553,
				"y": 3.0793770935,
				"z": -1.4304723115,
				"element": "H" 
			},
			{
				"x": -0.640135058,
				"y": 2.7908018904,
				"z": 1.6323251105,
				"element": "H" 
			},
			{
				"x": -1.4002015385,
				"y": 1.6825425869,
				"z": 0.5121245128,
				"element": "H" 
			},
			{
				"x": 0.0593251483,
				"y": 1.0127613927,
				"z": 2.6296564807,
				"element": "H" 
			},
			{
				"x": 2.0085928538,
				"y": -0.9998443262,
				"z": 2.0191736096,
				"element": "H" 
			},
			{
				"x": 0.7017902611,
				"y": -1.187997067,
				"z": 3.1895205688,
				"element": "H" 
			},
			{
				"x": 1.5024174593,
				"y": -3.423304121,
				"z": 2.4179503857,
				"element": "H" 
			},
			{
				"x": -0.9147140447,
				"y": -3.1737747464,
				"z": 3.0123789743,
				"element": "H" 
			},
			{
				"x": -0.7178018685,
				"y": -4.352614251,
				"z": 1.7153665584,
				"element": "H" 
			},
			{
				"x": -2.5829967496,
				"y": -2.7622530464,
				"z": 1.1949599804,
				"element": "H" 
			},
			{
				"x": -1.794392349,
				"y": -2.0571216621,
				"z": -1.0731395299,
				"element": "H" 
			},
			{
				"x": -1.2416134109,
				"y": -3.6910681528,
				"z": -0.7060031487,
				"element": "H" 
			},
			{
				"x": 0.6232560973,
				"y": -2.3171697238,
				"z": -1.6584329165,
				"element": "H" 
			},
			{
				"x": 1.1798553206,
				"y": -4.0913871053,
				"z": 0.0214835286,
				"element": "H" 
			},
			{
				"x": 2.2985866725,
				"y": -2.7333233549,
				"z": 0.1497745101,
				"element": "H" 
			},
			{
				"x": 1.4977999904,
				"y": -0.3527770777,
				"z": -0.3789907464,
				"element": "H" 
			},
			{
				"x": -0.1623007977,
				"y": -0.0877907574,
				"z": -0.8970105619,
				"element": "H" 
			},
			{
				"x": -2.0868661413,
				"y": -0.3550791102,
				"z": 0.8165006661,
				"element": "H" 
			},
			{
				"x": -1.699641018,
				"y": -0.799984036,
				"z": 2.479934219,
				"element": "H" 
			},
			{
				"x": 2.286386509,
				"y": 2.2526662926,
				"z": 0.702135412,
				"element": "H" 
			},
			{
				"x": 3.6109154961,
				"y": 3.3119923355,
				"z": -1.1220049173,
				"element": "H" 
			}
		],
		 "valence_orbital": [ 
			{
				"type": "occ",
				"energy": -0.28236,
				"method": "rhf"
			},
			{
				"type": "occ",
				"energy": -0.27823,
				"method": "rhf"
			},
			{
				"type": "occ",
				"energy": -0.2546,
				"method": "rhf"
			},
			{
				"type": "occ",
				"energy": -0.23085,
				"method": "rhf"
			},
			{
				"type": "occ",
				"energy": -0.2194,
				"method": "rhf"
			},
			{
				"type": "unocc",
				"energy": -0.00738,
				"method": "rhf"
			},
			{
				"type": "unocc",
				"energy": 0.00138,
				"method": "rhf"
			},
			{
				"type": "unocc",
				"energy": 0.06481,
				"method": "rhf"
			},
			{
				"type": "unocc",
				"energy": 0.0882,
				"method": "rhf"
			},
			{
				"type": "unocc",
				"energy": 0.09669,
				"method": "rhf"
			}
		],
		"cosmo_sigma_profile": { 
			"-0.025": 0.0,
			"-0.024": 0.0,
			"-0.023": 0.0,
			"-0.022": 0.0,
			"-0.021": 0.0,
			"-0.02": 0.0,
			"-0.019": 0.0,
			"-0.018": 0.0,
			"-0.017": 0.0,
			"-0.016": 0.0,
			"-0.015": 0.0,
			"-0.014": 0.0,
			"-0.013": 0.0,
			"-0.012": 0.0,
			"-0.011": 0.0,
			"-0.01": 1.79680090727,
			"-0.009": 3.92985950261,
			"-0.008": 2.62410884896,
			"-0.007": 4.20865474339,
			"-0.006": 7.18112705081,
			"-0.005": 9.57262999846,
			"-0.004": 13.859580195,
			"-0.003": 16.3541578118,
			"-0.002": 35.215064302,
			"-0.001": 53.2478050098,
			"0.0": 46.0194501649,
			"0.001": 41.9539508239,
			"0.002": 25.3076619751,
			"0.003": 23.977169706,
			"0.004": 27.430472923,
			"0.005": 12.7921240508,
			"0.006": 3.85136462875,
			"0.007": 2.66379200076,
			"0.008": 2.21852401291,
			"0.009": 1.11337530755,
			"0.01": 0.899139691927,
			"0.011": 0.568485359359,
			"0.012": 0.127538935058,
			"0.013": 0.0,
			"0.014": 0.0,
			"0.015": 0.0,
			"0.016": 0.0,
			"0.017": 0.0,
			"0.018": 0.0,
			"0.019": 0.0,
			"0.02": 0.0,
			"0.021": 0.0,
			"0.022": 0.0,
			"0.023": 0.0,
			"0.024": 0.0,
			"0.025": 0.0
		}
	}
}
