{
	 "smiles": "CC1=CC(CCl)=C(CCl)C=C1C", 
	 "Tm": 378.15, 
	 "num_atms": 24, 
	 "gaussian": { 
		 "optdone": 1, 
		 "sigma_profile": "yes", 
		 "theory": "DFT", 
		 "functional": "B3LYP", 
		 "basiset": "6-31G**", 
		 "properties": { 
			 "R2extent": 3655.382, 
			 "electric_dipole_moment_norm": 3.50913094797, 
			 "electric_quadrupole_moment_norm": 9.23389865658, 
			 "total_energy": -1308.70935702, 
			 "HOMO_LUMO_gap": 0.20186, 
			 "cosmo_polarized_energy": -7.81, 
			 "cosmo_cavitation_energy": 29.97, 
			 "cosmo_dispersion_energy": -21.48, 
			 "cosmo_repulsion_energy": 1.73, 
			 "cosmo_total_nonelectrostatic_energy": 10.21, 
			 "SMD_solvation_energy": 4.37 
		},
		"coords": [
			{
				"x": -1.3711113221,
				"y": -1.9100782207,
				"z": -1.8912246208,
				"element": "C" 
			},
			{
				"x": -0.9191887111,
				"y": -0.6535164493,
				"z": -1.1878819535,
				"element": "C" 
			},
			{
				"x": -0.7085462632,
				"y": -0.6558641952,
				"z": 0.1938571545,
				"element": "C" 
			},
			{
				"x": -0.2916232182,
				"y": 0.4798507356,
				"z": 0.8948524949,
				"element": "C" 
			},
			{
				"x": -0.1117065775,
				"y": 0.3976819321,
				"z": 2.3811564691,
				"element": "C" 
			},
			{
				"x": 1.653582972,
				"y": 0.173352113,
				"z": 2.8690908229,
				"element": "Cl" 
			},
			{
				"x": -0.0677704532,
				"y": 1.6717442964,
				"z": 0.1795822541,
				"element": "C" 
			},
			{
				"x": 0.4054514649,
				"y": 2.9261400401,
				"z": 0.8509708923,
				"element": "C" 
			},
			{
				"x": -0.9669617889,
				"y": 3.856423991,
				"z": 1.6607810276,
				"element": "Cl" 
			},
			{
				"x": -0.2813664199,
				"y": 1.6759305732,
				"z": -1.2022340365,
				"element": "C" 
			},
			{
				"x": -0.7012570512,
				"y": 0.5420360006,
				"z": -1.9033454755,
				"element": "C" 
			},
			{
				"x": -0.9140959624,
				"y": 0.6054942076,
				"z": -3.3961879179,
				"element": "C" 
			},
			{
				"x": -1.4878734836,
				"y": -2.7374227885,
				"z": -1.1868175927,
				"element": "H" 
			},
			{
				"x": -0.6528760593,
				"y": -2.2229063317,
				"z": -2.6586124197,
				"element": "H" 
			},
			{
				"x": -2.3318345778,
				"y": -1.7646574811,
				"z": -2.3997283365,
				"element": "H" 
			},
			{
				"x": -0.8742112386,
				"y": -1.578000905,
				"z": 0.7465196647,
				"element": "H" 
			},
			{
				"x": -0.6322825287,
				"y": -0.4636360594,
				"z": 2.7979548598,
				"element": "H" 
			},
			{
				"x": -0.4378559441,
				"y": 1.2998708795,
				"z": 2.8968292849,
				"element": "H" 
			},
			{
				"x": 0.8353975537,
				"y": 3.6237097769,
				"z": 0.1332452188,
				"element": "H" 
			},
			{
				"x": 1.1271736001,
				"y": 2.7346239257,
				"z": 1.6438594761,
				"element": "H" 
			},
			{
				"x": -0.1150363983,
				"y": 2.5992828222,
				"z": -1.752665644,
				"element": "H" 
			},
			{
				"x": -0.2682540945,
				"y": -0.1047264029,
				"z": -3.9264508874,
				"element": "H" 
			},
			{
				"x": -0.7008885964,
				"y": 1.6047295734,
				"z": -3.7839891694,
				"element": "H" 
			},
			{
				"x": -1.9467649016,
				"y": 0.3548379666,
				"z": -3.6670615658,
				"element": "H" 
			}
		],
		 "valence_orbital": [ 
			{
				"type": "occ",
				"energy": -0.29953,
				"method": "rhf"
			},
			{
				"type": "occ",
				"energy": -0.29268,
				"method": "rhf"
			},
			{
				"type": "occ",
				"energy": -0.28818,
				"method": "rhf"
			},
			{
				"type": "occ",
				"energy": -0.25598,
				"method": "rhf"
			},
			{
				"type": "occ",
				"energy": -0.24391,
				"method": "rhf"
			},
			{
				"type": "unocc",
				"energy": -0.04205,
				"method": "rhf"
			},
			{
				"type": "unocc",
				"energy": -0.01732,
				"method": "rhf"
			},
			{
				"type": "unocc",
				"energy": 0.03794,
				"method": "rhf"
			},
			{
				"type": "unocc",
				"energy": 0.03926,
				"method": "rhf"
			},
			{
				"type": "unocc",
				"energy": 0.08463,
				"method": "rhf"
			}
		],
		"cosmo_sigma_profile": { 
			"-0.025": 0.0,
			"-0.024": 0.0,
			"-0.023": 0.0,
			"-0.022": 0.0,
			"-0.021": 0.0,
			"-0.02": 0.0,
			"-0.019": 0.0,
			"-0.018": 0.0,
			"-0.017": 0.0,
			"-0.016": 0.0,
			"-0.015": 0.0,
			"-0.014": 0.0,
			"-0.013": 0.0,
			"-0.012": 0.0,
			"-0.011": 0.0,
			"-0.01": 0.0,
			"-0.009": 0.0,
			"-0.008": 2.46707948443,
			"-0.007": 6.99344554625,
			"-0.006": 9.40508526515,
			"-0.005": 15.3250913178,
			"-0.004": 24.9920910124,
			"-0.003": 18.5809775906,
			"-0.002": 17.0227867238,
			"-0.001": 19.5444124334,
			"0.0": 23.3757815801,
			"0.001": 15.7641320626,
			"0.002": 12.3472232288,
			"0.003": 14.3231758753,
			"0.004": 17.6389982459,
			"0.005": 17.0930412268,
			"0.006": 15.480078603,
			"0.007": 10.6632902771,
			"0.008": 0.00989125379821,
			"0.009": 0.0,
			"0.01": 0.0,
			"0.011": 0.0,
			"0.012": 0.0,
			"0.013": 0.0,
			"0.014": 0.0,
			"0.015": 0.0,
			"0.016": 0.0,
			"0.017": 0.0,
			"0.018": 0.0,
			"0.019": 0.0,
			"0.02": 0.0,
			"0.021": 0.0,
			"0.022": 0.0,
			"0.023": 0.0,
			"0.024": 0.0,
			"0.025": 0.0
		}
	}
}
