{
	 "smiles": "OC(=O)C1=C(O)C(Cl)=CC(F)=C1", 
	 "Tm": 484.15, 
	 "num_atms": 16, 
	 "gaussian": { 
		 "optdone": 1, 
		 "sigma_profile": "yes", 
		 "theory": "DFT", 
		 "functional": "B3LYP", 
		 "basiset": "6-31G**", 
		 "properties": { 
			 "R2extent": 2717.1102, 
			 "electric_dipole_moment_norm": 2.79473028395, 
			 "electric_quadrupole_moment_norm": 13.1773352966, 
			 "total_energy": -1054.87315183, 
			 "HOMO_LUMO_gap": 0.16216, 
			 "cosmo_polarized_energy": -9.42, 
			 "cosmo_cavitation_energy": 23.22, 
			 "cosmo_dispersion_energy": -17.62, 
			 "cosmo_repulsion_energy": 1.37, 
			 "cosmo_total_nonelectrostatic_energy": 6.97, 
			 "SMD_solvation_energy": 5.79 
		},
		"coords": [
			{
				"x": -2.9014561378,
				"y": 0.8467494017,
				"z": 1.0119931016,
				"element": "O" 
			},
			{
				"x": -2.3097788446,
				"y": 1.1108433299,
				"z": -0.1660716105,
				"element": "C" 
			},
			{
				"x": -2.9196396356,
				"y": 1.6868810619,
				"z": -1.0682390361,
				"element": "O" 
			},
			{
				"x": -0.915329765,
				"y": 0.6608223257,
				"z": -0.2668001605,
				"element": "C" 
			},
			{
				"x": -0.2230875438,
				"y": 0.9044692415,
				"z": -1.4815923774,
				"element": "C" 
			},
			{
				"x": -0.7785078213,
				"y": 1.5197298423,
				"z": -2.5289682705,
				"element": "O" 
			},
			{
				"x": 1.1179279606,
				"y": 0.4706662559,
				"z": -1.5758588566,
				"element": "C" 
			},
			{
				"x": 1.9972165001,
				"y": 0.7546985606,
				"z": -3.0551280672,
				"element": "Cl" 
			},
			{
				"x": 1.741256481,
				"y": -0.1733449914,
				"z": -0.5167452065,
				"element": "C" 
			},
			{
				"x": 1.028979547,
				"y": -0.3960898334,
				"z": 0.6633125964,
				"element": "C" 
			},
			{
				"x": 1.6521364462,
				"y": -1.0237157572,
				"z": 1.6816666572,
				"element": "F" 
			},
			{
				"x": -0.2814322721,
				"y": 0.0073472189,
				"z": 0.8067816236,
				"element": "C" 
			},
			{
				"x": -3.8077919119,
				"y": 1.1913191769,
				"z": 0.9474018414,
				"element": "H" 
			},
			{
				"x": -1.7065828045,
				"y": 1.7436574068,
				"z": -2.2739469279,
				"element": "H" 
			},
			{
				"x": 2.770426457,
				"y": -0.5027091413,
				"z": -0.5980799369,
				"element": "H" 
			},
			{
				"x": -0.8143366553,
				"y": -0.1758240988,
				"z": 1.7310746299,
				"element": "H" 
			}
		],
		 "valence_orbital": [ 
			{
				"type": "occ",
				"energy": -0.33638,
				"method": "rhf"
			},
			{
				"type": "occ",
				"energy": -0.3186,
				"method": "rhf"
			},
			{
				"type": "occ",
				"energy": -0.30715,
				"method": "rhf"
			},
			{
				"type": "occ",
				"energy": -0.27402,
				"method": "rhf"
			},
			{
				"type": "occ",
				"energy": -0.23489,
				"method": "rhf"
			},
			{
				"type": "unocc",
				"energy": -0.07273,
				"method": "rhf"
			},
			{
				"type": "unocc",
				"energy": -0.01025,
				"method": "rhf"
			},
			{
				"type": "unocc",
				"energy": 0.02097,
				"method": "rhf"
			},
			{
				"type": "unocc",
				"energy": 0.03491,
				"method": "rhf"
			},
			{
				"type": "unocc",
				"energy": 0.0606,
				"method": "rhf"
			}
		],
		"cosmo_sigma_profile": { 
			"-0.025": 0.0,
			"-0.024": 0.0,
			"-0.023": 0.0,
			"-0.022": 0.0,
			"-0.021": 0.0,
			"-0.02": 0.109714398598,
			"-0.019": 1.09329828554,
			"-0.018": 0.652391693929,
			"-0.017": 0.961664955055,
			"-0.016": 0.741816197092,
			"-0.015": 0.554881490158,
			"-0.014": 0.197029942311,
			"-0.013": 1.13297890467,
			"-0.012": 1.0152252016,
			"-0.011": 0.440147642602,
			"-0.01": 0.478129618441,
			"-0.009": 2.6230379566,
			"-0.008": 4.43774471395,
			"-0.007": 3.60578704715,
			"-0.006": 3.35244096286,
			"-0.005": 6.66578641523,
			"-0.004": 8.77822684545,
			"-0.003": 10.2528879808,
			"-0.002": 10.8104600029,
			"-0.001": 20.6549909352,
			"0.0": 25.3342910978,
			"0.001": 14.2287402453,
			"0.002": 10.336230042,
			"0.003": 14.0149029186,
			"0.004": 20.5207633882,
			"0.005": 6.07553143455,
			"0.006": 4.56451799655,
			"0.007": 3.69711829875,
			"0.008": 2.92681788003,
			"0.009": 4.00172626668,
			"0.01": 3.82933474267,
			"0.011": 1.26643012359,
			"0.012": 0.0,
			"0.013": 0.0,
			"0.014": 0.0,
			"0.015": 0.0,
			"0.016": 0.0,
			"0.017": 0.0,
			"0.018": 0.0,
			"0.019": 0.0,
			"0.02": 0.0,
			"0.021": 0.0,
			"0.022": 0.0,
			"0.023": 0.0,
			"0.024": 0.0,
			"0.025": 0.0
		}
	}
}
