{
	 "smiles": "CC1=C2C=CC=CC2=CC=C1", 
	 "Tm": 307.15, 
	 "num_atms": 21, 
	 "gaussian": { 
		 "optdone": 1, 
		 "sigma_profile": "yes", 
		 "theory": "DFT", 
		 "functional": "B3LYP", 
		 "basiset": "6-31G**", 
		 "properties": { 
			 "R2extent": 1987.9349, 
			 "electric_dipole_moment_norm": 0.316400711124, 
			 "electric_quadrupole_moment_norm": 7.83551364749, 
			 "total_energy": -425.215845685, 
			 "HOMO_LUMO_gap": 0.17428, 
			 "cosmo_polarized_energy": -4.39, 
			 "cosmo_cavitation_energy": 23.72, 
			 "cosmo_dispersion_energy": -17.79, 
			 "cosmo_repulsion_energy": 1.39, 
			 "cosmo_total_nonelectrostatic_energy": 7.33, 
			 "SMD_solvation_energy": 3.79 
		},
		"coords": [
			{
				"x": -0.4185366672,
				"y": -3.0548187067,
				"z": 1.0326283173,
				"element": "C" 
			},
			{
				"x": 0.2093521334,
				"y": -1.8111715227,
				"z": 0.4503189099,
				"element": "C" 
			},
			{
				"x": 0.369487767,
				"y": -0.6282603375,
				"z": 1.2458452136,
				"element": "C" 
			},
			{
				"x": -0.0457235427,
				"y": -0.5580787665,
				"z": 2.6044474099,
				"element": "C" 
			},
			{
				"x": 0.1208856706,
				"y": 0.5924728174,
				"z": 3.3446004244,
				"element": "C" 
			},
			{
				"x": 0.7135277816,
				"y": 1.738023332,
				"z": 2.7637116626,
				"element": "C" 
			},
			{
				"x": 1.1273149204,
				"y": 1.7061531863,
				"z": 1.4512348508,
				"element": "C" 
			},
			{
				"x": 0.97031821,
				"y": 0.5363189244,
				"z": 0.6604397592,
				"element": "C" 
			},
			{
				"x": 1.3949756827,
				"y": 0.4955197484,
				"z": -0.6952489375,
				"element": "C" 
			},
			{
				"x": 1.2324038462,
				"y": -0.6476494584,
				"z": -1.4397531843,
				"element": "C" 
			},
			{
				"x": 0.6396745863,
				"y": -1.7960537206,
				"z": -0.8618416077,
				"element": "C" 
			},
			{
				"x": 0.1469749995,
				"y": -3.4307862919,
				"z": 1.8935986503,
				"element": "H" 
			},
			{
				"x": -1.4424492238,
				"y": -2.8694305756,
				"z": 1.3785573115,
				"element": "H" 
			},
			{
				"x": -0.4592565522,
				"y": -3.8535842795,
				"z": 0.2877064859,
				"element": "H" 
			},
			{
				"x": -0.5022499084,
				"y": -1.4273275658,
				"z": 3.066126099,
				"element": "H" 
			},
			{
				"x": -0.2043023094,
				"y": 0.6218556289,
				"z": 4.3807104118,
				"element": "H" 
			},
			{
				"x": 0.8403001116,
				"y": 2.6399144992,
				"z": 3.355668884,
				"element": "H" 
			},
			{
				"x": 1.5837945784,
				"y": 2.5820914299,
				"z": 0.9968144522,
				"element": "H" 
			},
			{
				"x": 1.8489372684,
				"y": 1.3824635948,
				"z": -1.1297732279,
				"element": "H" 
			},
			{
				"x": 1.5571083242,
				"y": -0.6785299931,
				"z": -2.4759347994,
				"element": "H" 
			},
			{
				"x": 0.5203623235,
				"y": -2.690221943,
				"z": -1.4685570853,
				"element": "H" 
			}
		],
		 "valence_orbital": [ 
			{
				"type": "occ",
				"energy": -0.3223,
				"method": "rhf"
			},
			{
				"type": "occ",
				"energy": -0.31935,
				"method": "rhf"
			},
			{
				"type": "occ",
				"energy": -0.2726,
				"method": "rhf"
			},
			{
				"type": "occ",
				"energy": -0.23853,
				"method": "rhf"
			},
			{
				"type": "occ",
				"energy": -0.2088,
				"method": "rhf"
			},
			{
				"type": "unocc",
				"energy": -0.03452,
				"method": "rhf"
			},
			{
				"type": "unocc",
				"energy": -0.00447,
				"method": "rhf"
			},
			{
				"type": "unocc",
				"energy": 0.0389,
				"method": "rhf"
			},
			{
				"type": "unocc",
				"energy": 0.0945,
				"method": "rhf"
			},
			{
				"type": "unocc",
				"energy": 0.10125,
				"method": "rhf"
			}
		],
		"cosmo_sigma_profile": { 
			"-0.025": 0.0,
			"-0.024": 0.0,
			"-0.023": 0.0,
			"-0.022": 0.0,
			"-0.021": 0.0,
			"-0.02": 0.0,
			"-0.019": 0.0,
			"-0.018": 0.0,
			"-0.017": 0.0,
			"-0.016": 0.0,
			"-0.015": 0.0,
			"-0.014": 0.0,
			"-0.013": 0.0,
			"-0.012": 0.0,
			"-0.011": 0.0,
			"-0.01": 0.0,
			"-0.009": 0.0,
			"-0.008": 0.0,
			"-0.007": 0.0,
			"-0.006": 3.94229947055,
			"-0.005": 16.0554962821,
			"-0.004": 22.5337190783,
			"-0.003": 20.0915091503,
			"-0.002": 14.9310759911,
			"-0.001": 15.3966810696,
			"0.0": 14.0103036208,
			"0.001": 11.9571313381,
			"0.002": 11.4911795058,
			"0.003": 11.3055224821,
			"0.004": 17.7393687442,
			"0.005": 21.0115357394,
			"0.006": 8.86401157476,
			"0.007": 0.0,
			"0.008": 0.0,
			"0.009": 0.0,
			"0.01": 0.0,
			"0.011": 0.0,
			"0.012": 0.0,
			"0.013": 0.0,
			"0.014": 0.0,
			"0.015": 0.0,
			"0.016": 0.0,
			"0.017": 0.0,
			"0.018": 0.0,
			"0.019": 0.0,
			"0.02": 0.0,
			"0.021": 0.0,
			"0.022": 0.0,
			"0.023": 0.0,
			"0.024": 0.0,
			"0.025": 0.0
		}
	}
}
