{
	 "smiles": "COC1=CC=C(C=C1)C1=NN=C2SC(NN12)C1=C(O)C=CC=C1", 
	 "Tm": 493.15, 
	 "num_atms": 37, 
	 "gaussian": { 
		 "optdone": 1, 
		 "sigma_profile": "yes", 
		 "theory": "DFT", 
		 "functional": "B3LYP", 
		 "basiset": "6-31G**", 
		 "properties": { 
			 "R2extent": 11545.3697, 
			 "electric_dipole_moment_norm": 9.73094187322, 
			 "electric_quadrupole_moment_norm": 33.3328525452, 
			 "total_energy": -1385.69978267, 
			 "HOMO_LUMO_gap": 0.15394, 
			 "cosmo_polarized_energy": -25.63, 
			 "cosmo_cavitation_energy": 42.79, 
			 "cosmo_dispersion_energy": -31.49, 
			 "cosmo_repulsion_energy": 2.32, 
			 "cosmo_total_nonelectrostatic_energy": 13.62, 
			 "SMD_solvation_energy": 5.0 
		},
		"coords": [
			{
				"x": -3.4178365096,
				"y": -1.4242448887,
				"z": 5.204801023,
				"element": "C" 
			},
			{
				"x": -4.3996967651,
				"y": -0.9548747182,
				"z": 4.2949208601,
				"element": "O" 
			},
			{
				"x": -3.9976537641,
				"y": -0.5751399703,
				"z": 3.0486605578,
				"element": "C" 
			},
			{
				"x": -2.6749952547,
				"y": -0.6049595016,
				"z": 2.5933007433,
				"element": "C" 
			},
			{
				"x": -2.377983003,
				"y": -0.1884541765,
				"z": 1.2935201513,
				"element": "C" 
			},
			{
				"x": -3.3861710828,
				"y": 0.2617813333,
				"z": 0.4320982458,
				"element": "C" 
			},
			{
				"x": -4.7147506313,
				"y": 0.2842823448,
				"z": 0.9036261547,
				"element": "C" 
			},
			{
				"x": -5.0161079826,
				"y": -0.1271820931,
				"z": 2.1899677658,
				"element": "C" 
			},
			{
				"x": -3.1267665219,
				"y": 0.6975077861,
				"z": -0.9400860884,
				"element": "C" 
			},
			{
				"x": -4.0564194924,
				"y": 0.9992479012,
				"z": -1.8325877142,
				"element": "N" 
			},
			{
				"x": -3.4508861116,
				"y": 1.3541862436,
				"z": -3.0314710402,
				"element": "N" 
			},
			{
				"x": -2.1630577497,
				"y": 1.2776607108,
				"z": -2.8240671522,
				"element": "C" 
			},
			{
				"x": -0.6916301647,
				"y": 1.5302782922,
				"z": -3.7559172964,
				"element": "S" 
			},
			{
				"x": 0.2004812066,
				"y": 0.5393228239,
				"z": -2.3533397758,
				"element": "C" 
			},
			{
				"x": -0.5518845435,
				"y": 0.7883850856,
				"z": -1.1258342796,
				"element": "N" 
			},
			{
				"x": -1.8971922653,
				"y": 0.867540567,
				"z": -1.5401752775,
				"element": "N" 
			},
			{
				"x": 1.6683715303,
				"y": 0.838237346,
				"z": -2.2714071842,
				"element": "C" 
			},
			{
				"x": 2.1804204025,
				"y": 2.0384699206,
				"z": -1.7402516055,
				"element": "C" 
			},
			{
				"x": 1.2856986507,
				"y": 2.9456213473,
				"z": -1.2368386564,
				"element": "O" 
			},
			{
				"x": 3.5559577219,
				"y": 2.2784036174,
				"z": -1.7226631115,
				"element": "C" 
			},
			{
				"x": 4.4391078276,
				"y": 1.332699684,
				"z": -2.2415294412,
				"element": "C" 
			},
			{
				"x": 3.9531524376,
				"y": 0.1391486987,
				"z": -2.7745271782,
				"element": "C" 
			},
			{
				"x": 2.579137065,
				"y": -0.0953052101,
				"z": -2.7819403215,
				"element": "C" 
			},
			{
				"x": -2.9128891073,
				"y": -2.3231031932,
				"z": 4.8280060639,
				"element": "H" 
			},
			{
				"x": -3.95166681,
				"y": -1.6714905458,
				"z": 6.12366736,
				"element": "H" 
			},
			{
				"x": -2.6649290813,
				"y": -0.6551811583,
				"z": 5.4210746515,
				"element": "H" 
			},
			{
				"x": -1.871550803,
				"y": -0.9501183109,
				"z": 3.2331057668,
				"element": "H" 
			},
			{
				"x": -1.3502953086,
				"y": -0.2252372406,
				"z": 0.9483971526,
				"element": "H" 
			},
			{
				"x": -5.4971007996,
				"y": 0.6283034687,
				"z": 0.2360799656,
				"element": "H" 
			},
			{
				"x": -6.0357854771,
				"y": -0.1122353627,
				"z": 2.5606423977,
				"element": "H" 
			},
			{
				"x": 0.0455467243,
				"y": -0.5038599827,
				"z": -2.6345697812,
				"element": "H" 
			},
			{
				"x": -0.2907984114,
				"y": 1.7074892662,
				"z": -0.7620671505,
				"element": "H" 
			},
			{
				"x": 1.7508576019,
				"y": 3.739913028,
				"z": -0.9432876248,
				"element": "H" 
			},
			{
				"x": 3.9313469361,
				"y": 3.2089583035,
				"z": -1.3024595272,
				"element": "H" 
			},
			{
				"x": 5.5061428165,
				"y": 1.5326327595,
				"z": -2.2240315299,
				"element": "H" 
			},
			{
				"x": 4.6345303212,
				"y": -0.6020698588,
				"z": -3.1784742734,
				"element": "H" 
			},
			{
				"x": 2.1938963987,
				"y": -1.0231143169,
				"z": -3.1959428502,
				"element": "H" 
			}
		],
		 "valence_orbital": [ 
			{
				"type": "occ",
				"energy": -0.25114,
				"method": "rhf"
			},
			{
				"type": "occ",
				"energy": -0.24985,
				"method": "rhf"
			},
			{
				"type": "occ",
				"energy": -0.2411,
				"method": "rhf"
			},
			{
				"type": "occ",
				"energy": -0.23501,
				"method": "rhf"
			},
			{
				"type": "occ",
				"energy": -0.19713,
				"method": "rhf"
			},
			{
				"type": "unocc",
				"energy": -0.04319,
				"method": "rhf"
			},
			{
				"type": "unocc",
				"energy": -0.02024,
				"method": "rhf"
			},
			{
				"type": "unocc",
				"energy": -0.01599,
				"method": "rhf"
			},
			{
				"type": "unocc",
				"energy": -0.00017,
				"method": "rhf"
			},
			{
				"type": "unocc",
				"energy": 0.00416,
				"method": "rhf"
			}
		],
		"cosmo_sigma_profile": { 
			"-0.025": 0.0,
			"-0.024": 0.0,
			"-0.023": 0.0,
			"-0.022": 0.0,
			"-0.021": 0.0,
			"-0.02": 0.0,
			"-0.019": 0.397630592419,
			"-0.018": 1.36503561794,
			"-0.017": 0.589573521023,
			"-0.016": 1.36416999325,
			"-0.015": 1.36970958804,
			"-0.014": 1.1896028761,
			"-0.013": 0.588655597251,
			"-0.012": 1.03884875904,
			"-0.011": 1.90375681018,
			"-0.01": 1.72228161995,
			"-0.009": 4.02520519892,
			"-0.008": 5.41490765364,
			"-0.007": 8.89868410986,
			"-0.006": 19.6890146522,
			"-0.005": 24.6398685639,
			"-0.004": 24.6146850723,
			"-0.003": 22.1627961488,
			"-0.002": 21.273220229,
			"-0.001": 18.5405105715,
			"0.0": 21.3460681478,
			"0.001": 22.44147999,
			"0.002": 27.2965792829,
			"0.003": 28.2370850931,
			"0.004": 29.8936591907,
			"0.005": 13.0773662347,
			"0.006": 7.62037790026,
			"0.007": 5.65757576579,
			"0.008": 5.08901039183,
			"0.009": 4.41503103284,
			"0.01": 2.66059515402,
			"0.011": 2.05619066217,
			"0.012": 2.9088476455,
			"0.013": 3.6158535746,
			"0.014": 3.7317124863,
			"0.015": 2.44193414185,
			"0.016": 1.71224597875,
			"0.017": 0.349580532801,
			"0.018": 0.0,
			"0.019": 0.0,
			"0.02": 0.0,
			"0.021": 0.0,
			"0.022": 0.0,
			"0.023": 0.0,
			"0.024": 0.0,
			"0.025": 0.0
		}
	}
}
