{
	 "smiles": "FC1=CC(N=C=O)=C(C=C1)C#N", 
	 "Tm": 310.15, 
	 "num_atms": 15, 
	 "gaussian": { 
		 "optdone": 1, 
		 "sigma_profile": "yes", 
		 "theory": "DFT", 
		 "functional": "B3LYP", 
		 "basiset": "6-31G**", 
		 "properties": { 
			 "R2extent": 3482.7935, 
			 "electric_dipole_moment_norm": 4.16517837673, 
			 "electric_quadrupole_moment_norm": 20.9667263918, 
			 "total_energy": -591.197659872, 
			 "HOMO_LUMO_gap": 0.19831, 
			 "cosmo_polarized_energy": -10.48, 
			 "cosmo_cavitation_energy": 23.26, 
			 "cosmo_dispersion_energy": -15.84, 
			 "cosmo_repulsion_energy": 1.25, 
			 "cosmo_total_nonelectrostatic_energy": 8.67, 
			 "SMD_solvation_energy": 8.37 
		},
		"coords": [
			{
				"x": 0.5535888121,
				"y": 1.7298112443,
				"z": 1.1189498259,
				"element": "F" 
			},
			{
				"x": -0.3217009401,
				"y": 1.3953337618,
				"z": 0.1579337866,
				"element": "C" 
			},
			{
				"x": 0.1739633945,
				"y": 0.9796604371,
				"z": -1.0703030584,
				"element": "C" 
			},
			{
				"x": -0.7288933817,
				"y": 0.6279907521,
				"z": -2.0812116346,
				"element": "C" 
			},
			{
				"x": -0.3050222825,
				"y": 0.2043982066,
				"z": -3.331288688,
				"element": "N" 
			},
			{
				"x": 0.7245070618,
				"y": 0.0043863927,
				"z": -3.9392895419,
				"element": "C" 
			},
			{
				"x": 1.6427600604,
				"y": -0.2261781998,
				"z": -4.6342516205,
				"element": "O" 
			},
			{
				"x": -2.1194438146,
				"y": 0.7018791205,
				"z": -1.8348342758,
				"element": "C" 
			},
			{
				"x": -2.5778044182,
				"y": 1.127970808,
				"z": -0.5766711433,
				"element": "C" 
			},
			{
				"x": -1.6856260727,
				"y": 1.477844779,
				"z": 0.4290607082,
				"element": "C" 
			},
			{
				"x": -3.0575184867,
				"y": 0.3467852692,
				"z": -2.8549579211,
				"element": "C" 
			},
			{
				"x": -3.8438054752,
				"y": 0.0647148488,
				"z": -3.6643347179,
				"element": "N" 
			},
			{
				"x": 1.2446004988,
				"y": 0.932062386,
				"z": -1.2327524113,
				"element": "H" 
			},
			{
				"x": -3.6462363154,
				"y": 1.1805435776,
				"z": -0.3996498367,
				"element": "H" 
			},
			{
				"x": -2.0233686407,
				"y": 1.8081966161,
				"z": 1.4042005286,
				"element": "H" 
			}
		],
		 "valence_orbital": [ 
			{
				"type": "occ",
				"energy": -0.34562,
				"method": "rhf"
			},
			{
				"type": "occ",
				"energy": -0.3402,
				"method": "rhf"
			},
			{
				"type": "occ",
				"energy": -0.33184,
				"method": "rhf"
			},
			{
				"type": "occ",
				"energy": -0.28246,
				"method": "rhf"
			},
			{
				"type": "occ",
				"energy": -0.26246,
				"method": "rhf"
			},
			{
				"type": "unocc",
				"energy": -0.06415,
				"method": "rhf"
			},
			{
				"type": "unocc",
				"energy": -0.05341,
				"method": "rhf"
			},
			{
				"type": "unocc",
				"energy": -0.01376,
				"method": "rhf"
			},
			{
				"type": "unocc",
				"energy": 0.02927,
				"method": "rhf"
			},
			{
				"type": "unocc",
				"energy": 0.05349,
				"method": "rhf"
			}
		],
		"cosmo_sigma_profile": { 
			"-0.025": 0.0,
			"-0.024": 0.0,
			"-0.023": 0.0,
			"-0.022": 0.0,
			"-0.021": 0.0,
			"-0.02": 0.0,
			"-0.019": 0.0,
			"-0.018": 0.0,
			"-0.017": 0.0,
			"-0.016": 0.0,
			"-0.015": 0.0,
			"-0.014": 0.0,
			"-0.013": 0.0,
			"-0.012": 0.0,
			"-0.011": 0.274904714408,
			"-0.01": 2.84485466016,
			"-0.009": 4.9657921382,
			"-0.008": 5.85756040274,
			"-0.007": 8.03094076389,
			"-0.006": 6.61994720864,
			"-0.005": 7.48252718327,
			"-0.004": 9.26515421635,
			"-0.003": 10.6389074451,
			"-0.002": 19.2028926692,
			"-0.001": 24.1694126503,
			"0.0": 14.6308448806,
			"0.001": 10.0647721529,
			"0.002": 8.46031645119,
			"0.003": 13.872212823,
			"0.004": 6.70569251148,
			"0.005": 6.45786077399,
			"0.006": 9.34001997606,
			"0.007": 5.85428871811,
			"0.008": 3.39770143334,
			"0.009": 3.49675213063,
			"0.01": 3.00736366781,
			"0.011": 2.78569005537,
			"0.012": 2.23628671053,
			"0.013": 1.09428757765,
			"0.014": 0.0,
			"0.015": 0.0,
			"0.016": 0.0,
			"0.017": 0.0,
			"0.018": 0.0,
			"0.019": 0.0,
			"0.02": 0.0,
			"0.021": 0.0,
			"0.022": 0.0,
			"0.023": 0.0,
			"0.024": 0.0,
			"0.025": 0.0
		}
	}
}
