{
	 "smiles": "CC1=NC(C)=C(Cl)C(O)=C1Cl", 
	 "Tm": 593.15, 
	 "num_atms": 18, 
	 "gaussian": { 
		 "optdone": 1, 
		 "sigma_profile": "yes", 
		 "theory": "DFT", 
		 "functional": "B3LYP", 
		 "basiset": "6-31G**", 
		 "properties": { 
			 "R2extent": 2816.4111, 
			 "electric_dipole_moment_norm": 1.35754867316, 
			 "electric_quadrupole_moment_norm": 6.46759258844, 
			 "total_energy": -1321.33340861, 
			 "HOMO_LUMO_gap": 0.22172, 
			 "cosmo_polarized_energy": -7.08, 
			 "cosmo_cavitation_energy": 25.1, 
			 "cosmo_dispersion_energy": -18.98, 
			 "cosmo_repulsion_energy": 1.53, 
			 "cosmo_total_nonelectrostatic_energy": 7.65, 
			 "SMD_solvation_energy": 3.1 
		},
		"coords": [
			{
				"x": -1.9192146715,
				"y": -0.5720009535,
				"z": -0.8421780677,
				"element": "C" 
			},
			{
				"x": -0.6104227955,
				"y": 0.1265594264,
				"z": -0.5885481115,
				"element": "C" 
			},
			{
				"x": -0.1113382531,
				"y": 0.8633787184,
				"z": -1.5942101827,
				"element": "N" 
			},
			{
				"x": 1.0494531651,
				"y": 1.5175114574,
				"z": -1.450667417,
				"element": "C" 
			},
			{
				"x": 1.5387970386,
				"y": 2.3206765763,
				"z": -2.6257995063,
				"element": "C" 
			},
			{
				"x": 1.7612240418,
				"y": 1.4438567256,
				"z": -0.2502862632,
				"element": "C" 
			},
			{
				"x": 3.2915935644,
				"y": 2.2938024679,
				"z": -0.0318975724,
				"element": "Cl" 
			},
			{
				"x": 1.2777678019,
				"y": 0.6862264607,
				"z": 0.8269972308,
				"element": "C" 
			},
			{
				"x": 1.915381593,
				"y": 0.5772253659,
				"z": 2.0033926053,
				"element": "O" 
			},
			{
				"x": 0.0599566556,
				"y": 0.0174556059,
				"z": 0.6353426219,
				"element": "C" 
			},
			{
				"x": -0.5880453425,
				"y": -0.9411289412,
				"z": 1.9456722744,
				"element": "Cl" 
			},
			{
				"x": -1.8180634625,
				"y": -1.656814415,
				"z": -0.7304153812,
				"element": "H" 
			},
			{
				"x": -2.250505012,
				"y": -0.3434990415,
				"z": -1.8554916713,
				"element": "H" 
			},
			{
				"x": -2.685679948,
				"y": -0.2495524274,
				"z": -0.1293735761,
				"element": "H" 
			},
			{
				"x": 1.65027501,
				"y": 3.3790972666,
				"z": -2.3664023584,
				"element": "H" 
			},
			{
				"x": 0.8199238152,
				"y": 2.2253320426,
				"z": -3.4399517238,
				"element": "H" 
			},
			{
				"x": 2.5184994117,
				"y": 1.9699267606,
				"z": -2.9680502541,
				"element": "H" 
			},
			{
				"x": 2.733597388,
				"y": 1.0981469042,
				"z": 1.9643673533,
				"element": "H" 
			}
		],
		 "valence_orbital": [ 
			{
				"type": "occ",
				"energy": -0.34148,
				"method": "rhf"
			},
			{
				"type": "occ",
				"energy": -0.32041,
				"method": "rhf"
			},
			{
				"type": "occ",
				"energy": -0.26503,
				"method": "rhf"
			},
			{
				"type": "occ",
				"energy": -0.25775,
				"method": "rhf"
			},
			{
				"type": "occ",
				"energy": -0.24809,
				"method": "rhf"
			},
			{
				"type": "unocc",
				"energy": -0.02637,
				"method": "rhf"
			},
			{
				"type": "unocc",
				"energy": -0.02051,
				"method": "rhf"
			},
			{
				"type": "unocc",
				"energy": 0.00034,
				"method": "rhf"
			},
			{
				"type": "unocc",
				"energy": 0.04545,
				"method": "rhf"
			},
			{
				"type": "unocc",
				"energy": 0.07585,
				"method": "rhf"
			}
		],
		"cosmo_sigma_profile": { 
			"-0.025": 0.0,
			"-0.024": 0.0,
			"-0.023": 0.0,
			"-0.022": 0.0,
			"-0.021": 0.0,
			"-0.02": 0.0,
			"-0.019": 0.0,
			"-0.018": 0.0,
			"-0.017": 0.227122655966,
			"-0.016": 0.691020921231,
			"-0.015": 0.298903745124,
			"-0.014": 0.449894348155,
			"-0.013": 1.15382013533,
			"-0.012": 0.910000872901,
			"-0.011": 0.895178949766,
			"-0.01": 0.993444747983,
			"-0.009": 0.872113932222,
			"-0.008": 0.854735400732,
			"-0.007": 1.522163242,
			"-0.006": 1.80831694517,
			"-0.005": 8.11583865102,
			"-0.004": 10.2842694663,
			"-0.003": 17.219385951,
			"-0.002": 20.5174701382,
			"-0.001": 30.4667018984,
			"0.0": 28.4315435785,
			"0.001": 14.611983812,
			"0.002": 14.7853999835,
			"0.003": 13.7440546871,
			"0.004": 11.5599295299,
			"0.005": 5.91032454423,
			"0.006": 3.59576454648,
			"0.007": 3.5147291676,
			"0.008": 2.72942176449,
			"0.009": 3.56158253629,
			"0.01": 1.51960269872,
			"0.011": 0.915856018426,
			"0.012": 0.967104896171,
			"0.013": 0.65511807741,
			"0.014": 0.394117189722,
			"0.015": 0.0,
			"0.016": 0.0,
			"0.017": 0.0,
			"0.018": 0.0,
			"0.019": 0.0,
			"0.02": 0.0,
			"0.021": 0.0,
			"0.022": 0.0,
			"0.023": 0.0,
			"0.024": 0.0,
			"0.025": 0.0
		}
	}
}
