{
	 "smiles": "CC1=CC2=CC=C(C)C(C)=C2C=C1", 
	 "Tm": 287.15, 
	 "num_atms": 27, 
	 "gaussian": { 
		 "optdone": 1, 
		 "sigma_profile": "yes", 
		 "theory": "DFT", 
		 "functional": "B3LYP", 
		 "basiset": "6-31G**", 
		 "properties": { 
			 "R2extent": 3283.5876, 
			 "electric_dipole_moment_norm": 0.365282137532, 
			 "electric_quadrupole_moment_norm": 8.8377102487, 
			 "total_energy": -503.852588909, 
			 "HOMO_LUMO_gap": 0.17103, 
			 "cosmo_polarized_energy": -4.63, 
			 "cosmo_cavitation_energy": 28.86, 
			 "cosmo_dispersion_energy": -21.28, 
			 "cosmo_repulsion_energy": 1.65, 
			 "cosmo_total_nonelectrostatic_energy": 9.23, 
			 "SMD_solvation_energy": 4.67 
		},
		"coords": [
			{
				"x": -0.4112981476,
				"y": 1.9741903933,
				"z": 2.5800809822,
				"element": "C" 
			},
			{
				"x": -0.0570380486,
				"y": 1.4895847329,
				"z": 1.1952982821,
				"element": "C" 
			},
			{
				"x": -0.099866434,
				"y": 0.1535103117,
				"z": 0.8572923478,
				"element": "C" 
			},
			{
				"x": 0.2331142871,
				"y": -0.3058047452,
				"z": -0.4455825149,
				"element": "C" 
			},
			{
				"x": 0.1858629283,
				"y": -1.6819244441,
				"z": -0.7831479921,
				"element": "C" 
			},
			{
				"x": 0.5133047785,
				"y": -2.095558304,
				"z": -2.0507036671,
				"element": "C" 
			},
			{
				"x": 0.9072460333,
				"y": -1.1774609704,
				"z": -3.0621244573,
				"element": "C" 
			},
			{
				"x": 1.2502878514,
				"y": -1.7263071968,
				"z": -4.4321381538,
				"element": "C" 
			},
			{
				"x": 0.9654072755,
				"y": 0.1813601072,
				"z": -2.7675016309,
				"element": "C" 
			},
			{
				"x": 1.3789519738,
				"y": 1.197561706,
				"z": -3.8090810286,
				"element": "C" 
			},
			{
				"x": 0.6274323131,
				"y": 0.6356681364,
				"z": -1.449820537,
				"element": "C" 
			},
			{
				"x": 0.6644109954,
				"y": 2.0101591029,
				"z": -1.0780299615,
				"element": "C" 
			},
			{
				"x": 0.3351604249,
				"y": 2.4191168903,
				"z": 0.193642779,
				"element": "C" 
			},
			{
				"x": -1.251421584,
				"y": 2.678539991,
				"z": 2.553262136,
				"element": "H" 
			},
			{
				"x": 0.4306317365,
				"y": 2.500381318,
				"z": 3.0458618085,
				"element": "H" 
			},
			{
				"x": -0.6909307156,
				"y": 1.1445263614,
				"z": 3.2351279229,
				"element": "H" 
			},
			{
				"x": -0.3960803339,
				"y": -0.5833631872,
				"z": 1.6012349164,
				"element": "H" 
			},
			{
				"x": -0.1125217295,
				"y": -2.4028966142,
				"z": -0.0262695157,
				"element": "H" 
			},
			{
				"x": 0.4733316163,
				"y": -3.1534152906,
				"z": -2.2980847243,
				"element": "H" 
			},
			{
				"x": 1.1384244459,
				"y": -2.8136849841,
				"z": -4.4502181559,
				"element": "H" 
			},
			{
				"x": 2.2831409219,
				"y": -1.4996094208,
				"z": -4.720840545,
				"element": "H" 
			},
			{
				"x": 0.6003952732,
				"y": -1.3182734597,
				"z": -5.2148345157,
				"element": "H" 
			},
			{
				"x": 1.6112390387,
				"y": 0.7327065599,
				"z": -4.7672072494,
				"element": "H" 
			},
			{
				"x": 2.2677661887,
				"y": 1.7564353494,
				"z": -3.492498954,
				"element": "H" 
			},
			{
				"x": 0.5864943351,
				"y": 1.934533009,
				"z": -3.986468047,
				"element": "H" 
			},
			{
				"x": 0.958007624,
				"y": 2.7545386617,
				"z": -1.8102015392,
				"element": "H" 
			},
			{
				"x": 0.3744469514,
				"y": 3.4771859859,
				"z": 0.4427520147,
				"element": "H" 
			}
		],
		 "valence_orbital": [ 
			{
				"type": "occ",
				"energy": -0.31491,
				"method": "rhf"
			},
			{
				"type": "occ",
				"energy": -0.30416,
				"method": "rhf"
			},
			{
				"type": "occ",
				"energy": -0.26509,
				"method": "rhf"
			},
			{
				"type": "occ",
				"energy": -0.2271,
				"method": "rhf"
			},
			{
				"type": "occ",
				"energy": -0.20146,
				"method": "rhf"
			},
			{
				"type": "unocc",
				"energy": -0.03043,
				"method": "rhf"
			},
			{
				"type": "unocc",
				"energy": 0.00034,
				"method": "rhf"
			},
			{
				"type": "unocc",
				"energy": 0.04264,
				"method": "rhf"
			},
			{
				"type": "unocc",
				"energy": 0.09575,
				"method": "rhf"
			},
			{
				"type": "unocc",
				"energy": 0.09898,
				"method": "rhf"
			}
		],
		"cosmo_sigma_profile": { 
			"-0.025": 0.0,
			"-0.024": 0.0,
			"-0.023": 0.0,
			"-0.022": 0.0,
			"-0.021": 0.0,
			"-0.02": 0.0,
			"-0.019": 0.0,
			"-0.018": 0.0,
			"-0.017": 0.0,
			"-0.016": 0.0,
			"-0.015": 0.0,
			"-0.014": 0.0,
			"-0.013": 0.0,
			"-0.012": 0.0,
			"-0.011": 0.0,
			"-0.01": 0.0,
			"-0.009": 0.0,
			"-0.008": 0.0,
			"-0.007": 0.0,
			"-0.006": 0.388151895865,
			"-0.005": 9.97988091675,
			"-0.004": 24.0141245003,
			"-0.003": 29.498102042,
			"-0.002": 26.3897715225,
			"-0.001": 22.8510440884,
			"0.0": 28.1726948113,
			"0.001": 18.7103800612,
			"0.002": 11.8236722581,
			"0.003": 9.54241192461,
			"0.004": 11.5334068572,
			"0.005": 20.3272230174,
			"0.006": 14.2348349295,
			"0.007": 0.736045902967,
			"0.008": 0.0,
			"0.009": 0.0,
			"0.01": 0.0,
			"0.011": 0.0,
			"0.012": 0.0,
			"0.013": 0.0,
			"0.014": 0.0,
			"0.015": 0.0,
			"0.016": 0.0,
			"0.017": 0.0,
			"0.018": 0.0,
			"0.019": 0.0,
			"0.02": 0.0,
			"0.021": 0.0,
			"0.022": 0.0,
			"0.023": 0.0,
			"0.024": 0.0,
			"0.025": 0.0
		}
	}
}
