{
	 "smiles": "OC(=O)C1=C(C=CN=C1Cl)C(F)(F)F", 
	 "Tm": 432.15, 
	 "num_atms": 17, 
	 "gaussian": { 
		 "optdone": 1, 
		 "sigma_profile": "yes", 
		 "theory": "DFT", 
		 "functional": "B3LYP", 
		 "basiset": "6-31G**", 
		 "properties": { 
			 "R2extent": 3808.2363, 
			 "electric_dipole_moment_norm": 4.40501315662, 
			 "electric_quadrupole_moment_norm": 10.1311078822, 
			 "total_energy": -1233.45722659, 
			 "HOMO_LUMO_gap": 0.20066, 
			 "cosmo_polarized_energy": -14.42, 
			 "cosmo_cavitation_energy": 25.28, 
			 "cosmo_dispersion_energy": -18.13, 
			 "cosmo_repulsion_energy": 1.37, 
			 "cosmo_total_nonelectrostatic_energy": 8.51, 
			 "SMD_solvation_energy": 4.85 
		},
		"coords": [
			{
				"x": -1.7728126282,
				"y": 3.6929093646,
				"z": -0.9986021009,
				"element": "O" 
			},
			{
				"x": -0.807293635,
				"y": 2.7698106146,
				"z": -1.1793407171,
				"element": "C" 
			},
			{
				"x": 0.2942331825,
				"y": 3.0787930157,
				"z": -1.5513332835,
				"element": "O" 
			},
			{
				"x": -1.1756640757,
				"y": 1.3292702198,
				"z": -0.8770648345,
				"element": "C" 
			},
			{
				"x": -0.4792211813,
				"y": 0.590747552,
				"z": 0.0953335575,
				"element": "C" 
			},
			{
				"x": -0.7833459729,
				"y": -0.7558505134,
				"z": 0.2838646804,
				"element": "C" 
			},
			{
				"x": -1.7679904803,
				"y": -1.3344580916,
				"z": -0.5128018714,
				"element": "C" 
			},
			{
				"x": -2.4436557405,
				"y": -0.6539591911,
				"z": -1.4435845527,
				"element": "N" 
			},
			{
				"x": -2.1518107704,
				"y": 0.6235716652,
				"z": -1.6038303987,
				"element": "C" 
			},
			{
				"x": -3.0796951348,
				"y": 1.4604304156,
				"z": -2.8457414249,
				"element": "Cl" 
			},
			{
				"x": 0.5996170053,
				"y": 1.2266790295,
				"z": 0.9566878438,
				"element": "C" 
			},
			{
				"x": 0.2284399978,
				"y": 2.4523552729,
				"z": 1.3777941703,
				"element": "F" 
			},
			{
				"x": 0.8314434848,
				"y": 0.4778300573,
				"z": 2.0571930157,
				"element": "F" 
			},
			{
				"x": 1.7591579532,
				"y": 1.3404422696,
				"z": 0.2953452993,
				"element": "F" 
			},
			{
				"x": -2.6092780992,
				"y": 3.2763857124,
				"z": -0.7442883306,
				"element": "H" 
			},
			{
				"x": -0.268800731,
				"y": -1.3357517585,
				"z": 1.0394541794,
				"element": "H" 
			},
			{
				"x": -2.0318231742,
				"y": -2.3828056344,
				"z": -0.3995852319,
				"element": "H" 
			}
		],
		 "valence_orbital": [ 
			{
				"type": "occ",
				"energy": -0.33526,
				"method": "rhf"
			},
			{
				"type": "occ",
				"energy": -0.3292,
				"method": "rhf"
			},
			{
				"type": "occ",
				"energy": -0.31317,
				"method": "rhf"
			},
			{
				"type": "occ",
				"energy": -0.29659,
				"method": "rhf"
			},
			{
				"type": "occ",
				"energy": -0.28387,
				"method": "rhf"
			},
			{
				"type": "unocc",
				"energy": -0.08321,
				"method": "rhf"
			},
			{
				"type": "unocc",
				"energy": -0.06285,
				"method": "rhf"
			},
			{
				"type": "unocc",
				"energy": -0.00775,
				"method": "rhf"
			},
			{
				"type": "unocc",
				"energy": 0.00964,
				"method": "rhf"
			},
			{
				"type": "unocc",
				"energy": 0.06035,
				"method": "rhf"
			}
		],
		"cosmo_sigma_profile": { 
			"-0.025": 0.0,
			"-0.024": 0.0,
			"-0.023": 0.0,
			"-0.022": 0.0,
			"-0.021": 0.0,
			"-0.02": 0.273783534629,
			"-0.019": 0.730919760592,
			"-0.018": 0.829063430169,
			"-0.017": 1.21094856391,
			"-0.016": 1.08768380766,
			"-0.015": 0.307504767779,
			"-0.014": 1.15495704795,
			"-0.013": 1.0062147962,
			"-0.012": 0.972319631643,
			"-0.011": 0.490449086662,
			"-0.01": 1.08556817727,
			"-0.009": 5.09620809704,
			"-0.008": 5.40706236564,
			"-0.007": 4.66169942286,
			"-0.006": 5.6177355719,
			"-0.005": 8.27602361375,
			"-0.004": 10.5159704542,
			"-0.003": 10.9633000552,
			"-0.002": 15.4505223515,
			"-0.001": 12.9610997249,
			"0.0": 11.9625491902,
			"0.001": 20.7392278587,
			"0.002": 28.3593171262,
			"0.003": 12.2137499951,
			"0.004": 7.6110525839,
			"0.005": 5.35072428555,
			"0.006": 3.95083874913,
			"0.007": 5.09212948195,
			"0.008": 6.05235022589,
			"0.009": 5.9840247747,
			"0.01": 5.78260262534,
			"0.011": 3.71659443896,
			"0.012": 0.973573988665,
			"0.013": 0.303837195255,
			"0.014": 0.0,
			"0.015": 0.0,
			"0.016": 0.0,
			"0.017": 0.0,
			"0.018": 0.0,
			"0.019": 0.0,
			"0.02": 0.0,
			"0.021": 0.0,
			"0.022": 0.0,
			"0.023": 0.0,
			"0.024": 0.0,
			"0.025": 0.0
		}
	}
}
