{
	 "smiles": "CCOCCOC(C)=O", 
	 "Tm": 211.65, 
	 "num_atms": 21, 
	 "gaussian": { 
		 "optdone": 1, 
		 "sigma_profile": "yes", 
		 "theory": "DFT", 
		 "functional": "B3LYP", 
		 "basiset": "6-31G**", 
		 "properties": { 
			 "R2extent": 2069.5918, 
			 "electric_dipole_moment_norm": 1.46634116426, 
			 "electric_quadrupole_moment_norm": 7.56756166939, 
			 "total_energy": -461.542897664, 
			 "HOMO_LUMO_gap": 0.25836, 
			 "cosmo_polarized_energy": -8.43, 
			 "cosmo_cavitation_energy": 24.27, 
			 "cosmo_dispersion_energy": -17.12, 
			 "cosmo_repulsion_energy": 1.46, 
			 "cosmo_total_nonelectrostatic_energy": 8.6, 
			 "SMD_solvation_energy": 5.7 
		},
		"coords": [
			{
				"x": -2.3392226118,
				"y": -3.3710292434,
				"z": 1.3944616689,
				"element": "C" 
			},
			{
				"x": -1.8235092613,
				"y": -1.9522222885,
				"z": 1.6241251624,
				"element": "C" 
			},
			{
				"x": -0.5575472176,
				"y": -1.9314512393,
				"z": 2.2826839131,
				"element": "O" 
			},
			{
				"x": 0.5750115012,
				"y": -2.1220437519,
				"z": 1.4528677555,
				"element": "C" 
			},
			{
				"x": 1.186891776,
				"y": -0.8112137819,
				"z": 0.9716010476,
				"element": "C" 
			},
			{
				"x": 0.3666128731,
				"y": -0.1428499548,
				"z": -0.0153185822,
				"element": "O" 
			},
			{
				"x": 0.5915025844,
				"y": -0.4731906957,
				"z": -1.3114466917,
				"element": "C" 
			},
			{
				"x": -0.319219798,
				"y": 0.3097127149,
				"z": -2.2271843714,
				"element": "C" 
			},
			{
				"x": 1.4118456597,
				"y": -1.2907424387,
				"z": -1.6682636339,
				"element": "O" 
			},
			{
				"x": -1.6845425892,
				"y": -3.9361072706,
				"z": 0.7227443827,
				"element": "H" 
			},
			{
				"x": -3.337710355,
				"y": -3.3468385738,
				"z": 0.9438274539,
				"element": "H" 
			},
			{
				"x": -2.4004199536,
				"y": -3.9116785934,
				"z": 2.3435385,
				"element": "H" 
			},
			{
				"x": -1.7786198445,
				"y": -1.3926208698,
				"z": 0.6809446184,
				"element": "H" 
			},
			{
				"x": -2.5044740257,
				"y": -1.4106925033,
				"z": 2.2895814588,
				"element": "H" 
			},
			{
				"x": 0.356093194,
				"y": -2.7661193503,
				"z": 0.5909555035,
				"element": "H" 
			},
			{
				"x": 1.3305396967,
				"y": -2.6358197426,
				"z": 2.0608850148,
				"element": "H" 
			},
			{
				"x": 1.2567856006,
				"y": -0.1076748827,
				"z": 1.8040016075,
				"element": "H" 
			},
			{
				"x": 2.1772304491,
				"y": -0.9952052273,
				"z": 0.546441131,
				"element": "H" 
			},
			{
				"x": -0.0590442028,
				"y": 0.0984684057,
				"z": -3.2638658321,
				"element": "H" 
			},
			{
				"x": -1.3611890346,
				"y": 0.0276380146,
				"z": -2.0452298784,
				"element": "H" 
			},
			{
				"x": -0.2325144409,
				"y": 1.3806812727,
				"z": -2.0248502285,
				"element": "H" 
			}
		],
		 "valence_orbital": [ 
			{
				"type": "occ",
				"energy": -0.34335,
				"method": "rhf"
			},
			{
				"type": "occ",
				"energy": -0.31164,
				"method": "rhf"
			},
			{
				"type": "occ",
				"energy": -0.30145,
				"method": "rhf"
			},
			{
				"type": "occ",
				"energy": -0.27319,
				"method": "rhf"
			},
			{
				"type": "occ",
				"energy": -0.24814,
				"method": "rhf"
			},
			{
				"type": "unocc",
				"energy": 0.01022,
				"method": "rhf"
			},
			{
				"type": "unocc",
				"energy": 0.083,
				"method": "rhf"
			},
			{
				"type": "unocc",
				"energy": 0.10235,
				"method": "rhf"
			},
			{
				"type": "unocc",
				"energy": 0.1203,
				"method": "rhf"
			},
			{
				"type": "unocc",
				"energy": 0.12763,
				"method": "rhf"
			}
		],
		"cosmo_sigma_profile": { 
			"-0.025": 0.0,
			"-0.024": 0.0,
			"-0.023": 0.0,
			"-0.022": 0.0,
			"-0.021": 0.0,
			"-0.02": 0.0,
			"-0.019": 0.0,
			"-0.018": 0.0,
			"-0.017": 0.0,
			"-0.016": 0.0,
			"-0.015": 0.0,
			"-0.014": 0.0,
			"-0.013": 0.0,
			"-0.012": 0.0,
			"-0.011": 0.0,
			"-0.01": 0.0,
			"-0.009": 0.0,
			"-0.008": 0.0,
			"-0.007": 0.726736569697,
			"-0.006": 7.85729455326,
			"-0.005": 16.4086976804,
			"-0.004": 21.7190213332,
			"-0.003": 24.7612456248,
			"-0.002": 26.2137276598,
			"-0.001": 18.7578313847,
			"0.0": 12.2351038722,
			"0.001": 10.2244962474,
			"0.002": 7.17360025109,
			"0.003": 4.5505817081,
			"0.004": 4.22857282199,
			"0.005": 5.13541643955,
			"0.006": 3.77174437638,
			"0.007": 3.2551331268,
			"0.008": 3.99489372474,
			"0.009": 2.87673973689,
			"0.01": 2.57981172559,
			"0.011": 4.23778144001,
			"0.012": 5.71012024205,
			"0.013": 2.43581490203,
			"0.014": 0.64991073135,
			"0.015": 0.0,
			"0.016": 0.0,
			"0.017": 0.0,
			"0.018": 0.0,
			"0.019": 0.0,
			"0.02": 0.0,
			"0.021": 0.0,
			"0.022": 0.0,
			"0.023": 0.0,
			"0.024": 0.0,
			"0.025": 0.0
		}
	}
}
