{
	 "smiles": "CCC1=CC(C)=CC=C1C", 
	 "Tm": 219.25, 
	 "num_atms": 24, 
	 "gaussian": { 
		 "optdone": 1, 
		 "sigma_profile": "yes", 
		 "theory": "DFT", 
		 "functional": "B3LYP", 
		 "basiset": "6-31G**", 
		 "properties": { 
			 "R2extent": 2117.4826, 
			 "electric_dipole_moment_norm": 0.471555267174, 
			 "electric_quadrupole_moment_norm": 4.24641656812, 
			 "total_energy": -389.525416504, 
			 "HOMO_LUMO_gap": 0.23138, 
			 "cosmo_polarized_energy": -3.2, 
			 "cosmo_cavitation_energy": 25.72, 
			 "cosmo_dispersion_energy": -18.79, 
			 "cosmo_repulsion_energy": 1.53, 
			 "cosmo_total_nonelectrostatic_energy": 8.46, 
			 "SMD_solvation_energy": 4.37 
		},
		"coords": [
			{
				"x": 3.4600973217,
				"y": 0.1908262282,
				"z": 1.69969471,
				"element": "C" 
			},
			{
				"x": 2.3401240989,
				"y": 0.9859327675,
				"z": 1.0238156035,
				"element": "C" 
			},
			{
				"x": 0.9467332579,
				"y": 0.3802598453,
				"z": 1.0722799204,
				"element": "C" 
			},
			{
				"x": 0.6962438055,
				"y": -0.8409255644,
				"z": 1.7031851163,
				"element": "C" 
			},
			{
				"x": -0.58400844,
				"y": -1.412591056,
				"z": 1.7574260927,
				"element": "C" 
			},
			{
				"x": -0.8012795599,
				"y": -2.7455690471,
				"z": 2.4356404117,
				"element": "C" 
			},
			{
				"x": -1.6360742159,
				"y": -0.7206171491,
				"z": 1.1567591437,
				"element": "C" 
			},
			{
				"x": -1.4057022182,
				"y": 0.501073468,
				"z": 0.5214730212,
				"element": "C" 
			},
			{
				"x": -0.1309863003,
				"y": 1.0687603841,
				"z": 0.4656633241,
				"element": "C" 
			},
			{
				"x": 0.0771309055,
				"y": 2.3938370413,
				"z": -0.2294654696,
				"element": "C" 
			},
			{
				"x": 3.5842422336,
				"y": -0.7989334039,
				"z": 1.2480954981,
				"element": "H" 
			},
			{
				"x": 3.2693650326,
				"y": 0.0501955949,
				"z": 2.7687195099,
				"element": "H" 
			},
			{
				"x": 4.4120973544,
				"y": 0.7213580688,
				"z": 1.6006346272,
				"element": "H" 
			},
			{
				"x": 2.6130581657,
				"y": 1.1557789917,
				"z": -0.0274944373,
				"element": "H" 
			},
			{
				"x": 2.3026661942,
				"y": 1.9905297962,
				"z": 1.4687493257,
				"element": "H" 
			},
			{
				"x": 1.5172357027,
				"y": -1.3747112858,
				"z": 2.1731624035,
				"element": "H" 
			},
			{
				"x": -0.3301289452,
				"y": -2.7750059304,
				"z": 3.4243784635,
				"element": "H" 
			},
			{
				"x": -0.3699808044,
				"y": -3.5675138796,
				"z": 1.8507163913,
				"element": "H" 
			},
			{
				"x": -1.8663398796,
				"y": -2.9583277445,
				"z": 2.5652990957,
				"element": "H" 
			},
			{
				"x": -2.6414408281,
				"y": -1.1338639113,
				"z": 1.1836517857,
				"element": "H" 
			},
			{
				"x": -2.2380446209,
				"y": 1.0272889584,
				"z": 0.0596500391,
				"element": "H" 
			},
			{
				"x": 0.4760531024,
				"y": 3.155943852,
				"z": 0.451590554,
				"element": "H" 
			},
			{
				"x": -0.8639670735,
				"y": 2.7735745448,
				"z": -0.6362054156,
				"element": "H" 
			},
			{
				"x": 0.7895057107,
				"y": 2.3134994311,
				"z": -1.0600197146,
				"element": "H" 
			}
		],
		 "valence_orbital": [ 
			{
				"type": "occ",
				"energy": -0.32657,
				"method": "rhf"
			},
			{
				"type": "occ",
				"energy": -0.32062,
				"method": "rhf"
			},
			{
				"type": "occ",
				"energy": -0.31729,
				"method": "rhf"
			},
			{
				"type": "occ",
				"energy": -0.23335,
				"method": "rhf"
			},
			{
				"type": "occ",
				"energy": -0.22036,
				"method": "rhf"
			},
			{
				"type": "unocc",
				"energy": 0.01102,
				"method": "rhf"
			},
			{
				"type": "unocc",
				"energy": 0.01272,
				"method": "rhf"
			},
			{
				"type": "unocc",
				"energy": 0.0953,
				"method": "rhf"
			},
			{
				"type": "unocc",
				"energy": 0.10777,
				"method": "rhf"
			},
			{
				"type": "unocc",
				"energy": 0.11529,
				"method": "rhf"
			}
		],
		"cosmo_sigma_profile": { 
			"-0.025": 0.0,
			"-0.024": 0.0,
			"-0.023": 0.0,
			"-0.022": 0.0,
			"-0.021": 0.0,
			"-0.02": 0.0,
			"-0.019": 0.0,
			"-0.018": 0.0,
			"-0.017": 0.0,
			"-0.016": 0.0,
			"-0.015": 0.0,
			"-0.014": 0.0,
			"-0.013": 0.0,
			"-0.012": 0.0,
			"-0.011": 0.0,
			"-0.01": 0.0,
			"-0.009": 0.0,
			"-0.008": 0.0,
			"-0.007": 0.0,
			"-0.006": 0.0,
			"-0.005": 1.49619169844,
			"-0.004": 13.7585581761,
			"-0.003": 28.4710084699,
			"-0.002": 28.1136123765,
			"-0.001": 27.7679381942,
			"0.0": 31.495080125,
			"0.001": 22.8671164722,
			"0.002": 11.4786448127,
			"0.003": 7.26521171945,
			"0.004": 6.47774995865,
			"0.005": 6.67541034974,
			"0.006": 6.69251319699,
			"0.007": 6.71152104665,
			"0.008": 1.99825895353,
			"0.009": 0.0,
			"0.01": 0.0,
			"0.011": 0.0,
			"0.012": 0.0,
			"0.013": 0.0,
			"0.014": 0.0,
			"0.015": 0.0,
			"0.016": 0.0,
			"0.017": 0.0,
			"0.018": 0.0,
			"0.019": 0.0,
			"0.02": 0.0,
			"0.021": 0.0,
			"0.022": 0.0,
			"0.023": 0.0,
			"0.024": 0.0,
			"0.025": 0.0
		}
	}
}
