{
	 "smiles": "COC1=CC=C(NS(=O)(=O)C2=CC(N)=C(N)C=C2)C=C1", 
	 "Tm": 437.15, 
	 "num_atms": 35, 
	 "gaussian": { 
		 "optdone": 1, 
		 "sigma_profile": "yes", 
		 "theory": "DFT", 
		 "functional": "B3LYP", 
		 "basiset": "6-31G**", 
		 "properties": { 
			 "R2extent": 6982.5367, 
			 "electric_dipole_moment_norm": 6.86142048996, 
			 "electric_quadrupole_moment_norm": 24.7493834392, 
			 "total_energy": -1292.4643771, 
			 "HOMO_LUMO_gap": 0.1832, 
			 "cosmo_polarized_energy": -25.25, 
			 "cosmo_cavitation_energy": 40.4, 
			 "cosmo_dispersion_energy": -28.36, 
			 "cosmo_repulsion_energy": 2.16, 
			 "cosmo_total_nonelectrostatic_energy": 14.2, 
			 "SMD_solvation_energy": 6.63 
		},
		"coords": [
			{
				"x": 4.054744297,
				"y": -4.3613166897,
				"z": 0.3633018164,
				"element": "C" 
			},
			{
				"x": 3.5656087747,
				"y": -3.4694370921,
				"z": 1.3517384705,
				"element": "O" 
			},
			{
				"x": 3.1811830452,
				"y": -2.2189242773,
				"z": 0.958588489,
				"element": "C" 
			},
			{
				"x": 2.7352837936,
				"y": -1.3689005384,
				"z": 1.9809905856,
				"element": "C" 
			},
			{
				"x": 2.3088441658,
				"y": -0.0813971216,
				"z": 1.6825680551,
				"element": "C" 
			},
			{
				"x": 2.347903713,
				"y": 0.3971079285,
				"z": 0.3637012674,
				"element": "C" 
			},
			{
				"x": 1.9711780988,
				"y": 1.7389983398,
				"z": 0.0652072246,
				"element": "N" 
			},
			{
				"x": 0.6193694611,
				"y": 2.0933517513,
				"z": -0.9168785388,
				"element": "S" 
			},
			{
				"x": 0.8102418113,
				"y": 1.3493356994,
				"z": -2.163155857,
				"element": "O" 
			},
			{
				"x": 0.5351420754,
				"y": 3.5548115781,
				"z": -0.8773042516,
				"element": "O" 
			},
			{
				"x": -0.8190350479,
				"y": 1.428933872,
				"z": -0.0953296237,
				"element": "C" 
			},
			{
				"x": -1.1570107836,
				"y": 0.0834296871,
				"z": -0.2847655962,
				"element": "C" 
			},
			{
				"x": -2.2505554606,
				"y": -0.4598264947,
				"z": 0.3840954341,
				"element": "C" 
			},
			{
				"x": -2.6720794894,
				"y": -1.7922864445,
				"z": 0.2080368474,
				"element": "N" 
			},
			{
				"x": -3.0247565307,
				"y": 0.3655066809,
				"z": 1.2405136802,
				"element": "C" 
			},
			{
				"x": -4.113273574,
				"y": -0.2154199372,
				"z": 1.8947227714,
				"element": "N" 
			},
			{
				"x": -2.6559356386,
				"y": 1.70254519,
				"z": 1.427040992,
				"element": "C" 
			},
			{
				"x": -1.5516823609,
				"y": 2.2416635831,
				"z": 0.7697846842,
				"element": "C" 
			},
			{
				"x": 2.8088880524,
				"y": -0.4467994864,
				"z": -0.6512331254,
				"element": "C" 
			},
			{
				"x": 3.2079285862,
				"y": -1.7531038158,
				"z": -0.3618560224,
				"element": "C" 
			},
			{
				"x": 4.3087085646,
				"y": -5.2837259702,
				"z": 0.8879592161,
				"element": "H" 
			},
			{
				"x": 3.2958474467,
				"y": -4.5787109459,
				"z": -0.3998299436,
				"element": "H" 
			},
			{
				"x": 4.9532171088,
				"y": -3.9678570207,
				"z": -0.1294268163,
				"element": "H" 
			},
			{
				"x": 2.7211117892,
				"y": -1.7429975536,
				"z": 2.9993392393,
				"element": "H" 
			},
			{
				"x": 1.9457409983,
				"y": 0.562881103,
				"z": 2.4792810311,
				"element": "H" 
			},
			{
				"x": 1.9667254225,
				"y": 2.3655949127,
				"z": 0.8644247794,
				"element": "H" 
			},
			{
				"x": -0.5715524613,
				"y": -0.5293222461,
				"z": -0.9624278023,
				"element": "H" 
			},
			{
				"x": -2.0321993488,
				"y": -2.3387788033,
				"z": -0.3556629022,
				"element": "H" 
			},
			{
				"x": -2.8427171923,
				"y": -2.2631368016,
				"z": 1.0922859293,
				"element": "H" 
			},
			{
				"x": -4.612067163,
				"y": -0.8827436842,
				"z": 1.3149764009,
				"element": "H" 
			},
			{
				"x": -4.7448716199,
				"y": 0.4486906095,
				"z": 2.3233214774,
				"element": "H" 
			},
			{
				"x": -3.2574676863,
				"y": 2.3315777095,
				"z": 2.0784498255,
				"element": "H" 
			},
			{
				"x": -1.2842342372,
				"y": 3.2850265719,
				"z": 0.8917600712,
				"element": "H" 
			},
			{
				"x": 2.8476347939,
				"y": -0.0749681478,
				"z": -1.6681278796,
				"element": "H" 
			},
			{
				"x": 3.5569365961,
				"y": -2.3855021458,
				"z": -1.169489929,
				"element": "H" 
			}
		],
		 "valence_orbital": [ 
			{
				"type": "occ",
				"energy": -0.28409,
				"method": "rhf"
			},
			{
				"type": "occ",
				"energy": -0.25609,
				"method": "rhf"
			},
			{
				"type": "occ",
				"energy": -0.24073,
				"method": "rhf"
			},
			{
				"type": "occ",
				"energy": -0.21411,
				"method": "rhf"
			},
			{
				"type": "occ",
				"energy": -0.20368,
				"method": "rhf"
			},
			{
				"type": "unocc",
				"energy": -0.02048,
				"method": "rhf"
			},
			{
				"type": "unocc",
				"energy": -0.00727,
				"method": "rhf"
			},
			{
				"type": "unocc",
				"energy": -0.00132,
				"method": "rhf"
			},
			{
				"type": "unocc",
				"energy": 0.00774,
				"method": "rhf"
			},
			{
				"type": "unocc",
				"energy": 0.06237,
				"method": "rhf"
			}
		],
		"cosmo_sigma_profile": { 
			"-0.025": 0.0,
			"-0.024": 0.0,
			"-0.023": 0.0,
			"-0.022": 0.0,
			"-0.021": 0.0,
			"-0.02": 0.0,
			"-0.019": 0.0,
			"-0.018": 0.0,
			"-0.017": 0.0,
			"-0.016": 0.0,
			"-0.015": 0.585964139196,
			"-0.014": 1.01772403417,
			"-0.013": 2.32996005428,
			"-0.012": 4.67649107913,
			"-0.011": 6.68758118087,
			"-0.01": 7.32643475605,
			"-0.009": 7.05215581265,
			"-0.008": 6.74142223311,
			"-0.007": 8.28273863757,
			"-0.006": 16.010189323,
			"-0.005": 22.8265418649,
			"-0.004": 21.3582996575,
			"-0.003": 19.4359561526,
			"-0.002": 14.8825603237,
			"-0.001": 12.4872485693,
			"0.0": 14.0888533754,
			"0.001": 13.672268037,
			"0.002": 15.5913274367,
			"0.003": 22.9472787445,
			"0.004": 30.7705101446,
			"0.005": 17.5310862888,
			"0.006": 7.86998443798,
			"0.007": 6.22506936421,
			"0.008": 7.56396820946,
			"0.009": 6.93751205785,
			"0.01": 8.5657072492,
			"0.011": 9.73261122301,
			"0.012": 6.28185094694,
			"0.013": 0.844436348879,
			"0.014": 0.453799275475,
			"0.015": 0.0,
			"0.016": 0.0,
			"0.017": 0.0,
			"0.018": 0.0,
			"0.019": 0.0,
			"0.02": 0.0,
			"0.021": 0.0,
			"0.022": 0.0,
			"0.023": 0.0,
			"0.024": 0.0,
			"0.025": 0.0
		}
	}
}
