{
	 "smiles": "COC(=O)C(=CN(C)C)C(C)=O", 
	 "Tm": 321.15, 
	 "num_atms": 25, 
	 "gaussian": { 
		 "optdone": 1, 
		 "sigma_profile": "yes", 
		 "theory": "DFT", 
		 "functional": "B3LYP", 
		 "basiset": "6-31G**", 
		 "properties": { 
			 "R2extent": 3072.9648, 
			 "electric_dipole_moment_norm": 5.64686029755, 
			 "electric_quadrupole_moment_norm": 20.2125846747, 
			 "total_energy": -593.092351414, 
			 "HOMO_LUMO_gap": 0.18405, 
			 "cosmo_polarized_energy": -18.67, 
			 "cosmo_cavitation_energy": 28.52, 
			 "cosmo_dispersion_energy": -19.92, 
			 "cosmo_repulsion_energy": 1.62, 
			 "cosmo_total_nonelectrostatic_energy": 10.21, 
			 "SMD_solvation_energy": 7.27 
		},
		"coords": [
			{
				"x": -1.286137077,
				"y": -2.0449319384,
				"z": 2.3836918396,
				"element": "C" 
			},
			{
				"x": -0.3947816226,
				"y": -1.0012357894,
				"z": 1.9673226141,
				"element": "O" 
			},
			{
				"x": -0.9882803667,
				"y": 0.1460809776,
				"z": 1.5802583841,
				"element": "C" 
			},
			{
				"x": -2.1959676938,
				"y": 0.2544269297,
				"z": 1.451412549,
				"element": "O" 
			},
			{
				"x": -0.0038600407,
				"y": 1.2405891363,
				"z": 1.336548732,
				"element": "C" 
			},
			{
				"x": -0.0274594505,
				"y": 2.0287358369,
				"z": 0.2124328942,
				"element": "C" 
			},
			{
				"x": -0.655237076,
				"y": 1.8573781242,
				"z": -0.9753240615,
				"element": "N" 
			},
			{
				"x": -0.769834055,
				"y": 2.9766733043,
				"z": -1.9001912088,
				"element": "C" 
			},
			{
				"x": -1.3727100001,
				"y": 0.6424066805,
				"z": -1.3386947677,
				"element": "C" 
			},
			{
				"x": 0.8844895957,
				"y": 1.5872068536,
				"z": 2.4678172596,
				"element": "C" 
			},
			{
				"x": 1.9386425338,
				"y": 2.6811885612,
				"z": 2.2886589508,
				"element": "C" 
			},
			{
				"x": 0.781408573,
				"y": 1.0299682701,
				"z": 3.5545972822,
				"element": "O" 
			},
			{
				"x": -1.898957242,
				"y": -1.7120573897,
				"z": 3.2252343386,
				"element": "H" 
			},
			{
				"x": -1.9460678027,
				"y": -2.3459343407,
				"z": 1.5653446239,
				"element": "H" 
			},
			{
				"x": -0.646346091,
				"y": -2.8747434239,
				"z": 2.6843653089,
				"element": "H" 
			},
			{
				"x": 0.5811519802,
				"y": 2.9285901695,
				"z": 0.2247957524,
				"element": "H" 
			},
			{
				"x": -0.5191480207,
				"y": 2.6563838021,
				"z": -2.9175383276,
				"element": "H" 
			},
			{
				"x": -0.0833548747,
				"y": 3.7738267898,
				"z": -1.6067095265,
				"element": "H" 
			},
			{
				"x": -1.7876698119,
				"y": 3.388897099,
				"z": -1.9104355246,
				"element": "H" 
			},
			{
				"x": -1.4326130098,
				"y": 0.5907196302,
				"z": -2.4290774048,
				"element": "H" 
			},
			{
				"x": -2.3785290045,
				"y": 0.6066151618,
				"z": -0.9085507208,
				"element": "H" 
			},
			{
				"x": -0.817872374,
				"y": -0.2286581115,
				"z": -0.9809214092,
				"element": "H" 
			},
			{
				"x": 2.5241777456,
				"y": 2.7280835421,
				"z": 3.2072810654,
				"element": "H" 
			},
			{
				"x": 1.4763445413,
				"y": 3.6616885212,
				"z": 2.1236849827,
				"element": "H" 
			},
			{
				"x": 2.6034106441,
				"y": 2.4777016033,
				"z": 1.442896374,
				"element": "H" 
			}
		],
		 "valence_orbital": [ 
			{
				"type": "occ",
				"energy": -0.32109,
				"method": "rhf"
			},
			{
				"type": "occ",
				"energy": -0.28638,
				"method": "rhf"
			},
			{
				"type": "occ",
				"energy": -0.26325,
				"method": "rhf"
			},
			{
				"type": "occ",
				"energy": -0.22555,
				"method": "rhf"
			},
			{
				"type": "occ",
				"energy": -0.21234,
				"method": "rhf"
			},
			{
				"type": "unocc",
				"energy": -0.02829,
				"method": "rhf"
			},
			{
				"type": "unocc",
				"energy": 0.01198,
				"method": "rhf"
			},
			{
				"type": "unocc",
				"energy": 0.06883,
				"method": "rhf"
			},
			{
				"type": "unocc",
				"energy": 0.08755,
				"method": "rhf"
			},
			{
				"type": "unocc",
				"energy": 0.10162,
				"method": "rhf"
			}
		],
		"cosmo_sigma_profile": { 
			"-0.025": 0.0,
			"-0.024": 0.0,
			"-0.023": 0.0,
			"-0.022": 0.0,
			"-0.021": 0.0,
			"-0.02": 0.0,
			"-0.019": 0.0,
			"-0.018": 0.0,
			"-0.017": 0.0,
			"-0.016": 0.0,
			"-0.015": 0.0,
			"-0.014": 0.0,
			"-0.013": 0.0,
			"-0.012": 0.0,
			"-0.011": 0.0,
			"-0.01": 0.251595137411,
			"-0.009": 2.10317567869,
			"-0.008": 3.10301404935,
			"-0.007": 5.40454988612,
			"-0.006": 14.212906927,
			"-0.005": 21.9190039034,
			"-0.004": 25.3585767054,
			"-0.003": 32.0051521833,
			"-0.002": 21.7496760575,
			"-0.001": 13.4658749188,
			"0.0": 11.2209698332,
			"0.001": 7.88383252914,
			"0.002": 6.3092032396,
			"0.003": 6.78190836808,
			"0.004": 4.66255533663,
			"0.005": 4.28711221191,
			"0.006": 4.84817839614,
			"0.007": 3.74449833522,
			"0.008": 4.29298105312,
			"0.009": 3.75566645562,
			"0.01": 4.06229867464,
			"0.011": 4.52382242697,
			"0.012": 6.08374141986,
			"0.013": 7.09335498649,
			"0.014": 4.41441611625,
			"0.015": 0.804503717094,
			"0.016": 0.0,
			"0.017": 0.0,
			"0.018": 0.0,
			"0.019": 0.0,
			"0.02": 0.0,
			"0.021": 0.0,
			"0.022": 0.0,
			"0.023": 0.0,
			"0.024": 0.0,
			"0.025": 0.0
		}
	}
}
