{
	 "smiles": "OC(=O)C1CCCN(C1)S(=O)(=O)C1=CC=C(Cl)C=C1", 
	 "Tm": 476.15, 
	 "num_atms": 33, 
	 "gaussian": { 
		 "optdone": 1, 
		 "sigma_profile": "yes", 
		 "theory": "DFT", 
		 "functional": "B3LYP", 
		 "basiset": "6-31G**", 
		 "properties": { 
			 "R2extent": 7726.0437, 
			 "electric_dipole_moment_norm": 3.83863977471, 
			 "electric_quadrupole_moment_norm": 24.5081216549, 
			 "total_energy": -1679.67480366, 
			 "HOMO_LUMO_gap": 0.20155, 
			 "cosmo_polarized_energy": -22.17, 
			 "cosmo_cavitation_energy": 38.89, 
			 "cosmo_dispersion_energy": -27.61, 
			 "cosmo_repulsion_energy": 2.09, 
			 "cosmo_total_nonelectrostatic_energy": 13.37, 
			 "SMD_solvation_energy": 5.47 
		},
		"coords": [
			{
				"x": 1.9231547157,
				"y": 0.9670974616,
				"z": -4.5179078431,
				"element": "O" 
			},
			{
				"x": 0.7073021435,
				"y": 1.4071056282,
				"z": -4.0946856263,
				"element": "C" 
			},
			{
				"x": -0.0791186156,
				"y": 1.8520494756,
				"z": -4.8927444721,
				"element": "O" 
			},
			{
				"x": 0.4449401836,
				"y": 1.2571332263,
				"z": -2.5934576048,
				"element": "C" 
			},
			{
				"x": -0.9101959975,
				"y": 1.8744705201,
				"z": -2.1782462983,
				"element": "C" 
			},
			{
				"x": -2.0042571186,
				"y": 0.8027879424,
				"z": -2.1278191916,
				"element": "C" 
			},
			{
				"x": -1.6894762153,
				"y": -0.2721567488,
				"z": -1.0687208224,
				"element": "C" 
			},
			{
				"x": -0.2202613081,
				"y": -0.4332307183,
				"z": -0.9517332463,
				"element": "N" 
			},
			{
				"x": 0.512247363,
				"y": -0.2504284615,
				"z": -2.2116877917,
				"element": "C" 
			},
			{
				"x": 0.2983341678,
				"y": -1.6904727403,
				"z": 0.0597361948,
				"element": "S" 
			},
			{
				"x": -0.5720887104,
				"y": -2.8659414445,
				"z": -0.0729516326,
				"element": "O" 
			},
			{
				"x": 1.7478304638,
				"y": -1.8016705079,
				"z": -0.1422775746,
				"element": "O" 
			},
			{
				"x": 0.0009888932,
				"y": -0.9928803629,
				"z": 1.6859968661,
				"element": "C" 
			},
			{
				"x": -1.0528456122,
				"y": -1.4799856971,
				"z": 2.4588549093,
				"element": "C" 
			},
			{
				"x": -1.2698371366,
				"y": -0.9535503152,
				"z": 3.732756257,
				"element": "C" 
			},
			{
				"x": -0.4221306609,
				"y": 0.0469024661,
				"z": 4.2079883564,
				"element": "C" 
			},
			{
				"x": -0.6911147354,
				"y": 0.7119529982,
				"z": 5.8063843215,
				"element": "Cl" 
			},
			{
				"x": 0.6422799912,
				"y": 0.5284981273,
				"z": 3.4400104591,
				"element": "C" 
			},
			{
				"x": 0.8549562191,
				"y": 0.0018565881,
				"z": 2.1695290242,
				"element": "C" 
			},
			{
				"x": 2.45997824,
				"y": 0.6699136089,
				"z": -3.7694659805,
				"element": "H" 
			},
			{
				"x": 1.2543463834,
				"y": 1.7767857769,
				"z": -2.0635493935,
				"element": "H" 
			},
			{
				"x": -1.1801171188,
				"y": 2.6564372738,
				"z": -2.8912250914,
				"element": "H" 
			},
			{
				"x": -0.8058942841,
				"y": 2.3385064674,
				"z": -1.1919992456,
				"element": "H" 
			},
			{
				"x": -2.0999498586,
				"y": 0.3439287729,
				"z": -3.1177641497,
				"element": "H" 
			},
			{
				"x": -2.9764007354,
				"y": 1.250127887,
				"z": -1.899082258,
				"element": "H" 
			},
			{
				"x": -2.1694657188,
				"y": -1.2251158733,
				"z": -1.3250167332,
				"element": "H" 
			},
			{
				"x": -2.0643731391,
				"y": 0.0408785741,
				"z": -0.0880306174,
				"element": "H" 
			},
			{
				"x": 1.5390041143,
				"y": -0.5838716425,
				"z": -2.0553835316,
				"element": "H" 
			},
			{
				"x": 0.0818247074,
				"y": -0.8707406478,
				"z": -3.0114716312,
				"element": "H" 
			},
			{
				"x": -1.6842526665,
				"y": -2.2702562423,
				"z": 2.0682834574,
				"element": "H" 
			},
			{
				"x": -2.0823396326,
				"y": -1.3179843287,
				"z": 4.3509857708,
				"element": "H" 
			},
			{
				"x": 1.2934553049,
				"y": 1.2988040298,
				"z": 3.8372680278,
				"element": "H" 
			},
			{
				"x": 1.6833763733,
				"y": 0.3499489063,
				"z": 1.5624270917,
				"element": "H" 
			}
		],
		 "valence_orbital": [ 
			{
				"type": "occ",
				"energy": -0.31053,
				"method": "rhf"
			},
			{
				"type": "occ",
				"energy": -0.29003,
				"method": "rhf"
			},
			{
				"type": "occ",
				"energy": -0.28202,
				"method": "rhf"
			},
			{
				"type": "occ",
				"energy": -0.27659,
				"method": "rhf"
			},
			{
				"type": "occ",
				"energy": -0.2575,
				"method": "rhf"
			},
			{
				"type": "unocc",
				"energy": -0.05595,
				"method": "rhf"
			},
			{
				"type": "unocc",
				"energy": -0.0392,
				"method": "rhf"
			},
			{
				"type": "unocc",
				"energy": -0.00169,
				"method": "rhf"
			},
			{
				"type": "unocc",
				"energy": 0.0107,
				"method": "rhf"
			},
			{
				"type": "unocc",
				"energy": 0.03749,
				"method": "rhf"
			}
		],
		"cosmo_sigma_profile": { 
			"-0.025": 0.0,
			"-0.024": 0.0,
			"-0.023": 0.0,
			"-0.022": 0.0,
			"-0.021": 0.0,
			"-0.02": 0.0,
			"-0.019": 0.592589550145,
			"-0.018": 1.42127524035,
			"-0.017": 0.843368596521,
			"-0.016": 1.63226914024,
			"-0.015": 0.962428609382,
			"-0.014": 0.897040169637,
			"-0.013": 1.2146448943,
			"-0.012": 0.856859599955,
			"-0.011": 1.28617407075,
			"-0.01": 0.923096128751,
			"-0.009": 1.66108267021,
			"-0.008": 8.18328831655,
			"-0.007": 10.6087846724,
			"-0.006": 13.5615934127,
			"-0.005": 15.0119570294,
			"-0.004": 22.9781661416,
			"-0.003": 26.960254592,
			"-0.002": 23.0200956799,
			"-0.001": 22.9709637032,
			"0.0": 24.5633767119,
			"0.001": 25.6910614689,
			"0.002": 15.3524132671,
			"0.003": 14.1522172954,
			"0.004": 14.7856995536,
			"0.005": 4.81379818942,
			"0.006": 4.93300320112,
			"0.007": 5.42415775498,
			"0.008": 6.50375330307,
			"0.009": 6.88737561107,
			"0.01": 11.656923956,
			"0.011": 12.3529937435,
			"0.012": 6.35213416478,
			"0.013": 1.11017975819,
			"0.014": 0.0,
			"0.015": 0.0,
			"0.016": 0.0,
			"0.017": 0.0,
			"0.018": 0.0,
			"0.019": 0.0,
			"0.02": 0.0,
			"0.021": 0.0,
			"0.022": 0.0,
			"0.023": 0.0,
			"0.024": 0.0,
			"0.0": 0.0
		}
	}
}
