{
	 "smiles": "CCOC1=C(CO)C2=C(C=CC=C2)C=C1", 
	 "Tm": 323.15, 
	 "num_atms": 29, 
	 "gaussian": { 
		 "optdone": 1, 
		 "sigma_profile": "yes", 
		 "theory": "DFT", 
		 "functional": "B3LYP", 
		 "basiset": "6-31G**", 
		 "properties": { 
			 "R2extent": 3930.7529, 
			 "electric_dipole_moment_norm": 2.29992716841, 
			 "electric_quadrupole_moment_norm": 9.85931138315, 
			 "total_energy": -654.260940543, 
			 "HOMO_LUMO_gap": 0.1639, 
			 "cosmo_polarized_energy": -11.5, 
			 "cosmo_cavitation_energy": 31.54, 
			 "cosmo_dispersion_energy": -23.15, 
			 "cosmo_repulsion_energy": 1.82, 
			 "cosmo_total_nonelectrostatic_energy": 10.22, 
			 "SMD_solvation_energy": 5.49 
		},
		"coords": [
			{
				"x": -2.9994493289,
				"y": 3.3296588985,
				"z": 1.1461491267,
				"element": "C" 
			},
			{
				"x": -1.5606675683,
				"y": 2.8427908934,
				"z": 1.1200663502,
				"element": "C" 
			},
			{
				"x": -1.4629180175,
				"y": 1.8583122799,
				"z": 0.0932824899,
				"element": "O" 
			},
			{
				"x": -0.2682315257,
				"y": 1.2289635557,
				"z": -0.1344194549,
				"element": "C" 
			},
			{
				"x": -0.2445594406,
				"y": 0.2617602391,
				"z": -1.1358584556,
				"element": "C" 
			},
			{
				"x": -1.4884377036,
				"y": -0.0385459864,
				"z": -1.9348073434,
				"element": "C" 
			},
			{
				"x": -1.9288790206,
				"y": -1.3721190692,
				"z": -1.6480072074,
				"element": "O" 
			},
			{
				"x": 0.9759388545,
				"y": -0.4281201025,
				"z": -1.4094113214,
				"element": "C" 
			},
			{
				"x": 2.164851742,
				"y": -0.094156384,
				"z": -0.6799076422,
				"element": "C" 
			},
			{
				"x": 3.3823738608,
				"y": -0.7657634792,
				"z": -0.9731894783,
				"element": "C" 
			},
			{
				"x": 3.4373385981,
				"y": -1.7355023477,
				"z": -1.9466506377,
				"element": "C" 
			},
			{
				"x": 2.2633235594,
				"y": -2.0800249864,
				"z": -2.6602416843,
				"element": "C" 
			},
			{
				"x": 1.0673573944,
				"y": -1.4501882072,
				"z": -2.3989340728,
				"element": "C" 
			},
			{
				"x": 2.0880988858,
				"y": 0.9041600795,
				"z": 0.3216884231,
				"element": "C" 
			},
			{
				"x": 0.9061075341,
				"y": 1.5503114712,
				"z": 0.5960974977,
				"element": "C" 
			},
			{
				"x": -3.6819247334,
				"y": 2.5016596831,
				"z": 1.3569011952,
				"element": "H" 
			},
			{
				"x": -3.1250655842,
				"y": 4.0904433381,
				"z": 1.9226967133,
				"element": "H" 
			},
			{
				"x": -3.2757500549,
				"y": 3.7681389886,
				"z": 0.1830651825,
				"element": "H" 
			},
			{
				"x": -1.280679962,
				"y": 2.4066263201,
				"z": 2.0891195081,
				"element": "H" 
			},
			{
				"x": -0.872761963,
				"y": 3.6749785376,
				"z": 0.9135310023,
				"element": "H" 
			},
			{
				"x": -2.2638107064,
				"y": 0.6926398723,
				"z": -1.6874055865,
				"element": "H" 
			},
			{
				"x": -1.2584284608,
				"y": 0.066149875,
				"z": -3.0077722239,
				"element": "H" 
			},
			{
				"x": -2.7363667748,
				"y": -1.5222317506,
				"z": -2.1567910031,
				"element": "H" 
			},
			{
				"x": 4.2726461151,
				"y": -0.4963904161,
				"z": -0.4099206586,
				"element": "H" 
			},
			{
				"x": 4.3724309999,
				"y": -2.2432256698,
				"z": -2.1645252093,
				"element": "H" 
			},
			{
				"x": 2.3064193778,
				"y": -2.8586861654,
				"z": -3.4168827339,
				"element": "H" 
			},
			{
				"x": 0.1681945832,
				"y": -1.7579587133,
				"z": -2.9190316071,
				"element": "H" 
			},
			{
				"x": 2.9849426766,
				"y": 1.1596109774,
				"z": 0.8804423609,
				"element": "H" 
			},
			{
				"x": 0.878606663,
				"y": 2.3074082684,
				"z": 1.3699164704,
				"element": "H" 
			}
		],
		 "valence_orbital": [ 
			{
				"type": "occ",
				"energy": -0.29595,
				"method": "rhf"
			},
			{
				"type": "occ",
				"energy": -0.2705,
				"method": "rhf"
			},
			{
				"type": "occ",
				"energy": -0.25417,
				"method": "rhf"
			},
			{
				"type": "occ",
				"energy": -0.22588,
				"method": "rhf"
			},
			{
				"type": "occ",
				"energy": -0.1966,
				"method": "rhf"
			},
			{
				"type": "unocc",
				"energy": -0.0327,
				"method": "rhf"
			},
			{
				"type": "unocc",
				"energy": 0.0062,
				"method": "rhf"
			},
			{
				"type": "unocc",
				"energy": 0.03642,
				"method": "rhf"
			},
			{
				"type": "unocc",
				"energy": 0.08647,
				"method": "rhf"
			},
			{
				"type": "unocc",
				"energy": 0.09595,
				"method": "rhf"
			}
		],
		"cosmo_sigma_profile": { 
			"-0.025": 0.0,
			"-0.024": 0.0,
			"-0.023": 0.0,
			"-0.022": 0.0,
			"-0.021": 0.0,
			"-0.02": 0.0,
			"-0.019": 0.0,
			"-0.018": 0.0,
			"-0.017": 0.0,
			"-0.016": 0.239493924622,
			"-0.015": 0.977920374161,
			"-0.014": 1.08635880846,
			"-0.013": 0.784776842987,
			"-0.012": 0.969023175584,
			"-0.011": 0.765246157815,
			"-0.01": 1.01575546286,
			"-0.009": 0.96602272992,
			"-0.008": 0.549693119547,
			"-0.007": 1.28245688955,
			"-0.006": 8.91264300086,
			"-0.005": 17.9807571033,
			"-0.004": 24.3037935126,
			"-0.003": 28.2536263798,
			"-0.002": 21.3807659359,
			"-0.001": 18.9826907208,
			"0.0": 16.524378789,
			"0.001": 12.40150125,
			"0.002": 12.4003878342,
			"0.003": 12.2588066548,
			"0.004": 21.5240944014,
			"0.005": 18.2180409073,
			"0.006": 11.6009390125,
			"0.007": 3.5327730924,
			"0.008": 2.5955800118,
			"0.009": 2.03824553946,
			"0.01": 1.25251746053,
			"0.011": 1.49728110133,
			"0.012": 1.60495574831,
			"0.013": 1.83597797545,
			"0.014": 1.43459083592,
			"0.015": 0.48231260889,
			"0.016": 0.0,
			"0.017": 0.0,
			"0.018": 0.0,
			"0.019": 0.0,
			"0.02": 0.0,
			"0.021": 0.0,
			"0.022": 0.0,
			"0.023": 0.0,
			"0.024": 0.0,
			"0.025": 0.0
		}
	}
}
