{
	 "smiles": "FC(F)OC(Cl)C(F)(F)F", 
	 "Tm": 321.65, 
	 "num_atms": 12, 
	 "gaussian": { 
		 "optdone": 1, 
		 "sigma_profile": "yes", 
		 "theory": "DFT", 
		 "functional": "B3LYP", 
		 "basiset": "6-31G**", 
		 "properties": { 
			 "R2extent": 1985.7295, 
			 "electric_dipole_moment_norm": 1.56879833312, 
			 "electric_quadrupole_moment_norm": 5.00332898978, 
			 "total_energy": -1150.1292991, 
			 "HOMO_LUMO_gap": 0.31603, 
			 "cosmo_polarized_energy": -5.27, 
			 "cosmo_cavitation_energy": 20.73, 
			 "cosmo_dispersion_energy": -14.4, 
			 "cosmo_repulsion_energy": 1.1, 
			 "cosmo_total_nonelectrostatic_energy": 7.43, 
			 "SMD_solvation_energy": 5.71 
		},
		"coords": [
			{
				"x": 2.7610578526,
				"y": -2.5452228799,
				"z": -1.101574622,
				"element": "F" 
			},
			{
				"x": 1.447737184,
				"y": -2.3360664688,
				"z": -0.9649072929,
				"element": "C" 
			},
			{
				"x": 1.0228339297,
				"y": -2.943528059,
				"z": 0.1753447566,
				"element": "F" 
			},
			{
				"x": 1.2875446806,
				"y": -0.9609820473,
				"z": -0.855325577,
				"element": "O" 
			},
			{
				"x": -0.0025249572,
				"y": -0.5177868678,
				"z": -0.6120262435,
				"element": "C" 
			},
			{
				"x": -1.0408484863,
				"y": -0.585171096,
				"z": -2.1071394517,
				"element": "Cl" 
			},
			{
				"x": 0.1080249948,
				"y": 0.9300288248,
				"z": -0.1115330309,
				"element": "C" 
			},
			{
				"x": -1.1132511388,
				"y": 1.4211275873,
				"z": 0.1477602223,
				"element": "F" 
			},
			{
				"x": 0.8172396441,
				"y": 0.9399965962,
				"z": 1.0297268091,
				"element": "F" 
			},
			{
				"x": 0.7152641087,
				"y": 1.7211535025,
				"z": -1.0000902072,
				"element": "F" 
			},
			{
				"x": 0.8993262884,
				"y": -2.7577977521,
				"z": -1.813651125,
				"element": "H" 
			},
			{
				"x": -0.5156041005,
				"y": -1.1176513399,
				"z": 0.1414157621,
				"element": "H" 
			}
		],
		 "valence_orbital": [ 
			{
				"type": "occ",
				"energy": -0.41063,
				"method": "rhf"
			},
			{
				"type": "occ",
				"energy": -0.38733,
				"method": "rhf"
			},
			{
				"type": "occ",
				"energy": -0.35255,
				"method": "rhf"
			},
			{
				"type": "occ",
				"energy": -0.33581,
				"method": "rhf"
			},
			{
				"type": "occ",
				"energy": -0.33008,
				"method": "rhf"
			},
			{
				"type": "unocc",
				"energy": -0.01405,
				"method": "rhf"
			},
			{
				"type": "unocc",
				"energy": 0.0789,
				"method": "rhf"
			},
			{
				"type": "unocc",
				"energy": 0.09159,
				"method": "rhf"
			},
			{
				"type": "unocc",
				"energy": 0.11172,
				"method": "rhf"
			},
			{
				"type": "unocc",
				"energy": 0.12604,
				"method": "rhf"
			}
		],
		"cosmo_sigma_profile": { 
			"-0.025": 0.0,
			"-0.024": 0.0,
			"-0.023": 0.0,
			"-0.022": 0.0,
			"-0.021": 0.0,
			"-0.02": 0.0,
			"-0.019": 0.0,
			"-0.018": 0.0,
			"-0.017": 0.0,
			"-0.016": 0.0,
			"-0.015": 0.0,
			"-0.014": 0.0,
			"-0.013": 0.278207674045,
			"-0.012": 1.48422675534,
			"-0.011": 3.22005974324,
			"-0.01": 3.11834471595,
			"-0.009": 3.80781062631,
			"-0.008": 3.42335407895,
			"-0.007": 2.36801496329,
			"-0.006": 2.97691441105,
			"-0.005": 3.60565646558,
			"-0.004": 2.3243330462,
			"-0.003": 5.04853916144,
			"-0.002": 5.90294181574,
			"-0.001": 7.44435405375,
			"0.0": 12.5934657589,
			"0.001": 28.2262267928,
			"0.002": 43.9749091981,
			"0.003": 28.1523799091,
			"0.004": 8.29450757358,
			"0.005": 1.6136963703,
			"0.006": 0.288216774288,
			"0.007": 0.0,
			"0.008": 0.0,
			"0.009": 0.0,
			"0.01": 0.0,
			"0.011": 0.0,
			"0.012": 0.0,
			"0.013": 0.0,
			"0.014": 0.0,
			"0.015": 0.0,
			"0.016": 0.0,
			"0.017": 0.0,
			"0.018": 0.0,
			"0.019": 0.0,
			"0.02": 0.0,
			"0.021": 0.0,
			"0.022": 0.0,
			"0.023": 0.0,
			"0.024": 0.0,
			"0.025": 0.0
		}
	}
}
