{
	 "smiles": "CC1=NC(=CC(=O)N1)C1=CC=C(N)C=C1", 
	 "Tm": 533.15, 
	 "num_atms": 26, 
	 "gaussian": { 
		 "optdone": 1, 
		 "sigma_profile": "yes", 
		 "theory": "DFT", 
		 "functional": "B3LYP", 
		 "basiset": "6-31G**", 
		 "properties": { 
			 "R2extent": 4121.4119, 
			 "electric_dipole_moment_norm": 4.53646122435, 
			 "electric_quadrupole_moment_norm": 22.9532156889, 
			 "total_energy": -665.311439324, 
			 "HOMO_LUMO_gap": 0.15173, 
			 "cosmo_polarized_energy": -20.13, 
			 "cosmo_cavitation_energy": 30.34, 
			 "cosmo_dispersion_energy": -22.51, 
			 "cosmo_repulsion_energy": 1.76, 
			 "cosmo_total_nonelectrostatic_energy": 9.58, 
			 "SMD_solvation_energy": 4.98 
		},
		"coords": [
			{
				"x": 1.6985068837,
				"y": 1.5458331829,
				"z": -3.3556240542,
				"element": "C" 
			},
			{
				"x": 1.3445155034,
				"y": 1.4659339967,
				"z": -1.896102425,
				"element": "C" 
			},
			{
				"x": 0.7538805104,
				"y": 0.4085237089,
				"z": -1.4222625146,
				"element": "N" 
			},
			{
				"x": 0.4483248644,
				"y": 0.3795096038,
				"z": -0.0674454325,
				"element": "C" 
			},
			{
				"x": 0.769903159,
				"y": 1.4231624273,
				"z": 0.7691023405,
				"element": "C" 
			},
			{
				"x": 1.4170565759,
				"y": 2.6124122457,
				"z": 0.2740575825,
				"element": "C" 
			},
			{
				"x": 1.7497009933,
				"y": 3.6109129047,
				"z": 0.9022228219,
				"element": "O" 
			},
			{
				"x": 1.6683061042,
				"y": 2.539169651,
				"z": -1.1194918383,
				"element": "N" 
			},
			{
				"x": -0.2306433069,
				"y": -0.8497119696,
				"z": 0.392460807,
				"element": "C" 
			},
			{
				"x": -0.7737354082,
				"y": -0.9750483841,
				"z": 1.6846930009,
				"element": "C" 
			},
			{
				"x": -1.4023613681,
				"y": -2.1401207436,
				"z": 2.0978842866,
				"element": "C" 
			},
			{
				"x": -1.5171951273,
				"y": -3.242019119,
				"z": 1.2284788076,
				"element": "C" 
			},
			{
				"x": -2.0981987086,
				"y": -4.4281656582,
				"z": 1.6568303016,
				"element": "N" 
			},
			{
				"x": -0.9833127126,
				"y": -3.1234515987,
				"z": -0.0674896265,
				"element": "C" 
			},
			{
				"x": -0.3588202417,
				"y": -1.9522145162,
				"z": -0.4720787768,
				"element": "C" 
			},
			{
				"x": 1.2012623762,
				"y": 2.3975132811,
				"z": -3.8335198557,
				"element": "H" 
			},
			{
				"x": 1.3825668747,
				"y": 0.6268800046,
				"z": -3.8480469146,
				"element": "H" 
			},
			{
				"x": 2.7786821298,
				"y": 1.6723130458,
				"z": -3.4905453748,
				"element": "H" 
			},
			{
				"x": 0.5657136219,
				"y": 1.40409481,
				"z": 1.8312882711,
				"element": "H" 
			},
			{
				"x": 2.1264875896,
				"y": 3.3508353424,
				"z": -1.5167780375,
				"element": "H" 
			},
			{
				"x": -0.7237373478,
				"y": -0.1446643015,
				"z": 2.3813228179,
				"element": "H" 
			},
			{
				"x": -1.813841582,
				"y": -2.2054364991,
				"z": 3.1021029194,
				"element": "H" 
			},
			{
				"x": -2.7302982159,
				"y": -4.3571197047,
				"z": 2.4412515947,
				"element": "H" 
			},
			{
				"x": -2.4388876993,
				"y": -5.0435890245,
				"z": 0.93217155,
				"element": "H" 
			},
			{
				"x": -1.0599607273,
				"y": -3.9617125572,
				"z": -0.7559366409,
				"element": "H" 
			},
			{
				"x": 0.0434852593,
				"y": -1.8692401285,
				"z": -1.4746456103,
				"element": "H" 
			}
		],
		 "valence_orbital": [ 
			{
				"type": "occ",
				"energy": -0.26967,
				"method": "rhf"
			},
			{
				"type": "occ",
				"energy": -0.25039,
				"method": "rhf"
			},
			{
				"type": "occ",
				"energy": -0.24483,
				"method": "rhf"
			},
			{
				"type": "occ",
				"energy": -0.23234,
				"method": "rhf"
			},
			{
				"type": "occ",
				"energy": -0.19857,
				"method": "rhf"
			},
			{
				"type": "unocc",
				"energy": -0.04684,
				"method": "rhf"
			},
			{
				"type": "unocc",
				"energy": -0.00369,
				"method": "rhf"
			},
			{
				"type": "unocc",
				"energy": 0.00877,
				"method": "rhf"
			},
			{
				"type": "unocc",
				"energy": 0.04357,
				"method": "rhf"
			},
			{
				"type": "unocc",
				"energy": 0.07621,
				"method": "rhf"
			}
		],
		"cosmo_sigma_profile": { 
			"-0.025": 0.0,
			"-0.024": 0.0,
			"-0.023": 0.0,
			"-0.022": 0.0,
			"-0.021": 0.0,
			"-0.02": 0.0,
			"-0.019": 0.0,
			"-0.018": 0.0,
			"-0.017": 0.0,
			"-0.016": 0.599576863249,
			"-0.015": 0.99152074608,
			"-0.014": 1.09370807494,
			"-0.013": 2.1661395727,
			"-0.012": 4.25751206366,
			"-0.011": 4.68852503327,
			"-0.01": 4.17709824205,
			"-0.009": 3.87330617725,
			"-0.008": 5.55190900794,
			"-0.007": 8.39846781933,
			"-0.006": 12.1791502637,
			"-0.005": 12.1877160741,
			"-0.004": 13.8564863459,
			"-0.003": 13.217872485,
			"-0.002": 16.6729357558,
			"-0.001": 16.6886085703,
			"0.0": 9.80513806261,
			"0.001": 10.9793135535,
			"0.002": 13.0587577862,
			"0.003": 15.8389983413,
			"0.004": 13.1846555082,
			"0.005": 16.5058989696,
			"0.006": 11.0129852048,
			"0.007": 3.79776576923,
			"0.008": 3.43462143111,
			"0.009": 3.836400963,
			"0.01": 2.823469414,
			"0.011": 1.97038762509,
			"0.012": 2.52528928087,
			"0.013": 3.46475193973,
			"0.014": 6.48207274702,
			"0.015": 2.23148470878,
			"0.016": 0.192358598849,
			"0.017": 0.0,
			"0.018": 0.0,
			"0.019": 0.0,
			"0.02": 0.0,
			"0.021": 0.0,
			"0.022": 0.0,
			"0.023": 0.0,
			"0.024": 0.0,
			"0.025": 0.0
		}
	}
}
