{
	 "smiles": "COC1=C(NS(=O)(=O)C2=C(Cl)C=CC(=C2)C(O)=O)C=CC=C1", 
	 "Tm": 450.15, 
	 "num_atms": 34, 
	 "gaussian": { 
		 "optdone": 1, 
		 "sigma_profile": "yes", 
		 "theory": "DFT", 
		 "functional": "B3LYP", 
		 "basiset": "6-31G**", 
		 "properties": { 
			 "R2extent": 8609.041, 
			 "electric_dipole_moment_norm": 5.04126261169, 
			 "electric_quadrupole_moment_norm": 30.3170019421, 
			 "total_energy": -1829.88831247, 
			 "HOMO_LUMO_gap": 0.14505, 
			 "cosmo_polarized_energy": -24.56, 
			 "cosmo_cavitation_energy": 40.74, 
			 "cosmo_dispersion_energy": -28.82, 
			 "cosmo_repulsion_energy": 2.11, 
			 "cosmo_total_nonelectrostatic_energy": 14.03, 
			 "SMD_solvation_energy": 7.49 
		},
		"coords": [
			{
				"x": 0.2037354381,
				"y": -0.3402327606,
				"z": -3.0266796506,
				"element": "C" 
			},
			{
				"x": 0.4431685963,
				"y": -0.1541398775,
				"z": -1.6313637635,
				"element": "O" 
			},
			{
				"x": 0.2574799042,
				"y": -1.2191001778,
				"z": -0.7903902053,
				"element": "C" 
			},
			{
				"x": 0.444894395,
				"y": -0.9322054122,
				"z": 0.5799158731,
				"element": "C" 
			},
			{
				"x": 0.8319102088,
				"y": 0.3946947464,
				"z": 0.92299744,
				"element": "N" 
			},
			{
				"x": 0.1274474899,
				"y": 1.3284284497,
				"z": 2.1202142771,
				"element": "S" 
			},
			{
				"x": 0.8597031413,
				"y": 2.5924524888,
				"z": 2.0938554965,
				"element": "O" 
			},
			{
				"x": 0.0292879927,
				"y": 0.5076431059,
				"z": 3.3227220336,
				"element": "O" 
			},
			{
				"x": -1.5751937079,
				"y": 1.6819196292,
				"z": 1.567742982,
				"element": "C" 
			},
			{
				"x": -2.5311689998,
				"y": 2.2301159412,
				"z": 2.4423647384,
				"element": "C" 
			},
			{
				"x": -2.1708920891,
				"y": 2.6152573494,
				"z": 4.1016615315,
				"element": "Cl" 
			},
			{
				"x": -3.8229535038,
				"y": 2.5002418144,
				"z": 1.9842830188,
				"element": "C" 
			},
			{
				"x": -4.1617164629,
				"y": 2.2554717198,
				"z": 0.6575629346,
				"element": "C" 
			},
			{
				"x": -3.209404309,
				"y": 1.7454806605,
				"z": -0.2323225113,
				"element": "C" 
			},
			{
				"x": -1.9241865563,
				"y": 1.4512280538,
				"z": 0.2390843402,
				"element": "C" 
			},
			{
				"x": -3.5010198522,
				"y": 1.4563845344,
				"z": -1.6741299784,
				"element": "C" 
			},
			{
				"x": -4.5661529553,
				"y": 2.0919441516,
				"z": -2.2246750213,
				"element": "O" 
			},
			{
				"x": -2.8403288275,
				"y": 0.6975132229,
				"z": -2.3452978186,
				"element": "O" 
			},
			{
				"x": 0.3019275049,
				"y": -1.9462467007,
				"z": 1.5268954526,
				"element": "C" 
			},
			{
				"x": -0.0597657499,
				"y": -3.23270793,
				"z": 1.1203104776,
				"element": "C" 
			},
			{
				"x": -0.2492708169,
				"y": -3.5122697471,
				"z": -0.2307759607,
				"element": "C" 
			},
			{
				"x": -0.0864110401,
				"y": -2.5097872477,
				"z": -1.1916737194,
				"element": "C" 
			},
			{
				"x": -0.8393127208,
				"y": -0.6129643962,
				"z": -3.2082713075,
				"element": "H" 
			},
			{
				"x": 0.879638271,
				"y": -1.0965352159,
				"z": -3.4422937066,
				"element": "H" 
			},
			{
				"x": 0.4092893604,
				"y": 0.6237169448,
				"z": -3.4930610677,
				"element": "H" 
			},
			{
				"x": 1.1509314236,
				"y": 0.9576563639,
				"z": 0.1407240678,
				"element": "H" 
			},
			{
				"x": -4.5548738694,
				"y": 2.8998432511,
				"z": 2.6769219292,
				"element": "H" 
			},
			{
				"x": -5.1856690205,
				"y": 2.4394378071,
				"z": 0.3426731506,
				"element": "H" 
			},
			{
				"x": -1.2054949942,
				"y": 1.0459391256,
				"z": -0.4636303116,
				"element": "H" 
			},
			{
				"x": -4.8906486591,
				"y": 2.7876685417,
				"z": -1.6364483019,
				"element": "H" 
			},
			{
				"x": 0.4657415792,
				"y": -1.7140539949,
				"z": 2.5717285775,
				"element": "H" 
			},
			{
				"x": -0.1784913664,
				"y": -4.0142779008,
				"z": 1.8638456375,
				"element": "H" 
			},
			{
				"x": -0.5224094505,
				"y": -4.5133838941,
				"z": -0.5502302334,
				"element": "H" 
			},
			{
				"x": -0.2396903541,
				"y": -2.7347326464,
				"z": -2.2401604009,
				"element": "H" 
			}
		],
		 "valence_orbital": [ 
			{
				"type": "occ",
				"energy": -0.29497,
				"method": "rhf"
			},
			{
				"type": "occ",
				"energy": -0.28852,
				"method": "rhf"
			},
			{
				"type": "occ",
				"energy": -0.27411,
				"method": "rhf"
			},
			{
				"type": "occ",
				"energy": -0.24606,
				"method": "rhf"
			},
			{
				"type": "occ",
				"energy": -0.22226,
				"method": "rhf"
			},
			{
				"type": "unocc",
				"energy": -0.07721,
				"method": "rhf"
			},
			{
				"type": "unocc",
				"energy": -0.05373,
				"method": "rhf"
			},
			{
				"type": "unocc",
				"energy": -0.01375,
				"method": "rhf"
			},
			{
				"type": "unocc",
				"energy": 0.00341,
				"method": "rhf"
			},
			{
				"type": "unocc",
				"energy": 0.00544,
				"method": "rhf"
			}
		],
		"cosmo_sigma_profile": { 
			"-0.025": 0.0,
			"-0.024": 0.0,
			"-0.023": 0.0,
			"-0.022": 0.0,
			"-0.021": 0.0,
			"-0.02": 0.114262903169,
			"-0.019": 0.669478921375,
			"-0.018": 1.42253629465,
			"-0.017": 0.984203316128,
			"-0.016": 1.45068454398,
			"-0.015": 0.525899295535,
			"-0.014": 0.829274810234,
			"-0.013": 2.78109429443,
			"-0.012": 2.58629292946,
			"-0.011": 2.29951985021,
			"-0.01": 2.55441013839,
			"-0.009": 4.62194100755,
			"-0.008": 5.44312904436,
			"-0.007": 6.99470537683,
			"-0.006": 15.6722055054,
			"-0.005": 16.9402698452,
			"-0.004": 22.3388351733,
			"-0.003": 21.9425380067,
			"-0.002": 18.9509736164,
			"-0.001": 27.5823776956,
			"0.0": 21.8375338953,
			"0.001": 18.1998785417,
			"0.002": 21.5599495789,
			"0.003": 21.1636801265,
			"0.004": 21.2530633286,
			"0.005": 15.4448736255,
			"0.006": 8.41415723617,
			"0.007": 6.73014617979,
			"0.008": 7.21127659245,
			"0.009": 9.22340096941,
			"0.01": 14.1961384506,
			"0.011": 6.02332967409,
			"0.012": 1.17008117049,
			"0.013": 0.216016405482,
			"0.014": 0.0,
			"0.015": 0.0,
			"0.016": 0.0,
			"0.017": 0.0,
			"0.018": 0.0,
			"0.019": 0.0,
			"0.02": 0.0,
			"0.021": 0.0,
			"0.022": 0.0,
			"0.023": 0.0,
			"0.024": 0.0,
			"0.0": 0.0
		}
	}
}
