{
	 "smiles": "CN1C=CC2=C1CCCC2=O", 
	 "Tm": 358.15, 
	 "num_atms": 22, 
	 "gaussian": { 
		 "optdone": 1, 
		 "sigma_profile": "yes", 
		 "theory": "DFT", 
		 "functional": "B3LYP", 
		 "basiset": "6-31G**", 
		 "properties": { 
			 "R2extent": 1865.1964, 
			 "electric_dipole_moment_norm": 5.95261948809, 
			 "electric_quadrupole_moment_norm": 12.1176062323, 
			 "total_energy": -479.566227919, 
			 "HOMO_LUMO_gap": 0.19775, 
			 "cosmo_polarized_energy": -13.39, 
			 "cosmo_cavitation_energy": 24.38, 
			 "cosmo_dispersion_energy": -18.06, 
			 "cosmo_repulsion_energy": 1.44, 
			 "cosmo_total_nonelectrostatic_energy": 7.77, 
			 "SMD_solvation_energy": 4.54 
		},
		"coords": [
			{
				"x": -2.8211129229,
				"y": 1.6926298616,
				"z": -0.4398057852,
				"element": "C" 
			},
			{
				"x": -2.1024134628,
				"y": 0.4315809099,
				"z": -0.376848603,
				"element": "N" 
			},
			{
				"x": -2.6560039047,
				"y": -0.7873194448,
				"z": 0.0049096226,
				"element": "C" 
			},
			{
				"x": -1.6768580617,
				"y": -1.7451347101,
				"z": -0.0199393283,
				"element": "C" 
			},
			{
				"x": -0.473656278,
				"y": -1.0926892405,
				"z": -0.4324464866,
				"element": "C" 
			},
			{
				"x": -0.772072076,
				"y": 0.251587626,
				"z": -0.6381171292,
				"element": "C" 
			},
			{
				"x": 0.2006221358,
				"y": 1.3012043635,
				"z": -1.0751071139,
				"element": "C" 
			},
			{
				"x": 1.6294523217,
				"y": 0.8186823328,
				"z": -0.7507743558,
				"element": "C" 
			},
			{
				"x": 1.8776606301,
				"y": -0.6269272732,
				"z": -1.214854918,
				"element": "C" 
			},
			{
				"x": 0.8622705995,
				"y": -1.6374618163,
				"z": -0.6625590404,
				"element": "C" 
			},
			{
				"x": 1.163133193,
				"y": -2.8096916729,
				"z": -0.4748865769,
				"element": "O" 
			},
			{
				"x": -2.6954539175,
				"y": 2.1649883482,
				"z": -1.4187344926,
				"element": "H" 
			},
			{
				"x": -3.8838824105,
				"y": 1.50155187,
				"z": -0.2837157877,
				"element": "H" 
			},
			{
				"x": -2.4764470807,
				"y": 2.3886558314,
				"z": 0.3328611906,
				"element": "H" 
			},
			{
				"x": -3.7047550777,
				"y": -0.848891838,
				"z": 0.2574423772,
				"element": "H" 
			},
			{
				"x": -1.7845722367,
				"y": -2.7934307899,
				"z": 0.2156645199,
				"element": "H" 
			},
			{
				"x": 0.1076558011,
				"y": 1.4860955193,
				"z": -2.1569643449,
				"element": "H" 
			},
			{
				"x": 0.0051684841,
				"y": 2.2619094762,
				"z": -0.5824154946,
				"element": "H" 
			},
			{
				"x": 1.7799479069,
				"y": 0.8763715555,
				"z": 0.3342303464,
				"element": "H" 
			},
			{
				"x": 2.3610948217,
				"y": 1.4926696059,
				"z": -1.2095107992,
				"element": "H" 
			},
			{
				"x": 1.8188705744,
				"y": -0.6792207567,
				"z": -2.3124890794,
				"element": "H" 
			},
			{
				"x": 2.8779509609,
				"y": -0.971559758,
				"z": -0.9376387213,
				"element": "H" 
			}
		],
		 "valence_orbital": [ 
			{
				"type": "occ",
				"energy": -0.33954,
				"method": "rhf"
			},
			{
				"type": "occ",
				"energy": -0.3265,
				"method": "rhf"
			},
			{
				"type": "occ",
				"energy": -0.23829,
				"method": "rhf"
			},
			{
				"type": "occ",
				"energy": -0.22159,
				"method": "rhf"
			},
			{
				"type": "occ",
				"energy": -0.21264,
				"method": "rhf"
			},
			{
				"type": "unocc",
				"energy": -0.01489,
				"method": "rhf"
			},
			{
				"type": "unocc",
				"energy": 0.03656,
				"method": "rhf"
			},
			{
				"type": "unocc",
				"energy": 0.07434,
				"method": "rhf"
			},
			{
				"type": "unocc",
				"energy": 0.09568,
				"method": "rhf"
			},
			{
				"type": "unocc",
				"energy": 0.10967,
				"method": "rhf"
			}
		],
		"cosmo_sigma_profile": { 
			"-0.025": 0.0,
			"-0.024": 0.0,
			"-0.023": 0.0,
			"-0.022": 0.0,
			"-0.021": 0.0,
			"-0.02": 0.0,
			"-0.019": 0.0,
			"-0.018": 0.0,
			"-0.017": 0.0,
			"-0.016": 0.0,
			"-0.015": 0.0,
			"-0.014": 0.0,
			"-0.013": 0.0,
			"-0.012": 0.0,
			"-0.011": 0.0,
			"-0.01": 0.0,
			"-0.009": 0.0069588071746,
			"-0.008": 2.17159564182,
			"-0.007": 4.12105842828,
			"-0.006": 8.02592212201,
			"-0.005": 15.5874296037,
			"-0.004": 22.260708933,
			"-0.003": 28.0026680091,
			"-0.002": 23.0080814407,
			"-0.001": 16.4950060391,
			"0.0": 10.3039263651,
			"0.001": 6.31571884784,
			"0.002": 5.19937883797,
			"0.003": 6.07327652677,
			"0.004": 5.82932764046,
			"0.005": 6.69472790613,
			"0.006": 6.87183278868,
			"0.007": 4.95958147819,
			"0.008": 2.6889041854,
			"0.009": 1.57882798897,
			"0.01": 1.50968116634,
			"0.011": 1.74756539773,
			"0.012": 2.40776220891,
			"0.013": 4.36714821922,
			"0.014": 4.40917933484,
			"0.015": 1.4731450861,
			"0.016": 0.0151889595246,
			"0.017": 0.0,
			"0.018": 0.0,
			"0.019": 0.0,
			"0.02": 0.0,
			"0.021": 0.0,
			"0.022": 0.0,
			"0.023": 0.0,
			"0.024": 0.0,
			"0.025": 0.0
		}
	}
}
