{
	 "smiles": "CC(C)C1=CC=C(C=C1)C(=O)CCl", 
	 "Tm": 318.15, 
	 "num_atms": 26, 
	 "gaussian": { 
		 "optdone": 1, 
		 "sigma_profile": "yes", 
		 "theory": "DFT", 
		 "functional": "B3LYP", 
		 "basiset": "6-31G**", 
		 "properties": { 
			 "R2extent": 5546.0829, 
			 "electric_dipole_moment_norm": 5.36503577434, 
			 "electric_quadrupole_moment_norm": 21.2194054551, 
			 "total_energy": -962.433934806, 
			 "HOMO_LUMO_gap": 0.19452, 
			 "cosmo_polarized_energy": -11.7, 
			 "cosmo_cavitation_energy": 30.96, 
			 "cosmo_dispersion_energy": -22.23, 
			 "cosmo_repulsion_energy": 1.78, 
			 "cosmo_total_nonelectrostatic_energy": 10.51, 
			 "SMD_solvation_energy": 5.55 
		},
		"coords": [
			{
				"x": 1.977790366,
				"y": -1.6177772059,
				"z": -1.0221851522,
				"element": "C" 
			},
			{
				"x": 1.0830610291,
				"y": -1.8430180548,
				"z": 0.2118057507,
				"element": "C" 
			},
			{
				"x": 0.1506446977,
				"y": -3.0526922027,
				"z": 0.0084800157,
				"element": "C" 
			},
			{
				"x": 0.3058896216,
				"y": -0.5881303036,
				"z": 0.5814462756,
				"element": "C" 
			},
			{
				"x": -0.6321465812,
				"y": -0.0243285042,
				"z": -0.2975459757,
				"element": "C" 
			},
			{
				"x": -1.3407751544,
				"y": 1.1237175656,
				"z": 0.0452142113,
				"element": "C" 
			},
			{
				"x": -1.131601207,
				"y": 1.7476073839,
				"z": 1.2862643739,
				"element": "C" 
			},
			{
				"x": -0.1950097287,
				"y": 1.1882101617,
				"z": 2.1688144796,
				"element": "C" 
			},
			{
				"x": 0.5086562082,
				"y": 0.0412666772,
				"z": 1.8188752124,
				"element": "C" 
			},
			{
				"x": -1.8529905893,
				"y": 2.9822393855,
				"z": 1.7271532971,
				"element": "C" 
			},
			{
				"x": -1.6435195383,
				"y": 3.4930237976,
				"z": 2.8102385222,
				"element": "O" 
			},
			{
				"x": -2.8712097833,
				"y": 3.5707596255,
				"z": 0.7403105223,
				"element": "C" 
			},
			{
				"x": -3.6806272644,
				"y": 5.0435781256,
				"z": 1.3557724454,
				"element": "Cl" 
			},
			{
				"x": 2.5725418033,
				"y": -2.5129813142,
				"z": -1.2324784923,
				"element": "H" 
			},
			{
				"x": 1.3797427226,
				"y": -1.3997434531,
				"z": -1.9137165695,
				"element": "H" 
			},
			{
				"x": 2.6649433711,
				"y": -0.7803339309,
				"z": -0.8674835672,
				"element": "H" 
			},
			{
				"x": 1.741653944,
				"y": -2.0728496948,
				"z": 1.0592821441,
				"element": "H" 
			},
			{
				"x": -0.4620028884,
				"y": -3.2361289155,
				"z": 0.8964187313,
				"element": "H" 
			},
			{
				"x": -0.526086561,
				"y": -2.8962377228,
				"z": -0.8386210337,
				"element": "H" 
			},
			{
				"x": 0.7346444861,
				"y": -3.9563041156,
				"z": -0.1959150299,
				"element": "H" 
			},
			{
				"x": -0.8130833036,
				"y": -0.486986175,
				"z": -1.2637021844,
				"element": "H" 
			},
			{
				"x": -2.0566887408,
				"y": 1.5257140472,
				"z": -0.6650287993,
				"element": "H" 
			},
			{
				"x": -0.037768995,
				"y": 1.6744754632,
				"z": 3.1258275491,
				"element": "H" 
			},
			{
				"x": 1.2303215493,
				"y": -0.377779916,
				"z": 2.5157215391,
				"element": "H" 
			},
			{
				"x": -3.647045138,
				"y": 2.8332196589,
				"z": 0.5195570023,
				"element": "H" 
			},
			{
				"x": -2.3746343255,
				"y": 3.8321796175,
				"z": -0.1976052679,
				"element": "H" 
			}
		],
		 "valence_orbital": [ 
			{
				"type": "occ",
				"energy": -0.29694,
				"method": "rhf"
			},
			{
				"type": "occ",
				"energy": -0.29619,
				"method": "rhf"
			},
			{
				"type": "occ",
				"energy": -0.26679,
				"method": "rhf"
			},
			{
				"type": "occ",
				"energy": -0.26085,
				"method": "rhf"
			},
			{
				"type": "occ",
				"energy": -0.25724,
				"method": "rhf"
			},
			{
				"type": "unocc",
				"energy": -0.06272,
				"method": "rhf"
			},
			{
				"type": "unocc",
				"energy": -0.01681,
				"method": "rhf"
			},
			{
				"type": "unocc",
				"energy": 0.02689,
				"method": "rhf"
			},
			{
				"type": "unocc",
				"energy": 0.03142,
				"method": "rhf"
			},
			{
				"type": "unocc",
				"energy": 0.07705,
				"method": "rhf"
			}
		],
		"cosmo_sigma_profile": { 
			"-0.025": 0.0,
			"-0.024": 0.0,
			"-0.023": 0.0,
			"-0.022": 0.0,
			"-0.021": 0.0,
			"-0.02": 0.0,
			"-0.019": 0.0,
			"-0.018": 0.0,
			"-0.017": 0.0,
			"-0.016": 0.0,
			"-0.015": 0.0,
			"-0.014": 0.0,
			"-0.013": 0.0,
			"-0.012": 0.0,
			"-0.011": 0.0,
			"-0.01": 0.336243725917,
			"-0.009": 7.01967448027,
			"-0.008": 6.46183798072,
			"-0.007": 5.27491746274,
			"-0.006": 7.02901472114,
			"-0.005": 12.1536213108,
			"-0.004": 14.0980031917,
			"-0.003": 20.6412430822,
			"-0.002": 20.5942907378,
			"-0.001": 24.5964951748,
			"0.0": 22.2184657628,
			"0.001": 25.1367358505,
			"0.002": 15.6173205354,
			"0.003": 13.6518888209,
			"0.004": 15.8960118281,
			"0.005": 8.50795867873,
			"0.006": 8.68914039471,
			"0.007": 3.0406231721,
			"0.008": 1.89333868152,
			"0.009": 2.53209377022,
			"0.01": 3.16981798024,
			"0.011": 3.65473743112,
			"0.012": 3.02390824457,
			"0.013": 1.37283872359,
			"0.014": 0.0231481132945,
			"0.015": 0.0,
			"0.016": 0.0,
			"0.017": 0.0,
			"0.018": 0.0,
			"0.019": 0.0,
			"0.02": 0.0,
			"0.021": 0.0,
			"0.022": 0.0,
			"0.023": 0.0,
			"0.024": 0.0,
			"0.025": 0.0
		}
	}
}
