{
	 "smiles": "CC1CN(CC(C)O1)C(=O)C1=C(N)C=CC=C1", 
	 "Tm": 393.15, 
	 "num_atms": 35, 
	 "gaussian": { 
		 "optdone": 1, 
		 "sigma_profile": "yes", 
		 "theory": "DFT", 
		 "functional": "B3LYP", 
		 "basiset": "6-31G**", 
		 "properties": { 
			 "R2extent": 4873.3485, 
			 "electric_dipole_moment_norm": 1.88726113455, 
			 "electric_quadrupole_moment_norm": 9.45880286241, 
			 "total_energy": -766.198193288, 
			 "HOMO_LUMO_gap": 0.17658, 
			 "cosmo_polarized_energy": -13.17, 
			 "cosmo_cavitation_energy": 35.6, 
			 "cosmo_dispersion_energy": -25.55, 
			 "cosmo_repulsion_energy": 1.98, 
			 "cosmo_total_nonelectrostatic_energy": 12.04, 
			 "SMD_solvation_energy": 5.63 
		},
		"coords": [
			{
				"x": 3.7649196491,
				"y": -0.2278438345,
				"z": 2.7370777647,
				"element": "C" 
			},
			{
				"x": 2.5696364239,
				"y": -0.5279970288,
				"z": 1.8440645592,
				"element": "C" 
			},
			{
				"x": 1.6523576196,
				"y": 0.6926967281,
				"z": 1.6914238678,
				"element": "C" 
			},
			{
				"x": 0.7591906602,
				"y": 0.5225157245,
				"z": 0.5322018304,
				"element": "N" 
			},
			{
				"x": 0.6802978407,
				"y": -0.8433767372,
				"z": 0.0176075349,
				"element": "C" 
			},
			{
				"x": 2.0839913523,
				"y": -1.3662523427,
				"z": -0.3581132158,
				"element": "C" 
			},
			{
				"x": 2.5560636396,
				"y": -0.933424293,
				"z": -1.7411944201,
				"element": "C" 
			},
			{
				"x": 3.0767710366,
				"y": -0.9103456962,
				"z": 0.568694967,
				"element": "O" 
			},
			{
				"x": -0.1860307936,
				"y": 1.506235197,
				"z": 0.358046487,
				"element": "C" 
			},
			{
				"x": -0.2441857657,
				"y": 2.4438440733,
				"z": 1.1662392819,
				"element": "O" 
			},
			{
				"x": -1.1190938543,
				"y": 1.4470191014,
				"z": -0.8134994911,
				"element": "C" 
			},
			{
				"x": -2.479078781,
				"y": 1.8195677607,
				"z": -0.6287648707,
				"element": "C" 
			},
			{
				"x": -2.9652824853,
				"y": 2.1557828854,
				"z": 0.6220937638,
				"element": "N" 
			},
			{
				"x": -3.3395969739,
				"y": 1.7829903726,
				"z": -1.7439383089,
				"element": "C" 
			},
			{
				"x": -2.8691341387,
				"y": 1.446801037,
				"z": -3.0069495366,
				"element": "C" 
			},
			{
				"x": -1.5196851925,
				"y": 1.1382823768,
				"z": -3.2033763126,
				"element": "C" 
			},
			{
				"x": -0.6647111459,
				"y": 1.1410484445,
				"z": -2.1048051206,
				"element": "C" 
			},
			{
				"x": 4.386028507,
				"y": -1.1200451996,
				"z": 2.8506693473,
				"element": "H" 
			},
			{
				"x": 3.4352321765,
				"y": 0.0972679957,
				"z": 3.7288513787,
				"element": "H" 
			},
			{
				"x": 4.3765944621,
				"y": 0.5641507919,
				"z": 2.2945717353,
				"element": "H" 
			},
			{
				"x": 2.0023568839,
				"y": -1.364343564,
				"z": 2.2854608075,
				"element": "H" 
			},
			{
				"x": 1.0634917552,
				"y": 0.8544737846,
				"z": 2.6034472731,
				"element": "H" 
			},
			{
				"x": 2.2538261631,
				"y": 1.5945015635,
				"z": 1.5364260355,
				"element": "H" 
			},
			{
				"x": 0.2386121719,
				"y": -1.4958394794,
				"z": 0.7847018147,
				"element": "H" 
			},
			{
				"x": 0.0184143253,
				"y": -0.8819068916,
				"z": -0.8452461183,
				"element": "H" 
			},
			{
				"x": 2.0387304192,
				"y": -2.4678129958,
				"z": -0.3204206389,
				"element": "H" 
			},
			{
				"x": 2.5652367563,
				"y": 0.1580843684,
				"z": -1.8161026253,
				"element": "H" 
			},
			{
				"x": 1.9097194665,
				"y": -1.3428514685,
				"z": -2.524440229,
				"element": "H" 
			},
			{
				"x": 3.5754631191,
				"y": -1.2905105934,
				"z": -1.9115823891,
				"element": "H" 
			},
			{
				"x": -3.8472302384,
				"y": 2.6472659675,
				"z": 0.6233023278,
				"element": "H" 
			},
			{
				"x": -2.2629061902,
				"y": 2.5510186935,
				"z": 1.2376675997,
				"element": "H" 
			},
			{
				"x": -4.3863704294,
				"y": 2.0422444612,
				"z": -1.6041242708,
				"element": "H" 
			},
			{
				"x": -3.557718524,
				"y": 1.4427139787,
				"z": -3.8475681539,
				"element": "H" 
			},
			{
				"x": -1.1412169487,
				"y": 0.9060386272,
				"z": -4.1934928827,
				"element": "H" 
			},
			{
				"x": 0.3889070335,
				"y": 0.9250061911,
				"z": -2.2483297918,
				"element": "H" 
			}
		],
		 "valence_orbital": [ 
			{
				"type": "occ",
				"energy": -0.25875,
				"method": "rhf"
			},
			{
				"type": "occ",
				"energy": -0.25413,
				"method": "rhf"
			},
			{
				"type": "occ",
				"energy": -0.24194,
				"method": "rhf"
			},
			{
				"type": "occ",
				"energy": -0.23725,
				"method": "rhf"
			},
			{
				"type": "occ",
				"energy": -0.19997,
				"method": "rhf"
			},
			{
				"type": "unocc",
				"energy": -0.02339,
				"method": "rhf"
			},
			{
				"type": "unocc",
				"energy": 0.01275,
				"method": "rhf"
			},
			{
				"type": "unocc",
				"energy": 0.0478,
				"method": "rhf"
			},
			{
				"type": "unocc",
				"energy": 0.08248,
				"method": "rhf"
			},
			{
				"type": "unocc",
				"energy": 0.09367,
				"method": "rhf"
			}
		],
		"cosmo_sigma_profile": { 
			"-0.025": 0.0,
			"-0.024": 0.0,
			"-0.023": 0.0,
			"-0.022": 0.0,
			"-0.021": 0.0,
			"-0.02": 0.0,
			"-0.019": 0.0,
			"-0.018": 0.0,
			"-0.017": 0.0,
			"-0.016": 0.0,
			"-0.015": 0.0,
			"-0.014": 0.0,
			"-0.013": 0.165493325262,
			"-0.012": 1.07289170151,
			"-0.011": 1.62577852704,
			"-0.01": 1.50676158411,
			"-0.009": 1.15443158093,
			"-0.008": 2.78448148498,
			"-0.007": 2.21712501264,
			"-0.006": 6.37058092223,
			"-0.005": 17.7752230603,
			"-0.004": 37.4777505729,
			"-0.003": 33.2531877994,
			"-0.002": 25.2788343858,
			"-0.001": 21.9980446853,
			"0.0": 22.5372913208,
			"0.001": 17.1352957198,
			"0.002": 11.5748827637,
			"0.003": 10.5364727858,
			"0.004": 12.0685984768,
			"0.005": 12.8572046132,
			"0.006": 10.7304625158,
			"0.007": 4.9710152784,
			"0.008": 4.11463579454,
			"0.009": 2.81186895616,
			"0.01": 3.6115399202,
			"0.011": 3.26026140395,
			"0.012": 3.46672744494,
			"0.013": 4.89678492981,
			"0.014": 1.85823432479,
			"0.015": 0.0,
			"0.016": 0.0,
			"0.017": 0.0,
			"0.018": 0.0,
			"0.019": 0.0,
			"0.02": 0.0,
			"0.021": 0.0,
			"0.022": 0.0,
			"0.023": 0.0,
			"0.024": 0.0,
			"0.025": 0.0
		}
	}
}
