{
	 "smiles": "CC(NC(=O)OC(C)(C)C)C#N", 
	 "Tm": 368.15, 
	 "num_atms": 26, 
	 "gaussian": { 
		 "optdone": 1, 
		 "sigma_profile": "yes", 
		 "theory": "DFT", 
		 "functional": "B3LYP", 
		 "basiset": "6-31G**", 
		 "properties": { 
			 "R2extent": 2758.651, 
			 "electric_dipole_moment_norm": 3.34740875903, 
			 "electric_quadrupole_moment_norm": 22.5857922562, 
			 "total_energy": -573.258529272, 
			 "HOMO_LUMO_gap": 0.28962, 
			 "cosmo_polarized_energy": -13.72, 
			 "cosmo_cavitation_energy": 29.78, 
			 "cosmo_dispersion_energy": -19.72, 
			 "cosmo_repulsion_energy": 1.61, 
			 "cosmo_total_nonelectrostatic_energy": 11.68, 
			 "SMD_solvation_energy": 7.38 
		},
		"coords": [
			{
				"x": -1.3560640897,
				"y": 3.8852298283,
				"z": 1.2944149439,
				"element": "C" 
			},
			{
				"x": -1.2690950811,
				"y": 2.351799636,
				"z": 1.2798437828,
				"element": "C" 
			},
			{
				"x": 0.0824462552,
				"y": 1.9213002391,
				"z": 0.9535923397,
				"element": "N" 
			},
			{
				"x": 0.4213505502,
				"y": 0.6670906729,
				"z": 0.4799632758,
				"element": "C" 
			},
			{
				"x": 1.5744588199,
				"y": 0.2806796989,
				"z": 0.4288261845,
				"element": "O" 
			},
			{
				"x": -0.6791739974,
				"y": 0.0015314416,
				"z": 0.0765143391,
				"element": "O" 
			},
			{
				"x": -0.5810278443,
				"y": -1.3637190931,
				"z": -0.4810078199,
				"element": "C" 
			},
			{
				"x": -2.0434462091,
				"y": -1.7054066486,
				"z": -0.7743372976,
				"element": "C" 
			},
			{
				"x": 0.2465896434,
				"y": -1.3395248402,
				"z": -1.7692890708,
				"element": "C" 
			},
			{
				"x": 0.0011463695,
				"y": -2.3110337928,
				"z": 0.5720786972,
				"element": "C" 
			},
			{
				"x": -1.7333285248,
				"y": 1.7903059583,
				"z": 2.5743420094,
				"element": "C" 
			},
			{
				"x": -2.0835164216,
				"y": 1.3563359229,
				"z": 3.5923346041,
				"element": "N" 
			},
			{
				"x": -1.0623359669,
				"y": 4.2733292476,
				"z": 0.3162509769,
				"element": "H" 
			},
			{
				"x": -2.3754306504,
				"y": 4.2086806141,
				"z": 1.5178446675,
				"element": "H" 
			},
			{
				"x": -0.6926092422,
				"y": 4.3066221762,
				"z": 2.0559433167,
				"element": "H" 
			},
			{
				"x": -1.9308125996,
				"y": 1.9548443832,
				"z": 0.5059280173,
				"element": "H" 
			},
			{
				"x": 0.8467457523,
				"y": 2.3762131602,
				"z": 1.4344449196,
				"element": "H" 
			},
			{
				"x": -2.6399650743,
				"y": -1.670476867,
				"z": 0.1417569684,
				"element": "H" 
			},
			{
				"x": -2.1141864242,
				"y": -2.7124463587,
				"z": -1.19553975,
				"element": "H" 
			},
			{
				"x": -2.4699083038,
				"y": -1.0000132242,
				"z": -1.4937860997,
				"element": "H" 
			},
			{
				"x": 0.2220009581,
				"y": -2.3289337106,
				"z": -2.2371939853,
				"element": "H" 
			},
			{
				"x": 1.2834652894,
				"y": -1.0728037792,
				"z": -1.5636231401,
				"element": "H" 
			},
			{
				"x": -0.1727470375,
				"y": -0.61881981,
				"z": -2.4785448969,
				"element": "H" 
			},
			{
				"x": -0.5857293849,
				"y": -2.2607338706,
				"z": 1.494397363,
				"element": "H" 
			},
			{
				"x": 1.0376236949,
				"y": -2.0586027347,
				"z": 0.796921924,
				"element": "H" 
			},
			{
				"x": -0.0387504812,
				"y": -3.3393482496,
				"z": 0.1987237303,
				"element": "H" 
			}
		],
		 "valence_orbital": [ 
			{
				"type": "occ",
				"energy": -0.33388,
				"method": "rhf"
			},
			{
				"type": "occ",
				"energy": -0.32943,
				"method": "rhf"
			},
			{
				"type": "occ",
				"energy": -0.29889,
				"method": "rhf"
			},
			{
				"type": "occ",
				"energy": -0.27598,
				"method": "rhf"
			},
			{
				"type": "occ",
				"energy": -0.27053,
				"method": "rhf"
			},
			{
				"type": "unocc",
				"energy": 0.01909,
				"method": "rhf"
			},
			{
				"type": "unocc",
				"energy": 0.02965,
				"method": "rhf"
			},
			{
				"type": "unocc",
				"energy": 0.04696,
				"method": "rhf"
			},
			{
				"type": "unocc",
				"energy": 0.07303,
				"method": "rhf"
			},
			{
				"type": "unocc",
				"energy": 0.08447,
				"method": "rhf"
			}
		],
		"cosmo_sigma_profile": { 
			"-0.025": 0.0,
			"-0.024": 0.0,
			"-0.023": 0.0,
			"-0.022": 0.0,
			"-0.021": 0.0,
			"-0.02": 0.0,
			"-0.019": 0.0,
			"-0.018": 0.0,
			"-0.017": 0.0,
			"-0.016": 0.0,
			"-0.015": 0.330685580742,
			"-0.014": 1.22035037085,
			"-0.013": 1.44975102869,
			"-0.012": 1.33080201568,
			"-0.011": 1.30011319358,
			"-0.01": 0.979289587293,
			"-0.009": 1.50945856002,
			"-0.008": 2.96582909025,
			"-0.007": 4.11649217541,
			"-0.006": 6.59472893963,
			"-0.005": 9.94290118354,
			"-0.004": 19.7296118368,
			"-0.003": 23.5956059857,
			"-0.002": 25.5028185775,
			"-0.001": 24.4089901876,
			"0.0": 27.0753837986,
			"0.001": 17.9678787999,
			"0.002": 8.374129546,
			"0.003": 7.7504538153,
			"0.004": 5.43588710083,
			"0.005": 4.78411522793,
			"0.006": 4.43989653703,
			"0.007": 4.22436329799,
			"0.008": 4.57631714292,
			"0.009": 4.74347436496,
			"0.01": 4.6776942296,
			"0.011": 4.0277771753,
			"0.012": 5.18619825491,
			"0.013": 4.83432567691,
			"0.014": 0.42682573646,
			"0.015": 0.0,
			"0.016": 0.0,
			"0.017": 0.0,
			"0.018": 0.0,
			"0.019": 0.0,
			"0.02": 0.0,
			"0.021": 0.0,
			"0.022": 0.0,
			"0.023": 0.0,
			"0.024": 0.0,
			"0.025": 0.0
		}
	}
}
