{
	 "smiles": "O=C(NC1=CC=CC=C1)N(C(=O)C1CC2=CC=CC=C12)C1=CC=CC=C1", 
	 "Tm": 431.15, 
	 "num_atms": 44, 
	 "gaussian": { 
		 "optdone": 1, 
		 "sigma_profile": "yes", 
		 "theory": "DFT", 
		 "functional": "B3LYP", 
		 "basiset": "6-31G**", 
		 "properties": { 
			 "R2extent": 9392.0693, 
			 "electric_dipole_moment_norm": 2.96360722937, 
			 "electric_quadrupole_moment_norm": 17.0995414032, 
			 "total_energy": -1109.11825611, 
			 "HOMO_LUMO_gap": 0.1977, 
			 "cosmo_polarized_energy": -19.39, 
			 "cosmo_cavitation_energy": 47.38, 
			 "cosmo_dispersion_energy": -31.27, 
			 "cosmo_repulsion_energy": 2.37, 
			 "cosmo_total_nonelectrostatic_energy": 18.49, 
			 "SMD_solvation_energy": 8.52 
		},
		"coords": [
			{
				"x": -0.1893940546,
				"y": 1.7309166525,
				"z": 2.6646219398,
				"element": "O" 
			},
			{
				"x": -0.1503756726,
				"y": 1.5997233138,
				"z": 1.4559694216,
				"element": "C" 
			},
			{
				"x": -0.2921059859,
				"y": 2.6863401028,
				"z": 0.6175782133,
				"element": "N" 
			},
			{
				"x": -0.0553467307,
				"y": 2.8938515781,
				"z": -0.7648443704,
				"element": "C" 
			},
			{
				"x": 0.8250342183,
				"y": 2.1164135873,
				"z": -1.5322273553,
				"element": "C" 
			},
			{
				"x": 1.0236091448,
				"y": 2.4254469596,
				"z": -2.878436299,
				"element": "C" 
			},
			{
				"x": 0.3760094536,
				"y": 3.5097350195,
				"z": -3.4725185048,
				"element": "C" 
			},
			{
				"x": -0.4881353342,
				"y": 4.2913564083,
				"z": -2.7029337762,
				"element": "C" 
			},
			{
				"x": -0.7090380544,
				"y": 3.9826999584,
				"z": -1.3629668074,
				"element": "C" 
			},
			{
				"x": 0.0712594591,
				"y": 0.3290015388,
				"z": 0.8289416271,
				"element": "N" 
			},
			{
				"x": -0.8270495808,
				"y": -0.2673396032,
				"z": -0.0815318289,
				"element": "C" 
			},
			{
				"x": -0.5229745974,
				"y": -1.283359451,
				"z": -0.6797960061,
				"element": "O" 
			},
			{
				"x": -2.2241383494,
				"y": 0.3269656847,
				"z": -0.196140526,
				"element": "C" 
			},
			{
				"x": -3.368291174,
				"y": -0.7182324731,
				"z": 0.1889318924,
				"element": "C" 
			},
			{
				"x": -3.8807918875,
				"y": -0.5365204806,
				"z": -1.229386734,
				"element": "C" 
			},
			{
				"x": -4.8774927773,
				"y": -0.9127287327,
				"z": -2.1186872424,
				"element": "C" 
			},
			{
				"x": -4.7853229811,
				"y": -0.3631717657,
				"z": -3.4070261462,
				"element": "C" 
			},
			{
				"x": -3.7486980722,
				"y": 0.5121573885,
				"z": -3.7649662804,
				"element": "C" 
			},
			{
				"x": -2.7505428551,
				"y": 0.8902398223,
				"z": -2.8533317698,
				"element": "C" 
			},
			{
				"x": -2.8588386216,
				"y": 0.3382027227,
				"z": -1.5849539073,
				"element": "C" 
			},
			{
				"x": 1.2217339171,
				"y": -0.4001260456,
				"z": 1.2982785423,
				"element": "C" 
			},
			{
				"x": 1.1319975465,
				"y": -1.7522930469,
				"z": 1.6448264054,
				"element": "C" 
			},
			{
				"x": 2.2619667921,
				"y": -2.4226138029,
				"z": 2.1080587757,
				"element": "C" 
			},
			{
				"x": 3.4814531748,
				"y": -1.7548869137,
				"z": 2.2428445733,
				"element": "C" 
			},
			{
				"x": 3.5661150324,
				"y": -0.4047393418,
				"z": 1.9046752883,
				"element": "C" 
			},
			{
				"x": 2.4432135731,
				"y": 0.2700109176,
				"z": 1.4255414818,
				"element": "C" 
			},
			{
				"x": -0.5673251028,
				"y": 3.5078013354,
				"z": 1.1411697525,
				"element": "H" 
			},
			{
				"x": 1.3560931766,
				"y": 1.2827312011,
				"z": -1.0920546773,
				"element": "H" 
			},
			{
				"x": 1.7044266395,
				"y": 1.812133967,
				"z": -3.4610843476,
				"element": "H" 
			},
			{
				"x": 0.5454666326,
				"y": 3.7449111813,
				"z": -4.5185372567,
				"element": "H" 
			},
			{
				"x": -1.0006031494,
				"y": 5.1402991497,
				"z": -3.1456792054,
				"element": "H" 
			},
			{
				"x": -1.3947479924,
				"y": 4.5842825931,
				"z": -0.7717554372,
				"element": "H" 
			},
			{
				"x": -2.3307109955,
				"y": 1.2668776489,
				"z": 0.3468922975,
				"element": "H" 
			},
			{
				"x": -4.0233651769,
				"y": -0.3851949319,
				"z": 1.0004348307,
				"element": "H" 
			},
			{
				"x": -2.984098755,
				"y": -1.7161534377,
				"z": 0.4171966154,
				"element": "H" 
			},
			{
				"x": -5.6838983371,
				"y": -1.5919151021,
				"z": -1.8564767392,
				"element": "H" 
			},
			{
				"x": -5.5338122389,
				"y": -0.6220752763,
				"z": -4.1511688264,
				"element": "H" 
			},
			{
				"x": -3.7214574635,
				"y": 0.9064432114,
				"z": -4.7772510759,
				"element": "H" 
			},
			{
				"x": -1.9531454786,
				"y": 1.5679271371,
				"z": -3.1413109145,
				"element": "H" 
			},
			{
				"x": 0.1905303912,
				"y": -2.2762370045,
				"z": 1.5403277399,
				"element": "H" 
			},
			{
				"x": 2.1846652295,
				"y": -3.4731191404,
				"z": 2.3724726505,
				"element": "H" 
			},
			{
				"x": 4.3564777811,
				"y": -2.2832522195,
				"z": 2.6091767988,
				"element": "H" 
			},
			{
				"x": 4.5068122781,
				"y": 0.1282132902,
				"z": 2.0063426419,
				"element": "H" 
			},
			{
				"x": 2.5152369783,
				"y": 1.3212763995,
				"z": 1.1633845465,
				"element": "H" 
			}
		],
		 "valence_orbital": [ 
			{
				"type": "occ",
				"energy": -0.24975,
				"method": "rhf"
			},
			{
				"type": "occ",
				"energy": -0.2454,
				"method": "rhf"
			},
			{
				"type": "occ",
				"energy": -0.23803,
				"method": "rhf"
			},
			{
				"type": "occ",
				"energy": -0.23378,
				"method": "rhf"
			},
			{
				"type": "occ",
				"energy": -0.22972,
				"method": "rhf"
			},
			{
				"type": "unocc",
				"energy": -0.03202,
				"method": "rhf"
			},
			{
				"type": "unocc",
				"energy": -0.02382,
				"method": "rhf"
			},
			{
				"type": "unocc",
				"energy": -0.01315,
				"method": "rhf"
			},
			{
				"type": "unocc",
				"energy": -0.00377,
				"method": "rhf"
			},
			{
				"type": "unocc",
				"energy": -0.00304,
				"method": "rhf"
			}
		],
		"cosmo_sigma_profile": { 
			"-0.025": 0.0,
			"-0.024": 0.0,
			"-0.023": 0.0,
			"-0.022": 0.0,
			"-0.021": 0.0,
			"-0.02": 0.0,
			"-0.019": 0.0,
			"-0.018": 0.0,
			"-0.017": 0.0,
			"-0.016": 0.0440745437508,
			"-0.015": 0.920531191104,
			"-0.014": 1.02231791569,
			"-0.013": 1.23386656062,
			"-0.012": 1.30701103313,
			"-0.011": 1.16270653325,
			"-0.01": 1.05091433298,
			"-0.009": 1.37735591362,
			"-0.008": 1.07621899639,
			"-0.007": 4.72328913489,
			"-0.006": 23.2096694157,
			"-0.005": 35.3705628729,
			"-0.004": 36.3349730497,
			"-0.003": 31.4314532317,
			"-0.002": 25.252013478,
			"-0.001": 26.2086762792,
			"0.0": 24.2940553719,
			"0.001": 24.7531384481,
			"0.002": 26.3731793151,
			"0.003": 19.784695481,
			"0.004": 23.6075569351,
			"0.005": 23.3709415878,
			"0.006": 10.9221529801,
			"0.007": 4.05868639128,
			"0.008": 3.62308481549,
			"0.009": 3.98701914206,
			"0.01": 4.51599297655,
			"0.011": 5.5474935445,
			"0.012": 10.1999883665,
			"0.013": 2.8182132799,
			"0.014": 0.0,
			"0.015": 0.0,
			"0.016": 0.0,
			"0.017": 0.0,
			"0.018": 0.0,
			"0.019": 0.0,
			"0.02": 0.0,
			"0.021": 0.0,
			"0.022": 0.0,
			"0.023": 0.0,
			"0.024": 0.0,
			"0.025": 0.0
		}
	}
}
