{
	 "smiles": "CCC(C(O)=O)C1=CC(=CC=C1)C(F)(F)F", 
	 "Tm": 315.15, 
	 "num_atms": 27, 
	 "gaussian": { 
		 "optdone": 1, 
		 "sigma_profile": "yes", 
		 "theory": "DFT", 
		 "functional": "B3LYP", 
		 "basiset": "6-31G**", 
		 "properties": { 
			 "R2extent": 4387.1654, 
			 "electric_dipole_moment_norm": 4.96293499051, 
			 "electric_quadrupole_moment_norm": 11.60011443, 
			 "total_energy": -875.792967902, 
			 "HOMO_LUMO_gap": 0.22287, 
			 "cosmo_polarized_energy": -13.39, 
			 "cosmo_cavitation_energy": 31.79, 
			 "cosmo_dispersion_energy": -21.49, 
			 "cosmo_repulsion_energy": 1.63, 
			 "cosmo_total_nonelectrostatic_energy": 11.93, 
			 "SMD_solvation_energy": 7.5 
		},
		"coords": [
			{
				"x": -0.4565079325,
				"y": 0.1619316452,
				"z": -2.5440015266,
				"element": "C" 
			},
			{
				"x": -1.5489702367,
				"y": 0.4958152755,
				"z": -1.5249772257,
				"element": "C" 
			},
			{
				"x": -1.0735047593,
				"y": 0.6542597125,
				"z": -0.0585053652,
				"element": "C" 
			},
			{
				"x": -0.1963460777,
				"y": 1.9104133423,
				"z": 0.1058874919,
				"element": "C" 
			},
			{
				"x": 0.5226219431,
				"y": 1.9929792482,
				"z": 1.2530737803,
				"element": "O" 
			},
			{
				"x": -0.177451111,
				"y": 2.81970405,
				"z": -0.6863303779,
				"element": "O" 
			},
			{
				"x": -0.4718743603,
				"y": -0.614205252,
				"z": 0.5319167936,
				"element": "C" 
			},
			{
				"x": 0.8706506718,
				"y": -0.9657550056,
				"z": 0.323523696,
				"element": "C" 
			},
			{
				"x": 1.3817497594,
				"y": -2.1597257954,
				"z": 0.8386944677,
				"element": "C" 
			},
			{
				"x": 0.5652460344,
				"y": -3.0236817746,
				"z": 1.5711911718,
				"element": "C" 
			},
			{
				"x": -0.7687633409,
				"y": -2.681944957,
				"z": 1.7879099634,
				"element": "C" 
			},
			{
				"x": -1.279014823,
				"y": -1.4901455773,
				"z": 1.2742111351,
				"element": "C" 
			},
			{
				"x": 2.8108203089,
				"y": -2.5416678703,
				"z": 0.5507571585,
				"element": "C" 
			},
			{
				"x": 3.3262411426,
				"y": -3.3224992156,
				"z": 1.5252273837,
				"element": "F" 
			},
			{
				"x": 2.9131518474,
				"y": -3.2348411804,
				"z": -0.6061218363,
				"element": "F" 
			},
			{
				"x": 3.6060111446,
				"y": -1.4567822383,
				"z": 0.4322647359,
				"element": "F" 
			},
			{
				"x": -0.8876318966,
				"y": 0.1037804393,
				"z": -3.5482233659,
				"element": "H" 
			},
			{
				"x": 0.0200367542,
				"y": -0.8010393259,
				"z": -2.3358296298,
				"element": "H" 
			},
			{
				"x": 0.3142739979,
				"y": 0.9375620619,
				"z": -2.5598764049,
				"element": "H" 
			},
			{
				"x": -2.3227871445,
				"y": -0.2806884716,
				"z": -1.541091426,
				"element": "H" 
			},
			{
				"x": -2.0288834573,
				"y": 1.4376735274,
				"z": -1.8067298387,
				"element": "H" 
			},
			{
				"x": -1.9703706793,
				"y": 0.8848383043,
				"z": 0.5358575897,
				"element": "H" 
			},
			{
				"x": 0.4385355308,
				"y": 1.1680312189,
				"z": 1.7553606351,
				"element": "H" 
			},
			{
				"x": 1.5293656148,
				"y": -0.3053614048,
				"z": -0.2307351398,
				"element": "H" 
			},
			{
				"x": 0.9746280571,
				"y": -3.9429199117,
				"z": 1.9752154348,
				"element": "H" 
			},
			{
				"x": -1.4101072557,
				"y": -3.3419994337,
				"z": 2.3637767981,
				"element": "H" 
			},
			{
				"x": -2.3204197319,
				"y": -1.2325314112,
				"z": 1.4502539013,
				"element": "H" 
			}
		],
		 "valence_orbital": [ 
			{
				"type": "occ",
				"energy": -0.34248,
				"method": "rhf"
			},
			{
				"type": "occ",
				"energy": -0.31769,
				"method": "rhf"
			},
			{
				"type": "occ",
				"energy": -0.28421,
				"method": "rhf"
			},
			{
				"type": "occ",
				"energy": -0.28364,
				"method": "rhf"
			},
			{
				"type": "occ",
				"energy": -0.26747,
				"method": "rhf"
			},
			{
				"type": "unocc",
				"energy": -0.0446,
				"method": "rhf"
			},
			{
				"type": "unocc",
				"energy": -0.03645,
				"method": "rhf"
			},
			{
				"type": "unocc",
				"energy": 0.00127,
				"method": "rhf"
			},
			{
				"type": "unocc",
				"energy": 0.07106,
				"method": "rhf"
			},
			{
				"type": "unocc",
				"energy": 0.08459,
				"method": "rhf"
			}
		],
		"cosmo_sigma_profile": { 
			"-0.025": 0.0,
			"-0.024": 0.0,
			"-0.023": 0.0,
			"-0.022": 0.0,
			"-0.021": 0.0,
			"-0.02": 0.0,
			"-0.019": 0.0,
			"-0.018": 0.0,
			"-0.017": 0.20777910163,
			"-0.016": 0.440790124016,
			"-0.015": 0.587473371794,
			"-0.014": 0.732219935608,
			"-0.013": 0.681684953414,
			"-0.012": 1.36706088486,
			"-0.011": 0.782677006734,
			"-0.01": 1.19734593264,
			"-0.009": 1.24096129939,
			"-0.008": 4.35773054595,
			"-0.007": 10.6846542608,
			"-0.006": 10.5054927559,
			"-0.005": 11.1837692252,
			"-0.004": 11.6741748156,
			"-0.003": 16.5393156592,
			"-0.002": 19.1230339173,
			"-0.001": 21.7498621353,
			"0.0": 22.8387294431,
			"0.001": 20.2956083105,
			"0.002": 27.2083162725,
			"0.003": 34.5469531019,
			"0.004": 5.42366907928,
			"0.005": 2.01676555365,
			"0.006": 2.09346407857,
			"0.007": 2.95887585052,
			"0.008": 2.78279979834,
			"0.009": 3.34018961249,
			"0.01": 4.63353543517,
			"0.011": 4.77477972015,
			"0.012": 4.5719811443,
			"0.013": 1.4344665153,
			"0.014": 0.00244907996931,
			"0.015": 0.0,
			"0.016": 0.0,
			"0.017": 0.0,
			"0.018": 0.0,
			"0.019": 0.0,
			"0.02": 0.0,
			"0.021": 0.0,
			"0.022": 0.0,
			"0.023": 0.0,
			"0.024": 0.0,
			"0.025": 0.0
		}
	}
}
