{
	 "smiles": "C1CC=CC=CC1", 
	 "Tm": 163.15, 
	 "num_atms": 17, 
	 "gaussian": { 
		 "optdone": 1, 
		 "sigma_profile": "yes", 
		 "theory": "DFT", 
		 "functional": "B3LYP", 
		 "basiset": "6-31G**", 
		 "properties": { 
			 "R2extent": 935.8132, 
			 "electric_dipole_moment_norm": 0.653221417285, 
			 "electric_quadrupole_moment_norm": 3.02300176976, 
			 "total_energy": -272.740133619, 
			 "HOMO_LUMO_gap": 0.18919, 
			 "cosmo_polarized_energy": -2.37, 
			 "cosmo_cavitation_energy": 18.68, 
			 "cosmo_dispersion_energy": -14.31, 
			 "cosmo_repulsion_energy": 1.21, 
			 "cosmo_total_nonelectrostatic_energy": 5.58, 
			 "SMD_solvation_energy": 2.81 
		},
		"coords": [
			{
				"x": -1.2440714153,
				"y": -1.3684872034,
				"z": 0.3568903343,
				"element": "C" 
			},
			{
				"x": -1.8413570573,
				"y": -0.3221494862,
				"z": 1.3089111252,
				"element": "C" 
			},
			{
				"x": -0.9158245274,
				"y": 0.2307786673,
				"z": 2.3596355682,
				"element": "C" 
			},
			{
				"x": 0.4222690459,
				"y": 0.3648162162,
				"z": 2.308275979,
				"element": "C" 
			},
			{
				"x": 1.3599128037,
				"y": 0.0658648938,
				"z": 1.2231238295,
				"element": "C" 
			},
			{
				"x": 1.1318499027,
				"y": -0.4218616471,
				"z": -0.010252954,
				"element": "C" 
			},
			{
				"x": -0.1761697106,
				"y": -0.8525868695,
				"z": -0.6184357882,
				"element": "C" 
			},
			{
				"x": -2.0631417562,
				"y": -1.7985620803,
				"z": -0.2323871107,
				"element": "H" 
			},
			{
				"x": -0.8211429649,
				"y": -2.1893861834,
				"z": 0.9481986797,
				"element": "H" 
			},
			{
				"x": -2.2640255798,
				"y": 0.509886567,
				"z": 0.7239282421,
				"element": "H" 
			},
			{
				"x": -2.7025110114,
				"y": -0.7734173979,
				"z": 1.8197622287,
				"element": "H" 
			},
			{
				"x": -1.4049014791,
				"y": 0.5614745417,
				"z": 3.2752689457,
				"element": "H" 
			},
			{
				"x": 0.8966226127,
				"y": 0.7852993869,
				"z": 3.1940748774,
				"element": "H" 
			},
			{
				"x": 2.3954003652,
				"y": 0.3073486608,
				"z": 1.4595798381,
				"element": "H" 
			},
			{
				"x": 1.9981048497,
				"y": -0.523263059,
				"z": -0.6631360956,
				"element": "H" 
			},
			{
				"x": -0.5899896558,
				"y": -0.023088116,
				"z": -1.2132623602,
				"element": "H" 
			},
			{
				"x": 0.034675578,
				"y": -1.6452668908,
				"z": -1.3487753392,
				"element": "H" 
			}
		],
		 "valence_orbital": [ 
			{
				"type": "occ",
				"energy": -0.34286,
				"method": "rhf"
			},
			{
				"type": "occ",
				"energy": -0.32105,
				"method": "rhf"
			},
			{
				"type": "occ",
				"energy": -0.31062,
				"method": "rhf"
			},
			{
				"type": "occ",
				"energy": -0.29285,
				"method": "rhf"
			},
			{
				"type": "occ",
				"energy": -0.20875,
				"method": "rhf"
			},
			{
				"type": "unocc",
				"energy": -0.01956,
				"method": "rhf"
			},
			{
				"type": "unocc",
				"energy": 0.08173,
				"method": "rhf"
			},
			{
				"type": "unocc",
				"energy": 0.10401,
				"method": "rhf"
			},
			{
				"type": "unocc",
				"energy": 0.12417,
				"method": "rhf"
			},
			{
				"type": "unocc",
				"energy": 0.13039,
				"method": "rhf"
			}
		],
		"cosmo_sigma_profile": { 
			"-0.025": 0.0,
			"-0.024": 0.0,
			"-0.023": 0.0,
			"-0.022": 0.0,
			"-0.021": 0.0,
			"-0.02": 0.0,
			"-0.019": 0.0,
			"-0.018": 0.0,
			"-0.017": 0.0,
			"-0.016": 0.0,
			"-0.015": 0.0,
			"-0.014": 0.0,
			"-0.013": 0.0,
			"-0.012": 0.0,
			"-0.011": 0.0,
			"-0.01": 0.0,
			"-0.009": 0.0,
			"-0.008": 0.0,
			"-0.007": 0.0,
			"-0.006": 0.0,
			"-0.005": 0.511272502123,
			"-0.004": 9.51291746457,
			"-0.003": 21.5679008194,
			"-0.002": 24.1155121027,
			"-0.001": 23.1563033612,
			"0.0": 20.067313264,
			"0.001": 10.1352277732,
			"0.002": 6.25376407016,
			"0.003": 7.16850361474,
			"0.004": 5.45535169432,
			"0.005": 5.2885821907,
			"0.006": 6.02288924635,
			"0.007": 5.50505302968,
			"0.008": 1.20953312979,
			"0.009": 0.0,
			"0.01": 0.0,
			"0.011": 0.0,
			"0.012": 0.0,
			"0.013": 0.0,
			"0.014": 0.0,
			"0.015": 0.0,
			"0.016": 0.0,
			"0.017": 0.0,
			"0.018": 0.0,
			"0.019": 0.0,
			"0.02": 0.0,
			"0.021": 0.0,
			"0.022": 0.0,
			"0.023": 0.0,
			"0.024": 0.0,
			"0.025": 0.0
		}
	}
}
