{
	 "smiles": "BrCC(=O)C1=CSC=C1", 
	 "Tm": 334.65, 
	 "num_atms": 14, 
	 "gaussian": { 
		 "optdone": 1, 
		 "sigma_profile": "yes", 
		 "theory": "DFT", 
		 "functional": "B3LYP", 
		 "basiset": "6-31G**", 
		 "properties": { 
			 "R2extent": 3592.8344, 
			 "electric_dipole_moment_norm": 2.79635580712, 
			 "electric_quadrupole_moment_norm": 7.58026709952, 
			 "total_energy": -3276.44667399, 
			 "HOMO_LUMO_gap": 0.18136, 
			 "cosmo_polarized_energy": -8.46, 
			 "cosmo_cavitation_energy": 22.34, 
			 "cosmo_dispersion_energy": -17.29, 
			 "cosmo_repulsion_energy": 1.37, 
			 "cosmo_total_nonelectrostatic_energy": 6.42, 
			 "SMD_solvation_energy": 3.57 
		},
		"coords": [
			{
				"x": -2.9020415726,
				"y": -0.9352439233,
				"z": -2.0569839902,
				"element": "Br" 
			},
			{
				"x": -1.8275869492,
				"y": -1.2707620408,
				"z": -0.4275538547,
				"element": "C" 
			},
			{
				"x": -0.6772182484,
				"y": -0.2753551248,
				"z": -0.3120060711,
				"element": "C" 
			},
			{
				"x": 0.4656601699,
				"y": -0.6733458486,
				"z": -0.4760958078,
				"element": "O" 
			},
			{
				"x": -0.9784594053,
				"y": 1.1303310484,
				"z": 0.0445072026,
				"element": "C" 
			},
			{
				"x": 0.0406137051,
				"y": 2.0391062022,
				"z": 0.23254329,
				"element": "C" 
			},
			{
				"x": -0.5536168272,
				"y": 3.5878613032,
				"z": 0.6769395006,
				"element": "S" 
			},
			{
				"x": -2.2011864619,
				"y": 3.0323639051,
				"z": 0.6149111686,
				"element": "C" 
			},
			{
				"x": -2.2723526103,
				"y": 1.7157387671,
				"z": 0.266860192,
				"element": "C" 
			},
			{
				"x": -2.5252543297,
				"y": -1.2114871913,
				"z": 0.4082366366,
				"element": "H" 
			},
			{
				"x": -1.4192010158,
				"y": -2.2728396171,
				"z": -0.5309913172,
				"element": "H" 
			},
			{
				"x": 1.0986237062,
				"y": 1.8442153503,
				"z": 0.1302655934,
				"element": "H" 
			},
			{
				"x": -3.0112326627,
				"y": 3.7149325869,
				"z": 0.8305555646,
				"element": "H" 
			},
			{
				"x": -3.2090474981,
				"y": 1.1854845827,
				"z": 0.1480118926,
				"element": "H" 
			}
		],
		 "valence_orbital": [ 
			{
				"type": "occ",
				"energy": -0.29549,
				"method": "rhf"
			},
			{
				"type": "occ",
				"energy": -0.28706,
				"method": "rhf"
			},
			{
				"type": "occ",
				"energy": -0.26805,
				"method": "rhf"
			},
			{
				"type": "occ",
				"energy": -0.25994,
				"method": "rhf"
			},
			{
				"type": "occ",
				"energy": -0.2532,
				"method": "rhf"
			},
			{
				"type": "unocc",
				"energy": -0.07184,
				"method": "rhf"
			},
			{
				"type": "unocc",
				"energy": -0.02216,
				"method": "rhf"
			},
			{
				"type": "unocc",
				"energy": 0.00856,
				"method": "rhf"
			},
			{
				"type": "unocc",
				"energy": 0.01784,
				"method": "rhf"
			},
			{
				"type": "unocc",
				"energy": 0.08393,
				"method": "rhf"
			}
		],
		"cosmo_sigma_profile": { 
			"-0.025": 0.0,
			"-0.024": 0.0,
			"-0.023": 0.0,
			"-0.022": 0.0,
			"-0.021": 0.0,
			"-0.02": 0.0,
			"-0.019": 0.0,
			"-0.018": 0.0,
			"-0.017": 0.0,
			"-0.016": 0.0,
			"-0.015": 0.0,
			"-0.014": 0.0,
			"-0.013": 0.0,
			"-0.012": 0.0,
			"-0.011": 0.0,
			"-0.01": 0.233289886521,
			"-0.009": 5.81321855733,
			"-0.008": 8.41990262879,
			"-0.007": 8.28381833275,
			"-0.006": 9.58591324417,
			"-0.005": 9.37911227175,
			"-0.004": 7.11321853528,
			"-0.003": 9.2009185319,
			"-0.002": 8.35413131508,
			"-0.001": 10.3290334198,
			"0.0": 12.7003976853,
			"0.001": 16.0096471529,
			"0.002": 23.4927696911,
			"0.003": 16.0139352789,
			"0.004": 13.9071940271,
			"0.005": 10.1639208953,
			"0.006": 1.99745447961,
			"0.007": 1.44983410247,
			"0.008": 2.02282349404,
			"0.009": 1.35406609193,
			"0.01": 2.91852376418,
			"0.011": 4.2003539625,
			"0.012": 1.73210473419,
			"0.013": 0.113192620082,
			"0.014": 0.0,
			"0.015": 0.0,
			"0.016": 0.0,
			"0.017": 0.0,
			"0.018": 0.0,
			"0.019": 0.0,
			"0.02": 0.0,
			"0.021": 0.0,
			"0.022": 0.0,
			"0.023": 0.0,
			"0.024": 0.0,
			"0.025": 0.0
		}
	}
}
