{
	 "smiles": "COC(=O)C1=CC=C(Br)C=C1OC", 
	 "Tm": 306.15, 
	 "num_atms": 22, 
	 "gaussian": { 
		 "optdone": 1, 
		 "sigma_profile": "yes", 
		 "theory": "DFT", 
		 "functional": "B3LYP", 
		 "basiset": "6-31G**", 
		 "properties": { 
			 "R2extent": 5725.3977, 
			 "electric_dipole_moment_norm": 1.89224604373, 
			 "electric_quadrupole_moment_norm": 7.87734554276, 
			 "total_energy": -3145.44666494, 
			 "HOMO_LUMO_gap": 0.19702, 
			 "cosmo_polarized_energy": -8.28, 
			 "cosmo_cavitation_energy": 28.77, 
			 "cosmo_dispersion_energy": -21.31, 
			 "cosmo_repulsion_energy": 1.7, 
			 "cosmo_total_nonelectrostatic_energy": 9.16, 
			 "SMD_solvation_energy": 6.06 
		},
		"coords": [
			{
				"x": 0.1962640592,
				"y": -3.0067357188,
				"z": -1.0620739176,
				"element": "C" 
			},
			{
				"x": -0.1584985925,
				"y": -1.6169423694,
				"z": -1.1293719264,
				"element": "O" 
			},
			{
				"x": 0.2298440935,
				"y": -0.872086117,
				"z": -0.0652090326,
				"element": "C" 
			},
			{
				"x": 0.8173064772,
				"y": -1.3486871993,
				"z": 0.8855171479,
				"element": "O" 
			},
			{
				"x": -0.1397514834,
				"y": 0.5617605698,
				"z": -0.2403715018,
				"element": "C" 
			},
			{
				"x": -0.3877167688,
				"y": 1.0713131074,
				"z": -1.5256797968,
				"element": "C" 
			},
			{
				"x": -0.7150192565,
				"y": 2.4064833289,
				"z": -1.7342758736,
				"element": "C" 
			},
			{
				"x": -0.817467697,
				"y": 3.2489112675,
				"z": -0.6273568641,
				"element": "C" 
			},
			{
				"x": -1.2785143987,
				"y": 5.083503115,
				"z": -0.8842423288,
				"element": "Br" 
			},
			{
				"x": -0.5973560294,
				"y": 2.7765440711,
				"z": 0.6615131106,
				"element": "C" 
			},
			{
				"x": -0.2548590576,
				"y": 1.4344437033,
				"z": 0.8648816135,
				"element": "C" 
			},
			{
				"x": -0.1313189703,
				"y": 1.0040758721,
				"z": 2.1552489762,
				"element": "O" 
			},
			{
				"x": 1.1890772918,
				"y": 1.0577925778,
				"z": 2.7109918617,
				"element": "C" 
			},
			{
				"x": -0.1774022637,
				"y": -3.4495470504,
				"z": -1.985239808,
				"element": "H" 
			},
			{
				"x": 1.2802656433,
				"y": -3.1263159604,
				"z": -0.9887497468,
				"element": "H" 
			},
			{
				"x": -0.2684258888,
				"y": -3.4798119918,
				"z": -0.1935757839,
				"element": "H" 
			},
			{
				"x": -0.3152620916,
				"y": 0.3997996705,
				"z": -2.3729927136,
				"element": "H" 
			},
			{
				"x": -0.8940038294,
				"y": 2.7854904315,
				"z": -2.7332920975,
				"element": "H" 
			},
			{
				"x": -0.702866555,
				"y": 3.4231502766,
				"z": 1.524284435,
				"element": "H" 
			},
			{
				"x": 1.0888688726,
				"y": 0.745140656,
				"z": 3.7516322765,
				"element": "H" 
			},
			{
				"x": 1.5860807804,
				"y": 2.0804305001,
				"z": 2.6748027376,
				"element": "H" 
			},
			{
				"x": 1.8558556647,
				"y": 0.3695872596,
				"z": 2.1860592326,
				"element": "H" 
			}
		],
		 "valence_orbital": [ 
			{
				"type": "occ",
				"energy": -0.29436,
				"method": "rhf"
			},
			{
				"type": "occ",
				"energy": -0.28074,
				"method": "rhf"
			},
			{
				"type": "occ",
				"energy": -0.26995,
				"method": "rhf"
			},
			{
				"type": "occ",
				"energy": -0.26111,
				"method": "rhf"
			},
			{
				"type": "occ",
				"energy": -0.24901,
				"method": "rhf"
			},
			{
				"type": "unocc",
				"energy": -0.05199,
				"method": "rhf"
			},
			{
				"type": "unocc",
				"energy": -0.01772,
				"method": "rhf"
			},
			{
				"type": "unocc",
				"energy": 0.00103,
				"method": "rhf"
			},
			{
				"type": "unocc",
				"energy": 0.0425,
				"method": "rhf"
			},
			{
				"type": "unocc",
				"energy": 0.10497,
				"method": "rhf"
			}
		],
		"cosmo_sigma_profile": { 
			"-0.025": 0.0,
			"-0.024": 0.0,
			"-0.023": 0.0,
			"-0.022": 0.0,
			"-0.021": 0.0,
			"-0.02": 0.0,
			"-0.019": 0.0,
			"-0.018": 0.0,
			"-0.017": 0.0,
			"-0.016": 0.0,
			"-0.015": 0.0,
			"-0.014": 0.0,
			"-0.013": 0.0,
			"-0.012": 0.0,
			"-0.011": 0.0,
			"-0.01": 0.0,
			"-0.009": 0.0,
			"-0.008": 1.09297168731,
			"-0.007": 4.91670040585,
			"-0.006": 10.3877833527,
			"-0.005": 16.0181533242,
			"-0.004": 21.0914637529,
			"-0.003": 24.8264719756,
			"-0.002": 21.0002044925,
			"-0.001": 15.5346774201,
			"0.0": 14.9767521558,
			"0.001": 25.6868177187,
			"0.002": 20.8079773135,
			"0.003": 13.8209112392,
			"0.004": 14.8239525904,
			"0.005": 4.94986617614,
			"0.006": 3.65765692584,
			"0.007": 2.85990510327,
			"0.008": 2.79530154108,
			"0.009": 2.48636789276,
			"0.01": 4.04832543592,
			"0.011": 4.95485250591,
			"0.012": 2.25847360999,
			"0.013": 0.0269117282775,
			"0.014": 0.0,
			"0.015": 0.0,
			"0.016": 0.0,
			"0.017": 0.0,
			"0.018": 0.0,
			"0.019": 0.0,
			"0.02": 0.0,
			"0.021": 0.0,
			"0.022": 0.0,
			"0.023": 0.0,
			"0.024": 0.0,
			"0.025": 0.0
		}
	}
}
