{
	 "smiles": "NC1=C(C#N)C2=C(CCCCC2)S1", 
	 "Tm": 382.15, 
	 "num_atms": 25, 
	 "gaussian": { 
		 "optdone": 1, 
		 "sigma_profile": "yes", 
		 "theory": "DFT", 
		 "functional": "B3LYP", 
		 "basiset": "6-31G**", 
		 "properties": { 
			 "R2extent": 2978.2782, 
			 "electric_dipole_moment_norm": 3.95107051063, 
			 "electric_quadrupole_moment_norm": 14.11271007, 
			 "total_energy": -895.97214889, 
			 "HOMO_LUMO_gap": 0.18123, 
			 "cosmo_polarized_energy": -12.09, 
			 "cosmo_cavitation_energy": 28.74, 
			 "cosmo_dispersion_energy": -21.3, 
			 "cosmo_repulsion_energy": 1.65, 
			 "cosmo_total_nonelectrostatic_energy": 9.09, 
			 "SMD_solvation_energy": 4.68 
		},
		"coords": [
			{
				"x": -2.0248147674,
				"y": -2.5930673051,
				"z": -0.0172597239,
				"element": "N" 
			},
			{
				"x": -1.5327956494,
				"y": -1.3271984231,
				"z": 0.1993829072,
				"element": "C" 
			},
			{
				"x": -0.3219801339,
				"y": -0.8040472487,
				"z": -0.2257557207,
				"element": "C" 
			},
			{
				"x": 0.539906682,
				"y": -1.5502848139,
				"z": -1.0702734512,
				"element": "C" 
			},
			{
				"x": 1.2139724873,
				"y": -2.196953576,
				"z": -1.7697733697,
				"element": "N" 
			},
			{
				"x": -0.065832851,
				"y": 0.5411028483,
				"z": 0.2560025444,
				"element": "C" 
			},
			{
				"x": -1.0828288415,
				"y": 1.0233740934,
				"z": 1.0270040372,
				"element": "C" 
			},
			{
				"x": -1.2670722353,
				"y": 2.360546034,
				"z": 1.700648154,
				"element": "C" 
			},
			{
				"x": -0.2775651526,
				"y": 3.461498011,
				"z": 1.2605409859,
				"element": "C" 
			},
			{
				"x": -0.1011500309,
				"y": 3.5478405324,
				"z": -0.2666516126,
				"element": "C" 
			},
			{
				"x": 0.9944668644,
				"y": 2.6181274404,
				"z": -0.8393728981,
				"element": "C" 
			},
			{
				"x": 1.2031225888,
				"y": 1.2951375486,
				"z": -0.0716371596,
				"element": "C" 
			},
			{
				"x": -2.3767416061,
				"y": -0.1760047772,
				"z": 1.1979263941,
				"element": "S" 
			},
			{
				"x": -1.5324578005,
				"y": -3.1217617816,
				"z": -0.7267643121,
				"element": "H" 
			},
			{
				"x": -3.028851233,
				"y": -2.694162884,
				"z": -0.0639049928,
				"element": "H" 
			},
			{
				"x": -1.2211384136,
				"y": 2.2441734967,
				"z": 2.7929316933,
				"element": "H" 
			},
			{
				"x": -2.2846253725,
				"y": 2.7157712807,
				"z": 1.4843694064,
				"element": "H" 
			},
			{
				"x": 0.693686723,
				"y": 3.3162390526,
				"z": 1.747477613,
				"element": "H" 
			},
			{
				"x": -0.662937368,
				"y": 4.4126954635,
				"z": 1.6448659664,
				"element": "H" 
			},
			{
				"x": -1.0635408565,
				"y": 3.3184893553,
				"z": -0.7402289541,
				"element": "H" 
			},
			{
				"x": 0.1353994592,
				"y": 4.5787371024,
				"z": -0.5539294828,
				"element": "H" 
			},
			{
				"x": 1.9565178454,
				"y": 3.1454928357,
				"z": -0.8441482293,
				"element": "H" 
			},
			{
				"x": 0.7623358358,
				"y": 2.3978047115,
				"z": -1.8876835417,
				"element": "H" 
			},
			{
				"x": 1.8629404402,
				"y": 0.6480671739,
				"z": -0.65828695,
				"element": "H" 
			},
			{
				"x": 1.7428833861,
				"y": 1.4989838292,
				"z": 0.8605206965,
				"element": "H" 
			}
		],
		 "valence_orbital": [ 
			{
				"type": "occ",
				"energy": -0.31943,
				"method": "rhf"
			},
			{
				"type": "occ",
				"energy": -0.31735,
				"method": "rhf"
			},
			{
				"type": "occ",
				"energy": -0.30336,
				"method": "rhf"
			},
			{
				"type": "occ",
				"energy": -0.24912,
				"method": "rhf"
			},
			{
				"type": "occ",
				"energy": -0.20202,
				"method": "rhf"
			},
			{
				"type": "unocc",
				"energy": -0.02079,
				"method": "rhf"
			},
			{
				"type": "unocc",
				"energy": -0.00312,
				"method": "rhf"
			},
			{
				"type": "unocc",
				"energy": 0.02025,
				"method": "rhf"
			},
			{
				"type": "unocc",
				"energy": 0.04851,
				"method": "rhf"
			},
			{
				"type": "unocc",
				"energy": 0.06722,
				"method": "rhf"
			}
		],
		"cosmo_sigma_profile": { 
			"-0.025": 0.0,
			"-0.024": 0.0,
			"-0.023": 0.0,
			"-0.022": 0.0,
			"-0.021": 0.0,
			"-0.02": 0.0,
			"-0.019": 0.0,
			"-0.018": 0.0,
			"-0.017": 0.0,
			"-0.016": 0.0,
			"-0.015": 0.699879119329,
			"-0.014": 1.98334681887,
			"-0.013": 2.00035353875,
			"-0.012": 2.62405716064,
			"-0.011": 3.09877569782,
			"-0.01": 2.50481408998,
			"-0.009": 1.49988441329,
			"-0.008": 1.41938411646,
			"-0.007": 2.76494734064,
			"-0.006": 1.41184016223,
			"-0.005": 2.71918659027,
			"-0.004": 10.312430421,
			"-0.003": 19.4318634841,
			"-0.002": 30.1115660073,
			"-0.001": 34.4037895372,
			"0.0": 24.2359202414,
			"0.001": 18.5586287286,
			"0.002": 14.5894251366,
			"0.003": 12.4594296807,
			"0.004": 10.6494634626,
			"0.005": 4.9734035443,
			"0.006": 2.50005167317,
			"0.007": 2.80510068429,
			"0.008": 3.29208658839,
			"0.009": 3.17657254374,
			"0.01": 3.91212309574,
			"0.011": 3.73709867324,
			"0.012": 2.90040039893,
			"0.013": 2.53412326514,
			"0.014": 1.39771553295,
			"0.015": 0.0265084552848,
			"0.016": 0.0,
			"0.017": 0.0,
			"0.018": 0.0,
			"0.019": 0.0,
			"0.02": 0.0,
			"0.021": 0.0,
			"0.022": 0.0,
			"0.023": 0.0,
			"0.024": 0.0,
			"0.025": 0.0
		}
	}
}
