{
	 "smiles": "NC1=C(NC2=C(F)C=CC=C2)C=C(F)C=C1", 
	 "Tm": 327.15, 
	 "num_atms": 26, 
	 "gaussian": { 
		 "optdone": 1, 
		 "sigma_profile": "yes", 
		 "theory": "DFT", 
		 "functional": "B3LYP", 
		 "basiset": "6-31G**", 
		 "properties": { 
			 "R2extent": 5052.6745, 
			 "electric_dipole_moment_norm": 2.13168789929, 
			 "electric_quadrupole_moment_norm": 9.96764464856, 
			 "total_energy": -772.477713597, 
			 "HOMO_LUMO_gap": 0.18396, 
			 "cosmo_polarized_energy": -9.61, 
			 "cosmo_cavitation_energy": 30.82, 
			 "cosmo_dispersion_energy": -22.06, 
			 "cosmo_repulsion_energy": 1.67, 
			 "cosmo_total_nonelectrostatic_energy": 10.43, 
			 "SMD_solvation_energy": 6.11 
		},
		"coords": [
			{
				"x": -1.9076675329,
				"y": 0.9101775541,
				"z": -0.9309843963,
				"element": "N" 
			},
			{
				"x": -2.3444966783,
				"y": -0.2008530003,
				"z": -0.2084747571,
				"element": "C" 
			},
			{
				"x": -2.0207339378,
				"y": -0.3239744008,
				"z": 1.1630017854,
				"element": "C" 
			},
			{
				"x": -1.3324335698,
				"y": 0.7401061513,
				"z": 1.8131515146,
				"element": "N" 
			},
			{
				"x": 0.054647972,
				"y": 0.9356104881,
				"z": 1.7033397516,
				"element": "C" 
			},
			{
				"x": 0.6791717353,
				"y": 1.770491631,
				"z": 2.6429237405,
				"element": "C" 
			},
			{
				"x": -0.1056626497,
				"y": 2.2860783254,
				"z": 3.6303311618,
				"element": "F" 
			},
			{
				"x": 2.0298412912,
				"y": 2.0635612894,
				"z": 2.6137774511,
				"element": "C" 
			},
			{
				"x": 2.818886785,
				"y": 1.5095291393,
				"z": 1.6004007729,
				"element": "C" 
			},
			{
				"x": 2.2280237993,
				"y": 0.6719487586,
				"z": 0.6546058416,
				"element": "C" 
			},
			{
				"x": 0.8625394118,
				"y": 0.3805596188,
				"z": 0.7013740765,
				"element": "C" 
			},
			{
				"x": -2.4452510783,
				"y": -1.4434078723,
				"z": 1.8861378027,
				"element": "C" 
			},
			{
				"x": -3.1811720793,
				"y": -2.4343596004,
				"z": 1.2513256573,
				"element": "C" 
			},
			{
				"x": -3.5907227219,
				"y": -3.5092673529,
				"z": 1.9645855519,
				"element": "F" 
			},
			{
				"x": -3.494697349,
				"y": -2.3499821753,
				"z": -0.099289315,
				"element": "C" 
			},
			{
				"x": -3.0700534002,
				"y": -1.2357996757,
				"z": -0.8199989538,
				"element": "C" 
			},
			{
				"x": -1.734033324,
				"y": 1.7205045285,
				"z": -0.3480890813,
				"element": "H" 
			},
			{
				"x": -2.4695919321,
				"y": 1.1328997283,
				"z": -1.7413301288,
				"element": "H" 
			},
			{
				"x": -1.6714721768,
				"y": 0.9496832468,
				"z": 2.7431812617,
				"element": "H" 
			},
			{
				"x": 2.4438313711,
				"y": 2.7121960124,
				"z": 3.3785534432,
				"element": "H" 
			},
			{
				"x": 3.8804920666,
				"y": 1.7300345249,
				"z": 1.5590806137,
				"element": "H" 
			},
			{
				"x": 2.8328096458,
				"y": 0.2316459037,
				"z": -0.132500685,
				"element": "H" 
			},
			{
				"x": 0.4160348438,
				"y": -0.2727389842,
				"z": -0.0385312498,
				"element": "H" 
			},
			{
				"x": -2.1974343164,
				"y": -1.5458688029,
				"z": 2.937646645,
				"element": "H" 
			},
			{
				"x": -4.0667552586,
				"y": -3.1416149305,
				"z": -0.5705937935,
				"element": "H" 
			},
			{
				"x": -3.3188009169,
				"y": -1.1536601052,
				"z": -1.8747247111,
				"element": "H" 
			}
		],
		 "valence_orbital": [ 
			{
				"type": "occ",
				"energy": -0.30319,
				"method": "rhf"
			},
			{
				"type": "occ",
				"energy": -0.25623,
				"method": "rhf"
			},
			{
				"type": "occ",
				"energy": -0.2445,
				"method": "rhf"
			},
			{
				"type": "occ",
				"energy": -0.21142,
				"method": "rhf"
			},
			{
				"type": "occ",
				"energy": -0.19761,
				"method": "rhf"
			},
			{
				"type": "unocc",
				"energy": -0.01365,
				"method": "rhf"
			},
			{
				"type": "unocc",
				"energy": 0.00367,
				"method": "rhf"
			},
			{
				"type": "unocc",
				"energy": 0.01508,
				"method": "rhf"
			},
			{
				"type": "unocc",
				"energy": 0.01834,
				"method": "rhf"
			},
			{
				"type": "unocc",
				"energy": 0.08292,
				"method": "rhf"
			}
		],
		"cosmo_sigma_profile": { 
			"-0.025": 0.0,
			"-0.024": 0.0,
			"-0.023": 0.0,
			"-0.022": 0.0,
			"-0.021": 0.0,
			"-0.02": 0.0,
			"-0.019": 0.0,
			"-0.018": 0.0,
			"-0.017": 0.0,
			"-0.016": 0.0,
			"-0.015": 0.0,
			"-0.014": 0.0,
			"-0.013": 0.33593702919,
			"-0.012": 2.35599468465,
			"-0.011": 2.28312756986,
			"-0.01": 3.25205803384,
			"-0.009": 4.31737459278,
			"-0.008": 3.93223462433,
			"-0.007": 7.64851764876,
			"-0.006": 10.8738682231,
			"-0.005": 13.2209933577,
			"-0.004": 14.5574092614,
			"-0.003": 13.6846069878,
			"-0.002": 12.1274117909,
			"-0.001": 12.0841881446,
			"0.0": 12.4567472949,
			"0.001": 17.0787664197,
			"0.002": 24.3368182882,
			"0.003": 23.297276688,
			"0.004": 30.3470018947,
			"0.005": 26.1761668713,
			"0.006": 7.30411910082,
			"0.007": 1.42147113257,
			"0.008": 0.682795712664,
			"0.009": 0.744114848058,
			"0.01": 0.890773070089,
			"0.011": 0.557936066958,
			"0.012": 0.585378416722,
			"0.013": 0.21346914244,
			"0.014": 0.0,
			"0.015": 0.0,
			"0.016": 0.0,
			"0.017": 0.0,
			"0.018": 0.0,
			"0.019": 0.0,
			"0.02": 0.0,
			"0.021": 0.0,
			"0.022": 0.0,
			"0.023": 0.0,
			"0.024": 0.0,
			"0.025": 0.0
		}
	}
}
