{
	 "smiles": "OS(=O)(=O)C1=CC=C(NN=C(/C#N)C2=NC3=C(S2)C=CC=C3)C=C1", 
	 "Tm": 466.15, 
	 "num_atms": 34, 
	 "gaussian": { 
		 "optdone": 1, 
		 "sigma_profile": "yes", 
		 "theory": "DFT", 
		 "functional": "B3LYP", 
		 "basiset": "6-31G**", 
		 "properties": { 
			 "R2extent": 16637.9203, 
			 "electric_dipole_moment_norm": 4.41995450882, 
			 "electric_quadrupole_moment_norm": 20.9742900724, 
			 "total_energy": -1818.557556, 
			 "HOMO_LUMO_gap": 0.12606, 
			 "cosmo_polarized_energy": -24.23, 
			 "cosmo_cavitation_energy": 44.9, 
			 "cosmo_dispersion_energy": -33.06, 
			 "cosmo_repulsion_energy": 2.4, 
			 "cosmo_total_nonelectrostatic_energy": 14.23, 
			 "SMD_solvation_energy": 5.03 
		},
		"coords": [
			{
				"x": 6.7169168585,
				"y": 2.8436901566,
				"z": 0.7093101464,
				"element": "O" 
			},
			{
				"x": 6.333679189,
				"y": 2.1680132518,
				"z": -0.7446809895,
				"element": "S" 
			},
			{
				"x": 6.7070393804,
				"y": 3.1115158794,
				"z": -1.7900351647,
				"element": "O" 
			},
			{
				"x": 6.8693465716,
				"y": 0.8060423998,
				"z": -0.7158508553,
				"element": "O" 
			},
			{
				"x": 4.5605830415,
				"y": 2.123906513,
				"z": -0.6230286539,
				"element": "C" 
			},
			{
				"x": 3.9359983123,
				"y": 1.0035049712,
				"z": -0.0660441523,
				"element": "C" 
			},
			{
				"x": 2.5516491957,
				"y": 0.9637201191,
				"z": 0.0331812955,
				"element": "C" 
			},
			{
				"x": 1.7979797429,
				"y": 2.0548806324,
				"z": -0.4287226971,
				"element": "C" 
			},
			{
				"x": 0.4022014079,
				"y": 2.0578691854,
				"z": -0.3473284159,
				"element": "N" 
			},
			{
				"x": -0.2551080346,
				"y": 1.0383097577,
				"z": 0.1697699578,
				"element": "N" 
			},
			{
				"x": -1.5604262551,
				"y": 1.0625580955,
				"z": 0.2356126038,
				"element": "C" 
			},
			{
				"x": -2.2943738203,
				"y": 2.1981437462,
				"z": -0.253257547,
				"element": "C" 
			},
			{
				"x": -2.7642692868,
				"y": 3.1741855608,
				"z": -0.6823565844,
				"element": "N" 
			},
			{
				"x": -2.2761491516,
				"y": -0.077241725,
				"z": 0.812223982,
				"element": "C" 
			},
			{
				"x": -1.7050928041,
				"y": -1.144116598,
				"z": 1.2795886173,
				"element": "N" 
			},
			{
				"x": -2.6418433695,
				"y": -2.0396843164,
				"z": 1.7536777059,
				"element": "C" 
			},
			{
				"x": -3.9950410634,
				"y": -1.6278964646,
				"z": 1.6388896998,
				"element": "C" 
			},
			{
				"x": -4.0580169128,
				"y": -0.0432810535,
				"z": 0.8994236726,
				"element": "S" 
			},
			{
				"x": -5.0449080246,
				"y": -2.4377784891,
				"z": 2.0792367329,
				"element": "C" 
			},
			{
				"x": -4.726567313,
				"y": -3.6718313691,
				"z": 2.6392422734,
				"element": "C" 
			},
			{
				"x": -3.3891616196,
				"y": -4.0932612284,
				"z": 2.7593968197,
				"element": "C" 
			},
			{
				"x": -2.3453559274,
				"y": -3.2895850835,
				"z": 2.322349664,
				"element": "C" 
			},
			{
				"x": 2.4306313606,
				"y": 3.1730674937,
				"z": -0.9935980347,
				"element": "C" 
			},
			{
				"x": 3.8161117324,
				"y": 3.2075532066,
				"z": -1.093193104,
				"element": "C" 
			},
			{
				"x": 7.438953503,
				"y": 2.3048439061,
				"z": 1.0756443113,
				"element": "H" 
			},
			{
				"x": 4.534109768,
				"y": 0.164054078,
				"z": 0.270950329,
				"element": "H" 
			},
			{
				"x": 2.0429328429,
				"y": 0.105912123,
				"z": 0.4552031364,
				"element": "H" 
			},
			{
				"x": -0.1038795486,
				"y": 2.8711373949,
				"z": -0.7000936707,
				"element": "H" 
			},
			{
				"x": -6.0778844221,
				"y": -2.1181124515,
				"z": 1.9890234696,
				"element": "H" 
			},
			{
				"x": -5.5255236489,
				"y": -4.3187650414,
				"z": 2.9885574175,
				"element": "H" 
			},
			{
				"x": -3.1733550173,
				"y": -5.0615044953,
				"z": 3.2005355291,
				"element": "H" 
			},
			{
				"x": -1.3093570722,
				"y": -3.5997285648,
				"z": 2.4075063981,
				"element": "H" 
			},
			{
				"x": 1.8392681092,
				"y": 4.0088620305,
				"z": -1.3574627319,
				"element": "H" 
			},
			{
				"x": 4.3189122759,
				"y": 4.0575163787,
				"z": -1.5402711607,
				"element": "H" 
			}
		],
		 "valence_orbital": [ 
			{
				"type": "occ",
				"energy": -0.29064,
				"method": "rhf"
			},
			{
				"type": "occ",
				"energy": -0.28775,
				"method": "rhf"
			},
			{
				"type": "occ",
				"energy": -0.26742,
				"method": "rhf"
			},
			{
				"type": "occ",
				"energy": -0.24743,
				"method": "rhf"
			},
			{
				"type": "occ",
				"energy": -0.22924,
				"method": "rhf"
			},
			{
				"type": "unocc",
				"energy": -0.10318,
				"method": "rhf"
			},
			{
				"type": "unocc",
				"energy": -0.03951,
				"method": "rhf"
			},
			{
				"type": "unocc",
				"energy": -0.03615,
				"method": "rhf"
			},
			{
				"type": "unocc",
				"energy": -0.0292,
				"method": "rhf"
			},
			{
				"type": "unocc",
				"energy": -0.0231,
				"method": "rhf"
			}
		],
		"cosmo_sigma_profile": { 
			"-0.025": 0.0,
			"-0.024": 0.0,
			"-0.023": 0.0,
			"-0.022": 0.0,
			"-0.021": 0.0,
			"-0.02": 0.387685977373,
			"-0.019": 1.00148505278,
			"-0.018": 1.26632627213,
			"-0.017": 0.700696787698,
			"-0.016": 1.58744983071,
			"-0.015": 1.74322831046,
			"-0.014": 2.02482818857,
			"-0.013": 1.85608356538,
			"-0.012": 2.56705915477,
			"-0.011": 2.07019884522,
			"-0.01": 2.70837467374,
			"-0.009": 3.00789298865,
			"-0.008": 6.84853577562,
			"-0.007": 14.6476890598,
			"-0.006": 17.5267600479,
			"-0.005": 18.817416287,
			"-0.004": 20.8809743338,
			"-0.003": 16.5224277863,
			"-0.002": 24.3363008726,
			"-0.001": 25.1949085516,
			"0.0": 26.2115104391,
			"0.001": 35.0624944895,
			"0.002": 27.5753089155,
			"0.003": 20.8282983218,
			"0.004": 17.3754914792,
			"0.005": 9.20021413411,
			"0.006": 8.27742252237,
			"0.007": 9.54302587425,
			"0.008": 9.31437949543,
			"0.009": 12.425913712,
			"0.01": 13.6388176633,
			"0.011": 6.43984071066,
			"0.012": 1.58483777395,
			"0.013": 1.46286536962,
			"0.014": 0.936416079184,
			"0.015": 0.0942104929038,
			"0.016": 0.0,
			"0.017": 0.0,
			"0.018": 0.0,
			"0.019": 0.0,
			"0.02": 0.0,
			"0.021": 0.0,
			"0.022": 0.0,
			"0.023": 0.0,
			"0.024": 0.0,
			"0.025": 0.0
		}
	}
}
