{
	 "smiles": "CCC1=CC(=O)NC(=N1)C1=CC(N)=CC=C1", 
	 "Tm": 413.15, 
	 "num_atms": 29, 
	 "gaussian": { 
		 "optdone": 1, 
		 "sigma_profile": "yes", 
		 "theory": "DFT", 
		 "functional": "B3LYP", 
		 "basiset": "6-31G**", 
		 "properties": { 
			 "R2extent": 5044.8818, 
			 "electric_dipole_moment_norm": 5.5250933431, 
			 "electric_quadrupole_moment_norm": 16.3545172307, 
			 "total_energy": -704.625663792, 
			 "HOMO_LUMO_gap": 0.15987, 
			 "cosmo_polarized_energy": -17.43, 
			 "cosmo_cavitation_energy": 33.08, 
			 "cosmo_dispersion_energy": -23.94, 
			 "cosmo_repulsion_energy": 1.89, 
			 "cosmo_total_nonelectrostatic_energy": 11.03, 
			 "SMD_solvation_energy": 5.34 
		},
		"coords": [
			{
				"x": 3.4768327876,
				"y": 2.118813189,
				"z": -2.1229933862,
				"element": "C" 
			},
			{
				"x": 2.4356750561,
				"y": 2.9630722855,
				"z": -1.369424163,
				"element": "C" 
			},
			{
				"x": 1.0211630527,
				"y": 2.5123355132,
				"z": -1.6421229319,
				"element": "C" 
			},
			{
				"x": 0.1200063259,
				"y": 3.2985506638,
				"z": -2.30857239,
				"element": "C" 
			},
			{
				"x": -1.2293804949,
				"y": 2.8381377764,
				"z": -2.5456210058,
				"element": "C" 
			},
			{
				"x": -2.1471225849,
				"y": 3.4283864526,
				"z": -3.100911841,
				"element": "O" 
			},
			{
				"x": -1.4382848178,
				"y": 1.5353586166,
				"z": -2.0279840022,
				"element": "N" 
			},
			{
				"x": -0.4873128798,
				"y": 0.791344733,
				"z": -1.3917698,
				"element": "C" 
			},
			{
				"x": 0.7232271306,
				"y": 1.2464971814,
				"z": -1.1861487317,
				"element": "N" 
			},
			{
				"x": -0.8591168348,
				"y": -0.5660477918,
				"z": -0.9206385718,
				"element": "C" 
			},
			{
				"x": -0.0861910645,
				"y": -1.1498435399,
				"z": 0.088838666,
				"element": "C" 
			},
			{
				"x": -0.3895911301,
				"y": -2.4271336294,
				"z": 0.581444519,
				"element": "C" 
			},
			{
				"x": 0.3448988962,
				"y": -2.9743701152,
				"z": 1.6298430169,
				"element": "N" 
			},
			{
				"x": -1.4876334295,
				"y": -3.1178989476,
				"z": 0.0350046634,
				"element": "C" 
			},
			{
				"x": -2.2465095741,
				"y": -2.5411300614,
				"z": -0.9785489653,
				"element": "C" 
			},
			{
				"x": -1.9458903688,
				"y": -1.2691960583,
				"z": -1.4649332154,
				"element": "C" 
			},
			{
				"x": 3.3635622691,
				"y": 1.0612946598,
				"z": -1.8701694919,
				"element": "H" 
			},
			{
				"x": 3.3580295795,
				"y": 2.2240700525,
				"z": -3.2062573096,
				"element": "H" 
			},
			{
				"x": 4.4921296763,
				"y": 2.432060349,
				"z": -1.8605773345,
				"element": "H" 
			},
			{
				"x": 2.5405296288,
				"y": 4.020600867,
				"z": -1.6323646333,
				"element": "H" 
			},
			{
				"x": 2.6161924252,
				"y": 2.8748343221,
				"z": -0.2907146704,
				"element": "H" 
			},
			{
				"x": 0.3762432093,
				"y": 4.2896335262,
				"z": -2.6635034604,
				"element": "H" 
			},
			{
				"x": -2.386004402,
				"y": 1.1911672385,
				"z": -2.1198494228,
				"element": "H" 
			},
			{
				"x": 0.7541797913,
				"y": -0.5893519885,
				"z": 0.4846774199,
				"element": "H" 
			},
			{
				"x": 1.2754184953,
				"y": -2.6004881918,
				"z": 1.7521633263,
				"element": "H" 
			},
			{
				"x": 0.3211714332,
				"y": -3.981554943,
				"z": 1.7037072727,
				"element": "H" 
			},
			{
				"x": -1.739232331,
				"y": -4.1071810171,
				"z": 0.4088246886,
				"element": "H" 
			},
			{
				"x": -3.0788746587,
				"y": -3.0954335027,
				"z": -1.402085807,
				"element": "H" 
			},
			{
				"x": -2.5269151859,
				"y": -0.86372764,
				"z": -2.2871124385,
				"element": "H" 
			}
		],
		 "valence_orbital": [ 
			{
				"type": "occ",
				"energy": -0.27409,
				"method": "rhf"
			},
			{
				"type": "occ",
				"energy": -0.26358,
				"method": "rhf"
			},
			{
				"type": "occ",
				"energy": -0.24803,
				"method": "rhf"
			},
			{
				"type": "occ",
				"energy": -0.22525,
				"method": "rhf"
			},
			{
				"type": "occ",
				"energy": -0.216,
				"method": "rhf"
			},
			{
				"type": "unocc",
				"energy": -0.05613,
				"method": "rhf"
			},
			{
				"type": "unocc",
				"energy": -0.01194,
				"method": "rhf"
			},
			{
				"type": "unocc",
				"energy": 0.00246,
				"method": "rhf"
			},
			{
				"type": "unocc",
				"energy": 0.0364,
				"method": "rhf"
			},
			{
				"type": "unocc",
				"energy": 0.07089,
				"method": "rhf"
			}
		],
		"cosmo_sigma_profile": { 
			"-0.025": 0.0,
			"-0.024": 0.0,
			"-0.023": 0.0,
			"-0.022": 0.0,
			"-0.021": 0.0,
			"-0.02": 0.0,
			"-0.019": 0.0,
			"-0.018": 0.0,
			"-0.017": 0.0,
			"-0.016": 0.0716112882876,
			"-0.015": 0.801252636324,
			"-0.014": 1.15437010522,
			"-0.013": 1.63068706754,
			"-0.012": 3.78802563955,
			"-0.011": 4.1677001682,
			"-0.01": 3.60882132916,
			"-0.009": 5.13485547674,
			"-0.008": 4.15342348123,
			"-0.007": 6.27514484655,
			"-0.006": 9.39886194792,
			"-0.005": 10.1886640078,
			"-0.004": 13.9808932402,
			"-0.003": 17.5407330084,
			"-0.002": 22.4543790951,
			"-0.001": 24.1928780017,
			"0.0": 20.8943428933,
			"0.001": 22.3827307191,
			"0.002": 15.2323322259,
			"0.003": 11.2948756073,
			"0.004": 13.3460950342,
			"0.005": 14.2763659196,
			"0.006": 5.90431995141,
			"0.007": 3.59144656245,
			"0.008": 3.87199419473,
			"0.009": 3.84797888817,
			"0.01": 2.94038355767,
			"0.011": 2.03903392168,
			"0.012": 1.88832014482,
			"0.013": 4.70943777709,
			"0.014": 6.3582791948,
			"0.015": 1.46068834327,
			"0.016": 0.0421861725257,
			"0.017": 0.0,
			"0.018": 0.0,
			"0.019": 0.0,
			"0.02": 0.0,
			"0.021": 0.0,
			"0.022": 0.0,
			"0.023": 0.0,
			"0.024": 0.0,
			"0.025": 0.0
		}
	}
}
