{
	 "smiles": "OC(=O)CCCC(=O)NC1=C(N=CC=C1)N1CCCC1", 
	 "Tm": 416.15, 
	 "num_atms": 39, 
	 "gaussian": { 
		 "optdone": 1, 
		 "sigma_profile": "yes", 
		 "theory": "DFT", 
		 "functional": "B3LYP", 
		 "basiset": "6-31G**", 
		 "properties": { 
			 "R2extent": 8150.5894, 
			 "electric_dipole_moment_norm": 3.84819839535, 
			 "electric_quadrupole_moment_norm": 12.1646536136, 
			 "total_energy": -934.902316219, 
			 "HOMO_LUMO_gap": 0.17656, 
			 "cosmo_polarized_energy": -22.16, 
			 "cosmo_cavitation_energy": 41.65, 
			 "cosmo_dispersion_energy": -28.82, 
			 "cosmo_repulsion_energy": 2.27, 
			 "cosmo_total_nonelectrostatic_energy": 15.11, 
			 "SMD_solvation_energy": 6.71 
		},
		"coords": [
			{
				"x": -2.0516021789,
				"y": 6.1571547944,
				"z": -3.0487043752,
				"element": "O" 
			},
			{
				"x": -1.5189069978,
				"y": 5.1464600938,
				"z": -2.3202689692,
				"element": "C" 
			},
			{
				"x": -1.2972240853,
				"y": 5.2526850663,
				"z": -1.1322025992,
				"element": "O" 
			},
			{
				"x": -1.2466223815,
				"y": 3.928776094,
				"z": -3.1782043332,
				"element": "C" 
			},
			{
				"x": -0.6769685626,
				"y": 2.7378423356,
				"z": -2.4056004855,
				"element": "C" 
			},
			{
				"x": -1.6657558423,
				"y": 2.1146212333,
				"z": -1.4139579278,
				"element": "C" 
			},
			{
				"x": -1.1419748344,
				"y": 0.7938980443,
				"z": -0.8487206545,
				"element": "C" 
			},
			{
				"x": -0.450756634,
				"y": 0.023971272,
				"z": -1.4993429555,
				"element": "O" 
			},
			{
				"x": -1.5140599633,
				"y": 0.5444102039,
				"z": 0.4547793871,
				"element": "N" 
			},
			{
				"x": -1.3379364964,
				"y": -0.721949753,
				"z": 1.0960720029,
				"element": "C" 
			},
			{
				"x": -0.0657403329,
				"y": -1.2316580787,
				"z": 1.5031744063,
				"element": "C" 
			},
			{
				"x": 0.0358174156,
				"y": -2.4836179679,
				"z": 2.0031704265,
				"element": "N" 
			},
			{
				"x": -1.061817732,
				"y": -3.2174603582,
				"z": 2.1816213525,
				"element": "C" 
			},
			{
				"x": -2.3488278119,
				"y": -2.7773613611,
				"z": 1.8897049145,
				"element": "C" 
			},
			{
				"x": -2.4616496805,
				"y": -1.5100420468,
				"z": 1.3176606373,
				"element": "C" 
			},
			{
				"x": 1.1172092683,
				"y": -0.5488047542,
				"z": 1.4207627911,
				"element": "N" 
			},
			{
				"x": 1.2882001373,
				"y": 0.9050021768,
				"z": 1.3001382742,
				"element": "C" 
			},
			{
				"x": 2.7133541949,
				"y": 1.1475661349,
				"z": 1.8228477765,
				"element": "C" 
			},
			{
				"x": 3.4407828611,
				"y": -0.156639641,
				"z": 1.4670464896,
				"element": "C" 
			},
			{
				"x": 2.3807570813,
				"y": -1.2260905465,
				"z": 1.7514526582,
				"element": "C" 
			},
			{
				"x": -2.1844056824,
				"y": 6.8955105115,
				"z": -2.4305596591,
				"element": "H" 
			},
			{
				"x": -0.5567253758,
				"y": 4.2439682288,
				"z": -3.9710444883,
				"element": "H" 
			},
			{
				"x": -2.1799666621,
				"y": 3.6668081574,
				"z": -3.6931504697,
				"element": "H" 
			},
			{
				"x": 0.2221224087,
				"y": 3.0558244663,
				"z": -1.8664962796,
				"element": "H" 
			},
			{
				"x": -0.3650442872,
				"y": 1.9623632932,
				"z": -3.1104520661,
				"element": "H" 
			},
			{
				"x": -2.6099848977,
				"y": 1.8858377939,
				"z": -1.9299120419,
				"element": "H" 
			},
			{
				"x": -1.8996689123,
				"y": 2.8235405128,
				"z": -0.6140320892,
				"element": "H" 
			},
			{
				"x": -2.162183548,
				"y": 1.1922206603,
				"z": 0.8811321917,
				"element": "H" 
			},
			{
				"x": -0.899214563,
				"y": -4.2144205529,
				"z": 2.5902029487,
				"element": "H" 
			},
			{
				"x": -3.2161013243,
				"y": -3.4033840657,
				"z": 2.0671470414,
				"element": "H" 
			},
			{
				"x": -3.4305940935,
				"y": -1.1254189158,
				"z": 1.0086071124,
				"element": "H" 
			},
			{
				"x": 1.1986112983,
				"y": 1.2228114338,
				"z": 0.2545497872,
				"element": "H" 
			},
			{
				"x": 0.5365845056,
				"y": 1.4440053802,
				"z": 1.8838101693,
				"element": "H" 
			},
			{
				"x": 2.6968178868,
				"y": 1.2829515107,
				"z": 2.9106262299,
				"element": "H" 
			},
			{
				"x": 3.1679149165,
				"y": 2.0389035052,
				"z": 1.381369534,
				"element": "H" 
			},
			{
				"x": 4.3552714248,
				"y": -0.3146765702,
				"z": 2.0453696463,
				"element": "H" 
			},
			{
				"x": 3.7079300277,
				"y": -0.1623749181,
				"z": 0.4041282367,
				"element": "H" 
			},
			{
				"x": 2.3910365902,
				"y": -1.5386089478,
				"z": 2.80462591,
				"element": "H" 
			},
			{
				"x": 2.4985228632,
				"y": -2.1311244254,
				"z": 1.1499494697,
				"element": "H" 
			}
		],
		 "valence_orbital": [ 
			{
				"type": "occ",
				"energy": -0.27963,
				"method": "rhf"
			},
			{
				"type": "occ",
				"energy": -0.25569,
				"method": "rhf"
			},
			{
				"type": "occ",
				"energy": -0.24764,
				"method": "rhf"
			},
			{
				"type": "occ",
				"energy": -0.23778,
				"method": "rhf"
			},
			{
				"type": "occ",
				"energy": -0.1875,
				"method": "rhf"
			},
			{
				"type": "unocc",
				"energy": -0.01094,
				"method": "rhf"
			},
			{
				"type": "unocc",
				"energy": 0.00291,
				"method": "rhf"
			},
			{
				"type": "unocc",
				"energy": 0.0154,
				"method": "rhf"
			},
			{
				"type": "unocc",
				"energy": 0.02846,
				"method": "rhf"
			},
			{
				"type": "unocc",
				"energy": 0.07398,
				"method": "rhf"
			}
		],
		"cosmo_sigma_profile": { 
			"-0.025": 0.0,
			"-0.024": 0.0,
			"-0.023": 0.0,
			"-0.022": 0.0,
			"-0.021": 0.0,
			"-0.02": 0.0,
			"-0.019": 0.0205745267901,
			"-0.018": 0.677481349273,
			"-0.017": 0.857544985318,
			"-0.016": 0.953692469052,
			"-0.015": 0.541817633271,
			"-0.014": 2.0579329577,
			"-0.013": 2.10881502266,
			"-0.012": 1.97826410109,
			"-0.011": 1.80192032428,
			"-0.01": 2.22397606399,
			"-0.009": 1.89006956419,
			"-0.008": 1.99495010414,
			"-0.007": 4.1720980386,
			"-0.006": 12.2391990793,
			"-0.005": 18.7406540999,
			"-0.004": 22.574533409,
			"-0.003": 39.1828112916,
			"-0.002": 43.4566499929,
			"-0.001": 29.480812877,
			"0.0": 22.4107530479,
			"0.001": 13.2357613986,
			"0.002": 11.3690295906,
			"0.003": 12.3644240456,
			"0.004": 14.2442437741,
			"0.005": 10.4991361861,
			"0.006": 7.4974649516,
			"0.007": 5.94435854761,
			"0.008": 6.01463762674,
			"0.009": 6.79668176526,
			"0.01": 6.15412794051,
			"0.011": 5.95859066675,
			"0.012": 7.42168334551,
			"0.013": 4.57299567832,
			"0.014": 5.02726131478,
			"0.015": 0.225562154047,
			"0.016": 0.0,
			"0.017": 0.0,
			"0.018": 0.0,
			"0.019": 0.0,
			"0.02": 0.0,
			"0.021": 0.0,
			"0.022": 0.0,
			"0.023": 0.0,
			"0.024": 0.0,
			"0.025": 0.0
		}
	}
}
