{
	 "smiles": "CCCN(CCC)C(=O)SCC1=CC=CC=C1", 
	 "Tm": 253.15, 
	 "num_atms": 38, 
	 "gaussian": { 
		 "optdone": 1, 
		 "sigma_profile": "yes", 
		 "theory": "DFT", 
		 "functional": "B3LYP", 
		 "basiset": "6-31G**", 
		 "properties": { 
			 "R2extent": 5941.6015, 
			 "electric_dipole_moment_norm": 2.24077869501, 
			 "electric_quadrupole_moment_norm": 10.5778518575, 
			 "total_energy": -1074.34350924, 
			 "HOMO_LUMO_gap": 0.22271, 
			 "cosmo_polarized_energy": -8.98, 
			 "cosmo_cavitation_energy": 40.17, 
			 "cosmo_dispersion_energy": -27.67, 
			 "cosmo_repulsion_energy": 2.14, 
			 "cosmo_total_nonelectrostatic_energy": 14.65, 
			 "SMD_solvation_energy": 6.84 
		},
		"coords": [
			{
				"x": -0.1068336878,
				"y": -4.0699024833,
				"z": -1.441278919,
				"element": "C" 
			},
			{
				"x": -0.944966922,
				"y": -3.7254073319,
				"z": -0.2083322475,
				"element": "C" 
			},
			{
				"x": -2.2541709441,
				"y": -2.9746303398,
				"z": -0.4921183117,
				"element": "C" 
			},
			{
				"x": -2.1060533233,
				"y": -1.6107045213,
				"z": -1.0470007637,
				"element": "N" 
			},
			{
				"x": -2.7860049585,
				"y": -1.311190698,
				"z": -2.3159149173,
				"element": "C" 
			},
			{
				"x": -2.0344668182,
				"y": -1.7657277262,
				"z": -3.5751103971,
				"element": "C" 
			},
			{
				"x": -0.7410960385,
				"y": -0.993519327,
				"z": -3.8481285064,
				"element": "C" 
			},
			{
				"x": -1.6657182001,
				"y": -0.6565307331,
				"z": -0.1729706545,
				"element": "C" 
			},
			{
				"x": -1.3113737439,
				"y": -0.9151124327,
				"z": 0.970620601,
				"element": "O" 
			},
			{
				"x": -1.6182958173,
				"y": 1.0586461429,
				"z": -0.8125431175,
				"element": "S" 
			},
			{
				"x": -0.957949004,
				"y": 1.9004808731,
				"z": 0.6965646748,
				"element": "C" 
			},
			{
				"x": 0.533563112,
				"y": 2.1188746028,
				"z": 0.6864788627,
				"element": "C" 
			},
			{
				"x": 1.0715395308,
				"y": 3.3558921231,
				"z": 0.3103386773,
				"element": "C" 
			},
			{
				"x": 2.4522263572,
				"y": 3.5619938163,
				"z": 0.3067410847,
				"element": "C" 
			},
			{
				"x": 3.3134358273,
				"y": 2.5298366292,
				"z": 0.6812027237,
				"element": "C" 
			},
			{
				"x": 2.7855540967,
				"y": 1.2924483342,
				"z": 1.0591512602,
				"element": "C" 
			},
			{
				"x": 1.4065374843,
				"y": 1.0869531959,
				"z": 1.062204515,
				"element": "C" 
			},
			{
				"x": 0.2235464959,
				"y": -3.1698628594,
				"z": -1.9677028489,
				"element": "H" 
			},
			{
				"x": 0.7890793176,
				"y": -4.6303502999,
				"z": -1.1552139706,
				"element": "H" 
			},
			{
				"x": -0.6686047331,
				"y": -4.6888686379,
				"z": -2.1513228445,
				"element": "H" 
			},
			{
				"x": -1.2238013644,
				"y": -4.6510961573,
				"z": 0.3125041166,
				"element": "H" 
			},
			{
				"x": -0.3575504699,
				"y": -3.1371668977,
				"z": 0.5012443772,
				"element": "H" 
			},
			{
				"x": -2.8268061913,
				"y": -2.9029821707,
				"z": 0.4396032916,
				"element": "H" 
			},
			{
				"x": -2.8556244224,
				"y": -3.5391126567,
				"z": -1.2117044717,
				"element": "H" 
			},
			{
				"x": -3.7721421607,
				"y": -1.792474919,
				"z": -2.2833087551,
				"element": "H" 
			},
			{
				"x": -2.974201563,
				"y": -0.2358411911,
				"z": -2.3672754803,
				"element": "H" 
			},
			{
				"x": -2.7221509424,
				"y": -1.6471754366,
				"z": -4.4226502238,
				"element": "H" 
			},
			{
				"x": -1.8241515384,
				"y": -2.8394839948,
				"z": -3.5028926196,
				"element": "H" 
			},
			{
				"x": -0.9431962736,
				"y": 0.0682806378,
				"z": -4.0230023003,
				"element": "H" 
			},
			{
				"x": -0.2291885909,
				"y": -1.3889155098,
				"z": -4.7312217487,
				"element": "H" 
			},
			{
				"x": -0.0507111004,
				"y": -1.0572369431,
				"z": -3.0018169166,
				"element": "H" 
			},
			{
				"x": -1.4977562133,
				"y": 2.8491181993,
				"z": 0.744043816,
				"element": "H" 
			},
			{
				"x": -1.2667520745,
				"y": 1.2684665855,
				"z": 1.5313205343,
				"element": "H" 
			},
			{
				"x": 0.4044787708,
				"y": 4.164573317,
				"z": 0.0204990822,
				"element": "H" 
			},
			{
				"x": 2.8533646627,
				"y": 4.5284711066,
				"z": 0.0143366283,
				"element": "H" 
			},
			{
				"x": 4.3881347933,
				"y": 2.6886292312,
				"z": 0.6817247192,
				"element": "H" 
			},
			{
				"x": 3.4506476218,
				"y": 0.4860953911,
				"z": 1.356104053,
				"element": "H" 
			},
			{
				"x": 0.9907590256,
				"y": 0.1267330814,
				"z": 1.3525269972,
				"element": "H" 
			}
		],
		 "valence_orbital": [ 
			{
				"type": "occ",
				"energy": -0.25788,
				"method": "rhf"
			},
			{
				"type": "occ",
				"energy": -0.25206,
				"method": "rhf"
			},
			{
				"type": "occ",
				"energy": -0.24316,
				"method": "rhf"
			},
			{
				"type": "occ",
				"energy": -0.24112,
				"method": "rhf"
			},
			{
				"type": "occ",
				"energy": -0.22904,
				"method": "rhf"
			},
			{
				"type": "unocc",
				"energy": -0.00633,
				"method": "rhf"
			},
			{
				"type": "unocc",
				"energy": 0.00422,
				"method": "rhf"
			},
			{
				"type": "unocc",
				"energy": 0.02541,
				"method": "rhf"
			},
			{
				"type": "unocc",
				"energy": 0.04191,
				"method": "rhf"
			},
			{
				"type": "unocc",
				"energy": 0.07469,
				"method": "rhf"
			}
		],
		"cosmo_sigma_profile": { 
			"-0.025": 0.0,
			"-0.024": 0.0,
			"-0.023": 0.0,
			"-0.022": 0.0,
			"-0.021": 0.0,
			"-0.02": 0.0,
			"-0.019": 0.0,
			"-0.018": 0.0,
			"-0.017": 0.0,
			"-0.016": 0.0,
			"-0.015": 0.0,
			"-0.014": 0.0,
			"-0.013": 0.0,
			"-0.012": 0.0,
			"-0.011": 0.0,
			"-0.01": 0.0,
			"-0.009": 0.0,
			"-0.008": 0.0,
			"-0.007": 0.755118491882,
			"-0.006": 8.30705959768,
			"-0.005": 16.5025481373,
			"-0.004": 21.7573696451,
			"-0.003": 39.4274702749,
			"-0.002": 37.7434306887,
			"-0.001": 34.9554946583,
			"0.0": 35.2411297917,
			"0.001": 31.6142837826,
			"0.002": 21.0805042124,
			"0.003": 13.4747218349,
			"0.004": 14.0858256242,
			"0.005": 13.1040224642,
			"0.006": 14.4057180312,
			"0.007": 4.94531240734,
			"0.008": 2.97171177846,
			"0.009": 0.86416797065,
			"0.01": 1.52790119666,
			"0.011": 1.38039444043,
			"0.012": 1.97596137521,
			"0.013": 0.797953806073,
			"0.014": 0.0,
			"0.015": 0.0,
			"0.016": 0.0,
			"0.017": 0.0,
			"0.018": 0.0,
			"0.019": 0.0,
			"0.02": 0.0,
			"0.021": 0.0,
			"0.022": 0.0,
			"0.023": 0.0,
			"0.024": 0.0,
			"0.025": 0.0
		}
	}
}
