{
	 "smiles": "CCC1=CC=C(C=C1)S(Cl)(=O)=O", 
	 "Tm": 283.15, 
	 "num_atms": 21, 
	 "gaussian": { 
		 "optdone": 1, 
		 "sigma_profile": "yes", 
		 "theory": "DFT", 
		 "functional": "B3LYP", 
		 "basiset": "6-31G**", 
		 "properties": { 
			 "R2extent": 5371.4665, 
			 "electric_dipole_moment_norm": 6.24870541072, 
			 "electric_quadrupole_moment_norm": 17.8538954315, 
			 "total_energy": -1319.04615432, 
			 "HOMO_LUMO_gap": 0.19119, 
			 "cosmo_polarized_energy": -9.02, 
			 "cosmo_cavitation_energy": 28.33, 
			 "cosmo_dispersion_energy": -20.89, 
			 "cosmo_repulsion_energy": 1.64, 
			 "cosmo_total_nonelectrostatic_energy": 9.09, 
			 "SMD_solvation_energy": 3.51 
		},
		"coords": [
			{
				"x": 0.4412934346,
				"y": 1.1191214254,
				"z": -2.3892477344,
				"element": "C" 
			},
			{
				"x": 0.9911306567,
				"y": 0.9797463123,
				"z": -0.957060521,
				"element": "C" 
			},
			{
				"x": 0.1499762521,
				"y": 0.0600573059,
				"z": -0.1001459478,
				"element": "C" 
			},
			{
				"x": -0.9305666302,
				"y": 0.5622834592,
				"z": 0.6413794695,
				"element": "C" 
			},
			{
				"x": -1.7367729855,
				"y": -0.2792897958,
				"z": 1.4032858024,
				"element": "C" 
			},
			{
				"x": -1.4445405026,
				"y": -1.6437012065,
				"z": 1.4178656988,
				"element": "C" 
			},
			{
				"x": -0.3773478264,
				"y": -2.1808975531,
				"z": 0.6969405864,
				"element": "C" 
			},
			{
				"x": 0.413469714,
				"y": -1.3177577738,
				"z": -0.0569312834,
				"element": "C" 
			},
			{
				"x": -2.4525284565,
				"y": -2.7317895504,
				"z": 2.4070358933,
				"element": "S" 
			},
			{
				"x": -3.9696351722,
				"y": -3.2958771294,
				"z": 1.0066225947,
				"element": "Cl" 
			},
			{
				"x": -1.7087722167,
				"y": -3.9502236672,
				"z": 2.7032936728,
				"element": "O" 
			},
			{
				"x": -3.1306153438,
				"y": -1.9612091689,
				"z": 3.4423716599,
				"element": "O" 
			},
			{
				"x": -0.5751686552,
				"y": 1.5250475152,
				"z": -2.3828266894,
				"element": "H" 
			},
			{
				"x": 0.4089453691,
				"y": 0.1487568315,
				"z": -2.8945800236,
				"element": "H" 
			},
			{
				"x": 1.0718978432,
				"y": 1.789986473,
				"z": -2.9807825325,
				"element": "H" 
			},
			{
				"x": 2.0185940153,
				"y": 0.6007028775,
				"z": -0.9985483831,
				"element": "H" 
			},
			{
				"x": 1.0400175337,
				"y": 1.9698021172,
				"z": -0.4896368996,
				"element": "H" 
			},
			{
				"x": -1.1391039851,
				"y": 1.6286005372,
				"z": 0.6276707024,
				"element": "H" 
			},
			{
				"x": -2.5648015753,
				"y": 0.1088219762,
				"z": 1.9857697606,
				"element": "H" 
			},
			{
				"x": -0.1680394492,
				"y": -3.243842216,
				"z": 0.7404216601,
				"element": "H" 
			},
			{
				"x": 1.2543679799,
				"y": -1.7193387695,
				"z": -0.6157974862,
				"element": "H" 
			}
		],
		 "valence_orbital": [ 
			{
				"type": "occ",
				"energy": -0.33189,
				"method": "rhf"
			},
			{
				"type": "occ",
				"energy": -0.3267,
				"method": "rhf"
			},
			{
				"type": "occ",
				"energy": -0.30911,
				"method": "rhf"
			},
			{
				"type": "occ",
				"energy": -0.28459,
				"method": "rhf"
			},
			{
				"type": "occ",
				"energy": -0.27791,
				"method": "rhf"
			},
			{
				"type": "unocc",
				"energy": -0.08672,
				"method": "rhf"
			},
			{
				"type": "unocc",
				"energy": -0.0394,
				"method": "rhf"
			},
			{
				"type": "unocc",
				"energy": -0.03479,
				"method": "rhf"
			},
			{
				"type": "unocc",
				"energy": 0.05077,
				"method": "rhf"
			},
			{
				"type": "unocc",
				"energy": 0.07688,
				"method": "rhf"
			}
		],
		"cosmo_sigma_profile": { 
			"-0.025": 0.0,
			"-0.024": 0.0,
			"-0.023": 0.0,
			"-0.022": 0.0,
			"-0.021": 0.0,
			"-0.02": 0.0,
			"-0.019": 0.0,
			"-0.018": 0.0,
			"-0.017": 0.0,
			"-0.016": 0.0,
			"-0.015": 0.0,
			"-0.014": 0.0,
			"-0.013": 0.0,
			"-0.012": 0.0,
			"-0.011": 0.0,
			"-0.01": 0.0,
			"-0.009": 0.0655449355789,
			"-0.008": 2.39389487176,
			"-0.007": 6.81447991964,
			"-0.006": 10.5689306623,
			"-0.005": 11.6506318862,
			"-0.004": 13.9448105561,
			"-0.003": 19.0088023414,
			"-0.002": 19.8631245901,
			"-0.001": 23.0120157372,
			"0.0": 23.550345077,
			"0.001": 22.6512767431,
			"0.002": 19.2604279913,
			"0.003": 14.6244739623,
			"0.004": 12.5491088879,
			"0.005": 3.60593023782,
			"0.006": 3.38529955722,
			"0.007": 5.55599612894,
			"0.008": 9.69315117241,
			"0.009": 5.8004685051,
			"0.01": 0.142671993724,
			"0.011": 0.0,
			"0.012": 0.0,
			"0.013": 0.0,
			"0.014": 0.0,
			"0.015": 0.0,
			"0.016": 0.0,
			"0.017": 0.0,
			"0.018": 0.0,
			"0.019": 0.0,
			"0.02": 0.0,
			"0.021": 0.0,
			"0.022": 0.0,
			"0.023": 0.0,
			"0.024": 0.0,
			"0.025": 0.0
		}
	}
}
