{
	 "smiles": "CC1=NC(=C(Br)N1CCC#N)[N+]([O-])=O", 
	 "Tm": 427.15, 
	 "num_atms": 21, 
	 "gaussian": { 
		 "optdone": 1, 
		 "sigma_profile": "yes", 
		 "theory": "DFT", 
		 "functional": "B3LYP", 
		 "basiset": "6-31G**", 
		 "properties": { 
			 "R2extent": 6244.3009, 
			 "electric_dipole_moment_norm": 8.08875600448, 
			 "electric_quadrupole_moment_norm": 37.220841178, 
			 "total_energy": -3211.68991714, 
			 "HOMO_LUMO_gap": 0.17831, 
			 "cosmo_polarized_energy": -24.46, 
			 "cosmo_cavitation_energy": 28.96, 
			 "cosmo_dispersion_energy": -20.39, 
			 "cosmo_repulsion_energy": 1.61, 
			 "cosmo_total_nonelectrostatic_energy": 10.17, 
			 "SMD_solvation_energy": 6.12 
		},
		"coords": [
			{
				"x": -0.3898415827,
				"y": -0.8160741907,
				"z": -3.2919582355,
				"element": "C" 
			},
			{
				"x": -0.1855559825,
				"y": -1.8520230919,
				"z": -2.235830594,
				"element": "C" 
			},
			{
				"x": -0.4937475273,
				"y": -3.1222818079,
				"z": -2.3638500431,
				"element": "N" 
			},
			{
				"x": -0.1415847994,
				"y": -3.713788409,
				"z": -1.1898586865,
				"element": "C" 
			},
			{
				"x": 0.398530803,
				"y": -2.7976990986,
				"z": -0.3130689624,
				"element": "C" 
			},
			{
				"x": 1.0918046447,
				"y": -2.9414517454,
				"z": 1.4142417215,
				"element": "Br" 
			},
			{
				"x": 0.3690406511,
				"y": -1.5927235285,
				"z": -0.9892965895,
				"element": "N" 
			},
			{
				"x": 0.8448490238,
				"y": -0.3111058319,
				"z": -0.4805383845,
				"element": "C" 
			},
			{
				"x": -0.1512423511,
				"y": 0.3846191241,
				"z": 0.4733939886,
				"element": "C" 
			},
			{
				"x": -1.393056355,
				"y": 0.7887743253,
				"z": -0.1887680355,
				"element": "C" 
			},
			{
				"x": -2.3624244781,
				"y": 1.1091195609,
				"z": -0.7405490315,
				"element": "N" 
			},
			{
				"x": -0.3366206479,
				"y": -5.1282617828,
				"z": -0.973650647,
				"element": "N" 
			},
			{
				"x": 0.016397701,
				"y": -5.5742653254,
				"z": 0.1233064442,
				"element": "O" 
			},
			{
				"x": -0.833005756,
				"y": -5.7811794918,
				"z": -1.8843408275,
				"element": "O" 
			},
			{
				"x": -1.0795545162,
				"y": -0.0309050185,
				"z": -2.9677562755,
				"element": "H" 
			},
			{
				"x": 0.5532225282,
				"y": -0.3452638909,
				"z": -3.5934940481,
				"element": "H" 
			},
			{
				"x": -0.8153583481,
				"y": -1.3159334578,
				"z": -4.1627893403,
				"element": "H" 
			},
			{
				"x": 1.060122268,
				"y": 0.3285390977,
				"z": -1.3376499336,
				"element": "H" 
			},
			{
				"x": 1.7788062464,
				"y": -0.4807140056,
				"z": 0.0598088782,
				"element": "H" 
			},
			{
				"x": 0.3300602552,
				"y": 1.276222993,
				"z": 0.8914650173,
				"element": "H" 
			},
			{
				"x": -0.3867417773,
				"y": -0.2787044245,
				"z": 1.3117835848,
				"element": "H" 
			}
		],
		 "valence_orbital": [ 
			{
				"type": "occ",
				"energy": -0.30832,
				"method": "rhf"
			},
			{
				"type": "occ",
				"energy": -0.29953,
				"method": "rhf"
			},
			{
				"type": "occ",
				"energy": -0.29689,
				"method": "rhf"
			},
			{
				"type": "occ",
				"energy": -0.27956,
				"method": "rhf"
			},
			{
				"type": "occ",
				"energy": -0.25607,
				"method": "rhf"
			},
			{
				"type": "unocc",
				"energy": -0.07776,
				"method": "rhf"
			},
			{
				"type": "unocc",
				"energy": -0.02109,
				"method": "rhf"
			},
			{
				"type": "unocc",
				"energy": -0.01427,
				"method": "rhf"
			},
			{
				"type": "unocc",
				"energy": 0.00266,
				"method": "rhf"
			},
			{
				"type": "unocc",
				"energy": 0.01229,
				"method": "rhf"
			}
		],
		"cosmo_sigma_profile": { 
			"-0.025": 0.0,
			"-0.024": 0.0,
			"-0.023": 0.0,
			"-0.022": 0.0,
			"-0.021": 0.0,
			"-0.02": 0.0,
			"-0.019": 0.0,
			"-0.018": 0.0,
			"-0.017": 0.0,
			"-0.016": 0.0,
			"-0.015": 0.0,
			"-0.014": 0.0,
			"-0.013": 0.0,
			"-0.012": 0.0,
			"-0.011": 0.00107394655666,
			"-0.01": 4.92807405588,
			"-0.009": 11.0927694415,
			"-0.008": 12.350227958,
			"-0.007": 12.0339302884,
			"-0.006": 15.9982277179,
			"-0.005": 12.3794561338,
			"-0.004": 13.5993988797,
			"-0.003": 16.2532323387,
			"-0.002": 18.9005493451,
			"-0.001": 12.6270203763,
			"0.0": 9.47208825113,
			"0.001": 9.35906076176,
			"0.002": 7.55610512157,
			"0.003": 6.14262434381,
			"0.004": 6.12589622966,
			"0.005": 7.28284286077,
			"0.006": 5.390830682,
			"0.007": 8.87540027122,
			"0.008": 14.3671887497,
			"0.009": 10.0964037308,
			"0.01": 7.64184920899,
			"0.011": 4.27584331444,
			"0.012": 3.6868604187,
			"0.013": 2.41692039976,
			"0.014": 1.07235754129,
			"0.015": 1.02780772932,
			"0.016": 0.617277391203,
			"0.017": 0.0,
			"0.018": 0.0,
			"0.019": 0.0,
			"0.02": 0.0,
			"0.021": 0.0,
			"0.022": 0.0,
			"0.023": 0.0,
			"0.024": 0.0,
			"0.025": 0.0
		}
	}
}
