{
	 "smiles": "OC(=O)CN1C(=O)COC2=C1C=CC(Br)=C2", 
	 "Tm": 508.15, 
	 "num_atms": 24, 
	 "gaussian": { 
		 "optdone": 1, 
		 "sigma_profile": "yes", 
		 "theory": "DFT", 
		 "functional": "B3LYP", 
		 "basiset": "6-31G**", 
		 "properties": { 
			 "R2extent": 6906.6741, 
			 "electric_dipole_moment_norm": 3.19379918123, 
			 "electric_quadrupole_moment_norm": 12.7572882883, 
			 "total_energy": -3312.94905307, 
			 "HOMO_LUMO_gap": 0.18906, 
			 "cosmo_polarized_energy": -14.72, 
			 "cosmo_cavitation_energy": 30.4, 
			 "cosmo_dispersion_energy": -22.93, 
			 "cosmo_repulsion_energy": 1.76, 
			 "cosmo_total_nonelectrostatic_energy": 9.22, 
			 "SMD_solvation_energy": 5.62 
		},
		"coords": [
			{
				"x": -0.531205751,
				"y": 3.000365985,
				"z": 1.2943497906,
				"element": "O" 
			},
			{
				"x": 0.4897731936,
				"y": 2.8277476337,
				"z": 0.443436892,
				"element": "C" 
			},
			{
				"x": 1.6131769574,
				"y": 3.2019229403,
				"z": 0.6848070625,
				"element": "O" 
			},
			{
				"x": 0.1226805085,
				"y": 2.1091856571,
				"z": -0.8657463584,
				"element": "C" 
			},
			{
				"x": -0.2575938372,
				"y": 0.7062822437,
				"z": -0.65511092,
				"element": "N" 
			},
			{
				"x": -1.5379937303,
				"y": 0.4389642576,
				"z": -0.2673463053,
				"element": "C" 
			},
			{
				"x": -2.340780067,
				"y": 1.3263163894,
				"z": 0.035728309,
				"element": "O" 
			},
			{
				"x": -1.9081510393,
				"y": -1.0326096696,
				"z": -0.1972417138,
				"element": "C" 
			},
			{
				"x": -1.1657526812,
				"y": -1.844306011,
				"z": -1.1043383884,
				"element": "O" 
			},
			{
				"x": 0.1874103814,
				"y": -1.6355001718,
				"z": -1.050447745,
				"element": "C" 
			},
			{
				"x": 0.6867993879,
				"y": -0.3456599185,
				"z": -0.8053743575,
				"element": "C" 
			},
			{
				"x": 2.0663969597,
				"y": -0.1410661786,
				"z": -0.7396672076,
				"element": "C" 
			},
			{
				"x": 2.9418530422,
				"y": -1.2046607336,
				"z": -0.9669079821,
				"element": "C" 
			},
			{
				"x": 2.4267546116,
				"y": -2.4688570627,
				"z": -1.2453084968,
				"element": "C" 
			},
			{
				"x": 3.620171797,
				"y": -3.9230902115,
				"z": -1.5616711267,
				"element": "Br" 
			},
			{
				"x": 1.0520510183,
				"y": -2.7011751091,
				"z": -1.2765718235,
				"element": "C" 
			},
			{
				"x": -1.3489696538,
				"y": 2.598707668,
				"z": 0.9219381994,
				"element": "H" 
			},
			{
				"x": 0.9758919507,
				"y": 2.1466574343,
				"z": -1.5399567702,
				"element": "H" 
			},
			{
				"x": -0.7303753157,
				"y": 2.611259679,
				"z": -1.3320445822,
				"element": "H" 
			},
			{
				"x": -1.7708602185,
				"y": -1.3820018581,
				"z": 0.8378708529,
				"element": "H" 
			},
			{
				"x": -2.9614379739,
				"y": -1.1317884012,
				"z": -0.4605555466,
				"element": "H" 
			},
			{
				"x": 2.4618983179,
				"y": 0.8391449205,
				"z": -0.4942595041,
				"element": "H" 
			},
			{
				"x": 4.0123744159,
				"y": -1.0465813958,
				"z": -0.9208797754,
				"element": "H" 
			},
			{
				"x": 0.6431877258,
				"y": -3.684258087,
				"z": -1.4747025026,
				"element": "H" 
			}
		],
		 "valence_orbital": [ 
			{
				"type": "occ",
				"energy": -0.30039,
				"method": "rhf"
			},
			{
				"type": "occ",
				"energy": -0.29755,
				"method": "rhf"
			},
			{
				"type": "occ",
				"energy": -0.27718,
				"method": "rhf"
			},
			{
				"type": "occ",
				"energy": -0.26574,
				"method": "rhf"
			},
			{
				"type": "occ",
				"energy": -0.23703,
				"method": "rhf"
			},
			{
				"type": "unocc",
				"energy": -0.04797,
				"method": "rhf"
			},
			{
				"type": "unocc",
				"energy": -0.02983,
				"method": "rhf"
			},
			{
				"type": "unocc",
				"energy": -0.00911,
				"method": "rhf"
			},
			{
				"type": "unocc",
				"energy": -0.00551,
				"method": "rhf"
			},
			{
				"type": "unocc",
				"energy": -0.00287,
				"method": "rhf"
			}
		],
		"cosmo_sigma_profile": { 
			"-0.025": 0.0,
			"-0.024": 0.0,
			"-0.023": 0.0,
			"-0.022": 0.0,
			"-0.021": 0.0,
			"-0.02": 0.0,
			"-0.019": 0.0,
			"-0.018": 0.0,
			"-0.017": 0.0,
			"-0.016": 0.0,
			"-0.015": 0.0,
			"-0.014": 0.0,
			"-0.013": 0.0,
			"-0.012": 0.0,
			"-0.011": 0.0942614147447,
			"-0.01": 1.36178093191,
			"-0.009": 6.73140276627,
			"-0.008": 11.228588691,
			"-0.007": 14.2241164676,
			"-0.006": 17.3835153785,
			"-0.005": 15.5291736955,
			"-0.004": 13.2143540751,
			"-0.003": 11.6658300454,
			"-0.002": 12.2538437367,
			"-0.001": 12.4789349929,
			"0.0": 14.1120356782,
			"0.001": 18.7101071493,
			"0.002": 21.299232592,
			"0.003": 15.3042169045,
			"0.004": 14.5087351247,
			"0.005": 8.04935983612,
			"0.006": 4.0410559106,
			"0.007": 4.53573206455,
			"0.008": 5.21469260888,
			"0.009": 6.36852661362,
			"0.01": 6.75161639092,
			"0.011": 7.14540874097,
			"0.012": 4.26860776735,
			"0.013": 0.667680500649,
			"0.014": 0.0,
			"0.015": 0.0,
			"0.016": 0.0,
			"0.017": 0.0,
			"0.018": 0.0,
			"0.019": 0.0,
			"0.02": 0.0,
			"0.021": 0.0,
			"0.022": 0.0,
			"0.023": 0.0,
			"0.024": 0.0,
			"0.025": 0.0
		}
	}
}
