{
	 "smiles": "OC(=O)CC(N1CCOC1=O)C1=CC=CC=C1", 
	 "Tm": 397.15, 
	 "num_atms": 30, 
	 "gaussian": { 
		 "optdone": 1, 
		 "sigma_profile": "yes", 
		 "theory": "DFT", 
		 "functional": "B3LYP", 
		 "basiset": "6-31G**", 
		 "properties": { 
			 "R2extent": 4164.8023, 
			 "electric_dipole_moment_norm": 4.84739166253, 
			 "electric_quadrupole_moment_norm": 14.5986201992, 
			 "total_energy": -820.781032701, 
			 "HOMO_LUMO_gap": 0.2255, 
			 "cosmo_polarized_energy": -20.39, 
			 "cosmo_cavitation_energy": 33.22, 
			 "cosmo_dispersion_energy": -22.98, 
			 "cosmo_repulsion_energy": 1.8, 
			 "cosmo_total_nonelectrostatic_energy": 12.04, 
			 "SMD_solvation_energy": 7.69 
		},
		"coords": [
			{
				"x": 3.4362722149,
				"y": -1.6523436249,
				"z": 0.3589885684,
				"element": "O" 
			},
			{
				"x": 2.2050717419,
				"y": -1.9802018524,
				"z": 0.8013254979,
				"element": "C" 
			},
			{
				"x": 1.9860424557,
				"y": -2.2556593092,
				"z": 1.9638207325,
				"element": "O" 
			},
			{
				"x": 1.1857072993,
				"y": -1.9777674492,
				"z": -0.3245075659,
				"element": "C" 
			},
			{
				"x": 0.0142589114,
				"y": -0.9757339924,
				"z": -0.1514964618,
				"element": "C" 
			},
			{
				"x": -0.9507018981,
				"y": -1.3947661293,
				"z": 0.8713920185,
				"element": "N" 
			},
			{
				"x": -1.0648201853,
				"y": -2.7287189803,
				"z": 1.4585966926,
				"element": "C" 
			},
			{
				"x": -2.2879615419,
				"y": -2.506773286,
				"z": 2.3542493129,
				"element": "C" 
			},
			{
				"x": -3.0420937396,
				"y": -1.4837395219,
				"z": 1.6812095875,
				"element": "O" 
			},
			{
				"x": -2.2028377509,
				"y": -0.7997053719,
				"z": 0.8420599031,
				"element": "C" 
			},
			{
				"x": -2.544958092,
				"y": 0.1564279945,
				"z": 0.1879624286,
				"element": "O" 
			},
			{
				"x": 0.541250905,
				"y": 0.434956832,
				"z": 0.1017850747,
				"element": "C" 
			},
			{
				"x": 0.8009411929,
				"y": 1.2752812725,
				"z": -0.9862171855,
				"element": "C" 
			},
			{
				"x": 1.3439776712,
				"y": 2.54513277,
				"z": -0.7912362596,
				"element": "C" 
			},
			{
				"x": 1.629663919,
				"y": 2.9918716667,
				"z": 0.5001025283,
				"element": "C" 
			},
			{
				"x": 1.3671850378,
				"y": 2.161435056,
				"z": 1.5909572255,
				"element": "C" 
			},
			{
				"x": 0.8277254254,
				"y": 0.8894232205,
				"z": 1.3942758978,
				"element": "C" 
			},
			{
				"x": 4.0221704692,
				"y": -1.6723276699,
				"z": 1.1353516965,
				"element": "H" 
			},
			{
				"x": 0.7996997951,
				"y": -2.997632426,
				"z": -0.4295500922,
				"element": "H" 
			},
			{
				"x": 1.6989938089,
				"y": -1.7235355885,
				"z": -1.253256873,
				"element": "H" 
			},
			{
				"x": -0.5058414484,
				"y": -0.9589918941,
				"z": -1.1193138393,
				"element": "H" 
			},
			{
				"x": -1.267903876,
				"y": -3.497871841,
				"z": 0.6960746006,
				"element": "H" 
			},
			{
				"x": -0.1694015822,
				"y": -3.000139272,
				"z": 2.0177426246,
				"element": "H" 
			},
			{
				"x": -1.9975821857,
				"y": -2.1403966815,
				"z": 3.3458120817,
				"element": "H" 
			},
			{
				"x": -2.9195930132,
				"y": -3.390232726,
				"z": 2.4624199927,
				"element": "H" 
			},
			{
				"x": 0.5626256043,
				"y": 0.9393861136,
				"z": -1.9928487194,
				"element": "H" 
			},
			{
				"x": 1.5322530234,
				"y": 3.1886628159,
				"z": -1.6458761188,
				"element": "H" 
			},
			{
				"x": 2.045010037,
				"y": 3.9834618988,
				"z": 0.655445918,
				"element": "H" 
			},
			{
				"x": 1.5777781969,
				"y": 2.5054135393,
				"z": 2.599778975,
				"element": "H" 
			},
			{
				"x": 0.6163676037,
				"y": 0.2480844367,
				"z": 2.2434517584,
				"element": "H" 
			}
		],
		 "valence_orbital": [ 
			{
				"type": "occ",
				"energy": -0.28661,
				"method": "rhf"
			},
			{
				"type": "occ",
				"energy": -0.27034,
				"method": "rhf"
			},
			{
				"type": "occ",
				"energy": -0.25292,
				"method": "rhf"
			},
			{
				"type": "occ",
				"energy": -0.24737,
				"method": "rhf"
			},
			{
				"type": "occ",
				"energy": -0.23765,
				"method": "rhf"
			},
			{
				"type": "unocc",
				"energy": -0.01215,
				"method": "rhf"
			},
			{
				"type": "unocc",
				"energy": -0.00265,
				"method": "rhf"
			},
			{
				"type": "unocc",
				"energy": 0.00314,
				"method": "rhf"
			},
			{
				"type": "unocc",
				"energy": 0.04907,
				"method": "rhf"
			},
			{
				"type": "unocc",
				"energy": 0.06855,
				"method": "rhf"
			}
		],
		"cosmo_sigma_profile": { 
			"-0.025": 0.0,
			"-0.024": 0.0,
			"-0.023": 0.0,
			"-0.022": 0.0,
			"-0.021": 0.0,
			"-0.02": 0.0,
			"-0.019": 0.040122033372,
			"-0.018": 0.839922314483,
			"-0.017": 1.00318766418,
			"-0.016": 1.04562527149,
			"-0.015": 0.595676078878,
			"-0.014": 0.720226360124,
			"-0.013": 0.672550878086,
			"-0.012": 0.574880191897,
			"-0.011": 0.95681472894,
			"-0.01": 0.671782827707,
			"-0.009": 0.332322936698,
			"-0.008": 1.89150207185,
			"-0.007": 11.2167382919,
			"-0.006": 25.3731082438,
			"-0.005": 27.7357473604,
			"-0.004": 22.2244852739,
			"-0.003": 18.8626589908,
			"-0.002": 12.2498490079,
			"-0.001": 12.5289805435,
			"0.0": 10.7069604819,
			"0.001": 11.7702209431,
			"0.002": 10.8222342743,
			"0.003": 12.0637348511,
			"0.004": 12.3872775054,
			"0.005": 12.1847641827,
			"0.006": 11.3332024037,
			"0.007": 5.67637164783,
			"0.008": 4.99999051525,
			"0.009": 6.39606370654,
			"0.01": 6.93419924641,
			"0.011": 6.02437797394,
			"0.012": 6.36879353701,
			"0.013": 4.53380708866,
			"0.014": 1.13904258542,
			"0.015": 0.0,
			"0.016": 0.0,
			"0.017": 0.0,
			"0.018": 0.0,
			"0.019": 0.0,
			"0.02": 0.0,
			"0.021": 0.0,
			"0.022": 0.0,
			"0.023": 0.0,
			"0.024": 0.0,
			"0.025": 0.0
		}
	}
}
