{
	 "smiles": "NC1=NC(=NC=C1C#N)N1CCCCC1", 
	 "Tm": 494.15, 
	 "num_atms": 28, 
	 "gaussian": { 
		 "optdone": 1, 
		 "sigma_profile": "yes", 
		 "theory": "DFT", 
		 "functional": "B3LYP", 
		 "basiset": "6-31G**", 
		 "properties": { 
			 "R2extent": 4209.6189, 
			 "electric_dipole_moment_norm": 5.25089886781, 
			 "electric_quadrupole_moment_norm": 20.5383782507, 
			 "total_energy": -662.679734016, 
			 "HOMO_LUMO_gap": 0.18253, 
			 "cosmo_polarized_energy": -12.79, 
			 "cosmo_cavitation_energy": 31.04, 
			 "cosmo_dispersion_energy": -22.68, 
			 "cosmo_repulsion_energy": 1.79, 
			 "cosmo_total_nonelectrostatic_energy": 10.15, 
			 "SMD_solvation_energy": 3.7 
		},
		"coords": [
			{
				"x": 1.2473948682,
				"y": 2.9584382769,
				"z": -1.9989554883,
				"element": "N" 
			},
			{
				"x": 0.32370287,
				"y": 2.0058572531,
				"z": -1.7341087596,
				"element": "C" 
			},
			{
				"x": 0.6666693815,
				"y": 1.0314669431,
				"z": -0.8917689418,
				"element": "N" 
			},
			{
				"x": -0.2502296911,
				"y": 0.0756571982,
				"z": -0.6334779098,
				"element": "C" 
			},
			{
				"x": -1.5050154454,
				"y": 0.0202183148,
				"z": -1.1568424454,
				"element": "N" 
			},
			{
				"x": -1.8294708161,
				"y": 0.9968081475,
				"z": -1.9895459138,
				"element": "C" 
			},
			{
				"x": -0.9693617984,
				"y": 2.0440166795,
				"z": -2.3416449035,
				"element": "C" 
			},
			{
				"x": -1.3310480889,
				"y": 3.0855292153,
				"z": -3.2329162651,
				"element": "C" 
			},
			{
				"x": -1.5728546501,
				"y": 3.9675720735,
				"z": -3.9576007609,
				"element": "N" 
			},
			{
				"x": 0.1064579417,
				"y": -0.9216495246,
				"z": 0.2217941866,
				"element": "N" 
			},
			{
				"x": -0.8093950754,
				"y": -2.0019610778,
				"z": 0.5951343752,
				"element": "C" 
			},
			{
				"x": -0.1772645663,
				"y": -3.371492431,
				"z": 0.310694061,
				"element": "C" 
			},
			{
				"x": 1.1991174574,
				"y": -3.4986408584,
				"z": 0.980006727,
				"element": "C" 
			},
			{
				"x": 2.1049139072,
				"y": -2.3231231929,
				"z": 0.5846773516,
				"element": "C" 
			},
			{
				"x": 1.4210418807,
				"y": -0.9766664529,
				"z": 0.8621145769,
				"element": "C" 
			},
			{
				"x": 1.0317938477,
				"y": 3.7401350608,
				"z": -2.5962698006,
				"element": "H" 
			},
			{
				"x": 2.1332718057,
				"y": 2.9144701372,
				"z": -1.5226767085,
				"element": "H" 
			},
			{
				"x": -2.8314385513,
				"y": 0.9639535156,
				"z": -2.4144992754,
				"element": "H" 
			},
			{
				"x": -1.7391440018,
				"y": -1.8641753191,
				"z": 0.0471631313,
				"element": "H" 
			},
			{
				"x": -1.0288579038,
				"y": -1.9139567363,
				"z": 1.67072224,
				"element": "H" 
			},
			{
				"x": -0.8543781443,
				"y": -4.1584134517,
				"z": 0.663045259,
				"element": "H" 
			},
			{
				"x": -0.0756211065,
				"y": -3.4950371379,
				"z": -0.7750444351,
				"element": "H" 
			},
			{
				"x": 1.669562532,
				"y": -4.4519405097,
				"z": 0.713978694,
				"element": "H" 
			},
			{
				"x": 1.0712735962,
				"y": -3.5054056143,
				"z": 2.0720621668,
				"element": "H" 
			},
			{
				"x": 2.3457926493,
				"y": -2.3831040791,
				"z": -0.484382735,
				"element": "H" 
			},
			{
				"x": 3.0538862316,
				"y": -2.3626051459,
				"z": 1.1323998585,
				"element": "H" 
			},
			{
				"x": 2.0140686631,
				"y": -0.1408784625,
				"z": 0.496517239,
				"element": "H" 
			},
			{
				"x": 1.2849322073,
				"y": -0.8496728216,
				"z": 1.9476244758,
				"element": "H" 
			}
		],
		 "valence_orbital": [ 
			{
				"type": "occ",
				"energy": -0.31303,
				"method": "rhf"
			},
			{
				"type": "occ",
				"energy": -0.30056,
				"method": "rhf"
			},
			{
				"type": "occ",
				"energy": -0.25108,
				"method": "rhf"
			},
			{
				"type": "occ",
				"energy": -0.25015,
				"method": "rhf"
			},
			{
				"type": "occ",
				"energy": -0.21425,
				"method": "rhf"
			},
			{
				"type": "unocc",
				"energy": -0.03172,
				"method": "rhf"
			},
			{
				"type": "unocc",
				"energy": -0.00994,
				"method": "rhf"
			},
			{
				"type": "unocc",
				"energy": 0.03418,
				"method": "rhf"
			},
			{
				"type": "unocc",
				"energy": 0.07523,
				"method": "rhf"
			},
			{
				"type": "unocc",
				"energy": 0.08013,
				"method": "rhf"
			}
		],
		"cosmo_sigma_profile": { 
			"-0.025": 0.0,
			"-0.024": 0.0,
			"-0.023": 0.0,
			"-0.022": 0.0,
			"-0.021": 0.0,
			"-0.02": 0.0,
			"-0.019": 0.0,
			"-0.018": 0.0,
			"-0.017": 0.0,
			"-0.016": 0.0,
			"-0.015": 0.258832468873,
			"-0.014": 1.53012218117,
			"-0.013": 2.27651767406,
			"-0.012": 1.86384453956,
			"-0.011": 1.88087594939,
			"-0.01": 2.17456205555,
			"-0.009": 1.66214748712,
			"-0.008": 4.00423323803,
			"-0.007": 3.8799796493,
			"-0.006": 3.23472010136,
			"-0.005": 3.38129691467,
			"-0.004": 11.6863550736,
			"-0.003": 25.7360021823,
			"-0.002": 32.7746005497,
			"-0.001": 31.9891941256,
			"0.0": 30.4536184426,
			"0.001": 20.435806128,
			"0.002": 9.27574449494,
			"0.003": 9.0004072357,
			"0.004": 5.74381541879,
			"0.005": 5.84720004796,
			"0.006": 5.037280907,
			"0.007": 5.89837367684,
			"0.008": 5.75243999276,
			"0.009": 4.78944331641,
			"0.01": 4.51788120208,
			"0.011": 4.68537011706,
			"0.012": 2.74863302697,
			"0.013": 2.48782646442,
			"0.014": 0.764076262307,
			"0.015": 0.0,
			"0.016": 0.0,
			"0.017": 0.0,
			"0.018": 0.0,
			"0.019": 0.0,
			"0.02": 0.0,
			"0.021": 0.0,
			"0.022": 0.0,
			"0.023": 0.0,
			"0.024": 0.0,
			"0.025": 0.0
		}
	}
}
