{
	 "smiles": "CC1(C)C2CCC1(C)C(=NNC(N)=O)C2=C/O", 
	 "Tm": 479.15, 
	 "num_atms": 36, 
	 "gaussian": { 
		 "optdone": 1, 
		 "sigma_profile": "yes", 
		 "theory": "DFT", 
		 "functional": "B3LYP", 
		 "basiset": "6-31G**", 
		 "properties": { 
			 "R2extent": 4074.3276, 
			 "electric_dipole_moment_norm": 2.49116771615, 
			 "electric_quadrupole_moment_norm": 17.4135666884, 
			 "total_energy": -783.40332405, 
			 "HOMO_LUMO_gap": 0.18315, 
			 "cosmo_polarized_energy": -18.62, 
			 "cosmo_cavitation_energy": 35.19, 
			 "cosmo_dispersion_energy": -24.57, 
			 "cosmo_repulsion_energy": 1.89, 
			 "cosmo_total_nonelectrostatic_energy": 12.5, 
			 "SMD_solvation_energy": 6.78 
		},
		"coords": [
			{
				"x": -1.6859924163,
				"y": -2.4508224719,
				"z": 1.1372257491,
				"element": "C" 
			},
			{
				"x": -0.9374216523,
				"y": -1.4058047645,
				"z": 0.292992137,
				"element": "C" 
			},
			{
				"x": -1.4338955666,
				"y": -1.5320800238,
				"z": -1.158030794,
				"element": "C" 
			},
			{
				"x": -1.0161871611,
				"y": 0.048546986,
				"z": 0.853146718,
				"element": "C" 
			},
			{
				"x": -0.3359956478,
				"y": -0.0812519187,
				"z": 2.2440215464,
				"element": "C" 
			},
			{
				"x": 0.8311817802,
				"y": -1.0702098736,
				"z": 1.9453306514,
				"element": "C" 
			},
			{
				"x": 0.6346681182,
				"y": -1.4632428256,
				"z": 0.4415676365,
				"element": "C" 
			},
			{
				"x": 1.3506365142,
				"y": -2.737573356,
				"z": 0.0249653784,
				"element": "C" 
			},
			{
				"x": 1.0178440614,
				"y": -0.2092950267,
				"z": -0.3542769002,
				"element": "C" 
			},
			{
				"x": 2.0669154262,
				"y": -0.2506355347,
				"z": -1.1021312306,
				"element": "N" 
			},
			{
				"x": 2.3032236064,
				"y": 0.9124347814,
				"z": -1.9201402839,
				"element": "N" 
			},
			{
				"x": 1.6457143777,
				"y": 0.8924248137,
				"z": -3.1910961284,
				"element": "C" 
			},
			{
				"x": 2.286532879,
				"y": 1.6832894351,
				"z": -4.1251535358,
				"element": "N" 
			},
			{
				"x": 0.6331791819,
				"y": 0.2634816633,
				"z": -3.4168266496,
				"element": "O" 
			},
			{
				"x": -0.0183108667,
				"y": 0.790809638,
				"z": -0.0337940574,
				"element": "C" 
			},
			{
				"x": -0.0790149789,
				"y": 2.1238533111,
				"z": -0.2526267153,
				"element": "C" 
			},
			{
				"x": 0.8071341722,
				"y": 2.9163739903,
				"z": -0.8709143177,
				"element": "O" 
			},
			{
				"x": -1.5446790044,
				"y": -3.4524533249,
				"z": 0.717516004,
				"element": "H" 
			},
			{
				"x": -1.3749469158,
				"y": -2.4867368163,
				"z": 2.1831564633,
				"element": "H" 
			},
			{
				"x": -2.7620698265,
				"y": -2.2425348139,
				"z": 1.1195702721,
				"element": "H" 
			},
			{
				"x": -1.277532693,
				"y": -2.5515176422,
				"z": -1.5280396957,
				"element": "H" 
			},
			{
				"x": -2.5114275,
				"y": -1.3340361345,
				"z": -1.2021645306,
				"element": "H" 
			},
			{
				"x": -0.9347640271,
				"y": -0.8506461187,
				"z": -1.8496298144,
				"element": "H" 
			},
			{
				"x": -2.0145177301,
				"y": 0.4958328482,
				"z": 0.876221403,
				"element": "H" 
			},
			{
				"x": -1.0241509116,
				"y": -0.4818668326,
				"z": 2.9951044727,
				"element": "H" 
			},
			{
				"x": 0.0146030059,
				"y": 0.8884072284,
				"z": 2.606935068,
				"element": "H" 
			},
			{
				"x": 1.8177418632,
				"y": -0.6258918639,
				"z": 2.1080714687,
				"element": "H" 
			},
			{
				"x": 0.7783407069,
				"y": -1.9646994488,
				"z": 2.5736902711,
				"element": "H" 
			},
			{
				"x": 0.9979925838,
				"y": -3.5887994843,
				"z": 0.61704591,
				"element": "H" 
			},
			{
				"x": 1.1890813743,
				"y": -2.9565504836,
				"z": -1.0340861099,
				"element": "H" 
			},
			{
				"x": 2.4300857541,
				"y": -2.6424623024,
				"z": 0.1736211274,
				"element": "H" 
			},
			{
				"x": 3.3103715215,
				"y": 0.9707799387,
				"z": -2.0516654504,
				"element": "H" 
			},
			{
				"x": 2.8555522504,
				"y": 2.454953608,
				"z": -3.8062843379,
				"element": "H" 
			},
			{
				"x": 1.7263745501,
				"y": 1.8751000567,
				"z": -4.9434199714,
				"element": "H" 
			},
			{
				"x": -0.9351513297,
				"y": 2.6878754553,
				"z": 0.1129717615,
				"element": "H" 
			},
			{
				"x": 1.5316845004,
				"y": 2.3349473075,
				"z": -1.2184735154,
				"element": "H" 
			}
		],
		 "valence_orbital": [ 
			{
				"type": "occ",
				"energy": -0.28961,
				"method": "rhf"
			},
			{
				"type": "occ",
				"energy": -0.27923,
				"method": "rhf"
			},
			{
				"type": "occ",
				"energy": -0.27049,
				"method": "rhf"
			},
			{
				"type": "occ",
				"energy": -0.24034,
				"method": "rhf"
			},
			{
				"type": "occ",
				"energy": -0.20924,
				"method": "rhf"
			},
			{
				"type": "unocc",
				"energy": -0.02609,
				"method": "rhf"
			},
			{
				"type": "unocc",
				"energy": 0.02889,
				"method": "rhf"
			},
			{
				"type": "unocc",
				"energy": 0.0543,
				"method": "rhf"
			},
			{
				"type": "unocc",
				"energy": 0.08534,
				"method": "rhf"
			},
			{
				"type": "unocc",
				"energy": 0.08697,
				"method": "rhf"
			}
		],
		"cosmo_sigma_profile": { 
			"-0.025": 0.0,
			"-0.024": 0.0,
			"-0.023": 0.0,
			"-0.022": 0.0,
			"-0.021": 0.0,
			"-0.02": 0.0,
			"-0.019": 0.0,
			"-0.018": 0.0,
			"-0.017": 0.0,
			"-0.016": 0.0600578531766,
			"-0.015": 2.90056070097,
			"-0.014": 4.22743579872,
			"-0.013": 3.13832042284,
			"-0.012": 3.90401993747,
			"-0.011": 2.89966377266,
			"-0.01": 3.11268089349,
			"-0.009": 2.9574736879,
			"-0.008": 2.37469151934,
			"-0.007": 4.21620345436,
			"-0.006": 4.00055662518,
			"-0.005": 4.8481131442,
			"-0.004": 7.17112323189,
			"-0.003": 18.8416306549,
			"-0.002": 32.2284877123,
			"-0.001": 33.6792179184,
			"0.0": 30.6186536905,
			"0.001": 30.0464978406,
			"0.002": 16.8037025744,
			"0.003": 9.00976214819,
			"0.004": 6.90745970978,
			"0.005": 5.12420095712,
			"0.006": 6.25370666828,
			"0.007": 5.82764679188,
			"0.008": 5.58784794807,
			"0.009": 5.62422792441,
			"0.01": 4.88688329583,
			"0.011": 6.63298129208,
			"0.012": 5.18501736718,
			"0.013": 3.10496980022,
			"0.014": 1.16328132864,
			"0.015": 0.0634659590265,
			"0.016": 0.0,
			"0.017": 0.0,
			"0.018": 0.0,
			"0.019": 0.0,
			"0.02": 0.0,
			"0.021": 0.0,
			"0.022": 0.0,
			"0.023": 0.0,
			"0.024": 0.0,
			"0.025": 0.0
		}
	}
}
