{
	 "smiles": "COC1=CC(=CC(Cl)=C1O)C(O)=O", 
	 "Tm": 518.15, 
	 "num_atms": 20, 
	 "gaussian": { 
		 "optdone": 1, 
		 "sigma_profile": "yes", 
		 "theory": "DFT", 
		 "functional": "B3LYP", 
		 "basiset": "6-31G**", 
		 "properties": { 
			 "R2extent": 5280.0855, 
			 "electric_dipole_moment_norm": 4.69967384187, 
			 "electric_quadrupole_moment_norm": 28.1421728051, 
			 "total_energy": -1070.14435355, 
			 "HOMO_LUMO_gap": 0.19263, 
			 "cosmo_polarized_energy": -16.01, 
			 "cosmo_cavitation_energy": 26.52, 
			 "cosmo_dispersion_energy": -19.81, 
			 "cosmo_repulsion_energy": 1.57, 
			 "cosmo_total_nonelectrostatic_energy": 8.28, 
			 "SMD_solvation_energy": 6.67 
		},
		"coords": [
			{
				"x": 1.1364434493,
				"y": 1.3578290058,
				"z": 3.4664060401,
				"element": "C" 
			},
			{
				"x": 0.2464384342,
				"y": 1.0661881056,
				"z": 2.3791428182,
				"element": "O" 
			},
			{
				"x": 0.5020245544,
				"y": 1.6810230381,
				"z": 1.1864042879,
				"element": "C" 
			},
			{
				"x": -0.47674322,
				"y": 2.508748487,
				"z": 0.642653186,
				"element": "C" 
			},
			{
				"x": -0.3027354211,
				"y": 3.1203829027,
				"z": -0.6069417186,
				"element": "C" 
			},
			{
				"x": 0.8922641658,
				"y": 2.9237138203,
				"z": -1.3064435568,
				"element": "C" 
			},
			{
				"x": 1.8623587955,
				"y": 2.0911307714,
				"z": -0.7690157509,
				"element": "C" 
			},
			{
				"x": 3.3624705059,
				"y": 1.7959004237,
				"z": -1.6464991402,
				"element": "Cl" 
			},
			{
				"x": 1.6938051322,
				"y": 1.4434335918,
				"z": 0.4660909523,
				"element": "C" 
			},
			{
				"x": 2.6119809595,
				"y": 0.6031587029,
				"z": 0.993520569,
				"element": "O" 
			},
			{
				"x": -1.3193955603,
				"y": 4.0266052259,
				"z": -1.2285937147,
				"element": "C" 
			},
			{
				"x": -2.5920251812,
				"y": 3.9321145733,
				"z": -0.7591676327,
				"element": "O" 
			},
			{
				"x": -1.0557515197,
				"y": 4.8140577425,
				"z": -2.1070860564,
				"element": "O" 
			},
			{
				"x": 2.1453634858,
				"y": 0.987022051,
				"z": 3.2710456405,
				"element": "H" 
			},
			{
				"x": 1.1691881083,
				"y": 2.4368768959,
				"z": 3.660475867,
				"element": "H" 
			},
			{
				"x": 0.718480838,
				"y": 0.8473066777,
				"z": 4.3354337324,
				"element": "H" 
			},
			{
				"x": -1.359772423,
				"y": 2.6765816117,
				"z": 1.2522214808,
				"element": "H" 
			},
			{
				"x": 1.0412161287,
				"y": 3.4199047875,
				"z": -2.2577356692,
				"element": "H" 
			},
			{
				"x": 3.3665091414,
				"y": 0.545735258,
				"z": 0.3854151536,
				"element": "H" 
			},
			{
				"x": -2.6852203739,
				"y": 3.1529863275,
				"z": -0.1938264883,
				"element": "H" 
			}
		],
		 "valence_orbital": [ 
			{
				"type": "occ",
				"energy": -0.31667,
				"method": "rhf"
			},
			{
				"type": "occ",
				"energy": -0.30353,
				"method": "rhf"
			},
			{
				"type": "occ",
				"energy": -0.27558,
				"method": "rhf"
			},
			{
				"type": "occ",
				"energy": -0.2628,
				"method": "rhf"
			},
			{
				"type": "occ",
				"energy": -0.24424,
				"method": "rhf"
			},
			{
				"type": "unocc",
				"energy": -0.05161,
				"method": "rhf"
			},
			{
				"type": "unocc",
				"energy": -0.02944,
				"method": "rhf"
			},
			{
				"type": "unocc",
				"energy": 0.00368,
				"method": "rhf"
			},
			{
				"type": "unocc",
				"energy": 0.04719,
				"method": "rhf"
			},
			{
				"type": "unocc",
				"energy": 0.05769,
				"method": "rhf"
			}
		],
		"cosmo_sigma_profile": { 
			"-0.025": 0.0,
			"-0.024": 0.0,
			"-0.023": 0.0,
			"-0.022": 0.0,
			"-0.021": 0.0,
			"-0.02": 0.0,
			"-0.019": 0.454273818881,
			"-0.018": 1.09966684472,
			"-0.017": 1.34937667705,
			"-0.016": 0.726749362927,
			"-0.015": 1.37457534665,
			"-0.014": 1.03370236565,
			"-0.013": 2.06032406602,
			"-0.012": 2.94319468908,
			"-0.011": 2.05692335999,
			"-0.01": 1.57673726167,
			"-0.009": 1.85178930895,
			"-0.008": 2.87899155388,
			"-0.007": 4.0993048791,
			"-0.006": 5.59740724667,
			"-0.005": 9.25212743779,
			"-0.004": 12.4408535594,
			"-0.003": 17.6645848486,
			"-0.002": 15.7189682504,
			"-0.001": 16.5443699589,
			"0.0": 18.5579915356,
			"0.001": 17.6027724752,
			"0.002": 13.7766564995,
			"0.003": 12.3621945125,
			"0.004": 8.20417800646,
			"0.005": 4.68321451305,
			"0.006": 4.52866900386,
			"0.007": 4.89979306929,
			"0.008": 5.21702098813,
			"0.009": 5.3827730649,
			"0.01": 6.46431096082,
			"0.011": 5.69420947926,
			"0.012": 4.6081265282,
			"0.013": 1.58177473139,
			"0.014": 0.0466060464905,
			"0.015": 0.0,
			"0.016": 0.0,
			"0.017": 0.0,
			"0.018": 0.0,
			"0.019": 0.0,
			"0.02": 0.0,
			"0.021": 0.0,
			"0.022": 0.0,
			"0.023": 0.0,
			"0.024": 0.0,
			"0.025": 0.0
		}
	}
}
