{
	 "smiles": "CC1=CC=C(CN2N=CC3=C2N=CN=C3N)C=C1", 
	 "Tm": 495.15, 
	 "num_atms": 31, 
	 "gaussian": { 
		 "optdone": 1, 
		 "sigma_profile": "yes", 
		 "theory": "DFT", 
		 "functional": "B3LYP", 
		 "basiset": "6-31G**", 
		 "properties": { 
			 "R2extent": 6295.6945, 
			 "electric_dipole_moment_norm": 2.41288514853, 
			 "electric_quadrupole_moment_norm": 14.4422702049, 
			 "total_energy": -776.985472143, 
			 "HOMO_LUMO_gap": 0.19281, 
			 "cosmo_polarized_energy": -15.51, 
			 "cosmo_cavitation_energy": 35.57, 
			 "cosmo_dispersion_energy": -25.39, 
			 "cosmo_repulsion_energy": 1.96, 
			 "cosmo_total_nonelectrostatic_energy": 12.15, 
			 "SMD_solvation_energy": 2.42 
		},
		"coords": [
			{
				"x": -1.4349701307,
				"y": -0.0751866466,
				"z": 5.6408316319,
				"element": "C" 
			},
			{
				"x": -0.9282264224,
				"y": -0.6942389899,
				"z": 4.3591696407,
				"element": "C" 
			},
			{
				"x": -0.2116397285,
				"y": 0.0692123854,
				"z": 3.4261088856,
				"element": "C" 
			},
			{
				"x": 0.2392637897,
				"y": -0.490043863,
				"z": 2.2323666489,
				"element": "C" 
			},
			{
				"x": -0.0147009694,
				"y": -1.8356950196,
				"z": 1.9369496557,
				"element": "C" 
			},
			{
				"x": 0.4665874932,
				"y": -2.4395570107,
				"z": 0.63268919,
				"element": "C" 
			},
			{
				"x": -0.4425439271,
				"y": -2.2049144354,
				"z": -0.4877221313,
				"element": "N" 
			},
			{
				"x": -1.5157920555,
				"y": -3.0193158427,
				"z": -0.701367534,
				"element": "N" 
			},
			{
				"x": -2.1718241701,
				"y": -2.512386502,
				"z": -1.7331196061,
				"element": "C" 
			},
			{
				"x": -1.5347179248,
				"y": -1.3332506807,
				"z": -2.2143719703,
				"element": "C" 
			},
			{
				"x": -0.4170124038,
				"y": -1.1693128591,
				"z": -1.3695855536,
				"element": "C" 
			},
			{
				"x": 0.4962779149,
				"y": -0.1828836301,
				"z": -1.4359485946,
				"element": "N" 
			},
			{
				"x": 0.2364592737,
				"y": 0.666898838,
				"z": -2.426100894,
				"element": "C" 
			},
			{
				"x": -0.7828071729,
				"y": 0.6499475751,
				"z": -3.3063228262,
				"element": "N" 
			},
			{
				"x": -1.6786664349,
				"y": -0.3438556462,
				"z": -3.2176987811,
				"element": "C" 
			},
			{
				"x": -2.6833030597,
				"y": -0.3609900683,
				"z": -4.1372333172,
				"element": "N" 
			},
			{
				"x": -0.7283647549,
				"y": -2.6028066141,
				"z": 2.862263209,
				"element": "C" 
			},
			{
				"x": -1.1764188947,
				"y": -2.0388236506,
				"z": 4.0572673073,
				"element": "C" 
			},
			{
				"x": -0.7152188307,
				"y": 0.6393650169,
				"z": 6.0528449963,
				"element": "H" 
			},
			{
				"x": -2.3721661052,
				"y": 0.4706573755,
				"z": 5.4739851115,
				"element": "H" 
			},
			{
				"x": -1.6314144161,
				"y": -0.8351876671,
				"z": 6.4026830775,
				"element": "H" 
			},
			{
				"x": -0.0000008881,
				"y": 1.1141391018,
				"z": 3.6408453678,
				"element": "H" 
			},
			{
				"x": 0.7877773117,
				"y": 0.1178054682,
				"z": 1.5173858466,
				"element": "H" 
			},
			{
				"x": 0.5791875109,
				"y": -3.5224104685,
				"z": 0.7216768271,
				"element": "H" 
			},
			{
				"x": 1.427667624,
				"y": -2.0093069726,
				"z": 0.3405245956,
				"element": "H" 
			},
			{
				"x": -3.0608121346,
				"y": -3.0130428895,
				"z": -2.0941295663,
				"element": "H" 
			},
			{
				"x": 0.9348071326,
				"y": 1.4935086255,
				"z": -2.5438174625,
				"element": "H" 
			},
			{
				"x": -2.7819061996,
				"y": 0.4665621491,
				"z": -4.7061322664,
				"element": "H" 
			},
			{
				"x": -3.5039977905,
				"y": -0.921475533,
				"z": -3.9764895485,
				"element": "H" 
			},
			{
				"x": -0.9351961615,
				"y": -3.6479609239,
				"z": 2.6469988527,
				"element": "H" 
			},
			{
				"x": -1.7245274748,
				"y": -2.6536506217,
				"z": 4.767149208,
				"element": "H" 
			}
		],
		 "valence_orbital": [ 
			{
				"type": "occ",
				"energy": -0.25749,
				"method": "rhf"
			},
			{
				"type": "occ",
				"energy": -0.255,
				"method": "rhf"
			},
			{
				"type": "occ",
				"energy": -0.24544,
				"method": "rhf"
			},
			{
				"type": "occ",
				"energy": -0.23487,
				"method": "rhf"
			},
			{
				"type": "occ",
				"energy": -0.22183,
				"method": "rhf"
			},
			{
				"type": "unocc",
				"energy": -0.02902,
				"method": "rhf"
			},
			{
				"type": "unocc",
				"energy": -0.00331,
				"method": "rhf"
			},
			{
				"type": "unocc",
				"energy": 0.0016,
				"method": "rhf"
			},
			{
				"type": "unocc",
				"energy": 0.01153,
				"method": "rhf"
			},
			{
				"type": "unocc",
				"energy": 0.04867,
				"method": "rhf"
			}
		],
		"cosmo_sigma_profile": { 
			"-0.025": 0.0,
			"-0.024": 0.0,
			"-0.023": 0.0,
			"-0.022": 0.0,
			"-0.021": 0.0,
			"-0.02": 0.0,
			"-0.019": 0.0,
			"-0.018": 0.0,
			"-0.017": 0.0,
			"-0.016": 0.0,
			"-0.015": 0.551374567228,
			"-0.014": 1.89613546585,
			"-0.013": 2.31429713697,
			"-0.012": 2.64150194257,
			"-0.011": 2.50461470207,
			"-0.01": 2.49513275356,
			"-0.009": 3.39951890209,
			"-0.008": 3.11125849678,
			"-0.007": 5.78052436221,
			"-0.006": 8.7859625101,
			"-0.005": 15.2365008077,
			"-0.004": 21.8247224465,
			"-0.003": 21.7656446749,
			"-0.002": 18.439946911,
			"-0.001": 20.0861696726,
			"0.0": 28.0919140139,
			"0.001": 21.8640169014,
			"0.002": 17.6464712649,
			"0.003": 15.5127075244,
			"0.004": 14.8194876662,
			"0.005": 16.1379371959,
			"0.006": 11.9052141519,
			"0.007": 5.60064559991,
			"0.008": 5.12237392259,
			"0.009": 3.64242172924,
			"0.01": 2.9422282067,
			"0.011": 2.47660405046,
			"0.012": 2.47926322871,
			"0.013": 2.00444538354,
			"0.014": 1.88928328576,
			"0.015": 0.86156821125,
			"0.016": 0.114348166131,
			"0.017": 0.0,
			"0.018": 0.0,
			"0.019": 0.0,
			"0.02": 0.0,
			"0.021": 0.0,
			"0.022": 0.0,
			"0.023": 0.0,
			"0.024": 0.0,
			"0.025": 0.0
		}
	}
}
