{
	 "smiles": "CC(C)(C)OC(=O)NCC1CNC2=C1C=CC=C2", 
	 "Tm": 354.15, 
	 "num_atms": 38, 
	 "gaussian": { 
		 "optdone": 1, 
		 "sigma_profile": "yes", 
		 "theory": "DFT", 
		 "functional": "B3LYP", 
		 "basiset": "6-31G**", 
		 "properties": { 
			 "R2extent": 6205.9332, 
			 "electric_dipole_moment_norm": 1.81550337372, 
			 "electric_quadrupole_moment_norm": 15.2925221605, 
			 "total_energy": -805.535929729, 
			 "HOMO_LUMO_gap": 0.1956, 
			 "cosmo_polarized_energy": -13.06, 
			 "cosmo_cavitation_energy": 39.67, 
			 "cosmo_dispersion_energy": -26.89, 
			 "cosmo_repulsion_energy": 2.09, 
			 "cosmo_total_nonelectrostatic_energy": 14.87, 
			 "SMD_solvation_energy": 5.89 
		},
		"coords": [
			{
				"x": 0.4429912767,
				"y": 3.4913221245,
				"z": 2.9468798105,
				"element": "C" 
			},
			{
				"x": 0.0465448274,
				"y": 2.0109230899,
				"z": 2.947176376,
				"element": "C" 
			},
			{
				"x": -1.466240183,
				"y": 1.8549548944,
				"z": 2.7709181577,
				"element": "C" 
			},
			{
				"x": 0.5253648725,
				"y": 1.2824526291,
				"z": 4.2075890025,
				"element": "C" 
			},
			{
				"x": 0.5796206182,
				"y": 1.3458617434,
				"z": 1.7479478568,
				"element": "O" 
			},
			{
				"x": 1.9165364065,
				"y": 1.2873835434,
				"z": 1.5235725226,
				"element": "C" 
			},
			{
				"x": 2.7919111747,
				"y": 1.7191718439,
				"z": 2.2577415152,
				"element": "O" 
			},
			{
				"x": 2.1765670768,
				"y": 0.667882953,
				"z": 0.3315562338,
				"element": "N" 
			},
			{
				"x": 1.1985255929,
				"y": 0.1105036418,
				"z": -0.5921095669,
				"element": "C" 
			},
			{
				"x": 0.6453450922,
				"y": -1.2750305623,
				"z": -0.1750180662,
				"element": "C" 
			},
			{
				"x": 1.7288027183,
				"y": -2.3835389417,
				"z": -0.1865984594,
				"element": "C" 
			},
			{
				"x": 1.6503729277,
				"y": -2.9326611078,
				"z": -1.5531835878,
				"element": "N" 
			},
			{
				"x": 0.3336459468,
				"y": -2.7603322004,
				"z": -2.0001158727,
				"element": "C" 
			},
			{
				"x": -0.3271567234,
				"y": -1.796198615,
				"z": -1.2169703423,
				"element": "C" 
			},
			{
				"x": -1.6331619993,
				"y": -1.4298450067,
				"z": -1.5112677897,
				"element": "C" 
			},
			{
				"x": -2.2930423652,
				"y": -2.0445859954,
				"z": -2.5859265067,
				"element": "C" 
			},
			{
				"x": -1.6305291925,
				"y": -3.0052242592,
				"z": -3.3535307581,
				"element": "C" 
			},
			{
				"x": -0.3095131242,
				"y": -3.3757801996,
				"z": -3.0745054452,
				"element": "C" 
			},
			{
				"x": 0.1216382961,
				"y": 3.9702140413,
				"z": 2.0163836312,
				"element": "H" 
			},
			{
				"x": -0.049445509,
				"y": 4.0035841552,
				"z": 3.7798952964,
				"element": "H" 
			},
			{
				"x": 1.5222069102,
				"y": 3.6053536994,
				"z": 3.0496745704,
				"element": "H" 
			},
			{
				"x": -1.7993141387,
				"y": 2.3357886549,
				"z": 1.8464388072,
				"element": "H" 
			},
			{
				"x": -1.9921608733,
				"y": 2.3183762428,
				"z": 3.6109361666,
				"element": "H" 
			},
			{
				"x": -1.7446071012,
				"y": 0.7976453943,
				"z": 2.7302749946,
				"element": "H" 
			},
			{
				"x": 1.6058725403,
				"y": 1.3712775556,
				"z": 4.3206666306,
				"element": "H" 
			},
			{
				"x": 0.0384908064,
				"y": 1.7130826201,
				"z": 5.0887206931,
				"element": "H" 
			},
			{
				"x": 0.2587413691,
				"y": 0.2217379015,
				"z": 4.1576536159,
				"element": "H" 
			},
			{
				"x": 3.160679273,
				"y": 0.5880911017,
				"z": 0.1291012372,
				"element": "H" 
			},
			{
				"x": 1.6790110622,
				"y": 0.0272929349,
				"z": -1.5716921285,
				"element": "H" 
			},
			{
				"x": 0.3638345063,
				"y": 0.8088600794,
				"z": -0.6929595367,
				"element": "H" 
			},
			{
				"x": 0.1975012287,
				"y": -1.1709597545,
				"z": 0.8173774461,
				"element": "H" 
			},
			{
				"x": 2.7300085423,
				"y": -1.9973248651,
				"z": 0.029376245,
				"element": "H" 
			},
			{
				"x": 1.4908930412,
				"y": -3.1471706594,
				"z": 0.5697582401,
				"element": "H" 
			},
			{
				"x": 2.0592544526,
				"y": -3.8483020395,
				"z": -1.6898023715,
				"element": "H" 
			},
			{
				"x": -2.1457805714,
				"y": -0.6849464775,
				"z": -0.9073123746,
				"element": "H" 
			},
			{
				"x": -3.3189357244,
				"y": -1.7762930918,
				"z": -2.8185800591,
				"element": "H" 
			},
			{
				"x": -2.1486728097,
				"y": -3.4810659416,
				"z": -4.1817431205,
				"element": "H" 
			},
			{
				"x": 0.1966997561,
				"y": -4.1246011266,
				"z": -3.6774230636,
				"element": "H" 
			}
		],
		 "valence_orbital": [ 
			{
				"type": "occ",
				"energy": -0.28609,
				"method": "rhf"
			},
			{
				"type": "occ",
				"energy": -0.25836,
				"method": "rhf"
			},
			{
				"type": "occ",
				"energy": -0.25236,
				"method": "rhf"
			},
			{
				"type": "occ",
				"energy": -0.23756,
				"method": "rhf"
			},
			{
				"type": "occ",
				"energy": -0.19405,
				"method": "rhf"
			},
			{
				"type": "unocc",
				"energy": 0.00155,
				"method": "rhf"
			},
			{
				"type": "unocc",
				"energy": 0.0194,
				"method": "rhf"
			},
			{
				"type": "unocc",
				"energy": 0.05764,
				"method": "rhf"
			},
			{
				"type": "unocc",
				"energy": 0.07453,
				"method": "rhf"
			},
			{
				"type": "unocc",
				"energy": 0.08246,
				"method": "rhf"
			}
		],
		"cosmo_sigma_profile": { 
			"-0.025": 0.0,
			"-0.024": 0.0,
			"-0.023": 0.0,
			"-0.022": 0.0,
			"-0.021": 0.0,
			"-0.02": 0.0,
			"-0.019": 0.0,
			"-0.018": 0.0,
			"-0.017": 0.0,
			"-0.016": 0.0,
			"-0.015": 0.0,
			"-0.014": 0.523612670299,
			"-0.013": 0.960906283189,
			"-0.012": 2.44225764196,
			"-0.011": 2.5161040376,
			"-0.01": 2.21015320096,
			"-0.009": 1.92392040995,
			"-0.008": 2.58451617117,
			"-0.007": 2.71702126953,
			"-0.006": 4.36398895928,
			"-0.005": 9.86074503444,
			"-0.004": 24.79100895,
			"-0.003": 35.8120099475,
			"-0.002": 32.9569542186,
			"-0.001": 31.9930256182,
			"0.0": 36.0890049659,
			"0.001": 28.4159713041,
			"0.002": 16.0303381308,
			"0.003": 13.5898853033,
			"0.004": 10.2557882076,
			"0.005": 11.2062003403,
			"0.006": 11.0509141799,
			"0.007": 9.48347524986,
			"0.008": 3.66201188519,
			"0.009": 1.87497212753,
			"0.01": 1.95346105733,
			"0.011": 2.38179500116,
			"0.012": 1.59286229736,
			"0.013": 3.78933678388,
			"0.014": 3.07320407156,
			"0.015": 0.193180323586,
			"0.016": 0.0,
			"0.017": 0.0,
			"0.018": 0.0,
			"0.019": 0.0,
			"0.02": 0.0,
			"0.021": 0.0,
			"0.022": 0.0,
			"0.023": 0.0,
			"0.024": 0.0,
			"0.025": 0.0
		}
	}
}
