{
	 "smiles": "NC1=C(C=C(C=C1)[N+]([O-])=O)C(F)(F)F", 
	 "Tm": 365.15, 
	 "num_atms": 19, 
	 "gaussian": { 
		 "optdone": 1, 
		 "sigma_profile": "yes", 
		 "theory": "DFT", 
		 "functional": "B3LYP", 
		 "basiset": "6-31G**", 
		 "properties": { 
			 "R2extent": 3097.3744, 
			 "electric_dipole_moment_norm": 6.23776849923, 
			 "electric_quadrupole_moment_norm": 16.2474539876, 
			 "total_energy": -829.144148171, 
			 "HOMO_LUMO_gap": 0.16026, 
			 "cosmo_polarized_energy": -13.39, 
			 "cosmo_cavitation_energy": 25.36, 
			 "cosmo_dispersion_energy": -18.37, 
			 "cosmo_repulsion_energy": 1.38, 
			 "cosmo_total_nonelectrostatic_energy": 8.37, 
			 "SMD_solvation_energy": 7.68 
		},
		"coords": [
			{
				"x": 1.1253424246,
				"y": -1.4168992474,
				"z": 1.4645430036,
				"element": "N" 
			},
			{
				"x": 0.2945585032,
				"y": -0.4070870239,
				"z": 1.0613804045,
				"element": "C" 
			},
			{
				"x": -0.4948442841,
				"y": -0.5071776475,
				"z": -0.1178904212,
				"element": "C" 
			},
			{
				"x": -1.3064220386,
				"y": 0.5489696584,
				"z": -0.5124990152,
				"element": "C" 
			},
			{
				"x": -1.3467894496,
				"y": 1.7137910986,
				"z": 0.2478207539,
				"element": "C" 
			},
			{
				"x": -0.5764401763,
				"y": 1.8429722913,
				"z": 1.4066118408,
				"element": "C" 
			},
			{
				"x": 0.2309816993,
				"y": 0.7939088075,
				"z": 1.8044718008,
				"element": "C" 
			},
			{
				"x": -2.2057261935,
				"y": 2.8135451568,
				"z": -0.1729780549,
				"element": "N" 
			},
			{
				"x": -2.8727035851,
				"y": 2.6626334513,
				"z": -1.1988276807,
				"element": "O" 
			},
			{
				"x": -2.2139356603,
				"y": 3.8312701146,
				"z": 0.5235558447,
				"element": "O" 
			},
			{
				"x": -0.4191838291,
				"y": -1.7407067266,
				"z": -0.9721731939,
				"element": "C" 
			},
			{
				"x": 0.8028137486,
				"y": -1.8924587913,
				"z": -1.5329920205,
				"element": "F" 
			},
			{
				"x": -0.6327801246,
				"y": -2.8733053122,
				"z": -0.2367986912,
				"element": "F" 
			},
			{
				"x": -1.3240998748,
				"y": -1.7386596548,
				"z": -1.9641990693,
				"element": "F" 
			},
			{
				"x": 0.9800650801,
				"y": -2.3464313435,
				"z": 1.103417962,
				"element": "H" 
			},
			{
				"x": 1.5223311121,
				"y": -1.3616387971,
				"z": 2.3891634645,
				"element": "H" 
			},
			{
				"x": -1.9109754776,
				"y": 0.4780200996,
				"z": -1.4068904873,
				"element": "H" 
			},
			{
				"x": -0.6290820795,
				"y": 2.7620621493,
				"z": 1.9769882096,
				"element": "H" 
			},
			{
				"x": 0.8304902054,
				"y": 0.8853917169,
				"z": 2.7055953499,
				"element": "H" 
			}
		],
		 "valence_orbital": [ 
			{
				"type": "occ",
				"energy": -0.30437,
				"method": "rhf"
			},
			{
				"type": "occ",
				"energy": -0.30272,
				"method": "rhf"
			},
			{
				"type": "occ",
				"energy": -0.29002,
				"method": "rhf"
			},
			{
				"type": "occ",
				"energy": -0.28496,
				"method": "rhf"
			},
			{
				"type": "occ",
				"energy": -0.24266,
				"method": "rhf"
			},
			{
				"type": "unocc",
				"energy": -0.0824,
				"method": "rhf"
			},
			{
				"type": "unocc",
				"energy": -0.04281,
				"method": "rhf"
			},
			{
				"type": "unocc",
				"energy": 0.00336,
				"method": "rhf"
			},
			{
				"type": "unocc",
				"energy": 0.06026,
				"method": "rhf"
			},
			{
				"type": "unocc",
				"energy": 0.08518,
				"method": "rhf"
			}
		],
		"cosmo_sigma_profile": { 
			"-0.025": 0.0,
			"-0.024": 0.0,
			"-0.023": 0.0,
			"-0.022": 0.0,
			"-0.021": 0.0,
			"-0.02": 0.0,
			"-0.019": 0.0,
			"-0.018": 0.0,
			"-0.017": 0.0,
			"-0.016": 0.0,
			"-0.015": 0.841374137638,
			"-0.014": 2.26612162232,
			"-0.013": 2.27069999664,
			"-0.012": 2.73902994325,
			"-0.011": 2.46194515263,
			"-0.01": 1.87657102007,
			"-0.009": 2.85813780781,
			"-0.008": 3.11416683318,
			"-0.007": 4.75574548238,
			"-0.006": 6.14194288666,
			"-0.005": 6.21053159435,
			"-0.004": 7.84329134839,
			"-0.003": 10.7364905341,
			"-0.002": 11.3135124795,
			"-0.001": 16.2982696043,
			"0.0": 21.0625374051,
			"0.001": 20.3837023685,
			"0.002": 28.6209354197,
			"0.003": 14.3413004872,
			"0.004": 3.18524187028,
			"0.005": 4.1368488115,
			"0.006": 3.36451903356,
			"0.007": 4.90179167579,
			"0.008": 10.2069076334,
			"0.009": 5.85697071504,
			"0.01": 4.02274768252,
			"0.011": 1.84547466023,
			"0.012": 0.0,
			"0.013": 0.0,
			"0.014": 0.0,
			"0.015": 0.0,
			"0.016": 0.0,
			"0.017": 0.0,
			"0.018": 0.0,
			"0.019": 0.0,
			"0.02": 0.0,
			"0.021": 0.0,
			"0.022": 0.0,
			"0.023": 0.0,
			"0.024": 0.0,
			"0.025": 0.0
		}
	}
}
