{
	 "smiles": "OC(=O)CC1SC2=C(NC1=O)C=C(Cl)C=C2", 
	 "Tm": 514.15, 
	 "num_atms": 24, 
	 "gaussian": { 
		 "optdone": 1, 
		 "sigma_profile": "yes", 
		 "theory": "DFT", 
		 "functional": "B3LYP", 
		 "basiset": "6-31G**", 
		 "properties": { 
			 "R2extent": 4444.1579, 
			 "electric_dipole_moment_norm": 3.0476769924, 
			 "electric_quadrupole_moment_norm": 13.6879729131, 
			 "total_energy": -1524.71008861, 
			 "HOMO_LUMO_gap": 0.18097, 
			 "cosmo_polarized_energy": -19.12, 
			 "cosmo_cavitation_energy": 31.56, 
			 "cosmo_dispersion_energy": -22.89, 
			 "cosmo_repulsion_energy": 1.73, 
			 "cosmo_total_nonelectrostatic_energy": 10.4, 
			 "SMD_solvation_energy": 5.63 
		},
		"coords": [
			{
				"x": -2.7492630391,
				"y": -1.441662485,
				"z": -1.189915126,
				"element": "O" 
			},
			{
				"x": -2.6858697884,
				"y": -0.0842387793,
				"z": -1.2030811908,
				"element": "C" 
			},
			{
				"x": -3.1986876337,
				"y": 0.5634735285,
				"z": -0.3260533306,
				"element": "O" 
			},
			{
				"x": -1.9317044474,
				"y": 0.523525242,
				"z": -2.3832111,
				"element": "C" 
			},
			{
				"x": -0.3837780337,
				"y": 0.3694534194,
				"z": -2.330086641,
				"element": "C" 
			},
			{
				"x": 0.5012779721,
				"y": 1.6074683689,
				"z": -1.2974126327,
				"element": "S" 
			},
			{
				"x": 0.6628938903,
				"y": 0.7450961847,
				"z": 0.2407442545,
				"element": "C" 
			},
			{
				"x": 0.7707366998,
				"y": -0.6537111855,
				"z": 0.2722190377,
				"element": "C" 
			},
			{
				"x": 0.6335331049,
				"y": -1.4180498658,
				"z": -0.9031335248,
				"element": "N" 
			},
			{
				"x": 0.0011819216,
				"y": -1.0854042111,
				"z": -2.0676135522,
				"element": "C" 
			},
			{
				"x": -0.3107207297,
				"y": -1.9470712559,
				"z": -2.8873683665,
				"element": "O" 
			},
			{
				"x": 1.0078490076,
				"y": -1.3147415057,
				"z": 1.4814627177,
				"element": "C" 
			},
			{
				"x": 1.1531348106,
				"y": -0.5722130706,
				"z": 2.6495445348,
				"element": "C" 
			},
			{
				"x": 1.4664167552,
				"y": -1.4106737216,
				"z": 4.1573542987,
				"element": "Cl" 
			},
			{
				"x": 1.042254669,
				"y": 0.8177205838,
				"z": 2.6407482958,
				"element": "C" 
			},
			{
				"x": 0.7860894612,
				"y": 1.4639479986,
				"z": 1.4337101974,
				"element": "C" 
			},
			{
				"x": -2.2919736143,
				"y": -1.8205582258,
				"z": -1.9601728675,
				"element": "H" 
			},
			{
				"x": -2.2716016901,
				"y": 0.0449589851,
				"z": -3.3088822584,
				"element": "H" 
			},
			{
				"x": -2.1818856485,
				"y": 1.5837484607,
				"z": -2.4280133417,
				"element": "H" 
			},
			{
				"x": -0.0151474753,
				"y": 0.5777646395,
				"z": -3.3381154977,
				"element": "H" 
			},
			{
				"x": 0.7777927954,
				"y": -2.4178503587,
				"z": -0.8167662446,
				"element": "H" 
			},
			{
				"x": 1.0763839193,
				"y": -2.3972976465,
				"z": 1.5104061925,
				"element": "H" 
			},
			{
				"x": 1.1432110383,
				"y": 1.3816033954,
				"z": 3.5604711057,
				"element": "H" 
			},
			{
				"x": 0.6833760552,
				"y": 2.5442115048,
				"z": 1.4143650398,
				"element": "H" 
			}
		],
		 "valence_orbital": [ 
			{
				"type": "occ",
				"energy": -0.29994,
				"method": "rhf"
			},
			{
				"type": "occ",
				"energy": -0.28592,
				"method": "rhf"
			},
			{
				"type": "occ",
				"energy": -0.27335,
				"method": "rhf"
			},
			{
				"type": "occ",
				"energy": -0.25898,
				"method": "rhf"
			},
			{
				"type": "occ",
				"energy": -0.22976,
				"method": "rhf"
			},
			{
				"type": "unocc",
				"energy": -0.04879,
				"method": "rhf"
			},
			{
				"type": "unocc",
				"energy": -0.03416,
				"method": "rhf"
			},
			{
				"type": "unocc",
				"energy": -0.00578,
				"method": "rhf"
			},
			{
				"type": "unocc",
				"energy": 0.00254,
				"method": "rhf"
			},
			{
				"type": "unocc",
				"energy": 0.00771,
				"method": "rhf"
			}
		],
		"cosmo_sigma_profile": { 
			"-0.025": 0.0,
			"-0.024": 0.0,
			"-0.023": 0.0,
			"-0.022": 0.0,
			"-0.021": 0.0,
			"-0.02": 0.0,
			"-0.019": 0.0,
			"-0.018": 0.0,
			"-0.017": 0.0966823158019,
			"-0.016": 1.2640398973,
			"-0.015": 1.39803145581,
			"-0.014": 1.41283229938,
			"-0.013": 2.48461379919,
			"-0.012": 2.28254869027,
			"-0.011": 1.80740641007,
			"-0.01": 3.89903641899,
			"-0.009": 5.92515656432,
			"-0.008": 8.22879027195,
			"-0.007": 11.9823866322,
			"-0.006": 13.6350144904,
			"-0.005": 11.7816852612,
			"-0.004": 10.7175456525,
			"-0.003": 9.08167875118,
			"-0.002": 12.523317838,
			"-0.001": 12.9017097134,
			"0.0": 14.9216468829,
			"0.001": 21.4761930616,
			"0.002": 23.6903418195,
			"0.003": 17.7458178327,
			"0.004": 16.8387837371,
			"0.005": 8.73123886158,
			"0.006": 5.25340425445,
			"0.007": 4.34806763596,
			"0.008": 3.55744313289,
			"0.009": 4.5205009229,
			"0.01": 6.6985998995,
			"0.011": 8.40257452743,
			"0.012": 7.54665097209,
			"0.013": 1.09220334751,
			"0.014": 0.0,
			"0.015": 0.0,
			"0.016": 0.0,
			"0.017": 0.0,
			"0.018": 0.0,
			"0.019": 0.0,
			"0.02": 0.0,
			"0.021": 0.0,
			"0.022": 0.0,
			"0.023": 0.0,
			"0.024": 0.0,
			"0.025": 0.0
		}
	}
}
