{
	 "smiles": "CC1=CC(C)=C(Br)C(C)=C1NC(=O)CN(CC(O)=O)CC(O)=O", 
	 "Tm": 469.15, 
	 "num_atms": 42, 
	 "gaussian": { 
		 "optdone": 1, 
		 "sigma_profile": "yes", 
		 "theory": "DFT", 
		 "functional": "B3LYP", 
		 "basiset": "6-31G**", 
		 "properties": { 
			 "R2extent": 8944.5769, 
			 "electric_dipole_moment_norm": 5.67106346817, 
			 "electric_quadrupole_moment_norm": 20.5940269469, 
			 "total_energy": -3640.11449589, 
			 "HOMO_LUMO_gap": 0.21454, 
			 "cosmo_polarized_energy": -23.58, 
			 "cosmo_cavitation_energy": 44.71, 
			 "cosmo_dispersion_energy": -29.2, 
			 "cosmo_repulsion_energy": 2.15, 
			 "cosmo_total_nonelectrostatic_energy": 17.66, 
			 "SMD_solvation_energy": 9.19 
		},
		"coords": [
			{
				"x": 1.0092881743,
				"y": -1.3763800482,
				"z": 2.4208326574,
				"element": "C" 
			},
			{
				"x": 1.5520446793,
				"y": -0.1773250906,
				"z": 1.6809309915,
				"element": "C" 
			},
			{
				"x": 1.8682386191,
				"y": 0.9921155077,
				"z": 2.3691528696,
				"element": "C" 
			},
			{
				"x": 2.3280388536,
				"y": 2.1474836606,
				"z": 1.7275661907,
				"element": "C" 
			},
			{
				"x": 2.5540404426,
				"y": 3.4126406115,
				"z": 2.5117567664,
				"element": "C" 
			},
			{
				"x": 2.5326057209,
				"y": 2.057683007,
				"z": 0.3480869356,
				"element": "C" 
			},
			{
				"x": 3.1080567665,
				"y": 3.6451803398,
				"z": -0.5892409119,
				"element": "Br" 
			},
			{
				"x": 2.3017184709,
				"y": 0.8932314273,
				"z": -0.4013511672,
				"element": "C" 
			},
			{
				"x": 2.6560627281,
				"y": 0.8169296182,
				"z": -1.8659274799,
				"element": "C" 
			},
			{
				"x": 1.7422554756,
				"y": -0.2043033976,
				"z": 0.2847592686,
				"element": "C" 
			},
			{
				"x": 1.3855553614,
				"y": -1.3961839257,
				"z": -0.421746199,
				"element": "N" 
			},
			{
				"x": 0.2704524851,
				"y": -1.6209320151,
				"z": -1.2022903991,
				"element": "C" 
			},
			{
				"x": -0.0465833339,
				"y": -2.7574743134,
				"z": -1.5291127207,
				"element": "O" 
			},
			{
				"x": -0.5541842715,
				"y": -0.4131337633,
				"z": -1.6590516065,
				"element": "C" 
			},
			{
				"x": -1.5426465902,
				"y": -0.0039496308,
				"z": -0.644596118,
				"element": "N" 
			},
			{
				"x": -2.6181598441,
				"y": -0.9826521238,
				"z": -0.4422550875,
				"element": "C" 
			},
			{
				"x": -3.1346799426,
				"y": -0.9772579506,
				"z": 1.0026597788,
				"element": "C" 
			},
			{
				"x": -2.3423567804,
				"y": -0.3315969299,
				"z": 1.8797040846,
				"element": "O" 
			},
			{
				"x": -4.151447594,
				"y": -1.5378354685,
				"z": 1.3299206791,
				"element": "O" 
			},
			{
				"x": -2.0555519091,
				"y": 1.3513440328,
				"z": -0.9101697658,
				"element": "C" 
			},
			{
				"x": -1.0379640133,
				"y": 2.3861466416,
				"z": -0.4356049182,
				"element": "C" 
			},
			{
				"x": -0.3664033433,
				"y": 2.9536097446,
				"z": -1.4605363858,
				"element": "O" 
			},
			{
				"x": -0.8329801806,
				"y": 2.6442781554,
				"z": 0.7286773928,
				"element": "O" 
			},
			{
				"x": 0.9556686296,
				"y": -1.1743362246,
				"z": 3.4927861891,
				"element": "H" 
			},
			{
				"x": 0.0016833542,
				"y": -1.6392596078,
				"z": 2.0838529162,
				"element": "H" 
			},
			{
				"x": 1.6385531868,
				"y": -2.264338952,
				"z": 2.28423784,
				"element": "H" 
			},
			{
				"x": 1.7141151925,
				"y": 1.0251195103,
				"z": 3.4440646633,
				"element": "H" 
			},
			{
				"x": 1.8412431235,
				"y": 4.1863367814,
				"z": 2.2062681001,
				"element": "H" 
			},
			{
				"x": 2.4190054458,
				"y": 3.2310335451,
				"z": 3.5804021948,
				"element": "H" 
			},
			{
				"x": 3.5585999923,
				"y": 3.815813917,
				"z": 2.3512402874,
				"element": "H" 
			},
			{
				"x": 3.68203033,
				"y": 1.1613963314,
				"z": -2.0244709742,
				"element": "H" 
			},
			{
				"x": 2.013983603,
				"y": 1.462550728,
				"z": -2.4757034851,
				"element": "H" 
			},
			{
				"x": 2.5735991472,
				"y": -0.2061696177,
				"z": -2.2336175049,
				"element": "H" 
			},
			{
				"x": 1.7842394568,
				"y": -2.2688863314,
				"z": -0.0917749555,
				"element": "H" 
			},
			{
				"x": -1.0373521101,
				"y": -0.7118722961,
				"z": -2.6006541129,
				"element": "H" 
			},
			{
				"x": 0.0877816277,
				"y": 0.4415318058,
				"z": -1.8654635221,
				"element": "H" 
			},
			{
				"x": -3.4749676097,
				"y": -0.8409036315,
				"z": -1.1158339862,
				"element": "H" 
			},
			{
				"x": -2.2245270348,
				"y": -1.9847938542,
				"z": -0.6393749872,
				"element": "H" 
			},
			{
				"x": -1.6129670001,
				"y": 0.075222015,
				"z": 1.3652864576,
				"element": "H" 
			},
			{
				"x": -2.306978771,
				"y": 1.5052208377,
				"z": -1.9696658619,
				"element": "H" 
			},
			{
				"x": -2.9567694927,
				"y": 1.5036227994,
				"z": -0.3111536071,
				"element": "H" 
			},
			{
				"x": 0.3182589549,
				"y": 3.5369941552,
				"z": -1.0812905068,
				"element": "H" 
			}
		],
		 "valence_orbital": [ 
			{
				"type": "occ",
				"energy": -0.27779,
				"method": "rhf"
			},
			{
				"type": "occ",
				"energy": -0.26998,
				"method": "rhf"
			},
			{
				"type": "occ",
				"energy": -0.25554,
				"method": "rhf"
			},
			{
				"type": "occ",
				"energy": -0.25352,
				"method": "rhf"
			},
			{
				"type": "occ",
				"energy": -0.24387,
				"method": "rhf"
			},
			{
				"type": "unocc",
				"energy": -0.02933,
				"method": "rhf"
			},
			{
				"type": "unocc",
				"energy": -0.02822,
				"method": "rhf"
			},
			{
				"type": "unocc",
				"energy": -0.02174,
				"method": "rhf"
			},
			{
				"type": "unocc",
				"energy": -0.00712,
				"method": "rhf"
			},
			{
				"type": "unocc",
				"energy": -0.00063,
				"method": "rhf"
			}
		],
		"cosmo_sigma_profile": { 
			"-0.025": 0.0,
			"-0.024": 0.0,
			"-0.023": 0.0,
			"-0.022": 0.0,
			"-0.021": 0.0,
			"-0.02": 0.0,
			"-0.019": 0.0,
			"-0.018": 0.0,
			"-0.017": 0.0,
			"-0.016": 0.0,
			"-0.015": 0.0,
			"-0.014": 0.374130400795,
			"-0.013": 1.6680323029,
			"-0.012": 1.62512670018,
			"-0.011": 1.41177241711,
			"-0.01": 2.03101646533,
			"-0.009": 4.05018903452,
			"-0.008": 4.22438879112,
			"-0.007": 12.3271233051,
			"-0.006": 20.9269978778,
			"-0.005": 25.7103748135,
			"-0.004": 28.1573731292,
			"-0.003": 27.8666688039,
			"-0.002": 27.9689233174,
			"-0.001": 32.0512918129,
			"0.0": 31.0842397937,
			"0.001": 19.9573558323,
			"0.002": 17.3387768504,
			"0.003": 17.5467193323,
			"0.004": 12.1048409575,
			"0.005": 6.77686177896,
			"0.006": 6.25521181216,
			"0.007": 6.7922050253,
			"0.008": 6.45987649095,
			"0.009": 5.84006508329,
			"0.01": 9.10511448241,
			"0.011": 8.17492525082,
			"0.012": 9.38826757384,
			"0.013": 6.92957207399,
			"0.014": 0.871001377346,
			"0.015": 0.0,
			"0.016": 0.0,
			"0.017": 0.0,
			"0.018": 0.0,
			"0.019": 0.0,
			"0.02": 0.0,
			"0.021": 0.0,
			"0.022": 0.0,
			"0.023": 0.0,
			"0.024": 0.0,
			"0.025": 0.0
		}
	}
}
