{
	 "smiles": "CC1=CC(C)=C(I)C(C)=C1", 
	 "Tm": 302.15, 
	 "num_atms": 21, 
	 "gaussian": { 
		 "optdone": 1, 
		 "sigma_profile": "no", 
		 "theory": "DFT", 
		 "functional": "B3LYP", 
		 "basiset": "6-31G**", 
		 "properties": { 
			 "R2extent": 1747.5806, 
			 "electric_dipole_moment_norm": 1.890569401, 
			 "electric_quadrupole_moment_norm": 5.37058499886, 
			 "total_energy": -360.99445688, 
			 "HOMO_LUMO_gap": 0.19809, 
			 "cosmo_polarized_energy": -76611.23, 
			 "cosmo_cavitation_energy": 26.33, 
			 "cosmo_dispersion_energy": -20.52, 
			 "cosmo_repulsion_energy": 1.61, 
			 "cosmo_total_nonelectrostatic_energy": 7.42, 
			 "SMD_solvation_energy": 3.84 
		},
		"coords": [
			{
				"x": -0.6314965287,
				"y": -2.6554725067,
				"z": 0.7268067919,
				"element": "C" 
			},
			{
				"x": -0.4269076413,
				"y": -1.192245553,
				"z": 0.4130198094,
				"element": "C" 
			},
			{
				"x": 0.2175626973,
				"y": -0.3460463824,
				"z": 1.3177423456,
				"element": "C" 
			},
			{
				"x": 0.4495064744,
				"y": 1.0086061078,
				"z": 1.0447152016,
				"element": "C" 
			},
			{
				"x": 1.1513146818,
				"y": 1.859768498,
				"z": 2.0738991181,
				"element": "C" 
			},
			{
				"x": 0.0035488347,
				"y": 1.5043300545,
				"z": -0.1922478526,
				"element": "C" 
			},
			{
				"x": 0.3298681264,
				"y": 3.567521719,
				"z": -0.6538364151,
				"element": "I" 
			},
			{
				"x": -0.6537091579,
				"y": 0.6954903729,
				"z": -1.1348324982,
				"element": "C" 
			},
			{
				"x": -1.1465117413,
				"y": 1.2076679675,
				"z": -2.4656286603,
				"element": "C" 
			},
			{
				"x": -0.8547418079,
				"y": -0.6503952007,
				"z": -0.8007685426,
				"element": "C" 
			},
			{
				"x": -1.526517613,
				"y": -3.0486735903,
				"z": 0.2355324673,
				"element": "H" 
			},
			{
				"x": 0.2193901106,
				"y": -3.256669998,
				"z": 0.3824958463,
				"element": "H" 
			},
			{
				"x": -0.7330238784,
				"y": -2.8234321854,
				"z": 1.8031428357,
				"element": "H" 
			},
			{
				"x": 0.5538760793,
				"y": -0.7438995705,
				"z": 2.2724295141,
				"element": "H" 
			},
			{
				"x": 0.524995271,
				"y": 2.6986723114,
				"z": 2.3959182773,
				"element": "H" 
			},
			{
				"x": 1.4046474665,
				"y": 1.2648738214,
				"z": 2.9550110975,
				"element": "H" 
			},
			{
				"x": 2.0758246375,
				"y": 2.2907946348,
				"z": 1.6748958488,
				"element": "H" 
			},
			{
				"x": -0.3258194304,
				"y": 1.6096005678,
				"z": -3.0694566968,
				"element": "H" 
			},
			{
				"x": -1.8726040812,
				"y": 2.0180855975,
				"z": -2.3401398724,
				"element": "H" 
			},
			{
				"x": -1.6253870466,
				"y": 0.4048352698,
				"z": -3.0318191314,
				"element": "H" 
			},
			{
				"x": -1.3650154526,
				"y": -1.2885119352,
				"z": -1.5185794845,
				"element": "H" 
			}
		],
		 "valence_orbital": [ 
			{
				"type": "occ",
				"energy": -0.3255,
				"method": "rhf"
			},
			{
				"type": "occ",
				"energy": -0.28227,
				"method": "rhf"
			},
			{
				"type": "occ",
				"energy": -0.25892,
				"method": "rhf"
			},
			{
				"type": "occ",
				"energy": -0.24238,
				"method": "rhf"
			},
			{
				"type": "occ",
				"energy": -0.22744,
				"method": "rhf"
			},
			{
				"type": "unocc",
				"energy": -0.02935,
				"method": "rhf"
			},
			{
				"type": "unocc",
				"energy": -0.00902,
				"method": "rhf"
			},
			{
				"type": "unocc",
				"energy": -0.00179,
				"method": "rhf"
			},
			{
				"type": "unocc",
				"energy": 0.04198,
				"method": "rhf"
			},
			{
				"type": "unocc",
				"energy": 0.04989,
				"method": "rhf"
			}
		],
		"cosmo_sigma_profile": { 
			"0.0": 0.0,
			"0.0": 0.0,
			"0.0": 0.0,
			"0.0": 0.0,
			"0.0": 0.0,
			"0.0": 0.0,
			"0.0": 0.0,
			"0.0": 0.0,
			"0.0": 0.0,
			"0.0": 0.0,
			"0.0": 0.0,
			"0.0": 0.0,
			"0.0": 0.0,
			"0.0": 0.0,
			"0.0": 0.0,
			"0.0": 0.0,
			"0.0": 0.0,
			"0.0": 0.0,
			"0.0": 0.0,
			"0.0": 0.0,
			"0.0": 0.0,
			"0.0": 0.0,
			"0.0": 0.0,
			"0.0": 0.0,
			"0.0": 0.0,
			"0.0": 0.0,
			"0.0": 0.0,
			"0.0": 0.0,
			"0.0": 0.0,
			"0.0": 0.0,
			"0.0": 0.0,
			"0.0": 0.0,
			"0.0": 0.0,
			"0.0": 0.0,
			"0.0": 0.0,
			"0.0": 0.0,
			"0.0": 0.0,
			"0.0": 0.0,
			"0.0": 0.0,
			"0.0": 0.0,
			"0.0": 0.0,
			"0.0": 0.0,
			"0.0": 0.0,
			"0.0": 0.0,
			"0.0": 0.0,
			"0.0": 0.0,
			"0.0": 0.0,
			"0.0": 0.0,
			"0.0": 0.0,
			"0.0": 0.0,
			"0.0": 0.0
		}
	}
}
