{
	 "smiles": "CN(C)C(=O)COC1=CC(=CC=C1)C(C)=O", 
	 "Tm": 367.15, 
	 "num_atms": 31, 
	 "gaussian": { 
		 "optdone": 1, 
		 "sigma_profile": "yes", 
		 "theory": "DFT", 
		 "functional": "B3LYP", 
		 "basiset": "6-31G**", 
		 "properties": { 
			 "R2extent": 5398.0872, 
			 "electric_dipole_moment_norm": 1.82693068013, 
			 "electric_quadrupole_moment_norm": 28.7261091788, 
			 "total_energy": -746.740912418, 
			 "HOMO_LUMO_gap": 0.17584, 
			 "cosmo_polarized_energy": -14.42, 
			 "cosmo_cavitation_energy": 34.47, 
			 "cosmo_dispersion_energy": -24.27, 
			 "cosmo_repulsion_energy": 1.9, 
			 "cosmo_total_nonelectrostatic_energy": 12.1, 
			 "SMD_solvation_energy": 7.43 
		},
		"coords": [
			{
				"x": -3.4769636184,
				"y": -1.0951985268,
				"z": 1.4248022053,
				"element": "C" 
			},
			{
				"x": -3.0499273791,
				"y": -0.6177624948,
				"z": 0.1155744339,
				"element": "N" 
			},
			{
				"x": -3.3855777971,
				"y": 0.766608639,
				"z": -0.189941653,
				"element": "C" 
			},
			{
				"x": -2.4812759245,
				"y": -1.5056423711,
				"z": -0.752893544,
				"element": "C" 
			},
			{
				"x": -2.3101889071,
				"y": -2.6938564548,
				"z": -0.4811692897,
				"element": "O" 
			},
			{
				"x": -2.0556148245,
				"y": -1.0002032255,
				"z": -2.1457740619,
				"element": "C" 
			},
			{
				"x": -1.1723032946,
				"y": 0.1165649614,
				"z": -2.1581016314,
				"element": "O" 
			},
			{
				"x": 0.1393387107,
				"y": -0.0700891066,
				"z": -1.794729849,
				"element": "C" 
			},
			{
				"x": 0.967407459,
				"y": 1.0424375894,
				"z": -1.9549710171,
				"element": "C" 
			},
			{
				"x": 2.3241348931,
				"y": 0.9688103969,
				"z": -1.6265170097,
				"element": "C" 
			},
			{
				"x": 2.8538831423,
				"y": -0.2360354007,
				"z": -1.1347016349,
				"element": "C" 
			},
			{
				"x": 2.0200199994,
				"y": -1.3390920187,
				"z": -0.974765896,
				"element": "C" 
			},
			{
				"x": 0.6613556068,
				"y": -1.2721312146,
				"z": -1.2971404873,
				"element": "C" 
			},
			{
				"x": 3.1564136621,
				"y": 2.20298214,
				"z": -1.8227004852,
				"element": "C" 
			},
			{
				"x": 4.6372842265,
				"y": 2.1474002289,
				"z": -1.4862951327,
				"element": "C" 
			},
			{
				"x": 2.6547525491,
				"y": 3.234064623,
				"z": -2.2444131771,
				"element": "O" 
			},
			{
				"x": -4.5697573509,
				"y": -1.0484574051,
				"z": 1.5162126833,
				"element": "H" 
			},
			{
				"x": -3.0377504288,
				"y": -0.4735178607,
				"z": 2.213633519,
				"element": "H" 
			},
			{
				"x": -3.1502503737,
				"y": -2.1270658703,
				"z": 1.5404747606,
				"element": "H" 
			},
			{
				"x": -2.9247085885,
				"y": 1.0887850535,
				"z": -1.1201953173,
				"element": "H" 
			},
			{
				"x": -3.0130739879,
				"y": 1.4192824057,
				"z": 0.6082481977,
				"element": "H" 
			},
			{
				"x": -4.474301572,
				"y": 0.8982662853,
				"z": -0.252911521,
				"element": "H" 
			},
			{
				"x": -1.6153099686,
				"y": -1.8610976096,
				"z": -2.6563372731,
				"element": "H" 
			},
			{
				"x": -2.9337774783,
				"y": -0.6739264868,
				"z": -2.7118080185,
				"element": "H" 
			},
			{
				"x": 0.5636449898,
				"y": 1.9719313769,
				"z": -2.3402095269,
				"element": "H" 
			},
			{
				"x": 3.903817934,
				"y": -0.3145393437,
				"z": -0.8751305751,
				"element": "H" 
			},
			{
				"x": 2.4224895534,
				"y": -2.2708462809,
				"z": -0.588317921,
				"element": "H" 
			},
			{
				"x": 0.028344048,
				"y": -2.1380667262,
				"z": -1.1403714747,
				"element": "H" 
			},
			{
				"x": 5.1475319096,
				"y": 1.3843556297,
				"z": -2.0842948618,
				"element": "H" 
			},
			{
				"x": 4.7913419936,
				"y": 1.8918121281,
				"z": -0.4321495231,
				"element": "H" 
			},
			{
				"x": 5.078320817,
				"y": 3.1233269389,
				"z": -1.6907049185,
				"element": "H" 
			}
		],
		 "valence_orbital": [ 
			{
				"type": "occ",
				"energy": -0.25819,
				"method": "rhf"
			},
			{
				"type": "occ",
				"energy": -0.25675,
				"method": "rhf"
			},
			{
				"type": "occ",
				"energy": -0.2474,
				"method": "rhf"
			},
			{
				"type": "occ",
				"energy": -0.24603,
				"method": "rhf"
			},
			{
				"type": "occ",
				"energy": -0.22812,
				"method": "rhf"
			},
			{
				"type": "unocc",
				"energy": -0.05228,
				"method": "rhf"
			},
			{
				"type": "unocc",
				"energy": -0.00192,
				"method": "rhf"
			},
			{
				"type": "unocc",
				"energy": 0.00684,
				"method": "rhf"
			},
			{
				"type": "unocc",
				"energy": 0.04647,
				"method": "rhf"
			},
			{
				"type": "unocc",
				"energy": 0.0844,
				"method": "rhf"
			}
		],
		"cosmo_sigma_profile": { 
			"-0.025": 0.0,
			"-0.024": 0.0,
			"-0.023": 0.0,
			"-0.022": 0.0,
			"-0.021": 0.0,
			"-0.02": 0.0,
			"-0.019": 0.0,
			"-0.018": 0.0,
			"-0.017": 0.0,
			"-0.016": 0.0,
			"-0.015": 0.0,
			"-0.014": 0.0,
			"-0.013": 0.0,
			"-0.012": 0.0,
			"-0.011": 0.0,
			"-0.01": 0.0,
			"-0.009": 0.0,
			"-0.008": 1.88530295618,
			"-0.007": 4.80762589209,
			"-0.006": 15.6234673797,
			"-0.005": 27.145362298,
			"-0.004": 28.0933561793,
			"-0.003": 27.281222888,
			"-0.002": 28.7992848147,
			"-0.001": 19.3430333184,
			"0.0": 14.7965580415,
			"0.001": 16.4530033907,
			"0.002": 16.4758392613,
			"0.003": 17.208399899,
			"0.004": 13.2522612562,
			"0.005": 5.52923658891,
			"0.006": 4.30477293994,
			"0.007": 3.76157712569,
			"0.008": 3.11406059003,
			"0.009": 4.05906813841,
			"0.01": 2.88735937087,
			"0.011": 4.2009974161,
			"0.012": 6.1172514445,
			"0.013": 5.05471446895,
			"0.014": 2.71944439663,
			"0.015": 0.144141001912,
			"0.016": 0.0,
			"0.017": 0.0,
			"0.018": 0.0,
			"0.019": 0.0,
			"0.02": 0.0,
			"0.021": 0.0,
			"0.022": 0.0,
			"0.023": 0.0,
			"0.024": 0.0,
			"0.025": 0.0
		}
	}
}
