{
	 "smiles": "OC1=CC(OC2=NC=CC=N2)=CC=C1", 
	 "Tm": 466.15, 
	 "num_atms": 22, 
	 "gaussian": { 
		 "optdone": 1, 
		 "sigma_profile": "yes", 
		 "theory": "DFT", 
		 "functional": "B3LYP", 
		 "basiset": "6-31G**", 
		 "properties": { 
			 "R2extent": 3526.1548, 
			 "electric_dipole_moment_norm": 2.56472372196, 
			 "electric_quadrupole_moment_norm": 11.4206485678, 
			 "total_energy": -645.81772827, 
			 "HOMO_LUMO_gap": 0.17755, 
			 "cosmo_polarized_energy": -14.97, 
			 "cosmo_cavitation_energy": 27.46, 
			 "cosmo_dispersion_energy": -20.17, 
			 "cosmo_repulsion_energy": 1.6, 
			 "cosmo_total_nonelectrostatic_energy": 8.89, 
			 "SMD_solvation_energy": 2.89 
		},
		"coords": [
			{
				"x": -1.4028670775,
				"y": 2.8424438505,
				"z": 3.4987674018,
				"element": "O" 
			},
			{
				"x": -1.5880792907,
				"y": 1.9595883495,
				"z": 2.4735195832,
				"element": "C" 
			},
			{
				"x": -0.5183675084,
				"y": 1.3790826318,
				"z": 1.7840810667,
				"element": "C" 
			},
			{
				"x": -0.7863212423,
				"y": 0.4859335678,
				"z": 0.7507757794,
				"element": "C" 
			},
			{
				"x": 0.2998411276,
				"y": -0.1534237369,
				"z": 0.1508183576,
				"element": "O" 
			},
			{
				"x": 0.7059524005,
				"y": 0.2192553065,
				"z": -1.0862329949,
				"element": "C" 
			},
			{
				"x": 1.7019793815,
				"y": -0.5344145292,
				"z": -1.5642326128,
				"element": "N" 
			},
			{
				"x": 2.1406582119,
				"y": -0.1954244804,
				"z": -2.7776323228,
				"element": "C" 
			},
			{
				"x": 1.6062669231,
				"y": 0.8669787462,
				"z": -3.5087656564,
				"element": "C" 
			},
			{
				"x": 0.5750603722,
				"y": 1.570021783,
				"z": -2.893162218,
				"element": "C" 
			},
			{
				"x": 0.1132828023,
				"y": 1.257651487,
				"z": -1.6768184162,
				"element": "N" 
			},
			{
				"x": -2.0873693907,
				"y": 0.1495364419,
				"z": 0.3900216078,
				"element": "C" 
			},
			{
				"x": -3.1417666123,
				"y": 0.7417017156,
				"z": 1.0882892998,
				"element": "C" 
			},
			{
				"x": -2.9056466101,
				"y": 1.6423130009,
				"z": 2.124446511,
				"element": "C" 
			},
			{
				"x": -0.4562668913,
				"y": 2.9743264935,
				"z": 3.63817828,
				"element": "H" 
			},
			{
				"x": 0.5127598044,
				"y": 1.6046561353,
				"z": 2.0411674735,
				"element": "H" 
			},
			{
				"x": 2.951885487,
				"y": -0.8010243952,
				"z": -3.1788351525,
				"element": "H" 
			},
			{
				"x": 1.9727081027,
				"y": 1.1284221228,
				"z": -4.4943527726,
				"element": "H" 
			},
			{
				"x": 0.096479703,
				"y": 2.4164752945,
				"z": -3.3829067387,
				"element": "H" 
			},
			{
				"x": -2.2624218405,
				"y": -0.5576914322,
				"z": -0.4124139271,
				"element": "H" 
			},
			{
				"x": -4.1648187322,
				"y": 0.4932944878,
				"z": 0.8219126061,
				"element": "H" 
			},
			{
				"x": -3.7195491202,
				"y": 2.1027971594,
				"z": 2.673674845,
				"element": "H" 
			}
		],
		 "valence_orbital": [ 
			{
				"type": "occ",
				"energy": -0.31949,
				"method": "rhf"
			},
			{
				"type": "occ",
				"energy": -0.26054,
				"method": "rhf"
			},
			{
				"type": "occ",
				"energy": -0.25683,
				"method": "rhf"
			},
			{
				"type": "occ",
				"energy": -0.24582,
				"method": "rhf"
			},
			{
				"type": "occ",
				"energy": -0.22073,
				"method": "rhf"
			},
			{
				"type": "unocc",
				"energy": -0.04318,
				"method": "rhf"
			},
			{
				"type": "unocc",
				"energy": -0.01493,
				"method": "rhf"
			},
			{
				"type": "unocc",
				"energy": 0.00102,
				"method": "rhf"
			},
			{
				"type": "unocc",
				"energy": 0.01288,
				"method": "rhf"
			},
			{
				"type": "unocc",
				"energy": 0.06974,
				"method": "rhf"
			}
		],
		"cosmo_sigma_profile": { 
			"-0.025": 0.0,
			"-0.024": 0.0,
			"-0.023": 0.0,
			"-0.022": 0.0,
			"-0.021": 0.0,
			"-0.02": 0.0,
			"-0.019": 0.0,
			"-0.018": 0.62372637631,
			"-0.017": 1.05209336935,
			"-0.016": 1.56353423337,
			"-0.015": 0.800554826855,
			"-0.014": 1.37046893601,
			"-0.013": 0.983814841384,
			"-0.012": 0.56980888608,
			"-0.011": 0.759628342833,
			"-0.01": 1.41747805323,
			"-0.009": 1.49464337902,
			"-0.008": 6.16719786154,
			"-0.007": 9.70565276288,
			"-0.006": 15.031804427,
			"-0.005": 11.5164032983,
			"-0.004": 12.7000635835,
			"-0.003": 12.1885354895,
			"-0.002": 12.4027313676,
			"-0.001": 14.8119408642,
			"0.0": 15.5465758259,
			"0.001": 12.7081858949,
			"0.002": 11.5168829397,
			"0.003": 15.3519935537,
			"0.004": 13.6221769101,
			"0.005": 9.90917956155,
			"0.006": 5.51421400515,
			"0.007": 6.09411729298,
			"0.008": 4.43614600177,
			"0.009": 3.91709502963,
			"0.01": 4.88359952189,
			"0.011": 4.76902636131,
			"0.012": 3.00702526048,
			"0.013": 2.44620715906,
			"0.014": 1.02294065903,
			"0.015": 0.959364598674,
			"0.016": 0.0971405803448,
			"0.017": 0.0,
			"0.018": 0.0,
			"0.019": 0.0,
			"0.02": 0.0,
			"0.021": 0.0,
			"0.022": 0.0,
			"0.023": 0.0,
			"0.024": 0.0,
			"0.025": 0.0
		}
	}
}
