{
	 "smiles": "COC(=O)CCCCCNC(=O)C1=CSC=C1", 
	 "Tm": 351.15, 
	 "num_atms": 34, 
	 "gaussian": { 
		 "optdone": 1, 
		 "sigma_profile": "yes", 
		 "theory": "DFT", 
		 "functional": "B3LYP", 
		 "basiset": "6-31G**", 
		 "properties": { 
			 "R2extent": 9041.4343, 
			 "electric_dipole_moment_norm": 4.08943314531, 
			 "electric_quadrupole_moment_norm": 14.0333071936, 
			 "total_energy": -1146.14714043, 
			 "HOMO_LUMO_gap": 0.2092, 
			 "cosmo_polarized_energy": -17.51, 
			 "cosmo_cavitation_energy": 39.4, 
			 "cosmo_dispersion_energy": -27.83, 
			 "cosmo_repulsion_energy": 2.17, 
			 "cosmo_total_nonelectrostatic_energy": 13.74, 
			 "SMD_solvation_energy": 7.5 
		},
		"coords": [
			{
				"x": -0.149568873,
				"y": -2.5210436542,
				"z": -3.1459194549,
				"element": "C" 
			},
			{
				"x": 0.2961216921,
				"y": -3.0276042868,
				"z": -1.8754683681,
				"element": "O" 
			},
			{
				"x": 1.4806490556,
				"y": -2.5406196706,
				"z": -1.4422981301,
				"element": "C" 
			},
			{
				"x": 2.1236346323,
				"y": -1.7117982339,
				"z": -2.0513411345,
				"element": "O" 
			},
			{
				"x": 1.9035189013,
				"y": -3.1917178989,
				"z": -0.1379462752,
				"element": "C" 
			},
			{
				"x": 2.7364240286,
				"y": -2.2657945569,
				"z": 0.7628870075,
				"element": "C" 
			},
			{
				"x": 1.9143871378,
				"y": -1.2927789216,
				"z": 1.6248307042,
				"element": "C" 
			},
			{
				"x": 1.0378358403,
				"y": -0.3039283446,
				"z": 0.8433975107,
				"element": "C" 
			},
			{
				"x": 0.3426651696,
				"y": 0.703088891,
				"z": 1.7672997861,
				"element": "C" 
			},
			{
				"x": -0.5355770926,
				"y": 1.5912981991,
				"z": 1.0133664026,
				"element": "N" 
			},
			{
				"x": -0.7032677859,
				"y": 2.9508143726,
				"z": 1.098467083,
				"element": "C" 
			},
			{
				"x": -1.2453675725,
				"y": 3.5724779172,
				"z": 0.1865750807,
				"element": "O" 
			},
			{
				"x": -0.2445337099,
				"y": 3.6743746445,
				"z": 2.3242817625,
				"element": "C" 
			},
			{
				"x": -0.1736987128,
				"y": 3.1971650689,
				"z": 3.6118629666,
				"element": "C" 
			},
			{
				"x": 0.2820089853,
				"y": 4.4325541782,
				"z": 4.7339251687,
				"element": "S" 
			},
			{
				"x": 0.3866659284,
				"y": 5.6126473884,
				"z": 3.4616273882,
				"element": "C" 
			},
			{
				"x": 0.0695747786,
				"y": 5.0729202146,
				"z": 2.2512514195,
				"element": "C" 
			},
			{
				"x": -1.1064810015,
				"y": -3.0063405117,
				"z": -3.337160347,
				"element": "H" 
			},
			{
				"x": 0.569232993,
				"y": -2.766341339,
				"z": -3.9317368946,
				"element": "H" 
			},
			{
				"x": -0.2696055418,
				"y": -1.4355923594,
				"z": -3.1074321672,
				"element": "H" 
			},
			{
				"x": 1.0206498387,
				"y": -3.583996182,
				"z": 0.3767820392,
				"element": "H" 
			},
			{
				"x": 2.5062398885,
				"y": -4.0642073301,
				"z": -0.4234834664,
				"element": "H" 
			},
			{
				"x": 3.4329613215,
				"y": -1.7075868009,
				"z": 0.1278244548,
				"element": "H" 
			},
			{
				"x": 3.3435293254,
				"y": -2.8855088869,
				"z": 1.4322692509,
				"element": "H" 
			},
			{
				"x": 1.2798873115,
				"y": -1.8695427686,
				"z": 2.3130621964,
				"element": "H" 
			},
			{
				"x": 2.6109431679,
				"y": -0.7266064229,
				"z": 2.2576112684,
				"element": "H" 
			},
			{
				"x": 1.6403681591,
				"y": 0.2357961569,
				"z": 0.1039370914,
				"element": "H" 
			},
			{
				"x": 0.2690960001,
				"y": -0.8522708519,
				"z": 0.2812348854,
				"element": "H" 
			},
			{
				"x": 1.0926474646,
				"y": 1.3057551554,
				"z": 2.2868861414,
				"element": "H" 
			},
			{
				"x": -0.2222267031,
				"y": 0.1565426784,
				"z": 2.5387838881,
				"element": "H" 
			},
			{
				"x": -0.9115663804,
				"y": 1.2290317661,
				"z": 0.1456441829,
				"element": "H" 
			},
			{
				"x": -0.4014310828,
				"y": 2.2060881269,
				"z": 3.9760696843,
				"element": "H" 
			},
			{
				"x": 0.6709867024,
				"y": 6.6300823688,
				"z": 3.6910508542,
				"element": "H" 
			},
			{
				"x": 0.0429961336,
				"y": 5.6219418941,
				"z": 1.3186580203,
				"element": "H" 
			}
		],
		 "valence_orbital": [ 
			{
				"type": "occ",
				"energy": -0.27597,
				"method": "rhf"
			},
			{
				"type": "occ",
				"energy": -0.25783,
				"method": "rhf"
			},
			{
				"type": "occ",
				"energy": -0.247,
				"method": "rhf"
			},
			{
				"type": "occ",
				"energy": -0.24197,
				"method": "rhf"
			},
			{
				"type": "occ",
				"energy": -0.23762,
				"method": "rhf"
			},
			{
				"type": "unocc",
				"energy": -0.02842,
				"method": "rhf"
			},
			{
				"type": "unocc",
				"energy": 0.00674,
				"method": "rhf"
			},
			{
				"type": "unocc",
				"energy": 0.01773,
				"method": "rhf"
			},
			{
				"type": "unocc",
				"energy": 0.02773,
				"method": "rhf"
			},
			{
				"type": "unocc",
				"energy": 0.07499,
				"method": "rhf"
			}
		],
		"cosmo_sigma_profile": { 
			"-0.025": 0.0,
			"-0.024": 0.0,
			"-0.023": 0.0,
			"-0.022": 0.0,
			"-0.021": 0.0,
			"-0.02": 0.0,
			"-0.019": 0.0,
			"-0.018": 0.0,
			"-0.017": 0.0,
			"-0.016": 0.0,
			"-0.015": 0.0,
			"-0.014": 0.0,
			"-0.013": 0.122687765956,
			"-0.012": 0.993086222139,
			"-0.011": 0.834324741973,
			"-0.01": 0.949258986594,
			"-0.009": 3.11702304233,
			"-0.008": 5.28459865229,
			"-0.007": 6.08967519146,
			"-0.006": 13.8034993029,
			"-0.005": 16.3148588103,
			"-0.004": 26.5535567984,
			"-0.003": 39.505183788,
			"-0.002": 35.1514670066,
			"-0.001": 25.8750933587,
			"0.0": 21.5361804667,
			"0.001": 15.5809152332,
			"0.002": 16.4988838027,
			"0.003": 20.8918276132,
			"0.004": 14.0577554449,
			"0.005": 8.60282812055,
			"0.006": 3.8106016659,
			"0.007": 3.97332982669,
			"0.008": 4.58705150633,
			"0.009": 3.93919971758,
			"0.01": 3.28163179097,
			"0.011": 3.22086716863,
			"0.012": 5.87839182525,
			"0.013": 3.97920164616,
			"0.014": 5.99729926377,
			"0.015": 1.50268088989,
			"0.016": 0.0,
			"0.017": 0.0,
			"0.018": 0.0,
			"0.019": 0.0,
			"0.02": 0.0,
			"0.021": 0.0,
			"0.022": 0.0,
			"0.023": 0.0,
			"0.024": 0.0,
			"0.025": 0.0
		}
	}
}
