{
	 "smiles": "N#CC1=CC=CC=C1", 
	 "Tm": 260.35, 
	 "num_atms": 13, 
	 "gaussian": { 
		 "optdone": 1, 
		 "sigma_profile": "yes", 
		 "theory": "DFT", 
		 "functional": "B3LYP", 
		 "basiset": "6-31G**", 
		 "properties": { 
			 "R2extent": 1062.9055, 
			 "electric_dipole_moment_norm": 4.54252321183, 
			 "electric_quadrupole_moment_norm": 13.6259953596, 
			 "total_energy": -324.492366355, 
			 "HOMO_LUMO_gap": 0.21467, 
			 "cosmo_polarized_energy": -8.2, 
			 "cosmo_cavitation_energy": 18.23, 
			 "cosmo_dispersion_energy": -13.03, 
			 "cosmo_repulsion_energy": 1.08, 
			 "cosmo_total_nonelectrostatic_energy": 6.28, 
			 "SMD_solvation_energy": 4.66 
		},
		"coords": [
			{
				"x": 3.1105033378,
				"y": 1.7224477141,
				"z": 1.8861622665,
				"element": "N" 
			},
			{
				"x": 2.2452175561,
				"y": 1.2411631421,
				"z": 1.2754850951,
				"element": "C" 
			},
			{
				"x": 1.177761193,
				"y": 0.6476555071,
				"z": 0.5226391778,
				"element": "C" 
			},
			{
				"x": 0.3137314042,
				"y": 1.4607880637,
				"z": -0.2306764228,
				"element": "C" 
			},
			{
				"x": -0.7204231401,
				"y": 0.8786184867,
				"z": -0.959289369,
				"element": "C" 
			},
			{
				"x": -0.8988269888,
				"y": -0.5069530318,
				"z": -0.9420158851,
				"element": "C" 
			},
			{
				"x": -0.0403701359,
				"y": -1.3160216485,
				"z": -0.1934224759,
				"element": "C" 
			},
			{
				"x": 0.9975679349,
				"y": -0.7460677212,
				"z": 0.5394552749,
				"element": "C" 
			},
			{
				"x": 0.4608834388,
				"y": 2.5355930011,
				"z": -0.237359959,
				"element": "H" 
			},
			{
				"x": -1.3877411265,
				"y": 1.5069496998,
				"z": -1.5411260014,
				"element": "H" 
			},
			{
				"x": -1.7067375644,
				"y": -0.9561552001,
				"z": -1.5118463196,
				"element": "H" 
			},
			{
				"x": -0.1793460248,
				"y": -2.3926640789,
				"z": -0.1802746561,
				"element": "H" 
			},
			{
				"x": 1.6696801158,
				"y": -1.365353934,
				"z": 1.1239692745,
				"element": "H" 
			}
		],
		 "valence_orbital": [ 
			{
				"type": "occ",
				"energy": -0.35617,
				"method": "rhf"
			},
			{
				"type": "occ",
				"energy": -0.34739,
				"method": "rhf"
			},
			{
				"type": "occ",
				"energy": -0.32978,
				"method": "rhf"
			},
			{
				"type": "occ",
				"energy": -0.27663,
				"method": "rhf"
			},
			{
				"type": "occ",
				"energy": -0.26697,
				"method": "rhf"
			},
			{
				"type": "unocc",
				"energy": -0.0523,
				"method": "rhf"
			},
			{
				"type": "unocc",
				"energy": -0.02539,
				"method": "rhf"
			},
			{
				"type": "unocc",
				"energy": 0.03687,
				"method": "rhf"
			},
			{
				"type": "unocc",
				"energy": 0.07301,
				"method": "rhf"
			},
			{
				"type": "unocc",
				"energy": 0.07708,
				"method": "rhf"
			}
		],
		"cosmo_sigma_profile": { 
			"-0.025": 0.0,
			"-0.024": 0.0,
			"-0.023": 0.0,
			"-0.022": 0.0,
			"-0.021": 0.0,
			"-0.02": 0.0,
			"-0.019": 0.0,
			"-0.018": 0.0,
			"-0.017": 0.0,
			"-0.016": 0.0,
			"-0.015": 0.0,
			"-0.014": 0.0,
			"-0.013": 0.0,
			"-0.012": 0.0,
			"-0.011": 0.0,
			"-0.01": 0.0,
			"-0.009": 0.0,
			"-0.008": 1.99570343267,
			"-0.007": 9.76194959298,
			"-0.006": 13.0974945423,
			"-0.005": 12.3458200543,
			"-0.004": 8.6888346985,
			"-0.003": 8.21651030294,
			"-0.002": 7.71619424545,
			"-0.001": 11.6897077786,
			"0.0": 9.70754163661,
			"0.001": 10.8701318248,
			"0.002": 12.2521596045,
			"0.003": 13.8313506842,
			"0.004": 3.26334377838,
			"0.005": 2.12898381793,
			"0.006": 2.30756933343,
			"0.007": 2.95443997149,
			"0.008": 3.25680040324,
			"0.009": 3.73467519498,
			"0.01": 2.97123467437,
			"0.011": 3.06409803973,
			"0.012": 2.23684435081,
			"0.013": 1.75122248603,
			"0.014": 0.119899766772,
			"0.015": 0.0,
			"0.016": 0.0,
			"0.017": 0.0,
			"0.018": 0.0,
			"0.019": 0.0,
			"0.02": 0.0,
			"0.021": 0.0,
			"0.022": 0.0,
			"0.023": 0.0,
			"0.024": 0.0,
			"0.025": 0.0
		}
	}
}
