{
	 "smiles": "FC1=C2C(Cl)=NC=NC2=CC=C1", 
	 "Tm": 413.15, 
	 "num_atms": 16, 
	 "gaussian": { 
		 "optdone": 1, 
		 "sigma_profile": "yes", 
		 "theory": "DFT", 
		 "functional": "B3LYP", 
		 "basiset": "6-31G**", 
		 "properties": { 
			 "R2extent": 2331.7438, 
			 "electric_dipole_moment_norm": 3.12164349342, 
			 "electric_quadrupole_moment_norm": 3.52853320234, 
			 "total_energy": -976.787067565, 
			 "HOMO_LUMO_gap": 0.17176, 
			 "cosmo_polarized_energy": -7.05, 
			 "cosmo_cavitation_energy": 22.7, 
			 "cosmo_dispersion_energy": -17.34, 
			 "cosmo_repulsion_energy": 1.33, 
			 "cosmo_total_nonelectrostatic_energy": 6.69, 
			 "SMD_solvation_energy": 1.21 
		},
		"coords": [
			{
				"x": -0.7495848361,
				"y": -0.7630055886,
				"z": -2.4769016066,
				"element": "F" 
			},
			{
				"x": -0.1037138182,
				"y": -0.625429628,
				"z": -1.308642528,
				"element": "C" 
			},
			{
				"x": -0.8229984341,
				"y": -0.2728546334,
				"z": -0.1357224816,
				"element": "C" 
			},
			{
				"x": -2.2230956106,
				"y": -0.0240730452,
				"z": 0.0065907467,
				"element": "C" 
			},
			{
				"x": -3.3134948456,
				"y": -0.1327662905,
				"z": -1.3627439123,
				"element": "Cl" 
			},
			{
				"x": -2.7807520118,
				"y": 0.2951616809,
				"z": 1.1409344493,
				"element": "N" 
			},
			{
				"x": -1.9664629283,
				"y": 0.3892900266,
				"z": 2.2269551034,
				"element": "C" 
			},
			{
				"x": -0.6716466304,
				"y": 0.1934141311,
				"z": 2.2619508105,
				"element": "N" 
			},
			{
				"x": -0.070734194,
				"y": -0.1417519085,
				"z": 1.0829339053,
				"element": "C" 
			},
			{
				"x": 1.3284131119,
				"y": -0.3614279722,
				"z": 1.0813477012,
				"element": "C" 
			},
			{
				"x": 1.9727818731,
				"y": -0.701207853,
				"z": -0.0868285112,
				"element": "C" 
			},
			{
				"x": 1.2547256851,
				"y": -0.8355041866,
				"z": -1.2944695748,
				"element": "C" 
			},
			{
				"x": -2.4614883837,
				"y": 0.6570823756,
				"z": 3.1575307343,
				"element": "H" 
			},
			{
				"x": 1.8542966034,
				"y": -0.2514789691,
				"z": 2.0226406184,
				"element": "H" 
			},
			{
				"x": 3.0450987478,
				"y": -0.8700729804,
				"z": -0.0905457308,
				"element": "H" 
			},
			{
				"x": 1.7497556713,
				"y": -1.1025751587,
				"z": -2.2213297239,
				"element": "H" 
			}
		],
		 "valence_orbital": [ 
			{
				"type": "occ",
				"energy": -0.3165,
				"method": "rhf"
			},
			{
				"type": "occ",
				"energy": -0.31036,
				"method": "rhf"
			},
			{
				"type": "occ",
				"energy": -0.28982,
				"method": "rhf"
			},
			{
				"type": "occ",
				"energy": -0.27139,
				"method": "rhf"
			},
			{
				"type": "occ",
				"energy": -0.25135,
				"method": "rhf"
			},
			{
				"type": "unocc",
				"energy": -0.07959,
				"method": "rhf"
			},
			{
				"type": "unocc",
				"energy": -0.05013,
				"method": "rhf"
			},
			{
				"type": "unocc",
				"energy": 0.00354,
				"method": "rhf"
			},
			{
				"type": "unocc",
				"energy": 0.02425,
				"method": "rhf"
			},
			{
				"type": "unocc",
				"energy": 0.06059,
				"method": "rhf"
			}
		],
		"cosmo_sigma_profile": { 
			"-0.025": 0.0,
			"-0.024": 0.0,
			"-0.023": 0.0,
			"-0.022": 0.0,
			"-0.021": 0.0,
			"-0.02": 0.0,
			"-0.019": 0.0,
			"-0.018": 0.0,
			"-0.017": 0.0,
			"-0.016": 0.0,
			"-0.015": 0.0,
			"-0.014": 0.0,
			"-0.013": 0.0,
			"-0.012": 0.0,
			"-0.011": 0.0,
			"-0.01": 0.0,
			"-0.009": 0.608005676154,
			"-0.008": 5.69077249685,
			"-0.007": 7.59837893888,
			"-0.006": 7.93112879618,
			"-0.005": 8.13404650655,
			"-0.004": 10.9342340625,
			"-0.003": 13.4362714242,
			"-0.002": 16.7600738145,
			"-0.001": 16.8663130738,
			"0.0": 16.4360719145,
			"0.001": 17.2653697608,
			"0.002": 14.6272584861,
			"0.003": 15.685227427,
			"0.004": 13.0140503192,
			"0.005": 4.34327019036,
			"0.006": 3.05766630856,
			"0.007": 2.61374962743,
			"0.008": 2.16982860086,
			"0.009": 1.90468375437,
			"0.01": 1.29815395354,
			"0.011": 2.39729202639,
			"0.012": 1.71867515716,
			"0.013": 1.36396822792,
			"0.014": 0.67245702559,
			"0.015": 0.0860804796456,
			"0.016": 0.0,
			"0.017": 0.0,
			"0.018": 0.0,
			"0.019": 0.0,
			"0.02": 0.0,
			"0.021": 0.0,
			"0.022": 0.0,
			"0.023": 0.0,
			"0.024": 0.0,
			"0.025": 0.0
		}
	}
}
