{
	 "smiles": "CCCC(NC(C)=O)C(O)=O", 
	 "Tm": 388.15, 
	 "num_atms": 24, 
	 "gaussian": { 
		 "optdone": 1, 
		 "sigma_profile": "yes", 
		 "theory": "DFT", 
		 "functional": "B3LYP", 
		 "basiset": "6-31G**", 
		 "properties": { 
			 "R2extent": 2351.3367, 
			 "electric_dipole_moment_norm": 2.6778065128, 
			 "electric_quadrupole_moment_norm": 15.8122379175, 
			 "total_energy": -555.036462403, 
			 "HOMO_LUMO_gap": 0.23572, 
			 "cosmo_polarized_energy": -16.23, 
			 "cosmo_cavitation_energy": 27.34, 
			 "cosmo_dispersion_energy": -18.62, 
			 "cosmo_repulsion_energy": 1.53, 
			 "cosmo_total_nonelectrostatic_energy": 10.25, 
			 "SMD_solvation_energy": 6.42 
		},
		"coords": [
			{
				"x": -1.2915838763,
				"y": 1.8247651085,
				"z": 1.0987453544,
				"element": "C" 
			},
			{
				"x": 0.0786203306,
				"y": 2.4960997147,
				"z": 0.9392995935,
				"element": "C" 
			},
			{
				"x": 1.0861525569,
				"y": 1.7880912895,
				"z": 0.017054915,
				"element": "C" 
			},
			{
				"x": 1.5767522577,
				"y": 0.3696678512,
				"z": 0.4334052361,
				"element": "C" 
			},
			{
				"x": 0.609969194,
				"y": -0.6965981464,
				"z": 0.2442610601,
				"element": "N" 
			},
			{
				"x": 0.4852421433,
				"y": -1.5484744653,
				"z": -0.8283087121,
				"element": "C" 
			},
			{
				"x": 1.490210513,
				"y": -1.3996177526,
				"z": -1.9617596416,
				"element": "C" 
			},
			{
				"x": -0.3980545894,
				"y": -2.3947402867,
				"z": -0.8519432059,
				"element": "O" 
			},
			{
				"x": 2.1119745633,
				"y": 0.4256253937,
				"z": 1.8624840214,
				"element": "C" 
			},
			{
				"x": 1.3020880898,
				"y": -0.1822841177,
				"z": 2.7597784515,
				"element": "O" 
			},
			{
				"x": 3.1296462466,
				"y": 0.999932885,
				"z": 2.1760008195,
				"element": "O" 
			},
			{
				"x": -1.9839897817,
				"y": 2.4917134703,
				"z": 1.6226072994,
				"element": "H" 
			},
			{
				"x": -1.2325704421,
				"y": 0.9022636506,
				"z": 1.6832768612,
				"element": "H" 
			},
			{
				"x": -1.7348389238,
				"y": 1.5786606861,
				"z": 0.1280281416,
				"element": "H" 
			},
			{
				"x": -0.0681624595,
				"y": 3.5038005297,
				"z": 0.531177475,
				"element": "H" 
			},
			{
				"x": 0.532627821,
				"y": 2.6458301574,
				"z": 1.9277589559,
				"element": "H" 
			},
			{
				"x": 1.9787985697,
				"y": 2.4184553819,
				"z": -0.0653398049,
				"element": "H" 
			},
			{
				"x": 0.6639747439,
				"y": 1.69378213,
				"z": -0.9907608304,
				"element": "H" 
			},
			{
				"x": 2.4526596991,
				"y": 0.1484223182,
				"z": -0.1814204341,
				"element": "H" 
			},
			{
				"x": -0.0689286751,
				"y": -0.8614277251,
				"z": 0.9745557687,
				"element": "H" 
			},
			{
				"x": 1.5085216943,
				"y": -0.3833559285,
				"z": -2.368651929,
				"element": "H" 
			},
			{
				"x": 1.2028064586,
				"y": -2.0959884281,
				"z": -2.7487577346,
				"element": "H" 
			},
			{
				"x": 2.504909094,
				"y": -1.6442993209,
				"z": -1.6279030079,
				"element": "H" 
			},
			{
				"x": 1.7138747721,
				"y": -0.0571243955,
				"z": 3.6317113472,
				"element": "H" 
			}
		],
		 "valence_orbital": [ 
			{
				"type": "occ",
				"energy": -0.34155,
				"method": "rhf"
			},
			{
				"type": "occ",
				"energy": -0.33329,
				"method": "rhf"
			},
			{
				"type": "occ",
				"energy": -0.29755,
				"method": "rhf"
			},
			{
				"type": "occ",
				"energy": -0.24618,
				"method": "rhf"
			},
			{
				"type": "occ",
				"energy": -0.2439,
				"method": "rhf"
			},
			{
				"type": "unocc",
				"energy": -0.00818,
				"method": "rhf"
			},
			{
				"type": "unocc",
				"energy": 0.02927,
				"method": "rhf"
			},
			{
				"type": "unocc",
				"energy": 0.05388,
				"method": "rhf"
			},
			{
				"type": "unocc",
				"energy": 0.07821,
				"method": "rhf"
			},
			{
				"type": "unocc",
				"energy": 0.09575,
				"method": "rhf"
			}
		],
		"cosmo_sigma_profile": { 
			"-0.025": 0.0,
			"-0.024": 0.0,
			"-0.023": 0.0,
			"-0.022": 0.0,
			"-0.021": 0.0,
			"-0.02": 0.0,
			"-0.019": 0.381242568167,
			"-0.018": 0.976138323853,
			"-0.017": 0.780087136851,
			"-0.016": 1.05021302406,
			"-0.015": 0.445366626073,
			"-0.014": 0.374545737191,
			"-0.013": 1.18499814009,
			"-0.012": 1.39993951593,
			"-0.011": 0.527266247511,
			"-0.01": 1.09232226506,
			"-0.009": 0.660065013533,
			"-0.008": 3.32865833593,
			"-0.007": 6.04462312852,
			"-0.006": 8.22483503543,
			"-0.005": 10.3192561127,
			"-0.004": 13.0791873393,
			"-0.003": 20.4998024238,
			"-0.002": 24.2183308376,
			"-0.001": 26.2121454051,
			"0.0": 19.7533905499,
			"0.001": 14.4291889006,
			"0.002": 8.52110679413,
			"0.003": 5.18248974214,
			"0.004": 4.07637822523,
			"0.005": 3.81268452187,
			"0.006": 2.81818764571,
			"0.007": 2.07916761426,
			"0.008": 3.22397999012,
			"0.009": 2.2540691771,
			"0.01": 3.72870228004,
			"0.011": 6.3428958547,
			"0.012": 4.36597117274,
			"0.013": 3.40605633885,
			"0.014": 5.9775747443,
			"0.015": 2.14472823708,
			"0.016": 0.0728526415522,
			"0.017": 0.0,
			"0.018": 0.0,
			"0.019": 0.0,
			"0.02": 0.0,
			"0.021": 0.0,
			"0.022": 0.0,
			"0.023": 0.0,
			"0.024": 0.0,
			"0.025": 0.0
		}
	}
}
