{
	 "smiles": "CC(=O)C1CCCCC1", 
	 "Tm": 239.15, 
	 "num_atms": 23, 
	 "gaussian": { 
		 "optdone": 1, 
		 "sigma_profile": "yes", 
		 "theory": "DFT", 
		 "functional": "B3LYP", 
		 "basiset": "6-31G**", 
		 "properties": { 
			 "R2extent": 1534.775, 
			 "electric_dipole_moment_norm": 2.57176891264, 
			 "electric_quadrupole_moment_norm": 6.26237661835, 
			 "total_energy": -388.530807905, 
			 "HOMO_LUMO_gap": 0.227, 
			 "cosmo_polarized_energy": -6.26, 
			 "cosmo_cavitation_energy": 23.34, 
			 "cosmo_dispersion_energy": -17.26, 
			 "cosmo_repulsion_energy": 1.41, 
			 "cosmo_total_nonelectrostatic_energy": 7.5, 
			 "SMD_solvation_energy": 3.86 
		},
		"coords": [
			{
				"x": -1.7915893254,
				"y": -0.2752228022,
				"z": 2.6671863254,
				"element": "C" 
			},
			{
				"x": -1.6675031818,
				"y": 0.2012284767,
				"z": 1.2258759948,
				"element": "C" 
			},
			{
				"x": -1.4588920394,
				"y": 1.3760922109,
				"z": 0.9816300057,
				"element": "O" 
			},
			{
				"x": -1.8503904633,
				"y": -0.8433550397,
				"z": 0.1166481676,
				"element": "C" 
			},
			{
				"x": -1.6699986556,
				"y": -0.2425298447,
				"z": -1.289514311,
				"element": "C" 
			},
			{
				"x": -0.1959849484,
				"y": 0.033195786,
				"z": -1.6318584739,
				"element": "C" 
			},
			{
				"x": 0.681614056,
				"y": -1.2115792626,
				"z": -1.4324001695,
				"element": "C" 
			},
			{
				"x": 0.5272730088,
				"y": -1.7823813724,
				"z": -0.0144026283,
				"element": "C" 
			},
			{
				"x": -0.9448678196,
				"y": -2.0865362367,
				"z": 0.3047351287,
				"element": "C" 
			},
			{
				"x": -2.5871634707,
				"y": -1.0171571919,
				"z": 2.7893817514,
				"element": "H" 
			},
			{
				"x": -0.8547278661,
				"y": -0.749439045,
				"z": 2.9830650228,
				"element": "H" 
			},
			{
				"x": -1.9755878285,
				"y": 0.58502812,
				"z": 3.3127421693,
				"element": "H" 
			},
			{
				"x": -2.8937434629,
				"y": -1.1798178193,
				"z": 0.2300912538,
				"element": "H" 
			},
			{
				"x": -2.0859328739,
				"y": -0.9511051438,
				"z": -2.0186584166,
				"element": "H" 
			},
			{
				"x": -2.2493751613,
				"y": 0.6819848688,
				"z": -1.3688766962,
				"element": "H" 
			},
			{
				"x": 0.1678378301,
				"y": 0.8462134275,
				"z": -0.9937027117,
				"element": "H" 
			},
			{
				"x": -0.1195901205,
				"y": 0.3869351171,
				"z": -2.6670256312,
				"element": "H" 
			},
			{
				"x": 1.7329089666,
				"y": -0.9716676674,
				"z": -1.6316071327,
				"element": "H" 
			},
			{
				"x": 0.3945186747,
				"y": -1.9840005796,
				"z": -2.1609078302,
				"element": "H" 
			},
			{
				"x": 1.126423331,
				"y": -2.6937252854,
				"z": 0.0998128977,
				"element": "H" 
			},
			{
				"x": 0.9219879876,
				"y": -1.0581480632,
				"z": 0.7127512088,
				"element": "H" 
			},
			{
				"x": -1.3022371922,
				"y": -2.8699530944,
				"z": -0.376569654,
				"element": "H" 
			},
			{
				"x": -1.0461794451,
				"y": -2.4932595586,
				"z": 1.3170037292,
				"element": "H" 
			}
		],
		 "valence_orbital": [ 
			{
				"type": "occ",
				"energy": -0.33856,
				"method": "rhf"
			},
			{
				"type": "occ",
				"energy": -0.31643,
				"method": "rhf"
			},
			{
				"type": "occ",
				"energy": -0.2998,
				"method": "rhf"
			},
			{
				"type": "occ",
				"energy": -0.29787,
				"method": "rhf"
			},
			{
				"type": "occ",
				"energy": -0.23862,
				"method": "rhf"
			},
			{
				"type": "unocc",
				"energy": -0.01162,
				"method": "rhf"
			},
			{
				"type": "unocc",
				"energy": 0.0741,
				"method": "rhf"
			},
			{
				"type": "unocc",
				"energy": 0.10319,
				"method": "rhf"
			},
			{
				"type": "unocc",
				"energy": 0.11885,
				"method": "rhf"
			},
			{
				"type": "unocc",
				"energy": 0.13427,
				"method": "rhf"
			}
		],
		"cosmo_sigma_profile": { 
			"-0.025": 0.0,
			"-0.024": 0.0,
			"-0.023": 0.0,
			"-0.022": 0.0,
			"-0.021": 0.0,
			"-0.02": 0.0,
			"-0.019": 0.0,
			"-0.018": 0.0,
			"-0.017": 0.0,
			"-0.016": 0.0,
			"-0.015": 0.0,
			"-0.014": 0.0,
			"-0.013": 0.0,
			"-0.012": 0.0,
			"-0.011": 0.0,
			"-0.01": 0.0,
			"-0.009": 0.0,
			"-0.008": 0.0,
			"-0.007": 0.0,
			"-0.006": 1.82014523993,
			"-0.005": 9.3049936326,
			"-0.004": 12.3039759308,
			"-0.003": 13.8829877949,
			"-0.002": 28.3813443562,
			"-0.001": 31.9723063242,
			"0.0": 31.0017272219,
			"0.001": 20.7449256601,
			"0.002": 6.50275507894,
			"0.003": 2.10984962674,
			"0.004": 1.94360375294,
			"0.005": 2.08779249085,
			"0.006": 1.88426994628,
			"0.007": 1.71038803574,
			"0.008": 1.33266428642,
			"0.009": 2.17441659757,
			"0.01": 1.58993917569,
			"0.011": 2.4649811115,
			"0.012": 3.70769529973,
			"0.013": 2.59818126069,
			"0.014": 0.353348285385,
			"0.015": 0.0,
			"0.016": 0.0,
			"0.017": 0.0,
			"0.018": 0.0,
			"0.019": 0.0,
			"0.02": 0.0,
			"0.021": 0.0,
			"0.022": 0.0,
			"0.023": 0.0,
			"0.024": 0.0,
			"0.025": 0.0
		}
	}
}
