{
	 "smiles": "[O-][N+](=O)C1=CC(=C(C=C1)C(Cl)C(Cl)C1=CC=C(C=C1)C(Cl)C(Cl)C1=CC=C(C=C1[N+]([O-])=O)[N+]([O-])=O)[N+]([O-])=O", 
	 "Tm": 368.65, 
	 "num_atms": 52, 
	 "gaussian": { 
		 "optdone": 1, 
		 "sigma_profile": "yes", 
		 "theory": "DFT", 
		 "functional": "B3LYP", 
		 "basiset": "6-31G**", 
		 "properties": { 
			 "R2extent": 20385.8195, 
			 "electric_dipole_moment_norm": 5.21700132356, 
			 "electric_quadrupole_moment_norm": 29.6721659728, 
			 "total_energy": -3507.91124987, 
			 "HOMO_LUMO_gap": 0.1444, 
			 "cosmo_polarized_energy": -33.61, 
			 "cosmo_cavitation_energy": 64.01, 
			 "cosmo_dispersion_energy": -38.9, 
			 "cosmo_repulsion_energy": 2.79, 
			 "cosmo_total_nonelectrostatic_energy": 27.91, 
			 "SMD_solvation_energy": 16.38 
		},
		"coords": [
			{
				"x": 1.4486633225,
				"y": -4.7424133029,
				"z": -2.1663738429,
				"element": "O" 
			},
			{
				"x": 1.521558366,
				"y": -4.2079492457,
				"z": -1.0654711503,
				"element": "N" 
			},
			{
				"x": 1.2356650937,
				"y": -4.7383700224,
				"z": 0.0073163569,
				"element": "O" 
			},
			{
				"x": 1.9969058582,
				"y": -2.8121009661,
				"z": -1.0170089138,
				"element": "C" 
			},
			{
				"x": 2.1804855737,
				"y": -2.1237918278,
				"z": -2.20737726,
				"element": "C" 
			},
			{
				"x": 2.6558279515,
				"y": -0.8158279478,
				"z": -2.1623690842,
				"element": "C" 
			},
			{
				"x": 2.925383353,
				"y": -0.1542853304,
				"z": -0.9470163626,
				"element": "C" 
			},
			{
				"x": 2.6950982731,
				"y": -0.9000521756,
				"z": 0.2250541187,
				"element": "C" 
			},
			{
				"x": 2.246167819,
				"y": -2.2161960687,
				"z": 0.2131183989,
				"element": "C" 
			},
			{
				"x": 3.4024287925,
				"y": 1.2748017101,
				"z": -0.7131947047,
				"element": "C" 
			},
			{
				"x": 5.0975418788,
				"y": 1.5709378787,
				"z": -1.2957427529,
				"element": "Cl" 
			},
			{
				"x": 2.466628851,
				"y": 2.460162679,
				"z": -1.070790989,
				"element": "C" 
			},
			{
				"x": 2.3163722453,
				"y": 2.7858699568,
				"z": -2.8425938204,
				"element": "Cl" 
			},
			{
				"x": 1.1156530382,
				"y": 2.3150115268,
				"z": -0.3872796573,
				"element": "C" 
			},
			{
				"x": -0.0299427029,
				"y": 1.8445482667,
				"z": -1.0345939136,
				"element": "C" 
			},
			{
				"x": -1.2370253088,
				"y": 1.7403837065,
				"z": -0.3412736107,
				"element": "C" 
			},
			{
				"x": -1.3224298379,
				"y": 2.076684167,
				"z": 1.0147044324,
				"element": "C" 
			},
			{
				"x": -0.1692977264,
				"y": 2.5331144101,
				"z": 1.6650308115,
				"element": "C" 
			},
			{
				"x": 1.0275659442,
				"y": 2.6607264393,
				"z": 0.969164421,
				"element": "C" 
			},
			{
				"x": -2.6489279153,
				"y": 1.9370784681,
				"z": 1.7435764114,
				"element": "C" 
			},
			{
				"x": -2.9351660856,
				"y": 3.3647884248,
				"z": 2.8360765868,
				"element": "Cl" 
			},
			{
				"x": -2.7385708796,
				"y": 0.6155480916,
				"z": 2.552792269,
				"element": "C" 
			},
			{
				"x": -4.3049468657,
				"y": 0.5111179395,
				"z": 3.4887178903,
				"element": "Cl" 
			},
			{
				"x": -2.6667366216,
				"y": -0.5950275311,
				"z": 1.6297508236,
				"element": "C" 
			},
			{
				"x": -3.7275663209,
				"y": -0.7954131054,
				"z": 0.7286756362,
				"element": "C" 
			},
			{
				"x": -3.7624750122,
				"y": -1.8657381118,
				"z": -0.1539832641,
				"element": "C" 
			},
			{
				"x": -2.7145989011,
				"y": -2.7821461378,
				"z": -0.1298438663,
				"element": "C" 
			},
			{
				"x": -1.6582934537,
				"y": -2.6591461776,
				"z": 0.7574679036,
				"element": "C" 
			},
			{
				"x": -1.6398789401,
				"y": -1.5598026116,
				"z": 1.6188694413,
				"element": "C" 
			},
			{
				"x": -0.4593650226,
				"y": -1.4878427496,
				"z": 2.5061415152,
				"element": "N" 
			},
			{
				"x": 0.1211906928,
				"y": -2.5425032847,
				"z": 2.7499359375,
				"element": "O" 
			},
			{
				"x": -0.1010498444,
				"y": -0.3862083801,
				"z": 2.9242874049,
				"element": "O" 
			},
			{
				"x": -2.7303387949,
				"y": -3.9164204913,
				"z": -1.0749469899,
				"element": "N" 
			},
			{
				"x": -1.7364972025,
				"y": -4.6348958905,
				"z": -1.1094921989,
				"element": "O" 
			},
			{
				"x": -3.7381958716,
				"y": -4.0533997804,
				"z": -1.7641440996,
				"element": "O" 
			},
			{
				"x": 2.8579036671,
				"y": -0.2237041221,
				"z": -3.505191811,
				"element": "N" 
			},
			{
				"x": 3.980562589,
				"y": 0.1633641416,
				"z": -3.7920648622,
				"element": "O" 
			},
			{
				"x": 1.8783248935,
				"y": -0.2310002858,
				"z": -4.2472545464,
				"element": "O" 
			},
			{
				"x": 1.9638323094,
				"y": -2.6008807698,
				"z": -3.1543553134,
				"element": "H" 
			},
			{
				"x": 2.8729742678,
				"y": -0.4282003185,
				"z": 1.1857603498,
				"element": "H" 
			},
			{
				"x": 2.0839458025,
				"y": -2.7665497285,
				"z": 1.1314395514,
				"element": "H" 
			},
			{
				"x": 3.5014125379,
				"y": 1.365092326,
				"z": 0.3696277853,
				"element": "H" 
			},
			{
				"x": 2.9673100555,
				"y": 3.3478002253,
				"z": -0.6791360211,
				"element": "H" 
			},
			{
				"x": 0.0103359745,
				"y": 1.5864032422,
				"z": -2.0871894043,
				"element": "H" 
			},
			{
				"x": -2.1216895733,
				"y": 1.3996827147,
				"z": -0.8718698731,
				"element": "H" 
			},
			{
				"x": -0.2152227705,
				"y": 2.8217815588,
				"z": 2.7090903882,
				"element": "H" 
			},
			{
				"x": 1.9004352296,
				"y": 3.0504971445,
				"z": 1.4875340942,
				"element": "H" 
			},
			{
				"x": -3.469176893,
				"y": 1.969747385,
				"z": 1.024672224,
				"element": "H" 
			},
			{
				"x": -1.9545260686,
				"y": 0.5962827193,
				"z": 3.3007989848,
				"element": "H" 
			},
			{
				"x": -4.561595402,
				"y": -0.1028713273,
				"z": 0.7460907078,
				"element": "H" 
			},
			{
				"x": -4.5810618816,
				"y": -2.0059020962,
				"z": -0.848874137,
				"element": "H" 
			},
			{
				"x": -0.8620984837,
				"y": -3.3929853349,
				"z": 0.7781380052,
				"element": "H" 
			}
		],
		 "valence_orbital": [ 
			{
				"type": "occ",
				"energy": -0.3064,
				"method": "rhf"
			},
			{
				"type": "occ",
				"energy": -0.30553,
				"method": "rhf"
			},
			{
				"type": "occ",
				"energy": -0.29479,
				"method": "rhf"
			},
			{
				"type": "occ",
				"energy": -0.28655,
				"method": "rhf"
			},
			{
				"type": "occ",
				"energy": -0.27671,
				"method": "rhf"
			},
			{
				"type": "unocc",
				"energy": -0.13231,
				"method": "rhf"
			},
			{
				"type": "unocc",
				"energy": -0.11939,
				"method": "rhf"
			},
			{
				"type": "unocc",
				"energy": -0.11786,
				"method": "rhf"
			},
			{
				"type": "unocc",
				"energy": -0.09461,
				"method": "rhf"
			},
			{
				"type": "unocc",
				"energy": -0.06587,
				"method": "rhf"
			}
		],
		"cosmo_sigma_profile": { 
			"-0.025": 0.0,
			"-0.024": 0.0,
			"-0.023": 0.0,
			"-0.022": 0.0,
			"-0.021": 0.0,
			"-0.02": 0.0,
			"-0.019": 0.0,
			"-0.018": 0.0,
			"-0.017": 0.0,
			"-0.016": 0.0,
			"-0.015": 0.0,
			"-0.014": 0.0,
			"-0.013": 0.0171600841161,
			"-0.012": 1.46672954033,
			"-0.011": 4.80636153788,
			"-0.01": 9.61111802074,
			"-0.009": 13.4800626991,
			"-0.008": 13.9757853631,
			"-0.007": 21.0026532125,
			"-0.006": 25.298171432,
			"-0.005": 26.7848948282,
			"-0.004": 28.8363965708,
			"-0.003": 37.0417777717,
			"-0.002": 33.7599412145,
			"-0.001": 27.825376767,
			"0.0": 24.9131076118,
			"0.001": 27.723319571,
			"0.002": 29.3457109087,
			"0.003": 34.9442186776,
			"0.004": 33.1352775371,
			"0.005": 33.5330316605,
			"0.006": 31.0607848537,
			"0.007": 32.1608122339,
			"0.008": 21.2656199722,
			"0.009": 9.34625597598,
			"0.01": 0.459272369818,
			"0.011": 0.0,
			"0.012": 0.0,
			"0.013": 0.0,
			"0.014": 0.0,
			"0.015": 0.0,
			"0.016": 0.0,
			"0.017": 0.0,
			"0.018": 0.0,
			"0.019": 0.0,
			"0.02": 0.0,
			"0.021": 0.0,
			"0.022": 0.0,
			"0.023": 0.0,
			"0.024": 0.0,
			"0.025": 0.0
		}
	}
}
