{
	 "smiles": "CN1C=CC(=N1)N1CCCC(N)C1=O", 
	 "Tm": 353.15, 
	 "num_atms": 28, 
	 "gaussian": { 
		 "optdone": 1, 
		 "sigma_profile": "yes", 
		 "theory": "DFT", 
		 "functional": "B3LYP", 
		 "basiset": "6-31G**", 
		 "properties": { 
			 "R2extent": 3690.509, 
			 "electric_dipole_moment_norm": 1.98829181711, 
			 "electric_quadrupole_moment_norm": 22.0599785111, 
			 "total_energy": -645.613049581, 
			 "HOMO_LUMO_gap": 0.21313, 
			 "cosmo_polarized_energy": -14.29, 
			 "cosmo_cavitation_energy": 29.75, 
			 "cosmo_dispersion_energy": -22.21, 
			 "cosmo_repulsion_energy": 1.76, 
			 "cosmo_total_nonelectrostatic_energy": 9.3, 
			 "SMD_solvation_energy": 4.28 
		},
		"coords": [
			{
				"x": 2.7738659154,
				"y": 0.9289845691,
				"z": -3.8086275416,
				"element": "C" 
			},
			{
				"x": 2.4723095952,
				"y": 0.0064487618,
				"z": -2.7350515834,
				"element": "N" 
			},
			{
				"x": 3.2404333523,
				"y": -0.9978146373,
				"z": -2.2413740939,
				"element": "C" 
			},
			{
				"x": 2.5349251587,
				"y": -1.5945368564,
				"z": -1.2156468795,
				"element": "C" 
			},
			{
				"x": 1.3212639151,
				"y": -0.860885444,
				"z": -1.1660125027,
				"element": "C" 
			},
			{
				"x": 1.2896855697,
				"y": 0.1090852202,
				"z": -2.0864058093,
				"element": "N" 
			},
			{
				"x": 0.2111934162,
				"y": -1.0321882605,
				"z": -0.3162608007,
				"element": "N" 
			},
			{
				"x": -0.9503676453,
				"y": -0.1297127668,
				"z": -0.4666235672,
				"element": "C" 
			},
			{
				"x": -2.2529322917,
				"y": -0.9338362911,
				"z": -0.4659700233,
				"element": "C" 
			},
			{
				"x": -2.3411270079,
				"y": -1.9192479514,
				"z": 0.7267233874,
				"element": "C" 
			},
			{
				"x": -1.055564571,
				"y": -1.9619220453,
				"z": 1.57465684,
				"element": "C" 
			},
			{
				"x": -0.999520678,
				"y": -0.7914094575,
				"z": 2.468625591,
				"element": "N" 
			},
			{
				"x": 0.2100703004,
				"y": -1.9577471011,
				"z": 0.7031054423,
				"element": "C" 
			},
			{
				"x": 1.1345579906,
				"y": -2.729301,
				"z": 0.9410329151,
				"element": "O" 
			},
			{
				"x": 2.7735924365,
				"y": 1.9585113009,
				"z": -3.4386686896,
				"element": "H" 
			},
			{
				"x": 2.0305079364,
				"y": 0.8411335619,
				"z": -4.6063484698,
				"element": "H" 
			},
			{
				"x": 3.760755836,
				"y": 0.6916803236,
				"z": -4.2098109663,
				"element": "H" 
			},
			{
				"x": 4.2183355249,
				"y": -1.2127626533,
				"z": -2.6481662801,
				"element": "H" 
			},
			{
				"x": 2.8219205224,
				"y": -2.4202425786,
				"z": -0.5908543775,
				"element": "H" 
			},
			{
				"x": -0.8235733561,
				"y": 0.4051318961,
				"z": -1.4058838578,
				"element": "H" 
			},
			{
				"x": -0.9450854145,
				"y": 0.5890996959,
				"z": 0.3567561099,
				"element": "H" 
			},
			{
				"x": -2.3191801255,
				"y": -1.4893223061,
				"z": -1.4077695199,
				"element": "H" 
			},
			{
				"x": -3.0923058238,
				"y": -0.2307143204,
				"z": -0.4559738503,
				"element": "H" 
			},
			{
				"x": -3.1794245107,
				"y": -1.6648654444,
				"z": 1.3867893349,
				"element": "H" 
			},
			{
				"x": -2.5403402504,
				"y": -2.9311181176,
				"z": 0.3596651568,
				"element": "H" 
			},
			{
				"x": -1.0102945191,
				"y": -2.9180427233,
				"z": 2.115494096,
				"element": "H" 
			},
			{
				"x": -0.1685801577,
				"y": -0.8522767498,
				"z": 3.0533607527,
				"element": "H" 
			},
			{
				"x": -1.7992211183,
				"y": -0.8116286246,
				"z": 3.0980391868,
				"element": "H" 
			}
		],
		 "valence_orbital": [ 
			{
				"type": "occ",
				"energy": -0.28225,
				"method": "rhf"
			},
			{
				"type": "occ",
				"energy": -0.24396,
				"method": "rhf"
			},
			{
				"type": "occ",
				"energy": -0.23523,
				"method": "rhf"
			},
			{
				"type": "occ",
				"energy": -0.2343,
				"method": "rhf"
			},
			{
				"type": "occ",
				"energy": -0.20282,
				"method": "rhf"
			},
			{
				"type": "unocc",
				"energy": 0.01031,
				"method": "rhf"
			},
			{
				"type": "unocc",
				"energy": 0.0373,
				"method": "rhf"
			},
			{
				"type": "unocc",
				"energy": 0.0782,
				"method": "rhf"
			},
			{
				"type": "unocc",
				"energy": 0.09848,
				"method": "rhf"
			},
			{
				"type": "unocc",
				"energy": 0.10579,
				"method": "rhf"
			}
		],
		"cosmo_sigma_profile": { 
			"-0.025": 0.0,
			"-0.024": 0.0,
			"-0.023": 0.0,
			"-0.022": 0.0,
			"-0.021": 0.0,
			"-0.02": 0.0,
			"-0.019": 0.0,
			"-0.018": 0.0,
			"-0.017": 0.0,
			"-0.016": 0.0,
			"-0.015": 0.0,
			"-0.014": 0.0,
			"-0.013": 0.0,
			"-0.012": 0.0,
			"-0.011": 0.22173475285,
			"-0.01": 2.60998297999,
			"-0.009": 3.94518008908,
			"-0.008": 7.11378165439,
			"-0.007": 6.8784549783,
			"-0.006": 9.1878451221,
			"-0.005": 10.1155274141,
			"-0.004": 17.2793578863,
			"-0.003": 32.9120757225,
			"-0.002": 26.0262139151,
			"-0.001": 16.0712019685,
			"0.0": 13.9275761758,
			"0.001": 10.3247492993,
			"0.002": 8.51200142745,
			"0.003": 8.58137997633,
			"0.004": 10.434608148,
			"0.005": 11.4778728474,
			"0.006": 6.80448066111,
			"0.007": 4.98512158132,
			"0.008": 4.97004243245,
			"0.009": 3.71483803907,
			"0.01": 2.88123678994,
			"0.011": 4.00696036722,
			"0.012": 3.70122799671,
			"0.013": 3.95453879441,
			"0.014": 2.26356707852,
			"0.015": 0.630291455801,
			"0.016": 0.0,
			"0.017": 0.0,
			"0.018": 0.0,
			"0.019": 0.0,
			"0.02": 0.0,
			"0.021": 0.0,
			"0.022": 0.0,
			"0.023": 0.0,
			"0.024": 0.0,
			"0.025": 0.0
		}
	}
}
