{
	 "smiles": "CC(C)C1=NC(=NN1C1=C(F)C=CC=C1)C(O)=O", 
	 "Tm": 433.15, 
	 "num_atms": 30, 
	 "gaussian": { 
		 "optdone": 1, 
		 "sigma_profile": "yes", 
		 "theory": "DFT", 
		 "functional": "B3LYP", 
		 "basiset": "6-31G**", 
		 "properties": { 
			 "R2extent": 4856.3209, 
			 "electric_dipole_moment_norm": 9.32805500949, 
			 "electric_quadrupole_moment_norm": 17.7569566033, 
			 "total_energy": -879.048000239, 
			 "HOMO_LUMO_gap": 0.21829, 
			 "cosmo_polarized_energy": -17.89, 
			 "cosmo_cavitation_energy": 34.75, 
			 "cosmo_dispersion_energy": -23.86, 
			 "cosmo_repulsion_energy": 1.85, 
			 "cosmo_total_nonelectrostatic_energy": 12.74, 
			 "SMD_solvation_energy": 5.33 
		},
		"coords": [
			{
				"x": -1.0482467438,
				"y": 3.1093760462,
				"z": -0.2044088116,
				"element": "C" 
			},
			{
				"x": -1.194880227,
				"y": 2.508840598,
				"z": 1.2066855462,
				"element": "C" 
			},
			{
				"x": -0.2072664785,
				"y": 3.1463922064,
				"z": 2.2039078628,
				"element": "C" 
			},
			{
				"x": -1.1436608731,
				"y": 1.0020918203,
				"z": 1.2361201616,
				"element": "C" 
			},
			{
				"x": -2.1396282866,
				"y": 0.2453386282,
				"z": 1.6677321096,
				"element": "N" 
			},
			{
				"x": -1.6595414342,
				"y": -1.0196888311,
				"z": 1.5514915344,
				"element": "C" 
			},
			{
				"x": -0.4239333127,
				"y": -1.1060963271,
				"z": 1.0760899125,
				"element": "N" 
			},
			{
				"x": -0.0892067489,
				"y": 0.1961855847,
				"z": 0.8747374985,
				"element": "N" 
			},
			{
				"x": 1.1960748057,
				"y": 0.5081816452,
				"z": 0.3351873028,
				"element": "C" 
			},
			{
				"x": 1.3436618683,
				"y": 0.7014252171,
				"z": -1.0404001976,
				"element": "C" 
			},
			{
				"x": 0.2564878957,
				"y": 0.6392683536,
				"z": -1.8265371755,
				"element": "F" 
			},
			{
				"x": 2.584851126,
				"y": 0.9683743511,
				"z": -1.6048677116,
				"element": "C" 
			},
			{
				"x": 3.7043841626,
				"y": 1.0279627705,
				"z": -0.7740468756,
				"element": "C" 
			},
			{
				"x": 3.5784442563,
				"y": 0.8233623981,
				"z": 0.6024281679,
				"element": "C" 
			},
			{
				"x": 2.3255260857,
				"y": 0.5600844129,
				"z": 1.1551354096,
				"element": "C" 
			},
			{
				"x": -2.4099598399,
				"y": -2.2615366375,
				"z": 1.9149691508,
				"element": "C" 
			},
			{
				"x": -1.7103725827,
				"y": -3.3983386279,
				"z": 1.6909475377,
				"element": "O" 
			},
			{
				"x": -3.5268430853,
				"y": -2.2691223619,
				"z": 2.3654634532,
				"element": "O" 
			},
			{
				"x": -1.7113660551,
				"y": 2.6181160234,
				"z": -0.9212654744,
				"element": "H" 
			},
			{
				"x": -1.3068432388,
				"y": 4.172367424,
				"z": -0.173748637,
				"element": "H" 
			},
			{
				"x": -0.023271955,
				"y": 3.0316272745,
				"z": -0.5765730708,
				"element": "H" 
			},
			{
				"x": -2.2098398061,
				"y": 2.7215429393,
				"z": 1.5571517358,
				"element": "H" 
			},
			{
				"x": -0.3497178654,
				"y": 2.7479883231,
				"z": 3.2128504612,
				"element": "H" 
			},
			{
				"x": 0.8323036052,
				"y": 2.9742364646,
				"z": 1.9082568487,
				"element": "H" 
			},
			{
				"x": -0.3672874632,
				"y": 4.2284636774,
				"z": 2.2420652908,
				"element": "H" 
			},
			{
				"x": 2.6556448205,
				"y": 1.1167863935,
				"z": -2.6767019292,
				"element": "H" 
			},
			{
				"x": 4.6785815913,
				"y": 1.2327383642,
				"z": -1.2067979577,
				"element": "H" 
			},
			{
				"x": 4.4528573942,
				"y": 0.8644472792,
				"z": 1.2432326876,
				"element": "H" 
			},
			{
				"x": 2.2062724497,
				"y": 0.3868287893,
				"z": 2.2195270314,
				"element": "H" 
			},
			{
				"x": -0.8410240647,
				"y": -3.1608441995,
				"z": 1.3235681379,
				"element": "H" 
			}
		],
		 "valence_orbital": [ 
			{
				"type": "occ",
				"energy": -0.29849,
				"method": "rhf"
			},
			{
				"type": "occ",
				"energy": -0.28464,
				"method": "rhf"
			},
			{
				"type": "occ",
				"energy": -0.27694,
				"method": "rhf"
			},
			{
				"type": "occ",
				"energy": -0.27533,
				"method": "rhf"
			},
			{
				"type": "occ",
				"energy": -0.26552,
				"method": "rhf"
			},
			{
				"type": "unocc",
				"energy": -0.04723,
				"method": "rhf"
			},
			{
				"type": "unocc",
				"energy": -0.03948,
				"method": "rhf"
			},
			{
				"type": "unocc",
				"energy": -0.0298,
				"method": "rhf"
			},
			{
				"type": "unocc",
				"energy": 0.0046,
				"method": "rhf"
			},
			{
				"type": "unocc",
				"energy": 0.05584,
				"method": "rhf"
			}
		],
		"cosmo_sigma_profile": { 
			"-0.025": 0.0,
			"-0.024": 0.0,
			"-0.023": 0.0,
			"-0.022": 0.0,
			"-0.021": 0.0,
			"-0.02": 0.0,
			"-0.019": 0.0,
			"-0.018": 0.0,
			"-0.017": 0.0,
			"-0.016": 0.0,
			"-0.015": 0.72254545212,
			"-0.014": 0.427501305149,
			"-0.013": 0.190127686928,
			"-0.012": 0.65826909536,
			"-0.011": 1.24777841746,
			"-0.01": 0.65658966218,
			"-0.009": 0.598743929976,
			"-0.008": 4.67912976981,
			"-0.007": 9.10744305108,
			"-0.006": 11.9186182693,
			"-0.005": 14.3971862927,
			"-0.004": 21.51975304,
			"-0.003": 27.703278814,
			"-0.002": 27.7700565305,
			"-0.001": 25.5452756044,
			"0.0": 26.8355852893,
			"0.001": 18.6176817957,
			"0.002": 16.4835600378,
			"0.003": 16.5100178362,
			"0.004": 7.22651734068,
			"0.005": 4.0651286515,
			"0.006": 3.360974901,
			"0.007": 4.55681650593,
			"0.008": 4.26913131486,
			"0.009": 4.7098828627,
			"0.01": 6.50298217023,
			"0.011": 6.87450508387,
			"0.012": 4.70194441069,
			"0.013": 2.75228755477,
			"0.014": 1.55592167115,
			"0.015": 0.767852447983,
			"0.016": 0.184922661746,
			"0.017": 0.0,
			"0.018": 0.0,
			"0.019": 0.0,
			"0.02": 0.0,
			"0.021": 0.0,
			"0.022": 0.0,
			"0.023": 0.0,
			"0.024": 0.0,
			"0.025": 0.0
		}
	}
}
