{
	 "smiles": "CS(=O)(=O)CC1=NOC(CCl)=N1", 
	 "Tm": 347.15, 
	 "num_atms": 19, 
	 "gaussian": { 
		 "optdone": 1, 
		 "sigma_profile": "yes", 
		 "theory": "DFT", 
		 "functional": "B3LYP", 
		 "basiset": "6-31G**", 
		 "properties": { 
			 "R2extent": 3567.2571, 
			 "electric_dipole_moment_norm": 6.04726205319, 
			 "electric_quadrupole_moment_norm": 7.977691166, 
			 "total_energy": -1388.19724888, 
			 "HOMO_LUMO_gap": 0.21904, 
			 "cosmo_polarized_energy": -20.17, 
			 "cosmo_cavitation_energy": 27.28, 
			 "cosmo_dispersion_energy": -20.03, 
			 "cosmo_repulsion_energy": 1.58, 
			 "cosmo_total_nonelectrostatic_energy": 8.83, 
			 "SMD_solvation_energy": 2.57 
		},
		"coords": [
			{
				"x": 0.0205958161,
				"y": 1.0835277536,
				"z": -2.326684924,
				"element": "C" 
			},
			{
				"x": -1.487061532,
				"y": 1.2235236863,
				"z": -1.343170891,
				"element": "S" 
			},
			{
				"x": -2.0258406236,
				"y": 2.5801393432,
				"z": -1.5089386232,
				"element": "O" 
			},
			{
				"x": -2.3153901885,
				"y": 0.0385866431,
				"z": -1.5963545111,
				"element": "O" 
			},
			{
				"x": -0.8905312066,
				"y": 1.1366358278,
				"z": 0.399432379,
				"element": "C" 
			},
			{
				"x": -0.4391549108,
				"y": -0.2166804856,
				"z": 0.8159799721,
				"element": "C" 
			},
			{
				"x": -1.0988954138,
				"y": -0.9220835185,
				"z": 1.7032536846,
				"element": "N" 
			},
			{
				"x": -0.3503883208,
				"y": -2.0998531143,
				"z": 1.7968233584,
				"element": "O" 
			},
			{
				"x": 0.6781600883,
				"y": -1.9722183981,
				"z": 0.9453347199,
				"element": "C" 
			},
			{
				"x": 1.6486054913,
				"y": -3.0924883299,
				"z": 0.8298078651,
				"element": "C" 
			},
			{
				"x": 1.0473536666,
				"y": -4.3790525415,
				"z": -0.2979233569,
				"element": "Cl" 
			},
			{
				"x": 0.6877599356,
				"y": -0.833588839,
				"z": 0.3150855526,
				"element": "N" 
			},
			{
				"x": 0.6365008426,
				"y": 1.9686636714,
				"z": -2.1613713542,
				"element": "H" 
			},
			{
				"x": -0.3075592559,
				"y": 1.037595501,
				"z": -3.3668000475,
				"element": "H" 
			},
			{
				"x": 0.5483537744,
				"y": 0.1725057397,
				"z": -2.0425443349,
				"element": "H" 
			},
			{
				"x": -0.0959266705,
				"y": 1.8806259904,
				"z": 0.4988652511,
				"element": "H" 
			},
			{
				"x": -1.7552250717,
				"y": 1.4514876964,
				"z": 0.9872240764,
				"element": "H" 
			},
			{
				"x": 1.8099772229,
				"y": -3.566749327,
				"z": 1.7976312573,
				"element": "H" 
			},
			{
				"x": 2.5867663562,
				"y": -2.716277299,
				"z": 0.4259499263,
				"element": "H" 
			}
		],
		 "valence_orbital": [ 
			{
				"type": "occ",
				"energy": -0.32272,
				"method": "rhf"
			},
			{
				"type": "occ",
				"energy": -0.32063,
				"method": "rhf"
			},
			{
				"type": "occ",
				"energy": -0.31615,
				"method": "rhf"
			},
			{
				"type": "occ",
				"energy": -0.30277,
				"method": "rhf"
			},
			{
				"type": "occ",
				"energy": -0.29108,
				"method": "rhf"
			},
			{
				"type": "unocc",
				"energy": -0.07204,
				"method": "rhf"
			},
			{
				"type": "unocc",
				"energy": -0.01967,
				"method": "rhf"
			},
			{
				"type": "unocc",
				"energy": 0.02692,
				"method": "rhf"
			},
			{
				"type": "unocc",
				"energy": 0.05776,
				"method": "rhf"
			},
			{
				"type": "unocc",
				"energy": 0.06038,
				"method": "rhf"
			}
		],
		"cosmo_sigma_profile": { 
			"-0.025": 0.0,
			"-0.024": 0.0,
			"-0.023": 0.0,
			"-0.022": 0.0,
			"-0.021": 0.0,
			"-0.02": 0.0,
			"-0.019": 0.0,
			"-0.018": 0.0,
			"-0.017": 0.0,
			"-0.016": 0.0,
			"-0.015": 0.0,
			"-0.014": 0.0,
			"-0.013": 0.0532006592581,
			"-0.012": 0.905489402319,
			"-0.011": 3.16251361059,
			"-0.01": 8.96461233176,
			"-0.009": 11.3993638764,
			"-0.008": 11.5362906527,
			"-0.007": 10.0653585688,
			"-0.006": 11.4605004898,
			"-0.005": 11.3490474708,
			"-0.004": 12.3330174396,
			"-0.003": 10.0584345407,
			"-0.002": 8.32022664626,
			"-0.001": 7.64653995135,
			"0.0": 8.9271376782,
			"0.001": 9.4017799497,
			"0.002": 10.1169618018,
			"0.003": 9.25866527106,
			"0.004": 13.9842972816,
			"0.005": 15.5326549683,
			"0.006": 4.5432708159,
			"0.007": 4.08421490357,
			"0.008": 5.43851934151,
			"0.009": 5.09384190352,
			"0.01": 6.87801335463,
			"0.011": 13.6750571186,
			"0.012": 5.93669796715,
			"0.013": 0.00840663299403,
			"0.014": 0.0,
			"0.015": 0.0,
			"0.016": 0.0,
			"0.017": 0.0,
			"0.018": 0.0,
			"0.019": 0.0,
			"0.02": 0.0,
			"0.021": 0.0,
			"0.022": 0.0,
			"0.023": 0.0,
			"0.024": 0.0,
			"0.025": 0.0
		}
	}
}
