{
	 "smiles": "CCOC(=O)C1=CC2=C(N1)C=CC=C2", 
	 "Tm": 397.15, 
	 "num_atms": 25, 
	 "gaussian": { 
		 "optdone": 1, 
		 "sigma_profile": "yes", 
		 "theory": "DFT", 
		 "functional": "B3LYP", 
		 "basiset": "6-31G**", 
		 "properties": { 
			 "R2extent": 3912.6161, 
			 "electric_dipole_moment_norm": 2.87577078537, 
			 "electric_quadrupole_moment_norm": 11.7014374262, 
			 "total_energy": -631.025586956, 
			 "HOMO_LUMO_gap": 0.16645, 
			 "cosmo_polarized_energy": -10.32, 
			 "cosmo_cavitation_energy": 29.31, 
			 "cosmo_dispersion_energy": -21.59, 
			 "cosmo_repulsion_energy": 1.71, 
			 "cosmo_total_nonelectrostatic_energy": 9.43, 
			 "SMD_solvation_energy": 5.72 
		},
		"coords": [
			{
				"x": -4.1859947295,
				"y": 1.9906296466,
				"z": -0.9634529191,
				"element": "C" 
			},
			{
				"x": -3.3487691853,
				"y": 2.6694263681,
				"z": 0.1101961883,
				"element": "C" 
			},
			{
				"x": -2.03938654,
				"y": 2.0622431145,
				"z": 0.2201544445,
				"element": "O" 
			},
			{
				"x": -1.9482487809,
				"y": 0.9667534735,
				"z": 1.024880195,
				"element": "C" 
			},
			{
				"x": -2.8818221976,
				"y": 0.4929920247,
				"z": 1.6424708461,
				"element": "O" 
			},
			{
				"x": -0.5794150892,
				"y": 0.4457641697,
				"z": 1.0462145264,
				"element": "C" 
			},
			{
				"x": -0.0920598743,
				"y": -0.6424814682,
				"z": 1.7379036082,
				"element": "C" 
			},
			{
				"x": 1.2998860598,
				"y": -0.7432115497,
				"z": 1.4346827412,
				"element": "C" 
			},
			{
				"x": 1.6091169382,
				"y": 0.3257222848,
				"z": 0.5396890646,
				"element": "C" 
			},
			{
				"x": 0.4503272711,
				"y": 1.0291572054,
				"z": 0.3227549808,
				"element": "N" 
			},
			{
				"x": 2.9021725565,
				"y": 0.5248185248,
				"z": 0.0357197338,
				"element": "C" 
			},
			{
				"x": 3.8884518986,
				"y": -0.3633436229,
				"z": 0.4400140895,
				"element": "C" 
			},
			{
				"x": 3.6054638529,
				"y": -1.4291114305,
				"z": 1.3254192549,
				"element": "C" 
			},
			{
				"x": 2.3276383555,
				"y": -1.62585443,
				"z": 1.8234269532,
				"element": "C" 
			},
			{
				"x": -5.1415361802,
				"y": 2.5139180337,
				"z": -1.0750900702,
				"element": "H" 
			},
			{
				"x": -3.6714030077,
				"y": 2.005795262,
				"z": -1.9288553318,
				"element": "H" 
			},
			{
				"x": -4.3930534787,
				"y": 0.9537407507,
				"z": -0.6882211365,
				"element": "H" 
			},
			{
				"x": -3.8408250081,
				"y": 2.6175669054,
				"z": 1.0841517591,
				"element": "H" 
			},
			{
				"x": -3.1452233956,
				"y": 3.7138152855,
				"z": -0.1389424628,
				"element": "H" 
			},
			{
				"x": -0.6811153263,
				"y": -1.2792196029,
				"z": 2.3814040739,
				"element": "H" 
			},
			{
				"x": 0.3295196909,
				"y": 1.8418789719,
				"z": -0.2598775353,
				"element": "H" 
			},
			{
				"x": 3.1238009423,
				"y": 1.3421344337,
				"z": -0.6443817707,
				"element": "H" 
			},
			{
				"x": 4.9012737442,
				"y": -0.2377711355,
				"z": 0.068448797,
				"element": "H" 
			},
			{
				"x": 4.4070353059,
				"y": -2.1013776782,
				"z": 1.6164227977,
				"element": "H" 
			},
			{
				"x": 2.1166661775,
				"y": -2.446385537,
				"z": 2.5032671723,
				"element": "H" 
			}
		],
		 "valence_orbital": [ 
			{
				"type": "occ",
				"energy": -0.30048,
				"method": "rhf"
			},
			{
				"type": "occ",
				"energy": -0.28247,
				"method": "rhf"
			},
			{
				"type": "occ",
				"energy": -0.27564,
				"method": "rhf"
			},
			{
				"type": "occ",
				"energy": -0.22665,
				"method": "rhf"
			},
			{
				"type": "occ",
				"energy": -0.21166,
				"method": "rhf"
			},
			{
				"type": "unocc",
				"energy": -0.04521,
				"method": "rhf"
			},
			{
				"type": "unocc",
				"energy": 0.01723,
				"method": "rhf"
			},
			{
				"type": "unocc",
				"energy": 0.0307,
				"method": "rhf"
			},
			{
				"type": "unocc",
				"energy": 0.08816,
				"method": "rhf"
			},
			{
				"type": "unocc",
				"energy": 0.10179,
				"method": "rhf"
			}
		],
		"cosmo_sigma_profile": { 
			"-0.025": 0.0,
			"-0.024": 0.0,
			"-0.023": 0.0,
			"-0.022": 0.0,
			"-0.021": 0.0,
			"-0.02": 0.0,
			"-0.019": 0.0,
			"-0.018": 0.0,
			"-0.017": 0.0,
			"-0.016": 0.0426542855883,
			"-0.015": 0.621118611459,
			"-0.014": 1.02694962693,
			"-0.013": 0.932388327678,
			"-0.012": 0.983288381092,
			"-0.011": 0.762155829084,
			"-0.01": 0.697751594465,
			"-0.009": 1.05015682146,
			"-0.008": 1.23269643719,
			"-0.007": 2.583057548,
			"-0.006": 8.85167492107,
			"-0.005": 14.1864440986,
			"-0.004": 20.2275913636,
			"-0.003": 22.4360592237,
			"-0.002": 20.6109552867,
			"-0.001": 19.715119824,
			"0.0": 17.7246897847,
			"0.001": 13.473382559,
			"0.002": 14.1942474721,
			"0.003": 17.9038225014,
			"0.004": 16.7228233148,
			"0.005": 14.415092213,
			"0.006": 9.19903540017,
			"0.007": 1.37429005874,
			"0.008": 1.48026873645,
			"0.009": 1.57008513268,
			"0.01": 2.05900954031,
			"0.011": 2.31845096282,
			"0.012": 4.61995151805,
			"0.013": 0.620200928936,
			"0.014": 0.0,
			"0.015": 0.0,
			"0.016": 0.0,
			"0.017": 0.0,
			"0.018": 0.0,
			"0.019": 0.0,
			"0.02": 0.0,
			"0.021": 0.0,
			"0.022": 0.0,
			"0.023": 0.0,
			"0.024": 0.0,
			"0.025": 0.0
		}
	}
}
