{
	 "smiles": "NN1C=NNC1=O", 
	 "Tm": 443.15, 
	 "num_atms": 11, 
	 "gaussian": { 
		 "optdone": 1, 
		 "sigma_profile": "yes", 
		 "theory": "DFT", 
		 "functional": "B3LYP", 
		 "basiset": "6-31G**", 
		 "properties": { 
			 "R2extent": 778.6269, 
			 "electric_dipole_moment_norm": 1.41949136313, 
			 "electric_quadrupole_moment_norm": 8.30933204776, 
			 "total_energy": -372.809375144, 
			 "HOMO_LUMO_gap": 0.24458, 
			 "cosmo_polarized_energy": -14.57, 
			 "cosmo_cavitation_energy": 15.7, 
			 "cosmo_dispersion_energy": -11.93, 
			 "cosmo_repulsion_energy": 1.03, 
			 "cosmo_total_nonelectrostatic_energy": 4.8, 
			 "SMD_solvation_energy": 4.05 
		},
		"coords": [
			{
				"x": 1.1995336063,
				"y": -0.2176726788,
				"z": 2.4559704394,
				"element": "N" 
			},
			{
				"x": 0.4531488811,
				"y": -0.0194184634,
				"z": 1.2927992093,
				"element": "N" 
			},
			{
				"x": 0.557327274,
				"y": -0.7518585046,
				"z": 0.1353704478,
				"element": "C" 
			},
			{
				"x": -0.2662902479,
				"y": -0.3359759367,
				"z": -0.7788126034,
				"element": "N" 
			},
			{
				"x": -0.9305582805,
				"y": 0.7154703209,
				"z": -0.1755017656,
				"element": "N" 
			},
			{
				"x": -0.5317856476,
				"y": 0.968365247,
				"z": 1.1175455872,
				"element": "C" 
			},
			{
				"x": -0.8966021801,
				"y": 1.8029102868,
				"z": 1.9305295381,
				"element": "O" 
			},
			{
				"x": 0.5446554314,
				"y": -0.3789362516,
				"z": 3.2201525677,
				"element": "H" 
			},
			{
				"x": 1.6807553956,
				"y": 0.6555613927,
				"z": 2.6674858316,
				"element": "H" 
			},
			{
				"x": 1.2498225371,
				"y": -1.5726695064,
				"z": 0.0220093248,
				"element": "H" 
			},
			{
				"x": -1.6384067695,
				"y": 1.2222240942,
				"z": -0.681548577,
				"element": "H" 
			}
		],
		 "valence_orbital": [ 
			{
				"type": "occ",
				"energy": -0.33229,
				"method": "rhf"
			},
			{
				"type": "occ",
				"energy": -0.31856,
				"method": "rhf"
			},
			{
				"type": "occ",
				"energy": -0.30673,
				"method": "rhf"
			},
			{
				"type": "occ",
				"energy": -0.26416,
				"method": "rhf"
			},
			{
				"type": "occ",
				"energy": -0.22955,
				"method": "rhf"
			},
			{
				"type": "unocc",
				"energy": 0.01503,
				"method": "rhf"
			},
			{
				"type": "unocc",
				"energy": 0.05377,
				"method": "rhf"
			},
			{
				"type": "unocc",
				"energy": 0.06672,
				"method": "rhf"
			},
			{
				"type": "unocc",
				"energy": 0.08308,
				"method": "rhf"
			},
			{
				"type": "unocc",
				"energy": 0.13042,
				"method": "rhf"
			}
		],
		"cosmo_sigma_profile": { 
			"-0.025": 0.0,
			"-0.024": 0.0,
			"-0.023": 0.0,
			"-0.022": 0.0,
			"-0.021": 0.0,
			"-0.02": 0.0,
			"-0.019": 0.0,
			"-0.018": 0.0,
			"-0.017": 0.558387913442,
			"-0.016": 1.4771766256,
			"-0.015": 1.38004554264,
			"-0.014": 1.11373310496,
			"-0.013": 2.60776739291,
			"-0.012": 4.57320594845,
			"-0.011": 4.69317797755,
			"-0.01": 4.71679236567,
			"-0.009": 3.47022358193,
			"-0.008": 3.74435926303,
			"-0.007": 3.54641487527,
			"-0.006": 4.12984014646,
			"-0.005": 3.73739289201,
			"-0.004": 3.81253962252,
			"-0.003": 4.88661710874,
			"-0.002": 7.46319329065,
			"-0.001": 7.65312221632,
			"0.0": 6.99350876285,
			"0.001": 3.90761470349,
			"0.002": 4.8681336079,
			"0.003": 3.03026730328,
			"0.004": 3.46525376589,
			"0.005": 4.3159565547,
			"0.006": 2.72535013241,
			"0.007": 2.11903623839,
			"0.008": 3.35860410235,
			"0.009": 3.45316944268,
			"0.01": 3.15246139724,
			"0.011": 1.97556827322,
			"0.012": 4.01202470856,
			"0.013": 7.03953749698,
			"0.014": 6.42806126148,
			"0.015": 0.494532906453,
			"0.016": 0.0,
			"0.017": 0.0,
			"0.018": 0.0,
			"0.019": 0.0,
			"0.02": 0.0,
			"0.021": 0.0,
			"0.022": 0.0,
			"0.023": 0.0,
			"0.024": 0.0,
			"0.025": 0.0
		}
	}
}
