{
	 "smiles": "COC1=CC(CC#N)=CC=C1OCC1=CC=CC=C1", 
	 "Tm": 342.15, 
	 "num_atms": 34, 
	 "gaussian": { 
		 "optdone": 1, 
		 "sigma_profile": "yes", 
		 "theory": "DFT", 
		 "functional": "B3LYP", 
		 "basiset": "6-31G**", 
		 "properties": { 
			 "R2extent": 8454.385, 
			 "electric_dipole_moment_norm": 1.61568574296, 
			 "electric_quadrupole_moment_norm": 24.7759087301, 
			 "total_energy": -823.89860282, 
			 "HOMO_LUMO_gap": 0.2128, 
			 "cosmo_polarized_energy": -14.67, 
			 "cosmo_cavitation_energy": 39.24, 
			 "cosmo_dispersion_energy": -27.05, 
			 "cosmo_repulsion_energy": 2.1, 
			 "cosmo_total_nonelectrostatic_energy": 14.29, 
			 "SMD_solvation_energy": 8.71 
		},
		"coords": [
			{
				"x": 0.7211215858,
				"y": -0.7526968458,
				"z": 1.8804536612,
				"element": "C" 
			},
			{
				"x": 0.080857275,
				"y": -0.5209029017,
				"z": 0.6324267703,
				"element": "O" 
			},
			{
				"x": 0.1425797203,
				"y": -1.496342066,
				"z": -0.317341474,
				"element": "C" 
			},
			{
				"x": 0.8121582525,
				"y": -2.7123583818,
				"z": -0.1572603248,
				"element": "C" 
			},
			{
				"x": 0.8129667828,
				"y": -3.6680477736,
				"z": -1.1817829105,
				"element": "C" 
			},
			{
				"x": 1.4918551648,
				"y": -5.0207006788,
				"z": -0.993399531,
				"element": "C" 
			},
			{
				"x": 2.6355677211,
				"y": -4.9982047436,
				"z": -0.0765968642,
				"element": "C" 
			},
			{
				"x": 3.5285220964,
				"y": -4.9736110073,
				"z": 0.6644547339,
				"element": "N" 
			},
			{
				"x": 0.1407649777,
				"y": -3.4016384758,
				"z": -2.3737281194,
				"element": "C" 
			},
			{
				"x": -0.5242999787,
				"y": -2.1846052139,
				"z": -2.5401903728,
				"element": "C" 
			},
			{
				"x": -0.5327196332,
				"y": -1.227855779,
				"z": -1.5304684074,
				"element": "C" 
			},
			{
				"x": -1.251038982,
				"y": -0.0731998932,
				"z": -1.7140785786,
				"element": "O" 
			},
			{
				"x": -0.4930130854,
				"y": 1.144030163,
				"z": -1.7932776265,
				"element": "C" 
			},
			{
				"x": -1.4043183103,
				"y": 2.2768866182,
				"z": -2.202477279,
				"element": "C" 
			},
			{
				"x": -1.0823482824,
				"y": 3.5879347361,
				"z": -1.8314500151,
				"element": "C" 
			},
			{
				"x": -1.8753257347,
				"y": 4.6592526466,
				"z": -2.2439017857,
				"element": "C" 
			},
			{
				"x": -3.0099741625,
				"y": 4.4292894587,
				"z": -3.0241812572,
				"element": "C" 
			},
			{
				"x": -3.3423224827,
				"y": 3.1232880718,
				"z": -3.389026533,
				"element": "C" 
			},
			{
				"x": -2.5428129668,
				"y": 2.0531969297,
				"z": -2.9848230887,
				"element": "C" 
			},
			{
				"x": 0.5343433002,
				"y": 0.1381187887,
				"z": 2.481426651,
				"element": "H" 
			},
			{
				"x": 0.3004237301,
				"y": -1.6279361701,
				"z": 2.3905350506,
				"element": "H" 
			},
			{
				"x": 1.802852449,
				"y": -0.8906884617,
				"z": 1.7611594537,
				"element": "H" 
			},
			{
				"x": 1.3434025636,
				"y": -2.9235797838,
				"z": 0.7631934769,
				"element": "H" 
			},
			{
				"x": 1.8357729309,
				"y": -5.4053462794,
				"z": -1.9600943822,
				"element": "H" 
			},
			{
				"x": 0.7745671932,
				"y": -5.7582356976,
				"z": -0.6071749681,
				"element": "H" 
			},
			{
				"x": 0.1358703169,
				"y": -4.1335891344,
				"z": -3.1765506408,
				"element": "H" 
			},
			{
				"x": -1.0524090661,
				"y": -1.9564525853,
				"z": -3.4604459297,
				"element": "H" 
			},
			{
				"x": 0.3089512187,
				"y": 1.0124178859,
				"z": -2.5362742025,
				"element": "H" 
			},
			{
				"x": -0.0222616744,
				"y": 1.3597579798,
				"z": -0.8285017175,
				"element": "H" 
			},
			{
				"x": -0.2067481092,
				"y": 3.7717565923,
				"z": -1.2127938415,
				"element": "H" 
			},
			{
				"x": -1.6126744996,
				"y": 5.6709063038,
				"z": -1.9474112624,
				"element": "H" 
			},
			{
				"x": -3.6331418391,
				"y": 5.2609566815,
				"z": -3.3404312336,
				"element": "H" 
			},
			{
				"x": -4.2275881143,
				"y": 2.9357834176,
				"z": -3.9905239859,
				"element": "H" 
			},
			{
				"x": -2.8032803576,
				"y": 1.036915599,
				"z": -3.2593634655,
				"element": "H" 
			}
		],
		 "valence_orbital": [ 
			{
				"type": "occ",
				"energy": -0.28296,
				"method": "rhf"
			},
			{
				"type": "occ",
				"energy": -0.2509,
				"method": "rhf"
			},
			{
				"type": "occ",
				"energy": -0.24635,
				"method": "rhf"
			},
			{
				"type": "occ",
				"energy": -0.23898,
				"method": "rhf"
			},
			{
				"type": "occ",
				"energy": -0.22295,
				"method": "rhf"
			},
			{
				"type": "unocc",
				"energy": -0.01015,
				"method": "rhf"
			},
			{
				"type": "unocc",
				"energy": -0.00337,
				"method": "rhf"
			},
			{
				"type": "unocc",
				"energy": 0.00019,
				"method": "rhf"
			},
			{
				"type": "unocc",
				"energy": 0.00258,
				"method": "rhf"
			},
			{
				"type": "unocc",
				"energy": 0.02915,
				"method": "rhf"
			}
		],
		"cosmo_sigma_profile": { 
			"-0.025": 0.0,
			"-0.024": 0.0,
			"-0.023": 0.0,
			"-0.022": 0.0,
			"-0.021": 0.0,
			"-0.02": 0.0,
			"-0.019": 0.0,
			"-0.018": 0.0,
			"-0.017": 0.0,
			"-0.016": 0.0,
			"-0.015": 0.0,
			"-0.014": 0.0,
			"-0.013": 0.0,
			"-0.012": 0.0,
			"-0.011": 0.0,
			"-0.01": 0.0,
			"-0.009": 3.10762389048,
			"-0.008": 6.32380176275,
			"-0.007": 6.63656464381,
			"-0.006": 19.1750257027,
			"-0.005": 30.5316836116,
			"-0.004": 28.2716055937,
			"-0.003": 28.6833750923,
			"-0.002": 20.6250796814,
			"-0.001": 15.4175262523,
			"0.0": 16.7129759973,
			"0.001": 17.6957702128,
			"0.002": 18.4151093941,
			"0.003": 20.6387506749,
			"0.004": 21.4336428553,
			"0.005": 16.6961294257,
			"0.006": 14.3034156268,
			"0.007": 5.06998682858,
			"0.008": 5.39007381418,
			"0.009": 4.91680243038,
			"0.01": 5.5328583846,
			"0.011": 3.7597548767,
			"0.012": 2.53750529457,
			"0.013": 1.83168532806,
			"0.014": 0.194350783925,
			"0.015": 0.0,
			"0.016": 0.0,
			"0.017": 0.0,
			"0.018": 0.0,
			"0.019": 0.0,
			"0.02": 0.0,
			"0.021": 0.0,
			"0.022": 0.0,
			"0.023": 0.0,
			"0.024": 0.0,
			"0.025": 0.0
		}
	}
}
