{
	 "smiles": "NC1=CC=CC(=C1Cl)C(F)(F)F", 
	 "Tm": 300.15, 
	 "num_atms": 17, 
	 "gaussian": { 
		 "optdone": 1, 
		 "sigma_profile": "yes", 
		 "theory": "DFT", 
		 "functional": "B3LYP", 
		 "basiset": "6-31G**", 
		 "properties": { 
			 "R2extent": 2377.6944, 
			 "electric_dipole_moment_norm": 4.17455708908, 
			 "electric_quadrupole_moment_norm": 8.19761104652, 
			 "total_energy": -1084.23021066, 
			 "HOMO_LUMO_gap": 0.18989, 
			 "cosmo_polarized_energy": -8.05, 
			 "cosmo_cavitation_energy": 23.71, 
			 "cosmo_dispersion_energy": -17.55, 
			 "cosmo_repulsion_energy": 1.33, 
			 "cosmo_total_nonelectrostatic_energy": 7.5, 
			 "SMD_solvation_energy": 4.89 
		},
		"coords": [
			{
				"x": -0.3616083774,
				"y": -2.0574435318,
				"z": -1.9867870521,
				"element": "N" 
			},
			{
				"x": 0.5619293007,
				"y": -1.5351202362,
				"z": -1.1004981108,
				"element": "C" 
			},
			{
				"x": 1.7434847724,
				"y": -2.2400559408,
				"z": -0.799126825,
				"element": "C" 
			},
			{
				"x": 2.7036158464,
				"y": -1.7029358304,
				"z": 0.0454979685,
				"element": "C" 
			},
			{
				"x": 2.5193825146,
				"y": -0.4454025951,
				"z": 0.6201005375,
				"element": "C" 
			},
			{
				"x": 1.3575981334,
				"y": 0.2785720581,
				"z": 0.3441773276,
				"element": "C" 
			},
			{
				"x": 0.3882536351,
				"y": -0.2665845607,
				"z": -0.5093437301,
				"element": "C" 
			},
			{
				"x": -1.0973531428,
				"y": 0.60401828,
				"z": -0.8777294161,
				"element": "Cl" 
			},
			{
				"x": 1.174855842,
				"y": 1.637123433,
				"z": 0.9834047206,
				"element": "C" 
			},
			{
				"x": 1.0469732984,
				"y": 2.616588814,
				"z": 0.0641159262,
				"element": "F" 
			},
			{
				"x": 0.0809781096,
				"y": 1.6805775538,
				"z": 1.7734562908,
				"element": "F" 
			},
			{
				"x": 2.2326398668,
				"y": 1.9626550521,
				"z": 1.7597540248,
				"element": "F" 
			},
			{
				"x": -0.3414139041,
				"y": -3.0588502133,
				"z": -2.1080308961,
				"element": "H" 
			},
			{
				"x": -1.2909307511,
				"y": -1.6643627892,
				"z": -1.951805833,
				"element": "H" 
			},
			{
				"x": 1.89434346,
				"y": -3.2177472378,
				"z": -1.2492889584,
				"element": "H" 
			},
			{
				"x": 3.6053200745,
				"y": -2.2677510841,
				"z": 0.2604826767,
				"element": "H" 
			},
			{
				"x": 3.2653313213,
				"y": -0.0207811717,
				"z": 1.2789213489,
				"element": "H" 
			}
		],
		 "valence_orbital": [ 
			{
				"type": "occ",
				"energy": -0.34289,
				"method": "rhf"
			},
			{
				"type": "occ",
				"energy": -0.32972,
				"method": "rhf"
			},
			{
				"type": "occ",
				"energy": -0.32085,
				"method": "rhf"
			},
			{
				"type": "occ",
				"energy": -0.26167,
				"method": "rhf"
			},
			{
				"type": "occ",
				"energy": -0.22056,
				"method": "rhf"
			},
			{
				"type": "unocc",
				"energy": -0.03067,
				"method": "rhf"
			},
			{
				"type": "unocc",
				"energy": -0.00376,
				"method": "rhf"
			},
			{
				"type": "unocc",
				"energy": 0.02347,
				"method": "rhf"
			},
			{
				"type": "unocc",
				"energy": 0.07455,
				"method": "rhf"
			},
			{
				"type": "unocc",
				"energy": 0.10389,
				"method": "rhf"
			}
		],
		"cosmo_sigma_profile": { 
			"-0.025": 0.0,
			"-0.024": 0.0,
			"-0.023": 0.0,
			"-0.022": 0.0,
			"-0.021": 0.0,
			"-0.02": 0.0,
			"-0.019": 0.0,
			"-0.018": 0.0,
			"-0.017": 0.0,
			"-0.016": 0.0,
			"-0.015": 0.0,
			"-0.014": 0.296417765813,
			"-0.013": 1.57547157353,
			"-0.012": 2.12508453528,
			"-0.011": 2.40360098494,
			"-0.01": 3.05994784318,
			"-0.009": 2.01250428112,
			"-0.008": 2.88849156702,
			"-0.007": 5.16015689035,
			"-0.006": 6.26315985476,
			"-0.005": 7.67561837501,
			"-0.004": 6.98515621395,
			"-0.003": 5.81115826655,
			"-0.002": 8.66424978757,
			"-0.001": 12.0876377948,
			"0.0": 11.5242683702,
			"0.001": 17.8309753692,
			"0.002": 28.2328332016,
			"0.003": 38.8687840159,
			"0.004": 19.5418634509,
			"0.005": 3.87351111585,
			"0.006": 1.22408117561,
			"0.007": 0.714257301828,
			"0.008": 0.678731116265,
			"0.009": 0.93970245491,
			"0.01": 0.199008534694,
			"0.011": 0.798914591657,
			"0.012": 0.583611755646,
			"0.013": 0.0718143179138,
			"0.014": 0.0,
			"0.015": 0.0,
			"0.016": 0.0,
			"0.017": 0.0,
			"0.018": 0.0,
			"0.019": 0.0,
			"0.02": 0.0,
			"0.021": 0.0,
			"0.022": 0.0,
			"0.023": 0.0,
			"0.024": 0.0,
			"0.025": 0.0
		}
	}
}
