{
	 "smiles": "CC1=CC=C(C=C1)N1N=C(Br)CC1C(O)=O", 
	 "Tm": 353.15, 
	 "num_atms": 27, 
	 "gaussian": { 
		 "optdone": 1, 
		 "sigma_profile": "yes", 
		 "theory": "DFT", 
		 "functional": "B3LYP", 
		 "basiset": "6-31G**", 
		 "properties": { 
			 "R2extent": 7338.6981, 
			 "electric_dipole_moment_norm": 3.41585549753, 
			 "electric_quadrupole_moment_norm": 13.1009661296, 
			 "total_energy": -3257.12793429, 
			 "HOMO_LUMO_gap": 0.18352, 
			 "cosmo_polarized_energy": -13.73, 
			 "cosmo_cavitation_energy": 33.27, 
			 "cosmo_dispersion_energy": -24.24, 
			 "cosmo_repulsion_energy": 1.91, 
			 "cosmo_total_nonelectrostatic_energy": 10.94, 
			 "SMD_solvation_energy": 4.87 
		},
		"coords": [
			{
				"x": -3.9878785445,
				"y": 0.7838473068,
				"z": -1.5953057074,
				"element": "C" 
			},
			{
				"x": -2.694543405,
				"y": 0.2859567938,
				"z": -0.9947814307,
				"element": "C" 
			},
			{
				"x": -2.2813551174,
				"y": -1.0427116414,
				"z": -1.1577525835,
				"element": "C" 
			},
			{
				"x": -1.073303259,
				"y": -1.5069881392,
				"z": -0.6419619607,
				"element": "C" 
			},
			{
				"x": -0.2423317206,
				"y": -0.6362355407,
				"z": 0.0737086394,
				"element": "C" 
			},
			{
				"x": -0.6465197031,
				"y": 0.6925328439,
				"z": 0.2654302893,
				"element": "C" 
			},
			{
				"x": -1.8526353725,
				"y": 1.1391184928,
				"z": -0.271797098,
				"element": "C" 
			},
			{
				"x": 0.982152093,
				"y": -1.083565161,
				"z": 0.6568122702,
				"element": "N" 
			},
			{
				"x": 1.327858237,
				"y": -2.4195947685,
				"z": 0.4016287551,
				"element": "N" 
			},
			{
				"x": 2.5884262126,
				"y": -2.4878651647,
				"z": 0.2317150043,
				"element": "C" 
			},
			{
				"x": 3.45761181,
				"y": -4.1400734741,
				"z": -0.0429758701,
				"element": "Br" 
			},
			{
				"x": 3.3438472494,
				"y": -1.185552138,
				"z": 0.2672477314,
				"element": "C" 
			},
			{
				"x": 2.1933456062,
				"y": -0.2102159747,
				"z": 0.6217514282,
				"element": "C" 
			},
			{
				"x": 2.4386660395,
				"y": 0.4796044365,
				"z": 1.9770610079,
				"element": "C" 
			},
			{
				"x": 1.5426230606,
				"y": 0.1937138377,
				"z": 2.9332910889,
				"element": "O" 
			},
			{
				"x": 3.3783449195,
				"y": 1.2170676788,
				"z": 2.1491153234,
				"element": "O" 
			},
			{
				"x": -3.8446995113,
				"y": 1.1200593966,
				"z": -2.6301041958,
				"element": "H" 
			},
			{
				"x": -4.3906067576,
				"y": 1.6308796859,
				"z": -1.0318847721,
				"element": "H" 
			},
			{
				"x": -4.7493793181,
				"y": -0.0018694147,
				"z": -1.6131554202,
				"element": "H" 
			},
			{
				"x": -2.9140526817,
				"y": -1.7344954814,
				"z": -1.7085803415,
				"element": "H" 
			},
			{
				"x": -0.7707176185,
				"y": -2.5368323039,
				"z": -0.7844087157,
				"element": "H" 
			},
			{
				"x": -0.0405055063,
				"y": 1.3770753642,
				"z": 0.8504358007,
				"element": "H" 
			},
			{
				"x": -2.1461384286,
				"y": 2.1734642553,
				"z": -0.1116723775,
				"element": "H" 
			},
			{
				"x": 3.8078935114,
				"y": -0.9772378557,
				"z": -0.701925265,
				"element": "H" 
			},
			{
				"x": 4.1388972845,
				"y": -1.1761297689,
				"z": 1.0173254092,
				"element": "H" 
			},
			{
				"x": 2.0791427371,
				"y": 0.5769621859,
				"z": -0.1287626369,
				"element": "H" 
			},
			{
				"x": 0.9245581834,
				"y": -0.4652154511,
				"z": 2.5532456272,
				"element": "H" 
			}
		],
		 "valence_orbital": [ 
			{
				"type": "occ",
				"energy": -0.30843,
				"method": "rhf"
			},
			{
				"type": "occ",
				"energy": -0.28458,
				"method": "rhf"
			},
			{
				"type": "occ",
				"energy": -0.27033,
				"method": "rhf"
			},
			{
				"type": "occ",
				"energy": -0.25962,
				"method": "rhf"
			},
			{
				"type": "occ",
				"energy": -0.21803,
				"method": "rhf"
			},
			{
				"type": "unocc",
				"energy": -0.03451,
				"method": "rhf"
			},
			{
				"type": "unocc",
				"energy": -0.01476,
				"method": "rhf"
			},
			{
				"type": "unocc",
				"energy": -0.01217,
				"method": "rhf"
			},
			{
				"type": "unocc",
				"energy": 0.00193,
				"method": "rhf"
			},
			{
				"type": "unocc",
				"energy": 0.00292,
				"method": "rhf"
			}
		],
		"cosmo_sigma_profile": { 
			"-0.025": 0.0,
			"-0.024": 0.0,
			"-0.023": 0.0,
			"-0.022": 0.0,
			"-0.021": 0.0,
			"-0.02": 0.0,
			"-0.019": 0.0,
			"-0.018": 0.0,
			"-0.017": 0.0,
			"-0.016": 0.0,
			"-0.015": 0.0,
			"-0.014": 0.238880768519,
			"-0.013": 0.559469862465,
			"-0.012": 1.03140955792,
			"-0.011": 0.813783537726,
			"-0.01": 1.79257951399,
			"-0.009": 4.36740556803,
			"-0.008": 10.7568965405,
			"-0.007": 9.80966424201,
			"-0.006": 9.78320709334,
			"-0.005": 14.8971182149,
			"-0.004": 21.221515219,
			"-0.003": 18.4803586475,
			"-0.002": 17.2839455628,
			"-0.001": 17.3185338844,
			"0.0": 20.9329110265,
			"0.001": 17.3065253679,
			"0.002": 16.0015256775,
			"0.003": 22.1858416419,
			"0.004": 14.0893364697,
			"0.005": 12.4979033119,
			"0.006": 8.83282159283,
			"0.007": 3.5473941256,
			"0.008": 3.89737662625,
			"0.009": 5.29321176985,
			"0.01": 5.10258127827,
			"0.011": 5.06520947496,
			"0.012": 4.69108251849,
			"0.013": 0.783884442138,
			"0.014": 0.0,
			"0.015": 0.0,
			"0.016": 0.0,
			"0.017": 0.0,
			"0.018": 0.0,
			"0.019": 0.0,
			"0.02": 0.0,
			"0.021": 0.0,
			"0.022": 0.0,
			"0.023": 0.0,
			"0.024": 0.0,
			"0.025": 0.0
		}
	}
}
