{
	 "smiles": "CCSCC", 
	 "Tm": 169.15, 
	 "num_atms": 15, 
	 "gaussian": { 
		 "optdone": 1, 
		 "sigma_profile": "yes", 
		 "theory": "DFT", 
		 "functional": "B3LYP", 
		 "basiset": "6-31G**", 
		 "properties": { 
			 "R2extent": 953.6475, 
			 "electric_dipole_moment_norm": 1.67240648767, 
			 "electric_quadrupole_moment_norm": 3.20971666818, 
			 "total_energy": -556.650594309, 
			 "HOMO_LUMO_gap": 0.2516, 
			 "cosmo_polarized_energy": -4.03, 
			 "cosmo_cavitation_energy": 18.8, 
			 "cosmo_dispersion_energy": -14.46, 
			 "cosmo_repulsion_energy": 1.24, 
			 "cosmo_total_nonelectrostatic_energy": 5.58, 
			 "SMD_solvation_energy": 3.12 
		},
		"coords": [
			{
				"x": 0.2317428503,
				"y": -2.3941122437,
				"z": -0.0572039143,
				"element": "C" 
			},
			{
				"x": -0.6103597291,
				"y": -1.3804404769,
				"z": 0.7169167762,
				"element": "C" 
			},
			{
				"x": 0.071320776,
				"y": 0.3112267075,
				"z": 0.5009595969,
				"element": "S" 
			},
			{
				"x": -1.1234971664,
				"y": 1.263032536,
				"z": 1.520533464,
				"element": "C" 
			},
			{
				"x": -0.7669489316,
				"y": 2.7491689124,
				"z": 1.5059525104,
				"element": "C" 
			},
			{
				"x": -0.1769098681,
				"y": -3.4015060094,
				"z": 0.0733427323,
				"element": "H" 
			},
			{
				"x": 1.2674668903,
				"y": -2.4003185795,
				"z": 0.2956000404,
				"element": "H" 
			},
			{
				"x": 0.2392006007,
				"y": -2.16764413,
				"z": -1.1276660776,
				"element": "H" 
			},
			{
				"x": -0.6179079506,
				"y": -1.6242854806,
				"z": 1.7850212762,
				"element": "H" 
			},
			{
				"x": -1.646578227,
				"y": -1.3915156287,
				"z": 0.3612632637,
				"element": "H" 
			},
			{
				"x": -2.1316049608,
				"y": 1.1066433952,
				"z": 1.1210070954,
				"element": "H" 
			},
			{
				"x": -1.1025126845,
				"y": 0.8737218055,
				"z": 2.5444301768,
				"element": "H" 
			},
			{
				"x": -0.7943048597,
				"y": 3.1531152459,
				"z": 0.4894334395,
				"element": "H" 
			},
			{
				"x": 0.2344713376,
				"y": 2.9202561091,
				"z": 1.9123004908,
				"element": "H" 
			},
			{
				"x": -1.4807780771,
				"y": 3.3139578372,
				"z": 2.1145091292,
				"element": "H" 
			}
		],
		 "valence_orbital": [ 
			{
				"type": "occ",
				"energy": -0.36451,
				"method": "rhf"
			},
			{
				"type": "occ",
				"energy": -0.34997,
				"method": "rhf"
			},
			{
				"type": "occ",
				"energy": -0.32938,
				"method": "rhf"
			},
			{
				"type": "occ",
				"energy": -0.30033,
				"method": "rhf"
			},
			{
				"type": "occ",
				"energy": -0.21323,
				"method": "rhf"
			},
			{
				"type": "unocc",
				"energy": 0.03837,
				"method": "rhf"
			},
			{
				"type": "unocc",
				"energy": 0.08906,
				"method": "rhf"
			},
			{
				"type": "unocc",
				"energy": 0.09287,
				"method": "rhf"
			},
			{
				"type": "unocc",
				"energy": 0.13006,
				"method": "rhf"
			},
			{
				"type": "unocc",
				"energy": 0.1342,
				"method": "rhf"
			}
		],
		"cosmo_sigma_profile": { 
			"-0.025": 0.0,
			"-0.024": 0.0,
			"-0.023": 0.0,
			"-0.022": 0.0,
			"-0.021": 0.0,
			"-0.02": 0.0,
			"-0.019": 0.0,
			"-0.018": 0.0,
			"-0.017": 0.0,
			"-0.016": 0.0,
			"-0.015": 0.0,
			"-0.014": 0.0,
			"-0.013": 0.0,
			"-0.012": 0.0,
			"-0.011": 0.0,
			"-0.01": 0.0,
			"-0.009": 0.0,
			"-0.008": 0.0,
			"-0.007": 0.0,
			"-0.006": 0.0,
			"-0.005": 1.56350625408,
			"-0.004": 14.6491511816,
			"-0.003": 21.1797939872,
			"-0.002": 22.9047042191,
			"-0.001": 25.3262266339,
			"0.0": 20.4054093297,
			"0.001": 12.8651542309,
			"0.002": 3.59963377445,
			"0.003": 3.11093277609,
			"0.004": 2.50044990981,
			"0.005": 2.73863535686,
			"0.006": 2.32390153909,
			"0.007": 3.89794451485,
			"0.008": 2.48651135033,
			"0.009": 2.72905694539,
			"0.01": 1.67647333524,
			"0.011": 1.94951614721,
			"0.012": 1.69463468625,
			"0.013": 0.113909136952,
			"0.014": 0.0,
			"0.015": 0.0,
			"0.016": 0.0,
			"0.017": 0.0,
			"0.018": 0.0,
			"0.019": 0.0,
			"0.02": 0.0,
			"0.021": 0.0,
			"0.022": 0.0,
			"0.023": 0.0,
			"0.024": 0.0,
			"0.025": 0.0
		}
	}
}
