{
	 "smiles": "COC1=CC=C(NS(=O)(=O)C2=CC=C(C=C2)C(C)=O)C=C1", 
	 "Tm": 395.15, 
	 "num_atms": 36, 
	 "gaussian": { 
		 "optdone": 1, 
		 "sigma_profile": "yes", 
		 "theory": "DFT", 
		 "functional": "B3LYP", 
		 "basiset": "6-31G**", 
		 "properties": { 
			 "R2extent": 8320.722, 
			 "electric_dipole_moment_norm": 5.62239307235, 
			 "electric_quadrupole_moment_norm": 17.3780533032, 
			 "total_energy": -1334.39130314, 
			 "HOMO_LUMO_gap": 0.14116, 
			 "cosmo_polarized_energy": -20.99, 
			 "cosmo_cavitation_energy": 42.16, 
			 "cosmo_dispersion_energy": -29.44, 
			 "cosmo_repulsion_energy": 2.22, 
			 "cosmo_total_nonelectrostatic_energy": 14.95, 
			 "SMD_solvation_energy": 7.74 
		},
		"coords": [
			{
				"x": -5.1760849737,
				"y": 1.0351891307,
				"z": 2.8116155637,
				"element": "C" 
			},
			{
				"x": -4.3313067046,
				"y": -0.1046158876,
				"z": 2.7662645378,
				"element": "O" 
			},
			{
				"x": -3.0091456426,
				"y": 0.0818856079,
				"z": 2.4891848899,
				"element": "C" 
			},
			{
				"x": -2.4142712653,
				"y": 1.3231117016,
				"z": 2.229454628,
				"element": "C" 
			},
			{
				"x": -1.0438527081,
				"y": 1.4023346173,
				"z": 1.9752184712,
				"element": "C" 
			},
			{
				"x": -0.2608652497,
				"y": 0.24522139,
				"z": 1.9431890461,
				"element": "C" 
			},
			{
				"x": 1.1442892413,
				"y": 0.3341480955,
				"z": 1.7088004264,
				"element": "N" 
			},
			{
				"x": 1.7849104405,
				"y": 0.8696677741,
				"z": 0.2321463382,
				"element": "S" 
			},
			{
				"x": 3.2310000667,
				"y": 0.7099853281,
				"z": 0.385606518,
				"element": "O" 
			},
			{
				"x": 1.1570048265,
				"y": 2.1561434506,
				"z": -0.0647841192,
				"element": "O" 
			},
			{
				"x": 1.2313710632,
				"y": -0.2976637015,
				"z": -1.0196701108,
				"element": "C" 
			},
			{
				"x": -0.0175297246,
				"y": -0.1203899645,
				"z": -1.6184643256,
				"element": "C" 
			},
			{
				"x": -0.4537142698,
				"y": -1.0515901479,
				"z": -2.5598343259,
				"element": "C" 
			},
			{
				"x": 0.3495294518,
				"y": -2.1488299371,
				"z": -2.9034564766,
				"element": "C" 
			},
			{
				"x": 1.605540987,
				"y": -2.3004608124,
				"z": -2.294578668,
				"element": "C" 
			},
			{
				"x": 2.0517867128,
				"y": -1.3807079315,
				"z": -1.352492663,
				"element": "C" 
			},
			{
				"x": -0.0736650092,
				"y": -3.1822964797,
				"z": -3.9118223225,
				"element": "C" 
			},
			{
				"x": -1.4174889406,
				"y": -3.0290130913,
				"z": -4.6006090968,
				"element": "C" 
			},
			{
				"x": 0.6564870512,
				"y": -4.1267116198,
				"z": -4.1664575952,
				"element": "O" 
			},
			{
				"x": -0.8644414113,
				"y": -0.9975966587,
				"z": 2.1891826911,
				"element": "C" 
			},
			{
				"x": -2.2204479549,
				"y": -1.07845895,
				"z": 2.4752234427,
				"element": "C" 
			},
			{
				"x": -6.1732557911,
				"y": 0.6615023381,
				"z": 3.0485380154,
				"element": "H" 
			},
			{
				"x": -5.2062650313,
				"y": 1.5560812938,
				"z": 1.8458856697,
				"element": "H" 
			},
			{
				"x": -4.8611764639,
				"y": 1.7417744909,
				"z": 3.590098036,
				"element": "H" 
			},
			{
				"x": -2.9984276615,
				"y": 2.2353701945,
				"z": 2.2432210281,
				"element": "H" 
			},
			{
				"x": -0.5754308763,
				"y": 2.3626893307,
				"z": 1.7956886666,
				"element": "H" 
			},
			{
				"x": 1.6945611111,
				"y": -0.4461092886,
				"z": 2.0541086569,
				"element": "H" 
			},
			{
				"x": -0.6239174108,
				"y": 0.740531833,
				"z": -1.3620694804,
				"element": "H" 
			},
			{
				"x": -1.4228511101,
				"y": -0.911773883,
				"z": -3.0267324818,
				"element": "H" 
			},
			{
				"x": 2.2162865914,
				"y": -3.1489227512,
				"z": -2.583762833,
				"element": "H" 
			},
			{
				"x": 3.0285870359,
				"y": -1.4770869375,
				"z": -0.8908577284,
				"element": "H" 
			},
			{
				"x": -2.235292331,
				"y": -3.0270605405,
				"z": -3.8714027702,
				"element": "H" 
			},
			{
				"x": -1.4703055236,
				"y": -2.0844567218,
				"z": -5.1532754338,
				"element": "H" 
			},
			{
				"x": -1.5516470124,
				"y": -3.8610526852,
				"z": -5.2920538338,
				"element": "H" 
			},
			{
				"x": -0.2654205794,
				"y": -1.9042770188,
				"z": 2.1614179993,
				"element": "H" 
			},
			{
				"x": -2.6951509337,
				"y": -2.0322615682,
				"z": 2.6796796397,
				"element": "H" 
			}
		],
		 "valence_orbital": [ 
			{
				"type": "occ",
				"energy": -0.27969,
				"method": "rhf"
			},
			{
				"type": "occ",
				"energy": -0.27399,
				"method": "rhf"
			},
			{
				"type": "occ",
				"energy": -0.26434,
				"method": "rhf"
			},
			{
				"type": "occ",
				"energy": -0.26125,
				"method": "rhf"
			},
			{
				"type": "occ",
				"energy": -0.21965,
				"method": "rhf"
			},
			{
				"type": "unocc",
				"energy": -0.07849,
				"method": "rhf"
			},
			{
				"type": "unocc",
				"energy": -0.02911,
				"method": "rhf"
			},
			{
				"type": "unocc",
				"energy": -0.01555,
				"method": "rhf"
			},
			{
				"type": "unocc",
				"energy": -0.00826,
				"method": "rhf"
			},
			{
				"type": "unocc",
				"energy": 0.01265,
				"method": "rhf"
			}
		],
		"cosmo_sigma_profile": { 
			"-0.025": 0.0,
			"-0.024": 0.0,
			"-0.023": 0.0,
			"-0.022": 0.0,
			"-0.021": 0.0,
			"-0.02": 0.0,
			"-0.019": 0.0,
			"-0.018": 0.0,
			"-0.017": 0.0,
			"-0.016": 0.241756812134,
			"-0.015": 1.19785530586,
			"-0.014": 0.905649411247,
			"-0.013": 1.51720516451,
			"-0.012": 1.42297140886,
			"-0.011": 1.09847301421,
			"-0.01": 1.10703102303,
			"-0.009": 1.52565987514,
			"-0.008": 3.29483579344,
			"-0.007": 12.9469234083,
			"-0.006": 25.8237236476,
			"-0.005": 25.5012505271,
			"-0.004": 25.5092573012,
			"-0.003": 24.6597299657,
			"-0.002": 21.1485520654,
			"-0.001": 19.8183306081,
			"0.0": 20.5589721239,
			"0.001": 25.2301488669,
			"0.002": 21.6649463645,
			"0.003": 17.5526754381,
			"0.004": 19.6454015493,
			"0.005": 8.77368450681,
			"0.006": 7.23470431501,
			"0.007": 7.34760768288,
			"0.008": 7.05739212939,
			"0.009": 7.52478098405,
			"0.01": 11.1050486519,
			"0.011": 11.2252282556,
			"0.012": 3.31988009491,
			"0.013": 0.673410666924,
			"0.014": 0.0,
			"0.015": 0.0,
			"0.016": 0.0,
			"0.017": 0.0,
			"0.018": 0.0,
			"0.019": 0.0,
			"0.02": 0.0,
			"0.021": 0.0,
			"0.022": 0.0,
			"0.023": 0.0,
			"0.024": 0.0,
			"0.025": 0.0
		}
	}
}
