{
	 "smiles": "CC1(O)CCC2=C1C=CC=C2", 
	 "Tm": 330.15, 
	 "num_atms": 23, 
	 "gaussian": { 
		 "optdone": 1, 
		 "sigma_profile": "yes", 
		 "theory": "DFT", 
		 "functional": "B3LYP", 
		 "basiset": "6-31G**", 
		 "properties": { 
			 "R2extent": 1662.6988, 
			 "electric_dipole_moment_norm": 1.62863750724, 
			 "electric_quadrupole_moment_norm": 8.16062299337, 
			 "total_energy": -463.525005903, 
			 "HOMO_LUMO_gap": 0.23351, 
			 "cosmo_polarized_energy": -8.41, 
			 "cosmo_cavitation_energy": 24.89, 
			 "cosmo_dispersion_energy": -18.23, 
			 "cosmo_repulsion_energy": 1.46, 
			 "cosmo_total_nonelectrostatic_energy": 8.11, 
			 "SMD_solvation_energy": 3.84 
		},
		"coords": [
			{
				"x": 2.3623606878,
				"y": 0.0132342949,
				"z": -1.4520036709,
				"element": "C" 
			},
			{
				"x": 1.3752881539,
				"y": -0.2564852711,
				"z": -0.3145510463,
				"element": "C" 
			},
			{
				"x": 1.9927172587,
				"y": 0.0513793975,
				"z": 0.9504419026,
				"element": "O" 
			},
			{
				"x": 0.815656369,
				"y": -1.7066515758,
				"z": -0.3145722024,
				"element": "C" 
			},
			{
				"x": -0.5804179858,
				"y": -1.6138259553,
				"z": 0.3420926304,
				"element": "C" 
			},
			{
				"x": -1.0057001913,
				"y": -0.1972958747,
				"z": 0.0189204345,
				"element": "C" 
			},
			{
				"x": 0.099374974,
				"y": 0.5730226043,
				"z": -0.3626970943,
				"element": "C" 
			},
			{
				"x": -0.0473294001,
				"y": 1.9214988477,
				"z": -0.6788317052,
				"element": "C" 
			},
			{
				"x": -1.3213289074,
				"y": 2.4948033667,
				"z": -0.6283108594,
				"element": "C" 
			},
			{
				"x": -2.427802784,
				"y": 1.7248558287,
				"z": -0.2556064604,
				"element": "C" 
			},
			{
				"x": -2.275835911,
				"y": 0.3746318827,
				"z": 0.0742815056,
				"element": "C" 
			},
			{
				"x": 3.2198333098,
				"y": -0.6686345162,
				"z": -1.3860936248,
				"element": "H" 
			},
			{
				"x": 2.7435884799,
				"y": 1.0369862253,
				"z": -1.3936726272,
				"element": "H" 
			},
			{
				"x": 1.8960029729,
				"y": -0.1306491649,
				"z": -2.4312616181,
				"element": "H" 
			},
			{
				"x": 2.8066660054,
				"y": -0.4688684765,
				"z": 1.0055677763,
				"element": "H" 
			},
			{
				"x": 1.4949396718,
				"y": -2.3962652616,
				"z": 0.1978764388,
				"element": "H" 
			},
			{
				"x": 0.7103514245,
				"y": -2.053392569,
				"z": -1.349245322,
				"element": "H" 
			},
			{
				"x": -0.5111080061,
				"y": -1.7483215458,
				"z": 1.4290054962,
				"element": "H" 
			},
			{
				"x": -1.2771853516,
				"y": -2.3706986833,
				"z": -0.0334014388,
				"element": "H" 
			},
			{
				"x": 0.811802521,
				"y": 2.5226871596,
				"z": -0.9634129963,
				"element": "H" 
			},
			{
				"x": -1.4535759661,
				"y": 3.5431402039,
				"z": -0.8807299215,
				"element": "H" 
			},
			{
				"x": -3.4141195743,
				"y": 2.1797503214,
				"z": -0.2240320947,
				"element": "H" 
			},
			{
				"x": -3.1393777508,
				"y": -0.2185012385,
				"z": 0.364936498,
				"element": "H" 
			}
		],
		 "valence_orbital": [ 
			{
				"type": "occ",
				"energy": -0.32658,
				"method": "rhf"
			},
			{
				"type": "occ",
				"energy": -0.30709,
				"method": "rhf"
			},
			{
				"type": "occ",
				"energy": -0.26066,
				"method": "rhf"
			},
			{
				"type": "occ",
				"energy": -0.24163,
				"method": "rhf"
			},
			{
				"type": "occ",
				"energy": -0.23274,
				"method": "rhf"
			},
			{
				"type": "unocc",
				"energy": 0.00077,
				"method": "rhf"
			},
			{
				"type": "unocc",
				"energy": 0.0071,
				"method": "rhf"
			},
			{
				"type": "unocc",
				"energy": 0.07489,
				"method": "rhf"
			},
			{
				"type": "unocc",
				"energy": 0.10539,
				"method": "rhf"
			},
			{
				"type": "unocc",
				"energy": 0.11824,
				"method": "rhf"
			}
		],
		"cosmo_sigma_profile": { 
			"-0.025": 0.0,
			"-0.024": 0.0,
			"-0.023": 0.0,
			"-0.022": 0.0,
			"-0.021": 0.0,
			"-0.02": 0.0,
			"-0.019": 0.0,
			"-0.018": 0.0,
			"-0.017": 0.0,
			"-0.016": 0.0,
			"-0.015": 0.284014953217,
			"-0.014": 0.813506062751,
			"-0.013": 1.08799780728,
			"-0.012": 0.703737346053,
			"-0.011": 0.832909298455,
			"-0.01": 1.17298853411,
			"-0.009": 1.10053277456,
			"-0.008": 1.32799814542,
			"-0.007": 0.976125253299,
			"-0.006": 2.68478969211,
			"-0.005": 9.09513412218,
			"-0.004": 15.7418287214,
			"-0.003": 24.3128840123,
			"-0.002": 21.029450362,
			"-0.001": 20.8991685199,
			"0.0": 22.1068381513,
			"0.001": 13.6436976515,
			"0.002": 8.63755324552,
			"0.003": 7.83070338405,
			"0.004": 6.99555131236,
			"0.005": 7.75188460206,
			"0.006": 9.54442939107,
			"0.007": 4.25839421501,
			"0.008": 2.34783448078,
			"0.009": 1.30017722847,
			"0.01": 1.89050605788,
			"0.011": 1.09089234444,
			"0.012": 1.48826737298,
			"0.013": 1.459419009,
			"0.014": 2.1015093636,
			"0.015": 0.718350736119,
			"0.016": 0.0,
			"0.017": 0.0,
			"0.018": 0.0,
			"0.019": 0.0,
			"0.02": 0.0,
			"0.021": 0.0,
			"0.022": 0.0,
			"0.023": 0.0,
			"0.024": 0.0,
			"0.025": 0.0
		}
	}
}
