{
	 "smiles": "CC1=C(C=CC=C1N1CCNC1=O)C(O)=O", 
	 "Tm": 495.15, 
	 "num_atms": 28, 
	 "gaussian": { 
		 "optdone": 1, 
		 "sigma_profile": "yes", 
		 "theory": "DFT", 
		 "functional": "B3LYP", 
		 "basiset": "6-31G**", 
		 "properties": { 
			 "R2extent": 5047.2756, 
			 "electric_dipole_moment_norm": 7.50321540141, 
			 "electric_quadrupole_moment_norm": 21.4070095863, 
			 "total_energy": -761.608313509, 
			 "HOMO_LUMO_gap": 0.19367, 
			 "cosmo_polarized_energy": -20.8, 
			 "cosmo_cavitation_energy": 30.88, 
			 "cosmo_dispersion_energy": -22.5, 
			 "cosmo_repulsion_energy": 1.74, 
			 "cosmo_total_nonelectrostatic_energy": 10.11, 
			 "SMD_solvation_energy": 5.82 
		},
		"coords": [
			{
				"x": 1.569273101,
				"y": 1.6934967388,
				"z": -2.0547867514,
				"element": "C" 
			},
			{
				"x": 0.3009554841,
				"y": 0.8767947495,
				"z": -1.9351281389,
				"element": "C" 
			},
			{
				"x": -0.2069637608,
				"y": 0.0998440666,
				"z": -2.9999156837,
				"element": "C" 
			},
			{
				"x": -1.2809714685,
				"y": -0.7795847816,
				"z": -2.806412387,
				"element": "C" 
			},
			{
				"x": -1.9075542136,
				"y": -0.8620549734,
				"z": -1.5696159477,
				"element": "C" 
			},
			{
				"x": -1.4642719677,
				"y": -0.0582541752,
				"z": -0.5225910182,
				"element": "C" 
			},
			{
				"x": -0.3765590321,
				"y": 0.8050721539,
				"z": -0.6959987236,
				"element": "C" 
			},
			{
				"x": 0.0725060601,
				"y": 1.5862061168,
				"z": 0.4037164684,
				"element": "N" 
			},
			{
				"x": 0.0718999362,
				"y": 1.0980290475,
				"z": 1.7848237938,
				"element": "C" 
			},
			{
				"x": 0.6851088273,
				"y": 2.291895053,
				"z": 2.5387333405,
				"element": "C" 
			},
			{
				"x": 0.2343917876,
				"y": 3.3988183777,
				"z": 1.7057687312,
				"element": "N" 
			},
			{
				"x": 0.0480572756,
				"y": 2.9888593202,
				"z": 0.393429387,
				"element": "C" 
			},
			{
				"x": -0.115853547,
				"y": 3.7096007569,
				"z": -0.5751685468,
				"element": "O" 
			},
			{
				"x": 0.3556361323,
				"y": 0.1141335232,
				"z": -4.3968547629,
				"element": "C" 
			},
			{
				"x": 0.7775662658,
				"y": 1.3118098739,
				"z": -4.8825146088,
				"element": "O" 
			},
			{
				"x": 0.4027396862,
				"y": -0.8670742079,
				"z": -5.1009297276,
				"element": "O" 
			},
			{
				"x": 2.1200099196,
				"y": 1.6491370905,
				"z": -1.111128867,
				"element": "H" 
			},
			{
				"x": 1.3547304809,
				"y": 2.7545107495,
				"z": -2.2239437957,
				"element": "H" 
			},
			{
				"x": 2.2206114474,
				"y": 1.3222449388,
				"z": -2.8471213662,
				"element": "H" 
			},
			{
				"x": -1.6037509697,
				"y": -1.38913886,
				"z": -3.6430694892,
				"element": "H" 
			},
			{
				"x": -2.746021629,
				"y": -1.5354729679,
				"z": -1.4215555755,
				"element": "H" 
			},
			{
				"x": -1.9696365604,
				"y": -0.0966717689,
				"z": 0.4369462585,
				"element": "H" 
			},
			{
				"x": -0.94647542,
				"y": 0.902762256,
				"z": 2.1490272634,
				"element": "H" 
			},
			{
				"x": 0.6600816063,
				"y": 0.1823822359,
				"z": 1.8824823125,
				"element": "H" 
			},
			{
				"x": 1.7818358019,
				"y": 2.2134245095,
				"z": 2.5712119226,
				"element": "H" 
			},
			{
				"x": 0.309533252,
				"y": 2.3692275186,
				"z": 3.5624787124,
				"element": "H" 
			},
			{
				"x": 0.5872836738,
				"y": 4.3359558221,
				"z": 1.8357670303,
				"element": "H" 
			},
			{
				"x": 0.5766378307,
				"y": 2.0174468362,
				"z": -4.2514498304,
				"element": "H" 
			}
		],
		 "valence_orbital": [ 
			{
				"type": "occ",
				"energy": -0.27566,
				"method": "rhf"
			},
			{
				"type": "occ",
				"energy": -0.26763,
				"method": "rhf"
			},
			{
				"type": "occ",
				"energy": -0.26438,
				"method": "rhf"
			},
			{
				"type": "occ",
				"energy": -0.25453,
				"method": "rhf"
			},
			{
				"type": "occ",
				"energy": -0.23491,
				"method": "rhf"
			},
			{
				"type": "unocc",
				"energy": -0.04124,
				"method": "rhf"
			},
			{
				"type": "unocc",
				"energy": -0.01517,
				"method": "rhf"
			},
			{
				"type": "unocc",
				"energy": 0.03574,
				"method": "rhf"
			},
			{
				"type": "unocc",
				"energy": 0.05101,
				"method": "rhf"
			},
			{
				"type": "unocc",
				"energy": 0.06695,
				"method": "rhf"
			}
		],
		"cosmo_sigma_profile": { 
			"-0.025": 0.0,
			"-0.024": 0.0,
			"-0.023": 0.0,
			"-0.022": 0.0,
			"-0.021": 0.0,
			"-0.02": 0.0,
			"-0.019": 0.0,
			"-0.018": 0.037555227685,
			"-0.017": 0.560575339522,
			"-0.016": 0.800622106327,
			"-0.015": 0.703963231717,
			"-0.014": 2.16716142398,
			"-0.013": 1.6672579686,
			"-0.012": 1.92042446307,
			"-0.011": 1.92600751457,
			"-0.01": 2.00298979273,
			"-0.009": 1.64223106013,
			"-0.008": 2.42650945344,
			"-0.007": 6.21272642274,
			"-0.006": 14.4113488983,
			"-0.005": 22.2894480531,
			"-0.004": 24.741776399,
			"-0.003": 20.3754782395,
			"-0.002": 16.0619548379,
			"-0.001": 14.0898057356,
			"0.0": 14.1674038416,
			"0.001": 10.1064566373,
			"0.002": 8.76205425444,
			"0.003": 11.9196769528,
			"0.004": 12.5831214264,
			"0.005": 4.65855416191,
			"0.006": 4.4970868099,
			"0.007": 4.7803681149,
			"0.008": 4.40958728454,
			"0.009": 6.23749072916,
			"0.01": 5.64072796394,
			"0.011": 6.77081261147,
			"0.012": 7.41573840746,
			"0.013": 5.03087395957,
			"0.014": 3.37524927879,
			"0.015": 0.475836311058,
			"0.016": 0.0,
			"0.017": 0.0,
			"0.018": 0.0,
			"0.019": 0.0,
			"0.02": 0.0,
			"0.021": 0.0,
			"0.022": 0.0,
			"0.023": 0.0,
			"0.024": 0.0,
			"0.025": 0.0
		}
	}
}
