{
	 "smiles": "OC(=O)CS(=O)(=O)CC(=O)NC1=CC=C(Br)C=C1", 
	 "Tm": 481.15, 
	 "num_atms": 28, 
	 "gaussian": { 
		 "optdone": 1, 
		 "sigma_profile": "yes", 
		 "theory": "DFT", 
		 "functional": "B3LYP", 
		 "basiset": "6-31G**", 
		 "properties": { 
			 "R2extent": 12987.4261, 
			 "electric_dipole_moment_norm": 6.27070246942, 
			 "electric_quadrupole_moment_norm": 15.1065404378, 
			 "total_energy": -3787.51634318, 
			 "HOMO_LUMO_gap": 0.17572, 
			 "cosmo_polarized_energy": -24.02, 
			 "cosmo_cavitation_energy": 37.27, 
			 "cosmo_dispersion_energy": -27.38, 
			 "cosmo_repulsion_energy": 2.07, 
			 "cosmo_total_nonelectrostatic_energy": 11.96, 
			 "SMD_solvation_energy": 6.09 
		},
		"coords": [
			{
				"x": 3.3111135358,
				"y": -2.3774696199,
				"z": 4.5624222912,
				"element": "O" 
			},
			{
				"x": 3.0940746185,
				"y": -2.378070769,
				"z": 3.2378910417,
				"element": "C" 
			},
			{
				"x": 3.9533071923,
				"y": -2.5748599813,
				"z": 2.4074740433,
				"element": "O" 
			},
			{
				"x": 1.6378335307,
				"y": -2.1159987525,
				"z": 2.9106394479,
				"element": "C" 
			},
			{
				"x": 1.4269545654,
				"y": -0.6593156565,
				"z": 1.8197723553,
				"element": "S" 
			},
			{
				"x": 2.2010599772,
				"y": 0.4489026877,
				"z": 2.3866625946,
				"element": "O" 
			},
			{
				"x": -0.0334290428,
				"y": -0.5281614777,
				"z": 1.6174557654,
				"element": "O" 
			},
			{
				"x": 2.1465585772,
				"y": -1.1665559273,
				"z": 0.2266253107,
				"element": "C" 
			},
			{
				"x": 2.0143993974,
				"y": -0.125436479,
				"z": -0.9048870912,
				"element": "C" 
			},
			{
				"x": 2.9574236277,
				"y": 0.0417410753,
				"z": -1.6612033636,
				"element": "O" 
			},
			{
				"x": 0.7917613669,
				"y": 0.4768642606,
				"z": -0.9966466069,
				"element": "N" 
			},
			{
				"x": 0.3638817946,
				"y": 1.43390587,
				"z": -1.9428412585,
				"element": "C" 
			},
			{
				"x": -0.9294033826,
				"y": 1.9548728658,
				"z": -1.7811216685,
				"element": "C" 
			},
			{
				"x": -1.4332702939,
				"y": 2.8959557055,
				"z": -2.6730843325,
				"element": "C" 
			},
			{
				"x": -0.638462688,
				"y": 3.3218025496,
				"z": -3.7360873462,
				"element": "C" 
			},
			{
				"x": -1.3226706728,
				"y": 4.6136007664,
				"z": -4.9674965033,
				"element": "Br" 
			},
			{
				"x": 0.6472546552,
				"y": 2.8152088989,
				"z": -3.9081297417,
				"element": "C" 
			},
			{
				"x": 1.1548072144,
				"y": 1.8710973733,
				"z": -3.0159280351,
				"element": "C" 
			},
			{
				"x": 4.261131722,
				"y": -2.5424326459,
				"z": 4.6951358303,
				"element": "H" 
			},
			{
				"x": 1.045980501,
				"y": -1.8804477607,
				"z": 3.796903589,
				"element": "H" 
			},
			{
				"x": 1.2036688667,
				"y": -2.9763323274,
				"z": 2.3956591319,
				"element": "H" 
			},
			{
				"x": 3.2037060558,
				"y": -1.3712728784,
				"z": 0.3913428897,
				"element": "H" 
			},
			{
				"x": 1.6349780863,
				"y": -2.0914686171,
				"z": -0.059242365,
				"element": "H" 
			},
			{
				"x": 0.1219972129,
				"y": 0.2472373106,
				"z": -0.2662954053,
				"element": "H" 
			},
			{
				"x": -1.5454893813,
				"y": 1.624393655,
				"z": -0.9487643771,
				"element": "H" 
			},
			{
				"x": -2.4326259691,
				"y": 3.2941655674,
				"z": -2.5409832686,
				"element": "H" 
			},
			{
				"x": 1.2583140287,
				"y": 3.1536774607,
				"z": -4.7371570326,
				"element": "H" 
			},
			{
				"x": 2.1523449037,
				"y": 1.4754968459,
				"z": -3.1426158951,
				"element": "H" 
			}
		],
		 "valence_orbital": [ 
			{
				"type": "occ",
				"energy": -0.28768,
				"method": "rhf"
			},
			{
				"type": "occ",
				"energy": -0.28443,
				"method": "rhf"
			},
			{
				"type": "occ",
				"energy": -0.27428,
				"method": "rhf"
			},
			{
				"type": "occ",
				"energy": -0.26421,
				"method": "rhf"
			},
			{
				"type": "occ",
				"energy": -0.22395,
				"method": "rhf"
			},
			{
				"type": "unocc",
				"energy": -0.04823,
				"method": "rhf"
			},
			{
				"type": "unocc",
				"energy": -0.02919,
				"method": "rhf"
			},
			{
				"type": "unocc",
				"energy": -0.01429,
				"method": "rhf"
			},
			{
				"type": "unocc",
				"energy": 0.01033,
				"method": "rhf"
			},
			{
				"type": "unocc",
				"energy": 0.01532,
				"method": "rhf"
			}
		],
		"cosmo_sigma_profile": { 
			"-0.025": 0.0,
			"-0.024": 0.0,
			"-0.023": 0.0,
			"-0.022": 0.0,
			"-0.021": 0.0,
			"-0.02": 0.122746200125,
			"-0.019": 0.784557888247,
			"-0.018": 1.37429254103,
			"-0.017": 0.509531663485,
			"-0.016": 1.27766209214,
			"-0.015": 0.89056955341,
			"-0.014": 1.59907239678,
			"-0.013": 1.8646666043,
			"-0.012": 2.9817756957,
			"-0.011": 6.76285742697,
			"-0.01": 6.50298815449,
			"-0.009": 6.47305205449,
			"-0.008": 8.62159827608,
			"-0.007": 11.6831872497,
			"-0.006": 11.4608458139,
			"-0.005": 12.1097217149,
			"-0.004": 12.0942845353,
			"-0.003": 13.1270430187,
			"-0.002": 13.8123245573,
			"-0.001": 16.4345669227,
			"0.0": 15.6113247055,
			"0.001": 19.4124249624,
			"0.002": 23.6022246463,
			"0.003": 26.475941869,
			"0.004": 18.566288407,
			"0.005": 14.603801948,
			"0.006": 5.81765242559,
			"0.007": 6.27808033254,
			"0.008": 7.0731163525,
			"0.009": 9.61782664859,
			"0.01": 12.5294171623,
			"0.011": 8.36864244581,
			"0.012": 2.5610726444,
			"0.013": 0.389929330414,
			"0.014": 0.0,
			"0.015": 0.0,
			"0.016": 0.0,
			"0.017": 0.0,
			"0.018": 0.0,
			"0.019": 0.0,
			"0.02": 0.0,
			"0.021": 0.0,
			"0.022": 0.0,
			"0.023": 0.0,
			"0.024": 0.0,
			"0.025": 0.0
		}
	}
}
