{
	 "smiles": "ClC1=CC=C2C(CC3=C2C=CC(Cl)=C3)=C1", 
	 "Tm": 401.15, 
	 "num_atms": 23, 
	 "gaussian": { 
		 "optdone": 1, 
		 "sigma_profile": "yes", 
		 "theory": "DFT", 
		 "functional": "B3LYP", 
		 "basiset": "6-31G**", 
		 "properties": { 
			 "R2extent": 5623.4887, 
			 "electric_dipole_moment_norm": 0.180198113198, 
			 "electric_quadrupole_moment_norm": 17.8112783317, 
			 "total_energy": -1420.61019637, 
			 "HOMO_LUMO_gap": 0.17505, 
			 "cosmo_polarized_energy": -6.43, 
			 "cosmo_cavitation_energy": 30.63, 
			 "cosmo_dispersion_energy": -22.94, 
			 "cosmo_repulsion_energy": 1.77, 
			 "cosmo_total_nonelectrostatic_energy": 9.45, 
			 "SMD_solvation_energy": 3.83 
		},
		"coords": [
			{
				"x": 2.3732557095,
				"y": 0.9262769285,
				"z": 4.0401167311,
				"element": "Cl" 
			},
			{
				"x": 1.3717097159,
				"y": 0.6695494059,
				"z": 2.6169048955,
				"element": "C" 
			},
			{
				"x": 0.1543414045,
				"y": 1.3481470528,
				"z": 2.5116864853,
				"element": "C" 
			},
			{
				"x": -0.649414931,
				"y": 1.1532962863,
				"z": 1.3877689351,
				"element": "C" 
			},
			{
				"x": -0.2219331816,
				"y": 0.2808335789,
				"z": 0.3845932203,
				"element": "C" 
			},
			{
				"x": 1.0100924103,
				"y": -0.3951280569,
				"z": 0.5088141889,
				"element": "C" 
			},
			{
				"x": 1.2453102249,
				"y": -1.2765134293,
				"z": -0.7012989947,
				"element": "C" 
			},
			{
				"x": 0.0055536169,
				"y": -1.0297024359,
				"z": -1.5371584556,
				"element": "C" 
			},
			{
				"x": -0.8450159773,
				"y": -0.1127652972,
				"z": -0.8844634057,
				"element": "C" 
			},
			{
				"x": -2.0537025789,
				"y": 0.2662327501,
				"z": -1.4724586075,
				"element": "C" 
			},
			{
				"x": -2.4093726946,
				"y": -0.271300361,
				"z": -2.7100895111,
				"element": "C" 
			},
			{
				"x": -1.5536208659,
				"y": -1.1783276771,
				"z": -3.3413900745,
				"element": "C" 
			},
			{
				"x": -2.0166761299,
				"y": -1.8468001931,
				"z": -4.9012658708,
				"element": "Cl" 
			},
			{
				"x": -0.339737525,
				"y": -1.5703558089,
				"z": -2.7695182554,
				"element": "C" 
			},
			{
				"x": 1.8173375489,
				"y": -0.207754693,
				"z": 1.6239423111,
				"element": "C" 
			},
			{
				"x": -0.1556286635,
				"y": 2.020309894,
				"z": 3.3039691613,
				"element": "H" 
			},
			{
				"x": -1.5954218871,
				"y": 1.6806872438,
				"z": 1.3060883008,
				"element": "H" 
			},
			{
				"x": 1.3503541755,
				"y": -2.3338403291,
				"z": -0.4249248679,
				"element": "H" 
			},
			{
				"x": 2.1632363238,
				"y": -1.0016724094,
				"z": -1.2372362722,
				"element": "H" 
			},
			{
				"x": -2.7187854074,
				"y": 0.9710819017,
				"z": -0.9819517363,
				"element": "H" 
			},
			{
				"x": -3.342425119,
				"y": 0.0073028304,
				"z": -3.1869433742,
				"element": "H" 
			},
			{
				"x": 0.3030648935,
				"y": -2.2766077278,
				"z": -3.2846075449,
				"element": "H" 
			},
			{
				"x": 2.7674789374,
				"y": -0.7198494538,
				"z": 1.7348227414,
				"element": "H" 
			}
		],
		 "valence_orbital": [ 
			{
				"type": "occ",
				"energy": -0.31281,
				"method": "rhf"
			},
			{
				"type": "occ",
				"energy": -0.27349,
				"method": "rhf"
			},
			{
				"type": "occ",
				"energy": -0.26786,
				"method": "rhf"
			},
			{
				"type": "occ",
				"energy": -0.25983,
				"method": "rhf"
			},
			{
				"type": "occ",
				"energy": -0.2207,
				"method": "rhf"
			},
			{
				"type": "unocc",
				"energy": -0.04565,
				"method": "rhf"
			},
			{
				"type": "unocc",
				"energy": -0.02775,
				"method": "rhf"
			},
			{
				"type": "unocc",
				"energy": -0.0082,
				"method": "rhf"
			},
			{
				"type": "unocc",
				"energy": 0.02295,
				"method": "rhf"
			},
			{
				"type": "unocc",
				"energy": 0.02599,
				"method": "rhf"
			}
		],
		"cosmo_sigma_profile": { 
			"-0.025": 0.0,
			"-0.024": 0.0,
			"-0.023": 0.0,
			"-0.022": 0.0,
			"-0.021": 0.0,
			"-0.02": 0.0,
			"-0.019": 0.0,
			"-0.018": 0.0,
			"-0.017": 0.0,
			"-0.016": 0.0,
			"-0.015": 0.0,
			"-0.014": 0.0,
			"-0.013": 0.0,
			"-0.012": 0.0,
			"-0.011": 0.0,
			"-0.01": 0.0,
			"-0.009": 0.0,
			"-0.008": 0.208778981022,
			"-0.007": 9.54673778316,
			"-0.006": 15.8255698606,
			"-0.005": 16.5028693093,
			"-0.004": 17.1620577641,
			"-0.003": 14.8152659803,
			"-0.002": 12.7974440336,
			"-0.001": 14.4460841539,
			"0.0": 15.33630036,
			"0.001": 21.4235967493,
			"0.002": 30.0675853193,
			"0.003": 34.3242951173,
			"0.004": 31.6134389042,
			"0.005": 16.5317585822,
			"0.006": 0.451812080695,
			"0.007": 0.0,
			"0.008": 0.0,
			"0.009": 0.0,
			"0.01": 0.0,
			"0.011": 0.0,
			"0.012": 0.0,
			"0.013": 0.0,
			"0.014": 0.0,
			"0.015": 0.0,
			"0.016": 0.0,
			"0.017": 0.0,
			"0.018": 0.0,
			"0.019": 0.0,
			"0.02": 0.0,
			"0.021": 0.0,
			"0.022": 0.0,
			"0.023": 0.0,
			"0.024": 0.0,
			"0.025": 0.0
		}
	}
}
