{
	 "smiles": "COC1=CC2=C(C=C1OC)C13CCN4CC5=CCOC6CC(=O)N2C1C6C5CC34", 
	 "Tm": 451.15, 
	 "num_atms": 55, 
	 "gaussian": { 
		 "optdone": 1, 
		 "sigma_profile": "yes", 
		 "theory": "DFT", 
		 "functional": "B3LYP", 
		 "basiset": "6-31G**", 
		 "properties": { 
			 "R2extent": 11446.7811, 
			 "electric_dipole_moment_norm": 2.01460269284, 
			 "electric_quadrupole_moment_norm": 18.464024609, 
			 "total_energy": -1302.40690412, 
			 "HOMO_LUMO_gap": 0.18701, 
			 "cosmo_polarized_energy": -16.06, 
			 "cosmo_cavitation_energy": 49.74, 
			 "cosmo_dispersion_energy": -35.68, 
			 "cosmo_repulsion_energy": 2.6, 
			 "cosmo_total_nonelectrostatic_energy": 16.66, 
			 "SMD_solvation_energy": 6.38 
		},
		"coords": [
			{
				"x": 4.8248639319,
				"y": 2.0610267062,
				"z": -3.0813457483,
				"element": "C" 
			},
			{
				"x": 4.7613299453,
				"y": 0.680347159,
				"z": -2.7525740222,
				"element": "O" 
			},
			{
				"x": 3.6482787833,
				"y": 0.2246606449,
				"z": -2.1075244407,
				"element": "C" 
			},
			{
				"x": 2.5496637263,
				"y": 1.0331435295,
				"z": -1.7856132433,
				"element": "C" 
			},
			{
				"x": 1.4790071134,
				"y": 0.4466914809,
				"z": -1.1172772282,
				"element": "C" 
			},
			{
				"x": 1.4684958806,
				"y": -0.9227240952,
				"z": -0.7488820107,
				"element": "C" 
			},
			{
				"x": 2.5723045983,
				"y": -1.7042916118,
				"z": -1.0740608194,
				"element": "C" 
			},
			{
				"x": 3.6532765377,
				"y": -1.1484938196,
				"z": -1.7634776179,
				"element": "C" 
			},
			{
				"x": 4.7436562936,
				"y": -1.9447562074,
				"z": -2.02476883,
				"element": "O" 
			},
			{
				"x": 4.9785160874,
				"y": -2.2437239426,
				"z": -3.4021968159,
				"element": "C" 
			},
			{
				"x": 0.240125046,
				"y": -1.1680657023,
				"z": 0.1388896171,
				"element": "C" 
			},
			{
				"x": 0.6899828789,
				"y": -0.9396516518,
				"z": 1.6167119452,
				"element": "C" 
			},
			{
				"x": -0.3413854093,
				"y": -1.6083157573,
				"z": 2.542872325,
				"element": "C" 
			},
			{
				"x": -1.1498657132,
				"y": -2.4939399247,
				"z": 1.6988038781,
				"element": "N" 
			},
			{
				"x": -2.606333652,
				"y": -2.5130580181,
				"z": 2.004686445,
				"element": "C" 
			},
			{
				"x": -3.3509624025,
				"y": -1.338519917,
				"z": 1.3637265575,
				"element": "C" 
			},
			{
				"x": -4.1234089085,
				"y": -0.4072723336,
				"z": 1.9402771855,
				"element": "C" 
			},
			{
				"x": -4.5248086145,
				"y": 0.9505927037,
				"z": 1.3391683205,
				"element": "C" 
			},
			{
				"x": -3.9054327779,
				"y": 1.4183742274,
				"z": 0.1245869607,
				"element": "O" 
			},
			{
				"x": -2.4838515678,
				"y": 1.5490805667,
				"z": 0.1948868241,
				"element": "C" 
			},
			{
				"x": -1.8964135862,
				"y": 2.2714924851,
				"z": -1.0357952898,
				"element": "C" 
			},
			{
				"x": -0.3393331989,
				"y": 2.2437898067,
				"z": -1.1504259418,
				"element": "C" 
			},
			{
				"x": 0.2885339789,
				"y": 3.184115519,
				"z": -1.6150849484,
				"element": "O" 
			},
			{
				"x": 0.2511320705,
				"y": 1.063418729,
				"z": -0.7318233853,
				"element": "N" 
			},
			{
				"x": -0.6222052411,
				"y": -0.0625121088,
				"z": -0.4816551146,
				"element": "C" 
			},
			{
				"x": -1.8357639828,
				"y": 0.1653733449,
				"z": 0.3357165908,
				"element": "C" 
			},
			{
				"x": -2.7738342511,
				"y": -1.0342094582,
				"z": 0.0045049865,
				"element": "C" 
			},
			{
				"x": -1.9986334754,
				"y": -2.2519687546,
				"z": -0.5662497644,
				"element": "C" 
			},
			{
				"x": -0.7199349979,
				"y": -2.4344451479,
				"z": 0.2668462568,
				"element": "C" 
			},
			{
				"x": 5.7937422756,
				"y": 2.2100276875,
				"z": -3.5602805812,
				"element": "H" 
			},
			{
				"x": 4.7618797382,
				"y": 2.6908812697,
				"z": -2.1855771971,
				"element": "H" 
			},
			{
				"x": 4.0272853005,
				"y": 2.3494277981,
				"z": -3.7774614249,
				"element": "H" 
			},
			{
				"x": 2.5012415241,
				"y": 2.0823614562,
				"z": -2.0421226283,
				"element": "H" 
			},
			{
				"x": 2.6303465312,
				"y": -2.7542449901,
				"z": -0.8029723294,
				"element": "H" 
			},
			{
				"x": 4.1142255657,
				"y": -2.7560673569,
				"z": -3.8456863313,
				"element": "H" 
			},
			{
				"x": 5.8418769194,
				"y": -2.9123659178,
				"z": -3.4257697193,
				"element": "H" 
			},
			{
				"x": 5.2013293716,
				"y": -1.3402353901,
				"z": -3.9774850738,
				"element": "H" 
			},
			{
				"x": 0.8266400389,
				"y": 0.124030095,
				"z": 1.8353866957,
				"element": "H" 
			},
			{
				"x": 1.6691814595,
				"y": -1.4115589098,
				"z": 1.7365040606,
				"element": "H" 
			},
			{
				"x": 0.1604642079,
				"y": -2.1736768628,
				"z": 3.3412623281,
				"element": "H" 
			},
			{
				"x": -0.9722746727,
				"y": -0.8600766577,
				"z": 3.0453782285,
				"element": "H" 
			},
			{
				"x": -2.7135485264,
				"y": -2.5118220853,
				"z": 3.0929791668,
				"element": "H" 
			},
			{
				"x": -3.0221343086,
				"y": -3.4674858588,
				"z": 1.6582667201,
				"element": "H" 
			},
			{
				"x": -4.4576268624,
				"y": -0.5281574821,
				"z": 2.9715343842,
				"element": "H" 
			},
			{
				"x": -4.3606560522,
				"y": 1.7034654415,
				"z": 2.1300409522,
				"element": "H" 
			},
			{
				"x": -5.5983148615,
				"y": 0.9665423646,
				"z": 1.1140854528,
				"element": "H" 
			},
			{
				"x": -2.2341661361,
				"y": 2.1493459542,
				"z": 1.0840023293,
				"element": "H" 
			},
			{
				"x": -2.2852889642,
				"y": 1.7897153977,
				"z": -1.9445386017,
				"element": "H" 
			},
			{
				"x": -2.194137618,
				"y": 3.3208016096,
				"z": -1.0758569586,
				"element": "H" 
			},
			{
				"x": -0.9148175544,
				"y": -0.4235047834,
				"z": -1.4776897453,
				"element": "H" 
			},
			{
				"x": -1.5470394879,
				"y": 0.0877338469,
				"z": 1.379115872,
				"element": "H" 
			},
			{
				"x": -3.5437852489,
				"y": -0.7166783331,
				"z": -0.7011325887,
				"element": "H" 
			},
			{
				"x": -2.6244276493,
				"y": -3.1476139639,
				"z": -0.4975652539,
				"element": "H" 
			},
			{
				"x": -1.7713669236,
				"y": -2.1383567403,
				"z": -1.6294242195,
				"element": "H" 
			},
			{
				"x": -0.1893271592,
				"y": -3.356846041,
				"z": -0.0085162091,
				"element": "H" 
			}
		],
		 "valence_orbital": [ 
			{
				"type": "occ",
				"energy": -0.25095,
				"method": "rhf"
			},
			{
				"type": "occ",
				"energy": -0.23499,
				"method": "rhf"
			},
			{
				"type": "occ",
				"energy": -0.23064,
				"method": "rhf"
			},
			{
				"type": "occ",
				"energy": -0.20362,
				"method": "rhf"
			},
			{
				"type": "occ",
				"energy": -0.19646,
				"method": "rhf"
			},
			{
				"type": "unocc",
				"energy": -0.00945,
				"method": "rhf"
			},
			{
				"type": "unocc",
				"energy": 0.00498,
				"method": "rhf"
			},
			{
				"type": "unocc",
				"energy": 0.01007,
				"method": "rhf"
			},
			{
				"type": "unocc",
				"energy": 0.03761,
				"method": "rhf"
			},
			{
				"type": "unocc",
				"energy": 0.07095,
				"method": "rhf"
			}
		],
		"cosmo_sigma_profile": { 
			"-0.025": 0.0,
			"-0.024": 0.0,
			"-0.023": 0.0,
			"-0.022": 0.0,
			"-0.021": 0.0,
			"-0.02": 0.0,
			"-0.019": 0.0,
			"-0.018": 0.0,
			"-0.017": 0.0,
			"-0.016": 0.0,
			"-0.015": 0.0,
			"-0.014": 0.0,
			"-0.013": 0.0,
			"-0.012": 0.0,
			"-0.011": 0.0,
			"-0.01": 0.0,
			"-0.009": 0.0,
			"-0.008": 0.0809829455612,
			"-0.007": 2.26451659855,
			"-0.006": 10.8115473087,
			"-0.005": 28.661880636,
			"-0.004": 47.5037761076,
			"-0.003": 54.4582892281,
			"-0.002": 44.9211019987,
			"-0.001": 37.9189413474,
			"0.0": 30.4936860123,
			"0.001": 17.6846038674,
			"0.002": 16.7698147103,
			"0.003": 20.1830792626,
			"0.004": 19.3550390451,
			"0.005": 9.18142844639,
			"0.006": 7.77909751303,
			"0.007": 6.03313186168,
			"0.008": 4.91416591963,
			"0.009": 5.48229000613,
			"0.01": 5.25020099016,
			"0.011": 6.08387593617,
			"0.012": 6.77492192248,
			"0.013": 4.61231612891,
			"0.014": 1.99453808673,
			"0.015": 0.326956790086,
			"0.016": 0.0156769021253,
			"0.017": 0.0,
			"0.018": 0.0,
			"0.019": 0.0,
			"0.02": 0.0,
			"0.021": 0.0,
			"0.022": 0.0,
			"0.023": 0.0,
			"0.024": 0.0,
			"0.025": 0.0
		}
	}
}
