{
	 "smiles": "ClC1=CC(Cl)=C(N=C1)C#N", 
	 "Tm": 374.15, 
	 "num_atms": 12, 
	 "gaussian": { 
		 "optdone": 1, 
		 "sigma_profile": "yes", 
		 "theory": "DFT", 
		 "functional": "B3LYP", 
		 "basiset": "6-31G**", 
		 "properties": { 
			 "R2extent": 2352.7609, 
			 "electric_dipole_moment_norm": 4.40786640111, 
			 "electric_quadrupole_moment_norm": 9.86466003266, 
			 "total_energy": -1259.69444595, 
			 "HOMO_LUMO_gap": 0.1938, 
			 "cosmo_polarized_energy": -9.07, 
			 "cosmo_cavitation_energy": 21.93, 
			 "cosmo_dispersion_energy": -15.94, 
			 "cosmo_repulsion_energy": 1.3, 
			 "cosmo_total_nonelectrostatic_energy": 7.29, 
			 "SMD_solvation_energy": 3.27 
		},
		"coords": [
			{
				"x": 3.583904286,
				"y": -0.1739893882,
				"z": 1.6492272873,
				"element": "Cl" 
			},
			{
				"x": 1.9227637134,
				"y": -0.0952691603,
				"z": 1.1302369279,
				"element": "C" 
			},
			{
				"x": 1.2091902424,
				"y": -1.2629449825,
				"z": 0.8791971215,
				"element": "C" 
			},
			{
				"x": -0.1163593743,
				"y": -1.1405765217,
				"z": 0.4664542362,
				"element": "C" 
			},
			{
				"x": -1.0521115179,
				"y": -2.5689194174,
				"z": 0.1396927769,
				"element": "Cl" 
			},
			{
				"x": -0.6714526863,
				"y": 0.1448688002,
				"z": 0.3224686337,
				"element": "C" 
			},
			{
				"x": 0.0354668929,
				"y": 1.2592347764,
				"z": 0.570166575,
				"element": "N" 
			},
			{
				"x": 1.2993555998,
				"y": 1.1484447004,
				"z": 0.9638522192,
				"element": "C" 
			},
			{
				"x": -2.035519182,
				"y": 0.3270152671,
				"z": -0.1009314662,
				"element": "C" 
			},
			{
				"x": -3.1354919059,
				"y": 0.4796051217,
				"z": -0.44222724,
				"element": "N" 
			},
			{
				"x": 1.6644879903,
				"y": -2.2386564848,
				"z": 0.9991347771,
				"element": "H" 
			},
			{
				"x": 1.8436659416,
				"y": 2.0687872891,
				"z": 1.1560281515,
				"element": "H" 
			}
		],
		 "valence_orbital": [ 
			{
				"type": "occ",
				"energy": -0.35046,
				"method": "rhf"
			},
			{
				"type": "occ",
				"energy": -0.34231,
				"method": "rhf"
			},
			{
				"type": "occ",
				"energy": -0.31202,
				"method": "rhf"
			},
			{
				"type": "occ",
				"energy": -0.30474,
				"method": "rhf"
			},
			{
				"type": "occ",
				"energy": -0.28192,
				"method": "rhf"
			},
			{
				"type": "unocc",
				"energy": -0.08812,
				"method": "rhf"
			},
			{
				"type": "unocc",
				"energy": -0.06798,
				"method": "rhf"
			},
			{
				"type": "unocc",
				"energy": -0.01811,
				"method": "rhf"
			},
			{
				"type": "unocc",
				"energy": 0.01714,
				"method": "rhf"
			},
			{
				"type": "unocc",
				"energy": 0.02244,
				"method": "rhf"
			}
		],
		"cosmo_sigma_profile": { 
			"-0.025": 0.0,
			"-0.024": 0.0,
			"-0.023": 0.0,
			"-0.022": 0.0,
			"-0.021": 0.0,
			"-0.02": 0.0,
			"-0.019": 0.0,
			"-0.018": 0.0,
			"-0.017": 0.0,
			"-0.016": 0.0,
			"-0.015": 0.0,
			"-0.014": 0.0,
			"-0.013": 0.0,
			"-0.012": 0.0,
			"-0.011": 0.779603150233,
			"-0.01": 1.94487692691,
			"-0.009": 3.47672016515,
			"-0.008": 3.09500837425,
			"-0.007": 4.25183064786,
			"-0.006": 3.82417133681,
			"-0.005": 8.78736496498,
			"-0.004": 15.2049343797,
			"-0.003": 21.77906767,
			"-0.002": 14.5399448374,
			"-0.001": 11.663774807,
			"0.0": 12.2414906999,
			"0.001": 12.8075258342,
			"0.002": 22.6340330756,
			"0.003": 13.5078396547,
			"0.004": 4.60561671386,
			"0.005": 4.03270358611,
			"0.006": 4.73091097522,
			"0.007": 3.77809370748,
			"0.008": 4.29460489754,
			"0.009": 3.39370486554,
			"0.01": 3.67356196929,
			"0.011": 3.05836317273,
			"0.012": 1.44554950647,
			"0.013": 0.0,
			"0.014": 0.0,
			"0.015": 0.0,
			"0.016": 0.0,
			"0.017": 0.0,
			"0.018": 0.0,
			"0.019": 0.0,
			"0.02": 0.0,
			"0.021": 0.0,
			"0.022": 0.0,
			"0.023": 0.0,
			"0.024": 0.0,
			"0.025": 0.0
		}
	}
}
