{
	 "smiles": "COC(=O)C1=CC=CC(C=O)=C1", 
	 "Tm": 331.15, 
	 "num_atms": 20, 
	 "gaussian": { 
		 "optdone": 1, 
		 "sigma_profile": "yes", 
		 "theory": "DFT", 
		 "functional": "B3LYP", 
		 "basiset": "6-31G**", 
		 "properties": { 
			 "R2extent": 3329.3495, 
			 "electric_dipole_moment_norm": 4.81296779752, 
			 "electric_quadrupole_moment_norm": 18.1886956619, 
			 "total_energy": -573.45191582, 
			 "HOMO_LUMO_gap": 0.18846, 
			 "cosmo_polarized_energy": -11.71, 
			 "cosmo_cavitation_energy": 25.4, 
			 "cosmo_dispersion_energy": -18.35, 
			 "cosmo_repulsion_energy": 1.46, 
			 "cosmo_total_nonelectrostatic_energy": 8.51, 
			 "SMD_solvation_energy": 7.1 
		},
		"coords": [
			{
				"x": -2.6056294691,
				"y": 1.6524918218,
				"z": -1.2819416431,
				"element": "C" 
			},
			{
				"x": -1.346521284,
				"y": 0.9752616306,
				"z": -1.4244992987,
				"element": "O" 
			},
			{
				"x": -1.3124086073,
				"y": -0.2838948481,
				"z": -0.9328258116,
				"element": "C" 
			},
			{
				"x": -2.2658838793,
				"y": -0.8200662685,
				"z": -0.405660398,
				"element": "O" 
			},
			{
				"x": 0.0232552047,
				"y": -0.9275809912,
				"z": -1.1135679833,
				"element": "C" 
			},
			{
				"x": 1.0978318833,
				"y": -0.2652255109,
				"z": -1.7306719148,
				"element": "C" 
			},
			{
				"x": 2.3269701174,
				"y": -0.9069111964,
				"z": -1.8773107346,
				"element": "C" 
			},
			{
				"x": 2.489390749,
				"y": -2.2107396613,
				"z": -1.4095157663,
				"element": "C" 
			},
			{
				"x": 1.4220610625,
				"y": -2.8777040729,
				"z": -0.7929687923,
				"element": "C" 
			},
			{
				"x": 1.6047742896,
				"y": -4.2641599015,
				"z": -0.2988483418,
				"element": "C" 
			},
			{
				"x": 0.7412596569,
				"y": -4.9219939535,
				"z": 0.2469916073,
				"element": "O" 
			},
			{
				"x": 0.1883686875,
				"y": -2.2323989314,
				"z": -0.6462698259,
				"element": "C" 
			},
			{
				"x": -3.3956393956,
				"y": 1.1087736693,
				"z": -1.8058180136,
				"element": "H" 
			},
			{
				"x": -2.8779533197,
				"y": 1.7389402138,
				"z": -0.2271658237,
				"element": "H" 
			},
			{
				"x": -2.4606222241,
				"y": 2.6384287072,
				"z": -1.7230678023,
				"element": "H" 
			},
			{
				"x": 0.9607880069,
				"y": 0.7479568752,
				"z": -2.0906642044,
				"element": "H" 
			},
			{
				"x": 3.1539720299,
				"y": -0.3905578267,
				"z": -2.3548483516,
				"element": "H" 
			},
			{
				"x": 3.4452206108,
				"y": -2.7179655686,
				"z": -1.5202470275,
				"element": "H" 
			},
			{
				"x": 2.6228798855,
				"y": -4.6824174511,
				"z": -0.465568594,
				"element": "H" 
			},
			{
				"x": -0.6377140049,
				"y": -2.7485367356,
				"z": -0.1691312798,
				"element": "H" 
			}
		],
		 "valence_orbital": [ 
			{
				"type": "occ",
				"energy": -0.30869,
				"method": "rhf"
			},
			{
				"type": "occ",
				"energy": -0.28097,
				"method": "rhf"
			},
			{
				"type": "occ",
				"energy": -0.27516,
				"method": "rhf"
			},
			{
				"type": "occ",
				"energy": -0.27196,
				"method": "rhf"
			},
			{
				"type": "occ",
				"energy": -0.25949,
				"method": "rhf"
			},
			{
				"type": "unocc",
				"energy": -0.07103,
				"method": "rhf"
			},
			{
				"type": "unocc",
				"energy": -0.05221,
				"method": "rhf"
			},
			{
				"type": "unocc",
				"energy": 0.01705,
				"method": "rhf"
			},
			{
				"type": "unocc",
				"energy": 0.06523,
				"method": "rhf"
			},
			{
				"type": "unocc",
				"energy": 0.08841,
				"method": "rhf"
			}
		],
		"cosmo_sigma_profile": { 
			"-0.025": 0.0,
			"-0.024": 0.0,
			"-0.023": 0.0,
			"-0.022": 0.0,
			"-0.021": 0.0,
			"-0.02": 0.0,
			"-0.019": 0.0,
			"-0.018": 0.0,
			"-0.017": 0.0,
			"-0.016": 0.0,
			"-0.015": 0.0,
			"-0.014": 0.0,
			"-0.013": 0.0,
			"-0.012": 0.0,
			"-0.011": 0.0,
			"-0.01": 0.0,
			"-0.009": 0.388581809643,
			"-0.008": 3.46561273372,
			"-0.007": 9.18605452005,
			"-0.006": 14.5974012739,
			"-0.005": 14.5834203932,
			"-0.004": 15.7498639642,
			"-0.003": 18.0663199592,
			"-0.002": 13.8797702737,
			"-0.001": 13.9888403005,
			"0.0": 18.8860072318,
			"0.001": 17.6659898826,
			"0.002": 14.90882875,
			"0.003": 5.77177573324,
			"0.004": 6.06334323009,
			"0.005": 5.08763682943,
			"0.006": 2.55522493711,
			"0.007": 2.97246685379,
			"0.008": 3.3745614483,
			"0.009": 4.14030616481,
			"0.01": 4.75661085763,
			"0.011": 8.02978412609,
			"0.012": 5.10860439631,
			"0.013": 0.307516105772,
			"0.014": 0.0,
			"0.015": 0.0,
			"0.016": 0.0,
			"0.017": 0.0,
			"0.018": 0.0,
			"0.019": 0.0,
			"0.02": 0.0,
			"0.021": 0.0,
			"0.022": 0.0,
			"0.023": 0.0,
			"0.024": 0.0,
			"0.025": 0.0
		}
	}
}
