{
	 "smiles": "CC1=CC(Br)=CC(Br)=C1N", 
	 "Tm": 319.65, 
	 "num_atms": 17, 
	 "gaussian": { 
		 "optdone": 1, 
		 "sigma_profile": "yes", 
		 "theory": "DFT", 
		 "functional": "B3LYP", 
		 "basiset": "6-31G**", 
		 "properties": { 
			 "R2extent": 6236.9238, 
			 "electric_dipole_moment_norm": 3.33542891545, 
			 "electric_quadrupole_moment_norm": 5.71085170881, 
			 "total_energy": -5468.53533037, 
			 "HOMO_LUMO_gap": 0.19384, 
			 "cosmo_polarized_energy": -7.42, 
			 "cosmo_cavitation_energy": 24.94, 
			 "cosmo_dispersion_energy": -19.46, 
			 "cosmo_repulsion_energy": 1.57, 
			 "cosmo_total_nonelectrostatic_energy": 7.06, 
			 "SMD_solvation_energy": 1.9 
		},
		"coords": [
			{
				"x": -0.8368217647,
				"y": -0.1616908522,
				"z": -1.5093867529,
				"element": "C" 
			},
			{
				"x": 0.5644801167,
				"y": 0.0365987742,
				"z": -0.9872002881,
				"element": "C" 
			},
			{
				"x": 1.6566223381,
				"y": 0.0155255411,
				"z": -1.8532672004,
				"element": "C" 
			},
			{
				"x": 2.9507355936,
				"y": 0.2156430166,
				"z": -1.3764789,
				"element": "C" 
			},
			{
				"x": 4.4271156134,
				"y": 0.1836160898,
				"z": -2.5901646758,
				"element": "Br" 
			},
			{
				"x": 3.1789893438,
				"y": 0.439852705,
				"z": -0.0242442496,
				"element": "C" 
			},
			{
				"x": 2.0891878172,
				"y": 0.454778228,
				"z": 0.8412245136,
				"element": "C" 
			},
			{
				"x": 2.4216621254,
				"y": 0.7504959568,
				"z": 2.707583977,
				"element": "Br" 
			},
			{
				"x": 0.7683016903,
				"y": 0.2601378669,
				"z": 0.3984176088,
				"element": "C" 
			},
			{
				"x": -0.3142618905,
				"y": 0.3345465322,
				"z": 1.2607281068,
				"element": "N" 
			},
			{
				"x": -1.3022841979,
				"y": -1.0697950045,
				"z": -1.1007692637,
				"element": "H" 
			},
			{
				"x": -1.4841635634,
				"y": 0.6824954583,
				"z": -1.2424973136,
				"element": "H" 
			},
			{
				"x": -0.8390930943,
				"y": -0.2593152498,
				"z": -2.5972347186,
				"element": "H" 
			},
			{
				"x": 1.4936445829,
				"y": -0.1549822453,
				"z": -2.9118835032,
				"element": "H" 
			},
			{
				"x": 4.1803771997,
				"y": 0.5945927397,
				"z": 0.3560550346,
				"element": "H" 
			},
			{
				"x": -1.1297868982,
				"y": -0.1984272797,
				"z": 0.9981168,
				"element": "H" 
			},
			{
				"x": -0.0888050122,
				"y": 0.2713277228,
				"z": 2.2440008251,
				"element": "H" 
			}
		],
		 "valence_orbital": [ 
			{
				"type": "occ",
				"energy": -0.29788,
				"method": "rhf"
			},
			{
				"type": "occ",
				"energy": -0.28382,
				"method": "rhf"
			},
			{
				"type": "occ",
				"energy": -0.28165,
				"method": "rhf"
			},
			{
				"type": "occ",
				"energy": -0.24876,
				"method": "rhf"
			},
			{
				"type": "occ",
				"energy": -0.20931,
				"method": "rhf"
			},
			{
				"type": "unocc",
				"energy": -0.01547,
				"method": "rhf"
			},
			{
				"type": "unocc",
				"energy": -0.01126,
				"method": "rhf"
			},
			{
				"type": "unocc",
				"energy": -0.00195,
				"method": "rhf"
			},
			{
				"type": "unocc",
				"energy": 0.02938,
				"method": "rhf"
			},
			{
				"type": "unocc",
				"energy": 0.0697,
				"method": "rhf"
			}
		],
		"cosmo_sigma_profile": { 
			"-0.025": 0.0,
			"-0.024": 0.0,
			"-0.023": 0.0,
			"-0.022": 0.0,
			"-0.021": 0.0,
			"-0.02": 0.0,
			"-0.019": 0.0,
			"-0.018": 0.0,
			"-0.017": 0.0,
			"-0.016": 0.0,
			"-0.015": 0.0,
			"-0.014": 0.0,
			"-0.013": 0.431514361647,
			"-0.012": 1.42106538408,
			"-0.011": 1.89229321169,
			"-0.01": 2.64493830587,
			"-0.009": 2.26534481974,
			"-0.008": 2.21701047278,
			"-0.007": 4.60419110048,
			"-0.006": 6.59432436094,
			"-0.005": 8.5808896942,
			"-0.004": 12.7178003294,
			"-0.003": 11.550368181,
			"-0.002": 14.1140861972,
			"-0.001": 15.044086724,
			"0.0": 15.767121854,
			"0.001": 14.4755088924,
			"0.002": 20.2742556979,
			"0.003": 28.5891777558,
			"0.004": 23.386397045,
			"0.005": 13.3045989098,
			"0.006": 1.40124975822,
			"0.007": 0.928850218177,
			"0.008": 0.43600761272,
			"0.009": 0.718597279037,
			"0.01": 0.475600553804,
			"0.011": 0.555488654171,
			"0.012": 0.700132858928,
			"0.013": 0.148349446942,
			"0.014": 0.0,
			"0.015": 0.0,
			"0.016": 0.0,
			"0.017": 0.0,
			"0.018": 0.0,
			"0.019": 0.0,
			"0.02": 0.0,
			"0.021": 0.0,
			"0.022": 0.0,
			"0.023": 0.0,
			"0.024": 0.0,
			"0.025": 0.0
		}
	}
}
