{
	 "smiles": "C1CNCCN(C1)C1=NC(=NS1)C1=CC=CC=C1", 
	 "Tm": 355.65, 
	 "num_atms": 34, 
	 "gaussian": { 
		 "optdone": 1, 
		 "sigma_profile": "yes", 
		 "theory": "DFT", 
		 "functional": "B3LYP", 
		 "basiset": "6-31G**", 
		 "properties": { 
			 "R2extent": 8256.9482, 
			 "electric_dipole_moment_norm": 3.96051784745, 
			 "electric_quadrupole_moment_norm": 15.3048963721, 
			 "total_energy": -1122.21082499, 
			 "HOMO_LUMO_gap": 0.17683, 
			 "cosmo_polarized_energy": -13.12, 
			 "cosmo_cavitation_energy": 36.91, 
			 "cosmo_dispersion_energy": -27.67, 
			 "cosmo_repulsion_energy": 2.07, 
			 "cosmo_total_nonelectrostatic_energy": 11.31, 
			 "SMD_solvation_energy": 0.72 
		},
		"coords": [
			{
				"x": 3.1800813818,
				"y": -1.1138539256,
				"z": 0.7196035602,
				"element": "C" 
			},
			{
				"x": 3.3055357199,
				"y": 0.1316098756,
				"z": 1.6434731199,
				"element": "C" 
			},
			{
				"x": 2.2643502749,
				"y": 0.3341976368,
				"z": 2.6478922744,
				"element": "N" 
			},
			{
				"x": 1.9658154633,
				"y": -0.7818765807,
				"z": 3.5306895797,
				"element": "C" 
			},
			{
				"x": 1.5879121448,
				"y": -2.12157754,
				"z": 2.8223395183,
				"element": "C" 
			},
			{
				"x": 0.941425754,
				"y": -1.9039389088,
				"z": 1.5337825894,
				"element": "N" 
			},
			{
				"x": 1.7425553992,
				"y": -1.494703146,
				"z": 0.3591410129,
				"element": "C" 
			},
			{
				"x": -0.398705878,
				"y": -1.9973676683,
				"z": 1.3799543516,
				"element": "C" 
			},
			{
				"x": -1.0263378482,
				"y": -1.7957423757,
				"z": 0.2421973152,
				"element": "N" 
			},
			{
				"x": -2.3796317045,
				"y": -1.9689261255,
				"z": 0.4260892573,
				"element": "C" 
			},
			{
				"x": -2.848431904,
				"y": -2.2854786036,
				"z": 1.6165762347,
				"element": "N" 
			},
			{
				"x": -1.5419512176,
				"y": -2.3969675244,
				"z": 2.6786300343,
				"element": "S" 
			},
			{
				"x": -3.2989695878,
				"y": -1.7988626776,
				"z": -0.7191356028,
				"element": "C" 
			},
			{
				"x": -2.7947465196,
				"y": -1.4761627464,
				"z": -1.9874845871,
				"element": "C" 
			},
			{
				"x": -3.6611843614,
				"y": -1.3155867562,
				"z": -3.068140185,
				"element": "C" 
			},
			{
				"x": -5.0372845511,
				"y": -1.4748081887,
				"z": -2.8951336878,
				"element": "C" 
			},
			{
				"x": -5.5446203629,
				"y": -1.7966110058,
				"z": -1.6326460598,
				"element": "C" 
			},
			{
				"x": -4.6836024896,
				"y": -1.9581410879,
				"z": -0.5506303667,
				"element": "C" 
			},
			{
				"x": 3.6952488464,
				"y": -1.974296094,
				"z": 1.1597918242,
				"element": "H" 
			},
			{
				"x": 3.707107182,
				"y": -0.9114013789,
				"z": -0.2204876892,
				"element": "H" 
			},
			{
				"x": 3.3158491497,
				"y": 1.0353066842,
				"z": 1.0238956128,
				"element": "H" 
			},
			{
				"x": 4.2783631678,
				"y": 0.0956905812,
				"z": 2.1506338976,
				"element": "H" 
			},
			{
				"x": 1.4082854558,
				"y": 0.6419892033,
				"z": 2.1972545859,
				"element": "H" 
			},
			{
				"x": 1.1360744675,
				"y": -0.4689766803,
				"z": 4.1730427297,
				"element": "H" 
			},
			{
				"x": 2.8250539918,
				"y": -0.9656601726,
				"z": 4.1886443634,
				"element": "H" 
			},
			{
				"x": 0.920301902,
				"y": -2.7134153638,
				"z": 3.4564718794,
				"element": "H" 
			},
			{
				"x": 2.4753303871,
				"y": -2.7415038856,
				"z": 2.6678518035,
				"element": "H" 
			},
			{
				"x": 1.2279658823,
				"y": -0.6541403258,
				"z": -0.1194924146,
				"element": "H" 
			},
			{
				"x": 1.7433264839,
				"y": -2.3110976815,
				"z": -0.3740637937,
				"element": "H" 
			},
			{
				"x": -1.724238782,
				"y": -1.3558861169,
				"z": -2.1099465073,
				"element": "H" 
			},
			{
				"x": -3.2607393282,
				"y": -1.0660927891,
				"z": -4.0468041647,
				"element": "H" 
			},
			{
				"x": -5.7114475653,
				"y": -1.3494220434,
				"z": -3.7378209997,
				"element": "H" 
			},
			{
				"x": -6.6146127686,
				"y": -1.9216915262,
				"z": -1.492350283,
				"element": "H" 
			},
			{
				"x": -5.0664781852,
				"y": -2.2079050619,
				"z": 0.4329807968,
				"element": "H" 
			}
		],
		 "valence_orbital": [ 
			{
				"type": "occ",
				"energy": -0.26601,
				"method": "rhf"
			},
			{
				"type": "occ",
				"energy": -0.24372,
				"method": "rhf"
			},
			{
				"type": "occ",
				"energy": -0.23935,
				"method": "rhf"
			},
			{
				"type": "occ",
				"energy": -0.23094,
				"method": "rhf"
			},
			{
				"type": "occ",
				"energy": -0.20904,
				"method": "rhf"
			},
			{
				"type": "unocc",
				"energy": -0.03221,
				"method": "rhf"
			},
			{
				"type": "unocc",
				"energy": 0.00382,
				"method": "rhf"
			},
			{
				"type": "unocc",
				"energy": 0.00607,
				"method": "rhf"
			},
			{
				"type": "unocc",
				"energy": 0.01905,
				"method": "rhf"
			},
			{
				"type": "unocc",
				"energy": 0.06257,
				"method": "rhf"
			}
		],
		"cosmo_sigma_profile": { 
			"-0.025": 0.0,
			"-0.024": 0.0,
			"-0.023": 0.0,
			"-0.022": 0.0,
			"-0.021": 0.0,
			"-0.02": 0.0,
			"-0.019": 0.0,
			"-0.018": 0.0,
			"-0.017": 0.0,
			"-0.016": 0.0,
			"-0.015": 0.0,
			"-0.014": 0.0,
			"-0.013": 0.0,
			"-0.012": 0.0,
			"-0.011": 0.0,
			"-0.01": 0.28709035312,
			"-0.009": 1.32677965785,
			"-0.008": 1.44367327533,
			"-0.007": 3.07761806241,
			"-0.006": 13.3303225391,
			"-0.005": 18.5031560218,
			"-0.004": 36.9041296956,
			"-0.003": 34.9173486807,
			"-0.002": 23.0982400322,
			"-0.001": 21.8960077761,
			"0.0": 17.8365629012,
			"0.001": 18.7881811359,
			"0.002": 16.3206992199,
			"0.003": 20.0726121747,
			"0.004": 19.8091375613,
			"0.005": 17.5011751924,
			"0.006": 5.99023523796,
			"0.007": 5.64829752461,
			"0.008": 4.34902861502,
			"0.009": 2.86944841091,
			"0.01": 2.68307972097,
			"0.011": 1.90911803478,
			"0.012": 1.62458181879,
			"0.013": 1.62039330263,
			"0.014": 0.415218652851,
			"0.015": 0.919308156757,
			"0.016": 0.348512031127,
			"0.017": 0.505422477836,
			"0.018": 0.290407507167,
			"0.019": 0.0,
			"0.02": 0.0,
			"0.021": 0.0,
			"0.022": 0.0,
			"0.023": 0.0,
			"0.024": 0.0,
			"0.025": 0.0
		}
	}
}
