{
	 "smiles": "BrC1=CC=CC(OC2=NC=CC=C2)=C1", 
	 "Tm": 336.65, 
	 "num_atms": 22, 
	 "gaussian": { 
		 "optdone": 1, 
		 "sigma_profile": "yes", 
		 "theory": "DFT", 
		 "functional": "B3LYP", 
		 "basiset": "6-31G**", 
		 "properties": { 
			 "R2extent": 6172.859, 
			 "electric_dipole_moment_norm": 3.30144603015, 
			 "electric_quadrupole_moment_norm": 10.8635129986, 
			 "total_energy": -3125.36184613, 
			 "HOMO_LUMO_gap": 0.19921, 
			 "cosmo_polarized_energy": -7.44, 
			 "cosmo_cavitation_energy": 29.34, 
			 "cosmo_dispersion_energy": -21.95, 
			 "cosmo_repulsion_energy": 1.73, 
			 "cosmo_total_nonelectrostatic_energy": 9.12, 
			 "SMD_solvation_energy": 3.39 
		},
		"coords": [
			{
				"x": -1.4456101574,
				"y": 3.8586202216,
				"z": 3.0462664867,
				"element": "Br" 
			},
			{
				"x": -0.381067231,
				"y": 2.7043171677,
				"z": 1.9537484927,
				"element": "C" 
			},
			{
				"x": 0.464852802,
				"y": 3.2572362435,
				"z": 0.9955026424,
				"element": "C" 
			},
			{
				"x": 1.2373277157,
				"y": 2.3971885807,
				"z": 0.2111430441,
				"element": "C" 
			},
			{
				"x": 1.1720652384,
				"y": 1.0150655285,
				"z": 0.3762295611,
				"element": "C" 
			},
			{
				"x": 0.3089820435,
				"y": 0.4917030558,
				"z": 1.3408642,
				"element": "C" 
			},
			{
				"x": 0.2546451154,
				"y": -0.8602278761,
				"z": 1.6429506085,
				"element": "O" 
			},
			{
				"x": 0.0620628455,
				"y": -1.8097100473,
				"z": 0.6754437663,
				"element": "C" 
			},
			{
				"x": -0.2671029575,
				"y": -1.4459052608,
				"z": -0.5538472387,
				"element": "N" 
			},
			{
				"x": -0.4724233842,
				"y": -2.4239853622,
				"z": -1.4512435386,
				"element": "C" 
			},
			{
				"x": -0.3604179825,
				"y": -3.7775862614,
				"z": -1.1548214883,
				"element": "C" 
			},
			{
				"x": -0.0107982671,
				"y": -4.1357087176,
				"z": 0.1533848735,
				"element": "C" 
			},
			{
				"x": 0.208886061,
				"y": -3.1411730946,
				"z": 1.0952662088,
				"element": "C" 
			},
			{
				"x": -0.4737241629,
				"y": 1.3267494302,
				"z": 2.1377565826,
				"element": "C" 
			},
			{
				"x": 0.5205934534,
				"y": 4.3316041006,
				"z": 0.8667926662,
				"element": "H" 
			},
			{
				"x": 1.9032917347,
				"y": 2.8148527408,
				"z": -0.537997136,
				"element": "H" 
			},
			{
				"x": 1.7714318638,
				"y": 0.3520099161,
				"z": -0.2346467944,
				"element": "H" 
			},
			{
				"x": -0.7420908996,
				"y": -2.0952019659,
				"z": -2.4529373039,
				"element": "H" 
			},
			{
				"x": -0.5391479449,
				"y": -4.5266454275,
				"z": -1.9184829537,
				"element": "H" 
			},
			{
				"x": 0.0899992108,
				"y": -5.1804794344,
				"z": 0.4325930444,
				"element": "H" 
			},
			{
				"x": 0.4819497351,
				"y": -3.3575798654,
				"z": 2.121600003,
				"element": "H" 
			},
			{
				"x": -1.1311048324,
				"y": 0.8966563278,
				"z": 2.8831342732,
				"element": "H" 
			}
		],
		 "valence_orbital": [ 
			{
				"type": "occ",
				"energy": -0.28439,
				"method": "rhf"
			},
			{
				"type": "occ",
				"energy": -0.27336,
				"method": "rhf"
			},
			{
				"type": "occ",
				"energy": -0.2614,
				"method": "rhf"
			},
			{
				"type": "occ",
				"energy": -0.24478,
				"method": "rhf"
			},
			{
				"type": "occ",
				"energy": -0.22964,
				"method": "rhf"
			},
			{
				"type": "unocc",
				"energy": -0.03043,
				"method": "rhf"
			},
			{
				"type": "unocc",
				"energy": -0.01511,
				"method": "rhf"
			},
			{
				"type": "unocc",
				"energy": -0.01094,
				"method": "rhf"
			},
			{
				"type": "unocc",
				"energy": 0.00322,
				"method": "rhf"
			},
			{
				"type": "unocc",
				"energy": 0.00872,
				"method": "rhf"
			}
		],
		"cosmo_sigma_profile": { 
			"-0.025": 0.0,
			"-0.024": 0.0,
			"-0.023": 0.0,
			"-0.022": 0.0,
			"-0.021": 0.0,
			"-0.02": 0.0,
			"-0.019": 0.0,
			"-0.018": 0.0,
			"-0.017": 0.0,
			"-0.016": 0.0,
			"-0.015": 0.0,
			"-0.014": 0.0,
			"-0.013": 0.0,
			"-0.012": 0.0,
			"-0.011": 0.0,
			"-0.01": 0.0,
			"-0.009": 0.0,
			"-0.008": 0.969405236692,
			"-0.007": 11.402176125,
			"-0.006": 14.4397877276,
			"-0.005": 17.2410582062,
			"-0.004": 14.6475847864,
			"-0.003": 13.6719909399,
			"-0.002": 13.4400729526,
			"-0.001": 11.95741813,
			"0.0": 18.681167148,
			"0.001": 22.3493158438,
			"0.002": 31.6986552633,
			"0.003": 29.3932726741,
			"0.004": 18.8787465622,
			"0.005": 8.67239431982,
			"0.006": 2.47909585342,
			"0.007": 3.16160891768,
			"0.008": 2.02854641908,
			"0.009": 0.860831335586,
			"0.01": 1.08254359629,
			"0.011": 0.933256642397,
			"0.012": 0.706716778,
			"0.013": 0.992291510367,
			"0.014": 0.196871193428,
			"0.015": 0.0,
			"0.016": 0.0,
			"0.017": 0.0,
			"0.018": 0.0,
			"0.019": 0.0,
			"0.02": 0.0,
			"0.021": 0.0,
			"0.022": 0.0,
			"0.023": 0.0,
			"0.024": 0.0,
			"0.025": 0.0
		}
	}
}
