{
	 "smiles": "ClC1=C(Cl)C=C(C=C1)C1=CC=C(C=C1)S(Cl)(=O)=O", 
	 "Tm": 379.15, 
	 "num_atms": 25, 
	 "gaussian": { 
		 "optdone": 1, 
		 "sigma_profile": "yes", 
		 "theory": "DFT", 
		 "functional": "B3LYP", 
		 "basiset": "6-31G**", 
		 "properties": { 
			 "R2extent": 11158.7937, 
			 "electric_dipole_moment_norm": 3.91549136252, 
			 "electric_quadrupole_moment_norm": 31.260260509, 
			 "total_energy": -2390.64374087, 
			 "HOMO_LUMO_gap": 0.1606, 
			 "cosmo_polarized_energy": -12.09, 
			 "cosmo_cavitation_energy": 37.29, 
			 "cosmo_dispersion_energy": -27.69, 
			 "cosmo_repulsion_energy": 2.09, 
			 "cosmo_total_nonelectrostatic_energy": 11.68, 
			 "SMD_solvation_energy": 4.22 
		},
		"coords": [
			{
				"x": -1.3722878933,
				"y": -6.0792630529,
				"z": -0.1298689934,
				"element": "Cl" 
			},
			{
				"x": -1.1327868016,
				"y": -4.3605897192,
				"z": 0.0303928452,
				"element": "C" 
			},
			{
				"x": -2.2109581102,
				"y": -3.4790473568,
				"z": 0.191031465,
				"element": "C" 
			},
			{
				"x": -3.8585821965,
				"y": -4.0528288535,
				"z": 0.2262688409,
				"element": "Cl" 
			},
			{
				"x": -1.9777187083,
				"y": -2.1098383125,
				"z": 0.3172960273,
				"element": "C" 
			},
			{
				"x": -0.6757761509,
				"y": -1.5909057668,
				"z": 0.2855553282,
				"element": "C" 
			},
			{
				"x": 0.3943899487,
				"y": -2.4857034065,
				"z": 0.1227610649,
				"element": "C" 
			},
			{
				"x": 0.1680008549,
				"y": -3.8516796074,
				"z": -0.0014023347,
				"element": "C" 
			},
			{
				"x": -0.4423521102,
				"y": -0.1320281956,
				"z": 0.4213572242,
				"element": "C" 
			},
			{
				"x": 0.5686401674,
				"y": 0.5031937417,
				"z": -0.3225316421,
				"element": "C" 
			},
			{
				"x": 0.7975257934,
				"y": 1.8702497966,
				"z": -0.2031803089,
				"element": "C" 
			},
			{
				"x": 0.0008199308,
				"y": 2.6062089874,
				"z": 0.6744107299,
				"element": "C" 
			},
			{
				"x": -1.0104535122,
				"y": 2.0119426062,
				"z": 1.4299601002,
				"element": "C" 
			},
			{
				"x": -1.2225654359,
				"y": 0.6432800613,
				"z": 1.2984986195,
				"element": "C" 
			},
			{
				"x": 0.2976578789,
				"y": 4.3572810902,
				"z": 0.8501137579,
				"element": "S" 
			},
			{
				"x": -0.9955240995,
				"y": 5.1554549227,
				"z": -0.6502189166,
				"element": "Cl" 
			},
			{
				"x": -0.2364745636,
				"y": 4.8121793555,
				"z": 2.1275659578,
				"element": "O" 
			},
			{
				"x": 1.655401107,
				"y": 4.6627271807,
				"z": 0.4170527852,
				"element": "O" 
			},
			{
				"x": -2.8304028384,
				"y": -1.4471419843,
				"z": 0.4122151441,
				"element": "H" 
			},
			{
				"x": 1.4148827959,
				"y": -2.1170551491,
				"z": 0.122487935,
				"element": "H" 
			},
			{
				"x": 0.9984795173,
				"y": -4.5394442961,
				"z": -0.1151225563,
				"element": "H" 
			},
			{
				"x": 1.1664267497,
				"y": -0.0746531102,
				"z": -1.0197684859,
				"element": "H" 
			},
			{
				"x": 1.5763930068,
				"y": 2.3601563238,
				"z": -0.7765601912,
				"element": "H" 
			},
			{
				"x": -1.6004921964,
				"y": 2.6068285171,
				"z": 2.1179855818,
				"element": "H" 
			},
			{
				"x": -1.9836431339,
				"y": 0.1650762275,
				"z": 1.9064000219,
				"element": "H" 
			}
		],
		 "valence_orbital": [ 
			{
				"type": "occ",
				"energy": -0.31559,
				"method": "rhf"
			},
			{
				"type": "occ",
				"energy": -0.3034,
				"method": "rhf"
			},
			{
				"type": "occ",
				"energy": -0.29509,
				"method": "rhf"
			},
			{
				"type": "occ",
				"energy": -0.27735,
				"method": "rhf"
			},
			{
				"type": "occ",
				"energy": -0.25781,
				"method": "rhf"
			},
			{
				"type": "unocc",
				"energy": -0.09721,
				"method": "rhf"
			},
			{
				"type": "unocc",
				"energy": -0.0648,
				"method": "rhf"
			},
			{
				"type": "unocc",
				"energy": -0.04658,
				"method": "rhf"
			},
			{
				"type": "unocc",
				"energy": -0.04139,
				"method": "rhf"
			},
			{
				"type": "unocc",
				"energy": -0.02055,
				"method": "rhf"
			}
		],
		"cosmo_sigma_profile": { 
			"-0.025": 0.0,
			"-0.024": 0.0,
			"-0.023": 0.0,
			"-0.022": 0.0,
			"-0.021": 0.0,
			"-0.02": 0.0,
			"-0.019": 0.0,
			"-0.018": 0.0,
			"-0.017": 0.0,
			"-0.016": 0.0,
			"-0.015": 0.0,
			"-0.014": 0.0,
			"-0.013": 0.0,
			"-0.012": 0.0,
			"-0.011": 0.0,
			"-0.01": 0.0,
			"-0.009": 0.914683998864,
			"-0.008": 11.2297235344,
			"-0.007": 16.1782630599,
			"-0.006": 13.6053929759,
			"-0.005": 11.3292061018,
			"-0.004": 12.8548891946,
			"-0.003": 12.7197095655,
			"-0.002": 16.1637373588,
			"-0.001": 26.5563179822,
			"0.0": 35.8062923595,
			"0.001": 40.9351130954,
			"0.002": 25.184633767,
			"0.003": 28.6671325156,
			"0.004": 25.0394864182,
			"0.005": 6.81950940347,
			"0.006": 3.60055679466,
			"0.007": 5.64888259327,
			"0.008": 9.86646397034,
			"0.009": 4.79406693418,
			"0.01": 0.012169294362,
			"0.011": 0.0,
			"0.012": 0.0,
			"0.013": 0.0,
			"0.014": 0.0,
			"0.015": 0.0,
			"0.016": 0.0,
			"0.017": 0.0,
			"0.018": 0.0,
			"0.019": 0.0,
			"0.02": 0.0,
			"0.021": 0.0,
			"0.022": 0.0,
			"0.023": 0.0,
			"0.024": 0.0,
			"0.025": 0.0
		}
	}
}
