{
	 "smiles": "NC(=S)C1=CC(Cl)=C(Cl)C=C1", 
	 "Tm": 410.15, 
	 "num_atms": 16, 
	 "gaussian": { 
		 "optdone": 1, 
		 "sigma_profile": "yes", 
		 "theory": "DFT", 
		 "functional": "B3LYP", 
		 "basiset": "6-31G**", 
		 "properties": { 
			 "R2extent": 3534.4229, 
			 "electric_dipole_moment_norm": 5.01586790596, 
			 "electric_quadrupole_moment_norm": 16.0997254374, 
			 "total_energy": -1643.08676451, 
			 "HOMO_LUMO_gap": 0.14309, 
			 "cosmo_polarized_energy": -15.18, 
			 "cosmo_cavitation_energy": 25.8, 
			 "cosmo_dispersion_energy": -19.74, 
			 "cosmo_repulsion_energy": 1.55, 
			 "cosmo_total_nonelectrostatic_energy": 7.61, 
			 "SMD_solvation_energy": 3.02 
		},
		"coords": [
			{
				"x": -0.3870724179,
				"y": -1.8729869911,
				"z": 3.097385358,
				"element": "N" 
			},
			{
				"x": 0.0514025334,
				"y": -0.886777771,
				"z": 2.2804619577,
				"element": "C" 
			},
			{
				"x": 0.7924417814,
				"y": 0.4819356957,
				"z": 2.8747097439,
				"element": "S" 
			},
			{
				"x": -0.2152082818,
				"y": -1.1105285817,
				"z": 0.8301888177,
				"element": "C" 
			},
			{
				"x": 0.6507011423,
				"y": -0.5702652686,
				"z": -0.1287205188,
				"element": "C" 
			},
			{
				"x": 0.4272469406,
				"y": -0.7756672537,
				"z": -1.4874557161,
				"element": "C" 
			},
			{
				"x": 1.5537768784,
				"y": -0.0978263051,
				"z": -2.634223871,
				"element": "Cl" 
			},
			{
				"x": -0.6874625383,
				"y": -1.5170625937,
				"z": -1.9109912398,
				"element": "C" 
			},
			{
				"x": -1.0116067954,
				"y": -1.7948210345,
				"z": -3.6004175375,
				"element": "Cl" 
			},
			{
				"x": -1.5656454848,
				"y": -2.0414635747,
				"z": -0.96051552,
				"element": "C" 
			},
			{
				"x": -1.3303820545,
				"y": -1.846526705,
				"z": 0.3964098258,
				"element": "C" 
			},
			{
				"x": -0.6246051048,
				"y": -2.7856365969,
				"z": 2.7372804236,
				"element": "H" 
			},
			{
				"x": -0.2082625054,
				"y": -1.7809060828,
				"z": 4.0869716449,
				"element": "H" 
			},
			{
				"x": 1.5030904581,
				"y": 0.0141798247,
				"z": 0.1968097067,
				"element": "H" 
			},
			{
				"x": -2.4359751029,
				"y": -2.5942012489,
				"z": -1.2960415511,
				"element": "H" 
			},
			{
				"x": -2.0470394483,
				"y": -2.2321455127,
				"z": 1.1143484761,
				"element": "H" 
			}
		],
		 "valence_orbital": [ 
			{
				"type": "occ",
				"energy": -0.31678,
				"method": "rhf"
			},
			{
				"type": "occ",
				"energy": -0.27681,
				"method": "rhf"
			},
			{
				"type": "occ",
				"energy": -0.2642,
				"method": "rhf"
			},
			{
				"type": "occ",
				"energy": -0.24098,
				"method": "rhf"
			},
			{
				"type": "occ",
				"energy": -0.21883,
				"method": "rhf"
			},
			{
				"type": "unocc",
				"energy": -0.07574,
				"method": "rhf"
			},
			{
				"type": "unocc",
				"energy": -0.03664,
				"method": "rhf"
			},
			{
				"type": "unocc",
				"energy": -0.00548,
				"method": "rhf"
			},
			{
				"type": "unocc",
				"energy": 0.00115,
				"method": "rhf"
			},
			{
				"type": "unocc",
				"energy": 0.05365,
				"method": "rhf"
			}
		],
		"cosmo_sigma_profile": { 
			"-0.025": 0.0,
			"-0.024": 0.0,
			"-0.023": 0.0,
			"-0.022": 0.0,
			"-0.021": 0.0,
			"-0.02": 0.0,
			"-0.019": 0.0,
			"-0.018": 0.0,
			"-0.017": 0.0,
			"-0.016": 0.706359782613,
			"-0.015": 2.11650625559,
			"-0.014": 2.42511323518,
			"-0.013": 3.70055105686,
			"-0.012": 2.30366058095,
			"-0.011": 1.87948237817,
			"-0.01": 2.58460554424,
			"-0.009": 2.48160420712,
			"-0.008": 5.49575781619,
			"-0.007": 4.68271524098,
			"-0.006": 5.59716188035,
			"-0.005": 5.08588685245,
			"-0.004": 6.26995038391,
			"-0.003": 8.81831809211,
			"-0.002": 10.5548349584,
			"-0.001": 18.3754335034,
			"0.0": 24.0254113447,
			"0.001": 19.8924583994,
			"0.002": 15.6349817781,
			"0.003": 19.5927508678,
			"0.004": 16.8638499056,
			"0.005": 7.46777167627,
			"0.006": 3.91106994219,
			"0.007": 5.77825425165,
			"0.008": 6.4264021089,
			"0.009": 5.24173884214,
			"0.01": 3.42547578012,
			"0.011": 2.72804414102,
			"0.012": 0.345548162497,
			"0.013": 0.0,
			"0.014": 0.0,
			"0.015": 0.0,
			"0.016": 0.0,
			"0.017": 0.0,
			"0.018": 0.0,
			"0.019": 0.0,
			"0.02": 0.0,
			"0.021": 0.0,
			"0.022": 0.0,
			"0.023": 0.0,
			"0.024": 0.0,
			"0.025": 0.0
		}
	}
}
