{
	 "smiles": "CCCCOC(=O)C(C)OC1=CC=C(OC2=CC=C(C=C2F)C#N)C=C1", 
	 "Tm": 322.65, 
	 "num_atms": 46, 
	 "gaussian": { 
		 "optdone": 1, 
		 "sigma_profile": "yes", 
		 "theory": "DFT", 
		 "functional": "B3LYP", 
		 "basiset": "6-31G**", 
		 "properties": { 
			 "R2extent": 12834.2208, 
			 "electric_dipole_moment_norm": 3.49147614771, 
			 "electric_quadrupole_moment_norm": 38.0264338028, 
			 "total_energy": -1229.64718444, 
			 "HOMO_LUMO_gap": 0.16261, 
			 "cosmo_polarized_energy": -16.05, 
			 "cosmo_cavitation_energy": 52.1, 
			 "cosmo_dispersion_energy": -32.74, 
			 "cosmo_repulsion_energy": 2.5, 
			 "cosmo_total_nonelectrostatic_energy": 21.86, 
			 "SMD_solvation_energy": 11.58 
		},
		"coords": [
			{
				"x": 1.8217259839,
				"y": 2.9868286044,
				"z": -0.6845495148,
				"element": "C" 
			},
			{
				"x": 1.7896892406,
				"y": 2.4283094878,
				"z": 0.7414840883,
				"element": "C" 
			},
			{
				"x": 2.5206910704,
				"y": 1.0856530621,
				"z": 0.8717822933,
				"element": "C" 
			},
			{
				"x": 2.4990995404,
				"y": 0.4991596873,
				"z": 2.2773503224,
				"element": "C" 
			},
			{
				"x": 1.1218884185,
				"y": 0.2485778586,
				"z": 2.665554445,
				"element": "O" 
			},
			{
				"x": 0.7933444399,
				"y": -0.9854136866,
				"z": 3.0741858884,
				"element": "C" 
			},
			{
				"x": 1.5622619462,
				"y": -1.9097438904,
				"z": 3.2348887875,
				"element": "O" 
			},
			{
				"x": -0.7085505545,
				"y": -1.0982681866,
				"z": 3.3774888852,
				"element": "C" 
			},
			{
				"x": -1.0011035952,
				"y": -0.6040729644,
				"z": 4.7929329129,
				"element": "C" 
			},
			{
				"x": -1.5142392287,
				"y": -0.3213708341,
				"z": 2.5004198437,
				"element": "O" 
			},
			{
				"x": -1.5354455944,
				"y": -0.6300434823,
				"z": 1.1659737922,
				"element": "C" 
			},
			{
				"x": -0.9140850152,
				"y": -1.7450631093,
				"z": 0.5897219914,
				"element": "C" 
			},
			{
				"x": -1.0031340528,
				"y": -1.9525052782,
				"z": -0.7893108186,
				"element": "C" 
			},
			{
				"x": -1.7099948458,
				"y": -1.0585785962,
				"z": -1.5835343294,
				"element": "C" 
			},
			{
				"x": -1.8147689647,
				"y": -1.3582945398,
				"z": -2.9431532132,
				"element": "O" 
			},
			{
				"x": -1.7641990098,
				"y": -0.35614204,
				"z": -3.867782339,
				"element": "C" 
			},
			{
				"x": -2.6948159286,
				"y": -0.3634234113,
				"z": -4.9108460766,
				"element": "C" 
			},
			{
				"x": -2.6377522873,
				"y": 0.589634402,
				"z": -5.9225249437,
				"element": "C" 
			},
			{
				"x": -1.642596988,
				"y": 1.5805177912,
				"z": -5.8981144085,
				"element": "C" 
			},
			{
				"x": -0.6970792308,
				"y": 1.5966057508,
				"z": -4.8576484945,
				"element": "C" 
			},
			{
				"x": -0.7628072983,
				"y": 0.6292748253,
				"z": -3.8710596613,
				"element": "C" 
			},
			{
				"x": 0.1619975357,
				"y": 0.6236731114,
				"z": -2.8918500817,
				"element": "F" 
			},
			{
				"x": -1.5834622287,
				"y": 2.5721316873,
				"z": -6.9304358832,
				"element": "C" 
			},
			{
				"x": -1.5385844414,
				"y": 3.3768949488,
				"z": -7.7693857431,
				"element": "N" 
			},
			{
				"x": -2.3490540925,
				"y": 0.0455966305,
				"z": -1.0153429038,
				"element": "C" 
			},
			{
				"x": -2.2546533848,
				"y": 0.2587684057,
				"z": 0.3548604242,
				"element": "C" 
			},
			{
				"x": 2.8511845504,
				"y": 3.1363571716,
				"z": -1.0309244121,
				"element": "H" 
			},
			{
				"x": 1.310142364,
				"y": 3.953254138,
				"z": -0.7419531832,
				"element": "H" 
			},
			{
				"x": 1.3292238301,
				"y": 2.3062806126,
				"z": -1.386783125,
				"element": "H" 
			},
			{
				"x": 2.2425070149,
				"y": 3.1525984232,
				"z": 1.4328753766,
				"element": "H" 
			},
			{
				"x": 0.750769281,
				"y": 2.2997480362,
				"z": 1.0650875557,
				"element": "H" 
			},
			{
				"x": 3.5739253861,
				"y": 1.2042399933,
				"z": 0.581485148,
				"element": "H" 
			},
			{
				"x": 2.0857150181,
				"y": 0.3545229218,
				"z": 0.1785598891,
				"element": "H" 
			},
			{
				"x": 3.0553693637,
				"y": -0.4375892096,
				"z": 2.3435611181,
				"element": "H" 
			},
			{
				"x": 2.9011201455,
				"y": 1.2053558145,
				"z": 3.0120263912,
				"element": "H" 
			},
			{
				"x": -0.9588702688,
				"y": -2.1628605425,
				"z": 3.2947720749,
				"element": "H" 
			},
			{
				"x": -0.7441476703,
				"y": 0.4545238974,
				"z": 4.8815540213,
				"element": "H" 
			},
			{
				"x": -2.0642823315,
				"y": -0.7277734151,
				"z": 5.0132275094,
				"element": "H" 
			},
			{
				"x": -0.4188201688,
				"y": -1.1769002145,
				"z": 5.5194265045,
				"element": "H" 
			},
			{
				"x": -0.3469597363,
				"y": -2.448382075,
				"z": 1.1876177694,
				"element": "H" 
			},
			{
				"x": -0.5193210597,
				"y": -2.8059354669,
				"z": -1.2521766764,
				"element": "H" 
			},
			{
				"x": -3.4574334453,
				"y": -1.1345280795,
				"z": -4.9076564138,
				"element": "H" 
			},
			{
				"x": -3.3640953046,
				"y": 0.5769814643,
				"z": -6.7272483069,
				"element": "H" 
			},
			{
				"x": 0.0908850917,
				"y": 2.339928522,
				"z": -4.8222719792,
				"element": "H" 
			},
			{
				"x": -2.9145678766,
				"y": 0.731931729,
				"z": -1.6373483269,
				"element": "H" 
			},
			{
				"x": -2.7367156177,
				"y": 1.1115400451,
				"z": 0.820863802,
				"element": "H" 
			}
		],
		 "valence_orbital": [ 
			{
				"type": "occ",
				"energy": -0.28086,
				"method": "rhf"
			},
			{
				"type": "occ",
				"energy": -0.27826,
				"method": "rhf"
			},
			{
				"type": "occ",
				"energy": -0.26662,
				"method": "rhf"
			},
			{
				"type": "occ",
				"energy": -0.25792,
				"method": "rhf"
			},
			{
				"type": "occ",
				"energy": -0.21981,
				"method": "rhf"
			},
			{
				"type": "unocc",
				"energy": -0.0572,
				"method": "rhf"
			},
			{
				"type": "unocc",
				"energy": -0.03112,
				"method": "rhf"
			},
			{
				"type": "unocc",
				"energy": -0.01936,
				"method": "rhf"
			},
			{
				"type": "unocc",
				"energy": 0.00214,
				"method": "rhf"
			},
			{
				"type": "unocc",
				"energy": 0.0059,
				"method": "rhf"
			}
		],
		"cosmo_sigma_profile": { 
			"-0.025": 0.0,
			"-0.024": 0.0,
			"-0.023": 0.0,
			"-0.022": 0.0,
			"-0.021": 0.0,
			"-0.02": 0.0,
			"-0.019": 0.0,
			"-0.018": 0.0,
			"-0.017": 0.0,
			"-0.016": 0.0,
			"-0.015": 0.0,
			"-0.014": 0.0,
			"-0.013": 0.0,
			"-0.012": 0.0,
			"-0.011": 0.0,
			"-0.01": 0.344178277245,
			"-0.009": 2.38618373579,
			"-0.008": 6.41881666011,
			"-0.007": 12.625448209,
			"-0.006": 16.0842283136,
			"-0.005": 22.1804028021,
			"-0.004": 29.3267098703,
			"-0.003": 33.5354980231,
			"-0.002": 39.2323790849,
			"-0.001": 44.119818265,
			"0.0": 42.4149947032,
			"0.001": 38.9572344756,
			"0.002": 27.9331012769,
			"0.003": 24.0738185578,
			"0.004": 19.4928373804,
			"0.005": 8.41912677991,
			"0.006": 6.96715164559,
			"0.007": 7.45117305286,
			"0.008": 7.20844653629,
			"0.009": 6.47021202437,
			"0.01": 5.69055440345,
			"0.011": 6.6950710634,
			"0.012": 5.04829030063,
			"0.013": 1.64463756994,
			"0.014": 0.0181085054516,
			"0.015": 0.0,
			"0.016": 0.0,
			"0.017": 0.0,
			"0.018": 0.0,
			"0.019": 0.0,
			"0.02": 0.0,
			"0.021": 0.0,
			"0.022": 0.0,
			"0.023": 0.0,
			"0.024": 0.0,
			"0.025": 0.0
		}
	}
}
