{
	 "smiles": "CCS(=O)(=O)C1=C(N)C=CC(F)=C1", 
	 "Tm": 317.15, 
	 "num_atms": 23, 
	 "gaussian": { 
		 "optdone": 1, 
		 "sigma_profile": "yes", 
		 "theory": "DFT", 
		 "functional": "B3LYP", 
		 "basiset": "6-31G**", 
		 "properties": { 
			 "R2extent": 2654.6523, 
			 "electric_dipole_moment_norm": 4.84856276746, 
			 "electric_quadrupole_moment_norm": 11.6668396762, 
			 "total_energy": -1014.04720182, 
			 "HOMO_LUMO_gap": 0.18032, 
			 "cosmo_polarized_energy": -14.34, 
			 "cosmo_cavitation_energy": 27.75, 
			 "cosmo_dispersion_energy": -20.48, 
			 "cosmo_repulsion_energy": 1.55, 
			 "cosmo_total_nonelectrostatic_energy": 8.82, 
			 "SMD_solvation_energy": 4.69 
		},
		"coords": [
			{
				"x": 0.4158162997,
				"y": -2.1243733181,
				"z": 2.4184109056,
				"element": "C" 
			},
			{
				"x": 1.5779200237,
				"y": -1.3852944851,
				"z": 1.7651513603,
				"element": "C" 
			},
			{
				"x": 1.2046176042,
				"y": 0.354227999,
				"z": 1.378803909,
				"element": "S" 
			},
			{
				"x": 2.4551302834,
				"y": 0.946987074,
				"z": 0.8506075962,
				"element": "O" 
			},
			{
				"x": 0.5348706039,
				"y": 0.9579236522,
				"z": 2.5416654833,
				"element": "O" 
			},
			{
				"x": 0.020954968,
				"y": 0.2662585614,
				"z": 0.0315075776,
				"element": "C" 
			},
			{
				"x": 0.4315681197,
				"y": -0.0937368,
				"z": -1.2741399641,
				"element": "C" 
			},
			{
				"x": 1.7483918172,
				"y": -0.4217101908,
				"z": -1.5683574432,
				"element": "N" 
			},
			{
				"x": -0.5714948262,
				"y": -0.1675824014,
				"z": -2.2613451783,
				"element": "C" 
			},
			{
				"x": -1.9004916651,
				"y": 0.1171663428,
				"z": -1.9714352916,
				"element": "C" 
			},
			{
				"x": -2.2570879968,
				"y": 0.4898379119,
				"z": -0.6780014345,
				"element": "C" 
			},
			{
				"x": -3.5479794548,
				"y": 0.7767297607,
				"z": -0.4045069049,
				"element": "F" 
			},
			{
				"x": -1.3115405606,
				"y": 0.5680099001,
				"z": 0.3300706783,
				"element": "C" 
			},
			{
				"x": 0.105929243,
				"y": -1.6235731374,
				"z": 3.3383058902,
				"element": "H" 
			},
			{
				"x": 0.7247133499,
				"y": -3.1446654348,
				"z": 2.664761227,
				"element": "H" 
			},
			{
				"x": -0.4462682614,
				"y": -2.1864070627,
				"z": 1.7483903635,
				"element": "H" 
			},
			{
				"x": 1.8974457911,
				"y": -1.8344059692,
				"z": 0.8199964835,
				"element": "H" 
			},
			{
				"x": 2.4488632848,
				"y": -1.3142095129,
				"z": 2.4247146081,
				"element": "H" 
			},
			{
				"x": 1.9649070744,
				"y": -0.4506665928,
				"z": -2.5549056279,
				"element": "H" 
			},
			{
				"x": 2.4396031484,
				"y": 0.0780047942,
				"z": -1.0166865707,
				"element": "H" 
			},
			{
				"x": -0.2919173301,
				"y": -0.4455990333,
				"z": -3.2740206629,
				"element": "H" 
			},
			{
				"x": -2.6634725834,
				"y": 0.0638116288,
				"z": -2.740769489,
				"element": "H" 
			},
			{
				"x": -1.5872789331,
				"y": 0.8645663135,
				"z": 1.3354824844,
				"element": "H" 
			}
		],
		 "valence_orbital": [ 
			{
				"type": "occ",
				"energy": -0.31447,
				"method": "rhf"
			},
			{
				"type": "occ",
				"energy": -0.30071,
				"method": "rhf"
			},
			{
				"type": "occ",
				"energy": -0.28836,
				"method": "rhf"
			},
			{
				"type": "occ",
				"energy": -0.27768,
				"method": "rhf"
			},
			{
				"type": "occ",
				"energy": -0.22115,
				"method": "rhf"
			},
			{
				"type": "unocc",
				"energy": -0.04083,
				"method": "rhf"
			},
			{
				"type": "unocc",
				"energy": -0.00374,
				"method": "rhf"
			},
			{
				"type": "unocc",
				"energy": 0.06189,
				"method": "rhf"
			},
			{
				"type": "unocc",
				"energy": 0.07086,
				"method": "rhf"
			},
			{
				"type": "unocc",
				"energy": 0.07601,
				"method": "rhf"
			}
		],
		"cosmo_sigma_profile": { 
			"-0.025": 0.0,
			"-0.024": 0.0,
			"-0.023": 0.0,
			"-0.022": 0.0,
			"-0.021": 0.0,
			"-0.02": 0.0,
			"-0.019": 0.0,
			"-0.018": 0.0,
			"-0.017": 0.0,
			"-0.016": 0.0,
			"-0.015": 0.0,
			"-0.014": 0.276170577545,
			"-0.013": 1.50798870921,
			"-0.012": 1.52135574191,
			"-0.011": 1.92605243134,
			"-0.01": 1.80772276776,
			"-0.009": 2.35926414006,
			"-0.008": 6.15520775515,
			"-0.007": 7.43235139589,
			"-0.006": 9.86910156584,
			"-0.005": 12.1191659915,
			"-0.004": 15.2275497328,
			"-0.003": 16.1715052282,
			"-0.002": 14.9111233019,
			"-0.001": 16.9856932981,
			"0.0": 16.3344401524,
			"0.001": 17.5960776507,
			"0.002": 15.0444111813,
			"0.003": 11.3335938051,
			"0.004": 12.8096624884,
			"0.005": 7.55441391356,
			"0.006": 2.57052282682,
			"0.007": 2.47548592177,
			"0.008": 3.1874999868,
			"0.009": 4.83469291469,
			"0.01": 5.17052216503,
			"0.011": 6.2207578874,
			"0.012": 6.49676881155,
			"0.013": 0.617914018422,
			"0.014": 0.0,
			"0.015": 0.0,
			"0.016": 0.0,
			"0.017": 0.0,
			"0.018": 0.0,
			"0.019": 0.0,
			"0.02": 0.0,
			"0.021": 0.0,
			"0.022": 0.0,
			"0.023": 0.0,
			"0.024": 0.0,
			"0.025": 0.0
		}
	}
}
