{
	 "smiles": "BrC1=C(OCC2=CC=CC=C2)N=C(N=C1)N1CCCCC1", 
	 "Tm": 380.15, 
	 "num_atms": 39, 
	 "gaussian": { 
		 "optdone": 1, 
		 "sigma_profile": "yes", 
		 "theory": "DFT", 
		 "functional": "B3LYP", 
		 "basiset": "6-31G**", 
		 "properties": { 
			 "R2extent": 11515.8741, 
			 "electric_dipole_moment_norm": 3.68006446819, 
			 "electric_quadrupole_moment_norm": 9.219644818, 
			 "total_energy": -3431.44542258, 
			 "HOMO_LUMO_gap": 0.18326, 
			 "cosmo_polarized_energy": -8.98, 
			 "cosmo_cavitation_energy": 43.7, 
			 "cosmo_dispersion_energy": -31.65, 
			 "cosmo_repulsion_energy": 2.44, 
			 "cosmo_total_nonelectrostatic_energy": 14.49, 
			 "SMD_solvation_energy": 3.66 
		},
		"coords": [
			{
				"x": -2.8100034393,
				"y": -0.0004695534,
				"z": 3.7357586117,
				"element": "Br" 
			},
			{
				"x": -1.3537674233,
				"y": -0.547114981,
				"z": 2.6475532455,
				"element": "C" 
			},
			{
				"x": -1.2566393947,
				"y": -0.1968556947,
				"z": 1.286126468,
				"element": "C" 
			},
			{
				"x": -2.22870823,
				"y": 0.5552505583,
				"z": 0.7532191899,
				"element": "O" 
			},
			{
				"x": -2.1419332547,
				"y": 0.8741326107,
				"z": -0.6453048515,
				"element": "C" 
			},
			{
				"x": -3.3555094781,
				"y": 1.6821550662,
				"z": -1.0375670247,
				"element": "C" 
			},
			{
				"x": -3.2807162874,
				"y": 2.5187899009,
				"z": -2.1578668534,
				"element": "C" 
			},
			{
				"x": -4.3985205149,
				"y": 3.2357670099,
				"z": -2.584824889,
				"element": "C" 
			},
			{
				"x": -5.6035929384,
				"y": 3.1315859241,
				"z": -1.8874692108,
				"element": "C" 
			},
			{
				"x": -5.6811770961,
				"y": 2.3063094624,
				"z": -0.7643970078,
				"element": "C" 
			},
			{
				"x": -4.565611555,
				"y": 1.5814245906,
				"z": -0.3418412894,
				"element": "C" 
			},
			{
				"x": -0.235460241,
				"y": -0.5837058838,
				"z": 0.5368281858,
				"element": "N" 
			},
			{
				"x": 0.7189472757,
				"y": -1.3456749517,
				"z": 1.1265487857,
				"element": "C" 
			},
			{
				"x": 0.7159755827,
				"y": -1.7345726348,
				"z": 2.4195155742,
				"element": "N" 
			},
			{
				"x": -0.3193799573,
				"y": -1.3208747136,
				"z": 3.1525259826,
				"element": "C" 
			},
			{
				"x": 1.7584515037,
				"y": -1.7447530054,
				"z": 0.3413904619,
				"element": "N" 
			},
			{
				"x": 1.7973006168,
				"y": -1.3881988278,
				"z": -1.0825644586,
				"element": "C" 
			},
			{
				"x": 2.7420900129,
				"y": -2.3268704047,
				"z": -1.8363452882,
				"element": "C" 
			},
			{
				"x": 4.1838909418,
				"y": -2.268974213,
				"z": -1.2897618447,
				"element": "C" 
			},
			{
				"x": 4.1978299882,
				"y": -2.0335203088,
				"z": 0.2404019683,
				"element": "C" 
			},
			{
				"x": 2.8940311746,
				"y": -2.485242963,
				"z": 0.9050995108,
				"element": "C" 
			},
			{
				"x": -1.2160223916,
				"y": 1.4255707749,
				"z": -0.8397606116,
				"element": "H" 
			},
			{
				"x": -2.0824866695,
				"y": -0.0608991905,
				"z": -1.2162868659,
				"element": "H" 
			},
			{
				"x": -2.3413776479,
				"y": 2.6125179167,
				"z": -2.6984269185,
				"element": "H" 
			},
			{
				"x": -4.32517684,
				"y": 3.8819789884,
				"z": -3.4549989557,
				"element": "H" 
			},
			{
				"x": -6.4736265192,
				"y": 3.6940868081,
				"z": -2.2138728613,
				"element": "H" 
			},
			{
				"x": -6.6134526868,
				"y": 2.2257401904,
				"z": -0.2124203224,
				"element": "H" 
			},
			{
				"x": -4.6233436063,
				"y": 0.9486014175,
				"z": 0.5370028443,
				"element": "H" 
			},
			{
				"x": -0.3324046359,
				"y": -1.6242199101,
				"z": 4.1972888612,
				"element": "H" 
			},
			{
				"x": 0.7841703374,
				"y": -1.4523179014,
				"z": -1.4853257686,
				"element": "H" 
			},
			{
				"x": 2.1169733129,
				"y": -0.3419512309,
				"z": -1.2066458953,
				"element": "H" 
			},
			{
				"x": 2.7214791779,
				"y": -2.0713951901,
				"z": -2.9010221442,
				"element": "H" 
			},
			{
				"x": 2.3514817298,
				"y": -3.3482968252,
				"z": -1.7554607172,
				"element": "H" 
			},
			{
				"x": 4.7002503436,
				"y": -3.2027729933,
				"z": -1.5383231569,
				"element": "H" 
			},
			{
				"x": 4.7415402745,
				"y": -1.4673169658,
				"z": -1.7870040402,
				"element": "H" 
			},
			{
				"x": 4.3368806054,
				"y": -0.9675876825,
				"z": 0.4556041924,
				"element": "H" 
			},
			{
				"x": 5.038221505,
				"y": -2.5577612804,
				"z": 0.707571948,
				"element": "H" 
			},
			{
				"x": 2.7493870637,
				"y": -3.5677241036,
				"z": 0.7701625341,
				"element": "H" 
			},
			{
				"x": 2.9112093608,
				"y": -2.3015398097,
				"z": 1.9789926112,
				"element": "H" 
			}
		],
		 "valence_orbital": [ 
			{
				"type": "occ",
				"energy": -0.26183,
				"method": "rhf"
			},
			{
				"type": "occ",
				"energy": -0.24836,
				"method": "rhf"
			},
			{
				"type": "occ",
				"energy": -0.24821,
				"method": "rhf"
			},
			{
				"type": "occ",
				"energy": -0.24176,
				"method": "rhf"
			},
			{
				"type": "occ",
				"energy": -0.20296,
				"method": "rhf"
			},
			{
				"type": "unocc",
				"energy": -0.0197,
				"method": "rhf"
			},
			{
				"type": "unocc",
				"energy": -0.00357,
				"method": "rhf"
			},
			{
				"type": "unocc",
				"energy": 0.0005,
				"method": "rhf"
			},
			{
				"type": "unocc",
				"energy": 0.0061,
				"method": "rhf"
			},
			{
				"type": "unocc",
				"energy": 0.01684,
				"method": "rhf"
			}
		],
		"cosmo_sigma_profile": { 
			"-0.025": 0.0,
			"-0.024": 0.0,
			"-0.023": 0.0,
			"-0.022": 0.0,
			"-0.021": 0.0,
			"-0.02": 0.0,
			"-0.019": 0.0,
			"-0.018": 0.0,
			"-0.017": 0.0,
			"-0.016": 0.0,
			"-0.015": 0.0,
			"-0.014": 0.0,
			"-0.013": 0.0,
			"-0.012": 0.0,
			"-0.011": 0.0,
			"-0.01": 0.0,
			"-0.009": 0.0,
			"-0.008": 0.467784217581,
			"-0.007": 2.25551224373,
			"-0.006": 9.99556916745,
			"-0.005": 15.4161698227,
			"-0.004": 21.1321614434,
			"-0.003": 40.9948532047,
			"-0.002": 46.2373154202,
			"-0.001": 39.5930323255,
			"0.0": 34.1445067259,
			"0.001": 29.3020124964,
			"0.002": 21.1925826932,
			"0.003": 20.6749103055,
			"0.004": 24.9678257586,
			"0.005": 20.4273103633,
			"0.006": 11.1470169352,
			"0.007": 4.79326674721,
			"0.008": 2.08614344544,
			"0.009": 1.41038731145,
			"0.01": 0.801233749858,
			"0.011": 0.985277607636,
			"0.012": 0.85812582698,
			"0.013": 0.460601667973,
			"0.014": 0.0,
			"0.015": 0.0,
			"0.016": 0.0,
			"0.017": 0.0,
			"0.018": 0.0,
			"0.019": 0.0,
			"0.02": 0.0,
			"0.021": 0.0,
			"0.022": 0.0,
			"0.023": 0.0,
			"0.024": 0.0,
			"0.025": 0.0
		}
	}
}
