{
	 "smiles": "OC(=O)CNC(=O)C1CCOCC1", 
	 "Tm": 440.15, 
	 "num_atms": 26, 
	 "gaussian": { 
		 "optdone": 1, 
		 "sigma_profile": "yes", 
		 "theory": "DFT", 
		 "functional": "B3LYP", 
		 "basiset": "6-31G**", 
		 "properties": { 
			 "R2extent": 3051.7707, 
			 "electric_dipole_moment_norm": 7.2583250375, 
			 "electric_quadrupole_moment_norm": 21.3202753789, 
			 "total_energy": -668.344897317, 
			 "HOMO_LUMO_gap": 0.25671, 
			 "cosmo_polarized_energy": -19.55, 
			 "cosmo_cavitation_energy": 28.12, 
			 "cosmo_dispersion_energy": -20.24, 
			 "cosmo_repulsion_energy": 1.62, 
			 "cosmo_total_nonelectrostatic_energy": 9.5, 
			 "SMD_solvation_energy": 6.54 
		},
		"coords": [
			{
				"x": 3.4652833355,
				"y": 1.7333886897,
				"z": 0.2381494901,
				"element": "O" 
			},
			{
				"x": 3.7797904835,
				"y": 0.5220855217,
				"z": 0.7418820168,
				"element": "C" 
			},
			{
				"x": 4.9158684749,
				"y": 0.1234060846,
				"z": 0.8026577025,
				"element": "O" 
			},
			{
				"x": 2.5922753805,
				"y": -0.2962642129,
				"z": 1.260811342,
				"element": "C" 
			},
			{
				"x": 1.3002491452,
				"y": 0.1627378421,
				"z": 0.769395436,
				"element": "N" 
			},
			{
				"x": 0.2900638277,
				"y": 0.4900814976,
				"z": 1.659677306,
				"element": "C" 
			},
			{
				"x": 0.4824688368,
				"y": 0.5929136525,
				"z": 2.8625064964,
				"element": "O" 
			},
			{
				"x": -1.1078192516,
				"y": 0.7213973525,
				"z": 1.062775382,
				"element": "C" 
			},
			{
				"x": -1.1463837147,
				"y": 1.480570987,
				"z": -0.2931858432,
				"element": "C" 
			},
			{
				"x": -1.2635016738,
				"y": 0.5058584534,
				"z": -1.4815953501,
				"element": "C" 
			},
			{
				"x": -0.5868978867,
				"y": -0.7198950789,
				"z": -1.1922126436,
				"element": "O" 
			},
			{
				"x": -1.2867480859,
				"y": -1.4932869358,
				"z": -0.2045540585,
				"element": "C" 
			},
			{
				"x": -1.8730169248,
				"y": -0.6175106323,
				"z": 0.9231795644,
				"element": "C" 
			},
			{
				"x": 2.4955045812,
				"y": 1.8162701934,
				"z": 0.2777129852,
				"element": "H" 
			},
			{
				"x": 2.5735100528,
				"y": -0.2108556734,
				"z": 2.352142375,
				"element": "H" 
			},
			{
				"x": 2.7779424373,
				"y": -1.3438855852,
				"z": 1.0067448472,
				"element": "H" 
			},
			{
				"x": 0.9840113112,
				"y": -0.1690907235,
				"z": -0.1415883786,
				"element": "H" 
			},
			{
				"x": -1.6090001747,
				"y": 1.3174650926,
				"z": 1.8288049829,
				"element": "H" 
			},
			{
				"x": -0.2532339785,
				"y": 2.1042751825,
				"z": -0.4011993412,
				"element": "H" 
			},
			{
				"x": -2.0036391726,
				"y": 2.1628358421,
				"z": -0.3020058078,
				"element": "H" 
			},
			{
				"x": -0.7970611079,
				"y": 0.909335204,
				"z": -2.3837557481,
				"element": "H" 
			},
			{
				"x": -2.3166953219,
				"y": 0.2955288989,
				"z": -1.7187500808,
				"element": "H" 
			},
			{
				"x": -2.0806348283,
				"y": -2.0745903173,
				"z": -0.6951943071,
				"element": "H" 
			},
			{
				"x": -0.547221225,
				"y": -2.1987782361,
				"z": 0.1845999571,
				"element": "H" 
			},
			{
				"x": -2.921774214,
				"y": -0.3809784976,
				"z": 0.7109648335,
				"element": "H" 
			},
			{
				"x": -1.8606403063,
				"y": -1.1653146016,
				"z": 1.870336842,
				"element": "H" 
			}
		],
		 "valence_orbital": [ 
			{
				"type": "occ",
				"energy": -0.30718,
				"method": "rhf"
			},
			{
				"type": "occ",
				"energy": -0.29198,
				"method": "rhf"
			},
			{
				"type": "occ",
				"energy": -0.28462,
				"method": "rhf"
			},
			{
				"type": "occ",
				"energy": -0.26443,
				"method": "rhf"
			},
			{
				"type": "occ",
				"energy": -0.25442,
				"method": "rhf"
			},
			{
				"type": "unocc",
				"energy": 0.00229,
				"method": "rhf"
			},
			{
				"type": "unocc",
				"energy": 0.0174,
				"method": "rhf"
			},
			{
				"type": "unocc",
				"energy": 0.04528,
				"method": "rhf"
			},
			{
				"type": "unocc",
				"energy": 0.06593,
				"method": "rhf"
			},
			{
				"type": "unocc",
				"energy": 0.08615,
				"method": "rhf"
			}
		],
		"cosmo_sigma_profile": { 
			"-0.025": 0.0,
			"-0.024": 0.0,
			"-0.023": 0.0,
			"-0.022": 0.0,
			"-0.021": 0.0,
			"-0.02": 0.0,
			"-0.019": 0.0,
			"-0.018": 0.0,
			"-0.017": 0.0,
			"-0.016": 0.0,
			"-0.015": 0.0,
			"-0.014": 0.0,
			"-0.013": 0.480313644374,
			"-0.012": 0.96276211939,
			"-0.011": 1.28101471223,
			"-0.01": 3.11055434835,
			"-0.009": 4.09460098111,
			"-0.008": 3.42521039451,
			"-0.007": 7.52355090833,
			"-0.006": 7.71591445471,
			"-0.005": 20.3743240285,
			"-0.004": 35.9568615618,
			"-0.003": 25.7720992163,
			"-0.002": 18.1070859913,
			"-0.001": 11.3024731064,
			"0.0": 5.78003902104,
			"0.001": 4.67073914182,
			"0.002": 4.42944369637,
			"0.003": 4.52348155777,
			"0.004": 4.48944785175,
			"0.005": 3.92847147577,
			"0.006": 4.53441706235,
			"0.007": 4.35657727839,
			"0.008": 4.43579544688,
			"0.009": 5.74578357413,
			"0.01": 7.5170422785,
			"0.011": 6.76176755638,
			"0.012": 9.19579699724,
			"0.013": 7.41441900482,
			"0.014": 1.79747587396,
			"0.015": 0.125762120602,
			"0.016": 0.0,
			"0.017": 0.0,
			"0.018": 0.0,
			"0.019": 0.0,
			"0.02": 0.0,
			"0.021": 0.0,
			"0.022": 0.0,
			"0.023": 0.0,
			"0.024": 0.0,
			"0.025": 0.0
		}
	}
}
