{
	 "smiles": "ClC1=NC=CC(I)=C1", 
	 "Tm": 316.15, 
	 "num_atms": 11, 
	 "gaussian": { 
		 "optdone": 1, 
		 "sigma_profile": "no", 
		 "theory": "DFT", 
		 "functional": "B3LYP", 
		 "basiset": "6-31G**", 
		 "properties": { 
			 "R2extent": 2142.8472, 
			 "electric_dipole_moment_norm": 2.32450932672, 
			 "electric_quadrupole_moment_norm": 5.25718521549, 
			 "total_energy": -718.661084984, 
			 "HOMO_LUMO_gap": 0.21076, 
			 "cosmo_polarized_energy": -97523.72, 
			 "cosmo_cavitation_energy": 20.59, 
			 "cosmo_dispersion_energy": -17.01, 
			 "cosmo_repulsion_energy": 1.38, 
			 "cosmo_total_nonelectrostatic_energy": 4.95, 
			 "SMD_solvation_energy": 1.08 
		},
		"coords": [
			{
				"x": -2.2176466398,
				"y": -2.053441578,
				"z": 1.0105842618,
				"element": "Cl" 
			},
			{
				"x": -1.568426507,
				"y": -0.4201148962,
				"z": 1.09229536,
				"element": "C" 
			},
			{
				"x": -1.1872302862,
				"y": 0.1272883454,
				"z": -0.0466141083,
				"element": "N" 
			},
			{
				"x": -0.6925571436,
				"y": 1.3711155115,
				"z": 0.0134466401,
				"element": "C" 
			},
			{
				"x": -0.563258972,
				"y": 2.1003369042,
				"z": 1.1944665115,
				"element": "C" 
			},
			{
				"x": -0.9775957986,
				"y": 1.4867706101,
				"z": 2.3788049527,
				"element": "C" 
			},
			{
				"x": -0.821429239,
				"y": 2.5112062884,
				"z": 4.2204801959,
				"element": "I" 
			},
			{
				"x": -1.4958080388,
				"y": 0.1949390714,
				"z": 2.3477414859,
				"element": "C" 
			},
			{
				"x": -0.3829648147,
				"y": 1.8080941605,
				"z": -0.9332895405,
				"element": "H" 
			},
			{
				"x": -0.1556817089,
				"y": 3.103759216,
				"z": 1.182521489,
				"element": "H" 
			},
			{
				"x": -1.8290008515,
				"y": -0.3194536333,
				"z": 3.2393627519,
				"element": "H" 
			}
		],
		 "valence_orbital": [ 
			{
				"type": "occ",
				"energy": -0.32238,
				"method": "rhf"
			},
			{
				"type": "occ",
				"energy": -0.28775,
				"method": "rhf"
			},
			{
				"type": "occ",
				"energy": -0.28605,
				"method": "rhf"
			},
			{
				"type": "occ",
				"energy": -0.27388,
				"method": "rhf"
			},
			{
				"type": "occ",
				"energy": -0.27033,
				"method": "rhf"
			},
			{
				"type": "unocc",
				"energy": -0.05957,
				"method": "rhf"
			},
			{
				"type": "unocc",
				"energy": -0.05319,
				"method": "rhf"
			},
			{
				"type": "unocc",
				"energy": -0.03891,
				"method": "rhf"
			},
			{
				"type": "unocc",
				"energy": 0.02791,
				"method": "rhf"
			},
			{
				"type": "unocc",
				"energy": 0.0382,
				"method": "rhf"
			}
		],
		"cosmo_sigma_profile": { 
			"0.0": 0.0,
			"0.0": 0.0,
			"0.0": 0.0,
			"0.0": 0.0,
			"0.0": 0.0,
			"0.0": 0.0,
			"0.0": 0.0,
			"0.0": 0.0,
			"0.0": 0.0,
			"0.0": 0.0,
			"0.0": 0.0,
			"0.0": 0.0,
			"0.0": 0.0,
			"0.0": 0.0,
			"0.0": 0.0,
			"0.0": 0.0,
			"0.0": 0.0,
			"0.0": 0.0,
			"0.0": 0.0,
			"0.0": 0.0,
			"0.0": 0.0,
			"0.0": 0.0,
			"0.0": 0.0,
			"0.0": 0.0,
			"0.0": 0.0,
			"0.0": 0.0,
			"0.0": 0.0,
			"0.0": 0.0,
			"0.0": 0.0,
			"0.0": 0.0,
			"0.0": 0.0,
			"0.0": 0.0,
			"0.0": 0.0,
			"0.0": 0.0,
			"0.0": 0.0,
			"0.0": 0.0,
			"0.0": 0.0,
			"0.0": 0.0,
			"0.0": 0.0,
			"0.0": 0.0,
			"0.0": 0.0,
			"0.0": 0.0,
			"0.0": 0.0,
			"0.0": 0.0,
			"0.0": 0.0,
			"0.0": 0.0,
			"0.0": 0.0,
			"0.0": 0.0,
			"0.0": 0.0,
			"0.0": 0.0,
			"0.0": 0.0
		}
	}
}
