{
	 "smiles": "CCC(Cl)CC", 
	 "Tm": 168.15, 
	 "num_atms": 17, 
	 "gaussian": { 
		 "optdone": 1, 
		 "sigma_profile": "yes", 
		 "theory": "DFT", 
		 "functional": "B3LYP", 
		 "basiset": "6-31G**", 
		 "properties": { 
			 "R2extent": 1015.3217, 
			 "electric_dipole_moment_norm": 2.2944220732, 
			 "electric_quadrupole_moment_norm": 3.34041750684, 
			 "total_energy": -657.377367518, 
			 "HOMO_LUMO_gap": 0.31365, 
			 "cosmo_polarized_energy": -3.77, 
			 "cosmo_cavitation_energy": 20.2, 
			 "cosmo_dispersion_energy": -14.93, 
			 "cosmo_repulsion_energy": 1.29, 
			 "cosmo_total_nonelectrostatic_energy": 6.56, 
			 "SMD_solvation_energy": 3.19 
		},
		"coords": [
			{
				"x": 0.254773698,
				"y": -0.8524129283,
				"z": -1.5874643252,
				"element": "C" 
			},
			{
				"x": -0.3294263639,
				"y": 0.1824479876,
				"z": -0.6228824792,
				"element": "C" 
			},
			{
				"x": -0.2199079223,
				"y": -0.1947477371,
				"z": 0.8547779544,
				"element": "C" 
			},
			{
				"x": 1.5571570652,
				"y": -0.246609456,
				"z": 1.3606985254,
				"element": "Cl" 
			},
			{
				"x": -1.0000116124,
				"y": 0.7118640646,
				"z": 1.8128653017,
				"element": "C" 
			},
			{
				"x": -0.6464800627,
				"y": 2.2013039102,
				"z": 1.7671012243,
				"element": "C" 
			},
			{
				"x": 1.3274662501,
				"y": -0.9836045384,
				"z": -1.422350495,
				"element": "H" 
			},
			{
				"x": -0.2272658434,
				"y": -1.8285742711,
				"z": -1.461353599,
				"element": "H" 
			},
			{
				"x": 0.1072522484,
				"y": -0.5393828978,
				"z": -2.6256969625,
				"element": "H" 
			},
			{
				"x": 0.1426357226,
				"y": 1.1570198122,
				"z": -0.7859392014,
				"element": "H" 
			},
			{
				"x": -1.4007040583,
				"y": 0.3148054735,
				"z": -0.8323057107,
				"element": "H" 
			},
			{
				"x": -0.5498167824,
				"y": -1.2279250532,
				"z": 0.9954982639,
				"element": "H" 
			},
			{
				"x": -2.0636019052,
				"y": 0.5767678691,
				"z": 1.5694487674,
				"element": "H" 
			},
			{
				"x": -0.8662363474,
				"y": 0.3312006576,
				"z": 2.8310893264,
				"element": "H" 
			},
			{
				"x": 0.4132658144,
				"y": 2.3603466487,
				"z": 1.9851920385,
				"element": "H" 
			},
			{
				"x": -1.2298082821,
				"y": 2.7506495875,
				"z": 2.5124225602,
				"element": "H" 
			},
			{
				"x": -0.8623916187,
				"y": 2.6437508709,
				"z": 0.789698811,
				"element": "H" 
			}
		],
		 "valence_orbital": [ 
			{
				"type": "occ",
				"energy": -0.34674,
				"method": "rhf"
			},
			{
				"type": "occ",
				"energy": -0.33796,
				"method": "rhf"
			},
			{
				"type": "occ",
				"energy": -0.33377,
				"method": "rhf"
			},
			{
				"type": "occ",
				"energy": -0.28706,
				"method": "rhf"
			},
			{
				"type": "occ",
				"energy": -0.28535,
				"method": "rhf"
			},
			{
				"type": "unocc",
				"energy": 0.0283,
				"method": "rhf"
			},
			{
				"type": "unocc",
				"energy": 0.08203,
				"method": "rhf"
			},
			{
				"type": "unocc",
				"energy": 0.11454,
				"method": "rhf"
			},
			{
				"type": "unocc",
				"energy": 0.11653,
				"method": "rhf"
			},
			{
				"type": "unocc",
				"energy": 0.13876,
				"method": "rhf"
			}
		],
		"cosmo_sigma_profile": { 
			"-0.025": 0.0,
			"-0.024": 0.0,
			"-0.023": 0.0,
			"-0.022": 0.0,
			"-0.021": 0.0,
			"-0.02": 0.0,
			"-0.019": 0.0,
			"-0.018": 0.0,
			"-0.017": 0.0,
			"-0.016": 0.0,
			"-0.015": 0.0,
			"-0.014": 0.0,
			"-0.013": 0.0,
			"-0.012": 0.0,
			"-0.011": 0.0,
			"-0.01": 0.0,
			"-0.009": 0.0,
			"-0.008": 0.0,
			"-0.007": 0.0,
			"-0.006": 1.50840716081,
			"-0.005": 4.37599672939,
			"-0.004": 11.70565102,
			"-0.003": 19.1020362575,
			"-0.002": 20.9838545619,
			"-0.001": 22.9362821656,
			"0.0": 18.4969203796,
			"0.001": 19.6755310724,
			"0.002": 8.88300003183,
			"0.003": 5.01974250076,
			"0.004": 4.63482022187,
			"0.005": 6.2714748266,
			"0.006": 6.66854522863,
			"0.007": 6.55265170089,
			"0.008": 1.56217395516,
			"0.009": 0.0,
			"0.01": 0.0,
			"0.011": 0.0,
			"0.012": 0.0,
			"0.013": 0.0,
			"0.014": 0.0,
			"0.015": 0.0,
			"0.016": 0.0,
			"0.017": 0.0,
			"0.018": 0.0,
			"0.019": 0.0,
			"0.02": 0.0,
			"0.021": 0.0,
			"0.022": 0.0,
			"0.023": 0.0,
			"0.024": 0.0,
			"0.025": 0.0
		}
	}
}
