{
	 "smiles": "OC(=O)C1=CN(N=C1)C1=CC=C(Cl)C=C1", 
	 "Tm": 511.15, 
	 "num_atms": 22, 
	 "gaussian": { 
		 "optdone": 1, 
		 "sigma_profile": "yes", 
		 "theory": "DFT", 
		 "functional": "B3LYP", 
		 "basiset": "6-31G**", 
		 "properties": { 
			 "R2extent": 5729.1373, 
			 "electric_dipole_moment_norm": 4.23842476871, 
			 "electric_quadrupole_moment_norm": 26.0990737016, 
			 "total_energy": -1105.40864093, 
			 "HOMO_LUMO_gap": 0.18299, 
			 "cosmo_polarized_energy": -20.1, 
			 "cosmo_cavitation_energy": 29.48, 
			 "cosmo_dispersion_energy": -21.92, 
			 "cosmo_repulsion_energy": 1.68, 
			 "cosmo_total_nonelectrostatic_energy": 9.25, 
			 "SMD_solvation_energy": 5.65 
		},
		"coords": [
			{
				"x": 3.7274662517,
				"y": 1.7316396049,
				"z": -2.2400879711,
				"element": "O" 
			},
			{
				"x": 2.998435381,
				"y": 0.8904554359,
				"z": -3.0260373825,
				"element": "C" 
			},
			{
				"x": 3.2470872114,
				"y": 0.8027091177,
				"z": -4.2055862585,
				"element": "O" 
			},
			{
				"x": 1.9201989131,
				"y": 0.1175344047,
				"z": -2.3771084718,
				"element": "C" 
			},
			{
				"x": 1.4784158042,
				"y": 0.0732848811,
				"z": -1.0633191107,
				"element": "C" 
			},
			{
				"x": 0.4480163197,
				"y": -0.8147433051,
				"z": -1.0172649412,
				"element": "N" 
			},
			{
				"x": 0.194315827,
				"y": -1.355423489,
				"z": -2.2446057535,
				"element": "N" 
			},
			{
				"x": 1.074143006,
				"y": -0.7979743586,
				"z": -3.0568302824,
				"element": "C" 
			},
			{
				"x": -0.337396586,
				"y": -1.2101091955,
				"z": 0.1011638931,
				"element": "C" 
			},
			{
				"x": -0.1041342403,
				"y": -0.6725617192,
				"z": 1.3716730216,
				"element": "C" 
			},
			{
				"x": -0.884642073,
				"y": -1.0733493802,
				"z": 2.4538713377,
				"element": "C" 
			},
			{
				"x": -1.8974533987,
				"y": -2.0116147205,
				"z": 2.2623268094,
				"element": "C" 
			},
			{
				"x": -2.8799387247,
				"y": -2.5161357361,
				"z": 3.624962471,
				"element": "Cl" 
			},
			{
				"x": -2.136298024,
				"y": -2.5520516311,
				"z": 0.9988505719,
				"element": "C" 
			},
			{
				"x": -1.3566267058,
				"y": -2.1517553501,
				"z": -0.0822394737,
				"element": "C" 
			},
			{
				"x": 3.4229503177,
				"y": 1.7030281988,
				"z": -1.3234506188,
				"element": "H" 
			},
			{
				"x": 1.8118887515,
				"y": 0.5942537418,
				"z": -0.1787578646,
				"element": "H" 
			},
			{
				"x": 1.0988983325,
				"y": -1.049520641,
				"z": -4.1076371013,
				"element": "H" 
			},
			{
				"x": 0.678801976,
				"y": 0.0581472139,
				"z": 1.5391885089,
				"element": "H" 
			},
			{
				"x": -0.7054913886,
				"y": -0.6580069407,
				"z": 3.4389917419,
				"element": "H" 
			},
			{
				"x": -2.9264442702,
				"y": -3.2812573431,
				"z": 0.8599019204,
				"element": "H" 
			},
			{
				"x": -1.5255926805,
				"y": -2.5589487885,
				"z": -1.0706050458,
				"element": "H" 
			}
		],
		 "valence_orbital": [ 
			{
				"type": "occ",
				"energy": -0.30244,
				"method": "rhf"
			},
			{
				"type": "occ",
				"energy": -0.28756,
				"method": "rhf"
			},
			{
				"type": "occ",
				"energy": -0.28012,
				"method": "rhf"
			},
			{
				"type": "occ",
				"energy": -0.27904,
				"method": "rhf"
			},
			{
				"type": "occ",
				"energy": -0.24385,
				"method": "rhf"
			},
			{
				"type": "unocc",
				"energy": -0.06086,
				"method": "rhf"
			},
			{
				"type": "unocc",
				"energy": -0.03545,
				"method": "rhf"
			},
			{
				"type": "unocc",
				"energy": -0.0186,
				"method": "rhf"
			},
			{
				"type": "unocc",
				"energy": 0.01444,
				"method": "rhf"
			},
			{
				"type": "unocc",
				"energy": 0.01594,
				"method": "rhf"
			}
		],
		"cosmo_sigma_profile": { 
			"-0.025": 0.0,
			"-0.024": 0.0,
			"-0.023": 0.0,
			"-0.022": 0.0,
			"-0.021": 0.0,
			"-0.02": 0.581777780563,
			"-0.019": 1.29479995263,
			"-0.018": 1.26199109319,
			"-0.017": 0.947891501638,
			"-0.016": 0.565649331617,
			"-0.015": 1.11147513221,
			"-0.014": 1.53378792069,
			"-0.013": 2.8087425858,
			"-0.012": 2.25090182129,
			"-0.011": 2.1017341857,
			"-0.01": 2.00089990291,
			"-0.009": 2.4609252347,
			"-0.008": 6.28062967562,
			"-0.007": 8.15368238454,
			"-0.006": 8.8739678285,
			"-0.005": 8.3451531676,
			"-0.004": 9.06043802073,
			"-0.003": 10.613967173,
			"-0.002": 11.6394698398,
			"-0.001": 15.8242481295,
			"0.0": 19.0666534979,
			"0.001": 25.1120537975,
			"0.002": 26.5970065427,
			"0.003": 14.4595649853,
			"0.004": 13.800286903,
			"0.005": 8.11672951816,
			"0.006": 3.54840617414,
			"0.007": 3.885900496,
			"0.008": 4.44062789213,
			"0.009": 4.15111577857,
			"0.01": 5.95379535573,
			"0.011": 6.104309941,
			"0.012": 5.36123066223,
			"0.013": 1.81920677524,
			"0.014": 0.16175681407,
			"0.015": 0.0,
			"0.016": 0.0,
			"0.017": 0.0,
			"0.018": 0.0,
			"0.019": 0.0,
			"0.02": 0.0,
			"0.021": 0.0,
			"0.022": 0.0,
			"0.023": 0.0,
			"0.024": 0.0,
			"0.025": 0.0
		}
	}
}
