{
	 "smiles": "OC(=O)C1=CC(=CC=C1)C1=NC=CC=C1", 
	 "Tm": 481.15, 
	 "num_atms": 24, 
	 "gaussian": { 
		 "optdone": 1, 
		 "sigma_profile": "yes", 
		 "theory": "DFT", 
		 "functional": "B3LYP", 
		 "basiset": "6-31G**", 
		 "properties": { 
			 "R2extent": 4074.5934, 
			 "electric_dipole_moment_norm": 6.08372102746, 
			 "electric_quadrupole_moment_norm": 25.2416091957, 
			 "total_energy": -667.910633862, 
			 "HOMO_LUMO_gap": 0.18514, 
			 "cosmo_polarized_energy": -17.87, 
			 "cosmo_cavitation_energy": 28.95, 
			 "cosmo_dispersion_energy": -21.37, 
			 "cosmo_repulsion_energy": 1.64, 
			 "cosmo_total_nonelectrostatic_energy": 9.22, 
			 "SMD_solvation_energy": 5.02 
		},
		"coords": [
			{
				"x": -2.2468735073,
				"y": 0.1679871893,
				"z": 4.5584213502,
				"element": "O" 
			},
			{
				"x": -1.2407398792,
				"y": -0.2616054331,
				"z": 3.7469455861,
				"element": "C" 
			},
			{
				"x": -0.1481888453,
				"y": -0.4880020225,
				"z": 4.2088605588,
				"element": "O" 
			},
			{
				"x": -1.5793033238,
				"y": -0.428078767,
				"z": 2.294231201,
				"element": "C" 
			},
			{
				"x": -0.5273527338,
				"y": -0.3951599392,
				"z": 1.3745171647,
				"element": "C" 
			},
			{
				"x": -0.7626490844,
				"y": -0.5552507341,
				"z": 0.0025652046,
				"element": "C" 
			},
			{
				"x": -2.0840620988,
				"y": -0.7544202294,
				"z": -0.4316605471,
				"element": "C" 
			},
			{
				"x": -3.1355331138,
				"y": -0.8090087329,
				"z": 0.481583958,
				"element": "C" 
			},
			{
				"x": -2.8897576819,
				"y": -0.6479749172,
				"z": 1.8440763954,
				"element": "C" 
			},
			{
				"x": 0.3818299374,
				"y": -0.5060396291,
				"z": -0.9488362161,
				"element": "C" 
			},
			{
				"x": 1.4945487454,
				"y": 0.1118411966,
				"z": -0.5101175431,
				"element": "N" 
			},
			{
				"x": 2.5484646898,
				"y": 0.1827595583,
				"z": -1.3255209567,
				"element": "C" 
			},
			{
				"x": 2.566107479,
				"y": -0.3465256955,
				"z": -2.6172961516,
				"element": "C" 
			},
			{
				"x": 1.4205325019,
				"y": -0.9989111286,
				"z": -3.0694394931,
				"element": "C" 
			},
			{
				"x": 0.3156489699,
				"y": -1.0858826569,
				"z": -2.2265811653,
				"element": "C" 
			},
			{
				"x": -2.9967729514,
				"y": 0.466430703,
				"z": 4.0255030642,
				"element": "H" 
			},
			{
				"x": 0.4839978395,
				"y": -0.2389516687,
				"z": 1.7295376091,
				"element": "H" 
			},
			{
				"x": -2.3010888431,
				"y": -0.850751774,
				"z": -1.4907048828,
				"element": "H" 
			},
			{
				"x": -4.1488829492,
				"y": -0.9764611752,
				"z": 0.1294577094,
				"element": "H" 
			},
			{
				"x": -3.7153204246,
				"y": -0.7327161763,
				"z": 2.5465560453,
				"element": "H" 
			},
			{
				"x": 3.4250621148,
				"y": 0.6909302779,
				"z": -0.9270435063,
				"element": "H" 
			},
			{
				"x": 3.4508038415,
				"y": -0.2556749316,
				"z": -3.2390497606,
				"element": "H" 
			},
			{
				"x": 1.388809845,
				"y": -1.4430041119,
				"z": -4.0602453983,
				"element": "H" 
			},
			{
				"x": -0.5736805276,
				"y": -1.6160292021,
				"z": -2.548960226,
				"element": "H" 
			}
		],
		 "valence_orbital": [ 
			{
				"type": "occ",
				"energy": -0.28924,
				"method": "rhf"
			},
			{
				"type": "occ",
				"energy": -0.27424,
				"method": "rhf"
			},
			{
				"type": "occ",
				"energy": -0.26363,
				"method": "rhf"
			},
			{
				"type": "occ",
				"energy": -0.25938,
				"method": "rhf"
			},
			{
				"type": "occ",
				"energy": -0.24339,
				"method": "rhf"
			},
			{
				"type": "unocc",
				"energy": -0.05825,
				"method": "rhf"
			},
			{
				"type": "unocc",
				"energy": -0.04244,
				"method": "rhf"
			},
			{
				"type": "unocc",
				"energy": -0.02429,
				"method": "rhf"
			},
			{
				"type": "unocc",
				"energy": 0.00718,
				"method": "rhf"
			},
			{
				"type": "unocc",
				"energy": 0.05443,
				"method": "rhf"
			}
		],
		"cosmo_sigma_profile": { 
			"-0.025": 0.0,
			"-0.024": 0.0,
			"-0.023": 0.0,
			"-0.022": 0.0,
			"-0.021": 0.0,
			"-0.02": 0.0,
			"-0.019": 0.142081387636,
			"-0.018": 0.62146812692,
			"-0.017": 0.771288568186,
			"-0.016": 1.18961091147,
			"-0.015": 1.46065357853,
			"-0.014": 0.839987635601,
			"-0.013": 0.716099672984,
			"-0.012": 1.13392630386,
			"-0.011": 1.22119099689,
			"-0.01": 1.22138350361,
			"-0.009": 1.69530896768,
			"-0.008": 3.77151389763,
			"-0.007": 10.7843453062,
			"-0.006": 15.0852741685,
			"-0.005": 16.7213201158,
			"-0.004": 12.5136564217,
			"-0.003": 10.6627637182,
			"-0.002": 10.8888060885,
			"-0.001": 12.5889826361,
			"0.0": 14.2728995979,
			"0.001": 19.6908656261,
			"0.002": 25.3294261441,
			"0.003": 22.3792887141,
			"0.004": 6.44720148668,
			"0.005": 4.57351569598,
			"0.006": 3.60023403485,
			"0.007": 4.08717137177,
			"0.008": 4.36794028044,
			"0.009": 4.73773052953,
			"0.01": 5.53888030685,
			"0.011": 5.88160283989,
			"0.012": 6.12988066731,
			"0.013": 1.92053384605,
			"0.014": 0.234840067432,
			"0.015": 0.0,
			"0.016": 0.0,
			"0.017": 0.0,
			"0.018": 0.0,
			"0.019": 0.0,
			"0.02": 0.0,
			"0.021": 0.0,
			"0.022": 0.0,
			"0.023": 0.0,
			"0.024": 0.0,
			"0.025": 0.0
		}
	}
}
