{
	 "smiles": "OC1=CC=C(C=C1)N1CC(=O)NC1=O", 
	 "Tm": 599.15, 
	 "num_atms": 22, 
	 "gaussian": { 
		 "optdone": 1, 
		 "sigma_profile": "yes", 
		 "theory": "DFT", 
		 "functional": "B3LYP", 
		 "basiset": "6-31G**", 
		 "properties": { 
			 "R2extent": 3838.3105, 
			 "electric_dipole_moment_norm": 1.76871896581, 
			 "electric_quadrupole_moment_norm": 3.4852278333, 
			 "total_energy": -682.984202764, 
			 "HOMO_LUMO_gap": 0.18719, 
			 "cosmo_polarized_energy": -18.61, 
			 "cosmo_cavitation_energy": 26.62, 
			 "cosmo_dispersion_energy": -20.08, 
			 "cosmo_repulsion_energy": 1.56, 
			 "cosmo_total_nonelectrostatic_energy": 8.09, 
			 "SMD_solvation_energy": 6.03 
		},
		"coords": [
			{
				"x": -2.4109838196,
				"y": 3.5847825756,
				"z": 0.6897506943,
				"element": "O" 
			},
			{
				"x": -1.7662398097,
				"y": 2.3896841978,
				"z": 0.8480575907,
				"element": "C" 
			},
			{
				"x": -0.7059960443,
				"y": 2.1034726022,
				"z": -0.0143837449,
				"element": "C" 
			},
			{
				"x": -0.0141882209,
				"y": 0.9013457721,
				"z": 0.1018906139,
				"element": "C" 
			},
			{
				"x": -0.3648767115,
				"y": -0.0420564916,
				"z": 1.0813506405,
				"element": "C" 
			},
			{
				"x": -1.4315546504,
				"y": 0.2494829837,
				"z": 1.9465849285,
				"element": "C" 
			},
			{
				"x": -2.1196163137,
				"y": 1.454234873,
				"z": 1.8248150831,
				"element": "C" 
			},
			{
				"x": 0.3660101323,
				"y": -1.2567164832,
				"z": 1.1672675818,
				"element": "N" 
			},
			{
				"x": 1.4758468188,
				"y": -1.5679019287,
				"z": 0.2730339394,
				"element": "C" 
			},
			{
				"x": 1.9448572676,
				"y": -2.9490691591,
				"z": 0.7302476297,
				"element": "C" 
			},
			{
				"x": 2.8512484992,
				"y": -3.6073272499,
				"z": 0.2699100249,
				"element": "O" 
			},
			{
				"x": 1.1107859775,
				"y": -3.2740836164,
				"z": 1.7758626789,
				"element": "N" 
			},
			{
				"x": 0.1498482127,
				"y": -2.284798035,
				"z": 2.0690485888,
				"element": "C" 
			},
			{
				"x": -0.6795158676,
				"y": -2.3752425815,
				"z": 2.9531508551,
				"element": "O" 
			},
			{
				"x": -3.1165353831,
				"y": 3.6526635154,
				"z": 1.3458300935,
				"element": "H" 
			},
			{
				"x": -0.4311814015,
				"y": 2.82887865,
				"z": -0.7726168222,
				"element": "H" 
			},
			{
				"x": 0.8036783839,
				"y": 0.710609355,
				"z": -0.5835375834,
				"element": "H" 
			},
			{
				"x": -1.7149904962,
				"y": -0.464975302,
				"z": 2.706050355,
				"element": "H" 
			},
			{
				"x": -2.9435486058,
				"y": 1.6627300554,
				"z": 2.5043079892,
				"element": "H" 
			},
			{
				"x": 2.297889622,
				"y": -0.8481118454,
				"z": 0.3616340137,
				"element": "H" 
			},
			{
				"x": 1.1663862283,
				"y": -1.6094950642,
				"z": -0.7777802732,
				"element": "H" 
			},
			{
				"x": 1.158376182,
				"y": -4.1340068233,
				"z": 2.3033251225,
				"element": "H" 
			}
		],
		 "valence_orbital": [ 
			{
				"type": "occ",
				"energy": -0.29744,
				"method": "rhf"
			},
			{
				"type": "occ",
				"energy": -0.29126,
				"method": "rhf"
			},
			{
				"type": "occ",
				"energy": -0.27056,
				"method": "rhf"
			},
			{
				"type": "occ",
				"energy": -0.26025,
				"method": "rhf"
			},
			{
				"type": "occ",
				"energy": -0.20926,
				"method": "rhf"
			},
			{
				"type": "unocc",
				"energy": -0.02207,
				"method": "rhf"
			},
			{
				"type": "unocc",
				"energy": -0.01042,
				"method": "rhf"
			},
			{
				"type": "unocc",
				"energy": 0.00814,
				"method": "rhf"
			},
			{
				"type": "unocc",
				"energy": 0.06554,
				"method": "rhf"
			},
			{
				"type": "unocc",
				"energy": 0.0665,
				"method": "rhf"
			}
		],
		"cosmo_sigma_profile": { 
			"-0.025": 0.0,
			"-0.024": 0.0,
			"-0.023": 0.0,
			"-0.022": 0.0,
			"-0.021": 0.0,
			"-0.02": 0.0,
			"-0.019": 0.0,
			"-0.018": 0.366996442992,
			"-0.017": 1.98010272842,
			"-0.016": 2.16545705677,
			"-0.015": 2.46279832832,
			"-0.014": 1.96148464006,
			"-0.013": 1.14749817316,
			"-0.012": 1.23917530017,
			"-0.011": 1.79128812164,
			"-0.01": 3.08898374025,
			"-0.009": 4.05708247564,
			"-0.008": 11.3308140583,
			"-0.007": 10.2844341424,
			"-0.006": 9.76972109155,
			"-0.005": 9.57843759816,
			"-0.004": 9.63919756485,
			"-0.003": 11.0718077891,
			"-0.002": 10.0750143124,
			"-0.001": 8.88075904608,
			"0.0": 7.82887292188,
			"0.001": 8.73646004707,
			"0.002": 10.3371166121,
			"0.003": 13.0367737977,
			"0.004": 13.8329891852,
			"0.005": 14.4141839704,
			"0.006": 5.00719002503,
			"0.007": 4.6515151418,
			"0.008": 3.6532191377,
			"0.009": 4.35652472235,
			"0.01": 5.40251532424,
			"0.011": 9.19609672981,
			"0.012": 9.46850361768,
			"0.013": 2.00735506066,
			"0.014": 0.0,
			"0.015": 0.0,
			"0.016": 0.0,
			"0.017": 0.0,
			"0.018": 0.0,
			"0.019": 0.0,
			"0.02": 0.0,
			"0.021": 0.0,
			"0.022": 0.0,
			"0.023": 0.0,
			"0.024": 0.0,
			"0.025": 0.0
		}
	}
}
