{
	 "smiles": "CC(C)(C)NC1=C(F)C=C(N)C(=C1)C(O)=O", 
	 "Tm": 473.15, 
	 "num_atms": 31, 
	 "gaussian": { 
		 "optdone": 1, 
		 "sigma_profile": "yes", 
		 "theory": "DFT", 
		 "functional": "B3LYP", 
		 "basiset": "6-31G**", 
		 "properties": { 
			 "R2extent": 4915.9268, 
			 "electric_dipole_moment_norm": 4.92654034694, 
			 "electric_quadrupole_moment_norm": 35.270239558, 
			 "total_energy": -788.020212151, 
			 "HOMO_LUMO_gap": 0.18063, 
			 "cosmo_polarized_energy": -19.05, 
			 "cosmo_cavitation_energy": 33.49, 
			 "cosmo_dispersion_energy": -23.64, 
			 "cosmo_repulsion_energy": 1.81, 
			 "cosmo_total_nonelectrostatic_energy": 11.66, 
			 "SMD_solvation_energy": 6.82 
		},
		"coords": [
			{
				"x": 1.8274062256,
				"y": 1.9241340956,
				"z": 1.2059287616,
				"element": "C" 
			},
			{
				"x": 0.6234010533,
				"y": 1.1415097683,
				"z": 1.7470658503,
				"element": "C" 
			},
			{
				"x": 0.2949248981,
				"y": 1.6287347108,
				"z": 3.1674346163,
				"element": "C" 
			},
			{
				"x": 0.946239538,
				"y": -0.366449486,
				"z": 1.7692831527,
				"element": "C" 
			},
			{
				"x": -0.6044577852,
				"y": 1.4238766861,
				"z": 0.9359671479,
				"element": "N" 
			},
			{
				"x": -0.6629701045,
				"y": 1.0760898152,
				"z": -0.4360641149,
				"element": "C" 
			},
			{
				"x": -0.1611035564,
				"y": 1.9331963555,
				"z": -1.4313585259,
				"element": "C" 
			},
			{
				"x": 0.4403637236,
				"y": 3.0848763648,
				"z": -1.080324811,
				"element": "F" 
			},
			{
				"x": -0.2569680611,
				"y": 1.6438412853,
				"z": -2.7850591033,
				"element": "C" 
			},
			{
				"x": -0.9287173503,
				"y": 0.4952665937,
				"z": -3.2117014691,
				"element": "C" 
			},
			{
				"x": -1.0594428741,
				"y": 0.1909811282,
				"z": -4.6133713309,
				"element": "N" 
			},
			{
				"x": -1.5053897268,
				"y": -0.3592339375,
				"z": -2.2533280202,
				"element": "C" 
			},
			{
				"x": -1.3349249176,
				"y": -0.061975384,
				"z": -0.8951203709,
				"element": "C" 
			},
			{
				"x": -2.3431290563,
				"y": -1.5764058244,
				"z": -2.5710935103,
				"element": "C" 
			},
			{
				"x": -2.7175379901,
				"y": -1.7425388071,
				"z": -3.8489542721,
				"element": "O" 
			},
			{
				"x": -2.6872060779,
				"y": -2.355754596,
				"z": -1.7068198645,
				"element": "O" 
			},
			{
				"x": 2.113165409,
				"y": 1.5892404275,
				"z": 0.2047941112,
				"element": "H" 
			},
			{
				"x": 2.6882112717,
				"y": 1.7669324576,
				"z": 1.8635097786,
				"element": "H" 
			},
			{
				"x": 1.6099863275,
				"y": 2.9930127174,
				"z": 1.1605739607,
				"element": "H" 
			},
			{
				"x": 1.1431750334,
				"y": 1.4617649918,
				"z": 3.8382057397,
				"element": "H" 
			},
			{
				"x": -0.5652223564,
				"y": 1.0889167654,
				"z": 3.5818273641,
				"element": "H" 
			},
			{
				"x": 0.0566564978,
				"y": 2.6960558818,
				"z": 3.1616430465,
				"element": "H" 
			},
			{
				"x": 1.1430398276,
				"y": -0.7430347116,
				"z": 0.7606201056,
				"element": "H" 
			},
			{
				"x": 1.8310102555,
				"y": -0.5682668717,
				"z": 2.3826339147,
				"element": "H" 
			},
			{
				"x": 0.1122543085,
				"y": -0.9419443552,
				"z": 2.1874135879,
				"element": "H" 
			},
			{
				"x": -1.3865712444,
				"y": 0.9780056196,
				"z": 1.4080038277,
				"element": "H" 
			},
			{
				"x": 0.1827938986,
				"y": 2.3357984244,
				"z": -3.4967963044,
				"element": "H" 
			},
			{
				"x": -0.992611959,
				"y": 1.0288448381,
				"z": -5.1834419311,
				"element": "H" 
			},
			{
				"x": -0.3347958232,
				"y": -0.4541051972,
				"z": -4.9243136942,
				"element": "H" 
			},
			{
				"x": -1.7745936694,
				"y": -0.7533291833,
				"z": -0.1828727966,
				"element": "H" 
			},
			{
				"x": -2.3462857151,
				"y": -1.0020405733,
				"z": -4.3918848461,
				"element": "H" 
			}
		],
		 "valence_orbital": [ 
			{
				"type": "occ",
				"energy": -0.29477,
				"method": "rhf"
			},
			{
				"type": "occ",
				"energy": -0.27287,
				"method": "rhf"
			},
			{
				"type": "occ",
				"energy": -0.26266,
				"method": "rhf"
			},
			{
				"type": "occ",
				"energy": -0.25586,
				"method": "rhf"
			},
			{
				"type": "occ",
				"energy": -0.22096,
				"method": "rhf"
			},
			{
				"type": "unocc",
				"energy": -0.04033,
				"method": "rhf"
			},
			{
				"type": "unocc",
				"energy": -0.02028,
				"method": "rhf"
			},
			{
				"type": "unocc",
				"energy": 0.05438,
				"method": "rhf"
			},
			{
				"type": "unocc",
				"energy": 0.0616,
				"method": "rhf"
			},
			{
				"type": "unocc",
				"energy": 0.0705,
				"method": "rhf"
			}
		],
		"cosmo_sigma_profile": { 
			"-0.025": 0.0,
			"-0.024": 0.0,
			"-0.023": 0.0,
			"-0.022": 0.0,
			"-0.021": 0.0,
			"-0.02": 0.0,
			"-0.019": 0.0,
			"-0.018": 0.0,
			"-0.017": 0.0,
			"-0.016": 0.0,
			"-0.015": 0.0,
			"-0.014": 0.772309971738,
			"-0.013": 3.40418941961,
			"-0.012": 3.2420050631,
			"-0.011": 4.71341209478,
			"-0.01": 4.7582088794,
			"-0.009": 4.17936637785,
			"-0.008": 6.28063550683,
			"-0.007": 5.1410408413,
			"-0.006": 5.18718998531,
			"-0.005": 6.4511651648,
			"-0.004": 8.03409791623,
			"-0.003": 21.4052282476,
			"-0.002": 24.6574360428,
			"-0.001": 22.487295147,
			"0.0": 26.76522775,
			"0.001": 32.7515258993,
			"0.002": 20.7673588099,
			"0.003": 10.7357746908,
			"0.004": 9.18970804456,
			"0.005": 4.66634750491,
			"0.006": 3.73648167793,
			"0.007": 3.39260124489,
			"0.008": 2.7225579783,
			"0.009": 3.82929813999,
			"0.01": 4.52766880007,
			"0.011": 4.47516959807,
			"0.012": 7.39284210629,
			"0.013": 4.76082596671,
			"0.014": 2.16318490691,
			"0.015": 0.132389775026,
			"0.016": 0.0,
			"0.017": 0.0,
			"0.018": 0.0,
			"0.019": 0.0,
			"0.02": 0.0,
			"0.021": 0.0,
			"0.022": 0.0,
			"0.023": 0.0,
			"0.024": 0.0,
			"0.025": 0.0
		}
	}
}
