{
	 "smiles": "CCCSC1=C(C=CC=N1)C(O)=O", 
	 "Tm": 434.15, 
	 "num_atms": 24, 
	 "gaussian": { 
		 "optdone": 1, 
		 "sigma_profile": "yes", 
		 "theory": "DFT", 
		 "functional": "B3LYP", 
		 "basiset": "6-31G**", 
		 "properties": { 
			 "R2extent": 3512.7456, 
			 "electric_dipole_moment_norm": 5.11520484243, 
			 "electric_quadrupole_moment_norm": 23.2225088901, 
			 "total_energy": -952.988044379, 
			 "HOMO_LUMO_gap": 0.18351, 
			 "cosmo_polarized_energy": -11.3, 
			 "cosmo_cavitation_energy": 28.9, 
			 "cosmo_dispersion_energy": -21.2, 
			 "cosmo_repulsion_energy": 1.64, 
			 "cosmo_total_nonelectrostatic_energy": 9.35, 
			 "SMD_solvation_energy": 5.21 
		},
		"coords": [
			{
				"x": -0.3021038194,
				"y": -0.6936446485,
				"z": -4.1977496141,
				"element": "C" 
			},
			{
				"x": 0.4900511901,
				"y": 0.0949796615,
				"z": -3.1523527373,
				"element": "C" 
			},
			{
				"x": -0.2495349263,
				"y": 1.299657201,
				"z": -2.5646190696,
				"element": "C" 
			},
			{
				"x": -1.7354633611,
				"y": 0.8971252642,
				"z": -1.5551549616,
				"element": "S" 
			},
			{
				"x": -0.9977089725,
				"y": 0.3311066109,
				"z": -0.0124593797,
				"element": "C" 
			},
			{
				"x": -1.6993760095,
				"y": -0.533277454,
				"z": 0.8620935322,
				"element": "C" 
			},
			{
				"x": -1.0923074575,
				"y": -0.8100296621,
				"z": 2.0946362713,
				"element": "C" 
			},
			{
				"x": 0.1591606092,
				"y": -0.2885748281,
				"z": 2.3984398286,
				"element": "C" 
			},
			{
				"x": 0.778085579,
				"y": 0.5110396586,
				"z": 1.4398373539,
				"element": "C" 
			},
			{
				"x": 0.2084895972,
				"y": 0.8252689008,
				"z": 0.2727039735,
				"element": "N" 
			},
			{
				"x": -3.0277010758,
				"y": -1.2226850397,
				"z": 0.6356554853,
				"element": "C" 
			},
			{
				"x": -3.5120079092,
				"y": -1.3103953617,
				"z": -0.6155232513,
				"element": "O" 
			},
			{
				"x": -3.6323405447,
				"y": -1.7229657527,
				"z": 1.5584773945,
				"element": "O" 
			},
			{
				"x": -0.584193798,
				"y": -0.0569957397,
				"z": -5.0441049615,
				"element": "H" 
			},
			{
				"x": -1.221014029,
				"y": -1.111208307,
				"z": -3.7744494581,
				"element": "H" 
			},
			{
				"x": 0.290765183,
				"y": -1.5255205152,
				"z": -4.5900145984,
				"element": "H" 
			},
			{
				"x": 0.8069314158,
				"y": -0.5622444941,
				"z": -2.3348004484,
				"element": "H" 
			},
			{
				"x": 1.4126762189,
				"y": 0.480700461,
				"z": -3.6070067499,
				"element": "H" 
			},
			{
				"x": -0.6435223474,
				"y": 1.9517020553,
				"z": -3.3509159017,
				"element": "H" 
			},
			{
				"x": 0.3995436228,
				"y": 1.8868786588,
				"z": -1.9136762684,
				"element": "H" 
			},
			{
				"x": -1.6304989136,
				"y": -1.4499363264,
				"z": 2.7854013946,
				"element": "H" 
			},
			{
				"x": 0.6467362142,
				"y": -0.5013173248,
				"z": 3.3436087835,
				"element": "H" 
			},
			{
				"x": 1.7684937776,
				"y": 0.927653709,
				"z": 1.6125637177,
				"element": "H" 
			},
			{
				"x": -2.9186602438,
				"y": -0.881416727,
				"z": -1.2648903353,
				"element": "H" 
			}
		],
		 "valence_orbital": [ 
			{
				"type": "occ",
				"energy": -0.31055,
				"method": "rhf"
			},
			{
				"type": "occ",
				"energy": -0.29648,
				"method": "rhf"
			},
			{
				"type": "occ",
				"energy": -0.28664,
				"method": "rhf"
			},
			{
				"type": "occ",
				"energy": -0.26737,
				"method": "rhf"
			},
			{
				"type": "occ",
				"energy": -0.24516,
				"method": "rhf"
			},
			{
				"type": "unocc",
				"energy": -0.06165,
				"method": "rhf"
			},
			{
				"type": "unocc",
				"energy": -0.04266,
				"method": "rhf"
			},
			{
				"type": "unocc",
				"energy": 0.02194,
				"method": "rhf"
			},
			{
				"type": "unocc",
				"energy": 0.04054,
				"method": "rhf"
			},
			{
				"type": "unocc",
				"energy": 0.05615,
				"method": "rhf"
			}
		],
		"cosmo_sigma_profile": { 
			"-0.025": 0.0,
			"-0.024": 0.0,
			"-0.023": 0.0,
			"-0.022": 0.0,
			"-0.021": 0.0,
			"-0.02": 0.0,
			"-0.019": 0.0,
			"-0.018": 0.0,
			"-0.017": 0.0,
			"-0.016": 0.0,
			"-0.015": 0.0,
			"-0.014": 0.0,
			"-0.013": 0.0,
			"-0.012": 0.0,
			"-0.011": 0.0,
			"-0.01": 0.191460359366,
			"-0.009": 0.733147154586,
			"-0.008": 3.87922544358,
			"-0.007": 7.88437401291,
			"-0.006": 11.6794149301,
			"-0.005": 9.89941781859,
			"-0.004": 14.4997176969,
			"-0.003": 23.8440166254,
			"-0.002": 22.2876333912,
			"-0.001": 26.5846647868,
			"0.0": 28.1201896355,
			"0.001": 21.5552532227,
			"0.002": 8.95515511622,
			"0.003": 6.66144472306,
			"0.004": 5.80803947023,
			"0.005": 5.54108429681,
			"0.006": 5.19092887597,
			"0.007": 4.3588832676,
			"0.008": 4.4487415582,
			"0.009": 3.87724297821,
			"0.01": 4.49395173392,
			"0.011": 5.60041188943,
			"0.012": 3.74236658109,
			"0.013": 1.53097219373,
			"0.014": 0.00365936379792,
			"0.015": 0.0,
			"0.016": 0.0,
			"0.017": 0.0,
			"0.018": 0.0,
			"0.019": 0.0,
			"0.02": 0.0,
			"0.021": 0.0,
			"0.022": 0.0,
			"0.023": 0.0,
			"0.024": 0.0,
			"0.025": 0.0
		}
	}
}
