{
	 "smiles": "OC1CCCCC2=C1C=CC=C2", 
	 "Tm": 375.15, 
	 "num_atms": 26, 
	 "gaussian": { 
		 "optdone": 1, 
		 "sigma_profile": "yes", 
		 "theory": "DFT", 
		 "functional": "B3LYP", 
		 "basiset": "6-31G**", 
		 "properties": { 
			 "R2extent": 2061.1121, 
			 "electric_dipole_moment_norm": 1.5707837375, 
			 "electric_quadrupole_moment_norm": 6.52679834758, 
			 "total_energy": -502.831358767, 
			 "HOMO_LUMO_gap": 0.23361, 
			 "cosmo_polarized_energy": -8.27, 
			 "cosmo_cavitation_energy": 26.52, 
			 "cosmo_dispersion_energy": -19.86, 
			 "cosmo_repulsion_energy": 1.57, 
			 "cosmo_total_nonelectrostatic_energy": 8.22, 
			 "SMD_solvation_energy": 3.65 
		},
		"coords": [
			{
				"x": 0.0079575901,
				"y": -2.1434775414,
				"z": -0.2813155249,
				"element": "O" 
			},
			{
				"x": 0.7604616302,
				"y": -1.0719418515,
				"z": -0.8743207142,
				"element": "C" 
			},
			{
				"x": 0.0388150187,
				"y": -0.4735857941,
				"z": -2.0926913869,
				"element": "C" 
			},
			{
				"x": -1.4692581034,
				"y": -0.240658949,
				"z": -1.9035951577,
				"element": "C" 
			},
			{
				"x": -1.8394657512,
				"y": 0.4236170498,
				"z": -0.5684433314,
				"element": "C" 
			},
			{
				"x": -0.866586747,
				"y": 1.5394161871,
				"z": -0.1495037536,
				"element": "C" 
			},
			{
				"x": 0.3914648265,
				"y": 1.072813967,
				"z": 0.5689181464,
				"element": "C" 
			},
			{
				"x": 1.1150950685,
				"y": -0.0946023444,
				"z": 0.2416122081,
				"element": "C" 
			},
			{
				"x": 2.2546532876,
				"y": -0.4192807299,
				"z": 0.9941964424,
				"element": "C" 
			},
			{
				"x": 2.6995598194,
				"y": 0.3756076876,
				"z": 2.0459410634,
				"element": "C" 
			},
			{
				"x": 1.9930990146,
				"y": 1.5348990877,
				"z": 2.3641076637,
				"element": "C" 
			},
			{
				"x": 0.8562787597,
				"y": 1.8654027069,
				"z": 1.631725858,
				"element": "C" 
			},
			{
				"x": -0.1317125556,
				"y": -2.8117107086,
				"z": -0.966593223,
				"element": "H" 
			},
			{
				"x": 1.7217364097,
				"y": -1.4725753198,
				"z": -1.2341238456,
				"element": "H" 
			},
			{
				"x": 0.187220618,
				"y": -1.1435432633,
				"z": -2.9507976671,
				"element": "H" 
			},
			{
				"x": 0.5425255557,
				"y": 0.4631722864,
				"z": -2.3611100599,
				"element": "H" 
			},
			{
				"x": -2.0012168541,
				"y": -1.1955506239,
				"z": -1.9817535694,
				"element": "H" 
			},
			{
				"x": -1.823884685,
				"y": 0.3772198651,
				"z": -2.7387597625,
				"element": "H" 
			},
			{
				"x": -1.863896262,
				"y": -0.3362816698,
				"z": 0.2185816957,
				"element": "H" 
			},
			{
				"x": -2.852406137,
				"y": 0.8365488237,
				"z": -0.6455346269,
				"element": "H" 
			},
			{
				"x": -1.3841471928,
				"y": 2.2367182843,
				"z": 0.5181331631,
				"element": "H" 
			},
			{
				"x": -0.5926467133,
				"y": 2.1350700362,
				"z": -1.0338521051,
				"element": "H" 
			},
			{
				"x": 2.8011169928,
				"y": -1.3244608578,
				"z": 0.740718801,
				"element": "H" 
			},
			{
				"x": 3.5859598578,
				"y": 0.0946020104,
				"z": 2.6072765321,
				"element": "H" 
			},
			{
				"x": 2.3193765669,
				"y": 2.1746421476,
				"z": 3.1793972402,
				"element": "H" 
			},
			{
				"x": 0.3009999851,
				"y": 2.7641395137,
				"z": 1.8898859144,
				"element": "H" 
			}
		],
		 "valence_orbital": [ 
			{
				"type": "occ",
				"energy": -0.31516,
				"method": "rhf"
			},
			{
				"type": "occ",
				"energy": -0.30402,
				"method": "rhf"
			},
			{
				"type": "occ",
				"energy": -0.26274,
				"method": "rhf"
			},
			{
				"type": "occ",
				"energy": -0.23786,
				"method": "rhf"
			},
			{
				"type": "occ",
				"energy": -0.23323,
				"method": "rhf"
			},
			{
				"type": "unocc",
				"energy": 0.00038,
				"method": "rhf"
			},
			{
				"type": "unocc",
				"energy": 0.00762,
				"method": "rhf"
			},
			{
				"type": "unocc",
				"energy": 0.06672,
				"method": "rhf"
			},
			{
				"type": "unocc",
				"energy": 0.10127,
				"method": "rhf"
			},
			{
				"type": "unocc",
				"energy": 0.10978,
				"method": "rhf"
			}
		],
		"cosmo_sigma_profile": { 
			"-0.025": 0.0,
			"-0.024": 0.0,
			"-0.023": 0.0,
			"-0.022": 0.0,
			"-0.021": 0.0,
			"-0.02": 0.0,
			"-0.019": 0.0,
			"-0.018": 0.0,
			"-0.017": 0.0,
			"-0.016": 0.0,
			"-0.015": 0.760290607217,
			"-0.014": 0.840332936464,
			"-0.013": 0.85095083412,
			"-0.012": 0.763080946488,
			"-0.011": 1.21910552304,
			"-0.01": 0.612940115284,
			"-0.009": 0.801763754963,
			"-0.008": 0.821113449143,
			"-0.007": 1.07259861651,
			"-0.006": 2.44730659379,
			"-0.005": 8.80877353071,
			"-0.004": 14.2307803368,
			"-0.003": 24.5879819725,
			"-0.002": 24.0164805998,
			"-0.001": 25.1795833657,
			"0.0": 23.238197575,
			"0.001": 17.8348111905,
			"0.002": 9.59502854191,
			"0.003": 7.03019141861,
			"0.004": 8.65471971482,
			"0.005": 8.12806860216,
			"0.006": 8.49435363529,
			"0.007": 5.34781473774,
			"0.008": 2.20857908925,
			"0.009": 1.57029240548,
			"0.01": 1.6641140206,
			"0.011": 1.37672615373,
			"0.012": 1.26236321508,
			"0.013": 1.654433696,
			"0.014": 1.19638263065,
			"0.015": 0.49774086759,
			"0.016": 0.0,
			"0.017": 0.0,
			"0.018": 0.0,
			"0.019": 0.0,
			"0.02": 0.0,
			"0.021": 0.0,
			"0.022": 0.0,
			"0.023": 0.0,
			"0.024": 0.0,
			"0.025": 0.0
		}
	}
}
