{
	 "smiles": "ClCC(=O)NCC1=CC=CC=C1", 
	 "Tm": 367.65, 
	 "num_atms": 22, 
	 "gaussian": { 
		 "optdone": 1, 
		 "sigma_profile": "yes", 
		 "theory": "DFT", 
		 "functional": "B3LYP", 
		 "basiset": "6-31G**", 
		 "properties": { 
			 "R2extent": 4255.1792, 
			 "electric_dipole_moment_norm": 3.92980678533, 
			 "electric_quadrupole_moment_norm": 17.8070091666, 
			 "total_energy": -939.163120852, 
			 "HOMO_LUMO_gap": 0.2298, 
			 "cosmo_polarized_energy": -12.38, 
			 "cosmo_cavitation_energy": 27.58, 
			 "cosmo_dispersion_energy": -19.57, 
			 "cosmo_repulsion_energy": 1.59, 
			 "cosmo_total_nonelectrostatic_energy": 9.61, 
			 "SMD_solvation_energy": 4.9 
		},
		"coords": [
			{
				"x": -0.1059500604,
				"y": 3.4019066753,
				"z": -3.2743655642,
				"element": "Cl" 
			},
			{
				"x": 0.9627307924,
				"y": 1.9314931733,
				"z": -3.3470398861,
				"element": "C" 
			},
			{
				"x": 2.329748137,
				"y": 2.1883700568,
				"z": -2.7110709671,
				"element": "C" 
			},
			{
				"x": 3.3234135357,
				"y": 2.3302824943,
				"z": -3.4088140928,
				"element": "O" 
			},
			{
				"x": 2.3848484065,
				"y": 2.2377029927,
				"z": -1.3453677889,
				"element": "N" 
			},
			{
				"x": 1.3074665538,
				"y": 1.9940736585,
				"z": -0.3941251195,
				"element": "C" 
			},
			{
				"x": 0.9398244524,
				"y": 0.5306869814,
				"z": -0.1745151451,
				"element": "C" 
			},
			{
				"x": -0.3584794339,
				"y": 0.2052716448,
				"z": 0.239361025,
				"element": "C" 
			},
			{
				"x": -0.7133883544,
				"y": -1.119522016,
				"z": 0.496093613,
				"element": "C" 
			},
			{
				"x": 0.2265093096,
				"y": -2.1393537349,
				"z": 0.3349461289,
				"element": "C" 
			},
			{
				"x": 1.5202883996,
				"y": -1.8246421494,
				"z": -0.0841440217,
				"element": "C" 
			},
			{
				"x": 1.8748509002,
				"y": -0.4981762825,
				"z": -0.3365420914,
				"element": "C" 
			},
			{
				"x": 1.1275271834,
				"y": 1.7120748355,
				"z": -4.3992190346,
				"element": "H" 
			},
			{
				"x": 0.4181554358,
				"y": 1.1192511571,
				"z": -2.8634336146,
				"element": "H" 
			},
			{
				"x": 3.3165224335,
				"y": 2.4080692637,
				"z": -0.9918993464,
				"element": "H" 
			},
			{
				"x": 0.4179437626,
				"y": 2.5544887309,
				"z": -0.6977661312,
				"element": "H" 
			},
			{
				"x": 1.6284187786,
				"y": 2.43511699,
				"z": 0.5567279008,
				"element": "H" 
			},
			{
				"x": -1.0972017886,
				"y": 0.9946437842,
				"z": 0.3595672501,
				"element": "H" 
			},
			{
				"x": -1.7253232058,
				"y": -1.3552409679,
				"z": 0.8129899543,
				"element": "H" 
			},
			{
				"x": -0.0490631221,
				"y": -3.1717969477,
				"z": 0.5289738124,
				"element": "H" 
			},
			{
				"x": 2.2562803532,
				"y": -2.612540651,
				"z": -0.216957578,
				"element": "H" 
			},
			{
				"x": 2.8806775311,
				"y": -0.2612596891,
				"z": -0.6708993028,
				"element": "H" 
			}
		],
		 "valence_orbital": [ 
			{
				"type": "occ",
				"energy": -0.3052,
				"method": "rhf"
			},
			{
				"type": "occ",
				"energy": -0.26591,
				"method": "rhf"
			},
			{
				"type": "occ",
				"energy": -0.26043,
				"method": "rhf"
			},
			{
				"type": "occ",
				"energy": -0.25657,
				"method": "rhf"
			},
			{
				"type": "occ",
				"energy": -0.25222,
				"method": "rhf"
			},
			{
				"type": "unocc",
				"energy": -0.02242,
				"method": "rhf"
			},
			{
				"type": "unocc",
				"energy": -0.01369,
				"method": "rhf"
			},
			{
				"type": "unocc",
				"energy": -0.01114,
				"method": "rhf"
			},
			{
				"type": "unocc",
				"energy": 0.05384,
				"method": "rhf"
			},
			{
				"type": "unocc",
				"energy": 0.07477,
				"method": "rhf"
			}
		],
		"cosmo_sigma_profile": { 
			"-0.025": 0.0,
			"-0.024": 0.0,
			"-0.023": 0.0,
			"-0.022": 0.0,
			"-0.021": 0.0,
			"-0.02": 0.0,
			"-0.019": 0.0,
			"-0.018": 0.0,
			"-0.017": 0.0,
			"-0.016": 0.0,
			"-0.015": 0.148425746813,
			"-0.014": 1.06513201662,
			"-0.013": 1.29303031975,
			"-0.012": 1.02468659985,
			"-0.011": 1.03364930688,
			"-0.01": 1.23373767152,
			"-0.009": 1.45362870315,
			"-0.008": 3.11607302273,
			"-0.007": 5.41745480232,
			"-0.006": 12.7976754379,
			"-0.005": 19.8740876302,
			"-0.004": 18.5131617508,
			"-0.003": 17.5928200378,
			"-0.002": 12.546649202,
			"-0.001": 13.3991160223,
			"0.0": 11.3464433602,
			"0.001": 11.2407091425,
			"0.002": 15.8104600461,
			"0.003": 14.5000202386,
			"0.004": 13.3970892701,
			"0.005": 16.907543331,
			"0.006": 10.0186968801,
			"0.007": 1.81159767096,
			"0.008": 1.17310974609,
			"0.009": 0.670947831692,
			"0.01": 1.49582736152,
			"0.011": 1.63384328446,
			"0.012": 3.00104772521,
			"0.013": 5.7640019535,
			"0.014": 2.06497598611,
			"0.015": 0.0175957841205,
			"0.016": 0.0,
			"0.017": 0.0,
			"0.018": 0.0,
			"0.019": 0.0,
			"0.02": 0.0,
			"0.021": 0.0,
			"0.022": 0.0,
			"0.023": 0.0,
			"0.024": 0.0,
			"0.025": 0.0
		}
	}
}
