{
	 "smiles": "NNC(=O)C1=COC=C1", 
	 "Tm": 402.15, 
	 "num_atms": 15, 
	 "gaussian": { 
		 "optdone": 1, 
		 "sigma_profile": "yes", 
		 "theory": "DFT", 
		 "functional": "B3LYP", 
		 "basiset": "6-31G**", 
		 "properties": { 
			 "R2extent": 1487.468, 
			 "electric_dipole_moment_norm": 4.36600646472, 
			 "electric_quadrupole_moment_norm": 13.8526724057, 
			 "total_energy": -454.041036039, 
			 "HOMO_LUMO_gap": 0.21619, 
			 "cosmo_polarized_energy": -14.32, 
			 "cosmo_cavitation_energy": 19.65, 
			 "cosmo_dispersion_energy": -14.83, 
			 "cosmo_repulsion_energy": 1.24, 
			 "cosmo_total_nonelectrostatic_energy": 6.06, 
			 "SMD_solvation_energy": 6.38 
		},
		"coords": [
			{
				"x": -1.5924006421,
				"y": -0.7932639663,
				"z": 1.4445526396,
				"element": "N" 
			},
			{
				"x": -1.1632432667,
				"y": -1.985052778,
				"z": 0.8538704119,
				"element": "N" 
			},
			{
				"x": -0.0619796191,
				"y": -2.1262936924,
				"z": 0.0393333417,
				"element": "C" 
			},
			{
				"x": 0.1965377879,
				"y": -3.2428680471,
				"z": -0.4067126274,
				"element": "O" 
			},
			{
				"x": 0.7849871035,
				"y": -0.9549275248,
				"z": -0.2869551945,
				"element": "C" 
			},
			{
				"x": 1.8783355188,
				"y": -1.1115939951,
				"z": -1.0978161342,
				"element": "C" 
			},
			{
				"x": 2.5188861472,
				"y": 0.0643756399,
				"z": -1.2774967841,
				"element": "O" 
			},
			{
				"x": 1.8246024206,
				"y": 1.008149124,
				"z": -0.5661161823,
				"element": "C" 
			},
			{
				"x": 0.7579846622,
				"y": 0.4464381453,
				"z": 0.0584824632,
				"element": "C" 
			},
			{
				"x": -2.5355747231,
				"y": -0.568785655,
				"z": 1.1366838033,
				"element": "H" 
			},
			{
				"x": -1.5910696964,
				"y": -0.8829017818,
				"z": 2.4578504303,
				"element": "H" 
			},
			{
				"x": -1.6634935001,
				"y": -2.8551888023,
				"z": 1.0069794556,
				"element": "H" 
			},
			{
				"x": 2.288906335,
				"y": -1.9780203114,
				"z": -1.5905380268,
				"element": "H" 
			},
			{
				"x": 2.2188632848,
				"y": 2.0112524067,
				"z": -0.6117811692,
				"element": "H" 
			},
			{
				"x": 0.0340581875,
				"y": 0.9378812384,
				"z": 0.6858635729,
				"element": "H" 
			}
		],
		 "valence_orbital": [ 
			{
				"type": "occ",
				"energy": -0.28537,
				"method": "rhf"
			},
			{
				"type": "occ",
				"energy": -0.27417,
				"method": "rhf"
			},
			{
				"type": "occ",
				"energy": -0.25375,
				"method": "rhf"
			},
			{
				"type": "occ",
				"energy": -0.24712,
				"method": "rhf"
			},
			{
				"type": "occ",
				"energy": -0.22689,
				"method": "rhf"
			},
			{
				"type": "unocc",
				"energy": -0.0107,
				"method": "rhf"
			},
			{
				"type": "unocc",
				"energy": 0.03179,
				"method": "rhf"
			},
			{
				"type": "unocc",
				"energy": 0.06137,
				"method": "rhf"
			},
			{
				"type": "unocc",
				"energy": 0.10599,
				"method": "rhf"
			},
			{
				"type": "unocc",
				"energy": 0.12915,
				"method": "rhf"
			}
		],
		"cosmo_sigma_profile": { 
			"-0.025": 0.0,
			"-0.024": 0.0,
			"-0.023": 0.0,
			"-0.022": 0.0,
			"-0.021": 0.0,
			"-0.02": 0.0,
			"-0.019": 0.0,
			"-0.018": 0.0,
			"-0.017": 0.0,
			"-0.016": 0.0,
			"-0.015": 0.0,
			"-0.014": 0.0666793647985,
			"-0.013": 1.17469926459,
			"-0.012": 4.08242000005,
			"-0.011": 4.7955215402,
			"-0.01": 4.95343752073,
			"-0.009": 6.79201887546,
			"-0.008": 6.48503306706,
			"-0.007": 5.51499754429,
			"-0.006": 4.29631701959,
			"-0.005": 5.16338151377,
			"-0.004": 5.03329305941,
			"-0.003": 5.90581148413,
			"-0.002": 6.1387066353,
			"-0.001": 4.7330241224,
			"0.0": 7.18944705274,
			"0.001": 10.7369372971,
			"0.002": 15.0898670121,
			"0.003": 14.5787293489,
			"0.004": 12.5488468088,
			"0.005": 6.1363692105,
			"0.006": 3.8042016154,
			"0.007": 2.73188690458,
			"0.008": 3.13597592014,
			"0.009": 0.823950078713,
			"0.01": 1.36395205871,
			"0.011": 1.7628297234,
			"0.012": 1.231015406,
			"0.013": 3.14690014352,
			"0.014": 5.87580753651,
			"0.015": 1.09516762107,
			"0.016": 0.0,
			"0.017": 0.0,
			"0.018": 0.0,
			"0.019": 0.0,
			"0.02": 0.0,
			"0.021": 0.0,
			"0.022": 0.0,
			"0.023": 0.0,
			"0.024": 0.0,
			"0.025": 0.0
		}
	}
}
