{
	 "smiles": "COC1=CC(=C(Br)C=C1)S(Cl)(=O)=O", 
	 "Tm": 337.15, 
	 "num_atms": 19, 
	 "gaussian": { 
		 "optdone": 1, 
		 "sigma_profile": "yes", 
		 "theory": "DFT", 
		 "functional": "B3LYP", 
		 "basiset": "6-31G**", 
		 "properties": { 
			 "R2extent": 5524.5295, 
			 "electric_dipole_moment_norm": 7.34829428507, 
			 "electric_quadrupole_moment_norm": 13.7710896305, 
			 "total_energy": -3925.71732028, 
			 "HOMO_LUMO_gap": 0.15872, 
			 "cosmo_polarized_energy": -11.76, 
			 "cosmo_cavitation_energy": 28.86, 
			 "cosmo_dispersion_energy": -22.1, 
			 "cosmo_repulsion_energy": 1.69, 
			 "cosmo_total_nonelectrostatic_energy": 8.45, 
			 "SMD_solvation_energy": 3.54 
		},
		"coords": [
			{
				"x": -0.2950533997,
				"y": -3.9990913047,
				"z": -0.0454784031,
				"element": "C" 
			},
			{
				"x": 0.7632338753,
				"y": -3.079435206,
				"z": 0.1980514689,
				"element": "O" 
			},
			{
				"x": 0.5924567854,
				"y": -1.7866063234,
				"z": -0.1728872062,
				"element": "C" 
			},
			{
				"x": 1.6765432957,
				"y": -0.9373952561,
				"z": 0.0981260533,
				"element": "C" 
			},
			{
				"x": 1.6103893541,
				"y": 0.4070674935,
				"z": -0.2395419576,
				"element": "C" 
			},
			{
				"x": 0.46254472,
				"y": 0.9396494046,
				"z": -0.8558849279,
				"element": "C" 
			},
			{
				"x": 0.2889075349,
				"y": 2.7664622394,
				"z": -1.3506686222,
				"element": "Br" 
			},
			{
				"x": -0.6047879521,
				"y": 0.0854293816,
				"z": -1.1186090598,
				"element": "C" 
			},
			{
				"x": -0.552612045,
				"y": -1.2679695618,
				"z": -0.7848277291,
				"element": "C" 
			},
			{
				"x": 3.000452419,
				"y": 1.5284721349,
				"z": 0.1003261807,
				"element": "S" 
			},
			{
				"x": 4.4493520706,
				"y": 0.2467070416,
				"z": 1.0203112969,
				"element": "Cl" 
			},
			{
				"x": 2.6090733525,
				"y": 2.4780950868,
				"z": 1.1312424702,
				"element": "O" 
			},
			{
				"x": 3.5955072813,
				"y": 1.9493839223,
				"z": -1.1592411389,
				"element": "O" 
			},
			{
				"x": -1.2070358666,
				"y": -3.7128410191,
				"z": 0.4926224511,
				"element": "H" 
			},
			{
				"x": -0.5144879336,
				"y": -4.0835899528,
				"z": -1.1168843934,
				"element": "H" 
			},
			{
				"x": 0.0558837406,
				"y": -4.9615893933,
				"z": 0.3272354803,
				"element": "H" 
			},
			{
				"x": 2.5525833815,
				"y": -1.3586112059,
				"z": 0.5718705709,
				"element": "H" 
			},
			{
				"x": -1.4924893919,
				"y": 0.4877590405,
				"z": -1.5930741342,
				"element": "H" 
			},
			{
				"x": -1.4055612222,
				"y": -1.897296522,
				"z": -1.0069884,
				"element": "H" 
			}
		],
		 "valence_orbital": [ 
			{
				"type": "occ",
				"energy": -0.31595,
				"method": "rhf"
			},
			{
				"type": "occ",
				"energy": -0.30997,
				"method": "rhf"
			},
			{
				"type": "occ",
				"energy": -0.29914,
				"method": "rhf"
			},
			{
				"type": "occ",
				"energy": -0.29409,
				"method": "rhf"
			},
			{
				"type": "occ",
				"energy": -0.24601,
				"method": "rhf"
			},
			{
				"type": "unocc",
				"energy": -0.08729,
				"method": "rhf"
			},
			{
				"type": "unocc",
				"energy": -0.05534,
				"method": "rhf"
			},
			{
				"type": "unocc",
				"energy": -0.03434,
				"method": "rhf"
			},
			{
				"type": "unocc",
				"energy": -0.01715,
				"method": "rhf"
			},
			{
				"type": "unocc",
				"energy": 0.0439,
				"method": "rhf"
			}
		],
		"cosmo_sigma_profile": { 
			"-0.025": 0.0,
			"-0.024": 0.0,
			"-0.023": 0.0,
			"-0.022": 0.0,
			"-0.021": 0.0,
			"-0.02": 0.0,
			"-0.019": 0.0,
			"-0.018": 0.0,
			"-0.017": 0.0,
			"-0.016": 0.0,
			"-0.015": 0.0,
			"-0.014": 0.0,
			"-0.013": 0.0,
			"-0.012": 0.0,
			"-0.011": 0.0,
			"-0.01": 0.0,
			"-0.009": 1.45326703921,
			"-0.008": 5.01314624648,
			"-0.007": 8.46206909717,
			"-0.006": 14.6724407816,
			"-0.005": 14.3777708049,
			"-0.004": 15.5691010554,
			"-0.003": 14.0704088882,
			"-0.002": 12.4472322132,
			"-0.001": 20.2665419628,
			"0.0": 26.8937111743,
			"0.001": 18.3642962851,
			"0.002": 18.0647788723,
			"0.003": 20.6778094868,
			"0.004": 9.08229654282,
			"0.005": 6.0197679907,
			"0.006": 5.81640797856,
			"0.007": 8.94768046012,
			"0.008": 14.0101560658,
			"0.009": 3.05146065137,
			"0.01": 0.0,
			"0.011": 0.0,
			"0.012": 0.0,
			"0.013": 0.0,
			"0.014": 0.0,
			"0.015": 0.0,
			"0.016": 0.0,
			"0.017": 0.0,
			"0.018": 0.0,
			"0.019": 0.0,
			"0.02": 0.0,
			"0.021": 0.0,
			"0.022": 0.0,
			"0.023": 0.0,
			"0.024": 0.0,
			"0.025": 0.0
		}
	}
}
