{
	 "smiles": "CC1=CC2=C(C=C1)N=CN=C2O", 
	 "Tm": 512.15, 
	 "num_atms": 20, 
	 "gaussian": { 
		 "optdone": 1, 
		 "sigma_profile": "yes", 
		 "theory": "DFT", 
		 "functional": "B3LYP", 
		 "basiset": "6-31G**", 
		 "properties": { 
			 "R2extent": 2147.5477, 
			 "electric_dipole_moment_norm": 2.31890429729, 
			 "electric_quadrupole_moment_norm": 7.89904884084, 
			 "total_energy": -532.529182209, 
			 "HOMO_LUMO_gap": 0.18072, 
			 "cosmo_polarized_energy": -9.14, 
			 "cosmo_cavitation_energy": 24.05, 
			 "cosmo_dispersion_energy": -18.18, 
			 "cosmo_repulsion_energy": 1.43, 
			 "cosmo_total_nonelectrostatic_energy": 7.3, 
			 "SMD_solvation_energy": 1.7 
		},
		"coords": [
			{
				"x": -1.0592011113,
				"y": -1.4907115855,
				"z": 2.2962353623,
				"element": "C" 
			},
			{
				"x": -0.6114229239,
				"y": -0.9263636439,
				"z": 0.9699649938,
				"element": "C" 
			},
			{
				"x": 0.3534440163,
				"y": 0.0604520782,
				"z": 0.889775933,
				"element": "C" 
			},
			{
				"x": 0.7549865616,
				"y": 0.5718198459,
				"z": -0.366327206,
				"element": "C" 
			},
			{
				"x": 0.1755238022,
				"y": 0.0822320721,
				"z": -1.5696619578,
				"element": "C" 
			},
			{
				"x": -0.8122749956,
				"y": -0.9293000723,
				"z": -1.4708966117,
				"element": "C" 
			},
			{
				"x": -1.1875602863,
				"y": -1.4121388197,
				"z": -0.237207187,
				"element": "C" 
			},
			{
				"x": 0.544332647,
				"y": 0.5581913126,
				"z": -2.8003413194,
				"element": "N" 
			},
			{
				"x": 1.4647509014,
				"y": 1.4935380358,
				"z": -2.8041225914,
				"element": "C" 
			},
			{
				"x": 2.0939164456,
				"y": 2.0442059064,
				"z": -1.7297891709,
				"element": "N" 
			},
			{
				"x": 1.7399101764,
				"y": 1.5873797093,
				"z": -0.5492982537,
				"element": "C" 
			},
			{
				"x": 2.3361125985,
				"y": 2.1032231681,
				"z": 0.5407600463,
				"element": "O" 
			},
			{
				"x": -0.8789896222,
				"y": -2.5708206767,
				"z": 2.3493855663,
				"element": "H" 
			},
			{
				"x": -0.5303486046,
				"y": -1.02089737,
				"z": 3.1294626109,
				"element": "H" 
			},
			{
				"x": -2.1337862711,
				"y": -1.3377662753,
				"z": 2.4504918401,
				"element": "H" 
			},
			{
				"x": 0.8152262273,
				"y": 0.4554066854,
				"z": 1.7891355912,
				"element": "H" 
			},
			{
				"x": -1.2534294312,
				"y": -1.3017489933,
				"z": -2.3894484557,
				"element": "H" 
			},
			{
				"x": -1.9468887701,
				"y": -2.188443215,
				"z": -0.1764886528,
				"element": "H" 
			},
			{
				"x": 1.7723404948,
				"y": 1.8856705929,
				"z": -3.7716926688,
				"element": "H" 
			},
			{
				"x": 2.9641581452,
				"y": 2.7681712451,
				"z": 0.2129621313,
				"element": "H" 
			}
		],
		 "valence_orbital": [ 
			{
				"type": "occ",
				"energy": -0.30002,
				"method": "rhf"
			},
			{
				"type": "occ",
				"energy": -0.29184,
				"method": "rhf"
			},
			{
				"type": "occ",
				"energy": -0.26468,
				"method": "rhf"
			},
			{
				"type": "occ",
				"energy": -0.25389,
				"method": "rhf"
			},
			{
				"type": "occ",
				"energy": -0.23105,
				"method": "rhf"
			},
			{
				"type": "unocc",
				"energy": -0.05033,
				"method": "rhf"
			},
			{
				"type": "unocc",
				"energy": -0.02645,
				"method": "rhf"
			},
			{
				"type": "unocc",
				"energy": 0.02589,
				"method": "rhf"
			},
			{
				"type": "unocc",
				"energy": 0.07766,
				"method": "rhf"
			},
			{
				"type": "unocc",
				"energy": 0.078,
				"method": "rhf"
			}
		],
		"cosmo_sigma_profile": { 
			"-0.025": 0.0,
			"-0.024": 0.0,
			"-0.023": 0.0,
			"-0.022": 0.0,
			"-0.021": 0.0,
			"-0.02": 0.0,
			"-0.019": 0.0,
			"-0.018": 0.473717227585,
			"-0.017": 0.946029127612,
			"-0.016": 0.461493676215,
			"-0.015": 0.829032176945,
			"-0.014": 0.863885107327,
			"-0.013": 0.832682304262,
			"-0.012": 0.465606451093,
			"-0.011": 0.912269226509,
			"-0.01": 0.660701721544,
			"-0.009": 0.357717154544,
			"-0.008": 0.347660732904,
			"-0.007": 3.15446953161,
			"-0.006": 7.22713118865,
			"-0.005": 11.4712726672,
			"-0.004": 14.4411824705,
			"-0.003": 13.4217971265,
			"-0.002": 15.5592795721,
			"-0.001": 17.5434979674,
			"0.0": 19.5078138218,
			"0.001": 14.9455402094,
			"0.002": 17.3555092388,
			"0.003": 16.6086763279,
			"0.004": 6.48583568836,
			"0.005": 4.11784054835,
			"0.006": 4.54701504515,
			"0.007": 3.69250308393,
			"0.008": 3.69831824777,
			"0.009": 2.24466544792,
			"0.01": 2.43266001131,
			"0.011": 1.51767777646,
			"0.012": 1.57581962856,
			"0.013": 1.38148555985,
			"0.014": 1.17044453789,
			"0.015": 0.69189796173,
			"0.016": 0.612675832222,
			"0.017": 0.0,
			"0.018": 0.0,
			"0.019": 0.0,
			"0.02": 0.0,
			"0.021": 0.0,
			"0.022": 0.0,
			"0.023": 0.0,
			"0.024": 0.0,
			"0.025": 0.0
		}
	}
}
