{
	 "smiles": "CC1CCCCN1C1=C(C)C=C(C=N1)[N+]([O-])=O", 
	 "Tm": 322.15, 
	 "num_atms": 34, 
	 "gaussian": { 
		 "optdone": 1, 
		 "sigma_profile": "yes", 
		 "theory": "DFT", 
		 "functional": "B3LYP", 
		 "basiset": "6-31G**", 
		 "properties": { 
			 "R2extent": 5838.9258, 
			 "electric_dipole_moment_norm": 6.85018798793, 
			 "electric_quadrupole_moment_norm": 29.7210165571, 
			 "total_energy": -782.135041731, 
			 "HOMO_LUMO_gap": 0.14134, 
			 "cosmo_polarized_energy": -10.68, 
			 "cosmo_cavitation_energy": 35.15, 
			 "cosmo_dispersion_energy": -25.06, 
			 "cosmo_repulsion_energy": 1.94, 
			 "cosmo_total_nonelectrostatic_energy": 12.02, 
			 "SMD_solvation_energy": 6.71 
		},
		"coords": [
			{
				"x": -2.3610658395,
				"y": 0.0451186946,
				"z": 1.1960832023,
				"element": "C" 
			},
			{
				"x": -0.8349914365,
				"y": 0.1846433457,
				"z": 1.2029235177,
				"element": "C" 
			},
			{
				"x": -0.3435408634,
				"y": 0.782509147,
				"z": 2.527762679,
				"element": "C" 
			},
			{
				"x": 1.1894226988,
				"y": 0.8902860202,
				"z": 2.601269178,
				"element": "C" 
			},
			{
				"x": 1.7762897511,
				"y": 1.3512332538,
				"z": 1.2461382575,
				"element": "C" 
			},
			{
				"x": 0.7026083645,
				"y": 1.9988391117,
				"z": 0.361265708,
				"element": "C" 
			},
			{
				"x": -0.3891778136,
				"y": 1.0474140888,
				"z": 0.0718989732,
				"element": "N" 
			},
			{
				"x": -0.5317330949,
				"y": 0.5588064728,
				"z": -1.2171331184,
				"element": "C" 
			},
			{
				"x": -0.5534222144,
				"y": 1.4324747157,
				"z": -2.3551307457,
				"element": "C" 
			},
			{
				"x": -0.6177973415,
				"y": 2.9386867305,
				"z": -2.2436818532,
				"element": "C" 
			},
			{
				"x": -0.6382578919,
				"y": 0.8356814933,
				"z": -3.6029641163,
				"element": "C" 
			},
			{
				"x": -0.744963679,
				"y": -0.5537803329,
				"z": -3.7076837684,
				"element": "C" 
			},
			{
				"x": -0.8224317204,
				"y": -1.3171579035,
				"z": -2.5461719157,
				"element": "C" 
			},
			{
				"x": -0.7174700166,
				"y": -0.7737533302,
				"z": -1.3386066688,
				"element": "N" 
			},
			{
				"x": -0.835599218,
				"y": -1.1865366575,
				"z": -5.0113004025,
				"element": "N" 
			},
			{
				"x": -0.971475584,
				"y": -2.4124379202,
				"z": -5.0474129135,
				"element": "O" 
			},
			{
				"x": -0.768713321,
				"y": -0.4607090581,
				"z": -6.0075393817,
				"element": "O" 
			},
			{
				"x": -2.8381171436,
				"y": 1.0221975835,
				"z": 1.328646831,
				"element": "H" 
			},
			{
				"x": -2.7139725326,
				"y": -0.3934400602,
				"z": 0.2609592682,
				"element": "H" 
			},
			{
				"x": -2.680692654,
				"y": -0.6082700103,
				"z": 2.0147129489,
				"element": "H" 
			},
			{
				"x": -0.3944417108,
				"y": -0.8126994631,
				"z": 1.0778060481,
				"element": "H" 
			},
			{
				"x": -0.7211262746,
				"y": 0.1600956135,
				"z": 3.3454813974,
				"element": "H" 
			},
			{
				"x": -0.8008209062,
				"y": 1.7713801537,
				"z": 2.6618129335,
				"element": "H" 
			},
			{
				"x": 1.4652531261,
				"y": 1.58808768,
				"z": 3.3994615582,
				"element": "H" 
			},
			{
				"x": 1.617448057,
				"y": -0.0796457248,
				"z": 2.8773672363,
				"element": "H" 
			},
			{
				"x": 2.5965887367,
				"y": 2.0632004686,
				"z": 1.3913800344,
				"element": "H" 
			},
			{
				"x": 2.1941855279,
				"y": 0.497570407,
				"z": 0.7006829043,
				"element": "H" 
			},
			{
				"x": 0.3088670415,
				"y": 2.9045610135,
				"z": 0.8401354441,
				"element": "H" 
			},
			{
				"x": 1.155694275,
				"y": 2.3042780786,
				"z": -0.5800967449,
				"element": "H" 
			},
			{
				"x": -1.1419127277,
				"y": 3.3533485959,
				"z": -3.1090573166,
				"element": "H" 
			},
			{
				"x": -1.1593720757,
				"y": 3.2367480461,
				"z": -1.3412738942,
				"element": "H" 
			},
			{
				"x": 0.3683940625,
				"y": 3.4153262844,
				"z": -2.2070358702,
				"element": "H" 
			},
			{
				"x": -0.6687692681,
				"y": 1.4330749566,
				"z": -4.5073678386,
				"element": "H" 
			},
			{
				"x": -0.965386313,
				"y": -2.3916314947,
				"z": -2.6074315713,
				"element": "H" 
			}
		],
		 "valence_orbital": [ 
			{
				"type": "occ",
				"energy": -0.29722,
				"method": "rhf"
			},
			{
				"type": "occ",
				"energy": -0.28385,
				"method": "rhf"
			},
			{
				"type": "occ",
				"energy": -0.27896,
				"method": "rhf"
			},
			{
				"type": "occ",
				"energy": -0.26631,
				"method": "rhf"
			},
			{
				"type": "occ",
				"energy": -0.21873,
				"method": "rhf"
			},
			{
				"type": "unocc",
				"energy": -0.07739,
				"method": "rhf"
			},
			{
				"type": "unocc",
				"energy": -0.03143,
				"method": "rhf"
			},
			{
				"type": "unocc",
				"energy": 0.00899,
				"method": "rhf"
			},
			{
				"type": "unocc",
				"energy": 0.0646,
				"method": "rhf"
			},
			{
				"type": "unocc",
				"energy": 0.0931,
				"method": "rhf"
			}
		],
		"cosmo_sigma_profile": { 
			"-0.025": 0.0,
			"-0.024": 0.0,
			"-0.023": 0.0,
			"-0.022": 0.0,
			"-0.021": 0.0,
			"-0.02": 0.0,
			"-0.019": 0.0,
			"-0.018": 0.0,
			"-0.017": 0.0,
			"-0.016": 0.0,
			"-0.015": 0.0,
			"-0.014": 0.0,
			"-0.013": 0.0,
			"-0.012": 0.0,
			"-0.011": 0.0,
			"-0.01": 0.0,
			"-0.009": 0.0,
			"-0.008": 0.215627896318,
			"-0.007": 2.83212902325,
			"-0.006": 5.50617765656,
			"-0.005": 9.32710328186,
			"-0.004": 16.0721077643,
			"-0.003": 35.2903039375,
			"-0.002": 46.4910114539,
			"-0.001": 40.0128633812,
			"0.0": 35.375875764,
			"0.001": 24.6253845412,
			"0.002": 8.25784850835,
			"0.003": 5.59957099765,
			"0.004": 5.00564860089,
			"0.005": 4.04031257457,
			"0.006": 4.86191804834,
			"0.007": 5.13238818728,
			"0.008": 10.8730154465,
			"0.009": 7.59192904248,
			"0.01": 5.25990432061,
			"0.011": 3.04214076514,
			"0.012": 0.101989596112,
			"0.013": 0.0,
			"0.014": 0.0,
			"0.015": 0.0,
			"0.016": 0.0,
			"0.017": 0.0,
			"0.018": 0.0,
			"0.019": 0.0,
			"0.02": 0.0,
			"0.021": 0.0,
			"0.022": 0.0,
			"0.023": 0.0,
			"0.024": 0.0,
			"0.025": 0.0
		}
	}
}
