{
	 "smiles": "COCC(O)=O", 
	 "Tm": 281.0, 
	 "num_atms": 12, 
	 "gaussian": { 
		 "optdone": 1, 
		 "sigma_profile": "yes", 
		 "theory": "DFT", 
		 "functional": "B3LYP", 
		 "basiset": "6-31G**", 
		 "properties": { 
			 "R2extent": 897.3079, 
			 "electric_dipole_moment_norm": 5.05300892736, 
			 "electric_quadrupole_moment_norm": 7.45038703223, 
			 "total_energy": -343.596241518, 
			 "HOMO_LUMO_gap": 0.28272, 
			 "cosmo_polarized_energy": -10.99, 
			 "cosmo_cavitation_energy": 15.93, 
			 "cosmo_dispersion_energy": -12.07, 
			 "cosmo_repulsion_energy": 1.08, 
			 "cosmo_total_nonelectrostatic_energy": 4.93, 
			 "SMD_solvation_energy": 5.05 
		},
		"coords": [
			{
				"x": 1.6137401795,
				"y": 1.2904126256,
				"z": 1.5633762534,
				"element": "C" 
			},
			{
				"x": 1.3979222673,
				"y": -0.028819354,
				"z": 1.0911244609,
				"element": "O" 
			},
			{
				"x": 0.6503719391,
				"y": -0.0984446142,
				"z": -0.1079244428,
				"element": "C" 
			},
			{
				"x": 0.4864454143,
				"y": -1.5645754676,
				"z": -0.5125031936,
				"element": "C" 
			},
			{
				"x": 1.0631923459,
				"y": -2.4455909072,
				"z": 0.3218546842,
				"element": "O" 
			},
			{
				"x": -0.1158110362,
				"y": -1.89113682,
				"z": -1.5047753744,
				"element": "O" 
			},
			{
				"x": 0.6627389854,
				"y": 1.797240181,
				"z": 1.7802226428,
				"element": "H" 
			},
			{
				"x": 2.1746318083,
				"y": 1.8893447917,
				"z": 0.8319520398,
				"element": "H" 
			},
			{
				"x": 2.1956821938,
				"y": 1.2118920677,
				"z": 2.4835664564,
				"element": "H" 
			},
			{
				"x": 1.1508445759,
				"y": 0.4317126998,
				"z": -0.9318272329,
				"element": "H" 
			},
			{
				"x": -0.3517984088,
				"y": 0.339764494,
				"z": 0.0103394019,
				"element": "H" 
			},
			{
				"x": 1.4819397355,
				"y": -1.9344996969,
				"z": 1.0395943042,
				"element": "H" 
			}
		],
		 "valence_orbital": [ 
			{
				"type": "occ",
				"energy": -0.37821,
				"method": "rhf"
			},
			{
				"type": "occ",
				"energy": -0.36104,
				"method": "rhf"
			},
			{
				"type": "occ",
				"energy": -0.31407,
				"method": "rhf"
			},
			{
				"type": "occ",
				"energy": -0.28827,
				"method": "rhf"
			},
			{
				"type": "occ",
				"energy": -0.26934,
				"method": "rhf"
			},
			{
				"type": "unocc",
				"energy": 0.01338,
				"method": "rhf"
			},
			{
				"type": "unocc",
				"energy": 0.06341,
				"method": "rhf"
			},
			{
				"type": "unocc",
				"energy": 0.09929,
				"method": "rhf"
			},
			{
				"type": "unocc",
				"energy": 0.12256,
				"method": "rhf"
			},
			{
				"type": "unocc",
				"energy": 0.13317,
				"method": "rhf"
			}
		],
		"cosmo_sigma_profile": { 
			"-0.025": 0.0,
			"-0.024": 0.0,
			"-0.023": 0.0,
			"-0.022": 0.0,
			"-0.021": 0.0,
			"-0.02": 0.0,
			"-0.019": 0.0,
			"-0.018": 0.0,
			"-0.017": 0.0,
			"-0.016": 0.0,
			"-0.015": 0.0,
			"-0.014": 0.33813077714,
			"-0.013": 0.444451792186,
			"-0.012": 0.441060174406,
			"-0.011": 0.959760411281,
			"-0.01": 0.57436189879,
			"-0.009": 0.79900880857,
			"-0.008": 0.439247261433,
			"-0.007": 5.98474207768,
			"-0.006": 11.4514252806,
			"-0.005": 15.5215328841,
			"-0.004": 13.3080033504,
			"-0.003": 12.2190961497,
			"-0.002": 8.02863254897,
			"-0.001": 4.8677685303,
			"0.0": 3.33876048915,
			"0.001": 2.9810462558,
			"0.002": 4.14153312444,
			"0.003": 3.24165217626,
			"0.004": 3.29097877622,
			"0.005": 3.44209637206,
			"0.006": 3.12184915923,
			"0.007": 2.53871423452,
			"0.008": 2.72222393377,
			"0.009": 3.83751716572,
			"0.01": 5.0566347496,
			"0.011": 4.21868626815,
			"0.012": 5.83482654165,
			"0.013": 2.14353951076,
			"0.014": 0.0849845150829,
			"0.015": 0.0,
			"0.016": 0.0,
			"0.017": 0.0,
			"0.018": 0.0,
			"0.019": 0.0,
			"0.02": 0.0,
			"0.021": 0.0,
			"0.022": 0.0,
			"0.023": 0.0,
			"0.024": 0.0,
			"0.025": 0.0
		}
	}
}
