{
	 "smiles": "CC1CCC2=C(N1)C=C(CCC(C)=O)C(=C2)[N+]([O-])=O", 
	 "Tm": 368.15, 
	 "num_atms": 37, 
	 "gaussian": { 
		 "optdone": 1, 
		 "sigma_profile": "yes", 
		 "theory": "DFT", 
		 "functional": "B3LYP", 
		 "basiset": "6-31G**", 
		 "properties": { 
			 "R2extent": 6738.2601, 
			 "electric_dipole_moment_norm": 8.68900371562, 
			 "electric_quadrupole_moment_norm": 31.1135365221, 
			 "total_energy": -879.435652175, 
			 "HOMO_LUMO_gap": 0.15003, 
			 "cosmo_polarized_energy": -21.92, 
			 "cosmo_cavitation_energy": 39.08, 
			 "cosmo_dispersion_energy": -27.28, 
			 "cosmo_repulsion_energy": 2.13, 
			 "cosmo_total_nonelectrostatic_energy": 13.93, 
			 "SMD_solvation_energy": 8.02 
		},
		"coords": [
			{
				"x": 2.8154700956,
				"y": 3.0469585795,
				"z": 2.1202525133,
				"element": "C" 
			},
			{
				"x": 1.3418846431,
				"y": 2.7952911723,
				"z": 2.4823145606,
				"element": "C" 
			},
			{
				"x": 1.1616420064,
				"y": 1.9981468666,
				"z": 3.7854720904,
				"element": "C" 
			},
			{
				"x": 1.6140868911,
				"y": 0.5397752461,
				"z": 3.6246328733,
				"element": "C" 
			},
			{
				"x": 1.0085393826,
				"y": -0.0915853711,
				"z": 2.3886905286,
				"element": "C" 
			},
			{
				"x": 0.564979522,
				"y": 0.7273328759,
				"z": 1.3217527962,
				"element": "C" 
			},
			{
				"x": 0.6162175529,
				"y": 2.1020878352,
				"z": 1.4174943068,
				"element": "N" 
			},
			{
				"x": 0.0250241868,
				"y": 0.1180655117,
				"z": 0.1731474492,
				"element": "C" 
			},
			{
				"x": -0.0837519332,
				"y": -1.2633379425,
				"z": 0.0166897072,
				"element": "C" 
			},
			{
				"x": -0.7508995447,
				"y": -1.7833319185,
				"z": -1.2469696234,
				"element": "C" 
			},
			{
				"x": -2.2336268877,
				"y": -1.3914646968,
				"z": -1.3565906475,
				"element": "C" 
			},
			{
				"x": -3.1315920187,
				"y": -2.0707833593,
				"z": -0.3266914284,
				"element": "C" 
			},
			{
				"x": -4.5839160683,
				"y": -1.6244498496,
				"z": -0.2971825481,
				"element": "C" 
			},
			{
				"x": -2.7112302609,
				"y": -2.9251969075,
				"z": 0.4291016808,
				"element": "O" 
			},
			{
				"x": 0.3824207285,
				"y": -2.0552906838,
				"z": 1.0869793259,
				"element": "C" 
			},
			{
				"x": 0.8919620435,
				"y": -1.4653287148,
				"z": 2.2490421515,
				"element": "C" 
			},
			{
				"x": 0.3971664602,
				"y": -3.5173491824,
				"z": 1.0630619681,
				"element": "N" 
			},
			{
				"x": 0.4917520048,
				"y": -4.0966902383,
				"z": -0.0234116106,
				"element": "O" 
			},
			{
				"x": 0.368432896,
				"y": -4.1044643273,
				"z": 2.1473252728,
				"element": "O" 
			},
			{
				"x": 3.3203092642,
				"y": 3.6048969664,
				"z": 2.9165853633,
				"element": "H" 
			},
			{
				"x": 3.3549633238,
				"y": 2.1085852202,
				"z": 1.9610552063,
				"element": "H" 
			},
			{
				"x": 2.8924785033,
				"y": 3.6345259341,
				"z": 1.1991055817,
				"element": "H" 
			},
			{
				"x": 0.853748037,
				"y": 3.7698168947,
				"z": 2.6119063896,
				"element": "H" 
			},
			{
				"x": 0.1009702533,
				"y": 2.0224057376,
				"z": 4.0598999342,
				"element": "H" 
			},
			{
				"x": 1.7184409814,
				"y": 2.4869875961,
				"z": 4.5913889315,
				"element": "H" 
			},
			{
				"x": 1.3384561552,
				"y": -0.0386017716,
				"z": 4.5132091778,
				"element": "H" 
			},
			{
				"x": 2.710501306,
				"y": 0.4964965395,
				"z": 3.5662189118,
				"element": "H" 
			},
			{
				"x": 0.4789220656,
				"y": 2.6145154457,
				"z": 0.558307576,
				"element": "H" 
			},
			{
				"x": -0.3317744701,
				"y": 0.7610357079,
				"z": -0.6295242939,
				"element": "H" 
			},
			{
				"x": -0.6597498472,
				"y": -2.8640511356,
				"z": -1.3021829625,
				"element": "H" 
			},
			{
				"x": -0.220150528,
				"y": -1.3677431993,
				"z": -2.1119987997,
				"element": "H" 
			},
			{
				"x": -2.6135619135,
				"y": -1.6677273941,
				"z": -2.3510154054,
				"element": "H" 
			},
			{
				"x": -2.380037003,
				"y": -0.305432885,
				"z": -1.2846117564,
				"element": "H" 
			},
			{
				"x": -5.02507657,
				"y": -1.6441207636,
				"z": -1.2999608777,
				"element": "H" 
			},
			{
				"x": -4.6468647733,
				"y": -0.5891901887,
				"z": 0.0596397281,
				"element": "H" 
			},
			{
				"x": -5.153571604,
				"y": -2.2695916856,
				"z": 0.3729908745,
				"element": "H" 
			},
			{
				"x": 1.2135351191,
				"y": -2.1214919141,
				"z": 3.049875054,
				"element": "H" 
			}
		],
		 "valence_orbital": [ 
			{
				"type": "occ",
				"energy": -0.27699,
				"method": "rhf"
			},
			{
				"type": "occ",
				"energy": -0.2597,
				"method": "rhf"
			},
			{
				"type": "occ",
				"energy": -0.2501,
				"method": "rhf"
			},
			{
				"type": "occ",
				"energy": -0.2404,
				"method": "rhf"
			},
			{
				"type": "occ",
				"energy": -0.20511,
				"method": "rhf"
			},
			{
				"type": "unocc",
				"energy": -0.05508,
				"method": "rhf"
			},
			{
				"type": "unocc",
				"energy": -0.0116,
				"method": "rhf"
			},
			{
				"type": "unocc",
				"energy": -0.00935,
				"method": "rhf"
			},
			{
				"type": "unocc",
				"energy": 0.0276,
				"method": "rhf"
			},
			{
				"type": "unocc",
				"energy": 0.06075,
				"method": "rhf"
			}
		],
		"cosmo_sigma_profile": { 
			"-0.025": 0.0,
			"-0.024": 0.0,
			"-0.023": 0.0,
			"-0.022": 0.0,
			"-0.021": 0.0,
			"-0.02": 0.0,
			"-0.019": 0.0,
			"-0.018": 0.0,
			"-0.017": 0.0,
			"-0.016": 0.0,
			"-0.015": 0.0,
			"-0.014": 0.167076603197,
			"-0.013": 1.3592430102,
			"-0.012": 1.49617141697,
			"-0.011": 1.44938494317,
			"-0.01": 1.63106061898,
			"-0.009": 1.20911989401,
			"-0.008": 1.74183761428,
			"-0.007": 3.02576469705,
			"-0.006": 14.3817809891,
			"-0.005": 17.6177385692,
			"-0.004": 29.3097222749,
			"-0.003": 37.0086375304,
			"-0.002": 34.2110715261,
			"-0.001": 30.9703545228,
			"0.0": 22.2716320448,
			"0.001": 14.645661676,
			"0.002": 8.90718838345,
			"0.003": 12.2138601095,
			"0.004": 12.8385400293,
			"0.005": 7.97044948923,
			"0.006": 7.22348895931,
			"0.007": 7.5068523263,
			"0.008": 9.10532248204,
			"0.009": 12.0567896576,
			"0.01": 6.57720511567,
			"0.011": 5.61996059355,
			"0.012": 2.61449303803,
			"0.013": 1.25372038575,
			"0.014": 0.0595502681598,
			"0.015": 0.0,
			"0.016": 0.0,
			"0.017": 0.0,
			"0.018": 0.0,
			"0.019": 0.0,
			"0.02": 0.0,
			"0.021": 0.0,
			"0.022": 0.0,
			"0.023": 0.0,
			"0.024": 0.0,
			"0.025": 0.0
		}
	}
}
