{
	 "smiles": "COC1=C(C=O)C(N)=NC=N1", 
	 "Tm": 471.15, 
	 "num_atms": 18, 
	 "gaussian": { 
		 "optdone": 1, 
		 "sigma_profile": "yes", 
		 "theory": "DFT", 
		 "functional": "B3LYP", 
		 "basiset": "6-31G**", 
		 "properties": { 
			 "R2extent": 1799.4884, 
			 "electric_dipole_moment_norm": 1.52942953417, 
			 "electric_quadrupole_moment_norm": 10.7115605068, 
			 "total_energy": -547.568031394, 
			 "HOMO_LUMO_gap": 0.18011, 
			 "cosmo_polarized_energy": -9.61, 
			 "cosmo_cavitation_energy": 22.43, 
			 "cosmo_dispersion_energy": -17.06, 
			 "cosmo_repulsion_energy": 1.37, 
			 "cosmo_total_nonelectrostatic_energy": 6.74, 
			 "SMD_solvation_energy": 3.42 
		},
		"coords": [
			{
				"x": 1.4116102294,
				"y": -1.5974111615,
				"z": 2.2807292882,
				"element": "C" 
			},
			{
				"x": 1.1138862801,
				"y": -1.5759706886,
				"z": 0.875430618,
				"element": "O" 
			},
			{
				"x": 0.6076536693,
				"y": -0.4451423949,
				"z": 0.3644335151,
				"element": "C" 
			},
			{
				"x": 0.3160048329,
				"y": -0.4301256321,
				"z": -1.019685138,
				"element": "C" 
			},
			{
				"x": 0.543794671,
				"y": -1.5776349595,
				"z": -1.8814115285,
				"element": "C" 
			},
			{
				"x": 0.3023053048,
				"y": -1.6023119146,
				"z": -3.0906553406,
				"element": "O" 
			},
			{
				"x": -0.2203936332,
				"y": 0.7994616083,
				"z": -1.5083908325,
				"element": "C" 
			},
			{
				"x": -0.5409968686,
				"y": 0.9491075171,
				"z": -2.801298371,
				"element": "N" 
			},
			{
				"x": -0.427466449,
				"y": 1.8631595028,
				"z": -0.6908402444,
				"element": "N" 
			},
			{
				"x": -0.1032040134,
				"y": 1.6889753377,
				"z": 0.5795139537,
				"element": "C" 
			},
			{
				"x": 0.4061086313,
				"y": 0.5946339241,
				"z": 1.1699590056,
				"element": "N" 
			},
			{
				"x": 0.5105123765,
				"y": -1.4182234866,
				"z": 2.8715768913,
				"element": "H" 
			},
			{
				"x": 2.1551991465,
				"y": -0.8376775899,
				"z": 2.5319043206,
				"element": "H" 
			},
			{
				"x": 1.8036862836,
				"y": -2.5966432366,
				"z": 2.4712456055,
				"element": "H" 
			},
			{
				"x": 0.9624196405,
				"y": -2.4700965441,
				"z": -1.3850149699,
				"element": "H" 
			},
			{
				"x": -0.3912719859,
				"y": 0.1621751914,
				"z": -3.4254817329,
				"element": "H" 
			},
			{
				"x": -0.9161369981,
				"y": 1.8355246472,
				"z": -3.0996951849,
				"element": "H" 
			},
			{
				"x": -0.2690111177,
				"y": 2.5418998796,
				"z": 1.2365801449,
				"element": "H" 
			}
		],
		 "valence_orbital": [ 
			{
				"type": "occ",
				"energy": -0.31326,
				"method": "rhf"
			},
			{
				"type": "occ",
				"energy": -0.26723,
				"method": "rhf"
			},
			{
				"type": "occ",
				"energy": -0.26676,
				"method": "rhf"
			},
			{
				"type": "occ",
				"energy": -0.2552,
				"method": "rhf"
			},
			{
				"type": "occ",
				"energy": -0.24272,
				"method": "rhf"
			},
			{
				"type": "unocc",
				"energy": -0.06261,
				"method": "rhf"
			},
			{
				"type": "unocc",
				"energy": -0.00327,
				"method": "rhf"
			},
			{
				"type": "unocc",
				"energy": 0.02564,
				"method": "rhf"
			},
			{
				"type": "unocc",
				"energy": 0.09623,
				"method": "rhf"
			},
			{
				"type": "unocc",
				"energy": 0.11067,
				"method": "rhf"
			}
		],
		"cosmo_sigma_profile": { 
			"-0.025": 0.0,
			"-0.024": 0.0,
			"-0.023": 0.0,
			"-0.022": 0.0,
			"-0.021": 0.0,
			"-0.02": 0.0,
			"-0.019": 0.0,
			"-0.018": 0.0,
			"-0.017": 0.0,
			"-0.016": 0.0,
			"-0.015": 0.252271263215,
			"-0.014": 1.15431862027,
			"-0.013": 0.887633429158,
			"-0.012": 0.930845314563,
			"-0.011": 0.809785313841,
			"-0.01": 2.00699451234,
			"-0.009": 1.60062396648,
			"-0.008": 2.4275879631,
			"-0.007": 4.03617974484,
			"-0.006": 7.97405317639,
			"-0.005": 10.6133348141,
			"-0.004": 13.2346532313,
			"-0.003": 15.3049375466,
			"-0.002": 16.2739631021,
			"-0.001": 18.1137657655,
			"0.0": 14.407561828,
			"0.001": 10.3515211202,
			"0.002": 10.0952069174,
			"0.003": 7.50850234154,
			"0.004": 6.20891196152,
			"0.005": 5.78558398511,
			"0.006": 4.71626286428,
			"0.007": 3.19698925646,
			"0.008": 3.69302926989,
			"0.009": 3.65705043543,
			"0.01": 3.99890130834,
			"0.011": 3.63996368135,
			"0.012": 3.3442499956,
			"0.013": 2.21718353882,
			"0.014": 0.813675080808,
			"0.015": 0.255760058408,
			"0.016": 0.0,
			"0.017": 0.0,
			"0.018": 0.0,
			"0.019": 0.0,
			"0.02": 0.0,
			"0.021": 0.0,
			"0.022": 0.0,
			"0.023": 0.0,
			"0.024": 0.0,
			"0.025": 0.0
		}
	}
}
