{
	 "smiles": "CCNS(=O)(=O)C1=C(OC)C=CC(C=CC(O)=O)=C1", 
	 "Tm": 472.15, 
	 "num_atms": 34, 
	 "gaussian": { 
		 "optdone": 1, 
		 "sigma_profile": "yes", 
		 "theory": "DFT", 
		 "functional": "B3LYP", 
		 "basiset": "6-31G**", 
		 "properties": { 
			 "R2extent": 7809.6207, 
			 "electric_dipole_moment_norm": 3.78161595221, 
			 "electric_quadrupole_moment_norm": 17.9365689548, 
			 "total_energy": -1295.29685472, 
			 "HOMO_LUMO_gap": 0.16567, 
			 "cosmo_polarized_energy": -19.98, 
			 "cosmo_cavitation_energy": 39.81, 
			 "cosmo_dispersion_energy": -28.31, 
			 "cosmo_repulsion_energy": 2.16, 
			 "cosmo_total_nonelectrostatic_energy": 13.66, 
			 "SMD_solvation_energy": 7.72 
		},
		"coords": [
			{
				"x": -1.6621360334,
				"y": -1.1247269619,
				"z": 4.4183501149,
				"element": "C" 
			},
			{
				"x": -1.7210672411,
				"y": -1.5633210602,
				"z": 2.9576168682,
				"element": "C" 
			},
			{
				"x": -0.3814875427,
				"y": -1.4134165239,
				"z": 2.3535558059,
				"element": "N" 
			},
			{
				"x": -0.1527983416,
				"y": -1.7993934675,
				"z": 0.7300346584,
				"element": "S" 
			},
			{
				"x": 1.1669535392,
				"y": -2.4402466513,
				"z": 0.664052824,
				"element": "O" 
			},
			{
				"x": -1.3437866448,
				"y": -2.4647407294,
				"z": 0.1905336472,
				"element": "O" 
			},
			{
				"x": 0.0122541143,
				"y": -0.2046557536,
				"z": -0.0944165321,
				"element": "C" 
			},
			{
				"x": -1.0857670024,
				"y": 0.6616477921,
				"z": -0.2419441365,
				"element": "C" 
			},
			{
				"x": -2.2851877728,
				"y": 0.3650910234,
				"z": 0.3455483826,
				"element": "O" 
			},
			{
				"x": -3.3311131487,
				"y": -0.0491059733,
				"z": -0.5504118394,
				"element": "C" 
			},
			{
				"x": -0.9103140783,
				"y": 1.857766508,
				"z": -0.9422376307,
				"element": "C" 
			},
			{
				"x": 0.3311467888,
				"y": 2.1797265028,
				"z": -1.4810975699,
				"element": "C" 
			},
			{
				"x": 1.4368693688,
				"y": 1.3222969071,
				"z": -1.3379412253,
				"element": "C" 
			},
			{
				"x": 2.718061722,
				"y": 1.7128901249,
				"z": -1.9238673405,
				"element": "C" 
			},
			{
				"x": 3.8783872387,
				"y": 1.032724123,
				"z": -1.89403889,
				"element": "C" 
			},
			{
				"x": 5.0732885844,
				"y": 1.5975391205,
				"z": -2.5501840885,
				"element": "C" 
			},
			{
				"x": 6.1463924256,
				"y": 0.7761650335,
				"z": -2.419093885,
				"element": "O" 
			},
			{
				"x": 5.1340403197,
				"y": 2.6587603639,
				"z": -3.143025706,
				"element": "O" 
			},
			{
				"x": 1.2524723611,
				"y": 0.1201495785,
				"z": -0.6308106722,
				"element": "C" 
			},
			{
				"x": -0.973742493,
				"y": -1.7506433098,
				"z": 4.9980933709,
				"element": "H" 
			},
			{
				"x": -2.6523253831,
				"y": -1.213923424,
				"z": 4.8752731849,
				"element": "H" 
			},
			{
				"x": -1.332251098,
				"y": -0.0854783273,
				"z": 4.5022004275,
				"element": "H" 
			},
			{
				"x": -2.0857626282,
				"y": -2.5949534677,
				"z": 2.8768541186,
				"element": "H" 
			},
			{
				"x": -2.4019846226,
				"y": -0.9237161652,
				"z": 2.3948313317,
				"element": "H" 
			},
			{
				"x": 0.356367638,
				"y": -1.8903056716,
				"z": 2.8673296587,
				"element": "H" 
			},
			{
				"x": -4.2330435172,
				"y": -0.133887163,
				"z": 0.0573591301,
				"element": "H" 
			},
			{
				"x": -3.4921530808,
				"y": 0.6953270924,
				"z": -1.3383250838,
				"element": "H" 
			},
			{
				"x": -3.0860149264,
				"y": -1.020639221,
				"z": -0.9883868275,
				"element": "H" 
			},
			{
				"x": -1.75172928,
				"y": 2.5363553207,
				"z": -1.0396027863,
				"element": "H" 
			},
			{
				"x": 0.4538414088,
				"y": 3.1165289683,
				"z": -2.0176434586,
				"element": "H" 
			},
			{
				"x": 2.7334762031,
				"y": 2.6681487565,
				"z": -2.4466351589,
				"element": "H" 
			},
			{
				"x": 3.9948466152,
				"y": 0.0704804714,
				"z": -1.4068267916,
				"element": "H" 
			},
			{
				"x": 6.8793563777,
				"y": 1.2208588571,
				"z": -2.8760485072,
				"element": "H" 
			},
			{
				"x": 2.0657101295,
				"y": -0.5837026733,
				"z": -0.4968953937,
				"element": "H" 
			}
		],
		 "valence_orbital": [ 
			{
				"type": "occ",
				"energy": -0.29449,
				"method": "rhf"
			},
			{
				"type": "occ",
				"energy": -0.28384,
				"method": "rhf"
			},
			{
				"type": "occ",
				"energy": -0.27437,
				"method": "rhf"
			},
			{
				"type": "occ",
				"energy": -0.26497,
				"method": "rhf"
			},
			{
				"type": "occ",
				"energy": -0.24007,
				"method": "rhf"
			},
			{
				"type": "unocc",
				"energy": -0.0744,
				"method": "rhf"
			},
			{
				"type": "unocc",
				"energy": -0.03892,
				"method": "rhf"
			},
			{
				"type": "unocc",
				"energy": 0.00542,
				"method": "rhf"
			},
			{
				"type": "unocc",
				"energy": 0.05501,
				"method": "rhf"
			},
			{
				"type": "unocc",
				"energy": 0.06598,
				"method": "rhf"
			}
		],
		"cosmo_sigma_profile": { 
			"-0.025": 0.0,
			"-0.024": 0.0,
			"-0.023": 0.0,
			"-0.022": 0.0,
			"-0.021": 0.0,
			"-0.02": 0.0,
			"-0.019": 0.015108003937,
			"-0.018": 0.596586930168,
			"-0.017": 0.9731449414,
			"-0.016": 1.04860914322,
			"-0.015": 0.363456264362,
			"-0.014": 0.924656614571,
			"-0.013": 1.3299332055,
			"-0.012": 2.5318732247,
			"-0.011": 1.91000813119,
			"-0.01": 1.65211325485,
			"-0.009": 2.5254654997,
			"-0.008": 7.79933573302,
			"-0.007": 11.2951282986,
			"-0.006": 12.6020905099,
			"-0.005": 14.5360959624,
			"-0.004": 20.2660275398,
			"-0.003": 26.1517221173,
			"-0.002": 26.5591695133,
			"-0.001": 25.0734006259,
			"0.0": 27.981048124,
			"0.001": 28.9130271419,
			"0.002": 17.5262152943,
			"0.003": 10.2508762696,
			"0.004": 8.83234943116,
			"0.005": 7.0383628025,
			"0.006": 7.39346409646,
			"0.007": 7.51445246225,
			"0.008": 6.69395202028,
			"0.009": 8.24239438093,
			"0.01": 8.4644956176,
			"0.011": 10.0506170756,
			"0.012": 8.00236678702,
			"0.013": 0.921644403526,
			"0.014": 0.0,
			"0.015": 0.0,
			"0.016": 0.0,
			"0.017": 0.0,
			"0.018": 0.0,
			"0.019": 0.0,
			"0.02": 0.0,
			"0.021": 0.0,
			"0.022": 0.0,
			"0.023": 0.0,
			"0.024": 0.0,
			"0.025": 0.0
		}
	}
}
