{
	 "smiles": "OC(=O)C1CSC(=N1)C1=CN=CC=C1", 
	 "Tm": 453.15, 
	 "num_atms": 22, 
	 "gaussian": { 
		 "optdone": 1, 
		 "sigma_profile": "yes", 
		 "theory": "DFT", 
		 "functional": "B3LYP", 
		 "basiset": "6-31G**", 
		 "properties": { 
			 "R2extent": 3616.2119, 
			 "electric_dipole_moment_norm": 2.63088977534, 
			 "electric_quadrupole_moment_norm": 10.0260865501, 
			 "total_energy": -1005.91481906, 
			 "HOMO_LUMO_gap": 0.17776, 
			 "cosmo_polarized_energy": -14.28, 
			 "cosmo_cavitation_energy": 28.23, 
			 "cosmo_dispersion_energy": -21.21, 
			 "cosmo_repulsion_energy": 1.62, 
			 "cosmo_total_nonelectrostatic_energy": 8.65, 
			 "SMD_solvation_energy": 2.21 
		},
		"coords": [
			{
				"x": 2.256034492,
				"y": -0.3283920905,
				"z": 3.1644787673,
				"element": "O" 
			},
			{
				"x": 1.6160426121,
				"y": 0.832883492,
				"z": 2.93936498,
				"element": "C" 
			},
			{
				"x": 1.0607978766,
				"y": 1.4647419804,
				"z": 3.8108754829,
				"element": "O" 
			},
			{
				"x": 1.7258594205,
				"y": 1.2908853738,
				"z": 1.4741868266,
				"element": "C" 
			},
			{
				"x": 0.6465951101,
				"y": 2.3504772138,
				"z": 1.1368246108,
				"element": "C" 
			},
			{
				"x": -0.6374849844,
				"y": 1.4434513404,
				"z": 0.1901594013,
				"element": "S" 
			},
			{
				"x": 0.5440039234,
				"y": 0.1093316894,
				"z": -0.0796500268,
				"element": "C" 
			},
			{
				"x": 1.648902945,
				"y": 0.1578399509,
				"z": 0.5617140948,
				"element": "N" 
			},
			{
				"x": 0.2105271536,
				"y": -0.9999226774,
				"z": -0.9931474513,
				"element": "C" 
			},
			{
				"x": -0.9090690985,
				"y": -0.9669528395,
				"z": -1.8371526435,
				"element": "C" 
			},
			{
				"x": -1.2427701914,
				"y": -1.9549443447,
				"z": -2.673245923,
				"element": "N" 
			},
			{
				"x": -0.4487877622,
				"y": -3.0317432949,
				"z": -2.6999636429,
				"element": "C" 
			},
			{
				"x": 0.695294409,
				"y": -3.1689031045,
				"z": -1.9080780168,
				"element": "C" 
			},
			{
				"x": 1.0300656967,
				"y": -2.1383085995,
				"z": -1.0392032064,
				"element": "C" 
			},
			{
				"x": 2.15588645,
				"y": -0.5100522068,
				"z": 4.114737583,
				"element": "H" 
			},
			{
				"x": 2.7249992746,
				"y": 1.7399191457,
				"z": 1.3906739645,
				"element": "H" 
			},
			{
				"x": 1.0499578479,
				"y": 3.1484579798,
				"z": 0.5107703249,
				"element": "H" 
			},
			{
				"x": 0.2162011632,
				"y": 2.772530918,
				"z": 2.0450073499,
				"element": "H" 
			},
			{
				"x": -1.5633652927,
				"y": -0.0969155615,
				"z": -1.8451779426,
				"element": "H" 
			},
			{
				"x": -0.7404991729,
				"y": -3.8242796226,
				"z": -3.3869102631,
				"element": "H" 
			},
			{
				"x": 1.3023019751,
				"y": -4.0663957854,
				"z": -1.9727495667,
				"element": "H" 
			},
			{
				"x": 1.9015061524,
				"y": -2.1871089569,
				"z": -0.395214703,
				"element": "H" 
			}
		],
		 "valence_orbital": [ 
			{
				"type": "occ",
				"energy": -0.28893,
				"method": "rhf"
			},
			{
				"type": "occ",
				"energy": -0.27652,
				"method": "rhf"
			},
			{
				"type": "occ",
				"energy": -0.26369,
				"method": "rhf"
			},
			{
				"type": "occ",
				"energy": -0.262,
				"method": "rhf"
			},
			{
				"type": "occ",
				"energy": -0.23864,
				"method": "rhf"
			},
			{
				"type": "unocc",
				"energy": -0.06088,
				"method": "rhf"
			},
			{
				"type": "unocc",
				"energy": -0.02823,
				"method": "rhf"
			},
			{
				"type": "unocc",
				"energy": -0.0051,
				"method": "rhf"
			},
			{
				"type": "unocc",
				"energy": 0.00889,
				"method": "rhf"
			},
			{
				"type": "unocc",
				"energy": 0.03216,
				"method": "rhf"
			}
		],
		"cosmo_sigma_profile": { 
			"-0.025": 0.0,
			"-0.024": 0.0,
			"-0.023": 0.0,
			"-0.022": 0.0,
			"-0.021": 0.0,
			"-0.02": 0.0,
			"-0.019": 0.503282385475,
			"-0.018": 0.921054615546,
			"-0.017": 1.02571349171,
			"-0.016": 0.93359596791,
			"-0.015": 0.470270143263,
			"-0.014": 0.488753660562,
			"-0.013": 0.246547949072,
			"-0.012": 0.967260257774,
			"-0.011": 1.26070731737,
			"-0.01": 0.67462936483,
			"-0.009": 2.15786367492,
			"-0.008": 4.4918868415,
			"-0.007": 11.7488781153,
			"-0.006": 14.190041519,
			"-0.005": 12.7498396246,
			"-0.004": 14.2955904149,
			"-0.003": 14.7752689311,
			"-0.002": 9.76286790737,
			"-0.001": 16.1691225875,
			"0.0": 18.690216358,
			"0.001": 21.8661334219,
			"0.002": 13.8195386502,
			"0.003": 9.33801604699,
			"0.004": 9.49406402512,
			"0.005": 5.74203886155,
			"0.006": 5.62629847629,
			"0.007": 6.94041886331,
			"0.008": 6.01802997205,
			"0.009": 4.19770929632,
			"0.01": 4.69477676205,
			"0.011": 7.2377310086,
			"0.012": 2.94555634774,
			"0.013": 1.61348854124,
			"0.014": 0.78505921526,
			"0.015": 0.771233660234,
			"0.016": 0.703908655477,
			"0.017": 0.0287286760389,
			"0.018": 0.0,
			"0.019": 0.0,
			"0.02": 0.0,
			"0.021": 0.0,
			"0.022": 0.0,
			"0.023": 0.0,
			"0.024": 0.0,
			"0.025": 0.0
		}
	}
}
