{
	 "smiles": "OC(=O)C1=C2C=CC=CC2=NC(=C1)C1CC1", 
	 "Tm": 482.15, 
	 "num_atms": 27, 
	 "gaussian": { 
		 "optdone": 1, 
		 "sigma_profile": "yes", 
		 "theory": "DFT", 
		 "functional": "B3LYP", 
		 "basiset": "6-31G**", 
		 "properties": { 
			 "R2extent": 4191.6261, 
			 "electric_dipole_moment_norm": 3.4614440007, 
			 "electric_quadrupole_moment_norm": 16.3547402288, 
			 "total_energy": -707.202121431, 
			 "HOMO_LUMO_gap": 0.16256, 
			 "cosmo_polarized_energy": -13.28, 
			 "cosmo_cavitation_energy": 30.94, 
			 "cosmo_dispersion_energy": -22.58, 
			 "cosmo_repulsion_energy": 1.74, 
			 "cosmo_total_nonelectrostatic_energy": 10.1, 
			 "SMD_solvation_energy": 4.82 
		},
		"coords": [
			{
				"x": 2.5027947268,
				"y": 2.222093714,
				"z": 1.8540537027,
				"element": "O" 
			},
			{
				"x": 1.6921570921,
				"y": 2.1288826007,
				"z": 0.7664898415,
				"element": "C" 
			},
			{
				"x": 1.8401569619,
				"y": 2.8792381369,
				"z": -0.1666411885,
				"element": "O" 
			},
			{
				"x": 0.5978310117,
				"y": 1.0950431118,
				"z": 0.8295684032,
				"element": "C" 
			},
			{
				"x": 0.740254094,
				"y": -0.2037154979,
				"z": 1.4164895243,
				"element": "C" 
			},
			{
				"x": 1.9561066856,
				"y": -0.7508685963,
				"z": 1.9158163769,
				"element": "C" 
			},
			{
				"x": 1.9870214062,
				"y": -2.0158532405,
				"z": 2.4630970592,
				"element": "C" 
			},
			{
				"x": 0.81086627,
				"y": -2.7985287748,
				"z": 2.534749617,
				"element": "C" 
			},
			{
				"x": -0.3749541349,
				"y": -2.3113010258,
				"z": 2.0348949427,
				"element": "C" 
			},
			{
				"x": -0.4427956859,
				"y": -1.016499306,
				"z": 1.4539131755,
				"element": "C" 
			},
			{
				"x": -1.6401935732,
				"y": -0.6134071948,
				"z": 0.9478863887,
				"element": "N" 
			},
			{
				"x": -1.7279732838,
				"y": 0.5717166997,
				"z": 0.3665181181,
				"element": "C" 
			},
			{
				"x": -0.6153744138,
				"y": 1.4539907552,
				"z": 0.2861066772,
				"element": "C" 
			},
			{
				"x": -3.038253243,
				"y": 0.9812424384,
				"z": -0.2016396285,
				"element": "C" 
			},
			{
				"x": -4.3230523569,
				"y": 0.5438083219,
				"z": 0.4848785424,
				"element": "C" 
			},
			{
				"x": -3.9445894173,
				"y": -0.0690033411,
				"z": -0.8246068575,
				"element": "C" 
			},
			{
				"x": 2.1884360596,
				"y": 1.6307292663,
				"z": 2.5539445357,
				"element": "H" 
			},
			{
				"x": 2.8788726681,
				"y": -0.1860082054,
				"z": 1.83108549,
				"element": "H" 
			},
			{
				"x": 2.9255865008,
				"y": -2.419107931,
				"z": 2.8312596905,
				"element": "H" 
			},
			{
				"x": 0.8516943391,
				"y": -3.7916745582,
				"z": 2.9720521401,
				"element": "H" 
			},
			{
				"x": -1.2892325272,
				"y": -2.8951727977,
				"z": 2.054533089,
				"element": "H" 
			},
			{
				"x": -0.7176827687,
				"y": 2.4249954248,
				"z": -0.1863938612,
				"element": "H" 
			},
			{
				"x": -3.0420353762,
				"y": 1.9642020402,
				"z": -0.6633271004,
				"element": "H" 
			},
			{
				"x": -4.1992746035,
				"y": -0.0642323073,
				"z": 1.37508083,
				"element": "H" 
			},
			{
				"x": -5.1396794489,
				"y": 1.2585763162,
				"z": 0.5155958184,
				"element": "H" 
			},
			{
				"x": -4.4942889449,
				"y": 0.2134198739,
				"z": -1.7171705972,
				"element": "H" 
			},
			{
				"x": -3.5674980377,
				"y": -1.0863659233,
				"z": -0.8093347297,
				"element": "H" 
			}
		],
		 "valence_orbital": [ 
			{
				"type": "occ",
				"energy": -0.30572,
				"method": "rhf"
			},
			{
				"type": "occ",
				"energy": -0.28199,
				"method": "rhf"
			},
			{
				"type": "occ",
				"energy": -0.26581,
				"method": "rhf"
			},
			{
				"type": "occ",
				"energy": -0.25354,
				"method": "rhf"
			},
			{
				"type": "occ",
				"energy": -0.23988,
				"method": "rhf"
			},
			{
				"type": "unocc",
				"energy": -0.07732,
				"method": "rhf"
			},
			{
				"type": "unocc",
				"energy": -0.02839,
				"method": "rhf"
			},
			{
				"type": "unocc",
				"energy": -0.01578,
				"method": "rhf"
			},
			{
				"type": "unocc",
				"energy": 0.03211,
				"method": "rhf"
			},
			{
				"type": "unocc",
				"energy": 0.07812,
				"method": "rhf"
			}
		],
		"cosmo_sigma_profile": { 
			"-0.025": 0.0,
			"-0.024": 0.0,
			"-0.023": 0.0,
			"-0.022": 0.0,
			"-0.021": 0.0,
			"-0.02": 0.0,
			"-0.019": 0.0,
			"-0.018": 0.269872288443,
			"-0.017": 0.337172450681,
			"-0.016": 1.17143699679,
			"-0.015": 0.677283568308,
			"-0.014": 0.742625058661,
			"-0.013": 1.2581683161,
			"-0.012": 0.664708622737,
			"-0.011": 1.09962589646,
			"-0.01": 1.31256283186,
			"-0.009": 0.778548092947,
			"-0.008": 1.86075073759,
			"-0.007": 5.8158780527,
			"-0.006": 13.0390754926,
			"-0.005": 17.0198290558,
			"-0.004": 19.7410665666,
			"-0.003": 16.4527524009,
			"-0.002": 14.2319968362,
			"-0.001": 17.8775998008,
			"0.0": 20.9905532568,
			"0.001": 18.9733459272,
			"0.002": 21.8639923092,
			"0.003": 20.6392758591,
			"0.004": 12.4653515211,
			"0.005": 5.51804210188,
			"0.006": 4.66285284241,
			"0.007": 3.83321664386,
			"0.008": 4.63203378764,
			"0.009": 4.66787917485,
			"0.01": 5.90459596749,
			"0.011": 5.85552199821,
			"0.012": 3.08530269629,
			"0.013": 0.214933355939,
			"0.014": 0.0,
			"0.015": 0.0,
			"0.016": 0.0,
			"0.017": 0.0,
			"0.018": 0.0,
			"0.019": 0.0,
			"0.02": 0.0,
			"0.021": 0.0,
			"0.022": 0.0,
			"0.023": 0.0,
			"0.024": 0.0,
			"0.025": 0.0
		}
	}
}
