{
	 "smiles": "CC(C)C1=CC(C(C)C)=C(C(=C1)C(C)C)S(Cl)(=O)=O", 
	 "Tm": 369.15, 
	 "num_atms": 42, 
	 "gaussian": { 
		 "optdone": 1, 
		 "sigma_profile": "yes", 
		 "theory": "DFT", 
		 "functional": "B3LYP", 
		 "basiset": "6-31G**", 
		 "properties": { 
			 "R2extent": 7282.1925, 
			 "electric_dipole_moment_norm": 5.652597985, 
			 "electric_quadrupole_moment_norm": 15.1320457322, 
			 "total_energy": -1594.24054706, 
			 "HOMO_LUMO_gap": 0.17377, 
			 "cosmo_polarized_energy": -8.28, 
			 "cosmo_cavitation_energy": 43.9, 
			 "cosmo_dispersion_energy": -29.61, 
			 "cosmo_repulsion_energy": 2.28, 
			 "cosmo_total_nonelectrostatic_energy": 16.57, 
			 "SMD_solvation_energy": 6.76 
		},
		"coords": [
			{
				"x": 1.4950641519,
				"y": 3.0097444918,
				"z": -1.5116248444,
				"element": "C" 
			},
			{
				"x": 1.9800255822,
				"y": 1.71280096,
				"z": -0.8360684401,
				"element": "C" 
			},
			{
				"x": 3.0367053556,
				"y": 2.0093664521,
				"z": 0.2452981454,
				"element": "C" 
			},
			{
				"x": 0.8175315627,
				"y": 0.9035975158,
				"z": -0.2811400512,
				"element": "C" 
			},
			{
				"x": -0.0051357107,
				"y": 1.4017137495,
				"z": 0.7280281193,
				"element": "C" 
			},
			{
				"x": -1.0908124894,
				"y": 0.6864691908,
				"z": 1.2383749385,
				"element": "C" 
			},
			{
				"x": -1.8546459572,
				"y": 1.3434164096,
				"z": 2.3973423117,
				"element": "C" 
			},
			{
				"x": -0.9027036336,
				"y": 1.7259986018,
				"z": 3.5487704415,
				"element": "C" 
			},
			{
				"x": -2.6662914398,
				"y": 2.5579535389,
				"z": 1.9084101083,
				"element": "C" 
			},
			{
				"x": -1.3666420067,
				"y": -0.5837021849,
				"z": 0.6592694162,
				"element": "C" 
			},
			{
				"x": -0.506310833,
				"y": -1.1840719531,
				"z": -0.3023720826,
				"element": "C" 
			},
			{
				"x": 0.5586136153,
				"y": -0.3835394101,
				"z": -0.7461948982,
				"element": "C" 
			},
			{
				"x": -0.5178065784,
				"y": -2.5946271952,
				"z": -0.9269148719,
				"element": "C" 
			},
			{
				"x": -1.5230308569,
				"y": -2.7652292262,
				"z": -2.0854572331,
				"element": "C" 
			},
			{
				"x": -0.5172456141,
				"y": -3.7652340662,
				"z": 0.0760686366,
				"element": "C" 
			},
			{
				"x": -2.9295995996,
				"y": -1.3606704794,
				"z": 1.1373723286,
				"element": "S" 
			},
			{
				"x": -2.4804762026,
				"y": -2.1345152227,
				"z": 3.1035297473,
				"element": "Cl" 
			},
			{
				"x": -3.2412055452,
				"y": -2.5357450663,
				"z": 0.336007914,
				"element": "O" 
			},
			{
				"x": -3.955309477,
				"y": -0.3388646691,
				"z": 1.3207836435,
				"element": "O" 
			},
			{
				"x": 0.7687966984,
				"y": 2.7993027736,
				"z": -2.3025691925,
				"element": "H" 
			},
			{
				"x": 1.0183540535,
				"y": 3.6813426652,
				"z": -0.7894275941,
				"element": "H" 
			},
			{
				"x": 2.3389444241,
				"y": 3.5466162246,
				"z": -1.9573894447,
				"element": "H" 
			},
			{
				"x": 2.4601768285,
				"y": 1.0972582528,
				"z": -1.6075417105,
				"element": "H" 
			},
			{
				"x": 3.4053271186,
				"y": 1.0874588751,
				"z": 0.7053274485,
				"element": "H" 
			},
			{
				"x": 3.8907665169,
				"y": 2.5382438757,
				"z": -0.1905317082,
				"element": "H" 
			},
			{
				"x": 2.6270565182,
				"y": 2.6403748826,
				"z": 1.0414204702,
				"element": "H" 
			},
			{
				"x": 0.2016935891,
				"y": 2.3816824653,
				"z": 1.1447476379,
				"element": "H" 
			},
			{
				"x": -2.5653588541,
				"y": 0.636633912,
				"z": 2.8164514957,
				"element": "H" 
			},
			{
				"x": -0.2000074348,
				"y": 2.5180927451,
				"z": 3.2710823444,
				"element": "H" 
			},
			{
				"x": -1.4898548837,
				"y": 2.0938318242,
				"z": 4.3964990434,
				"element": "H" 
			},
			{
				"x": -0.3233691303,
				"y": 0.8625671494,
				"z": 3.8894240274,
				"element": "H" 
			},
			{
				"x": -3.3925524479,
				"y": 2.2596075917,
				"z": 1.1487677414,
				"element": "H" 
			},
			{
				"x": -2.0169845868,
				"y": 3.3313378575,
				"z": 1.4831951713,
				"element": "H" 
			},
			{
				"x": -3.2138247532,
				"y": 3.0035120581,
				"z": 2.7454772508,
				"element": "H" 
			},
			{
				"x": 1.2242863867,
				"y": -0.80290911,
				"z": -1.4957955327,
				"element": "H" 
			},
			{
				"x": 0.4671997753,
				"y": -2.6482811924,
				"z": -1.4045107102,
				"element": "H" 
			},
			{
				"x": -2.5578275093,
				"y": -2.7508215268,
				"z": -1.7473932796,
				"element": "H" 
			},
			{
				"x": -1.3876317409,
				"y": -1.9738082127,
				"z": -2.8303729962,
				"element": "H" 
			},
			{
				"x": -1.3396656888,
				"y": -3.7247555894,
				"z": -2.5813678571,
				"element": "H" 
			},
			{
				"x": -1.4818093158,
				"y": -3.922261284,
				"z": 0.5549119312,
				"element": "H" 
			},
			{
				"x": -0.2567661562,
				"y": -4.68503474,
				"z": -0.458969736,
				"element": "H" 
			},
			{
				"x": 0.2385262689,
				"y": -3.6098529347,
				"z": 0.8529818704,
				"element": "H" 
			}
		],
		 "valence_orbital": [ 
			{
				"type": "occ",
				"energy": -0.31653,
				"method": "rhf"
			},
			{
				"type": "occ",
				"energy": -0.31026,
				"method": "rhf"
			},
			{
				"type": "occ",
				"energy": -0.30664,
				"method": "rhf"
			},
			{
				"type": "occ",
				"energy": -0.26841,
				"method": "rhf"
			},
			{
				"type": "occ",
				"energy": -0.2589,
				"method": "rhf"
			},
			{
				"type": "unocc",
				"energy": -0.08513,
				"method": "rhf"
			},
			{
				"type": "unocc",
				"energy": -0.03995,
				"method": "rhf"
			},
			{
				"type": "unocc",
				"energy": -0.02453,
				"method": "rhf"
			},
			{
				"type": "unocc",
				"energy": 0.05424,
				"method": "rhf"
			},
			{
				"type": "unocc",
				"energy": 0.07074,
				"method": "rhf"
			}
		],
		"cosmo_sigma_profile": { 
			"-0.025": 0.0,
			"-0.024": 0.0,
			"-0.023": 0.0,
			"-0.022": 0.0,
			"-0.021": 0.0,
			"-0.02": 0.0,
			"-0.019": 0.0,
			"-0.018": 0.0,
			"-0.017": 0.0,
			"-0.016": 0.0,
			"-0.015": 0.0,
			"-0.014": 0.0,
			"-0.013": 0.0,
			"-0.012": 0.0,
			"-0.011": 0.0,
			"-0.01": 0.0,
			"-0.009": 0.0,
			"-0.008": 0.0,
			"-0.007": 0.912844949945,
			"-0.006": 6.99174825663,
			"-0.005": 8.17647977081,
			"-0.004": 13.2592063367,
			"-0.003": 36.67239779,
			"-0.002": 41.5370659457,
			"-0.001": 47.5448484037,
			"0.0": 50.7815998948,
			"0.001": 56.675363993,
			"0.002": 28.7863281228,
			"0.003": 17.5160050583,
			"0.004": 12.7142286163,
			"0.005": 5.66373982586,
			"0.006": 4.56944857912,
			"0.007": 3.24169242962,
			"0.008": 5.15461193086,
			"0.009": 4.87022742098,
			"0.01": 0.390763542742,
			"0.011": 0.0,
			"0.012": 0.0,
			"0.013": 0.0,
			"0.014": 0.0,
			"0.015": 0.0,
			"0.016": 0.0,
			"0.017": 0.0,
			"0.018": 0.0,
			"0.019": 0.0,
			"0.02": 0.0,
			"0.021": 0.0,
			"0.022": 0.0,
			"0.023": 0.0,
			"0.024": 0.0,
			"0.025": 0.0
		}
	}
}
