{
	 "smiles": "NS(=O)(=O)C1=CC(=CC=C1)N1CC(CC1=O)C(O)=O", 
	 "Tm": 442.15, 
	 "num_atms": 31, 
	 "gaussian": { 
		 "optdone": 1, 
		 "sigma_profile": "yes", 
		 "theory": "DFT", 
		 "functional": "B3LYP", 
		 "basiset": "6-31G**", 
		 "properties": { 
			 "R2extent": 7582.1005, 
			 "electric_dipole_moment_norm": 4.36081690283, 
			 "electric_quadrupole_moment_norm": 20.8912673278, 
			 "total_energy": -1310.17626829, 
			 "HOMO_LUMO_gap": 0.19619, 
			 "cosmo_polarized_energy": -26.02, 
			 "cosmo_cavitation_energy": 36.64, 
			 "cosmo_dispersion_energy": -26.85, 
			 "cosmo_repulsion_energy": 2.04, 
			 "cosmo_total_nonelectrostatic_energy": 11.83, 
			 "SMD_solvation_energy": 7.07 
		},
		"coords": [
			{
				"x": 3.6632743239,
				"y": 0.0911384922,
				"z": 3.2367214799,
				"element": "N" 
			},
			{
				"x": 3.3749855835,
				"y": 1.565936062,
				"z": 2.4506456763,
				"element": "S" 
			},
			{
				"x": 2.1289291027,
				"y": 2.1358230325,
				"z": 2.9774873465,
				"element": "O" 
			},
			{
				"x": 4.6444394397,
				"y": 2.2967174639,
				"z": 2.4950910332,
				"element": "O" 
			},
			{
				"x": 3.0681680448,
				"y": 1.0720373557,
				"z": 0.7543830345,
				"element": "C" 
			},
			{
				"x": 1.7502551495,
				"y": 1.0307882966,
				"z": 0.3070342857,
				"element": "C" 
			},
			{
				"x": 1.4809125247,
				"y": 0.6487021254,
				"z": -1.0180562853,
				"element": "C" 
			},
			{
				"x": 2.5581849656,
				"y": 0.3190039951,
				"z": -1.8630346809,
				"element": "C" 
			},
			{
				"x": 3.8660357728,
				"y": 0.3819007507,
				"z": -1.3854600663,
				"element": "C" 
			},
			{
				"x": 4.1447153763,
				"y": 0.7599269876,
				"z": -0.0729906078,
				"element": "C" 
			},
			{
				"x": 0.1399103213,
				"y": 0.6071744456,
				"z": -1.4617061137,
				"element": "N" 
			},
			{
				"x": -0.97142995,
				"y": 0.8497206014,
				"z": -0.5318290387,
				"element": "C" 
			},
			{
				"x": -2.2322804286,
				"y": 0.4705551624,
				"z": -1.3269293306,
				"element": "C" 
			},
			{
				"x": -1.8026086373,
				"y": 0.6134088552,
				"z": -2.7990514724,
				"element": "C" 
			},
			{
				"x": -0.2841335461,
				"y": 0.470112104,
				"z": -2.778157317,
				"element": "C" 
			},
			{
				"x": 0.4160908023,
				"y": 0.2889137792,
				"z": -3.7591005689,
				"element": "O" 
			},
			{
				"x": -2.702580402,
				"y": -0.9392523618,
				"z": -0.9831354944,
				"element": "C" 
			},
			{
				"x": -3.7243935593,
				"y": -1.3207185885,
				"z": -1.7822139742,
				"element": "O" 
			},
			{
				"x": -2.2618435064,
				"y": -1.641514179,
				"z": -0.1011277421,
				"element": "O" 
			},
			{
				"x": 2.8689167098,
				"y": -0.1509197956,
				"z": 3.8234351594,
				"element": "H" 
			},
			{
				"x": 4.5140644433,
				"y": 0.1807261253,
				"z": 3.7865223255,
				"element": "H" 
			},
			{
				"x": 0.964974842,
				"y": 1.3176314247,
				"z": 0.9934486325,
				"element": "H" 
			},
			{
				"x": 2.357920722,
				"y": 0.0330350718,
				"z": -2.8850886823,
				"element": "H" 
			},
			{
				"x": 4.6818733426,
				"y": 0.1326971667,
				"z": -2.0572735987,
				"element": "H" 
			},
			{
				"x": 5.1615944691,
				"y": 0.8249372853,
				"z": 0.2963279856,
				"element": "H" 
			},
			{
				"x": -0.8722788363,
				"y": 0.2226509204,
				"z": 0.3566393464,
				"element": "H" 
			},
			{
				"x": -0.9943992225,
				"y": 1.9028182731,
				"z": -0.2249012676,
				"element": "H" 
			},
			{
				"x": -3.0669301449,
				"y": 1.1376671224,
				"z": -1.0887246021,
				"element": "H" 
			},
			{
				"x": -2.2481190692,
				"y": -0.1213964873,
				"z": -3.4704843384,
				"element": "H" 
			},
			{
				"x": -2.0454365053,
				"y": 1.6066755407,
				"z": -3.1927160557,
				"element": "H" 
			},
			{
				"x": -3.9793121278,
				"y": -2.2145970276,
				"z": -1.4973550685,
				"element": "H" 
			}
		],
		 "valence_orbital": [ 
			{
				"type": "occ",
				"energy": -0.29623,
				"method": "rhf"
			},
			{
				"type": "occ",
				"energy": -0.29325,
				"method": "rhf"
			},
			{
				"type": "occ",
				"energy": -0.26582,
				"method": "rhf"
			},
			{
				"type": "occ",
				"energy": -0.2628,
				"method": "rhf"
			},
			{
				"type": "occ",
				"energy": -0.23304,
				"method": "rhf"
			},
			{
				"type": "unocc",
				"energy": -0.03685,
				"method": "rhf"
			},
			{
				"type": "unocc",
				"energy": -0.02546,
				"method": "rhf"
			},
			{
				"type": "unocc",
				"energy": -0.01304,
				"method": "rhf"
			},
			{
				"type": "unocc",
				"energy": 0.02443,
				"method": "rhf"
			},
			{
				"type": "unocc",
				"energy": 0.05456,
				"method": "rhf"
			}
		],
		"cosmo_sigma_profile": { 
			"-0.025": 0.0,
			"-0.024": 0.0,
			"-0.023": 0.0,
			"-0.022": 0.0,
			"-0.021": 0.0,
			"-0.02": 0.0,
			"-0.019": 0.374428083143,
			"-0.018": 0.74485715445,
			"-0.017": 1.17550628702,
			"-0.016": 0.81099538568,
			"-0.015": 1.94062979129,
			"-0.014": 3.56143600667,
			"-0.013": 2.29063975533,
			"-0.012": 3.35562549985,
			"-0.011": 3.22815223198,
			"-0.01": 2.45610997421,
			"-0.009": 2.00104975528,
			"-0.008": 8.32047132083,
			"-0.007": 19.518630556,
			"-0.006": 20.0321516639,
			"-0.005": 16.3694710081,
			"-0.004": 15.6523635718,
			"-0.003": 13.9692926493,
			"-0.002": 12.8919116395,
			"-0.001": 12.2841651621,
			"0.0": 15.6311305584,
			"0.001": 14.4226776056,
			"0.002": 18.1209080091,
			"0.003": 16.9762403908,
			"0.004": 9.57760475492,
			"0.005": 7.57373441529,
			"0.006": 6.57603589954,
			"0.007": 6.49268510177,
			"0.008": 9.15236825421,
			"0.009": 7.24757491165,
			"0.01": 11.9182889494,
			"0.011": 16.8247185663,
			"0.012": 7.36739563112,
			"0.013": 2.23203461567,
			"0.014": 0.266905623729,
			"0.015": 0.0,
			"0.016": 0.0,
			"0.017": 0.0,
			"0.018": 0.0,
			"0.019": 0.0,
			"0.02": 0.0,
			"0.021": 0.0,
			"0.022": 0.0,
			"0.023": 0.0,
			"0.024": 0.0,
			"0.025": 0.0
		}
	}
}
