{
	 "smiles": "CC(=O)C(C)(CCC(O)=O)CCC(O)=O", 
	 "Tm": 396.15, 
	 "num_atms": 31, 
	 "gaussian": { 
		 "optdone": 1, 
		 "sigma_profile": "yes", 
		 "theory": "DFT", 
		 "functional": "B3LYP", 
		 "basiset": "6-31G**", 
		 "properties": { 
			 "R2extent": 5144.5603, 
			 "electric_dipole_moment_norm": 3.36380215084, 
			 "electric_quadrupole_moment_norm": 30.862393594, 
			 "total_energy": -766.854083668, 
			 "HOMO_LUMO_gap": 0.22601, 
			 "cosmo_polarized_energy": -24.77, 
			 "cosmo_cavitation_energy": 33.72, 
			 "cosmo_dispersion_energy": -22.68, 
			 "cosmo_repulsion_energy": 1.8, 
			 "cosmo_total_nonelectrostatic_energy": 12.84, 
			 "SMD_solvation_energy": 8.28 
		},
		"coords": [
			{
				"x": -0.3749189796,
				"y": -1.9960396865,
				"z": -0.9774759449,
				"element": "C" 
			},
			{
				"x": 0.9387452538,
				"y": -1.2356232658,
				"z": -1.0288013886,
				"element": "C" 
			},
			{
				"x": 1.9215180174,
				"y": -1.7360335931,
				"z": -1.5484271407,
				"element": "O" 
			},
			{
				"x": 0.9968970775,
				"y": 0.1952919999,
				"z": -0.441447846,
				"element": "C" 
			},
			{
				"x": 0.1416073797,
				"y": 0.3140159054,
				"z": 0.8389320743,
				"element": "C" 
			},
			{
				"x": 2.4738571286,
				"y": 0.5840311707,
				"z": -0.1851183375,
				"element": "C" 
			},
			{
				"x": 3.2140652919,
				"y": -0.2005472193,
				"z": 0.9223896746,
				"element": "C" 
			},
			{
				"x": 2.8621554392,
				"y": 0.1528438566,
				"z": 2.3614992843,
				"element": "C" 
			},
			{
				"x": 3.0269579755,
				"y": 1.4616024394,
				"z": 2.7081879065,
				"element": "O" 
			},
			{
				"x": 2.4746602648,
				"y": -0.6373161047,
				"z": 3.1862513957,
				"element": "O" 
			},
			{
				"x": 0.3808702264,
				"y": 1.162741076,
				"z": -1.5032549237,
				"element": "C" 
			},
			{
				"x": 1.0798719655,
				"y": 1.2042244401,
				"z": -2.8788554857,
				"element": "C" 
			},
			{
				"x": 0.3421119255,
				"y": 2.1205269868,
				"z": -3.8299463742,
				"element": "C" 
			},
			{
				"x": 0.5019225188,
				"y": 3.4261336717,
				"z": -3.4904483953,
				"element": "O" 
			},
			{
				"x": -0.3344056478,
				"y": 1.7726281413,
				"z": -4.7714694701,
				"element": "O" 
			},
			{
				"x": -1.2235364698,
				"y": -1.3786137728,
				"z": -1.2879451009,
				"element": "H" 
			},
			{
				"x": -0.2992839584,
				"y": -2.8739280946,
				"z": -1.6201049546,
				"element": "H" 
			},
			{
				"x": -0.575450967,
				"y": -2.3230442156,
				"z": 0.0491677202,
				"element": "H" 
			},
			{
				"x": 0.4233205932,
				"y": -0.4214401339,
				"z": 1.5959631269,
				"element": "H" 
			},
			{
				"x": -0.9223425993,
				"y": 0.1837007625,
				"z": 0.6215533106,
				"element": "H" 
			},
			{
				"x": 0.2645590949,
				"y": 1.3078911869,
				"z": 1.282075515,
				"element": "H" 
			},
			{
				"x": 2.5093922821,
				"y": 1.6631857059,
				"z": 0.0219248173,
				"element": "H" 
			},
			{
				"x": 3.0338926827,
				"y": 0.4231353247,
				"z": -1.1080045717,
				"element": "H" 
			},
			{
				"x": 4.291674338,
				"y": -0.0221968905,
				"z": 0.8029609014,
				"element": "H" 
			},
			{
				"x": 3.0600818581,
				"y": -1.2731440582,
				"z": 0.8013155268,
				"element": "H" 
			},
			{
				"x": 3.3763341751,
				"y": 1.9651649695,
				"z": 1.9593495057,
				"element": "H" 
			},
			{
				"x": -0.6711277953,
				"y": 0.8921969804,
				"z": -1.6532734308,
				"element": "H" 
			},
			{
				"x": 0.3789170579,
				"y": 2.1711912047,
				"z": -1.0736651052,
				"element": "H" 
			},
			{
				"x": 1.1145339239,
				"y": 0.2145484069,
				"z": -3.3377214937,
				"element": "H" 
			},
			{
				"x": 2.1051183353,
				"y": 1.5716262177,
				"z": -2.7739115435,
				"element": "H" 
			},
			{
				"x": -0.0190983886,
				"y": 3.9372465879,
				"z": -4.1325992523,
				"element": "H" 
			}
		],
		 "valence_orbital": [ 
			{
				"type": "occ",
				"energy": -0.32524,
				"method": "rhf"
			},
			{
				"type": "occ",
				"energy": -0.31566,
				"method": "rhf"
			},
			{
				"type": "occ",
				"energy": -0.27972,
				"method": "rhf"
			},
			{
				"type": "occ",
				"energy": -0.26988,
				"method": "rhf"
			},
			{
				"type": "occ",
				"energy": -0.25429,
				"method": "rhf"
			},
			{
				"type": "unocc",
				"energy": -0.02828,
				"method": "rhf"
			},
			{
				"type": "unocc",
				"energy": -0.00015,
				"method": "rhf"
			},
			{
				"type": "unocc",
				"energy": 0.00502,
				"method": "rhf"
			},
			{
				"type": "unocc",
				"energy": 0.04066,
				"method": "rhf"
			},
			{
				"type": "unocc",
				"energy": 0.06503,
				"method": "rhf"
			}
		],
		"cosmo_sigma_profile": { 
			"-0.025": 0.0,
			"-0.024": 0.0,
			"-0.023": 0.0,
			"-0.022": 0.0,
			"-0.021": 0.0,
			"-0.02": 0.0,
			"-0.019": 0.0108015055427,
			"-0.018": 1.55908772164,
			"-0.017": 1.84226070859,
			"-0.016": 1.89770050931,
			"-0.015": 1.93616583681,
			"-0.014": 1.81125842505,
			"-0.013": 1.54084568584,
			"-0.012": 1.37117421493,
			"-0.011": 2.05808005929,
			"-0.01": 2.08577251991,
			"-0.009": 2.50266760901,
			"-0.008": 2.1097041958,
			"-0.007": 5.60291299441,
			"-0.006": 15.219555055,
			"-0.005": 20.0533484284,
			"-0.004": 26.026704026,
			"-0.003": 23.6541809617,
			"-0.002": 19.7355190291,
			"-0.001": 19.1510737079,
			"0.0": 13.7526336328,
			"0.001": 8.77567739904,
			"0.002": 7.37626129756,
			"0.003": 7.25341405156,
			"0.004": 5.67117026143,
			"0.005": 6.12095093465,
			"0.006": 5.89968850778,
			"0.007": 5.46095824277,
			"0.008": 6.54251482056,
			"0.009": 7.18236560063,
			"0.01": 7.76926878906,
			"0.011": 11.4220144128,
			"0.012": 13.5588081191,
			"0.013": 5.12324241323,
			"0.014": 0.270287911767,
			"0.015": 0.0,
			"0.016": 0.0,
			"0.017": 0.0,
			"0.018": 0.0,
			"0.019": 0.0,
			"0.02": 0.0,
			"0.021": 0.0,
			"0.022": 0.0,
			"0.023": 0.0,
			"0.024": 0.0,
			"0.025": 0.0
		}
	}
}
