{
	 "smiles": "NC1=NC(=O)NC=C1Br", 
	 "Tm": 515.15, 
	 "num_atms": 13, 
	 "gaussian": { 
		 "optdone": 1, 
		 "sigma_profile": "yes", 
		 "theory": "DFT", 
		 "functional": "B3LYP", 
		 "basiset": "6-31G**", 
		 "properties": { 
			 "R2extent": 2327.1513, 
			 "electric_dipole_moment_norm": 4.77162893989, 
			 "electric_quadrupole_moment_norm": 21.5344577074, 
			 "total_energy": -2965.73190773, 
			 "HOMO_LUMO_gap": 0.18677, 
			 "cosmo_polarized_energy": -20.54, 
			 "cosmo_cavitation_energy": 19.91, 
			 "cosmo_dispersion_energy": -15.75, 
			 "cosmo_repulsion_energy": 1.3, 
			 "cosmo_total_nonelectrostatic_energy": 5.46, 
			 "SMD_solvation_energy": 2.04 
		},
		"coords": [
			{
				"x": 1.2354265142,
				"y": -0.7746144852,
				"z": 0.1352451974,
				"element": "N" 
			},
			{
				"x": 0.1621196419,
				"y": 0.0052136325,
				"z": 0.3902419454,
				"element": "C" 
			},
			{
				"x": 0.2286393049,
				"y": 1.2768822196,
				"z": 0.0440418016,
				"element": "N" 
			},
			{
				"x": -0.8161427842,
				"y": 2.1377813472,
				"z": 0.2670136767,
				"element": "C" 
			},
			{
				"x": -0.8387180867,
				"y": 3.3220142113,
				"z": -0.0199420043,
				"element": "O" 
			},
			{
				"x": -1.9699181223,
				"y": 1.5700574311,
				"z": 0.8935100672,
				"element": "N" 
			},
			{
				"x": -2.0578440399,
				"y": 0.2683087617,
				"z": 1.2560781276,
				"element": "C" 
			},
			{
				"x": -1.0085455938,
				"y": -0.5633544779,
				"z": 1.0237748727,
				"element": "C" 
			},
			{
				"x": -1.098468353,
				"y": -2.4009022373,
				"z": 1.5212201347,
				"element": "Br" 
			},
			{
				"x": 2.0317429037,
				"y": -0.3440638891,
				"z": -0.3072339277,
				"element": "H" 
			},
			{
				"x": 1.2457760561,
				"y": -1.7517989068,
				"z": 0.3746619874,
				"element": "H" 
			},
			{
				"x": -2.734846495,
				"y": 2.2116979961,
				"z": 1.0539325583,
				"element": "H" 
			},
			{
				"x": -2.9768209458,
				"y": -0.0642216031,
				"z": 1.7249555631,
				"element": "H" 
			}
		],
		 "valence_orbital": [ 
			{
				"type": "occ",
				"energy": -0.31901,
				"method": "rhf"
			},
			{
				"type": "occ",
				"energy": -0.27164,
				"method": "rhf"
			},
			{
				"type": "occ",
				"energy": -0.25846,
				"method": "rhf"
			},
			{
				"type": "occ",
				"energy": -0.25414,
				"method": "rhf"
			},
			{
				"type": "occ",
				"energy": -0.23003,
				"method": "rhf"
			},
			{
				"type": "unocc",
				"energy": -0.04326,
				"method": "rhf"
			},
			{
				"type": "unocc",
				"energy": -0.01467,
				"method": "rhf"
			},
			{
				"type": "unocc",
				"energy": 0.0134,
				"method": "rhf"
			},
			{
				"type": "unocc",
				"energy": 0.07657,
				"method": "rhf"
			},
			{
				"type": "unocc",
				"energy": 0.08033,
				"method": "rhf"
			}
		],
		"cosmo_sigma_profile": { 
			"-0.025": 0.0,
			"-0.024": 0.0,
			"-0.023": 0.0,
			"-0.022": 0.0,
			"-0.021": 0.0,
			"-0.02": 0.0,
			"-0.019": 0.0,
			"-0.018": 0.0,
			"-0.017": 0.25562003359,
			"-0.016": 1.55931973425,
			"-0.015": 1.87380135878,
			"-0.014": 2.75088945099,
			"-0.013": 3.44322069612,
			"-0.012": 3.2396340828,
			"-0.011": 4.35436166159,
			"-0.01": 4.41477992653,
			"-0.009": 3.40716663204,
			"-0.008": 4.08563503291,
			"-0.007": 3.88123863001,
			"-0.006": 3.80500472767,
			"-0.005": 4.40147059838,
			"-0.004": 5.31932857413,
			"-0.003": 7.59270037252,
			"-0.002": 10.1317805802,
			"-0.001": 14.8208856827,
			"0.0": 12.1060310531,
			"0.001": 10.1287442524,
			"0.002": 9.66231372129,
			"0.003": 10.4013563681,
			"0.004": 7.15026896183,
			"0.005": 2.04089955026,
			"0.006": 2.34682598742,
			"0.007": 1.59840272755,
			"0.008": 1.69693860553,
			"0.009": 2.41206589478,
			"0.01": 1.50847255386,
			"0.011": 1.66711179058,
			"0.012": 2.29033471416,
			"0.013": 4.28279072963,
			"0.014": 7.47768286609,
			"0.015": 3.10718008866,
			"0.016": 3.17577586373,
			"0.017": 0.249306147849,
			"0.018": 0.0,
			"0.019": 0.0,
			"0.02": 0.0,
			"0.021": 0.0,
			"0.022": 0.0,
			"0.023": 0.0,
			"0.024": 0.0,
			"0.025": 0.0
		}
	}
}
