{
	 "smiles": "IC1=CC=C(O1)C=O", 
	 "Tm": 400.15, 
	 "num_atms": 11, 
	 "gaussian": { 
		 "optdone": 1, 
		 "sigma_profile": "no", 
		 "theory": "DFT", 
		 "functional": "B3LYP", 
		 "basiset": "6-31G**", 
		 "properties": { 
			 "R2extent": 1639.606, 
			 "electric_dipole_moment_norm": 2.92779106666, 
			 "electric_quadrupole_moment_norm": 11.6720049263, 
			 "total_energy": -354.12623101, 
			 "HOMO_LUMO_gap": 0.17288, 
			 "cosmo_polarized_energy": -106261.79, 
			 "cosmo_cavitation_energy": 19.73, 
			 "cosmo_dispersion_energy": -15.97, 
			 "cosmo_repulsion_energy": 1.3, 
			 "cosmo_total_nonelectrostatic_energy": 5.06, 
			 "SMD_solvation_energy": 4.41 
		},
		"coords": [
			{
				"x": 1.3132735705,
				"y": -0.0810968861,
				"z": -2.1777624139,
				"element": "I" 
			},
			{
				"x": 1.3181010284,
				"y": 0.5465890284,
				"z": -0.2036355019,
				"element": "C" 
			},
			{
				"x": 2.3169143464,
				"y": 0.5529506789,
				"z": 0.7377462725,
				"element": "C" 
			},
			{
				"x": 1.7324768401,
				"y": 1.0990344194,
				"z": 1.9119259079,
				"element": "C" 
			},
			{
				"x": 0.4249659885,
				"y": 1.3866468693,
				"z": 1.607925399,
				"element": "C" 
			},
			{
				"x": 0.1674167152,
				"y": 1.0446628875,
				"z": 0.2974448287,
				"element": "O" 
			},
			{
				"x": -0.6717845662,
				"y": 1.9550372424,
				"z": 2.3794459159,
				"element": "C" 
			},
			{
				"x": -0.5606177306,
				"y": 2.2938477836,
				"z": 3.54494785,
				"element": "O" 
			},
			{
				"x": 3.3306057888,
				"y": 0.2098754396,
				"z": 0.5965148785,
				"element": "H" 
			},
			{
				"x": 2.201434998,
				"y": 1.2666760051,
				"z": 2.8705643673,
				"element": "H" 
			},
			{
				"x": -1.6236869791,
				"y": 2.056076532,
				"z": 1.8183824959,
				"element": "H" 
			}
		],
		 "valence_orbital": [ 
			{
				"type": "occ",
				"energy": -0.31851,
				"method": "rhf"
			},
			{
				"type": "occ",
				"energy": -0.3054,
				"method": "rhf"
			},
			{
				"type": "occ",
				"energy": -0.29474,
				"method": "rhf"
			},
			{
				"type": "occ",
				"energy": -0.26437,
				"method": "rhf"
			},
			{
				"type": "occ",
				"energy": -0.24434,
				"method": "rhf"
			},
			{
				"type": "unocc",
				"energy": -0.07146,
				"method": "rhf"
			},
			{
				"type": "unocc",
				"energy": -0.05472,
				"method": "rhf"
			},
			{
				"type": "unocc",
				"energy": 0.00923,
				"method": "rhf"
			},
			{
				"type": "unocc",
				"energy": 0.03786,
				"method": "rhf"
			},
			{
				"type": "unocc",
				"energy": 0.04418,
				"method": "rhf"
			}
		],
		"cosmo_sigma_profile": { 
			"0.0": 0.0,
			"0.0": 0.0,
			"0.0": 0.0,
			"0.0": 0.0,
			"0.0": 0.0,
			"0.0": 0.0,
			"0.0": 0.0,
			"0.0": 0.0,
			"0.0": 0.0,
			"0.0": 0.0,
			"0.0": 0.0,
			"0.0": 0.0,
			"0.0": 0.0,
			"0.0": 0.0,
			"0.0": 0.0,
			"0.0": 0.0,
			"0.0": 0.0,
			"0.0": 0.0,
			"0.0": 0.0,
			"0.0": 0.0,
			"0.0": 0.0,
			"0.0": 0.0,
			"0.0": 0.0,
			"0.0": 0.0,
			"0.0": 0.0,
			"0.0": 0.0,
			"0.0": 0.0,
			"0.0": 0.0,
			"0.0": 0.0,
			"0.0": 0.0,
			"0.0": 0.0,
			"0.0": 0.0,
			"0.0": 0.0,
			"0.0": 0.0,
			"0.0": 0.0,
			"0.0": 0.0,
			"0.0": 0.0,
			"0.0": 0.0,
			"0.0": 0.0,
			"0.0": 0.0,
			"0.0": 0.0,
			"0.0": 0.0,
			"0.0": 0.0,
			"0.0": 0.0,
			"0.0": 0.0,
			"0.0": 0.0,
			"0.0": 0.0,
			"0.0": 0.0,
			"0.0": 0.0,
			"0.0": 0.0,
			"0.0": 0.0
		}
	}
}
