{
	 "smiles": "CCOC(=O)NC1=C(N)C=C(Br)C=C1", 
	 "Tm": 353.15, 
	 "num_atms": 25, 
	 "gaussian": { 
		 "optdone": 1, 
		 "sigma_profile": "yes", 
		 "theory": "DFT", 
		 "functional": "B3LYP", 
		 "basiset": "6-31G**", 
		 "properties": { 
			 "R2extent": 8895.1823, 
			 "electric_dipole_moment_norm": 3.42975477986, 
			 "electric_quadrupole_moment_norm": 10.4657834762, 
			 "total_energy": -3180.97687585, 
			 "HOMO_LUMO_gap": 0.19134, 
			 "cosmo_polarized_energy": -12.06, 
			 "cosmo_cavitation_energy": 31.26, 
			 "cosmo_dispersion_energy": -23.48, 
			 "cosmo_repulsion_energy": 1.88, 
			 "cosmo_total_nonelectrostatic_energy": 9.66, 
			 "SMD_solvation_energy": 5.0 
		},
		"coords": [
			{
				"x": 1.4097503615,
				"y": 2.8586934408,
				"z": 1.6113269996,
				"element": "C" 
			},
			{
				"x": 1.8294906732,
				"y": 2.5743816457,
				"z": 0.1775688701,
				"element": "C" 
			},
			{
				"x": 0.9133472571,
				"y": 1.6618904085,
				"z": -0.4714055808,
				"element": "O" 
			},
			{
				"x": 1.1440594192,
				"y": 0.3417073145,
				"z": -0.268395081,
				"element": "C" 
			},
			{
				"x": 2.0641268841,
				"y": -0.1051967976,
				"z": 0.4052567635,
				"element": "O" 
			},
			{
				"x": 0.2138591305,
				"y": -0.391549845,
				"z": -0.9469631108,
				"element": "N" 
			},
			{
				"x": 0.001373963,
				"y": -1.7981063226,
				"z": -0.881592055,
				"element": "C" 
			},
			{
				"x": 1.0473816292,
				"y": -2.7384569979,
				"z": -1.0581064169,
				"element": "C" 
			},
			{
				"x": 2.3561405051,
				"y": -2.3386765493,
				"z": -1.2854205445,
				"element": "N" 
			},
			{
				"x": 0.7052626832,
				"y": -4.1046386667,
				"z": -1.0683727537,
				"element": "C" 
			},
			{
				"x": -0.615467194,
				"y": -4.5120986129,
				"z": -0.9414164338,
				"element": "C" 
			},
			{
				"x": -1.0185702573,
				"y": -6.3822996135,
				"z": -0.986786366,
				"element": "Br" 
			},
			{
				"x": -1.6491979445,
				"y": -3.5941857581,
				"z": -0.7742643048,
				"element": "C" 
			},
			{
				"x": -1.3155245572,
				"y": -2.2426497724,
				"z": -0.736719778,
				"element": "C" 
			},
			{
				"x": 0.3871679499,
				"y": 3.2457294532,
				"z": 1.6496544643,
				"element": "H" 
			},
			{
				"x": 1.4691179697,
				"y": 1.9496713543,
				"z": 2.2148360286,
				"element": "H" 
			},
			{
				"x": 2.076959101,
				"y": 3.6073089811,
				"z": 2.051502085,
				"element": "H" 
			},
			{
				"x": 2.8355028013,
				"y": 2.1505858096,
				"z": 0.1375693504,
				"element": "H" 
			},
			{
				"x": 1.7913228816,
				"y": 3.4757177233,
				"z": -0.4388870105,
				"element": "H" 
			},
			{
				"x": -0.509071607,
				"y": 0.1545795281,
				"z": -1.3943869473,
				"element": "H" 
			},
			{
				"x": 3.0228569229,
				"y": -3.0986507561,
				"z": -1.2561619504,
				"element": "H" 
			},
			{
				"x": 2.6452608364,
				"y": -1.5480316302,
				"z": -0.7133590629,
				"element": "H" 
			},
			{
				"x": 1.4898622181,
				"y": -4.8432174168,
				"z": -1.1949968824,
				"element": "H" 
			},
			{
				"x": -2.6762271976,
				"y": -3.9201543967,
				"z": -0.6683689508,
				"element": "H" 
			},
			{
				"x": -2.1002844296,
				"y": -1.5038525232,
				"z": -0.5951113318,
				"element": "H" 
			}
		],
		 "valence_orbital": [ 
			{
				"type": "occ",
				"energy": -0.28921,
				"method": "rhf"
			},
			{
				"type": "occ",
				"energy": -0.2816,
				"method": "rhf"
			},
			{
				"type": "occ",
				"energy": -0.27883,
				"method": "rhf"
			},
			{
				"type": "occ",
				"energy": -0.23422,
				"method": "rhf"
			},
			{
				"type": "occ",
				"energy": -0.2047,
				"method": "rhf"
			},
			{
				"type": "unocc",
				"energy": -0.01336,
				"method": "rhf"
			},
			{
				"type": "unocc",
				"energy": 0.00602,
				"method": "rhf"
			},
			{
				"type": "unocc",
				"energy": 0.01221,
				"method": "rhf"
			},
			{
				"type": "unocc",
				"energy": 0.04419,
				"method": "rhf"
			},
			{
				"type": "unocc",
				"energy": 0.085,
				"method": "rhf"
			}
		],
		"cosmo_sigma_profile": { 
			"-0.025": 0.0,
			"-0.024": 0.0,
			"-0.023": 0.0,
			"-0.022": 0.0,
			"-0.021": 0.0,
			"-0.02": 0.0,
			"-0.019": 0.0,
			"-0.018": 0.0,
			"-0.017": 0.0,
			"-0.016": 0.0,
			"-0.015": 0.800674298399,
			"-0.014": 1.08988943949,
			"-0.013": 1.07343337299,
			"-0.012": 2.59436440754,
			"-0.011": 2.63573024662,
			"-0.01": 3.39811917556,
			"-0.009": 2.15693184565,
			"-0.008": 3.56969283488,
			"-0.007": 5.74732260816,
			"-0.006": 7.43595035064,
			"-0.005": 11.3879997405,
			"-0.004": 16.6084638046,
			"-0.003": 17.0829874814,
			"-0.002": 20.456032514,
			"-0.001": 18.7690026791,
			"0.0": 19.1967092416,
			"0.001": 15.9017762151,
			"0.002": 14.0418481872,
			"0.003": 21.7746002732,
			"0.004": 25.6534213344,
			"0.005": 18.5421383222,
			"0.006": 4.04817785089,
			"0.007": 3.90272867213,
			"0.008": 2.47746947508,
			"0.009": 2.14020324758,
			"0.01": 1.89439733264,
			"0.011": 3.04884283078,
			"0.012": 2.54297865512,
			"0.013": 0.859341405404,
			"0.014": 0.551302897877,
			"0.015": 0.0455294072682,
			"0.016": 0.0,
			"0.017": 0.0,
			"0.018": 0.0,
			"0.019": 0.0,
			"0.02": 0.0,
			"0.021": 0.0,
			"0.022": 0.0,
			"0.023": 0.0,
			"0.024": 0.0,
			"0.025": 0.0
		}
	}
}
