{
	 "smiles": "FC1=C(F)C(=C(F)C(F)=C1Br)C1=C(F)C(F)=C(Br)C(F)=C1F", 
	 "Tm": 387.15, 
	 "num_atms": 22, 
	 "gaussian": { 
		 "optdone": 1, 
		 "sigma_profile": "yes", 
		 "theory": "DFT", 
		 "functional": "B3LYP", 
		 "basiset": "6-31G**", 
		 "properties": { 
			 "R2extent": 13535.0472, 
			 "electric_dipole_moment_norm": 0.0001, 
			 "electric_quadrupole_moment_norm": 6.01029264263, 
			 "total_energy": -6398.7056143, 
			 "HOMO_LUMO_gap": 0.18901, 
			 "cosmo_polarized_energy": -4.12, 
			 "cosmo_cavitation_energy": 36.48, 
			 "cosmo_dispersion_energy": -25.88, 
			 "cosmo_repulsion_energy": 1.82, 
			 "cosmo_total_nonelectrostatic_energy": 12.42, 
			 "SMD_solvation_energy": 7.44 
		},
		"coords": [
			{
				"x": -2.9273162134,
				"y": -0.1059966674,
				"z": -4.1394708836,
				"element": "F" 
			},
			{
				"x": -2.2197265768,
				"y": 0.468452836,
				"z": -3.1640992403,
				"element": "C" 
			},
			{
				"x": -1.2506735618,
				"y": -0.2802792896,
				"z": -2.5023773928,
				"element": "C" 
			},
			{
				"x": -1.076489203,
				"y": -1.5567000466,
				"z": -2.8656582137,
				"element": "F" 
			},
			{
				"x": -0.4787725551,
				"y": 0.2636164818,
				"z": -1.470151161,
				"element": "C" 
			},
			{
				"x": -0.7230686241,
				"y": 1.5970210132,
				"z": -1.1244786662,
				"element": "C" 
			},
			{
				"x": -0.0035826609,
				"y": 2.1791900509,
				"z": -0.1575451272,
				"element": "F" 
			},
			{
				"x": -1.6937411041,
				"y": 2.355101931,
				"z": -1.7730094984,
				"element": "C" 
			},
			{
				"x": -1.8796669391,
				"y": 3.6236451567,
				"z": -1.4011604425,
				"element": "F" 
			},
			{
				"x": -2.4508285572,
				"y": 1.7955671502,
				"z": -2.8022522302,
				"element": "C" 
			},
			{
				"x": -3.7629907087,
				"y": 2.8148690992,
				"z": -3.6881546625,
				"element": "Br" 
			},
			{
				"x": 0.5514480416,
				"y": -0.5369378882,
				"z": -0.7738025164,
				"element": "C" 
			},
			{
				"x": 0.5568855555,
				"y": -0.6653051541,
				"z": 0.6192752745,
				"element": "C" 
			},
			{
				"x": -0.3953781585,
				"y": -0.0714305222,
				"z": 1.3487039418,
				"element": "F" 
			},
			{
				"x": 1.5253397511,
				"y": -1.4144312433,
				"z": 1.281412053,
				"element": "C" 
			},
			{
				"x": 1.477234523,
				"y": -1.5028396849,
				"z": 2.6125409482,
				"element": "F" 
			},
			{
				"x": 2.5226998114,
				"y": -2.0693400643,
				"z": 0.5589523921,
				"element": "C" 
			},
			{
				"x": 3.8340317961,
				"y": -3.0892235006,
				"z": 1.4454190239,
				"element": "Br" 
			},
			{
				"x": 2.5323613107,
				"y": -1.9563845515,
				"z": -0.8312758619,
				"element": "C" 
			},
			{
				"x": 3.4734941365,
				"y": -2.5624744257,
				"z": -1.5585693258,
				"element": "F" 
			},
			{
				"x": 1.5619308591,
				"y": -1.1981984139,
				"z": -1.4800493002,
				"element": "C" 
			},
			{
				"x": 1.6209090777,
				"y": -1.0976222666,
				"z": -2.8134491107,
				"element": "F" 
			}
		],
		 "valence_orbital": [ 
			{
				"type": "occ",
				"energy": -0.31404,
				"method": "rhf"
			},
			{
				"type": "occ",
				"energy": -0.28404,
				"method": "rhf"
			},
			{
				"type": "occ",
				"energy": -0.26663,
				"method": "rhf"
			},
			{
				"type": "occ",
				"energy": -0.26527,
				"method": "rhf"
			},
			{
				"type": "occ",
				"energy": -0.26075,
				"method": "rhf"
			},
			{
				"type": "unocc",
				"energy": -0.07174,
				"method": "rhf"
			},
			{
				"type": "unocc",
				"energy": -0.03632,
				"method": "rhf"
			},
			{
				"type": "unocc",
				"energy": -0.03272,
				"method": "rhf"
			},
			{
				"type": "unocc",
				"energy": -0.02985,
				"method": "rhf"
			},
			{
				"type": "unocc",
				"energy": -0.02722,
				"method": "rhf"
			}
		],
		"cosmo_sigma_profile": { 
			"-0.025": 0.0,
			"-0.024": 0.0,
			"-0.023": 0.0,
			"-0.022": 0.0,
			"-0.021": 0.0,
			"-0.02": 0.0,
			"-0.019": 0.0,
			"-0.018": 0.0,
			"-0.017": 0.0,
			"-0.016": 0.0,
			"-0.015": 0.0,
			"-0.014": 0.0,
			"-0.013": 0.0,
			"-0.012": 0.0,
			"-0.011": 0.0,
			"-0.01": 0.0,
			"-0.009": 0.0,
			"-0.008": 0.0655193865933,
			"-0.007": 1.55829151923,
			"-0.006": 3.44590648522,
			"-0.005": 7.12838408284,
			"-0.004": 29.7348579365,
			"-0.003": 33.6372832689,
			"-0.002": 22.6987292737,
			"-0.001": 21.1380304339,
			"0.0": 21.6238381107,
			"0.001": 30.3511543987,
			"0.002": 74.7265731896,
			"0.003": 54.803384251,
			"0.004": 3.31677238609,
			"0.005": 0.0,
			"0.006": 0.0,
			"0.007": 0.0,
			"0.008": 0.0,
			"0.009": 0.0,
			"0.01": 0.0,
			"0.011": 0.0,
			"0.012": 0.0,
			"0.013": 0.0,
			"0.014": 0.0,
			"0.015": 0.0,
			"0.016": 0.0,
			"0.017": 0.0,
			"0.018": 0.0,
			"0.019": 0.0,
			"0.02": 0.0,
			"0.021": 0.0,
			"0.022": 0.0,
			"0.023": 0.0,
			"0.024": 0.0,
			"0.025": 0.0
		}
	}
}
