{
	 "smiles": "CCOC1=CC=C(CCC(O)=O)C=C1", 
	 "Tm": 376.15, 
	 "num_atms": 28, 
	 "gaussian": { 
		 "optdone": 1, 
		 "sigma_profile": "yes", 
		 "theory": "DFT", 
		 "functional": "B3LYP", 
		 "basiset": "6-31G**", 
		 "properties": { 
			 "R2extent": 5150.6366, 
			 "electric_dipole_moment_norm": 5.62147246369, 
			 "electric_quadrupole_moment_norm": 33.497175096, 
			 "total_energy": -653.292070225, 
			 "HOMO_LUMO_gap": 0.21083, 
			 "cosmo_polarized_energy": -14.2, 
			 "cosmo_cavitation_energy": 31.35, 
			 "cosmo_dispersion_energy": -22.52, 
			 "cosmo_repulsion_energy": 1.8, 
			 "cosmo_total_nonelectrostatic_energy": 10.64, 
			 "SMD_solvation_energy": 6.55 
		},
		"coords": [
			{
				"x": 0.7346357329,
				"y": 4.1698002154,
				"z": -1.0513528857,
				"element": "C" 
			},
			{
				"x": 0.2518519839,
				"y": 2.9189681303,
				"z": -0.3388322363,
				"element": "C" 
			},
			{
				"x": 1.0722513356,
				"y": 1.8322681609,
				"z": -0.7731407813,
				"element": "O" 
			},
			{
				"x": 0.8380675366,
				"y": 0.590654966,
				"z": -0.2687461073,
				"element": "C" 
			},
			{
				"x": 1.6846340247,
				"y": -0.4287302808,
				"z": -0.7383278329,
				"element": "C" 
			},
			{
				"x": 1.5295048219,
				"y": -1.7303999221,
				"z": -0.2860145051,
				"element": "C" 
			},
			{
				"x": 0.5306741843,
				"y": -2.0702948133,
				"z": 0.6475620182,
				"element": "C" 
			},
			{
				"x": 0.3649993751,
				"y": -3.5023360096,
				"z": 1.1232482517,
				"element": "C" 
			},
			{
				"x": 1.5153383338,
				"y": -4.046975281,
				"z": 2.007256484,
				"element": "C" 
			},
			{
				"x": 1.5897129173,
				"y": -3.4839402296,
				"z": 3.4246837774,
				"element": "C" 
			},
			{
				"x": 1.5477514988,
				"y": -2.1335175712,
				"z": 3.5435565308,
				"element": "O" 
			},
			{
				"x": 1.7025051995,
				"y": -4.176731903,
				"z": 4.4065071788,
				"element": "O" 
			},
			{
				"x": -0.303655481,
				"y": -1.0425865108,
				"z": 1.1023736295,
				"element": "C" 
			},
			{
				"x": -0.161598087,
				"y": 0.2772878473,
				"z": 0.6583085208,
				"element": "C" 
			},
			{
				"x": 0.6513520905,
				"y": 4.0526403931,
				"z": -2.1353503123,
				"element": "H" 
			},
			{
				"x": 0.1316937615,
				"y": 5.0308398067,
				"z": -0.7474764953,
				"element": "H" 
			},
			{
				"x": 1.7803556526,
				"y": 4.3741245234,
				"z": -0.8056567904,
				"element": "H" 
			},
			{
				"x": 0.3313587967,
				"y": 3.0326298514,
				"z": 0.7513852922,
				"element": "H" 
			},
			{
				"x": -0.7999735002,
				"y": 2.7107405195,
				"z": -0.5802263093,
				"element": "H" 
			},
			{
				"x": 2.452130223,
				"y": -0.1701536995,
				"z": -1.460504379,
				"element": "H" 
			},
			{
				"x": 2.1899660795,
				"y": -2.5042753477,
				"z": -0.6704783993,
				"element": "H" 
			},
			{
				"x": -0.583276158,
				"y": -3.6033976379,
				"z": 1.6626565357,
				"element": "H" 
			},
			{
				"x": 0.2901093532,
				"y": -4.1604807748,
				"z": 0.2493361389,
				"element": "H" 
			},
			{
				"x": 2.4774389567,
				"y": -3.8519227928,
				"z": 1.5148444236,
				"element": "H" 
			},
			{
				"x": 1.42371474,
				"y": -5.1293693337,
				"z": 2.1178083679,
				"element": "H" 
			},
			{
				"x": 1.4205016996,
				"y": -1.7166260403,
				"z": 2.674587515,
				"element": "H" 
			},
			{
				"x": -1.0890058755,
				"y": -1.2711001724,
				"z": 1.8187084311,
				"element": "H" 
			},
			{
				"x": -0.8314391958,
				"y": 1.0387839065,
				"z": 1.0386839386,
				"element": "H" 
			}
		],
		 "valence_orbital": [ 
			{
				"type": "occ",
				"energy": -0.32314,
				"method": "rhf"
			},
			{
				"type": "occ",
				"energy": -0.30076,
				"method": "rhf"
			},
			{
				"type": "occ",
				"energy": -0.26721,
				"method": "rhf"
			},
			{
				"type": "occ",
				"energy": -0.25606,
				"method": "rhf"
			},
			{
				"type": "occ",
				"energy": -0.22962,
				"method": "rhf"
			},
			{
				"type": "unocc",
				"energy": -0.01879,
				"method": "rhf"
			},
			{
				"type": "unocc",
				"energy": -0.00784,
				"method": "rhf"
			},
			{
				"type": "unocc",
				"energy": 0.02107,
				"method": "rhf"
			},
			{
				"type": "unocc",
				"energy": 0.08182,
				"method": "rhf"
			},
			{
				"type": "unocc",
				"energy": 0.08991,
				"method": "rhf"
			}
		],
		"cosmo_sigma_profile": { 
			"-0.025": 0.0,
			"-0.024": 0.0,
			"-0.023": 0.0,
			"-0.022": 0.0,
			"-0.021": 0.0,
			"-0.02": 0.0,
			"-0.019": 0.0,
			"-0.018": 0.0,
			"-0.017": 0.0,
			"-0.016": 0.0,
			"-0.015": 0.0,
			"-0.014": 0.0,
			"-0.013": 0.0,
			"-0.012": 0.0,
			"-0.011": 0.0,
			"-0.01": 0.184941657455,
			"-0.009": 1.07721924387,
			"-0.008": 1.43295206456,
			"-0.007": 3.27783303508,
			"-0.006": 16.0173334408,
			"-0.005": 23.6531635627,
			"-0.004": 30.122069421,
			"-0.003": 25.8674248989,
			"-0.002": 22.4288148954,
			"-0.001": 17.3009521832,
			"0.0": 15.9941148747,
			"0.001": 11.0724982373,
			"0.002": 9.47178846345,
			"0.003": 12.5871015304,
			"0.004": 9.52846550119,
			"0.005": 9.73622783035,
			"0.006": 5.29102973861,
			"0.007": 2.40524288917,
			"0.008": 4.36193340535,
			"0.009": 4.50720912502,
			"0.01": 4.82098299194,
			"0.011": 5.43853604536,
			"0.012": 6.31651111748,
			"0.013": 3.73312714377,
			"0.014": 0.504398823905,
			"0.015": 0.0,
			"0.016": 0.0,
			"0.017": 0.0,
			"0.018": 0.0,
			"0.019": 0.0,
			"0.02": 0.0,
			"0.021": 0.0,
			"0.022": 0.0,
			"0.023": 0.0,
			"0.024": 0.0,
			"0.025": 0.0
		}
	}
}
