{
	 "smiles": "CC(C)N1C=C(N=C1C)[N+]([O-])=O", 
	 "Tm": 359.15, 
	 "num_atms": 23, 
	 "gaussian": { 
		 "optdone": 1, 
		 "sigma_profile": "yes", 
		 "theory": "DFT", 
		 "functional": "B3LYP", 
		 "basiset": "6-31G**", 
		 "properties": { 
			 "R2extent": 2899.9256, 
			 "electric_dipole_moment_norm": 8.59091823614, 
			 "electric_quadrupole_moment_norm": 21.1580758608, 
			 "total_energy": -587.983953843, 
			 "HOMO_LUMO_gap": 0.18366, 
			 "cosmo_polarized_energy": -18.1, 
			 "cosmo_cavitation_energy": 26.74, 
			 "cosmo_dispersion_energy": -19.04, 
			 "cosmo_repulsion_energy": 1.52, 
			 "cosmo_total_nonelectrostatic_energy": 9.23, 
			 "SMD_solvation_energy": 6.08 
		},
		"coords": [
			{
				"x": 2.1090371934,
				"y": -0.3935643134,
				"z": 0.7431678311,
				"element": "C" 
			},
			{
				"x": 1.4841247972,
				"y": -0.2830587745,
				"z": -0.6530843502,
				"element": "C" 
			},
			{
				"x": 1.3592367263,
				"y": -1.6343087802,
				"z": -1.3654500105,
				"element": "C" 
			},
			{
				"x": 0.1997802517,
				"y": 0.4545740288,
				"z": -0.6183221494,
				"element": "N" 
			},
			{
				"x": 0.0538261541,
				"y": 1.7219843532,
				"z": -1.1223457397,
				"element": "C" 
			},
			{
				"x": -1.2506427437,
				"y": 2.0597718638,
				"z": -0.8590502658,
				"element": "C" 
			},
			{
				"x": -1.9146941329,
				"y": 1.0632564721,
				"z": -0.215084417,
				"element": "N" 
			},
			{
				"x": -1.0288785152,
				"y": 0.0972586201,
				"z": -0.0728145321,
				"element": "C" 
			},
			{
				"x": -1.3514974528,
				"y": -1.2103746996,
				"z": 0.5777473176,
				"element": "C" 
			},
			{
				"x": -1.866244627,
				"y": 3.3134574616,
				"z": -1.2119357077,
				"element": "N" 
			},
			{
				"x": -3.0431949254,
				"y": 3.4917457064,
				"z": -0.9161323296,
				"element": "O" 
			},
			{
				"x": -1.1419780485,
				"y": 4.1289801524,
				"z": -1.7982109067,
				"element": "O" 
			},
			{
				"x": 1.5236036919,
				"y": -1.0419496362,
				"z": 1.4007815383,
				"element": "H" 
			},
			{
				"x": 3.1132643372,
				"y": -0.8209226588,
				"z": 0.6634042311,
				"element": "H" 
			},
			{
				"x": 2.1905770799,
				"y": 0.5903216807,
				"z": 1.2129401321,
				"element": "H" 
			},
			{
				"x": 2.1354330087,
				"y": 0.3521344375,
				"z": -1.2617154308,
				"element": "H" 
			},
			{
				"x": 2.3576862263,
				"y": -2.0529226501,
				"z": -1.5234650397,
				"element": "H" 
			},
			{
				"x": 0.7883917204,
				"y": -2.3570023985,
				"z": -0.7774063471,
				"element": "H" 
			},
			{
				"x": 0.8779851135,
				"y": -1.5205829881,
				"z": -2.3406878811,
				"element": "H" 
			},
			{
				"x": 0.8499369706,
				"y": 2.2630755421,
				"z": -1.6065570041,
				"element": "H" 
			},
			{
				"x": -0.6461512458,
				"y": -1.4743632742,
				"z": 1.3713155982,
				"element": "H" 
			},
			{
				"x": -1.3730735607,
				"y": -2.0354508021,
				"z": -0.1422243117,
				"element": "H" 
			},
			{
				"x": -2.346028019,
				"y": -1.1180593431,
				"z": 1.0160297748,
				"element": "H" 
			}
		],
		 "valence_orbital": [ 
			{
				"type": "occ",
				"energy": -0.29258,
				"method": "rhf"
			},
			{
				"type": "occ",
				"energy": -0.28769,
				"method": "rhf"
			},
			{
				"type": "occ",
				"energy": -0.28759,
				"method": "rhf"
			},
			{
				"type": "occ",
				"energy": -0.27097,
				"method": "rhf"
			},
			{
				"type": "occ",
				"energy": -0.24684,
				"method": "rhf"
			},
			{
				"type": "unocc",
				"energy": -0.06318,
				"method": "rhf"
			},
			{
				"type": "unocc",
				"energy": 0.0068,
				"method": "rhf"
			},
			{
				"type": "unocc",
				"energy": 0.05365,
				"method": "rhf"
			},
			{
				"type": "unocc",
				"energy": 0.07396,
				"method": "rhf"
			},
			{
				"type": "unocc",
				"energy": 0.078,
				"method": "rhf"
			}
		],
		"cosmo_sigma_profile": { 
			"-0.025": 0.0,
			"-0.024": 0.0,
			"-0.023": 0.0,
			"-0.022": 0.0,
			"-0.021": 0.0,
			"-0.02": 0.0,
			"-0.019": 0.0,
			"-0.018": 0.0,
			"-0.017": 0.0,
			"-0.016": 0.0,
			"-0.015": 0.0,
			"-0.014": 0.0,
			"-0.013": 0.0,
			"-0.012": 0.0,
			"-0.011": 0.804404853662,
			"-0.01": 2.47615413212,
			"-0.009": 1.96174261322,
			"-0.008": 2.11673452333,
			"-0.007": 4.14808369649,
			"-0.006": 8.88554026203,
			"-0.005": 18.5442327028,
			"-0.004": 24.0564895865,
			"-0.003": 20.2483782968,
			"-0.002": 24.3344912677,
			"-0.001": 22.8814459169,
			"0.0": 16.8105873872,
			"0.001": 5.07132853729,
			"0.002": 4.02453528732,
			"0.003": 4.06910538465,
			"0.004": 2.96112363696,
			"0.005": 3.40672709155,
			"0.006": 3.71058438456,
			"0.007": 4.4021706439,
			"0.008": 9.84894926654,
			"0.009": 10.4143676723,
			"0.01": 5.54727313515,
			"0.011": 3.29893938402,
			"0.012": 2.16663508018,
			"0.013": 1.17609485769,
			"0.014": 0.995895287561,
			"0.015": 1.63854366589,
			"0.016": 0.915909580636,
			"0.017": 0.250055004981,
			"0.018": 0.0,
			"0.019": 0.0,
			"0.02": 0.0,
			"0.021": 0.0,
			"0.022": 0.0,
			"0.023": 0.0,
			"0.024": 0.0,
			"0.025": 0.0
		}
	}
}
