{
	 "smiles": "CN(CCO)C1=CC(=NC2=CC=CC=C12)C(F)(F)F", 
	 "Tm": 364.65, 
	 "num_atms": 32, 
	 "gaussian": { 
		 "optdone": 1, 
		 "sigma_profile": "yes", 
		 "theory": "DFT", 
		 "functional": "B3LYP", 
		 "basiset": "6-31G**", 
		 "properties": { 
			 "R2extent": 6555.8157, 
			 "electric_dipole_moment_norm": 4.21810843981, 
			 "electric_quadrupole_moment_norm": 20.0807253203, 
			 "total_energy": -987.456515197, 
			 "HOMO_LUMO_gap": 0.15748, 
			 "cosmo_polarized_energy": -13.83, 
			 "cosmo_cavitation_energy": 36.47, 
			 "cosmo_dispersion_energy": -25.21, 
			 "cosmo_repulsion_energy": 1.91, 
			 "cosmo_total_nonelectrostatic_energy": 13.16, 
			 "SMD_solvation_energy": 5.07 
		},
		"coords": [
			{
				"x": 3.9055637309,
				"y": -1.2769764178,
				"z": -0.4340063488,
				"element": "C" 
			},
			{
				"x": 2.6002356134,
				"y": -0.6976378226,
				"z": -0.7376191533,
				"element": "N" 
			},
			{
				"x": 2.0316253622,
				"y": -1.1439507719,
				"z": -2.0198196281,
				"element": "C" 
			},
			{
				"x": 1.6802255815,
				"y": -2.6419015903,
				"z": -2.0821406477,
				"element": "C" 
			},
			{
				"x": 1.1536997069,
				"y": -2.9856118392,
				"z": -3.3546422091,
				"element": "O" 
			},
			{
				"x": 1.7272450115,
				"y": -0.4712387839,
				"z": 0.3360962135,
				"element": "C" 
			},
			{
				"x": 1.8544880186,
				"y": -1.1430420958,
				"z": 1.5464448629,
				"element": "C" 
			},
			{
				"x": 0.916659328,
				"y": -0.9047008114,
				"z": 2.5706646656,
				"element": "C" 
			},
			{
				"x": -0.106678267,
				"y": -0.0827399143,
				"z": 2.4890025213,
				"element": "N" 
			},
			{
				"x": -0.2222978029,
				"y": 0.6425948674,
				"z": 1.3405689935,
				"element": "C" 
			},
			{
				"x": -1.2832382184,
				"y": 1.5848624223,
				"z": 1.2637566119,
				"element": "C" 
			},
			{
				"x": -1.4080321977,
				"y": 2.4168796761,
				"z": 0.1752978458,
				"element": "C" 
			},
			{
				"x": -0.4598713052,
				"y": 2.3580804392,
				"z": -0.8734121492,
				"element": "C" 
			},
			{
				"x": 0.5643437303,
				"y": 1.436218783,
				"z": -0.839753491,
				"element": "C" 
			},
			{
				"x": 0.6900396905,
				"y": 0.5244089851,
				"z": 0.2420660739,
				"element": "C" 
			},
			{
				"x": 1.0226151505,
				"y": -1.65771686,
				"z": 3.8862738557,
				"element": "C" 
			},
			{
				"x": 1.1855528787,
				"y": -0.8136543493,
				"z": 4.9226478157,
				"element": "F" 
			},
			{
				"x": -0.0824743896,
				"y": -2.3875941734,
				"z": 4.1272040388,
				"element": "F" 
			},
			{
				"x": 2.0777354798,
				"y": -2.5087388919,
				"z": 3.8904494351,
				"element": "F" 
			},
			{
				"x": 4.3672682086,
				"y": -0.7263015964,
				"z": 0.3893178171,
				"element": "H" 
			},
			{
				"x": 4.5433344077,
				"y": -1.1727178175,
				"z": -1.3167126007,
				"element": "H" 
			},
			{
				"x": 3.8798580478,
				"y": -2.3430409631,
				"z": -0.1616967811,
				"element": "H" 
			},
			{
				"x": 2.7461062065,
				"y": -0.9146208233,
				"z": -2.8186695381,
				"element": "H" 
			},
			{
				"x": 1.1235541573,
				"y": -0.5734559771,
				"z": -2.2255363436,
				"element": "H" 
			},
			{
				"x": 2.5755580972,
				"y": -3.2575577184,
				"z": -1.9554755368,
				"element": "H" 
			},
			{
				"x": 0.9877990865,
				"y": -2.8964260987,
				"z": -1.2651003996,
				"element": "H" 
			},
			{
				"x": 0.2816038665,
				"y": -2.5784043147,
				"z": -3.4374355774,
				"element": "H" 
			},
			{
				"x": 2.6270528517,
				"y": -1.8827743708,
				"z": 1.7022944642,
				"element": "H" 
			},
			{
				"x": -1.9669930285,
				"y": 1.6307418619,
				"z": 2.1048048569,
				"element": "H" 
			},
			{
				"x": -2.2165516919,
				"y": 3.1406265567,
				"z": 0.1311216494,
				"element": "H" 
			},
			{
				"x": -0.5294350488,
				"y": 3.0568923524,
				"z": -1.701879216,
				"element": "H" 
			},
			{
				"x": 1.3145077371,
				"y": 1.4342980578,
				"z": -1.6221121008,
				"element": "H" 
			}
		],
		 "valence_orbital": [ 
			{
				"type": "occ",
				"energy": -0.2908,
				"method": "rhf"
			},
			{
				"type": "occ",
				"energy": -0.26721,
				"method": "rhf"
			},
			{
				"type": "occ",
				"energy": -0.26123,
				"method": "rhf"
			},
			{
				"type": "occ",
				"energy": -0.2516,
				"method": "rhf"
			},
			{
				"type": "occ",
				"energy": -0.21825,
				"method": "rhf"
			},
			{
				"type": "unocc",
				"energy": -0.06077,
				"method": "rhf"
			},
			{
				"type": "unocc",
				"energy": -0.02774,
				"method": "rhf"
			},
			{
				"type": "unocc",
				"energy": 0.01335,
				"method": "rhf"
			},
			{
				"type": "unocc",
				"energy": 0.06164,
				"method": "rhf"
			},
			{
				"type": "unocc",
				"energy": 0.07118,
				"method": "rhf"
			}
		],
		"cosmo_sigma_profile": { 
			"-0.025": 0.0,
			"-0.024": 0.0,
			"-0.023": 0.0,
			"-0.022": 0.0,
			"-0.021": 0.0,
			"-0.02": 0.0,
			"-0.019": 0.0,
			"-0.018": 0.0,
			"-0.017": 0.0,
			"-0.016": 0.455360266104,
			"-0.015": 0.96199872577,
			"-0.014": 1.1870755667,
			"-0.013": 1.05227386899,
			"-0.012": 0.783940155613,
			"-0.011": 1.05405468808,
			"-0.01": 1.0409360813,
			"-0.009": 1.42317319686,
			"-0.008": 0.452392138424,
			"-0.007": 2.84710903785,
			"-0.006": 11.7177744538,
			"-0.005": 22.6329055878,
			"-0.004": 27.1820703692,
			"-0.003": 23.2912824245,
			"-0.002": 22.4625131307,
			"-0.001": 15.9716275783,
			"0.0": 18.532130387,
			"0.001": 19.3980864463,
			"0.002": 27.795334721,
			"0.003": 41.9978788394,
			"0.004": 16.3276672576,
			"0.005": 5.4099022501,
			"0.006": 3.88935338256,
			"0.007": 3.49532766219,
			"0.008": 4.07851164258,
			"0.009": 2.49424650742,
			"0.01": 1.53210246903,
			"0.011": 2.61744927975,
			"0.012": 2.00086116239,
			"0.013": 2.74115944042,
			"0.014": 2.54864250047,
			"0.015": 0.376086242948,
			"0.016": 0.0,
			"0.017": 0.0,
			"0.018": 0.0,
			"0.019": 0.0,
			"0.02": 0.0,
			"0.021": 0.0,
			"0.022": 0.0,
			"0.023": 0.0,
			"0.024": 0.0,
			"0.025": 0.0
		}
	}
}
