{
	 "smiles": "CC(=O)CC(C1=CC=CO1)C1=C(O)OC2=C(C=CC=C2)C1=O", 
	 "Tm": 397.15, 
	 "num_atms": 36, 
	 "gaussian": { 
		 "optdone": 1, 
		 "sigma_profile": "yes", 
		 "theory": "DFT", 
		 "functional": "B3LYP", 
		 "basiset": "6-31G**", 
		 "properties": { 
			 "R2extent": 6831.3603, 
			 "electric_dipole_moment_norm": 3.6011819879, 
			 "electric_quadrupole_moment_norm": 25.341532543, 
			 "total_energy": -1032.34291537, 
			 "HOMO_LUMO_gap": 0.18077, 
			 "cosmo_polarized_energy": -16.15, 
			 "cosmo_cavitation_energy": 39.84, 
			 "cosmo_dispersion_energy": -27.55, 
			 "cosmo_repulsion_energy": 2.07, 
			 "cosmo_total_nonelectrostatic_energy": 14.36, 
			 "SMD_solvation_energy": 9.37 
		},
		"coords": [
			{
				"x": -3.1037124738,
				"y": -1.3501741679,
				"z": -1.1238310526,
				"element": "C" 
			},
			{
				"x": -2.0759800545,
				"y": -0.8029814637,
				"z": -2.0952527229,
				"element": "C" 
			},
			{
				"x": -1.7226868215,
				"y": -1.4254320479,
				"z": -3.0791138116,
				"element": "O" 
			},
			{
				"x": -1.4965758293,
				"y": 0.5838915076,
				"z": -1.8057223409,
				"element": "C" 
			},
			{
				"x": -0.7210065709,
				"y": 0.6791507534,
				"z": -0.4572250181,
				"element": "C" 
			},
			{
				"x": -0.3623496587,
				"y": 2.098528819,
				"z": -0.1380468627,
				"element": "C" 
			},
			{
				"x": -0.6145446278,
				"y": 2.9252544067,
				"z": 0.9129905389,
				"element": "C" 
			},
			{
				"x": 0.0079658982,
				"y": 4.1869306167,
				"z": 0.618766929,
				"element": "C" 
			},
			{
				"x": 0.6013908512,
				"y": 4.053022525,
				"z": -0.5934370105,
				"element": "C" 
			},
			{
				"x": 0.381054287,
				"y": 2.7858564346,
				"z": -1.080190693,
				"element": "O" 
			},
			{
				"x": 0.442305991,
				"y": -0.3078040075,
				"z": -0.3766982394,
				"element": "C" 
			},
			{
				"x": 1.5702272658,
				"y": -0.2317264481,
				"z": -1.1525811164,
				"element": "C" 
			},
			{
				"x": 1.8876758656,
				"y": 0.7131495347,
				"z": -2.0332255403,
				"element": "O" 
			},
			{
				"x": 2.5608738619,
				"y": -1.1431585309,
				"z": -1.1432081467,
				"element": "O" 
			},
			{
				"x": 2.4828385098,
				"y": -2.2305925687,
				"z": -0.3066547505,
				"element": "C" 
			},
			{
				"x": 1.399238682,
				"y": -2.401850982,
				"z": 0.5579729549,
				"element": "C" 
			},
			{
				"x": 1.3829739572,
				"y": -3.527639607,
				"z": 1.3972004925,
				"element": "C" 
			},
			{
				"x": 2.4250701908,
				"y": -4.4428805244,
				"z": 1.3634439203,
				"element": "C" 
			},
			{
				"x": 3.5022463064,
				"y": -4.2476739122,
				"z": 0.4830747764,
				"element": "C" 
			},
			{
				"x": 3.5394925781,
				"y": -3.1421711787,
				"z": -0.3583193238,
				"element": "C" 
			},
			{
				"x": 0.2934668683,
				"y": -1.4209905609,
				"z": 0.5556661709,
				"element": "C" 
			},
			{
				"x": -0.6965304682,
				"y": -1.5597419006,
				"z": 1.2877091945,
				"element": "O" 
			},
			{
				"x": -2.6156799331,
				"y": -1.6113506192,
				"z": -0.1770074961,
				"element": "H" 
			},
			{
				"x": -3.5657667612,
				"y": -2.2417323187,
				"z": -1.5503478971,
				"element": "H" 
			},
			{
				"x": -3.8717878168,
				"y": -0.6017798297,
				"z": -0.8976288387,
				"element": "H" 
			},
			{
				"x": -2.3212806705,
				"y": 1.3082065901,
				"z": -1.7780454128,
				"element": "H" 
			},
			{
				"x": -0.8484998063,
				"y": 0.8407249827,
				"z": -2.6471783582,
				"element": "H" 
			},
			{
				"x": -1.3869776627,
				"y": 0.3608378544,
				"z": 0.35075558,
				"element": "H" 
			},
			{
				"x": -1.1762042183,
				"y": 2.6656652808,
				"z": 1.7986888555,
				"element": "H" 
			},
			{
				"x": 0.0065108647,
				"y": 5.0747606097,
				"z": 1.2345133383,
				"element": "H" 
			},
			{
				"x": 1.1754403363,
				"y": 4.7079105027,
				"z": -1.229329272,
				"element": "H" 
			},
			{
				"x": 1.3524095998,
				"y": 1.5169221252,
				"z": -1.8829915722,
				"element": "H" 
			},
			{
				"x": 0.5317083704,
				"y": -3.6472093985,
				"z": 2.0590165401,
				"element": "H" 
			},
			{
				"x": 2.4094503534,
				"y": -5.311797221,
				"z": 2.0138926175,
				"element": "H" 
			},
			{
				"x": 4.3164782386,
				"y": -4.9655831153,
				"z": 0.4554883663,
				"element": "H" 
			},
			{
				"x": 4.3591644969,
				"y": -2.9690421404,
				"z": -1.0470447984,
				"element": "H" 
			}
		],
		 "valence_orbital": [ 
			{
				"type": "occ",
				"energy": -0.25731,
				"method": "rhf"
			},
			{
				"type": "occ",
				"energy": -0.25099,
				"method": "rhf"
			},
			{
				"type": "occ",
				"energy": -0.24448,
				"method": "rhf"
			},
			{
				"type": "occ",
				"energy": -0.23308,
				"method": "rhf"
			},
			{
				"type": "occ",
				"energy": -0.23045,
				"method": "rhf"
			},
			{
				"type": "unocc",
				"energy": -0.04968,
				"method": "rhf"
			},
			{
				"type": "unocc",
				"energy": -0.0171,
				"method": "rhf"
			},
			{
				"type": "unocc",
				"energy": -0.01175,
				"method": "rhf"
			},
			{
				"type": "unocc",
				"energy": -0.00287,
				"method": "rhf"
			},
			{
				"type": "unocc",
				"energy": 0.00687,
				"method": "rhf"
			}
		],
		"cosmo_sigma_profile": { 
			"-0.025": 0.0,
			"-0.024": 0.0,
			"-0.023": 0.0,
			"-0.022": 0.0,
			"-0.021": 0.0,
			"-0.02": 0.0,
			"-0.019": 0.0,
			"-0.018": 0.0,
			"-0.017": 0.0,
			"-0.016": 0.0,
			"-0.015": 0.0,
			"-0.014": 0.0,
			"-0.013": 0.0,
			"-0.012": 0.0,
			"-0.011": 0.0,
			"-0.01": 0.162261384421,
			"-0.009": 2.86239721227,
			"-0.008": 4.9110131965,
			"-0.007": 12.19787871,
			"-0.006": 22.5848660049,
			"-0.005": 23.0674090445,
			"-0.004": 24.438612676,
			"-0.003": 20.6793088492,
			"-0.002": 24.8130301689,
			"-0.001": 24.3245306803,
			"0.0": 25.7170496766,
			"0.001": 22.6436318404,
			"0.002": 24.4882092931,
			"0.003": 21.9181461751,
			"0.004": 14.134112849,
			"0.005": 8.94831687653,
			"0.006": 5.54588867707,
			"0.007": 5.85324177774,
			"0.008": 4.49674501742,
			"0.009": 5.52001198265,
			"0.01": 3.06903679965,
			"0.011": 4.84800773253,
			"0.012": 6.2840518693,
			"0.013": 5.04498150572,
			"0.014": 0.8207381151,
			"0.015": 0.0,
			"0.016": 0.0,
			"0.017": 0.0,
			"0.018": 0.0,
			"0.019": 0.0,
			"0.02": 0.0,
			"0.021": 0.0,
			"0.022": 0.0,
			"0.023": 0.0,
			"0.024": 0.0,
			"0.025": 0.0
		}
	}
}
