{
	 "smiles": "O=C(NNC1=CC=CC=C1)C1=CC=CC=C1", 
	 "Tm": 441.15, 
	 "num_atms": 28, 
	 "gaussian": { 
		 "optdone": 1, 
		 "sigma_profile": "yes", 
		 "theory": "DFT", 
		 "functional": "B3LYP", 
		 "basiset": "6-31G**", 
		 "properties": { 
			 "R2extent": 5430.7292, 
			 "electric_dipole_moment_norm": 3.2194517173, 
			 "electric_quadrupole_moment_norm": 10.2434424487, 
			 "total_energy": -687.328187838, 
			 "HOMO_LUMO_gap": 0.15962, 
			 "cosmo_polarized_energy": -13.39, 
			 "cosmo_cavitation_energy": 32.77, 
			 "cosmo_dispersion_energy": -23.55, 
			 "cosmo_repulsion_energy": 1.81, 
			 "cosmo_total_nonelectrostatic_energy": 11.03, 
			 "SMD_solvation_energy": 6.26 
		},
		"coords": [
			{
				"x": 1.4743110567,
				"y": 1.9442879485,
				"z": 0.5628462057,
				"element": "O" 
			},
			{
				"x": 1.7561630152,
				"y": 0.7669323161,
				"z": 0.3702318188,
				"element": "C" 
			},
			{
				"x": 1.5306856647,
				"y": 0.1675793947,
				"z": -0.8594347472,
				"element": "N" 
			},
			{
				"x": 1.1264388897,
				"y": 0.9900498665,
				"z": -1.9201619156,
				"element": "N" 
			},
			{
				"x": -0.2287739615,
				"y": 0.8824543561,
				"z": -2.3271738954,
				"element": "C" 
			},
			{
				"x": -1.0032182643,
				"y": -0.254934701,
				"z": -2.0710464344,
				"element": "C" 
			},
			{
				"x": -2.3065960734,
				"y": -0.3344213748,
				"z": -2.5638491011,
				"element": "C" 
			},
			{
				"x": -2.8538060929,
				"y": 0.7072365889,
				"z": -3.3130323157,
				"element": "C" 
			},
			{
				"x": -2.0777356929,
				"y": 1.8414713473,
				"z": -3.5665281332,
				"element": "C" 
			},
			{
				"x": -0.7761435025,
				"y": 1.931799389,
				"z": -3.0812095034,
				"element": "C" 
			},
			{
				"x": 2.3776357924,
				"y": -0.1054964999,
				"z": 1.4156647906,
				"element": "C" 
			},
			{
				"x": 2.3363771164,
				"y": -1.506711351,
				"z": 1.3653453,
				"element": "C" 
			},
			{
				"x": 2.9336034425,
				"y": -2.2615920967,
				"z": 2.3745738528,
				"element": "C" 
			},
			{
				"x": 3.5717495449,
				"y": -1.6239661208,
				"z": 3.4406013629,
				"element": "C" 
			},
			{
				"x": 3.6028341199,
				"y": -0.2281867794,
				"z": 3.5022465074,
				"element": "C" 
			},
			{
				"x": 3.0042719439,
				"y": 0.5279236995,
				"z": 2.4974096437,
				"element": "C" 
			},
			{
				"x": 2.1655964887,
				"y": -0.5701697449,
				"z": -1.1369007716,
				"element": "H" 
			},
			{
				"x": 1.3704348889,
				"y": 1.950315801,
				"z": -1.6844586012,
				"element": "H" 
			},
			{
				"x": -0.5883216567,
				"y": -1.0634637769,
				"z": -1.4798970955,
				"element": "H" 
			},
			{
				"x": -2.8982477795,
				"y": -1.2212756328,
				"z": -2.3533273865,
				"element": "H" 
			},
			{
				"x": -3.8687110961,
				"y": 0.6392175612,
				"z": -3.6922633954,
				"element": "H" 
			},
			{
				"x": -2.4882947635,
				"y": 2.6652613558,
				"z": -4.1438132037,
				"element": "H" 
			},
			{
				"x": -0.1755264662,
				"y": 2.814767963,
				"z": -3.2858047661,
				"element": "H" 
			},
			{
				"x": 1.8110386257,
				"y": -2.0108167221,
				"z": 0.5595369631,
				"element": "H" 
			},
			{
				"x": 2.8918000456,
				"y": -3.3460123991,
				"z": 2.334095379,
				"element": "H" 
			},
			{
				"x": 4.0363139989,
				"y": -2.2136076764,
				"z": 4.225674897,
				"element": "H" 
			},
			{
				"x": 4.0917873513,
				"y": 0.2689325723,
				"z": 4.3348380598,
				"element": "H" 
			},
			{
				"x": 3.0067333641,
				"y": 1.6122247157,
				"z": 2.5286364853,
				"element": "H" 
			}
		],
		 "valence_orbital": [ 
			{
				"type": "occ",
				"energy": -0.26816,
				"method": "rhf"
			},
			{
				"type": "occ",
				"energy": -0.26364,
				"method": "rhf"
			},
			{
				"type": "occ",
				"energy": -0.26095,
				"method": "rhf"
			},
			{
				"type": "occ",
				"energy": -0.24317,
				"method": "rhf"
			},
			{
				"type": "occ",
				"energy": -0.20625,
				"method": "rhf"
			},
			{
				"type": "unocc",
				"energy": -0.04663,
				"method": "rhf"
			},
			{
				"type": "unocc",
				"energy": -0.01569,
				"method": "rhf"
			},
			{
				"type": "unocc",
				"energy": 0.00566,
				"method": "rhf"
			},
			{
				"type": "unocc",
				"energy": 0.01751,
				"method": "rhf"
			},
			{
				"type": "unocc",
				"energy": 0.04683,
				"method": "rhf"
			}
		],
		"cosmo_sigma_profile": { 
			"-0.025": 0.0,
			"-0.024": 0.0,
			"-0.023": 0.0,
			"-0.022": 0.0,
			"-0.021": 0.0,
			"-0.02": 0.0,
			"-0.019": 0.0,
			"-0.018": 0.0,
			"-0.017": 0.0,
			"-0.016": 0.0,
			"-0.015": 0.285895342795,
			"-0.014": 1.0481446086,
			"-0.013": 1.15994909745,
			"-0.012": 0.695832653118,
			"-0.011": 1.74958499879,
			"-0.01": 2.40122709186,
			"-0.009": 3.08283694663,
			"-0.008": 2.63946801197,
			"-0.007": 4.90632737544,
			"-0.006": 13.3568874665,
			"-0.005": 20.2512025017,
			"-0.004": 23.2702932351,
			"-0.003": 18.6867060411,
			"-0.002": 16.6578090837,
			"-0.001": 15.0460522371,
			"0.0": 14.9071964031,
			"0.001": 16.7654183611,
			"0.002": 16.8906447882,
			"0.003": 18.7447970675,
			"0.004": 22.1928093766,
			"0.005": 14.3683948014,
			"0.006": 11.5959963002,
			"0.007": 6.61542280084,
			"0.008": 1.91388070726,
			"0.009": 2.06857659831,
			"0.01": 1.93341878947,
			"0.011": 2.71173606234,
			"0.012": 3.64574656914,
			"0.013": 2.6611481799,
			"0.014": 0.109699946711,
			"0.015": 0.0,
			"0.016": 0.0,
			"0.017": 0.0,
			"0.018": 0.0,
			"0.019": 0.0,
			"0.02": 0.0,
			"0.021": 0.0,
			"0.022": 0.0,
			"0.023": 0.0,
			"0.024": 0.0,
			"0.025": 0.0
		}
	}
}
