{
	 "smiles": "NCCNS(=O)(=O)C1=CC=CC=C1", 
	 "Tm": 348.15, 
	 "num_atms": 25, 
	 "gaussian": { 
		 "optdone": 1, 
		 "sigma_profile": "yes", 
		 "theory": "DFT", 
		 "functional": "B3LYP", 
		 "basiset": "6-31G**", 
		 "properties": { 
			 "R2extent": 4023.1665, 
			 "electric_dipole_moment_norm": 7.02945034124, 
			 "electric_quadrupole_moment_norm": 15.7652631418, 
			 "total_energy": -970.14928352, 
			 "HOMO_LUMO_gap": 0.21956, 
			 "cosmo_polarized_energy": -17.78, 
			 "cosmo_cavitation_energy": 29.59, 
			 "cosmo_dispersion_energy": -21.66, 
			 "cosmo_repulsion_energy": 1.72, 
			 "cosmo_total_nonelectrostatic_energy": 9.65, 
			 "SMD_solvation_energy": 2.89 
		},
		"coords": [
			{
				"x": -3.1514803755,
				"y": 0.8562845444,
				"z": 0.0055060551,
				"element": "N" 
			},
			{
				"x": -2.2999468167,
				"y": 0.0198250233,
				"z": -0.8499685025,
				"element": "C" 
			},
			{
				"x": -0.8631204242,
				"y": 0.0430761835,
				"z": -0.3241728412,
				"element": "C" 
			},
			{
				"x": -0.8857238309,
				"y": -0.4108432853,
				"z": 1.0668923884,
				"element": "N" 
			},
			{
				"x": 0.5311184821,
				"y": -0.4634435985,
				"z": 1.9498296678,
				"element": "S" 
			},
			{
				"x": 0.1531262642,
				"y": -0.9494171934,
				"z": 3.2775902929,
				"element": "O" 
			},
			{
				"x": 1.5178464255,
				"y": -1.144827469,
				"z": 1.1087779326,
				"element": "O" 
			},
			{
				"x": 1.0893138646,
				"y": 1.2387736284,
				"z": 2.1438961101,
				"element": "C" 
			},
			{
				"x": 1.979010169,
				"y": 1.7828288911,
				"z": 1.2142336363,
				"element": "C" 
			},
			{
				"x": 2.3799585971,
				"y": 3.1128122681,
				"z": 1.3549361307,
				"element": "C" 
			},
			{
				"x": 1.8966621498,
				"y": 3.8823050686,
				"z": 2.4151576272,
				"element": "C" 
			},
			{
				"x": 1.0153838236,
				"y": 3.323955985,
				"z": 3.3453771794,
				"element": "C" 
			},
			{
				"x": 0.6067861091,
				"y": 1.997140806,
				"z": 3.2143495665,
				"element": "C" 
			},
			{
				"x": -3.0128512582,
				"y": 1.8410943302,
				"z": -0.2083416018,
				"element": "H" 
			},
			{
				"x": -4.133219395,
				"y": 0.6549133124,
				"z": -0.1574712258,
				"element": "H" 
			},
			{
				"x": -2.2913646494,
				"y": 0.3150050113,
				"z": -1.9113168663,
				"element": "H" 
			},
			{
				"x": -2.6747207976,
				"y": -1.0072954366,
				"z": -0.7969969108,
				"element": "H" 
			},
			{
				"x": -0.2315591919,
				"y": -0.6321652645,
				"z": -0.9064589498,
				"element": "H" 
			},
			{
				"x": -0.4512387186,
				"y": 1.061557056,
				"z": -0.4239354745,
				"element": "H" 
			},
			{
				"x": -1.660078188,
				"y": 0.0030236651,
				"z": 1.5860710928,
				"element": "H" 
			},
			{
				"x": 2.3662494191,
				"y": 1.1595293015,
				"z": 0.4156889098,
				"element": "H" 
			},
			{
				"x": 3.0766833972,
				"y": 3.5434339335,
				"z": 0.6418377016,
				"element": "H" 
			},
			{
				"x": 2.2144017982,
				"y": 4.9152789833,
				"z": 2.523331972,
				"element": "H" 
			},
			{
				"x": 0.6533837128,
				"y": 3.9192362843,
				"z": 4.1783883172,
				"element": "H" 
			},
			{
				"x": -0.0568205663,
				"y": 1.5399179712,
				"z": 3.9406977925,
				"element": "H" 
			}
		],
		 "valence_orbital": [ 
			{
				"type": "occ",
				"energy": -0.29297,
				"method": "rhf"
			},
			{
				"type": "occ",
				"energy": -0.27976,
				"method": "rhf"
			},
			{
				"type": "occ",
				"energy": -0.26786,
				"method": "rhf"
			},
			{
				"type": "occ",
				"energy": -0.26291,
				"method": "rhf"
			},
			{
				"type": "occ",
				"energy": -0.25295,
				"method": "rhf"
			},
			{
				"type": "unocc",
				"energy": -0.03339,
				"method": "rhf"
			},
			{
				"type": "unocc",
				"energy": -0.01889,
				"method": "rhf"
			},
			{
				"type": "unocc",
				"energy": 0.05938,
				"method": "rhf"
			},
			{
				"type": "unocc",
				"energy": 0.07357,
				"method": "rhf"
			},
			{
				"type": "unocc",
				"energy": 0.09795,
				"method": "rhf"
			}
		],
		"cosmo_sigma_profile": { 
			"-0.025": 0.0,
			"-0.024": 0.0,
			"-0.023": 0.0,
			"-0.022": 0.0,
			"-0.021": 0.0,
			"-0.02": 0.0,
			"-0.019": 0.0,
			"-0.018": 0.0,
			"-0.017": 0.0,
			"-0.016": 0.0,
			"-0.015": 0.0,
			"-0.014": 0.0,
			"-0.013": 0.0,
			"-0.012": 0.0,
			"-0.011": 0.619869333588,
			"-0.01": 3.62972326843,
			"-0.009": 3.42276961005,
			"-0.008": 4.44000742148,
			"-0.007": 9.47595522581,
			"-0.006": 13.8844934049,
			"-0.005": 19.0102815455,
			"-0.004": 21.1270583897,
			"-0.003": 22.1055018141,
			"-0.002": 17.4395830713,
			"-0.001": 11.7421614148,
			"0.0": 10.1699946634,
			"0.001": 11.1232819701,
			"0.002": 14.0312656975,
			"0.003": 15.6963742712,
			"0.004": 8.39001104468,
			"0.005": 4.00529838279,
			"0.006": 4.47163103559,
			"0.007": 4.90265471901,
			"0.008": 5.30304971848,
			"0.009": 4.55201914292,
			"0.01": 7.07211976342,
			"0.011": 9.23028472091,
			"0.012": 7.59944999366,
			"0.013": 0.298418530526,
			"0.014": 0.0,
			"0.015": 0.0,
			"0.016": 0.0,
			"0.017": 0.0,
			"0.018": 0.0,
			"0.019": 0.0,
			"0.02": 0.0,
			"0.021": 0.0,
			"0.022": 0.0,
			"0.023": 0.0,
			"0.024": 0.0,
			"0.025": 0.0
		}
	}
}
