{
	 "smiles": "FC1=CC(Br)=C(N=C=O)C(Br)=C1", 
	 "Tm": 317.15, 
	 "num_atms": 14, 
	 "gaussian": { 
		 "optdone": 1, 
		 "sigma_profile": "yes", 
		 "theory": "DFT", 
		 "functional": "B3LYP", 
		 "basiset": "6-31G**", 
		 "properties": { 
			 "R2extent": 5169.3446, 
			 "electric_dipole_moment_norm": 1.94511762626, 
			 "electric_quadrupole_moment_norm": 5.05675039922, 
			 "total_energy": -5640.55726353, 
			 "HOMO_LUMO_gap": 0.20089, 
			 "cosmo_polarized_energy": -4.66, 
			 "cosmo_cavitation_energy": 25.19, 
			 "cosmo_dispersion_energy": -18.8, 
			 "cosmo_repulsion_energy": 1.47, 
			 "cosmo_total_nonelectrostatic_energy": 7.86, 
			 "SMD_solvation_energy": 4.92 
		},
		"coords": [
			{
				"x": 3.5666378141,
				"y": 0.2916542013,
				"z": -3.8188337786,
				"element": "F" 
			},
			{
				"x": 2.4822849439,
				"y": 0.1337197073,
				"z": -3.0409862356,
				"element": "C" 
			},
			{
				"x": 1.8865678639,
				"y": 1.2570663799,
				"z": -2.4834614863,
				"element": "C" 
			},
			{
				"x": 0.764210076,
				"y": 1.0835798981,
				"z": -1.6793930393,
				"element": "C" 
			},
			{
				"x": -0.044127732,
				"y": 2.6277371285,
				"z": -0.9206879157,
				"element": "Br" 
			},
			{
				"x": 0.222589114,
				"y": -0.1940402935,
				"z": -1.41972369,
				"element": "C" 
			},
			{
				"x": -0.885558527,
				"y": -0.4156331034,
				"z": -0.6310174962,
				"element": "N" 
			},
			{
				"x": -1.7131688671,
				"y": 0.1653333966,
				"z": 0.0371143907,
				"element": "C" 
			},
			{
				"x": -2.583341124,
				"y": 0.5669014391,
				"z": 0.7172753492,
				"element": "O" 
			},
			{
				"x": 0.870143715,
				"y": -1.298249003,
				"z": -2.0131797247,
				"element": "C" 
			},
			{
				"x": 0.2002570016,
				"y": -3.0486026917,
				"z": -1.7099902628,
				"element": "Br" 
			},
			{
				"x": 1.9927727219,
				"y": -1.1468561637,
				"z": -2.8199071119,
				"element": "C" 
			},
			{
				"x": 2.2924714624,
				"y": 2.2420044213,
				"z": -2.6750606926,
				"element": "H" 
			},
			{
				"x": 2.4796615373,
				"y": -2.0029153168,
				"z": -3.2689483064,
				"element": "H" 
			}
		],
		 "valence_orbital": [ 
			{
				"type": "occ",
				"energy": -0.31544,
				"method": "rhf"
			},
			{
				"type": "occ",
				"energy": -0.31212,
				"method": "rhf"
			},
			{
				"type": "occ",
				"energy": -0.29713,
				"method": "rhf"
			},
			{
				"type": "occ",
				"energy": -0.26535,
				"method": "rhf"
			},
			{
				"type": "occ",
				"energy": -0.24742,
				"method": "rhf"
			},
			{
				"type": "unocc",
				"energy": -0.04653,
				"method": "rhf"
			},
			{
				"type": "unocc",
				"energy": -0.04241,
				"method": "rhf"
			},
			{
				"type": "unocc",
				"energy": -0.03939,
				"method": "rhf"
			},
			{
				"type": "unocc",
				"energy": 0.01238,
				"method": "rhf"
			},
			{
				"type": "unocc",
				"energy": 0.01754,
				"method": "rhf"
			}
		],
		"cosmo_sigma_profile": { 
			"-0.025": 0.0,
			"-0.024": 0.0,
			"-0.023": 0.0,
			"-0.022": 0.0,
			"-0.021": 0.0,
			"-0.02": 0.0,
			"-0.019": 0.0,
			"-0.018": 0.0,
			"-0.017": 0.0,
			"-0.016": 0.0,
			"-0.015": 0.0,
			"-0.014": 0.0,
			"-0.013": 0.0,
			"-0.012": 0.0,
			"-0.011": 0.0,
			"-0.01": 0.475478520963,
			"-0.009": 2.73441945444,
			"-0.008": 2.57627940983,
			"-0.007": 3.30289510424,
			"-0.006": 3.86982248627,
			"-0.005": 8.39157423936,
			"-0.004": 9.49327245249,
			"-0.003": 14.8838849002,
			"-0.002": 17.1740693056,
			"-0.001": 29.5524883591,
			"0.0": 28.2544808059,
			"0.001": 17.4648731042,
			"0.002": 17.8798692733,
			"0.003": 25.8229054558,
			"0.004": 12.4673704949,
			"0.005": 4.96866513679,
			"0.006": 4.94760104699,
			"0.007": 6.93077377093,
			"0.008": 0.114724739675,
			"0.009": 0.0,
			"0.01": 0.0,
			"0.011": 0.0,
			"0.012": 0.0,
			"0.013": 0.0,
			"0.014": 0.0,
			"0.015": 0.0,
			"0.016": 0.0,
			"0.017": 0.0,
			"0.018": 0.0,
			"0.019": 0.0,
			"0.02": 0.0,
			"0.021": 0.0,
			"0.022": 0.0,
			"0.023": 0.0,
			"0.024": 0.0,
			"0.025": 0.0
		}
	}
}
