{
	 "smiles": "CC1=CC=C(C=C1Cl)N1C(=O)C=CC1=O", 
	 "Tm": 416.2, 
	 "num_atms": 23, 
	 "gaussian": { 
		 "optdone": 1, 
		 "sigma_profile": "yes", 
		 "theory": "DFT", 
		 "functional": "B3LYP", 
		 "basiset": "6-31G**", 
		 "properties": { 
			 "R2extent": 4774.6166, 
			 "electric_dipole_moment_norm": 2.74161345379, 
			 "electric_quadrupole_moment_norm": 19.9135854931, 
			 "total_energy": -1089.38717518, 
			 "HOMO_LUMO_gap": 0.12432, 
			 "cosmo_polarized_energy": -9.22, 
			 "cosmo_cavitation_energy": 29.34, 
			 "cosmo_dispersion_energy": -21.69, 
			 "cosmo_repulsion_energy": 1.66, 
			 "cosmo_total_nonelectrostatic_energy": 9.3, 
			 "SMD_solvation_energy": 6.3 
		},
		"coords": [
			{
				"x": 3.7019846544,
				"y": 0.1601741492,
				"z": -1.8123505878,
				"element": "C" 
			},
			{
				"x": 2.4080436837,
				"y": 0.5071491989,
				"z": -1.1247322844,
				"element": "C" 
			},
			{
				"x": 1.2042734426,
				"y": -0.1164112079,
				"z": -1.4711871017,
				"element": "C" 
			},
			{
				"x": -0.0091362771,
				"y": 0.1801462593,
				"z": -0.8563694187,
				"element": "C" 
			},
			{
				"x": -0.0546113143,
				"y": 1.1453942865,
				"z": 0.1609715982,
				"element": "C" 
			},
			{
				"x": 1.1325932214,
				"y": 1.7926856397,
				"z": 0.5363217571,
				"element": "C" 
			},
			{
				"x": 2.3230594457,
				"y": 1.4643520208,
				"z": -0.1058161977,
				"element": "C" 
			},
			{
				"x": 3.780937008,
				"y": 2.312433602,
				"z": 0.4105161285,
				"element": "Cl" 
			},
			{
				"x": -1.2919961993,
				"y": 1.4711126796,
				"z": 0.8121549003,
				"element": "N" 
			},
			{
				"x": -1.4622123392,
				"y": 2.4245987557,
				"z": 1.8505707688,
				"element": "C" 
			},
			{
				"x": -0.6091604656,
				"y": 3.1189709442,
				"z": 2.3612920154,
				"element": "O" 
			},
			{
				"x": -2.9137165048,
				"y": 2.4226120104,
				"z": 2.2132617509,
				"element": "C" 
			},
			{
				"x": -3.5479095339,
				"y": 1.5365956386,
				"z": 1.4474932372,
				"element": "C" 
			},
			{
				"x": -2.5577674573,
				"y": 0.894179076,
				"z": 0.5278656817,
				"element": "C" 
			},
			{
				"x": -2.8126616486,
				"y": 0.042582785,
				"z": -0.2973059251,
				"element": "O" 
			},
			{
				"x": 4.1434812841,
				"y": 1.0368654407,
				"z": -2.2984657152,
				"element": "H" 
			},
			{
				"x": 4.4454721494,
				"y": -0.2127365589,
				"z": -1.0996225418,
				"element": "H" 
			},
			{
				"x": 3.5405666168,
				"y": -0.6081610232,
				"z": -2.5725416284,
				"element": "H" 
			},
			{
				"x": 1.2159872839,
				"y": -0.867317056,
				"z": -2.2566307277,
				"element": "H" 
			},
			{
				"x": -0.9073619547,
				"y": -0.3320416881,
				"z": -1.163823942,
				"element": "H" 
			},
			{
				"x": 1.1336810795,
				"y": 2.5395674731,
				"z": 1.3143370826,
				"element": "H" 
			},
			{
				"x": -3.2950799369,
				"y": 3.0734235358,
				"z": 2.988641854,
				"element": "H" 
			},
			{
				"x": -4.5933662377,
				"y": 1.2599240385,
				"z": 1.4213192959,
				"element": "H" 
			}
		],
		 "valence_orbital": [ 
			{
				"type": "occ",
				"energy": -0.30959,
				"method": "rhf"
			},
			{
				"type": "occ",
				"energy": -0.30287,
				"method": "rhf"
			},
			{
				"type": "occ",
				"energy": -0.28096,
				"method": "rhf"
			},
			{
				"type": "occ",
				"energy": -0.24898,
				"method": "rhf"
			},
			{
				"type": "occ",
				"energy": -0.23237,
				"method": "rhf"
			},
			{
				"type": "unocc",
				"energy": -0.10805,
				"method": "rhf"
			},
			{
				"type": "unocc",
				"energy": -0.01899,
				"method": "rhf"
			},
			{
				"type": "unocc",
				"energy": -0.01077,
				"method": "rhf"
			},
			{
				"type": "unocc",
				"energy": 0.03427,
				"method": "rhf"
			},
			{
				"type": "unocc",
				"energy": 0.05448,
				"method": "rhf"
			}
		],
		"cosmo_sigma_profile": { 
			"-0.025": 0.0,
			"-0.024": 0.0,
			"-0.023": 0.0,
			"-0.022": 0.0,
			"-0.021": 0.0,
			"-0.02": 0.0,
			"-0.019": 0.0,
			"-0.018": 0.0,
			"-0.017": 0.0,
			"-0.016": 0.0,
			"-0.015": 0.0,
			"-0.014": 0.0,
			"-0.013": 0.0,
			"-0.012": 0.0,
			"-0.011": 0.0689787877019,
			"-0.01": 2.87285690196,
			"-0.009": 3.62750839966,
			"-0.008": 3.30506023413,
			"-0.007": 4.42663121307,
			"-0.006": 10.1233943258,
			"-0.005": 12.619845227,
			"-0.004": 16.6663304874,
			"-0.003": 17.8298197376,
			"-0.002": 19.0100817664,
			"-0.001": 21.0656686583,
			"0.0": 21.4368067747,
			"0.001": 17.7623152176,
			"0.002": 19.0683672369,
			"0.003": 21.5364121297,
			"0.004": 16.5473776387,
			"0.005": 8.01693784346,
			"0.006": 3.3202039838,
			"0.007": 3.44862015417,
			"0.008": 3.84179289014,
			"0.009": 4.76776953436,
			"0.01": 4.91327817357,
			"0.011": 2.46296997796,
			"0.012": 0.0186289029052,
			"0.013": 0.0,
			"0.014": 0.0,
			"0.015": 0.0,
			"0.016": 0.0,
			"0.017": 0.0,
			"0.018": 0.0,
			"0.019": 0.0,
			"0.02": 0.0,
			"0.021": 0.0,
			"0.022": 0.0,
			"0.023": 0.0,
			"0.024": 0.0,
			"0.025": 0.0
		}
	}
}
