{
	 "smiles": "OC(=O)C1CCCN1C(=O)C1=C(Cl)C=CC(Cl)=C1", 
	 "Tm": 468.15, 
	 "num_atms": 29, 
	 "gaussian": { 
		 "optdone": 1, 
		 "sigma_profile": "yes", 
		 "theory": "DFT", 
		 "functional": "B3LYP", 
		 "basiset": "6-31G**", 
		 "properties": { 
			 "R2extent": 5961.122, 
			 "electric_dipole_moment_norm": 3.12179802838, 
			 "electric_quadrupole_moment_norm": 26.3778960757, 
			 "total_energy": -1664.7303753, 
			 "HOMO_LUMO_gap": 0.21458, 
			 "cosmo_polarized_energy": -19.12, 
			 "cosmo_cavitation_energy": 36.03, 
			 "cosmo_dispersion_energy": -24.44, 
			 "cosmo_repulsion_energy": 1.9, 
			 "cosmo_total_nonelectrostatic_energy": 13.49, 
			 "SMD_solvation_energy": 6.79 
		},
		"coords": [
			{
				"x": 1.5169129828,
				"y": 2.1640689198,
				"z": 2.7405324993,
				"element": "O" 
			},
			{
				"x": 1.9544704221,
				"y": 2.3604703706,
				"z": 1.4762167688,
				"element": "C" 
			},
			{
				"x": 3.1160457278,
				"y": 2.5541653791,
				"z": 1.2216250865,
				"element": "O" 
			},
			{
				"x": 0.8625061513,
				"y": 2.4065945129,
				"z": 0.401310604,
				"element": "C" 
			},
			{
				"x": 0.4331853612,
				"y": 3.8747927917,
				"z": 0.1366563405,
				"element": "C" 
			},
			{
				"x": -1.0468920146,
				"y": 3.7591793096,
				"z": -0.2542602101,
				"element": "C" 
			},
			{
				"x": -1.5648129605,
				"y": 2.6523826676,
				"z": 0.6695083946,
				"element": "C" 
			},
			{
				"x": -0.3994533592,
				"y": 1.7449101565,
				"z": 0.7969130979,
				"element": "N" 
			},
			{
				"x": -0.6136945099,
				"y": 0.380678653,
				"z": 0.7723301859,
				"element": "C" 
			},
			{
				"x": -1.7202703511,
				"y": -0.1081271801,
				"z": 0.9416690873,
				"element": "O" 
			},
			{
				"x": 0.5988945211,
				"y": -0.5071390631,
				"z": 0.5782550442,
				"element": "C" 
			},
			{
				"x": 1.0480526978,
				"y": -0.8777158359,
				"z": -0.6946284585,
				"element": "C" 
			},
			{
				"x": 0.2793951115,
				"y": -0.2110767217,
				"z": -2.129158072,
				"element": "Cl" 
			},
			{
				"x": 2.1011674835,
				"y": -1.7767613569,
				"z": -0.8557709742,
				"element": "C" 
			},
			{
				"x": 2.720142857,
				"y": -2.3261025863,
				"z": 0.2647857318,
				"element": "C" 
			},
			{
				"x": 2.2720280581,
				"y": -1.9682348735,
				"z": 1.5360549006,
				"element": "C" 
			},
			{
				"x": 3.037972202,
				"y": -2.6618344026,
				"z": 2.9500330916,
				"element": "Cl" 
			},
			{
				"x": 1.2191020842,
				"y": -1.0711328682,
				"z": 1.6994414951,
				"element": "C" 
			},
			{
				"x": 0.559630003,
				"y": 1.9934272698,
				"z": 2.6989090152,
				"element": "H" 
			},
			{
				"x": 1.2796028592,
				"y": 1.961937194,
				"z": -0.5051442329,
				"element": "H" 
			},
			{
				"x": 1.0638179921,
				"y": 4.3381338571,
				"z": -0.6238942955,
				"element": "H" 
			},
			{
				"x": 0.5342881162,
				"y": 4.4626810275,
				"z": 1.0561909786,
				"element": "H" 
			},
			{
				"x": -1.5921019654,
				"y": 4.6985889051,
				"z": -0.1310293558,
				"element": "H" 
			},
			{
				"x": -1.141315385,
				"y": 3.4456162268,
				"z": -1.2994717959,
				"element": "H" 
			},
			{
				"x": -2.4123777931,
				"y": 2.0883880973,
				"z": 0.2779839136,
				"element": "H" 
			},
			{
				"x": -1.8503795973,
				"y": 3.0480198987,
				"z": 1.6521114641,
				"element": "H" 
			},
			{
				"x": 2.4320944083,
				"y": -2.0463758211,
				"z": -1.8523514843,
				"element": "H" 
			},
			{
				"x": 3.540666944,
				"y": -3.0253202713,
				"z": 0.1514728532,
				"element": "H" 
			},
			{
				"x": 0.882021953,
				"y": -0.8100142562,
				"z": 2.6959083265,
				"element": "H" 
			}
		],
		 "valence_orbital": [ 
			{
				"type": "occ",
				"energy": -0.29468,
				"method": "rhf"
			},
			{
				"type": "occ",
				"energy": -0.28969,
				"method": "rhf"
			},
			{
				"type": "occ",
				"energy": -0.26943,
				"method": "rhf"
			},
			{
				"type": "occ",
				"energy": -0.26274,
				"method": "rhf"
			},
			{
				"type": "occ",
				"energy": -0.25521,
				"method": "rhf"
			},
			{
				"type": "unocc",
				"energy": -0.04063,
				"method": "rhf"
			},
			{
				"type": "unocc",
				"energy": -0.03601,
				"method": "rhf"
			},
			{
				"type": "unocc",
				"energy": -0.01024,
				"method": "rhf"
			},
			{
				"type": "unocc",
				"energy": 0.00209,
				"method": "rhf"
			},
			{
				"type": "unocc",
				"energy": 0.00844,
				"method": "rhf"
			}
		],
		"cosmo_sigma_profile": { 
			"-0.025": 0.0,
			"-0.024": 0.0,
			"-0.023": 0.0,
			"-0.022": 0.0,
			"-0.021": 0.0,
			"-0.02": 0.0,
			"-0.019": 0.0,
			"-0.018": 0.0,
			"-0.017": 0.0,
			"-0.016": 0.224637542343,
			"-0.015": 0.991465606049,
			"-0.014": 0.941746404746,
			"-0.013": 1.67678475566,
			"-0.012": 2.46338414204,
			"-0.011": 1.69770161462,
			"-0.01": 1.33752773809,
			"-0.009": 2.95774169884,
			"-0.008": 6.6955650563,
			"-0.007": 7.10762659931,
			"-0.006": 11.7881340003,
			"-0.005": 19.0342441559,
			"-0.004": 22.77735901,
			"-0.003": 23.3649077059,
			"-0.002": 21.6441192596,
			"-0.001": 20.0478286052,
			"0.0": 22.6950488401,
			"0.001": 25.9016338157,
			"0.002": 15.5332217534,
			"0.003": 15.6411953423,
			"0.004": 17.5084037713,
			"0.005": 4.79913227286,
			"0.006": 4.00892815322,
			"0.007": 3.22963157817,
			"0.008": 5.21758785517,
			"0.009": 4.39499908941,
			"0.01": 6.61332665119,
			"0.011": 7.44520956129,
			"0.012": 9.79435379552,
			"0.013": 3.11398451297,
			"0.014": 0.1070675526,
			"0.015": 0.0,
			"0.016": 0.0,
			"0.017": 0.0,
			"0.018": 0.0,
			"0.019": 0.0,
			"0.02": 0.0,
			"0.021": 0.0,
			"0.022": 0.0,
			"0.023": 0.0,
			"0.024": 0.0,
			"0.025": 0.0
		}
	}
}
