{
	 "smiles": "ClC1=CC(Cl)=CN=C1", 
	 "Tm": 338.65, 
	 "num_atms": 11, 
	 "gaussian": { 
		 "optdone": 1, 
		 "sigma_profile": "yes", 
		 "theory": "DFT", 
		 "functional": "B3LYP", 
		 "basiset": "6-31G**", 
		 "properties": { 
			 "R2extent": 1616.655, 
			 "electric_dipole_moment_norm": 0.618647856215, 
			 "electric_quadrupole_moment_norm": 0.642707857428, 
			 "total_energy": -1167.46523967, 
			 "HOMO_LUMO_gap": 0.21464, 
			 "cosmo_polarized_energy": -4.51, 
			 "cosmo_cavitation_energy": 19.21, 
			 "cosmo_dispersion_energy": -14.71, 
			 "cosmo_repulsion_energy": 1.22, 
			 "cosmo_total_nonelectrostatic_energy": 5.72, 
			 "SMD_solvation_energy": 1.48 
		},
		"coords": [
			{
				"x": 1.0638601814,
				"y": -1.8381317199,
				"z": 2.7451219506,
				"element": "Cl" 
			},
			{
				"x": 0.785424417,
				"y": -0.7883402634,
				"z": 1.3738695388,
				"element": "C" 
			},
			{
				"x": -0.317823017,
				"y": -0.9946040371,
				"z": 0.548826683,
				"element": "C" 
			},
			{
				"x": -0.4785769654,
				"y": -0.1215963269,
				"z": -0.5246785388,
				"element": "C" 
			},
			{
				"x": -1.8365372596,
				"y": -0.3081563684,
				"z": -1.6113971802,
				"element": "Cl" 
			},
			{
				"x": 0.4472780556,
				"y": 0.9042958494,
				"z": -0.7324595962,
				"element": "C" 
			},
			{
				"x": 1.4987472128,
				"y": 1.0856445025,
				"z": 0.0699689015,
				"element": "N" 
			},
			{
				"x": 1.6702095572,
				"y": 0.2592056453,
				"z": 1.1043775438,
				"element": "C" 
			},
			{
				"x": -1.0200032581,
				"y": -1.7986905614,
				"z": 0.733933094,
				"element": "H" 
			},
			{
				"x": 0.3299687283,
				"y": 1.5900812199,
				"z": -1.567245205,
				"element": "H" 
			},
			{
				"x": 2.5335523477,
				"y": 0.4276920601,
				"z": 1.7424828085,
				"element": "H" 
			}
		],
		 "valence_orbital": [ 
			{
				"type": "occ",
				"energy": -0.34363,
				"method": "rhf"
			},
			{
				"type": "occ",
				"energy": -0.32978,
				"method": "rhf"
			},
			{
				"type": "occ",
				"energy": -0.29416,
				"method": "rhf"
			},
			{
				"type": "occ",
				"energy": -0.27948,
				"method": "rhf"
			},
			{
				"type": "occ",
				"energy": -0.26654,
				"method": "rhf"
			},
			{
				"type": "unocc",
				"energy": -0.0519,
				"method": "rhf"
			},
			{
				"type": "unocc",
				"energy": -0.03858,
				"method": "rhf"
			},
			{
				"type": "unocc",
				"energy": -0.00271,
				"method": "rhf"
			},
			{
				"type": "unocc",
				"energy": 0.03778,
				"method": "rhf"
			},
			{
				"type": "unocc",
				"energy": 0.11249,
				"method": "rhf"
			}
		],
		"cosmo_sigma_profile": { 
			"-0.025": 0.0,
			"-0.024": 0.0,
			"-0.023": 0.0,
			"-0.022": 0.0,
			"-0.021": 0.0,
			"-0.02": 0.0,
			"-0.019": 0.0,
			"-0.018": 0.0,
			"-0.017": 0.0,
			"-0.016": 0.0,
			"-0.015": 0.0,
			"-0.014": 0.0,
			"-0.013": 0.0,
			"-0.012": 0.0,
			"-0.011": 0.0,
			"-0.01": 0.6397627598,
			"-0.009": 1.99585399686,
			"-0.008": 4.58080055097,
			"-0.007": 4.58175191435,
			"-0.006": 4.90550487918,
			"-0.005": 5.22307587092,
			"-0.004": 5.39229277942,
			"-0.003": 8.27441514272,
			"-0.002": 13.750169651,
			"-0.001": 26.5057566708,
			"0.0": 15.5521944366,
			"0.001": 11.8261463389,
			"0.002": 13.6133271958,
			"0.003": 18.7385076679,
			"0.004": 13.8143593515,
			"0.005": 1.32088397868,
			"0.006": 1.53185246015,
			"0.007": 0.881037673887,
			"0.008": 1.31219816352,
			"0.009": 0.936852212084,
			"0.01": 0.675148172479,
			"0.011": 0.879109903062,
			"0.012": 1.11534303822,
			"0.013": 0.770645094288,
			"0.014": 0.729337619864,
			"0.015": 0.344647888134,
			"0.016": 0.0,
			"0.017": 0.0,
			"0.018": 0.0,
			"0.019": 0.0,
			"0.02": 0.0,
			"0.021": 0.0,
			"0.022": 0.0,
			"0.023": 0.0,
			"0.024": 0.0,
			"0.025": 0.0
		}
	}
}
