{
	 "smiles": "C=CC(=O)NCNC(=O)C=C", 
	 "Tm": 573.15, 
	 "num_atms": 21, 
	 "gaussian": { 
		 "optdone": 1, 
		 "sigma_profile": "yes", 
		 "theory": "DFT", 
		 "functional": "B3LYP", 
		 "basiset": "6-31G**", 
		 "properties": { 
			 "R2extent": 2532.0914, 
			 "electric_dipole_moment_norm": 0.945161726902, 
			 "electric_quadrupole_moment_norm": 13.7848436785, 
			 "total_energy": -532.706881574, 
			 "HOMO_LUMO_gap": 0.20902, 
			 "cosmo_polarized_energy": -14.73, 
			 "cosmo_cavitation_energy": 26.51, 
			 "cosmo_dispersion_energy": -18.16, 
			 "cosmo_repulsion_energy": 1.48, 
			 "cosmo_total_nonelectrostatic_energy": 9.82, 
			 "SMD_solvation_energy": 5.92 
		},
		"coords": [
			{
				"x": 1.8308509528,
				"y": -1.4731429004,
				"z": -2.3768223667,
				"element": "C" 
			},
			{
				"x": 0.5044551883,
				"y": -1.322308621,
				"z": -2.3396628055,
				"element": "C" 
			},
			{
				"x": -0.2369548817,
				"y": -0.3595211913,
				"z": -1.4731614941,
				"element": "C" 
			},
			{
				"x": -1.3696893596,
				"y": 0.0180000243,
				"z": -1.7687628473,
				"element": "O" 
			},
			{
				"x": 0.4128423265,
				"y": 0.1026695271,
				"z": -0.3526626122,
				"element": "N" 
			},
			{
				"x": -0.3110679368,
				"y": 0.9640019002,
				"z": 0.5677541299,
				"element": "C" 
			},
			{
				"x": -1.359030957,
				"y": 0.2918878844,
				"z": 1.3155079031,
				"element": "N" 
			},
			{
				"x": -1.0154614944,
				"y": -0.5907818867,
				"z": 2.3105763942,
				"element": "C" 
			},
			{
				"x": 0.1500668863,
				"y": -0.7257171262,
				"z": 2.6801121581,
				"element": "O" 
			},
			{
				"x": -2.1586975407,
				"y": -1.3384684494,
				"z": 2.9122114526,
				"element": "C" 
			},
			{
				"x": -1.9535295063,
				"y": -2.2242109219,
				"z": 3.8882223918,
				"element": "C" 
			},
			{
				"x": 2.2997818278,
				"y": -2.1753882036,
				"z": -3.0592297295,
				"element": "H" 
			},
			{
				"x": 2.4985641313,
				"y": -0.8888069527,
				"z": -1.7497004892,
				"element": "H" 
			},
			{
				"x": -0.1426036346,
				"y": -1.8772789895,
				"z": -3.0132537551,
				"element": "H" 
			},
			{
				"x": 1.1340033977,
				"y": -0.4745290071,
				"z": 0.0576628994,
				"element": "H" 
			},
			{
				"x": -0.7691134903,
				"y": 1.76985269,
				"z": -0.004934033,
				"element": "H" 
			},
			{
				"x": 0.4064654569,
				"y": 1.3714296183,
				"z": 1.2795465069,
				"element": "H" 
			},
			{
				"x": -2.2470952898,
				"y": 0.1841454958,
				"z": 0.8447613108,
				"element": "H" 
			},
			{
				"x": -3.1589300579,
				"y": -1.136254861,
				"z": 2.5340252837,
				"element": "H" 
			},
			{
				"x": -2.7688375064,
				"y": -2.7781375729,
				"z": 4.341973534,
				"element": "H" 
			},
			{
				"x": -0.9453185123,
				"y": -2.4029404564,
				"z": 4.2499361682,
				"element": "H" 
			}
		],
		 "valence_orbital": [ 
			{
				"type": "occ",
				"energy": -0.28606,
				"method": "rhf"
			},
			{
				"type": "occ",
				"energy": -0.27646,
				"method": "rhf"
			},
			{
				"type": "occ",
				"energy": -0.2586,
				"method": "rhf"
			},
			{
				"type": "occ",
				"energy": -0.25516,
				"method": "rhf"
			},
			{
				"type": "occ",
				"energy": -0.25319,
				"method": "rhf"
			},
			{
				"type": "unocc",
				"energy": -0.04417,
				"method": "rhf"
			},
			{
				"type": "unocc",
				"energy": -0.03741,
				"method": "rhf"
			},
			{
				"type": "unocc",
				"energy": 0.07017,
				"method": "rhf"
			},
			{
				"type": "unocc",
				"energy": 0.08479,
				"method": "rhf"
			},
			{
				"type": "unocc",
				"energy": 0.08692,
				"method": "rhf"
			}
		],
		"cosmo_sigma_profile": { 
			"-0.025": 0.0,
			"-0.024": 0.0,
			"-0.023": 0.0,
			"-0.022": 0.0,
			"-0.021": 0.0,
			"-0.02": 0.0,
			"-0.019": 0.0,
			"-0.018": 0.0,
			"-0.017": 0.0,
			"-0.016": 0.0,
			"-0.015": 0.0,
			"-0.014": 0.300523720752,
			"-0.013": 1.19084133423,
			"-0.012": 2.22437422967,
			"-0.011": 2.02463693035,
			"-0.01": 1.50487653052,
			"-0.009": 3.40531233454,
			"-0.008": 3.21653479611,
			"-0.007": 7.97481571712,
			"-0.006": 13.6000312983,
			"-0.005": 15.013352781,
			"-0.004": 14.9692708259,
			"-0.003": 14.6041378143,
			"-0.002": 15.3674137128,
			"-0.001": 13.2232807962,
			"0.0": 14.5311940385,
			"0.001": 14.2364635292,
			"0.002": 12.4521677077,
			"0.003": 11.3073884064,
			"0.004": 10.510971033,
			"0.005": 5.42205757611,
			"0.006": 3.62061846641,
			"0.007": 2.53014089255,
			"0.008": 2.88649299668,
			"0.009": 3.07940918877,
			"0.01": 2.45042572746,
			"0.011": 2.55751479051,
			"0.012": 4.03781682635,
			"0.013": 6.87915986736,
			"0.014": 4.84929659089,
			"0.015": 0.456941131463,
			"0.016": 0.0,
			"0.017": 0.0,
			"0.018": 0.0,
			"0.019": 0.0,
			"0.02": 0.0,
			"0.021": 0.0,
			"0.022": 0.0,
			"0.023": 0.0,
			"0.024": 0.0,
			"0.025": 0.0
		}
	}
}
