{
	 "smiles": "FC(F)(F)C(=O)C1=CC=C(Br)C=C1", 
	 "Tm": 303.15, 
	 "num_atms": 17, 
	 "gaussian": { 
		 "optdone": 1, 
		 "sigma_profile": "yes", 
		 "theory": "DFT", 
		 "functional": "B3LYP", 
		 "basiset": "6-31G**", 
		 "properties": { 
			 "R2extent": 6012.1677, 
			 "electric_dipole_moment_norm": 2.15919562106, 
			 "electric_quadrupole_moment_norm": 6.21002321654, 
			 "total_energy": -3253.40303481, 
			 "HOMO_LUMO_gap": 0.17426, 
			 "cosmo_polarized_energy": -5.67, 
			 "cosmo_cavitation_energy": 25.78, 
			 "cosmo_dispersion_energy": -18.88, 
			 "cosmo_repulsion_energy": 1.43, 
			 "cosmo_total_nonelectrostatic_energy": 8.32, 
			 "SMD_solvation_energy": 5.06 
		},
		"coords": [
			{
				"x": -0.8790534574,
				"y": 1.8754077365,
				"z": 0.9216321031,
				"element": "F" 
			},
			{
				"x": -1.1016472772,
				"y": 2.2716225196,
				"z": -0.352116123,
				"element": "C" 
			},
			{
				"x": -0.24092464,
				"y": 3.2791386224,
				"z": -0.6223339371,
				"element": "F" 
			},
			{
				"x": -2.3429362963,
				"y": 2.7450177375,
				"z": -0.4347496289,
				"element": "F" 
			},
			{
				"x": -0.8849603591,
				"y": 1.0899573762,
				"z": -1.3369636188,
				"element": "C" 
			},
			{
				"x": -1.821124989,
				"y": 0.7498109382,
				"z": -2.0324846862,
				"element": "O" 
			},
			{
				"x": 0.4487759961,
				"y": 0.4394491899,
				"z": -1.3782213486,
				"element": "C" 
			},
			{
				"x": 1.5322881935,
				"y": 0.8312270407,
				"z": -0.5738988611,
				"element": "C" 
			},
			{
				"x": 2.7543518438,
				"y": 0.1711274375,
				"z": -0.6702489719,
				"element": "C" 
			},
			{
				"x": 2.8923280451,
				"y": -0.8832296728,
				"z": -1.5734688401,
				"element": "C" 
			},
			{
				"x": 4.5635553175,
				"y": -1.7859421603,
				"z": -1.7055826618,
				"element": "Br" 
			},
			{
				"x": 1.8284676471,
				"y": -1.289935153,
				"z": -2.3831363802,
				"element": "C" 
			},
			{
				"x": 0.6131113352,
				"y": -0.625881499,
				"z": -2.2803446709,
				"element": "C" 
			},
			{
				"x": 1.4339683283,
				"y": 1.6484093282,
				"z": 0.1296986304,
				"element": "H" 
			},
			{
				"x": 3.591978522,
				"y": 0.4707489607,
				"z": -0.0514050538,
				"element": "H" 
			},
			{
				"x": 1.9555234839,
				"y": -2.1113344925,
				"z": -3.0786624456,
				"element": "H" 
			},
			{
				"x": -0.2313016934,
				"y": -0.9182939099,
				"z": -2.8953135055,
				"element": "H" 
			}
		],
		 "valence_orbital": [ 
			{
				"type": "occ",
				"energy": -0.33096,
				"method": "rhf"
			},
			{
				"type": "occ",
				"energy": -0.30462,
				"method": "rhf"
			},
			{
				"type": "occ",
				"energy": -0.28642,
				"method": "rhf"
			},
			{
				"type": "occ",
				"energy": -0.28584,
				"method": "rhf"
			},
			{
				"type": "occ",
				"energy": -0.26559,
				"method": "rhf"
			},
			{
				"type": "unocc",
				"energy": -0.09133,
				"method": "rhf"
			},
			{
				"type": "unocc",
				"energy": -0.03453,
				"method": "rhf"
			},
			{
				"type": "unocc",
				"energy": -0.00894,
				"method": "rhf"
			},
			{
				"type": "unocc",
				"energy": 0.00264,
				"method": "rhf"
			},
			{
				"type": "unocc",
				"energy": 0.10481,
				"method": "rhf"
			}
		],
		"cosmo_sigma_profile": { 
			"-0.025": 0.0,
			"-0.024": 0.0,
			"-0.023": 0.0,
			"-0.022": 0.0,
			"-0.021": 0.0,
			"-0.02": 0.0,
			"-0.019": 0.0,
			"-0.018": 0.0,
			"-0.017": 0.0,
			"-0.016": 0.0,
			"-0.015": 0.0,
			"-0.014": 0.0,
			"-0.013": 0.0,
			"-0.012": 0.0,
			"-0.011": 0.0,
			"-0.01": 0.0,
			"-0.009": 0.10017030504,
			"-0.008": 3.98483865418,
			"-0.007": 7.62205806368,
			"-0.006": 8.38122297167,
			"-0.005": 9.04956975223,
			"-0.004": 10.0806782333,
			"-0.003": 10.7108146951,
			"-0.002": 12.4704734917,
			"-0.001": 18.0041881118,
			"0.0": 25.4709341367,
			"0.001": 35.6926973982,
			"0.002": 32.3887571778,
			"0.003": 13.3229687036,
			"0.004": 9.54589196845,
			"0.005": 1.75437892573,
			"0.006": 1.84967085105,
			"0.007": 2.21865699099,
			"0.008": 2.46907042819,
			"0.009": 3.5667357862,
			"0.01": 2.75826916194,
			"0.011": 0.167453581346,
			"0.012": 0.0,
			"0.013": 0.0,
			"0.014": 0.0,
			"0.015": 0.0,
			"0.016": 0.0,
			"0.017": 0.0,
			"0.018": 0.0,
			"0.019": 0.0,
			"0.02": 0.0,
			"0.021": 0.0,
			"0.022": 0.0,
			"0.023": 0.0,
			"0.024": 0.0,
			"0.025": 0.0
		}
	}
}
