{
	 "smiles": "FC(F)(F)C1=CC(=C(C=C1)N1CCOCC1)S(Cl)(=O)=O", 
	 "Tm": 355.95, 
	 "num_atms": 31, 
	 "gaussian": { 
		 "optdone": 1, 
		 "sigma_profile": "yes", 
		 "theory": "DFT", 
		 "functional": "B3LYP", 
		 "basiset": "6-31G**", 
		 "properties": { 
			 "R2extent": 7867.0247, 
			 "electric_dipole_moment_norm": 5.04366705781, 
			 "electric_quadrupole_moment_norm": 11.8975324753, 
			 "total_energy": -1864.02949893, 
			 "HOMO_LUMO_gap": 0.13432, 
			 "cosmo_polarized_energy": -12.91, 
			 "cosmo_cavitation_energy": 37.8, 
			 "cosmo_dispersion_energy": -26.86, 
			 "cosmo_repulsion_energy": 1.95, 
			 "cosmo_total_nonelectrostatic_energy": 12.89, 
			 "SMD_solvation_energy": 6.07 
		},
		"coords": [
			{
				"x": 0.459053501,
				"y": 0.2429843572,
				"z": -5.3768381411,
				"element": "F" 
			},
			{
				"x": 1.5944097595,
				"y": 0.3119621116,
				"z": -4.6442221455,
				"element": "C" 
			},
			{
				"x": 2.4249194216,
				"y": -0.6413338148,
				"z": -5.1228254417,
				"element": "F" 
			},
			{
				"x": 2.1561891962,
				"y": 1.5122338726,
				"z": -4.8921967065,
				"element": "F" 
			},
			{
				"x": 1.3190961717,
				"y": 0.1113772206,
				"z": -3.1795012529,
				"element": "C" 
			},
			{
				"x": 1.1895519792,
				"y": 1.201938388,
				"z": -2.327591768,
				"element": "C" 
			},
			{
				"x": 0.8709442135,
				"y": 1.0048969598,
				"z": -0.9807969625,
				"element": "C" 
			},
			{
				"x": 0.6438978874,
				"y": -0.2924443054,
				"z": -0.439734131,
				"element": "C" 
			},
			{
				"x": 0.8470001523,
				"y": -1.3721508629,
				"z": -1.3287702753,
				"element": "C" 
			},
			{
				"x": 1.1743385753,
				"y": -1.1801101585,
				"z": -2.6623151904,
				"element": "C" 
			},
			{
				"x": 0.3117392417,
				"y": -0.4980069933,
				"z": 0.8966724365,
				"element": "N" 
			},
			{
				"x": 0.8006231749,
				"y": -1.6885368745,
				"z": 1.6044880667,
				"element": "C" 
			},
			{
				"x": -0.2662592748,
				"y": -2.7809525726,
				"z": 1.7402855734,
				"element": "C" 
			},
			{
				"x": -1.4509195458,
				"y": -2.2582141258,
				"z": 2.3200297242,
				"element": "O" 
			},
			{
				"x": -1.9716729139,
				"y": -1.1872125433,
				"z": 1.5424465448,
				"element": "C" 
			},
			{
				"x": -0.9779366327,
				"y": -0.0274024033,
				"z": 1.4433924138,
				"element": "C" 
			},
			{
				"x": 1.0097770502,
				"y": 2.4920475057,
				"z": 0.0220156669,
				"element": "S" 
			},
			{
				"x": 2.6912012897,
				"y": 2.0069826482,
				"z": 1.2365900428,
				"element": "Cl" 
			},
			{
				"x": 1.437448385,
				"y": 3.585291808,
				"z": -0.843142971,
				"element": "O" 
			},
			{
				"x": -0.1111058393,
				"y": 2.6731644769,
				"z": 0.9375958046,
				"element": "O" 
			},
			{
				"x": 1.3745884308,
				"y": 2.2054822078,
				"z": -2.6892508973,
				"element": "H" 
			},
			{
				"x": 0.7042118867,
				"y": -2.3819558207,
				"z": -0.9634526874,
				"element": "H" 
			},
			{
				"x": 1.3037617963,
				"y": -2.0388873677,
				"z": -3.3128547129,
				"element": "H" 
			},
			{
				"x": 1.0902188872,
				"y": -1.3646574999,
				"z": 2.6127677879,
				"element": "H" 
			},
			{
				"x": 1.6993688008,
				"y": -2.066947886,
				"z": 1.1113107028,
				"element": "H" 
			},
			{
				"x": 0.0864275417,
				"y": -3.575572792,
				"z": 2.4049383356,
				"element": "H" 
			},
			{
				"x": -0.4937707854,
				"y": -3.2301241877,
				"z": 0.7583745275,
				"element": "H" 
			},
			{
				"x": -2.887091447,
				"y": -0.855707178,
				"z": 2.041685973,
				"element": "H" 
			},
			{
				"x": -2.2360393462,
				"y": -1.5444148001,
				"z": 0.5324205826,
				"element": "H" 
			},
			{
				"x": -0.8043815625,
				"y": 0.3964723407,
				"z": 2.4384481818,
				"element": "H" 
			},
			{
				"x": -1.3804899951,
				"y": 0.7637982892,
				"z": 0.8140309188,
				"element": "H" 
			}
		],
		 "valence_orbital": [ 
			{
				"type": "occ",
				"energy": -0.31506,
				"method": "rhf"
			},
			{
				"type": "occ",
				"energy": -0.30975,
				"method": "rhf"
			},
			{
				"type": "occ",
				"energy": -0.29766,
				"method": "rhf"
			},
			{
				"type": "occ",
				"energy": -0.28212,
				"method": "rhf"
			},
			{
				"type": "occ",
				"energy": -0.22943,
				"method": "rhf"
			},
			{
				"type": "unocc",
				"energy": -0.09511,
				"method": "rhf"
			},
			{
				"type": "unocc",
				"energy": -0.05103,
				"method": "rhf"
			},
			{
				"type": "unocc",
				"energy": -0.04653,
				"method": "rhf"
			},
			{
				"type": "unocc",
				"energy": 0.03644,
				"method": "rhf"
			},
			{
				"type": "unocc",
				"energy": 0.06146,
				"method": "rhf"
			}
		],
		"cosmo_sigma_profile": { 
			"-0.025": 0.0,
			"-0.024": 0.0,
			"-0.023": 0.0,
			"-0.022": 0.0,
			"-0.021": 0.0,
			"-0.02": 0.0,
			"-0.019": 0.0,
			"-0.018": 0.0,
			"-0.017": 0.0,
			"-0.016": 0.0,
			"-0.015": 0.0,
			"-0.014": 0.0,
			"-0.013": 0.0,
			"-0.012": 0.0,
			"-0.011": 0.0,
			"-0.01": 0.0,
			"-0.009": 1.10274204505,
			"-0.008": 4.81901721107,
			"-0.007": 7.17459259996,
			"-0.006": 13.5354599002,
			"-0.005": 24.5696338979,
			"-0.004": 26.8632212341,
			"-0.003": 21.380971487,
			"-0.002": 20.3928232847,
			"-0.001": 20.6803716416,
			"0.0": 23.5861723556,
			"0.001": 20.7034632089,
			"0.002": 31.9694111523,
			"0.003": 36.5519974524,
			"0.004": 14.2751160518,
			"0.005": 4.74058763734,
			"0.006": 4.98281121508,
			"0.007": 6.32792795679,
			"0.008": 8.21084762759,
			"0.009": 5.73599883272,
			"0.01": 0.832685533736,
			"0.011": 1.72359792235,
			"0.012": 1.57515059507,
			"0.013": 1.54732931666,
			"0.014": 0.121302992215,
			"0.015": 0.0,
			"0.016": 0.0,
			"0.017": 0.0,
			"0.018": 0.0,
			"0.019": 0.0,
			"0.02": 0.0,
			"0.021": 0.0,
			"0.022": 0.0,
			"0.023": 0.0,
			"0.024": 0.0,
			"0.025": 0.0
		}
	}
}
