{
	 "smiles": "CC1=NN(C(Cl)=C1C(O)=O)C1=CC(Cl)=C(C)C=C1", 
	 "Tm": 515.15, 
	 "num_atms": 28, 
	 "gaussian": { 
		 "optdone": 1, 
		 "sigma_profile": "yes", 
		 "theory": "DFT", 
		 "functional": "B3LYP", 
		 "basiset": "6-31G**", 
		 "properties": { 
			 "R2extent": 7329.7691, 
			 "electric_dipole_moment_norm": 2.17839542095, 
			 "electric_quadrupole_moment_norm": 12.8749390212, 
			 "total_energy": -1643.64482475, 
			 "HOMO_LUMO_gap": 0.19614, 
			 "cosmo_polarized_energy": -11.38, 
			 "cosmo_cavitation_energy": 36.37, 
			 "cosmo_dispersion_energy": -26.18, 
			 "cosmo_repulsion_energy": 2.03, 
			 "cosmo_total_nonelectrostatic_energy": 12.22, 
			 "SMD_solvation_energy": 6.22 
		},
		"coords": [
			{
				"x": 0.5786929449,
				"y": 0.5501954686,
				"z": -3.8706583085,
				"element": "C" 
			},
			{
				"x": 0.1556972901,
				"y": -0.0035774356,
				"z": -2.547936818,
				"element": "C" 
			},
			{
				"x": -0.3345620337,
				"y": 0.7971927042,
				"z": -1.6135111939,
				"element": "N" 
			},
			{
				"x": -0.6338883419,
				"y": -0.0075744719,
				"z": -0.5440595931,
				"element": "N" 
			},
			{
				"x": -0.3178394939,
				"y": -1.3053459508,
				"z": -0.8045609652,
				"element": "C" 
			},
			{
				"x": -0.4868306886,
				"y": -2.5496229172,
				"z": 0.3696865131,
				"element": "Cl" 
			},
			{
				"x": 0.192779796,
				"y": -1.3598217237,
				"z": -2.099370671,
				"element": "C" 
			},
			{
				"x": 0.6806029765,
				"y": -2.4902535727,
				"z": -2.891206541,
				"element": "C" 
			},
			{
				"x": 0.604567374,
				"y": -3.6820866951,
				"z": -2.251818481,
				"element": "O" 
			},
			{
				"x": 1.1176203847,
				"y": -2.3910836475,
				"z": -4.0240097325,
				"element": "O" 
			},
			{
				"x": -1.1549010601,
				"y": 0.5983324288,
				"z": 0.6369788722,
				"element": "C" 
			},
			{
				"x": -2.2459183719,
				"y": 0.0416872018,
				"z": 1.3061241001,
				"element": "C" 
			},
			{
				"x": -2.7296575378,
				"y": 0.6758836455,
				"z": 2.4480326761,
				"element": "C" 
			},
			{
				"x": -4.1012832471,
				"y": -0.0584472596,
				"z": 3.27158621,
				"element": "Cl" 
			},
			{
				"x": -2.17855374,
				"y": 1.8678973056,
				"z": 2.9421287153,
				"element": "C" 
			},
			{
				"x": -2.7111477704,
				"y": 2.5505767332,
				"z": 4.1743064278,
				"element": "C" 
			},
			{
				"x": -1.0999627532,
				"y": 2.4042818913,
				"z": 2.2240022481,
				"element": "C" 
			},
			{
				"x": -0.5824473854,
				"y": 1.7887855236,
				"z": 1.0888203601,
				"element": "C" 
			},
			{
				"x": 0.0125267281,
				"y": 0.0913680438,
				"z": -4.6860171525,
				"element": "H" 
			},
			{
				"x": 0.4180192601,
				"y": 1.6303160797,
				"z": -3.8782332904,
				"element": "H" 
			},
			{
				"x": 1.6327087337,
				"y": 0.3343809213,
				"z": -4.066052273,
				"element": "H" 
			},
			{
				"x": 0.954800815,
				"y": -4.3357713339,
				"z": -2.8797824916,
				"element": "H" 
			},
			{
				"x": -2.7233694637,
				"y": -0.8595710772,
				"z": 0.9449397743,
				"element": "H" 
			},
			{
				"x": -2.1426860587,
				"y": 3.4585049834,
				"z": 4.3890301779,
				"element": "H" 
			},
			{
				"x": -2.6545635303,
				"y": 1.8938537408,
				"z": 5.0489402322,
				"element": "H" 
			},
			{
				"x": -3.7644932455,
				"y": 2.8249082036,
				"z": 4.0529433483,
				"element": "H" 
			},
			{
				"x": -0.65201147,
				"y": 3.32978187,
				"z": 2.5741812871,
				"element": "H" 
			},
			{
				"x": 0.2481998892,
				"y": 2.2206093401,
				"z": 0.5439165689,
				"element": "H" 
			}
		],
		 "valence_orbital": [ 
			{
				"type": "occ",
				"energy": -0.28782,
				"method": "rhf"
			},
			{
				"type": "occ",
				"energy": -0.27858,
				"method": "rhf"
			},
			{
				"type": "occ",
				"energy": -0.26164,
				"method": "rhf"
			},
			{
				"type": "occ",
				"energy": -0.25778,
				"method": "rhf"
			},
			{
				"type": "occ",
				"energy": -0.24301,
				"method": "rhf"
			},
			{
				"type": "unocc",
				"energy": -0.04687,
				"method": "rhf"
			},
			{
				"type": "unocc",
				"energy": -0.02482,
				"method": "rhf"
			},
			{
				"type": "unocc",
				"energy": -0.0159,
				"method": "rhf"
			},
			{
				"type": "unocc",
				"energy": 0.0144,
				"method": "rhf"
			},
			{
				"type": "unocc",
				"energy": 0.02114,
				"method": "rhf"
			}
		],
		"cosmo_sigma_profile": { 
			"-0.025": 0.0,
			"-0.024": 0.0,
			"-0.023": 0.0,
			"-0.022": 0.0,
			"-0.021": 0.0,
			"-0.02": 0.0,
			"-0.019": 0.0,
			"-0.018": 0.776597789578,
			"-0.017": 1.08973653813,
			"-0.016": 0.419553046251,
			"-0.015": 0.874073569081,
			"-0.014": 0.764875565633,
			"-0.013": 0.845416040664,
			"-0.012": 0.923941838495,
			"-0.011": 0.482311502177,
			"-0.01": 0.526239197077,
			"-0.009": 0.603975669421,
			"-0.008": 1.88902800306,
			"-0.007": 5.76227515906,
			"-0.006": 7.69699702242,
			"-0.005": 13.2028008722,
			"-0.004": 17.2073714694,
			"-0.003": 21.1639049116,
			"-0.002": 28.7644982993,
			"-0.001": 36.082485708,
			"0.0": 31.9964417021,
			"0.001": 24.9214603988,
			"0.002": 28.8984527941,
			"0.003": 18.9532124959,
			"0.004": 13.5659131469,
			"0.005": 8.4594182673,
			"0.006": 4.89708449536,
			"0.007": 4.27079300505,
			"0.008": 4.9659745637,
			"0.009": 3.00841392669,
			"0.01": 3.11834357669,
			"0.011": 3.68947296101,
			"0.012": 4.12498048733,
			"0.013": 0.879083763182,
			"0.014": 0.0799559401809,
			"0.015": 0.0,
			"0.016": 0.0,
			"0.017": 0.0,
			"0.018": 0.0,
			"0.019": 0.0,
			"0.02": 0.0,
			"0.021": 0.0,
			"0.022": 0.0,
			"0.023": 0.0,
			"0.024": 0.0,
			"0.025": 0.0
		}
	}
}
