{
	 "smiles": "CC1=CC=C(C)C(CO)=C1", 
	 "Tm": 314.15, 
	 "num_atms": 22, 
	 "gaussian": { 
		 "optdone": 1, 
		 "sigma_profile": "yes", 
		 "theory": "DFT", 
		 "functional": "B3LYP", 
		 "basiset": "6-31G**", 
		 "properties": { 
			 "R2extent": 1857.9884, 
			 "electric_dipole_moment_norm": 1.57819013113, 
			 "electric_quadrupole_moment_norm": 6.49864558735, 
			 "total_energy": -425.41835683, 
			 "HOMO_LUMO_gap": 0.22358, 
			 "cosmo_polarized_energy": -6.75, 
			 "cosmo_cavitation_energy": 24.49, 
			 "cosmo_dispersion_energy": -17.9, 
			 "cosmo_repulsion_energy": 1.46, 
			 "cosmo_total_nonelectrostatic_energy": 8.05, 
			 "SMD_solvation_energy": 4.36 
		},
		"coords": [
			{
				"x": -1.577754927,
				"y": 3.0432025349,
				"z": 0.3526713914,
				"element": "C" 
			},
			{
				"x": -0.988697327,
				"y": 1.6607681945,
				"z": 0.1959562804,
				"element": "C" 
			},
			{
				"x": 0.3643067304,
				"y": 1.4729124804,
				"z": -0.0968374854,
				"element": "C" 
			},
			{
				"x": 0.9000227637,
				"y": 0.1882332589,
				"z": -0.2105074319,
				"element": "C" 
			},
			{
				"x": 0.1126284369,
				"y": -0.9535184399,
				"z": -0.0391360921,
				"element": "C" 
			},
			{
				"x": 0.7207305372,
				"y": -2.3322603331,
				"z": -0.1529108326,
				"element": "C" 
			},
			{
				"x": -1.2590163852,
				"y": -0.7764772943,
				"z": 0.2505562607,
				"element": "C" 
			},
			{
				"x": -2.1836383888,
				"y": -1.9652324523,
				"z": 0.4094369993,
				"element": "C" 
			},
			{
				"x": -2.3546332588,
				"y": -2.7156645389,
				"z": -0.7959337115,
				"element": "O" 
			},
			{
				"x": -1.7806145194,
				"y": 0.515923862,
				"z": 0.3593156636,
				"element": "C" 
			},
			{
				"x": -2.596306823,
				"y": 3.0938338949,
				"z": -0.0456681618,
				"element": "H" 
			},
			{
				"x": -0.975318623,
				"y": 3.7954101924,
				"z": -0.1651401695,
				"element": "H" 
			},
			{
				"x": -1.6297717389,
				"y": 3.3372351598,
				"z": 1.408672273,
				"element": "H" 
			},
			{
				"x": 1.0087900012,
				"y": 2.3371157482,
				"z": -0.239925182,
				"element": "H" 
			},
			{
				"x": 1.9565197786,
				"y": 0.0707160409,
				"z": -0.4400558486,
				"element": "H" 
			},
			{
				"x": 1.743608112,
				"y": -2.2798170469,
				"z": -0.5356247244,
				"element": "H" 
			},
			{
				"x": 0.7608364402,
				"y": -2.8311565823,
				"z": 0.8244144699,
				"element": "H" 
			},
			{
				"x": 0.126710604,
				"y": -2.9711967581,
				"z": -0.8112849345,
				"element": "H" 
			},
			{
				"x": -3.154930034,
				"y": -1.6233169236,
				"z": 0.7979853829,
				"element": "H" 
			},
			{
				"x": -1.7806799152,
				"y": -2.6810299229,
				"z": 1.1340405605,
				"element": "H" 
			},
			{
				"x": -2.5920608375,
				"y": -2.0859298601,
				"z": -1.4895805682,
				"element": "H" 
			},
			{
				"x": -2.8405306262,
				"y": 0.6343487856,
				"z": 0.5802558607,
				"element": "H" 
			}
		],
		 "valence_orbital": [ 
			{
				"type": "occ",
				"energy": -0.3325,
				"method": "rhf"
			},
			{
				"type": "occ",
				"energy": -0.31715,
				"method": "rhf"
			},
			{
				"type": "occ",
				"energy": -0.26829,
				"method": "rhf"
			},
			{
				"type": "occ",
				"energy": -0.24375,
				"method": "rhf"
			},
			{
				"type": "occ",
				"energy": -0.22815,
				"method": "rhf"
			},
			{
				"type": "unocc",
				"energy": -0.00457,
				"method": "rhf"
			},
			{
				"type": "unocc",
				"energy": 0.00449,
				"method": "rhf"
			},
			{
				"type": "unocc",
				"energy": 0.09225,
				"method": "rhf"
			},
			{
				"type": "unocc",
				"energy": 0.10192,
				"method": "rhf"
			},
			{
				"type": "unocc",
				"energy": 0.11499,
				"method": "rhf"
			}
		],
		"cosmo_sigma_profile": { 
			"-0.025": 0.0,
			"-0.024": 0.0,
			"-0.023": 0.0,
			"-0.022": 0.0,
			"-0.021": 0.0,
			"-0.02": 0.0,
			"-0.019": 0.0,
			"-0.018": 0.0,
			"-0.017": 0.0,
			"-0.016": 0.0,
			"-0.015": 0.565615802398,
			"-0.014": 0.861691183913,
			"-0.013": 0.817754173249,
			"-0.012": 0.433175080669,
			"-0.011": 1.16217240781,
			"-0.01": 0.559483199441,
			"-0.009": 0.996400407021,
			"-0.008": 0.991064565678,
			"-0.007": 0.889291065747,
			"-0.006": 0.913620700148,
			"-0.005": 6.21324435381,
			"-0.004": 21.3357818176,
			"-0.003": 22.5387330491,
			"-0.002": 19.4624895726,
			"-0.001": 18.2743107071,
			"0.0": 21.8560685192,
			"0.001": 17.3586026546,
			"0.002": 9.34834197391,
			"0.003": 9.41818177704,
			"0.004": 8.10115679613,
			"0.005": 7.99835034621,
			"0.006": 8.7476018202,
			"0.007": 4.13032478137,
			"0.008": 0.968976970668,
			"0.009": 1.591525609,
			"0.01": 0.7609469185,
			"0.011": 1.07738306731,
			"0.012": 1.31277596546,
			"0.013": 1.37056779403,
			"0.014": 1.5793256894,
			"0.015": 0.484001714771,
			"0.016": 0.0,
			"0.017": 0.0,
			"0.018": 0.0,
			"0.019": 0.0,
			"0.02": 0.0,
			"0.021": 0.0,
			"0.022": 0.0,
			"0.023": 0.0,
			"0.024": 0.0,
			"0.025": 0.0
		}
	}
}
