{
	 "smiles": "OC(=O)C1=CC=CC=C1OC(F)(F)F", 
	 "Tm": 352.15, 
	 "num_atms": 19, 
	 "gaussian": { 
		 "optdone": 1, 
		 "sigma_profile": "yes", 
		 "theory": "DFT", 
		 "functional": "B3LYP", 
		 "basiset": "6-31G**", 
		 "properties": { 
			 "R2extent": 2508.203, 
			 "electric_dipole_moment_norm": 1.96050832439, 
			 "electric_quadrupole_moment_norm": 10.4118538503, 
			 "total_energy": -833.069982976, 
			 "HOMO_LUMO_gap": 0.20969, 
			 "cosmo_polarized_energy": -9.16, 
			 "cosmo_cavitation_energy": 25.43, 
			 "cosmo_dispersion_energy": -18.1, 
			 "cosmo_repulsion_energy": 1.37, 
			 "cosmo_total_nonelectrostatic_energy": 8.7, 
			 "SMD_solvation_energy": 7.08 
		},
		"coords": [
			{
				"x": 1.8572407563,
				"y": -0.1107539081,
				"z": 1.4513586768,
				"element": "O" 
			},
			{
				"x": 1.7143384343,
				"y": 1.0753507129,
				"z": 0.8268611678,
				"element": "C" 
			},
			{
				"x": 2.6117478936,
				"y": 1.8953398863,
				"z": 0.7908819392,
				"element": "O" 
			},
			{
				"x": 0.3784724223,
				"y": 1.3040935628,
				"z": 0.1937138721,
				"element": "C" 
			},
			{
				"x": 0.2040137518,
				"y": 2.5520858723,
				"z": -0.4270116263,
				"element": "C" 
			},
			{
				"x": -0.989926753,
				"y": 2.8901313223,
				"z": -1.0541502744,
				"element": "C" 
			},
			{
				"x": -2.0461942179,
				"y": 1.9769503502,
				"z": -1.0698964262,
				"element": "C" 
			},
			{
				"x": -1.9003778817,
				"y": 0.7328364093,
				"z": -0.4592466863,
				"element": "C" 
			},
			{
				"x": -0.6976289226,
				"y": 0.4005004035,
				"z": 0.1612817718,
				"element": "C" 
			},
			{
				"x": -0.623219469,
				"y": -0.8282615575,
				"z": 0.8221894973,
				"element": "O" 
			},
			{
				"x": -0.3787793572,
				"y": -1.9345304208,
				"z": 0.0731979766,
				"element": "C" 
			},
			{
				"x": 0.705434981,
				"y": -1.8008420426,
				"z": -0.7087402935,
				"element": "F" 
			},
			{
				"x": -1.4154814618,
				"y": -2.2353159911,
				"z": -0.7413552971,
				"element": "F" 
			},
			{
				"x": -0.1940793957,
				"y": -2.9550280405,
				"z": 0.9070105154,
				"element": "F" 
			},
			{
				"x": 2.7641857879,
				"y": -0.1096794245,
				"z": 1.8016904256,
				"element": "H" 
			},
			{
				"x": 1.0393365887,
				"y": 3.2426478424,
				"z": -0.3982975643,
				"element": "H" 
			},
			{
				"x": -1.0982896004,
				"y": 3.8618802296,
				"z": -1.5251792986,
				"element": "H" 
			},
			{
				"x": -2.9853270382,
				"y": 2.2307188405,
				"z": -1.5521503806,
				"element": "H" 
			},
			{
				"x": -2.7077665183,
				"y": 0.0102759529,
				"z": -0.4498579952,
				"element": "H" 
			}
		],
		 "valence_orbital": [ 
			{
				"type": "occ",
				"energy": -0.33327,
				"method": "rhf"
			},
			{
				"type": "occ",
				"energy": -0.32458,
				"method": "rhf"
			},
			{
				"type": "occ",
				"energy": -0.2862,
				"method": "rhf"
			},
			{
				"type": "occ",
				"energy": -0.27626,
				"method": "rhf"
			},
			{
				"type": "occ",
				"energy": -0.27051,
				"method": "rhf"
			},
			{
				"type": "unocc",
				"energy": -0.06082,
				"method": "rhf"
			},
			{
				"type": "unocc",
				"energy": -0.02366,
				"method": "rhf"
			},
			{
				"type": "unocc",
				"energy": 0.04482,
				"method": "rhf"
			},
			{
				"type": "unocc",
				"energy": 0.07259,
				"method": "rhf"
			},
			{
				"type": "unocc",
				"energy": 0.08447,
				"method": "rhf"
			}
		],
		"cosmo_sigma_profile": { 
			"-0.025": 0.0,
			"-0.024": 0.0,
			"-0.023": 0.0,
			"-0.022": 0.0,
			"-0.021": 0.0,
			"-0.02": 0.0,
			"-0.019": 0.0887747536444,
			"-0.018": 0.839857670537,
			"-0.017": 1.36232900594,
			"-0.016": 0.426479658882,
			"-0.015": 0.65358005425,
			"-0.014": 0.615389583955,
			"-0.013": 0.701263598034,
			"-0.012": 1.05730793599,
			"-0.011": 0.952728989304,
			"-0.01": 0.441058811982,
			"-0.009": 0.526158616066,
			"-0.008": 1.90438506546,
			"-0.007": 6.99179221987,
			"-0.006": 9.37746267726,
			"-0.005": 8.90330555453,
			"-0.004": 7.40181347921,
			"-0.003": 8.95862246131,
			"-0.002": 10.9720150639,
			"-0.001": 14.2849460292,
			"0.0": 19.4599411043,
			"0.001": 27.7144619812,
			"0.002": 39.0496677997,
			"0.003": 11.9877788226,
			"0.004": 5.42572036248,
			"0.005": 4.44523117712,
			"0.006": 3.11283851977,
			"0.007": 3.01819789936,
			"0.008": 1.76409395464,
			"0.009": 2.84939212988,
			"0.01": 2.69421631473,
			"0.011": 4.39468161963,
			"0.012": 2.04140255035,
			"0.013": 0.0,
			"0.014": 0.0,
			"0.015": 0.0,
			"0.016": 0.0,
			"0.017": 0.0,
			"0.018": 0.0,
			"0.019": 0.0,
			"0.02": 0.0,
			"0.021": 0.0,
			"0.022": 0.0,
			"0.023": 0.0,
			"0.024": 0.0,
			"0.025": 0.0
		}
	}
}
