{
	 "smiles": "N#CC1=CC(OCC2=CC=CC=C2)=NC=C1", 
	 "Tm": 348.15, 
	 "num_atms": 26, 
	 "gaussian": { 
		 "optdone": 1, 
		 "sigma_profile": "yes", 
		 "theory": "DFT", 
		 "functional": "B3LYP", 
		 "basiset": "6-31G**", 
		 "properties": { 
			 "R2extent": 5628.7364, 
			 "electric_dipole_moment_norm": 3.98536363836, 
			 "electric_quadrupole_moment_norm": 23.8175710015, 
			 "total_energy": -686.112860122, 
			 "HOMO_LUMO_gap": 0.18297, 
			 "cosmo_polarized_energy": -10.86, 
			 "cosmo_cavitation_energy": 32.49, 
			 "cosmo_dispersion_energy": -22.96, 
			 "cosmo_repulsion_energy": 1.79, 
			 "cosmo_total_nonelectrostatic_energy": 11.33, 
			 "SMD_solvation_energy": 6.27 
		},
		"coords": [
			{
				"x": 3.6097207476,
				"y": -3.6996014866,
				"z": -3.9717820473,
				"element": "N" 
			},
			{
				"x": 2.6366526309,
				"y": -3.1631637642,
				"z": -3.6300105761,
				"element": "C" 
			},
			{
				"x": 1.4293339355,
				"y": -2.5043687304,
				"z": -3.2155629994,
				"element": "C" 
			},
			{
				"x": 1.4257197539,
				"y": -1.7016437444,
				"z": -2.0786348134,
				"element": "C" 
			},
			{
				"x": 0.211293553,
				"y": -1.0825768142,
				"z": -1.7236935642,
				"element": "C" 
			},
			{
				"x": 0.234409551,
				"y": -0.312145955,
				"z": -0.6207568178,
				"element": "O" 
			},
			{
				"x": -1.0029791422,
				"y": 0.3384911191,
				"z": -0.2363109956,
				"element": "C" 
			},
			{
				"x": -0.7307870088,
				"y": 1.1429970802,
				"z": 1.0056385378,
				"element": "C" 
			},
			{
				"x": -0.2046962568,
				"y": 2.4375582683,
				"z": 0.910826035,
				"element": "C" 
			},
			{
				"x": 0.0636746046,
				"y": 3.1801443636,
				"z": 2.0603536602,
				"element": "C" 
			},
			{
				"x": -0.193543008,
				"y": 2.6343393028,
				"z": 3.3201415976,
				"element": "C" 
			},
			{
				"x": -0.7182956175,
				"y": 1.3449514758,
				"z": 3.4250411544,
				"element": "C" 
			},
			{
				"x": -0.983772457,
				"y": 0.6043309736,
				"z": 2.2725162516,
				"element": "C" 
			},
			{
				"x": -0.9182781046,
				"y": -1.2251947515,
				"z": -2.412030359,
				"element": "N" 
			},
			{
				"x": -0.8903530297,
				"y": -2.0047017212,
				"z": -3.5059372157,
				"element": "C" 
			},
			{
				"x": 0.2412009526,
				"y": -2.6666167796,
				"z": -3.9575648734,
				"element": "C" 
			},
			{
				"x": 2.3136302056,
				"y": -1.5479364119,
				"z": -1.4780494145,
				"element": "H" 
			},
			{
				"x": -1.3419063879,
				"y": 0.9688735008,
				"z": -1.0642937042,
				"element": "H" 
			},
			{
				"x": -1.7687496218,
				"y": -0.424446565,
				"z": -0.0668597825,
				"element": "H" 
			},
			{
				"x": -0.0057806163,
				"y": 2.8634686115,
				"z": -0.0693964692,
				"element": "H" 
			},
			{
				"x": 0.4692997429,
				"y": 4.1840728161,
				"z": 1.9742297533,
				"element": "H" 
			},
			{
				"x": 0.0112839377,
				"y": 3.2132909673,
				"z": 4.2161282515,
				"element": "H" 
			},
			{
				"x": -0.9221833405,
				"y": 0.9172725289,
				"z": 4.4024378291,
				"element": "H" 
			},
			{
				"x": -1.3922150671,
				"y": -0.399775655,
				"z": 2.3549864842,
				"element": "H" 
			},
			{
				"x": -1.8309785449,
				"y": -2.0986324146,
				"z": -4.0441614572,
				"element": "H" 
			},
			{
				"x": 0.2173985878,
				"y": -3.2857862144,
				"z": -4.8459544654,
				"element": "H" 
			}
		],
		 "valence_orbital": [ 
			{
				"type": "occ",
				"energy": -0.29413,
				"method": "rhf"
			},
			{
				"type": "occ",
				"energy": -0.2864,
				"method": "rhf"
			},
			{
				"type": "occ",
				"energy": -0.2582,
				"method": "rhf"
			},
			{
				"type": "occ",
				"energy": -0.25546,
				"method": "rhf"
			},
			{
				"type": "occ",
				"energy": -0.2502,
				"method": "rhf"
			},
			{
				"type": "unocc",
				"energy": -0.06723,
				"method": "rhf"
			},
			{
				"type": "unocc",
				"energy": -0.0216,
				"method": "rhf"
			},
			{
				"type": "unocc",
				"energy": -0.01633,
				"method": "rhf"
			},
			{
				"type": "unocc",
				"energy": -0.00748,
				"method": "rhf"
			},
			{
				"type": "unocc",
				"energy": 0.02885,
				"method": "rhf"
			}
		],
		"cosmo_sigma_profile": { 
			"-0.025": 0.0,
			"-0.024": 0.0,
			"-0.023": 0.0,
			"-0.022": 0.0,
			"-0.021": 0.0,
			"-0.02": 0.0,
			"-0.019": 0.0,
			"-0.018": 0.0,
			"-0.017": 0.0,
			"-0.016": 0.0,
			"-0.015": 0.0,
			"-0.014": 0.0,
			"-0.013": 0.0,
			"-0.012": 0.0,
			"-0.011": 0.0,
			"-0.01": 0.00943321368006,
			"-0.009": 1.46400529766,
			"-0.008": 5.61637854901,
			"-0.007": 6.54722441247,
			"-0.006": 17.4120080703,
			"-0.005": 20.4423444123,
			"-0.004": 18.8314292672,
			"-0.003": 21.6904972365,
			"-0.002": 18.7074587558,
			"-0.001": 24.38362561,
			"0.0": 20.0468307473,
			"0.001": 15.5246917808,
			"0.002": 13.3556056885,
			"0.003": 12.8005229754,
			"0.004": 12.6244993827,
			"0.005": 16.1587683461,
			"0.006": 9.81780569954,
			"0.007": 5.70247216183,
			"0.008": 6.24351994469,
			"0.009": 5.37250857585,
			"0.01": 3.67446398184,
			"0.011": 3.04494769954,
			"0.012": 2.40763378566,
			"0.013": 0.297440474585,
			"0.014": 0.0,
			"0.015": 0.0,
			"0.016": 0.0,
			"0.017": 0.0,
			"0.018": 0.0,
			"0.019": 0.0,
			"0.02": 0.0,
			"0.021": 0.0,
			"0.022": 0.0,
			"0.023": 0.0,
			"0.024": 0.0,
			"0.025": 0.0
		}
	}
}
