{
	 "smiles": "OC(=O)C1=CC2=C(C=C1)C(=O)NC(CCl)=N2", 
	 "Tm": 618.15, 
	 "num_atms": 23, 
	 "gaussian": { 
		 "optdone": 1, 
		 "sigma_profile": "yes", 
		 "theory": "DFT", 
		 "functional": "B3LYP", 
		 "basiset": "6-31G**", 
		 "properties": { 
			 "R2extent": 6045.9697, 
			 "electric_dipole_moment_norm": 3.30702222702, 
			 "electric_quadrupole_moment_norm": 25.9353050794, 
			 "total_energy": -1180.69012351, 
			 "HOMO_LUMO_gap": 0.17403, 
			 "cosmo_polarized_energy": -21.79, 
			 "cosmo_cavitation_energy": 30.32, 
			 "cosmo_dispersion_energy": -22.62, 
			 "cosmo_repulsion_energy": 1.75, 
			 "cosmo_total_nonelectrostatic_energy": 9.44, 
			 "SMD_solvation_energy": 5.02 
		},
		"coords": [
			{
				"x": 4.582428426,
				"y": 2.4384558851,
				"z": -0.0497900128,
				"element": "O" 
			},
			{
				"x": 3.6337325213,
				"y": 2.4147015185,
				"z": -1.0220619972,
				"element": "C" 
			},
			{
				"x": 3.814310412,
				"y": 3.000366306,
				"z": -2.0620455844,
				"element": "O" 
			},
			{
				"x": 2.3834580688,
				"y": 1.6325724771,
				"z": -0.7241638341,
				"element": "C" 
			},
			{
				"x": 1.6246332808,
				"y": 1.2034328032,
				"z": -1.8085898197,
				"element": "C" 
			},
			{
				"x": 0.4464861975,
				"y": 0.4651743943,
				"z": -1.6049523269,
				"element": "C" 
			},
			{
				"x": 0.0361078225,
				"y": 0.1838188813,
				"z": -0.2794382171,
				"element": "C" 
			},
			{
				"x": 0.7891194345,
				"y": 0.640920699,
				"z": 0.8103971393,
				"element": "C" 
			},
			{
				"x": 1.9553031031,
				"y": 1.3573232801,
				"z": 0.5925930779,
				"element": "C" 
			},
			{
				"x": -1.2006543624,
				"y": -0.5792346203,
				"z": -0.0520558507,
				"element": "C" 
			},
			{
				"x": -1.6783727619,
				"y": -0.879944296,
				"z": 1.0300493556,
				"element": "O" 
			},
			{
				"x": -1.8242059909,
				"y": -0.9581983204,
				"z": -1.2504718837,
				"element": "N" 
			},
			{
				"x": -1.3528971923,
				"y": -0.6364523186,
				"z": -2.4987101861,
				"element": "C" 
			},
			{
				"x": -2.0925957825,
				"y": -1.1808794706,
				"z": -3.6949584735,
				"element": "C" 
			},
			{
				"x": -3.895538677,
				"y": -1.0769312594,
				"z": -3.5291673714,
				"element": "Cl" 
			},
			{
				"x": -0.2762025155,
				"y": 0.0454626741,
				"z": -2.7166685646,
				"element": "N" 
			},
			{
				"x": 4.3684824597,
				"y": 1.8028464009,
				"z": 0.6472163871,
				"element": "H" 
			},
			{
				"x": 1.941799077,
				"y": 1.4362019197,
				"z": -2.8184366169,
				"element": "H" 
			},
			{
				"x": 0.4314868652,
				"y": 0.42547667,
				"z": 1.8116528926,
				"element": "H" 
			},
			{
				"x": 2.5082383043,
				"y": 1.7389402334,
				"z": 1.4468650798,
				"element": "H" 
			},
			{
				"x": -2.710252785,
				"y": -1.4430648613,
				"z": -1.1546339672,
				"element": "H" 
			},
			{
				"x": -1.8611524091,
				"y": -2.238541158,
				"z": -3.8429701557,
				"element": "H" 
			},
			{
				"x": -1.7948134963,
				"y": -0.612847838,
				"z": -4.5734590703,
				"element": "H" 
			}
		],
		 "valence_orbital": [ 
			{
				"type": "occ",
				"energy": -0.29966,
				"method": "rhf"
			},
			{
				"type": "occ",
				"energy": -0.28939,
				"method": "rhf"
			},
			{
				"type": "occ",
				"energy": -0.28365,
				"method": "rhf"
			},
			{
				"type": "occ",
				"energy": -0.27732,
				"method": "rhf"
			},
			{
				"type": "occ",
				"energy": -0.25495,
				"method": "rhf"
			},
			{
				"type": "unocc",
				"energy": -0.08092,
				"method": "rhf"
			},
			{
				"type": "unocc",
				"energy": -0.06614,
				"method": "rhf"
			},
			{
				"type": "unocc",
				"energy": -0.00952,
				"method": "rhf"
			},
			{
				"type": "unocc",
				"energy": 0.00397,
				"method": "rhf"
			},
			{
				"type": "unocc",
				"energy": 0.01475,
				"method": "rhf"
			}
		],
		"cosmo_sigma_profile": { 
			"-0.025": 0.0,
			"-0.024": 0.0,
			"-0.023": 0.0,
			"-0.022": 0.0,
			"-0.021": 0.0,
			"-0.02": 0.0,
			"-0.019": 0.450151599796,
			"-0.018": 0.858690376544,
			"-0.017": 1.01619115039,
			"-0.016": 1.51304571198,
			"-0.015": 1.12263158583,
			"-0.014": 1.36496859123,
			"-0.013": 2.2356782684,
			"-0.012": 2.53723689948,
			"-0.011": 2.25579156738,
			"-0.01": 4.83585815868,
			"-0.009": 6.6499818063,
			"-0.008": 6.2476535586,
			"-0.007": 8.7153342309,
			"-0.006": 10.0763664436,
			"-0.005": 11.3325146402,
			"-0.004": 11.870004961,
			"-0.003": 12.6295513543,
			"-0.002": 13.5608166845,
			"-0.001": 14.922184403,
			"0.0": 21.6893789739,
			"0.001": 17.440484859,
			"0.002": 11.596750957,
			"0.003": 10.710983853,
			"0.004": 9.74626873267,
			"0.005": 11.9797400657,
			"0.006": 4.64253178932,
			"0.007": 3.4455490517,
			"0.008": 6.14871786414,
			"0.009": 6.16036551489,
			"0.01": 7.64438169271,
			"0.011": 8.81107576654,
			"0.012": 9.41073000962,
			"0.013": 2.31908809528,
			"0.014": 0.00573625434488,
			"0.015": 0.0,
			"0.016": 0.0,
			"0.017": 0.0,
			"0.018": 0.0,
			"0.019": 0.0,
			"0.02": 0.0,
			"0.021": 0.0,
			"0.022": 0.0,
			"0.023": 0.0,
			"0.024": 0.0,
			"0.025": 0.0
		}
	}
}
