{
	 "smiles": "CC1=NN(CN2CCOCC2)C(=O)C1=N/NC1=CC(Cl)=C(Cl)C=C1Cl", 
	 "Tm": 448.15, 
	 "num_atms": 41, 
	 "gaussian": { 
		 "optdone": 1, 
		 "sigma_profile": "yes", 
		 "theory": "DFT", 
		 "functional": "B3LYP", 
		 "basiset": "6-31G**", 
		 "properties": { 
			 "R2extent": 16394.9617, 
			 "electric_dipole_moment_norm": 1.38977259291, 
			 "electric_quadrupole_moment_norm": 11.4656864195, 
			 "total_energy": -2385.9559579, 
			 "HOMO_LUMO_gap": 0.1049, 
			 "cosmo_polarized_energy": -12.23, 
			 "cosmo_cavitation_energy": 49.6, 
			 "cosmo_dispersion_energy": -34.8, 
			 "cosmo_repulsion_energy": 2.66, 
			 "cosmo_total_nonelectrostatic_energy": 17.45, 
			 "SMD_solvation_energy": 4.29 
		},
		"coords": [
			{
				"x": 0.5341651785,
				"y": -1.1027290633,
				"z": -3.0432910227,
				"element": "C" 
			},
			{
				"x": 1.0141609215,
				"y": -0.5490567272,
				"z": -1.7427487608,
				"element": "C" 
			},
			{
				"x": 2.2432305272,
				"y": -0.6992416647,
				"z": -1.3294414922,
				"element": "N" 
			},
			{
				"x": 2.364149771,
				"y": -0.0646288545,
				"z": -0.0884026371,
				"element": "N" 
			},
			{
				"x": 3.6573385966,
				"y": -0.0466317186,
				"z": 0.6253068734,
				"element": "C" 
			},
			{
				"x": 4.0064037168,
				"y": -1.1598538119,
				"z": 1.4533248496,
				"element": "N" 
			},
			{
				"x": 4.3883031274,
				"y": -2.4210273552,
				"z": 0.814139766,
				"element": "C" 
			},
			{
				"x": 3.2212293307,
				"y": -3.4091087272,
				"z": 0.7107888092,
				"element": "C" 
			},
			{
				"x": 2.6238296752,
				"y": -3.6155141628,
				"z": 1.9879620591,
				"element": "O" 
			},
			{
				"x": 2.1236125185,
				"y": -2.3972622032,
				"z": 2.5278557325,
				"element": "C" 
			},
			{
				"x": 3.2486305085,
				"y": -1.3674469507,
				"z": 2.6905113632,
				"element": "C" 
			},
			{
				"x": 1.1953282567,
				"y": 0.5117406485,
				"z": 0.3259564609,
				"element": "C" 
			},
			{
				"x": 0.9728541807,
				"y": 1.1354012306,
				"z": 1.3757783193,
				"element": "O" 
			},
			{
				"x": 0.2480299843,
				"y": 0.210218118,
				"z": -0.7709251994,
				"element": "C" 
			},
			{
				"x": -1.0095447471,
				"y": 0.5559562501,
				"z": -0.8495149709,
				"element": "N" 
			},
			{
				"x": -1.5064809133,
				"y": 1.253934292,
				"z": 0.1577208006,
				"element": "N" 
			},
			{
				"x": -2.8395793154,
				"y": 1.6600220432,
				"z": 0.1467182803,
				"element": "C" 
			},
			{
				"x": -3.686861968,
				"y": 1.3424560869,
				"z": -0.923057161,
				"element": "C" 
			},
			{
				"x": -5.0154385277,
				"y": 1.7522280487,
				"z": -0.9254651867,
				"element": "C" 
			},
			{
				"x": -6.0148007042,
				"y": 1.3229664004,
				"z": -2.2884635859,
				"element": "Cl" 
			},
			{
				"x": -5.5284348943,
				"y": 2.4938340871,
				"z": 0.1502304228,
				"element": "C" 
			},
			{
				"x": -7.1856529541,
				"y": 3.0298630418,
				"z": 0.1928680509,
				"element": "Cl" 
			},
			{
				"x": -4.6912609118,
				"y": 2.8138307595,
				"z": 1.219028707,
				"element": "C" 
			},
			{
				"x": -3.3632642807,
				"y": 2.403419878,
				"z": 1.21987277,
				"element": "C" 
			},
			{
				"x": -2.3435198994,
				"y": 2.8249429374,
				"z": 2.5800297648,
				"element": "Cl" 
			},
			{
				"x": -0.2917023083,
				"y": -1.8055604386,
				"z": -2.8888820144,
				"element": "H" 
			},
			{
				"x": 1.3513505289,
				"y": -1.6206750066,
				"z": -3.5488884236,
				"element": "H" 
			},
			{
				"x": 0.1612042616,
				"y": -0.3047392322,
				"z": -3.6944229123,
				"element": "H" 
			},
			{
				"x": 4.4196512083,
				"y": 0.0761402673,
				"z": -0.1488743417,
				"element": "H" 
			},
			{
				"x": 3.6199247097,
				"y": 0.8559451909,
				"z": 1.2418109878,
				"element": "H" 
			},
			{
				"x": 5.1787706669,
				"y": -2.8859824015,
				"z": 1.4208278234,
				"element": "H" 
			},
			{
				"x": 4.8019231072,
				"y": -2.2134299025,
				"z": -0.177951617,
				"element": "H" 
			},
			{
				"x": 2.4736910319,
				"y": -3.0390788857,
				"z": -0.0079122317,
				"element": "H" 
			},
			{
				"x": 3.572614378,
				"y": -4.3894311901,
				"z": 0.372657609,
				"element": "H" 
			},
			{
				"x": 1.6848647789,
				"y": -2.6456479176,
				"z": 3.4996557557,
				"element": "H" 
			},
			{
				"x": 1.3251047729,
				"y": -1.9958922344,
				"z": 1.8831904323,
				"element": "H" 
			},
			{
				"x": 3.941728126,
				"y": -1.7359706206,
				"z": 3.4602452586,
				"element": "H" 
			},
			{
				"x": 2.8401381687,
				"y": -0.4102650995,
				"z": 3.0293759968,
				"element": "H" 
			},
			{
				"x": -0.8863079305,
				"y": 1.4875017265,
				"z": 0.9448526319,
				"element": "H" 
			},
			{
				"x": -3.2901897515,
				"y": 0.7707602822,
				"z": -1.7515897171,
				"element": "H" 
			},
			{
				"x": -5.0780929264,
				"y": 3.3856128793,
				"z": 2.0535217492,
				"element": "H" 
			}
		],
		 "valence_orbital": [ 
			{
				"type": "occ",
				"energy": -0.26923,
				"method": "rhf"
			},
			{
				"type": "occ",
				"energy": -0.26017,
				"method": "rhf"
			},
			{
				"type": "occ",
				"energy": -0.24992,
				"method": "rhf"
			},
			{
				"type": "occ",
				"energy": -0.22701,
				"method": "rhf"
			},
			{
				"type": "occ",
				"energy": -0.2066,
				"method": "rhf"
			},
			{
				"type": "unocc",
				"energy": -0.1017,
				"method": "rhf"
			},
			{
				"type": "unocc",
				"energy": -0.04221,
				"method": "rhf"
			},
			{
				"type": "unocc",
				"energy": -0.02018,
				"method": "rhf"
			},
			{
				"type": "unocc",
				"energy": -0.01651,
				"method": "rhf"
			},
			{
				"type": "unocc",
				"energy": 0.0192,
				"method": "rhf"
			}
		],
		"cosmo_sigma_profile": { 
			"-0.025": 0.0,
			"-0.024": 0.0,
			"-0.023": 0.0,
			"-0.022": 0.0,
			"-0.021": 0.0,
			"-0.02": 0.0,
			"-0.019": 0.0,
			"-0.018": 0.0,
			"-0.017": 0.0,
			"-0.016": 0.0,
			"-0.015": 0.0,
			"-0.014": 0.0,
			"-0.013": 0.0,
			"-0.012": 0.0,
			"-0.011": 0.0,
			"-0.01": 0.189284742919,
			"-0.009": 1.40271756906,
			"-0.008": 1.55256168289,
			"-0.007": 2.6240101689,
			"-0.006": 9.41603114081,
			"-0.005": 20.2396617572,
			"-0.004": 32.5707833106,
			"-0.003": 41.8946689833,
			"-0.002": 45.1036117714,
			"-0.001": 54.9456541834,
			"0.0": 43.8125990539,
			"0.001": 27.7456674956,
			"0.002": 27.0723626939,
			"0.003": 31.4232871963,
			"0.004": 21.3151564886,
			"0.005": 7.83820619035,
			"0.006": 4.36648456477,
			"0.007": 3.88532439123,
			"0.008": 4.73691981833,
			"0.009": 3.53178023795,
			"0.01": 4.11182887321,
			"0.011": 3.94892140869,
			"0.012": 3.95849308378,
			"0.013": 2.61241137912,
			"0.014": 1.09370378076,
			"0.015": 0.0,
			"0.016": 0.0,
			"0.017": 0.0,
			"0.018": 0.0,
			"0.019": 0.0,
			"0.02": 0.0,
			"0.021": 0.0,
			"0.022": 0.0,
			"0.023": 0.0,
			"0.024": 0.0,
			"0.025": 0.0
		}
	}
}
