{
	 "smiles": "CCCCC1(NC(=O)NC1=O)C1=CC=C(F)C=C1", 
	 "Tm": 387.15, 
	 "num_atms": 33, 
	 "gaussian": { 
		 "optdone": 1, 
		 "sigma_profile": "yes", 
		 "theory": "DFT", 
		 "functional": "B3LYP", 
		 "basiset": "6-31G**", 
		 "properties": { 
			 "R2extent": 5581.96, 
			 "electric_dipole_moment_norm": 2.56603854024, 
			 "electric_quadrupole_moment_norm": 8.45428071512, 
			 "total_energy": -864.260792956, 
			 "HOMO_LUMO_gap": 0.22215, 
			 "cosmo_polarized_energy": -15.53, 
			 "cosmo_cavitation_energy": 36.16, 
			 "cosmo_dispersion_energy": -24.74, 
			 "cosmo_repulsion_energy": 1.92, 
			 "cosmo_total_nonelectrostatic_energy": 13.35, 
			 "SMD_solvation_energy": 7.91 
		},
		"coords": [
			{
				"x": 2.7559475084,
				"y": 1.9121908801,
				"z": -2.4010054411,
				"element": "C" 
			},
			{
				"x": 2.0737349821,
				"y": 1.3365903259,
				"z": -1.1549914743,
				"element": "C" 
			},
			{
				"x": 0.5884786072,
				"y": 1.0221301502,
				"z": -1.3895550098,
				"element": "C" 
			},
			{
				"x": -0.2376344659,
				"y": 0.6462077916,
				"z": -0.1487847498,
				"element": "C" 
			},
			{
				"x": 0.1739719536,
				"y": -0.646674152,
				"z": 0.6144575041,
				"element": "C" 
			},
			{
				"x": 1.3383902361,
				"y": -0.4475235794,
				"z": 1.4785329203,
				"element": "N" 
			},
			{
				"x": 1.0525936777,
				"y": -0.4952717303,
				"z": 2.8213894136,
				"element": "C" 
			},
			{
				"x": 1.7879340289,
				"y": -0.2687135488,
				"z": 3.7586989794,
				"element": "O" 
			},
			{
				"x": -0.3050892719,
				"y": -0.8677270892,
				"z": 2.9028953454,
				"element": "N" 
			},
			{
				"x": -0.925693222,
				"y": -0.9368753456,
				"z": 1.6779950909,
				"element": "C" 
			},
			{
				"x": -2.0988320807,
				"y": -1.1573945412,
				"z": 1.4617992193,
				"element": "O" 
			},
			{
				"x": 0.3202699256,
				"y": -1.8597631708,
				"z": -0.3132893406,
				"element": "C" 
			},
			{
				"x": 1.5140586718,
				"y": -2.5866739553,
				"z": -0.384342808,
				"element": "C" 
			},
			{
				"x": 1.6410461137,
				"y": -3.6810639469,
				"z": -1.2418206652,
				"element": "C" 
			},
			{
				"x": 0.5539037822,
				"y": -4.0468553122,
				"z": -2.0238058868,
				"element": "C" 
			},
			{
				"x": 0.6673452662,
				"y": -5.1022813444,
				"z": -2.855973711,
				"element": "F" 
			},
			{
				"x": -0.6524657698,
				"y": -3.3568535452,
				"z": -1.967385434,
				"element": "C" 
			},
			{
				"x": -0.7630696343,
				"y": -2.2638411059,
				"z": -1.1107623424,
				"element": "C" 
			},
			{
				"x": 2.6885440472,
				"y": 1.2158110386,
				"z": -3.2440825258,
				"element": "H" 
			},
			{
				"x": 3.8161946126,
				"y": 2.1140919407,
				"z": -2.2192518689,
				"element": "H" 
			},
			{
				"x": 2.2846212806,
				"y": 2.8521261473,
				"z": -2.70879564,
				"element": "H" 
			},
			{
				"x": 2.6057802379,
				"y": 0.4213536139,
				"z": -0.8611595067,
				"element": "H" 
			},
			{
				"x": 2.1751055583,
				"y": 2.0473107061,
				"z": -0.3227219306,
				"element": "H" 
			},
			{
				"x": 0.1125344267,
				"y": 1.9069170951,
				"z": -1.8328358871,
				"element": "H" 
			},
			{
				"x": 0.5039237999,
				"y": 0.2260720447,
				"z": -2.1388288898,
				"element": "H" 
			},
			{
				"x": -1.2834503845,
				"y": 0.5188985351,
				"z": -0.4468783642,
				"element": "H" 
			},
			{
				"x": -0.2221595406,
				"y": 1.4710287168,
				"z": 0.5754291643,
				"element": "H" 
			},
			{
				"x": 2.1739091848,
				"y": 0.0303787662,
				"z": 1.1797478118,
				"element": "H" 
			},
			{
				"x": -0.7783177193,
				"y": -0.9906436644,
				"z": 3.7866868695,
				"element": "H" 
			},
			{
				"x": 2.3508441134,
				"y": -2.3074296149,
				"z": 0.2459699869,
				"element": "H" 
			},
			{
				"x": 2.563107317,
				"y": -4.2488686351,
				"z": -1.3031704062,
				"element": "H" 
			},
			{
				"x": -1.4850955547,
				"y": -3.6807193123,
				"z": -2.5823502856,
				"element": "H" 
			},
			{
				"x": -1.7100316881,
				"y": -1.7413341584,
				"z": -1.0381101377,
				"element": "H" 
			}
		],
		 "valence_orbital": [ 
			{
				"type": "occ",
				"energy": -0.29212,
				"method": "rhf"
			},
			{
				"type": "occ",
				"energy": -0.27388,
				"method": "rhf"
			},
			{
				"type": "occ",
				"energy": -0.26896,
				"method": "rhf"
			},
			{
				"type": "occ",
				"energy": -0.26479,
				"method": "rhf"
			},
			{
				"type": "occ",
				"energy": -0.24522,
				"method": "rhf"
			},
			{
				"type": "unocc",
				"energy": -0.02307,
				"method": "rhf"
			},
			{
				"type": "unocc",
				"energy": -0.01792,
				"method": "rhf"
			},
			{
				"type": "unocc",
				"energy": 0.00192,
				"method": "rhf"
			},
			{
				"type": "unocc",
				"energy": 0.05282,
				"method": "rhf"
			},
			{
				"type": "unocc",
				"energy": 0.06686,
				"method": "rhf"
			}
		],
		"cosmo_sigma_profile": { 
			"-0.025": 0.0,
			"-0.024": 0.0,
			"-0.023": 0.0,
			"-0.022": 0.0,
			"-0.021": 0.0,
			"-0.02": 0.0,
			"-0.019": 0.0,
			"-0.018": 0.0,
			"-0.017": 0.494997048935,
			"-0.016": 1.44217686039,
			"-0.015": 1.06354757287,
			"-0.014": 1.14748731735,
			"-0.013": 1.05802235109,
			"-0.012": 1.61860179776,
			"-0.011": 1.85841400735,
			"-0.01": 1.81691096132,
			"-0.009": 2.43508688728,
			"-0.008": 3.06689415064,
			"-0.007": 6.23707938163,
			"-0.006": 8.90091217843,
			"-0.005": 13.8999836288,
			"-0.004": 14.7919827932,
			"-0.003": 22.8166630603,
			"-0.002": 28.6781504702,
			"-0.001": 30.147562048,
			"0.0": 26.7080912751,
			"0.001": 27.2584149485,
			"0.002": 15.8020078507,
			"0.003": 16.5292756334,
			"0.004": 17.260773567,
			"0.005": 6.43356275259,
			"0.006": 2.82305219023,
			"0.007": 2.32681274028,
			"0.008": 1.98430706962,
			"0.009": 3.01827372606,
			"0.01": 3.79883978929,
			"0.011": 5.43768502496,
			"0.012": 8.29604677836,
			"0.013": 5.56714411957,
			"0.014": 0.627827922773,
			"0.015": 0.0,
			"0.016": 0.0,
			"0.017": 0.0,
			"0.018": 0.0,
			"0.019": 0.0,
			"0.02": 0.0,
			"0.021": 0.0,
			"0.022": 0.0,
			"0.023": 0.0,
			"0.024": 0.0,
			"0.025": 0.0
		}
	}
}
