{
	 "smiles": "CC1=C(C(NC(=O)N1)C1=CC2=C(OCO2)C=C1)C(=O)OC(C)(C)C", 
	 "Tm": 483.15, 
	 "num_atms": 44, 
	 "gaussian": { 
		 "optdone": 1, 
		 "sigma_profile": "yes", 
		 "theory": "DFT", 
		 "functional": "B3LYP", 
		 "basiset": "6-31G**", 
		 "properties": { 
			 "R2extent": 9461.3438, 
			 "electric_dipole_moment_norm": 3.47227499631, 
			 "electric_quadrupole_moment_norm": 21.9013464278, 
			 "total_energy": -1145.50887835, 
			 "HOMO_LUMO_gap": 0.16557, 
			 "cosmo_polarized_energy": -19.01, 
			 "cosmo_cavitation_energy": 46.03, 
			 "cosmo_dispersion_energy": -31.51, 
			 "cosmo_repulsion_energy": 2.41, 
			 "cosmo_total_nonelectrostatic_energy": 16.92, 
			 "SMD_solvation_energy": 9.26 
		},
		"coords": [
			{
				"x": -0.7542920487,
				"y": -0.1677173728,
				"z": -2.6185355213,
				"element": "C" 
			},
			{
				"x": -1.4354955788,
				"y": 0.1273016626,
				"z": -1.3051335459,
				"element": "C" 
			},
			{
				"x": -1.0699341469,
				"y": 1.0512337826,
				"z": -0.3721208051,
				"element": "C" 
			},
			{
				"x": -1.8363899502,
				"y": 1.1466814005,
				"z": 0.9448594057,
				"element": "C" 
			},
			{
				"x": -3.1945651315,
				"y": 0.6227080033,
				"z": 0.7575144689,
				"element": "N" 
			},
			{
				"x": -3.5349775983,
				"y": -0.3820823791,
				"z": -0.0977096164,
				"element": "C" 
			},
			{
				"x": -4.5919325224,
				"y": -0.9962376834,
				"z": -0.0816268447,
				"element": "O" 
			},
			{
				"x": -2.559363695,
				"y": -0.6487064652,
				"z": -1.0702181347,
				"element": "N" 
			},
			{
				"x": -1.1016120256,
				"y": 0.474681364,
				"z": 2.1101314198,
				"element": "C" 
			},
			{
				"x": -1.090037699,
				"y": -0.9340439035,
				"z": 2.231305456,
				"element": "C" 
			},
			{
				"x": -0.4045920801,
				"y": -1.4705616646,
				"z": 3.2999808676,
				"element": "C" 
			},
			{
				"x": 0.2576399228,
				"y": -0.6749638114,
				"z": 4.2335779167,
				"element": "C" 
			},
			{
				"x": 0.8637329646,
				"y": -1.4726616735,
				"z": 5.1752174095,
				"element": "O" 
			},
			{
				"x": 0.4300530478,
				"y": -2.8074927789,
				"z": 4.8895188594,
				"element": "C" 
			},
			{
				"x": -0.234612704,
				"y": -2.7977505541,
				"z": 3.6219117186,
				"element": "O" 
			},
			{
				"x": 0.2650516842,
				"y": 0.7010820852,
				"z": 4.13491545,
				"element": "C" 
			},
			{
				"x": -0.4338428943,
				"y": 1.2637033411,
				"z": 3.0503448059,
				"element": "C" 
			},
			{
				"x": 0.0227174384,
				"y": 2.0297271216,
				"z": -0.49436882,
				"element": "C" 
			},
			{
				"x": 0.2117280989,
				"y": 2.9013909873,
				"z": 0.3445381047,
				"element": "O" 
			},
			{
				"x": 0.7760749216,
				"y": 1.8819093903,
				"z": -1.6102794545,
				"element": "O" 
			},
			{
				"x": 1.9092292104,
				"y": 2.7817088848,
				"z": -1.8952762113,
				"element": "C" 
			},
			{
				"x": 2.9703254531,
				"y": 2.6573051078,
				"z": -0.7962235663,
				"element": "C" 
			},
			{
				"x": 1.4105883127,
				"y": 4.2212244305,
				"z": -2.0643076209,
				"element": "C" 
			},
			{
				"x": 2.4444772038,
				"y": 2.2384454494,
				"z": -3.2233260412,
				"element": "C" 
			},
			{
				"x": -1.234467007,
				"y": -1.0146301396,
				"z": -3.1172394749,
				"element": "H" 
			},
			{
				"x": 0.3013071203,
				"y": -0.3966507239,
				"z": -2.4699991935,
				"element": "H" 
			},
			{
				"x": -0.7995076558,
				"y": 0.6979528701,
				"z": -3.2834258315,
				"element": "H" 
			},
			{
				"x": -1.9257581098,
				"y": 2.2081764745,
				"z": 1.1892967048,
				"element": "H" 
			},
			{
				"x": -3.8528978439,
				"y": 0.7458711478,
				"z": 1.5143215157,
				"element": "H" 
			},
			{
				"x": -2.8618412263,
				"y": -1.3161376506,
				"z": -1.7644010202,
				"element": "H" 
			},
			{
				"x": -1.5996222468,
				"y": -1.5768434189,
				"z": 1.5227215975,
				"element": "H" 
			},
			{
				"x": 1.2996913978,
				"y": -3.4705771568,
				"z": 4.8404497765,
				"element": "H" 
			},
			{
				"x": -0.2698422514,
				"y": -3.140570752,
				"z": 5.6696632245,
				"element": "H" 
			},
			{
				"x": 0.7834429844,
				"y": 1.3174708653,
				"z": 4.860679102,
				"element": "H" 
			},
			{
				"x": -0.4365930714,
				"y": 2.341084779,
				"z": 2.9249713195,
				"element": "H" 
			},
			{
				"x": 2.5973615879,
				"y": 3.0352002134,
				"z": 0.1553692604,
				"element": "H" 
			},
			{
				"x": 3.2660682148,
				"y": 1.6109247282,
				"z": -0.6706533087,
				"element": "H" 
			},
			{
				"x": 3.8595033097,
				"y": 3.2292886379,
				"z": -1.0812078439,
				"element": "H" 
			},
			{
				"x": 0.6211251097,
				"y": 4.2636316784,
				"z": -2.8215353951,
				"element": "H" 
			},
			{
				"x": 2.2365991436,
				"y": 4.8565229269,
				"z": -2.4006150928,
				"element": "H" 
			},
			{
				"x": 1.0219457098,
				"y": 4.6154442874,
				"z": -1.1256576303,
				"element": "H" 
			},
			{
				"x": 3.3045000046,
				"y": 2.8301899723,
				"z": -3.5506578685,
				"element": "H" 
			},
			{
				"x": 2.7641223703,
				"y": 1.1975361264,
				"z": -3.1167736579,
				"element": "H" 
			},
			{
				"x": 1.6770922759,
				"y": 2.2878304095,
				"z": -4.001595884,
				"element": "H" 
			}
		],
		 "valence_orbital": [ 
			{
				"type": "occ",
				"energy": -0.26412,
				"method": "rhf"
			},
			{
				"type": "occ",
				"energy": -0.25527,
				"method": "rhf"
			},
			{
				"type": "occ",
				"energy": -0.24011,
				"method": "rhf"
			},
			{
				"type": "occ",
				"energy": -0.22274,
				"method": "rhf"
			},
			{
				"type": "occ",
				"energy": -0.20297,
				"method": "rhf"
			},
			{
				"type": "unocc",
				"energy": -0.0374,
				"method": "rhf"
			},
			{
				"type": "unocc",
				"energy": 0.00062,
				"method": "rhf"
			},
			{
				"type": "unocc",
				"energy": 0.01463,
				"method": "rhf"
			},
			{
				"type": "unocc",
				"energy": 0.0602,
				"method": "rhf"
			},
			{
				"type": "unocc",
				"energy": 0.06941,
				"method": "rhf"
			}
		],
		"cosmo_sigma_profile": { 
			"-0.025": 0.0,
			"-0.024": 0.0,
			"-0.023": 0.0,
			"-0.022": 0.0,
			"-0.021": 0.0,
			"-0.02": 0.0,
			"-0.019": 0.0,
			"-0.018": 0.0,
			"-0.017": 0.0,
			"-0.016": 0.0491191799088,
			"-0.015": 1.0870806921,
			"-0.014": 1.75693284083,
			"-0.013": 2.55330125806,
			"-0.012": 1.66055369136,
			"-0.011": 2.00150269721,
			"-0.01": 2.31191526328,
			"-0.009": 1.85994042771,
			"-0.008": 4.09108772252,
			"-0.007": 10.4901884377,
			"-0.006": 12.787367786,
			"-0.005": 13.7198752601,
			"-0.004": 25.508105873,
			"-0.003": 31.6422812079,
			"-0.002": 31.5767889828,
			"-0.001": 33.4559641413,
			"0.0": 37.5346417909,
			"0.001": 33.3727073232,
			"0.002": 23.1503236017,
			"0.003": 19.6133316644,
			"0.004": 15.3700922648,
			"0.005": 11.0876509686,
			"0.006": 7.12814065698,
			"0.007": 6.08089932317,
			"0.008": 5.74374581168,
			"0.009": 6.89368719715,
			"0.01": 3.85813503431,
			"0.011": 2.72980904142,
			"0.012": 3.04231011171,
			"0.013": 6.05766064256,
			"0.014": 4.55686940269,
			"0.015": 0.225174186925,
			"0.016": 0.0,
			"0.017": 0.0,
			"0.018": 0.0,
			"0.019": 0.0,
			"0.02": 0.0,
			"0.021": 0.0,
			"0.022": 0.0,
			"0.023": 0.0,
			"0.024": 0.0,
			"0.025": 0.0
		}
	}
}
