{
	 "smiles": "CC(=O)NC(=C)C(O)=O", 
	 "Tm": 459.15, 
	 "num_atms": 16, 
	 "gaussian": { 
		 "optdone": 1, 
		 "sigma_profile": "yes", 
		 "theory": "DFT", 
		 "functional": "B3LYP", 
		 "basiset": "6-31G**", 
		 "properties": { 
			 "R2extent": 1457.2719, 
			 "electric_dipole_moment_norm": 1.37861334681, 
			 "electric_quadrupole_moment_norm": 17.1743834277, 
			 "total_energy": -475.179488515, 
			 "HOMO_LUMO_gap": 0.1835, 
			 "cosmo_polarized_energy": -13.7, 
			 "cosmo_cavitation_energy": 20.7, 
			 "cosmo_dispersion_energy": -15.14, 
			 "cosmo_repulsion_energy": 1.24, 
			 "cosmo_total_nonelectrostatic_energy": 6.8, 
			 "SMD_solvation_energy": 6.54 
		},
		"coords": [
			{
				"x": 0.8824176901,
				"y": -0.1909874899,
				"z": -2.8918996638,
				"element": "C" 
			},
			{
				"x": 0.0885530378,
				"y": -1.0180104447,
				"z": -1.9059895737,
				"element": "C" 
			},
			{
				"x": -0.2277688905,
				"y": -2.1757706916,
				"z": -2.1317943313,
				"element": "O" 
			},
			{
				"x": -0.2998734176,
				"y": -0.4496725516,
				"z": -0.6966472026,
				"element": "N" 
			},
			{
				"x": -0.1235794209,
				"y": 0.8093548045,
				"z": -0.1123887513,
				"element": "C" 
			},
			{
				"x": 0.5114019177,
				"y": 1.8980849668,
				"z": -0.5815373427,
				"element": "C" 
			},
			{
				"x": -0.7482898737,
				"y": 0.9458275412,
				"z": 1.2509147411,
				"element": "C" 
			},
			{
				"x": -1.368372072,
				"y": -0.1934644782,
				"z": 1.6519995715,
				"element": "O" 
			},
			{
				"x": -0.7187471566,
				"y": 1.943325543,
				"z": 1.936044921,
				"element": "O" 
			},
			{
				"x": 1.0806989815,
				"y": -0.8179099968,
				"z": -3.7606280364,
				"element": "H" 
			},
			{
				"x": 0.3245571965,
				"y": 0.6971404363,
				"z": -3.2055798877,
				"element": "H" 
			},
			{
				"x": 1.8320529337,
				"y": 0.1398079737,
				"z": -2.459304273,
				"element": "H" 
			},
			{
				"x": -0.8222418974,
				"y": -1.1117481943,
				"z": -0.1359612963,
				"element": "H" 
			},
			{
				"x": 1.0045433513,
				"y": 1.949051045,
				"z": -1.5391564897,
				"element": "H" 
			},
			{
				"x": 0.52403406,
				"y": 2.7769828408,
				"z": 0.0492671862,
				"element": "H" 
			},
			{
				"x": -1.7366864399,
				"y": -0.0111113043,
				"z": 2.5318604286,
				"element": "H" 
			}
		],
		 "valence_orbital": [ 
			{
				"type": "occ",
				"energy": -0.34567,
				"method": "rhf"
			},
			{
				"type": "occ",
				"energy": -0.33202,
				"method": "rhf"
			},
			{
				"type": "occ",
				"energy": -0.29924,
				"method": "rhf"
			},
			{
				"type": "occ",
				"energy": -0.26125,
				"method": "rhf"
			},
			{
				"type": "occ",
				"energy": -0.23937,
				"method": "rhf"
			},
			{
				"type": "unocc",
				"energy": -0.05587,
				"method": "rhf"
			},
			{
				"type": "unocc",
				"energy": 0.01174,
				"method": "rhf"
			},
			{
				"type": "unocc",
				"energy": 0.05705,
				"method": "rhf"
			},
			{
				"type": "unocc",
				"energy": 0.08885,
				"method": "rhf"
			},
			{
				"type": "unocc",
				"energy": 0.09854,
				"method": "rhf"
			}
		],
		"cosmo_sigma_profile": { 
			"-0.025": 0.0,
			"-0.024": 0.0,
			"-0.023": 0.0,
			"-0.022": 0.0,
			"-0.021": 0.0,
			"-0.02": 0.0634326262029,
			"-0.019": 0.706575331259,
			"-0.018": 0.905448462641,
			"-0.017": 0.95348395913,
			"-0.016": 0.861857903913,
			"-0.015": 0.693906027792,
			"-0.014": 0.295235120932,
			"-0.013": 0.780213198601,
			"-0.012": 1.1787671853,
			"-0.011": 0.541126256663,
			"-0.01": 0.410210708765,
			"-0.009": 1.14398026194,
			"-0.008": 2.48722150749,
			"-0.007": 6.99235961482,
			"-0.006": 9.63277569877,
			"-0.005": 9.20546044699,
			"-0.004": 11.7758927584,
			"-0.003": 13.411903689,
			"-0.002": 15.2285198594,
			"-0.001": 12.351887307,
			"0.0": 9.84825002428,
			"0.001": 9.29269852833,
			"0.002": 8.76360471492,
			"0.003": 6.29706716483,
			"0.004": 4.62944038394,
			"0.005": 2.81466367867,
			"0.006": 2.67656378106,
			"0.007": 3.27710701283,
			"0.008": 2.09757782652,
			"0.009": 3.58839587402,
			"0.01": 3.72128828227,
			"0.011": 6.69470612496,
			"0.012": 4.35411431569,
			"0.013": 5.21982034275,
			"0.014": 1.52922923884,
			"0.015": 0.0516246571298,
			"0.016": 0.0,
			"0.017": 0.0,
			"0.018": 0.0,
			"0.019": 0.0,
			"0.02": 0.0,
			"0.021": 0.0,
			"0.022": 0.0,
			"0.023": 0.0,
			"0.024": 0.0,
			"0.025": 0.0
		}
	}
}
