{
	 "smiles": "CCNC1CCC2=C(C1)C1=C(N2)C=CC(Cl)=C1", 
	 "Tm": 448.15, 
	 "num_atms": 34, 
	 "gaussian": { 
		 "optdone": 1, 
		 "sigma_profile": "yes", 
		 "theory": "DFT", 
		 "functional": "B3LYP", 
		 "basiset": "6-31G**", 
		 "properties": { 
			 "R2extent": 7253.5845, 
			 "electric_dipole_moment_norm": 4.5698242045, 
			 "electric_quadrupole_moment_norm": 24.3383007186, 
			 "total_energy": -1113.45236567, 
			 "HOMO_LUMO_gap": 0.18549, 
			 "cosmo_polarized_energy": -11.26, 
			 "cosmo_cavitation_energy": 36.97, 
			 "cosmo_dispersion_energy": -26.94, 
			 "cosmo_repulsion_energy": 2.11, 
			 "cosmo_total_nonelectrostatic_energy": 12.14, 
			 "SMD_solvation_energy": 3.71 
		},
		"coords": [
			{
				"x": -1.4052627315,
				"y": 3.4774363972,
				"z": 2.1771094074,
				"element": "C" 
			},
			{
				"x": -2.1734948931,
				"y": 2.1686481328,
				"z": 2.0063776313,
				"element": "C" 
			},
			{
				"x": -1.6914184485,
				"y": 1.4299913972,
				"z": 0.8406647299,
				"element": "N" 
			},
			{
				"x": -2.4385795914,
				"y": 0.203843963,
				"z": 0.5340847347,
				"element": "C" 
			},
			{
				"x": -2.0024983995,
				"y": -0.9368511281,
				"z": 1.481359537,
				"element": "C" 
			},
			{
				"x": -0.4945111425,
				"y": -1.233709983,
				"z": 1.3698457741,
				"element": "C" 
			},
			{
				"x": -0.1198297844,
				"y": -1.335483532,
				"z": -0.0731672131,
				"element": "C" 
			},
			{
				"x": -0.8670002198,
				"y": -0.865626906,
				"z": -1.1242811725,
				"element": "C" 
			},
			{
				"x": -2.2049734344,
				"y": -0.209630136,
				"z": -0.9368405677,
				"element": "C" 
			},
			{
				"x": -0.1284812114,
				"y": -1.1478592152,
				"z": -2.3256911831,
				"element": "C" 
			},
			{
				"x": 1.0787211219,
				"y": -1.793263527,
				"z": -1.9283948597,
				"element": "C" 
			},
			{
				"x": 1.0550372617,
				"y": -1.8924239705,
				"z": -0.5506058852,
				"element": "N" 
			},
			{
				"x": 2.037656482,
				"y": -2.2075275582,
				"z": -2.8546261926,
				"element": "C" 
			},
			{
				"x": 1.7894103966,
				"y": -1.9733467871,
				"z": -4.2038464586,
				"element": "C" 
			},
			{
				"x": 0.5995343084,
				"y": -1.3365022761,
				"z": -4.5998286438,
				"element": "C" 
			},
			{
				"x": 0.3288892056,
				"y": -1.061294751,
				"z": -6.324311087,
				"element": "Cl" 
			},
			{
				"x": -0.3639239066,
				"y": -0.9200931609,
				"z": -3.6919200015,
				"element": "C" 
			},
			{
				"x": -0.3325926511,
				"y": 3.2851163991,
				"z": 2.2730764004,
				"element": "H" 
			},
			{
				"x": -1.5527990368,
				"y": 4.1372230199,
				"z": 1.3136539923,
				"element": "H" 
			},
			{
				"x": -1.7449904733,
				"y": 4.0166443328,
				"z": 3.0667652768,
				"element": "H" 
			},
			{
				"x": -2.0280781376,
				"y": 1.5481159547,
				"z": 2.8990775122,
				"element": "H" 
			},
			{
				"x": -3.2600369623,
				"y": 2.3784797747,
				"z": 1.9527412205,
				"element": "H" 
			},
			{
				"x": -1.7196831087,
				"y": 2.0459622491,
				"z": 0.0316746162,
				"element": "H" 
			},
			{
				"x": -3.5258237473,
				"y": 0.3587535597,
				"z": 0.6707057259,
				"element": "H" 
			},
			{
				"x": -2.254410429,
				"y": -0.6888063968,
				"z": 2.517718001,
				"element": "H" 
			},
			{
				"x": -2.576868253,
				"y": -1.8357382832,
				"z": 1.2257731869,
				"element": "H" 
			},
			{
				"x": -0.2491672616,
				"y": -2.1574229608,
				"z": 1.9103910589,
				"element": "H" 
			},
			{
				"x": 0.0717372745,
				"y": -0.4206925692,
				"z": 1.8427880617,
				"element": "H" 
			},
			{
				"x": -3.0141929852,
				"y": -0.8885467803,
				"z": -1.2416100044,
				"element": "H" 
			},
			{
				"x": -2.3053682484,
				"y": 0.6737527671,
				"z": -1.5838229775,
				"element": "H" 
			},
			{
				"x": 1.7768361645,
				"y": -2.3033849955,
				"z": 0.0187621956,
				"element": "H" 
			},
			{
				"x": 2.9545848398,
				"y": -2.6988079085,
				"z": -2.541613962,
				"element": "H" 
			},
			{
				"x": 2.5081635252,
				"y": -2.2782829271,
				"z": -4.9556567095,
				"element": "H" 
			},
			{
				"x": -1.2700855226,
				"y": -0.4339721947,
				"z": -4.0368521447,
				"element": "H" 
			}
		],
		 "valence_orbital": [ 
			{
				"type": "occ",
				"energy": -0.29547,
				"method": "rhf"
			},
			{
				"type": "occ",
				"energy": -0.27012,
				"method": "rhf"
			},
			{
				"type": "occ",
				"energy": -0.22288,
				"method": "rhf"
			},
			{
				"type": "occ",
				"energy": -0.21054,
				"method": "rhf"
			},
			{
				"type": "occ",
				"energy": -0.1949,
				"method": "rhf"
			},
			{
				"type": "unocc",
				"energy": -0.00941,
				"method": "rhf"
			},
			{
				"type": "unocc",
				"energy": 0.02378,
				"method": "rhf"
			},
			{
				"type": "unocc",
				"energy": 0.04501,
				"method": "rhf"
			},
			{
				"type": "unocc",
				"energy": 0.06747,
				"method": "rhf"
			},
			{
				"type": "unocc",
				"energy": 0.07705,
				"method": "rhf"
			}
		],
		"cosmo_sigma_profile": { 
			"-0.025": 0.0,
			"-0.024": 0.0,
			"-0.023": 0.0,
			"-0.022": 0.0,
			"-0.021": 0.0,
			"-0.02": 0.0,
			"-0.019": 0.0,
			"-0.018": 0.0,
			"-0.017": 0.0,
			"-0.016": 0.0207426688107,
			"-0.015": 1.2303605418,
			"-0.014": 1.55137678854,
			"-0.013": 1.12084693581,
			"-0.012": 0.996734376014,
			"-0.011": 0.976606603043,
			"-0.01": 1.68021333126,
			"-0.009": 1.90482560215,
			"-0.008": 2.93270197419,
			"-0.007": 4.08929399712,
			"-0.006": 7.68440114199,
			"-0.005": 8.67963138032,
			"-0.004": 12.5924208612,
			"-0.003": 24.1412075169,
			"-0.002": 30.0404552004,
			"-0.001": 39.5222239917,
			"0.0": 32.991666109,
			"0.001": 22.6070637901,
			"0.002": 13.4337818731,
			"0.003": 14.6458803875,
			"0.004": 20.2832997574,
			"0.005": 26.0769180862,
			"0.006": 16.1113418154,
			"0.007": 1.01005784538,
			"0.008": 1.3079554159,
			"0.009": 0.559468962478,
			"0.01": 0.887577933069,
			"0.011": 0.993488770908,
			"0.012": 0.844189574111,
			"0.013": 0.595183576171,
			"0.014": 0.618947835638,
			"0.015": 0.26224592747,
			"0.016": 0.0,
			"0.017": 0.0,
			"0.018": 0.0,
			"0.019": 0.0,
			"0.02": 0.0,
			"0.021": 0.0,
			"0.022": 0.0,
			"0.023": 0.0,
			"0.024": 0.0,
			"0.025": 0.0
		}
	}
}
