{
	 "smiles": "CCCCCCCCCCCCCCCC(=O)OCC(COP([O-])(=O)OCC[N+](C)(C)C)OC(=O)CCCCCCCCCCCCCCC", 
	 "Tm": 502.15, 
	 "num_atms": 130, 
	 "gaussian": { 
		 "optdone": 1, 
		 "sigma_profile": "yes", 
		 "theory": "DFT", 
		 "functional": "B3LYP", 
		 "basiset": "6-31G**", 
		 "properties": { 
			 "R2extent": 58905.1825, 
			 "electric_dipole_moment_norm": 14.7576608394, 
			 "electric_quadrupole_moment_norm": 116.753369679, 
			 "total_energy": -2570.50871191, 
			 "HOMO_LUMO_gap": 0.22933, 
			 "cosmo_polarized_energy": -53.12, 
			 "cosmo_cavitation_energy": 122.31, 
			 "cosmo_dispersion_energy": -69.69, 
			 "cosmo_repulsion_energy": 5.37, 
			 "cosmo_total_nonelectrostatic_energy": 57.99, 
			 "SMD_solvation_energy": 19.74 
		},
		"coords": [
			{
				"x": -3.7993230457,
				"y": -3.4351824193,
				"z": 6.1979297099,
				"element": "C" 
			},
			{
				"x": -3.7357012812,
				"y": -2.0363787731,
				"z": 5.5757655723,
				"element": "C" 
			},
			{
				"x": -2.712353491,
				"y": -1.1253640717,
				"z": 6.2711789692,
				"element": "C" 
			},
			{
				"x": -2.5853506156,
				"y": 0.2972933658,
				"z": 5.6847743297,
				"element": "C" 
			},
			{
				"x": -3.4987497699,
				"y": 1.3765269224,
				"z": 6.2948843874,
				"element": "C" 
			},
			{
				"x": -5.0117473925,
				"y": 1.1713937257,
				"z": 6.1097710599,
				"element": "C" 
			},
			{
				"x": -5.8831812447,
				"y": 2.3590814154,
				"z": 6.5841979965,
				"element": "C" 
			},
			{
				"x": -6.2968449531,
				"y": 3.3591957327,
				"z": 5.4884117257,
				"element": "C" 
			},
			{
				"x": -5.1455028997,
				"y": 4.1344046536,
				"z": 4.8315793979,
				"element": "C" 
			},
			{
				"x": -5.5945352055,
				"y": 5.2063133159,
				"z": 3.8222632344,
				"element": "C" 
			},
			{
				"x": -6.3596515618,
				"y": 4.6921115464,
				"z": 2.5876891254,
				"element": "C" 
			},
			{
				"x": -5.6547539499,
				"y": 3.658876542,
				"z": 1.6856416942,
				"element": "C" 
			},
			{
				"x": -4.4264619246,
				"y": 4.1575995771,
				"z": 0.8929870769,
				"element": "C" 
			},
			{
				"x": -3.0609178114,
				"y": 4.1234233882,
				"z": 1.6072882226,
				"element": "C" 
			},
			{
				"x": -2.5513404041,
				"y": 2.7176872257,
				"z": 1.9499655152,
				"element": "C" 
			},
			{
				"x": -2.1668811059,
				"y": 1.8979713006,
				"z": 0.7331834063,
				"element": "C" 
			},
			{
				"x": -1.9122621691,
				"y": 2.3414605726,
				"z": -0.3681954212,
				"element": "O" 
			},
			{
				"x": -2.1109422585,
				"y": 0.5811873702,
				"z": 1.0406185154,
				"element": "O" 
			},
			{
				"x": -1.7327268412,
				"y": -0.3148651422,
				"z": -0.0209823186,
				"element": "C" 
			},
			{
				"x": -1.2908385906,
				"y": -1.6283509133,
				"z": 0.6038291769,
				"element": "C" 
			},
			{
				"x": -1.0094403719,
				"y": -2.6769811097,
				"z": -0.4628031577,
				"element": "C" 
			},
			{
				"x": -0.6739609688,
				"y": -3.8972325081,
				"z": 0.1875889167,
				"element": "O" 
			},
			{
				"x": -0.600684483,
				"y": -5.2569291343,
				"z": -0.737935393,
				"element": "P" 
			},
			{
				"x": -0.3548397962,
				"y": -6.4173496154,
				"z": 0.1820839964,
				"element": "O" 
			},
			{
				"x": -1.6062204441,
				"y": -5.2294209026,
				"z": -1.8439909305,
				"element": "O" 
			},
			{
				"x": 0.8814577225,
				"y": -4.9731052594,
				"z": -1.5601065797,
				"element": "O" 
			},
			{
				"x": 2.0612564392,
				"y": -5.4522668369,
				"z": -0.9687199971,
				"element": "C" 
			},
			{
				"x": 2.1918394734,
				"y": -6.9790880515,
				"z": -1.0267424037,
				"element": "C" 
			},
			{
				"x": 1.8789124658,
				"y": -7.6110736515,
				"z": -2.3964070068,
				"element": "N" 
			},
			{
				"x": 2.4859284092,
				"y": -8.983750986,
				"z": -2.4031452498,
				"element": "C" 
			},
			{
				"x": 0.3829797557,
				"y": -7.7596248057,
				"z": -2.6236828941,
				"element": "C" 
			},
			{
				"x": 2.4600651303,
				"y": -6.7988346945,
				"z": -3.5187445084,
				"element": "C" 
			},
			{
				"x": -0.0641259609,
				"y": -1.3906276163,
				"z": 1.3323013714,
				"element": "O" 
			},
			{
				"x": -0.0721966077,
				"y": -1.5591557617,
				"z": 2.6782954086,
				"element": "C" 
			},
			{
				"x": -1.0541357699,
				"y": -1.8455682962,
				"z": 3.3268322834,
				"element": "O" 
			},
			{
				"x": 1.3190400155,
				"y": -1.3808567569,
				"z": 3.2618732998,
				"element": "C" 
			},
			{
				"x": 2.1482380337,
				"y": -0.2328720188,
				"z": 2.6655024143,
				"element": "C" 
			},
			{
				"x": 1.5283045956,
				"y": 1.1534071888,
				"z": 2.9014347063,
				"element": "C" 
			},
			{
				"x": 2.3195172189,
				"y": 2.3321158325,
				"z": 2.2907612111,
				"element": "C" 
			},
			{
				"x": 1.8965194683,
				"y": 2.7599020993,
				"z": 0.8732764072,
				"element": "C" 
			},
			{
				"x": 2.1159901303,
				"y": 1.7273048179,
				"z": -0.241380091,
				"element": "C" 
			},
			{
				"x": 1.7060154755,
				"y": 2.2588942469,
				"z": -1.6228783892,
				"element": "C" 
			},
			{
				"x": 1.858639683,
				"y": 1.2453238093,
				"z": -2.7710028734,
				"element": "C" 
			},
			{
				"x": 3.2915205601,
				"y": 0.7712710342,
				"z": -3.0729037792,
				"element": "C" 
			},
			{
				"x": 4.246869377,
				"y": 1.876366399,
				"z": -3.5457457027,
				"element": "C" 
			},
			{
				"x": 5.6365637448,
				"y": 1.3446951347,
				"z": -3.9229648325,
				"element": "C" 
			},
			{
				"x": 6.6591553261,
				"y": 2.4262518929,
				"z": -4.3127398671,
				"element": "C" 
			},
			{
				"x": 6.3532270635,
				"y": 3.2893196792,
				"z": -5.5529307015,
				"element": "C" 
			},
			{
				"x": 6.3384033372,
				"y": 2.5555825094,
				"z": -6.9116856175,
				"element": "C" 
			},
			{
				"x": 4.9895011487,
				"y": 1.9495643434,
				"z": -7.322860946,
				"element": "C" 
			},
			{
				"x": -2.8228984614,
				"y": -3.9306147963,
				"z": 6.1499755808,
				"element": "H" 
			},
			{
				"x": -4.0971129486,
				"y": -3.3911732937,
				"z": 7.2527995429,
				"element": "H" 
			},
			{
				"x": -4.5195375371,
				"y": -4.074251147,
				"z": 5.6758799203,
				"element": "H" 
			},
			{
				"x": -4.7341140069,
				"y": -1.5833104819,
				"z": 5.6002548886,
				"element": "H" 
			},
			{
				"x": -3.4542632509,
				"y": -2.1211252772,
				"z": 4.5197545961,
				"element": "H" 
			},
			{
				"x": -1.7360573972,
				"y": -1.6187500942,
				"z": 6.1930497892,
				"element": "H" 
			},
			{
				"x": -2.9391213177,
				"y": -1.0607331995,
				"z": 7.346489265,
				"element": "H" 
			},
			{
				"x": -2.7342401488,
				"y": 0.2493273497,
				"z": 4.5974898034,
				"element": "H" 
			},
			{
				"x": -1.5505421546,
				"y": 0.6374228238,
				"z": 5.8225093872,
				"element": "H" 
			},
			{
				"x": -3.2111208349,
				"y": 2.3469154217,
				"z": 5.8708299453,
				"element": "H" 
			},
			{
				"x": -3.2892641679,
				"y": 1.4523258419,
				"z": 7.3721817666,
				"element": "H" 
			},
			{
				"x": -5.3106272333,
				"y": 0.2718749706,
				"z": 6.6594331958,
				"element": "H" 
			},
			{
				"x": -5.2294458786,
				"y": 0.9585683746,
				"z": 5.0531130405,
				"element": "H" 
			},
			{
				"x": -6.8041968394,
				"y": 1.9682132908,
				"z": 7.0344928694,
				"element": "H" 
			},
			{
				"x": -5.3623555767,
				"y": 2.8947923874,
				"z": 7.3908605358,
				"element": "H" 
			},
			{
				"x": -7.0020228184,
				"y": 4.082450879,
				"z": 5.9226631125,
				"element": "H" 
			},
			{
				"x": -6.8609327539,
				"y": 2.8143768154,
				"z": 4.7194096263,
				"element": "H" 
			},
			{
				"x": -4.4626605692,
				"y": 3.4315494377,
				"z": 4.3400185045,
				"element": "H" 
			},
			{
				"x": -4.5548875112,
				"y": 4.6245939061,
				"z": 5.6178679371,
				"element": "H" 
			},
			{
				"x": -4.7164410967,
				"y": 5.7781810064,
				"z": 3.4974991724,
				"element": "H" 
			},
			{
				"x": -6.2393919712,
				"y": 5.9288447187,
				"z": 4.3420825629,
				"element": "H" 
			},
			{
				"x": -6.6330372795,
				"y": 5.5588214239,
				"z": 1.9699264327,
				"element": "H" 
			},
			{
				"x": -7.3109559098,
				"y": 4.2562998658,
				"z": 2.9190802099,
				"element": "H" 
			},
			{
				"x": -5.3949375946,
				"y": 2.7669769451,
				"z": 2.2703921208,
				"element": "H" 
			},
			{
				"x": -6.4010409663,
				"y": 3.3136809122,
				"z": 0.9589215833,
				"element": "H" 
			},
			{
				"x": -4.3314583681,
				"y": 3.5647033714,
				"z": -0.0243621859,
				"element": "H" 
			},
			{
				"x": -4.6170915747,
				"y": 5.1866238935,
				"z": 0.55930647,
				"element": "H" 
			},
			{
				"x": -3.0944521939,
				"y": 4.7089664863,
				"z": 2.5312976067,
				"element": "H" 
			},
			{
				"x": -2.3205085629,
				"y": 4.6024084326,
				"z": 0.9574888687,
				"element": "H" 
			},
			{
				"x": -3.2705021001,
				"y": 2.1416033254,
				"z": 2.5399429915,
				"element": "H" 
			},
			{
				"x": -1.6500715985,
				"y": 2.7858482649,
				"z": 2.5741244775,
				"element": "H" 
			},
			{
				"x": -2.5964468056,
				"y": -0.4752136846,
				"z": -0.6756269633,
				"element": "H" 
			},
			{
				"x": -0.93288558,
				"y": 0.135776742,
				"z": -0.6137341134,
				"element": "H" 
			},
			{
				"x": -2.0419816372,
				"y": -1.9948745495,
				"z": 1.3066048408,
				"element": "H" 
			},
			{
				"x": -0.1777030065,
				"y": -2.3472885893,
				"z": -1.1011304401,
				"element": "H" 
			},
			{
				"x": -1.8935695622,
				"y": -2.8157694602,
				"z": -1.0957394135,
				"element": "H" 
			},
			{
				"x": 2.9041035233,
				"y": -4.9732781226,
				"z": -1.4828557229,
				"element": "H" 
			},
			{
				"x": 2.1367674809,
				"y": -5.1932276707,
				"z": 0.0964952106,
				"element": "H" 
			},
			{
				"x": 1.4788450684,
				"y": -7.4124337102,
				"z": -0.3245484805,
				"element": "H" 
			},
			{
				"x": 3.2183795884,
				"y": -7.2718546015,
				"z": -0.7855292244,
				"element": "H" 
			},
			{
				"x": 2.2403957851,
				"y": -9.4787384274,
				"z": -3.3437796903,
				"element": "H" 
			},
			{
				"x": 2.0735713876,
				"y": -9.5506304775,
				"z": -1.5678338582,
				"element": "H" 
			},
			{
				"x": 3.5684693671,
				"y": -8.9011822084,
				"z": -2.2976842328,
				"element": "H" 
			},
			{
				"x": -0.0574416883,
				"y": -8.2155462528,
				"z": -1.7385042982,
				"element": "H" 
			},
			{
				"x": 0.2498789892,
				"y": -8.3894365581,
				"z": -3.5055902098,
				"element": "H" 
			},
			{
				"x": -0.075591578,
				"y": -6.7823882046,
				"z": -2.7684261629,
				"element": "H" 
			},
			{
				"x": 2.2763604711,
				"y": -7.32385432,
				"z": -4.457615793,
				"element": "H" 
			},
			{
				"x": 1.9639078446,
				"y": -5.8294426604,
				"z": -3.5221058756,
				"element": "H" 
			},
			{
				"x": 3.5339336795,
				"y": -6.6856761002,
				"z": -3.360502099,
				"element": "H" 
			},
			{
				"x": 1.8429408014,
				"y": -2.3332685405,
				"z": 3.1058095629,
				"element": "H" 
			},
			{
				"x": 1.1886548621,
				"y": -1.262025912,
				"z": 4.3413869919,
				"element": "H" 
			},
			{
				"x": 3.1469497876,
				"y": -0.2587915908,
				"z": 3.1208314962,
				"element": "H" 
			},
			{
				"x": 2.2891492678,
				"y": -0.4129471163,
				"z": 1.5966164665,
				"element": "H" 
			},
			{
				"x": 0.5024489583,
				"y": 1.163227762,
				"z": 2.5092969103,
				"element": "H" 
			},
			{
				"x": 1.4369552789,
				"y": 1.3023782484,
				"z": 3.9856313292,
				"element": "H" 
			},
			{
				"x": 2.2065676365,
				"y": 3.2058841337,
				"z": 2.9447952265,
				"element": "H" 
			},
			{
				"x": 3.39310735,
				"y": 2.0941340488,
				"z": 2.2983003285,
				"element": "H" 
			},
			{
				"x": 2.4447072466,
				"y": 3.6762491088,
				"z": 0.6126691373,
				"element": "H" 
			},
			{
				"x": 0.8344817486,
				"y": 3.0424051797,
				"z": 0.8873861454,
				"element": "H" 
			},
			{
				"x": 3.1725615142,
				"y": 1.4249032079,
				"z": -0.2467020897,
				"element": "H" 
			},
			{
				"x": 1.5376017348,
				"y": 0.8192398891,
				"z": -0.0280789809,
				"element": "H" 
			},
			{
				"x": 0.65435362,
				"y": 2.56887186,
				"z": -1.5759333685,
				"element": "H" 
			},
			{
				"x": 2.2804663881,
				"y": 3.1679366698,
				"z": -1.8478908148,
				"element": "H" 
			},
			{
				"x": 1.24016025,
				"y": 0.3647514558,
				"z": -2.5473611611,
				"element": "H" 
			},
			{
				"x": 1.4347743807,
				"y": 1.6843001656,
				"z": -3.6845620214,
				"element": "H" 
			},
			{
				"x": 3.2410454117,
				"y": -0.0053921375,
				"z": -3.849044565,
				"element": "H" 
			},
			{
				"x": 3.7177739135,
				"y": 0.2787903713,
				"z": -2.1882959567,
				"element": "H" 
			},
			{
				"x": 4.3595098005,
				"y": 2.6357766335,
				"z": -2.7602137258,
				"element": "H" 
			},
			{
				"x": 3.7964540187,
				"y": 2.3928800988,
				"z": -4.4037800253,
				"element": "H" 
			},
			{
				"x": 6.0422772541,
				"y": 0.7889420261,
				"z": -3.0657515023,
				"element": "H" 
			},
			{
				"x": 5.540762735,
				"y": 0.6077050567,
				"z": -4.7311929209,
				"element": "H" 
			},
			{
				"x": 6.7891735436,
				"y": 3.1002409083,
				"z": -3.4543077684,
				"element": "H" 
			},
			{
				"x": 7.635301896,
				"y": 1.9444575097,
				"z": -4.4642227149,
				"element": "H" 
			},
			{
				"x": 5.4037666399,
				"y": 3.8244448316,
				"z": -5.4178793058,
				"element": "H" 
			},
			{
				"x": 7.1248994977,
				"y": 4.0687748087,
				"z": -5.5928042268,
				"element": "H" 
			},
			{
				"x": 7.1107346723,
				"y": 1.7736652419,
				"z": -6.909467483,
				"element": "H" 
			},
			{
				"x": 6.6390649731,
				"y": 3.2658283764,
				"z": -7.692483581,
				"element": "H" 
			},
			{
				"x": 4.6468777877,
				"y": 1.17944735,
				"z": -6.625957925,
				"element": "H" 
			},
			{
				"x": 5.0529565602,
				"y": 1.4903036497,
				"z": -8.3155728226,
				"element": "H" 
			},
			{
				"x": 4.2128441106,
				"y": 2.7217873883,
				"z": -7.3668481963,
				"element": "H" 
			}
		],
		 "valence_orbital": [ 
			{
				"type": "occ",
				"energy": -0.26055,
				"method": "rhf"
			},
			{
				"type": "occ",
				"energy": -0.2525,
				"method": "rhf"
			},
			{
				"type": "occ",
				"energy": -0.23943,
				"method": "rhf"
			},
			{
				"type": "occ",
				"energy": -0.23114,
				"method": "rhf"
			},
			{
				"type": "occ",
				"energy": -0.21898,
				"method": "rhf"
			},
			{
				"type": "unocc",
				"energy": 0.01035,
				"method": "rhf"
			},
			{
				"type": "unocc",
				"energy": 0.01733,
				"method": "rhf"
			},
			{
				"type": "unocc",
				"energy": 0.02754,
				"method": "rhf"
			},
			{
				"type": "unocc",
				"energy": 0.05539,
				"method": "rhf"
			},
			{
				"type": "unocc",
				"energy": 0.05769,
				"method": "rhf"
			}
		],
		"cosmo_sigma_profile": { 
			"-0.025": 0.0,
			"-0.024": 0.0,
			"-0.023": 0.0,
			"-0.022": 0.0,
			"-0.021": 0.0,
			"-0.02": 0.0,
			"-0.019": 0.0,
			"-0.018": 0.0,
			"-0.017": 0.0,
			"-0.016": 0.0,
			"-0.015": 0.0,
			"-0.014": 0.0,
			"-0.013": 0.233694398513,
			"-0.012": 1.50532198623,
			"-0.011": 2.49430419416,
			"-0.01": 5.16051375941,
			"-0.009": 8.58606500662,
			"-0.008": 17.2682719228,
			"-0.007": 19.886528745,
			"-0.006": 27.2226643744,
			"-0.005": 33.3656908716,
			"-0.004": 30.9986986876,
			"-0.003": 36.8559613349,
			"-0.002": 91.2988665091,
			"-0.001": 158.482119264,
			"0.0": 166.695873392,
			"0.001": 135.64269477,
			"0.002": 69.8023395081,
			"0.003": 17.4832227824,
			"0.004": 14.5440509402,
			"0.005": 14.8787501717,
			"0.006": 14.0751041915,
			"0.007": 11.5147655755,
			"0.008": 9.03608577368,
			"0.009": 7.00943556126,
			"0.01": 6.45724449883,
			"0.011": 6.30714871623,
			"0.012": 5.00504592677,
			"0.013": 3.81262361885,
			"0.014": 3.1931653666,
			"0.015": 3.29943183466,
			"0.016": 5.56536151946,
			"0.017": 7.0525112064,
			"0.018": 2.97869778871,
			"0.019": 0.0,
			"0.02": 0.0,
			"0.021": 0.0,
			"0.022": 0.0,
			"0.023": 0.0,
			"0.024": 0.0,
			"0.025": 0.0
		}
	}
}
