{
	 "smiles": "CC(=O)OC[C@H]1O[C@H](Br)[C@H](OC(C)=O)[C@@H](OC(C)=O)[C@@H]1OC(C)=O", 
	 "Tm": 361.35, 
	 "num_atms": 43, 
	 "gaussian": { 
		 "optdone": 1, 
		 "sigma_profile": "yes", 
		 "theory": "DFT", 
		 "functional": "B3LYP", 
		 "basiset": "6-31G**", 
		 "properties": { 
			 "R2extent": 9564.2328, 
			 "electric_dipole_moment_norm": 3.60933082718, 
			 "electric_quadrupole_moment_norm": 27.0635356816, 
			 "total_energy": -3793.39996435, 
			 "HOMO_LUMO_gap": 0.25533, 
			 "cosmo_polarized_energy": -23.53, 
			 "cosmo_cavitation_energy": 50.59, 
			 "cosmo_dispersion_energy": -31.39, 
			 "cosmo_repulsion_energy": 2.49, 
			 "cosmo_total_nonelectrostatic_energy": 21.7, 
			 "SMD_solvation_energy": 11.94 
		},
		"coords": [
			{
				"x": 0.756837608,
				"y": -3.9402961426,
				"z": 3.723345889,
				"element": "C" 
			},
			{
				"x": 0.4926165971,
				"y": -3.8535405295,
				"z": 2.2414645807,
				"element": "C" 
			},
			{
				"x": 1.1379096214,
				"y": -4.3949240303,
				"z": 1.3747040922,
				"element": "O" 
			},
			{
				"x": -0.5923244988,
				"y": -3.0607418727,
				"z": 2.0052664856,
				"element": "O" 
			},
			{
				"x": -0.8792207288,
				"y": -2.7294850373,
				"z": 0.6408255389,
				"element": "C" 
			},
			{
				"x": -0.6456961332,
				"y": -1.2440982842,
				"z": 0.4316320065,
				"element": "C" 
			},
			{
				"x": 0.7702912761,
				"y": -1.0209495841,
				"z": 0.4925059473,
				"element": "O" 
			},
			{
				"x": 1.1519172328,
				"y": 0.2977217065,
				"z": 0.5795947253,
				"element": "C" 
			},
			{
				"x": 1.3730988738,
				"y": 0.8677234416,
				"z": 2.5186972304,
				"element": "Br" 
			},
			{
				"x": 0.2168604666,
				"y": 1.2765744085,
				"z": -0.1652788319,
				"element": "C" 
			},
			{
				"x": -0.8778214298,
				"y": 1.7090508597,
				"z": 0.6485295639,
				"element": "O" 
			},
			{
				"x": -0.9054943833,
				"y": 3.0321717689,
				"z": 1.0129525895,
				"element": "C" 
			},
			{
				"x": -2.0465072462,
				"y": 3.2797217398,
				"z": 1.9634538155,
				"element": "C" 
			},
			{
				"x": -0.1127532327,
				"y": 3.8510788867,
				"z": 0.6191492276,
				"element": "O" 
			},
			{
				"x": -0.4086158112,
				"y": 0.544545406,
				"z": -1.3647799399,
				"element": "C" 
			},
			{
				"x": 0.6406802941,
				"y": 0.1702807771,
				"z": -2.2758481529,
				"element": "O" 
			},
			{
				"x": 0.8670403265,
				"y": 1.0167722749,
				"z": -3.3269332384,
				"element": "C" 
			},
			{
				"x": 1.9161950277,
				"y": 0.4454947522,
				"z": -4.245194612,
				"element": "C" 
			},
			{
				"x": 0.2823432244,
				"y": 2.0634391056,
				"z": -3.4749903694,
				"element": "O" 
			},
			{
				"x": -1.1314248815,
				"y": -0.7546873822,
				"z": -0.9426525731,
				"element": "C" 
			},
			{
				"x": -2.552734749,
				"y": -0.5570770235,
				"z": -0.8231870559,
				"element": "O" 
			},
			{
				"x": -3.2687652816,
				"y": -0.6203574752,
				"z": -1.9827079968,
				"element": "C" 
			},
			{
				"x": -4.7384214996,
				"y": -0.41910395,
				"z": -1.7129606369,
				"element": "C" 
			},
			{
				"x": -2.7626023161,
				"y": -0.808997417,
				"z": -3.0649537143,
				"element": "O" 
			},
			{
				"x": 1.511574494,
				"y": -4.702385385,
				"z": 3.9145357576,
				"element": "H" 
			},
			{
				"x": -0.164028183,
				"y": -4.1685228649,
				"z": 4.2661486133,
				"element": "H" 
			},
			{
				"x": 1.11657527,
				"y": -2.9690806571,
				"z": 4.0782234823,
				"element": "H" 
			},
			{
				"x": -1.9326504545,
				"y": -2.9607048501,
				"z": 0.4587486584,
				"element": "H" 
			},
			{
				"x": -0.2444313494,
				"y": -3.3205389948,
				"z": -0.0236233207,
				"element": "H" 
			},
			{
				"x": -1.1460841373,
				"y": -0.6767607359,
				"z": 1.2234743991,
				"element": "H" 
			},
			{
				"x": 2.1690094631,
				"y": 0.3670672506,
				"z": 0.2010224089,
				"element": "H" 
			},
			{
				"x": 0.7824217508,
				"y": 2.1510444393,
				"z": -0.4916671501,
				"element": "H" 
			},
			{
				"x": -1.8091709143,
				"y": 2.8167860575,
				"z": 2.9266477205,
				"element": "H" 
			},
			{
				"x": -2.1817122289,
				"y": 4.3524236684,
				"z": 2.0971570925,
				"element": "H" 
			},
			{
				"x": -2.9652593254,
				"y": 2.8190290538,
				"z": 1.5922368829,
				"element": "H" 
			},
			{
				"x": -1.0984599124,
				"y": 1.2210137753,
				"z": -1.870817538,
				"element": "H" 
			},
			{
				"x": 1.5106169281,
				"y": -0.4339910952,
				"z": -4.7553391922,
				"element": "H" 
			},
			{
				"x": 2.1994103122,
				"y": 1.1962505255,
				"z": -4.9820108286,
				"element": "H" 
			},
			{
				"x": 2.7902095084,
				"y": 0.1196493719,
				"z": -3.6754881566,
				"element": "H" 
			},
			{
				"x": -0.9365082194,
				"y": -1.4990317486,
				"z": -1.7188970564,
				"element": "H" 
			},
			{
				"x": -5.094732799,
				"y": -1.1552625361,
				"z": -0.9867823323,
				"element": "H" 
			},
			{
				"x": -5.293013728,
				"y": -0.5126877851,
				"z": -2.6457990693,
				"element": "H" 
			},
			{
				"x": -4.9040748312,
				"y": 0.5721861115,
				"z": -1.2804049421,
				"element": "H" 
			}
		],
		 "valence_orbital": [ 
			{
				"type": "occ",
				"energy": -0.28673,
				"method": "rhf"
			},
			{
				"type": "occ",
				"energy": -0.28433,
				"method": "rhf"
			},
			{
				"type": "occ",
				"energy": -0.27835,
				"method": "rhf"
			},
			{
				"type": "occ",
				"energy": -0.2754,
				"method": "rhf"
			},
			{
				"type": "occ",
				"energy": -0.27356,
				"method": "rhf"
			},
			{
				"type": "unocc",
				"energy": -0.01823,
				"method": "rhf"
			},
			{
				"type": "unocc",
				"energy": -0.00723,
				"method": "rhf"
			},
			{
				"type": "unocc",
				"energy": -0.0014,
				"method": "rhf"
			},
			{
				"type": "unocc",
				"energy": 0.00142,
				"method": "rhf"
			},
			{
				"type": "unocc",
				"energy": 0.01155,
				"method": "rhf"
			}
		],
		"cosmo_sigma_profile": { 
			"-0.025": 0.0,
			"-0.024": 0.0,
			"-0.023": 0.0,
			"-0.022": 0.0,
			"-0.021": 0.0,
			"-0.02": 0.0,
			"-0.019": 0.0,
			"-0.018": 0.0,
			"-0.017": 0.0,
			"-0.016": 0.0,
			"-0.015": 0.0,
			"-0.014": 0.0,
			"-0.013": 0.0,
			"-0.012": 0.0,
			"-0.011": 0.161894241504,
			"-0.01": 2.52635728234,
			"-0.009": 3.47595246832,
			"-0.008": 4.55935318463,
			"-0.007": 15.1574661276,
			"-0.006": 30.4957866442,
			"-0.005": 33.6332802427,
			"-0.004": 32.812849086,
			"-0.003": 37.9930955427,
			"-0.002": 39.5647556577,
			"-0.001": 25.6605541711,
			"0.0": 17.0049869195,
			"0.001": 16.9324634758,
			"0.002": 15.7294822245,
			"0.003": 18.5951885284,
			"0.004": 19.6050259599,
			"0.005": 17.217220771,
			"0.006": 12.9608575952,
			"0.007": 9.16745114172,
			"0.008": 7.81233690649,
			"0.009": 7.80538867014,
			"0.01": 9.91545545436,
			"0.011": 14.8542137955,
			"0.012": 7.66939960354,
			"0.013": 0.673015270029,
			"0.014": 0.0,
			"0.015": 0.0,
			"0.016": 0.0,
			"0.017": 0.0,
			"0.018": 0.0,
			"0.019": 0.0,
			"0.02": 0.0,
			"0.021": 0.0,
			"0.022": 0.0,
			"0.023": 0.0,
			"0.024": 0.0,
			"0.025": 0.0
		}
	}
}
