{
	 "smiles": "CN(CC(O)=O)C(=O)C1=CSC=C1", 
	 "Tm": 329.65, 
	 "num_atms": 22, 
	 "gaussian": { 
		 "optdone": 1, 
		 "sigma_profile": "yes", 
		 "theory": "DFT", 
		 "functional": "B3LYP", 
		 "basiset": "6-31G**", 
		 "properties": { 
			 "R2extent": 3302.1862, 
			 "electric_dipole_moment_norm": 1.71071341259, 
			 "electric_quadrupole_moment_norm": 17.8382665837, 
			 "total_energy": -988.884617675, 
			 "HOMO_LUMO_gap": 0.20741, 
			 "cosmo_polarized_energy": -16.6, 
			 "cosmo_cavitation_energy": 28.18, 
			 "cosmo_dispersion_energy": -20.33, 
			 "cosmo_repulsion_energy": 1.59, 
			 "cosmo_total_nonelectrostatic_energy": 9.44, 
			 "SMD_solvation_energy": 6.54 
		},
		"coords": [
			{
				"x": -0.3860778433,
				"y": -1.3812692306,
				"z": -1.8291747587,
				"element": "C" 
			},
			{
				"x": -0.7892013487,
				"y": -0.4112522306,
				"z": -0.8126057181,
				"element": "N" 
			},
			{
				"x": -0.9391371866,
				"y": 0.9551661877,
				"z": -1.2738776861,
				"element": "C" 
			},
			{
				"x": 0.3416950796,
				"y": 1.6469771129,
				"z": -1.74530566,
				"element": "C" 
			},
			{
				"x": 1.4495263426,
				"y": 1.1556197083,
				"z": -1.1504201408,
				"element": "O" 
			},
			{
				"x": 0.3566698938,
				"y": 2.5650945547,
				"z": -2.5328519389,
				"element": "O" 
			},
			{
				"x": -0.5232103586,
				"y": -0.746568751,
				"z": 0.507388325,
				"element": "C" 
			},
			{
				"x": 0.050245851,
				"y": -1.7901613087,
				"z": 0.7977998413,
				"element": "O" 
			},
			{
				"x": -1.0170725253,
				"y": 0.1756700817,
				"z": 1.580927169,
				"element": "C" 
			},
			{
				"x": -0.2691052978,
				"y": 0.3962865346,
				"z": 2.7102848481,
				"element": "C" 
			},
			{
				"x": -1.0876030175,
				"y": 1.4120694606,
				"z": 3.8406840486,
				"element": "S" 
			},
			{
				"x": -2.4740012909,
				"y": 1.5317007758,
				"z": 2.8040633576,
				"element": "C" 
			},
			{
				"x": -2.2950648568,
				"y": 0.8296202902,
				"z": 1.6457530138,
				"element": "C" 
			},
			{
				"x": -0.504413416,
				"y": -2.384898794,
				"z": -1.4239997943,
				"element": "H" 
			},
			{
				"x": 0.6631743087,
				"y": -1.2518608235,
				"z": -2.1216247735,
				"element": "H" 
			},
			{
				"x": -1.0222311724,
				"y": -1.2577324186,
				"z": -2.710982135,
				"element": "H" 
			},
			{
				"x": -1.6432176077,
				"y": 1.003683771,
				"z": -2.1104335424,
				"element": "H" 
			},
			{
				"x": -1.3434040981,
				"y": 1.5819897461,
				"z": -0.4759931117,
				"element": "H" 
			},
			{
				"x": 2.1966466164,
				"y": 1.6783940118,
				"z": -1.4878616528,
				"element": "H" 
			},
			{
				"x": 0.7127114058,
				"y": -0.0006746852,
				"z": 2.9249895536,
				"element": "H" 
			},
			{
				"x": -3.3398016943,
				"y": 2.0985168664,
				"z": 3.1168398155,
				"element": "H" 
			},
			{
				"x": -3.0568277839,
				"y": 0.7447291404,
				"z": 0.8792009398,
				"element": "H" 
			}
		],
		 "valence_orbital": [ 
			{
				"type": "occ",
				"energy": -0.2981,
				"method": "rhf"
			},
			{
				"type": "occ",
				"energy": -0.2677,
				"method": "rhf"
			},
			{
				"type": "occ",
				"energy": -0.25693,
				"method": "rhf"
			},
			{
				"type": "occ",
				"energy": -0.24552,
				"method": "rhf"
			},
			{
				"type": "occ",
				"energy": -0.23869,
				"method": "rhf"
			},
			{
				"type": "unocc",
				"energy": -0.03128,
				"method": "rhf"
			},
			{
				"type": "unocc",
				"energy": -0.00934,
				"method": "rhf"
			},
			{
				"type": "unocc",
				"energy": 0.01094,
				"method": "rhf"
			},
			{
				"type": "unocc",
				"energy": 0.0257,
				"method": "rhf"
			},
			{
				"type": "unocc",
				"energy": 0.06292,
				"method": "rhf"
			}
		],
		"cosmo_sigma_profile": { 
			"-0.025": 0.0,
			"-0.024": 0.0,
			"-0.023": 0.0,
			"-0.022": 0.0,
			"-0.021": 0.0,
			"-0.02": 0.0,
			"-0.019": 0.253831505249,
			"-0.018": 1.00090293233,
			"-0.017": 0.969192391242,
			"-0.016": 0.729245356835,
			"-0.015": 0.995448841484,
			"-0.014": 0.708748651531,
			"-0.013": 0.425650269219,
			"-0.012": 0.685355912114,
			"-0.011": 0.991735364849,
			"-0.01": 0.760602777989,
			"-0.009": 2.50120016907,
			"-0.008": 6.6478950845,
			"-0.007": 12.3504309017,
			"-0.006": 12.7137073345,
			"-0.005": 12.3785460398,
			"-0.004": 15.7063063619,
			"-0.003": 14.7768640167,
			"-0.002": 15.0246166557,
			"-0.001": 13.2831588004,
			"0.0": 11.8121613779,
			"0.001": 13.5000427501,
			"0.002": 15.3627602648,
			"0.003": 17.8485209856,
			"0.004": 10.0529464206,
			"0.005": 6.18987292062,
			"0.006": 3.9773949776,
			"0.007": 4.5282380047,
			"0.008": 3.46581599479,
			"0.009": 3.48726788574,
			"0.01": 3.32804985187,
			"0.011": 7.12472081804,
			"0.012": 5.60487180953,
			"0.013": 4.8654544652,
			"0.014": 2.28240130736,
			"0.015": 0.113496802395,
			"0.016": 0.0,
			"0.017": 0.0,
			"0.018": 0.0,
			"0.019": 0.0,
			"0.02": 0.0,
			"0.021": 0.0,
			"0.022": 0.0,
			"0.023": 0.0,
			"0.024": 0.0,
			"0.025": 0.0
		}
	}
}
