{
	 "smiles": "ClC1=CC=C(C=C1)C1=NC(=C/C2=CC=CC=C2)C(=O)O1", 
	 "Tm": 455.15, 
	 "num_atms": 30, 
	 "gaussian": { 
		 "optdone": 1, 
		 "sigma_profile": "yes", 
		 "theory": "DFT", 
		 "functional": "B3LYP", 
		 "basiset": "6-31G**", 
		 "properties": { 
			 "R2extent": 9499.7868, 
			 "electric_dipole_moment_norm": 3.06275751244, 
			 "electric_quadrupole_moment_norm": 17.5542356245, 
			 "total_energy": -1281.12990973, 
			 "HOMO_LUMO_gap": 0.12555, 
			 "cosmo_polarized_energy": -10.07, 
			 "cosmo_cavitation_energy": 38.03, 
			 "cosmo_dispersion_energy": -27.69, 
			 "cosmo_repulsion_energy": 2.09, 
			 "cosmo_total_nonelectrostatic_energy": 12.43, 
			 "SMD_solvation_energy": 6.25 
		},
		"coords": [
			{
				"x": 3.2139540339,
				"y": 5.7211275507,
				"z": -1.3425908997,
				"element": "Cl" 
			},
			{
				"x": 2.085828181,
				"y": 4.3911949802,
				"z": -1.1673752033,
				"element": "C" 
			},
			{
				"x": 2.5760927303,
				"y": 3.1078298041,
				"z": -0.9081110594,
				"element": "C" 
			},
			{
				"x": 1.6799237887,
				"y": 2.0556082328,
				"z": -0.7697137228,
				"element": "C" 
			},
			{
				"x": 0.29736552,
				"y": 2.2781073313,
				"z": -0.8888365513,
				"element": "C" 
			},
			{
				"x": -0.1754186343,
				"y": 3.5742981755,
				"z": -1.1493986906,
				"element": "C" 
			},
			{
				"x": 0.7168997217,
				"y": 4.6333807094,
				"z": -1.2892270556,
				"element": "C" 
			},
			{
				"x": -0.6261460646,
				"y": 1.1608517898,
				"z": -0.7402180873,
				"element": "C" 
			},
			{
				"x": -0.3186218225,
				"y": -0.0746999929,
				"z": -0.4993468621,
				"element": "N" 
			},
			{
				"x": -1.533778566,
				"y": -0.7598167278,
				"z": -0.4453427126,
				"element": "C" 
			},
			{
				"x": -1.7746069325,
				"y": -2.0786496352,
				"z": -0.2205956751,
				"element": "C" 
			},
			{
				"x": -0.8481857628,
				"y": -3.1670064348,
				"z": 0.0294172028,
				"element": "C" 
			},
			{
				"x": 0.5538543283,
				"y": -3.0015486418,
				"z": 0.0787797027,
				"element": "C" 
			},
			{
				"x": 1.379738023,
				"y": -4.0932318654,
				"z": 0.3237918192,
				"element": "C" 
			},
			{
				"x": 0.8355053757,
				"y": -5.3664165295,
				"z": 0.524176711,
				"element": "C" 
			},
			{
				"x": -0.5491218883,
				"y": -5.5457918465,
				"z": 0.4782720824,
				"element": "C" 
			},
			{
				"x": -1.3809159842,
				"y": -4.4578325838,
				"z": 0.2335555283,
				"element": "C" 
			},
			{
				"x": -2.6312089489,
				"y": 0.2065059827,
				"z": -0.6829051189,
				"element": "C" 
			},
			{
				"x": -3.8273975206,
				"y": 0.1061058646,
				"z": -0.7334790421,
				"element": "O" 
			},
			{
				"x": -1.9672497572,
				"y": 1.4368409485,
				"z": -0.8669960978,
				"element": "O" 
			},
			{
				"x": 3.6437866111,
				"y": 2.9431538592,
				"z": -0.8174261871,
				"element": "H" 
			},
			{
				"x": 2.0363999977,
				"y": 1.0515286895,
				"z": -0.5683668162,
				"element": "H" 
			},
			{
				"x": -1.2416307429,
				"y": 3.7474324952,
				"z": -1.2415243992,
				"element": "H" 
			},
			{
				"x": 0.3582476983,
				"y": 5.6363978898,
				"z": -1.4904564206,
				"element": "H" 
			},
			{
				"x": -2.8303669656,
				"y": -2.343398367,
				"z": -0.2331313148,
				"element": "H" 
			},
			{
				"x": 0.9714509407,
				"y": -2.0142353261,
				"z": -0.0768462849,
				"element": "H" 
			},
			{
				"x": 2.4563779572,
				"y": -3.9537871638,
				"z": 0.3594500636,
				"element": "H" 
			},
			{
				"x": 1.4879758345,
				"y": -6.2135694402,
				"z": 0.7149834479,
				"element": "H" 
			},
			{
				"x": -0.9778632524,
				"y": -6.5314482376,
				"z": 0.6329483265,
				"element": "H" 
			},
			{
				"x": -2.4582878991,
				"y": -4.5967315108,
				"z": 0.1977133171,
				"element": "H" 
			}
		],
		 "valence_orbital": [ 
			{
				"type": "occ",
				"energy": -0.27941,
				"method": "rhf"
			},
			{
				"type": "occ",
				"energy": -0.27589,
				"method": "rhf"
			},
			{
				"type": "occ",
				"energy": -0.26783,
				"method": "rhf"
			},
			{
				"type": "occ",
				"energy": -0.26248,
				"method": "rhf"
			},
			{
				"type": "occ",
				"energy": -0.22232,
				"method": "rhf"
			},
			{
				"type": "unocc",
				"energy": -0.09677,
				"method": "rhf"
			},
			{
				"type": "unocc",
				"energy": -0.04451,
				"method": "rhf"
			},
			{
				"type": "unocc",
				"energy": -0.02756,
				"method": "rhf"
			},
			{
				"type": "unocc",
				"energy": -0.01102,
				"method": "rhf"
			},
			{
				"type": "unocc",
				"energy": 0.01158,
				"method": "rhf"
			}
		],
		"cosmo_sigma_profile": { 
			"-0.025": 0.0,
			"-0.024": 0.0,
			"-0.023": 0.0,
			"-0.022": 0.0,
			"-0.021": 0.0,
			"-0.02": 0.0,
			"-0.019": 0.0,
			"-0.018": 0.0,
			"-0.017": 0.0,
			"-0.016": 0.0,
			"-0.015": 0.0,
			"-0.014": 0.0,
			"-0.013": 0.0,
			"-0.012": 0.0,
			"-0.011": 0.0,
			"-0.01": 0.0,
			"-0.009": 0.169458460475,
			"-0.008": 4.93476311935,
			"-0.007": 10.6691309215,
			"-0.006": 18.032313249,
			"-0.005": 17.5116356121,
			"-0.004": 19.6555901322,
			"-0.003": 16.9670324813,
			"-0.002": 21.7959564239,
			"-0.001": 25.2482070016,
			"0.0": 26.4023678968,
			"0.001": 33.5584949003,
			"0.002": 35.6566113775,
			"0.003": 22.7825529509,
			"0.004": 27.2591828673,
			"0.005": 6.98818528731,
			"0.006": 4.66818533185,
			"0.007": 3.66862560969,
			"0.008": 2.30164679735,
			"0.009": 2.35493896275,
			"0.01": 5.38018181948,
			"0.011": 3.70567911843,
			"0.012": 0.336316992888,
			"0.013": 0.0,
			"0.014": 0.0,
			"0.015": 0.0,
			"0.016": 0.0,
			"0.017": 0.0,
			"0.018": 0.0,
			"0.019": 0.0,
			"0.02": 0.0,
			"0.021": 0.0,
			"0.022": 0.0,
			"0.023": 0.0,
			"0.024": 0.0,
			"0.025": 0.0
		}
	}
}
