{
	 "smiles": "ClCC1=CSC(COC2=CC=C(Cl)C=C2)=N1", 
	 "Tm": 349.15, 
	 "num_atms": 25, 
	 "gaussian": { 
		 "optdone": 1, 
		 "sigma_profile": "yes", 
		 "theory": "DFT", 
		 "functional": "B3LYP", 
		 "basiset": "6-31G**", 
		 "properties": { 
			 "R2extent": 7313.3183, 
			 "electric_dipole_moment_norm": 1.730421989, 
			 "electric_quadrupole_moment_norm": 21.077407847, 
			 "total_energy": -1873.12555875, 
			 "HOMO_LUMO_gap": 0.17808, 
			 "cosmo_polarized_energy": -11.15, 
			 "cosmo_cavitation_energy": 35.26, 
			 "cosmo_dispersion_energy": -25.68, 
			 "cosmo_repulsion_energy": 2.01, 
			 "cosmo_total_nonelectrostatic_energy": 11.59, 
			 "SMD_solvation_energy": 3.86 
		},
		"coords": [
			{
				"x": 3.7056427029,
				"y": 3.5443560412,
				"z": 0.2890670042,
				"element": "Cl" 
			},
			{
				"x": 3.3110916408,
				"y": 1.8267663201,
				"z": -0.214776745,
				"element": "C" 
			},
			{
				"x": 1.8999447069,
				"y": 1.6802839843,
				"z": -0.671917088,
				"element": "C" 
			},
			{
				"x": 1.4855373862,
				"y": 1.6560661966,
				"z": -1.976741178,
				"element": "C" 
			},
			{
				"x": -0.229900663,
				"y": 1.4624531624,
				"z": -2.0642200258,
				"element": "S" 
			},
			{
				"x": -0.2698824876,
				"y": 1.4277733129,
				"z": -0.3057663219,
				"element": "C" 
			},
			{
				"x": -1.5654401029,
				"y": 1.309503489,
				"z": 0.4548548029,
				"element": "C" 
			},
			{
				"x": -2.4508832884,
				"y": 0.3357930609,
				"z": -0.0825391176,
				"element": "O" 
			},
			{
				"x": -2.2053161505,
				"y": -0.9939484621,
				"z": 0.1610023028,
				"element": "C" 
			},
			{
				"x": -1.0882525347,
				"y": -1.4902250412,
				"z": 0.8410832771,
				"element": "C" 
			},
			{
				"x": -0.9568927249,
				"y": -2.8679430427,
				"z": 1.0399815992,
				"element": "C" 
			},
			{
				"x": -1.9310792733,
				"y": -3.7361698476,
				"z": 0.5586276154,
				"element": "C" 
			},
			{
				"x": -1.7579191948,
				"y": -5.4689228636,
				"z": 0.8103102924,
				"element": "Cl" 
			},
			{
				"x": -3.0456206425,
				"y": -3.2466898073,
				"z": -0.1265049692,
				"element": "C" 
			},
			{
				"x": -3.1794501705,
				"y": -1.8772789418,
				"z": -0.3228727833,
				"element": "C" 
			},
			{
				"x": 0.8932430447,
				"y": 1.5431335757,
				"z": 0.263026538,
				"element": "N" 
			},
			{
				"x": 3.4992204956,
				"y": 1.2137655657,
				"z": 0.6660787843,
				"element": "H" 
			},
			{
				"x": 4.0192923531,
				"y": 1.5757793126,
				"z": -1.0034424629,
				"element": "H" 
			},
			{
				"x": 2.088251474,
				"y": 1.7324690287,
				"z": -2.8709084275,
				"element": "H" 
			},
			{
				"x": -2.1219878312,
				"y": 2.2499890297,
				"z": 0.39698751,
				"element": "H" 
			},
			{
				"x": -1.3272376635,
				"y": 1.1173754786,
				"z": 1.507004861,
				"element": "H" 
			},
			{
				"x": -0.3099419941,
				"y": -0.8312240275,
				"z": 1.2062173748,
				"element": "H" 
			},
			{
				"x": -0.0927976711,
				"y": -3.2586022136,
				"z": 1.5659779836,
				"element": "H" 
			},
			{
				"x": -3.7999814603,
				"y": -3.9310469966,
				"z": -0.498530658,
				"element": "H" 
			},
			{
				"x": -4.037539951,
				"y": -1.4705563143,
				"z": -0.8474001685,
				"element": "H" 
			}
		],
		 "valence_orbital": [ 
			{
				"type": "occ",
				"energy": -0.29622,
				"method": "rhf"
			},
			{
				"type": "occ",
				"energy": -0.2933,
				"method": "rhf"
			},
			{
				"type": "occ",
				"energy": -0.26793,
				"method": "rhf"
			},
			{
				"type": "occ",
				"energy": -0.25879,
				"method": "rhf"
			},
			{
				"type": "occ",
				"energy": -0.22812,
				"method": "rhf"
			},
			{
				"type": "unocc",
				"energy": -0.05004,
				"method": "rhf"
			},
			{
				"type": "unocc",
				"energy": -0.01879,
				"method": "rhf"
			},
			{
				"type": "unocc",
				"energy": -0.00974,
				"method": "rhf"
			},
			{
				"type": "unocc",
				"energy": -0.00413,
				"method": "rhf"
			},
			{
				"type": "unocc",
				"energy": 0.00717,
				"method": "rhf"
			}
		],
		"cosmo_sigma_profile": { 
			"-0.025": 0.0,
			"-0.024": 0.0,
			"-0.023": 0.0,
			"-0.022": 0.0,
			"-0.021": 0.0,
			"-0.02": 0.0,
			"-0.019": 0.0,
			"-0.018": 0.0,
			"-0.017": 0.0,
			"-0.016": 0.0,
			"-0.015": 0.0,
			"-0.014": 0.0,
			"-0.013": 0.0,
			"-0.012": 0.0,
			"-0.011": 0.0,
			"-0.01": 1.26170455853,
			"-0.009": 3.93491511154,
			"-0.008": 9.50924805168,
			"-0.007": 14.262517014,
			"-0.006": 16.3455561867,
			"-0.005": 16.2846050501,
			"-0.004": 14.2256325573,
			"-0.003": 12.296031316,
			"-0.002": 12.8542360011,
			"-0.001": 14.8523788509,
			"0.0": 23.9959880547,
			"0.001": 27.2907240908,
			"0.002": 29.5617630524,
			"0.003": 27.0138086137,
			"0.004": 21.6885059288,
			"0.005": 17.7948625031,
			"0.006": 11.7706268389,
			"0.007": 8.30439916884,
			"0.008": 1.94337829123,
			"0.009": 1.69030069031,
			"0.01": 0.652373720714,
			"0.011": 0.976413273604,
			"0.012": 0.243388377652,
			"0.013": 0.662329574603,
			"0.014": 0.14759896877,
			"0.015": 0.0,
			"0.016": 0.0,
			"0.017": 0.0,
			"0.018": 0.0,
			"0.019": 0.0,
			"0.02": 0.0,
			"0.021": 0.0,
			"0.022": 0.0,
			"0.023": 0.0,
			"0.024": 0.0,
			"0.025": 0.0
		}
	}
}
