{
	 "smiles": "CS(=O)(=O)NC1=CC=C(C=C1)C(=O)CBr", 
	 "Tm": 452.15, 
	 "num_atms": 25, 
	 "gaussian": { 
		 "optdone": 1, 
		 "sigma_profile": "yes", 
		 "theory": "DFT", 
		 "functional": "B3LYP", 
		 "basiset": "6-31G**", 
		 "properties": { 
			 "R2extent": 8861.0507, 
			 "electric_dipole_moment_norm": 3.52543326841, 
			 "electric_quadrupole_moment_norm": 28.523587199, 
			 "total_energy": -3598.93321871, 
			 "HOMO_LUMO_gap": 0.16862, 
			 "cosmo_polarized_energy": -20.99, 
			 "cosmo_cavitation_energy": 32.98, 
			 "cosmo_dispersion_energy": -24.6, 
			 "cosmo_repulsion_energy": 1.88, 
			 "cosmo_total_nonelectrostatic_energy": 10.26, 
			 "SMD_solvation_energy": 4.73 
		},
		"coords": [
			{
				"x": 0.8263164585,
				"y": -2.6811671305,
				"z": -0.5519291838,
				"element": "C" 
			},
			{
				"x": 0.1654093179,
				"y": -1.686073193,
				"z": -1.9032418487,
				"element": "S" 
			},
			{
				"x": 1.2350812204,
				"y": -0.802799409,
				"z": -2.3601691553,
				"element": "O" 
			},
			{
				"x": -0.5690766906,
				"y": -2.5555172025,
				"z": -2.8189878323,
				"element": "O" 
			},
			{
				"x": -1.046965276,
				"y": -0.7468540842,
				"z": -1.1820737426,
				"element": "N" 
			},
			{
				"x": -0.8956793812,
				"y": 0.1709809989,
				"z": -0.1278937679,
				"element": "C" 
			},
			{
				"x": -1.9959257184,
				"y": 0.4010627901,
				"z": 0.7160235463,
				"element": "C" 
			},
			{
				"x": -1.9041756173,
				"y": 1.3148762703,
				"z": 1.757223389,
				"element": "C" 
			},
			{
				"x": -0.708294202,
				"y": 2.0113453323,
				"z": 1.995706644,
				"element": "C" 
			},
			{
				"x": 0.3847977135,
				"y": 1.7715724783,
				"z": 1.1463884159,
				"element": "C" 
			},
			{
				"x": 0.3027193406,
				"y": 0.8755101925,
				"z": 0.0900668222,
				"element": "C" 
			},
			{
				"x": -0.5409869077,
				"y": 3.0117666648,
				"z": 3.0827929073,
				"element": "C" 
			},
			{
				"x": 0.5171010797,
				"y": 3.5951248345,
				"z": 3.2651935242,
				"element": "O" 
			},
			{
				"x": -1.7263381299,
				"y": 3.371365406,
				"z": 3.9761570558,
				"element": "C" 
			},
			{
				"x": -2.1194788612,
				"y": 1.9230547919,
				"z": 5.2705874833,
				"element": "Br" 
			},
			{
				"x": 1.6606465938,
				"y": -3.2532698039,
				"z": -0.9614543832,
				"element": "H" 
			},
			{
				"x": 1.1767220542,
				"y": -2.016849883,
				"z": 0.2395214763,
				"element": "H" 
			},
			{
				"x": 0.0443444292,
				"y": -3.3494162219,
				"z": -0.1899539534,
				"element": "H" 
			},
			{
				"x": -1.9556679292,
				"y": -1.180930767,
				"z": -1.2947129972,
				"element": "H" 
			},
			{
				"x": -2.9221051067,
				"y": -0.1441007459,
				"z": 0.5541153402,
				"element": "H" 
			},
			{
				"x": -2.7640769458,
				"y": 1.4548795261,
				"z": 2.4029304041,
				"element": "H" 
			},
			{
				"x": 1.3016473233,
				"y": 2.3229046484,
				"z": 1.3259644119,
				"element": "H" 
			},
			{
				"x": 1.1423194885,
				"y": 0.735161147,
				"z": -0.5798834953,
				"element": "H" 
			},
			{
				"x": -1.4613348551,
				"y": 4.2419982818,
				"z": 4.5703206794,
				"element": "H" 
			},
			{
				"x": -2.6500993985,
				"y": 3.539075078,
				"z": 3.4228082598,
				"element": "H" 
			}
		],
		 "valence_orbital": [ 
			{
				"type": "occ",
				"energy": -0.29763,
				"method": "rhf"
			},
			{
				"type": "occ",
				"energy": -0.28844,
				"method": "rhf"
			},
			{
				"type": "occ",
				"energy": -0.27655,
				"method": "rhf"
			},
			{
				"type": "occ",
				"energy": -0.2618,
				"method": "rhf"
			},
			{
				"type": "occ",
				"energy": -0.24599,
				"method": "rhf"
			},
			{
				"type": "unocc",
				"energy": -0.07737,
				"method": "rhf"
			},
			{
				"type": "unocc",
				"energy": -0.02707,
				"method": "rhf"
			},
			{
				"type": "unocc",
				"energy": -0.01824,
				"method": "rhf"
			},
			{
				"type": "unocc",
				"energy": 0.03411,
				"method": "rhf"
			},
			{
				"type": "unocc",
				"energy": 0.04811,
				"method": "rhf"
			}
		],
		"cosmo_sigma_profile": { 
			"-0.025": 0.0,
			"-0.024": 0.0,
			"-0.023": 0.0,
			"-0.022": 0.0,
			"-0.021": 0.0,
			"-0.02": 0.0,
			"-0.019": 0.0,
			"-0.018": 0.0,
			"-0.017": 0.0736110991725,
			"-0.016": 0.878060445485,
			"-0.015": 1.21140665486,
			"-0.014": 1.35097281502,
			"-0.013": 1.0944414822,
			"-0.012": 1.74644706569,
			"-0.011": 1.12178189853,
			"-0.01": 2.41983436417,
			"-0.009": 8.82871776595,
			"-0.008": 10.5227050303,
			"-0.007": 13.0490988657,
			"-0.006": 14.5460031543,
			"-0.005": 19.2595114883,
			"-0.004": 14.1284941394,
			"-0.003": 11.3937226979,
			"-0.002": 9.2602494824,
			"-0.001": 10.791679476,
			"0.0": 11.7813335052,
			"0.001": 17.734172994,
			"0.002": 20.1524012131,
			"0.003": 21.6733345213,
			"0.004": 13.7069876512,
			"0.005": 13.049217502,
			"0.006": 5.39035089771,
			"0.007": 4.84655718372,
			"0.008": 4.06332628269,
			"0.009": 5.89528741522,
			"0.01": 11.8382304602,
			"0.011": 12.1742841588,
			"0.012": 2.55075807183,
			"0.013": 0.0769802326396,
			"0.014": 0.0,
			"0.015": 0.0,
			"0.016": 0.0,
			"0.017": 0.0,
			"0.018": 0.0,
			"0.019": 0.0,
			"0.02": 0.0,
			"0.021": 0.0,
			"0.022": 0.0,
			"0.023": 0.0,
			"0.024": 0.0,
			"0.025": 0.0
		}
	}
}
