{
	 "smiles": "O=C(C#N)C1=CC=CC=C1", 
	 "Tm": 305.65, 
	 "num_atms": 15, 
	 "gaussian": { 
		 "optdone": 1, 
		 "sigma_profile": "yes", 
		 "theory": "DFT", 
		 "functional": "B3LYP", 
		 "basiset": "6-31G**", 
		 "properties": { 
			 "R2extent": 1695.3649, 
			 "electric_dipole_moment_norm": 4.98153501242, 
			 "electric_quadrupole_moment_norm": 8.4688551192, 
			 "total_energy": -437.806267304, 
			 "HOMO_LUMO_gap": 0.17758, 
			 "cosmo_polarized_energy": -8.11, 
			 "cosmo_cavitation_energy": 21.01, 
			 "cosmo_dispersion_energy": -14.84, 
			 "cosmo_repulsion_energy": 1.2, 
			 "cosmo_total_nonelectrostatic_energy": 7.36, 
			 "SMD_solvation_energy": 5.78 
		},
		"coords": [
			{
				"x": 0.9176178695,
				"y": -0.6045076119,
				"z": 3.0861618958,
				"element": "O" 
			},
			{
				"x": 1.0951808431,
				"y": 0.1759208709,
				"z": 2.1672901896,
				"element": "C" 
			},
			{
				"x": 1.9304149054,
				"y": 1.3784146693,
				"z": 2.4109592675,
				"element": "C" 
			},
			{
				"x": 2.5893131417,
				"y": 2.3075493605,
				"z": 2.6391500191,
				"element": "N" 
			},
			{
				"x": 0.5373950097,
				"y": 0.0208323377,
				"z": 0.8060450771,
				"element": "C" 
			},
			{
				"x": 0.7836892821,
				"y": 0.9615784714,
				"z": -0.2062115437,
				"element": "C" 
			},
			{
				"x": 0.2369887415,
				"y": 0.7736916703,
				"z": -1.4740026082,
				"element": "C" 
			},
			{
				"x": -0.553247679,
				"y": -0.3485492524,
				"z": -1.733177205,
				"element": "C" 
			},
			{
				"x": -0.8005626409,
				"y": -1.2884127617,
				"z": -0.7255793693,
				"element": "C" 
			},
			{
				"x": -0.2582382418,
				"y": -1.106883422,
				"z": 0.5410694508,
				"element": "C" 
			},
			{
				"x": 1.398691385,
				"y": 1.8325436799,
				"z": 0.0000101935,
				"element": "H" 
			},
			{
				"x": 0.4263951381,
				"y": 1.500153523,
				"z": -2.2580035514,
				"element": "H" 
			},
			{
				"x": -0.9783111451,
				"y": -0.4927914606,
				"z": -2.7222606282,
				"element": "H" 
			},
			{
				"x": -1.4155794739,
				"y": -2.1586694925,
				"z": -0.9331416975,
				"element": "H" 
			},
			{
				"x": -0.4337471355,
				"y": -1.8192705817,
				"z": 1.3401905097,
				"element": "H" 
			}
		],
		 "valence_orbital": [ 
			{
				"type": "occ",
				"energy": -0.35522,
				"method": "rhf"
			},
			{
				"type": "occ",
				"energy": -0.35138,
				"method": "rhf"
			},
			{
				"type": "occ",
				"energy": -0.29454,
				"method": "rhf"
			},
			{
				"type": "occ",
				"energy": -0.28318,
				"method": "rhf"
			},
			{
				"type": "occ",
				"energy": -0.28003,
				"method": "rhf"
			},
			{
				"type": "unocc",
				"energy": -0.10245,
				"method": "rhf"
			},
			{
				"type": "unocc",
				"energy": -0.0301,
				"method": "rhf"
			},
			{
				"type": "unocc",
				"energy": -0.01222,
				"method": "rhf"
			},
			{
				"type": "unocc",
				"energy": 0.01683,
				"method": "rhf"
			},
			{
				"type": "unocc",
				"energy": 0.07813,
				"method": "rhf"
			}
		],
		"cosmo_sigma_profile": { 
			"-0.025": 0.0,
			"-0.024": 0.0,
			"-0.023": 0.0,
			"-0.022": 0.0,
			"-0.021": 0.0,
			"-0.02": 0.0,
			"-0.019": 0.0,
			"-0.018": 0.0,
			"-0.017": 0.0,
			"-0.016": 0.0,
			"-0.015": 0.0,
			"-0.014": 0.0,
			"-0.013": 0.0,
			"-0.012": 0.0,
			"-0.011": 0.0,
			"-0.01": 0.0,
			"-0.009": 0.0,
			"-0.008": 0.888199018238,
			"-0.007": 10.0709525425,
			"-0.006": 14.1674587764,
			"-0.005": 14.4840496563,
			"-0.004": 11.2544520084,
			"-0.003": 9.73547232812,
			"-0.002": 9.7532727952,
			"-0.001": 12.1982618773,
			"0.0": 11.3215090144,
			"0.001": 13.6335662534,
			"0.002": 18.2551650489,
			"0.003": 10.1353979054,
			"0.004": 3.63662267534,
			"0.005": 4.04901731371,
			"0.006": 5.00627350172,
			"0.007": 4.25765167266,
			"0.008": 5.46056282667,
			"0.009": 6.50794357166,
			"0.01": 4.35957466399,
			"0.011": 1.61151054642,
			"0.012": 0.107959769209,
			"0.013": 0.0,
			"0.014": 0.0,
			"0.015": 0.0,
			"0.016": 0.0,
			"0.017": 0.0,
			"0.018": 0.0,
			"0.019": 0.0,
			"0.02": 0.0,
			"0.021": 0.0,
			"0.022": 0.0,
			"0.023": 0.0,
			"0.024": 0.0,
			"0.025": 0.0
		}
	}
}
