{
	 "smiles": "CCOC(C)=C(C#N)C#N", 
	 "Tm": 364.15, 
	 "num_atms": 18, 
	 "gaussian": { 
		 "optdone": 1, 
		 "sigma_profile": "yes", 
		 "theory": "DFT", 
		 "functional": "B3LYP", 
		 "basiset": "6-31G**", 
		 "properties": { 
			 "R2extent": 2154.3958, 
			 "electric_dipole_moment_norm": 8.19805977778, 
			 "electric_quadrupole_moment_norm": 13.9709716949, 
			 "total_energy": -456.23744974, 
			 "HOMO_LUMO_gap": 0.19098, 
			 "cosmo_polarized_energy": -17.98, 
			 "cosmo_cavitation_energy": 24.28, 
			 "cosmo_dispersion_energy": -16.19, 
			 "cosmo_repulsion_energy": 1.36, 
			 "cosmo_total_nonelectrostatic_energy": 9.45, 
			 "SMD_solvation_energy": 7.67 
		},
		"coords": [
			{
				"x": -2.0413331674,
				"y": 1.1108356462,
				"z": 2.3795194767,
				"element": "C" 
			},
			{
				"x": -1.5684457786,
				"y": 0.4523873407,
				"z": 1.097792865,
				"element": "C" 
			},
			{
				"x": -0.1967589121,
				"y": 0.0529458351,
				"z": 1.3117222069,
				"element": "O" 
			},
			{
				"x": 0.5111811797,
				"y": -0.5610860787,
				"z": 0.3606563061,
				"element": "C" 
			},
			{
				"x": -0.103066226,
				"y": -0.8593653405,
				"z": -0.9719862859,
				"element": "C" 
			},
			{
				"x": 1.8073331162,
				"y": -0.891294483,
				"z": 0.6813057709,
				"element": "C" 
			},
			{
				"x": 2.6553548352,
				"y": -1.5502145066,
				"z": -0.2590031818,
				"element": "C" 
			},
			{
				"x": 3.3427212829,
				"y": -2.0876036935,
				"z": -1.0303264542,
				"element": "N" 
			},
			{
				"x": 2.3454127054,
				"y": -0.58338682,
				"z": 1.9695150992,
				"element": "C" 
			},
			{
				"x": 2.7932820712,
				"y": -0.3373837522,
				"z": 3.0147947534,
				"element": "N" 
			},
			{
				"x": -1.4291200201,
				"y": 1.9854500612,
				"z": 2.613189173,
				"element": "H" 
			},
			{
				"x": -3.0809148196,
				"y": 1.4320421415,
				"z": 2.2655679525,
				"element": "H" 
			},
			{
				"x": -1.9815236412,
				"y": 0.4120799317,
				"z": 3.2176883833,
				"element": "H" 
			},
			{
				"x": -2.1716773395,
				"y": -0.430614042,
				"z": 0.8587483783,
				"element": "H" 
			},
			{
				"x": -1.6174365868,
				"y": 1.1478421228,
				"z": 0.2524111253,
				"element": "H" 
			},
			{
				"x": -0.4337871848,
				"y": 0.062822135,
				"z": -1.462101066,
				"element": "H" 
			},
			{
				"x": 0.6138317437,
				"y": -1.3594983893,
				"z": -1.6221118992,
				"element": "H" 
			},
			{
				"x": -0.9805532582,
				"y": -1.5053581084,
				"z": -0.8588826035,
				"element": "H" 
			}
		],
		 "valence_orbital": [ 
			{
				"type": "occ",
				"energy": -0.35983,
				"method": "rhf"
			},
			{
				"type": "occ",
				"energy": -0.34286,
				"method": "rhf"
			},
			{
				"type": "occ",
				"energy": -0.339,
				"method": "rhf"
			},
			{
				"type": "occ",
				"energy": -0.32809,
				"method": "rhf"
			},
			{
				"type": "occ",
				"energy": -0.25189,
				"method": "rhf"
			},
			{
				"type": "unocc",
				"energy": -0.06091,
				"method": "rhf"
			},
			{
				"type": "unocc",
				"energy": 0.00485,
				"method": "rhf"
			},
			{
				"type": "unocc",
				"energy": 0.04603,
				"method": "rhf"
			},
			{
				"type": "unocc",
				"energy": 0.04606,
				"method": "rhf"
			},
			{
				"type": "unocc",
				"energy": 0.05302,
				"method": "rhf"
			}
		],
		"cosmo_sigma_profile": { 
			"-0.025": 0.0,
			"-0.024": 0.0,
			"-0.023": 0.0,
			"-0.022": 0.0,
			"-0.021": 0.0,
			"-0.02": 0.0,
			"-0.019": 0.0,
			"-0.018": 0.0,
			"-0.017": 0.0,
			"-0.016": 0.0,
			"-0.015": 0.0,
			"-0.014": 0.0,
			"-0.013": 0.0,
			"-0.012": 0.0,
			"-0.011": 0.0931108359324,
			"-0.01": 1.53143627881,
			"-0.009": 4.21705817855,
			"-0.008": 6.05438841734,
			"-0.007": 9.02988822262,
			"-0.006": 10.791628891,
			"-0.005": 17.3000953297,
			"-0.004": 19.5087360717,
			"-0.003": 16.5088646952,
			"-0.002": 16.5883134961,
			"-0.001": 13.5498433071,
			"0.0": 8.79751196499,
			"0.001": 5.00800797586,
			"0.002": 5.12412677841,
			"0.003": 5.05620421615,
			"0.004": 4.92586539744,
			"0.005": 5.69225070767,
			"0.006": 5.68447792233,
			"0.007": 6.82765178829,
			"0.008": 6.71002603278,
			"0.009": 6.37039242211,
			"0.01": 6.51381551034,
			"0.011": 5.33959817008,
			"0.012": 4.89569235326,
			"0.013": 2.66158276479,
			"0.014": 0.00835579141302,
			"0.015": 0.0,
			"0.016": 0.0,
			"0.017": 0.0,
			"0.018": 0.0,
			"0.019": 0.0,
			"0.02": 0.0,
			"0.021": 0.0,
			"0.022": 0.0,
			"0.023": 0.0,
			"0.024": 0.0,
			"0.025": 0.0
		}
	}
}
