{
	 "smiles": "C=CC(=O)NC1=CC2=C(OCCOCCOCCOCCOCCO2)C=C1", 
	 "Tm": 383.15, 
	 "num_atms": 54, 
	 "gaussian": { 
		 "optdone": 1, 
		 "sigma_profile": "yes", 
		 "theory": "DFT", 
		 "functional": "B3LYP", 
		 "basiset": "6-31G**", 
		 "properties": { 
			 "R2extent": 13755.4014, 
			 "electric_dipole_moment_norm": 3.11615928669, 
			 "electric_quadrupole_moment_norm": 30.9171035338, 
			 "total_energy": -1321.50755867, 
			 "HOMO_LUMO_gap": 0.17695, 
			 "cosmo_polarized_energy": -21.88, 
			 "cosmo_cavitation_energy": 54.73, 
			 "cosmo_dispersion_energy": -36.15, 
			 "cosmo_repulsion_energy": 2.77, 
			 "cosmo_total_nonelectrostatic_energy": 21.35, 
			 "SMD_solvation_energy": 10.26 
		},
		"coords": [
			{
				"x": 3.8712341105,
				"y": 3.7368768008,
				"z": 0.3938563548,
				"element": "C" 
			},
			{
				"x": 4.7983130551,
				"y": 3.4350459236,
				"z": 1.3058534322,
				"element": "C" 
			},
			{
				"x": 4.5760723302,
				"y": 3.3127044848,
				"z": 2.7775784485,
				"element": "C" 
			},
			{
				"x": 5.4353509023,
				"y": 3.7137619146,
				"z": 3.555326004,
				"element": "O" 
			},
			{
				"x": 3.3762214404,
				"y": 2.8257366396,
				"z": 3.2653354485,
				"element": "N" 
			},
			{
				"x": 2.3888983606,
				"y": 1.9995863665,
				"z": 2.6665043292,
				"element": "C" 
			},
			{
				"x": 2.7229605134,
				"y": 0.9391355413,
				"z": 1.81346338,
				"element": "C" 
			},
			{
				"x": 1.7317799737,
				"y": 0.1338948697,
				"z": 1.2587920072,
				"element": "C" 
			},
			{
				"x": 0.3752202814,
				"y": 0.3460080758,
				"z": 1.5855172261,
				"element": "C" 
			},
			{
				"x": -0.5397725662,
				"y": -0.527200172,
				"z": 1.052912058,
				"element": "O" 
			},
			{
				"x": -1.7964608546,
				"y": -0.019494033,
				"z": 0.5884544678,
				"element": "C" 
			},
			{
				"x": -1.6349659476,
				"y": 0.6356099804,
				"z": -0.7800597659,
				"element": "C" 
			},
			{
				"x": -2.9236118211,
				"y": 1.0318499788,
				"z": -1.2075193061,
				"element": "O" 
			},
			{
				"x": -2.9369826789,
				"y": 1.7849151709,
				"z": -2.4085498021,
				"element": "C" 
			},
			{
				"x": -2.4418212538,
				"y": 1.0408001211,
				"z": -3.6433099153,
				"element": "C" 
			},
			{
				"x": -3.3192540375,
				"y": -0.0398090255,
				"z": -3.9130664738,
				"element": "O" 
			},
			{
				"x": -2.8128189021,
				"y": -1.011427203,
				"z": -4.8129108387,
				"element": "C" 
			},
			{
				"x": -2.2132184576,
				"y": -2.2127627512,
				"z": -4.0976956673,
				"element": "C" 
			},
			{
				"x": -1.0000951184,
				"y": -1.8497873362,
				"z": -3.4592093911,
				"element": "O" 
			},
			{
				"x": -0.4532753243,
				"y": -2.9089355799,
				"z": -2.6895349769,
				"element": "C" 
			},
			{
				"x": 0.8027472837,
				"y": -2.400868562,
				"z": -1.9969862141,
				"element": "C" 
			},
			{
				"x": 1.2393043707,
				"y": -3.4485522531,
				"z": -1.1409867862,
				"element": "O" 
			},
			{
				"x": 2.3528580151,
				"y": -3.138140093,
				"z": -0.3249836108,
				"element": "C" 
			},
			{
				"x": 2.0494744685,
				"y": -2.1940936877,
				"z": 0.8332595048,
				"element": "C" 
			},
			{
				"x": 2.0994579178,
				"y": -0.8368263674,
				"z": 0.3567819608,
				"element": "O" 
			},
			{
				"x": 0.0509341252,
				"y": 1.3790957326,
				"z": 2.4681038292,
				"element": "C" 
			},
			{
				"x": 1.0444172269,
				"y": 2.2075453886,
				"z": 2.9911624063,
				"element": "C" 
			},
			{
				"x": 2.8184725121,
				"y": 3.8213947948,
				"z": 0.642747349,
				"element": "H" 
			},
			{
				"x": 4.1448957119,
				"y": 3.9215973742,
				"z": -0.6407478473,
				"element": "H" 
			},
			{
				"x": 5.8510287395,
				"y": 3.4002030998,
				"z": 1.0386103116,
				"element": "H" 
			},
			{
				"x": 3.3164245868,
				"y": 2.9449968867,
				"z": 4.269795355,
				"element": "H" 
			},
			{
				"x": 3.7543061134,
				"y": 0.7367592104,
				"z": 1.5502347871,
				"element": "H" 
			},
			{
				"x": -2.4541186312,
				"y": -0.8879797741,
				"z": 0.5101595645,
				"element": "H" 
			},
			{
				"x": -2.2467853732,
				"y": 0.6805130379,
				"z": 1.2994780141,
				"element": "H" 
			},
			{
				"x": -0.9571787983,
				"y": 1.5030431741,
				"z": -0.7041538968,
				"element": "H" 
			},
			{
				"x": -1.1861501741,
				"y": -0.0890762207,
				"z": -1.4699166108,
				"element": "H" 
			},
			{
				"x": -2.333535002,
				"y": 2.7026277215,
				"z": -2.2967410526,
				"element": "H" 
			},
			{
				"x": -3.980539803,
				"y": 2.0773102835,
				"z": -2.5592505428,
				"element": "H" 
			},
			{
				"x": -1.4148755595,
				"y": 0.6839108086,
				"z": -3.5005334847,
				"element": "H" 
			},
			{
				"x": -2.4290581566,
				"y": 1.7536406469,
				"z": -4.4867233856,
				"element": "H" 
			},
			{
				"x": -2.0710087617,
				"y": -0.5763947136,
				"z": -5.4980681331,
				"element": "H" 
			},
			{
				"x": -3.6579049638,
				"y": -1.3644630558,
				"z": -5.417342716,
				"element": "H" 
			},
			{
				"x": -2.035470045,
				"y": -3.0194454666,
				"z": -4.8304821581,
				"element": "H" 
			},
			{
				"x": -2.938670874,
				"y": -2.5856297175,
				"z": -3.3576081449,
				"element": "H" 
			},
			{
				"x": -1.1699384129,
				"y": -3.2477611827,
				"z": -1.9252770507,
				"element": "H" 
			},
			{
				"x": -0.2150371758,
				"y": -3.7753141423,
				"z": -3.3268768806,
				"element": "H" 
			},
			{
				"x": 0.5726723807,
				"y": -1.4946421801,
				"z": -1.4287139845,
				"element": "H" 
			},
			{
				"x": 1.579073047,
				"y": -2.1484268811,
				"z": -2.736719254,
				"element": "H" 
			},
			{
				"x": 2.6834222916,
				"y": -4.0957390881,
				"z": 0.0918203157,
				"element": "H" 
			},
			{
				"x": 3.1814888228,
				"y": -2.7203035151,
				"z": -0.9188245352,
				"element": "H" 
			},
			{
				"x": 1.0602941161,
				"y": -2.4205716358,
				"z": 1.245554345,
				"element": "H" 
			},
			{
				"x": 2.8044864358,
				"y": -2.3231299144,
				"z": 1.622934726,
				"element": "H" 
			},
			{
				"x": -0.9828761871,
				"y": 1.5490888756,
				"z": 2.7477935056,
				"element": "H" 
			},
			{
				"x": 0.7737157469,
				"y": 3.0225216491,
				"z": 3.6558632949,
				"element": "H" 
			}
		],
		 "valence_orbital": [ 
			{
				"type": "occ",
				"energy": -0.25271,
				"method": "rhf"
			},
			{
				"type": "occ",
				"energy": -0.25132,
				"method": "rhf"
			},
			{
				"type": "occ",
				"energy": -0.25052,
				"method": "rhf"
			},
			{
				"type": "occ",
				"energy": -0.24943,
				"method": "rhf"
			},
			{
				"type": "occ",
				"energy": -0.21442,
				"method": "rhf"
			},
			{
				"type": "unocc",
				"energy": -0.03747,
				"method": "rhf"
			},
			{
				"type": "unocc",
				"energy": -0.01118,
				"method": "rhf"
			},
			{
				"type": "unocc",
				"energy": -0.0011,
				"method": "rhf"
			},
			{
				"type": "unocc",
				"energy": 0.0718,
				"method": "rhf"
			},
			{
				"type": "unocc",
				"energy": 0.07422,
				"method": "rhf"
			}
		],
		"cosmo_sigma_profile": { 
			"-0.025": 0.0,
			"-0.024": 0.0,
			"-0.023": 0.0,
			"-0.022": 0.0,
			"-0.021": 0.0,
			"-0.02": 0.0,
			"-0.019": 0.0,
			"-0.018": 0.0,
			"-0.017": 0.0,
			"-0.016": 0.0,
			"-0.015": 0.0250345408747,
			"-0.014": 0.739918163976,
			"-0.013": 0.77304144329,
			"-0.012": 1.15109277084,
			"-0.011": 0.803502554924,
			"-0.01": 1.01368263117,
			"-0.009": 1.16705331364,
			"-0.008": 2.8103765452,
			"-0.007": 5.70375946445,
			"-0.006": 14.3707840127,
			"-0.005": 29.2136101169,
			"-0.004": 57.2519462819,
			"-0.003": 56.3564563601,
			"-0.002": 44.8765424653,
			"-0.001": 29.5863953312,
			"0.0": 22.5129035226,
			"0.001": 23.1970317219,
			"0.002": 24.0529766881,
			"0.003": 20.4097532953,
			"0.004": 18.9651046201,
			"0.005": 11.3360813206,
			"0.006": 9.28410167266,
			"0.007": 9.11251562926,
			"0.008": 6.83238995819,
			"0.009": 6.04641229052,
			"0.01": 5.59212538831,
			"0.011": 6.07961029076,
			"0.012": 7.56721499136,
			"0.013": 7.88889003961,
			"0.014": 4.14675715911,
			"0.015": 0.354954861414,
			"0.016": 0.0,
			"0.017": 0.0,
			"0.018": 0.0,
			"0.019": 0.0,
			"0.02": 0.0,
			"0.021": 0.0,
			"0.022": 0.0,
			"0.023": 0.0,
			"0.024": 0.0,
			"0.025": 0.0
		}
	}
}
