{
	 "smiles": "CN1N=C(C)CC1=O", 
	 "Tm": 383.15, 
	 "num_atms": 16, 
	 "gaussian": { 
		 "optdone": 1, 
		 "sigma_profile": "yes", 
		 "theory": "DFT", 
		 "functional": "B3LYP", 
		 "basiset": "6-31G**", 
		 "properties": { 
			 "R2extent": 1541.4465, 
			 "electric_dipole_moment_norm": 2.64056342094, 
			 "electric_quadrupole_moment_norm": 12.2252640839, 
			 "total_energy": -380.066285946, 
			 "HOMO_LUMO_gap": 0.203, 
			 "cosmo_polarized_energy": -10.42, 
			 "cosmo_cavitation_energy": 19.67, 
			 "cosmo_dispersion_energy": -14.67, 
			 "cosmo_repulsion_energy": 1.25, 
			 "cosmo_total_nonelectrostatic_energy": 6.24, 
			 "SMD_solvation_energy": 3.59 
		},
		"coords": [
			{
				"x": -2.3831578077,
				"y": 0.4996514177,
				"z": 0.9361121291,
				"element": "C" 
			},
			{
				"x": -1.0327319452,
				"y": 0.1757319202,
				"z": 1.332374349,
				"element": "N" 
			},
			{
				"x": -0.2361246127,
				"y": 1.1362366053,
				"z": 1.9531072697,
				"element": "N" 
			},
			{
				"x": 0.9119173261,
				"y": 0.6029296866,
				"z": 2.203381038,
				"element": "C" 
			},
			{
				"x": 2.0075469339,
				"y": 1.3668389083,
				"z": 2.8698958589,
				"element": "C" 
			},
			{
				"x": 0.987031925,
				"y": -0.8308534777,
				"z": 1.7496690169,
				"element": "C" 
			},
			{
				"x": -0.4091754906,
				"y": -1.0427303684,
				"z": 1.1564618163,
				"element": "C" 
			},
			{
				"x": -0.891797622,
				"y": -2.0367942103,
				"z": 0.6417737936,
				"element": "O" 
			},
			{
				"x": -2.8028163434,
				"y": -0.3974453284,
				"z": 0.4780112595,
				"element": "H" 
			},
			{
				"x": -2.9861523533,
				"y": 0.7860813245,
				"z": 1.8036822476,
				"element": "H" 
			},
			{
				"x": -2.3909237264,
				"y": 1.3204941196,
				"z": 0.2119012724,
				"element": "H" 
			},
			{
				"x": 2.3107933007,
				"y": 0.8859665417,
				"z": 3.8080116855,
				"element": "H" 
			},
			{
				"x": 1.6745909394,
				"y": 2.3839746935,
				"z": 3.0870878529,
				"element": "H" 
			},
			{
				"x": 2.8997767551,
				"y": 1.4149514175,
				"z": 2.2336045266,
				"element": "H" 
			},
			{
				"x": 1.1726987377,
				"y": -1.5357626224,
				"z": 2.5680682982,
				"element": "H" 
			},
			{
				"x": 1.7612239837,
				"y": -1.0068706277,
				"z": 0.9941575858,
				"element": "H" 
			}
		],
		 "valence_orbital": [ 
			{
				"type": "occ",
				"energy": -0.36829,
				"method": "rhf"
			},
			{
				"type": "occ",
				"energy": -0.3441,
				"method": "rhf"
			},
			{
				"type": "occ",
				"energy": -0.30893,
				"method": "rhf"
			},
			{
				"type": "occ",
				"energy": -0.24803,
				"method": "rhf"
			},
			{
				"type": "occ",
				"energy": -0.22444,
				"method": "rhf"
			},
			{
				"type": "unocc",
				"energy": -0.02144,
				"method": "rhf"
			},
			{
				"type": "unocc",
				"energy": 0.04498,
				"method": "rhf"
			},
			{
				"type": "unocc",
				"energy": 0.09258,
				"method": "rhf"
			},
			{
				"type": "unocc",
				"energy": 0.11706,
				"method": "rhf"
			},
			{
				"type": "unocc",
				"energy": 0.12832,
				"method": "rhf"
			}
		],
		"cosmo_sigma_profile": { 
			"-0.025": 0.0,
			"-0.024": 0.0,
			"-0.023": 0.0,
			"-0.022": 0.0,
			"-0.021": 0.0,
			"-0.02": 0.0,
			"-0.019": 0.0,
			"-0.018": 0.0,
			"-0.017": 0.0,
			"-0.016": 0.0,
			"-0.015": 0.0,
			"-0.014": 0.0,
			"-0.013": 0.0,
			"-0.012": 0.0,
			"-0.011": 0.0,
			"-0.01": 0.0,
			"-0.009": 0.124130713058,
			"-0.008": 3.60830924563,
			"-0.007": 5.25161033561,
			"-0.006": 7.69681316944,
			"-0.005": 17.8299319966,
			"-0.004": 17.0716422862,
			"-0.003": 15.2021167406,
			"-0.002": 17.7827044237,
			"-0.001": 13.1300175924,
			"0.0": 9.46775648893,
			"0.001": 4.85802430628,
			"0.002": 4.47981507726,
			"0.003": 2.94006467966,
			"0.004": 3.5176416308,
			"0.005": 3.449292912,
			"0.006": 2.50647592751,
			"0.007": 2.67933118904,
			"0.008": 2.59548650092,
			"0.009": 2.46439036257,
			"0.01": 2.0944775404,
			"0.011": 2.65387299341,
			"0.012": 3.52734203519,
			"0.013": 6.77751113118,
			"0.014": 3.41016845797,
			"0.015": 0.337454768633,
			"0.016": 0.0,
			"0.017": 0.0,
			"0.018": 0.0,
			"0.019": 0.0,
			"0.02": 0.0,
			"0.021": 0.0,
			"0.022": 0.0,
			"0.023": 0.0,
			"0.024": 0.0,
			"0.025": 0.0
		}
	}
}
