{
	 "smiles": "CCOC(=O)NC1=CC=C(O)C=C1", 
	 "Tm": 398.15, 
	 "num_atms": 24, 
	 "gaussian": { 
		 "optdone": 1, 
		 "sigma_profile": "yes", 
		 "theory": "DFT", 
		 "functional": "B3LYP", 
		 "basiset": "6-31G**", 
		 "properties": { 
			 "R2extent": 3452.3978, 
			 "electric_dipole_moment_norm": 2.47875764447, 
			 "electric_quadrupole_moment_norm": 7.13883893571, 
			 "total_energy": -630.030873142, 
			 "HOMO_LUMO_gap": 0.19482, 
			 "cosmo_polarized_energy": -14.16, 
			 "cosmo_cavitation_energy": 28.25, 
			 "cosmo_dispersion_energy": -20.74, 
			 "cosmo_repulsion_energy": 1.66, 
			 "cosmo_total_nonelectrostatic_energy": 9.16, 
			 "SMD_solvation_energy": 6.46 
		},
		"coords": [
			{
				"x": -3.0182170554,
				"y": 1.2291853385,
				"z": -2.3704155303,
				"element": "C" 
			},
			{
				"x": -1.5113679796,
				"y": 1.0948513557,
				"z": -2.5238091264,
				"element": "C" 
			},
			{
				"x": -0.8794197216,
				"y": 0.7458314205,
				"z": -1.2679934709,
				"element": "O" 
			},
			{
				"x": -0.6105982659,
				"y": 1.783770988,
				"z": -0.4430228459,
				"element": "C" 
			},
			{
				"x": -0.8486554661,
				"y": 2.9522927204,
				"z": -0.6993831291,
				"element": "O" 
			},
			{
				"x": -0.026157273,
				"y": 1.4010202141,
				"z": 0.7400080441,
				"element": "N" 
			},
			{
				"x": 0.3608176121,
				"y": 0.1558853355,
				"z": 1.2879428404,
				"element": "C" 
			},
			{
				"x": 0.1958803153,
				"y": -1.0850470269,
				"z": 0.6596897198,
				"element": "C" 
			},
			{
				"x": 0.6158541818,
				"y": -2.2535931065,
				"z": 1.2974748892,
				"element": "C" 
			},
			{
				"x": 1.2035740471,
				"y": -2.2126279052,
				"z": 2.5630017012,
				"element": "C" 
			},
			{
				"x": 1.6311179565,
				"y": -3.3301897159,
				"z": 3.2281067087,
				"element": "O" 
			},
			{
				"x": 1.3705550337,
				"y": -0.976642611,
				"z": 3.1953641456,
				"element": "C" 
			},
			{
				"x": 0.9535159665,
				"y": 0.1870776491,
				"z": 2.5624415176,
				"element": "C" 
			},
			{
				"x": -3.2600084779,
				"y": 2.0658667089,
				"z": -1.710894712,
				"element": "H" 
			},
			{
				"x": -3.4527778156,
				"y": 0.3131929411,
				"z": -1.9590462397,
				"element": "H" 
			},
			{
				"x": -3.4751079443,
				"y": 1.4178388962,
				"z": -3.3477522846,
				"element": "H" 
			},
			{
				"x": -1.2466907848,
				"y": 0.2723260685,
				"z": -3.1927290221,
				"element": "H" 
			},
			{
				"x": -1.0677333682,
				"y": 2.0215762826,
				"z": -2.893428223,
				"element": "H" 
			},
			{
				"x": 0.1570510453,
				"y": 2.2082864749,
				"z": 1.3186911057,
				"element": "H" 
			},
			{
				"x": -0.2568192623,
				"y": -1.1419452945,
				"z": -0.3190051146,
				"element": "H" 
			},
			{
				"x": 0.4792992078,
				"y": -3.2083044875,
				"z": 0.793269687,
				"element": "H" 
			},
			{
				"x": 1.4571492314,
				"y": -4.1072314092,
				"z": 2.68175708,
				"element": "H" 
			},
			{
				"x": 1.8270958946,
				"y": -0.9430517394,
				"z": 4.1788471603,
				"element": "H" 
			},
			{
				"x": 1.0899429227,
				"y": 1.1413309024,
				"z": 3.0660850991,
				"element": "H" 
			}
		],
		 "valence_orbital": [ 
			{
				"type": "occ",
				"energy": -0.29901,
				"method": "rhf"
			},
			{
				"type": "occ",
				"energy": -0.2855,
				"method": "rhf"
			},
			{
				"type": "occ",
				"energy": -0.27481,
				"method": "rhf"
			},
			{
				"type": "occ",
				"energy": -0.25504,
				"method": "rhf"
			},
			{
				"type": "occ",
				"energy": -0.20042,
				"method": "rhf"
			},
			{
				"type": "unocc",
				"energy": -0.0056,
				"method": "rhf"
			},
			{
				"type": "unocc",
				"energy": 0.00747,
				"method": "rhf"
			},
			{
				"type": "unocc",
				"energy": 0.06875,
				"method": "rhf"
			},
			{
				"type": "unocc",
				"energy": 0.06955,
				"method": "rhf"
			},
			{
				"type": "unocc",
				"energy": 0.08232,
				"method": "rhf"
			}
		],
		"cosmo_sigma_profile": { 
			"-0.025": 0.0,
			"-0.024": 0.0,
			"-0.023": 0.0,
			"-0.022": 0.0,
			"-0.021": 0.0,
			"-0.02": 0.0,
			"-0.019": 0.0,
			"-0.018": 0.174475289732,
			"-0.017": 0.996427575797,
			"-0.016": 1.19332418677,
			"-0.015": 1.44818531893,
			"-0.014": 1.94621088909,
			"-0.013": 2.43624867942,
			"-0.012": 2.16151604613,
			"-0.011": 1.6956749396,
			"-0.01": 1.61830825343,
			"-0.009": 2.92442809856,
			"-0.008": 2.26018161017,
			"-0.007": 2.87882586842,
			"-0.006": 6.73816139649,
			"-0.005": 10.1175067828,
			"-0.004": 17.2819444477,
			"-0.003": 17.3722125326,
			"-0.002": 15.5270901286,
			"-0.001": 16.8403335862,
			"0.0": 17.9077169732,
			"0.001": 13.6055456678,
			"0.002": 13.0898525341,
			"0.003": 14.336020048,
			"0.004": 14.9594531716,
			"0.005": 13.9623886962,
			"0.006": 6.75481057219,
			"0.007": 2.45862527451,
			"0.008": 2.50324022445,
			"0.009": 2.92489935187,
			"0.01": 2.92350219343,
			"0.011": 3.65199433452,
			"0.012": 3.17014379041,
			"0.013": 5.41764470117,
			"0.014": 0.618621031287,
			"0.015": 0.0,
			"0.016": 0.0,
			"0.017": 0.0,
			"0.018": 0.0,
			"0.019": 0.0,
			"0.02": 0.0,
			"0.021": 0.0,
			"0.022": 0.0,
			"0.023": 0.0,
			"0.024": 0.0,
			"0.025": 0.0
		}
	}
}
