{
	 "smiles": "OC(=O)C1=C(SCC2=CC=C(Br)C=C2)C=CC=C1", 
	 "Tm": 507.15, 
	 "num_atms": 29, 
	 "gaussian": { 
		 "optdone": 1, 
		 "sigma_profile": "yes", 
		 "theory": "DFT", 
		 "functional": "B3LYP", 
		 "basiset": "6-31G**", 
		 "properties": { 
			 "R2extent": 8771.0992, 
			 "electric_dipole_moment_norm": 2.35674711626, 
			 "electric_quadrupole_moment_norm": 12.8560609313, 
			 "total_energy": -3660.17326832, 
			 "HOMO_LUMO_gap": 0.16568, 
			 "cosmo_polarized_energy": -12.19, 
			 "cosmo_cavitation_energy": 37.61, 
			 "cosmo_dispersion_energy": -26.4, 
			 "cosmo_repulsion_energy": 2.03, 
			 "cosmo_total_nonelectrostatic_energy": 13.24, 
			 "SMD_solvation_energy": 5.69 
		},
		"coords": [
			{
				"x": -3.5180371642,
				"y": 2.7216540123,
				"z": -0.5791129323,
				"element": "O" 
			},
			{
				"x": -2.18734998,
				"y": 2.4804050236,
				"z": -0.6974564363,
				"element": "C" 
			},
			{
				"x": -1.3901038888,
				"y": 3.3892383075,
				"z": -0.8176425198,
				"element": "O" 
			},
			{
				"x": -1.871840462,
				"y": 1.0240016761,
				"z": -0.6242136503,
				"element": "C" 
			},
			{
				"x": -0.7461183639,
				"y": 0.448238062,
				"z": -1.2644219664,
				"element": "C" 
			},
			{
				"x": 0.3373684632,
				"y": 1.3101363119,
				"z": -2.4095878988,
				"element": "S" 
			},
			{
				"x": 1.4633608262,
				"y": 2.286641867,
				"z": -1.2974014935,
				"element": "C" 
			},
			{
				"x": 2.271852429,
				"y": 1.4572974747,
				"z": -0.3386405635,
				"element": "C" 
			},
			{
				"x": 3.4029784015,
				"y": 0.7460002892,
				"z": -0.7646349515,
				"element": "C" 
			},
			{
				"x": 4.1501227457,
				"y": -0.0227210179,
				"z": 0.1251331568,
				"element": "C" 
			},
			{
				"x": 3.7580049116,
				"y": -0.0849345647,
				"z": 1.4625903966,
				"element": "C" 
			},
			{
				"x": 4.7777509408,
				"y": -1.1372090882,
				"z": 2.6928612735,
				"element": "Br" 
			},
			{
				"x": 2.638672688,
				"y": 0.6078894186,
				"z": 1.9158352134,
				"element": "C" 
			},
			{
				"x": 1.9032807988,
				"y": 1.3743839523,
				"z": 1.0100430353,
				"element": "C" 
			},
			{
				"x": -0.5215035148,
				"y": -0.9271447749,
				"z": -1.1121572531,
				"element": "C" 
			},
			{
				"x": -1.368679831,
				"y": -1.7231115388,
				"z": -0.3409537041,
				"element": "C" 
			},
			{
				"x": -2.4737681184,
				"y": -1.1535173796,
				"z": 0.2886204636,
				"element": "C" 
			},
			{
				"x": -2.7234937612,
				"y": 0.2079019722,
				"z": 0.1379210784,
				"element": "C" 
			},
			{
				"x": -3.6098305642,
				"y": 3.6889240102,
				"z": -0.5949782762,
				"element": "H" 
			},
			{
				"x": 2.1071752876,
				"y": 2.8046022689,
				"z": -2.0151090883,
				"element": "H" 
			},
			{
				"x": 0.8469090042,
				"y": 3.0254265436,
				"z": -0.7865765527,
				"element": "H" 
			},
			{
				"x": 3.7026573628,
				"y": 0.7910542963,
				"z": -1.8084205143,
				"element": "H" 
			},
			{
				"x": 5.0265587447,
				"y": -0.5645268084,
				"z": -0.212037428,
				"element": "H" 
			},
			{
				"x": 2.3465777764,
				"y": 0.5527129486,
				"z": 2.9583899366,
				"element": "H" 
			},
			{
				"x": 1.0313996216,
				"y": 1.9200804996,
				"z": 1.3600128882,
				"element": "H" 
			},
			{
				"x": 0.3341132626,
				"y": -1.3677682712,
				"z": -1.6117021519,
				"element": "H" 
			},
			{
				"x": -1.1619397342,
				"y": -2.7840843927,
				"z": -0.2352642452,
				"element": "H" 
			},
			{
				"x": -3.1414043342,
				"y": -1.763034017,
				"z": 0.889857329,
				"element": "H" 
			},
			{
				"x": -3.5861135476,
				"y": 0.6585629189,
				"z": 0.6149468546,
				"element": "H" 
			}
		],
		 "valence_orbital": [ 
			{
				"type": "occ",
				"energy": -0.26872,
				"method": "rhf"
			},
			{
				"type": "occ",
				"energy": -0.26546,
				"method": "rhf"
			},
			{
				"type": "occ",
				"energy": -0.26119,
				"method": "rhf"
			},
			{
				"type": "occ",
				"energy": -0.23857,
				"method": "rhf"
			},
			{
				"type": "occ",
				"energy": -0.22278,
				"method": "rhf"
			},
			{
				"type": "unocc",
				"energy": -0.0571,
				"method": "rhf"
			},
			{
				"type": "unocc",
				"energy": -0.02777,
				"method": "rhf"
			},
			{
				"type": "unocc",
				"energy": -0.01692,
				"method": "rhf"
			},
			{
				"type": "unocc",
				"energy": -0.00929,
				"method": "rhf"
			},
			{
				"type": "unocc",
				"energy": 0.00926,
				"method": "rhf"
			}
		],
		"cosmo_sigma_profile": { 
			"-0.025": 0.0,
			"-0.024": 0.0,
			"-0.023": 0.0,
			"-0.022": 0.0,
			"-0.021": 0.0,
			"-0.02": 0.0,
			"-0.019": 0.102614438072,
			"-0.018": 0.633467841494,
			"-0.017": 1.08586756573,
			"-0.016": 1.15242293369,
			"-0.015": 0.522117827317,
			"-0.014": 0.516279059653,
			"-0.013": 0.591501564705,
			"-0.012": 0.62989293654,
			"-0.011": 1.22285193079,
			"-0.01": 0.489794818546,
			"-0.009": 0.283582068092,
			"-0.008": 1.03285605235,
			"-0.007": 9.00934380001,
			"-0.006": 19.744040872,
			"-0.005": 19.7928336208,
			"-0.004": 17.1530648177,
			"-0.003": 18.3436137328,
			"-0.002": 20.2424889062,
			"-0.001": 19.0191625994,
			"0.0": 20.1415599797,
			"0.001": 24.0607503388,
			"0.002": 29.8491355855,
			"0.003": 35.3967631654,
			"0.004": 26.9170779201,
			"0.005": 13.6477355804,
			"0.006": 5.41430993145,
			"0.007": 4.22367962313,
			"0.008": 4.7654518229,
			"0.009": 3.24759018842,
			"0.01": 3.25585403666,
			"0.011": 3.06858897773,
			"0.012": 0.894963275992,
			"0.013": 0.0,
			"0.014": 0.0,
			"0.015": 0.0,
			"0.016": 0.0,
			"0.017": 0.0,
			"0.018": 0.0,
			"0.019": 0.0,
			"0.02": 0.0,
			"0.021": 0.0,
			"0.022": 0.0,
			"0.023": 0.0,
			"0.024": 0.0,
			"0.025": 0.0
		}
	}
}
