{
	 "smiles": "C1CSC(NC2=CC=CC=C2)=NC1", 
	 "Tm": 398.15, 
	 "num_atms": 25, 
	 "gaussian": { 
		 "optdone": 1, 
		 "sigma_profile": "yes", 
		 "theory": "DFT", 
		 "functional": "B3LYP", 
		 "basiset": "6-31G**", 
		 "properties": { 
			 "R2extent": 3762.7567, 
			 "electric_dipole_moment_norm": 1.9918786459, 
			 "electric_quadrupole_moment_norm": 8.87226353587, 
			 "total_energy": -895.986972906, 
			 "HOMO_LUMO_gap": 0.20089, 
			 "cosmo_polarized_energy": -9.31, 
			 "cosmo_cavitation_energy": 28.87, 
			 "cosmo_dispersion_energy": -22.38, 
			 "cosmo_repulsion_energy": 1.73, 
			 "cosmo_total_nonelectrostatic_energy": 8.22, 
			 "SMD_solvation_energy": 2.5 
		},
		"coords": [
			{
				"x": -3.0177249996,
				"y": -1.6501816064,
				"z": -0.6130011266,
				"element": "C" 
			},
			{
				"x": -2.9137032195,
				"y": -2.1102776621,
				"z": 0.8389016518,
				"element": "C" 
			},
			{
				"x": -2.2412974588,
				"y": -0.7698504574,
				"z": 1.8982623874,
				"element": "S" 
			},
			{
				"x": -0.9676615566,
				"y": -0.1247587933,
				"z": 0.7612302085,
				"element": "C" 
			},
			{
				"x": -0.1727905493,
				"y": 0.7720396949,
				"z": 1.4509491392,
				"element": "N" 
			},
			{
				"x": 0.8482993222,
				"y": 1.6254066458,
				"z": 0.9953653731,
				"element": "C" 
			},
			{
				"x": 1.4475421982,
				"y": 2.4624244778,
				"z": 1.9547215517,
				"element": "C" 
			},
			{
				"x": 2.4631350975,
				"y": 3.3414053577,
				"z": 1.5934288761,
				"element": "C" 
			},
			{
				"x": 2.9019535836,
				"y": 3.4070302479,
				"z": 0.2688842128,
				"element": "C" 
			},
			{
				"x": 2.3076496494,
				"y": 2.5766417364,
				"z": -0.6812876004,
				"element": "C" 
			},
			{
				"x": 1.2898574341,
				"y": 1.686180313,
				"z": -0.3361799533,
				"element": "C" 
			},
			{
				"x": -0.8019038453,
				"y": -0.4038636982,
				"z": -0.4670611766,
				"element": "N" 
			},
			{
				"x": -1.6432622828,
				"y": -1.3280545133,
				"z": -1.2086782814,
				"element": "C" 
			},
			{
				"x": -3.4823151519,
				"y": -2.4443756906,
				"z": -1.2104735821,
				"element": "H" 
			},
			{
				"x": -3.6718439907,
				"y": -0.7730885064,
				"z": -0.6695402606,
				"element": "H" 
			},
			{
				"x": -3.892596983,
				"y": -2.3467818187,
				"z": 1.2629726129,
				"element": "H" 
			},
			{
				"x": -2.2777379298,
				"y": -2.9957187176,
				"z": 0.9325513097,
				"element": "H" 
			},
			{
				"x": -0.3478260203,
				"y": 0.820827822,
				"z": 2.4441760363,
				"element": "H" 
			},
			{
				"x": 1.1096948873,
				"y": 2.42169597,
				"z": 2.9883857361,
				"element": "H" 
			},
			{
				"x": 2.9108282113,
				"y": 3.9778158367,
				"z": 2.3516035451,
				"element": "H" 
			},
			{
				"x": 3.6942440131,
				"y": 4.0928591665,
				"z": -0.0150391128,
				"element": "H" 
			},
			{
				"x": 2.6396355671,
				"y": 2.613742858,
				"z": -1.7154086958,
				"element": "H" 
			},
			{
				"x": 0.8361494752,
				"y": 1.0359033574,
				"z": -1.0699717208,
				"element": "H" 
			},
			{
				"x": -1.7754642449,
				"y": -0.9171367513,
				"z": -2.217059757,
				"element": "H" 
			},
			{
				"x": -1.0782612065,
				"y": -2.263285269,
				"z": -1.3418313734,
				"element": "H" 
			}
		],
		 "valence_orbital": [ 
			{
				"type": "occ",
				"energy": -0.28128,
				"method": "rhf"
			},
			{
				"type": "occ",
				"energy": -0.2426,
				"method": "rhf"
			},
			{
				"type": "occ",
				"energy": -0.2388,
				"method": "rhf"
			},
			{
				"type": "occ",
				"energy": -0.23335,
				"method": "rhf"
			},
			{
				"type": "occ",
				"energy": -0.20206,
				"method": "rhf"
			},
			{
				"type": "unocc",
				"energy": -0.00117,
				"method": "rhf"
			},
			{
				"type": "unocc",
				"energy": 0.00778,
				"method": "rhf"
			},
			{
				"type": "unocc",
				"energy": 0.01653,
				"method": "rhf"
			},
			{
				"type": "unocc",
				"energy": 0.05245,
				"method": "rhf"
			},
			{
				"type": "unocc",
				"energy": 0.07072,
				"method": "rhf"
			}
		],
		"cosmo_sigma_profile": { 
			"-0.025": 0.0,
			"-0.024": 0.0,
			"-0.023": 0.0,
			"-0.022": 0.0,
			"-0.021": 0.0,
			"-0.02": 0.0,
			"-0.019": 0.0,
			"-0.018": 0.0,
			"-0.017": 0.0,
			"-0.016": 0.0,
			"-0.015": 0.171962200968,
			"-0.014": 0.893999063429,
			"-0.013": 1.29580062619,
			"-0.012": 1.09083498106,
			"-0.011": 0.726873410981,
			"-0.01": 1.13558025747,
			"-0.009": 1.87153017136,
			"-0.008": 0.858849344734,
			"-0.007": 1.95848028292,
			"-0.006": 6.0572813982,
			"-0.005": 14.988470638,
			"-0.004": 23.8298623425,
			"-0.003": 25.7751166114,
			"-0.002": 21.0826107832,
			"-0.001": 16.6989463916,
			"0.0": 11.0961163401,
			"0.001": 10.4255567233,
			"0.002": 11.8663167184,
			"0.003": 14.9339310113,
			"0.004": 17.5373059847,
			"0.005": 15.6549843384,
			"0.006": 15.2316280364,
			"0.007": 8.72072652917,
			"0.008": 3.43056937407,
			"0.009": 2.70268284284,
			"0.01": 0.830149380928,
			"0.011": 0.226360082394,
			"0.012": 0.0,
			"0.013": 0.0,
			"0.014": 0.0,
			"0.015": 0.0,
			"0.016": 0.0,
			"0.017": 0.0,
			"0.018": 0.0,
			"0.019": 0.0,
			"0.02": 0.0,
			"0.021": 0.0,
			"0.022": 0.0,
			"0.023": 0.0,
			"0.024": 0.0,
			"0.025": 0.0
		}
	}
}
