{
	 "smiles": "ClC1=CC=CC(Cl)=C1CC#N", 
	 "Tm": 349.15, 
	 "num_atms": 16, 
	 "gaussian": { 
		 "optdone": 1, 
		 "sigma_profile": "yes", 
		 "theory": "DFT", 
		 "functional": "B3LYP", 
		 "basiset": "6-31G**", 
		 "properties": { 
			 "R2extent": 3716.3593, 
			 "electric_dipole_moment_norm": 4.78253694497, 
			 "electric_quadrupole_moment_norm": 19.231996147, 
			 "total_energy": -1282.98008282, 
			 "HOMO_LUMO_gap": 0.22264, 
			 "cosmo_polarized_energy": -9.92, 
			 "cosmo_cavitation_energy": 24.68, 
			 "cosmo_dispersion_energy": -17.58, 
			 "cosmo_repulsion_energy": 1.41, 
			 "cosmo_total_nonelectrostatic_energy": 8.51, 
			 "SMD_solvation_energy": 5.12 
		},
		"coords": [
			{
				"x": 0.1685901644,
				"y": 2.6602948762,
				"z": 2.7269201566,
				"element": "Cl" 
			},
			{
				"x": 0.1121032635,
				"y": 1.7927332587,
				"z": 1.1991021249,
				"element": "C" 
			},
			{
				"x": 1.027280622,
				"y": 0.7588692678,
				"z": 1.0083354074,
				"element": "C" 
			},
			{
				"x": 1.0066200316,
				"y": 0.0432406841,
				"z": -0.1861042507,
				"element": "C" 
			},
			{
				"x": 0.0807485102,
				"y": 0.3566799883,
				"z": -1.1779476113,
				"element": "C" 
			},
			{
				"x": -0.8236195961,
				"y": 1.3951251735,
				"z": -0.9621820488,
				"element": "C" 
			},
			{
				"x": -1.9807793905,
				"y": 1.7470542273,
				"z": -2.2378126963,
				"element": "Cl" 
			},
			{
				"x": -0.8351143989,
				"y": 2.1486093407,
				"z": 0.2239539467,
				"element": "C" 
			},
			{
				"x": -1.8177622769,
				"y": 3.2864813824,
				"z": 0.440019201,
				"element": "C" 
			},
			{
				"x": -3.0708870419,
				"y": 2.841818591,
				"z": 1.0651636446,
				"element": "C" 
			},
			{
				"x": -4.060138821,
				"y": 2.4899984636,
				"z": 1.5588762486,
				"element": "N" 
			},
			{
				"x": 1.7397006463,
				"y": 0.5231394731,
				"z": 1.7901278605,
				"element": "H" 
			},
			{
				"x": 1.7143131914,
				"y": -0.7643502578,
				"z": -0.3439338804,
				"element": "H" 
			},
			{
				"x": 0.0509479739,
				"y": -0.1944277489,
				"z": -2.1105264793,
				"element": "H" 
			},
			{
				"x": -1.3698620114,
				"y": 4.0511277902,
				"z": 1.080428852,
				"element": "H" 
			},
			{
				"x": -2.0619408665,
				"y": 3.7566054899,
				"z": -0.5164204755,
				"element": "H" 
			}
		],
		 "valence_orbital": [ 
			{
				"type": "occ",
				"energy": -0.33132,
				"method": "rhf"
			},
			{
				"type": "occ",
				"energy": -0.32529,
				"method": "rhf"
			},
			{
				"type": "occ",
				"energy": -0.32349,
				"method": "rhf"
			},
			{
				"type": "occ",
				"energy": -0.27695,
				"method": "rhf"
			},
			{
				"type": "occ",
				"energy": -0.2651,
				"method": "rhf"
			},
			{
				"type": "unocc",
				"energy": -0.04246,
				"method": "rhf"
			},
			{
				"type": "unocc",
				"energy": -0.03839,
				"method": "rhf"
			},
			{
				"type": "unocc",
				"energy": -0.01091,
				"method": "rhf"
			},
			{
				"type": "unocc",
				"energy": 0.03706,
				"method": "rhf"
			},
			{
				"type": "unocc",
				"energy": 0.03798,
				"method": "rhf"
			}
		],
		"cosmo_sigma_profile": { 
			"-0.025": 0.0,
			"-0.024": 0.0,
			"-0.023": 0.0,
			"-0.022": 0.0,
			"-0.021": 0.0,
			"-0.02": 0.0,
			"-0.019": 0.0,
			"-0.018": 0.0,
			"-0.017": 0.0,
			"-0.016": 0.0,
			"-0.015": 0.0,
			"-0.014": 0.0,
			"-0.013": 0.0,
			"-0.012": 0.0,
			"-0.011": 0.0,
			"-0.01": 0.0,
			"-0.009": 2.08404315113,
			"-0.008": 7.66169574031,
			"-0.007": 11.8728724675,
			"-0.006": 11.8220156906,
			"-0.005": 8.50563487216,
			"-0.004": 7.68374787923,
			"-0.003": 9.58049538793,
			"-0.002": 10.96052756,
			"-0.001": 16.1842911549,
			"0.0": 23.1065667032,
			"0.001": 23.2108005204,
			"0.002": 20.2751159952,
			"0.003": 14.7720689372,
			"0.004": 11.7095741047,
			"0.005": 2.53390099655,
			"0.006": 3.12460630591,
			"0.007": 1.98312013193,
			"0.008": 3.70210808484,
			"0.009": 3.19539481079,
			"0.01": 3.47054780223,
			"0.011": 2.58147056402,
			"0.012": 2.47329620948,
			"0.013": 1.45250766427,
			"0.014": 0.0227866293298,
			"0.015": 0.0,
			"0.016": 0.0,
			"0.017": 0.0,
			"0.018": 0.0,
			"0.019": 0.0,
			"0.02": 0.0,
			"0.021": 0.0,
			"0.022": 0.0,
			"0.023": 0.0,
			"0.024": 0.0,
			"0.025": 0.0
		}
	}
}
