{
	 "smiles": "OC1=C(CC2=C(Cl)C(Cl)=CC(Cl)=C2O)C(Cl)=C(Cl)C=C1Cl", 
	 "Tm": 438.15, 
	 "num_atms": 27, 
	 "gaussian": { 
		 "optdone": 1, 
		 "sigma_profile": "yes", 
		 "theory": "DFT", 
		 "functional": "B3LYP", 
		 "basiset": "6-31G**", 
		 "properties": { 
			 "R2extent": 10606.9018, 
			 "electric_dipole_moment_norm": 1.88238718918, 
			 "electric_quadrupole_moment_norm": 11.6591465974, 
			 "total_energy": -3410.5869877, 
			 "HOMO_LUMO_gap": 0.19339, 
			 "cosmo_polarized_energy": -10.23, 
			 "cosmo_cavitation_energy": 41.05, 
			 "cosmo_dispersion_energy": -29.76, 
			 "cosmo_repulsion_energy": 2.27, 
			 "cosmo_total_nonelectrostatic_energy": 13.57, 
			 "SMD_solvation_energy": 5.82 
		},
		"coords": [
			{
				"x": -2.9876571793,
				"y": 2.6916421656,
				"z": -0.5033086836,
				"element": "O" 
			},
			{
				"x": -3.005042786,
				"y": 1.6535851741,
				"z": 0.3672318287,
				"element": "C" 
			},
			{
				"x": -2.3908828982,
				"y": 0.4451058655,
				"z": -0.0230373,
				"element": "C" 
			},
			{
				"x": -1.7623697452,
				"y": 0.3628952937,
				"z": -1.4088501712,
				"element": "C" 
			},
			{
				"x": -0.2854016116,
				"y": -0.002355307,
				"z": -1.4943720839,
				"element": "C" 
			},
			{
				"x": 0.7360851292,
				"y": 0.7671562248,
				"z": -0.9141627346,
				"element": "C" 
			},
			{
				"x": 0.3268425253,
				"y": 2.2248668528,
				"z": -0.0460973809,
				"element": "Cl" 
			},
			{
				"x": 2.0871052105,
				"y": 0.4039107945,
				"z": -1.0386893959,
				"element": "C" 
			},
			{
				"x": 3.3663854321,
				"y": 1.3428160415,
				"z": -0.308137333,
				"element": "Cl" 
			},
			{
				"x": 2.4378851615,
				"y": -0.7271954923,
				"z": -1.7687536895,
				"element": "C" 
			},
			{
				"x": 1.4392259377,
				"y": -1.475527572,
				"z": -2.3742518235,
				"element": "C" 
			},
			{
				"x": 1.8654089262,
				"y": -2.8992751183,
				"z": -3.3176997587,
				"element": "Cl" 
			},
			{
				"x": 0.0864846415,
				"y": -1.1299099209,
				"z": -2.2561108855,
				"element": "C" 
			},
			{
				"x": -0.8921708643,
				"y": -1.8472592759,
				"z": -2.8588906291,
				"element": "O" 
			},
			{
				"x": -2.4564217432,
				"y": -0.6433605454,
				"z": 0.8619362089,
				"element": "C" 
			},
			{
				"x": -1.7960801639,
				"y": -2.1849930598,
				"z": 0.3790166027,
				"element": "Cl" 
			},
			{
				"x": -3.0666441499,
				"y": -0.5270998096,
				"z": 2.1216334774,
				"element": "C" 
			},
			{
				"x": -3.140260096,
				"y": -1.8681265635,
				"z": 3.2387975804,
				"element": "Cl" 
			},
			{
				"x": -3.6431271436,
				"y": 0.6794215191,
				"z": 2.5055827112,
				"element": "C" 
			},
			{
				"x": -3.6137872678,
				"y": 1.7511146042,
				"z": 1.625492768,
				"element": "C" 
			},
			{
				"x": -4.3547572968,
				"y": 3.279955892,
				"z": 2.086351754,
				"element": "Cl" 
			},
			{
				"x": -3.4142637228,
				"y": 3.4578373274,
				"z": -0.0896456328,
				"element": "H" 
			},
			{
				"x": -2.3171260157,
				"y": -0.3724046344,
				"z": -1.9953715481,
				"element": "H" 
			},
			{
				"x": -1.9060509895,
				"y": 1.3312159022,
				"z": -1.8927276336,
				"element": "H" 
			},
			{
				"x": 3.4775273855,
				"y": -1.0123867703,
				"z": -1.8692317956,
				"element": "H" 
			},
			{
				"x": -0.4934047045,
				"y": -2.6040786179,
				"z": -3.3153771202,
				"element": "H" 
			},
			{
				"x": -4.1157019714,
				"y": 0.77554903,
				"z": 3.4749726685,
				"element": "H" 
			}
		],
		 "valence_orbital": [ 
			{
				"type": "occ",
				"energy": -0.31118,
				"method": "rhf"
			},
			{
				"type": "occ",
				"energy": -0.26055,
				"method": "rhf"
			},
			{
				"type": "occ",
				"energy": -0.25926,
				"method": "rhf"
			},
			{
				"type": "occ",
				"energy": -0.23937,
				"method": "rhf"
			},
			{
				"type": "occ",
				"energy": -0.23562,
				"method": "rhf"
			},
			{
				"type": "unocc",
				"energy": -0.04223,
				"method": "rhf"
			},
			{
				"type": "unocc",
				"energy": -0.03434,
				"method": "rhf"
			},
			{
				"type": "unocc",
				"energy": -0.02347,
				"method": "rhf"
			},
			{
				"type": "unocc",
				"energy": -0.01668,
				"method": "rhf"
			},
			{
				"type": "unocc",
				"energy": -0.01329,
				"method": "rhf"
			}
		],
		"cosmo_sigma_profile": { 
			"-0.025": 0.0,
			"-0.024": 0.0,
			"-0.023": 0.0,
			"-0.022": 0.0,
			"-0.021": 0.0,
			"-0.02": 0.0,
			"-0.019": 0.0,
			"-0.018": 0.0,
			"-0.017": 0.0,
			"-0.016": 0.347622111141,
			"-0.015": 1.3176324629,
			"-0.014": 1.16449875262,
			"-0.013": 1.56205560821,
			"-0.012": 1.72673522646,
			"-0.011": 1.32469108766,
			"-0.01": 2.46142370129,
			"-0.009": 3.99037716526,
			"-0.008": 4.77616738985,
			"-0.007": 5.52185638711,
			"-0.006": 5.7952276919,
			"-0.005": 8.49710809888,
			"-0.004": 10.1561243339,
			"-0.003": 18.3042415678,
			"-0.002": 22.0359865215,
			"-0.001": 32.1723371133,
			"0.0": 51.5632363688,
			"0.001": 44.4208954716,
			"0.002": 31.8474203466,
			"0.003": 38.2297984392,
			"0.004": 33.5435605061,
			"0.005": 12.0584416869,
			"0.006": 5.11209218943,
			"0.007": 4.03508142882,
			"0.008": 0.97032735277,
			"0.009": 0.0,
			"0.01": 0.0,
			"0.011": 0.0,
			"0.012": 0.0,
			"0.013": 0.0,
			"0.014": 0.0,
			"0.015": 0.0,
			"0.016": 0.0,
			"0.017": 0.0,
			"0.018": 0.0,
			"0.019": 0.0,
			"0.02": 0.0,
			"0.021": 0.0,
			"0.022": 0.0,
			"0.023": 0.0,
			"0.024": 0.0,
			"0.025": 0.0
		}
	}
}
