{
	 "smiles": "CCN1N=C(N)C=C1C1CC1", 
	 "Tm": 385.15, 
	 "num_atms": 24, 
	 "gaussian": { 
		 "optdone": 1, 
		 "sigma_profile": "yes", 
		 "theory": "DFT", 
		 "functional": "B3LYP", 
		 "basiset": "6-31G**", 
		 "properties": { 
			 "R2extent": 2250.2636, 
			 "electric_dipole_moment_norm": 2.22855761873, 
			 "electric_quadrupole_moment_norm": 12.7486177204, 
			 "total_energy": -476.898986941, 
			 "HOMO_LUMO_gap": 0.22108, 
			 "cosmo_polarized_energy": -10.89, 
			 "cosmo_cavitation_energy": 26.89, 
			 "cosmo_dispersion_energy": -19.09, 
			 "cosmo_repulsion_energy": 1.57, 
			 "cosmo_total_nonelectrostatic_energy": 9.37, 
			 "SMD_solvation_energy": 3.19 
		},
		"coords": [
			{
				"x": 0.9286547498,
				"y": 1.3393775545,
				"z": -1.9258770569,
				"element": "C" 
			},
			{
				"x": 1.0197332737,
				"y": 1.6533725262,
				"z": -0.4306819205,
				"element": "C" 
			},
			{
				"x": -0.2364645414,
				"y": 1.4316920805,
				"z": 0.2668608304,
				"element": "N" 
			},
			{
				"x": -1.2851135832,
				"y": 2.2632506116,
				"z": -0.0004493761,
				"element": "N" 
			},
			{
				"x": -2.2909825874,
				"y": 1.7851021791,
				"z": 0.7296565281,
				"element": "C" 
			},
			{
				"x": -3.5221720273,
				"y": 2.4478012324,
				"z": 0.7699696974,
				"element": "N" 
			},
			{
				"x": -1.9070549881,
				"y": 0.6338905155,
				"z": 1.4605143807,
				"element": "C" 
			},
			{
				"x": -0.5748610283,
				"y": 0.4311580614,
				"z": 1.1314631283,
				"element": "C" 
			},
			{
				"x": 0.3879223026,
				"y": -0.5986284474,
				"z": 1.5924288077,
				"element": "C" 
			},
			{
				"x": -0.110917889,
				"y": -1.9527207019,
				"z": 2.0339422608,
				"element": "C" 
			},
			{
				"x": 0.6727975336,
				"y": -1.8359459404,
				"z": 0.7543420991,
				"element": "C" 
			},
			{
				"x": 0.6956918713,
				"y": 0.2828029556,
				"z": -2.0905099058,
				"element": "H" 
			},
			{
				"x": 0.1426651916,
				"y": 1.942180486,
				"z": -2.3869946697,
				"element": "H" 
			},
			{
				"x": 1.8795808931,
				"y": 1.564555783,
				"z": -2.4199493158,
				"element": "H" 
			},
			{
				"x": 1.3029967331,
				"y": 2.7005908943,
				"z": -0.2812922754,
				"element": "H" 
			},
			{
				"x": 1.7771798022,
				"y": 1.0299889024,
				"z": 0.0506400742,
				"element": "H" 
			},
			{
				"x": -4.3142118493,
				"y": 1.8171173646,
				"z": 0.7692356752,
				"element": "H" 
			},
			{
				"x": -3.6014417121,
				"y": 3.1205507977,
				"z": 0.0161715701,
				"element": "H" 
			},
			{
				"x": -2.4977689068,
				"y": 0.0597485731,
				"z": 2.1585951132,
				"element": "H" 
			},
			{
				"x": 1.2405418187,
				"y": -0.2118901827,
				"z": 2.1494043764,
				"element": "H" 
			},
			{
				"x": 0.365437231,
				"y": -2.4119043567,
				"z": 2.894329596,
				"element": "H" 
			},
			{
				"x": -1.175849562,
				"y": -2.1457257517,
				"z": 1.9551815306,
				"element": "H" 
			},
			{
				"x": 0.1307178943,
				"y": -1.9419809859,
				"z": -0.1802026334,
				"element": "H" 
			},
			{
				"x": 1.6914193798,
				"y": -2.2115841513,
				"z": 0.7315214855,
				"element": "H" 
			}
		],
		 "valence_orbital": [ 
			{
				"type": "occ",
				"energy": -0.30577,
				"method": "rhf"
			},
			{
				"type": "occ",
				"energy": -0.29141,
				"method": "rhf"
			},
			{
				"type": "occ",
				"energy": -0.26709,
				"method": "rhf"
			},
			{
				"type": "occ",
				"energy": -0.2205,
				"method": "rhf"
			},
			{
				"type": "occ",
				"energy": -0.18959,
				"method": "rhf"
			},
			{
				"type": "unocc",
				"energy": 0.03149,
				"method": "rhf"
			},
			{
				"type": "unocc",
				"energy": 0.08682,
				"method": "rhf"
			},
			{
				"type": "unocc",
				"energy": 0.09325,
				"method": "rhf"
			},
			{
				"type": "unocc",
				"energy": 0.09943,
				"method": "rhf"
			},
			{
				"type": "unocc",
				"energy": 0.11287,
				"method": "rhf"
			}
		],
		"cosmo_sigma_profile": { 
			"-0.025": 0.0,
			"-0.024": 0.0,
			"-0.023": 0.0,
			"-0.022": 0.0,
			"-0.021": 0.0,
			"-0.02": 0.0,
			"-0.019": 0.0,
			"-0.018": 0.0,
			"-0.017": 0.0,
			"-0.016": 0.0,
			"-0.015": 0.0,
			"-0.014": 0.0,
			"-0.013": 0.0,
			"-0.012": 0.99399118763,
			"-0.011": 2.3336205079,
			"-0.01": 2.22321835878,
			"-0.009": 2.76713477694,
			"-0.008": 2.24286011622,
			"-0.007": 1.61691294306,
			"-0.006": 3.44721776534,
			"-0.005": 13.2826147295,
			"-0.004": 21.4037205841,
			"-0.003": 21.8007197007,
			"-0.002": 21.5131340126,
			"-0.001": 20.5646103154,
			"0.0": 20.7219826474,
			"0.001": 14.4868663501,
			"0.002": 8.44036418364,
			"0.003": 6.90472183715,
			"0.004": 6.8492599628,
			"0.005": 7.32772627173,
			"0.006": 6.37059500126,
			"0.007": 7.2842222669,
			"0.008": 3.04956351713,
			"0.009": 2.46721756928,
			"0.01": 2.38766397791,
			"0.011": 2.06325447992,
			"0.012": 2.13184807146,
			"0.013": 1.73047661056,
			"0.014": 1.51047948466,
			"0.015": 1.19982480281,
			"0.016": 1.56503981382,
			"0.017": 0.189943895452,
			"0.018": 0.0,
			"0.019": 0.0,
			"0.02": 0.0,
			"0.021": 0.0,
			"0.022": 0.0,
			"0.023": 0.0,
			"0.024": 0.0,
			"0.025": 0.0
		}
	}
}
