{
	 "smiles": "CC1(C)C2CCC1(C)C(=O)C(C(C1C(O)C3CCC(C)(C1=O)C3(C)C)C1=CC=CC=C1)C2O", 
	 "Tm": 422.15, 
	 "num_atms": 73, 
	 "gaussian": { 
		 "optdone": 1, 
		 "sigma_profile": "yes", 
		 "theory": "DFT", 
		 "functional": "B3LYP", 
		 "basiset": "6-31G**", 
		 "properties": { 
			 "R2extent": 13704.2128, 
			 "electric_dipole_moment_norm": 3.64894263041, 
			 "electric_quadrupole_moment_norm": 9.74735953733, 
			 "total_energy": -1430.08901259, 
			 "HOMO_LUMO_gap": 0.20979, 
			 "cosmo_polarized_energy": -17.91, 
			 "cosmo_cavitation_energy": 61.0, 
			 "cosmo_dispersion_energy": -39.51, 
			 "cosmo_repulsion_energy": 2.84, 
			 "cosmo_total_nonelectrostatic_energy": 24.34, 
			 "SMD_solvation_energy": 10.01 
		},
		"coords": [
			{
				"x": 3.1807722116,
				"y": 4.6896057342,
				"z": -1.8409595528,
				"element": "C" 
			},
			{
				"x": 2.6727822668,
				"y": 3.5941267734,
				"z": -0.878396142,
				"element": "C" 
			},
			{
				"x": 3.8915436173,
				"y": 3.0839580363,
				"z": -0.0874820245,
				"element": "C" 
			},
			{
				"x": 1.5049765427,
				"y": 4.1470747643,
				"z": -0.0133805929,
				"element": "C" 
			},
			{
				"x": 0.3399960461,
				"y": 4.285890526,
				"z": -1.0257089557,
				"element": "C" 
			},
			{
				"x": 0.560462711,
				"y": 3.1446483482,
				"z": -2.0539146015,
				"element": "C" 
			},
			{
				"x": 1.9020726185,
				"y": 2.4532280364,
				"z": -1.6481078205,
				"element": "C" 
			},
			{
				"x": 2.6381483469,
				"y": 1.8506295882,
				"z": -2.8463643333,
				"element": "C" 
			},
			{
				"x": 1.6033249875,
				"y": 1.3560471221,
				"z": -0.6151076724,
				"element": "C" 
			},
			{
				"x": 1.9701979873,
				"y": 0.206969319,
				"z": -0.8088737703,
				"element": "O" 
			},
			{
				"x": 0.880584926,
				"y": 1.7103992687,
				"z": 0.6954520934,
				"element": "C" 
			},
			{
				"x": -0.6376910894,
				"y": 1.3032786136,
				"z": 0.7124815443,
				"element": "C" 
			},
			{
				"x": -1.0410473386,
				"y": -0.1772020147,
				"z": 0.4023131236,
				"element": "C" 
			},
			{
				"x": -1.1326905298,
				"y": -0.5658932325,
				"z": -1.0929170297,
				"element": "C" 
			},
			{
				"x": -2.0700031117,
				"y": 0.3506418455,
				"z": -1.6779547977,
				"element": "O" 
			},
			{
				"x": -1.6018921268,
				"y": -2.0307493265,
				"z": -1.2532518392,
				"element": "C" 
			},
			{
				"x": -2.9171073115,
				"y": -2.2736392862,
				"z": -0.4739208705,
				"element": "C" 
			},
			{
				"x": -2.4594303174,
				"y": -2.7109102841,
				"z": 0.9487195139,
				"element": "C" 
			},
			{
				"x": -0.8968730897,
				"y": -2.7282035587,
				"z": 0.9166953012,
				"element": "C" 
			},
			{
				"x": -0.2869574827,
				"y": -3.7088060457,
				"z": 1.9187293565,
				"element": "C" 
			},
			{
				"x": -0.3749484493,
				"y": -1.2997970784,
				"z": 1.205731824,
				"element": "C" 
			},
			{
				"x": 0.4769804957,
				"y": -1.0935114617,
				"z": 2.0522097059,
				"element": "O" 
			},
			{
				"x": -0.6000611447,
				"y": -3.0313202004,
				"z": -0.6041623996,
				"element": "C" 
			},
			{
				"x": 0.8732599013,
				"y": -2.8341511526,
				"z": -1.0006643587,
				"element": "C" 
			},
			{
				"x": -0.9828732284,
				"y": -4.4778211862,
				"z": -0.9886703841,
				"element": "C" 
			},
			{
				"x": -1.3070547093,
				"y": 1.7309338683,
				"z": 2.025821839,
				"element": "C" 
			},
			{
				"x": -2.506583217,
				"y": 2.4574244511,
				"z": 1.9727818577,
				"element": "C" 
			},
			{
				"x": -3.1657584487,
				"y": 2.8557311843,
				"z": 3.1371851921,
				"element": "C" 
			},
			{
				"x": -2.6323012394,
				"y": 2.5376791436,
				"z": 4.3865376485,
				"element": "C" 
			},
			{
				"x": -1.4419806996,
				"y": 1.8118055197,
				"z": 4.4564119739,
				"element": "C" 
			},
			{
				"x": -0.786470964,
				"y": 1.4089328909,
				"z": 3.2906346236,
				"element": "C" 
			},
			{
				"x": 1.0747159692,
				"y": 3.2076248884,
				"z": 1.1252639969,
				"element": "C" 
			},
			{
				"x": 2.0311791809,
				"y": 3.3160222151,
				"z": 2.1808267543,
				"element": "O" 
			},
			{
				"x": 3.5435773135,
				"y": 5.5462671853,
				"z": -1.261990014,
				"element": "H" 
			},
			{
				"x": 2.4132197499,
				"y": 5.0560920896,
				"z": -2.5278492407,
				"element": "H" 
			},
			{
				"x": 4.0183195395,
				"y": 4.3256028753,
				"z": -2.44359105,
				"element": "H" 
			},
			{
				"x": 4.3572048417,
				"y": 3.9080148303,
				"z": 0.461966705,
				"element": "H" 
			},
			{
				"x": 4.641327299,
				"y": 2.6739323006,
				"z": -0.7731544313,
				"element": "H" 
			},
			{
				"x": 3.6434666738,
				"y": 2.3184707054,
				"z": 0.6480895734,
				"element": "H" 
			},
			{
				"x": 1.7653009854,
				"y": 5.1047319108,
				"z": 0.4504211094,
				"element": "H" 
			},
			{
				"x": 0.3732520287,
				"y": 5.2620911755,
				"z": -1.5171502746,
				"element": "H" 
			},
			{
				"x": -0.6352233028,
				"y": 4.2240646399,
				"z": -0.5325136293,
				"element": "H" 
			},
			{
				"x": -0.2724664818,
				"y": 2.4344721648,
				"z": -2.084994274,
				"element": "H" 
			},
			{
				"x": 0.6606450164,
				"y": 3.5412113042,
				"z": -3.0692516859,
				"element": "H" 
			},
			{
				"x": 3.5836925951,
				"y": 1.3897402358,
				"z": -2.550189521,
				"element": "H" 
			},
			{
				"x": 2.8406328924,
				"y": 2.6171041281,
				"z": -3.5993999516,
				"element": "H" 
			},
			{
				"x": 2.0367448211,
				"y": 1.0658372451,
				"z": -3.31413625,
				"element": "H" 
			},
			{
				"x": 1.3811372324,
				"y": 1.0858327368,
				"z": 1.4392655349,
				"element": "H" 
			},
			{
				"x": -1.1411696016,
				"y": 1.874334644,
				"z": -0.072559362,
				"element": "H" 
			},
			{
				"x": -2.0887666561,
				"y": -0.2117204247,
				"z": 0.7298144182,
				"element": "H" 
			},
			{
				"x": -0.1605411356,
				"y": -0.4469196089,
				"z": -1.5770196064,
				"element": "H" 
			},
			{
				"x": -2.0825763038,
				"y": 0.1891105872,
				"z": -2.630359291,
				"element": "H" 
			},
			{
				"x": -1.7154498826,
				"y": -2.2295568583,
				"z": -2.3280419352,
				"element": "H" 
			},
			{
				"x": -3.538756044,
				"y": -1.3743013341,
				"z": -0.4695526629,
				"element": "H" 
			},
			{
				"x": -3.5105933644,
				"y": -3.0590116898,
				"z": -0.9500236862,
				"element": "H" 
			},
			{
				"x": -2.8427450493,
				"y": -2.0547117888,
				"z": 1.7374545505,
				"element": "H" 
			},
			{
				"x": -2.8198360444,
				"y": -3.7158558445,
				"z": 1.1883115348,
				"element": "H" 
			},
			{
				"x": 0.8039413313,
				"y": -3.7186245046,
				"z": 1.8562558716,
				"element": "H" 
			},
			{
				"x": -0.659512064,
				"y": -4.7223429147,
				"z": 1.7468659612,
				"element": "H" 
			},
			{
				"x": -0.5444615132,
				"y": -3.4214319173,
				"z": 2.942271226,
				"element": "H" 
			},
			{
				"x": 0.9895198579,
				"y": -2.9268326627,
				"z": -2.0872059226,
				"element": "H" 
			},
			{
				"x": 1.2921351624,
				"y": -1.8731731619,
				"z": -0.702239087,
				"element": "H" 
			},
			{
				"x": 1.4909414376,
				"y": -3.6157460523,
				"z": -0.5452706625,
				"element": "H" 
			},
			{
				"x": -2.0008489794,
				"y": -4.7541855261,
				"z": -0.7037110991,
				"element": "H" 
			},
			{
				"x": -0.3009272518,
				"y": -5.197857026,
				"z": -0.5271219333,
				"element": "H" 
			},
			{
				"x": -0.8985605493,
				"y": -4.6015706099,
				"z": -2.0744247229,
				"element": "H" 
			},
			{
				"x": -2.9291423947,
				"y": 2.7131800458,
				"z": 1.0037990456,
				"element": "H" 
			},
			{
				"x": -4.0919789077,
				"y": 3.419334773,
				"z": 3.0658318843,
				"element": "H" 
			},
			{
				"x": -3.1388570796,
				"y": 2.8498062984,
				"z": 5.2952778061,
				"element": "H" 
			},
			{
				"x": -1.0218920648,
				"y": 1.549251778,
				"z": 5.4236640335,
				"element": "H" 
			},
			{
				"x": 0.1147505449,
				"y": 0.8097940123,
				"z": 3.3606133524,
				"element": "H" 
			},
			{
				"x": 0.1144843586,
				"y": 3.5901016774,
				"z": 1.4901706229,
				"element": "H" 
			},
			{
				"x": 1.6408376782,
				"y": 2.8965152712,
				"z": 2.9596178598,
				"element": "H" 
			}
		],
		 "valence_orbital": [ 
			{
				"type": "occ",
				"energy": -0.26499,
				"method": "rhf"
			},
			{
				"type": "occ",
				"energy": -0.25016,
				"method": "rhf"
			},
			{
				"type": "occ",
				"energy": -0.24378,
				"method": "rhf"
			},
			{
				"type": "occ",
				"energy": -0.23248,
				"method": "rhf"
			},
			{
				"type": "occ",
				"energy": -0.22833,
				"method": "rhf"
			},
			{
				"type": "unocc",
				"energy": -0.01854,
				"method": "rhf"
			},
			{
				"type": "unocc",
				"energy": -0.01208,
				"method": "rhf"
			},
			{
				"type": "unocc",
				"energy": -0.00351,
				"method": "rhf"
			},
			{
				"type": "unocc",
				"energy": 0.00121,
				"method": "rhf"
			},
			{
				"type": "unocc",
				"energy": 0.05867,
				"method": "rhf"
			}
		],
		"cosmo_sigma_profile": { 
			"-0.025": 0.0,
			"-0.024": 0.0,
			"-0.023": 0.0,
			"-0.022": 0.0,
			"-0.021": 0.0,
			"-0.02": 0.0,
			"-0.019": 0.0,
			"-0.018": 0.0,
			"-0.017": 0.0,
			"-0.016": 0.150333965019,
			"-0.015": 1.08908985732,
			"-0.014": 0.75965540615,
			"-0.013": 1.02281744504,
			"-0.012": 1.29026994187,
			"-0.011": 1.49414793731,
			"-0.01": 2.37663430031,
			"-0.009": 3.00922974991,
			"-0.008": 1.93153288203,
			"-0.007": 1.78648961952,
			"-0.006": 4.74040575932,
			"-0.005": 14.1491813252,
			"-0.004": 22.406101408,
			"-0.003": 53.0259510003,
			"-0.002": 74.1573062955,
			"-0.001": 61.8362602854,
			"0.0": 53.1430850133,
			"0.001": 52.0346841662,
			"0.002": 27.765608016,
			"0.003": 13.6938448389,
			"0.004": 14.9246488123,
			"0.005": 13.8196261375,
			"0.006": 12.6985029026,
			"0.007": 6.02725801463,
			"0.008": 5.4175491705,
			"0.009": 5.8443835289,
			"0.01": 7.53037692359,
			"0.011": 6.12676166628,
			"0.012": 3.97254028382,
			"0.013": 1.94955937106,
			"0.014": 0.614746931804,
			"0.015": 0.0258462286019,
			"0.016": 0.0,
			"0.017": 0.0,
			"0.018": 0.0,
			"0.019": 0.0,
			"0.02": 0.0,
			"0.021": 0.0,
			"0.022": 0.0,
			"0.023": 0.0,
			"0.024": 0.0,
			"0.025": 0.0
		}
	}
}
