{
	 "smiles": "OC(=O)C1=CC=C(I)C=C1", 
	 "Tm": 545.15, 
	 "num_atms": 15, 
	 "gaussian": { 
		 "optdone": 1, 
		 "sigma_profile": "no", 
		 "theory": "DFT", 
		 "functional": "B3LYP", 
		 "basiset": "6-31G**", 
		 "properties": { 
			 "R2extent": 2213.1769, 
			 "electric_dipole_moment_norm": 3.46983032438, 
			 "electric_quadrupole_moment_norm": 18.8186415806, 
			 "total_energy": -431.597192011, 
			 "HOMO_LUMO_gap": 0.19211, 
			 "cosmo_polarized_energy": -100089.57, 
			 "cosmo_cavitation_energy": 23.02, 
			 "cosmo_dispersion_energy": -18.54, 
			 "cosmo_repulsion_energy": 1.46, 
			 "cosmo_total_nonelectrostatic_energy": 5.95, 
			 "SMD_solvation_energy": 4.26 
		},
		"coords": [
			{
				"x": 2.0095302848,
				"y": 0.1434547308,
				"z": 2.7469750474,
				"element": "O" 
			},
			{
				"x": 0.6505236131,
				"y": 0.1441675097,
				"z": 2.6975291658,
				"element": "C" 
			},
			{
				"x": 0.0120380603,
				"y": -0.35173466,
				"z": 3.5951408466,
				"element": "O" 
			},
			{
				"x": 0.016734659,
				"y": 0.7801122149,
				"z": 1.4958190301,
				"element": "C" 
			},
			{
				"x": 0.6735643682,
				"y": 1.7152239179,
				"z": 0.6848201681,
				"element": "C" 
			},
			{
				"x": 0.0277393612,
				"y": 2.2861056299,
				"z": -0.4116448321,
				"element": "C" 
			},
			{
				"x": -1.2872697856,
				"y": 1.9130569613,
				"z": -0.6973236112,
				"element": "C" 
			},
			{
				"x": -2.2716537757,
				"y": 2.7632418937,
				"z": -2.36719715,
				"element": "I" 
			},
			{
				"x": -1.9643394829,
				"y": 0.9924388709,
				"z": 0.1085402611,
				"element": "C" 
			},
			{
				"x": -1.3107753619,
				"y": 0.4389345399,
				"z": 1.205911633,
				"element": "C" 
			},
			{
				"x": 2.3785536116,
				"y": 0.4108489551,
				"z": 1.8940448725,
				"element": "H" 
			},
			{
				"x": 1.683695895,
				"y": 2.0445543203,
				"z": 0.9162831197,
				"element": "H" 
			},
			{
				"x": 0.5415217825,
				"y": 3.0156955289,
				"z": -1.0269099906,
				"element": "H" 
			},
			{
				"x": -2.9878665754,
				"y": 0.7132942339,
				"z": -0.1140456447,
				"element": "H" 
			},
			{
				"x": -1.8177966544,
				"y": -0.2671946472,
				"z": 1.8547570843,
				"element": "H" 
			}
		],
		 "valence_orbital": [ 
			{
				"type": "occ",
				"energy": -0.31135,
				"method": "rhf"
			},
			{
				"type": "occ",
				"energy": -0.28632,
				"method": "rhf"
			},
			{
				"type": "occ",
				"energy": -0.28242,
				"method": "rhf"
			},
			{
				"type": "occ",
				"energy": -0.28001,
				"method": "rhf"
			},
			{
				"type": "occ",
				"energy": -0.25676,
				"method": "rhf"
			},
			{
				"type": "unocc",
				"energy": -0.06465,
				"method": "rhf"
			},
			{
				"type": "unocc",
				"energy": -0.0524,
				"method": "rhf"
			},
			{
				"type": "unocc",
				"energy": -0.03641,
				"method": "rhf"
			},
			{
				"type": "unocc",
				"energy": 0.02967,
				"method": "rhf"
			},
			{
				"type": "unocc",
				"energy": 0.03423,
				"method": "rhf"
			}
		],
		"cosmo_sigma_profile": { 
			"0.0": 0.0,
			"0.0": 0.0,
			"0.0": 0.0,
			"0.0": 0.0,
			"0.0": 0.0,
			"0.0": 0.0,
			"0.0": 0.0,
			"0.0": 0.0,
			"0.0": 0.0,
			"0.0": 0.0,
			"0.0": 0.0,
			"0.0": 0.0,
			"0.0": 0.0,
			"0.0": 0.0,
			"0.0": 0.0,
			"0.0": 0.0,
			"0.0": 0.0,
			"0.0": 0.0,
			"0.0": 0.0,
			"0.0": 0.0,
			"0.0": 0.0,
			"0.0": 0.0,
			"0.0": 0.0,
			"0.0": 0.0,
			"0.0": 0.0,
			"0.0": 0.0,
			"0.0": 0.0,
			"0.0": 0.0,
			"0.0": 0.0,
			"0.0": 0.0,
			"0.0": 0.0,
			"0.0": 0.0,
			"0.0": 0.0,
			"0.0": 0.0,
			"0.0": 0.0,
			"0.0": 0.0,
			"0.0": 0.0,
			"0.0": 0.0,
			"0.0": 0.0,
			"0.0": 0.0,
			"0.0": 0.0,
			"0.0": 0.0,
			"0.0": 0.0,
			"0.0": 0.0,
			"0.0": 0.0,
			"0.0": 0.0,
			"0.0": 0.0,
			"0.0": 0.0,
			"0.0": 0.0,
			"0.0": 0.0,
			"0.0": 0.0
		}
	}
}
