{
	 "smiles": "IC1=CC=C(C=C1)C(=O)NC1=NC=CN=C1", 
	 "Tm": 470.15, 
	 "num_atms": 24, 
	 "gaussian": { 
		 "optdone": 1, 
		 "sigma_profile": "yes", 
		 "theory": "DFT", 
		 "functional": "B3LYP", 
		 "basiset": "6-31G**", 
		 "properties": { 
			 "R2extent": 4606.1714, 
			 "electric_dipole_moment_norm": 2.08028771087, 
			 "electric_quadrupole_moment_norm": 5.26028046686, 
			 "total_energy": -674.852589018, 
			 "HOMO_LUMO_gap": 0.1766, 
			 "cosmo_polarized_energy": -14.06, 
			 "cosmo_cavitation_energy": 32.71, 
			 "cosmo_dispersion_energy": -24.77, 
			 "cosmo_repulsion_energy": 1.9, 
			 "cosmo_total_nonelectrostatic_energy": 9.85, 
			 "SMD_solvation_energy": 3.23 
		},
		"coords": [
			{
				"x": -4.8631351819,
				"y": 3.2363535337,
				"z": 0.7045487314,
				"element": "I" 
			},
			{
				"x": -3.2422255408,
				"y": 1.9255739608,
				"z": 0.3226645931,
				"element": "C" 
			},
			{
				"x": -2.4665852999,
				"y": 2.109300245,
				"z": -0.8248231996,
				"element": "C" 
			},
			{
				"x": -1.39284952,
				"y": 1.2546101785,
				"z": -1.064466939,
				"element": "C" 
			},
			{
				"x": -1.0993143228,
				"y": 0.2132245889,
				"z": -0.1756152223,
				"element": "C" 
			},
			{
				"x": -1.9077070475,
				"y": 0.0268563654,
				"z": 0.9522785449,
				"element": "C" 
			},
			{
				"x": -2.9705779788,
				"y": 0.8875875644,
				"z": 1.2168485718,
				"element": "C" 
			},
			{
				"x": -0.0368204975,
				"y": -0.8030233737,
				"z": -0.4331066108,
				"element": "C" 
			},
			{
				"x": -0.1660974987,
				"y": -1.9656867314,
				"z": -0.0776099671,
				"element": "O" 
			},
			{
				"x": 1.0938581989,
				"y": -0.4613378695,
				"z": -1.1899164518,
				"element": "N" 
			},
			{
				"x": 1.8433923572,
				"y": 0.7193716074,
				"z": -1.2319253902,
				"element": "C" 
			},
			{
				"x": 1.5503373072,
				"y": 1.7229886949,
				"z": -0.4046637601,
				"element": "N" 
			},
			{
				"x": 2.3182970182,
				"y": 2.8155583219,
				"z": -0.4976156519,
				"element": "C" 
			},
			{
				"x": 3.3845159594,
				"y": 2.9034929317,
				"z": -1.3884656472,
				"element": "C" 
			},
			{
				"x": 3.6885474402,
				"y": 1.8885359869,
				"z": -2.2129603821,
				"element": "N" 
			},
			{
				"x": 2.9208097914,
				"y": 0.8081521025,
				"z": -2.1405814337,
				"element": "C" 
			},
			{
				"x": -2.6946308305,
				"y": 2.9058469861,
				"z": -1.5237272788,
				"element": "H" 
			},
			{
				"x": -0.7960029314,
				"y": 1.3942130793,
				"z": -1.9590578826,
				"element": "H" 
			},
			{
				"x": -1.694676991,
				"y": -0.8025315217,
				"z": 1.6181253869,
				"element": "H" 
			},
			{
				"x": -3.5811482257,
				"y": 0.7449701581,
				"z": 2.1010513023,
				"element": "H" 
			},
			{
				"x": 1.594650398,
				"y": -1.298716622,
				"z": -1.4647391222,
				"element": "H" 
			},
			{
				"x": 2.0763141215,
				"y": 3.6381282025,
				"z": 0.1719628295,
				"element": "H" 
			},
			{
				"x": 4.0037771609,
				"y": 3.7946907537,
				"z": -1.4442882598,
				"element": "H" 
			},
			{
				"x": 3.1509721135,
				"y": -0.0180591435,
				"z": -2.8123167607,
				"element": "H" 
			}
		],
		 "valence_orbital": [ 
			{
				"type": "occ",
				"energy": -0.273,
				"method": "rhf"
			},
			{
				"type": "occ",
				"energy": -0.27194,
				"method": "rhf"
			},
			{
				"type": "occ",
				"energy": -0.2599,
				"method": "rhf"
			},
			{
				"type": "occ",
				"energy": -0.24929,
				"method": "rhf"
			},
			{
				"type": "occ",
				"energy": -0.24393,
				"method": "rhf"
			},
			{
				"type": "unocc",
				"energy": -0.06733,
				"method": "rhf"
			},
			{
				"type": "unocc",
				"energy": -0.05246,
				"method": "rhf"
			},
			{
				"type": "unocc",
				"energy": -0.04301,
				"method": "rhf"
			},
			{
				"type": "unocc",
				"energy": -0.02541,
				"method": "rhf"
			},
			{
				"type": "unocc",
				"energy": -0.01846,
				"method": "rhf"
			}
		],
		"cosmo_sigma_profile": { 
			"-0.025": 0.0,
			"-0.024": 0.0,
			"-0.023": 0.0,
			"-0.022": 0.0,
			"-0.021": 0.0,
			"-0.02": 0.0,
			"-0.019": 0.0,
			"-0.018": 0.0,
			"-0.017": 0.0,
			"-0.016": 0.37460725353,
			"-0.015": 1.08327012391,
			"-0.014": 1.21833294117,
			"-0.013": 1.18841919509,
			"-0.012": 1.64275037011,
			"-0.011": 1.09987072862,
			"-0.01": 0.890770447503,
			"-0.009": 1.46961456506,
			"-0.008": 3.89390409339,
			"-0.007": 14.3397065654,
			"-0.006": 15.6562468457,
			"-0.005": 14.6946731519,
			"-0.004": 13.4667527561,
			"-0.003": 15.0663319057,
			"-0.002": 18.6124332702,
			"-0.001": 19.0771229396,
			"0.0": 19.9777895658,
			"0.001": 23.4546545183,
			"0.002": 22.041290793,
			"0.003": 21.0297122344,
			"0.004": 18.8014933516,
			"0.005": 6.17944693101,
			"0.006": 4.4417265643,
			"0.007": 4.30789722491,
			"0.008": 2.98144802892,
			"0.009": 3.6380517709,
			"0.01": 3.82635867806,
			"0.011": 4.46793392063,
			"0.012": 6.53170518174,
			"0.013": 1.75382303975,
			"0.014": 0.918354857209,
			"0.015": 0.586914268386,
			"0.016": 0.0368560090087,
			"0.017": 0.0,
			"0.018": 0.0,
			"0.019": 0.0,
			"0.02": 0.0,
			"0.021": 0.0,
			"0.022": 0.0,
			"0.023": 0.0,
			"0.024": 0.0,
			"0.025": 0.0
		}
	}
}
