{
	 "smiles": "IC1=CNC2=C1C=NC=C2", 
	 "Tm": 445.15, 
	 "num_atms": 15, 
	 "gaussian": { 
		 "optdone": 1, 
		 "sigma_profile": "yes", 
		 "theory": "DFT", 
		 "functional": "B3LYP", 
		 "basiset": "6-31G**", 
		 "properties": { 
			 "R2extent": 1737.0133, 
			 "electric_dipole_moment_norm": 4.71083275122, 
			 "electric_quadrupole_moment_norm": 8.85123806312, 
			 "total_energy": -390.639168565, 
			 "HOMO_LUMO_gap": 0.18419, 
			 "cosmo_polarized_energy": -12.82, 
			 "cosmo_cavitation_energy": 22.41, 
			 "cosmo_dispersion_energy": -18.32, 
			 "cosmo_repulsion_energy": 1.44, 
			 "cosmo_total_nonelectrostatic_energy": 5.52, 
			 "SMD_solvation_energy": 1.54 
		},
		"coords": [
			{
				"x": -2.5594915479,
				"y": -1.9287627148,
				"z": -0.3809618769,
				"element": "I" 
			},
			{
				"x": -0.824598747,
				"y": -0.8720952769,
				"z": 0.0950657468,
				"element": "C" 
			},
			{
				"x": -0.7797424035,
				"y": 0.3582980119,
				"z": 0.6952421855,
				"element": "C" 
			},
			{
				"x": 0.5442158873,
				"y": 0.7362503405,
				"z": 0.8491298374,
				"element": "N" 
			},
			{
				"x": 1.3616316227,
				"y": -0.2497397879,
				"z": 0.3483681935,
				"element": "C" 
			},
			{
				"x": 0.5293005162,
				"y": -1.291661721,
				"z": -0.1413729643,
				"element": "C" 
			},
			{
				"x": 1.1541021681,
				"y": -2.4151482195,
				"z": -0.7048480342,
				"element": "C" 
			},
			{
				"x": 2.4764530073,
				"y": -2.5292016082,
				"z": -0.791325902,
				"element": "N" 
			},
			{
				"x": 3.2416893251,
				"y": -1.5207110936,
				"z": -0.316376404,
				"element": "C" 
			},
			{
				"x": 2.7529027547,
				"y": -0.3567099238,
				"z": 0.2637467621,
				"element": "C" 
			},
			{
				"x": -1.58405534,
				"y": 0.9977814318,
				"z": 1.0263449503,
				"element": "H" 
			},
			{
				"x": 0.8538144446,
				"y": 1.6004759199,
				"z": 1.2642140835,
				"element": "H" 
			},
			{
				"x": 0.5597234261,
				"y": -3.2401543305,
				"z": -1.0941543738,
				"element": "H" 
			},
			{
				"x": 4.3161468796,
				"y": -1.6624290148,
				"z": -0.4106116975,
				"element": "H" 
			},
			{
				"x": 3.4220080069,
				"y": 0.4174079868,
				"z": 0.6264394935,
				"element": "H" 
			}
		],
		 "valence_orbital": [ 
			{
				"type": "occ",
				"energy": -0.27217,
				"method": "rhf"
			},
			{
				"type": "occ",
				"energy": -0.26803,
				"method": "rhf"
			},
			{
				"type": "occ",
				"energy": -0.25596,
				"method": "rhf"
			},
			{
				"type": "occ",
				"energy": -0.24846,
				"method": "rhf"
			},
			{
				"type": "occ",
				"energy": -0.21735,
				"method": "rhf"
			},
			{
				"type": "unocc",
				"energy": -0.03316,
				"method": "rhf"
			},
			{
				"type": "unocc",
				"energy": -0.02918,
				"method": "rhf"
			},
			{
				"type": "unocc",
				"energy": 0.00268,
				"method": "rhf"
			},
			{
				"type": "unocc",
				"energy": 0.04146,
				"method": "rhf"
			},
			{
				"type": "unocc",
				"energy": 0.04347,
				"method": "rhf"
			}
		],
		"cosmo_sigma_profile": { 
			"-0.025": 0.0,
			"-0.024": 0.0,
			"-0.023": 0.0,
			"-0.022": 0.0,
			"-0.021": 0.0,
			"-0.02": 0.0,
			"-0.019": 0.0,
			"-0.018": 0.0,
			"-0.017": 0.689249496821,
			"-0.016": 1.58418977564,
			"-0.015": 1.82418625625,
			"-0.014": 1.12264103937,
			"-0.013": 1.67224818221,
			"-0.012": 1.01233854481,
			"-0.011": 1.42985719295,
			"-0.01": 1.95213718639,
			"-0.009": 3.77064887195,
			"-0.008": 3.48144222072,
			"-0.007": 5.30348408497,
			"-0.006": 6.27795863315,
			"-0.005": 8.56862582145,
			"-0.004": 8.19291992054,
			"-0.003": 7.68539894897,
			"-0.002": 9.36511610772,
			"-0.001": 8.05703251304,
			"0.0": 10.965636066,
			"0.001": 12.1034165009,
			"0.002": 21.4259761935,
			"0.003": 26.8489304446,
			"0.004": 21.3748316149,
			"0.005": 6.73030124816,
			"0.006": 2.28735284909,
			"0.007": 1.13236411024,
			"0.008": 1.17981035915,
			"0.009": 2.11494450432,
			"0.01": 1.34785573757,
			"0.011": 0.796556526587,
			"0.012": 0.772856188394,
			"0.013": 0.850830026796,
			"0.014": 1.13729089809,
			"0.015": 0.648558862852,
			"0.016": 1.00502906413,
			"0.017": 0.896010693954,
			"0.018": 0.250674371893,
			"0.019": 0.0,
			"0.02": 0.0,
			"0.021": 0.0,
			"0.022": 0.0,
			"0.023": 0.0,
			"0.024": 0.0,
			"0.025": 0.0
		}
	}
}
