{
	 "smiles": "COC1=C(F)C=CC=C1", 
	 "Tm": 234.15, 
	 "num_atms": 16, 
	 "gaussian": { 
		 "optdone": 1, 
		 "sigma_profile": "yes", 
		 "theory": "DFT", 
		 "functional": "B3LYP", 
		 "basiset": "6-31G**", 
		 "properties": { 
			 "R2extent": 1631.0971, 
			 "electric_dipole_moment_norm": 0.124351879761, 
			 "electric_quadrupole_moment_norm": 5.43207840334, 
			 "total_energy": -446.000894104, 
			 "HOMO_LUMO_gap": 0.21672, 
			 "cosmo_polarized_energy": -4.13, 
			 "cosmo_cavitation_energy": 19.97, 
			 "cosmo_dispersion_energy": -15.01, 
			 "cosmo_repulsion_energy": 1.21, 
			 "cosmo_total_nonelectrostatic_energy": 6.17, 
			 "SMD_solvation_energy": 4.73 
		},
		"coords": [
			{
				"x": 1.341894896,
				"y": 2.3053137953,
				"z": 3.1213804517,
				"element": "C" 
			},
			{
				"x": 0.3091656787,
				"y": 1.3234825993,
				"z": 3.0375757651,
				"element": "O" 
			},
			{
				"x": 0.0488185117,
				"y": 0.6634556738,
				"z": 1.8758021299,
				"element": "C" 
			},
			{
				"x": 0.7019757306,
				"y": 0.820242916,
				"z": 0.6436053383,
				"element": "C" 
			},
			{
				"x": 1.7207634403,
				"y": 1.710446749,
				"z": 0.5073347792,
				"element": "F" 
			},
			{
				"x": 0.3386934322,
				"y": 0.0800895961,
				"z": -0.4758010273,
				"element": "C" 
			},
			{
				"x": -0.6980885871,
				"y": -0.8470896341,
				"z": -0.3955455713,
				"element": "C" 
			},
			{
				"x": -1.3635679951,
				"y": -1.020848809,
				"z": 0.8206362098,
				"element": "C" 
			},
			{
				"x": -0.992905395,
				"y": -0.2757557985,
				"z": 1.9355474921,
				"element": "C" 
			},
			{
				"x": 2.3257383003,
				"y": 1.8790027802,
				"z": 2.9046198994,
				"element": "H" 
			},
			{
				"x": 1.1589645256,
				"y": 3.1455293517,
				"z": 2.4452582814,
				"element": "H" 
			},
			{
				"x": 1.316189763,
				"y": 2.6562567758,
				"z": 4.1545168445,
				"element": "H" 
			},
			{
				"x": 0.885779429,
				"y": 0.2512366155,
				"z": -1.3972399807,
				"element": "H" 
			},
			{
				"x": -0.9796669954,
				"y": -1.4234350012,
				"z": -1.2706643023,
				"element": "H" 
			},
			{
				"x": -2.1741596708,
				"y": -1.7383220583,
				"z": 0.9037707328,
				"element": "H" 
			},
			{
				"x": -1.496895064,
				"y": -0.3957055514,
				"z": 2.8891029572,
				"element": "H" 
			}
		],
		 "valence_orbital": [ 
			{
				"type": "occ",
				"energy": -0.36615,
				"method": "rhf"
			},
			{
				"type": "occ",
				"energy": -0.3233,
				"method": "rhf"
			},
			{
				"type": "occ",
				"energy": -0.32011,
				"method": "rhf"
			},
			{
				"type": "occ",
				"energy": -0.24686,
				"method": "rhf"
			},
			{
				"type": "occ",
				"energy": -0.2181,
				"method": "rhf"
			},
			{
				"type": "unocc",
				"energy": -0.00138,
				"method": "rhf"
			},
			{
				"type": "unocc",
				"energy": 0.01066,
				"method": "rhf"
			},
			{
				"type": "unocc",
				"energy": 0.07591,
				"method": "rhf"
			},
			{
				"type": "unocc",
				"energy": 0.11472,
				"method": "rhf"
			},
			{
				"type": "unocc",
				"energy": 0.13165,
				"method": "rhf"
			}
		],
		"cosmo_sigma_profile": { 
			"-0.025": 0.0,
			"-0.024": 0.0,
			"-0.023": 0.0,
			"-0.022": 0.0,
			"-0.021": 0.0,
			"-0.02": 0.0,
			"-0.019": 0.0,
			"-0.018": 0.0,
			"-0.017": 0.0,
			"-0.016": 0.0,
			"-0.015": 0.0,
			"-0.014": 0.0,
			"-0.013": 0.0,
			"-0.012": 0.0,
			"-0.011": 0.0,
			"-0.01": 0.0,
			"-0.009": 0.0,
			"-0.008": 0.0426737370058,
			"-0.007": 1.34612767762,
			"-0.006": 7.80168621122,
			"-0.005": 13.4275404142,
			"-0.004": 15.4220069786,
			"-0.003": 16.4463724236,
			"-0.002": 11.7530533725,
			"-0.001": 9.58922636303,
			"0.0": 9.17119845024,
			"0.001": 11.2471470809,
			"0.002": 12.417443178,
			"0.003": 14.4207423071,
			"0.004": 16.042822247,
			"0.005": 12.3111688647,
			"0.006": 2.62448173424,
			"0.007": 1.05778600979,
			"0.008": 1.79503552601,
			"0.009": 1.18399685748,
			"0.01": 1.44821710182,
			"0.011": 0.0,
			"0.012": 0.0,
			"0.013": 0.0,
			"0.014": 0.0,
			"0.015": 0.0,
			"0.016": 0.0,
			"0.017": 0.0,
			"0.018": 0.0,
			"0.019": 0.0,
			"0.02": 0.0,
			"0.021": 0.0,
			"0.022": 0.0,
			"0.023": 0.0,
			"0.024": 0.0,
			"0.025": 0.0
		}
	}
}
