{
	 "smiles": "CSC1=CC=C(OC2=C(C#N)C(F)=CC=C2)C=C1", 
	 "Tm": 342.65, 
	 "num_atms": 28, 
	 "gaussian": { 
		 "optdone": 1, 
		 "sigma_profile": "yes", 
		 "theory": "DFT", 
		 "functional": "B3LYP", 
		 "basiset": "6-31G**", 
		 "properties": { 
			 "R2extent": 6314.4561, 
			 "electric_dipole_moment_norm": 4.27100416647, 
			 "electric_quadrupole_moment_norm": 24.5203743089, 
			 "total_energy": -1167.4804592, 
			 "HOMO_LUMO_gap": 0.15992, 
			 "cosmo_polarized_energy": -12.78, 
			 "cosmo_cavitation_energy": 36.45, 
			 "cosmo_dispersion_energy": -24.84, 
			 "cosmo_repulsion_energy": 1.88, 
			 "cosmo_total_nonelectrostatic_energy": 13.49, 
			 "SMD_solvation_energy": 8.13 
		},
		"coords": [
			{
				"x": 0.7094805401,
				"y": 3.5363362171,
				"z": -3.4662585629,
				"element": "C" 
			},
			{
				"x": 1.9210240894,
				"y": 2.1741988464,
				"z": -3.6812573959,
				"element": "S" 
			},
			{
				"x": 1.1908454672,
				"y": 0.9090796861,
				"z": -2.6391040698,
				"element": "C" 
			},
			{
				"x": 1.5911943174,
				"y": 0.7704967236,
				"z": -1.3052857326,
				"element": "C" 
			},
			{
				"x": 1.0484228116,
				"y": -0.225704989,
				"z": -0.4919224381,
				"element": "C" 
			},
			{
				"x": 0.0897413743,
				"y": -1.0875267585,
				"z": -1.0250563724,
				"element": "C" 
			},
			{
				"x": -0.4839773024,
				"y": -2.1285267182,
				"z": -0.3083709827,
				"element": "O" 
			},
			{
				"x": -0.3773184769,
				"y": -2.1736512725,
				"z": 1.0582771016,
				"element": "C" 
			},
			{
				"x": -1.1706900532,
				"y": -1.3254198283,
				"z": 1.8624236228,
				"element": "C" 
			},
			{
				"x": -2.058534918,
				"y": -0.361548705,
				"z": 1.2949306014,
				"element": "C" 
			},
			{
				"x": -2.7865065572,
				"y": 0.4217998538,
				"z": 0.8387426996,
				"element": "N" 
			},
			{
				"x": -1.0847401056,
				"y": -1.4731631895,
				"z": 3.2552879951,
				"element": "C" 
			},
			{
				"x": -1.8360177187,
				"y": -0.6745042874,
				"z": 4.0251245882,
				"element": "F" 
			},
			{
				"x": -0.2605100985,
				"y": -2.41687857,
				"z": 3.8515260835,
				"element": "C" 
			},
			{
				"x": 0.5043689461,
				"y": -3.2467430457,
				"z": 3.0313474053,
				"element": "C" 
			},
			{
				"x": 0.452140671,
				"y": -3.1283790764,
				"z": 1.6410826971,
				"element": "C" 
			},
			{
				"x": -0.3176765977,
				"y": -0.9734616524,
				"z": -2.3556801705,
				"element": "C" 
			},
			{
				"x": 0.2376084498,
				"y": 0.0188998352,
				"z": -3.1569264795,
				"element": "C" 
			},
			{
				"x": -0.2813760894,
				"y": 3.2372897915,
				"z": -3.8142783944,
				"element": "H" 
			},
			{
				"x": 0.657165258,
				"y": 3.8517853039,
				"z": -2.4222038338,
				"element": "H" 
			},
			{
				"x": 1.0681104876,
				"y": 4.3689369141,
				"z": -4.0763726684,
				"element": "H" 
			},
			{
				"x": 2.3392004757,
				"y": 1.444382129,
				"z": -0.8999099777,
				"element": "H" 
			},
			{
				"x": 1.3727591809,
				"y": -0.3275495233,
				"z": 0.5377638184,
				"element": "H" 
			},
			{
				"x": -0.234385484,
				"y": -2.4908703785,
				"z": 4.9324204153,
				"element": "H" 
			},
			{
				"x": 1.1511502904,
				"y": -3.9929635349,
				"z": 3.4814946527,
				"element": "H" 
			},
			{
				"x": 1.0395290203,
				"y": -3.7703117715,
				"z": 0.9946703277,
				"element": "H" 
			},
			{
				"x": -1.0615769688,
				"y": -1.662683162,
				"z": -2.7405806732,
				"element": "H" 
			},
			{
				"x": -0.0693310094,
				"y": 0.1084811623,
				"z": -4.1940842571,
				"element": "H" 
			}
		],
		 "valence_orbital": [ 
			{
				"type": "occ",
				"energy": -0.2764,
				"method": "rhf"
			},
			{
				"type": "occ",
				"energy": -0.27288,
				"method": "rhf"
			},
			{
				"type": "occ",
				"energy": -0.26386,
				"method": "rhf"
			},
			{
				"type": "occ",
				"energy": -0.23733,
				"method": "rhf"
			},
			{
				"type": "occ",
				"energy": -0.2251,
				"method": "rhf"
			},
			{
				"type": "unocc",
				"energy": -0.06518,
				"method": "rhf"
			},
			{
				"type": "unocc",
				"energy": -0.0311,
				"method": "rhf"
			},
			{
				"type": "unocc",
				"energy": -0.01471,
				"method": "rhf"
			},
			{
				"type": "unocc",
				"energy": -0.01297,
				"method": "rhf"
			},
			{
				"type": "unocc",
				"energy": 0.02508,
				"method": "rhf"
			}
		],
		"cosmo_sigma_profile": { 
			"-0.025": 0.0,
			"-0.024": 0.0,
			"-0.023": 0.0,
			"-0.022": 0.0,
			"-0.021": 0.0,
			"-0.02": 0.0,
			"-0.019": 0.0,
			"-0.018": 0.0,
			"-0.017": 0.0,
			"-0.016": 0.0,
			"-0.015": 0.0,
			"-0.014": 0.0,
			"-0.013": 0.0,
			"-0.012": 0.0,
			"-0.011": 0.0,
			"-0.01": 0.0,
			"-0.009": 1.36557021484,
			"-0.008": 5.89646469111,
			"-0.007": 10.2176621118,
			"-0.006": 16.3847303044,
			"-0.005": 17.3664768065,
			"-0.004": 18.6151997989,
			"-0.003": 21.8542837004,
			"-0.002": 27.2338473177,
			"-0.001": 25.643969785,
			"0.0": 20.6804096141,
			"0.001": 22.8093459242,
			"0.002": 25.0973343395,
			"0.003": 26.3691811908,
			"0.004": 14.6494505246,
			"0.005": 7.64141624987,
			"0.006": 6.61205931852,
			"0.007": 6.92053760184,
			"0.008": 5.79291929233,
			"0.009": 5.26098060831,
			"0.01": 4.24852333332,
			"0.011": 2.80625143805,
			"0.012": 1.92452856164,
			"0.013": 0.551957347173,
			"0.014": 0.0,
			"0.015": 0.0,
			"0.016": 0.0,
			"0.017": 0.0,
			"0.018": 0.0,
			"0.019": 0.0,
			"0.02": 0.0,
			"0.021": 0.0,
			"0.022": 0.0,
			"0.023": 0.0,
			"0.024": 0.0,
			"0.025": 0.0
		}
	}
}
