{
	 "smiles": "IC1=CC=C(OCC2=CN=CC=C2)C=C1", 
	 "Tm": 346.15, 
	 "num_atms": 25, 
	 "gaussian": { 
		 "optdone": 1, 
		 "sigma_profile": "yes", 
		 "theory": "DFT", 
		 "functional": "B3LYP", 
		 "basiset": "6-31G**", 
		 "properties": { 
			 "R2extent": 4212.2937, 
			 "electric_dipole_moment_norm": 3.71088872778, 
			 "electric_quadrupole_moment_norm": 11.7182205368, 
			 "total_energy": -604.645683849, 
			 "HOMO_LUMO_gap": 0.1871, 
			 "cosmo_polarized_energy": -10.8, 
			 "cosmo_cavitation_energy": 32.62, 
			 "cosmo_dispersion_energy": -24.84, 
			 "cosmo_repulsion_energy": 1.92, 
			 "cosmo_total_nonelectrostatic_energy": 9.71, 
			 "SMD_solvation_energy": 3.35 
		},
		"coords": [
			{
				"x": -4.7639000664,
				"y": 1.3652141578,
				"z": 2.0056439087,
				"element": "I" 
			},
			{
				"x": -3.3587993728,
				"y": 0.1279648248,
				"z": 1.0089437933,
				"element": "C" 
			},
			{
				"x": -2.0626045185,
				"y": 0.0116769718,
				"z": 1.5045673331,
				"element": "C" 
			},
			{
				"x": -1.1325981975,
				"y": -0.8027776011,
				"z": 0.8509533763,
				"element": "C" 
			},
			{
				"x": -1.5095313864,
				"y": -1.5041351465,
				"z": -0.2992233885,
				"element": "C" 
			},
			{
				"x": -0.6929195753,
				"y": -2.3397131707,
				"z": -1.0126685878,
				"element": "O" 
			},
			{
				"x": 0.6049240573,
				"y": -2.6457630678,
				"z": -0.5102642092,
				"element": "C" 
			},
			{
				"x": 1.6345486686,
				"y": -1.5604487528,
				"z": -0.7525083715,
				"element": "C" 
			},
			{
				"x": 1.5621623875,
				"y": -0.7258455925,
				"z": -1.8754715377,
				"element": "C" 
			},
			{
				"x": 2.4671043727,
				"y": 0.2145727633,
				"z": -2.1680737232,
				"element": "N" 
			},
			{
				"x": 3.503934983,
				"y": 0.3551046661,
				"z": -1.3327562049,
				"element": "C" 
			},
			{
				"x": 3.6770192291,
				"y": -0.4201021272,
				"z": -0.1853559114,
				"element": "C" 
			},
			{
				"x": 2.7225177537,
				"y": -1.3920415991,
				"z": 0.1081317778,
				"element": "C" 
			},
			{
				"x": -2.8150188347,
				"y": -1.3767027278,
				"z": -0.7939371661,
				"element": "C" 
			},
			{
				"x": -3.738464027,
				"y": -0.5644601051,
				"z": -0.1454583024,
				"element": "C" 
			},
			{
				"x": -1.7611713186,
				"y": 0.5538687316,
				"z": 2.3938528429,
				"element": "H" 
			},
			{
				"x": -0.1228594634,
				"y": -0.8596823998,
				"z": 1.238145473,
				"element": "H" 
			},
			{
				"x": 0.5559099314,
				"y": -2.8995922908,
				"z": 0.5572219893,
				"element": "H" 
			},
			{
				"x": 0.8895883565,
				"y": -3.5563215765,
				"z": -1.0485586946,
				"element": "H" 
			},
			{
				"x": 0.7243836381,
				"y": -0.8215012444,
				"z": -2.5625684041,
				"element": "H" 
			},
			{
				"x": 4.2287852296,
				"y": 1.1246607275,
				"z": -1.5921445876,
				"element": "H" 
			},
			{
				"x": 4.5333052161,
				"y": -0.2607761256,
				"z": 0.4624946275,
				"element": "H" 
			},
			{
				"x": 2.8213854925,
				"y": -2.0117596256,
				"z": 0.9969982244,
				"element": "H" 
			},
			{
				"x": -3.0895695734,
				"y": -1.9276828486,
				"z": -1.6874271101,
				"element": "H" 
			},
			{
				"x": -4.7458329823,
				"y": -0.4762568408,
				"z": -0.5365371471,
				"element": "H" 
			}
		],
		 "valence_orbital": [ 
			{
				"type": "occ",
				"energy": -0.26812,
				"method": "rhf"
			},
			{
				"type": "occ",
				"energy": -0.26523,
				"method": "rhf"
			},
			{
				"type": "occ",
				"energy": -0.2623,
				"method": "rhf"
			},
			{
				"type": "occ",
				"energy": -0.25739,
				"method": "rhf"
			},
			{
				"type": "occ",
				"energy": -0.22232,
				"method": "rhf"
			},
			{
				"type": "unocc",
				"energy": -0.03522,
				"method": "rhf"
			},
			{
				"type": "unocc",
				"energy": -0.03425,
				"method": "rhf"
			},
			{
				"type": "unocc",
				"energy": -0.02225,
				"method": "rhf"
			},
			{
				"type": "unocc",
				"energy": -0.01426,
				"method": "rhf"
			},
			{
				"type": "unocc",
				"energy": -0.00588,
				"method": "rhf"
			}
		],
		"cosmo_sigma_profile": { 
			"-0.025": 0.0,
			"-0.024": 0.0,
			"-0.023": 0.0,
			"-0.022": 0.0,
			"-0.021": 0.0,
			"-0.02": 0.0,
			"-0.019": 0.0,
			"-0.018": 0.0,
			"-0.017": 0.0,
			"-0.016": 0.0,
			"-0.015": 0.0,
			"-0.014": 0.0,
			"-0.013": 0.0,
			"-0.012": 0.0,
			"-0.011": 0.0,
			"-0.01": 0.0,
			"-0.009": 0.00660406305045,
			"-0.008": 2.40918869374,
			"-0.007": 12.4170396238,
			"-0.006": 20.9703744083,
			"-0.005": 20.892092965,
			"-0.004": 17.7587353631,
			"-0.003": 15.6603717776,
			"-0.002": 13.9678192582,
			"-0.001": 14.6292662028,
			"0.0": 16.6872224962,
			"0.001": 19.9028507738,
			"0.002": 27.8154607229,
			"0.003": 26.0844215275,
			"0.004": 27.9151972208,
			"0.005": 13.4428184404,
			"0.006": 2.21018719463,
			"0.007": 2.14105288908,
			"0.008": 3.00723360306,
			"0.009": 2.17870362336,
			"0.01": 0.677473915203,
			"0.011": 1.06208976836,
			"0.012": 1.16878635993,
			"0.013": 0.937359641911,
			"0.014": 0.773354539415,
			"0.015": 1.02923175997,
			"0.016": 0.744835549056,
			"0.017": 0.441663970707,
			"0.018": 0.0,
			"0.019": 0.0,
			"0.02": 0.0,
			"0.021": 0.0,
			"0.022": 0.0,
			"0.023": 0.0,
			"0.024": 0.0,
			"0.025": 0.0
		}
	}
}
