{
	 "smiles": "CC(=O)CC(C1=CC=CC=C1)C1=C(O)OC2=C(C=CC=C2)C1=O", 
	 "Tm": 438.15, 
	 "num_atms": 39, 
	 "gaussian": { 
		 "optdone": 1, 
		 "sigma_profile": "yes", 
		 "theory": "DFT", 
		 "functional": "B3LYP", 
		 "basiset": "6-31G**", 
		 "properties": { 
			 "R2extent": 7481.8347, 
			 "electric_dipole_moment_norm": 4.22388105538, 
			 "electric_quadrupole_moment_norm": 15.8355553572, 
			 "total_energy": -1034.55188947, 
			 "HOMO_LUMO_gap": 0.17323, 
			 "cosmo_polarized_energy": -20.77, 
			 "cosmo_cavitation_energy": 42.25, 
			 "cosmo_dispersion_energy": -29.18, 
			 "cosmo_repulsion_energy": 2.23, 
			 "cosmo_total_nonelectrostatic_energy": 15.3, 
			 "SMD_solvation_energy": 8.77 
		},
		"coords": [
			{
				"x": 3.781838832,
				"y": 2.2316811545,
				"z": -0.2195687727,
				"element": "C" 
			},
			{
				"x": 2.6043330285,
				"y": 1.2707454921,
				"z": -0.1512242636,
				"element": "C" 
			},
			{
				"x": 2.6162574712,
				"y": 0.3163980001,
				"z": 0.6021222689,
				"element": "O" 
			},
			{
				"x": 1.4413671414,
				"y": 1.6030343683,
				"z": -1.0805070374,
				"element": "C" 
			},
			{
				"x": 0.3923719516,
				"y": 0.5039441491,
				"z": -1.3750935412,
				"element": "C" 
			},
			{
				"x": 1.0636155574,
				"y": -0.7231011225,
				"z": -2.0079059436,
				"element": "C" 
			},
			{
				"x": 1.5215599176,
				"y": -1.8091198679,
				"z": -1.2527180009,
				"element": "C" 
			},
			{
				"x": 2.1634944422,
				"y": -2.8839058982,
				"z": -1.8697402412,
				"element": "C" 
			},
			{
				"x": 2.365034551,
				"y": -2.889168766,
				"z": -3.2508009307,
				"element": "C" 
			},
			{
				"x": 1.9133314204,
				"y": -1.8108649735,
				"z": -4.0133074841,
				"element": "C" 
			},
			{
				"x": 1.2654292863,
				"y": -0.7420616531,
				"z": -3.3940232523,
				"element": "C" 
			},
			{
				"x": -0.5942781536,
				"y": 0.1344172386,
				"z": -0.2749521177,
				"element": "C" 
			},
			{
				"x": -0.6117371437,
				"y": 0.5973415691,
				"z": 1.0042165938,
				"element": "C" 
			},
			{
				"x": 0.2047350516,
				"y": 1.5403056743,
				"z": 1.4963064264,
				"element": "O" 
			},
			{
				"x": -1.4912705009,
				"y": 0.2109800293,
				"z": 1.9663595792,
				"element": "O" 
			},
			{
				"x": -2.469469629,
				"y": -0.7134820773,
				"z": 1.6731665645,
				"element": "C" 
			},
			{
				"x": -2.6252429557,
				"y": -1.1850029016,
				"z": 0.3702980329,
				"element": "C" 
			},
			{
				"x": -3.6565357596,
				"y": -2.1011464237,
				"z": 0.1114613984,
				"element": "C" 
			},
			{
				"x": -4.4907612487,
				"y": -2.5270531301,
				"z": 1.1359574219,
				"element": "C" 
			},
			{
				"x": -4.3082191687,
				"y": -2.0377231523,
				"z": 2.4395569853,
				"element": "C" 
			},
			{
				"x": -3.2967299462,
				"y": -1.125283559,
				"z": 2.7191447411,
				"element": "C" 
			},
			{
				"x": -1.7107477838,
				"y": -0.7228499329,
				"z": -0.7015640762,
				"element": "C" 
			},
			{
				"x": -1.8861461498,
				"y": -1.0466166846,
				"z": -1.8764806293,
				"element": "O" 
			},
			{
				"x": 3.4497340504,
				"y": 3.275470311,
				"z": -0.1966410159,
				"element": "H" 
			},
			{
				"x": 4.4651699869,
				"y": 2.0368573075,
				"z": 0.6082933504,
				"element": "H" 
			},
			{
				"x": 4.3174843249,
				"y": 2.0862908422,
				"z": -1.1657091681,
				"element": "H" 
			},
			{
				"x": 1.870047871,
				"y": 1.9155309167,
				"z": -2.0414984092,
				"element": "H" 
			},
			{
				"x": 0.9582957218,
				"y": 2.4998506909,
				"z": -0.6713406144,
				"element": "H" 
			},
			{
				"x": -0.239263197,
				"y": 0.9214230573,
				"z": -2.1698480717,
				"element": "H" 
			},
			{
				"x": 1.38684679,
				"y": -1.8033837495,
				"z": -0.1773984152,
				"element": "H" 
			},
			{
				"x": 2.5102647623,
				"y": -3.7185874998,
				"z": -1.2664038037,
				"element": "H" 
			},
			{
				"x": 2.8644756774,
				"y": -3.727263779,
				"z": -3.7289161863,
				"element": "H" 
			},
			{
				"x": 2.0530923136,
				"y": -1.8064601944,
				"z": -5.0909466592,
				"element": "H" 
			},
			{
				"x": 0.8956437337,
				"y": 0.0835473862,
				"z": -3.9983635437,
				"element": "H" 
			},
			{
				"x": 0.1522571871,
				"y": 1.5170577671,
				"z": 2.4633595655,
				"element": "H" 
			},
			{
				"x": -3.7662823047,
				"y": -2.4552005317,
				"z": -0.9082998192,
				"element": "H" 
			},
			{
				"x": -5.284916694,
				"y": -3.2386650024,
				"z": 0.9326313463,
				"element": "H" 
			},
			{
				"x": -4.9616081743,
				"y": -2.3706025306,
				"z": 3.2404652086,
				"element": "H" 
			},
			{
				"x": -3.1398722609,
				"y": -0.7293325241,
				"z": 3.7168125142,
				"element": "H" 
			}
		],
		 "valence_orbital": [ 
			{
				"type": "occ",
				"energy": -0.24376,
				"method": "rhf"
			},
			{
				"type": "occ",
				"energy": -0.24082,
				"method": "rhf"
			},
			{
				"type": "occ",
				"energy": -0.23213,
				"method": "rhf"
			},
			{
				"type": "occ",
				"energy": -0.22814,
				"method": "rhf"
			},
			{
				"type": "occ",
				"energy": -0.21891,
				"method": "rhf"
			},
			{
				"type": "unocc",
				"energy": -0.04568,
				"method": "rhf"
			},
			{
				"type": "unocc",
				"energy": -0.01386,
				"method": "rhf"
			},
			{
				"type": "unocc",
				"energy": -0.0071,
				"method": "rhf"
			},
			{
				"type": "unocc",
				"energy": 0.00689,
				"method": "rhf"
			},
			{
				"type": "unocc",
				"energy": 0.01724,
				"method": "rhf"
			}
		],
		"cosmo_sigma_profile": { 
			"-0.025": 0.0,
			"-0.024": 0.0,
			"-0.023": 0.0,
			"-0.022": 0.0,
			"-0.021": 0.0,
			"-0.02": 0.180014072104,
			"-0.019": 0.932363231563,
			"-0.018": 0.404947898671,
			"-0.017": 1.22337672547,
			"-0.016": 1.20787254608,
			"-0.015": 0.236806324606,
			"-0.014": 0.324274131913,
			"-0.013": 0.566601004376,
			"-0.012": 0.80313510731,
			"-0.011": 1.13877572915,
			"-0.01": 0.680915269093,
			"-0.009": 0.526122674349,
			"-0.008": 1.24957203677,
			"-0.007": 5.35494303316,
			"-0.006": 14.5937228822,
			"-0.005": 28.3183272256,
			"-0.004": 29.9349225187,
			"-0.003": 31.7216754622,
			"-0.002": 26.4926681017,
			"-0.001": 27.2867698083,
			"0.0": 24.6255845447,
			"0.001": 21.8590995858,
			"0.002": 21.5376032584,
			"0.003": 21.2352306218,
			"0.004": 14.330722695,
			"0.005": 9.96520357781,
			"0.006": 11.0100951834,
			"0.007": 8.13822919385,
			"0.008": 5.12390382618,
			"0.009": 3.81545088734,
			"0.01": 4.20651019405,
			"0.011": 3.7993600305,
			"0.012": 4.9354729647,
			"0.013": 6.24942805209,
			"0.014": 2.40934538813,
			"0.015": 0.0,
			"0.016": 0.0,
			"0.017": 0.0,
			"0.018": 0.0,
			"0.019": 0.0,
			"0.02": 0.0,
			"0.021": 0.0,
			"0.022": 0.0,
			"0.023": 0.0,
			"0.024": 0.0,
			"0.025": 0.0
		}
	}
}
