{
	 "smiles": "CC1(C)C(CCC1(C)C(O)=O)C=CC1=CC=CC=C1", 
	 "Tm": 397.15, 
	 "num_atms": 41, 
	 "gaussian": { 
		 "optdone": 1, 
		 "sigma_profile": "yes", 
		 "theory": "DFT", 
		 "functional": "B3LYP", 
		 "basiset": "6-31G**", 
		 "properties": { 
			 "R2extent": 8225.2375, 
			 "electric_dipole_moment_norm": 1.34346171512, 
			 "electric_quadrupole_moment_norm": 10.4752078471, 
			 "total_energy": -811.533139198, 
			 "HOMO_LUMO_gap": 0.18401, 
			 "cosmo_polarized_energy": -10.83, 
			 "cosmo_cavitation_energy": 40.81, 
			 "cosmo_dispersion_energy": -28.26, 
			 "cosmo_repulsion_energy": 2.15, 
			 "cosmo_total_nonelectrostatic_energy": 14.7, 
			 "SMD_solvation_energy": 7.56 
		},
		"coords": [
			{
				"x": -1.9296825685,
				"y": 2.0327642205,
				"z": 0.9650733574,
				"element": "C" 
			},
			{
				"x": -1.5750895913,
				"y": 0.911357897,
				"z": 1.9509778534,
				"element": "C" 
			},
			{
				"x": -2.410107498,
				"y": -0.3378742721,
				"z": 1.5931688821,
				"element": "C" 
			},
			{
				"x": -0.0382537711,
				"y": 0.5915684631,
				"z": 1.9173495924,
				"element": "C" 
			},
			{
				"x": 0.2227454254,
				"y": -0.1901373168,
				"z": 3.2274849884,
				"element": "C" 
			},
			{
				"x": -0.8498336517,
				"y": 0.2866849554,
				"z": 4.2384908825,
				"element": "C" 
			},
			{
				"x": -1.7733888019,
				"y": 1.2869497847,
				"z": 3.4852012524,
				"element": "C" 
			},
			{
				"x": -1.3598180833,
				"y": 2.7424577793,
				"z": 3.807481338,
				"element": "C" 
			},
			{
				"x": -3.2277498765,
				"y": 1.0973496072,
				"z": 3.9123894065,
				"element": "C" 
			},
			{
				"x": -4.0496576295,
				"y": 2.0494140809,
				"z": 3.3938997326,
				"element": "O" 
			},
			{
				"x": -3.6634508607,
				"y": 0.2150376936,
				"z": 4.6213219496,
				"element": "O" 
			},
			{
				"x": 0.4563191677,
				"y": -0.1123161048,
				"z": 0.6874848693,
				"element": "C" 
			},
			{
				"x": 1.2615215734,
				"y": 0.4419833003,
				"z": -0.2333839296,
				"element": "C" 
			},
			{
				"x": 1.7977443398,
				"y": -0.1798126865,
				"z": -1.4540024418,
				"element": "C" 
			},
			{
				"x": 1.5008265784,
				"y": -1.4986888354,
				"z": -1.8482437895,
				"element": "C" 
			},
			{
				"x": 2.0394436011,
				"y": -2.0354592988,
				"z": -3.0138103842,
				"element": "C" 
			},
			{
				"x": 2.8886180091,
				"y": -1.2711300492,
				"z": -3.8201886258,
				"element": "C" 
			},
			{
				"x": 3.1926150226,
				"y": 0.0379959807,
				"z": -3.4460613763,
				"element": "C" 
			},
			{
				"x": 2.652752136,
				"y": 0.5740533589,
				"z": -2.2777271868,
				"element": "C" 
			},
			{
				"x": -2.9842342963,
				"y": 2.3118536935,
				"z": 1.0431313618,
				"element": "H" 
			},
			{
				"x": -1.327353501,
				"y": 2.9309735854,
				"z": 1.1295468429,
				"element": "H" 
			},
			{
				"x": -1.7394317142,
				"y": 1.6965919907,
				"z": -0.0593991489,
				"element": "H" 
			},
			{
				"x": -2.1937013154,
				"y": -0.6602039482,
				"z": 0.5706354734,
				"element": "H" 
			},
			{
				"x": -2.2201577461,
				"y": -1.1814189938,
				"z": 2.2632757173,
				"element": "H" 
			},
			{
				"x": -3.4807161578,
				"y": -0.115184795,
				"z": 1.6394771662,
				"element": "H" 
			},
			{
				"x": 0.4820453009,
				"y": 1.5559957383,
				"z": 1.9761474006,
				"element": "H" 
			},
			{
				"x": 0.1289539368,
				"y": -1.2668476844,
				"z": 3.046696274,
				"element": "H" 
			},
			{
				"x": 1.2436851662,
				"y": -0.0269983289,
				"z": 3.585086998,
				"element": "H" 
			},
			{
				"x": -0.4016306491,
				"y": 0.7716503521,
				"z": 5.1111258617,
				"element": "H" 
			},
			{
				"x": -1.4409603803,
				"y": -0.5486190595,
				"z": 4.6174156629,
				"element": "H" 
			},
			{
				"x": -1.9844789861,
				"y": 3.4742214675,
				"z": 3.2936313448,
				"element": "H" 
			},
			{
				"x": -0.3160864728,
				"y": 2.9205901593,
				"z": 3.5332854031,
				"element": "H" 
			},
			{
				"x": -1.4474148923,
				"y": 2.9225730635,
				"z": 4.884251405,
				"element": "H" 
			},
			{
				"x": -4.9405046233,
				"y": 1.8285714154,
				"z": 3.7144035772,
				"element": "H" 
			},
			{
				"x": 0.1381272106,
				"y": -1.1477978583,
				"z": 0.570970119,
				"element": "H" 
			},
			{
				"x": 1.5745998417,
				"y": 1.4751044536,
				"z": -0.0770919121,
				"element": "H" 
			},
			{
				"x": 0.8421535137,
				"y": -2.1103590866,
				"z": -1.2392341403,
				"element": "H" 
			},
			{
				"x": 1.7956945215,
				"y": -3.0557766269,
				"z": -3.296880861,
				"element": "H" 
			},
			{
				"x": 3.3065391785,
				"y": -1.6933610081,
				"z": -4.7294007956,
				"element": "H" 
			},
			{
				"x": 3.8505253346,
				"y": 0.6434036485,
				"z": -4.0633029261,
				"element": "H" 
			},
			{
				"x": 2.8944932089,
				"y": 1.5950392639,
				"z": -1.9922771947,
				"element": "H" 
			}
		],
		 "valence_orbital": [ 
			{
				"type": "occ",
				"energy": -0.30679,
				"method": "rhf"
			},
			{
				"type": "occ",
				"energy": -0.28753,
				"method": "rhf"
			},
			{
				"type": "occ",
				"energy": -0.26692,
				"method": "rhf"
			},
			{
				"type": "occ",
				"energy": -0.24901,
				"method": "rhf"
			},
			{
				"type": "occ",
				"energy": -0.21528,
				"method": "rhf"
			},
			{
				"type": "unocc",
				"energy": -0.03127,
				"method": "rhf"
			},
			{
				"type": "unocc",
				"energy": 0.00174,
				"method": "rhf"
			},
			{
				"type": "unocc",
				"energy": 0.01047,
				"method": "rhf"
			},
			{
				"type": "unocc",
				"energy": 0.05912,
				"method": "rhf"
			},
			{
				"type": "unocc",
				"energy": 0.06914,
				"method": "rhf"
			}
		],
		"cosmo_sigma_profile": { 
			"-0.025": 0.0,
			"-0.024": 0.0,
			"-0.023": 0.0,
			"-0.022": 0.0,
			"-0.021": 0.0,
			"-0.02": 0.0,
			"-0.019": 0.0,
			"-0.018": 0.401995370216,
			"-0.017": 0.86069524379,
			"-0.016": 0.972210754791,
			"-0.015": 0.480869646917,
			"-0.014": 0.740073781204,
			"-0.013": 0.680916581065,
			"-0.012": 0.632560008469,
			"-0.011": 0.96927271566,
			"-0.01": 0.748212329715,
			"-0.009": 0.487677338992,
			"-0.008": 0.46588456382,
			"-0.007": 1.38192797386,
			"-0.006": 5.59393101317,
			"-0.005": 14.6614708725,
			"-0.004": 21.5082867817,
			"-0.003": 36.0888105729,
			"-0.002": 34.7658392514,
			"-0.001": 36.6085834961,
			"0.0": 28.6428455596,
			"0.001": 33.6458072527,
			"0.002": 19.7199156125,
			"0.003": 15.9740183269,
			"0.004": 16.2484619203,
			"0.005": 16.0483316385,
			"0.006": 13.1666992763,
			"0.007": 3.70841223495,
			"0.008": 2.50218524752,
			"0.009": 1.35592197186,
			"0.01": 1.96496450165,
			"0.011": 3.05772206599,
			"0.012": 4.60200364545,
			"0.013": 0.334373915665,
			"0.014": 0.0,
			"0.015": 0.0,
			"0.016": 0.0,
			"0.017": 0.0,
			"0.018": 0.0,
			"0.019": 0.0,
			"0.02": 0.0,
			"0.021": 0.0,
			"0.022": 0.0,
			"0.023": 0.0,
			"0.024": 0.0,
			"0.025": 0.0
		}
	}
}
