{
	 "smiles": "O=S1(=O)C=CC2=C1C=CC=C2", 
	 "Tm": 413.15, 
	 "num_atms": 17, 
	 "gaussian": { 
		 "optdone": 1, 
		 "sigma_profile": "yes", 
		 "theory": "DFT", 
		 "functional": "B3LYP", 
		 "basiset": "6-31G**", 
		 "properties": { 
			 "R2extent": 1918.0008, 
			 "electric_dipole_moment_norm": 5.46331093111, 
			 "electric_quadrupole_moment_norm": 14.6439152439, 
			 "total_energy": -857.005281381, 
			 "HOMO_LUMO_gap": 0.17695, 
			 "cosmo_polarized_energy": -15.05, 
			 "cosmo_cavitation_energy": 22.62, 
			 "cosmo_dispersion_energy": -17.45, 
			 "cosmo_repulsion_energy": 1.34, 
			 "cosmo_total_nonelectrostatic_energy": 6.5, 
			 "SMD_solvation_energy": 3.32 
		},
		"coords": [
			{
				"x": -1.6737501307,
				"y": -1.7826387475,
				"z": -1.7366674432,
				"element": "O" 
			},
			{
				"x": -1.1579220995,
				"y": -1.0892905208,
				"z": -0.5472043333,
				"element": "S" 
			},
			{
				"x": -0.828790585,
				"y": -1.869940688,
				"z": 0.6544135378,
				"element": "O" 
			},
			{
				"x": -2.2165471921,
				"y": 0.2985519436,
				"z": -0.1224446025,
				"element": "C" 
			},
			{
				"x": -1.5823743001,
				"y": 1.4630597921,
				"z": -0.3039694287,
				"element": "C" 
			},
			{
				"x": -0.1973057982,
				"y": 1.3432509209,
				"z": -0.7977008216,
				"element": "C" 
			},
			{
				"x": 0.2001949335,
				"y": 0.0122598679,
				"z": -0.9868419466,
				"element": "C" 
			},
			{
				"x": 1.4581620677,
				"y": -0.3361839528,
				"z": -1.4438983547,
				"element": "C" 
			},
			{
				"x": 2.3598552702,
				"y": 0.7010333727,
				"z": -1.7244033982,
				"element": "C" 
			},
			{
				"x": 1.9854476001,
				"y": 2.0342987251,
				"z": -1.5433503809,
				"element": "C" 
			},
			{
				"x": 0.7066308376,
				"y": 2.3662927046,
				"z": -1.0795268366,
				"element": "C" 
			},
			{
				"x": -3.2230579522,
				"y": 0.1111774849,
				"z": 0.2263237747,
				"element": "H" 
			},
			{
				"x": -2.0328989024,
				"y": 2.4313973439,
				"z": -0.1094063646,
				"element": "H" 
			},
			{
				"x": 1.7386549781,
				"y": -1.3755736783,
				"z": -1.5809869897,
				"element": "H" 
			},
			{
				"x": 3.3557006991,
				"y": 0.462885382,
				"z": -2.0848213434,
				"element": "H" 
			},
			{
				"x": 2.6952756818,
				"y": 2.8254220303,
				"z": -1.7650599142,
				"element": "H" 
			},
			{
				"x": 0.422124892,
				"y": 3.4054980192,
				"z": -0.9409551541,
				"element": "H" 
			}
		],
		 "valence_orbital": [ 
			{
				"type": "occ",
				"energy": -0.32159,
				"method": "rhf"
			},
			{
				"type": "occ",
				"energy": -0.30126,
				"method": "rhf"
			},
			{
				"type": "occ",
				"energy": -0.29248,
				"method": "rhf"
			},
			{
				"type": "occ",
				"energy": -0.27449,
				"method": "rhf"
			},
			{
				"type": "occ",
				"energy": -0.25442,
				"method": "rhf"
			},
			{
				"type": "unocc",
				"energy": -0.07747,
				"method": "rhf"
			},
			{
				"type": "unocc",
				"energy": -0.03606,
				"method": "rhf"
			},
			{
				"type": "unocc",
				"energy": 0.01824,
				"method": "rhf"
			},
			{
				"type": "unocc",
				"energy": 0.05489,
				"method": "rhf"
			},
			{
				"type": "unocc",
				"energy": 0.06134,
				"method": "rhf"
			}
		],
		"cosmo_sigma_profile": { 
			"-0.025": 0.0,
			"-0.024": 0.0,
			"-0.023": 0.0,
			"-0.022": 0.0,
			"-0.021": 0.0,
			"-0.02": 0.0,
			"-0.019": 0.0,
			"-0.018": 0.0,
			"-0.017": 0.0,
			"-0.016": 0.0,
			"-0.015": 0.0,
			"-0.014": 0.0,
			"-0.013": 0.0,
			"-0.012": 0.0,
			"-0.011": 1.00743343467,
			"-0.01": 2.66622247162,
			"-0.009": 5.67290367384,
			"-0.008": 8.12430142414,
			"-0.007": 12.9111241306,
			"-0.006": 12.4147960755,
			"-0.005": 10.6644536884,
			"-0.004": 9.03923220384,
			"-0.003": 7.87211944213,
			"-0.002": 9.30160035686,
			"-0.001": 10.7044525172,
			"0.0": 11.7977177475,
			"0.001": 13.8974866892,
			"0.002": 16.8591942816,
			"0.003": 8.4743175114,
			"0.004": 1.9969159007,
			"0.005": 2.57911466474,
			"0.006": 1.88868660979,
			"0.007": 2.42934466582,
			"0.008": 2.57316294579,
			"0.009": 3.90089649834,
			"0.01": 7.39945421752,
			"0.011": 15.0229459091,
			"0.012": 3.53454885285,
			"0.013": 0.0,
			"0.014": 0.0,
			"0.015": 0.0,
			"0.016": 0.0,
			"0.017": 0.0,
			"0.018": 0.0,
			"0.019": 0.0,
			"0.02": 0.0,
			"0.021": 0.0,
			"0.022": 0.0,
			"0.023": 0.0,
			"0.024": 0.0,
			"0.025": 0.0
		}
	}
}
