{
	 "smiles": "CN(C1CCCCC1)S(=O)(=O)C1=CC(N)=CC=C1", 
	 "Tm": 383.15, 
	 "num_atms": 38, 
	 "gaussian": { 
		 "optdone": 1, 
		 "sigma_profile": "yes", 
		 "theory": "DFT", 
		 "functional": "B3LYP", 
		 "basiset": "6-31G**", 
		 "properties": { 
			 "R2extent": 5669.3506, 
			 "electric_dipole_moment_norm": 6.34303364409, 
			 "electric_quadrupole_moment_norm": 17.6308299561, 
			 "total_energy": -1165.50858279, 
			 "HOMO_LUMO_gap": 0.18922, 
			 "cosmo_polarized_energy": -17.84, 
			 "cosmo_cavitation_energy": 38.73, 
			 "cosmo_dispersion_energy": -27.53, 
			 "cosmo_repulsion_energy": 2.1, 
			 "cosmo_total_nonelectrostatic_energy": 13.3, 
			 "SMD_solvation_energy": 4.67 
		},
		"coords": [
			{
				"x": -1.6782864836,
				"y": 1.8809809589,
				"z": 2.1972169085,
				"element": "C" 
			},
			{
				"x": -0.647699179,
				"y": 0.9944429364,
				"z": 1.6524640396,
				"element": "N" 
			},
			{
				"x": 0.4178514795,
				"y": 1.6184435644,
				"z": 0.8219966721,
				"element": "C" 
			},
			{
				"x": 0.3547908633,
				"y": 1.3501456616,
				"z": -0.6908793957,
				"element": "C" 
			},
			{
				"x": 1.28513649,
				"y": 2.3326218907,
				"z": -1.4442936357,
				"element": "C" 
			},
			{
				"x": 2.5545102791,
				"y": 2.6946353767,
				"z": -0.6325103368,
				"element": "C" 
			},
			{
				"x": 2.9365963949,
				"y": 1.5610115616,
				"z": 0.3285192575,
				"element": "C" 
			},
			{
				"x": 1.831402329,
				"y": 1.3178990491,
				"z": 1.3820213551,
				"element": "C" 
			},
			{
				"x": -1.0209492421,
				"y": -0.6389371072,
				"z": 1.5646597238,
				"element": "S" 
			},
			{
				"x": -1.6583172861,
				"y": -0.9878159695,
				"z": 2.8375536643,
				"element": "O" 
			},
			{
				"x": 0.1896370177,
				"y": -1.3235415485,
				"z": 1.0970340159,
				"element": "O" 
			},
			{
				"x": -2.2872909634,
				"y": -0.8573356107,
				"z": 0.2952887723,
				"element": "C" 
			},
			{
				"x": -1.9127435353,
				"y": -1.3805320372,
				"z": -0.9392847404,
				"element": "C" 
			},
			{
				"x": -2.8783547849,
				"y": -1.5552693318,
				"z": -1.945958388,
				"element": "C" 
			},
			{
				"x": -2.5338185778,
				"y": -2.1376857743,
				"z": -3.160905511,
				"element": "N" 
			},
			{
				"x": -4.208509204,
				"y": -1.1854933761,
				"z": -1.6740641085,
				"element": "C" 
			},
			{
				"x": -4.5633178074,
				"y": -0.6785433676,
				"z": -0.4267237853,
				"element": "C" 
			},
			{
				"x": -3.6114585985,
				"y": -0.5116264236,
				"z": 0.5802841849,
				"element": "C" 
			},
			{
				"x": -2.3640724996,
				"y": 2.2631034676,
				"z": 1.426945292,
				"element": "H" 
			},
			{
				"x": -2.2491993845,
				"y": 1.3472526557,
				"z": 2.9572677561,
				"element": "H" 
			},
			{
				"x": -1.188447792,
				"y": 2.7299576108,
				"z": 2.6827722473,
				"element": "H" 
			},
			{
				"x": 0.2244872234,
				"y": 2.6900729492,
				"z": 0.9489702275,
				"element": "H" 
			},
			{
				"x": 0.6635945619,
				"y": 0.3180380898,
				"z": -0.8800278439,
				"element": "H" 
			},
			{
				"x": -0.6731393255,
				"y": 1.4478878689,
				"z": -1.055160602,
				"element": "H" 
			},
			{
				"x": 0.7354719548,
				"y": 3.249058313,
				"z": -1.6910833459,
				"element": "H" 
			},
			{
				"x": 1.5713845868,
				"y": 1.8812230782,
				"z": -2.4013540719,
				"element": "H" 
			},
			{
				"x": 3.3823248053,
				"y": 2.9244272113,
				"z": -1.3124522653,
				"element": "H" 
			},
			{
				"x": 2.3784895716,
				"y": 3.6094048098,
				"z": -0.0507539879,
				"element": "H" 
			},
			{
				"x": 3.8861079396,
				"y": 1.780577949,
				"z": 0.8289785108,
				"element": "H" 
			},
			{
				"x": 3.1022145816,
				"y": 0.6433557403,
				"z": -0.2501328186,
				"element": "H" 
			},
			{
				"x": 1.9974204496,
				"y": 1.950412302,
				"z": 2.2623556969,
				"element": "H" 
			},
			{
				"x": 1.8615631625,
				"y": 0.2811324135,
				"z": 1.7202520208,
				"element": "H" 
			},
			{
				"x": -0.8815116762,
				"y": -1.6744378052,
				"z": -1.1036899835,
				"element": "H" 
			},
			{
				"x": -3.1503544191,
				"y": -1.9440024387,
				"z": -3.9368071922,
				"element": "H" 
			},
			{
				"x": -1.5577003364,
				"y": -2.089351504,
				"z": -3.4149892858,
				"element": "H" 
			},
			{
				"x": -4.9662918165,
				"y": -1.3171973434,
				"z": -2.4422981271,
				"element": "H" 
			},
			{
				"x": -5.600068211,
				"y": -0.4178306827,
				"z": -0.2342755372,
				"element": "H" 
			},
			{
				"x": -3.8924525677,
				"y": -0.1579851382,
				"z": 1.5645646171,
				"element": "H" 
			}
		],
		 "valence_orbital": [ 
			{
				"type": "occ",
				"energy": -0.29096,
				"method": "rhf"
			},
			{
				"type": "occ",
				"energy": -0.28543,
				"method": "rhf"
			},
			{
				"type": "occ",
				"energy": -0.26706,
				"method": "rhf"
			},
			{
				"type": "occ",
				"energy": -0.23595,
				"method": "rhf"
			},
			{
				"type": "occ",
				"energy": -0.21544,
				"method": "rhf"
			},
			{
				"type": "unocc",
				"energy": -0.02622,
				"method": "rhf"
			},
			{
				"type": "unocc",
				"energy": -0.00025,
				"method": "rhf"
			},
			{
				"type": "unocc",
				"energy": 0.06499,
				"method": "rhf"
			},
			{
				"type": "unocc",
				"energy": 0.0676,
				"method": "rhf"
			},
			{
				"type": "unocc",
				"energy": 0.07672,
				"method": "rhf"
			}
		],
		"cosmo_sigma_profile": { 
			"-0.025": 0.0,
			"-0.024": 0.0,
			"-0.023": 0.0,
			"-0.022": 0.0,
			"-0.021": 0.0,
			"-0.02": 0.0,
			"-0.019": 0.0,
			"-0.018": 0.0,
			"-0.017": 0.0,
			"-0.016": 0.0,
			"-0.015": 0.0,
			"-0.014": 0.0,
			"-0.013": 1.4934632247,
			"-0.012": 3.20590164578,
			"-0.011": 2.79532910736,
			"-0.01": 2.92116671938,
			"-0.009": 2.99771434886,
			"-0.008": 3.67004732026,
			"-0.007": 4.28383307589,
			"-0.006": 8.54370476235,
			"-0.005": 14.6377666055,
			"-0.004": 16.8553951587,
			"-0.003": 23.6424608135,
			"-0.002": 36.7360886801,
			"-0.001": 33.9521102583,
			"0.0": 29.0488541443,
			"0.001": 27.6575263275,
			"0.002": 14.0948221747,
			"0.003": 11.3738199888,
			"0.004": 13.7432737851,
			"0.005": 11.5373082901,
			"0.006": 4.45313614104,
			"0.007": 4.77056090829,
			"0.008": 4.92079079546,
			"0.009": 4.24426321276,
			"0.01": 5.09802862422,
			"0.011": 7.76362681808,
			"0.012": 6.98714503092,
			"0.013": 0.920528396551,
			"0.014": 0.110921699441,
			"0.015": 0.0,
			"0.016": 0.0,
			"0.017": 0.0,
			"0.018": 0.0,
			"0.019": 0.0,
			"0.02": 0.0,
			"0.021": 0.0,
			"0.022": 0.0,
			"0.023": 0.0,
			"0.024": 0.0,
			"0.025": 0.0
		}
	}
}
