{
	 "smiles": "CC(OC1=C(Cl)C=C(F)C=C1)C(O)=O", 
	 "Tm": 346.15, 
	 "num_atms": 22, 
	 "gaussian": { 
		 "optdone": 1, 
		 "sigma_profile": "yes", 
		 "theory": "DFT", 
		 "functional": "B3LYP", 
		 "basiset": "6-31G**", 
		 "properties": { 
			 "R2extent": 3824.5929, 
			 "electric_dipole_moment_norm": 4.62458909094, 
			 "electric_quadrupole_moment_norm": 16.3234484938, 
			 "total_energy": -1133.47565848, 
			 "HOMO_LUMO_gap": 0.21857, 
			 "cosmo_polarized_energy": -11.76, 
			 "cosmo_cavitation_energy": 28.82, 
			 "cosmo_dispersion_energy": -20.33, 
			 "cosmo_repulsion_energy": 1.57, 
			 "cosmo_total_nonelectrostatic_energy": 10.07, 
			 "SMD_solvation_energy": 6.63 
		},
		"coords": [
			{
				"x": 2.3771476626,
				"y": -1.0149511555,
				"z": 0.7962974028,
				"element": "C" 
			},
			{
				"x": 1.1283854414,
				"y": -0.2525830448,
				"z": 1.2190931812,
				"element": "C" 
			},
			{
				"x": 0.0841389977,
				"y": -0.3260623797,
				"z": 0.2110950775,
				"element": "O" 
			},
			{
				"x": 0.1127884981,
				"y": 0.6224135521,
				"z": -0.7873736106,
				"element": "C" 
			},
			{
				"x": -0.4597220264,
				"y": 1.8915479572,
				"z": -0.6040813663,
				"element": "C" 
			},
			{
				"x": -1.1919614668,
				"y": 2.3008298232,
				"z": 0.9321364507,
				"element": "Cl" 
			},
			{
				"x": -0.473377308,
				"y": 2.8270708837,
				"z": -1.6371116549,
				"element": "C" 
			},
			{
				"x": 0.0887430944,
				"y": 2.4726453476,
				"z": -2.8585212096,
				"element": "C" 
			},
			{
				"x": 0.075967212,
				"y": 3.3737696777,
				"z": -3.857559754,
				"element": "F" 
			},
			{
				"x": 0.6522481661,
				"y": 1.2210131482,
				"z": -3.0790601578,
				"element": "C" 
			},
			{
				"x": 0.6586123126,
				"y": 0.3004903685,
				"z": -2.0329219707,
				"element": "C" 
			},
			{
				"x": 0.5434664448,
				"y": -0.8069333224,
				"z": 2.5295398093,
				"element": "C" 
			},
			{
				"x": -0.7847762638,
				"y": -0.989762665,
				"z": 2.5384783921,
				"element": "O" 
			},
			{
				"x": 1.2445508217,
				"y": -1.0352300343,
				"z": 3.4852478497,
				"element": "O" 
			},
			{
				"x": 2.8380232046,
				"y": -0.5487517955,
				"z": -0.0785608901,
				"element": "H" 
			},
			{
				"x": 2.1276246648,
				"y": -2.0525143925,
				"z": 0.5566769246,
				"element": "H" 
			},
			{
				"x": 3.093200945,
				"y": -1.0108741039,
				"z": 1.6205298388,
				"element": "H" 
			},
			{
				"x": 1.3673953048,
				"y": 0.8018268056,
				"z": 1.4048395609,
				"element": "H" 
			},
			{
				"x": -0.9157694975,
				"y": 3.8064891479,
				"z": -1.5019712042,
				"element": "H" 
			},
			{
				"x": 1.070724372,
				"y": 0.9814137489,
				"z": -4.0498370303,
				"element": "H" 
			},
			{
				"x": 1.075955429,
				"y": -0.6911298817,
				"z": -2.1694044467,
				"element": "H" 
			},
			{
				"x": -1.1185660092,
				"y": -0.7463176852,
				"z": 1.6552688075,
				"element": "H" 
			}
		],
		 "valence_orbital": [ 
			{
				"type": "occ",
				"energy": -0.32166,
				"method": "rhf"
			},
			{
				"type": "occ",
				"energy": -0.30792,
				"method": "rhf"
			},
			{
				"type": "occ",
				"energy": -0.27957,
				"method": "rhf"
			},
			{
				"type": "occ",
				"energy": -0.27063,
				"method": "rhf"
			},
			{
				"type": "occ",
				"energy": -0.2601,
				"method": "rhf"
			},
			{
				"type": "unocc",
				"energy": -0.04153,
				"method": "rhf"
			},
			{
				"type": "unocc",
				"energy": -0.0255,
				"method": "rhf"
			},
			{
				"type": "unocc",
				"energy": 0.00276,
				"method": "rhf"
			},
			{
				"type": "unocc",
				"energy": 0.00911,
				"method": "rhf"
			},
			{
				"type": "unocc",
				"energy": 0.08068,
				"method": "rhf"
			}
		],
		"cosmo_sigma_profile": { 
			"-0.025": 0.0,
			"-0.024": 0.0,
			"-0.023": 0.0,
			"-0.022": 0.0,
			"-0.021": 0.0,
			"-0.02": 0.0,
			"-0.019": 0.0,
			"-0.018": 0.0,
			"-0.017": 0.0,
			"-0.016": 0.0,
			"-0.015": 0.0208419903629,
			"-0.014": 0.274562900448,
			"-0.013": 0.351109396835,
			"-0.012": 0.492931971613,
			"-0.011": 0.478825978901,
			"-0.01": 0.700793715025,
			"-0.009": 1.36580580324,
			"-0.008": 6.43666074385,
			"-0.007": 7.68977656067,
			"-0.006": 10.5640465539,
			"-0.005": 12.6120115266,
			"-0.004": 16.4780193387,
			"-0.003": 16.1861182743,
			"-0.002": 15.9578976211,
			"-0.001": 19.3365213629,
			"0.0": 25.3287450859,
			"0.001": 23.6564809249,
			"0.002": 13.3767526022,
			"0.003": 14.505886453,
			"0.004": 16.2531310559,
			"0.005": 2.75543867487,
			"0.006": 2.68346975508,
			"0.007": 2.80243395704,
			"0.008": 3.20064299424,
			"0.009": 4.50300495506,
			"0.01": 4.60372576788,
			"0.011": 4.29990941822,
			"0.012": 4.52105062871,
			"0.013": 0.924512671674,
			"0.014": 0.0,
			"0.015": 0.0,
			"0.016": 0.0,
			"0.017": 0.0,
			"0.018": 0.0,
			"0.019": 0.0,
			"0.02": 0.0,
			"0.021": 0.0,
			"0.022": 0.0,
			"0.023": 0.0,
			"0.024": 0.0,
			"0.025": 0.0
		}
	}
}
