{
	 "smiles": "CC(C)NC1=NC=C(Br)C=C1", 
	 "Tm": 343.15, 
	 "num_atms": 22, 
	 "gaussian": { 
		 "optdone": 1, 
		 "sigma_profile": "yes", 
		 "theory": "DFT", 
		 "functional": "B3LYP", 
		 "basiset": "6-31G**", 
		 "properties": { 
			 "R2extent": 4185.6999, 
			 "electric_dipole_moment_norm": 3.37440404961, 
			 "electric_quadrupole_moment_norm": 4.54269331124, 
			 "total_energy": -2992.40134703, 
			 "HOMO_LUMO_gap": 0.18081, 
			 "cosmo_polarized_energy": -7.95, 
			 "cosmo_cavitation_energy": 27.55, 
			 "cosmo_dispersion_energy": -20.44, 
			 "cosmo_repulsion_energy": 1.66, 
			 "cosmo_total_nonelectrostatic_energy": 8.78, 
			 "SMD_solvation_energy": 2.43 
		},
		"coords": [
			{
				"x": -2.6824998222,
				"y": -1.8167059724,
				"z": 2.6044020304,
				"element": "C" 
			},
			{
				"x": -1.7065355516,
				"y": -1.7596945771,
				"z": 1.4261627839,
				"element": "C" 
			},
			{
				"x": -2.2626742651,
				"y": -2.4622060337,
				"z": 0.1780657389,
				"element": "C" 
			},
			{
				"x": -1.3628328779,
				"y": -0.3597236279,
				"z": 1.1656963228,
				"element": "N" 
			},
			{
				"x": -0.2348681725,
				"y": 0.031224755,
				"z": 0.4858398248,
				"element": "C" 
			},
			{
				"x": 0.7004056466,
				"y": -0.9017149323,
				"z": 0.237106315,
				"element": "N" 
			},
			{
				"x": 1.826920849,
				"y": -0.530735532,
				"z": -0.3810282886,
				"element": "C" 
			},
			{
				"x": 2.0742793123,
				"y": 0.7740354629,
				"z": -0.7892169739,
				"element": "C" 
			},
			{
				"x": 3.7062000111,
				"y": 1.2168309264,
				"z": -1.6754829787,
				"element": "Br" 
			},
			{
				"x": 1.1039541902,
				"y": 1.7521032174,
				"z": -0.5444209307,
				"element": "C" 
			},
			{
				"x": -0.0632307858,
				"y": 1.3836712756,
				"z": 0.099336664,
				"element": "C" 
			},
			{
				"x": -2.9283514873,
				"y": -2.8543740274,
				"z": 2.8483454267,
				"element": "H" 
			},
			{
				"x": -2.2547937814,
				"y": -1.3434530837,
				"z": 3.4929654365,
				"element": "H" 
			},
			{
				"x": -3.6235878227,
				"y": -1.305540882,
				"z": 2.362956654,
				"element": "H" 
			},
			{
				"x": -0.7710535643,
				"y": -2.2509084926,
				"z": 1.7082100755,
				"element": "H" 
			},
			{
				"x": -2.4725403524,
				"y": -3.5167417374,
				"z": 0.3877656135,
				"element": "H" 
			},
			{
				"x": -1.5388860549,
				"y": -2.4145379956,
				"z": -0.6394099046,
				"element": "H" 
			},
			{
				"x": -3.1959692446,
				"y": -1.9912476446,
				"z": -0.1532473323,
				"element": "H" 
			},
			{
				"x": -2.1325405785,
				"y": 0.2944810648,
				"z": 1.1593884868,
				"element": "H" 
			},
			{
				"x": 2.5614269116,
				"y": -1.3118317726,
				"z": -0.5625895987,
				"element": "H" 
			},
			{
				"x": 1.2666848195,
				"y": 2.7789712037,
				"z": -0.853513148,
				"element": "H" 
			},
			{
				"x": -0.833907379,
				"y": 2.1194984055,
				"z": 0.3109677828,
				"element": "H" 
			}
		],
		 "valence_orbital": [ 
			{
				"type": "occ",
				"energy": -0.28741,
				"method": "rhf"
			},
			{
				"type": "occ",
				"energy": -0.2865,
				"method": "rhf"
			},
			{
				"type": "occ",
				"energy": -0.27475,
				"method": "rhf"
			},
			{
				"type": "occ",
				"energy": -0.25817,
				"method": "rhf"
			},
			{
				"type": "occ",
				"energy": -0.20383,
				"method": "rhf"
			},
			{
				"type": "unocc",
				"energy": -0.02302,
				"method": "rhf"
			},
			{
				"type": "unocc",
				"energy": 0.0032,
				"method": "rhf"
			},
			{
				"type": "unocc",
				"energy": 0.01347,
				"method": "rhf"
			},
			{
				"type": "unocc",
				"energy": 0.07791,
				"method": "rhf"
			},
			{
				"type": "unocc",
				"energy": 0.10382,
				"method": "rhf"
			}
		],
		"cosmo_sigma_profile": { 
			"-0.025": 0.0,
			"-0.024": 0.0,
			"-0.023": 0.0,
			"-0.022": 0.0,
			"-0.021": 0.0,
			"-0.02": 0.0,
			"-0.019": 0.0,
			"-0.018": 0.0,
			"-0.017": 0.0,
			"-0.016": 0.0,
			"-0.015": 0.0,
			"-0.014": 0.0,
			"-0.013": 0.897908839552,
			"-0.012": 1.35497656213,
			"-0.011": 1.48034290146,
			"-0.01": 1.69418091811,
			"-0.009": 1.51618683956,
			"-0.008": 2.17541190131,
			"-0.007": 5.18746315439,
			"-0.006": 6.76268167862,
			"-0.005": 6.21085469641,
			"-0.004": 8.87183902492,
			"-0.003": 18.79614123,
			"-0.002": 18.0099560633,
			"-0.001": 20.4189753915,
			"0.0": 22.1346184191,
			"0.001": 24.8132683058,
			"0.002": 22.6725313118,
			"0.003": 19.1491587161,
			"0.004": 13.7608464465,
			"0.005": 13.2307067846,
			"0.006": 2.95908165184,
			"0.007": 2.21588392386,
			"0.008": 2.00300536358,
			"0.009": 1.08694200528,
			"0.01": 1.49256525509,
			"0.011": 0.772687018259,
			"0.012": 0.637649705094,
			"0.013": 0.631425907402,
			"0.014": 0.0541758715039,
			"0.015": 0.0,
			"0.016": 0.0,
			"0.017": 0.0,
			"0.018": 0.0,
			"0.019": 0.0,
			"0.02": 0.0,
			"0.021": 0.0,
			"0.022": 0.0,
			"0.023": 0.0,
			"0.024": 0.0,
			"0.025": 0.0
		}
	}
}
