{
	 "smiles": "COC(=O)CN1N=CC2=C1N=CN=C2Cl", 
	 "Tm": 340.15, 
	 "num_atms": 22, 
	 "gaussian": { 
		 "optdone": 1, 
		 "sigma_profile": "yes", 
		 "theory": "DFT", 
		 "functional": "B3LYP", 
		 "basiset": "6-31G**", 
		 "properties": { 
			 "R2extent": 5724.6445, 
			 "electric_dipole_moment_norm": 1.10929704768, 
			 "electric_quadrupole_moment_norm": 17.1982424826, 
			 "total_energy": -1138.69898537, 
			 "HOMO_LUMO_gap": 0.18877, 
			 "cosmo_polarized_energy": -11.91, 
			 "cosmo_cavitation_energy": 29.8, 
			 "cosmo_dispersion_energy": -21.28, 
			 "cosmo_repulsion_energy": 1.69, 
			 "cosmo_total_nonelectrostatic_energy": 10.2, 
			 "SMD_solvation_energy": 2.98 
		},
		"coords": [
			{
				"x": -3.1213561823,
				"y": 2.9837776664,
				"z": 0.7661948765,
				"element": "C" 
			},
			{
				"x": -2.4234723719,
				"y": 1.8436830393,
				"z": 0.2291797294,
				"element": "O" 
			},
			{
				"x": -1.6092344609,
				"y": 2.1056531047,
				"z": -0.8025238727,
				"element": "C" 
			},
			{
				"x": -1.4394871994,
				"y": 3.1963696017,
				"z": -1.2974378265,
				"element": "O" 
			},
			{
				"x": -0.9230367414,
				"y": 0.8509522048,
				"z": -1.3433667983,
				"element": "C" 
			},
			{
				"x": -0.9492961943,
				"y": -0.2965842269,
				"z": -0.4675567152,
				"element": "N" 
			},
			{
				"x": -0.1066223241,
				"y": -0.3740730537,
				"z": 0.6052979259,
				"element": "N" 
			},
			{
				"x": -0.4195641378,
				"y": -1.4762836168,
				"z": 1.2613674862,
				"element": "C" 
			},
			{
				"x": -1.5013981003,
				"y": -2.1517864511,
				"z": 0.6261525871,
				"element": "C" 
			},
			{
				"x": -1.8186172106,
				"y": -1.3418694725,
				"z": -0.4920738746,
				"element": "C" 
			},
			{
				"x": -2.7794682739,
				"y": -1.5852241382,
				"z": -1.3925981613,
				"element": "N" 
			},
			{
				"x": -3.4475479488,
				"y": -2.7048284686,
				"z": -1.1386726467,
				"element": "C" 
			},
			{
				"x": -3.2565397386,
				"y": -3.5705805223,
				"z": -0.1132795571,
				"element": "N" 
			},
			{
				"x": -2.3004168954,
				"y": -3.2945337576,
				"z": 0.7467560079,
				"element": "C" 
			},
			{
				"x": -2.0421462435,
				"y": -4.4075800494,
				"z": 2.0740341243,
				"element": "Cl" 
			},
			{
				"x": -3.7199480814,
				"y": 2.5981042679,
				"z": 1.5904541564,
				"element": "H" 
			},
			{
				"x": -3.7592672946,
				"y": 3.4338935742,
				"z": 0.0020424482,
				"element": "H" 
			},
			{
				"x": -2.4093423362,
				"y": 3.7317412178,
				"z": 1.1221031485,
				"element": "H" 
			},
			{
				"x": -1.4242208354,
				"y": 0.5708286203,
				"z": -2.2745154606,
				"element": "H" 
			},
			{
				"x": 0.1122189906,
				"y": 1.1105805418,
				"z": -1.5712282861,
				"element": "H" 
			},
			{
				"x": 0.1277068998,
				"y": -1.7560339925,
				"z": 2.1504408871,
				"element": "H" 
			},
			{
				"x": -4.2445433196,
				"y": -2.9678060894,
				"z": -1.8290701782,
				"element": "H" 
			}
		],
		 "valence_orbital": [ 
			{
				"type": "occ",
				"energy": -0.31169,
				"method": "rhf"
			},
			{
				"type": "occ",
				"energy": -0.3002,
				"method": "rhf"
			},
			{
				"type": "occ",
				"energy": -0.28275,
				"method": "rhf"
			},
			{
				"type": "occ",
				"energy": -0.28084,
				"method": "rhf"
			},
			{
				"type": "occ",
				"energy": -0.25936,
				"method": "rhf"
			},
			{
				"type": "unocc",
				"energy": -0.07059,
				"method": "rhf"
			},
			{
				"type": "unocc",
				"energy": -0.02536,
				"method": "rhf"
			},
			{
				"type": "unocc",
				"energy": -0.00353,
				"method": "rhf"
			},
			{
				"type": "unocc",
				"energy": 0.02155,
				"method": "rhf"
			},
			{
				"type": "unocc",
				"energy": 0.02345,
				"method": "rhf"
			}
		],
		"cosmo_sigma_profile": { 
			"-0.025": 0.0,
			"-0.024": 0.0,
			"-0.023": 0.0,
			"-0.022": 0.0,
			"-0.021": 0.0,
			"-0.02": 0.0,
			"-0.019": 0.0,
			"-0.018": 0.0,
			"-0.017": 0.0,
			"-0.016": 0.0,
			"-0.015": 0.0,
			"-0.014": 0.0,
			"-0.013": 0.0,
			"-0.012": 0.0,
			"-0.011": 0.0,
			"-0.01": 0.643379883992,
			"-0.009": 5.36356049811,
			"-0.008": 6.5567458248,
			"-0.007": 8.99550548117,
			"-0.006": 12.3980546663,
			"-0.005": 15.3061645964,
			"-0.004": 19.3044196463,
			"-0.003": 21.8584252826,
			"-0.002": 20.7803430907,
			"-0.001": 15.9038208322,
			"0.0": 13.5520522915,
			"0.001": 15.8666796732,
			"0.002": 12.8133252157,
			"0.003": 16.2880057458,
			"0.004": 10.3181789291,
			"0.005": 8.7195335573,
			"0.006": 5.36408708434,
			"0.007": 4.20302027737,
			"0.008": 4.94814408337,
			"0.009": 4.96795649233,
			"0.01": 4.76274175001,
			"0.011": 7.48181740135,
			"0.012": 4.0361604922,
			"0.013": 1.56429650757,
			"0.014": 0.141306188179,
			"0.015": 0.0,
			"0.016": 0.0,
			"0.017": 0.0,
			"0.018": 0.0,
			"0.019": 0.0,
			"0.02": 0.0,
			"0.021": 0.0,
			"0.022": 0.0,
			"0.023": 0.0,
			"0.024": 0.0,
			"0.025": 0.0
		}
	}
}
