{
	 "smiles": "CC(C)NC(=O)NC1=CC(=CC=C1)C(O)=O", 
	 "Tm": 513.15, 
	 "num_atms": 30, 
	 "gaussian": { 
		 "optdone": 1, 
		 "sigma_profile": "yes", 
		 "theory": "DFT", 
		 "functional": "B3LYP", 
		 "basiset": "6-31G**", 
		 "properties": { 
			 "R2extent": 5706.0555, 
			 "electric_dipole_moment_norm": 6.73795700936, 
			 "electric_quadrupole_moment_norm": 20.8881761327, 
			 "total_energy": -762.827601124, 
			 "HOMO_LUMO_gap": 0.18358, 
			 "cosmo_polarized_energy": -24.17, 
			 "cosmo_cavitation_energy": 34.07, 
			 "cosmo_dispersion_energy": -24.35, 
			 "cosmo_repulsion_energy": 1.91, 
			 "cosmo_total_nonelectrostatic_energy": 11.62, 
			 "SMD_solvation_energy": 7.21 
		},
		"coords": [
			{
				"x": -0.5153018546,
				"y": -2.0716336544,
				"z": -2.2863103497,
				"element": "C" 
			},
			{
				"x": -0.750389456,
				"y": -2.6051668923,
				"z": -0.8637580242,
				"element": "C" 
			},
			{
				"x": -0.9746737585,
				"y": -4.120543419,
				"z": -0.852987894,
				"element": "C" 
			},
			{
				"x": -1.8899403095,
				"y": -1.965379026,
				"z": -0.1980397595,
				"element": "N" 
			},
			{
				"x": -2.0199134997,
				"y": -0.6471102575,
				"z": 0.1999875061,
				"element": "C" 
			},
			{
				"x": -3.12097448,
				"y": -0.152054724,
				"z": 0.4111949984,
				"element": "O" 
			},
			{
				"x": -0.8177881376,
				"y": 0.0290780878,
				"z": 0.3741172311,
				"element": "N" 
			},
			{
				"x": -0.6276602469,
				"y": 1.3568097367,
				"z": 0.79598181,
				"element": "C" 
			},
			{
				"x": 0.6953933422,
				"y": 1.7956903182,
				"z": 0.9623487159,
				"element": "C" 
			},
			{
				"x": 0.9734967162,
				"y": 3.1118906879,
				"z": 1.3481393104,
				"element": "C" 
			},
			{
				"x": -0.0771236156,
				"y": 4.0121583486,
				"z": 1.5579652333,
				"element": "C" 
			},
			{
				"x": -1.3888631759,
				"y": 3.5695063001,
				"z": 1.4109501048,
				"element": "C" 
			},
			{
				"x": -1.6794340775,
				"y": 2.2571205739,
				"z": 1.036858286,
				"element": "C" 
			},
			{
				"x": 2.376100394,
				"y": 3.6118792518,
				"z": 1.5182476682,
				"element": "C" 
			},
			{
				"x": 3.3233771618,
				"y": 2.6741405589,
				"z": 1.806739194,
				"element": "O" 
			},
			{
				"x": 2.6900849324,
				"y": 4.773438915,
				"z": 1.413764042,
				"element": "O" 
			},
			{
				"x": 0.3700500611,
				"y": -2.5346992385,
				"z": -2.7346747209,
				"element": "H" 
			},
			{
				"x": -0.3709467036,
				"y": -0.9872938721,
				"z": -2.2853021899,
				"element": "H" 
			},
			{
				"x": -1.3772901422,
				"y": -2.2955320035,
				"z": -2.9237427143,
				"element": "H" 
			},
			{
				"x": 0.1464761744,
				"y": -2.4115281788,
				"z": -0.2570322405,
				"element": "H" 
			},
			{
				"x": -1.8656085501,
				"y": -4.3822733654,
				"z": -1.4362549665,
				"element": "H" 
			},
			{
				"x": -0.1221016268,
				"y": -4.6380648708,
				"z": -1.3012316112,
				"element": "H" 
			},
			{
				"x": -1.1108566141,
				"y": -4.4890098515,
				"z": 0.1673486244,
				"element": "H" 
			},
			{
				"x": -2.8003645973,
				"y": -2.3603575719,
				"z": -0.3960851365,
				"element": "H" 
			},
			{
				"x": 0.0294574676,
				"y": -0.5023890962,
				"z": 0.2448123343,
				"element": "H" 
			},
			{
				"x": 1.5094001414,
				"y": 1.1087943307,
				"z": 0.7357791915,
				"element": "H" 
			},
			{
				"x": 0.1545721829,
				"y": 5.0338369381,
				"z": 1.8362927907,
				"element": "H" 
			},
			{
				"x": -2.2115813408,
				"y": 4.2562997163,
				"z": 1.5869369433,
				"element": "H" 
			},
			{
				"x": -2.6982742188,
				"y": 1.9162311298,
				"z": 0.9223014,
				"element": "H" 
			},
			{
				"x": 2.8930778315,
				"y": 1.8426611284,
				"z": 2.0498542228,
				"element": "H" 
			}
		],
		 "valence_orbital": [ 
			{
				"type": "occ",
				"energy": -0.27443,
				"method": "rhf"
			},
			{
				"type": "occ",
				"energy": -0.27064,
				"method": "rhf"
			},
			{
				"type": "occ",
				"energy": -0.26442,
				"method": "rhf"
			},
			{
				"type": "occ",
				"energy": -0.25917,
				"method": "rhf"
			},
			{
				"type": "occ",
				"energy": -0.22863,
				"method": "rhf"
			},
			{
				"type": "unocc",
				"energy": -0.04505,
				"method": "rhf"
			},
			{
				"type": "unocc",
				"energy": -0.01587,
				"method": "rhf"
			},
			{
				"type": "unocc",
				"energy": 0.04027,
				"method": "rhf"
			},
			{
				"type": "unocc",
				"energy": 0.04386,
				"method": "rhf"
			},
			{
				"type": "unocc",
				"energy": 0.06029,
				"method": "rhf"
			}
		],
		"cosmo_sigma_profile": { 
			"-0.025": 0.0,
			"-0.024": 0.0,
			"-0.023": 0.0,
			"-0.022": 0.0,
			"-0.021": 0.0,
			"-0.02": 0.0,
			"-0.019": 0.107996317565,
			"-0.018": 0.715963057285,
			"-0.017": 0.395346474568,
			"-0.016": 1.6365948859,
			"-0.015": 1.80382757321,
			"-0.014": 2.44739963978,
			"-0.013": 2.51501551233,
			"-0.012": 3.7521999421,
			"-0.011": 3.15893123305,
			"-0.01": 3.79185384659,
			"-0.009": 3.76408113176,
			"-0.008": 4.22307008895,
			"-0.007": 4.11094005624,
			"-0.006": 7.01654383434,
			"-0.005": 8.63705942029,
			"-0.004": 18.8915002293,
			"-0.003": 21.8602785562,
			"-0.002": 21.508328403,
			"-0.001": 21.6023445252,
			"0.0": 22.7415241164,
			"0.001": 18.9700476808,
			"0.002": 14.4383934181,
			"0.003": 16.4196585029,
			"0.004": 13.2846179971,
			"0.005": 5.87613639662,
			"0.006": 4.15255410598,
			"0.007": 4.66924731133,
			"0.008": 3.95858143577,
			"0.009": 5.34149900732,
			"0.01": 5.98096812352,
			"0.011": 6.90327399559,
			"0.012": 6.98018261435,
			"0.013": 4.25705366764,
			"0.014": 3.25872470004,
			"0.015": 0.373832049779,
			"0.016": 0.0,
			"0.017": 0.0,
			"0.018": 0.0,
			"0.019": 0.0,
			"0.02": 0.0,
			"0.021": 0.0,
			"0.022": 0.0,
			"0.023": 0.0,
			"0.024": 0.0,
			"0.025": 0.0
		}
	}
}
