{
	 "smiles": "CC(C=CC=C(/C)C=CC12OC1(C)CC(O)CC2(C)C)=CC=CC=C(/C)C=CC=C(/C)C=CC12OC1(C)CC(O)CC2(C)C", 
	 "Tm": 481.15, 
	 "num_atms": 100, 
	 "gaussian": { 
		 "optdone": 1, 
		 "sigma_profile": "yes", 
		 "theory": "DFT", 
		 "functional": "B3LYP", 
		 "basiset": "6-31G**", 
		 "properties": { 
			 "R2extent": 80641.7198, 
			 "electric_dipole_moment_norm": 2.86756317803, 
			 "electric_quadrupole_moment_norm": 38.2459773953, 
			 "total_energy": -1858.75513324, 
			 "HOMO_LUMO_gap": 0.09136, 
			 "cosmo_polarized_energy": -24.01, 
			 "cosmo_cavitation_energy": 96.84, 
			 "cosmo_dispersion_energy": -63.64, 
			 "cosmo_repulsion_energy": 4.77, 
			 "cosmo_total_nonelectrostatic_energy": 37.97, 
			 "SMD_solvation_energy": 15.43 
		},
		"coords": [
			{
				"x": 5.6699961418,
				"y": -4.5218918092,
				"z": 1.7985988324,
				"element": "C" 
			},
			{
				"x": 4.4858848875,
				"y": -3.6269429453,
				"z": 1.5138569508,
				"element": "C" 
			},
			{
				"x": 4.5908848834,
				"y": -2.6524124214,
				"z": 0.4483092057,
				"element": "C" 
			},
			{
				"x": 5.6754132665,
				"y": -2.4887764099,
				"z": -0.3611662349,
				"element": "C" 
			},
			{
				"x": 5.8551130514,
				"y": -1.5418913571,
				"z": -1.4417391021,
				"element": "C" 
			},
			{
				"x": 5.2641772025,
				"y": -0.3309007447,
				"z": -1.6583965139,
				"element": "C" 
			},
			{
				"x": 4.3327033688,
				"y": 0.3378841738,
				"z": -0.6750288763,
				"element": "C" 
			},
			{
				"x": 5.5530673888,
				"y": 0.4381240453,
				"z": -2.8749211689,
				"element": "C" 
			},
			{
				"x": 5.8650877873,
				"y": -0.0652533234,
				"z": -4.0833076528,
				"element": "C" 
			},
			{
				"x": 6.1505570523,
				"y": 0.7755524306,
				"z": -5.2855833355,
				"element": "C" 
			},
			{
				"x": 6.3187765814,
				"y": 2.1782490988,
				"z": -5.020413932,
				"element": "O" 
			},
			{
				"x": 7.4889693004,
				"y": 1.4412572936,
				"z": -5.4470167574,
				"element": "C" 
			},
			{
				"x": 8.5707355347,
				"y": 1.3110047288,
				"z": -4.3946946056,
				"element": "C" 
			},
			{
				"x": 8.0114853226,
				"y": 1.849689631,
				"z": -6.8220736971,
				"element": "C" 
			},
			{
				"x": 7.200320121,
				"y": 1.3205110126,
				"z": -8.0024002095,
				"element": "C" 
			},
			{
				"x": 7.5587036033,
				"y": 2.1239372005,
				"z": -9.1265227202,
				"element": "O" 
			},
			{
				"x": 5.7029427537,
				"y": 1.3811636971,
				"z": -7.7066547367,
				"element": "C" 
			},
			{
				"x": 5.2718965947,
				"y": 0.475535635,
				"z": -6.5282560683,
				"element": "C" 
			},
			{
				"x": 5.3863542699,
				"y": -1.0140558439,
				"z": -6.9251035225,
				"element": "C" 
			},
			{
				"x": 3.8035710111,
				"y": 0.7961247009,
				"z": -6.1821342966,
				"element": "C" 
			},
			{
				"x": 3.3511532044,
				"y": -3.7669215867,
				"z": 2.2747415421,
				"element": "C" 
			},
			{
				"x": 2.1232486364,
				"y": -3.033783425,
				"z": 2.1832447614,
				"element": "C" 
			},
			{
				"x": 1.0503286868,
				"y": -3.2573649491,
				"z": 2.9986140225,
				"element": "C" 
			},
			{
				"x": -0.176551309,
				"y": -2.525361827,
				"z": 2.9084388241,
				"element": "C" 
			},
			{
				"x": -1.3086191928,
				"y": -2.6674431138,
				"z": 3.6700451081,
				"element": "C" 
			},
			{
				"x": -1.4338299337,
				"y": -3.6787607733,
				"z": 4.7836783709,
				"element": "C" 
			},
			{
				"x": -2.4344861198,
				"y": -1.8014679144,
				"z": 3.3873315357,
				"element": "C" 
			},
			{
				"x": -3.6157041906,
				"y": -1.7814195037,
				"z": 4.0672849634,
				"element": "C" 
			},
			{
				"x": -4.7716696715,
				"y": -0.9412035007,
				"z": 3.8354096341,
				"element": "C" 
			},
			{
				"x": -5.1901601112,
				"y": -0.3155215948,
				"z": 2.6976369736,
				"element": "C" 
			},
			{
				"x": -4.5353940897,
				"y": -0.4954863717,
				"z": 1.3484557039,
				"element": "C" 
			},
			{
				"x": -6.3750177298,
				"y": 0.5533723391,
				"z": 2.7168068879,
				"element": "C" 
			},
			{
				"x": -6.8105275194,
				"y": 1.291800288,
				"z": 3.7527449834,
				"element": "C" 
			},
			{
				"x": -8.0284467355,
				"y": 2.1665052302,
				"z": 3.7449937615,
				"element": "C" 
			},
			{
				"x": -8.8971841736,
				"y": 1.8971379848,
				"z": 4.8768805221,
				"element": "O" 
			},
			{
				"x": -9.3889959975,
				"y": 1.5707493324,
				"z": 3.5607412928,
				"element": "C" 
			},
			{
				"x": -9.595464764,
				"y": 0.0913086372,
				"z": 3.3058615718,
				"element": "C" 
			},
			{
				"x": -10.5486654388,
				"y": 2.4410351501,
				"z": 3.1077191317,
				"element": "C" 
			},
			{
				"x": -10.3597610443,
				"y": 3.9088754822,
				"z": 3.4656296824,
				"element": "C" 
			},
			{
				"x": -11.4458260402,
				"y": 4.6156823933,
				"z": 2.8639071613,
				"element": "O" 
			},
			{
				"x": -9.0151277722,
				"y": 4.3968848264,
				"z": 2.9286396473,
				"element": "C" 
			},
			{
				"x": -7.7646583162,
				"y": 3.6882685426,
				"z": 3.5136915556,
				"element": "C" 
			},
			{
				"x": -7.3770873352,
				"y": 4.3129668205,
				"z": 4.8721468753,
				"element": "C" 
			},
			{
				"x": -6.6067072426,
				"y": 3.9097343924,
				"z": 2.5187728331,
				"element": "C" 
			},
			{
				"x": 5.4615563677,
				"y": -5.1997148112,
				"z": 2.629784241,
				"element": "H" 
			},
			{
				"x": 5.9302822323,
				"y": -5.1322783501,
				"z": 0.924908311,
				"element": "H" 
			},
			{
				"x": 6.5620520459,
				"y": -3.937367698,
				"z": 2.0541606003,
				"element": "H" 
			},
			{
				"x": 3.7202203107,
				"y": -2.0322298025,
				"z": 0.2698548737,
				"element": "H" 
			},
			{
				"x": 6.5125044766,
				"y": -3.1714952829,
				"z": -0.2257781371,
				"element": "H" 
			},
			{
				"x": 6.6183777968,
				"y": -1.8326022939,
				"z": -2.1620829733,
				"element": "H" 
			},
			{
				"x": 3.2806137474,
				"y": 0.1065745558,
				"z": -0.8901596959,
				"element": "H" 
			},
			{
				"x": 4.4305440322,
				"y": 1.4269491794,
				"z": -0.7373109936,
				"element": "H" 
			},
			{
				"x": 4.5350501857,
				"y": 0.0286587322,
				"z": 0.3539583912,
				"element": "H" 
			},
			{
				"x": 5.4775276548,
				"y": 1.52193201,
				"z": -2.7948756098,
				"element": "H" 
			},
			{
				"x": 5.880421805,
				"y": -1.1422840022,
				"z": -4.2320233828,
				"element": "H" 
			},
			{
				"x": 8.1542524256,
				"y": 1.0843002178,
				"z": -3.4135702103,
				"element": "H" 
			},
			{
				"x": 9.1310971178,
				"y": 2.2504788787,
				"z": -4.3269582522,
				"element": "H" 
			},
			{
				"x": 9.2792004237,
				"y": 0.5210924426,
				"z": -4.6681866136,
				"element": "H" 
			},
			{
				"x": 9.056999915,
				"y": 1.5427686696,
				"z": -6.9291411123,
				"element": "H" 
			},
			{
				"x": 7.9970495853,
				"y": 2.9455819131,
				"z": -6.8694426458,
				"element": "H" 
			},
			{
				"x": 7.4894015845,
				"y": 0.2742207021,
				"z": -8.1921322475,
				"element": "H" 
			},
			{
				"x": 7.073882725,
				"y": 1.7916896888,
				"z": -9.8933097652,
				"element": "H" 
			},
			{
				"x": 5.4371253547,
				"y": 2.4210555313,
				"z": -7.4905818276,
				"element": "H" 
			},
			{
				"x": 5.1378361964,
				"y": 1.0807973569,
				"z": -8.6001792707,
				"element": "H" 
			},
			{
				"x": 4.8605515917,
				"y": -1.1916030632,
				"z": -7.8696094801,
				"element": "H" 
			},
			{
				"x": 6.4249007568,
				"y": -1.3346364309,
				"z": -7.0562773265,
				"element": "H" 
			},
			{
				"x": 4.9293414985,
				"y": -1.6659541481,
				"z": -6.1752401404,
				"element": "H" 
			},
			{
				"x": 3.4335669629,
				"y": 0.1560526534,
				"z": -5.3755721117,
				"element": "H" 
			},
			{
				"x": 3.7024272024,
				"y": 1.8377156347,
				"z": -5.8623475641,
				"element": "H" 
			},
			{
				"x": 3.1627197927,
				"y": 0.6438390366,
				"z": -7.0578688428,
				"element": "H" 
			},
			{
				"x": 3.3742468671,
				"y": -4.5295532668,
				"z": 3.053031453,
				"element": "H" 
			},
			{
				"x": 2.0297208607,
				"y": -2.2557641437,
				"z": 1.4281355358,
				"element": "H" 
			},
			{
				"x": 1.1419420445,
				"y": -4.034641573,
				"z": 3.754672595,
				"element": "H" 
			},
			{
				"x": -0.204050263,
				"y": -1.7598410991,
				"z": 2.1322005582,
				"element": "H" 
			},
			{
				"x": -0.5399060095,
				"y": -4.2924853887,
				"z": 4.8962141157,
				"element": "H" 
			},
			{
				"x": -1.6181157156,
				"y": -3.1814005658,
				"z": 5.7435246635,
				"element": "H" 
			},
			{
				"x": -2.2807575113,
				"y": -4.3516128238,
				"z": 4.6059830741,
				"element": "H" 
			},
			{
				"x": -2.2820141031,
				"y": -1.0931067881,
				"z": 2.5776776088,
				"element": "H" 
			},
			{
				"x": -3.7125759092,
				"y": -2.4430468787,
				"z": 4.9264553039,
				"element": "H" 
			},
			{
				"x": -5.424370395,
				"y": -0.8371520589,
				"z": 4.7009004014,
				"element": "H" 
			},
			{
				"x": -5.2784153518,
				"y": -0.4122513556,
				"z": 0.5475473084,
				"element": "H" 
			},
			{
				"x": -3.7799459377,
				"y": 0.2779877566,
				"z": 1.1548448656,
				"element": "H" 
			},
			{
				"x": -4.0414273351,
				"y": -1.4670375665,
				"z": 1.2626713916,
				"element": "H" 
			},
			{
				"x": -6.9280129195,
				"y": 0.6117262487,
				"z": 1.7778288594,
				"element": "H" 
			},
			{
				"x": -6.242662759,
				"y": 1.3056482426,
				"z": 4.6822552122,
				"element": "H" 
			},
			{
				"x": -10.5331569416,
				"y": -0.2300626539,
				"z": 3.772871028,
				"element": "H" 
			},
			{
				"x": -8.7809647276,
				"y": -0.5037577939,
				"z": 3.7170269213,
				"element": "H" 
			},
			{
				"x": -9.6721303703,
				"y": -0.1133861266,
				"z": 2.231927792,
				"element": "H" 
			},
			{
				"x": -10.667178801,
				"y": 2.3602562893,
				"z": 2.0191206577,
				"element": "H" 
			},
			{
				"x": -11.4771175211,
				"y": 2.066163699,
				"z": 3.5553358373,
				"element": "H" 
			},
			{
				"x": -10.3952128368,
				"y": 4.0154411193,
				"z": 4.5586831237,
				"element": "H" 
			},
			{
				"x": -11.3778447187,
				"y": 5.5411169441,
				"z": 3.1319519783,
				"element": "H" 
			},
			{
				"x": -8.9146382792,
				"y": 5.4777450393,
				"z": 3.1012761895,
				"element": "H" 
			},
			{
				"x": -9.0402853108,
				"y": 4.259009192,
				"z": 1.8395643251,
				"element": "H" 
			},
			{
				"x": -6.4854635232,
				"y": 3.831111247,
				"z": 5.2876380049,
				"element": "H" 
			},
			{
				"x": -7.1504099145,
				"y": 5.3777551672,
				"z": 4.7485393581,
				"element": "H" 
			},
			{
				"x": -8.1817300903,
				"y": 4.207781179,
				"z": 5.6032894587,
				"element": "H" 
			},
			{
				"x": -6.5027940324,
				"y": 4.9806155134,
				"z": 2.3114548816,
				"element": "H" 
			},
			{
				"x": -6.7910466351,
				"y": 3.402464169,
				"z": 1.5657573615,
				"element": "H" 
			},
			{
				"x": -5.6530715711,
				"y": 3.5473413048,
				"z": 2.9106330171,
				"element": "H" 
			}
		],
		 "valence_orbital": [ 
			{
				"type": "occ",
				"energy": -0.25459,
				"method": "rhf"
			},
			{
				"type": "occ",
				"energy": -0.2509,
				"method": "rhf"
			},
			{
				"type": "occ",
				"energy": -0.22877,
				"method": "rhf"
			},
			{
				"type": "occ",
				"energy": -0.20308,
				"method": "rhf"
			},
			{
				"type": "occ",
				"energy": -0.17177,
				"method": "rhf"
			},
			{
				"type": "unocc",
				"energy": -0.08041,
				"method": "rhf"
			},
			{
				"type": "unocc",
				"energy": -0.0466,
				"method": "rhf"
			},
			{
				"type": "unocc",
				"energy": -0.01496,
				"method": "rhf"
			},
			{
				"type": "unocc",
				"energy": 0.01855,
				"method": "rhf"
			},
			{
				"type": "unocc",
				"energy": 0.04278,
				"method": "rhf"
			}
		],
		"cosmo_sigma_profile": { 
			"-0.025": 0.0,
			"-0.024": 0.0,
			"-0.023": 0.0,
			"-0.022": 0.0,
			"-0.021": 0.0,
			"-0.02": 0.0,
			"-0.019": 0.0,
			"-0.018": 0.0,
			"-0.017": 0.0,
			"-0.016": 0.0164877335718,
			"-0.015": 1.30815448296,
			"-0.014": 1.9718539406,
			"-0.013": 1.77216837246,
			"-0.012": 2.57441860569,
			"-0.011": 1.13755308389,
			"-0.01": 1.66797837796,
			"-0.009": 2.21215349139,
			"-0.008": 2.26340954168,
			"-0.007": 2.56764996943,
			"-0.006": 5.79290212572,
			"-0.005": 21.7387043822,
			"-0.004": 67.1084763974,
			"-0.003": 91.8043069504,
			"-0.002": 98.01977209,
			"-0.001": 80.2810476302,
			"0.0": 86.0371402784,
			"0.001": 74.2556234006,
			"0.002": 45.0465740334,
			"0.003": 30.7150957861,
			"0.004": 32.4720549171,
			"0.005": 35.8813768682,
			"0.006": 22.2503835885,
			"0.007": 5.52784170775,
			"0.008": 5.3445160383,
			"0.009": 6.19540990053,
			"0.01": 5.20256867875,
			"0.011": 6.09021196178,
			"0.012": 6.2474227993,
			"0.013": 4.12427354265,
			"0.014": 4.73636489427,
			"0.015": 0.878531065754,
			"0.016": 0.0,
			"0.017": 0.0,
			"0.018": 0.0,
			"0.019": 0.0,
			"0.02": 0.0,
			"0.021": 0.0,
			"0.022": 0.0,
			"0.023": 0.0,
			"0.024": 0.0,
			"0.025": 0.0
		}
	}
}
