{
	 "smiles": "CC(=O)N[C@H]1CC=C/C[C@H](CC=C/C1)NC(C)=O", 
	 "Tm": 545.15, 
	 "num_atms": 40, 
	 "gaussian": { 
		 "optdone": 1, 
		 "sigma_profile": "yes", 
		 "theory": "DFT", 
		 "functional": "B3LYP", 
		 "basiset": "6-31G**", 
		 "properties": { 
			 "R2extent": 7241.8788, 
			 "electric_dipole_moment_norm": 2.15586568691, 
			 "electric_quadrupole_moment_norm": 35.134896952, 
			 "total_energy": -806.706305944, 
			 "HOMO_LUMO_gap": 0.24099, 
			 "cosmo_polarized_energy": -22.01, 
			 "cosmo_cavitation_energy": 40.48, 
			 "cosmo_dispersion_energy": -27.8, 
			 "cosmo_repulsion_energy": 2.17, 
			 "cosmo_total_nonelectrostatic_energy": 14.85, 
			 "SMD_solvation_energy": 7.49 
		},
		"coords": [
			{
				"x": -4.1521165278,
				"y": -3.3211204088,
				"z": -0.0396922678,
				"element": "C" 
			},
			{
				"x": -3.401334601,
				"y": -2.4660909744,
				"z": -1.0504011031,
				"element": "C" 
			},
			{
				"x": -3.8915656753,
				"y": -2.157720315,
				"z": -2.1305128858,
				"element": "O" 
			},
			{
				"x": -2.1448793958,
				"y": -2.0727585903,
				"z": -0.6750049231,
				"element": "N" 
			},
			{
				"x": -1.3051568082,
				"y": -1.234441127,
				"z": -1.5287384708,
				"element": "C" 
			},
			{
				"x": -1.5975184378,
				"y": 0.2765497473,
				"z": -1.3304248801,
				"element": "C" 
			},
			{
				"x": -1.2678612855,
				"y": 0.7965056423,
				"z": 0.0430802872,
				"element": "C" 
			},
			{
				"x": -0.3243427426,
				"y": 1.6877231912,
				"z": 0.3795735264,
				"element": "C" 
			},
			{
				"x": 0.6403976279,
				"y": 2.3911307586,
				"z": -0.5386516935,
				"element": "C" 
			},
			{
				"x": 2.130992716,
				"y": 2.0173601271,
				"z": -0.304742708,
				"element": "C" 
			},
			{
				"x": 2.4133012041,
				"y": 0.509349074,
				"z": -0.5140157722,
				"element": "C" 
			},
			{
				"x": 2.0591296252,
				"y": 0.0150792735,
				"z": -1.8912715938,
				"element": "C" 
			},
			{
				"x": 1.1177435604,
				"y": -0.8776041932,
				"z": -2.2244496345,
				"element": "C" 
			},
			{
				"x": 0.1761843832,
				"y": -1.6093500365,
				"z": -1.3051029568,
				"element": "C" 
			},
			{
				"x": 2.6020295453,
				"y": 2.4065472472,
				"z": 1.0211903892,
				"element": "N" 
			},
			{
				"x": 3.2476267751,
				"y": 3.5546827807,
				"z": 1.4131193017,
				"element": "C" 
			},
			{
				"x": 3.6685728551,
				"y": 4.5268504866,
				"z": 0.320298335,
				"element": "C" 
			},
			{
				"x": 3.4864455322,
				"y": 3.7660275964,
				"z": 2.5954538378,
				"element": "O" 
			},
			{
				"x": -4.4439446828,
				"y": -4.2571763845,
				"z": -0.5231020824,
				"element": "H" 
			},
			{
				"x": -5.0719185258,
				"y": -2.8031403608,
				"z": 0.2459826858,
				"element": "H" 
			},
			{
				"x": -3.5782418171,
				"y": -3.5503060689,
				"z": 0.8627862261,
				"element": "H" 
			},
			{
				"x": -1.8097797824,
				"y": -2.3120938035,
				"z": 0.2460996053,
				"element": "H" 
			},
			{
				"x": -1.5938125683,
				"y": -1.4817786475,
				"z": -2.5553005899,
				"element": "H" 
			},
			{
				"x": -1.0541121239,
				"y": 0.8285143105,
				"z": -2.1018280076,
				"element": "H" 
			},
			{
				"x": -2.6666769478,
				"y": 0.4165997478,
				"z": -1.5310616583,
				"element": "H" 
			},
			{
				"x": -1.8831130115,
				"y": 0.3937165882,
				"z": 0.8484942774,
				"element": "H" 
			},
			{
				"x": -0.236616743,
				"y": 1.9539983092,
				"z": 1.4332269705,
				"element": "H" 
			},
			{
				"x": 0.4009123984,
				"y": 2.1908650936,
				"z": -1.586267734,
				"element": "H" 
			},
			{
				"x": 0.5488947697,
				"y": 3.4755922882,
				"z": -0.3908044244,
				"element": "H" 
			},
			{
				"x": 2.722725646,
				"y": 2.5764871753,
				"z": -1.0364659024,
				"element": "H" 
			},
			{
				"x": 1.8744023231,
				"y": -0.0542678094,
				"z": 0.2540569385,
				"element": "H" 
			},
			{
				"x": 3.4839575293,
				"y": 0.3506021847,
				"z": -0.3317070098,
				"element": "H" 
			},
			{
				"x": 2.649322624,
				"y": 0.4475771917,
				"z": -2.7004610371,
				"element": "H" 
			},
			{
				"x": 0.9991921979,
				"y": -1.1135329752,
				"z": -3.282555083,
				"element": "H" 
			},
			{
				"x": 0.4364385372,
				"y": -1.4260503445,
				"z": -0.2570238622,
				"element": "H" 
			},
			{
				"x": 0.2734186422,
				"y": -2.6899525449,
				"z": -1.4747907232,
				"element": "H" 
			},
			{
				"x": 2.3327104766,
				"y": 1.8238904147,
				"z": 1.8044421956,
				"element": "H" 
			},
			{
				"x": 2.8133711085,
				"y": 4.8787177961,
				"z": -0.2660072439,
				"element": "H" 
			},
			{
				"x": 4.3803051904,
				"y": 4.0649044743,
				"z": -0.3725230766,
				"element": "H" 
			},
			{
				"x": 4.1458164089,
				"y": 5.3788130853,
				"z": 0.8035027476,
				"element": "H" 
			}
		],
		 "valence_orbital": [ 
			{
				"type": "occ",
				"energy": -0.26305,
				"method": "rhf"
			},
			{
				"type": "occ",
				"energy": -0.25106,
				"method": "rhf"
			},
			{
				"type": "occ",
				"energy": -0.24613,
				"method": "rhf"
			},
			{
				"type": "occ",
				"energy": -0.24176,
				"method": "rhf"
			},
			{
				"type": "occ",
				"energy": -0.23522,
				"method": "rhf"
			},
			{
				"type": "unocc",
				"energy": 0.00577,
				"method": "rhf"
			},
			{
				"type": "unocc",
				"energy": 0.00824,
				"method": "rhf"
			},
			{
				"type": "unocc",
				"energy": 0.02895,
				"method": "rhf"
			},
			{
				"type": "unocc",
				"energy": 0.03157,
				"method": "rhf"
			},
			{
				"type": "unocc",
				"energy": 0.06745,
				"method": "rhf"
			}
		],
		"cosmo_sigma_profile": { 
			"-0.025": 0.0,
			"-0.024": 0.0,
			"-0.023": 0.0,
			"-0.022": 0.0,
			"-0.021": 0.0,
			"-0.02": 0.0,
			"-0.019": 0.0,
			"-0.018": 0.0,
			"-0.017": 0.0,
			"-0.016": 0.0,
			"-0.015": 0.0,
			"-0.014": 0.107711964502,
			"-0.013": 1.11504269704,
			"-0.012": 1.23503485326,
			"-0.011": 2.29874944886,
			"-0.01": 2.69699598506,
			"-0.009": 2.46601945051,
			"-0.008": 2.96255505386,
			"-0.007": 3.10566551107,
			"-0.006": 7.56807258863,
			"-0.005": 21.6708656334,
			"-0.004": 31.9025385008,
			"-0.003": 36.7804292549,
			"-0.002": 38.2218562671,
			"-0.001": 36.5558054587,
			"0.0": 28.1574928985,
			"0.001": 16.0376855532,
			"0.002": 12.0938829765,
			"0.003": 10.0154924034,
			"0.004": 8.56674016719,
			"0.005": 5.35078972409,
			"0.006": 6.30775792317,
			"0.007": 3.21933622321,
			"0.008": 2.73429051276,
			"0.009": 2.92783296995,
			"0.01": 2.09434061732,
			"0.011": 3.30275934043,
			"0.012": 3.03900072185,
			"0.013": 4.0614605661,
			"0.014": 10.8677142957,
			"0.015": 6.90493067289,
			"0.016": 0.738875685099,
			"0.017": 0.0,
			"0.018": 0.0,
			"0.019": 0.0,
			"0.02": 0.0,
			"0.021": 0.0,
			"0.022": 0.0,
			"0.023": 0.0,
			"0.024": 0.0,
			"0.025": 0.0
		}
	}
}
