{
	 "smiles": "FC(F)(F)C1=CC2=C(NC(S)=N2)C=C1", 
	 "Tm": 551.15, 
	 "num_atms": 19, 
	 "gaussian": { 
		 "optdone": 1, 
		 "sigma_profile": "yes", 
		 "theory": "DFT", 
		 "functional": "B3LYP", 
		 "basiset": "6-31G**", 
		 "properties": { 
			 "R2extent": 4782.4993, 
			 "electric_dipole_moment_norm": 4.59880602874, 
			 "electric_quadrupole_moment_norm": 4.85621320475, 
			 "total_energy": -1115.08972583, 
			 "HOMO_LUMO_gap": 0.1992, 
			 "cosmo_polarized_energy": -12.96, 
			 "cosmo_cavitation_energy": 27.01, 
			 "cosmo_dispersion_energy": -20.25, 
			 "cosmo_repulsion_energy": 1.48, 
			 "cosmo_total_nonelectrostatic_energy": 8.24, 
			 "SMD_solvation_energy": 3.06 
		},
		"coords": [
			{
				"x": 2.6436269126,
				"y": 2.7151437471,
				"z": 1.5133090432,
				"element": "F" 
			},
			{
				"x": 2.3946440964,
				"y": 2.5959594433,
				"z": 0.1863838465,
				"element": "C" 
			},
			{
				"x": 3.5901718227,
				"y": 2.6185352953,
				"z": -0.4415848782,
				"element": "F" 
			},
			{
				"x": 1.7244300866,
				"y": 3.7151060264,
				"z": -0.1777597308,
				"element": "F" 
			},
			{
				"x": 1.6099450352,
				"y": 1.3517817677,
				"z": -0.1244052689,
				"element": "C" 
			},
			{
				"x": 2.2570342738,
				"y": 0.2302019607,
				"z": -0.6391559387,
				"element": "C" 
			},
			{
				"x": 1.491310491,
				"y": -0.9163436566,
				"z": -0.8655267485,
				"element": "C" 
			},
			{
				"x": 0.1068194153,
				"y": -0.9094459213,
				"z": -0.5704042585,
				"element": "C" 
			},
			{
				"x": -0.3273507183,
				"y": -2.1800432517,
				"z": -0.9121104331,
				"element": "N" 
			},
			{
				"x": 0.7787903143,
				"y": -2.8616485377,
				"z": -1.3782185186,
				"element": "C" 
			},
			{
				"x": 0.6271104493,
				"y": -4.537367798,
				"z": -1.9161480345,
				"element": "S" 
			},
			{
				"x": 1.8776752809,
				"y": -2.1530717244,
				"z": -1.3694511,
				"element": "N" 
			},
			{
				"x": -0.54678406,
				"y": 0.210104767,
				"z": -0.0553881402,
				"element": "C" 
			},
			{
				"x": 0.229383591,
				"y": 1.3432092394,
				"z": 0.1638659825,
				"element": "C" 
			},
			{
				"x": 3.3167121692,
				"y": 0.2421443811,
				"z": -0.8635597922,
				"element": "H" 
			},
			{
				"x": -1.2660894886,
				"y": -2.5402549304,
				"z": -0.836218551,
				"element": "H" 
			},
			{
				"x": 1.9323002587,
				"y": -4.636625883,
				"z": -2.2277392963,
				"element": "H" 
			},
			{
				"x": -1.6098165887,
				"y": 0.2084934402,
				"z": 0.1632721402,
				"element": "H" 
			},
			{
				"x": -0.2335133414,
				"y": 2.2425216349,
				"z": 0.555239677,
				"element": "H" 
			}
		],
		 "valence_orbital": [ 
			{
				"type": "occ",
				"energy": -0.32738,
				"method": "rhf"
			},
			{
				"type": "occ",
				"energy": -0.29622,
				"method": "rhf"
			},
			{
				"type": "occ",
				"energy": -0.29113,
				"method": "rhf"
			},
			{
				"type": "occ",
				"energy": -0.24733,
				"method": "rhf"
			},
			{
				"type": "occ",
				"energy": -0.22915,
				"method": "rhf"
			},
			{
				"type": "unocc",
				"energy": -0.02995,
				"method": "rhf"
			},
			{
				"type": "unocc",
				"energy": -0.00807,
				"method": "rhf"
			},
			{
				"type": "unocc",
				"energy": -0.00743,
				"method": "rhf"
			},
			{
				"type": "unocc",
				"energy": 0.03725,
				"method": "rhf"
			},
			{
				"type": "unocc",
				"energy": 0.0566,
				"method": "rhf"
			}
		],
		"cosmo_sigma_profile": { 
			"-0.025": 0.0,
			"-0.024": 0.0,
			"-0.023": 0.0,
			"-0.022": 0.0,
			"-0.021": 0.0,
			"-0.02": 0.0,
			"-0.019": 0.0,
			"-0.018": 0.415090641341,
			"-0.017": 1.5498532245,
			"-0.016": 1.94787164721,
			"-0.015": 0.763593092825,
			"-0.014": 1.24512069794,
			"-0.013": 1.78217022073,
			"-0.012": 2.49672550507,
			"-0.011": 2.45080236217,
			"-0.01": 2.1332347182,
			"-0.009": 2.3039499182,
			"-0.008": 4.49249542378,
			"-0.007": 6.06305285033,
			"-0.006": 6.83448000639,
			"-0.005": 7.81708664159,
			"-0.004": 7.06849101174,
			"-0.003": 5.94141780462,
			"-0.002": 9.54536849199,
			"-0.001": 10.194005214,
			"0.0": 14.8745025403,
			"0.001": 19.6380002068,
			"0.002": 26.3546539319,
			"0.003": 47.6295254357,
			"0.004": 16.8355531475,
			"0.005": 5.08065648649,
			"0.006": 4.07766515582,
			"0.007": 2.47465434632,
			"0.008": 1.03168056995,
			"0.009": 1.23138840217,
			"0.01": 0.69243040238,
			"0.011": 0.669461922322,
			"0.012": 1.67727899933,
			"0.013": 0.690629495053,
			"0.014": 0.806210876591,
			"0.015": 0.899320478188,
			"0.016": 0.45454492087,
			"0.017": 0.0138307456472,
			"0.018": 0.0,
			"0.019": 0.0,
			"0.02": 0.0,
			"0.021": 0.0,
			"0.022": 0.0,
			"0.023": 0.0,
			"0.024": 0.0,
			"0.025": 0.0
		}
	}
}
