{
	 "smiles": "NS(=O)(=O)C1=C(F)C=C(Br)C(F)=C1", 
	 "Tm": 438.15, 
	 "num_atms": 17, 
	 "gaussian": { 
		 "optdone": 1, 
		 "sigma_profile": "yes", 
		 "theory": "DFT", 
		 "functional": "B3LYP", 
		 "basiset": "6-31G**", 
		 "properties": { 
			 "R2extent": 5763.1764, 
			 "electric_dipole_moment_norm": 4.80412404919, 
			 "electric_quadrupole_moment_norm": 14.9883909043, 
			 "total_energy": -3605.42516799, 
			 "HOMO_LUMO_gap": 0.20299, 
			 "cosmo_polarized_energy": -16.31, 
			 "cosmo_cavitation_energy": 26.43, 
			 "cosmo_dispersion_energy": -20.26, 
			 "cosmo_repulsion_energy": 1.51, 
			 "cosmo_total_nonelectrostatic_energy": 7.69, 
			 "SMD_solvation_energy": 3.89 
		},
		"coords": [
			{
				"x": -2.8636544385,
				"y": 0.2900738893,
				"z": -0.9896247294,
				"element": "N" 
			},
			{
				"x": -1.8852685391,
				"y": 1.6219128778,
				"z": -0.7512915419,
				"element": "S" 
			},
			{
				"x": -1.9367584526,
				"y": 1.9250009636,
				"z": 0.6765626733,
				"element": "O" 
			},
			{
				"x": -2.2398862304,
				"y": 2.5926802803,
				"z": -1.77879398,
				"element": "O" 
			},
			{
				"x": -0.1997358469,
				"y": 1.0714284497,
				"z": -1.0862122581,
				"element": "C" 
			},
			{
				"x": 0.1431141648,
				"y": 0.4694784271,
				"z": -2.2967377544,
				"element": "C" 
			},
			{
				"x": -0.8193128383,
				"y": 0.2221273982,
				"z": -3.2106817008,
				"element": "F" 
			},
			{
				"x": 1.4463874502,
				"y": 0.0891312774,
				"z": -2.5809754355,
				"element": "C" 
			},
			{
				"x": 2.4383204109,
				"y": 0.326110091,
				"z": -1.6285345925,
				"element": "C" 
			},
			{
				"x": 4.2316076036,
				"y": -0.1713855827,
				"z": -1.9696818768,
				"element": "Br" 
			},
			{
				"x": 2.1038447699,
				"y": 0.9287020374,
				"z": -0.4133606374,
				"element": "C" 
			},
			{
				"x": 3.0528395276,
				"y": 1.151763756,
				"z": 0.5039319462,
				"element": "F" 
			},
			{
				"x": 0.7944167815,
				"y": 1.3016375622,
				"z": -0.1361097436,
				"element": "C" 
			},
			{
				"x": -2.7327988083,
				"y": -0.430216688,
				"z": -0.286715098,
				"element": "H" 
			},
			{
				"x": -2.8321589038,
				"y": -0.0532149377,
				"z": -1.9446637369,
				"element": "H" 
			},
			{
				"x": 1.6788584338,
				"y": -0.3812467714,
				"z": -3.5284584926,
				"element": "H" 
			},
			{
				"x": 0.5458849158,
				"y": 1.7663169698,
				"z": 0.8113469583,
				"element": "H" 
			}
		],
		 "valence_orbital": [ 
			{
				"type": "occ",
				"energy": -0.31999,
				"method": "rhf"
			},
			{
				"type": "occ",
				"energy": -0.31563,
				"method": "rhf"
			},
			{
				"type": "occ",
				"energy": -0.31341,
				"method": "rhf"
			},
			{
				"type": "occ",
				"energy": -0.28867,
				"method": "rhf"
			},
			{
				"type": "occ",
				"energy": -0.26825,
				"method": "rhf"
			},
			{
				"type": "unocc",
				"energy": -0.06526,
				"method": "rhf"
			},
			{
				"type": "unocc",
				"energy": -0.0375,
				"method": "rhf"
			},
			{
				"type": "unocc",
				"energy": -0.0245,
				"method": "rhf"
			},
			{
				"type": "unocc",
				"energy": 0.04439,
				"method": "rhf"
			},
			{
				"type": "unocc",
				"energy": 0.05065,
				"method": "rhf"
			}
		],
		"cosmo_sigma_profile": { 
			"-0.025": 0.0,
			"-0.024": 0.0,
			"-0.023": 0.0,
			"-0.022": 0.0,
			"-0.021": 0.0,
			"-0.02": 0.0,
			"-0.019": 0.0,
			"-0.018": 0.0,
			"-0.017": 0.0,
			"-0.016": 0.922520323475,
			"-0.015": 1.84498686686,
			"-0.014": 2.08877646645,
			"-0.013": 2.92237747445,
			"-0.012": 2.40898051062,
			"-0.011": 1.84928315086,
			"-0.01": 3.19930081901,
			"-0.009": 4.77341776538,
			"-0.008": 4.33304872003,
			"-0.007": 4.92121695822,
			"-0.006": 5.21293864831,
			"-0.005": 6.50446919171,
			"-0.004": 7.72529753341,
			"-0.003": 14.6835978316,
			"-0.002": 21.9255186959,
			"-0.001": 19.7140481921,
			"0.0": 10.3498309756,
			"0.001": 10.5986940461,
			"0.002": 17.3585763749,
			"0.003": 23.5735213041,
			"0.004": 8.04844719117,
			"0.005": 3.97645026963,
			"0.006": 4.1686659999,
			"0.007": 4.88072147207,
			"0.008": 3.75375002608,
			"0.009": 6.3321173829,
			"0.01": 10.8931035584,
			"0.011": 7.10141675299,
			"0.012": 0.179333759853,
			"0.013": 0.0,
			"0.014": 0.0,
			"0.015": 0.0,
			"0.016": 0.0,
			"0.017": 0.0,
			"0.018": 0.0,
			"0.019": 0.0,
			"0.02": 0.0,
			"0.021": 0.0,
			"0.022": 0.0,
			"0.023": 0.0,
			"0.024": 0.0,
			"0.025": 0.0
		}
	}
}
