{
	 "smiles": "CCCCCCC#N", 
	 "Tm": 209.65, 
	 "num_atms": 21, 
	 "gaussian": { 
		 "optdone": 1, 
		 "sigma_profile": "yes", 
		 "theory": "DFT", 
		 "functional": "B3LYP", 
		 "basiset": "6-31G**", 
		 "properties": { 
			 "R2extent": 1639.0248, 
			 "electric_dipole_moment_norm": 3.73133671491, 
			 "electric_quadrupole_moment_norm": 10.0915897608, 
			 "total_energy": -329.331452965, 
			 "HOMO_LUMO_gap": 0.34102, 
			 "cosmo_polarized_energy": -8.19, 
			 "cosmo_cavitation_energy": 23.53, 
			 "cosmo_dispersion_energy": -16.21, 
			 "cosmo_repulsion_energy": 1.37, 
			 "cosmo_total_nonelectrostatic_energy": 8.69, 
			 "SMD_solvation_energy": 4.86 
		},
		"coords": [
			{
				"x": 2.3127715333,
				"y": -1.6582584155,
				"z": 1.2390632784,
				"element": "C" 
			},
			{
				"x": 0.9219484829,
				"y": -1.2592526108,
				"z": 1.7426109238,
				"element": "C" 
			},
			{
				"x": -0.0411207594,
				"y": -0.90746642,
				"z": 0.6004999436,
				"element": "C" 
			},
			{
				"x": -1.4742744671,
				"y": -0.5671523893,
				"z": 1.0457126324,
				"element": "C" 
			},
			{
				"x": -1.6518587619,
				"y": 0.6624488344,
				"z": 1.9532677382,
				"element": "C" 
			},
			{
				"x": -1.3111675565,
				"y": 2.0247723511,
				"z": 1.3018006282,
				"element": "C" 
			},
			{
				"x": 0.1233165139,
				"y": 2.3040389326,
				"z": 1.1784131773,
				"element": "C" 
			},
			{
				"x": 1.2584693048,
				"y": 2.5357307465,
				"z": 1.09931991,
				"element": "N" 
			},
			{
				"x": 2.9785737268,
				"y": -1.9175331883,
				"z": 2.0685872369,
				"element": "H" 
			},
			{
				"x": 2.7775462512,
				"y": -0.8359344277,
				"z": 0.6844622074,
				"element": "H" 
			},
			{
				"x": 2.2601188981,
				"y": -2.5251325335,
				"z": 0.5700624546,
				"element": "H" 
			},
			{
				"x": 0.4936849873,
				"y": -2.0783608828,
				"z": 2.3375788913,
				"element": "H" 
			},
			{
				"x": 1.0243982371,
				"y": -0.404188448,
				"z": 2.4216028826,
				"element": "H" 
			},
			{
				"x": -0.0984131248,
				"y": -1.7613337327,
				"z": -0.0882426079,
				"element": "H" 
			},
			{
				"x": 0.3816378438,
				"y": -0.0812135207,
				"z": 0.0159844987,
				"element": "H" 
			},
			{
				"x": -1.8923973396,
				"y": -1.4325630113,
				"z": 1.5773611028,
				"element": "H" 
			},
			{
				"x": -2.1018054117,
				"y": -0.4315651015,
				"z": 0.1539653886,
				"element": "H" 
			},
			{
				"x": -2.7040436992,
				"y": 0.7161133078,
				"z": 2.2557854074,
				"element": "H" 
			},
			{
				"x": -1.0727945612,
				"y": 0.5531040622,
				"z": 2.8763224173,
				"element": "H" 
			},
			{
				"x": -1.763026757,
				"y": 2.091547449,
				"z": 0.3042122931,
				"element": "H" 
			},
			{
				"x": -1.7462633408,
				"y": 2.8362989985,
				"z": 1.8970295954,
				"element": "H" 
			}
		],
		 "valence_orbital": [ 
			{
				"type": "occ",
				"energy": -0.32927,
				"method": "rhf"
			},
			{
				"type": "occ",
				"energy": -0.32753,
				"method": "rhf"
			},
			{
				"type": "occ",
				"energy": -0.31685,
				"method": "rhf"
			},
			{
				"type": "occ",
				"energy": -0.31423,
				"method": "rhf"
			},
			{
				"type": "occ",
				"energy": -0.30857,
				"method": "rhf"
			},
			{
				"type": "unocc",
				"energy": 0.03245,
				"method": "rhf"
			},
			{
				"type": "unocc",
				"energy": 0.04056,
				"method": "rhf"
			},
			{
				"type": "unocc",
				"energy": 0.07855,
				"method": "rhf"
			},
			{
				"type": "unocc",
				"energy": 0.10908,
				"method": "rhf"
			},
			{
				"type": "unocc",
				"energy": 0.11451,
				"method": "rhf"
			}
		],
		"cosmo_sigma_profile": { 
			"-0.025": 0.0,
			"-0.024": 0.0,
			"-0.023": 0.0,
			"-0.022": 0.0,
			"-0.021": 0.0,
			"-0.02": 0.0,
			"-0.019": 0.0,
			"-0.018": 0.0,
			"-0.017": 0.0,
			"-0.016": 0.0,
			"-0.015": 0.0,
			"-0.014": 0.0,
			"-0.013": 0.0,
			"-0.012": 0.0,
			"-0.011": 0.0,
			"-0.01": 0.0,
			"-0.009": 0.0,
			"-0.008": 1.83159400401,
			"-0.007": 5.52344778713,
			"-0.006": 5.59182543763,
			"-0.005": 7.11383241589,
			"-0.004": 13.1641951328,
			"-0.003": 13.5631790528,
			"-0.002": 23.0172395988,
			"-0.001": 27.018711519,
			"0.0": 24.2612126396,
			"0.001": 20.5065830272,
			"0.002": 10.8636896165,
			"0.003": 3.12989757127,
			"0.004": 3.35330052146,
			"0.005": 2.44020563056,
			"0.006": 2.31889378926,
			"0.007": 2.69422363905,
			"0.008": 2.14721738758,
			"0.009": 3.23867508675,
			"0.01": 2.61023133593,
			"0.011": 2.92677059167,
			"0.012": 2.36703615378,
			"0.013": 2.44550987252,
			"0.014": 0.967179588893,
			"0.015": 0.0,
			"0.016": 0.0,
			"0.017": 0.0,
			"0.018": 0.0,
			"0.019": 0.0,
			"0.02": 0.0,
			"0.021": 0.0,
			"0.022": 0.0,
			"0.023": 0.0,
			"0.024": 0.0,
			"0.025": 0.0
		}
	}
}
