{
	 "smiles": "CC1=CC=C(NC(=O)CC#N)C=C1", 
	 "Tm": 462.15, 
	 "num_atms": 23, 
	 "gaussian": { 
		 "optdone": 1, 
		 "sigma_profile": "yes", 
		 "theory": "DFT", 
		 "functional": "B3LYP", 
		 "basiset": "6-31G**", 
		 "properties": { 
			 "R2extent": 3772.0674, 
			 "electric_dipole_moment_norm": 7.72396297246, 
			 "electric_quadrupole_moment_norm": 32.5225170966, 
			 "total_energy": -571.81362293, 
			 "HOMO_LUMO_gap": 0.21406, 
			 "cosmo_polarized_energy": -18.49, 
			 "cosmo_cavitation_energy": 28.55, 
			 "cosmo_dispersion_energy": -19.84, 
			 "cosmo_repulsion_energy": 1.59, 
			 "cosmo_total_nonelectrostatic_energy": 10.3, 
			 "SMD_solvation_energy": 7.17 
		},
		"coords": [
			{
				"x": 2.2877444372,
				"y": 2.188298226,
				"z": -1.5741728983,
				"element": "C" 
			},
			{
				"x": 1.3831925171,
				"y": 1.4483070096,
				"z": -0.6177316404,
				"element": "C" 
			},
			{
				"x": -0.0002552859,
				"y": 1.3815717554,
				"z": -0.8427005156,
				"element": "C" 
			},
			{
				"x": -0.8440868215,
				"y": 0.7076269633,
				"z": 0.0350202819,
				"element": "C" 
			},
			{
				"x": -0.3240159305,
				"y": 0.0909450394,
				"z": 1.181407719,
				"element": "C" 
			},
			{
				"x": -1.2096779602,
				"y": -0.561035374,
				"z": 2.0845561778,
				"element": "N" 
			},
			{
				"x": -1.2040780347,
				"y": -1.8533492141,
				"z": 2.5585243138,
				"element": "C" 
			},
			{
				"x": -2.0705899855,
				"y": -2.2588364116,
				"z": 3.3115452732,
				"element": "O" 
			},
			{
				"x": -0.0445002278,
				"y": -2.751490823,
				"z": 2.0876613221,
				"element": "C" 
			},
			{
				"x": -0.3946560159,
				"y": -4.1692670199,
				"z": 2.1547536976,
				"element": "C" 
			},
			{
				"x": -0.6288216751,
				"y": -5.3045732819,
				"z": 2.1788638561,
				"element": "N" 
			},
			{
				"x": 1.0497111745,
				"y": 0.1726206846,
				"z": 1.432145846,
				"element": "C" 
			},
			{
				"x": 1.8890105104,
				"y": 0.8278949099,
				"z": 0.5302542229,
				"element": "C" 
			},
			{
				"x": 3.3396726247,
				"y": 1.9497878867,
				"z": -1.3956677904,
				"element": "H" 
			},
			{
				"x": 2.0570411618,
				"y": 1.9397703757,
				"z": -2.6152827155,
				"element": "H" 
			},
			{
				"x": 2.1727345048,
				"y": 3.2739341505,
				"z": -1.4688467764,
				"element": "H" 
			},
			{
				"x": -0.4219458695,
				"y": 1.8531637192,
				"z": -1.7267523794,
				"element": "H" 
			},
			{
				"x": -1.9095906673,
				"y": 0.6449454686,
				"z": -0.1674649071,
				"element": "H" 
			},
			{
				"x": -2.0479739679,
				"y": -0.0627658458,
				"z": 2.3597046132,
				"element": "H" 
			},
			{
				"x": 0.2695500697,
				"y": -2.4998290337,
				"z": 1.0699656394,
				"element": "H" 
			},
			{
				"x": 0.8232822275,
				"y": -2.5776638113,
				"z": 2.7352491631,
				"element": "H" 
			},
			{
				"x": 1.4595839556,
				"y": -0.2573603459,
				"z": 2.3405384562,
				"element": "H" 
			},
			{
				"x": 2.9549692585,
				"y": 0.8733049723,
				"z": 0.737129041,
				"element": "H" 
			}
		],
		 "valence_orbital": [ 
			{
				"type": "occ",
				"energy": -0.3216,
				"method": "rhf"
			},
			{
				"type": "occ",
				"energy": -0.299,
				"method": "rhf"
			},
			{
				"type": "occ",
				"energy": -0.27368,
				"method": "rhf"
			},
			{
				"type": "occ",
				"energy": -0.27224,
				"method": "rhf"
			},
			{
				"type": "occ",
				"energy": -0.24382,
				"method": "rhf"
			},
			{
				"type": "unocc",
				"energy": -0.02976,
				"method": "rhf"
			},
			{
				"type": "unocc",
				"energy": -0.02606,
				"method": "rhf"
			},
			{
				"type": "unocc",
				"energy": 0.01071,
				"method": "rhf"
			},
			{
				"type": "unocc",
				"energy": 0.0383,
				"method": "rhf"
			},
			{
				"type": "unocc",
				"energy": 0.03995,
				"method": "rhf"
			}
		],
		"cosmo_sigma_profile": { 
			"-0.025": 0.0,
			"-0.024": 0.0,
			"-0.023": 0.0,
			"-0.022": 0.0,
			"-0.021": 0.0,
			"-0.02": 0.0,
			"-0.019": 0.0,
			"-0.018": 0.0,
			"-0.017": 0.0,
			"-0.016": 0.0,
			"-0.015": 0.486356595803,
			"-0.014": 1.10198612653,
			"-0.013": 0.891466030101,
			"-0.012": 1.02522393613,
			"-0.011": 2.00968361978,
			"-0.01": 5.81120046819,
			"-0.009": 5.42545360988,
			"-0.008": 5.60920170605,
			"-0.007": 7.11132666646,
			"-0.006": 9.83486623491,
			"-0.005": 13.8912369009,
			"-0.004": 18.3979656308,
			"-0.003": 13.8809409152,
			"-0.002": 16.5361272496,
			"-0.001": 15.0294651873,
			"0.0": 18.0120624466,
			"0.001": 10.2985888436,
			"0.002": 10.9113478779,
			"0.003": 9.79933964036,
			"0.004": 10.6525886928,
			"0.005": 9.37760576224,
			"0.006": 3.76947388681,
			"0.007": 4.88636766855,
			"0.008": 5.23939231341,
			"0.009": 5.23343807715,
			"0.01": 5.41645312634,
			"0.011": 4.76760357459,
			"0.012": 7.51057968745,
			"0.013": 5.05739290353,
			"0.014": 0.0527299970312,
			"0.015": 0.0,
			"0.016": 0.0,
			"0.017": 0.0,
			"0.018": 0.0,
			"0.019": 0.0,
			"0.02": 0.0,
			"0.021": 0.0,
			"0.022": 0.0,
			"0.023": 0.0,
			"0.024": 0.0,
			"0.0": 0.0
		}
	}
}
