{
	 "smiles": "CC1(C)OC(CO)C(CO)O1", 
	 "Tm": 322.15, 
	 "num_atms": 25, 
	 "gaussian": { 
		 "optdone": 1, 
		 "sigma_profile": "yes", 
		 "theory": "DFT", 
		 "functional": "B3LYP", 
		 "basiset": "6-31G**", 
		 "properties": { 
			 "R2extent": 2332.4385, 
			 "electric_dipole_moment_norm": 2.32490896381, 
			 "electric_quadrupole_moment_norm": 13.0263089381, 
			 "total_energy": -576.053046415, 
			 "HOMO_LUMO_gap": 0.31386, 
			 "cosmo_polarized_energy": -11.83, 
			 "cosmo_cavitation_energy": 26.57, 
			 "cosmo_dispersion_energy": -19.09, 
			 "cosmo_repulsion_energy": 1.57, 
			 "cosmo_total_nonelectrostatic_energy": 9.05, 
			 "SMD_solvation_energy": 4.49 
		},
		"coords": [
			{
				"x": -1.1066103575,
				"y": -3.1531754133,
				"z": -0.5810394248,
				"element": "C" 
			},
			{
				"x": -0.735365513,
				"y": -1.678239059,
				"z": -0.6698141687,
				"element": "C" 
			},
			{
				"x": -0.7811598867,
				"y": -1.1414949058,
				"z": -2.1022390797,
				"element": "C" 
			},
			{
				"x": -1.6064825744,
				"y": -0.9428745529,
				"z": 0.1841380043,
				"element": "O" 
			},
			{
				"x": -0.8384779229,
				"y": 0.1317681932,
				"z": 0.7429485683,
				"element": "C" 
			},
			{
				"x": -1.5940555259,
				"y": 0.6489664804,
				"z": 1.9599380053,
				"element": "C" 
			},
			{
				"x": -2.8590132924,
				"y": 1.1611989599,
				"z": 1.5726765265,
				"element": "O" 
			},
			{
				"x": 0.5447583987,
				"y": -0.5200934994,
				"z": 0.919189757,
				"element": "C" 
			},
			{
				"x": 0.7850932159,
				"y": -1.2380281833,
				"z": 2.2458500276,
				"element": "C" 
			},
			{
				"x": 0.9756845026,
				"y": -0.2398647706,
				"z": 3.2406619339,
				"element": "O" 
			},
			{
				"x": 0.5884219174,
				"y": -1.4782392549,
				"z": -0.1419313552,
				"element": "O" 
			},
			{
				"x": -1.0550649941,
				"y": -3.4856541151,
				"z": 0.4582134836,
				"element": "H" 
			},
			{
				"x": -2.1221330355,
				"y": -3.3142500913,
				"z": -0.9537402084,
				"element": "H" 
			},
			{
				"x": -0.4146631931,
				"y": -3.7515257716,
				"z": -1.1794643251,
				"element": "H" 
			},
			{
				"x": -1.7747622154,
				"y": -1.2906192391,
				"z": -2.5345990484,
				"element": "H" 
			},
			{
				"x": -0.0450685255,
				"y": -1.6612341328,
				"z": -2.7217390566,
				"element": "H" 
			},
			{
				"x": -0.5476601288,
				"y": -0.0739118054,
				"z": -2.1194243741,
				"element": "H" 
			},
			{
				"x": -0.7649653138,
				"y": 0.9526974802,
				"z": 0.0139302788,
				"element": "H" 
			},
			{
				"x": -1.694053257,
				"y": -0.1519727318,
				"z": 2.7054907756,
				"element": "H" 
			},
			{
				"x": -1.039158831,
				"y": 1.4669931524,
				"z": 2.425030757,
				"element": "H" 
			},
			{
				"x": -3.294952388,
				"y": 0.4561161651,
				"z": 1.0741700928,
				"element": "H" 
			},
			{
				"x": 1.347771858,
				"y": 0.2120091743,
				"z": 0.7747927477,
				"element": "H" 
			},
			{
				"x": 1.6730055986,
				"y": -1.8756564864,
				"z": 2.1270032253,
				"element": "H" 
			},
			{
				"x": -0.0707365627,
				"y": -1.8913025299,
				"z": 2.4732507288,
				"element": "H" 
			},
			{
				"x": 1.0739480265,
				"y": -0.6744130629,
				"z": 4.0961061285,
				"element": "H" 
			}
		],
		 "valence_orbital": [ 
			{
				"type": "occ",
				"energy": -0.31491,
				"method": "rhf"
			},
			{
				"type": "occ",
				"energy": -0.27772,
				"method": "rhf"
			},
			{
				"type": "occ",
				"energy": -0.27185,
				"method": "rhf"
			},
			{
				"type": "occ",
				"energy": -0.26168,
				"method": "rhf"
			},
			{
				"type": "occ",
				"energy": -0.25386,
				"method": "rhf"
			},
			{
				"type": "unocc",
				"energy": 0.06,
				"method": "rhf"
			},
			{
				"type": "unocc",
				"energy": 0.08383,
				"method": "rhf"
			},
			{
				"type": "unocc",
				"energy": 0.09769,
				"method": "rhf"
			},
			{
				"type": "unocc",
				"energy": 0.10188,
				"method": "rhf"
			},
			{
				"type": "unocc",
				"energy": 0.1193,
				"method": "rhf"
			}
		],
		"cosmo_sigma_profile": { 
			"-0.025": 0.0,
			"-0.024": 0.0,
			"-0.023": 0.0,
			"-0.022": 0.0,
			"-0.021": 0.0,
			"-0.02": 0.0,
			"-0.019": 0.0,
			"-0.018": 0.0,
			"-0.017": 0.0258484736184,
			"-0.016": 0.788855830484,
			"-0.015": 1.01661520359,
			"-0.014": 1.3009188749,
			"-0.013": 1.04755050426,
			"-0.012": 1.75417261808,
			"-0.011": 1.42352288228,
			"-0.01": 1.19922697661,
			"-0.009": 1.54060054491,
			"-0.008": 1.08185416416,
			"-0.007": 1.87991383021,
			"-0.006": 2.17429769421,
			"-0.005": 10.0737523885,
			"-0.004": 24.7419563672,
			"-0.003": 23.3959195815,
			"-0.002": 21.0512670533,
			"-0.001": 17.268995127,
			"0.0": 20.7647395848,
			"0.001": 13.0878266206,
			"0.002": 6.59291269476,
			"0.003": 4.92994930587,
			"0.004": 6.48563782493,
			"0.005": 6.04064465329,
			"0.006": 4.62918298537,
			"0.007": 4.9291627365,
			"0.008": 4.84525451628,
			"0.009": 4.21615117228,
			"0.01": 3.18672015025,
			"0.011": 3.05071338602,
			"0.012": 3.84944476975,
			"0.013": 3.74032341267,
			"0.014": 2.27899555971,
			"0.015": 0.530014907085,
			"0.016": 0.0,
			"0.017": 0.0,
			"0.018": 0.0,
			"0.019": 0.0,
			"0.02": 0.0,
			"0.021": 0.0,
			"0.022": 0.0,
			"0.023": 0.0,
			"0.024": 0.0,
			"0.025": 0.0
		}
	}
}
