{
	 "smiles": "CCCCN(CCCC)C1=CC=CC=C1", 
	 "Tm": 240.95, 
	 "num_atms": 38, 
	 "gaussian": { 
		 "optdone": 1, 
		 "sigma_profile": "yes", 
		 "theory": "DFT", 
		 "functional": "B3LYP", 
		 "basiset": "6-31G**", 
		 "properties": { 
			 "R2extent": 4255.3461, 
			 "electric_dipole_moment_norm": 1.32849202105, 
			 "electric_quadrupole_moment_norm": 4.37893399242, 
			 "total_energy": -602.116022274, 
			 "HOMO_LUMO_gap": 0.19568, 
			 "cosmo_polarized_energy": -4.61, 
			 "cosmo_cavitation_energy": 38.83, 
			 "cosmo_dispersion_energy": -25.57, 
			 "cosmo_repulsion_energy": 2.04, 
			 "cosmo_total_nonelectrostatic_energy": 15.29, 
			 "SMD_solvation_energy": 6.01 
		},
		"coords": [
			{
				"x": 2.7445622815,
				"y": 1.8754705829,
				"z": -1.1526779359,
				"element": "C" 
			},
			{
				"x": 2.7976275332,
				"y": 0.5753312085,
				"z": -0.3405184701,
				"element": "C" 
			},
			{
				"x": 2.2376613696,
				"y": 0.7060717221,
				"z": 1.0852244564,
				"element": "C" 
			},
			{
				"x": 0.7039818093,
				"y": 0.7664666333,
				"z": 1.175955003,
				"element": "C" 
			},
			{
				"x": 0.0369070986,
				"y": -0.5078173742,
				"z": 0.8560110897,
				"element": "N" 
			},
			{
				"x": 0.0071172058,
				"y": -1.4586733363,
				"z": 1.9703263444,
				"element": "C" 
			},
			{
				"x": 0.218626414,
				"y": -2.9248487355,
				"z": 1.5606373011,
				"element": "C" 
			},
			{
				"x": 1.6077214697,
				"y": -3.2182427613,
				"z": 0.9816114768,
				"element": "C" 
			},
			{
				"x": 1.7881394455,
				"y": -4.6857567051,
				"z": 0.580671711,
				"element": "C" 
			},
			{
				"x": -1.0478070711,
				"y": -0.4899189707,
				"z": -0.0447941996,
				"element": "C" 
			},
			{
				"x": -0.9570169512,
				"y": 0.2445293144,
				"z": -1.2476689097,
				"element": "C" 
			},
			{
				"x": -2.0101676111,
				"y": 0.2751914224,
				"z": -2.1560044448,
				"element": "C" 
			},
			{
				"x": -3.1867450806,
				"y": -0.4386050263,
				"z": -1.9140736666,
				"element": "C" 
			},
			{
				"x": -3.2834209336,
				"y": -1.1829309608,
				"z": -0.740230751,
				"element": "C" 
			},
			{
				"x": -2.2378640025,
				"y": -1.2102059294,
				"z": 0.1843561122,
				"element": "C" 
			},
			{
				"x": 3.1417018177,
				"y": 1.7282114813,
				"z": -2.162383735,
				"element": "H" 
			},
			{
				"x": 3.3385505391,
				"y": 2.6622080708,
				"z": -0.6731877558,
				"element": "H" 
			},
			{
				"x": 1.7233316815,
				"y": 2.2587097628,
				"z": -1.2573003909,
				"element": "H" 
			},
			{
				"x": 2.2520208115,
				"y": -0.2188783259,
				"z": -0.865175066,
				"element": "H" 
			},
			{
				"x": 3.8405252911,
				"y": 0.2400111791,
				"z": -0.282932455,
				"element": "H" 
			},
			{
				"x": 2.5924946792,
				"y": -0.1344986232,
				"z": 1.6940701098,
				"element": "H" 
			},
			{
				"x": 2.643015842,
				"y": 1.6124540534,
				"z": 1.5566660464,
				"element": "H" 
			},
			{
				"x": 0.3167541213,
				"y": 1.5395153825,
				"z": 0.5094982579,
				"element": "H" 
			},
			{
				"x": 0.4178688099,
				"y": 1.0776503045,
				"z": 2.1940257987,
				"element": "H" 
			},
			{
				"x": 0.8153303002,
				"y": -1.1755194599,
				"z": 2.6517880219,
				"element": "H" 
			},
			{
				"x": -0.9236620828,
				"y": -1.3600897463,
				"z": 2.5544379541,
				"element": "H" 
			},
			{
				"x": -0.5460257558,
				"y": -3.2231518161,
				"z": 0.8343101077,
				"element": "H" 
			},
			{
				"x": 0.0542847022,
				"y": -3.5462519833,
				"z": 2.4521085689,
				"element": "H" 
			},
			{
				"x": 2.374347883,
				"y": -2.9440228514,
				"z": 1.7201798715,
				"element": "H" 
			},
			{
				"x": 1.7747801008,
				"y": -2.5739834909,
				"z": 0.1109999793,
				"element": "H" 
			},
			{
				"x": 1.0589076234,
				"y": -4.9792137637,
				"z": -0.1830128991,
				"element": "H" 
			},
			{
				"x": 1.6527244657,
				"y": -5.3537771786,
				"z": 1.4393536106,
				"element": "H" 
			},
			{
				"x": 2.7875988194,
				"y": -4.868682568,
				"z": 0.1724711017,
				"element": "H" 
			},
			{
				"x": -0.0416687685,
				"y": 0.7765792785,
				"z": -1.4818131878,
				"element": "H" 
			},
			{
				"x": -1.9014716057,
				"y": 0.8521170538,
				"z": -3.0707089175,
				"element": "H" 
			},
			{
				"x": -4.0037056695,
				"y": -0.4200089748,
				"z": -2.6286769113,
				"element": "H" 
			},
			{
				"x": -4.1871711442,
				"y": -1.7479767932,
				"z": -0.5270278522,
				"element": "H" 
			},
			{
				"x": -2.3639554387,
				"y": -1.7885620753,
				"z": 1.0912846249,
				"element": "H" 
			}
		],
		 "valence_orbital": [ 
			{
				"type": "occ",
				"energy": -0.32054,
				"method": "rhf"
			},
			{
				"type": "occ",
				"energy": -0.31669,
				"method": "rhf"
			},
			{
				"type": "occ",
				"energy": -0.26817,
				"method": "rhf"
			},
			{
				"type": "occ",
				"energy": -0.23893,
				"method": "rhf"
			},
			{
				"type": "occ",
				"energy": -0.18769,
				"method": "rhf"
			},
			{
				"type": "unocc",
				"energy": 0.00799,
				"method": "rhf"
			},
			{
				"type": "unocc",
				"energy": 0.01925,
				"method": "rhf"
			},
			{
				"type": "unocc",
				"energy": 0.07954,
				"method": "rhf"
			},
			{
				"type": "unocc",
				"energy": 0.09361,
				"method": "rhf"
			},
			{
				"type": "unocc",
				"energy": 0.10253,
				"method": "rhf"
			}
		],
		"cosmo_sigma_profile": { 
			"-0.025": 0.0,
			"-0.024": 0.0,
			"-0.023": 0.0,
			"-0.022": 0.0,
			"-0.021": 0.0,
			"-0.02": 0.0,
			"-0.019": 0.0,
			"-0.018": 0.0,
			"-0.017": 0.0,
			"-0.016": 0.0,
			"-0.015": 0.0,
			"-0.014": 0.0,
			"-0.013": 0.0,
			"-0.012": 0.0,
			"-0.011": 0.0,
			"-0.01": 0.0,
			"-0.009": 0.0,
			"-0.008": 0.00696539869575,
			"-0.007": 0.125154872167,
			"-0.006": 0.422823179877,
			"-0.005": 6.39746331411,
			"-0.004": 12.7494196427,
			"-0.003": 25.0789784334,
			"-0.002": 45.2730534604,
			"-0.001": 52.1053022174,
			"0.0": 45.2901056517,
			"0.001": 46.9013672157,
			"0.002": 26.3094437851,
			"0.003": 8.55758490425,
			"0.004": 7.88265201593,
			"0.005": 8.48426501522,
			"0.006": 7.7727955469,
			"0.007": 7.3472489757,
			"0.008": 2.27468017875,
			"0.009": 0.0,
			"0.01": 0.0,
			"0.011": 0.0,
			"0.012": 0.0,
			"0.013": 0.0,
			"0.014": 0.0,
			"0.015": 0.0,
			"0.016": 0.0,
			"0.017": 0.0,
			"0.018": 0.0,
			"0.019": 0.0,
			"0.02": 0.0,
			"0.021": 0.0,
			"0.022": 0.0,
			"0.023": 0.0,
			"0.024": 0.0,
			"0.025": 0.0
		}
	}
}
