{
	 "smiles": "NS(=O)(=O)C1=C(Cl)C=CC=C1Cl", 
	 "Tm": 450.15, 
	 "num_atms": 17, 
	 "gaussian": { 
		 "optdone": 1, 
		 "sigma_profile": "yes", 
		 "theory": "DFT", 
		 "functional": "B3LYP", 
		 "basiset": "6-31G**", 
		 "properties": { 
			 "R2extent": 3078.1876, 
			 "electric_dipole_moment_norm": 6.37764109683, 
			 "electric_quadrupole_moment_norm": 15.7701987194, 
			 "total_energy": -1755.32839411, 
			 "HOMO_LUMO_gap": 0.20898, 
			 "cosmo_polarized_energy": -17.84, 
			 "cosmo_cavitation_energy": 25.51, 
			 "cosmo_dispersion_energy": -19.93, 
			 "cosmo_repulsion_energy": 1.52, 
			 "cosmo_total_nonelectrostatic_energy": 7.1, 
			 "SMD_solvation_energy": 3.54 
		},
		"coords": [
			{
				"x": 2.4253741968,
				"y": 2.0648230587,
				"z": -0.71009193,
				"element": "N" 
			},
			{
				"x": 1.1766416406,
				"y": 1.5586977906,
				"z": -1.692730182,
				"element": "S" 
			},
			{
				"x": 1.7639696146,
				"y": 0.8900606328,
				"z": -2.8459292075,
				"element": "O" 
			},
			{
				"x": 0.3108133761,
				"y": 2.7206857755,
				"z": -1.8214385192,
				"element": "O" 
			},
			{
				"x": 0.2841777999,
				"y": 0.2515383657,
				"z": -0.7496463768,
				"element": "C" 
			},
			{
				"x": -1.0986126192,
				"y": 0.2986515135,
				"z": -0.4674762705,
				"element": "C" 
			},
			{
				"x": -2.1587812093,
				"y": 1.6030600052,
				"z": -0.9487044668,
				"element": "Cl" 
			},
			{
				"x": -1.7290656619,
				"y": -0.7404570366,
				"z": 0.2263027595,
				"element": "C" 
			},
			{
				"x": -1.0067230447,
				"y": -1.8485788405,
				"z": 0.6460133691,
				"element": "C" 
			},
			{
				"x": 0.3545991746,
				"y": -1.9337526322,
				"z": 0.3725559891,
				"element": "C" 
			},
			{
				"x": 0.9793660471,
				"y": -0.9005323303,
				"z": -0.3204362268,
				"element": "C" 
			},
			{
				"x": 2.7000560998,
				"y": -1.1317746868,
				"z": -0.6155535139,
				"element": "Cl" 
			},
			{
				"x": 3.1063843485,
				"y": 1.3488421385,
				"z": -0.4826518805,
				"element": "H" 
			},
			{
				"x": 2.1098262605,
				"y": 2.6207533535,
				"z": 0.0772147502,
				"element": "H" 
			},
			{
				"x": -2.7919449797,
				"y": -0.6628521907,
				"z": 0.4223929402,
				"element": "H" 
			},
			{
				"x": -1.5039996844,
				"y": -2.6500393384,
				"z": 1.1828183715,
				"element": "H" 
			},
			{
				"x": 0.9371186407,
				"y": -2.7930255786,
				"z": 0.6831603944,
				"element": "H" 
			}
		],
		 "valence_orbital": [ 
			{
				"type": "occ",
				"energy": -0.31569,
				"method": "rhf"
			},
			{
				"type": "occ",
				"energy": -0.30555,
				"method": "rhf"
			},
			{
				"type": "occ",
				"energy": -0.29678,
				"method": "rhf"
			},
			{
				"type": "occ",
				"energy": -0.28249,
				"method": "rhf"
			},
			{
				"type": "occ",
				"energy": -0.26803,
				"method": "rhf"
			},
			{
				"type": "unocc",
				"energy": -0.05905,
				"method": "rhf"
			},
			{
				"type": "unocc",
				"energy": -0.04477,
				"method": "rhf"
			},
			{
				"type": "unocc",
				"energy": -0.02163,
				"method": "rhf"
			},
			{
				"type": "unocc",
				"energy": 0.03517,
				"method": "rhf"
			},
			{
				"type": "unocc",
				"energy": 0.05896,
				"method": "rhf"
			}
		],
		"cosmo_sigma_profile": { 
			"-0.025": 0.0,
			"-0.024": 0.0,
			"-0.023": 0.0,
			"-0.022": 0.0,
			"-0.021": 0.0,
			"-0.02": 0.0,
			"-0.019": 0.0,
			"-0.018": 0.0,
			"-0.017": 0.0,
			"-0.016": 0.882601394347,
			"-0.015": 1.36242351732,
			"-0.014": 1.43631135533,
			"-0.013": 1.97864412654,
			"-0.012": 3.1105571167,
			"-0.011": 1.68070832691,
			"-0.01": 1.95591126283,
			"-0.009": 3.7664861377,
			"-0.008": 8.57704714559,
			"-0.007": 9.42406471107,
			"-0.006": 6.41038169229,
			"-0.005": 6.09476576338,
			"-0.004": 9.41688233917,
			"-0.003": 10.233629439,
			"-0.002": 10.6415951164,
			"-0.001": 18.1488569015,
			"0.0": 20.3070619219,
			"0.001": 16.6095394303,
			"0.002": 11.2943492377,
			"0.003": 11.2172276886,
			"0.004": 8.83991690047,
			"0.005": 4.52653504225,
			"0.006": 4.15565510528,
			"0.007": 5.71581814419,
			"0.008": 5.60480458685,
			"0.009": 5.29894376611,
			"0.01": 11.7397733038,
			"0.011": 8.24529458477,
			"0.012": 0.349041921585,
			"0.013": 0.0,
			"0.014": 0.0,
			"0.015": 0.0,
			"0.016": 0.0,
			"0.017": 0.0,
			"0.018": 0.0,
			"0.019": 0.0,
			"0.02": 0.0,
			"0.021": 0.0,
			"0.022": 0.0,
			"0.023": 0.0,
			"0.024": 0.0,
			"0.025": 0.0
		}
	}
}
