{
	 "smiles": "CN1CCCCCC1=NS(=O)(=O)C1=CC=C(N)C=C1", 
	 "Tm": 497.15, 
	 "num_atms": 38, 
	 "gaussian": { 
		 "optdone": 1, 
		 "sigma_profile": "yes", 
		 "theory": "DFT", 
		 "functional": "B3LYP", 
		 "basiset": "6-31G**", 
		 "properties": { 
			 "R2extent": 5608.6153, 
			 "electric_dipole_moment_norm": 10.5860070858, 
			 "electric_quadrupole_moment_norm": 23.1092785597, 
			 "total_energy": -1219.64970322, 
			 "HOMO_LUMO_gap": 0.19574, 
			 "cosmo_polarized_energy": -28.94, 
			 "cosmo_cavitation_energy": 39.59, 
			 "cosmo_dispersion_energy": -27.78, 
			 "cosmo_repulsion_energy": 2.11, 
			 "cosmo_total_nonelectrostatic_energy": 13.93, 
			 "SMD_solvation_energy": 4.34 
		},
		"coords": [
			{
				"x": 0.9514679264,
				"y": 0.3705071298,
				"z": 2.1683397721,
				"element": "C" 
			},
			{
				"x": 1.2901202391,
				"y": -0.7852367319,
				"z": 1.3327986063,
				"element": "N" 
			},
			{
				"x": 0.6991807261,
				"y": -2.057780368,
				"z": 1.7902489335,
				"element": "C" 
			},
			{
				"x": -0.0574248903,
				"y": -2.8490333451,
				"z": 0.7100047426,
				"element": "C" 
			},
			{
				"x": 0.8291079606,
				"y": -3.7264581988,
				"z": -0.1830632819,
				"element": "C" 
			},
			{
				"x": 1.8870896661,
				"y": -2.9577522159,
				"z": -0.9819885024,
				"element": "C" 
			},
			{
				"x": 2.808055081,
				"y": -2.0780182219,
				"z": -0.1111860942,
				"element": "C" 
			},
			{
				"x": 2.1773645303,
				"y": -0.7497713762,
				"z": 0.300211228,
				"element": "C" 
			},
			{
				"x": 2.5958751604,
				"y": 0.2471013464,
				"z": -0.4359130652,
				"element": "N" 
			},
			{
				"x": 2.0367906413,
				"y": 1.8064265041,
				"z": -0.6475934793,
				"element": "S" 
			},
			{
				"x": 2.2573427652,
				"y": 2.6551072147,
				"z": 0.5426576822,
				"element": "O" 
			},
			{
				"x": 2.6246111277,
				"y": 2.2259651614,
				"z": -1.9205772397,
				"element": "O" 
			},
			{
				"x": 0.2644108944,
				"y": 1.6652157697,
				"z": -0.8940900122,
				"element": "C" 
			},
			{
				"x": -0.2371398842,
				"y": 0.8577353959,
				"z": -1.9210768876,
				"element": "C" 
			},
			{
				"x": -1.6059776458,
				"y": 0.7867339272,
				"z": -2.1450559008,
				"element": "C" 
			},
			{
				"x": -2.5018754657,
				"y": 1.5436379893,
				"z": -1.3623763788,
				"element": "C" 
			},
			{
				"x": -3.8630541888,
				"y": 1.5194231996,
				"z": -1.6269068022,
				"element": "N" 
			},
			{
				"x": -1.980552156,
				"y": 2.368507119,
				"z": -0.3479847165,
				"element": "C" 
			},
			{
				"x": -0.6098163933,
				"y": 2.4300787566,
				"z": -0.1195250802,
				"element": "C" 
			},
			{
				"x": 1.1420626787,
				"y": 0.1089655179,
				"z": 3.2159341172,
				"element": "H" 
			},
			{
				"x": 1.5644935624,
				"y": 1.2298690472,
				"z": 1.9076259176,
				"element": "H" 
			},
			{
				"x": -0.1046856696,
				"y": 0.6392434631,
				"z": 2.0620725723,
				"element": "H" 
			},
			{
				"x": 1.4618745073,
				"y": -2.6908934496,
				"z": 2.2659075163,
				"element": "H" 
			},
			{
				"x": -0.006482694,
				"y": -1.7835105316,
				"z": 2.5771375971,
				"element": "H" 
			},
			{
				"x": -0.7826963257,
				"y": -3.494203002,
				"z": 1.2210967634,
				"element": "H" 
			},
			{
				"x": -0.6378378304,
				"y": -2.141338053,
				"z": 0.1043600537,
				"element": "H" 
			},
			{
				"x": 1.3347984523,
				"y": -4.4683638222,
				"z": 0.4515108985,
				"element": "H" 
			},
			{
				"x": 0.1942340352,
				"y": -4.2968608574,
				"z": -0.8718215475,
				"element": "H" 
			},
			{
				"x": 2.51017552,
				"y": -3.6755140635,
				"z": -1.5275059627,
				"element": "H" 
			},
			{
				"x": 1.4112000496,
				"y": -2.3238852284,
				"z": -1.7406116121,
				"element": "H" 
			},
			{
				"x": 3.1383248911,
				"y": -2.6397149942,
				"z": 0.7718040971,
				"element": "H" 
			},
			{
				"x": 3.6934965606,
				"y": -1.8036328807,
				"z": -0.6847087509,
				"element": "H" 
			},
			{
				"x": 0.4453904718,
				"y": 0.2936950581,
				"z": -2.5487768796,
				"element": "H" 
			},
			{
				"x": -1.9925378216,
				"y": 0.1614797992,
				"z": -2.9459544708,
				"element": "H" 
			},
			{
				"x": -4.4746749063,
				"y": 1.8256696419,
				"z": -0.8847624687,
				"element": "H" 
			},
			{
				"x": -4.2135753036,
				"y": 0.7181015669,
				"z": -2.1304920396,
				"element": "H" 
			},
			{
				"x": -2.6570461069,
				"y": 2.972734654,
				"z": 0.2512687434,
				"element": "H" 
			},
			{
				"x": -0.2055901657,
				"y": 3.0727690783,
				"z": 0.6552919313,
				"element": "H" 
			}
		],
		 "valence_orbital": [ 
			{
				"type": "occ",
				"energy": -0.27106,
				"method": "rhf"
			},
			{
				"type": "occ",
				"energy": -0.26102,
				"method": "rhf"
			},
			{
				"type": "occ",
				"energy": -0.25118,
				"method": "rhf"
			},
			{
				"type": "occ",
				"energy": -0.23095,
				"method": "rhf"
			},
			{
				"type": "occ",
				"energy": -0.21433,
				"method": "rhf"
			},
			{
				"type": "unocc",
				"energy": -0.01859,
				"method": "rhf"
			},
			{
				"type": "unocc",
				"energy": -0.01108,
				"method": "rhf"
			},
			{
				"type": "unocc",
				"energy": -0.00286,
				"method": "rhf"
			},
			{
				"type": "unocc",
				"energy": 0.06454,
				"method": "rhf"
			},
			{
				"type": "unocc",
				"energy": 0.06936,
				"method": "rhf"
			}
		],
		"cosmo_sigma_profile": { 
			"-0.025": 0.0,
			"-0.024": 0.0,
			"-0.023": 0.0,
			"-0.022": 0.0,
			"-0.021": 0.0,
			"-0.02": 0.0,
			"-0.019": 0.0,
			"-0.018": 0.0,
			"-0.017": 0.0,
			"-0.016": 0.0,
			"-0.015": 0.0,
			"-0.014": 0.0532054606102,
			"-0.013": 2.27322822908,
			"-0.012": 3.20785010631,
			"-0.011": 2.77060904778,
			"-0.01": 3.12842010684,
			"-0.009": 3.24469051349,
			"-0.008": 3.07924543315,
			"-0.007": 3.80048206519,
			"-0.006": 14.9436188347,
			"-0.005": 21.09063092,
			"-0.004": 23.2050384996,
			"-0.003": 32.5998311425,
			"-0.002": 38.4037300442,
			"-0.001": 31.4749405049,
			"0.0": 22.0207110872,
			"0.001": 12.4266294666,
			"0.002": 10.8473899533,
			"0.003": 10.7828337549,
			"0.004": 12.1157808169,
			"0.005": 7.54241052749,
			"0.006": 4.25316123305,
			"0.007": 4.72886494748,
			"0.008": 4.10290767866,
			"0.009": 4.19119656476,
			"0.01": 4.76409258631,
			"0.011": 6.11926491823,
			"0.012": 9.44772048474,
			"0.013": 9.09880985689,
			"0.014": 2.45454334114,
			"0.015": 1.55549000575,
			"0.016": 0.892381085497,
			"0.017": 0.0871207428054,
			"0.018": 0.0,
			"0.019": 0.0,
			"0.02": 0.0,
			"0.021": 0.0,
			"0.022": 0.0,
			"0.023": 0.0,
			"0.024": 0.0,
			"0.025": 0.0
		}
	}
}
