{
	 "smiles": "ClCCN1C(=O)CNC1=O", 
	 "Tm": 388.15, 
	 "num_atms": 17, 
	 "gaussian": { 
		 "optdone": 1, 
		 "sigma_profile": "yes", 
		 "theory": "DFT", 
		 "functional": "B3LYP", 
		 "basiset": "6-31G**", 
		 "properties": { 
			 "R2extent": 2502.798, 
			 "electric_dipole_moment_norm": 2.56842468451, 
			 "electric_quadrupole_moment_norm": 18.6072681821, 
			 "total_energy": -914.935423954, 
			 "HOMO_LUMO_gap": 0.25471, 
			 "cosmo_polarized_energy": -16.16, 
			 "cosmo_cavitation_energy": 22.76, 
			 "cosmo_dispersion_energy": -16.7, 
			 "cosmo_repulsion_energy": 1.39, 
			 "cosmo_total_nonelectrostatic_energy": 7.46, 
			 "SMD_solvation_energy": 4.34 
		},
		"coords": [
			{
				"x": 3.9929832052,
				"y": -0.7489211844,
				"z": 0.3743289344,
				"element": "Cl" 
			},
			{
				"x": 2.8768703808,
				"y": 0.4939263469,
				"z": -0.3289330962,
				"element": "C" 
			},
			{
				"x": 1.5682706754,
				"y": -0.1135531765,
				"z": -0.8237107626,
				"element": "C" 
			},
			{
				"x": 0.7761725684,
				"y": -0.7239184668,
				"z": 0.2292594131,
				"element": "N" 
			},
			{
				"x": 0.2601456554,
				"y": -0.0536012102,
				"z": 1.3177860115,
				"element": "C" 
			},
			{
				"x": 0.3678502535,
				"y": 1.1336406738,
				"z": 1.5555988626,
				"element": "O" 
			},
			{
				"x": -0.4684722892,
				"y": -1.1062513388,
				"z": 2.1602357796,
				"element": "C" 
			},
			{
				"x": -0.3320326221,
				"y": -2.2985363305,
				"z": 1.3489745537,
				"element": "N" 
			},
			{
				"x": 0.4428607255,
				"y": -2.104704299,
				"z": 0.2348388883,
				"element": "C" 
			},
			{
				"x": 0.7758278697,
				"y": -2.9129637108,
				"z": -0.6058124734,
				"element": "O" 
			},
			{
				"x": 3.4049111039,
				"y": 0.9594056157,
				"z": -1.162650532,
				"element": "H" 
			},
			{
				"x": 2.6934412046,
				"y": 1.2336789617,
				"z": 0.449221215,
				"element": "H" 
			},
			{
				"x": 1.7480968289,
				"y": -0.8948164938,
				"z": -1.5651081172,
				"element": "H" 
			},
			{
				"x": 0.986954297,
				"y": 0.6920114441,
				"z": -1.2895739462,
				"element": "H" 
			},
			{
				"x": -1.5106033215,
				"y": -0.8044848463,
				"z": 2.3143797488,
				"element": "H" 
			},
			{
				"x": 0.0170999754,
				"y": -1.1877285825,
				"z": 3.1407050825,
				"element": "H" 
			},
			{
				"x": -0.5738765108,
				"y": -3.2319834026,
				"z": 1.6397604381,
				"element": "H" 
			}
		],
		 "valence_orbital": [ 
			{
				"type": "occ",
				"energy": -0.30084,
				"method": "rhf"
			},
			{
				"type": "occ",
				"energy": -0.29241,
				"method": "rhf"
			},
			{
				"type": "occ",
				"energy": -0.28209,
				"method": "rhf"
			},
			{
				"type": "occ",
				"energy": -0.27283,
				"method": "rhf"
			},
			{
				"type": "occ",
				"energy": -0.27108,
				"method": "rhf"
			},
			{
				"type": "unocc",
				"energy": -0.01637,
				"method": "rhf"
			},
			{
				"type": "unocc",
				"energy": 0.02478,
				"method": "rhf"
			},
			{
				"type": "unocc",
				"energy": 0.05278,
				"method": "rhf"
			},
			{
				"type": "unocc",
				"energy": 0.07474,
				"method": "rhf"
			},
			{
				"type": "unocc",
				"energy": 0.09965,
				"method": "rhf"
			}
		],
		"cosmo_sigma_profile": { 
			"-0.025": 0.0,
			"-0.024": 0.0,
			"-0.023": 0.0,
			"-0.022": 0.0,
			"-0.021": 0.0,
			"-0.02": 0.0,
			"-0.019": 0.0,
			"-0.018": 0.0,
			"-0.017": 0.0,
			"-0.016": 0.558087306287,
			"-0.015": 1.36402541417,
			"-0.014": 1.02187445222,
			"-0.013": 1.37888956701,
			"-0.012": 1.02045953932,
			"-0.011": 1.02239145288,
			"-0.01": 0.592678753582,
			"-0.009": 1.77018515838,
			"-0.008": 9.16669569306,
			"-0.007": 14.7088790502,
			"-0.006": 13.9858246242,
			"-0.005": 14.0019033562,
			"-0.004": 11.0230634113,
			"-0.003": 8.23019499979,
			"-0.002": 7.56935542694,
			"-0.001": 6.50022435625,
			"0.0": 5.79149204203,
			"0.001": 6.66047469859,
			"0.002": 8.90489082784,
			"0.003": 7.58203339971,
			"0.004": 7.50675108663,
			"0.005": 8.38134415364,
			"0.006": 11.9431411353,
			"0.007": 4.44967643981,
			"0.008": 2.43525676009,
			"0.009": 2.83944363861,
			"0.01": 2.8218385032,
			"0.011": 5.56698104884,
			"0.012": 8.78385571992,
			"0.013": 4.73432345533,
			"0.014": 0.262330488599,
			"0.015": 0.0,
			"0.016": 0.0,
			"0.017": 0.0,
			"0.018": 0.0,
			"0.019": 0.0,
			"0.02": 0.0,
			"0.021": 0.0,
			"0.022": 0.0,
			"0.023": 0.0,
			"0.024": 0.0,
			"0.025": 0.0
		}
	}
}
