{
	 "smiles": "OC(=O)C1CCCN(C1)S(=O)(=O)CC1=CC=CC=C1", 
	 "Tm": 402.15, 
	 "num_atms": 36, 
	 "gaussian": { 
		 "optdone": 1, 
		 "sigma_profile": "yes", 
		 "theory": "DFT", 
		 "functional": "B3LYP", 
		 "basiset": "6-31G**", 
		 "properties": { 
			 "R2extent": 6342.6437, 
			 "electric_dipole_moment_norm": 4.10672596359, 
			 "electric_quadrupole_moment_norm": 12.2144838335, 
			 "total_energy": -1259.42279194, 
			 "HOMO_LUMO_gap": 0.229, 
			 "cosmo_polarized_energy": -19.21, 
			 "cosmo_cavitation_energy": 39.46, 
			 "cosmo_dispersion_energy": -27.04, 
			 "cosmo_repulsion_energy": 2.05, 
			 "cosmo_total_nonelectrostatic_energy": 14.46, 
			 "SMD_solvation_energy": 5.87 
		},
		"coords": [
			{
				"x": -0.6789265094,
				"y": 4.056966919,
				"z": -0.3554197036,
				"element": "O" 
			},
			{
				"x": 0.4905930329,
				"y": 3.7925890148,
				"z": -0.9890377155,
				"element": "C" 
			},
			{
				"x": 1.2367405383,
				"y": 4.6676054768,
				"z": -1.3685214966,
				"element": "O" 
			},
			{
				"x": 0.7138347402,
				"y": 2.2982267186,
				"z": -1.1497716551,
				"element": "C" 
			},
			{
				"x": 1.9967421579,
				"y": 1.9984365034,
				"z": -1.9351568901,
				"element": "C" 
			},
			{
				"x": 2.2293599086,
				"y": 0.4852562812,
				"z": -2.0277714355,
				"element": "C" 
			},
			{
				"x": 2.2088639824,
				"y": -0.1748493866,
				"z": -0.6462823593,
				"element": "C" 
			},
			{
				"x": 0.9358164394,
				"y": 0.1593272939,
				"z": 0.027866621,
				"element": "N" 
			},
			{
				"x": 0.7330710552,
				"y": 1.6038874194,
				"z": 0.2292751792,
				"element": "C" 
			},
			{
				"x": 0.4692189354,
				"y": -0.8537468776,
				"z": 1.3102236545,
				"element": "S" 
			},
			{
				"x": 1.5911014738,
				"y": -1.7329886912,
				"z": 1.6629949151,
				"element": "O" 
			},
			{
				"x": -0.1908704894,
				"y": -0.0266209993,
				"z": 2.3278961821,
				"element": "O" 
			},
			{
				"x": -0.842559698,
				"y": -1.8926158943,
				"z": 0.5618609106,
				"element": "C" 
			},
			{
				"x": -0.4038850517,
				"y": -2.6989801461,
				"z": -0.6283085641,
				"element": "C" 
			},
			{
				"x": 0.3602727739,
				"y": -3.8632258346,
				"z": -0.4612092137,
				"element": "C" 
			},
			{
				"x": 0.7660570538,
				"y": -4.6061112725,
				"z": -1.5694583892,
				"element": "C" 
			},
			{
				"x": 0.411495578,
				"y": -4.1982095651,
				"z": -2.8575720735,
				"element": "C" 
			},
			{
				"x": -0.3498420184,
				"y": -3.0413832207,
				"z": -3.0331730666,
				"element": "C" 
			},
			{
				"x": -0.7520395021,
				"y": -2.2952588413,
				"z": -1.9244467894,
				"element": "C" 
			},
			{
				"x": -0.7383748856,
				"y": 5.0246980838,
				"z": -0.2848653159,
				"element": "H" 
			},
			{
				"x": -0.1561580895,
				"y": 1.9043362002,
				"z": -1.6930097893,
				"element": "H" 
			},
			{
				"x": 1.9417867786,
				"y": 2.4480502042,
				"z": -2.931159711,
				"element": "H" 
			},
			{
				"x": 2.8408047053,
				"y": 2.4799454076,
				"z": -1.426485836,
				"element": "H" 
			},
			{
				"x": 3.1941204015,
				"y": 0.2786858208,
				"z": -2.5045674815,
				"element": "H" 
			},
			{
				"x": 1.4540504721,
				"y": 0.0210326345,
				"z": -2.6492348524,
				"element": "H" 
			},
			{
				"x": 2.2875748867,
				"y": -1.2582971175,
				"z": -0.7325202396,
				"element": "H" 
			},
			{
				"x": 3.0619918197,
				"y": 0.1724833684,
				"z": -0.0435510537,
				"element": "H" 
			},
			{
				"x": 1.5414431364,
				"y": 2.0316840119,
				"z": 0.843539118,
				"element": "H" 
			},
			{
				"x": -0.2046263635,
				"y": 1.7661748837,
				"z": 0.7576484715,
				"element": "H" 
			},
			{
				"x": -1.6498623681,
				"y": -1.197664781,
				"z": 0.3215474605,
				"element": "H" 
			},
			{
				"x": -1.1620590892,
				"y": -2.5221409816,
				"z": 1.3980641909,
				"element": "H" 
			},
			{
				"x": 0.6462334117,
				"y": -4.1752883017,
				"z": 0.538528609,
				"element": "H" 
			},
			{
				"x": 1.3571399222,
				"y": -5.5059939396,
				"z": -1.4266539349,
				"element": "H" 
			},
			{
				"x": 0.7236589331,
				"y": -4.781201323,
				"z": -3.7191757834,
				"element": "H" 
			},
			{
				"x": -0.6340074404,
				"y": -2.7212850872,
				"z": -4.0314838839,
				"element": "H" 
			},
			{
				"x": -1.3462606317,
				"y": -1.3960239812,
				"z": -2.0628080784,
				"element": "H" 
			}
		],
		 "valence_orbital": [ 
			{
				"type": "occ",
				"energy": -0.29748,
				"method": "rhf"
			},
			{
				"type": "occ",
				"energy": -0.28285,
				"method": "rhf"
			},
			{
				"type": "occ",
				"energy": -0.26293,
				"method": "rhf"
			},
			{
				"type": "occ",
				"energy": -0.25439,
				"method": "rhf"
			},
			{
				"type": "occ",
				"energy": -0.25264,
				"method": "rhf"
			},
			{
				"type": "unocc",
				"energy": -0.02364,
				"method": "rhf"
			},
			{
				"type": "unocc",
				"energy": -0.01284,
				"method": "rhf"
			},
			{
				"type": "unocc",
				"energy": -0.00251,
				"method": "rhf"
			},
			{
				"type": "unocc",
				"energy": 0.05887,
				"method": "rhf"
			},
			{
				"type": "unocc",
				"energy": 0.07195,
				"method": "rhf"
			}
		],
		"cosmo_sigma_profile": { 
			"-0.025": 0.0,
			"-0.024": 0.0,
			"-0.023": 0.0,
			"-0.022": 0.0,
			"-0.021": 0.0,
			"-0.02": 0.0,
			"-0.019": 0.0129132693431,
			"-0.018": 0.904853366551,
			"-0.017": 0.759434498622,
			"-0.016": 0.958972630142,
			"-0.015": 0.544016363651,
			"-0.014": 1.20491445441,
			"-0.013": 0.697209067849,
			"-0.012": 0.178534849128,
			"-0.011": 0.667197958864,
			"-0.01": 1.19281008466,
			"-0.009": 1.38997008996,
			"-0.008": 5.11285390447,
			"-0.007": 5.35151760343,
			"-0.006": 16.5017034558,
			"-0.005": 25.1916835021,
			"-0.004": 30.0976630185,
			"-0.003": 31.3019588555,
			"-0.002": 25.0085806242,
			"-0.001": 20.5942822176,
			"0.0": 18.775683895,
			"0.001": 16.870967831,
			"0.002": 15.2343708854,
			"0.003": 13.1378413865,
			"0.004": 14.481087135,
			"0.005": 11.2729397811,
			"0.006": 5.43876068952,
			"0.007": 6.5663905047,
			"0.008": 5.62343880134,
			"0.009": 5.59512309459,
			"0.01": 7.50373634289,
			"0.011": 12.9767666863,
			"0.012": 8.77340184807,
			"0.013": 0.218850355832,
			"0.014": 0.0,
			"0.015": 0.0,
			"0.016": 0.0,
			"0.017": 0.0,
			"0.018": 0.0,
			"0.019": 0.0,
			"0.02": 0.0,
			"0.021": 0.0,
			"0.022": 0.0,
			"0.023": 0.0,
			"0.024": 0.0,
			"0.025": 0.0
		}
	}
}
