{
	 "smiles": "FC1(F)CCC(=O)CC1", 
	 "Tm": 312.15, 
	 "num_atms": 17, 
	 "gaussian": { 
		 "optdone": 1, 
		 "sigma_profile": "yes", 
		 "theory": "DFT", 
		 "functional": "B3LYP", 
		 "basiset": "6-31G**", 
		 "properties": { 
			 "R2extent": 1429.3288, 
			 "electric_dipole_moment_norm": 0.880168302088, 
			 "electric_quadrupole_moment_norm": 12.8243822791, 
			 "total_energy": -508.376336673, 
			 "HOMO_LUMO_gap": 0.22262, 
			 "cosmo_polarized_energy": -8.27, 
			 "cosmo_cavitation_energy": 20.13, 
			 "cosmo_dispersion_energy": -14.81, 
			 "cosmo_repulsion_energy": 1.18, 
			 "cosmo_total_nonelectrostatic_energy": 6.51, 
			 "SMD_solvation_energy": 4.35 
		},
		"coords": [
			{
				"x": -1.7460598529,
				"y": -0.3652462389,
				"z": 0.1392822855,
				"element": "F" 
			},
			{
				"x": -0.6569308495,
				"y": -0.039910253,
				"z": -0.6301464634,
				"element": "C" 
			},
			{
				"x": -0.7679317179,
				"y": -0.7715309834,
				"z": -1.7987572337,
				"element": "F" 
			},
			{
				"x": 0.6171566614,
				"y": -0.4608777953,
				"z": 0.0850067521,
				"element": "C" 
			},
			{
				"x": 1.8624625899,
				"y": -0.0791156923,
				"z": -0.737858074,
				"element": "C" 
			},
			{
				"x": 1.8369518419,
				"y": 1.380073237,
				"z": -1.1865121124,
				"element": "C" 
			},
			{
				"x": 2.7997280322,
				"y": 2.1122401987,
				"z": -1.0729751045,
				"element": "O" 
			},
			{
				"x": 0.5260257529,
				"y": 1.8454417197,
				"z": -1.8159104698,
				"element": "C" 
			},
			{
				"x": -0.7022620378,
				"y": 1.4392539423,
				"z": -0.9792912498,
				"element": "C" 
			},
			{
				"x": 0.6342397982,
				"y": 0.0337846124,
				"z": 1.0620132251,
				"element": "H" 
			},
			{
				"x": 0.5768766327,
				"y": -1.5397627562,
				"z": 0.2615437531,
				"element": "H" 
			},
			{
				"x": 2.7853645429,
				"y": -0.2588464114,
				"z": -0.1824717344,
				"element": "H" 
			},
			{
				"x": 1.887062804,
				"y": -0.6992597178,
				"z": -1.6439223264,
				"element": "H" 
			},
			{
				"x": 0.4503246977,
				"y": 1.3696350854,
				"z": -2.8028322085,
				"element": "H" 
			},
			{
				"x": 0.5738355855,
				"y": 2.9259644731,
				"z": -1.9665594187,
				"element": "H" 
			},
			{
				"x": -0.7349685064,
				"y": 2.0056610737,
				"z": -0.042462498,
				"element": "H" 
			},
			{
				"x": -1.6316759748,
				"y": 1.6408955059,
				"z": -1.5199471221,
				"element": "H" 
			}
		],
		 "valence_orbital": [ 
			{
				"type": "occ",
				"energy": -0.37154,
				"method": "rhf"
			},
			{
				"type": "occ",
				"energy": -0.36859,
				"method": "rhf"
			},
			{
				"type": "occ",
				"energy": -0.35079,
				"method": "rhf"
			},
			{
				"type": "occ",
				"energy": -0.32246,
				"method": "rhf"
			},
			{
				"type": "occ",
				"energy": -0.24881,
				"method": "rhf"
			},
			{
				"type": "unocc",
				"energy": -0.02619,
				"method": "rhf"
			},
			{
				"type": "unocc",
				"energy": 0.07757,
				"method": "rhf"
			},
			{
				"type": "unocc",
				"energy": 0.10095,
				"method": "rhf"
			},
			{
				"type": "unocc",
				"energy": 0.12027,
				"method": "rhf"
			},
			{
				"type": "unocc",
				"energy": 0.12195,
				"method": "rhf"
			}
		],
		"cosmo_sigma_profile": { 
			"-0.025": 0.0,
			"-0.024": 0.0,
			"-0.023": 0.0,
			"-0.022": 0.0,
			"-0.021": 0.0,
			"-0.02": 0.0,
			"-0.019": 0.0,
			"-0.018": 0.0,
			"-0.017": 0.0,
			"-0.016": 0.0,
			"-0.015": 0.0,
			"-0.014": 0.0,
			"-0.013": 0.0,
			"-0.012": 0.0,
			"-0.011": 0.0,
			"-0.01": 0.0,
			"-0.009": 0.146854614623,
			"-0.008": 1.42725468048,
			"-0.007": 4.59142335058,
			"-0.006": 11.918635796,
			"-0.005": 15.250287971,
			"-0.004": 17.9028212675,
			"-0.003": 17.0664174598,
			"-0.002": 15.3226813561,
			"-0.001": 6.75481263873,
			"0.0": 5.61414314661,
			"0.001": 4.54216866651,
			"0.002": 4.80672735073,
			"0.003": 4.49909112457,
			"0.004": 9.93611327217,
			"0.005": 17.0111758731,
			"0.006": 4.26258442099,
			"0.007": 0.590808339496,
			"0.008": 2.35350843051,
			"0.009": 1.75879544927,
			"0.01": 1.96616760472,
			"0.011": 3.75135310528,
			"0.012": 4.37441417459,
			"0.013": 1.71767541822,
			"0.014": 0.0343983013638,
			"0.015": 0.0,
			"0.016": 0.0,
			"0.017": 0.0,
			"0.018": 0.0,
			"0.019": 0.0,
			"0.02": 0.0,
			"0.021": 0.0,
			"0.022": 0.0,
			"0.023": 0.0,
			"0.024": 0.0,
			"0.025": 0.0
		}
	}
}
