{
	 "smiles": "[O-][N+](=O)C1=CC=CC=C1", 
	 "Tm": 278.65, 
	 "num_atms": 14, 
	 "gaussian": { 
		 "optdone": 1, 
		 "sigma_profile": "yes", 
		 "theory": "DFT", 
		 "functional": "B3LYP", 
		 "basiset": "6-31G**", 
		 "properties": { 
			 "R2extent": 1810.8287, 
			 "electric_dipole_moment_norm": 4.53310037281, 
			 "electric_quadrupole_moment_norm": 10.9585260473, 
			 "total_energy": -436.749765618, 
			 "HOMO_LUMO_gap": 0.18993, 
			 "cosmo_polarized_energy": -7.48, 
			 "cosmo_cavitation_energy": 18.83, 
			 "cosmo_dispersion_energy": -14.1, 
			 "cosmo_repulsion_energy": 1.15, 
			 "cosmo_total_nonelectrostatic_energy": 5.88, 
			 "SMD_solvation_energy": 5.64 
		},
		"coords": [
			{
				"x": 0.3767501418,
				"y": -3.5548642639,
				"z": 0.5358479034,
				"element": "O" 
			},
			{
				"x": 0.4646328166,
				"y": -2.3734020778,
				"z": 0.2033473444,
				"element": "N" 
			},
			{
				"x": 1.0330859801,
				"y": -1.9700620168,
				"z": -0.8107111507,
				"element": "O" 
			},
			{
				"x": -0.1553809691,
				"y": -1.3685481901,
				"z": 1.0837719648,
				"element": "C" 
			},
			{
				"x": -0.0706788623,
				"y": -0.0226460647,
				"z": 0.7311579739,
				"element": "C" 
			},
			{
				"x": -0.6599279545,
				"y": 0.9216783155,
				"z": 1.5693136984,
				"element": "C" 
			},
			{
				"x": -1.3176219705,
				"y": 0.5148080071,
				"z": 2.7336734537,
				"element": "C" 
			},
			{
				"x": -1.3898365545,
				"y": -0.8407617967,
				"z": 3.0669332481,
				"element": "C" 
			},
			{
				"x": -0.8058106175,
				"y": -1.7977143001,
				"z": 2.2395101739,
				"element": "C" 
			},
			{
				"x": 0.4465308788,
				"y": 0.2564321842,
				"z": -0.1781627503,
				"element": "H" 
			},
			{
				"x": -0.6052368501,
				"y": 1.9749680863,
				"z": 1.3127761354,
				"element": "H" 
			},
			{
				"x": -1.7748055523,
				"y": 1.2556540382,
				"z": 3.3826808905,
				"element": "H" 
			},
			{
				"x": -1.9011374252,
				"y": -1.154098343,
				"z": 3.9717065584,
				"element": "H" 
			},
			{
				"x": -0.8423630613,
				"y": -2.8557435781,
				"z": 2.4664545563,
				"element": "H" 
			}
		],
		 "valence_orbital": [ 
			{
				"type": "occ",
				"energy": -0.3099,
				"method": "rhf"
			},
			{
				"type": "occ",
				"energy": -0.30697,
				"method": "rhf"
			},
			{
				"type": "occ",
				"energy": -0.29099,
				"method": "rhf"
			},
			{
				"type": "occ",
				"energy": -0.28332,
				"method": "rhf"
			},
			{
				"type": "occ",
				"energy": -0.27908,
				"method": "rhf"
			},
			{
				"type": "unocc",
				"energy": -0.08915,
				"method": "rhf"
			},
			{
				"type": "unocc",
				"energy": -0.02835,
				"method": "rhf"
			},
			{
				"type": "unocc",
				"energy": 0.00025,
				"method": "rhf"
			},
			{
				"type": "unocc",
				"energy": 0.07312,
				"method": "rhf"
			},
			{
				"type": "unocc",
				"energy": 0.12817,
				"method": "rhf"
			}
		],
		"cosmo_sigma_profile": { 
			"-0.025": 0.0,
			"-0.024": 0.0,
			"-0.023": 0.0,
			"-0.022": 0.0,
			"-0.021": 0.0,
			"-0.02": 0.0,
			"-0.019": 0.0,
			"-0.018": 0.0,
			"-0.017": 0.0,
			"-0.016": 0.0,
			"-0.015": 0.0,
			"-0.014": 0.0,
			"-0.013": 0.0,
			"-0.012": 0.0,
			"-0.011": 0.0,
			"-0.01": 0.0,
			"-0.009": 0.0,
			"-0.008": 1.04900570284,
			"-0.007": 9.42269931644,
			"-0.006": 11.968929037,
			"-0.005": 12.4586095903,
			"-0.004": 8.05579036706,
			"-0.003": 9.94130089964,
			"-0.002": 8.96466018709,
			"-0.001": 10.5512926341,
			"0.0": 12.4119276826,
			"0.001": 11.885154821,
			"0.002": 15.471001853,
			"0.003": 7.573813773,
			"0.004": 2.07898109555,
			"0.005": 2.98443710153,
			"0.006": 3.76832488387,
			"0.007": 7.61050669403,
			"0.008": 8.04439338453,
			"0.009": 4.2780989981,
			"0.01": 2.86981131285,
			"0.011": 0.259294047444,
			"0.012": 0.0,
			"0.013": 0.0,
			"0.014": 0.0,
			"0.015": 0.0,
			"0.016": 0.0,
			"0.017": 0.0,
			"0.018": 0.0,
			"0.019": 0.0,
			"0.02": 0.0,
			"0.021": 0.0,
			"0.022": 0.0,
			"0.023": 0.0,
			"0.024": 0.0,
			"0.025": 0.0
		}
	}
}
