{
	 "smiles": "CC1=CC=C(C(O)=O)C(F)=C1F", 
	 "Tm": 473.15, 
	 "num_atms": 18, 
	 "gaussian": { 
		 "optdone": 1, 
		 "sigma_profile": "yes", 
		 "theory": "DFT", 
		 "functional": "B3LYP", 
		 "basiset": "6-31G**", 
		 "properties": { 
			 "R2extent": 2207.6385, 
			 "electric_dipole_moment_norm": 3.77603556392, 
			 "electric_quadrupole_moment_norm": 8.75631989023, 
			 "total_energy": -658.59756045, 
			 "HOMO_LUMO_gap": 0.19824, 
			 "cosmo_polarized_energy": -10.0, 
			 "cosmo_cavitation_energy": 23.67, 
			 "cosmo_dispersion_energy": -17.24, 
			 "cosmo_repulsion_energy": 1.33, 
			 "cosmo_total_nonelectrostatic_energy": 7.76, 
			 "SMD_solvation_energy": 6.29 
		},
		"coords": [
			{
				"x": 0.1537920446,
				"y": -3.0298424192,
				"z": -0.3415187321,
				"element": "C" 
			},
			{
				"x": 0.1745621156,
				"y": -1.530898681,
				"z": -0.2007916455,
				"element": "C" 
			},
			{
				"x": 1.2782501783,
				"y": -0.8245853114,
				"z": 0.2986135535,
				"element": "C" 
			},
			{
				"x": 1.2570231898,
				"y": 0.5604968744,
				"z": 0.4129310862,
				"element": "C" 
			},
			{
				"x": 0.1274703883,
				"y": 1.3053104761,
				"z": 0.0317243808,
				"element": "C" 
			},
			{
				"x": 0.0967109551,
				"y": 2.7867092973,
				"z": 0.1500084164,
				"element": "C" 
			},
			{
				"x": 1.2583794889,
				"y": 3.2799211378,
				"z": 0.6584739934,
				"element": "O" 
			},
			{
				"x": -0.8264784706,
				"y": 3.5107890651,
				"z": -0.1559706385,
				"element": "O" 
			},
			{
				"x": -0.9793776763,
				"y": 0.6042636245,
				"z": -0.4684832352,
				"element": "C" 
			},
			{
				"x": -2.0969092845,
				"y": 1.2213049341,
				"z": -0.8558882425,
				"element": "F" 
			},
			{
				"x": -0.9405288122,
				"y": -0.7846259161,
				"z": -0.576059202,
				"element": "C" 
			},
			{
				"x": -2.0271585491,
				"y": -1.415246525,
				"z": -1.0619739709,
				"element": "F" 
			},
			{
				"x": -0.6574050285,
				"y": -3.4700884028,
				"z": 0.2479843276,
				"element": "H" 
			},
			{
				"x": 1.0981396006,
				"y": -3.4650370832,
				"z": -0.0074191181,
				"element": "H" 
			},
			{
				"x": -0.0144555395,
				"y": -3.3260263981,
				"z": -1.3823212131,
				"element": "H" 
			},
			{
				"x": 2.1631316426,
				"y": -1.3769434729,
				"z": 0.5998659241,
				"element": "H" 
			},
			{
				"x": 2.1183015862,
				"y": 1.0899816299,
				"z": 0.800715147,
				"element": "H" 
			},
			{
				"x": 1.1346521708,
				"y": 4.2425171706,
				"z": 0.6930091688,
				"element": "H" 
			}
		],
		 "valence_orbital": [ 
			{
				"type": "occ",
				"energy": -0.35868,
				"method": "rhf"
			},
			{
				"type": "occ",
				"energy": -0.32131,
				"method": "rhf"
			},
			{
				"type": "occ",
				"energy": -0.27659,
				"method": "rhf"
			},
			{
				"type": "occ",
				"energy": -0.26436,
				"method": "rhf"
			},
			{
				"type": "occ",
				"energy": -0.25365,
				"method": "rhf"
			},
			{
				"type": "unocc",
				"energy": -0.05541,
				"method": "rhf"
			},
			{
				"type": "unocc",
				"energy": -0.01098,
				"method": "rhf"
			},
			{
				"type": "unocc",
				"energy": 0.04975,
				"method": "rhf"
			},
			{
				"type": "unocc",
				"energy": 0.06519,
				"method": "rhf"
			},
			{
				"type": "unocc",
				"energy": 0.0862,
				"method": "rhf"
			}
		],
		"cosmo_sigma_profile": { 
			"-0.025": 0.0,
			"-0.024": 0.0,
			"-0.023": 0.0,
			"-0.022": 0.0,
			"-0.021": 0.0,
			"-0.02": 0.0,
			"-0.019": 0.080858175365,
			"-0.018": 0.818953996436,
			"-0.017": 0.608802776303,
			"-0.016": 0.954946914247,
			"-0.015": 1.08790471364,
			"-0.014": 0.649948957929,
			"-0.013": 0.386207899699,
			"-0.012": 0.747557847233,
			"-0.011": 0.806174495114,
			"-0.01": 0.835772027725,
			"-0.009": 0.2152071285,
			"-0.008": 0.485794760235,
			"-0.007": 3.9224852915,
			"-0.006": 6.91297510882,
			"-0.005": 10.078768459,
			"-0.004": 8.71619965248,
			"-0.003": 12.5120319801,
			"-0.002": 19.927862101,
			"-0.001": 21.9944681068,
			"0.0": 16.0237507849,
			"0.001": 13.7521176798,
			"0.002": 12.424734538,
			"0.003": 17.9695433043,
			"0.004": 12.510699354,
			"0.005": 3.35247023676,
			"0.006": 4.02079690302,
			"0.007": 2.90310919926,
			"0.008": 1.58847162206,
			"0.009": 2.51941077185,
			"0.01": 2.29450941488,
			"0.011": 4.85899166634,
			"0.012": 3.54928088836,
			"0.013": 0.0113375993811,
			"0.014": 0.0,
			"0.015": 0.0,
			"0.016": 0.0,
			"0.017": 0.0,
			"0.018": 0.0,
			"0.019": 0.0,
			"0.02": 0.0,
			"0.021": 0.0,
			"0.022": 0.0,
			"0.023": 0.0,
			"0.024": 0.0,
			"0.025": 0.0
		}
	}
}
