{
	 "smiles": "CN1C(=S)SC2=CC=CC=C12", 
	 "Tm": 363.15, 
	 "num_atms": 18, 
	 "gaussian": { 
		 "optdone": 1, 
		 "sigma_profile": "yes", 
		 "theory": "DFT", 
		 "functional": "B3LYP", 
		 "basiset": "6-31G**", 
		 "properties": { 
			 "R2extent": 2254.3674, 
			 "electric_dipole_moment_norm": 5.21284288944, 
			 "electric_quadrupole_moment_norm": 10.5853131522, 
			 "total_energy": -1160.21239268, 
			 "HOMO_LUMO_gap": 0.16503, 
			 "cosmo_polarized_energy": -10.85, 
			 "cosmo_cavitation_energy": 24.66, 
			 "cosmo_dispersion_energy": -19.4, 
			 "cosmo_repulsion_energy": 1.43, 
			 "cosmo_total_nonelectrostatic_energy": 6.69, 
			 "SMD_solvation_energy": 2.84 
		},
		"coords": [
			{
				"x": 2.45222101,
				"y": -0.4284952299,
				"z": -0.3458038821,
				"element": "C" 
			},
			{
				"x": 1.0469858878,
				"y": -0.0947998816,
				"z": -0.1450716881,
				"element": "N" 
			},
			{
				"x": 0.3996963885,
				"y": 0.8593852623,
				"z": -0.8946297733,
				"element": "C" 
			},
			{
				"x": 1.0212113061,
				"y": 1.790973215,
				"z": -2.1192100693,
				"element": "S" 
			},
			{
				"x": -1.2882885058,
				"y": 0.973006983,
				"z": -0.3515970179,
				"element": "S" 
			},
			{
				"x": -1.050238599,
				"y": -0.2739311281,
				"z": 0.866747111,
				"element": "C" 
			},
			{
				"x": -1.9643942635,
				"y": -0.7985981096,
				"z": 1.7774091322,
				"element": "C" 
			},
			{
				"x": -1.5348810357,
				"y": -1.7948173022,
				"z": 2.6565302383,
				"element": "C" 
			},
			{
				"x": -0.2135149539,
				"y": -2.2540944088,
				"z": 2.6208221584,
				"element": "C" 
			},
			{
				"x": 0.7064382222,
				"y": -1.7320729395,
				"z": 1.7106796794,
				"element": "C" 
			},
			{
				"x": 0.2773499547,
				"y": -0.7347246442,
				"z": 0.8302181546,
				"element": "C" 
			},
			{
				"x": 3.0178329325,
				"y": -0.2347030857,
				"z": 0.5707659977,
				"element": "H" 
			},
			{
				"x": 2.5515253076,
				"y": -1.4839196792,
				"z": -0.6174719054,
				"element": "H" 
			},
			{
				"x": 2.8342114898,
				"y": 0.196089859,
				"z": -1.1523433196,
				"element": "H" 
			},
			{
				"x": -2.9882276392,
				"y": -0.4396755959,
				"z": 1.8018172309,
				"element": "H" 
			},
			{
				"x": -2.2340801871,
				"y": -2.2147199797,
				"z": 3.3726301966,
				"element": "H" 
			},
			{
				"x": 0.1059023503,
				"y": -3.0291429087,
				"z": 3.3105173071,
				"element": "H" 
			},
			{
				"x": 1.7284503348,
				"y": -2.0931604263,
				"z": 1.6891904496,
				"element": "H" 
			}
		],
		 "valence_orbital": [ 
			{
				"type": "occ",
				"energy": -0.31619,
				"method": "rhf"
			},
			{
				"type": "occ",
				"energy": -0.28478,
				"method": "rhf"
			},
			{
				"type": "occ",
				"energy": -0.25294,
				"method": "rhf"
			},
			{
				"type": "occ",
				"energy": -0.21906,
				"method": "rhf"
			},
			{
				"type": "occ",
				"energy": -0.21094,
				"method": "rhf"
			},
			{
				"type": "unocc",
				"energy": -0.04591,
				"method": "rhf"
			},
			{
				"type": "unocc",
				"energy": -0.02089,
				"method": "rhf"
			},
			{
				"type": "unocc",
				"energy": -2e-05,
				"method": "rhf"
			},
			{
				"type": "unocc",
				"energy": 0.00281,
				"method": "rhf"
			},
			{
				"type": "unocc",
				"energy": 0.06965,
				"method": "rhf"
			}
		],
		"cosmo_sigma_profile": { 
			"-0.025": 0.0,
			"-0.024": 0.0,
			"-0.023": 0.0,
			"-0.022": 0.0,
			"-0.021": 0.0,
			"-0.02": 0.0,
			"-0.019": 0.0,
			"-0.018": 0.0,
			"-0.017": 0.0,
			"-0.016": 0.0,
			"-0.015": 0.0,
			"-0.014": 0.0,
			"-0.013": 0.0,
			"-0.012": 0.0,
			"-0.011": 0.0,
			"-0.01": 0.0,
			"-0.009": 0.0448639799168,
			"-0.008": 2.72955739723,
			"-0.007": 12.6072201624,
			"-0.006": 14.7423401855,
			"-0.005": 14.8030282373,
			"-0.004": 13.7962009322,
			"-0.003": 14.9655775221,
			"-0.002": 11.6064888724,
			"-0.001": 10.369928996,
			"0.0": 12.551182328,
			"0.001": 14.6253918133,
			"0.002": 17.0955515851,
			"0.003": 17.6099153656,
			"0.004": 13.2548005277,
			"0.005": 3.68142250535,
			"0.006": 4.99673571061,
			"0.007": 4.98245565415,
			"0.008": 7.07256579735,
			"0.009": 7.65394212849,
			"0.01": 3.01671114099,
			"0.011": 0.981443370255,
			"0.012": 0.0,
			"0.013": 0.0,
			"0.014": 0.0,
			"0.015": 0.0,
			"0.016": 0.0,
			"0.017": 0.0,
			"0.018": 0.0,
			"0.019": 0.0,
			"0.02": 0.0,
			"0.021": 0.0,
			"0.022": 0.0,
			"0.023": 0.0,
			"0.024": 0.0,
			"0.025": 0.0
		}
	}
}
