{
	 "smiles": "OC(=O)C1=CC=C(OC2=CC=C(CC#N)C=C2)C=C1", 
	 "Tm": 457.15, 
	 "num_atms": 30, 
	 "gaussian": { 
		 "optdone": 1, 
		 "sigma_profile": "yes", 
		 "theory": "DFT", 
		 "functional": "B3LYP", 
		 "basiset": "6-31G**", 
		 "properties": { 
			 "R2extent": 9196.3545, 
			 "electric_dipole_moment_norm": 5.54841638127, 
			 "electric_quadrupole_moment_norm": 34.6096123877, 
			 "total_energy": -858.63149022, 
			 "HOMO_LUMO_gap": 0.19168, 
			 "cosmo_polarized_energy": -22.61, 
			 "cosmo_cavitation_energy": 36.7, 
			 "cosmo_dispersion_energy": -25.73, 
			 "cosmo_repulsion_energy": 1.97, 
			 "cosmo_total_nonelectrostatic_energy": 12.94, 
			 "SMD_solvation_energy": 8.84 
		},
		"coords": [
			{
				"x": 6.7855314585,
				"y": 1.1138510172,
				"z": 1.2021985829,
				"element": "O" 
			},
			{
				"x": 6.3558753427,
				"y": 0.2074506589,
				"z": 0.2810884491,
				"element": "C" 
			},
			{
				"x": 7.1621134269,
				"y": -0.4059835611,
				"z": -0.3790362651,
				"element": "O" 
			},
			{
				"x": 4.8771119968,
				"y": 0.0293089423,
				"z": 0.1457042659,
				"element": "C" 
			},
			{
				"x": 4.397653629,
				"y": -0.5872536688,
				"z": -1.020929972,
				"element": "C" 
			},
			{
				"x": 3.0381548524,
				"y": -0.7851535782,
				"z": -1.2120884344,
				"element": "C" 
			},
			{
				"x": 2.1322150734,
				"y": -0.3847665061,
				"z": -0.2213016885,
				"element": "C" 
			},
			{
				"x": 0.8110090498,
				"y": -0.6681835141,
				"z": -0.4664581272,
				"element": "O" 
			},
			{
				"x": -0.1998514413,
				"y": 0.0200719095,
				"z": 0.1821711138,
				"element": "C" 
			},
			{
				"x": -0.2779086081,
				"y": 1.4145157108,
				"z": 0.1535985597,
				"element": "C" 
			},
			{
				"x": -1.3615930603,
				"y": 2.0518328734,
				"z": 0.754932011,
				"element": "C" 
			},
			{
				"x": -2.3742605648,
				"y": 1.312115635,
				"z": 1.3767554715,
				"element": "C" 
			},
			{
				"x": -3.5942428687,
				"y": 1.9869390156,
				"z": 1.9930959649,
				"element": "C" 
			},
			{
				"x": -3.3201566848,
				"y": 3.3098374667,
				"z": 2.5625660591,
				"element": "C" 
			},
			{
				"x": -3.0968017837,
				"y": 4.3615569684,
				"z": 2.9991886376,
				"element": "N" 
			},
			{
				"x": -2.2809712322,
				"y": -0.0836633427,
				"z": 1.3888903384,
				"element": "C" 
			},
			{
				"x": -1.1991952362,
				"y": -0.733487216,
				"z": 0.7963669254,
				"element": "C" 
			},
			{
				"x": 2.5905615669,
				"y": 0.2029260533,
				"z": 0.9626349305,
				"element": "C" 
			},
			{
				"x": 3.958053911,
				"y": 0.4070744697,
				"z": 1.1342669175,
				"element": "C" 
			},
			{
				"x": 6.042935699,
				"y": 1.6445960955,
				"z": 1.5210301635,
				"element": "H" 
			},
			{
				"x": 5.1161400359,
				"y": -0.8993832374,
				"z": -1.7709939714,
				"element": "H" 
			},
			{
				"x": 2.6542815863,
				"y": -1.2498499525,
				"z": -2.1139386596,
				"element": "H" 
			},
			{
				"x": 0.4994303726,
				"y": 1.9917013636,
				"z": -0.3357084106,
				"element": "H" 
			},
			{
				"x": -1.4158407725,
				"y": 3.1364430291,
				"z": 0.7411573487,
				"element": "H" 
			},
			{
				"x": -4.3859735435,
				"y": 2.1066763823,
				"z": 1.2405993206,
				"element": "H" 
			},
			{
				"x": -4.0157341003,
				"y": 1.3550137338,
				"z": 2.7828179148,
				"element": "H" 
			},
			{
				"x": -3.0564372627,
				"y": -0.674242733,
				"z": 1.8698120242,
				"element": "H" 
			},
			{
				"x": -1.1176632081,
				"y": -1.8150981561,
				"z": 0.8035919221,
				"element": "H" 
			},
			{
				"x": 1.891910031,
				"y": 0.4821833105,
				"z": 1.7425226694,
				"element": "H" 
			},
			{
				"x": 4.2969523349,
				"y": 0.8267708305,
				"z": 2.0785659379,
				"element": "H" 
			}
		],
		 "valence_orbital": [ 
			{
				"type": "occ",
				"energy": -0.28139,
				"method": "rhf"
			},
			{
				"type": "occ",
				"energy": -0.27629,
				"method": "rhf"
			},
			{
				"type": "occ",
				"energy": -0.27453,
				"method": "rhf"
			},
			{
				"type": "occ",
				"energy": -0.26775,
				"method": "rhf"
			},
			{
				"type": "occ",
				"energy": -0.24153,
				"method": "rhf"
			},
			{
				"type": "unocc",
				"energy": -0.04985,
				"method": "rhf"
			},
			{
				"type": "unocc",
				"energy": -0.03588,
				"method": "rhf"
			},
			{
				"type": "unocc",
				"energy": -0.02406,
				"method": "rhf"
			},
			{
				"type": "unocc",
				"energy": -0.02277,
				"method": "rhf"
			},
			{
				"type": "unocc",
				"energy": 0.02119,
				"method": "rhf"
			}
		],
		"cosmo_sigma_profile": { 
			"-0.025": 0.0,
			"-0.024": 0.0,
			"-0.023": 0.0,
			"-0.022": 0.0,
			"-0.021": 0.0,
			"-0.02": 0.0,
			"-0.019": 0.0658395805124,
			"-0.018": 1.02076970793,
			"-0.017": 0.799200578174,
			"-0.016": 0.777285312851,
			"-0.015": 1.292267594,
			"-0.014": 0.998887326726,
			"-0.013": 1.22361371265,
			"-0.012": 0.948009600179,
			"-0.011": 1.09169618925,
			"-0.01": 1.37914448931,
			"-0.009": 6.3832890805,
			"-0.008": 7.60851868909,
			"-0.007": 15.2627666266,
			"-0.006": 19.002584808,
			"-0.005": 19.5172782337,
			"-0.004": 15.6301062986,
			"-0.003": 15.3066723105,
			"-0.002": 16.0083760693,
			"-0.001": 15.2465109515,
			"0.0": 16.7476437494,
			"0.001": 20.254537632,
			"0.002": 25.1813470823,
			"0.003": 24.4111618179,
			"0.004": 11.3648671986,
			"0.005": 4.95499935143,
			"0.006": 5.78631464944,
			"0.007": 6.11343538394,
			"0.008": 7.3531794563,
			"0.009": 6.58108371884,
			"0.01": 7.03036704284,
			"0.011": 8.32812037951,
			"0.012": 7.78980058472,
			"0.013": 3.72736185037,
			"0.014": 0.375242555126,
			"0.015": 0.0,
			"0.016": 0.0,
			"0.017": 0.0,
			"0.018": 0.0,
			"0.019": 0.0,
			"0.02": 0.0,
			"0.021": 0.0,
			"0.022": 0.0,
			"0.023": 0.0,
			"0.024": 0.0,
			"0.025": 0.0
		}
	}
}
