{
	 "smiles": "CC(C)(C)C1=NN(C=C1C=O)C1=C(Cl)C=CC=C1", 
	 "Tm": 385.15, 
	 "num_atms": 33, 
	 "gaussian": { 
		 "optdone": 1, 
		 "sigma_profile": "yes", 
		 "theory": "DFT", 
		 "functional": "B3LYP", 
		 "basiset": "6-31G**", 
		 "properties": { 
			 "R2extent": 6542.6536, 
			 "electric_dipole_moment_norm": 3.97034464625, 
			 "electric_quadrupole_moment_norm": 20.7721002773, 
			 "total_energy": -1187.43041958, 
			 "HOMO_LUMO_gap": 0.19028, 
			 "cosmo_polarized_energy": -10.59, 
			 "cosmo_cavitation_energy": 37.65, 
			 "cosmo_dispersion_energy": -26.13, 
			 "cosmo_repulsion_energy": 2.02, 
			 "cosmo_total_nonelectrostatic_energy": 13.53, 
			 "SMD_solvation_energy": 6.97 
		},
		"coords": [
			{
				"x": -2.3654509582,
				"y": -0.2929662475,
				"z": 0.7455692485,
				"element": "C" 
			},
			{
				"x": -1.694472591,
				"y": -1.3727941884,
				"z": -0.1254343296,
				"element": "C" 
			},
			{
				"x": -2.5477381871,
				"y": -1.582437413,
				"z": -1.3988904007,
				"element": "C" 
			},
			{
				"x": -1.6256496382,
				"y": -2.6894828609,
				"z": 0.6841494923,
				"element": "C" 
			},
			{
				"x": -0.289018952,
				"y": -0.9366292827,
				"z": -0.51766379,
				"element": "C" 
			},
			{
				"x": 0.1769311764,
				"y": 0.2358340326,
				"z": -0.1086439841,
				"element": "N" 
			},
			{
				"x": 1.4394736397,
				"y": 0.3448673258,
				"z": -0.6355792216,
				"element": "N" 
			},
			{
				"x": 1.7797609045,
				"y": -0.7492919916,
				"z": -1.3532978674,
				"element": "C" 
			},
			{
				"x": 0.6958786831,
				"y": -1.6143097252,
				"z": -1.3191018619,
				"element": "C" 
			},
			{
				"x": 0.6956541659,
				"y": -2.9141356151,
				"z": -1.991136932,
				"element": "C" 
			},
			{
				"x": 1.6431739181,
				"y": -3.3439825619,
				"z": -2.6300815454,
				"element": "O" 
			},
			{
				"x": 2.2240350719,
				"y": 1.478189155,
				"z": -0.2915484184,
				"element": "C" 
			},
			{
				"x": 3.0496487487,
				"y": 2.1507892643,
				"z": -1.2071495983,
				"element": "C" 
			},
			{
				"x": 3.1414110069,
				"y": 1.6826047678,
				"z": -2.8961183925,
				"element": "Cl" 
			},
			{
				"x": 3.8027797701,
				"y": 3.2527952194,
				"z": -0.7969579541,
				"element": "C" 
			},
			{
				"x": 3.724131443,
				"y": 3.706683098,
				"z": 0.5172043,
				"element": "C" 
			},
			{
				"x": 2.8863639785,
				"y": 3.0593718144,
				"z": 1.4272110998,
				"element": "C" 
			},
			{
				"x": 2.1475329694,
				"y": 1.9524766543,
				"z": 1.0248899694,
				"element": "C" 
			},
			{
				"x": -3.3758836448,
				"y": -0.6175272397,
				"z": 1.0156327864,
				"element": "H" 
			},
			{
				"x": -2.4373837813,
				"y": 0.6598481504,
				"z": 0.2150355352,
				"element": "H" 
			},
			{
				"x": -1.8026590304,
				"y": -0.1160464622,
				"z": 1.6659526552,
				"element": "H" 
			},
			{
				"x": -3.5652249644,
				"y": -1.8797758377,
				"z": -1.1226754811,
				"element": "H" 
			},
			{
				"x": -2.1386489186,
				"y": -2.3621032605,
				"z": -2.0478904812,
				"element": "H" 
			},
			{
				"x": -2.6112255554,
				"y": -0.6585194927,
				"z": -1.9823577756,
				"element": "H" 
			},
			{
				"x": -2.6334918786,
				"y": -2.9971531811,
				"z": 0.9833637546,
				"element": "H" 
			},
			{
				"x": -1.0281266711,
				"y": -2.5591677696,
				"z": 1.592119465,
				"element": "H" 
			},
			{
				"x": -1.1863229671,
				"y": -3.5087083266,
				"z": 0.1078682792,
				"element": "H" 
			},
			{
				"x": 2.7397651537,
				"y": -0.8693788865,
				"z": -1.8281947945,
				"element": "H" 
			},
			{
				"x": -0.2301559187,
				"y": -3.5163673117,
				"z": -1.8932572027,
				"element": "H" 
			},
			{
				"x": 4.4343345602,
				"y": 3.7540600152,
				"z": -1.5217274417,
				"element": "H" 
			},
			{
				"x": 4.3110349697,
				"y": 4.56706169,
				"z": 0.8228215102,
				"element": "H" 
			},
			{
				"x": 2.8131208108,
				"y": 3.4095708075,
				"z": 2.4518051425,
				"element": "H" 
			},
			{
				"x": 1.4897226865,
				"y": 1.4335256599,
				"z": 1.7115842345,
				"element": "H" 
			}
		],
		 "valence_orbital": [ 
			{
				"type": "occ",
				"energy": -0.29362,
				"method": "rhf"
			},
			{
				"type": "occ",
				"energy": -0.26495,
				"method": "rhf"
			},
			{
				"type": "occ",
				"energy": -0.25974,
				"method": "rhf"
			},
			{
				"type": "occ",
				"energy": -0.24654,
				"method": "rhf"
			},
			{
				"type": "occ",
				"energy": -0.24232,
				"method": "rhf"
			},
			{
				"type": "unocc",
				"energy": -0.05204,
				"method": "rhf"
			},
			{
				"type": "unocc",
				"energy": -0.02721,
				"method": "rhf"
			},
			{
				"type": "unocc",
				"energy": -0.0256,
				"method": "rhf"
			},
			{
				"type": "unocc",
				"energy": 0.0134,
				"method": "rhf"
			},
			{
				"type": "unocc",
				"energy": 0.01969,
				"method": "rhf"
			}
		],
		"cosmo_sigma_profile": { 
			"-0.025": 0.0,
			"-0.024": 0.0,
			"-0.023": 0.0,
			"-0.022": 0.0,
			"-0.021": 0.0,
			"-0.02": 0.0,
			"-0.019": 0.0,
			"-0.018": 0.0,
			"-0.017": 0.0,
			"-0.016": 0.0,
			"-0.015": 0.0,
			"-0.014": 0.0,
			"-0.013": 0.0,
			"-0.012": 0.0,
			"-0.011": 0.0,
			"-0.01": 0.00282116125778,
			"-0.009": 0.819373073746,
			"-0.008": 2.19424426389,
			"-0.007": 9.02118964989,
			"-0.006": 14.8381421812,
			"-0.005": 12.7017038007,
			"-0.004": 13.1556528139,
			"-0.003": 26.48700556,
			"-0.002": 28.8291667304,
			"-0.001": 30.4697869602,
			"0.0": 36.0706809043,
			"0.001": 41.2913966333,
			"0.002": 25.5220095401,
			"0.003": 19.2214515773,
			"0.004": 10.516567321,
			"0.005": 4.44460344733,
			"0.006": 3.07111624242,
			"0.007": 2.23262251891,
			"0.008": 3.01935901623,
			"0.009": 3.12978405614,
			"0.01": 3.18023626284,
			"0.011": 3.82088761243,
			"0.012": 4.90625405711,
			"0.013": 1.89628093833,
			"0.014": 0.262231315109,
			"0.015": 0.0,
			"0.016": 0.0,
			"0.017": 0.0,
			"0.018": 0.0,
			"0.019": 0.0,
			"0.02": 0.0,
			"0.021": 0.0,
			"0.022": 0.0,
			"0.023": 0.0,
			"0.024": 0.0,
			"0.025": 0.0
		}
	}
}
