{
	 "smiles": "CCOC(=O)C1=CC=C(F)C=C1", 
	 "Tm": 299.15, 
	 "num_atms": 21, 
	 "gaussian": { 
		 "optdone": 1, 
		 "sigma_profile": "yes", 
		 "theory": "DFT", 
		 "functional": "B3LYP", 
		 "basiset": "6-31G**", 
		 "properties": { 
			 "R2extent": 2921.3078, 
			 "electric_dipole_moment_norm": 1.75899992894, 
			 "electric_quadrupole_moment_norm": 8.49068629441, 
			 "total_energy": -598.684381442, 
			 "HOMO_LUMO_gap": 0.20989, 
			 "cosmo_polarized_energy": -6.58, 
			 "cosmo_cavitation_energy": 25.89, 
			 "cosmo_dispersion_energy": -18.77, 
			 "cosmo_repulsion_energy": 1.49, 
			 "cosmo_total_nonelectrostatic_energy": 8.61, 
			 "SMD_solvation_energy": 6.13 
		},
		"coords": [
			{
				"x": 3.3127112265,
				"y": -1.528723924,
				"z": 2.9153421186,
				"element": "C" 
			},
			{
				"x": 2.4780454946,
				"y": -2.3853893253,
				"z": 1.9751338241,
				"element": "C" 
			},
			{
				"x": 1.6379947371,
				"y": -1.5695619045,
				"z": 1.1245479047,
				"element": "O" 
			},
			{
				"x": 0.4437528136,
				"y": -1.1937426628,
				"z": 1.6380769417,
				"element": "C" 
			},
			{
				"x": 0.0580498089,
				"y": -1.5100649541,
				"z": 2.7482143431,
				"element": "O" 
			},
			{
				"x": -0.3413458697,
				"y": -0.3566915425,
				"z": 0.6891750918,
				"element": "C" 
			},
			{
				"x": 0.1364407758,
				"y": -0.0101263585,
				"z": -0.5833243849,
				"element": "C" 
			},
			{
				"x": -0.6365584634,
				"y": 0.7753515267,
				"z": -1.4343317757,
				"element": "C" 
			},
			{
				"x": -1.8855444882,
				"y": 1.205141993,
				"z": -0.9953181525,
				"element": "C" 
			},
			{
				"x": -2.6359154916,
				"y": 1.9649305658,
				"z": -1.8154795686,
				"element": "F" 
			},
			{
				"x": -2.3857941231,
				"y": 0.8772279589,
				"z": 0.2619533654,
				"element": "C" 
			},
			{
				"x": -1.6039357037,
				"y": 0.0923373282,
				"z": 1.1030074294,
				"element": "C" 
			},
			{
				"x": 2.6697794638,
				"y": -0.9908991452,
				"z": 3.6161582505,
				"element": "H" 
			},
			{
				"x": 3.9119023099,
				"y": -0.8046832836,
				"z": 2.3553285734,
				"element": "H" 
			},
			{
				"x": 3.9925678411,
				"y": -2.1650260103,
				"z": 3.4917578566,
				"element": "H" 
			},
			{
				"x": 1.8449125066,
				"y": -3.0796647098,
				"z": 2.5323949807,
				"element": "H" 
			},
			{
				"x": 3.1065361392,
				"y": -2.9449614725,
				"z": 1.278093921,
				"element": "H" 
			},
			{
				"x": 1.1125231937,
				"y": -0.35791248,
				"z": -0.9002115696,
				"element": "H" 
			},
			{
				"x": -0.2909548926,
				"y": 1.0574635864,
				"z": -2.4227721808,
				"element": "H" 
			},
			{
				"x": -3.3650063908,
				"y": 1.2360655231,
				"z": 0.5592678204,
				"element": "H" 
			},
			{
				"x": -1.9546608878,
				"y": -0.1866707089,
				"z": 2.0905852107,
				"element": "H" 
			}
		],
		 "valence_orbital": [ 
			{
				"type": "occ",
				"energy": -0.33967,
				"method": "rhf"
			},
			{
				"type": "occ",
				"energy": -0.29936,
				"method": "rhf"
			},
			{
				"type": "occ",
				"energy": -0.27433,
				"method": "rhf"
			},
			{
				"type": "occ",
				"energy": -0.26906,
				"method": "rhf"
			},
			{
				"type": "occ",
				"energy": -0.25405,
				"method": "rhf"
			},
			{
				"type": "unocc",
				"energy": -0.04416,
				"method": "rhf"
			},
			{
				"type": "unocc",
				"energy": -0.01772,
				"method": "rhf"
			},
			{
				"type": "unocc",
				"energy": 0.05952,
				"method": "rhf"
			},
			{
				"type": "unocc",
				"energy": 0.08675,
				"method": "rhf"
			},
			{
				"type": "unocc",
				"energy": 0.10905,
				"method": "rhf"
			}
		],
		"cosmo_sigma_profile": { 
			"-0.025": 0.0,
			"-0.024": 0.0,
			"-0.023": 0.0,
			"-0.022": 0.0,
			"-0.021": 0.0,
			"-0.02": 0.0,
			"-0.019": 0.0,
			"-0.018": 0.0,
			"-0.017": 0.0,
			"-0.016": 0.0,
			"-0.015": 0.0,
			"-0.014": 0.0,
			"-0.013": 0.0,
			"-0.012": 0.0,
			"-0.011": 0.0,
			"-0.01": 0.0,
			"-0.009": 0.0,
			"-0.008": 1.79843089502,
			"-0.007": 4.41612800272,
			"-0.006": 8.5373707314,
			"-0.005": 11.5536086468,
			"-0.004": 14.5211881949,
			"-0.003": 17.7508656878,
			"-0.002": 17.5095336988,
			"-0.001": 18.1867483189,
			"0.0": 25.262070318,
			"0.001": 20.0302673708,
			"0.002": 19.8276690787,
			"0.003": 15.313094473,
			"0.004": 12.9139709143,
			"0.005": 3.50443250558,
			"0.006": 3.43255637815,
			"0.007": 0.965474114112,
			"0.008": 1.30200503257,
			"0.009": 1.35309334456,
			"0.01": 1.90863664828,
			"0.011": 2.49958526382,
			"0.012": 3.83407700196,
			"0.013": 0.169894947734,
			"0.014": 0.0,
			"0.015": 0.0,
			"0.016": 0.0,
			"0.017": 0.0,
			"0.018": 0.0,
			"0.019": 0.0,
			"0.02": 0.0,
			"0.021": 0.0,
			"0.022": 0.0,
			"0.023": 0.0,
			"0.024": 0.0,
			"0.025": 0.0
		}
	}
}
