{
	 "smiles": "OC(=O)C1=NN(CC2=CC=CC=C2)C(=O)C=C1", 
	 "Tm": 467.15, 
	 "num_atms": 27, 
	 "gaussian": { 
		 "optdone": 1, 
		 "sigma_profile": "yes", 
		 "theory": "DFT", 
		 "functional": "B3LYP", 
		 "basiset": "6-31G**", 
		 "properties": { 
			 "R2extent": 4534.701, 
			 "electric_dipole_moment_norm": 1.70816989202, 
			 "electric_quadrupole_moment_norm": 6.03385353899, 
			 "total_energy": -798.471527087, 
			 "HOMO_LUMO_gap": 0.16675, 
			 "cosmo_polarized_energy": -14.85, 
			 "cosmo_cavitation_energy": 32.58, 
			 "cosmo_dispersion_energy": -23.02, 
			 "cosmo_repulsion_energy": 1.78, 
			 "cosmo_total_nonelectrostatic_energy": 11.34, 
			 "SMD_solvation_energy": 6.57 
		},
		"coords": [
			{
				"x": 1.2326078165,
				"y": -3.1856163735,
				"z": -1.1963852543,
				"element": "O" 
			},
			{
				"x": 1.0670757432,
				"y": -2.4543396793,
				"z": -2.3152233906,
				"element": "C" 
			},
			{
				"x": 1.5601086692,
				"y": -2.7536391465,
				"z": -3.3859694587,
				"element": "O" 
			},
			{
				"x": 0.224249079,
				"y": -1.241658618,
				"z": -2.1286663642,
				"element": "C" 
			},
			{
				"x": -0.2669040653,
				"y": -0.9991754609,
				"z": -0.9341051015,
				"element": "N" 
			},
			{
				"x": -1.022347201,
				"y": 0.0787917728,
				"z": -0.7721873105,
				"element": "N" 
			},
			{
				"x": -1.5166934554,
				"y": 0.3098050524,
				"z": 0.604980746,
				"element": "C" 
			},
			{
				"x": -0.5554986239,
				"y": 1.1300394209,
				"z": 1.440678528,
				"element": "C" 
			},
			{
				"x": 0.4293448553,
				"y": 0.4935350079,
				"z": 2.2063827122,
				"element": "C" 
			},
			{
				"x": 1.3231009735,
				"y": 1.2431710329,
				"z": 2.9721834336,
				"element": "C" 
			},
			{
				"x": 1.2400855167,
				"y": 2.637003892,
				"z": 2.9777229684,
				"element": "C" 
			},
			{
				"x": 0.2624555906,
				"y": 3.2776952981,
				"z": 2.2134864619,
				"element": "C" 
			},
			{
				"x": -0.6316401543,
				"y": 2.5292454282,
				"z": 1.4470048847,
				"element": "C" 
			},
			{
				"x": -1.3511030835,
				"y": 1.0330489862,
				"z": -1.776464256,
				"element": "C" 
			},
			{
				"x": -2.0426069363,
				"y": 2.0088351164,
				"z": -1.5045185578,
				"element": "O" 
			},
			{
				"x": -0.7969171367,
				"y": 0.7106596381,
				"z": -3.0789647378,
				"element": "C" 
			},
			{
				"x": -0.0240630421,
				"y": -0.39176211,
				"z": -3.2513012328,
				"element": "C" 
			},
			{
				"x": 1.7943924488,
				"y": -3.9349770198,
				"z": -1.4552741551,
				"element": "H" 
			},
			{
				"x": -2.4769679119,
				"y": 0.8160562583,
				"z": 0.5041700098,
				"element": "H" 
			},
			{
				"x": -1.6634500922,
				"y": -0.6811694758,
				"z": 1.0363322552,
				"element": "H" 
			},
			{
				"x": 0.4953558898,
				"y": -0.5912684364,
				"z": 2.1997586141,
				"element": "H" 
			},
			{
				"x": 2.0805057211,
				"y": 0.7394916388,
				"z": 3.5660771988,
				"element": "H" 
			},
			{
				"x": 1.9333270152,
				"y": 3.2211658287,
				"z": 3.5763168571,
				"element": "H" 
			},
			{
				"x": 0.1945567102,
				"y": 4.361881783,
				"z": 2.2145739577,
				"element": "H" 
			},
			{
				"x": -1.3844074929,
				"y": 3.0213669344,
				"z": 0.8390797551,
				"element": "H" 
			},
			{
				"x": -1.0277908334,
				"y": 1.3994456473,
				"z": -3.8836269328,
				"element": "H" 
			},
			{
				"x": 0.4131239999,
				"y": -0.6577324162,
				"z": -4.2073616305,
				"element": "H" 
			}
		],
		 "valence_orbital": [ 
			{
				"type": "occ",
				"energy": -0.29196,
				"method": "rhf"
			},
			{
				"type": "occ",
				"energy": -0.26404,
				"method": "rhf"
			},
			{
				"type": "occ",
				"energy": -0.25234,
				"method": "rhf"
			},
			{
				"type": "occ",
				"energy": -0.24938,
				"method": "rhf"
			},
			{
				"type": "occ",
				"energy": -0.2452,
				"method": "rhf"
			},
			{
				"type": "unocc",
				"energy": -0.07845,
				"method": "rhf"
			},
			{
				"type": "unocc",
				"energy": -0.04493,
				"method": "rhf"
			},
			{
				"type": "unocc",
				"energy": -0.0089,
				"method": "rhf"
			},
			{
				"type": "unocc",
				"energy": -0.00315,
				"method": "rhf"
			},
			{
				"type": "unocc",
				"energy": 0.04817,
				"method": "rhf"
			}
		],
		"cosmo_sigma_profile": { 
			"-0.025": 0.0,
			"-0.024": 0.0,
			"-0.023": 0.0,
			"-0.022": 0.0,
			"-0.021": 0.0,
			"-0.02": 0.0,
			"-0.019": 0.343599244413,
			"-0.018": 1.09223834068,
			"-0.017": 0.663290219475,
			"-0.016": 0.736166435711,
			"-0.015": 1.0783932395,
			"-0.014": 0.685692369227,
			"-0.013": 0.657707336913,
			"-0.012": 0.607955895616,
			"-0.011": 1.14466460705,
			"-0.01": 0.484881284647,
			"-0.009": 1.12439103148,
			"-0.008": 4.15404329574,
			"-0.007": 6.13503776134,
			"-0.006": 12.9528899488,
			"-0.005": 18.0457466645,
			"-0.004": 24.4022585457,
			"-0.003": 26.0004910271,
			"-0.002": 19.1565409868,
			"-0.001": 17.6877392588,
			"0.0": 15.7581794296,
			"0.001": 11.9454436491,
			"0.002": 12.8929846528,
			"0.003": 15.0844799037,
			"0.004": 12.6712936841,
			"0.005": 13.7180992054,
			"0.006": 7.88766929884,
			"0.007": 4.03162869583,
			"0.008": 4.04830453569,
			"0.009": 4.25241136957,
			"0.01": 5.85411237687,
			"0.011": 7.66424198765,
			"0.012": 4.08492040485,
			"0.013": 3.3595987814,
			"0.014": 0.804012831018,
			"0.015": 0.0,
			"0.016": 0.0,
			"0.017": 0.0,
			"0.018": 0.0,
			"0.019": 0.0,
			"0.02": 0.0,
			"0.021": 0.0,
			"0.022": 0.0,
			"0.023": 0.0,
			"0.024": 0.0,
			"0.025": 0.0
		}
	}
}
