{
	 "smiles": "OC(=O)CC1=CC2=C(OCC2)C=C1", 
	 "Tm": 376.15, 
	 "num_atms": 23, 
	 "gaussian": { 
		 "optdone": 1, 
		 "sigma_profile": "yes", 
		 "theory": "DFT", 
		 "functional": "B3LYP", 
		 "basiset": "6-31G**", 
		 "properties": { 
			 "R2extent": 3192.2589, 
			 "electric_dipole_moment_norm": 5.32676727293, 
			 "electric_quadrupole_moment_norm": 29.2149317168, 
			 "total_energy": -612.766873532, 
			 "HOMO_LUMO_gap": 0.19859, 
			 "cosmo_polarized_energy": -14.32, 
			 "cosmo_cavitation_energy": 26.72, 
			 "cosmo_dispersion_energy": -19.73, 
			 "cosmo_repulsion_energy": 1.58, 
			 "cosmo_total_nonelectrostatic_energy": 8.57, 
			 "SMD_solvation_energy": 5.66 
		},
		"coords": [
			{
				"x": -2.6433063956,
				"y": 0.5409420401,
				"z": 3.003890018,
				"element": "O" 
			},
			{
				"x": -1.8210866685,
				"y": -0.383010667,
				"z": 3.5517389292,
				"element": "C" 
			},
			{
				"x": -1.822289588,
				"y": -0.5906900074,
				"z": 4.7395702426,
				"element": "O" 
			},
			{
				"x": -0.9343294857,
				"y": -1.1719552952,
				"z": 2.5721653869,
				"element": "C" 
			},
			{
				"x": -0.6822856829,
				"y": -0.5150336741,
				"z": 1.2330349779,
				"element": "C" 
			},
			{
				"x": 0.3745139982,
				"y": 0.4053370961,
				"z": 1.0776328247,
				"element": "C" 
			},
			{
				"x": 0.5813498161,
				"y": 1.0160673155,
				"z": -0.1491956264,
				"element": "C" 
			},
			{
				"x": -0.2633416159,
				"y": 0.7254736616,
				"z": -1.2270847192,
				"element": "C" 
			},
			{
				"x": 0.0565692011,
				"y": 1.4023167888,
				"z": -2.3643607339,
				"element": "O" 
			},
			{
				"x": 1.3301350365,
				"y": 2.0638901317,
				"z": -2.1382150126,
				"element": "C" 
			},
			{
				"x": 1.5781774325,
				"y": 2.0565240798,
				"z": -0.6093385668,
				"element": "C" 
			},
			{
				"x": -1.3204325841,
				"y": -0.1694255991,
				"z": -1.1116094845,
				"element": "C" 
			},
			{
				"x": -1.5132360242,
				"y": -0.7825746005,
				"z": 0.1322368577,
				"element": "C" 
			},
			{
				"x": -2.4679594898,
				"y": 0.5959823028,
				"z": 2.0495638042,
				"element": "H" 
			},
			{
				"x": -0.0020284032,
				"y": -1.3765135397,
				"z": 3.1048698063,
				"element": "H" 
			},
			{
				"x": -1.4279589994,
				"y": -2.1420767843,
				"z": 2.4351864795,
				"element": "H" 
			},
			{
				"x": 1.0233192493,
				"y": 0.6271837083,
				"z": 1.9217772917,
				"element": "H" 
			},
			{
				"x": 1.26275249,
				"y": 3.0645289983,
				"z": -2.5698241736,
				"element": "H" 
			},
			{
				"x": 2.1008353861,
				"y": 1.4980000349,
				"z": -2.6743592188,
				"element": "H" 
			},
			{
				"x": 2.6147998945,
				"y": 1.8044541498,
				"z": -0.3665351503,
				"element": "H" 
			},
			{
				"x": 1.3642173796,
				"y": 3.0336306327,
				"z": -0.1590323291,
				"element": "H" 
			},
			{
				"x": -1.9593471219,
				"y": -0.3897110051,
				"z": -1.9595866442,
				"element": "H" 
			},
			{
				"x": -2.3203678248,
				"y": -1.503239768,
				"z": 0.2417750405,
				"element": "H" 
			}
		],
		 "valence_orbital": [ 
			{
				"type": "occ",
				"energy": -0.32826,
				"method": "rhf"
			},
			{
				"type": "occ",
				"energy": -0.3045,
				"method": "rhf"
			},
			{
				"type": "occ",
				"energy": -0.26649,
				"method": "rhf"
			},
			{
				"type": "occ",
				"energy": -0.26341,
				"method": "rhf"
			},
			{
				"type": "occ",
				"energy": -0.22345,
				"method": "rhf"
			},
			{
				"type": "unocc",
				"energy": -0.02486,
				"method": "rhf"
			},
			{
				"type": "unocc",
				"energy": -0.00741,
				"method": "rhf"
			},
			{
				"type": "unocc",
				"energy": 0.02088,
				"method": "rhf"
			},
			{
				"type": "unocc",
				"energy": 0.08217,
				"method": "rhf"
			},
			{
				"type": "unocc",
				"energy": 0.085,
				"method": "rhf"
			}
		],
		"cosmo_sigma_profile": { 
			"-0.025": 0.0,
			"-0.024": 0.0,
			"-0.023": 0.0,
			"-0.022": 0.0,
			"-0.021": 0.0,
			"-0.02": 0.0,
			"-0.019": 0.0,
			"-0.018": 0.0,
			"-0.017": 0.0,
			"-0.016": 0.0,
			"-0.015": 0.0,
			"-0.014": 0.0470402144337,
			"-0.013": 0.602506416148,
			"-0.012": 0.51982867894,
			"-0.011": 0.186961347062,
			"-0.01": 1.35928383361,
			"-0.009": 1.47196018554,
			"-0.008": 2.4081345988,
			"-0.007": 6.94787033321,
			"-0.006": 17.6562365437,
			"-0.005": 21.6035488632,
			"-0.004": 21.8807568005,
			"-0.003": 19.4180075127,
			"-0.002": 15.1849122696,
			"-0.001": 10.2098821381,
			"0.0": 8.01836926505,
			"0.001": 9.5003049852,
			"0.002": 9.25268107652,
			"0.003": 11.9506023027,
			"0.004": 8.32989345573,
			"0.005": 7.37321860761,
			"0.006": 3.48971386823,
			"0.007": 3.33400246555,
			"0.008": 4.80790259149,
			"0.009": 4.32429432087,
			"0.01": 5.53661080659,
			"0.011": 6.77363218103,
			"0.012": 6.20588170849,
			"0.013": 3.41172259649,
			"0.014": 0.308845328009,
			"0.015": 0.0,
			"0.016": 0.0,
			"0.017": 0.0,
			"0.018": 0.0,
			"0.019": 0.0,
			"0.02": 0.0,
			"0.021": 0.0,
			"0.022": 0.0,
			"0.023": 0.0,
			"0.024": 0.0,
			"0.025": 0.0
		}
	}
}
