{
	 "smiles": "CC1=CC(NC(N)=S)=C(C)C=C1", 
	 "Tm": 414.15, 
	 "num_atms": 24, 
	 "gaussian": { 
		 "optdone": 1, 
		 "sigma_profile": "yes", 
		 "theory": "DFT", 
		 "functional": "B3LYP", 
		 "basiset": "6-31G**", 
		 "properties": { 
			 "R2extent": 2748.014, 
			 "electric_dipole_moment_norm": 4.73068269703, 
			 "electric_quadrupole_moment_norm": 19.2392275315, 
			 "total_energy": -857.907218635, 
			 "HOMO_LUMO_gap": 0.17873, 
			 "cosmo_polarized_energy": -19.28, 
			 "cosmo_cavitation_energy": 28.82, 
			 "cosmo_dispersion_energy": -21.12, 
			 "cosmo_repulsion_energy": 1.67, 
			 "cosmo_total_nonelectrostatic_energy": 9.37, 
			 "SMD_solvation_energy": 4.16 
		},
		"coords": [
			{
				"x": -0.0921298348,
				"y": -3.2233757178,
				"z": 1.557345055,
				"element": "C" 
			},
			{
				"x": 0.5618161899,
				"y": -1.9366412167,
				"z": 1.1116036571,
				"element": "C" 
			},
			{
				"x": -0.1963077227,
				"y": -0.9383082807,
				"z": 0.4916233435,
				"element": "C" 
			},
			{
				"x": 0.4013097557,
				"y": 0.2397633569,
				"z": 0.0357844913,
				"element": "C" 
			},
			{
				"x": -0.3669482641,
				"y": 1.278979653,
				"z": -0.5517517596,
				"element": "N" 
			},
			{
				"x": -1.4114819912,
				"y": 1.2100938672,
				"z": -1.4366991038,
				"element": "C" 
			},
			{
				"x": -1.9253218317,
				"y": 2.4527240754,
				"z": -1.728602232,
				"element": "N" 
			},
			{
				"x": -2.0111336324,
				"y": -0.1643097711,
				"z": -2.1809843018,
				"element": "S" 
			},
			{
				"x": 1.7825709619,
				"y": 0.46319547,
				"z": 0.2139318176,
				"element": "C" 
			},
			{
				"x": 2.4476592463,
				"y": 1.731502032,
				"z": -0.2670144021,
				"element": "C" 
			},
			{
				"x": 2.5232091701,
				"y": -0.5348905656,
				"z": 0.8528735203,
				"element": "C" 
			},
			{
				"x": 1.9317824049,
				"y": -1.7180735961,
				"z": 1.2918898856,
				"element": "C" 
			},
			{
				"x": -1.0953659881,
				"y": -3.0458715211,
				"z": 1.9571820328,
				"element": "H" 
			},
			{
				"x": 0.4980554121,
				"y": -3.7252700904,
				"z": 2.3297240843,
				"element": "H" 
			},
			{
				"x": -0.1990176127,
				"y": -3.9213189735,
				"z": 0.7178788127,
				"element": "H" 
			},
			{
				"x": -1.260714431,
				"y": -1.0772185605,
				"z": 0.3492972798,
				"element": "H" 
			},
			{
				"x": 0.0254514086,
				"y": 2.203629098,
				"z": -0.433100832,
				"element": "H" 
			},
			{
				"x": -2.7591673876,
				"y": 2.4351665412,
				"z": -2.2965181153,
				"element": "H" 
			},
			{
				"x": -1.8914124236,
				"y": 3.1776973892,
				"z": -1.0231674658,
				"element": "H" 
			},
			{
				"x": 2.2567198971,
				"y": 1.9141887585,
				"z": -1.3310151568,
				"element": "H" 
			},
			{
				"x": 2.1081568375,
				"y": 2.6211832284,
				"z": 0.2839847844,
				"element": "H" 
			},
			{
				"x": 3.5300604649,
				"y": 1.6736622421,
				"z": -0.1293228275,
				"element": "H" 
			},
			{
				"x": 3.5889130235,
				"y": -0.38047835,
				"z": 1.0020326886,
				"element": "H" 
			},
			{
				"x": 2.5401963474,
				"y": -2.4759290685,
				"z": 1.7784247438,
				"element": "H" 
			}
		],
		 "valence_orbital": [ 
			{
				"type": "occ",
				"energy": -0.29743,
				"method": "rhf"
			},
			{
				"type": "occ",
				"energy": -0.24109,
				"method": "rhf"
			},
			{
				"type": "occ",
				"energy": -0.23158,
				"method": "rhf"
			},
			{
				"type": "occ",
				"energy": -0.20983,
				"method": "rhf"
			},
			{
				"type": "occ",
				"energy": -0.20164,
				"method": "rhf"
			},
			{
				"type": "unocc",
				"energy": -0.02291,
				"method": "rhf"
			},
			{
				"type": "unocc",
				"energy": 0.00315,
				"method": "rhf"
			},
			{
				"type": "unocc",
				"energy": 0.02129,
				"method": "rhf"
			},
			{
				"type": "unocc",
				"energy": 0.05299,
				"method": "rhf"
			},
			{
				"type": "unocc",
				"energy": 0.08948,
				"method": "rhf"
			}
		],
		"cosmo_sigma_profile": { 
			"-0.025": 0.0,
			"-0.024": 0.0,
			"-0.023": 0.0,
			"-0.022": 0.0,
			"-0.021": 0.0,
			"-0.02": 0.0,
			"-0.019": 0.0,
			"-0.018": 0.027407850514,
			"-0.017": 0.61669940646,
			"-0.016": 1.44360028348,
			"-0.015": 1.78458543313,
			"-0.014": 2.95897597231,
			"-0.013": 3.19514768839,
			"-0.012": 2.96188196838,
			"-0.011": 3.17832579129,
			"-0.01": 3.06900305475,
			"-0.009": 2.53487168014,
			"-0.008": 2.21390991927,
			"-0.007": 2.48561653496,
			"-0.006": 3.35361698759,
			"-0.005": 9.11929481226,
			"-0.004": 17.7486166295,
			"-0.003": 17.5928679067,
			"-0.002": 18.1719371869,
			"-0.001": 17.9343550473,
			"0.0": 21.4609122633,
			"0.001": 12.5610864918,
			"0.002": 9.40791375349,
			"0.003": 10.2371004763,
			"0.004": 10.4860049438,
			"0.005": 10.7311538885,
			"0.006": 11.8438861343,
			"0.007": 5.25321983344,
			"0.008": 6.04559489334,
			"0.009": 5.3812379464,
			"0.01": 6.39699239217,
			"0.011": 5.88810122194,
			"0.012": 3.57739096668,
			"0.013": 0.602376564167,
			"0.014": 0.0,
			"0.015": 0.0,
			"0.016": 0.0,
			"0.017": 0.0,
			"0.018": 0.0,
			"0.019": 0.0,
			"0.02": 0.0,
			"0.021": 0.0,
			"0.022": 0.0,
			"0.023": 0.0,
			"0.024": 0.0,
			"0.025": 0.0
		}
	}
}
