{
	 "smiles": "CCOC(=O)CN1N=CC2=C1C=CC=C2", 
	 "Tm": 308.15, 
	 "num_atms": 27, 
	 "gaussian": { 
		 "optdone": 1, 
		 "sigma_profile": "yes", 
		 "theory": "DFT", 
		 "functional": "B3LYP", 
		 "basiset": "6-31G**", 
		 "properties": { 
			 "R2extent": 4525.3097, 
			 "electric_dipole_moment_norm": 2.4235866995, 
			 "electric_quadrupole_moment_norm": 10.440465117, 
			 "total_energy": -686.350029402, 
			 "HOMO_LUMO_gap": 0.18957, 
			 "cosmo_polarized_energy": -12.27, 
			 "cosmo_cavitation_energy": 31.54, 
			 "cosmo_dispersion_energy": -22.42, 
			 "cosmo_repulsion_energy": 1.78, 
			 "cosmo_total_nonelectrostatic_energy": 10.89, 
			 "SMD_solvation_energy": 5.39 
		},
		"coords": [
			{
				"x": -3.2662385217,
				"y": -0.4328962098,
				"z": 2.061953026,
				"element": "C" 
			},
			{
				"x": -1.7819870402,
				"y": -0.6114610505,
				"z": 2.3399912641,
				"element": "C" 
			},
			{
				"x": -0.9881002554,
				"y": 0.3433068039,
				"z": 1.5883643761,
				"element": "O" 
			},
			{
				"x": -0.6610809293,
				"y": -0.0045744473,
				"z": 0.3274307982,
				"element": "C" 
			},
			{
				"x": -0.9672049925,
				"y": -1.0400560132,
				"z": -0.2142169089,
				"element": "O" 
			},
			{
				"x": 0.1849992363,
				"y": 1.1086467339,
				"z": -0.2955194647,
				"element": "C" 
			},
			{
				"x": 0.4608449043,
				"y": 0.9048563576,
				"z": -1.6905280196,
				"element": "N" 
			},
			{
				"x": -0.2972844615,
				"y": 1.5520576714,
				"z": -2.6237607436,
				"element": "N" 
			},
			{
				"x": 0.1332092615,
				"y": 1.1391467489,
				"z": -3.8008899112,
				"element": "C" 
			},
			{
				"x": 1.193709763,
				"y": 0.1906156955,
				"z": -3.6711480963,
				"element": "C" 
			},
			{
				"x": 1.3694680493,
				"y": 0.0564952117,
				"z": -2.2708053902,
				"element": "C" 
			},
			{
				"x": 2.3340788488,
				"y": -0.802034306,
				"z": -1.7193075023,
				"element": "C" 
			},
			{
				"x": 3.123650387,
				"y": -1.5148002814,
				"z": -2.6086542046,
				"element": "C" 
			},
			{
				"x": 2.9663317768,
				"y": -1.3902482569,
				"z": -4.0094745672,
				"element": "C" 
			},
			{
				"x": 2.0089420469,
				"y": -0.5465974482,
				"z": -4.5494067974,
				"element": "C" 
			},
			{
				"x": -3.8455708542,
				"y": -1.1129728516,
				"z": 2.6952325639,
				"element": "H" 
			},
			{
				"x": -3.5833305592,
				"y": 0.5914845227,
				"z": 2.2779141826,
				"element": "H" 
			},
			{
				"x": -3.4922079743,
				"y": -0.6617262988,
				"z": 1.0176569507,
				"element": "H" 
			},
			{
				"x": -1.4498112301,
				"y": -1.6204328639,
				"z": 2.0843474457,
				"element": "H" 
			},
			{
				"x": -1.5391776252,
				"y": -0.4014507519,
				"z": 3.3841964542,
				"element": "H" 
			},
			{
				"x": -0.3429389296,
				"y": 2.0588903075,
				"z": -0.1934326662,
				"element": "H" 
			},
			{
				"x": 1.1196079217,
				"y": 1.1903353343,
				"z": 0.2718833444,
				"element": "H" 
			},
			{
				"x": -0.3160233898,
				"y": 1.5305121175,
				"z": -4.7040992122,
				"element": "H" 
			},
			{
				"x": 2.4520423358,
				"y": -0.9167036162,
				"z": -0.6466777856,
				"element": "H" 
			},
			{
				"x": 3.879721889,
				"y": -2.1914559132,
				"z": -2.2209588745,
				"element": "H" 
			},
			{
				"x": 3.606832281,
				"y": -1.9710236746,
				"z": -4.6662904266,
				"element": "H" 
			},
			{
				"x": 1.8887180617,
				"y": -0.4561135213,
				"z": -5.625099835,
				"element": "H" 
			}
		],
		 "valence_orbital": [ 
			{
				"type": "occ",
				"energy": -0.28964,
				"method": "rhf"
			},
			{
				"type": "occ",
				"energy": -0.28548,
				"method": "rhf"
			},
			{
				"type": "occ",
				"energy": -0.27983,
				"method": "rhf"
			},
			{
				"type": "occ",
				"energy": -0.2361,
				"method": "rhf"
			},
			{
				"type": "occ",
				"energy": -0.21422,
				"method": "rhf"
			},
			{
				"type": "unocc",
				"energy": -0.02465,
				"method": "rhf"
			},
			{
				"type": "unocc",
				"energy": 0.00456,
				"method": "rhf"
			},
			{
				"type": "unocc",
				"energy": 0.02106,
				"method": "rhf"
			},
			{
				"type": "unocc",
				"energy": 0.06132,
				"method": "rhf"
			},
			{
				"type": "unocc",
				"energy": 0.08972,
				"method": "rhf"
			}
		],
		"cosmo_sigma_profile": { 
			"-0.025": 0.0,
			"-0.024": 0.0,
			"-0.023": 0.0,
			"-0.022": 0.0,
			"-0.021": 0.0,
			"-0.02": 0.0,
			"-0.019": 0.0,
			"-0.018": 0.0,
			"-0.017": 0.0,
			"-0.016": 0.0,
			"-0.015": 0.0,
			"-0.014": 0.0,
			"-0.013": 0.0,
			"-0.012": 0.0,
			"-0.011": 0.0,
			"-0.01": 0.0379013077464,
			"-0.009": 2.11100119206,
			"-0.008": 5.5939785448,
			"-0.007": 7.38841012992,
			"-0.006": 13.753650707,
			"-0.005": 19.6310457678,
			"-0.004": 24.9564011009,
			"-0.003": 21.8687568672,
			"-0.002": 18.463930444,
			"-0.001": 16.6091742571,
			"0.0": 17.7278116461,
			"0.001": 12.2218861655,
			"0.002": 11.6961303719,
			"0.003": 14.8531781541,
			"0.004": 16.7582265761,
			"0.005": 14.2423988462,
			"0.006": 6.77097227992,
			"0.007": 5.44754519709,
			"0.008": 5.074458129,
			"0.009": 3.04696187671,
			"0.01": 3.19731556267,
			"0.011": 5.07583795704,
			"0.012": 2.56197563589,
			"0.013": 0.821331999977,
			"0.014": 0.821706376296,
			"0.015": 0.353473700984,
			"0.016": 0.0,
			"0.017": 0.0,
			"0.018": 0.0,
			"0.019": 0.0,
			"0.02": 0.0,
			"0.021": 0.0,
			"0.022": 0.0,
			"0.023": 0.0,
			"0.024": 0.0,
			"0.025": 0.0
		}
	}
}
