{
	 "smiles": "N[C@H](CCCNC(N)=N)C(O)=O", 
	 "Tm": 508.15, 
	 "num_atms": 26, 
	 "gaussian": { 
		 "optdone": 1, 
		 "sigma_profile": "yes", 
		 "theory": "DFT", 
		 "functional": "B3LYP", 
		 "basiset": "6-31G**", 
		 "properties": { 
			 "R2extent": 2963.1939, 
			 "electric_dipole_moment_norm": 6.27496628915, 
			 "electric_quadrupole_moment_norm": 17.7965760752, 
			 "total_energy": -606.551773632, 
			 "HOMO_LUMO_gap": 0.21503, 
			 "cosmo_polarized_energy": -22.81, 
			 "cosmo_cavitation_energy": 28.07, 
			 "cosmo_dispersion_energy": -20.33, 
			 "cosmo_repulsion_energy": 1.66, 
			 "cosmo_total_nonelectrostatic_energy": 9.39, 
			 "SMD_solvation_energy": 4.04 
		},
		"coords": [
			{
				"x": -0.1733818027,
				"y": 0.5769327202,
				"z": -2.7921295017,
				"element": "N" 
			},
			{
				"x": -0.7308103111,
				"y": 0.1968730915,
				"z": -1.4773785138,
				"element": "C" 
			},
			{
				"x": -1.1032188226,
				"y": -1.3040413656,
				"z": -1.491401904,
				"element": "C" 
			},
			{
				"x": -1.8128779279,
				"y": -1.8725859099,
				"z": -0.2508732017,
				"element": "C" 
			},
			{
				"x": -0.9963349733,
				"y": -1.9002833674,
				"z": 1.0473760468,
				"element": "C" 
			},
			{
				"x": -0.7446949407,
				"y": -0.5638098149,
				"z": 1.5646668483,
				"element": "N" 
			},
			{
				"x": -0.1050836872,
				"y": -0.4000261469,
				"z": 2.7899441196,
				"element": "C" 
			},
			{
				"x": -0.1677635279,
				"y": 0.9171858927,
				"z": 3.2511619186,
				"element": "N" 
			},
			{
				"x": 0.49771793,
				"y": -1.2884330307,
				"z": 3.4963090925,
				"element": "N" 
			},
			{
				"x": -1.9755065935,
				"y": 1.0710346014,
				"z": -1.2191869085,
				"element": "C" 
			},
			{
				"x": -2.4485953048,
				"y": 1.6711383361,
				"z": -2.3118230841,
				"element": "O" 
			},
			{
				"x": -2.4958630587,
				"y": 1.1881028777,
				"z": -0.1257064094,
				"element": "O" 
			},
			{
				"x": 0.2177168099,
				"y": -0.225454862,
				"z": -3.2765302331,
				"element": "H" 
			},
			{
				"x": 0.5690904455,
				"y": 1.2636231284,
				"z": -2.6942313496,
				"element": "H" 
			},
			{
				"x": -0.0380659566,
				"y": 0.3762100411,
				"z": -0.6495803247,
				"element": "H" 
			},
			{
				"x": -1.7382448432,
				"y": -1.480819272,
				"z": -2.3700212343,
				"element": "H" 
			},
			{
				"x": -0.172048839,
				"y": -1.8634194,
				"z": -1.6578647288,
				"element": "H" 
			},
			{
				"x": -2.0900744722,
				"y": -2.90746705,
				"z": -0.4828737315,
				"element": "H" 
			},
			{
				"x": -2.7509707856,
				"y": -1.3352517357,
				"z": -0.0769254928,
				"element": "H" 
			},
			{
				"x": -1.5380693071,
				"y": -2.5179468252,
				"z": 1.7828523193,
				"element": "H" 
			},
			{
				"x": -0.0348959578,
				"y": -2.4022120753,
				"z": 0.8678307339,
				"element": "H" 
			},
			{
				"x": -1.4784666578,
				"y": 0.1103601007,
				"z": 1.3577671547,
				"element": "H" 
			},
			{
				"x": 0.4561078198,
				"y": 1.0571966428,
				"z": 4.0348383463,
				"element": "H" 
			},
			{
				"x": -0.0678645803,
				"y": 1.6260417339,
				"z": 2.5357782296,
				"element": "H" 
			},
			{
				"x": 0.3668908018,
				"y": -2.2225303002,
				"z": 3.1126034017,
				"element": "H" 
			},
			{
				"x": -1.7918914571,
				"y": 1.4350819894,
				"z": -3.0167015932,
				"element": "H" 
			}
		],
		 "valence_orbital": [ 
			{
				"type": "occ",
				"energy": -0.30687,
				"method": "rhf"
			},
			{
				"type": "occ",
				"energy": -0.26821,
				"method": "rhf"
			},
			{
				"type": "occ",
				"energy": -0.2436,
				"method": "rhf"
			},
			{
				"type": "occ",
				"energy": -0.23892,
				"method": "rhf"
			},
			{
				"type": "occ",
				"energy": -0.2122,
				"method": "rhf"
			},
			{
				"type": "unocc",
				"energy": 0.00283,
				"method": "rhf"
			},
			{
				"type": "unocc",
				"energy": 0.04921,
				"method": "rhf"
			},
			{
				"type": "unocc",
				"energy": 0.07052,
				"method": "rhf"
			},
			{
				"type": "unocc",
				"energy": 0.08115,
				"method": "rhf"
			},
			{
				"type": "unocc",
				"energy": 0.09432,
				"method": "rhf"
			}
		],
		"cosmo_sigma_profile": { 
			"-0.025": 0.0,
			"-0.024": 0.0,
			"-0.023": 0.0,
			"-0.022": 0.0,
			"-0.021": 0.0,
			"-0.02": 0.0,
			"-0.019": 0.0,
			"-0.018": 0.0,
			"-0.017": 0.0,
			"-0.016": 0.0,
			"-0.015": 0.0,
			"-0.014": 0.0,
			"-0.013": 0.0437302829222,
			"-0.012": 2.54576128008,
			"-0.011": 5.60143551028,
			"-0.01": 5.78026054114,
			"-0.009": 5.71527285549,
			"-0.008": 7.39127294394,
			"-0.007": 6.6618679102,
			"-0.006": 8.10146050034,
			"-0.005": 10.7539663288,
			"-0.004": 20.8541164775,
			"-0.003": 24.7351808851,
			"-0.002": 19.4702443726,
			"-0.001": 13.9221062335,
			"0.0": 8.11379392885,
			"0.001": 6.15995419514,
			"0.002": 6.94852634874,
			"0.003": 5.35391116828,
			"0.004": 4.89139384018,
			"0.005": 4.95049900278,
			"0.006": 5.8259787683,
			"0.007": 3.98562251584,
			"0.008": 4.29789747393,
			"0.009": 5.90405122718,
			"0.01": 6.055743773,
			"0.011": 5.85157233528,
			"0.012": 4.27197420802,
			"0.013": 4.283633594,
			"0.014": 2.27825887507,
			"0.015": 1.47879683354,
			"0.016": 1.55914756322,
			"0.017": 0.625112045618,
			"0.018": 1.23440611355,
			"0.019": 1.6405252347,
			"0.02": 0.539280789984,
			"0.021": 0.0,
			"0.022": 0.0,
			"0.023": 0.0,
			"0.024": 0.0,
			"0.025": 0.0
		}
	}
}
