{
	 "smiles": "CNC(=S)NCCN1CCOCC1", 
	 "Tm": 377.15, 
	 "num_atms": 30, 
	 "gaussian": { 
		 "optdone": 1, 
		 "sigma_profile": "yes", 
		 "theory": "DFT", 
		 "functional": "B3LYP", 
		 "basiset": "6-31G**", 
		 "properties": { 
			 "R2extent": 4210.1217, 
			 "electric_dipole_moment_norm": 5.15827801112, 
			 "electric_quadrupole_moment_norm": 35.5173839166, 
			 "total_energy": -952.737382128, 
			 "HOMO_LUMO_gap": 0.20463, 
			 "cosmo_polarized_energy": -22.33, 
			 "cosmo_cavitation_energy": 32.72, 
			 "cosmo_dispersion_energy": -23.75, 
			 "cosmo_repulsion_energy": 1.87, 
			 "cosmo_total_nonelectrostatic_energy": 10.84, 
			 "SMD_solvation_energy": 1.5 
		},
		"coords": [
			{
				"x": 0.9218301604,
				"y": 2.7254646588,
				"z": 2.8620316419,
				"element": "C" 
			},
			{
				"x": 2.2185100083,
				"y": 2.1312032941,
				"z": 2.6023240622,
				"element": "N" 
			},
			{
				"x": 2.4521034265,
				"y": 0.9086123452,
				"z": 2.0447685535,
				"element": "C" 
			},
			{
				"x": 4.026545153,
				"y": 0.4100631026,
				"z": 1.697520285,
				"element": "S" 
			},
			{
				"x": 1.3470181001,
				"y": 0.1576659661,
				"z": 1.7917366342,
				"element": "N" 
			},
			{
				"x": 1.3966236665,
				"y": -1.2233703881,
				"z": 1.3182632322,
				"element": "C" 
			},
			{
				"x": 0.0233584224,
				"y": -1.7311200823,
				"z": 0.8605611427,
				"element": "C" 
			},
			{
				"x": -0.3435261488,
				"y": -1.3434872162,
				"z": -0.4947551802,
				"element": "N" 
			},
			{
				"x": -1.4037962849,
				"y": -2.1709019978,
				"z": -1.1035860804,
				"element": "C" 
			},
			{
				"x": -2.7482664772,
				"y": -1.4476233045,
				"z": -1.1759496391,
				"element": "C" 
			},
			{
				"x": -2.6650275789,
				"y": -0.2478235638,
				"z": -1.9433052647,
				"element": "O" 
			},
			{
				"x": -1.3691788254,
				"y": 0.3486811995,
				"z": -1.9486704538,
				"element": "C" 
			},
			{
				"x": -0.6037537474,
				"y": 0.0919452516,
				"z": -0.6560395327,
				"element": "C" 
			},
			{
				"x": 1.0721130237,
				"y": 3.7415897455,
				"z": 3.2298274836,
				"element": "H" 
			},
			{
				"x": 0.3051287489,
				"y": 2.7817299686,
				"z": 1.9549609584,
				"element": "H" 
			},
			{
				"x": 0.3607694911,
				"y": 2.1776457868,
				"z": 3.6326841275,
				"element": "H" 
			},
			{
				"x": 3.0527957258,
				"y": 2.6788230762,
				"z": 2.7451468045,
				"element": "H" 
			},
			{
				"x": 0.466986106,
				"y": 0.4528916528,
				"z": 2.192621762,
				"element": "H" 
			},
			{
				"x": 1.7729836859,
				"y": -1.874384603,
				"z": 2.1192278545,
				"element": "H" 
			},
			{
				"x": 2.1107230539,
				"y": -1.2839855092,
				"z": 0.4947100614,
				"element": "H" 
			},
			{
				"x": 0.0712057671,
				"y": -2.8240500725,
				"z": 0.888956745,
				"element": "H" 
			},
			{
				"x": -0.7423793153,
				"y": -1.4351625127,
				"z": 1.6130204711,
				"element": "H" 
			},
			{
				"x": -1.5192726951,
				"y": -3.0986752599,
				"z": -0.5338887081,
				"element": "H" 
			},
			{
				"x": -1.1054441806,
				"y": -2.4597418752,
				"z": -2.1206778797,
				"element": "H" 
			},
			{
				"x": -3.5013194234,
				"y": -2.0829697409,
				"z": -1.656033362,
				"element": "H" 
			},
			{
				"x": -3.1069002345,
				"y": -1.2212445362,
				"z": -0.1584801245,
				"element": "H" 
			},
			{
				"x": -1.5183864319,
				"y": 1.4239457675,
				"z": -2.0898061893,
				"element": "H" 
			},
			{
				"x": -0.7783731965,
				"y": -0.0217782586,
				"z": -2.8006127315,
				"element": "H" 
			},
			{
				"x": -1.1999609488,
				"y": 0.4999282636,
				"z": 0.1859294398,
				"element": "H" 
			},
			{
				"x": 0.3419909492,
				"y": 0.6438288418,
				"z": -0.6720861133,
				"element": "H" 
			}
		],
		 "valence_orbital": [ 
			{
				"type": "occ",
				"energy": -0.25905,
				"method": "rhf"
			},
			{
				"type": "occ",
				"energy": -0.24865,
				"method": "rhf"
			},
			{
				"type": "occ",
				"energy": -0.21546,
				"method": "rhf"
			},
			{
				"type": "occ",
				"energy": -0.20345,
				"method": "rhf"
			},
			{
				"type": "occ",
				"energy": -0.19548,
				"method": "rhf"
			},
			{
				"type": "unocc",
				"energy": 0.00915,
				"method": "rhf"
			},
			{
				"type": "unocc",
				"energy": 0.05088,
				"method": "rhf"
			},
			{
				"type": "unocc",
				"energy": 0.07133,
				"method": "rhf"
			},
			{
				"type": "unocc",
				"energy": 0.08363,
				"method": "rhf"
			},
			{
				"type": "unocc",
				"energy": 0.0937,
				"method": "rhf"
			}
		],
		"cosmo_sigma_profile": { 
			"-0.025": 0.0,
			"-0.024": 0.0,
			"-0.023": 0.0,
			"-0.022": 0.0,
			"-0.021": 0.0,
			"-0.02": 0.0,
			"-0.019": 0.0,
			"-0.018": 0.0,
			"-0.017": 0.0,
			"-0.016": 0.0,
			"-0.015": 0.0,
			"-0.014": 0.635837002923,
			"-0.013": 1.72949295787,
			"-0.012": 1.75875995846,
			"-0.011": 2.02253201863,
			"-0.01": 3.31496960676,
			"-0.009": 2.69367764139,
			"-0.008": 3.14348144536,
			"-0.007": 5.68120792203,
			"-0.006": 6.35385771034,
			"-0.005": 18.887683001,
			"-0.004": 25.2793568928,
			"-0.003": 40.9552831534,
			"-0.002": 30.1078965479,
			"-0.001": 16.8702092539,
			"0.0": 10.5963131259,
			"0.001": 8.40906635413,
			"0.002": 7.04489454282,
			"0.003": 6.01133305118,
			"0.004": 6.17052035966,
			"0.005": 5.52504892282,
			"0.006": 5.75596309541,
			"0.007": 5.23050127198,
			"0.008": 4.84106417066,
			"0.009": 6.62963365427,
			"0.01": 5.91813141461,
			"0.011": 7.17582630804,
			"0.012": 9.66041717925,
			"0.013": 6.06872570625,
			"0.014": 2.00472655165,
			"0.015": 0.269106080522,
			"0.016": 0.0,
			"0.017": 0.0,
			"0.018": 0.0,
			"0.019": 0.0,
			"0.02": 0.0,
			"0.021": 0.0,
			"0.022": 0.0,
			"0.023": 0.0,
			"0.024": 0.0,
			"0.025": 0.0
		}
	}
}
