{
	 "smiles": "CC1CN(CC(C)O1)S(Cl)(=O)=O", 
	 "Tm": 348.15, 
	 "num_atms": 24, 
	 "gaussian": { 
		 "optdone": 1, 
		 "sigma_profile": "yes", 
		 "theory": "DFT", 
		 "functional": "B3LYP", 
		 "basiset": "6-31G**", 
		 "properties": { 
			 "R2extent": 3462.7775, 
			 "electric_dipole_moment_norm": 4.18633715556, 
			 "electric_quadrupole_moment_norm": 15.9034529332, 
			 "total_energy": -1374.59825039, 
			 "HOMO_LUMO_gap": 0.18092, 
			 "cosmo_polarized_energy": -10.72, 
			 "cosmo_cavitation_energy": 28.33, 
			 "cosmo_dispersion_energy": -21.05, 
			 "cosmo_repulsion_energy": 1.63, 
			 "cosmo_total_nonelectrostatic_energy": 8.91, 
			 "SMD_solvation_energy": 2.84 
		},
		"coords": [
			{
				"x": 2.3881338798,
				"y": -1.7343049784,
				"z": 0.1875207802,
				"element": "C" 
			},
			{
				"x": 0.8666821981,
				"y": -1.6403865394,
				"z": 0.0551185589,
				"element": "C" 
			},
			{
				"x": 0.161712827,
				"y": -1.0308710947,
				"z": 1.2793484651,
				"element": "C" 
			},
			{
				"x": 0.2573029329,
				"y": 0.4393880522,
				"z": 1.2840784619,
				"element": "N" 
			},
			{
				"x": -0.0652139317,
				"y": 1.1094692087,
				"z": 0.0133215633,
				"element": "C" 
			},
			{
				"x": 0.6947569607,
				"y": 0.4494501059,
				"z": -1.1419188454,
				"element": "C" 
			},
			{
				"x": 0.2374112474,
				"y": 0.9721008817,
				"z": -2.495693506,
				"element": "C" 
			},
			{
				"x": 0.4530589817,
				"y": -0.9596836877,
				"z": -1.135822465,
				"element": "O" 
			},
			{
				"x": 0.8942520426,
				"y": 1.2725032096,
				"z": 2.5352011629,
				"element": "S" 
			},
			{
				"x": 2.9828230407,
				"y": 1.5432288769,
				"z": 2.0605157855,
				"element": "Cl" 
			},
			{
				"x": 0.8866884584,
				"y": 0.4213079121,
				"z": 3.7140871548,
				"element": "O" 
			},
			{
				"x": 0.3651329901,
				"y": 2.6269827404,
				"z": 2.5169911982,
				"element": "O" 
			},
			{
				"x": 2.8537670273,
				"y": -0.7732259469,
				"z": 0.4173185362,
				"element": "H" 
			},
			{
				"x": 2.8133608093,
				"y": -2.1150012118,
				"z": -0.7452037453,
				"element": "H" 
			},
			{
				"x": 2.6512762232,
				"y": -2.42777382,
				"z": 0.9929887478,
				"element": "H" 
			},
			{
				"x": 0.4668699354,
				"y": -2.6535711542,
				"z": -0.0678824019,
				"element": "H" 
			},
			{
				"x": -0.9071648664,
				"y": -1.2762488019,
				"z": 1.2410141528,
				"element": "H" 
			},
			{
				"x": 0.5654512236,
				"y": -1.4178881373,
				"z": 2.215199492,
				"element": "H" 
			},
			{
				"x": 0.1686240557,
				"y": 2.1716331639,
				"z": 0.0969964163,
				"element": "H" 
			},
			{
				"x": -1.1464598555,
				"y": 1.0090347982,
				"z": -0.1504909597,
				"element": "H" 
			},
			{
				"x": 1.7684122427,
				"y": 0.6485948373,
				"z": -1.0113385531,
				"element": "H" 
			},
			{
				"x": 0.7807414471,
				"y": 0.4607239147,
				"z": -3.2939879385,
				"element": "H" 
			},
			{
				"x": -0.8318939221,
				"y": 0.786738276,
				"z": -2.6374804137,
				"element": "H" 
			},
			{
				"x": 0.4234740521,
				"y": 2.0471993949,
				"z": -2.580681647,
				"element": "H" 
			}
		],
		 "valence_orbital": [ 
			{
				"type": "occ",
				"energy": -0.33307,
				"method": "rhf"
			},
			{
				"type": "occ",
				"energy": -0.32319,
				"method": "rhf"
			},
			{
				"type": "occ",
				"energy": -0.311,
				"method": "rhf"
			},
			{
				"type": "occ",
				"energy": -0.29535,
				"method": "rhf"
			},
			{
				"type": "occ",
				"energy": -0.26054,
				"method": "rhf"
			},
			{
				"type": "unocc",
				"energy": -0.07962,
				"method": "rhf"
			},
			{
				"type": "unocc",
				"energy": 0.04971,
				"method": "rhf"
			},
			{
				"type": "unocc",
				"energy": 0.07131,
				"method": "rhf"
			},
			{
				"type": "unocc",
				"energy": 0.07257,
				"method": "rhf"
			},
			{
				"type": "unocc",
				"energy": 0.08678,
				"method": "rhf"
			}
		],
		"cosmo_sigma_profile": { 
			"-0.025": 0.0,
			"-0.024": 0.0,
			"-0.023": 0.0,
			"-0.022": 0.0,
			"-0.021": 0.0,
			"-0.02": 0.0,
			"-0.019": 0.0,
			"-0.018": 0.0,
			"-0.017": 0.0,
			"-0.016": 0.0,
			"-0.015": 0.0,
			"-0.014": 0.0,
			"-0.013": 0.0,
			"-0.012": 0.000556342459393,
			"-0.011": 0.0377975011137,
			"-0.01": 0.117814238514,
			"-0.009": 0.184510788763,
			"-0.008": 0.474349335022,
			"-0.007": 5.52959064037,
			"-0.006": 17.0816825483,
			"-0.005": 17.3503913124,
			"-0.004": 20.2708579133,
			"-0.003": 18.7059489175,
			"-0.002": 18.7209909038,
			"-0.001": 17.7136364276,
			"0.0": 20.1832804552,
			"0.001": 14.3439667513,
			"0.002": 8.91697101821,
			"0.003": 10.5671654843,
			"0.004": 10.8957354553,
			"0.005": 8.9960480144,
			"0.006": 5.83947154845,
			"0.007": 6.48392764853,
			"0.008": 10.8543603754,
			"0.009": 6.6510273808,
			"0.01": 1.49639626743,
			"0.011": 1.07513323803,
			"0.012": 1.23742953186,
			"0.013": 0.783947291648,
			"0.014": 0.0,
			"0.015": 0.0,
			"0.016": 0.0,
			"0.017": 0.0,
			"0.018": 0.0,
			"0.019": 0.0,
			"0.02": 0.0,
			"0.021": 0.0,
			"0.022": 0.0,
			"0.023": 0.0,
			"0.024": 0.0,
			"0.025": 0.0
		}
	}
}
