{
	 "smiles": "CC(C)(C)OC(=O)N1CC(C1)=CC(O)=O", 
	 "Tm": 414.15, 
	 "num_atms": 30, 
	 "gaussian": { 
		 "optdone": 1, 
		 "sigma_profile": "yes", 
		 "theory": "DFT", 
		 "functional": "B3LYP", 
		 "basiset": "6-31G**", 
		 "properties": { 
			 "R2extent": 5472.1624, 
			 "electric_dipole_moment_norm": 2.45772350154, 
			 "electric_quadrupole_moment_norm": 12.944494228, 
			 "total_energy": -745.749666482, 
			 "HOMO_LUMO_gap": 0.19383, 
			 "cosmo_polarized_energy": -14.33, 
			 "cosmo_cavitation_energy": 33.75, 
			 "cosmo_dispersion_energy": -23.52, 
			 "cosmo_repulsion_energy": 1.89, 
			 "cosmo_total_nonelectrostatic_energy": 12.13, 
			 "SMD_solvation_energy": 6.48 
		},
		"coords": [
			{
				"x": -2.1854178866,
				"y": -1.8659621892,
				"z": 0.3078537165,
				"element": "C" 
			},
			{
				"x": -1.6824631869,
				"y": -1.3939153876,
				"z": 1.676228911,
				"element": "C" 
			},
			{
				"x": -1.194628389,
				"y": -2.5555308487,
				"z": 2.5481202345,
				"element": "C" 
			},
			{
				"x": -2.7578128761,
				"y": -0.5814949509,
				"z": 2.4017573989,
				"element": "C" 
			},
			{
				"x": -0.6009125637,
				"y": -0.4093573621,
				"z": 1.5016305368,
				"element": "O" 
			},
			{
				"x": 0.5605387668,
				"y": -0.7542570056,
				"z": 0.900408779,
				"element": "C" 
			},
			{
				"x": 0.8492165219,
				"y": -1.8388425161,
				"z": 0.4197161439,
				"element": "O" 
			},
			{
				"x": 1.4241591704,
				"y": 0.3087539103,
				"z": 0.9178913116,
				"element": "N" 
			},
			{
				"x": 2.5612909021,
				"y": 0.4570395201,
				"z": -0.0058825576,
				"element": "C" 
			},
			{
				"x": 2.341272877,
				"y": 1.9604205306,
				"z": 0.0650897522,
				"element": "C" 
			},
			{
				"x": 1.1143300257,
				"y": 1.7550543487,
				"z": 0.9375803351,
				"element": "C" 
			},
			{
				"x": 2.9928673147,
				"y": 3.0119561302,
				"z": -0.4360585476,
				"element": "C" 
			},
			{
				"x": 2.5966380537,
				"y": 4.417253993,
				"z": -0.2352291089,
				"element": "C" 
			},
			{
				"x": 1.469854825,
				"y": 4.5588798629,
				"z": 0.517426458,
				"element": "O" 
			},
			{
				"x": 3.1963988497,
				"y": 5.3721437423,
				"z": -0.6861856502,
				"element": "O" 
			},
			{
				"x": -2.4862164852,
				"y": -1.0086316827,
				"z": -0.3029426585,
				"element": "H" 
			},
			{
				"x": -3.0601293993,
				"y": -2.510993199,
				"z": 0.4401988561,
				"element": "H" 
			},
			{
				"x": -1.4122231282,
				"y": -2.4240752765,
				"z": -0.2206499013,
				"element": "H" 
			},
			{
				"x": -0.4112471146,
				"y": -3.1208160148,
				"z": 2.0425975486,
				"element": "H" 
			},
			{
				"x": -2.0312334055,
				"y": -3.227223731,
				"z": 2.766278671,
				"element": "H" 
			},
			{
				"x": -0.8043980955,
				"y": -2.1789856765,
				"z": 3.4989285005,
				"element": "H" 
			},
			{
				"x": -3.6345681364,
				"y": -1.2067563795,
				"z": 2.5947220087,
				"element": "H" 
			},
			{
				"x": -3.0697471114,
				"y": 0.2746709046,
				"z": 1.7963754697,
				"element": "H" 
			},
			{
				"x": -2.3804172769,
				"y": -0.2084042324,
				"z": 3.3582248338,
				"element": "H" 
			},
			{
				"x": 2.3885681931,
				"y": 0.0027433589,
				"z": -0.9902893888,
				"element": "H" 
			},
			{
				"x": 3.5161342565,
				"y": 0.0892842988,
				"z": 0.3876546723,
				"element": "H" 
			},
			{
				"x": 0.1616932524,
				"y": 2.0194837134,
				"z": 0.4640265243,
				"element": "H" 
			},
			{
				"x": 1.1501511039,
				"y": 2.2176538719,
				"z": 1.9288309047,
				"element": "H" 
			},
			{
				"x": 3.8831025702,
				"y": 2.8794523973,
				"z": -1.0427235031,
				"element": "H" 
			},
			{
				"x": 1.3154983722,
				"y": 5.5159558697,
				"z": 0.5785197489,
				"element": "H" 
			}
		],
		 "valence_orbital": [ 
			{
				"type": "occ",
				"energy": -0.29094,
				"method": "rhf"
			},
			{
				"type": "occ",
				"energy": -0.28526,
				"method": "rhf"
			},
			{
				"type": "occ",
				"energy": -0.27921,
				"method": "rhf"
			},
			{
				"type": "occ",
				"energy": -0.26594,
				"method": "rhf"
			},
			{
				"type": "occ",
				"energy": -0.24782,
				"method": "rhf"
			},
			{
				"type": "unocc",
				"energy": -0.05399,
				"method": "rhf"
			},
			{
				"type": "unocc",
				"energy": 0.04227,
				"method": "rhf"
			},
			{
				"type": "unocc",
				"energy": 0.06924,
				"method": "rhf"
			},
			{
				"type": "unocc",
				"energy": 0.07746,
				"method": "rhf"
			},
			{
				"type": "unocc",
				"energy": 0.0818,
				"method": "rhf"
			}
		],
		"cosmo_sigma_profile": { 
			"-0.025": 0.0,
			"-0.024": 0.0,
			"-0.023": 0.0,
			"-0.022": 0.0,
			"-0.021": 0.0,
			"-0.02": 0.0,
			"-0.019": 0.0,
			"-0.018": 0.421932591812,
			"-0.017": 0.987304830877,
			"-0.016": 0.79919709413,
			"-0.015": 0.851148343473,
			"-0.014": 0.74570512028,
			"-0.013": 0.738646862827,
			"-0.012": 0.76804119224,
			"-0.011": 0.510232345167,
			"-0.01": 0.827874545852,
			"-0.009": 0.849730961413,
			"-0.008": 0.528760968032,
			"-0.007": 5.7299696382,
			"-0.006": 12.3643926317,
			"-0.005": 13.3566656425,
			"-0.004": 20.6303372854,
			"-0.003": 23.1901399562,
			"-0.002": 24.3923134166,
			"-0.001": 24.5695212858,
			"0.0": 34.0441468312,
			"0.001": 24.9073433687,
			"0.002": 10.2822318241,
			"0.003": 9.59592414275,
			"0.004": 7.8161659265,
			"0.005": 8.07953640435,
			"0.006": 5.75685268721,
			"0.007": 4.44368670305,
			"0.008": 3.25065780169,
			"0.009": 2.77645722221,
			"0.01": 4.03860858555,
			"0.011": 4.11289559194,
			"0.012": 7.34870357754,
			"0.013": 5.12926332417,
			"0.014": 0.8107527315,
			"0.015": 0.0,
			"0.016": 0.0,
			"0.017": 0.0,
			"0.018": 0.0,
			"0.019": 0.0,
			"0.02": 0.0,
			"0.021": 0.0,
			"0.022": 0.0,
			"0.023": 0.0,
			"0.024": 0.0,
			"0.025": 0.0
		}
	}
}
