{
	 "smiles": "NC(=O)C1=C(OCCC(O)=O)C=CC=C1", 
	 "Tm": 448.15, 
	 "num_atms": 26, 
	 "gaussian": { 
		 "optdone": 1, 
		 "sigma_profile": "yes", 
		 "theory": "DFT", 
		 "functional": "B3LYP", 
		 "basiset": "6-31G**", 
		 "properties": { 
			 "R2extent": 3816.6052, 
			 "electric_dipole_moment_norm": 4.8640770769, 
			 "electric_quadrupole_moment_norm": 13.9751556195, 
			 "total_energy": -743.368118534, 
			 "HOMO_LUMO_gap": 0.21064, 
			 "cosmo_polarized_energy": -18.33, 
			 "cosmo_cavitation_energy": 30.48, 
			 "cosmo_dispersion_energy": -21.87, 
			 "cosmo_repulsion_energy": 1.73, 
			 "cosmo_total_nonelectrostatic_energy": 10.34, 
			 "SMD_solvation_energy": 7.11 
		},
		"coords": [
			{
				"x": 0.147317071,
				"y": 3.0931325751,
				"z": -0.2920157748,
				"element": "N" 
			},
			{
				"x": 0.6597453097,
				"y": 2.6331424385,
				"z": -1.4695289795,
				"element": "C" 
			},
			{
				"x": 1.0453529816,
				"y": 3.3956314071,
				"z": -2.3509734006,
				"element": "O" 
			},
			{
				"x": 0.7291818585,
				"y": 1.1340180219,
				"z": -1.6558775782,
				"element": "C" 
			},
			{
				"x": 0.2178372703,
				"y": 0.1552707381,
				"z": -0.7833185711,
				"element": "C" 
			},
			{
				"x": -0.3986859031,
				"y": 0.5157336357,
				"z": 0.4103512505,
				"element": "O" 
			},
			{
				"x": -1.8120194747,
				"y": 0.2624071412,
				"z": 0.4914648724,
				"element": "C" 
			},
			{
				"x": -2.1687648795,
				"y": 0.0766152848,
				"z": 1.9557097499,
				"element": "C" 
			},
			{
				"x": -1.6212324581,
				"y": -1.2224462471,
				"z": 2.5151853317,
				"element": "C" 
			},
			{
				"x": -1.515565036,
				"y": -1.1791119136,
				"z": 3.8606801822,
				"element": "O" 
			},
			{
				"x": -1.3384094501,
				"y": -2.2060464595,
				"z": 1.8655892085,
				"element": "O" 
			},
			{
				"x": 0.3561665644,
				"y": -1.2065042823,
				"z": -1.0691180425,
				"element": "C" 
			},
			{
				"x": 1.0012427664,
				"y": -1.6106763095,
				"z": -2.2352879085,
				"element": "C" 
			},
			{
				"x": 1.5135361813,
				"y": -0.655104758,
				"z": -3.1172474977,
				"element": "C" 
			},
			{
				"x": 1.3776146206,
				"y": 0.6965460202,
				"z": -2.821915657,
				"element": "C" 
			},
			{
				"x": 0.2066211372,
				"y": 4.0875891685,
				"z": -0.1350560683,
				"element": "H" 
			},
			{
				"x": -0.0267120255,
				"y": 2.4529981131,
				"z": 0.4687295113,
				"element": "H" 
			},
			{
				"x": -2.3571657562,
				"y": 1.112985451,
				"z": 0.0623783479,
				"element": "H" 
			},
			{
				"x": -2.0618376798,
				"y": -0.6401963174,
				"z": -0.0728554113,
				"element": "H" 
			},
			{
				"x": -3.2604562869,
				"y": 0.0496336334,
				"z": 2.0676750639,
				"element": "H" 
			},
			{
				"x": -1.8121683445,
				"y": 0.9139356832,
				"z": 2.5623963303,
				"element": "H" 
			},
			{
				"x": -1.1901468101,
				"y": -2.0520765521,
				"z": 4.1396206075,
				"element": "H" 
			},
			{
				"x": -0.0362764198,
				"y": -1.9274035986,
				"z": -0.3584284453,
				"element": "H" 
			},
			{
				"x": 1.109915597,
				"y": -2.6701992827,
				"z": -2.4489430181,
				"element": "H" 
			},
			{
				"x": 2.0196247081,
				"y": -0.964143423,
				"z": -4.0267837792,
				"element": "H" 
			},
			{
				"x": 1.7621844582,
				"y": 1.463769832,
				"z": -3.4851303241,
				"element": "H" 
			}
		],
		 "valence_orbital": [ 
			{
				"type": "occ",
				"energy": -0.29198,
				"method": "rhf"
			},
			{
				"type": "occ",
				"energy": -0.25813,
				"method": "rhf"
			},
			{
				"type": "occ",
				"energy": -0.25113,
				"method": "rhf"
			},
			{
				"type": "occ",
				"energy": -0.24343,
				"method": "rhf"
			},
			{
				"type": "occ",
				"energy": -0.24093,
				"method": "rhf"
			},
			{
				"type": "unocc",
				"energy": -0.03029,
				"method": "rhf"
			},
			{
				"type": "unocc",
				"energy": -0.00724,
				"method": "rhf"
			},
			{
				"type": "unocc",
				"energy": -0.00087,
				"method": "rhf"
			},
			{
				"type": "unocc",
				"energy": 0.06688,
				"method": "rhf"
			},
			{
				"type": "unocc",
				"energy": 0.07145,
				"method": "rhf"
			}
		],
		"cosmo_sigma_profile": { 
			"-0.025": 0.0,
			"-0.024": 0.0,
			"-0.023": 0.0,
			"-0.022": 0.0,
			"-0.021": 0.0,
			"-0.02": 0.0,
			"-0.019": 0.0515389305439,
			"-0.018": 1.02525483743,
			"-0.017": 0.755870092486,
			"-0.016": 0.892003657018,
			"-0.015": 0.884997486935,
			"-0.014": 1.10296680111,
			"-0.013": 1.35873433386,
			"-0.012": 1.77347179625,
			"-0.011": 2.22666113341,
			"-0.01": 1.56720691701,
			"-0.009": 2.24106673778,
			"-0.008": 5.34083238248,
			"-0.007": 7.60136245723,
			"-0.006": 14.02001414,
			"-0.005": 17.1284561448,
			"-0.004": 18.0064859079,
			"-0.003": 16.2002302678,
			"-0.002": 12.7120879206,
			"-0.001": 13.7401053249,
			"0.0": 12.7078680629,
			"0.001": 12.5737513709,
			"0.002": 14.7791290062,
			"0.003": 17.8906948541,
			"0.004": 16.1002797838,
			"0.005": 10.0141860851,
			"0.006": 5.59460511757,
			"0.007": 4.70396243007,
			"0.008": 4.50266259856,
			"0.009": 4.82603494616,
			"0.01": 2.86348126717,
			"0.011": 4.40587035399,
			"0.012": 3.40189764362,
			"0.013": 3.29248774035,
			"0.014": 4.82273290245,
			"0.015": 0.985064062454,
			"0.016": 0.0,
			"0.017": 0.0,
			"0.018": 0.0,
			"0.019": 0.0,
			"0.02": 0.0,
			"0.021": 0.0,
			"0.022": 0.0,
			"0.023": 0.0,
			"0.024": 0.0,
			"0.025": 0.0
		}
	}
}
