{
	 "smiles": "CCC(=O)OC1CCC2C3CC=C4CC(CCC4(C)C3CCC12C)OC(=O)CC", 
	 "Tm": 386.15, 
	 "num_atms": 67, 
	 "gaussian": { 
		 "optdone": 1, 
		 "sigma_profile": "yes", 
		 "theory": "DFT", 
		 "functional": "B3LYP", 
		 "basiset": "6-31G**", 
		 "properties": { 
			 "R2extent": 18268.6111, 
			 "electric_dipole_moment_norm": 0.338375028629, 
			 "electric_quadrupole_moment_norm": 29.2477775727, 
			 "total_energy": -1276.50046994, 
			 "HOMO_LUMO_gap": 0.24374, 
			 "cosmo_polarized_energy": -12.75, 
			 "cosmo_cavitation_energy": 59.73, 
			 "cosmo_dispersion_energy": -39.92, 
			 "cosmo_repulsion_energy": 3.0, 
			 "cosmo_total_nonelectrostatic_energy": 22.81, 
			 "SMD_solvation_energy": 10.37 
		},
		"coords": [
			{
				"x": 6.3768274288,
				"y": -0.3790453529,
				"z": -0.0786532933,
				"element": "C" 
			},
			{
				"x": 6.5175506819,
				"y": -0.2576168186,
				"z": 1.4461579496,
				"element": "C" 
			},
			{
				"x": 5.3234705557,
				"y": 0.3980929457,
				"z": 2.1151978116,
				"element": "C" 
			},
			{
				"x": 5.3767762505,
				"y": 1.3815067425,
				"z": 2.8233719568,
				"element": "O" 
			},
			{
				"x": 4.1790420113,
				"y": -0.265742342,
				"z": 1.8295365292,
				"element": "O" 
			},
			{
				"x": 2.9494308704,
				"y": 0.2504982511,
				"z": 2.4174209715,
				"element": "C" 
			},
			{
				"x": 2.3508070518,
				"y": 1.3031722214,
				"z": 1.4818338263,
				"element": "C" 
			},
			{
				"x": 1.6263739528,
				"y": 0.4907412992,
				"z": 0.3798674841,
				"element": "C" 
			},
			{
				"x": 1.4644287584,
				"y": -0.9620098941,
				"z": 0.9365642286,
				"element": "C" 
			},
			{
				"x": 0.0986688926,
				"y": -1.654895643,
				"z": 0.7279253488,
				"element": "C" 
			},
			{
				"x": -0.2797212177,
				"y": -1.7327144432,
				"z": -0.7722047617,
				"element": "C" 
			},
			{
				"x": -1.6828513666,
				"y": -2.2469582258,
				"z": -0.9490538009,
				"element": "C" 
			},
			{
				"x": -2.6730787915,
				"y": -1.8473712413,
				"z": -0.1428941935,
				"element": "C" 
			},
			{
				"x": -4.0608321944,
				"y": -2.4462992701,
				"z": -0.2162743245,
				"element": "C" 
			},
			{
				"x": -5.1778498287,
				"y": -1.4262112664,
				"z": 0.014608127,
				"element": "C" 
			},
			{
				"x": -4.9693800691,
				"y": -0.6286607819,
				"z": 1.3199648196,
				"element": "C" 
			},
			{
				"x": -3.5727097877,
				"y": -0.815801882,
				"z": 1.9477473035,
				"element": "C" 
			},
			{
				"x": -2.4054207021,
				"y": -0.7803049363,
				"z": 0.9261029324,
				"element": "C" 
			},
			{
				"x": -2.3606552416,
				"y": 0.6199235626,
				"z": 0.2607253692,
				"element": "C" 
			},
			{
				"x": -1.0583833632,
				"y": -1.1309060587,
				"z": 1.6606934431,
				"element": "C" 
			},
			{
				"x": -0.5531764303,
				"y": -0.0366510372,
				"z": 2.6208105496,
				"element": "C" 
			},
			{
				"x": 0.7152244809,
				"y": -0.4914173148,
				"z": 3.3586046586,
				"element": "C" 
			},
			{
				"x": 1.9124467442,
				"y": -0.895756185,
				"z": 2.4333525912,
				"element": "C" 
			},
			{
				"x": 2.5126422446,
				"y": -2.2197205713,
				"z": 2.9302351655,
				"element": "C" 
			},
			{
				"x": -5.2040484081,
				"y": -0.458383588,
				"z": -1.0786129956,
				"element": "O" 
			},
			{
				"x": -5.8392167699,
				"y": -0.826360884,
				"z": -2.2151575015,
				"element": "C" 
			},
			{
				"x": -6.3904055164,
				"y": -1.8964111514,
				"z": -2.368656634,
				"element": "O" 
			},
			{
				"x": -5.7665551557,
				"y": 0.2780107514,
				"z": -3.2530778719,
				"element": "C" 
			},
			{
				"x": -6.5238064683,
				"y": -0.0614378556,
				"z": -4.5349339787,
				"element": "C" 
			},
			{
				"x": 5.5068983782,
				"y": -0.9845590896,
				"z": -0.3438124986,
				"element": "H" 
			},
			{
				"x": 7.267002242,
				"y": -0.8492186846,
				"z": -0.5068108352,
				"element": "H" 
			},
			{
				"x": 6.2616664233,
				"y": 0.6051048612,
				"z": -0.5440179413,
				"element": "H" 
			},
			{
				"x": 7.394820528,
				"y": 0.3341376693,
				"z": 1.7171566717,
				"element": "H" 
			},
			{
				"x": 6.639423794,
				"y": -1.2563650814,
				"z": 1.8835613066,
				"element": "H" 
			},
			{
				"x": 3.1920275939,
				"y": 0.6354185067,
				"z": 3.4104014064,
				"element": "H" 
			},
			{
				"x": 3.1172179251,
				"y": 1.9811053574,
				"z": 1.0989040251,
				"element": "H" 
			},
			{
				"x": 1.6429560293,
				"y": 1.9165806309,
				"z": 2.0496066888,
				"element": "H" 
			},
			{
				"x": 0.6687612857,
				"y": 0.9500058658,
				"z": 0.1209863658,
				"element": "H" 
			},
			{
				"x": 2.2180506751,
				"y": 0.475109526,
				"z": -0.5402301503,
				"element": "H" 
			},
			{
				"x": 2.2026777543,
				"y": -1.5852592771,
				"z": 0.4166689223,
				"element": "H" 
			},
			{
				"x": 0.2572879704,
				"y": -2.6991917651,
				"z": 1.024977731,
				"element": "H" 
			},
			{
				"x": -0.1691210376,
				"y": -0.748603675,
				"z": -1.2472543203,
				"element": "H" 
			},
			{
				"x": 0.4360900328,
				"y": -2.386306056,
				"z": -1.2849300239,
				"element": "H" 
			},
			{
				"x": -1.8761532225,
				"y": -2.9848575647,
				"z": -1.7262904062,
				"element": "H" 
			},
			{
				"x": -4.1725418537,
				"y": -3.2088778655,
				"z": 0.5702084982,
				"element": "H" 
			},
			{
				"x": -4.2184870863,
				"y": -2.9629799534,
				"z": -1.1668358842,
				"element": "H" 
			},
			{
				"x": -6.1436106004,
				"y": -1.9362768463,
				"z": 0.0047932794,
				"element": "H" 
			},
			{
				"x": -5.7264041213,
				"y": -0.9299834925,
				"z": 2.0523995808,
				"element": "H" 
			},
			{
				"x": -5.1586999035,
				"y": 0.4265124428,
				"z": 1.1023807201,
				"element": "H" 
			},
			{
				"x": -3.4284903017,
				"y": -0.0484490082,
				"z": 2.7156931651,
				"element": "H" 
			},
			{
				"x": -3.5435181645,
				"y": -1.7798239077,
				"z": 2.4723248198,
				"element": "H" 
			},
			{
				"x": -2.3011128639,
				"y": 1.4128304835,
				"z": 1.0142854309,
				"element": "H" 
			},
			{
				"x": -3.2552435883,
				"y": 0.7925154897,
				"z": -0.3403201076,
				"element": "H" 
			},
			{
				"x": -1.500144657,
				"y": 0.7255758266,
				"z": -0.4036638448,
				"element": "H" 
			},
			{
				"x": -1.3186480073,
				"y": -1.9827523269,
				"z": 2.3039590624,
				"element": "H" 
			},
			{
				"x": -0.366424577,
				"y": 0.8988092505,
				"z": 2.0862693548,
				"element": "H" 
			},
			{
				"x": -1.3242952111,
				"y": 0.1914911359,
				"z": 3.3654918504,
				"element": "H" 
			},
			{
				"x": 0.4489436712,
				"y": -1.3574154112,
				"z": 3.9776780289,
				"element": "H" 
			},
			{
				"x": 1.0321935926,
				"y": 0.2882500433,
				"z": 4.0628484896,
				"element": "H" 
			},
			{
				"x": 3.3811778589,
				"y": -2.5145764544,
				"z": 2.33719906,
				"element": "H" 
			},
			{
				"x": 1.7696785732,
				"y": -3.0229476269,
				"z": 2.8761867359,
				"element": "H" 
			},
			{
				"x": 2.8286710497,
				"y": -2.1373296369,
				"z": 3.9768729857,
				"element": "H" 
			},
			{
				"x": -6.1462870429,
				"y": 1.1971775004,
				"z": -2.79089899,
				"element": "H" 
			},
			{
				"x": -4.7049830949,
				"y": 0.4692914438,
				"z": -3.4539351804,
				"element": "H" 
			},
			{
				"x": -6.4378183789,
				"y": 0.7548495549,
				"z": -5.2580191402,
				"element": "H" 
			},
			{
				"x": -6.1297893326,
				"y": -0.9725062908,
				"z": -4.9924883859,
				"element": "H" 
			},
			{
				"x": -7.584270945,
				"y": -0.2315546049,
				"z": -4.330948182,
				"element": "H" 
			}
		],
		 "valence_orbital": [ 
			{
				"type": "occ",
				"energy": -0.27744,
				"method": "rhf"
			},
			{
				"type": "occ",
				"energy": -0.27491,
				"method": "rhf"
			},
			{
				"type": "occ",
				"energy": -0.26595,
				"method": "rhf"
			},
			{
				"type": "occ",
				"energy": -0.26154,
				"method": "rhf"
			},
			{
				"type": "occ",
				"energy": -0.22808,
				"method": "rhf"
			},
			{
				"type": "unocc",
				"energy": 0.01566,
				"method": "rhf"
			},
			{
				"type": "unocc",
				"energy": 0.01597,
				"method": "rhf"
			},
			{
				"type": "unocc",
				"energy": 0.02371,
				"method": "rhf"
			},
			{
				"type": "unocc",
				"energy": 0.06332,
				"method": "rhf"
			},
			{
				"type": "unocc",
				"energy": 0.08096,
				"method": "rhf"
			}
		],
		"cosmo_sigma_profile": { 
			"-0.025": 0.0,
			"-0.024": 0.0,
			"-0.023": 0.0,
			"-0.022": 0.0,
			"-0.021": 0.0,
			"-0.02": 0.0,
			"-0.019": 0.0,
			"-0.018": 0.0,
			"-0.017": 0.0,
			"-0.016": 0.0,
			"-0.015": 0.0,
			"-0.014": 0.0,
			"-0.013": 0.0,
			"-0.012": 0.00389995273123,
			"-0.011": 0.04160003717,
			"-0.01": 0.0176053620988,
			"-0.009": 0.00168521878598,
			"-0.008": 0.00132786321402,
			"-0.007": 0.0,
			"-0.006": 2.11320664972,
			"-0.005": 9.43888153872,
			"-0.004": 30.565003387,
			"-0.003": 56.0662564714,
			"-0.002": 78.3160432559,
			"-0.001": 76.5481325928,
			"0.0": 66.243550503,
			"0.001": 46.9795318838,
			"0.002": 23.425556467,
			"0.003": 11.8397096502,
			"0.004": 11.0930136039,
			"0.005": 9.33518664485,
			"0.006": 6.74389340342,
			"0.007": 5.07213022344,
			"0.008": 2.79043224592,
			"0.009": 2.97632390578,
			"0.01": 3.44877115933,
			"0.011": 4.75651662625,
			"0.012": 8.32828335085,
			"0.013": 4.21567260491,
			"0.014": 0.274477559741,
			"0.015": 0.0,
			"0.016": 0.0,
			"0.017": 0.0,
			"0.018": 0.0,
			"0.019": 0.0,
			"0.02": 0.0,
			"0.021": 0.0,
			"0.022": 0.0,
			"0.023": 0.0,
			"0.024": 0.0,
			"0.025": 0.0
		}
	}
}
