{
	 "smiles": "CC1=CC(=O)OC2=C1C=C(O)C=C2", 
	 "Tm": 521.15, 
	 "num_atms": 21, 
	 "gaussian": { 
		 "optdone": 1, 
		 "sigma_profile": "yes", 
		 "theory": "DFT", 
		 "functional": "B3LYP", 
		 "basiset": "6-31G**", 
		 "properties": { 
			 "R2extent": 2738.6276, 
			 "electric_dipole_moment_norm": 5.09333021215, 
			 "electric_quadrupole_moment_norm": 26.2949525086, 
			 "total_energy": -611.562774054, 
			 "HOMO_LUMO_gap": 0.15609, 
			 "cosmo_polarized_energy": -15.72, 
			 "cosmo_cavitation_energy": 25.39, 
			 "cosmo_dispersion_energy": -18.98, 
			 "cosmo_repulsion_energy": 1.48, 
			 "cosmo_total_nonelectrostatic_energy": 7.89, 
			 "SMD_solvation_energy": 5.86 
		},
		"coords": [
			{
				"x": -2.7569541063,
				"y": 1.4988255871,
				"z": 0.1974529364,
				"element": "C" 
			},
			{
				"x": -2.0082965606,
				"y": 0.6067343352,
				"z": -0.7543863186,
				"element": "C" 
			},
			{
				"x": -2.4663077781,
				"y": 0.3704263424,
				"z": -2.00911803,
				"element": "C" 
			},
			{
				"x": -1.7789432916,
				"y": -0.4853087979,
				"z": -2.9684576358,
				"element": "C" 
			},
			{
				"x": -2.1462542294,
				"y": -0.7249682705,
				"z": -4.0958540324,
				"element": "O" 
			},
			{
				"x": -0.5949491231,
				"y": -1.066916561,
				"z": -2.527984391,
				"element": "O" 
			},
			{
				"x": -0.1033018575,
				"y": -0.8513838434,
				"z": -1.2706532134,
				"element": "C" 
			},
			{
				"x": -0.7629205168,
				"y": -0.0260227021,
				"z": -0.33854051,
				"element": "C" 
			},
			{
				"x": -0.1892405286,
				"y": 0.1423544022,
				"z": 0.9334629029,
				"element": "C" 
			},
			{
				"x": 1.0043725695,
				"y": -0.4928472488,
				"z": 1.2639413511,
				"element": "C" 
			},
			{
				"x": 1.5039128881,
				"y": -0.2835277505,
				"z": 2.5189871957,
				"element": "O" 
			},
			{
				"x": 1.6459613349,
				"y": -1.3111847267,
				"z": 0.3206908065,
				"element": "C" 
			},
			{
				"x": 1.0931388697,
				"y": -1.489155911,
				"z": -0.9420068263,
				"element": "C" 
			},
			{
				"x": -3.6643906473,
				"y": 1.8918071366,
				"z": -0.2653803158,
				"element": "H" 
			},
			{
				"x": -2.1367544909,
				"y": 2.3458325797,
				"z": 0.512346259,
				"element": "H" 
			},
			{
				"x": -3.0416960454,
				"y": 0.9541975729,
				"z": 1.10494052,
				"element": "H" 
			},
			{
				"x": -3.3864851756,
				"y": 0.8144955043,
				"z": -2.3719844066,
				"element": "H" 
			},
			{
				"x": -0.6640413473,
				"y": 0.7684817326,
				"z": 1.6796702787,
				"element": "H" 
			},
			{
				"x": 2.3283733936,
				"y": -0.7757572977,
				"z": 2.6215226956,
				"element": "H" 
			},
			{
				"x": 2.5787359794,
				"y": -1.8086595936,
				"z": 0.576371071,
				"element": "H" 
			},
			{
				"x": 1.5733406635,
				"y": -2.11712249,
				"z": -1.6843203368,
				"element": "H" 
			}
		],
		 "valence_orbital": [ 
			{
				"type": "occ",
				"energy": -0.32912,
				"method": "rhf"
			},
			{
				"type": "occ",
				"energy": -0.29882,
				"method": "rhf"
			},
			{
				"type": "occ",
				"energy": -0.26665,
				"method": "rhf"
			},
			{
				"type": "occ",
				"energy": -0.25182,
				"method": "rhf"
			},
			{
				"type": "occ",
				"energy": -0.22025,
				"method": "rhf"
			},
			{
				"type": "unocc",
				"energy": -0.06416,
				"method": "rhf"
			},
			{
				"type": "unocc",
				"energy": -0.00109,
				"method": "rhf"
			},
			{
				"type": "unocc",
				"energy": 0.00351,
				"method": "rhf"
			},
			{
				"type": "unocc",
				"energy": 0.05838,
				"method": "rhf"
			},
			{
				"type": "unocc",
				"energy": 0.08372,
				"method": "rhf"
			}
		],
		"cosmo_sigma_profile": { 
			"-0.025": 0.0,
			"-0.024": 0.0,
			"-0.023": 0.0,
			"-0.022": 0.0,
			"-0.021": 0.0,
			"-0.02": 0.0,
			"-0.019": 0.0,
			"-0.018": 0.653232552661,
			"-0.017": 1.22201210569,
			"-0.016": 1.25308812251,
			"-0.015": 0.961324659809,
			"-0.014": 1.20771922834,
			"-0.013": 0.987133025012,
			"-0.012": 0.941531391245,
			"-0.011": 0.867990443057,
			"-0.01": 1.39299330891,
			"-0.009": 1.37423441083,
			"-0.008": 2.1084909597,
			"-0.007": 5.94444699583,
			"-0.006": 11.9183287632,
			"-0.005": 14.4577746255,
			"-0.004": 11.3818346115,
			"-0.003": 13.6993535736,
			"-0.002": 14.3694405511,
			"-0.001": 15.2031610145,
			"0.0": 14.5244652289,
			"0.001": 14.6514793642,
			"0.002": 16.5133523431,
			"0.003": 14.2880607169,
			"0.004": 4.8345052101,
			"0.005": 3.27326927731,
			"0.006": 4.30350148979,
			"0.007": 3.57963691573,
			"0.008": 2.20789036891,
			"0.009": 4.51316388139,
			"0.01": 4.12723601394,
			"0.011": 4.81981606659,
			"0.012": 6.14346451345,
			"0.013": 4.63608587851,
			"0.014": 0.651240587213,
			"0.015": 0.0,
			"0.016": 0.0,
			"0.017": 0.0,
			"0.018": 0.0,
			"0.019": 0.0,
			"0.02": 0.0,
			"0.021": 0.0,
			"0.022": 0.0,
			"0.023": 0.0,
			"0.024": 0.0,
			"0.025": 0.0
		}
	}
}
