{
	 "smiles": "OC1=CC2=C(C=C1)C(=O)CO2", 
	 "Tm": 514.15, 
	 "num_atms": 17, 
	 "gaussian": { 
		 "optdone": 1, 
		 "sigma_profile": "yes", 
		 "theory": "DFT", 
		 "functional": "B3LYP", 
		 "basiset": "6-31G**", 
		 "properties": { 
			 "R2extent": 1832.1638, 
			 "electric_dipole_moment_norm": 2.87696502064, 
			 "electric_quadrupole_moment_norm": 15.1023527823, 
			 "total_energy": -534.125146432, 
			 "HOMO_LUMO_gap": 0.17884, 
			 "cosmo_polarized_energy": -13.55, 
			 "cosmo_cavitation_energy": 21.63, 
			 "cosmo_dispersion_energy": -16.44, 
			 "cosmo_repulsion_energy": 1.32, 
			 "cosmo_total_nonelectrostatic_energy": 6.51, 
			 "SMD_solvation_energy": 5.01 
		},
		"coords": [
			{
				"x": 3.6958446571,
				"y": -0.4228968422,
				"z": 1.9377473118,
				"element": "O" 
			},
			{
				"x": 2.4652457469,
				"y": -0.4037891521,
				"z": 1.3620852346,
				"element": "C" 
			},
			{
				"x": 2.2423770351,
				"y": 0.5799546309,
				"z": 0.3915254464,
				"element": "C" 
			},
			{
				"x": 0.9845411426,
				"y": 0.6004566621,
				"z": -0.1977084424,
				"element": "C" 
			},
			{
				"x": -0.0236905089,
				"y": -0.3113907196,
				"z": 0.1503105922,
				"element": "C" 
			},
			{
				"x": 0.2181060805,
				"y": -1.2871234555,
				"z": 1.1223681074,
				"element": "C" 
			},
			{
				"x": 1.4645839586,
				"y": -1.3332719698,
				"z": 1.7291232455,
				"element": "C" 
			},
			{
				"x": -1.1988786302,
				"y": 0.0006203352,
				"z": -0.6588736406,
				"element": "C" 
			},
			{
				"x": -2.2980223279,
				"y": -0.5233146849,
				"z": -0.6948069153,
				"element": "O" 
			},
			{
				"x": -0.7553592468,
				"y": 1.2015471789,
				"z": -1.5185859482,
				"element": "C" 
			},
			{
				"x": 0.6116004529,
				"y": 1.4915771176,
				"z": -1.1544437878,
				"element": "O" 
			},
			{
				"x": 3.7370611752,
				"y": -1.136951835,
				"z": 2.5874264287,
				"element": "H" 
			},
			{
				"x": 3.0230275061,
				"y": 1.2818607828,
				"z": 0.1257124829,
				"element": "H" 
			},
			{
				"x": -0.5642499325,
				"y": -1.9909756729,
				"z": 1.3891420425,
				"element": "H" 
			},
			{
				"x": 1.6833774549,
				"y": -2.0800861996,
				"z": 2.4884356762,
				"element": "H" 
			},
			{
				"x": -1.3723669774,
				"y": 2.0841259557,
				"z": -1.3223764813,
				"element": "H" 
			},
			{
				"x": -0.7984975864,
				"y": 0.9669578683,
				"z": -2.5868813526,
				"element": "H" 
			}
		],
		 "valence_orbital": [ 
			{
				"type": "occ",
				"energy": -0.35758,
				"method": "rhf"
			},
			{
				"type": "occ",
				"energy": -0.31602,
				"method": "rhf"
			},
			{
				"type": "occ",
				"energy": -0.24954,
				"method": "rhf"
			},
			{
				"type": "occ",
				"energy": -0.24581,
				"method": "rhf"
			},
			{
				"type": "occ",
				"energy": -0.23245,
				"method": "rhf"
			},
			{
				"type": "unocc",
				"energy": -0.05361,
				"method": "rhf"
			},
			{
				"type": "unocc",
				"energy": -0.00338,
				"method": "rhf"
			},
			{
				"type": "unocc",
				"energy": 0.04871,
				"method": "rhf"
			},
			{
				"type": "unocc",
				"energy": 0.05565,
				"method": "rhf"
			},
			{
				"type": "unocc",
				"energy": 0.09505,
				"method": "rhf"
			}
		],
		"cosmo_sigma_profile": { 
			"-0.025": 0.0,
			"-0.024": 0.0,
			"-0.023": 0.0,
			"-0.022": 0.0,
			"-0.021": 0.0,
			"-0.02": 0.0,
			"-0.019": 0.362583049216,
			"-0.018": 1.18366615159,
			"-0.017": 0.93482002807,
			"-0.016": 1.42768254507,
			"-0.015": 1.07216409915,
			"-0.014": 0.743452486192,
			"-0.013": 0.545610698732,
			"-0.012": 0.925853093685,
			"-0.011": 1.59492820497,
			"-0.01": 1.18241216994,
			"-0.009": 1.51477203276,
			"-0.008": 5.68158262144,
			"-0.007": 10.1884674491,
			"-0.006": 8.92953930148,
			"-0.005": 11.083197696,
			"-0.004": 7.59739300477,
			"-0.003": 6.99689145187,
			"-0.002": 7.41790294844,
			"-0.001": 6.89902155389,
			"0.0": 8.7767889927,
			"0.001": 13.3421483773,
			"0.002": 17.8655800692,
			"0.003": 13.7498789073,
			"0.004": 6.13942771786,
			"0.005": 4.9153388752,
			"0.006": 2.79669734907,
			"0.007": 4.04075157378,
			"0.008": 3.98379005991,
			"0.009": 4.70576385133,
			"0.01": 4.67275238678,
			"0.011": 3.50514907934,
			"0.012": 4.80144850825,
			"0.013": 3.4084258287,
			"0.014": 0.316657509898,
			"0.015": 0.0,
			"0.016": 0.0,
			"0.017": 0.0,
			"0.018": 0.0,
			"0.019": 0.0,
			"0.02": 0.0,
			"0.021": 0.0,
			"0.022": 0.0,
			"0.023": 0.0,
			"0.024": 0.0,
			"0.025": 0.0
		}
	}
}
