{
	 "smiles": "CC1=NN2C(S1)=NN=C2C1=CC=CC=C1", 
	 "Tm": 466.15, 
	 "num_atms": 23, 
	 "gaussian": { 
		 "optdone": 1, 
		 "sigma_profile": "yes", 
		 "theory": "DFT", 
		 "functional": "B3LYP", 
		 "basiset": "6-31G**", 
		 "properties": { 
			 "R2extent": 4429.7713, 
			 "electric_dipole_moment_norm": 5.47660129369, 
			 "electric_quadrupole_moment_norm": 25.6976938638, 
			 "total_energy": -1003.02542825, 
			 "HOMO_LUMO_gap": 0.17118, 
			 "cosmo_polarized_energy": -14.11, 
			 "cosmo_cavitation_energy": 29.29, 
			 "cosmo_dispersion_energy": -22.39, 
			 "cosmo_repulsion_energy": 1.68, 
			 "cosmo_total_nonelectrostatic_energy": 8.57, 
			 "SMD_solvation_energy": 2.12 
		},
		"coords": [
			{
				"x": -3.9035032216,
				"y": -0.1895204393,
				"z": -2.5205470279,
				"element": "C" 
			},
			{
				"x": -3.0559758794,
				"y": -0.9091859243,
				"z": -1.5230201871,
				"element": "C" 
			},
			{
				"x": -2.0370832328,
				"y": -0.3599843329,
				"z": -0.9428668735,
				"element": "N" 
			},
			{
				"x": -1.4655853954,
				"y": -1.2630685154,
				"z": -0.0873379875,
				"element": "N" 
			},
			{
				"x": -2.0267307436,
				"y": -2.5157310821,
				"z": 0.0090577547,
				"element": "C" 
			},
			{
				"x": -3.4066720578,
				"y": -2.6024095127,
				"z": -1.064396981,
				"element": "S" 
			},
			{
				"x": -1.3827681675,
				"y": -3.2712503867,
				"z": 0.8585399148,
				"element": "N" 
			},
			{
				"x": -0.3531429267,
				"y": -2.4831601625,
				"z": 1.342848122,
				"element": "N" 
			},
			{
				"x": -0.3928323795,
				"y": -1.2817812665,
				"z": 0.7849732985,
				"element": "C" 
			},
			{
				"x": 0.5408623541,
				"y": -0.1881296361,
				"z": 1.0582687885,
				"element": "C" 
			},
			{
				"x": 1.5723163767,
				"y": -0.4115832223,
				"z": 1.9881927417,
				"element": "C" 
			},
			{
				"x": 2.4826088426,
				"y": 0.5989449334,
				"z": 2.2788653209,
				"element": "C" 
			},
			{
				"x": 2.3804351936,
				"y": 1.8436559928,
				"z": 1.6502236035,
				"element": "C" 
			},
			{
				"x": 1.3588347053,
				"y": 2.0693983875,
				"z": 0.7272861927,
				"element": "C" 
			},
			{
				"x": 0.4404607664,
				"y": 1.0629629465,
				"z": 0.4282997427,
				"element": "C" 
			},
			{
				"x": -3.515030744,
				"y": 0.8221009982,
				"z": -2.6502283789,
				"element": "H" 
			},
			{
				"x": -3.8923305126,
				"y": -0.7023923614,
				"z": -3.4876527333,
				"element": "H" 
			},
			{
				"x": -4.9432651035,
				"y": -0.1315640342,
				"z": -2.182921975,
				"element": "H" 
			},
			{
				"x": 1.6400462341,
				"y": -1.3815321419,
				"z": 2.4684654553,
				"element": "H" 
			},
			{
				"x": 3.2752970929,
				"y": 0.4158569348,
				"z": 2.9985271758,
				"element": "H" 
			},
			{
				"x": 3.0928505575,
				"y": 2.6308313334,
				"z": 1.8793271634,
				"element": "H" 
			},
			{
				"x": 1.2732521992,
				"y": 3.033931411,
				"z": 0.235005003,
				"element": "H" 
			},
			{
				"x": -0.3506439582,
				"y": 1.2454100807,
				"z": -0.2898081334,
				"element": "H" 
			}
		],
		 "valence_orbital": [ 
			{
				"type": "occ",
				"energy": -0.28524,
				"method": "rhf"
			},
			{
				"type": "occ",
				"energy": -0.2741,
				"method": "rhf"
			},
			{
				"type": "occ",
				"energy": -0.25922,
				"method": "rhf"
			},
			{
				"type": "occ",
				"energy": -0.25331,
				"method": "rhf"
			},
			{
				"type": "occ",
				"energy": -0.22289,
				"method": "rhf"
			},
			{
				"type": "unocc",
				"energy": -0.05171,
				"method": "rhf"
			},
			{
				"type": "unocc",
				"energy": -0.02267,
				"method": "rhf"
			},
			{
				"type": "unocc",
				"energy": -0.0177,
				"method": "rhf"
			},
			{
				"type": "unocc",
				"energy": -0.00274,
				"method": "rhf"
			},
			{
				"type": "unocc",
				"energy": 0.03098,
				"method": "rhf"
			}
		],
		"cosmo_sigma_profile": { 
			"-0.025": 0.0,
			"-0.024": 0.0,
			"-0.023": 0.0,
			"-0.022": 0.0,
			"-0.021": 0.0,
			"-0.02": 0.0,
			"-0.019": 0.0,
			"-0.018": 0.0,
			"-0.017": 0.0,
			"-0.016": 0.0,
			"-0.015": 0.0,
			"-0.014": 0.0,
			"-0.013": 0.0,
			"-0.012": 0.0,
			"-0.011": 0.0,
			"-0.01": 0.0,
			"-0.009": 0.0,
			"-0.008": 1.77101783021,
			"-0.007": 9.57226972974,
			"-0.006": 14.0878027145,
			"-0.005": 18.4043543726,
			"-0.004": 21.3817564839,
			"-0.003": 25.23885205,
			"-0.002": 19.1273082679,
			"-0.001": 17.5827001515,
			"0.0": 16.5552273935,
			"0.001": 14.2361085819,
			"0.002": 16.7007682762,
			"0.003": 13.7940670245,
			"0.004": 14.7414816374,
			"0.005": 10.0515869591,
			"0.006": 3.34752568396,
			"0.007": 1.66123122916,
			"0.008": 2.41375586325,
			"0.009": 1.83573640855,
			"0.01": 2.01863465057,
			"0.011": 2.66692322603,
			"0.012": 2.81199201032,
			"0.013": 3.63713219495,
			"0.014": 2.84356192901,
			"0.015": 1.94189912777,
			"0.016": 0.518385966331,
			"0.017": 0.0,
			"0.018": 0.0,
			"0.019": 0.0,
			"0.02": 0.0,
			"0.021": 0.0,
			"0.022": 0.0,
			"0.023": 0.0,
			"0.024": 0.0,
			"0.025": 0.0
		}
	}
}
