{
	 "smiles": "NC(=NO)C1=C(Cl)C=CC=C1", 
	 "Tm": 362.15, 
	 "num_atms": 18, 
	 "gaussian": { 
		 "optdone": 1, 
		 "sigma_profile": "yes", 
		 "theory": "DFT", 
		 "functional": "B3LYP", 
		 "basiset": "6-31G**", 
		 "properties": { 
			 "R2extent": 2068.5055, 
			 "electric_dipole_moment_norm": 0.922990200381, 
			 "electric_quadrupole_moment_norm": 9.21542416712, 
			 "total_energy": -915.829589735, 
			 "HOMO_LUMO_gap": 0.17946, 
			 "cosmo_polarized_energy": -10.52, 
			 "cosmo_cavitation_energy": 23.87, 
			 "cosmo_dispersion_energy": -18.03, 
			 "cosmo_repulsion_energy": 1.47, 
			 "cosmo_total_nonelectrostatic_energy": 7.31, 
			 "SMD_solvation_energy": 3.78 
		},
		"coords": [
			{
				"x": -1.0981512134,
				"y": 1.5261982725,
				"z": 1.386177262,
				"element": "N" 
			},
			{
				"x": -1.1068245784,
				"y": 0.992047447,
				"z": 0.1195298246,
				"element": "C" 
			},
			{
				"x": -2.0194111789,
				"y": 1.2412104549,
				"z": -0.7654836533,
				"element": "N" 
			},
			{
				"x": -3.0114556954,
				"y": 2.0852950004,
				"z": -0.1885297106,
				"element": "O" 
			},
			{
				"x": 0.0416272395,
				"y": 0.1703038746,
				"z": -0.3567751227,
				"element": "C" 
			},
			{
				"x": 0.6221025448,
				"y": -0.8965319443,
				"z": 0.3496808443,
				"element": "C" 
			},
			{
				"x": -0.008320849,
				"y": -1.4244490325,
				"z": 1.9163191332,
				"element": "Cl" 
			},
			{
				"x": 1.6974144418,
				"y": -1.6204116544,
				"z": -0.1658230006,
				"element": "C" 
			},
			{
				"x": 2.2138517298,
				"y": -1.2942891641,
				"z": -1.4179825068,
				"element": "C" 
			},
			{
				"x": 1.6482256362,
				"y": -0.2499392478,
				"z": -2.1504170615,
				"element": "C" 
			},
			{
				"x": 0.5817234048,
				"y": 0.4691845397,
				"z": -1.6206528139,
				"element": "C" 
			},
			{
				"x": -1.9954570421,
				"y": 1.8834614828,
				"z": 1.6855583673,
				"element": "H" 
			},
			{
				"x": -0.5695059783,
				"y": 1.0351411339,
				"z": 2.0899189154,
				"element": "H" 
			},
			{
				"x": -3.6783920672,
				"y": 2.1100566929,
				"z": -0.8850694469,
				"element": "H" 
			},
			{
				"x": 2.1126726941,
				"y": -2.4384704403,
				"z": 0.4120225897,
				"element": "H" 
			},
			{
				"x": 3.0518177265,
				"y": -1.8587131078,
				"z": -1.8156574648,
				"element": "H" 
			},
			{
				"x": 2.0412290795,
				"y": 0.0099996042,
				"z": -3.128388219,
				"element": "H" 
			},
			{
				"x": 0.1342541057,
				"y": 1.2860060884,
				"z": -2.1748279365,
				"element": "H" 
			}
		],
		 "valence_orbital": [ 
			{
				"type": "occ",
				"energy": -0.31202,
				"method": "rhf"
			},
			{
				"type": "occ",
				"energy": -0.27668,
				"method": "rhf"
			},
			{
				"type": "occ",
				"energy": -0.26276,
				"method": "rhf"
			},
			{
				"type": "occ",
				"energy": -0.25314,
				"method": "rhf"
			},
			{
				"type": "occ",
				"energy": -0.21009,
				"method": "rhf"
			},
			{
				"type": "unocc",
				"energy": -0.03063,
				"method": "rhf"
			},
			{
				"type": "unocc",
				"energy": -0.01609,
				"method": "rhf"
			},
			{
				"type": "unocc",
				"energy": 0.02038,
				"method": "rhf"
			},
			{
				"type": "unocc",
				"energy": 0.0511,
				"method": "rhf"
			},
			{
				"type": "unocc",
				"energy": 0.07658,
				"method": "rhf"
			}
		],
		"cosmo_sigma_profile": { 
			"-0.025": 0.0,
			"-0.024": 0.0,
			"-0.023": 0.0,
			"-0.022": 0.0,
			"-0.021": 0.0,
			"-0.02": 0.0,
			"-0.019": 0.0,
			"-0.018": 0.0,
			"-0.017": 0.463815241698,
			"-0.016": 1.09437784171,
			"-0.015": 0.771391895785,
			"-0.014": 0.94542558196,
			"-0.013": 0.746346034384,
			"-0.012": 0.940488519773,
			"-0.011": 1.59448475634,
			"-0.01": 2.79801324472,
			"-0.009": 2.70698715189,
			"-0.008": 3.12082354426,
			"-0.007": 7.5132183729,
			"-0.006": 9.8960436739,
			"-0.005": 10.8968104126,
			"-0.004": 8.79039657871,
			"-0.003": 9.20660483821,
			"-0.002": 8.79259208355,
			"-0.001": 10.5088556025,
			"0.0": 12.0644111486,
			"0.001": 16.8594071792,
			"0.002": 18.0202746822,
			"0.003": 18.850019191,
			"0.004": 14.6615957866,
			"0.005": 5.38605574102,
			"0.006": 4.47527969625,
			"0.007": 4.74124246353,
			"0.008": 4.63036199116,
			"0.009": 3.98305947175,
			"0.01": 2.60339651553,
			"0.011": 2.90299425431,
			"0.012": 1.0273439982,
			"0.013": 0.774202089904,
			"0.014": 0.689365545774,
			"0.015": 0.206674651056,
			"0.016": 0.0,
			"0.017": 0.0,
			"0.018": 0.0,
			"0.019": 0.0,
			"0.02": 0.0,
			"0.021": 0.0,
			"0.022": 0.0,
			"0.023": 0.0,
			"0.024": 0.0,
			"0.025": 0.0
		}
	}
}
