{
	 "smiles": "OC(=O)C1=CC=C(O1)C1=CC=CC=C1", 
	 "Tm": 427.15, 
	 "num_atms": 22, 
	 "gaussian": { 
		 "optdone": 1, 
		 "sigma_profile": "yes", 
		 "theory": "DFT", 
		 "functional": "B3LYP", 
		 "basiset": "6-31G**", 
		 "properties": { 
			 "R2extent": 4979.046, 
			 "electric_dipole_moment_norm": 5.76512683295, 
			 "electric_quadrupole_moment_norm": 35.6983480469, 
			 "total_energy": -649.658731979, 
			 "HOMO_LUMO_gap": 0.16073, 
			 "cosmo_polarized_energy": -13.63, 
			 "cosmo_cavitation_energy": 27.44, 
			 "cosmo_dispersion_energy": -20.09, 
			 "cosmo_repulsion_energy": 1.56, 
			 "cosmo_total_nonelectrostatic_energy": 8.9, 
			 "SMD_solvation_energy": 6.3 
		},
		"coords": [
			{
				"x": -0.0668050847,
				"y": -4.8934872543,
				"z": 0.9531888418,
				"element": "O" 
			},
			{
				"x": 0.0756176852,
				"y": -5.1389104728,
				"z": -0.3737021721,
				"element": "C" 
			},
			{
				"x": 0.1616211149,
				"y": -6.265667905,
				"z": -0.8057566401,
				"element": "O" 
			},
			{
				"x": 0.1201406899,
				"y": -3.9517716407,
				"z": -1.2385345176,
				"element": "C" 
			},
			{
				"x": 0.252723445,
				"y": -3.8170039375,
				"z": -2.5929327165,
				"element": "C" 
			},
			{
				"x": 0.2291566891,
				"y": -2.4230020301,
				"z": -2.8635506624,
				"element": "C" 
			},
			{
				"x": 0.0831294047,
				"y": -1.7767885793,
				"z": -1.6558010831,
				"element": "C" 
			},
			{
				"x": 0.0159086364,
				"y": -2.7103877911,
				"z": -0.65645561,
				"element": "O" 
			},
			{
				"x": -0.0066407067,
				"y": -0.3720310338,
				"z": -1.2766539359,
				"element": "C" 
			},
			{
				"x": 0.055137443,
				"y": 0.6308762111,
				"z": -2.2616558378,
				"element": "C" 
			},
			{
				"x": -0.0295400107,
				"y": 1.9741478881,
				"z": -1.9088738588,
				"element": "C" 
			},
			{
				"x": -0.1772917054,
				"y": 2.3438656113,
				"z": -0.569354648,
				"element": "C" 
			},
			{
				"x": -0.2396592589,
				"y": 1.3559680085,
				"z": 0.4152488873,
				"element": "C" 
			},
			{
				"x": -0.1554485359,
				"y": 0.0096809843,
				"z": 0.0684174178,
				"element": "C" 
			},
			{
				"x": -0.1172079837,
				"y": -3.936936247,
				"z": 1.1041734828,
				"element": "H" 
			},
			{
				"x": 0.3536568086,
				"y": -4.6314479952,
				"z": -3.2945594363,
				"element": "H" 
			},
			{
				"x": 0.3102470468,
				"y": -1.9528185578,
				"z": -3.8322840561,
				"element": "H" 
			},
			{
				"x": 0.1696724026,
				"y": 0.3573227296,
				"z": -3.3058685985,
				"element": "H" 
			},
			{
				"x": 0.0198608217,
				"y": 2.7354074633,
				"z": -2.6817902027,
				"element": "H" 
			},
			{
				"x": -0.2431613771,
				"y": 3.3927263565,
				"z": -0.2964413283,
				"element": "H" 
			},
			{
				"x": -0.3544192004,
				"y": 1.6337840011,
				"z": 1.4588464412,
				"element": "H" 
			},
			{
				"x": -0.2044983245,
				"y": -0.7522258089,
				"z": 0.8383402333,
				"element": "H" 
			}
		],
		 "valence_orbital": [ 
			{
				"type": "occ",
				"energy": -0.30625,
				"method": "rhf"
			},
			{
				"type": "occ",
				"energy": -0.29152,
				"method": "rhf"
			},
			{
				"type": "occ",
				"energy": -0.27533,
				"method": "rhf"
			},
			{
				"type": "occ",
				"energy": -0.26791,
				"method": "rhf"
			},
			{
				"type": "occ",
				"energy": -0.2263,
				"method": "rhf"
			},
			{
				"type": "unocc",
				"energy": -0.06557,
				"method": "rhf"
			},
			{
				"type": "unocc",
				"energy": -0.01913,
				"method": "rhf"
			},
			{
				"type": "unocc",
				"energy": -0.01194,
				"method": "rhf"
			},
			{
				"type": "unocc",
				"energy": 0.05759,
				"method": "rhf"
			},
			{
				"type": "unocc",
				"energy": 0.06096,
				"method": "rhf"
			}
		],
		"cosmo_sigma_profile": { 
			"-0.025": 0.0,
			"-0.024": 0.0,
			"-0.023": 0.0,
			"-0.022": 0.0,
			"-0.021": 0.0,
			"-0.02": 0.0,
			"-0.019": 0.0,
			"-0.018": 0.0,
			"-0.017": 0.0,
			"-0.016": 0.620992759163,
			"-0.015": 0.787476582085,
			"-0.014": 0.647394966401,
			"-0.013": 0.692497561989,
			"-0.012": 0.747600858851,
			"-0.011": 1.00285066779,
			"-0.01": 1.09258124448,
			"-0.009": 2.36789610399,
			"-0.008": 5.65782345948,
			"-0.007": 6.8831325921,
			"-0.006": 12.4734279081,
			"-0.005": 13.8669098429,
			"-0.004": 17.5528665391,
			"-0.003": 12.308993211,
			"-0.002": 11.8669917517,
			"-0.001": 12.6157914055,
			"0.0": 18.8252340002,
			"0.001": 19.6505945969,
			"0.002": 16.9023202297,
			"0.003": 14.2842029231,
			"0.004": 13.1748145916,
			"0.005": 9.24585875517,
			"0.006": 2.30395265766,
			"0.007": 1.87865061766,
			"0.008": 2.81293267183,
			"0.009": 3.71290144083,
			"0.01": 4.84249851675,
			"0.011": 4.68533001361,
			"0.012": 5.69878738426,
			"0.013": 1.87090062953,
			"0.014": 0.0644739056214,
			"0.015": 0.0,
			"0.016": 0.0,
			"0.017": 0.0,
			"0.018": 0.0,
			"0.019": 0.0,
			"0.02": 0.0,
			"0.021": 0.0,
			"0.022": 0.0,
			"0.023": 0.0,
			"0.024": 0.0,
			"0.025": 0.0
		}
	}
}
