{
	 "smiles": "NS(=O)(=O)C1=CC=C(C=C1)C1=CC=C(Br)C=C1", 
	 "Tm": 481.15, 
	 "num_atms": 27, 
	 "gaussian": { 
		 "optdone": 1, 
		 "sigma_profile": "yes", 
		 "theory": "DFT", 
		 "functional": "B3LYP", 
		 "basiset": "6-31G**", 
		 "properties": { 
			 "R2extent": 11247.0975, 
			 "electric_dipole_moment_norm": 4.98476957742, 
			 "electric_quadrupole_moment_norm": 35.8695238887, 
			 "total_energy": -3638.03240361, 
			 "HOMO_LUMO_gap": 0.17897, 
			 "cosmo_polarized_energy": -20.31, 
			 "cosmo_cavitation_energy": 35.5, 
			 "cosmo_dispersion_energy": -26.76, 
			 "cosmo_repulsion_energy": 2.01, 
			 "cosmo_total_nonelectrostatic_energy": 10.75, 
			 "SMD_solvation_energy": 4.28 
		},
		"coords": [
			{
				"x": 4.3996004568,
				"y": -2.0503276051,
				"z": -1.5634325222,
				"element": "N" 
			},
			{
				"x": 3.2127362856,
				"y": -3.139991836,
				"z": -1.0812311381,
				"element": "S" 
			},
			{
				"x": 3.755588052,
				"y": -3.8148113503,
				"z": 0.0962001821,
				"element": "O" 
			},
			{
				"x": 2.8132745605,
				"y": -3.8470085573,
				"z": -2.2965559285,
				"element": "O" 
			},
			{
				"x": 1.8013856952,
				"y": -2.1666969677,
				"z": -0.5383601126,
				"element": "C" 
			},
			{
				"x": 1.7046493405,
				"y": -1.777958418,
				"z": 0.7995987367,
				"element": "C" 
			},
			{
				"x": 0.621137651,
				"y": -1.0052445211,
				"z": 1.2084578458,
				"element": "C" 
			},
			{
				"x": -0.376112833,
				"y": -0.6122609396,
				"z": 0.2977728186,
				"element": "C" 
			},
			{
				"x": -0.2590112781,
				"y": -1.0285514988,
				"z": -1.0404626183,
				"element": "C" 
			},
			{
				"x": 0.8181685362,
				"y": -1.8036805797,
				"z": -1.4612842422,
				"element": "C" 
			},
			{
				"x": -1.5279246714,
				"y": 0.2120803548,
				"z": 0.7402851575,
				"element": "C" 
			},
			{
				"x": -2.8153747908,
				"y": -0.0051490648,
				"z": 0.2213234061,
				"element": "C" 
			},
			{
				"x": -3.9007586986,
				"y": 0.765620607,
				"z": 0.6323658017,
				"element": "C" 
			},
			{
				"x": -3.7029523939,
				"y": 1.7725639723,
				"z": 1.5758411742,
				"element": "C" 
			},
			{
				"x": -5.1834512835,
				"y": 2.8356408785,
				"z": 2.1437524576,
				"element": "Br" 
			},
			{
				"x": -2.4381517979,
				"y": 2.0133303767,
				"z": 2.1101117494,
				"element": "C" 
			},
			{
				"x": -1.3625420254,
				"y": 1.2333190535,
				"z": 1.690885343,
				"element": "C" 
			},
			{
				"x": 4.750988733,
				"y": -1.4830140868,
				"z": -0.7986590956,
				"element": "H" 
			},
			{
				"x": 4.130390738,
				"y": -1.5049052554,
				"z": -2.3759960722,
				"element": "H" 
			},
			{
				"x": 2.4533020485,
				"y": -2.107970023,
				"z": 1.5120674676,
				"element": "H" 
			},
			{
				"x": 0.5280619936,
				"y": -0.7322361728,
				"z": 2.2549497253,
				"element": "H" 
			},
			{
				"x": -1.0110613489,
				"y": -0.7273833933,
				"z": -1.7629962901,
				"element": "H" 
			},
			{
				"x": 0.8943237294,
				"y": -2.1383844572,
				"z": -2.4904435784,
				"element": "H" 
			},
			{
				"x": -2.9798745031,
				"y": -0.8059776019,
				"z": -0.4930293358,
				"element": "H" 
			},
			{
				"x": -4.8906918457,
				"y": 0.5804253662,
				"z": 0.2313628019,
				"element": "H" 
			},
			{
				"x": -2.2944624926,
				"y": 2.8045465978,
				"z": 2.8370401576,
				"element": "H" 
			},
			{
				"x": -0.3748378574,
				"y": 1.441325122,
				"z": 2.0909361087,
				"element": "H" 
			}
		],
		 "valence_orbital": [ 
			{
				"type": "occ",
				"energy": -0.29577,
				"method": "rhf"
			},
			{
				"type": "occ",
				"energy": -0.28045,
				"method": "rhf"
			},
			{
				"type": "occ",
				"energy": -0.2795,
				"method": "rhf"
			},
			{
				"type": "occ",
				"energy": -0.2765,
				"method": "rhf"
			},
			{
				"type": "occ",
				"energy": -0.24166,
				"method": "rhf"
			},
			{
				"type": "unocc",
				"energy": -0.06269,
				"method": "rhf"
			},
			{
				"type": "unocc",
				"energy": -0.03214,
				"method": "rhf"
			},
			{
				"type": "unocc",
				"energy": -0.0267,
				"method": "rhf"
			},
			{
				"type": "unocc",
				"energy": -0.00732,
				"method": "rhf"
			},
			{
				"type": "unocc",
				"energy": -0.0007,
				"method": "rhf"
			}
		],
		"cosmo_sigma_profile": { 
			"-0.025": 0.0,
			"-0.024": 0.0,
			"-0.023": 0.0,
			"-0.022": 0.0,
			"-0.021": 0.0,
			"-0.02": 0.0,
			"-0.019": 0.0,
			"-0.018": 0.0,
			"-0.017": 0.0,
			"-0.016": 0.250794475067,
			"-0.015": 2.53732463034,
			"-0.014": 2.72116916357,
			"-0.013": 1.669726064,
			"-0.012": 3.06872203153,
			"-0.011": 3.04157516562,
			"-0.01": 2.51439877999,
			"-0.009": 1.63474353578,
			"-0.008": 2.2032162055,
			"-0.007": 14.7371238234,
			"-0.006": 18.0258309802,
			"-0.005": 16.6591699415,
			"-0.004": 14.4406588332,
			"-0.003": 13.2970742429,
			"-0.002": 13.8792806684,
			"-0.001": 12.7663018487,
			"0.0": 16.6878992836,
			"0.001": 24.489789021,
			"0.002": 29.7501079511,
			"0.003": 30.1596660223,
			"0.004": 16.1005330377,
			"0.005": 7.53980813802,
			"0.006": 3.34491440801,
			"0.007": 3.52136044337,
			"0.008": 5.0143409252,
			"0.009": 4.26875232833,
			"0.01": 7.87963285766,
			"0.011": 10.4298882397,
			"0.012": 5.21180788385,
			"0.013": 0.209514086572,
			"0.014": 0.0,
			"0.015": 0.0,
			"0.016": 0.0,
			"0.017": 0.0,
			"0.018": 0.0,
			"0.019": 0.0,
			"0.02": 0.0,
			"0.021": 0.0,
			"0.022": 0.0,
			"0.023": 0.0,
			"0.024": 0.0,
			"0.025": 0.0
		}
	}
}
