{
	 "smiles": "NNC1=NC(=NC(=C1)C(F)(F)F)C1=CC=NC=C1", 
	 "Tm": 507.15, 
	 "num_atms": 26, 
	 "gaussian": { 
		 "optdone": 1, 
		 "sigma_profile": "yes", 
		 "theory": "DFT", 
		 "functional": "B3LYP", 
		 "basiset": "6-31G**", 
		 "properties": { 
			 "R2extent": 5597.2973, 
			 "electric_dipole_moment_norm": 4.44126436615, 
			 "electric_quadrupole_moment_norm": 4.62597449193, 
			 "total_energy": -959.14322886, 
			 "HOMO_LUMO_gap": 0.17806, 
			 "cosmo_polarized_energy": -14.8, 
			 "cosmo_cavitation_energy": 33.03, 
			 "cosmo_dispersion_energy": -23.29, 
			 "cosmo_repulsion_energy": 1.74, 
			 "cosmo_total_nonelectrostatic_energy": 11.48, 
			 "SMD_solvation_energy": 4.29 
		},
		"coords": [
			{
				"x": -0.2004657872,
				"y": 1.1738143435,
				"z": -3.1118086275,
				"element": "N" 
			},
			{
				"x": 0.3467214992,
				"y": 1.8346992708,
				"z": -2.0027251536,
				"element": "N" 
			},
			{
				"x": 0.3699035718,
				"y": 1.3229834506,
				"z": -0.7419153622,
				"element": "C" 
			},
			{
				"x": -0.1095589033,
				"y": 0.0849341044,
				"z": -0.5635796505,
				"element": "N" 
			},
			{
				"x": -0.0758330192,
				"y": -0.4156329217,
				"z": 0.6836463366,
				"element": "C" 
			},
			{
				"x": 0.3926426906,
				"y": 0.2120963305,
				"z": 1.7670616967,
				"element": "N" 
			},
			{
				"x": 0.8658264279,
				"y": 1.4512992006,
				"z": 1.565773704,
				"element": "C" 
			},
			{
				"x": 0.8891514527,
				"y": 2.0781022938,
				"z": 0.3397385656,
				"element": "C" 
			},
			{
				"x": 1.3905250105,
				"y": 2.1442504949,
				"z": 2.8100278882,
				"element": "C" 
			},
			{
				"x": 0.4252646066,
				"y": 2.2671553572,
				"z": 3.7379304351,
				"element": "F" 
			},
			{
				"x": 2.403544274,
				"y": 1.450837437,
				"z": 3.3584222076,
				"element": "F" 
			},
			{
				"x": 1.8480928666,
				"y": 3.3850385226,
				"z": 2.5266873424,
				"element": "F" 
			},
			{
				"x": -0.6085246266,
				"y": -1.7913979046,
				"z": 0.8754717803,
				"element": "C" 
			},
			{
				"x": -1.1178142893,
				"y": -2.5316079996,
				"z": -0.1982696917,
				"element": "C" 
			},
			{
				"x": -1.6033793813,
				"y": -3.8155773075,
				"z": 0.0424404274,
				"element": "C" 
			},
			{
				"x": -1.6152661011,
				"y": -4.3964565309,
				"z": 1.2494487137,
				"element": "N" 
			},
			{
				"x": -1.1254528034,
				"y": -3.6796254518,
				"z": 2.2702262462,
				"element": "C" 
			},
			{
				"x": -0.6157774279,
				"y": -2.388773299,
				"z": 2.1420190971,
				"element": "C" 
			},
			{
				"x": 0.3279639634,
				"y": 0.3150446701,
				"z": -3.2610326076,
				"element": "H" 
			},
			{
				"x": -1.1476748137,
				"y": 0.8806130431,
				"z": -2.8735997937,
				"element": "H" 
			},
			{
				"x": 0.6367683442,
				"y": 2.7856873466,
				"z": -2.1677801665,
				"element": "H" 
			},
			{
				"x": 1.2796484068,
				"y": 3.080135812,
				"z": 0.2140873769,
				"element": "H" 
			},
			{
				"x": -1.1298884354,
				"y": -2.1060940175,
				"z": -1.1944936756,
				"element": "H" 
			},
			{
				"x": -2.0039672883,
				"y": -4.4088773051,
				"z": -0.7778527975,
				"element": "H" 
			},
			{
				"x": -1.141020928,
				"y": -4.163574515,
				"z": 3.2451295922,
				"element": "H" 
			},
			{
				"x": -0.2300293096,
				"y": -1.848074425,
				"z": 2.9980461165,
				"element": "H" 
			}
		],
		 "valence_orbital": [ 
			{
				"type": "occ",
				"energy": -0.27668,
				"method": "rhf"
			},
			{
				"type": "occ",
				"energy": -0.2725,
				"method": "rhf"
			},
			{
				"type": "occ",
				"energy": -0.2623,
				"method": "rhf"
			},
			{
				"type": "occ",
				"energy": -0.2544,
				"method": "rhf"
			},
			{
				"type": "occ",
				"energy": -0.24965,
				"method": "rhf"
			},
			{
				"type": "unocc",
				"energy": -0.07159,
				"method": "rhf"
			},
			{
				"type": "unocc",
				"energy": -0.04466,
				"method": "rhf"
			},
			{
				"type": "unocc",
				"energy": -0.00802,
				"method": "rhf"
			},
			{
				"type": "unocc",
				"energy": 0.01385,
				"method": "rhf"
			},
			{
				"type": "unocc",
				"energy": 0.06272,
				"method": "rhf"
			}
		],
		"cosmo_sigma_profile": { 
			"-0.025": 0.0,
			"-0.024": 0.0,
			"-0.023": 0.0,
			"-0.022": 0.0,
			"-0.021": 0.0,
			"-0.02": 0.0,
			"-0.019": 0.0,
			"-0.018": 0.0,
			"-0.017": 0.0,
			"-0.016": 0.247642191749,
			"-0.015": 1.34436055463,
			"-0.014": 1.61615088852,
			"-0.013": 1.41374896995,
			"-0.012": 1.46259316618,
			"-0.011": 3.4957320944,
			"-0.01": 3.79061252327,
			"-0.009": 4.73085514104,
			"-0.008": 3.08009339411,
			"-0.007": 4.9231422277,
			"-0.006": 9.29415246128,
			"-0.005": 11.5967925545,
			"-0.004": 11.1951619914,
			"-0.003": 13.3179974527,
			"-0.002": 16.7131626258,
			"-0.001": 21.5982451894,
			"0.0": 18.681854716,
			"0.001": 22.9966670365,
			"0.002": 44.2527569125,
			"0.003": 26.4783631917,
			"0.004": 9.20482035472,
			"0.005": 7.14127053675,
			"0.006": 5.39124381742,
			"0.007": 4.58952634348,
			"0.008": 4.1097350262,
			"0.009": 2.14887624538,
			"0.01": 1.1529389131,
			"0.011": 1.87173648372,
			"0.012": 1.36274153639,
			"0.013": 1.71810814611,
			"0.014": 1.56310523162,
			"0.015": 1.47489209743,
			"0.016": 1.17735096731,
			"0.017": 0.199088470101,
			"0.018": 0.0,
			"0.019": 0.0,
			"0.02": 0.0,
			"0.021": 0.0,
			"0.022": 0.0,
			"0.023": 0.0,
			"0.024": 0.0,
			"0.025": 0.0
		}
	}
}
