{
	 "smiles": "CCCC1=CC=C(C=C1)C1=CC=CC=C1", 
	 "Tm": 289.15, 
	 "num_atms": 31, 
	 "gaussian": { 
		 "optdone": 1, 
		 "sigma_profile": "yes", 
		 "theory": "DFT", 
		 "functional": "B3LYP", 
		 "basiset": "6-31G**", 
		 "properties": { 
			 "R2extent": 5216.5736, 
			 "electric_dipole_moment_norm": 0.383844174112, 
			 "electric_quadrupole_moment_norm": 7.51365694586, 
			 "total_energy": -581.262773577, 
			 "HOMO_LUMO_gap": 0.19296, 
			 "cosmo_polarized_energy": -5.02, 
			 "cosmo_cavitation_energy": 33.57, 
			 "cosmo_dispersion_energy": -24.01, 
			 "cosmo_repulsion_energy": 1.88, 
			 "cosmo_total_nonelectrostatic_energy": 11.44, 
			 "SMD_solvation_energy": 5.22 
		},
		"coords": [
			{
				"x": 3.4123303266,
				"y": -0.6967943966,
				"z": -2.2825069777,
				"element": "C" 
			},
			{
				"x": 3.5735349794,
				"y": -1.1693859913,
				"z": -0.8348995913,
				"element": "C" 
			},
			{
				"x": 2.2692514501,
				"y": -1.7015075528,
				"z": -0.1995357895,
				"element": "C" 
			},
			{
				"x": 1.1922954244,
				"y": -0.6507244449,
				"z": -0.0287102159,
				"element": "C" 
			},
			{
				"x": 1.2736767818,
				"y": 0.2977865884,
				"z": 1.0015120237,
				"element": "C" 
			},
			{
				"x": 0.3008899005,
				"y": 1.2811883817,
				"z": 1.1582287335,
				"element": "C" 
			},
			{
				"x": -0.8000646248,
				"y": 1.3582140208,
				"z": 0.2874863775,
				"element": "C" 
			},
			{
				"x": -0.882969377,
				"y": 0.407472701,
				"z": -0.7420924004,
				"element": "C" 
			},
			{
				"x": 0.0934443035,
				"y": -0.5760805592,
				"z": -0.8940276258,
				"element": "C" 
			},
			{
				"x": -1.8396409575,
				"y": 2.4053796522,
				"z": 0.4542027531,
				"element": "C" 
			},
			{
				"x": -1.49456613,
				"y": 3.7108677326,
				"z": 0.8447178607,
				"element": "C" 
			},
			{
				"x": -2.4699575064,
				"y": 4.6946297621,
				"z": 1.001741676,
				"element": "C" 
			},
			{
				"x": -3.8140341519,
				"y": 4.3964848291,
				"z": 0.7695320978,
				"element": "C" 
			},
			{
				"x": -4.1727130621,
				"y": 3.1045494085,
				"z": 0.3801391721,
				"element": "C" 
			},
			{
				"x": -3.1970511596,
				"y": 2.1206430868,
				"z": 0.2257313989,
				"element": "C" 
			},
			{
				"x": 3.0683101984,
				"y": -1.513272344,
				"z": -2.9284120187,
				"element": "H" 
			},
			{
				"x": 2.6828661466,
				"y": 0.1156502062,
				"z": -2.3581287129,
				"element": "H" 
			},
			{
				"x": 4.362752387,
				"y": -0.3327560801,
				"z": -2.6861830308,
				"element": "H" 
			},
			{
				"x": 3.9590628876,
				"y": -0.3459454777,
				"z": -0.2200147508,
				"element": "H" 
			},
			{
				"x": 4.3281096454,
				"y": -1.9651683665,
				"z": -0.7914217856,
				"element": "H" 
			},
			{
				"x": 1.8827830517,
				"y": -2.5245022573,
				"z": -0.8137847548,
				"element": "H" 
			},
			{
				"x": 2.5102548489,
				"y": -2.1322093807,
				"z": 0.7806017827,
				"element": "H" 
			},
			{
				"x": 2.1051960468,
				"y": 0.2557706232,
				"z": 1.7016436287,
				"element": "H" 
			},
			{
				"x": 0.3773312302,
				"y": 1.9814973801,
				"z": 1.9850391769,
				"element": "H" 
			},
			{
				"x": -1.7090121718,
				"y": 0.4524940681,
				"z": -1.4459888506,
				"element": "H" 
			},
			{
				"x": 0.0025931192,
				"y": -1.2963476335,
				"z": -1.7035589504,
				"element": "H" 
			},
			{
				"x": -0.4493755234,
				"y": 3.9611771155,
				"z": 1.0014087594,
				"element": "H" 
			},
			{
				"x": -2.1779349488,
				"y": 5.6986680528,
				"z": 1.2969520298,
				"element": "H" 
			},
			{
				"x": -4.5740450022,
				"y": 5.1629109283,
				"z": 0.8909147958,
				"element": "H" 
			},
			{
				"x": -5.2164349472,
				"y": 2.8585057412,
				"z": 0.2051436447,
				"element": "H" 
			},
			{
				"x": -3.4904831655,
				"y": 1.1121042059,
				"z": -0.0505304562,
				"element": "H" 
			}
		],
		 "valence_orbital": [ 
			{
				"type": "occ",
				"energy": -0.32002,
				"method": "rhf"
			},
			{
				"type": "occ",
				"energy": -0.26518,
				"method": "rhf"
			},
			{
				"type": "occ",
				"energy": -0.2476,
				"method": "rhf"
			},
			{
				"type": "occ",
				"energy": -0.24666,
				"method": "rhf"
			},
			{
				"type": "occ",
				"energy": -0.21671,
				"method": "rhf"
			},
			{
				"type": "unocc",
				"energy": -0.02375,
				"method": "rhf"
			},
			{
				"type": "unocc",
				"energy": -0.00128,
				"method": "rhf"
			},
			{
				"type": "unocc",
				"energy": 0.00281,
				"method": "rhf"
			},
			{
				"type": "unocc",
				"energy": 0.03203,
				"method": "rhf"
			},
			{
				"type": "unocc",
				"energy": 0.09438,
				"method": "rhf"
			}
		],
		"cosmo_sigma_profile": { 
			"-0.025": 0.0,
			"-0.024": 0.0,
			"-0.023": 0.0,
			"-0.022": 0.0,
			"-0.021": 0.0,
			"-0.02": 0.0,
			"-0.019": 0.0,
			"-0.018": 0.0,
			"-0.017": 0.0,
			"-0.016": 0.0,
			"-0.015": 0.0,
			"-0.014": 0.0,
			"-0.013": 0.0,
			"-0.012": 0.0,
			"-0.011": 0.0,
			"-0.01": 0.0,
			"-0.009": 0.0,
			"-0.008": 0.0,
			"-0.007": 0.0,
			"-0.006": 3.38563172325,
			"-0.005": 17.1650126027,
			"-0.004": 21.121303462,
			"-0.003": 28.1787666952,
			"-0.002": 27.630842752,
			"-0.001": 28.8049552647,
			"0.0": 27.7056801622,
			"0.001": 27.0192930561,
			"0.002": 19.6154289407,
			"0.003": 16.3479690616,
			"0.004": 16.7190474293,
			"0.005": 16.5638302108,
			"0.006": 14.8229483765,
			"0.007": 0.609299683119,
			"0.008": 0.0,
			"0.009": 0.0,
			"0.01": 0.0,
			"0.011": 0.0,
			"0.012": 0.0,
			"0.013": 0.0,
			"0.014": 0.0,
			"0.015": 0.0,
			"0.016": 0.0,
			"0.017": 0.0,
			"0.018": 0.0,
			"0.019": 0.0,
			"0.02": 0.0,
			"0.021": 0.0,
			"0.022": 0.0,
			"0.023": 0.0,
			"0.024": 0.0,
			"0.025": 0.0
		}
	}
}
