{
	 "smiles": "CCOC(=O)C1=C(N)NN=C1SC", 
	 "Tm": 415.15, 
	 "num_atms": 24, 
	 "gaussian": { 
		 "optdone": 1, 
		 "sigma_profile": "yes", 
		 "theory": "DFT", 
		 "functional": "B3LYP", 
		 "basiset": "6-31G**", 
		 "properties": { 
			 "R2extent": 3699.9844, 
			 "electric_dipole_moment_norm": 2.37627698301, 
			 "electric_quadrupole_moment_norm": 18.3547308994, 
			 "total_energy": -986.270736876, 
			 "HOMO_LUMO_gap": 0.19911, 
			 "cosmo_polarized_energy": -16.61, 
			 "cosmo_cavitation_energy": 29.39, 
			 "cosmo_dispersion_energy": -22.01, 
			 "cosmo_repulsion_energy": 1.75, 
			 "cosmo_total_nonelectrostatic_energy": 9.12, 
			 "SMD_solvation_energy": 5.36 
		},
		"coords": [
			{
				"x": 0.9013730587,
				"y": -2.6861718227,
				"z": 0.5039083081,
				"element": "C" 
			},
			{
				"x": -0.0356058747,
				"y": -2.2518108368,
				"z": -0.6133654109,
				"element": "C" 
			},
			{
				"x": -0.3936364671,
				"y": -0.8566601536,
				"z": -0.486995564,
				"element": "O" 
			},
			{
				"x": -1.4339494086,
				"y": -0.5613124055,
				"z": 0.3226718213,
				"element": "C" 
			},
			{
				"x": -2.0772625667,
				"y": -1.415951277,
				"z": 0.9323079616,
				"element": "O" 
			},
			{
				"x": -1.7157983386,
				"y": 0.8563205843,
				"z": 0.3869235868,
				"element": "C" 
			},
			{
				"x": -2.7710616142,
				"y": 1.3791294223,
				"z": 1.1507223492,
				"element": "C" 
			},
			{
				"x": -3.6113080259,
				"y": 0.7243277597,
				"z": 2.0103790775,
				"element": "N" 
			},
			{
				"x": -2.7738598368,
				"y": 2.7099775249,
				"z": 0.9282798324,
				"element": "N" 
			},
			{
				"x": -1.7730874557,
				"y": 3.1210165589,
				"z": 0.0676698709,
				"element": "N" 
			},
			{
				"x": -1.1419435994,
				"y": 2.0040574073,
				"z": -0.25515114,
				"element": "C" 
			},
			{
				"x": 0.2332039218,
				"y": 2.0019504365,
				"z": -1.3609973726,
				"element": "S" 
			},
			{
				"x": 0.3407498876,
				"y": 3.7888844787,
				"z": -1.7208126736,
				"element": "C" 
			},
			{
				"x": 1.2205995413,
				"y": -3.7211334221,
				"z": 0.3403915589,
				"element": "H" 
			},
			{
				"x": 1.7917238805,
				"y": -2.0513473421,
				"z": 0.5325952417,
				"element": "H" 
			},
			{
				"x": 0.3954351337,
				"y": -2.631267227,
				"z": 1.4708428388,
				"element": "H" 
			},
			{
				"x": -0.9488280594,
				"y": -2.8514502353,
				"z": -0.6180201593,
				"element": "H" 
			},
			{
				"x": 0.4483040215,
				"y": -2.318001137,
				"z": -1.5905467932,
				"element": "H" 
			},
			{
				"x": -3.5176143953,
				"y": -0.2842408891,
				"z": 1.915722617,
				"element": "H" 
			},
			{
				"x": -4.5591771007,
				"y": 1.0669685489,
				"z": 2.0813855707,
				"element": "H" 
			},
			{
				"x": -3.3481423566,
				"y": 3.4092243521,
				"z": 1.3709494322,
				"element": "H" 
			},
			{
				"x": 1.1760734582,
				"y": 3.9022313672,
				"z": -2.4149308702,
				"element": "H" 
			},
			{
				"x": -0.5803941074,
				"y": 4.1465951321,
				"z": -2.182628431,
				"element": "H" 
			},
			{
				"x": 0.5325063037,
				"y": 4.3566631754,
				"z": -0.8094016524,
				"element": "H" 
			}
		],
		 "valence_orbital": [ 
			{
				"type": "occ",
				"energy": -0.28939,
				"method": "rhf"
			},
			{
				"type": "occ",
				"energy": -0.28644,
				"method": "rhf"
			},
			{
				"type": "occ",
				"energy": -0.26752,
				"method": "rhf"
			},
			{
				"type": "occ",
				"energy": -0.22178,
				"method": "rhf"
			},
			{
				"type": "occ",
				"energy": -0.20418,
				"method": "rhf"
			},
			{
				"type": "unocc",
				"energy": -0.00507,
				"method": "rhf"
			},
			{
				"type": "unocc",
				"energy": 0.03124,
				"method": "rhf"
			},
			{
				"type": "unocc",
				"energy": 0.04659,
				"method": "rhf"
			},
			{
				"type": "unocc",
				"energy": 0.07148,
				"method": "rhf"
			},
			{
				"type": "unocc",
				"energy": 0.08603,
				"method": "rhf"
			}
		],
		"cosmo_sigma_profile": { 
			"-0.025": 0.0,
			"-0.024": 0.0,
			"-0.023": 0.0,
			"-0.022": 0.0,
			"-0.021": 0.0,
			"-0.02": 0.0,
			"-0.019": 0.0,
			"-0.018": 0.0,
			"-0.017": 0.844004633615,
			"-0.016": 2.60229592409,
			"-0.015": 3.01998441231,
			"-0.014": 2.51517897343,
			"-0.013": 1.86016746497,
			"-0.012": 1.96267468736,
			"-0.011": 1.92301719973,
			"-0.01": 2.58684001553,
			"-0.009": 2.2082713122,
			"-0.008": 1.75082767991,
			"-0.007": 2.66603074274,
			"-0.006": 5.98822322663,
			"-0.005": 10.4304874916,
			"-0.004": 14.9253158765,
			"-0.003": 18.9129053279,
			"-0.002": 17.9572695705,
			"-0.001": 18.711822479,
			"0.0": 18.1504897287,
			"0.001": 13.6163773469,
			"0.002": 13.6062138471,
			"0.003": 12.7718203648,
			"0.004": 12.544801361,
			"0.005": 8.58075327667,
			"0.006": 9.00106257149,
			"0.007": 7.93127305037,
			"0.008": 8.62231069754,
			"0.009": 6.59083910652,
			"0.01": 3.56564779627,
			"0.011": 3.53080277111,
			"0.012": 2.97885448941,
			"0.013": 1.33975031056,
			"0.014": 0.373422036687,
			"0.015": 0.0,
			"0.016": 0.0,
			"0.017": 0.0,
			"0.018": 0.0,
			"0.019": 0.0,
			"0.02": 0.0,
			"0.021": 0.0,
			"0.022": 0.0,
			"0.023": 0.0,
			"0.024": 0.0,
			"0.025": 0.0
		}
	}
}
