{
	 "smiles": "NC1=NC=CN=C1C(O)=O", 
	 "Tm": 476.15, 
	 "num_atms": 15, 
	 "gaussian": { 
		 "optdone": 1, 
		 "sigma_profile": "yes", 
		 "theory": "DFT", 
		 "functional": "B3LYP", 
		 "basiset": "6-31G**", 
		 "properties": { 
			 "R2extent": 1480.5594, 
			 "electric_dipole_moment_norm": 3.97043068948, 
			 "electric_quadrupole_moment_norm": 8.50198053221, 
			 "total_energy": -508.239522806, 
			 "HOMO_LUMO_gap": 0.16563, 
			 "cosmo_polarized_energy": -15.14, 
			 "cosmo_cavitation_energy": 19.82, 
			 "cosmo_dispersion_energy": -15.13, 
			 "cosmo_repulsion_energy": 1.22, 
			 "cosmo_total_nonelectrostatic_energy": 5.91, 
			 "SMD_solvation_energy": 2.38 
		},
		"coords": [
			{
				"x": -0.3340724588,
				"y": -2.0182767707,
				"z": -2.2048055871,
				"element": "N" 
			},
			{
				"x": 0.2592269312,
				"y": -0.8350934488,
				"z": -1.6783492965,
				"element": "C" 
			},
			{
				"x": 1.3879302062,
				"y": -0.4246356514,
				"z": -2.2723492826,
				"element": "N" 
			},
			{
				"x": 1.9735587965,
				"y": 0.6803494799,
				"z": -1.8073632196,
				"element": "C" 
			},
			{
				"x": 1.4509502033,
				"y": 1.4091530537,
				"z": -0.7359840082,
				"element": "C" 
			},
			{
				"x": 0.3299505761,
				"y": 1.0140391485,
				"z": -0.1350701991,
				"element": "N" 
			},
			{
				"x": -0.2681755277,
				"y": -0.0957117975,
				"z": -0.5936437195,
				"element": "C" 
			},
			{
				"x": -1.5335675278,
				"y": -0.47520633,
				"z": 0.1421634387,
				"element": "C" 
			},
			{
				"x": -1.8435269441,
				"y": 0.3664003473,
				"z": 1.1363870957,
				"element": "O" 
			},
			{
				"x": -2.2093752993,
				"y": -1.4457878104,
				"z": -0.1274367131,
				"element": "O" 
			},
			{
				"x": -1.2999259642,
				"y": -1.8107364187,
				"z": -2.4585783431,
				"element": "H" 
			},
			{
				"x": -0.4477873576,
				"y": -2.6890382778,
				"z": -1.4448764772,
				"element": "H" 
			},
			{
				"x": 2.8891555876,
				"y": 0.9990087568,
				"z": -2.3015526849,
				"element": "H" 
			},
			{
				"x": 1.9347497538,
				"y": 2.3081629135,
				"z": -0.3639063018,
				"element": "H" 
			},
			{
				"x": -1.1455909753,
				"y": 1.0554728055,
				"z": 1.1459652982,
				"element": "H" 
			}
		],
		 "valence_orbital": [ 
			{
				"type": "occ",
				"energy": -0.32344,
				"method": "rhf"
			},
			{
				"type": "occ",
				"energy": -0.29945,
				"method": "rhf"
			},
			{
				"type": "occ",
				"energy": -0.29419,
				"method": "rhf"
			},
			{
				"type": "occ",
				"energy": -0.28919,
				"method": "rhf"
			},
			{
				"type": "occ",
				"energy": -0.25394,
				"method": "rhf"
			},
			{
				"type": "unocc",
				"energy": -0.08831,
				"method": "rhf"
			},
			{
				"type": "unocc",
				"energy": -0.05978,
				"method": "rhf"
			},
			{
				"type": "unocc",
				"energy": 0.03024,
				"method": "rhf"
			},
			{
				"type": "unocc",
				"energy": 0.09124,
				"method": "rhf"
			},
			{
				"type": "unocc",
				"energy": 0.09647,
				"method": "rhf"
			}
		],
		"cosmo_sigma_profile": { 
			"-0.025": 0.0,
			"-0.024": 0.0,
			"-0.023": 0.0,
			"-0.022": 0.0,
			"-0.021": 0.0,
			"-0.02": 0.0,
			"-0.019": 0.0,
			"-0.018": 0.0,
			"-0.017": 0.0,
			"-0.016": 0.0,
			"-0.015": 0.0,
			"-0.014": 0.0,
			"-0.013": 0.617685585658,
			"-0.012": 0.356028431109,
			"-0.011": 3.047422552,
			"-0.01": 3.09141267001,
			"-0.009": 7.29362232124,
			"-0.008": 7.56029343429,
			"-0.007": 7.74665056122,
			"-0.006": 9.82179653165,
			"-0.005": 10.9625658838,
			"-0.004": 10.8546085819,
			"-0.003": 9.23440083526,
			"-0.002": 11.4626863646,
			"-0.001": 8.31095858989,
			"0.0": 6.55405978442,
			"0.001": 5.38045607626,
			"0.002": 5.12560985972,
			"0.003": 5.61885930987,
			"0.004": 3.38453066925,
			"0.005": 3.56359613044,
			"0.006": 3.07786653556,
			"0.007": 4.00345462165,
			"0.008": 4.51397005372,
			"0.009": 4.58989190893,
			"0.01": 6.35520935974,
			"0.011": 4.39636796847,
			"0.012": 4.11306033314,
			"0.013": 2.01054444467,
			"0.014": 1.10920811482,
			"0.015": 1.40823542362,
			"0.016": 1.55560948611,
			"0.017": 1.20056255158,
			"0.018": 0.728644740977,
			"0.019": 0.0963840954171,
			"0.02": 0.0,
			"0.021": 0.0,
			"0.022": 0.0,
			"0.023": 0.0,
			"0.024": 0.0,
			"0.025": 0.0
		}
	}
}
