{
	 "smiles": "CC(C)(C)OC(=O)N1CCN(CC1)C1=CC=C(CO)C=N1", 
	 "Tm": 387.15, 
	 "num_atms": 44, 
	 "gaussian": { 
		 "optdone": 1, 
		 "sigma_profile": "yes", 
		 "theory": "DFT", 
		 "functional": "B3LYP", 
		 "basiset": "6-31G**", 
		 "properties": { 
			 "R2extent": 11954.5118, 
			 "electric_dipole_moment_norm": 1.45930499211, 
			 "electric_quadrupole_moment_norm": 10.8771811059, 
			 "total_energy": -975.411392657, 
			 "HOMO_LUMO_gap": 0.18429, 
			 "cosmo_polarized_energy": -14.73, 
			 "cosmo_cavitation_energy": 44.68, 
			 "cosmo_dispersion_energy": -31.77, 
			 "cosmo_repulsion_energy": 2.45, 
			 "cosmo_total_nonelectrostatic_energy": 15.36, 
			 "SMD_solvation_energy": 6.15 
		},
		"coords": [
			{
				"x": 0.7560776855,
				"y": -4.5582759877,
				"z": 0.4011651514,
				"element": "C" 
			},
			{
				"x": 0.2144070536,
				"y": -4.0682984972,
				"z": -0.9459986427,
				"element": "C" 
			},
			{
				"x": -1.2052884337,
				"y": -4.5912011405,
				"z": -1.1817941972,
				"element": "C" 
			},
			{
				"x": 1.1321235982,
				"y": -4.4452276487,
				"z": -2.1139867209,
				"element": "C" 
			},
			{
				"x": 0.0142198457,
				"y": -2.6107912157,
				"z": -0.9114122425,
				"element": "O" 
			},
			{
				"x": 1.0580917858,
				"y": -1.770512251,
				"z": -0.7103407889,
				"element": "C" 
			},
			{
				"x": 2.2240518012,
				"y": -2.1097927765,
				"z": -0.5589150629,
				"element": "O" 
			},
			{
				"x": 0.6398109702,
				"y": -0.4632347755,
				"z": -0.6816599615,
				"element": "N" 
			},
			{
				"x": -0.7151425825,
				"y": 0.0000629803,
				"z": -0.9650280262,
				"element": "C" 
			},
			{
				"x": -1.1390161278,
				"y": 1.0470732876,
				"z": 0.0644546447,
				"element": "C" 
			},
			{
				"x": -0.1517401022,
				"y": 2.1269555386,
				"z": 0.1534021872,
				"element": "N" 
			},
			{
				"x": 1.2023617923,
				"y": 1.6578669765,
				"z": 0.4311375685,
				"element": "C" 
			},
			{
				"x": 1.6294198359,
				"y": 0.5997877549,
				"z": -0.5913256165,
				"element": "C" 
			},
			{
				"x": -0.576340534,
				"y": 3.3954645369,
				"z": 0.5357457216,
				"element": "C" 
			},
			{
				"x": 0.3138481234,
				"y": 4.3954083692,
				"z": 1.0027783628,
				"element": "C" 
			},
			{
				"x": -0.1900796021,
				"y": 5.6479053084,
				"z": 1.3104936928,
				"element": "C" 
			},
			{
				"x": -1.5596012869,
				"y": 5.9199596823,
				"z": 1.1715699068,
				"element": "C" 
			},
			{
				"x": -2.137603269,
				"y": 7.2714724471,
				"z": 1.5159487691,
				"element": "C" 
			},
			{
				"x": -1.3729191894,
				"y": 8.356711257,
				"z": 0.9976860268,
				"element": "O" 
			},
			{
				"x": -2.3470910543,
				"y": 4.8669247596,
				"z": 0.7099247656,
				"element": "C" 
			},
			{
				"x": -1.891094521,
				"y": 3.6487809503,
				"z": 0.4074186409,
				"element": "N" 
			},
			{
				"x": 1.7592518412,
				"y": -4.1721705549,
				"z": 0.5818903712,
				"element": "H" 
			},
			{
				"x": 0.7901869102,
				"y": -5.6526577365,
				"z": 0.4067362888,
				"element": "H" 
			},
			{
				"x": 0.0984225558,
				"y": -4.235583707,
				"z": 1.2147095066,
				"element": "H" 
			},
			{
				"x": -1.1995756835,
				"y": -5.6840524068,
				"z": -1.232163802,
				"element": "H" 
			},
			{
				"x": -1.6089072992,
				"y": -4.2036627552,
				"z": -2.1218515736,
				"element": "H" 
			},
			{
				"x": -1.8701104612,
				"y": -4.2860751863,
				"z": -0.3682763326,
				"element": "H" 
			},
			{
				"x": 0.7349056226,
				"y": -4.0457931468,
				"z": -3.0526634002,
				"element": "H" 
			},
			{
				"x": 2.1383834256,
				"y": -4.055426127,
				"z": -1.9606207961,
				"element": "H" 
			},
			{
				"x": 1.1829321862,
				"y": -5.5352815263,
				"z": -2.2038059189,
				"element": "H" 
			},
			{
				"x": -0.750756122,
				"y": 0.4425191446,
				"z": -1.9721237319,
				"element": "H" 
			},
			{
				"x": -1.3974007697,
				"y": -0.8473951327,
				"z": -0.9367418518,
				"element": "H" 
			},
			{
				"x": -1.2540914119,
				"y": 0.5596077885,
				"z": 1.0471395146,
				"element": "H" 
			},
			{
				"x": -2.0968542028,
				"y": 1.485981898,
				"z": -0.2095843221,
				"element": "H" 
			},
			{
				"x": 1.2733553326,
				"y": 1.238325131,
				"z": 1.4488245293,
				"element": "H" 
			},
			{
				"x": 1.9066229122,
				"y": 2.4875481403,
				"z": 0.3599200848,
				"element": "H" 
			},
			{
				"x": 1.7463252597,
				"y": 1.081526368,
				"z": -1.5740742392,
				"element": "H" 
			},
			{
				"x": 2.5829925824,
				"y": 0.1544209416,
				"z": -0.3077176867,
				"element": "H" 
			},
			{
				"x": 1.3705505916,
				"y": 4.2020847994,
				"z": 1.1342589294,
				"element": "H" 
			},
			{
				"x": 0.477390365,
				"y": 6.4312145494,
				"z": 1.6594699743,
				"element": "H" 
			},
			{
				"x": -3.1872735551,
				"y": 7.318131363,
				"z": 1.1842285327,
				"element": "H" 
			},
			{
				"x": -2.1417398999,
				"y": 7.427788472,
				"z": 2.6013209708,
				"element": "H" 
			},
			{
				"x": -1.2951363138,
				"y": 8.2216857979,
				"z": 0.0436398386,
				"element": "H" 
			},
			{
				"x": -3.4201696551,
				"y": 5.01132433,
				"z": 0.5756209351,
				"element": "H" 
			}
		],
		 "valence_orbital": [ 
			{
				"type": "occ",
				"energy": -0.27118,
				"method": "rhf"
			},
			{
				"type": "occ",
				"energy": -0.26058,
				"method": "rhf"
			},
			{
				"type": "occ",
				"energy": -0.25103,
				"method": "rhf"
			},
			{
				"type": "occ",
				"energy": -0.23908,
				"method": "rhf"
			},
			{
				"type": "occ",
				"energy": -0.20257,
				"method": "rhf"
			},
			{
				"type": "unocc",
				"energy": -0.01828,
				"method": "rhf"
			},
			{
				"type": "unocc",
				"energy": 0.00194,
				"method": "rhf"
			},
			{
				"type": "unocc",
				"energy": 0.05175,
				"method": "rhf"
			},
			{
				"type": "unocc",
				"energy": 0.08332,
				"method": "rhf"
			},
			{
				"type": "unocc",
				"energy": 0.08949,
				"method": "rhf"
			}
		],
		"cosmo_sigma_profile": { 
			"-0.025": 0.0,
			"-0.024": 0.0,
			"-0.023": 0.0,
			"-0.022": 0.0,
			"-0.021": 0.0,
			"-0.02": 0.0,
			"-0.019": 0.0,
			"-0.018": 0.0,
			"-0.017": 0.0,
			"-0.016": 0.0485960128362,
			"-0.015": 0.695012588574,
			"-0.014": 1.26141336045,
			"-0.013": 0.229234670343,
			"-0.012": 0.896207904045,
			"-0.011": 1.07832944278,
			"-0.01": 0.668502515782,
			"-0.009": 1.21320824127,
			"-0.008": 2.29842936735,
			"-0.007": 2.92336733072,
			"-0.006": 5.51772604809,
			"-0.005": 15.1807667378,
			"-0.004": 38.7043241975,
			"-0.003": 44.645698427,
			"-0.002": 37.1978318474,
			"-0.001": 31.181475236,
			"0.0": 36.0949985708,
			"0.001": 30.4513029654,
			"0.002": 15.330140885,
			"0.003": 17.7607413431,
			"0.004": 14.977580228,
			"0.005": 10.0971138638,
			"0.006": 7.45839917379,
			"0.007": 5.24399540556,
			"0.008": 4.09553698212,
			"0.009": 4.14116905966,
			"0.01": 3.4823199646,
			"0.011": 5.10369532016,
			"0.012": 3.44008131954,
			"0.013": 4.39736592517,
			"0.014": 3.34076997091,
			"0.015": 0.304210121641,
			"0.016": 0.0,
			"0.017": 0.0,
			"0.018": 0.0,
			"0.019": 0.0,
			"0.02": 0.0,
			"0.021": 0.0,
			"0.022": 0.0,
			"0.023": 0.0,
			"0.024": 0.0,
			"0.025": 0.0
		}
	}
}
