{
	 "smiles": "OC(=O)C1=CC2=C(OCCOCCOCCOCCOCCO2)C=C1", 
	 "Tm": 397.15, 
	 "num_atms": 49, 
	 "gaussian": { 
		 "optdone": 1, 
		 "sigma_profile": "yes", 
		 "theory": "DFT", 
		 "functional": "B3LYP", 
		 "basiset": "6-31G**", 
		 "properties": { 
			 "R2extent": 7843.8936, 
			 "electric_dipole_moment_norm": 7.75806138542, 
			 "electric_quadrupole_moment_norm": 28.1762429928, 
			 "total_energy": -1263.98422486, 
			 "HOMO_LUMO_gap": 0.19803, 
			 "cosmo_polarized_energy": -22.9, 
			 "cosmo_cavitation_energy": 47.14, 
			 "cosmo_dispersion_energy": -31.29, 
			 "cosmo_repulsion_energy": 2.32, 
			 "cosmo_total_nonelectrostatic_energy": 18.18, 
			 "SMD_solvation_energy": 8.59 
		},
		"coords": [
			{
				"x": -2.0885124531,
				"y": -1.990741457,
				"z": 2.3514352693,
				"element": "O" 
			},
			{
				"x": -1.0343158946,
				"y": -2.7759734103,
				"z": 2.025618404,
				"element": "C" 
			},
			{
				"x": -1.0746119885,
				"y": -3.9736555457,
				"z": 2.2037102201,
				"element": "O" 
			},
			{
				"x": 0.1641207588,
				"y": -2.0796146028,
				"z": 1.4569364746,
				"element": "C" 
			},
			{
				"x": 0.5515189544,
				"y": -0.8080835881,
				"z": 1.8988466085,
				"element": "C" 
			},
			{
				"x": 1.6833470851,
				"y": -0.1762101006,
				"z": 1.3799685724,
				"element": "C" 
			},
			{
				"x": 2.4095169187,
				"y": -0.8159448183,
				"z": 0.3518653644,
				"element": "C" 
			},
			{
				"x": 3.5315262804,
				"y": -0.2748662825,
				"z": -0.2206349642,
				"element": "O" 
			},
			{
				"x": 3.4188698328,
				"y": 0.9968173115,
				"z": -0.8654898602,
				"element": "C" 
			},
			{
				"x": 2.7730091088,
				"y": 0.9144333511,
				"z": -2.2394839841,
				"element": "C" 
			},
			{
				"x": 1.4098716985,
				"y": 0.5586293781,
				"z": -2.1047066871,
				"element": "O" 
			},
			{
				"x": 0.7036169223,
				"y": 0.5622174891,
				"z": -3.3342117567,
				"element": "C" 
			},
			{
				"x": -0.6364136034,
				"y": -0.142730179,
				"z": -3.1766155865,
				"element": "C" 
			},
			{
				"x": -1.5333369474,
				"y": 0.5491699627,
				"z": -2.3227814192,
				"element": "O" 
			},
			{
				"x": -1.6275315411,
				"y": 0.0098791649,
				"z": -1.0106895994,
				"element": "C" 
			},
			{
				"x": -2.4606006849,
				"y": 0.9914368123,
				"z": -0.2011334482,
				"element": "C" 
			},
			{
				"x": -2.7642242204,
				"y": 0.4041979622,
				"z": 1.0718188797,
				"element": "O" 
			},
			{
				"x": -3.1394192726,
				"y": 1.3444013483,
				"z": 2.076231883,
				"element": "C" 
			},
			{
				"x": -1.9733797104,
				"y": 1.640501199,
				"z": 3.0149280895,
				"element": "C" 
			},
			{
				"x": -0.861235013,
				"y": 1.9834801029,
				"z": 2.2124762393,
				"element": "O" 
			},
			{
				"x": 0.3235424798,
				"y": 2.3301715606,
				"z": 2.9076709539,
				"element": "C" 
			},
			{
				"x": 1.4984446529,
				"y": 2.2183691687,
				"z": 1.9365657072,
				"element": "C" 
			},
			{
				"x": 2.2102533061,
				"y": 0.976552981,
				"z": 1.9272800125,
				"element": "O" 
			},
			{
				"x": 2.0446733579,
				"y": -2.1048244316,
				"z": -0.0524595691,
				"element": "C" 
			},
			{
				"x": 0.9470098575,
				"y": -2.7458072547,
				"z": 0.5067892552,
				"element": "C" 
			},
			{
				"x": -2.0899013707,
				"y": -1.1460104882,
				"z": 1.8528427138,
				"element": "H" 
			},
			{
				"x": -0.0030374061,
				"y": -0.3268388858,
				"z": 2.6915873558,
				"element": "H" 
			},
			{
				"x": 2.8759830771,
				"y": 1.7071578402,
				"z": -0.2395770956,
				"element": "H" 
			},
			{
				"x": 4.4467185027,
				"y": 1.3543473178,
				"z": -0.979244895,
				"element": "H" 
			},
			{
				"x": 3.304934276,
				"y": 0.1760219151,
				"z": -2.8613249443,
				"element": "H" 
			},
			{
				"x": 2.877401025,
				"y": 1.8994552336,
				"z": -2.7282538085,
				"element": "H" 
			},
			{
				"x": 1.2799492675,
				"y": 0.0353755344,
				"z": -4.1141294052,
				"element": "H" 
			},
			{
				"x": 0.5433084307,
				"y": 1.5966669586,
				"z": -3.6789835261,
				"element": "H" 
			},
			{
				"x": -0.4692636652,
				"y": -1.1693397218,
				"z": -2.8238257713,
				"element": "H" 
			},
			{
				"x": -1.1041026009,
				"y": -0.1996190835,
				"z": -4.1683950504,
				"element": "H" 
			},
			{
				"x": -0.6387389752,
				"y": -0.1067068402,
				"z": -0.5570969094,
				"element": "H" 
			},
			{
				"x": -2.1225672163,
				"y": -0.9744825826,
				"z": -1.0266706943,
				"element": "H" 
			},
			{
				"x": -3.394295745,
				"y": 1.2119391299,
				"z": -0.7371901623,
				"element": "H" 
			},
			{
				"x": -1.9007162221,
				"y": 1.9212522957,
				"z": -0.0672065086,
				"element": "H" 
			},
			{
				"x": -3.4939644831,
				"y": 2.2696793432,
				"z": 1.6067823269,
				"element": "H" 
			},
			{
				"x": -3.9680204541,
				"y": 0.9148797987,
				"z": 2.6506132128,
				"element": "H" 
			},
			{
				"x": -2.2517940104,
				"y": 2.4553109615,
				"z": 3.7039837971,
				"element": "H" 
			},
			{
				"x": -1.7470994829,
				"y": 0.7517930913,
				"z": 3.6261222465,
				"element": "H" 
			},
			{
				"x": 0.2529618861,
				"y": 3.3660680788,
				"z": 3.2784033197,
				"element": "H" 
			},
			{
				"x": 0.4937882008,
				"y": 1.6781988584,
				"z": 3.7773288642,
				"element": "H" 
			},
			{
				"x": 1.1325190461,
				"y": 2.4674334081,
				"z": 0.9316527856,
				"element": "H" 
			},
			{
				"x": 2.2632131122,
				"y": 2.9476704769,
				"z": 2.2190033221,
				"element": "H" 
			},
			{
				"x": 2.6451305187,
				"y": -2.5799475759,
				"z": -0.8211990476,
				"element": "H" 
			},
			{
				"x": 0.6699544048,
				"y": -3.7504111858,
				"z": 0.2060428155,
				"element": "H" 
			}
		],
		 "valence_orbital": [ 
			{
				"type": "occ",
				"energy": -0.26888,
				"method": "rhf"
			},
			{
				"type": "occ",
				"energy": -0.25451,
				"method": "rhf"
			},
			{
				"type": "occ",
				"energy": -0.25072,
				"method": "rhf"
			},
			{
				"type": "occ",
				"energy": -0.2429,
				"method": "rhf"
			},
			{
				"type": "occ",
				"energy": -0.22276,
				"method": "rhf"
			},
			{
				"type": "unocc",
				"energy": -0.02473,
				"method": "rhf"
			},
			{
				"type": "unocc",
				"energy": -0.00438,
				"method": "rhf"
			},
			{
				"type": "unocc",
				"energy": 0.05759,
				"method": "rhf"
			},
			{
				"type": "unocc",
				"energy": 0.06186,
				"method": "rhf"
			},
			{
				"type": "unocc",
				"energy": 0.06869,
				"method": "rhf"
			}
		],
		"cosmo_sigma_profile": { 
			"-0.025": 0.0,
			"-0.024": 0.0,
			"-0.023": 0.0,
			"-0.022": 0.0,
			"-0.021": 0.0,
			"-0.02": 0.0,
			"-0.019": 0.0,
			"-0.018": 0.0,
			"-0.017": 0.0,
			"-0.016": 0.0,
			"-0.015": 0.0,
			"-0.014": 0.0,
			"-0.013": 0.0,
			"-0.012": 0.0,
			"-0.011": 0.0325612251792,
			"-0.01": 0.376477986287,
			"-0.009": 0.489373536106,
			"-0.008": 1.54518692297,
			"-0.007": 3.59000422954,
			"-0.006": 17.8630899263,
			"-0.005": 39.1709546557,
			"-0.004": 61.3951973351,
			"-0.003": 45.5919240636,
			"-0.002": 27.6336097638,
			"-0.001": 16.8712304361,
			"0.0": 13.5926335229,
			"0.001": 15.5353996262,
			"0.002": 18.0825941331,
			"0.003": 18.1904881094,
			"0.004": 13.3981890695,
			"0.005": 11.6428815457,
			"0.006": 10.1150971676,
			"0.007": 9.53844516114,
			"0.008": 8.05609834424,
			"0.009": 7.92784349222,
			"0.01": 7.16941165295,
			"0.011": 7.78516890401,
			"0.012": 8.82948591839,
			"0.013": 4.09447304792,
			"0.014": 0.789668512893,
			"0.015": 0.0,
			"0.016": 0.0,
			"0.017": 0.0,
			"0.018": 0.0,
			"0.019": 0.0,
			"0.02": 0.0,
			"0.021": 0.0,
			"0.022": 0.0,
			"0.023": 0.0,
			"0.024": 0.0,
			"0.025": 0.0
		}
	}
}
