{
	 "smiles": "OC(=O)C1=C(F)C(F)=CC(O)=C1", 
	 "Tm": 455.15, 
	 "num_atms": 16, 
	 "gaussian": { 
		 "optdone": 1, 
		 "sigma_profile": "yes", 
		 "theory": "DFT", 
		 "functional": "B3LYP", 
		 "basiset": "6-31G**", 
		 "properties": { 
			 "R2extent": 3461.4255, 
			 "electric_dipole_moment_norm": 2.90532760459, 
			 "electric_quadrupole_moment_norm": 16.5061317949, 
			 "total_energy": -694.492496435, 
			 "HOMO_LUMO_gap": 0.18434, 
			 "cosmo_polarized_energy": -13.69, 
			 "cosmo_cavitation_energy": 22.07, 
			 "cosmo_dispersion_energy": -16.41, 
			 "cosmo_repulsion_energy": 1.26, 
			 "cosmo_total_nonelectrostatic_energy": 6.91, 
			 "SMD_solvation_energy": 6.34 
		},
		"coords": [
			{
				"x": 1.8756602386,
				"y": -1.3224704602,
				"z": -0.6297617709,
				"element": "O" 
			},
			{
				"x": 1.6349871846,
				"y": -1.1506108489,
				"z": 0.6835354311,
				"element": "C" 
			},
			{
				"x": 2.5040414678,
				"y": -0.7512250261,
				"z": 1.4239525186,
				"element": "O" 
			},
			{
				"x": 0.2509357919,
				"y": -1.4721603551,
				"z": 1.1946243513,
				"element": "C" 
			},
			{
				"x": -0.8045398587,
				"y": -1.9361180476,
				"z": 0.4114490118,
				"element": "C" 
			},
			{
				"x": -0.662053433,
				"y": -2.1431010615,
				"z": -0.9287947511,
				"element": "F" 
			},
			{
				"x": -2.0491534571,
				"y": -2.2052473797,
				"z": 0.9786038247,
				"element": "C" 
			},
			{
				"x": -3.0342365121,
				"y": -2.6499662261,
				"z": 0.1854346035,
				"element": "F" 
			},
			{
				"x": -2.2710577964,
				"y": -2.0196207653,
				"z": 2.331945289,
				"element": "C" 
			},
			{
				"x": -1.2182104443,
				"y": -1.5531217232,
				"z": 3.1327101914,
				"element": "C" 
			},
			{
				"x": -1.4818459095,
				"y": -1.3855219803,
				"z": 4.456441047,
				"element": "O" 
			},
			{
				"x": 0.026760637,
				"y": -1.2839036125,
				"z": 2.5659829303,
				"element": "C" 
			},
			{
				"x": 1.0835633171,
				"y": -1.6460937718,
				"z": -1.0874900957,
				"element": "H" 
			},
			{
				"x": -3.2431393033,
				"y": -2.2324405974,
				"z": 2.7605497632,
				"element": "H" 
			},
			{
				"x": -0.6885492955,
				"y": -1.0629378519,
				"z": 4.9043187536,
				"element": "H" 
			},
			{
				"x": 0.860837373,
				"y": -0.9220602923,
				"z": 3.1593989024,
				"element": "H" 
			}
		],
		 "valence_orbital": [ 
			{
				"type": "occ",
				"energy": -0.35291,
				"method": "rhf"
			},
			{
				"type": "occ",
				"energy": -0.31995,
				"method": "rhf"
			},
			{
				"type": "occ",
				"energy": -0.28503,
				"method": "rhf"
			},
			{
				"type": "occ",
				"energy": -0.28029,
				"method": "rhf"
			},
			{
				"type": "occ",
				"energy": -0.24995,
				"method": "rhf"
			},
			{
				"type": "unocc",
				"energy": -0.06561,
				"method": "rhf"
			},
			{
				"type": "unocc",
				"energy": -0.01469,
				"method": "rhf"
			},
			{
				"type": "unocc",
				"energy": 0.04251,
				"method": "rhf"
			},
			{
				"type": "unocc",
				"energy": 0.04641,
				"method": "rhf"
			},
			{
				"type": "unocc",
				"energy": 0.05368,
				"method": "rhf"
			}
		],
		"cosmo_sigma_profile": { 
			"-0.025": 0.0,
			"-0.024": 0.0,
			"-0.023": 0.0,
			"-0.022": 0.0,
			"-0.021": 0.0,
			"-0.02": 0.0,
			"-0.019": 0.38634592302,
			"-0.018": 1.37842494408,
			"-0.017": 0.951488623598,
			"-0.016": 1.38144407502,
			"-0.015": 1.01847891322,
			"-0.014": 1.26302265963,
			"-0.013": 1.39200176036,
			"-0.012": 1.34660922218,
			"-0.011": 2.60503099337,
			"-0.01": 3.68711211857,
			"-0.009": 3.0326964021,
			"-0.008": 3.7051282691,
			"-0.007": 4.44862053772,
			"-0.006": 5.40238834224,
			"-0.005": 3.9355768038,
			"-0.004": 5.90219610805,
			"-0.003": 7.87531750057,
			"-0.002": 13.0297035887,
			"-0.001": 14.7392165248,
			"0.0": 16.2777068778,
			"0.001": 15.5662094659,
			"0.002": 11.7883394597,
			"0.003": 15.2923150203,
			"0.004": 4.89180245581,
			"0.005": 3.74571914951,
			"0.006": 4.01937705846,
			"0.007": 2.73835082979,
			"0.008": 4.55124488804,
			"0.009": 5.25042217191,
			"0.01": 6.92520996835,
			"0.011": 5.77281407685,
			"0.012": 2.98976376707,
			"0.013": 0.674780274424,
			"0.014": 0.0,
			"0.015": 0.0,
			"0.016": 0.0,
			"0.017": 0.0,
			"0.018": 0.0,
			"0.019": 0.0,
			"0.02": 0.0,
			"0.021": 0.0,
			"0.022": 0.0,
			"0.023": 0.0,
			"0.024": 0.0,
			"0.025": 0.0
		}
	}
}
