{
	 "smiles": "CC(C)C[C@H](N)C(=O)NC1=CC=C(C=C1)[N+]([O-])=O", 
	 "Tm": 363.15, 
	 "num_atms": 35, 
	 "gaussian": { 
		 "optdone": 1, 
		 "sigma_profile": "yes", 
		 "theory": "DFT", 
		 "functional": "B3LYP", 
		 "basiset": "6-31G**", 
		 "properties": { 
			 "R2extent": 8665.5724, 
			 "electric_dipole_moment_norm": 5.89695668714, 
			 "electric_quadrupole_moment_norm": 33.2372691622, 
			 "total_energy": -857.381976091, 
			 "HOMO_LUMO_gap": 0.16414, 
			 "cosmo_polarized_energy": -19.32, 
			 "cosmo_cavitation_energy": 38.86, 
			 "cosmo_dispersion_energy": -27.27, 
			 "cosmo_repulsion_energy": 2.12, 
			 "cosmo_total_nonelectrostatic_energy": 13.71, 
			 "SMD_solvation_energy": 8.43 
		},
		"coords": [
			{
				"x": 1.9380330617,
				"y": 1.5429139123,
				"z": 3.9247705776,
				"element": "C" 
			},
			{
				"x": 2.51750026,
				"y": 0.7205554098,
				"z": 2.7641514771,
				"element": "C" 
			},
			{
				"x": 2.8905220639,
				"y": -0.6931564573,
				"z": 3.2338346244,
				"element": "C" 
			},
			{
				"x": 1.5256089511,
				"y": 0.7033913909,
				"z": 1.5851912625,
				"element": "C" 
			},
			{
				"x": 2.0787535334,
				"y": 0.0895606827,
				"z": 0.2770064681,
				"element": "C" 
			},
			{
				"x": 3.2510737195,
				"y": 0.8295057228,
				"z": -0.1717015919,
				"element": "N" 
			},
			{
				"x": 0.955757403,
				"y": 0.0857981438,
				"z": -0.7823455059,
				"element": "C" 
			},
			{
				"x": 0.8492076243,
				"y": 0.984671715,
				"z": -1.6040496018,
				"element": "O" 
			},
			{
				"x": 0.0881131546,
				"y": -0.9880159112,
				"z": -0.6954251008,
				"element": "N" 
			},
			{
				"x": -1.059976848,
				"y": -1.2652650546,
				"z": -1.4519196057,
				"element": "C" 
			},
			{
				"x": -1.5141125743,
				"y": -0.4319938655,
				"z": -2.4914036689,
				"element": "C" 
			},
			{
				"x": -2.6615756584,
				"y": -0.7778208142,
				"z": -3.1954902183,
				"element": "C" 
			},
			{
				"x": -3.3522029201,
				"y": -1.9438179341,
				"z": -2.8690222739,
				"element": "C" 
			},
			{
				"x": -2.916955283,
				"y": -2.7819582117,
				"z": -1.8424443438,
				"element": "C" 
			},
			{
				"x": -1.7730488943,
				"y": -2.4388402252,
				"z": -1.138779607,
				"element": "C" 
			},
			{
				"x": -4.5593951948,
				"y": -2.299625772,
				"z": -3.6168661092,
				"element": "N" 
			},
			{
				"x": -4.9201884055,
				"y": -1.5415040394,
				"z": -4.5180483878,
				"element": "O" 
			},
			{
				"x": -5.1436013518,
				"y": -3.3376763534,
				"z": -3.3000547153,
				"element": "O" 
			},
			{
				"x": 1.013986229,
				"y": 1.0924390332,
				"z": 4.3085781171,
				"element": "H" 
			},
			{
				"x": 1.7039288327,
				"y": 2.5665698265,
				"z": 3.6128396262,
				"element": "H" 
			},
			{
				"x": 2.6469118074,
				"y": 1.6013146406,
				"z": 4.7575175366,
				"element": "H" 
			},
			{
				"x": 3.4300450556,
				"y": 1.2121284998,
				"z": 2.4076571219,
				"element": "H" 
			},
			{
				"x": 2.0016834994,
				"y": -1.2507045366,
				"z": 3.5573799319,
				"element": "H" 
			},
			{
				"x": 3.5779074289,
				"y": -0.6501055979,
				"z": 4.0851346776,
				"element": "H" 
			},
			{
				"x": 3.3874221207,
				"y": -1.271954212,
				"z": 2.4484932964,
				"element": "H" 
			},
			{
				"x": 1.213009677,
				"y": 1.7316545675,
				"z": 1.3586266094,
				"element": "H" 
			},
			{
				"x": 0.6135645873,
				"y": 0.1658283244,
				"z": 1.8819389409,
				"element": "H" 
			},
			{
				"x": 2.3850388003,
				"y": -0.9473491643,
				"z": 0.4686109201,
				"element": "H" 
			},
			{
				"x": 2.9283076799,
				"y": 1.7140092404,
				"z": -0.5631663921,
				"element": "H" 
			},
			{
				"x": 3.6894257451,
				"y": 0.338567937,
				"z": -0.9479101433,
				"element": "H" 
			},
			{
				"x": 0.3002851153,
				"y": -1.6653659336,
				"z": 0.0245491647,
				"element": "H" 
			},
			{
				"x": -0.96413876,
				"y": 0.4667186644,
				"z": -2.7294903043,
				"element": "H" 
			},
			{
				"x": -3.0305700763,
				"y": -0.1526326236,
				"z": -3.9990453139,
				"element": "H" 
			},
			{
				"x": -3.4761249758,
				"y": -3.6803401177,
				"z": -1.6137106583,
				"element": "H" 
			},
			{
				"x": -1.4243954078,
				"y": -3.0842008866,
				"z": -0.33640681,
				"element": "H" 
			}
		],
		 "valence_orbital": [ 
			{
				"type": "occ",
				"energy": -0.28532,
				"method": "rhf"
			},
			{
				"type": "occ",
				"energy": -0.28139,
				"method": "rhf"
			},
			{
				"type": "occ",
				"energy": -0.28011,
				"method": "rhf"
			},
			{
				"type": "occ",
				"energy": -0.25264,
				"method": "rhf"
			},
			{
				"type": "occ",
				"energy": -0.2495,
				"method": "rhf"
			},
			{
				"type": "unocc",
				"energy": -0.08536,
				"method": "rhf"
			},
			{
				"type": "unocc",
				"energy": -0.02841,
				"method": "rhf"
			},
			{
				"type": "unocc",
				"energy": -0.01706,
				"method": "rhf"
			},
			{
				"type": "unocc",
				"energy": 0.03025,
				"method": "rhf"
			},
			{
				"type": "unocc",
				"energy": 0.04302,
				"method": "rhf"
			}
		],
		"cosmo_sigma_profile": { 
			"-0.025": 0.0,
			"-0.024": 0.0,
			"-0.023": 0.0,
			"-0.022": 0.0,
			"-0.021": 0.0,
			"-0.02": 0.0,
			"-0.019": 0.0,
			"-0.018": 0.0,
			"-0.017": 0.0,
			"-0.016": 0.719874114683,
			"-0.015": 1.35177779417,
			"-0.014": 1.65346272148,
			"-0.013": 1.39946473386,
			"-0.012": 1.83178830825,
			"-0.011": 1.74984782789,
			"-0.01": 2.91045819349,
			"-0.009": 3.31294680714,
			"-0.008": 6.1305656599,
			"-0.007": 8.36251468084,
			"-0.006": 11.3033177084,
			"-0.005": 11.2943895488,
			"-0.004": 12.0076390097,
			"-0.003": 18.271098027,
			"-0.002": 28.9126947324,
			"-0.001": 30.7740088521,
			"0.0": 33.8398703178,
			"0.001": 36.4912561408,
			"0.002": 25.0259552179,
			"0.003": 8.64021814998,
			"0.004": 3.5873425099,
			"0.005": 6.89792359894,
			"0.006": 5.67619951922,
			"0.007": 7.51844810832,
			"0.008": 12.0242703463,
			"0.009": 7.26316643111,
			"0.01": 6.26707930571,
			"0.011": 4.03745577044,
			"0.012": 3.58961936592,
			"0.013": 0.631042899288,
			"0.014": 0.663708085314,
			"0.015": 0.648354304687,
			"0.016": 0.48340900262,
			"0.017": 0.146911882712,
			"0.018": 0.0,
			"0.019": 0.0,
			"0.02": 0.0,
			"0.021": 0.0,
			"0.022": 0.0,
			"0.023": 0.0,
			"0.024": 0.0,
			"0.025": 0.0
		}
	}
}
