{
	 "smiles": "OC1=CC=C2C=CC=CC2=C1N=NC1=CC=CC=N1", 
	 "Tm": 413.15, 
	 "num_atms": 30, 
	 "gaussian": { 
		 "optdone": 1, 
		 "sigma_profile": "yes", 
		 "theory": "DFT", 
		 "functional": "B3LYP", 
		 "basiset": "6-31G**", 
		 "properties": { 
			 "R2extent": 5814.9723, 
			 "electric_dipole_moment_norm": 5.12016928431, 
			 "electric_quadrupole_moment_norm": 19.4672195932, 
			 "total_energy": -817.645036706, 
			 "HOMO_LUMO_gap": 0.12784, 
			 "cosmo_polarized_energy": -12.69, 
			 "cosmo_cavitation_energy": 34.34, 
			 "cosmo_dispersion_energy": -24.6, 
			 "cosmo_repulsion_energy": 1.85, 
			 "cosmo_total_nonelectrostatic_energy": 11.59, 
			 "SMD_solvation_energy": 3.87 
		},
		"coords": [
			{
				"x": 2.0280927111,
				"y": -3.0724526261,
				"z": -0.8644093931,
				"element": "O" 
			},
			{
				"x": 1.5097542798,
				"y": -2.1388260668,
				"z": -1.6871871072,
				"element": "C" 
			},
			{
				"x": 2.3515391586,
				"y": -1.7159338858,
				"z": -2.755879304,
				"element": "C" 
			},
			{
				"x": 1.9264118493,
				"y": -0.812936983,
				"z": -3.6924121172,
				"element": "C" 
			},
			{
				"x": 0.6095739833,
				"y": -0.2758416852,
				"z": -3.6427801566,
				"element": "C" 
			},
			{
				"x": 0.143596661,
				"y": 0.6617914238,
				"z": -4.5987531353,
				"element": "C" 
			},
			{
				"x": -1.1490181663,
				"y": 1.138188006,
				"z": -4.5544376411,
				"element": "C" 
			},
			{
				"x": -2.0277738686,
				"y": 0.6870074352,
				"z": -3.5442083235,
				"element": "C" 
			},
			{
				"x": -1.5999224584,
				"y": -0.2115673363,
				"z": -2.5885975977,
				"element": "C" 
			},
			{
				"x": -0.272076876,
				"y": -0.7145115092,
				"z": -2.6063400469,
				"element": "C" 
			},
			{
				"x": 0.2081302865,
				"y": -1.6310380617,
				"z": -1.6087720482,
				"element": "C" 
			},
			{
				"x": -0.8147395715,
				"y": -2.1984968092,
				"z": -0.7776776333,
				"element": "N" 
			},
			{
				"x": -0.8568634979,
				"y": -2.1333643423,
				"z": 0.4660780276,
				"element": "N" 
			},
			{
				"x": 0.1042156792,
				"y": -1.4343012586,
				"z": 1.2742055286,
				"element": "C" 
			},
			{
				"x": -0.3373059702,
				"y": -0.3123895679,
				"z": 1.9880110844,
				"element": "C" 
			},
			{
				"x": 0.5467980231,
				"y": 0.2820008406,
				"z": 2.879131458,
				"element": "C" 
			},
			{
				"x": 1.816454886,
				"y": -0.2781469963,
				"z": 3.0615852022,
				"element": "C" 
			},
			{
				"x": 2.1506116013,
				"y": -1.4072047949,
				"z": 2.3237900829,
				"element": "C" 
			},
			{
				"x": 1.3106581387,
				"y": -1.9760280523,
				"z": 1.4432179666,
				"element": "N" 
			},
			{
				"x": 1.7301645588,
				"y": -2.9054689289,
				"z": 0.0701668407,
				"element": "H" 
			},
			{
				"x": 3.3498032432,
				"y": -2.1401999484,
				"z": -2.7844796371,
				"element": "H" 
			},
			{
				"x": 2.593395478,
				"y": -0.4976057012,
				"z": -4.4904288129,
				"element": "H" 
			},
			{
				"x": 0.828130602,
				"y": 0.995356363,
				"z": -5.3747383397,
				"element": "H" 
			},
			{
				"x": -1.4950900512,
				"y": 1.8539795354,
				"z": -5.2941925659,
				"element": "H" 
			},
			{
				"x": -3.0503479515,
				"y": 1.0529430926,
				"z": -3.5182454554,
				"element": "H" 
			},
			{
				"x": -2.2815628267,
				"y": -0.5512149005,
				"z": -1.8162516232,
				"element": "H" 
			},
			{
				"x": -1.3421928139,
				"y": 0.0639926459,
				"z": 1.8328640238,
				"element": "H" 
			},
			{
				"x": 0.2489751063,
				"y": 1.1653637644,
				"z": 3.4360791093,
				"element": "H" 
			},
			{
				"x": 2.52693745,
				"y": 0.1492615324,
				"z": 3.7605010257,
				"element": "H" 
			},
			{
				"x": 3.1229503561,
				"y": -1.8818551847,
				"z": 2.4271605887,
				"element": "H" 
			}
		],
		 "valence_orbital": [ 
			{
				"type": "occ",
				"energy": -0.28845,
				"method": "rhf"
			},
			{
				"type": "occ",
				"energy": -0.26949,
				"method": "rhf"
			},
			{
				"type": "occ",
				"energy": -0.23468,
				"method": "rhf"
			},
			{
				"type": "occ",
				"energy": -0.22608,
				"method": "rhf"
			},
			{
				"type": "occ",
				"energy": -0.20075,
				"method": "rhf"
			},
			{
				"type": "unocc",
				"energy": -0.07291,
				"method": "rhf"
			},
			{
				"type": "unocc",
				"energy": -0.05037,
				"method": "rhf"
			},
			{
				"type": "unocc",
				"energy": -0.03522,
				"method": "rhf"
			},
			{
				"type": "unocc",
				"energy": -0.02013,
				"method": "rhf"
			},
			{
				"type": "unocc",
				"energy": 0.00036,
				"method": "rhf"
			}
		],
		"cosmo_sigma_profile": { 
			"-0.025": 0.0,
			"-0.024": 0.0,
			"-0.023": 0.0,
			"-0.022": 0.0,
			"-0.021": 0.0,
			"-0.02": 0.0,
			"-0.019": 0.0,
			"-0.018": 0.0,
			"-0.017": 0.0,
			"-0.016": 0.0,
			"-0.015": 0.0,
			"-0.014": 0.0,
			"-0.013": 0.0,
			"-0.012": 0.0,
			"-0.011": 0.0,
			"-0.01": 0.0,
			"-0.009": 0.1778175125,
			"-0.008": 6.64561714815,
			"-0.007": 11.6123436897,
			"-0.006": 19.2698775293,
			"-0.005": 18.6759772801,
			"-0.004": 20.3401863698,
			"-0.003": 16.8313434996,
			"-0.002": 15.4144695018,
			"-0.001": 16.2472064104,
			"0.0": 23.4580794368,
			"0.001": 25.739457117,
			"0.002": 20.0019517063,
			"0.003": 22.009467234,
			"0.004": 21.4690807287,
			"0.005": 13.8073962071,
			"0.006": 4.51237009991,
			"0.007": 2.70585807175,
			"0.008": 3.10302307175,
			"0.009": 3.58997798247,
			"0.01": 3.91205429636,
			"0.011": 3.07891826552,
			"0.012": 3.80685592156,
			"0.013": 0.985852534476,
			"0.014": 0.0,
			"0.015": 0.0,
			"0.016": 0.0,
			"0.017": 0.0,
			"0.018": 0.0,
			"0.019": 0.0,
			"0.02": 0.0,
			"0.021": 0.0,
			"0.022": 0.0,
			"0.023": 0.0,
			"0.024": 0.0,
			"0.025": 0.0
		}
	}
}
