{
	 "smiles": "O=C1CCC2SCCSC12", 
	 "Tm": 355.15, 
	 "num_atms": 20, 
	 "gaussian": { 
		 "optdone": 1, 
		 "sigma_profile": "yes", 
		 "theory": "DFT", 
		 "functional": "B3LYP", 
		 "basiset": "6-31G**", 
		 "properties": { 
			 "R2extent": 2324.6367, 
			 "electric_dipole_moment_norm": 3.91358858466, 
			 "electric_quadrupole_moment_norm": 15.940462705, 
			 "total_energy": -1144.35952994, 
			 "HOMO_LUMO_gap": 0.19477, 
			 "cosmo_polarized_energy": -13.47, 
			 "cosmo_cavitation_energy": 24.12, 
			 "cosmo_dispersion_energy": -19.19, 
			 "cosmo_repulsion_energy": 1.46, 
			 "cosmo_total_nonelectrostatic_energy": 6.39, 
			 "SMD_solvation_energy": 3.14 
		},
		"coords": [
			{
				"x": 1.1985285606,
				"y": 0.932222059,
				"z": -3.3315597556,
				"element": "O" 
			},
			{
				"x": 1.580142306,
				"y": 1.1674175394,
				"z": -2.2093923191,
				"element": "C" 
			},
			{
				"x": 3.0184273709,
				"y": 1.4606545988,
				"z": -1.7796967954,
				"element": "C" 
			},
			{
				"x": 2.9130809036,
				"y": 1.8997559537,
				"z": -0.3106386332,
				"element": "C" 
			},
			{
				"x": 1.6404014899,
				"y": 1.2000229506,
				"z": 0.2373388357,
				"element": "C" 
			},
			{
				"x": 2.113596155,
				"y": -0.5063069242,
				"z": 0.7533842339,
				"element": "S" 
			},
			{
				"x": 0.4779226199,
				"y": -1.252892941,
				"z": 1.1964395907,
				"element": "C" 
			},
			{
				"x": -0.7343136971,
				"y": -0.4446061799,
				"z": 0.7355280109,
				"element": "C" 
			},
			{
				"x": -0.6901973344,
				"y": 0.013628696,
				"z": -1.0369648045,
				"element": "S" 
			},
			{
				"x": 0.6761524422,
				"y": 1.2468047158,
				"z": -0.9652355145,
				"element": "C" 
			},
			{
				"x": 3.4789297904,
				"y": 2.197584689,
				"z": -2.4432892891,
				"element": "H" 
			},
			{
				"x": 3.5850931766,
				"y": 0.5281860883,
				"z": -1.8837634218,
				"element": "H" 
			},
			{
				"x": 3.8001927641,
				"y": 1.662018356,
				"z": 0.2820206186,
				"element": "H" 
			},
			{
				"x": 2.761748797,
				"y": 2.983716669,
				"z": -0.2480009283,
				"element": "H" 
			},
			{
				"x": 1.2408806207,
				"y": 1.733345439,
				"z": 1.1024609625,
				"element": "H" 
			},
			{
				"x": 0.4661161356,
				"y": -2.2403835793,
				"z": 0.7285745051,
				"element": "H" 
			},
			{
				"x": 0.4411758303,
				"y": -1.3813166,
				"z": 2.2832230226,
				"element": "H" 
			},
			{
				"x": -0.8744019204,
				"y": 0.4514025121,
				"z": 1.3471538723,
				"element": "H" 
			},
			{
				"x": -1.6364819045,
				"y": -1.053685778,
				"z": 0.850226722,
				"element": "H" 
			},
			{
				"x": 0.2234058936,
				"y": 2.2499317358,
				"z": -0.9872089128,
				"element": "H" 
			}
		],
		 "valence_orbital": [ 
			{
				"type": "occ",
				"energy": -0.31663,
				"method": "rhf"
			},
			{
				"type": "occ",
				"energy": -0.31344,
				"method": "rhf"
			},
			{
				"type": "occ",
				"energy": -0.25324,
				"method": "rhf"
			},
			{
				"type": "occ",
				"energy": -0.23188,
				"method": "rhf"
			},
			{
				"type": "occ",
				"energy": -0.22203,
				"method": "rhf"
			},
			{
				"type": "unocc",
				"energy": -0.02726,
				"method": "rhf"
			},
			{
				"type": "unocc",
				"energy": 0.0226,
				"method": "rhf"
			},
			{
				"type": "unocc",
				"energy": 0.03261,
				"method": "rhf"
			},
			{
				"type": "unocc",
				"energy": 0.04734,
				"method": "rhf"
			},
			{
				"type": "unocc",
				"energy": 0.07045,
				"method": "rhf"
			}
		],
		"cosmo_sigma_profile": { 
			"-0.025": 0.0,
			"-0.024": 0.0,
			"-0.023": 0.0,
			"-0.022": 0.0,
			"-0.021": 0.0,
			"-0.02": 0.0,
			"-0.019": 0.0,
			"-0.018": 0.0,
			"-0.017": 0.0,
			"-0.016": 0.0,
			"-0.015": 0.0,
			"-0.014": 0.0,
			"-0.013": 0.0,
			"-0.012": 0.0,
			"-0.011": 0.0,
			"-0.01": 0.0,
			"-0.009": 0.345322465434,
			"-0.008": 3.33253656967,
			"-0.007": 8.57027035717,
			"-0.006": 17.4015536,
			"-0.005": 21.8861106871,
			"-0.004": 19.6954670672,
			"-0.003": 18.3424640901,
			"-0.002": 15.5729955326,
			"-0.001": 9.14506876866,
			"0.0": 5.30551720583,
			"0.001": 5.44156148356,
			"0.002": 4.42912252014,
			"0.003": 4.69085346455,
			"0.004": 6.67392130763,
			"0.005": 7.62114876089,
			"0.006": 8.02277532513,
			"0.007": 6.52705136155,
			"0.008": 6.51960637774,
			"0.009": 7.83111197464,
			"0.01": 6.00470123991,
			"0.011": 5.76158354919,
			"0.012": 3.18798573522,
			"0.013": 0.328068094971,
			"0.014": 0.0,
			"0.015": 0.0,
			"0.016": 0.0,
			"0.017": 0.0,
			"0.018": 0.0,
			"0.019": 0.0,
			"0.02": 0.0,
			"0.021": 0.0,
			"0.022": 0.0,
			"0.023": 0.0,
			"0.024": 0.0,
			"0.025": 0.0
		}
	}
}
