{
	 "smiles": "O=C(CC1=CC=CC=C1)C1=NC2=C(S1)C=CC=C2", 
	 "Tm": 384.15, 
	 "num_atms": 29, 
	 "gaussian": { 
		 "optdone": 1, 
		 "sigma_profile": "yes", 
		 "theory": "DFT", 
		 "functional": "B3LYP", 
		 "basiset": "6-31G**", 
		 "properties": { 
			 "R2extent": 7160.6765, 
			 "electric_dipole_moment_norm": 2.99252450115, 
			 "electric_quadrupole_moment_norm": 14.252199879, 
			 "total_energy": -1106.39830725, 
			 "HOMO_LUMO_gap": 0.15277, 
			 "cosmo_polarized_energy": -9.33, 
			 "cosmo_cavitation_energy": 35.61, 
			 "cosmo_dispersion_energy": -25.6, 
			 "cosmo_repulsion_energy": 1.92, 
			 "cosmo_total_nonelectrostatic_energy": 11.93, 
			 "SMD_solvation_energy": 4.73 
		},
		"coords": [
			{
				"x": -1.7068145983,
				"y": 1.5221204114,
				"z": 0.8282828413,
				"element": "O" 
			},
			{
				"x": -0.651444392,
				"y": 1.138606443,
				"z": 0.3513620802,
				"element": "C" 
			},
			{
				"x": -0.5511409853,
				"y": -0.0737746829,
				"z": -0.5667005099,
				"element": "C" 
			},
			{
				"x": -0.3510490414,
				"y": -1.3421535158,
				"z": 0.2503079493,
				"element": "C" 
			},
			{
				"x": 0.9122702753,
				"y": -1.9362757175,
				"z": 0.3556855765,
				"element": "C" 
			},
			{
				"x": 1.0882797821,
				"y": -3.0955663255,
				"z": 1.1132149142,
				"element": "C" 
			},
			{
				"x": 0.0046505886,
				"y": -3.6693649943,
				"z": 1.7801047847,
				"element": "C" 
			},
			{
				"x": -1.2564369151,
				"y": -3.0758984412,
				"z": 1.688428543,
				"element": "C" 
			},
			{
				"x": -1.4325652225,
				"y": -1.9184458003,
				"z": 0.9303625483,
				"element": "C" 
			},
			{
				"x": 0.6145456184,
				"y": 1.8455136565,
				"z": 0.6930378967,
				"element": "C" 
			},
			{
				"x": 1.784702359,
				"y": 1.5617159293,
				"z": 0.2034230906,
				"element": "N" 
			},
			{
				"x": 2.7494875305,
				"y": 2.4056486064,
				"z": 0.7145748405,
				"element": "C" 
			},
			{
				"x": 2.2712622215,
				"y": 3.3758400144,
				"z": 1.6356683098,
				"element": "C" 
			},
			{
				"x": 0.5461153642,
				"y": 3.1931190955,
				"z": 1.8416332931,
				"element": "S" 
			},
			{
				"x": 3.1419362818,
				"y": 4.2961504834,
				"z": 2.2298357392,
				"element": "C" 
			},
			{
				"x": 4.4898649408,
				"y": 4.2342617715,
				"z": 1.8934626007,
				"element": "C" 
			},
			{
				"x": 4.9739001256,
				"y": 3.275974174,
				"z": 0.9807549778,
				"element": "C" 
			},
			{
				"x": 4.1161354365,
				"y": 2.361836065,
				"z": 0.3883606073,
				"element": "C" 
			},
			{
				"x": -1.4916703972,
				"y": -0.1241295888,
				"z": -1.1225182826,
				"element": "H" 
			},
			{
				"x": 0.276931023,
				"y": 0.059351641,
				"z": -1.2655697199,
				"element": "H" 
			},
			{
				"x": 1.7580298977,
				"y": -1.4821273221,
				"z": -0.1525586289,
				"element": "H" 
			},
			{
				"x": 2.072919335,
				"y": -3.5495741278,
				"z": 1.1820520493,
				"element": "H" 
			},
			{
				"x": 0.1413289237,
				"y": -4.5724448225,
				"z": 2.3680885105,
				"element": "H" 
			},
			{
				"x": -2.1043529632,
				"y": -3.5148592963,
				"z": 2.2066515329,
				"element": "H" 
			},
			{
				"x": -2.4121159456,
				"y": -1.4525885295,
				"z": 0.8658330888,
				"element": "H" 
			},
			{
				"x": 2.7784613023,
				"y": 5.0379107659,
				"z": 2.9335105145,
				"element": "H" 
			},
			{
				"x": 5.1823716261,
				"y": 4.939226238,
				"z": 2.3436703566,
				"element": "H" 
			},
			{
				"x": 6.0324329545,
				"y": 3.2561434333,
				"z": 0.7406609471,
				"element": "H" 
			},
			{
				"x": 4.4702648741,
				"y": 1.6171844357,
				"z": -0.3167204516,
				"element": "H" 
			}
		],
		 "valence_orbital": [ 
			{
				"type": "occ",
				"energy": -0.26998,
				"method": "rhf"
			},
			{
				"type": "occ",
				"energy": -0.2527,
				"method": "rhf"
			},
			{
				"type": "occ",
				"energy": -0.24786,
				"method": "rhf"
			},
			{
				"type": "occ",
				"energy": -0.24495,
				"method": "rhf"
			},
			{
				"type": "occ",
				"energy": -0.23766,
				"method": "rhf"
			},
			{
				"type": "unocc",
				"energy": -0.08489,
				"method": "rhf"
			},
			{
				"type": "unocc",
				"energy": -0.0167,
				"method": "rhf"
			},
			{
				"type": "unocc",
				"energy": -0.00712,
				"method": "rhf"
			},
			{
				"type": "unocc",
				"energy": -0.00036,
				"method": "rhf"
			},
			{
				"type": "unocc",
				"energy": 0.00733,
				"method": "rhf"
			}
		],
		"cosmo_sigma_profile": { 
			"-0.025": 0.0,
			"-0.024": 0.0,
			"-0.023": 0.0,
			"-0.022": 0.0,
			"-0.021": 0.0,
			"-0.02": 0.0,
			"-0.019": 0.0,
			"-0.018": 0.0,
			"-0.017": 0.0,
			"-0.016": 0.0,
			"-0.015": 0.0,
			"-0.014": 0.0,
			"-0.013": 0.0,
			"-0.012": 0.0,
			"-0.011": 0.0,
			"-0.01": 0.0,
			"-0.009": 0.0,
			"-0.008": 1.0779910206,
			"-0.007": 6.13113690177,
			"-0.006": 15.0822244831,
			"-0.005": 22.8006725808,
			"-0.004": 26.4537772568,
			"-0.003": 22.3609058931,
			"-0.002": 19.3808103885,
			"-0.001": 19.2248078221,
			"0.0": 20.0773222354,
			"0.001": 25.8530057598,
			"0.002": 27.7769028956,
			"0.003": 27.9644094191,
			"0.004": 19.2653605169,
			"0.005": 12.2130679599,
			"0.006": 8.09770257797,
			"0.007": 2.48082393976,
			"0.008": 2.60704138897,
			"0.009": 2.94020890322,
			"0.01": 3.49313579997,
			"0.011": 2.64458184954,
			"0.012": 0.601960196973,
			"0.013": 0.0,
			"0.014": 0.0,
			"0.015": 0.0,
			"0.016": 0.0,
			"0.017": 0.0,
			"0.018": 0.0,
			"0.019": 0.0,
			"0.02": 0.0,
			"0.021": 0.0,
			"0.022": 0.0,
			"0.023": 0.0,
			"0.024": 0.0,
			"0.025": 0.0
		}
	}
}
