{
	 "smiles": "CCCCN1CC2=C(C1)C=C(N)C=C2", 
	 "Tm": 336.15, 
	 "num_atms": 32, 
	 "gaussian": { 
		 "optdone": 1, 
		 "sigma_profile": "yes", 
		 "theory": "DFT", 
		 "functional": "B3LYP", 
		 "basiset": "6-31G**", 
		 "properties": { 
			 "R2extent": 4755.5018, 
			 "electric_dipole_moment_norm": 2.08669778837, 
			 "electric_quadrupole_moment_norm": 13.9538901773, 
			 "total_energy": -577.629538605, 
			 "HOMO_LUMO_gap": 0.19817, 
			 "cosmo_polarized_energy": -9.13, 
			 "cosmo_cavitation_energy": 33.19, 
			 "cosmo_dispersion_energy": -24.05, 
			 "cosmo_repulsion_energy": 1.94, 
			 "cosmo_total_nonelectrostatic_energy": 11.08, 
			 "SMD_solvation_energy": 3.21 
		},
		"coords": [
			{
				"x": 0.7966757158,
				"y": -2.9257339611,
				"z": 3.5360972777,
				"element": "C" 
			},
			{
				"x": 0.0118919259,
				"y": -1.7222392497,
				"z": 3.0055795689,
				"element": "C" 
			},
			{
				"x": -0.4056030457,
				"y": -1.8740457645,
				"z": 1.5380992883,
				"element": "C" 
			},
			{
				"x": -1.1448496889,
				"y": -0.651585933,
				"z": 0.9777348422,
				"element": "C" 
			},
			{
				"x": -0.3116433841,
				"y": 0.5604303836,
				"z": 0.9720621676,
				"element": "N" 
			},
			{
				"x": 0.640194881,
				"y": 0.5856641749,
				"z": -0.1676815032,
				"element": "C" 
			},
			{
				"x": 0.0137552544,
				"y": 1.5146188651,
				"z": -1.1881381446,
				"element": "C" 
			},
			{
				"x": -1.0116188856,
				"y": 2.2381225536,
				"z": -0.5759749869,
				"element": "C" 
			},
			{
				"x": -1.0972594865,
				"y": 1.8134156652,
				"z": 0.8763773978,
				"element": "C" 
			},
			{
				"x": -1.7426130785,
				"y": 3.1926214402,
				"z": -1.27247054,
				"element": "C" 
			},
			{
				"x": -1.4490844681,
				"y": 3.4275374315,
				"z": -2.629053935,
				"element": "C" 
			},
			{
				"x": -2.2167216831,
				"y": 4.3300694166,
				"z": -3.3747737488,
				"element": "N" 
			},
			{
				"x": -0.414333235,
				"y": 2.6962120597,
				"z": -3.2427887568,
				"element": "C" 
			},
			{
				"x": 0.3171388702,
				"y": 1.7470133614,
				"z": -2.5271523519,
				"element": "C" 
			},
			{
				"x": 1.075576982,
				"y": -2.7906305785,
				"z": 4.586525446,
				"element": "H" 
			},
			{
				"x": 0.2102372432,
				"y": -3.8495293646,
				"z": 3.4651182741,
				"element": "H" 
			},
			{
				"x": 1.7203742129,
				"y": -3.079309267,
				"z": 2.9658391391,
				"element": "H" 
			},
			{
				"x": -0.8870264628,
				"y": -1.5710783309,
				"z": 3.6197901983,
				"element": "H" 
			},
			{
				"x": 0.6063391954,
				"y": -0.807621997,
				"z": 3.1060821987,
				"element": "H" 
			},
			{
				"x": -1.0599945662,
				"y": -2.7496322497,
				"z": 1.424336113,
				"element": "H" 
			},
			{
				"x": 0.4826945815,
				"y": -2.0841866454,
				"z": 0.9263144751,
				"element": "H" 
			},
			{
				"x": -2.0115601936,
				"y": -0.4522818462,
				"z": 1.618951599,
				"element": "H" 
			},
			{
				"x": -1.5432503522,
				"y": -0.8879226782,
				"z": -0.0271087133,
				"element": "H" 
			},
			{
				"x": 1.6175639088,
				"y": 0.9658810899,
				"z": 0.1663450425,
				"element": "H" 
			},
			{
				"x": 0.8111130075,
				"y": -0.4266045987,
				"z": -0.549631026,
				"element": "H" 
			},
			{
				"x": -0.6533912254,
				"y": 2.5844447465,
				"z": 1.5254303436,
				"element": "H" 
			},
			{
				"x": -2.1229226469,
				"y": 1.6570338582,
				"z": 1.2268454595,
				"element": "H" 
			},
			{
				"x": -2.542485645,
				"y": 3.7508998497,
				"z": -0.789837858,
				"element": "H" 
			},
			{
				"x": -1.7513784237,
				"y": 4.7106248965,
				"z": -4.1876708297,
				"element": "H" 
			},
			{
				"x": -2.662209225,
				"y": 5.0566041997,
				"z": -2.8306986312,
				"element": "H" 
			},
			{
				"x": -0.1930399524,
				"y": 2.8715253978,
				"z": -4.2929843196,
				"element": "H" 
			},
			{
				"x": 1.11372987,
				"y": 1.1991830745,
				"z": -3.0250634861,
				"element": "H" 
			}
		],
		 "valence_orbital": [ 
			{
				"type": "occ",
				"energy": -0.31328,
				"method": "rhf"
			},
			{
				"type": "occ",
				"energy": -0.29101,
				"method": "rhf"
			},
			{
				"type": "occ",
				"energy": -0.23673,
				"method": "rhf"
			},
			{
				"type": "occ",
				"energy": -0.20358,
				"method": "rhf"
			},
			{
				"type": "occ",
				"energy": -0.19337,
				"method": "rhf"
			},
			{
				"type": "unocc",
				"energy": 0.0048,
				"method": "rhf"
			},
			{
				"type": "unocc",
				"energy": 0.02476,
				"method": "rhf"
			},
			{
				"type": "unocc",
				"energy": 0.084,
				"method": "rhf"
			},
			{
				"type": "unocc",
				"energy": 0.09798,
				"method": "rhf"
			},
			{
				"type": "unocc",
				"energy": 0.11303,
				"method": "rhf"
			}
		],
		"cosmo_sigma_profile": { 
			"-0.025": 0.0,
			"-0.024": 0.0,
			"-0.023": 0.0,
			"-0.022": 0.0,
			"-0.021": 0.0,
			"-0.02": 0.0,
			"-0.019": 0.0,
			"-0.018": 0.0,
			"-0.017": 0.0,
			"-0.016": 0.0,
			"-0.015": 0.0,
			"-0.014": 0.0,
			"-0.013": 0.0,
			"-0.012": 1.67486606922,
			"-0.011": 2.79733370541,
			"-0.01": 2.88128570016,
			"-0.009": 2.20561553412,
			"-0.008": 3.37801213138,
			"-0.007": 3.16013882622,
			"-0.006": 3.62858534774,
			"-0.005": 7.62776117497,
			"-0.004": 13.0197942062,
			"-0.003": 19.8626654355,
			"-0.002": 30.1003864851,
			"-0.001": 36.329097885,
			"0.0": 30.3403523652,
			"0.001": 27.0007362308,
			"0.002": 19.1893108688,
			"0.003": 8.20695574423,
			"0.004": 7.75535761797,
			"0.005": 7.77789783688,
			"0.006": 9.5043848017,
			"0.007": 9.14403975905,
			"0.008": 3.59682081581,
			"0.009": 2.36235162346,
			"0.01": 1.66204349361,
			"0.011": 1.67767847839,
			"0.012": 0.781775532561,
			"0.013": 1.35041745308,
			"0.014": 1.01880638104,
			"0.015": 0.42392644161,
			"0.016": 0.122774563931,
			"0.017": 0.0,
			"0.018": 0.0,
			"0.019": 0.0,
			"0.02": 0.0,
			"0.021": 0.0,
			"0.022": 0.0,
			"0.023": 0.0,
			"0.024": 0.0,
			"0.025": 0.0
		}
	}
}
