{
	 "smiles": "CC1NCCN2C1=CC=C2C(=O)NC1CC1", 
	 "Tm": 402.15, 
	 "num_atms": 33, 
	 "gaussian": { 
		 "optdone": 1, 
		 "sigma_profile": "yes", 
		 "theory": "DFT", 
		 "functional": "B3LYP", 
		 "basiset": "6-31G**", 
		 "properties": { 
			 "R2extent": 4997.0076, 
			 "electric_dipole_moment_norm": 2.69280479426, 
			 "electric_quadrupole_moment_norm": 15.0507965088, 
			 "total_energy": -706.973730796, 
			 "HOMO_LUMO_gap": 0.19539, 
			 "cosmo_polarized_energy": -13.49, 
			 "cosmo_cavitation_energy": 34.02, 
			 "cosmo_dispersion_energy": -24.87, 
			 "cosmo_repulsion_energy": 1.93, 
			 "cosmo_total_nonelectrostatic_energy": 11.07, 
			 "SMD_solvation_energy": 2.7 
		},
		"coords": [
			{
				"x": -3.9253721006,
				"y": 2.9813616662,
				"z": 0.5929918402,
				"element": "C" 
			},
			{
				"x": -3.253724651,
				"y": 1.6053718322,
				"z": 0.6297171096,
				"element": "C" 
			},
			{
				"x": -2.9989143844,
				"y": 1.2157605098,
				"z": 2.0210247394,
				"element": "N" 
			},
			{
				"x": -2.2506345326,
				"y": -0.0361597887,
				"z": 2.0935235668,
				"element": "C" 
			},
			{
				"x": -0.8245632505,
				"y": 0.2111081546,
				"z": 1.6138355376,
				"element": "C" 
			},
			{
				"x": -0.8606358371,
				"y": 0.8938073709,
				"z": 0.3136266079,
				"element": "N" 
			},
			{
				"x": -1.9527016125,
				"y": 1.5876023277,
				"z": -0.1362823463,
				"element": "C" 
			},
			{
				"x": -1.6377339288,
				"y": 2.1460111227,
				"z": -1.3683137948,
				"element": "C" 
			},
			{
				"x": -0.3131111887,
				"y": 1.7794813403,
				"z": -1.6708561153,
				"element": "C" 
			},
			{
				"x": 0.1707981076,
				"y": 1.0043460704,
				"z": -0.6181499962,
				"element": "C" 
			},
			{
				"x": 1.4938984218,
				"y": 0.4239450433,
				"z": -0.3513084779,
				"element": "C" 
			},
			{
				"x": 1.8279207736,
				"y": 0.0285308542,
				"z": 0.7716401527,
				"element": "O" 
			},
			{
				"x": 2.4092293357,
				"y": 0.324345301,
				"z": -1.3836915319,
				"element": "N" 
			},
			{
				"x": 2.1858430955,
				"y": 0.3625879248,
				"z": -2.8018142143,
				"element": "C" 
			},
			{
				"x": 2.5617818594,
				"y": 1.5949083528,
				"z": -3.5986889292,
				"element": "C" 
			},
			{
				"x": 3.4055516079,
				"y": 0.3463023458,
				"z": -3.6812959254,
				"element": "C" 
			},
			{
				"x": -4.8712339801,
				"y": 2.9554228649,
				"z": 1.1460497601,
				"element": "H" 
			},
			{
				"x": -4.1500288846,
				"y": 3.28410139,
				"z": -0.4333937908,
				"element": "H" 
			},
			{
				"x": -3.275746686,
				"y": 3.7319824673,
				"z": 1.0499294268,
				"element": "H" 
			},
			{
				"x": -3.9351386007,
				"y": 0.880325055,
				"z": 0.1370941505,
				"element": "H" 
			},
			{
				"x": -3.8882359063,
				"y": 1.1240658629,
				"z": 2.5044785396,
				"element": "H" 
			},
			{
				"x": -2.7077856928,
				"y": -0.8467537923,
				"z": 1.4938627217,
				"element": "H" 
			},
			{
				"x": -2.2136518868,
				"y": -0.3763020723,
				"z": 3.1330605326,
				"element": "H" 
			},
			{
				"x": -0.2839307544,
				"y": 0.8363493621,
				"z": 2.329654185,
				"element": "H" 
			},
			{
				"x": -0.2700108964,
				"y": -0.7205715915,
				"z": 1.5110695176,
				"element": "H" 
			},
			{
				"x": -2.2968193612,
				"y": 2.7479627752,
				"z": -1.9776862218,
				"element": "H" 
			},
			{
				"x": 0.2476499459,
				"y": 2.0698061174,
				"z": -2.5443425546,
				"element": "H" 
			},
			{
				"x": 3.2324004901,
				"y": -0.1724245514,
				"z": -1.0665097062,
				"element": "H" 
			},
			{
				"x": 1.3175339421,
				"y": -0.1961900136,
				"z": -3.1472277565,
				"element": "H" 
			},
			{
				"x": 1.9473245363,
				"y": 1.862136223,
				"z": -4.4538811148,
				"element": "H" 
			},
			{
				"x": 2.9623060344,
				"y": 2.4345922467,
				"z": -3.0399966092,
				"element": "H" 
			},
			{
				"x": 4.3756165619,
				"y": 0.3650543047,
				"z": -3.1919226037,
				"element": "H" 
			},
			{
				"x": 3.3741194233,
				"y": -0.2508670761,
				"z": -4.5869966996,
				"element": "H" 
			}
		],
		 "valence_orbital": [ 
			{
				"type": "occ",
				"energy": -0.24275,
				"method": "rhf"
			},
			{
				"type": "occ",
				"energy": -0.23495,
				"method": "rhf"
			},
			{
				"type": "occ",
				"energy": -0.2321,
				"method": "rhf"
			},
			{
				"type": "occ",
				"energy": -0.22807,
				"method": "rhf"
			},
			{
				"type": "occ",
				"energy": -0.20226,
				"method": "rhf"
			},
			{
				"type": "unocc",
				"energy": -0.00687,
				"method": "rhf"
			},
			{
				"type": "unocc",
				"energy": 0.06058,
				"method": "rhf"
			},
			{
				"type": "unocc",
				"energy": 0.08531,
				"method": "rhf"
			},
			{
				"type": "unocc",
				"energy": 0.09021,
				"method": "rhf"
			},
			{
				"type": "unocc",
				"energy": 0.09785,
				"method": "rhf"
			}
		],
		"cosmo_sigma_profile": { 
			"-0.025": 0.0,
			"-0.024": 0.0,
			"-0.023": 0.0,
			"-0.022": 0.0,
			"-0.021": 0.0,
			"-0.02": 0.0,
			"-0.019": 0.0,
			"-0.018": 0.0,
			"-0.017": 0.0,
			"-0.016": 0.0,
			"-0.015": 0.0,
			"-0.014": 0.0,
			"-0.013": 0.103468194986,
			"-0.012": 0.702463383949,
			"-0.011": 1.54125566821,
			"-0.01": 1.7657896331,
			"-0.009": 2.12698017976,
			"-0.008": 2.70925901046,
			"-0.007": 3.35602167736,
			"-0.006": 4.64074418745,
			"-0.005": 16.9123207698,
			"-0.004": 27.2619053919,
			"-0.003": 32.0084530269,
			"-0.002": 29.192622146,
			"-0.001": 24.9001626706,
			"0.0": 20.1803827645,
			"0.001": 18.3124401989,
			"0.002": 13.8479053111,
			"0.003": 11.8611668576,
			"0.004": 11.4578066522,
			"0.005": 9.61180042574,
			"0.006": 6.64003557924,
			"0.007": 5.94016073137,
			"0.008": 3.65574656013,
			"0.009": 1.96115197873,
			"0.01": 2.10015605201,
			"0.011": 1.97238014807,
			"0.012": 2.21268551968,
			"0.013": 2.08697395379,
			"0.014": 4.02265800716,
			"0.015": 2.75713514465,
			"0.016": 0.488548484541,
			"0.017": 0.16655813987,
			"0.018": 0.0,
			"0.019": 0.0,
			"0.02": 0.0,
			"0.021": 0.0,
			"0.022": 0.0,
			"0.023": 0.0,
			"0.024": 0.0,
			"0.025": 0.0
		}
	}
}
