{
	 "smiles": "CC1=CC=CC(C)=C1NC(=O)C1=C(O)C=C(Cl)C(=C1)S(N)(=O)=O", 
	 "Tm": 529.15, 
	 "num_atms": 38, 
	 "gaussian": { 
		 "optdone": 1, 
		 "sigma_profile": "yes", 
		 "theory": "DFT", 
		 "functional": "B3LYP", 
		 "basiset": "6-31G**", 
		 "properties": { 
			 "R2extent": 9884.6866, 
			 "electric_dipole_moment_norm": 5.08987047772, 
			 "electric_quadrupole_moment_norm": 32.038468189, 
			 "total_energy": -1849.35571143, 
			 "HOMO_LUMO_gap": 0.18626, 
			 "cosmo_polarized_energy": -28.59, 
			 "cosmo_cavitation_energy": 44.33, 
			 "cosmo_dispersion_energy": -30.41, 
			 "cosmo_repulsion_energy": 2.29, 
			 "cosmo_total_nonelectrostatic_energy": 16.21, 
			 "SMD_solvation_energy": 8.22 
		},
		"coords": [
			{
				"x": 1.8824837596,
				"y": 0.8663104861,
				"z": 3.755536556,
				"element": "C" 
			},
			{
				"x": 1.1963660798,
				"y": 1.6097374845,
				"z": 2.6360234471,
				"element": "C" 
			},
			{
				"x": 0.5682242996,
				"y": 2.8346212368,
				"z": 2.871402215,
				"element": "C" 
			},
			{
				"x": -0.0681488205,
				"y": 3.5221942314,
				"z": 1.8377830018,
				"element": "C" 
			},
			{
				"x": -0.0535480298,
				"y": 3.0002405458,
				"z": 0.5485912024,
				"element": "C" 
			},
			{
				"x": 0.5834029684,
				"y": 1.7840345028,
				"z": 0.2614322635,
				"element": "C" 
			},
			{
				"x": 0.644347103,
				"y": 1.2994097794,
				"z": -1.1680070548,
				"element": "C" 
			},
			{
				"x": 1.1777030088,
				"y": 1.0800107356,
				"z": 1.3273700105,
				"element": "C" 
			},
			{
				"x": 1.8589158113,
				"y": -0.1558843723,
				"z": 1.1030321021,
				"element": "N" 
			},
			{
				"x": 1.4199485384,
				"y": -1.3525852113,
				"z": 0.5884344146,
				"element": "C" 
			},
			{
				"x": 2.2199489865,
				"y": -2.2274599384,
				"z": 0.2733809121,
				"element": "O" 
			},
			{
				"x": -0.0566605145,
				"y": -1.5799946308,
				"z": 0.3875534661,
				"element": "C" 
			},
			{
				"x": -1.0505200768,
				"y": -1.3595890625,
				"z": 1.3561899354,
				"element": "C" 
			},
			{
				"x": -0.6822455111,
				"y": -0.8904073996,
				"z": 2.574118807,
				"element": "O" 
			},
			{
				"x": -2.3879343046,
				"y": -1.6618684017,
				"z": 1.0709838414,
				"element": "C" 
			},
			{
				"x": -2.7450776066,
				"y": -2.2072112048,
				"z": -0.1565775784,
				"element": "C" 
			},
			{
				"x": -4.4362378146,
				"y": -2.5333988619,
				"z": -0.4358036951,
				"element": "Cl" 
			},
			{
				"x": -1.7588920828,
				"y": -2.4852424868,
				"z": -1.1184853681,
				"element": "C" 
			},
			{
				"x": -0.432442017,
				"y": -2.1794703925,
				"z": -0.8182907263,
				"element": "C" 
			},
			{
				"x": -2.2023294128,
				"y": -3.2198742918,
				"z": -2.7034279134,
				"element": "S" 
			},
			{
				"x": -0.6954072349,
				"y": -3.4069749191,
				"z": -3.4440867905,
				"element": "N" 
			},
			{
				"x": -2.9371056302,
				"y": -2.2222777399,
				"z": -3.4841253611,
				"element": "O" 
			},
			{
				"x": -2.7451555577,
				"y": -4.5557514146,
				"z": -2.4524410667,
				"element": "O" 
			},
			{
				"x": 1.5216398775,
				"y": -0.1642394445,
				"z": 3.8187171712,
				"element": "H" 
			},
			{
				"x": 2.9695587596,
				"y": 0.8190131576,
				"z": 3.6101343843,
				"element": "H" 
			},
			{
				"x": 1.706210636,
				"y": 1.3602489277,
				"z": 4.714716993,
				"element": "H" 
			},
			{
				"x": 0.5756327243,
				"y": 3.2488354876,
				"z": 3.8761883311,
				"element": "H" 
			},
			{
				"x": -0.5582245606,
				"y": 4.4712651082,
				"z": 2.0353412672,
				"element": "H" 
			},
			{
				"x": -0.5204300923,
				"y": 3.5509916189,
				"z": -0.2636998224,
				"element": "H" 
			},
			{
				"x": -0.1896362715,
				"y": 0.6329352534,
				"z": -1.4130454142,
				"element": "H" 
			},
			{
				"x": 1.5687154813,
				"y": 0.750509544,
				"z": -1.3675779215,
				"element": "H" 
			},
			{
				"x": 0.5960335187,
				"y": 2.1475292293,
				"z": -1.8564929097,
				"element": "H" 
			},
			{
				"x": 2.8563835099,
				"y": -0.178839276,
				"z": 1.2849142777,
				"element": "H" 
			},
			{
				"x": -1.4651895199,
				"y": -0.732742087,
				"z": 3.1179417434,
				"element": "H" 
			},
			{
				"x": -3.1583263594,
				"y": -1.4844551071,
				"z": 1.8153508445,
				"element": "H" 
			},
			{
				"x": 0.3388635769,
				"y": -2.4106121959,
				"z": -1.5418299698,
				"element": "H" 
			},
			{
				"x": -0.6990805111,
				"y": -2.9120756533,
				"z": -4.3314129703,
				"element": "H" 
			},
			{
				"x": -0.490386711,
				"y": -4.3956332373,
				"z": -3.558732625,
				"element": "H" 
			}
		],
		 "valence_orbital": [ 
			{
				"type": "occ",
				"energy": -0.27559,
				"method": "rhf"
			},
			{
				"type": "occ",
				"energy": -0.25998,
				"method": "rhf"
			},
			{
				"type": "occ",
				"energy": -0.24824,
				"method": "rhf"
			},
			{
				"type": "occ",
				"energy": -0.24421,
				"method": "rhf"
			},
			{
				"type": "occ",
				"energy": -0.23746,
				"method": "rhf"
			},
			{
				"type": "unocc",
				"energy": -0.0512,
				"method": "rhf"
			},
			{
				"type": "unocc",
				"energy": -0.03221,
				"method": "rhf"
			},
			{
				"type": "unocc",
				"energy": -0.01221,
				"method": "rhf"
			},
			{
				"type": "unocc",
				"energy": -0.00469,
				"method": "rhf"
			},
			{
				"type": "unocc",
				"energy": 0.00966,
				"method": "rhf"
			}
		],
		"cosmo_sigma_profile": { 
			"-0.025": 0.0,
			"-0.024": 0.0,
			"-0.023": 0.0,
			"-0.022": 0.0,
			"-0.021": 0.0,
			"-0.02": 0.0926260725464,
			"-0.019": 1.18405935759,
			"-0.018": 1.43849741747,
			"-0.017": 1.27443814232,
			"-0.016": 1.25176448871,
			"-0.015": 3.2072373327,
			"-0.014": 3.08594416844,
			"-0.013": 4.61223248033,
			"-0.012": 4.22919591354,
			"-0.011": 4.27519607778,
			"-0.01": 4.04520854041,
			"-0.009": 4.8194878795,
			"-0.008": 4.33947662725,
			"-0.007": 4.20749040672,
			"-0.006": 6.30583841441,
			"-0.005": 12.8938946955,
			"-0.004": 20.7253816526,
			"-0.003": 24.6765937313,
			"-0.002": 26.8335028425,
			"-0.001": 30.7860688458,
			"0.0": 36.0644791881,
			"0.001": 25.7735192581,
			"0.002": 19.4157964443,
			"0.003": 19.3718313637,
			"0.004": 14.913179411,
			"0.005": 12.5735214582,
			"0.006": 10.183472192,
			"0.007": 6.05673425804,
			"0.008": 6.01530127594,
			"0.009": 4.93213303472,
			"0.01": 11.2096924464,
			"0.011": 11.9112973014,
			"0.012": 3.81473429445,
			"0.013": 5.77449359414,
			"0.014": 1.79321593411,
			"0.015": 0.0,
			"0.016": 0.0,
			"0.017": 0.0,
			"0.018": 0.0,
			"0.019": 0.0,
			"0.02": 0.0,
			"0.021": 0.0,
			"0.022": 0.0,
			"0.023": 0.0,
			"0.024": 0.0,
			"0.025": 0.0
		}
	}
}
