{
	 "smiles": "OC(=O)CC1=CC(=CC(Cl)=C1)C(F)(F)F", 
	 "Tm": 399.15, 
	 "num_atms": 21, 
	 "gaussian": { 
		 "optdone": 1, 
		 "sigma_profile": "yes", 
		 "theory": "DFT", 
		 "functional": "B3LYP", 
		 "basiset": "6-31G**", 
		 "properties": { 
			 "R2extent": 6356.0714, 
			 "electric_dipole_moment_norm": 5.01800181845, 
			 "electric_quadrupole_moment_norm": 9.43992623064, 
			 "total_energy": -1256.74919602, 
			 "HOMO_LUMO_gap": 0.22123, 
			 "cosmo_polarized_energy": -17.46, 
			 "cosmo_cavitation_energy": 29.64, 
			 "cosmo_dispersion_energy": -20.76, 
			 "cosmo_repulsion_energy": 1.59, 
			 "cosmo_total_nonelectrostatic_energy": 10.47, 
			 "SMD_solvation_energy": 7.02 
		},
		"coords": [
			{
				"x": 0.3263650843,
				"y": -2.6321596618,
				"z": 1.2974322094,
				"element": "O" 
			},
			{
				"x": -0.1461386227,
				"y": -1.3598313206,
				"z": 1.3603421106,
				"element": "C" 
			},
			{
				"x": -0.8463572757,
				"y": -1.0170647262,
				"z": 2.2760361369,
				"element": "O" 
			},
			{
				"x": 0.3288129747,
				"y": -0.4474105315,
				"z": 0.2215350929,
				"element": "C" 
			},
			{
				"x": -0.4024984103,
				"y": 0.8711204431,
				"z": 0.127166655,
				"element": "C" 
			},
			{
				"x": -0.403957267,
				"y": 1.769468622,
				"z": 1.2008878966,
				"element": "C" 
			},
			{
				"x": -1.0681875,
				"y": 2.9895147812,
				"z": 1.0891024094,
				"element": "C" 
			},
			{
				"x": -1.7432219375,
				"y": 3.3380268947,
				"z": -0.0840186339,
				"element": "C" 
			},
			{
				"x": -1.7381168159,
				"y": 2.4368862463,
				"z": -1.1427022241,
				"element": "C" 
			},
			{
				"x": -2.5816680285,
				"y": 2.8432863838,
				"z": -2.62697694,
				"element": "Cl" 
			},
			{
				"x": -1.0768975365,
				"y": 1.2118483529,
				"z": -1.0486008874,
				"element": "C" 
			},
			{
				"x": -1.01055646,
				"y": 3.981805821,
				"z": 2.2229384498,
				"element": "C" 
			},
			{
				"x": 0.033161355,
				"y": 4.8313907578,
				"z": 2.0769946878,
				"element": "F" 
			},
			{
				"x": -0.8614996155,
				"y": 3.3742265805,
				"z": 3.4170708153,
				"element": "F" 
			},
			{
				"x": -2.1274465124,
				"y": 4.7387376691,
				"z": 2.2817186126,
				"element": "F" 
			},
			{
				"x": 0.866003219,
				"y": -2.7608128569,
				"z": 0.5045007596,
				"element": "H" 
			},
			{
				"x": 1.402473133,
				"y": -0.2759806366,
				"z": 0.3871057704,
				"element": "H" 
			},
			{
				"x": 0.2507715133,
				"y": -0.9888125822,
				"z": -0.7287052536,
				"element": "H" 
			},
			{
				"x": 0.0899081015,
				"y": 1.5096570465,
				"z": 2.1290661889,
				"element": "H" 
			},
			{
				"x": -2.2658548106,
				"y": 4.2833173173,
				"z": -0.164138115,
				"element": "H" 
			},
			{
				"x": -1.0942945883,
				"y": 0.5296853996,
				"z": -1.8923557412,
				"element": "H" 
			}
		],
		 "valence_orbital": [ 
			{
				"type": "occ",
				"energy": -0.33125,
				"method": "rhf"
			},
			{
				"type": "occ",
				"energy": -0.32523,
				"method": "rhf"
			},
			{
				"type": "occ",
				"energy": -0.29245,
				"method": "rhf"
			},
			{
				"type": "occ",
				"energy": -0.27729,
				"method": "rhf"
			},
			{
				"type": "occ",
				"energy": -0.26234,
				"method": "rhf"
			},
			{
				"type": "unocc",
				"energy": -0.04111,
				"method": "rhf"
			},
			{
				"type": "unocc",
				"energy": -0.03402,
				"method": "rhf"
			},
			{
				"type": "unocc",
				"energy": -0.00466,
				"method": "rhf"
			},
			{
				"type": "unocc",
				"energy": 0.01646,
				"method": "rhf"
			},
			{
				"type": "unocc",
				"energy": 0.03949,
				"method": "rhf"
			}
		],
		"cosmo_sigma_profile": { 
			"-0.025": 0.0,
			"-0.024": 0.0,
			"-0.023": 0.0,
			"-0.022": 0.0,
			"-0.021": 0.0,
			"-0.02": 0.186246155213,
			"-0.019": 1.08966544463,
			"-0.018": 1.15418829142,
			"-0.017": 1.09945811649,
			"-0.016": 1.21765501379,
			"-0.015": 1.09078805006,
			"-0.014": 0.757813623773,
			"-0.013": 1.27489740759,
			"-0.012": 1.4040351888,
			"-0.011": 1.5791768011,
			"-0.01": 1.4773461226,
			"-0.009": 4.91492930839,
			"-0.008": 8.17759190635,
			"-0.007": 8.96160219917,
			"-0.006": 8.14663602907,
			"-0.005": 7.04042275122,
			"-0.004": 7.52986551325,
			"-0.003": 8.14382224784,
			"-0.002": 9.97442089949,
			"-0.001": 12.8255888306,
			"0.0": 16.9084002528,
			"0.001": 27.001568572,
			"0.002": 31.7792620813,
			"0.003": 31.1483990668,
			"0.004": 13.3999532597,
			"0.005": 4.28591017994,
			"0.006": 2.67989679011,
			"0.007": 2.38886324191,
			"0.008": 3.11225035831,
			"0.009": 4.1171252974,
			"0.01": 5.15721226984,
			"0.011": 5.58293937189,
			"0.012": 3.14444565314,
			"0.013": 0.744761720979,
			"0.014": 0.0,
			"0.015": 0.0,
			"0.016": 0.0,
			"0.017": 0.0,
			"0.018": 0.0,
			"0.019": 0.0,
			"0.02": 0.0,
			"0.021": 0.0,
			"0.022": 0.0,
			"0.023": 0.0,
			"0.024": 0.0,
			"0.025": 0.0
		}
	}
}
