{
	 "smiles": "OC(=O)C1=C(N=CN=C1)C1=CC=CC=C1", 
	 "Tm": 415.15, 
	 "num_atms": 23, 
	 "gaussian": { 
		 "optdone": 1, 
		 "sigma_profile": "yes", 
		 "theory": "DFT", 
		 "functional": "B3LYP", 
		 "basiset": "6-31G**", 
		 "properties": { 
			 "R2extent": 3078.5957, 
			 "electric_dipole_moment_norm": 2.99519546441, 
			 "electric_quadrupole_moment_norm": 3.50771773095, 
			 "total_energy": -683.947796364, 
			 "HOMO_LUMO_gap": 0.18054, 
			 "cosmo_polarized_energy": -12.7, 
			 "cosmo_cavitation_energy": 28.07, 
			 "cosmo_dispersion_energy": -20.36, 
			 "cosmo_repulsion_energy": 1.59, 
			 "cosmo_total_nonelectrostatic_energy": 9.29, 
			 "SMD_solvation_energy": 3.4 
		},
		"coords": [
			{
				"x": 1.5565738138,
				"y": -0.6231390091,
				"z": 0.9983016631,
				"element": "O" 
			},
			{
				"x": 0.3729158123,
				"y": -0.8904485974,
				"z": 1.5912156917,
				"element": "C" 
			},
			{
				"x": 0.2237704643,
				"y": -1.8067372933,
				"z": 2.3745030281,
				"element": "O" 
			},
			{
				"x": -0.6932981993,
				"y": 0.0990210769,
				"z": 1.2619314721,
				"element": "C" 
			},
			{
				"x": -0.8829000884,
				"y": 0.7857991514,
				"z": 0.0404911243,
				"element": "C" 
			},
			{
				"x": -1.7851580847,
				"y": 1.7852969573,
				"z": -0.0228442022,
				"element": "N" 
			},
			{
				"x": -2.5198099785,
				"y": 2.0354036534,
				"z": 1.0578605542,
				"element": "C" 
			},
			{
				"x": -2.5050446935,
				"y": 1.3670940706,
				"z": 2.2187331738,
				"element": "N" 
			},
			{
				"x": -1.5795474306,
				"y": 0.4111538239,
				"z": 2.302111301,
				"element": "C" 
			},
			{
				"x": -0.2020448001,
				"y": 0.4595040136,
				"z": -1.2363240934,
				"element": "C" 
			},
			{
				"x": 0.1102370748,
				"y": 1.4947971121,
				"z": -2.1315267078,
				"element": "C" 
			},
			{
				"x": 0.7137004376,
				"y": 1.2112658804,
				"z": -3.354339658,
				"element": "C" 
			},
			{
				"x": 0.9885941632,
				"y": -0.111011488,
				"z": -3.7110235573,
				"element": "C" 
			},
			{
				"x": 0.6556913366,
				"y": -1.1494831373,
				"z": -2.8385578702,
				"element": "C" 
			},
			{
				"x": 0.0679313645,
				"y": -0.8668431652,
				"z": -1.607508573,
				"element": "C" 
			},
			{
				"x": 2.1722249732,
				"y": -1.3104778522,
				"z": 1.3046654662,
				"element": "H" 
			},
			{
				"x": -3.2228820529,
				"y": 2.8630480814,
				"z": 0.9831137936,
				"element": "H" 
			},
			{
				"x": -1.5060222886,
				"y": -0.1357875585,
				"z": 3.2393721469,
				"element": "H" 
			},
			{
				"x": -0.1264120406,
				"y": 2.5158511628,
				"z": -1.8535341527,
				"element": "H" 
			},
			{
				"x": 0.9640321044,
				"y": 2.0217198427,
				"z": -4.0325474031,
				"element": "H" 
			},
			{
				"x": 1.4512568427,
				"y": -0.3322524137,
				"z": -4.6685393446,
				"element": "H" 
			},
			{
				"x": 0.8462955779,
				"y": -2.1808755706,
				"z": -3.1201539845,
				"element": "H" 
			},
			{
				"x": -0.2120043081,
				"y": -1.6826987412,
				"z": -0.948199868,
				"element": "H" 
			}
		],
		 "valence_orbital": [ 
			{
				"type": "occ",
				"energy": -0.30087,
				"method": "rhf"
			},
			{
				"type": "occ",
				"energy": -0.28171,
				"method": "rhf"
			},
			{
				"type": "occ",
				"energy": -0.26405,
				"method": "rhf"
			},
			{
				"type": "occ",
				"energy": -0.2577,
				"method": "rhf"
			},
			{
				"type": "occ",
				"energy": -0.25193,
				"method": "rhf"
			},
			{
				"type": "unocc",
				"energy": -0.07139,
				"method": "rhf"
			},
			{
				"type": "unocc",
				"energy": -0.05375,
				"method": "rhf"
			},
			{
				"type": "unocc",
				"energy": -0.0099,
				"method": "rhf"
			},
			{
				"type": "unocc",
				"energy": 0.00473,
				"method": "rhf"
			},
			{
				"type": "unocc",
				"energy": 0.02217,
				"method": "rhf"
			}
		],
		"cosmo_sigma_profile": { 
			"-0.025": 0.0,
			"-0.024": 0.0,
			"-0.023": 0.0,
			"-0.022": 0.0,
			"-0.021": 0.0,
			"-0.02": 0.0,
			"-0.019": 0.262770135358,
			"-0.018": 1.24360347368,
			"-0.017": 0.773726929854,
			"-0.016": 0.690982377941,
			"-0.015": 0.806290754148,
			"-0.014": 1.02614940676,
			"-0.013": 0.604523805717,
			"-0.012": 0.608100519918,
			"-0.011": 0.470596473055,
			"-0.01": 0.580576358798,
			"-0.009": 0.581978452904,
			"-0.008": 3.6619970221,
			"-0.007": 7.44501510351,
			"-0.006": 12.8565171213,
			"-0.005": 15.072504008,
			"-0.004": 17.4760734814,
			"-0.003": 17.5630889683,
			"-0.002": 19.3049764623,
			"-0.001": 14.3338812224,
			"0.0": 12.7994354929,
			"0.001": 10.5032616439,
			"0.002": 12.7898781008,
			"0.003": 12.3983396059,
			"0.004": 15.4061423269,
			"0.005": 10.5258331461,
			"0.006": 5.49065893672,
			"0.007": 5.57905545505,
			"0.008": 4.96116273702,
			"0.009": 4.30872716333,
			"0.01": 4.24655796485,
			"0.011": 6.21777794566,
			"0.012": 2.70166227048,
			"0.013": 1.49449583563,
			"0.014": 0.733992251064,
			"0.015": 0.507333705812,
			"0.016": 0.0224326986306,
			"0.017": 0.0,
			"0.018": 0.0,
			"0.019": 0.0,
			"0.02": 0.0,
			"0.021": 0.0,
			"0.022": 0.0,
			"0.023": 0.0,
			"0.024": 0.0,
			"0.025": 0.0
		}
	}
}
