{
	 "smiles": "O=C1CC2(CC3=C(C2)C=CC=C3)C(=O)N1", 
	 "Tm": 447.15, 
	 "num_atms": 26, 
	 "gaussian": { 
		 "optdone": 1, 
		 "sigma_profile": "yes", 
		 "theory": "DFT", 
		 "functional": "B3LYP", 
		 "basiset": "6-31G**", 
		 "properties": { 
			 "R2extent": 3440.0822, 
			 "electric_dipole_moment_norm": 1.97039308515, 
			 "electric_quadrupole_moment_norm": 10.3440008797, 
			 "total_energy": -669.143134431, 
			 "HOMO_LUMO_gap": 0.2128, 
			 "cosmo_polarized_energy": -15.9, 
			 "cosmo_cavitation_energy": 29.22, 
			 "cosmo_dispersion_energy": -21.18, 
			 "cosmo_repulsion_energy": 1.66, 
			 "cosmo_total_nonelectrostatic_energy": 9.69, 
			 "SMD_solvation_energy": 5.75 
		},
		"coords": [
			{
				"x": 3.7365757584,
				"y": -0.7699090561,
				"z": -3.0563042609,
				"element": "O" 
			},
			{
				"x": 2.9358200153,
				"y": -0.4462397736,
				"z": -2.2073381828,
				"element": "C" 
			},
			{
				"x": 2.6267254343,
				"y": -1.1409432812,
				"z": -0.8848097335,
				"element": "C" 
			},
			{
				"x": 1.3848251869,
				"y": -0.4312000608,
				"z": -0.302887669,
				"element": "C" 
			},
			{
				"x": 0.0525409079,
				"y": -1.2492314553,
				"z": -0.4404675641,
				"element": "C" 
			},
			{
				"x": -0.7604104131,
				"y": -0.8422893358,
				"z": 0.7660975705,
				"element": "C" 
			},
			{
				"x": 0.0347933336,
				"y": -0.1677493425,
				"z": 1.6983580887,
				"element": "C" 
			},
			{
				"x": 1.4585039131,
				"y": -0.0485792385,
				"z": 1.2061679609,
				"element": "C" 
			},
			{
				"x": -0.508412735,
				"y": 0.2730969612,
				"z": 2.9034175968,
				"element": "C" 
			},
			{
				"x": -1.8604910625,
				"y": 0.034236804,
				"z": 3.1661298756,
				"element": "C" 
			},
			{
				"x": -2.6552878625,
				"y": -0.6395770103,
				"z": 2.2337846176,
				"element": "C" 
			},
			{
				"x": -2.1079350719,
				"y": -1.0835874613,
				"z": 1.0265492334,
				"element": "C" 
			},
			{
				"x": 1.2585937733,
				"y": 0.8334469428,
				"z": -1.1735096939,
				"element": "C" 
			},
			{
				"x": 0.5342072875,
				"y": 1.7879195131,
				"z": -0.9943732049,
				"element": "O" 
			},
			{
				"x": 2.1254580631,
				"y": 0.6851123892,
				"z": -2.254333696,
				"element": "N" 
			},
			{
				"x": 3.5053690383,
				"y": -1.0238999027,
				"z": -0.2397718562,
				"element": "H" 
			},
			{
				"x": 2.4919541689,
				"y": -2.2128530294,
				"z": -1.0505970571,
				"element": "H" 
			},
			{
				"x": 0.2763677075,
				"y": -2.3245442282,
				"z": -0.4161552703,
				"element": "H" 
			},
			{
				"x": -0.4598324745,
				"y": -1.0565324717,
				"z": -1.3897131339,
				"element": "H" 
			},
			{
				"x": 2.1152434551,
				"y": -0.7511560916,
				"z": 1.737373417,
				"element": "H" 
			},
			{
				"x": 1.8757292286,
				"y": 0.9535362365,
				"z": 1.3513914691,
				"element": "H" 
			},
			{
				"x": 0.1047857316,
				"y": 0.8031333372,
				"z": 3.6276692537,
				"element": "H" 
			},
			{
				"x": -2.2981425569,
				"y": 0.3805995239,
				"z": 4.0980437903,
				"element": "H" 
			},
			{
				"x": -3.7063340367,
				"y": -0.8135268316,
				"z": 2.4458445364,
				"element": "H" 
			},
			{
				"x": -2.7295692028,
				"y": -1.6027231064,
				"z": 0.3015185955,
				"element": "H" 
			},
			{
				"x": 2.1793224126,
				"y": 1.3641599691,
				"z": -3.0034846833,
				"element": "H" 
			}
		],
		 "valence_orbital": [ 
			{
				"type": "occ",
				"energy": -0.29307,
				"method": "rhf"
			},
			{
				"type": "occ",
				"energy": -0.28524,
				"method": "rhf"
			},
			{
				"type": "occ",
				"energy": -0.25959,
				"method": "rhf"
			},
			{
				"type": "occ",
				"energy": -0.24795,
				"method": "rhf"
			},
			{
				"type": "occ",
				"energy": -0.23576,
				"method": "rhf"
			},
			{
				"type": "unocc",
				"energy": -0.02296,
				"method": "rhf"
			},
			{
				"type": "unocc",
				"energy": -0.00714,
				"method": "rhf"
			},
			{
				"type": "unocc",
				"energy": -0.0003,
				"method": "rhf"
			},
			{
				"type": "unocc",
				"energy": 0.02997,
				"method": "rhf"
			},
			{
				"type": "unocc",
				"energy": 0.07903,
				"method": "rhf"
			}
		],
		"cosmo_sigma_profile": { 
			"-0.025": 0.0,
			"-0.024": 0.0,
			"-0.023": 0.0,
			"-0.022": 0.0,
			"-0.021": 0.0,
			"-0.02": 0.0,
			"-0.019": 0.0,
			"-0.018": 0.0,
			"-0.017": 0.0,
			"-0.016": 1.22200197649,
			"-0.015": 0.985199197242,
			"-0.014": 1.30238994918,
			"-0.013": 0.786255099951,
			"-0.012": 1.0111746521,
			"-0.011": 0.625098277911,
			"-0.01": 0.964992414209,
			"-0.009": 0.487851848676,
			"-0.008": 2.31112563224,
			"-0.007": 6.70210059145,
			"-0.006": 14.1188324085,
			"-0.005": 24.7158057266,
			"-0.004": 21.8705808023,
			"-0.003": 24.6884208999,
			"-0.002": 18.6327791046,
			"-0.001": 11.8705022664,
			"0.0": 8.94679312061,
			"0.001": 7.92126083013,
			"0.002": 8.08652992643,
			"0.003": 8.62373156822,
			"0.004": 9.26040282834,
			"0.005": 8.48964337245,
			"0.006": 10.0571183379,
			"0.007": 5.9721184375,
			"0.008": 3.44986076591,
			"0.009": 3.57377335884,
			"0.01": 4.44910304007,
			"0.011": 7.323442135,
			"0.012": 10.6661242098,
			"0.013": 2.61489521824,
			"0.014": 0.0322789367727,
			"0.015": 0.0,
			"0.016": 0.0,
			"0.017": 0.0,
			"0.018": 0.0,
			"0.019": 0.0,
			"0.02": 0.0,
			"0.021": 0.0,
			"0.022": 0.0,
			"0.023": 0.0,
			"0.024": 0.0,
			"0.025": 0.0
		}
	}
}
