{
	 "smiles": "COC1=CC=C(C=C1)P1(=S)NN2C(S1)=NN=C2C(F)(F)F", 
	 "Tm": 484.15, 
	 "num_atms": 29, 
	 "gaussian": { 
		 "optdone": 1, 
		 "sigma_profile": "yes", 
		 "theory": "DFT", 
		 "functional": "B3LYP", 
		 "basiset": "6-31G**", 
		 "properties": { 
			 "R2extent": 8673.6523, 
			 "electric_dipole_moment_norm": 5.72318384206, 
			 "electric_quadrupole_moment_norm": 27.5648596216, 
			 "total_energy": -2117.3116657, 
			 "HOMO_LUMO_gap": 0.17103, 
			 "cosmo_polarized_energy": -18.94, 
			 "cosmo_cavitation_energy": 40.25, 
			 "cosmo_dispersion_energy": -28.26, 
			 "cosmo_repulsion_energy": 1.97, 
			 "cosmo_total_nonelectrostatic_energy": 13.96, 
			 "SMD_solvation_energy": 5.36 
		},
		"coords": [
			{
				"x": -2.9035142534,
				"y": -2.1814193837,
				"z": -3.8931582245,
				"element": "C" 
			},
			{
				"x": -2.2648779853,
				"y": -2.2991238356,
				"z": -2.6260156589,
				"element": "O" 
			},
			{
				"x": -2.0036645601,
				"y": -1.1744568728,
				"z": -1.9195183833,
				"element": "C" 
			},
			{
				"x": -2.3254295345,
				"y": 0.1250654384,
				"z": -2.3435109245,
				"element": "C" 
			},
			{
				"x": -2.0088542415,
				"y": 1.2098103121,
				"z": -1.5320156053,
				"element": "C" 
			},
			{
				"x": -1.3733442192,
				"y": 1.0205964355,
				"z": -0.2970081509,
				"element": "C" 
			},
			{
				"x": -1.0552610874,
				"y": -0.2843873826,
				"z": 0.124453702,
				"element": "C" 
			},
			{
				"x": -1.3693625081,
				"y": -1.3679230632,
				"z": -0.6808656826,
				"element": "C" 
			},
			{
				"x": -1.0012428746,
				"y": 2.4662497462,
				"z": 0.7128836601,
				"element": "P" 
			},
			{
				"x": -2.4445614458,
				"y": 3.6774531209,
				"z": 1.1614056469,
				"element": "S" 
			},
			{
				"x": -0.1620949255,
				"y": 1.790917738,
				"z": 2.0995708947,
				"element": "N" 
			},
			{
				"x": 1.1933044506,
				"y": 1.6316727146,
				"z": 1.7816500057,
				"element": "N" 
			},
			{
				"x": 1.7980365487,
				"y": 2.2906607975,
				"z": 0.7383391907,
				"element": "C" 
			},
			{
				"x": 0.7910325637,
				"y": 3.4208956086,
				"z": -0.1580543847,
				"element": "S" 
			},
			{
				"x": 3.0401932304,
				"y": 1.8905638328,
				"z": 0.6005216853,
				"element": "N" 
			},
			{
				"x": 3.2674274295,
				"y": 0.9439293325,
				"z": 1.5865799496,
				"element": "N" 
			},
			{
				"x": 2.1557385845,
				"y": 0.7801394725,
				"z": 2.2599470043,
				"element": "C" 
			},
			{
				"x": 1.9065789931,
				"y": -0.1831691963,
				"z": 3.3759732859,
				"element": "C" 
			},
			{
				"x": 3.0377971373,
				"y": -0.7509492715,
				"z": 3.7903632178,
				"element": "F" 
			},
			{
				"x": 1.324326037,
				"y": 0.4481704789,
				"z": 4.4215576085,
				"element": "F" 
			},
			{
				"x": 1.0554143704,
				"y": -1.1632215942,
				"z": 2.9869702896,
				"element": "F" 
			},
			{
				"x": -2.2984058583,
				"y": -1.5936726117,
				"z": -4.5937317431,
				"element": "H" 
			},
			{
				"x": -3.0050482481,
				"y": -3.1993005518,
				"z": -4.2703604578,
				"element": "H" 
			},
			{
				"x": -3.8977334052,
				"y": -1.7281870954,
				"z": -3.8003291308,
				"element": "H" 
			},
			{
				"x": -2.8193702929,
				"y": 0.2980080973,
				"z": -3.2915600627,
				"element": "H" 
			},
			{
				"x": -2.2715420281,
				"y": 2.2100393249,
				"z": -1.8639555635,
				"element": "H" 
			},
			{
				"x": -0.5754603042,
				"y": -0.4541012161,
				"z": 1.0810566058,
				"element": "H" 
			},
			{
				"x": -1.136682191,
				"y": -2.3810353091,
				"z": -0.3713070114,
				"element": "H" 
			},
			{
				"x": -0.2638993817,
				"y": 2.4111749335,
				"z": 2.9051182371,
				"element": "H" 
			}
		],
		 "valence_orbital": [ 
			{
				"type": "occ",
				"energy": -0.28182,
				"method": "rhf"
			},
			{
				"type": "occ",
				"energy": -0.27369,
				"method": "rhf"
			},
			{
				"type": "occ",
				"energy": -0.26634,
				"method": "rhf"
			},
			{
				"type": "occ",
				"energy": -0.26399,
				"method": "rhf"
			},
			{
				"type": "occ",
				"energy": -0.24368,
				"method": "rhf"
			},
			{
				"type": "unocc",
				"energy": -0.07265,
				"method": "rhf"
			},
			{
				"type": "unocc",
				"energy": -0.03782,
				"method": "rhf"
			},
			{
				"type": "unocc",
				"energy": -0.02838,
				"method": "rhf"
			},
			{
				"type": "unocc",
				"energy": -0.02673,
				"method": "rhf"
			},
			{
				"type": "unocc",
				"energy": -0.01163,
				"method": "rhf"
			}
		],
		"cosmo_sigma_profile": { 
			"-0.025": 0.0,
			"-0.024": 0.0,
			"-0.023": 0.0,
			"-0.022": 0.0,
			"-0.021": 0.0,
			"-0.02": 0.0,
			"-0.019": 0.0,
			"-0.018": 0.0,
			"-0.017": 0.753218323128,
			"-0.016": 1.40460687841,
			"-0.015": 1.10067361487,
			"-0.014": 1.64539487148,
			"-0.013": 0.972147817209,
			"-0.012": 0.746181184683,
			"-0.011": 1.63223923481,
			"-0.01": 1.98945815357,
			"-0.009": 2.64039802169,
			"-0.008": 3.75674208097,
			"-0.007": 10.5311461349,
			"-0.006": 17.7467255538,
			"-0.005": 18.5818550445,
			"-0.004": 18.935341376,
			"-0.003": 20.2590844477,
			"-0.002": 18.9402798793,
			"-0.001": 18.2975762878,
			"0.0": 23.2323066151,
			"0.001": 38.4606188283,
			"0.002": 41.0482862811,
			"0.003": 21.607306863,
			"0.004": 11.2714805731,
			"0.005": 8.27633342572,
			"0.006": 10.0450117304,
			"0.007": 10.7032587904,
			"0.008": 6.33464763326,
			"0.009": 3.30541155759,
			"0.01": 3.45043458813,
			"0.011": 3.5630459753,
			"0.012": 2.36351120141,
			"0.013": 2.95397925959,
			"0.014": 1.35717805437,
			"0.015": 0.331460448518,
			"0.016": 0.0,
			"0.017": 0.0,
			"0.018": 0.0,
			"0.019": 0.0,
			"0.02": 0.0,
			"0.021": 0.0,
			"0.022": 0.0,
			"0.023": 0.0,
			"0.024": 0.0,
			"0.025": 0.0
		}
	}
}
