{
	 "smiles": "SC1=NN=C(O1)C1=C(Cl)C2=C(S1)C=CC=C2", 
	 "Tm": 505.15, 
	 "num_atms": 21, 
	 "gaussian": { 
		 "optdone": 1, 
		 "sigma_profile": "yes", 
		 "theory": "DFT", 
		 "functional": "B3LYP", 
		 "basiset": "6-31G**", 
		 "properties": { 
			 "R2extent": 7157.1566, 
			 "electric_dipole_moment_norm": 5.22931396743, 
			 "electric_quadrupole_moment_norm": 20.8916946065, 
			 "total_energy": -1825.3248546, 
			 "HOMO_LUMO_gap": 0.15143, 
			 "cosmo_polarized_energy": -13.17, 
			 "cosmo_cavitation_energy": 31.65, 
			 "cosmo_dispersion_energy": -24.57, 
			 "cosmo_repulsion_energy": 1.8, 
			 "cosmo_total_nonelectrostatic_energy": 8.89, 
			 "SMD_solvation_energy": 2.65 
		},
		"coords": [
			{
				"x": -5.3396388777,
				"y": 1.2091192953,
				"z": 3.8864807193,
				"element": "S" 
			},
			{
				"x": -4.1929064958,
				"y": 1.617081063,
				"z": 2.6229749731,
				"element": "C" 
			},
			{
				"x": -4.0605054689,
				"y": 2.7672207556,
				"z": 2.0409387493,
				"element": "N" 
			},
			{
				"x": -3.032222939,
				"y": 2.6150726887,
				"z": 1.112756285,
				"element": "N" 
			},
			{
				"x": -2.6221447859,
				"y": 1.3833496783,
				"z": 1.2050572571,
				"element": "C" 
			},
			{
				"x": -3.3245768506,
				"y": 0.6769683175,
				"z": 2.1596090334,
				"element": "O" 
			},
			{
				"x": -1.5881180232,
				"y": 0.6777742992,
				"z": 0.4897758304,
				"element": "C" 
			},
			{
				"x": -0.7490938715,
				"y": 1.13451262,
				"z": -0.4962641913,
				"element": "C" 
			},
			{
				"x": -0.7566468556,
				"y": 2.7473291085,
				"z": -1.1243810163,
				"element": "Cl" 
			},
			{
				"x": 0.1697484372,
				"y": 0.1419454757,
				"z": -0.9878994785,
				"element": "C" 
			},
			{
				"x": -0.0075726396,
				"y": -1.0969849858,
				"z": -0.3293039634,
				"element": "C" 
			},
			{
				"x": -1.2856899978,
				"y": -1.0214296527,
				"z": 0.868820578,
				"element": "S" 
			},
			{
				"x": 0.7781916385,
				"y": -2.2097814322,
				"z": -0.6456765441,
				"element": "C" 
			},
			{
				"x": 1.7480855594,
				"y": -2.0714628757,
				"z": -1.6320247281,
				"element": "C" 
			},
			{
				"x": 1.9357337923,
				"y": -0.8442432938,
				"z": -2.2959603879,
				"element": "C" 
			},
			{
				"x": 1.1572065417,
				"y": 0.2596658748,
				"z": -1.9830074309,
				"element": "C" 
			},
			{
				"x": -4.9270330078,
				"y": -0.0682131166,
				"z": 3.9965287831,
				"element": "H" 
			},
			{
				"x": 0.6346408225,
				"y": -3.1566058078,
				"z": -0.1346219107,
				"element": "H" 
			},
			{
				"x": 2.3688264831,
				"y": -2.9232603878,
				"z": -1.8927325656,
				"element": "H" 
			},
			{
				"x": 2.7001170025,
				"y": -0.7628966344,
				"z": -3.0624397617,
				"element": "H" 
			},
			{
				"x": 1.2970995363,
				"y": 1.20793901,
				"z": -2.4911302301,
				"element": "H" 
			}
		],
		 "valence_orbital": [ 
			{
				"type": "occ",
				"energy": -0.29033,
				"method": "rhf"
			},
			{
				"type": "occ",
				"energy": -0.28339,
				"method": "rhf"
			},
			{
				"type": "occ",
				"energy": -0.27496,
				"method": "rhf"
			},
			{
				"type": "occ",
				"energy": -0.24525,
				"method": "rhf"
			},
			{
				"type": "occ",
				"energy": -0.22581,
				"method": "rhf"
			},
			{
				"type": "unocc",
				"energy": -0.07438,
				"method": "rhf"
			},
			{
				"type": "unocc",
				"energy": -0.02023,
				"method": "rhf"
			},
			{
				"type": "unocc",
				"energy": -0.01026,
				"method": "rhf"
			},
			{
				"type": "unocc",
				"energy": -0.00931,
				"method": "rhf"
			},
			{
				"type": "unocc",
				"energy": -0.00287,
				"method": "rhf"
			}
		],
		"cosmo_sigma_profile": { 
			"-0.025": 0.0,
			"-0.024": 0.0,
			"-0.023": 0.0,
			"-0.022": 0.0,
			"-0.021": 0.0,
			"-0.02": 0.0,
			"-0.019": 0.0,
			"-0.018": 0.0,
			"-0.017": 0.0,
			"-0.016": 0.0,
			"-0.015": 0.0,
			"-0.014": 0.432527034512,
			"-0.013": 2.36002645155,
			"-0.012": 1.48836579483,
			"-0.011": 1.20548473362,
			"-0.01": 1.83539298223,
			"-0.009": 1.82960204,
			"-0.008": 3.41712352746,
			"-0.007": 6.368170088,
			"-0.006": 11.396591791,
			"-0.005": 14.5663086764,
			"-0.004": 13.8911453279,
			"-0.003": 14.6530450184,
			"-0.002": 14.9658449056,
			"-0.001": 23.0476411221,
			"0.0": 31.197230816,
			"0.001": 29.010920012,
			"0.002": 24.7838908586,
			"0.003": 23.5015292305,
			"0.004": 15.4601573864,
			"0.005": 4.60777400526,
			"0.006": 2.54584621865,
			"0.007": 1.94982488525,
			"0.008": 2.87150703412,
			"0.009": 2.53364587876,
			"0.01": 3.66962258443,
			"0.011": 3.62790036318,
			"0.012": 3.05978159841,
			"0.013": 2.41585989701,
			"0.014": 0.875333443631,
			"0.015": 0.0492708912897,
			"0.016": 0.0,
			"0.017": 0.0,
			"0.018": 0.0,
			"0.019": 0.0,
			"0.02": 0.0,
			"0.021": 0.0,
			"0.022": 0.0,
			"0.023": 0.0,
			"0.024": 0.0,
			"0.025": 0.0
		}
	}
}
