{
	 "smiles": "NC(=O)NN=CC(=O)C1=CC=C(C=C1)C(=O)C=NNC(N)=O", 
	 "Tm": 519.15, 
	 "num_atms": 34, 
	 "gaussian": { 
		 "optdone": 1, 
		 "sigma_profile": "yes", 
		 "theory": "DFT", 
		 "functional": "B3LYP", 
		 "basiset": "6-31G**", 
		 "properties": { 
			 "R2extent": 12827.9521, 
			 "electric_dipole_moment_norm": 4.46206796116, 
			 "electric_quadrupole_moment_norm": 38.0453339277, 
			 "total_energy": -1093.89015864, 
			 "HOMO_LUMO_gap": 0.14839, 
			 "cosmo_polarized_energy": -29.9, 
			 "cosmo_cavitation_energy": 42.09, 
			 "cosmo_dispersion_energy": -30.03, 
			 "cosmo_repulsion_energy": 2.32, 
			 "cosmo_total_nonelectrostatic_energy": 14.38, 
			 "SMD_solvation_energy": 10.16 
		},
		"coords": [
			{
				"x": 6.1275722029,
				"y": -0.3987991079,
				"z": -2.8998579041,
				"element": "N" 
			},
			{
				"x": 5.0759013282,
				"y": -0.8806339454,
				"z": -3.6101570209,
				"element": "C" 
			},
			{
				"x": 5.1329145042,
				"y": -1.4369760843,
				"z": -4.6930460453,
				"element": "O" 
			},
			{
				"x": 3.8186171138,
				"y": -0.7037505148,
				"z": -2.9856507126,
				"element": "N" 
			},
			{
				"x": 3.717312008,
				"y": -0.0830580219,
				"z": -1.8209197049,
				"element": "N" 
			},
			{
				"x": 2.5599055843,
				"y": 0.0802595028,
				"z": -1.2427474628,
				"element": "C" 
			},
			{
				"x": 1.2642277523,
				"y": -0.3675385038,
				"z": -1.7736506526,
				"element": "C" 
			},
			{
				"x": 1.189373602,
				"y": -0.925236955,
				"z": -2.8785249943,
				"element": "O" 
			},
			{
				"x": 0.0183252957,
				"y": -0.1271802986,
				"z": -0.9771458944,
				"element": "C" 
			},
			{
				"x": -1.2139200869,
				"y": -0.334923866,
				"z": -1.6208065286,
				"element": "C" 
			},
			{
				"x": -2.4067988666,
				"y": -0.1398930824,
				"z": -0.9403111673,
				"element": "C" 
			},
			{
				"x": -2.4042944306,
				"y": 0.283459066,
				"z": 0.399639939,
				"element": "C" 
			},
			{
				"x": -1.1766727945,
				"y": 0.47163723,
				"z": 1.0521577626,
				"element": "C" 
			},
			{
				"x": 0.0211539094,
				"y": 0.2658306025,
				"z": 0.3705375185,
				"element": "C" 
			},
			{
				"x": -3.7382463379,
				"y": 0.4302245183,
				"z": 1.071183131,
				"element": "C" 
			},
			{
				"x": -4.7141231047,
				"y": -0.1887130086,
				"z": 0.6583847405,
				"element": "O" 
			},
			{
				"x": -3.9429549248,
				"y": 1.3355422945,
				"z": 2.2273075697,
				"element": "C" 
			},
			{
				"x": -3.0939492819,
				"y": 2.2488531933,
				"z": 2.5523395069,
				"element": "N" 
			},
			{
				"x": -3.3802037257,
				"y": 3.0767011197,
				"z": 3.5594377954,
				"element": "N" 
			},
			{
				"x": -2.51571623,
				"y": 4.1229829499,
				"z": 3.9413534131,
				"element": "C" 
			},
			{
				"x": -1.3575957446,
				"y": 4.1821344456,
				"z": 3.228498591,
				"element": "N" 
			},
			{
				"x": -2.8346598632,
				"y": 4.8590799165,
				"z": 4.8588861127,
				"element": "O" 
			},
			{
				"x": 5.9774287259,
				"y": 0.0936939877,
				"z": -2.0337956094,
				"element": "H" 
			},
			{
				"x": 7.0378140126,
				"y": -0.4503149031,
				"z": -3.323911229,
				"element": "H" 
			},
			{
				"x": 2.9814566951,
				"y": -1.0501186176,
				"z": -3.4590440317,
				"element": "H" 
			},
			{
				"x": 2.6072711457,
				"y": 0.6175145409,
				"z": -0.303040739,
				"element": "H" 
			},
			{
				"x": -1.2053227086,
				"y": -0.6558405317,
				"z": -2.6566155082,
				"element": "H" 
			},
			{
				"x": -3.3611862343,
				"y": -0.3118605184,
				"z": -1.4261551382,
				"element": "H" 
			},
			{
				"x": -1.1546052579,
				"y": 0.7613520087,
				"z": 2.0951874905,
				"element": "H" 
			},
			{
				"x": 0.9530430771,
				"y": 0.3895086848,
				"z": 0.9109870662,
				"element": "H" 
			},
			{
				"x": -4.9105144046,
				"y": 1.220653457,
				"z": 2.7269070388,
				"element": "H" 
			},
			{
				"x": -4.2511281973,
				"y": 3.017654493,
				"z": 4.0835176117,
				"element": "H" 
			},
			{
				"x": -1.25921437,
				"y": 3.642234964,
				"z": 2.3825488292,
				"element": "H" 
			},
			{
				"x": -0.7866103929,
				"y": 4.9984209845,
				"z": 3.3741062265,
				"element": "H" 
			}
		],
		 "valence_orbital": [ 
			{
				"type": "occ",
				"energy": -0.27467,
				"method": "rhf"
			},
			{
				"type": "occ",
				"energy": -0.2706,
				"method": "rhf"
			},
			{
				"type": "occ",
				"energy": -0.26517,
				"method": "rhf"
			},
			{
				"type": "occ",
				"energy": -0.26284,
				"method": "rhf"
			},
			{
				"type": "occ",
				"energy": -0.25567,
				"method": "rhf"
			},
			{
				"type": "unocc",
				"energy": -0.10728,
				"method": "rhf"
			},
			{
				"type": "unocc",
				"energy": -0.08128,
				"method": "rhf"
			},
			{
				"type": "unocc",
				"energy": -0.03464,
				"method": "rhf"
			},
			{
				"type": "unocc",
				"energy": -0.02586,
				"method": "rhf"
			},
			{
				"type": "unocc",
				"energy": 0.02987,
				"method": "rhf"
			}
		],
		"cosmo_sigma_profile": { 
			"-0.025": 0.0,
			"-0.024": 0.0,
			"-0.023": 0.0,
			"-0.022": 0.0,
			"-0.021": 0.0,
			"-0.02": 0.0,
			"-0.019": 0.0,
			"-0.018": 0.0,
			"-0.017": 0.0,
			"-0.016": 0.580787843862,
			"-0.015": 2.49634552675,
			"-0.014": 4.1671480935,
			"-0.013": 3.46130810067,
			"-0.012": 5.04485088562,
			"-0.011": 5.50459474063,
			"-0.01": 5.71437000106,
			"-0.009": 6.33628221489,
			"-0.008": 7.1188077664,
			"-0.007": 9.43703677823,
			"-0.006": 12.2176664583,
			"-0.005": 14.027142603,
			"-0.004": 17.5128202863,
			"-0.003": 23.4088169382,
			"-0.002": 23.7601096811,
			"-0.001": 27.5925336453,
			"0.0": 25.4072849168,
			"0.001": 21.1973466999,
			"0.002": 27.3821817064,
			"0.003": 13.2875905095,
			"0.004": 9.23694363609,
			"0.005": 8.06428369351,
			"0.006": 5.95002201428,
			"0.007": 5.86202435257,
			"0.008": 6.46886250723,
			"0.009": 5.19002467226,
			"0.01": 6.72914100884,
			"0.011": 7.15422281336,
			"0.012": 8.33887112803,
			"0.013": 13.2507841923,
			"0.014": 5.12609429682,
			"0.015": 0.0483071941535,
			"0.016": 0.0,
			"0.017": 0.0,
			"0.018": 0.0,
			"0.019": 0.0,
			"0.02": 0.0,
			"0.021": 0.0,
			"0.022": 0.0,
			"0.023": 0.0,
			"0.024": 0.0,
			"0.025": 0.0
		}
	}
}
