{
	 "smiles": "OC1=CC=C(C=C1)C1=CC=C(O)C=C1", 
	 "Tm": 553.15, 
	 "num_atms": 24, 
	 "gaussian": { 
		 "optdone": 1, 
		 "sigma_profile": "yes", 
		 "theory": "DFT", 
		 "functional": "B3LYP", 
		 "basiset": "6-31G**", 
		 "properties": { 
			 "R2extent": 4033.1544, 
			 "electric_dipole_moment_norm": 0.830977647112, 
			 "electric_quadrupole_moment_norm": 21.9557297747, 
			 "total_energy": -613.750254177, 
			 "HOMO_LUMO_gap": 0.1863, 
			 "cosmo_polarized_energy": -14.27, 
			 "cosmo_cavitation_energy": 28.29, 
			 "cosmo_dispersion_energy": -21.0, 
			 "cosmo_repulsion_energy": 1.63, 
			 "cosmo_total_nonelectrostatic_energy": 8.92, 
			 "SMD_solvation_energy": 5.27 
		},
		"coords": [
			{
				"x": 3.0437484301,
				"y": 2.237884357,
				"z": -1.7076851099,
				"element": "O" 
			},
			{
				"x": 1.9672920325,
				"y": 1.5567211957,
				"z": -1.2117522188,
				"element": "C" 
			},
			{
				"x": 0.842724656,
				"y": 2.1964181193,
				"z": -0.6813112712,
				"element": "C" 
			},
			{
				"x": -0.2210405653,
				"y": 1.4425119774,
				"z": -0.1891506142,
				"element": "C" 
			},
			{
				"x": -0.1993678206,
				"y": 0.0388777102,
				"z": -0.2147872229,
				"element": "C" 
			},
			{
				"x": 0.9421947956,
				"y": -0.580901375,
				"z": -0.7561000724,
				"element": "C" 
			},
			{
				"x": 2.0127945338,
				"y": 0.1587744313,
				"z": -1.2460021847,
				"element": "C" 
			},
			{
				"x": -1.3351073884,
				"y": -0.7589228322,
				"z": 0.3086331751,
				"element": "C" 
			},
			{
				"x": -1.1236182295,
				"y": -1.9632905415,
				"z": 0.9986360415,
				"element": "C" 
			},
			{
				"x": -2.1874212526,
				"y": -2.7171702033,
				"z": 1.4907574075,
				"element": "C" 
			},
			{
				"x": -3.5015900595,
				"y": -2.2764758821,
				"z": 1.3064157414,
				"element": "C" 
			},
			{
				"x": -4.587633665,
				"y": -2.9676313001,
				"z": 1.7663094628,
				"element": "O" 
			},
			{
				"x": -3.7372375993,
				"y": -1.0781970119,
				"z": 0.623696533,
				"element": "C" 
			},
			{
				"x": -2.6666539072,
				"y": -0.3386008715,
				"z": 0.1336568245,
				"element": "C" 
			},
			{
				"x": 2.8797067175,
				"y": 3.1865953845,
				"z": -1.6298698748,
				"element": "H" 
			},
			{
				"x": 0.8031310704,
				"y": 3.2833363746,
				"z": -0.6406953126,
				"element": "H" 
			},
			{
				"x": -1.0731787699,
				"y": 1.956672843,
				"z": 0.245508896,
				"element": "H" 
			},
			{
				"x": 0.9808612711,
				"y": -1.6646200718,
				"z": -0.8169320336,
				"element": "H" 
			},
			{
				"x": 2.8854838807,
				"y": -0.3272188238,
				"z": -1.6699344773,
				"element": "H" 
			},
			{
				"x": -0.1088853356,
				"y": -2.3067830356,
				"z": 1.1768600218,
				"element": "H" 
			},
			{
				"x": -1.9940505378,
				"y": -3.6426265855,
				"z": 2.0299670838,
				"element": "H" 
			},
			{
				"x": -4.285673292,
				"y": -3.7715091308,
				"z": 2.2085980494,
				"element": "H" 
			},
			{
				"x": -4.7614106245,
				"y": -0.7512455923,
				"z": 0.4764988206,
				"element": "H" 
			},
			{
				"x": -2.8681683404,
				"y": 0.5741008642,
				"z": -0.419517665,
				"element": "H" 
			}
		],
		 "valence_orbital": [ 
			{
				"type": "occ",
				"energy": -0.31934,
				"method": "rhf"
			},
			{
				"type": "occ",
				"energy": -0.25063,
				"method": "rhf"
			},
			{
				"type": "occ",
				"energy": -0.25017,
				"method": "rhf"
			},
			{
				"type": "occ",
				"energy": -0.23985,
				"method": "rhf"
			},
			{
				"type": "occ",
				"energy": -0.19673,
				"method": "rhf"
			},
			{
				"type": "unocc",
				"energy": -0.01043,
				"method": "rhf"
			},
			{
				"type": "unocc",
				"energy": -0.00363,
				"method": "rhf"
			},
			{
				"type": "unocc",
				"energy": 0.00071,
				"method": "rhf"
			},
			{
				"type": "unocc",
				"energy": 0.04629,
				"method": "rhf"
			},
			{
				"type": "unocc",
				"energy": 0.07071,
				"method": "rhf"
			}
		],
		"cosmo_sigma_profile": { 
			"-0.025": 0.0,
			"-0.024": 0.0,
			"-0.023": 0.0,
			"-0.022": 0.0,
			"-0.021": 0.0,
			"-0.02": 0.0,
			"-0.019": 0.0,
			"-0.018": 0.375083258655,
			"-0.017": 2.29676529952,
			"-0.016": 2.03182334695,
			"-0.015": 1.86790820776,
			"-0.014": 2.12919005907,
			"-0.013": 2.89737150407,
			"-0.012": 1.64989937366,
			"-0.011": 1.09780937469,
			"-0.01": 2.06549528348,
			"-0.009": 2.34876961341,
			"-0.008": 2.40686344843,
			"-0.007": 2.70247888669,
			"-0.006": 8.12763831172,
			"-0.005": 16.7628179428,
			"-0.004": 15.1130938067,
			"-0.003": 14.0714918183,
			"-0.002": 9.35373359186,
			"-0.001": 11.0170325372,
			"0.0": 9.90347140851,
			"0.001": 10.79559913,
			"0.002": 12.0919040672,
			"0.003": 16.2625002057,
			"0.004": 23.7915346693,
			"0.005": 22.7598302009,
			"0.006": 14.6248375378,
			"0.007": 2.75776809246,
			"0.008": 2.20262429733,
			"0.009": 3.6380765362,
			"0.01": 3.10239344353,
			"0.011": 3.84396572323,
			"0.012": 1.77684259008,
			"0.013": 0.0,
			"0.014": 0.0,
			"0.015": 0.0,
			"0.016": 0.0,
			"0.017": 0.0,
			"0.018": 0.0,
			"0.019": 0.0,
			"0.02": 0.0,
			"0.021": 0.0,
			"0.022": 0.0,
			"0.023": 0.0,
			"0.024": 0.0,
			"0.025": 0.0
		}
	}
}
