{
	 "smiles": "CN(CC(O)=O)N=O", 
	 "Tm": 339.65, 
	 "num_atms": 14, 
	 "gaussian": { 
		 "optdone": 1, 
		 "sigma_profile": "yes", 
		 "theory": "DFT", 
		 "functional": "B3LYP", 
		 "basiset": "6-31G**", 
		 "properties": { 
			 "R2extent": 2360.4734, 
			 "electric_dipole_moment_norm": 4.41364299644, 
			 "electric_quadrupole_moment_norm": 13.4684191559, 
			 "total_energy": -453.039378439, 
			 "HOMO_LUMO_gap": 0.19221, 
			 "cosmo_polarized_energy": -14.36, 
			 "cosmo_cavitation_energy": 18.41, 
			 "cosmo_dispersion_energy": -13.52, 
			 "cosmo_repulsion_energy": 1.14, 
			 "cosmo_total_nonelectrostatic_energy": 6.03, 
			 "SMD_solvation_energy": 5.03 
		},
		"coords": [
			{
				"x": -1.1836486211,
				"y": 0.7824303311,
				"z": 0.6755502228,
				"element": "C" 
			},
			{
				"x": -1.4570377825,
				"y": 1.6999073168,
				"z": -0.4229562423,
				"element": "N" 
			},
			{
				"x": -0.4022614428,
				"y": 2.5590952777,
				"z": -0.9733589414,
				"element": "C" 
			},
			{
				"x": 0.2089909144,
				"y": 2.0254791161,
				"z": -2.2854825795,
				"element": "C" 
			},
			{
				"x": -0.6513306632,
				"y": 1.9308441761,
				"z": -3.3070410309,
				"element": "O" 
			},
			{
				"x": 1.3747866,
				"y": 1.7297095664,
				"z": -2.3775552335,
				"element": "O" 
			},
			{
				"x": -2.704063148,
				"y": 1.754527742,
				"z": -0.8571985443,
				"element": "N" 
			},
			{
				"x": -2.8860430843,
				"y": 2.4934079869,
				"z": -1.8394715389,
				"element": "O" 
			},
			{
				"x": -2.1204284505,
				"y": 0.2858395582,
				"z": 0.9287678494,
				"element": "H" 
			},
			{
				"x": -0.441917117,
				"y": 0.0375501736,
				"z": 0.3717320979,
				"element": "H" 
			},
			{
				"x": -0.8065522001,
				"y": 1.3290995948,
				"z": 1.5456945826,
				"element": "H" 
			},
			{
				"x": -0.8487759255,
				"y": 3.5434594786,
				"z": -1.1546840289,
				"element": "H" 
			},
			{
				"x": 0.3942229418,
				"y": 2.6358970384,
				"z": -0.234965367,
				"element": "H" 
			},
			{
				"x": -1.5403420212,
				"y": 2.2313526432,
				"z": -3.0108312459,
				"element": "H" 
			}
		],
		 "valence_orbital": [ 
			{
				"type": "occ",
				"energy": -0.38389,
				"method": "rhf"
			},
			{
				"type": "occ",
				"energy": -0.31799,
				"method": "rhf"
			},
			{
				"type": "occ",
				"energy": -0.30738,
				"method": "rhf"
			},
			{
				"type": "occ",
				"energy": -0.2741,
				"method": "rhf"
			},
			{
				"type": "occ",
				"energy": -0.26117,
				"method": "rhf"
			},
			{
				"type": "unocc",
				"energy": -0.06896,
				"method": "rhf"
			},
			{
				"type": "unocc",
				"energy": -0.00398,
				"method": "rhf"
			},
			{
				"type": "unocc",
				"energy": 0.076,
				"method": "rhf"
			},
			{
				"type": "unocc",
				"energy": 0.09982,
				"method": "rhf"
			},
			{
				"type": "unocc",
				"energy": 0.10928,
				"method": "rhf"
			}
		],
		"cosmo_sigma_profile": { 
			"-0.025": 0.0,
			"-0.024": 0.0,
			"-0.023": 0.0,
			"-0.022": 0.0,
			"-0.021": 0.0,
			"-0.02": 0.0,
			"-0.019": 0.0,
			"-0.018": 0.0,
			"-0.017": 0.0,
			"-0.016": 0.0,
			"-0.015": 0.0,
			"-0.014": 0.0,
			"-0.013": 0.0,
			"-0.012": 0.0,
			"-0.011": 0.0,
			"-0.01": 1.27060304685,
			"-0.009": 5.00173902391,
			"-0.008": 8.50450318377,
			"-0.007": 14.8166040563,
			"-0.006": 13.05339806,
			"-0.005": 12.6961402782,
			"-0.004": 11.5417374889,
			"-0.003": 6.39131256889,
			"-0.002": 5.40190186575,
			"-0.001": 3.64020206794,
			"0.0": 3.51622061898,
			"0.001": 3.34471950206,
			"0.002": 3.34300383949,
			"0.003": 3.57670388342,
			"0.004": 3.31517387077,
			"0.005": 4.24304765255,
			"0.006": 4.25040360075,
			"0.007": 4.80792239214,
			"0.008": 6.77857654475,
			"0.009": 6.71358168737,
			"0.01": 6.76470036124,
			"0.011": 7.2973956861,
			"0.012": 5.16123841384,
			"0.013": 0.646578138094,
			"0.014": 0.0,
			"0.015": 0.0,
			"0.016": 0.0,
			"0.017": 0.0,
			"0.018": 0.0,
			"0.019": 0.0,
			"0.02": 0.0,
			"0.021": 0.0,
			"0.022": 0.0,
			"0.023": 0.0,
			"0.024": 0.0,
			"0.025": 0.0
		}
	}
}
