{
	 "smiles": "COC1=CC=CC=C1C1=CC=C(O1)C=C1N=C(OC1=O)C1=CC=CC=C1", 
	 "Tm": 443.15, 
	 "num_atms": 41, 
	 "gaussian": { 
		 "optdone": 1, 
		 "sigma_profile": "yes", 
		 "theory": "DFT", 
		 "functional": "B3LYP", 
		 "basiset": "6-31G**", 
		 "properties": { 
			 "R2extent": 16790.3892, 
			 "electric_dipole_moment_norm": 6.37759149601, 
			 "electric_quadrupole_moment_norm": 32.0639060882, 
			 "total_energy": -1164.90767638, 
			 "HOMO_LUMO_gap": 0.10285, 
			 "cosmo_polarized_energy": -13.72, 
			 "cosmo_cavitation_energy": 47.39, 
			 "cosmo_dispersion_energy": -34.13, 
			 "cosmo_repulsion_energy": 2.51, 
			 "cosmo_total_nonelectrostatic_energy": 15.78, 
			 "SMD_solvation_energy": 9.11 
		},
		"coords": [
			{
				"x": 0.0767748033,
				"y": 1.9989127931,
				"z": -5.7924903291,
				"element": "C" 
			},
			{
				"x": -0.4673993967,
				"y": 1.9430134267,
				"z": -4.4812724438,
				"element": "O" 
			},
			{
				"x": -1.778634805,
				"y": 2.2700954144,
				"z": -4.298191409,
				"element": "C" 
			},
			{
				"x": -2.6236558002,
				"y": 2.6609488594,
				"z": -5.3413524518,
				"element": "C" 
			},
			{
				"x": -3.9576815216,
				"y": 2.9829785128,
				"z": -5.0861609318,
				"element": "C" 
			},
			{
				"x": -4.4599776367,
				"y": 2.917719313,
				"z": -3.7874180503,
				"element": "C" 
			},
			{
				"x": -3.6221078101,
				"y": 2.5292773635,
				"z": -2.7473091048,
				"element": "C" 
			},
			{
				"x": -2.2725878192,
				"y": 2.1977649139,
				"z": -2.9686451302,
				"element": "C" 
			},
			{
				"x": -1.4356933981,
				"y": 1.7968705493,
				"z": -1.8482163869,
				"element": "C" 
			},
			{
				"x": -0.1108935863,
				"y": 1.4162831688,
				"z": -1.7017613701,
				"element": "C" 
			},
			{
				"x": 0.0934393331,
				"y": 1.1476408326,
				"z": -0.3324980597,
				"element": "C" 
			},
			{
				"x": -1.1126394298,
				"y": 1.3735816556,
				"z": 0.3078800625,
				"element": "C" 
			},
			{
				"x": -2.0432688946,
				"y": 1.7705715543,
				"z": -0.6266480696,
				"element": "O" 
			},
			{
				"x": -1.562039356,
				"y": 1.2856572743,
				"z": 1.6492620999,
				"element": "C" 
			},
			{
				"x": -0.8189932103,
				"y": 0.916102269,
				"z": 2.7335031255,
				"element": "C" 
			},
			{
				"x": 0.52364316,
				"y": 0.5494700076,
				"z": 2.7634510019,
				"element": "N" 
			},
			{
				"x": 0.7818558877,
				"y": 0.2857258739,
				"z": 4.0079823402,
				"element": "C" 
			},
			{
				"x": -0.2694522212,
				"y": 0.4328061136,
				"z": 4.8816846367,
				"element": "O" 
			},
			{
				"x": -1.3674133138,
				"y": 0.850944572,
				"z": 4.0987845724,
				"element": "C" 
			},
			{
				"x": -2.4522030925,
				"y": 1.069413438,
				"z": 4.5726491982,
				"element": "O" 
			},
			{
				"x": 2.0575802694,
				"y": -0.1451571853,
				"z": 4.5660943639,
				"element": "C" 
			},
			{
				"x": 2.1925822327,
				"y": -0.3966589738,
				"z": 5.9416086985,
				"element": "C" 
			},
			{
				"x": 3.4206306769,
				"y": -0.8077061498,
				"z": 6.4553035114,
				"element": "C" 
			},
			{
				"x": 4.5182913207,
				"y": -0.9706030111,
				"z": 5.607242944,
				"element": "C" 
			},
			{
				"x": 4.386674099,
				"y": -0.7208315004,
				"z": 4.2369536516,
				"element": "C" 
			},
			{
				"x": 3.1648645012,
				"y": -0.3102867658,
				"z": 3.7154783332,
				"element": "C" 
			},
			{
				"x": 1.1214280199,
				"y": 1.7001782263,
				"z": -5.6953921263,
				"element": "H" 
			},
			{
				"x": -0.4355844075,
				"y": 1.3060446936,
				"z": -6.471060516,
				"element": "H" 
			},
			{
				"x": 0.0280229699,
				"y": 3.0136768615,
				"z": -6.2059321174,
				"element": "H" 
			},
			{
				"x": -2.2482979542,
				"y": 2.7166595281,
				"z": -6.3555927632,
				"element": "H" 
			},
			{
				"x": -4.5984639178,
				"y": 3.2843003047,
				"z": -5.9095370648,
				"element": "H" 
			},
			{
				"x": -5.4963559757,
				"y": 3.1670462377,
				"z": -3.5837490869,
				"element": "H" 
			},
			{
				"x": -4.0039181637,
				"y": 2.4757316286,
				"z": -1.7345249053,
				"element": "H" 
			},
			{
				"x": 0.6089836792,
				"y": 1.34624083,
				"z": -2.4987476737,
				"element": "H" 
			},
			{
				"x": 0.997672112,
				"y": 0.8263210674,
				"z": 0.1612465859,
				"element": "H" 
			},
			{
				"x": -2.602532671,
				"y": 1.5372491052,
				"z": 1.8357094269,
				"element": "H" 
			},
			{
				"x": 1.3358451791,
				"y": -0.2679341888,
				"z": 6.5935361312,
				"element": "H" 
			},
			{
				"x": 3.5210437488,
				"y": -1.0011532402,
				"z": 7.5190925721,
				"element": "H" 
			},
			{
				"x": 5.4741816539,
				"y": -1.2911680751,
				"z": 6.0113279309,
				"element": "H" 
			},
			{
				"x": 5.2397384966,
				"y": -0.8472555131,
				"z": 3.5768969418,
				"element": "H" 
			},
			{
				"x": 3.0453422388,
				"y": -0.1123717853,
				"z": 2.6559118621,
				"element": "H" 
			}
		],
		 "valence_orbital": [ 
			{
				"type": "occ",
				"energy": -0.26463,
				"method": "rhf"
			},
			{
				"type": "occ",
				"energy": -0.26087,
				"method": "rhf"
			},
			{
				"type": "occ",
				"energy": -0.24931,
				"method": "rhf"
			},
			{
				"type": "occ",
				"energy": -0.23444,
				"method": "rhf"
			},
			{
				"type": "occ",
				"energy": -0.19154,
				"method": "rhf"
			},
			{
				"type": "unocc",
				"energy": -0.08869,
				"method": "rhf"
			},
			{
				"type": "unocc",
				"energy": -0.03688,
				"method": "rhf"
			},
			{
				"type": "unocc",
				"energy": -0.01764,
				"method": "rhf"
			},
			{
				"type": "unocc",
				"energy": -0.00934,
				"method": "rhf"
			},
			{
				"type": "unocc",
				"energy": 0.00244,
				"method": "rhf"
			}
		],
		"cosmo_sigma_profile": { 
			"-0.025": 0.0,
			"-0.024": 0.0,
			"-0.023": 0.0,
			"-0.022": 0.0,
			"-0.021": 0.0,
			"-0.02": 0.0,
			"-0.019": 0.0,
			"-0.018": 0.0,
			"-0.017": 0.0,
			"-0.016": 0.0,
			"-0.015": 0.0,
			"-0.014": 0.0,
			"-0.013": 0.0,
			"-0.012": 0.0,
			"-0.011": 0.0,
			"-0.01": 0.0,
			"-0.009": 0.139222826466,
			"-0.008": 0.715183133957,
			"-0.007": 6.13685164774,
			"-0.006": 23.9885044,
			"-0.005": 32.3844634772,
			"-0.004": 33.0435106973,
			"-0.003": 24.9972205007,
			"-0.002": 24.3332832359,
			"-0.001": 24.4660371876,
			"0.0": 28.3412344401,
			"0.001": 37.9101412815,
			"0.002": 40.4299956842,
			"0.003": 37.017901028,
			"0.004": 29.4904717527,
			"0.005": 13.1311026732,
			"0.006": 5.20763425251,
			"0.007": 4.4736737129,
			"0.008": 3.08525883224,
			"0.009": 2.28771916363,
			"0.01": 3.49221990084,
			"0.011": 5.90041526456,
			"0.012": 1.50217830493,
			"0.013": 0.0,
			"0.014": 0.0,
			"0.015": 0.0,
			"0.016": 0.0,
			"0.017": 0.0,
			"0.018": 0.0,
			"0.019": 0.0,
			"0.02": 0.0,
			"0.021": 0.0,
			"0.022": 0.0,
			"0.023": 0.0,
			"0.024": 0.0,
			"0.025": 0.0
		}
	}
}
