{
	 "smiles": "ClC1=CC(N=C=O)=C(Cl)C=C1", 
	 "Tm": 303.15, 
	 "num_atms": 14, 
	 "gaussian": { 
		 "optdone": 1, 
		 "sigma_profile": "yes", 
		 "theory": "DFT", 
		 "functional": "B3LYP", 
		 "basiset": "6-31G**", 
		 "properties": { 
			 "R2extent": 3541.8056, 
			 "electric_dipole_moment_norm": 1.92414870787, 
			 "electric_quadrupole_moment_norm": 9.4775325465, 
			 "total_energy": -1318.91000656, 
			 "HOMO_LUMO_gap": 0.20451, 
			 "cosmo_polarized_energy": -4.58, 
			 "cosmo_cavitation_energy": 23.53, 
			 "cosmo_dispersion_energy": -17.4, 
			 "cosmo_repulsion_energy": 1.4, 
			 "cosmo_total_nonelectrostatic_energy": 7.52, 
			 "SMD_solvation_energy": 5.58 
		},
		"coords": [
			{
				"x": -1.1104300384,
				"y": 2.9450651705,
				"z": -1.8193733877,
				"element": "Cl" 
			},
			{
				"x": -1.2418891396,
				"y": 1.7982238213,
				"z": -0.4998491695,
				"element": "C" 
			},
			{
				"x": -1.573764903,
				"y": 0.4779355544,
				"z": -0.7808526755,
				"element": "C" 
			},
			{
				"x": -1.6842206097,
				"y": -0.455899484,
				"z": 0.2601259271,
				"element": "C" 
			},
			{
				"x": -2.0176057837,
				"y": -1.7565254607,
				"z": -0.0797143524,
				"element": "N" 
			},
			{
				"x": -2.2146135975,
				"y": -2.8362849748,
				"z": 0.4396144849,
				"element": "C" 
			},
			{
				"x": -2.4354541861,
				"y": -3.9394118099,
				"z": 0.7771089333,
				"element": "O" 
			},
			{
				"x": -1.4524233198,
				"y": -0.0249966515,
				"z": 1.5821871601,
				"element": "C" 
			},
			{
				"x": -1.5796648825,
				"y": -1.1577827875,
				"z": 2.9080945794,
				"element": "Cl" 
			},
			{
				"x": -1.1207400359,
				"y": 1.3021608717,
				"z": 1.8460002164,
				"element": "C" 
			},
			{
				"x": -1.0125443132,
				"y": 2.2252521277,
				"z": 0.8081192188,
				"element": "C" 
			},
			{
				"x": -1.7513396118,
				"y": 0.1492096732,
				"z": -1.7973603226,
				"element": "H" 
			},
			{
				"x": -0.9469919978,
				"y": 1.61066122,
				"z": 2.8707734666,
				"element": "H" 
			},
			{
				"x": -0.754617581,
				"y": 3.2575927296,
				"z": 1.0128259211,
				"element": "H" 
			}
		],
		 "valence_orbital": [ 
			{
				"type": "occ",
				"energy": -0.32826,
				"method": "rhf"
			},
			{
				"type": "occ",
				"energy": -0.32338,
				"method": "rhf"
			},
			{
				"type": "occ",
				"energy": -0.32273,
				"method": "rhf"
			},
			{
				"type": "occ",
				"energy": -0.26838,
				"method": "rhf"
			},
			{
				"type": "occ",
				"energy": -0.24966,
				"method": "rhf"
			},
			{
				"type": "unocc",
				"energy": -0.04515,
				"method": "rhf"
			},
			{
				"type": "unocc",
				"energy": -0.03619,
				"method": "rhf"
			},
			{
				"type": "unocc",
				"energy": -0.00713,
				"method": "rhf"
			},
			{
				"type": "unocc",
				"energy": 0.01693,
				"method": "rhf"
			},
			{
				"type": "unocc",
				"energy": 0.02891,
				"method": "rhf"
			}
		],
		"cosmo_sigma_profile": { 
			"-0.025": 0.0,
			"-0.024": 0.0,
			"-0.023": 0.0,
			"-0.022": 0.0,
			"-0.021": 0.0,
			"-0.02": 0.0,
			"-0.019": 0.0,
			"-0.018": 0.0,
			"-0.017": 0.0,
			"-0.016": 0.0,
			"-0.015": 0.0,
			"-0.014": 0.0,
			"-0.013": 0.0,
			"-0.012": 0.0,
			"-0.011": 0.0,
			"-0.01": 0.0,
			"-0.009": 1.20303741829,
			"-0.008": 5.14769050949,
			"-0.007": 4.73251283951,
			"-0.006": 5.73762614601,
			"-0.005": 5.09152219682,
			"-0.004": 9.59946658895,
			"-0.003": 12.9511025993,
			"-0.002": 14.49022687,
			"-0.001": 16.9443319126,
			"0.0": 26.729448574,
			"0.001": 28.50083975,
			"0.002": 18.743006607,
			"0.003": 15.7781860655,
			"0.004": 14.9615649207,
			"0.005": 4.01361217484,
			"0.006": 3.85015752831,
			"0.007": 7.02109199324,
			"0.008": 0.0708085404295,
			"0.009": 0.0,
			"0.01": 0.0,
			"0.011": 0.0,
			"0.012": 0.0,
			"0.013": 0.0,
			"0.014": 0.0,
			"0.015": 0.0,
			"0.016": 0.0,
			"0.017": 0.0,
			"0.018": 0.0,
			"0.019": 0.0,
			"0.02": 0.0,
			"0.021": 0.0,
			"0.022": 0.0,
			"0.023": 0.0,
			"0.024": 0.0,
			"0.025": 0.0
		}
	}
}
