{
	 "smiles": "CSC1=NN(C)C(N)=C1C#N", 
	 "Tm": 397.15, 
	 "num_atms": 19, 
	 "gaussian": { 
		 "optdone": 1, 
		 "sigma_profile": "yes", 
		 "theory": "DFT", 
		 "functional": "B3LYP", 
		 "basiset": "6-31G**", 
		 "properties": { 
			 "R2extent": 2314.8796, 
			 "electric_dipole_moment_norm": 6.41626774769, 
			 "electric_quadrupole_moment_norm": 22.3068256502, 
			 "total_energy": -850.619199099, 
			 "HOMO_LUMO_gap": 0.21446, 
			 "cosmo_polarized_energy": -17.97, 
			 "cosmo_cavitation_energy": 25.87, 
			 "cosmo_dispersion_energy": -18.72, 
			 "cosmo_repulsion_energy": 1.49, 
			 "cosmo_total_nonelectrostatic_energy": 8.64, 
			 "SMD_solvation_energy": 5.21 
		},
		"coords": [
			{
				"x": -1.4315464238,
				"y": 3.079374082,
				"z": -0.9799763029,
				"element": "C" 
			},
			{
				"x": -0.9238218242,
				"y": 2.629543936,
				"z": 0.7151051676,
				"element": "S" 
			},
			{
				"x": -0.1884810987,
				"y": 1.0590222075,
				"z": 0.4070919037,
				"element": "C" 
			},
			{
				"x": -0.1185045568,
				"y": 0.5164624359,
				"z": -0.7977597604,
				"element": "N" 
			},
			{
				"x": 0.5030776845,
				"y": -0.6980871036,
				"z": -0.6057272469,
				"element": "N" 
			},
			{
				"x": 0.7347119319,
				"y": -1.5758672554,
				"z": -1.7334791064,
				"element": "C" 
			},
			{
				"x": 0.8418964419,
				"y": -0.9046030457,
				"z": 0.6857073419,
				"element": "C" 
			},
			{
				"x": 1.4315069194,
				"y": -2.0717788482,
				"z": 1.1344736781,
				"element": "N" 
			},
			{
				"x": 0.4057305925,
				"y": 0.218174428,
				"z": 1.4012779231,
				"element": "C" 
			},
			{
				"x": 0.5719055362,
				"y": 0.4145909368,
				"z": 2.7884647922,
				"element": "C" 
			},
			{
				"x": 0.7362620667,
				"y": 0.534258348,
				"z": 3.9370546785,
				"element": "N" 
			},
			{
				"x": -0.563827555,
				"y": 3.1364684078,
				"z": -1.6382103062,
				"element": "H" 
			},
			{
				"x": -1.9047743645,
				"y": 4.0596101981,
				"z": -0.8981598937,
				"element": "H" 
			},
			{
				"x": -2.1427851904,
				"y": 2.3521839755,
				"z": -1.3734351675,
				"element": "H" 
			},
			{
				"x": -0.0313176337,
				"y": -1.3678602092,
				"z": -2.4805379277,
				"element": "H" 
			},
			{
				"x": 0.6501105811,
				"y": -2.615493417,
				"z": -1.4060188783,
				"element": "H" 
			},
			{
				"x": 1.7216068828,
				"y": -1.4122620088,
				"z": -2.1826454291,
				"element": "H" 
			},
			{
				"x": 2.227518071,
				"y": -2.3913852877,
				"z": 0.5961952368,
				"element": "H" 
			},
			{
				"x": 1.6425319391,
				"y": -2.0463517799,
				"z": 2.1247792972,
				"element": "H" 
			}
		],
		 "valence_orbital": [ 
			{
				"type": "occ",
				"energy": -0.32856,
				"method": "rhf"
			},
			{
				"type": "occ",
				"energy": -0.30022,
				"method": "rhf"
			},
			{
				"type": "occ",
				"energy": -0.28815,
				"method": "rhf"
			},
			{
				"type": "occ",
				"energy": -0.23072,
				"method": "rhf"
			},
			{
				"type": "occ",
				"energy": -0.21475,
				"method": "rhf"
			},
			{
				"type": "unocc",
				"energy": -0.00029,
				"method": "rhf"
			},
			{
				"type": "unocc",
				"energy": 0.01707,
				"method": "rhf"
			},
			{
				"type": "unocc",
				"energy": 0.01981,
				"method": "rhf"
			},
			{
				"type": "unocc",
				"energy": 0.03761,
				"method": "rhf"
			},
			{
				"type": "unocc",
				"energy": 0.05971,
				"method": "rhf"
			}
		],
		"cosmo_sigma_profile": { 
			"-0.025": 0.0,
			"-0.024": 0.0,
			"-0.023": 0.0,
			"-0.022": 0.0,
			"-0.021": 0.0,
			"-0.02": 0.0,
			"-0.019": 0.0,
			"-0.018": 0.0,
			"-0.017": 0.0,
			"-0.016": 0.0,
			"-0.015": 0.538008337738,
			"-0.014": 2.06589780814,
			"-0.013": 2.8739185724,
			"-0.012": 3.18200040225,
			"-0.011": 2.50780525054,
			"-0.01": 2.51706329566,
			"-0.009": 2.59411728278,
			"-0.008": 2.66144905496,
			"-0.007": 8.24020651224,
			"-0.006": 10.9888400294,
			"-0.005": 13.012181322,
			"-0.004": 13.6415611771,
			"-0.003": 14.1927073194,
			"-0.002": 11.355387872,
			"-0.001": 10.434867904,
			"0.0": 11.5466625851,
			"0.001": 12.6010151227,
			"0.002": 13.082556855,
			"0.003": 12.4375310274,
			"0.004": 9.06746942344,
			"0.005": 6.32348578268,
			"0.006": 7.8010603034,
			"0.007": 7.6600621974,
			"0.008": 5.46439249539,
			"0.009": 4.67376698879,
			"0.01": 5.75145196212,
			"0.011": 4.29864371008,
			"0.012": 3.58144226605,
			"0.013": 2.72559428524,
			"0.014": 0.762657821613,
			"0.015": 0.0,
			"0.016": 0.0,
			"0.017": 0.0,
			"0.018": 0.0,
			"0.019": 0.0,
			"0.02": 0.0,
			"0.021": 0.0,
			"0.022": 0.0,
			"0.023": 0.0,
			"0.024": 0.0,
			"0.025": 0.0
		}
	}
}
