{
	 "smiles": "CN1C(=S)NN=C1C(F)(F)F", 
	 "Tm": 390.15, 
	 "num_atms": 15, 
	 "gaussian": { 
		 "optdone": 1, 
		 "sigma_profile": "yes", 
		 "theory": "DFT", 
		 "functional": "B3LYP", 
		 "basiset": "6-31G**", 
		 "properties": { 
			 "R2extent": 2155.8906, 
			 "electric_dipole_moment_norm": 2.03783791308, 
			 "electric_quadrupole_moment_norm": 16.0659740088, 
			 "total_energy": -1016.7894284, 
			 "HOMO_LUMO_gap": 0.19017, 
			 "cosmo_polarized_energy": -12.56, 
			 "cosmo_cavitation_energy": 22.61, 
			 "cosmo_dispersion_energy": -16.71, 
			 "cosmo_repulsion_energy": 1.25, 
			 "cosmo_total_nonelectrostatic_energy": 7.15, 
			 "SMD_solvation_energy": 3.39 
		},
		"coords": [
			{
				"x": 1.5083283124,
				"y": 1.6122233774,
				"z": -0.9161700152,
				"element": "C" 
			},
			{
				"x": 0.3731102242,
				"y": 0.6998180627,
				"z": -0.9877804941,
				"element": "N" 
			},
			{
				"x": -0.6353639354,
				"y": 0.8110958594,
				"z": -1.9350149001,
				"element": "C" 
			},
			{
				"x": -0.8025215228,
				"y": 1.9340559995,
				"z": -3.1506705375,
				"element": "S" 
			},
			{
				"x": -1.4503185251,
				"y": -0.238815937,
				"z": -1.6080827942,
				"element": "N" 
			},
			{
				"x": -1.02557505,
				"y": -0.9762848162,
				"z": -0.5471850618,
				"element": "N" 
			},
			{
				"x": 0.0786634322,
				"y": -0.3853472723,
				"z": -0.193127055,
				"element": "C" 
			},
			{
				"x": 0.9276599944,
				"y": -0.8457307468,
				"z": 0.9565468253,
				"element": "C" 
			},
			{
				"x": 1.0536717543,
				"y": 0.1353764645,
				"z": 1.8778384005,
				"element": "F" 
			},
			{
				"x": 2.1752979911,
				"y": -1.150391418,
				"z": 0.5347746014,
				"element": "F" 
			},
			{
				"x": 0.4007689732,
				"y": -1.9189930825,
				"z": 1.5440047986,
				"element": "F" 
			},
			{
				"x": 1.1440317495,
				"y": 2.6301829728,
				"z": -0.7619932803,
				"element": "H" 
			},
			{
				"x": 2.0573954455,
				"y": 1.5797475474,
				"z": -1.859668386,
				"element": "H" 
			},
			{
				"x": 2.1563801229,
				"y": 1.3166133347,
				"z": -0.0941055336,
				"element": "H" 
			},
			{
				"x": -2.3036289663,
				"y": -0.4778503455,
				"z": -2.0902665679,
				"element": "H" 
			}
		],
		 "valence_orbital": [ 
			{
				"type": "occ",
				"energy": -0.35153,
				"method": "rhf"
			},
			{
				"type": "occ",
				"energy": -0.33981,
				"method": "rhf"
			},
			{
				"type": "occ",
				"energy": -0.33632,
				"method": "rhf"
			},
			{
				"type": "occ",
				"energy": -0.22538,
				"method": "rhf"
			},
			{
				"type": "occ",
				"energy": -0.22186,
				"method": "rhf"
			},
			{
				"type": "unocc",
				"energy": -0.03169,
				"method": "rhf"
			},
			{
				"type": "unocc",
				"energy": -0.01532,
				"method": "rhf"
			},
			{
				"type": "unocc",
				"energy": 0.06475,
				"method": "rhf"
			},
			{
				"type": "unocc",
				"energy": 0.08163,
				"method": "rhf"
			},
			{
				"type": "unocc",
				"energy": 0.09604,
				"method": "rhf"
			}
		],
		"cosmo_sigma_profile": { 
			"-0.025": 0.0,
			"-0.024": 0.0,
			"-0.023": 0.0,
			"-0.022": 0.0,
			"-0.021": 0.0,
			"-0.02": 0.0,
			"-0.019": 0.0675906131708,
			"-0.018": 1.41481549384,
			"-0.017": 0.960617914794,
			"-0.016": 1.33901372555,
			"-0.015": 0.92946700718,
			"-0.014": 0.421530201945,
			"-0.013": 1.12925514617,
			"-0.012": 1.01044915943,
			"-0.011": 0.360064203755,
			"-0.01": 0.75970617073,
			"-0.009": 0.967530535745,
			"-0.008": 1.85470899635,
			"-0.007": 5.25222070714,
			"-0.006": 9.40796258806,
			"-0.005": 16.2510163653,
			"-0.004": 14.1859850543,
			"-0.003": 9.28391208404,
			"-0.002": 7.95438769967,
			"-0.001": 8.34644187752,
			"0.0": 11.7259477909,
			"0.001": 22.7619792222,
			"0.002": 17.4820114765,
			"0.003": 4.53833751831,
			"0.004": 4.9483261505,
			"0.005": 4.2113236019,
			"0.006": 6.56426524514,
			"0.007": 3.99227293942,
			"0.008": 4.89718569543,
			"0.009": 7.84374916944,
			"0.01": 9.23159396814,
			"0.011": 3.69011471342,
			"0.012": 0.427591281038,
			"0.013": 0.0,
			"0.014": 0.0,
			"0.015": 0.0,
			"0.016": 0.0,
			"0.017": 0.0,
			"0.018": 0.0,
			"0.019": 0.0,
			"0.02": 0.0,
			"0.021": 0.0,
			"0.022": 0.0,
			"0.023": 0.0,
			"0.024": 0.0,
			"0.025": 0.0
		}
	}
}
