{
	 "smiles": "OC(=O)C1=CN2C=NN=C2C=C1", 
	 "Tm": 589.15, 
	 "num_atms": 17, 
	 "gaussian": { 
		 "optdone": 1, 
		 "sigma_profile": "yes", 
		 "theory": "DFT", 
		 "functional": "B3LYP", 
		 "basiset": "6-31G**", 
		 "properties": { 
			 "R2extent": 2196.172, 
			 "electric_dipole_moment_norm": 3.23566599327, 
			 "electric_quadrupole_moment_norm": 26.4522901697, 
			 "total_energy": -584.425212155, 
			 "HOMO_LUMO_gap": 0.16585, 
			 "cosmo_polarized_energy": -25.84, 
			 "cosmo_cavitation_energy": 22.44, 
			 "cosmo_dispersion_energy": -16.77, 
			 "cosmo_repulsion_energy": 1.3, 
			 "cosmo_total_nonelectrostatic_energy": 6.96, 
			 "SMD_solvation_energy": 3.84 
		},
		"coords": [
			{
				"x": -1.2232841599,
				"y": -2.6943329932,
				"z": 0.8008514184,
				"element": "O" 
			},
			{
				"x": -1.9172183365,
				"y": -1.7257222016,
				"z": 0.1447015707,
				"element": "C" 
			},
			{
				"x": -3.0886227397,
				"y": -1.8741553395,
				"z": -0.1032785315,
				"element": "O" 
			},
			{
				"x": -1.1635076908,
				"y": -0.4865317218,
				"z": -0.228588589,
				"element": "C" 
			},
			{
				"x": -0.0544381143,
				"y": -0.0783114643,
				"z": 0.4643892145,
				"element": "C" 
			},
			{
				"x": 0.5618292344,
				"y": 1.0927492223,
				"z": 0.102031644,
				"element": "N" 
			},
			{
				"x": 1.6621041457,
				"y": 1.7678506056,
				"z": 0.5780304352,
				"element": "C" 
			},
			{
				"x": 1.8559778405,
				"y": 2.863694413,
				"z": -0.1201546797,
				"element": "N" 
			},
			{
				"x": 0.887038183,
				"y": 2.9563752291,
				"z": -1.0823329454,
				"element": "N" 
			},
			{
				"x": 0.1040029812,
				"y": 1.8962890399,
				"z": -0.9545856096,
				"element": "C" 
			},
			{
				"x": -1.0577468415,
				"y": 1.4834421579,
				"z": -1.6606068599,
				"element": "C" 
			},
			{
				"x": -1.6813624348,
				"y": 0.3240382944,
				"z": -1.2962075532,
				"element": "C" 
			},
			{
				"x": -0.271311577,
				"y": -2.5487661724,
				"z": 0.7112065505,
				"element": "H" 
			},
			{
				"x": 0.3602825218,
				"y": -0.5946113131,
				"z": 1.3229315045,
				"element": "H" 
			},
			{
				"x": 2.2628468873,
				"y": 1.4220779979,
				"z": 1.4060532454,
				"element": "H" 
			},
			{
				"x": -1.4194987964,
				"y": 2.1114787642,
				"z": -2.4660009528,
				"element": "H" 
			},
			{
				"x": -2.5809911031,
				"y": -0.0178645184,
				"z": -1.7942398622,
				"element": "H" 
			}
		],
		 "valence_orbital": [ 
			{
				"type": "occ",
				"energy": -0.32994,
				"method": "rhf"
			},
			{
				"type": "occ",
				"energy": -0.3016,
				"method": "rhf"
			},
			{
				"type": "occ",
				"energy": -0.28995,
				"method": "rhf"
			},
			{
				"type": "occ",
				"energy": -0.26832,
				"method": "rhf"
			},
			{
				"type": "occ",
				"energy": -0.24805,
				"method": "rhf"
			},
			{
				"type": "unocc",
				"energy": -0.0822,
				"method": "rhf"
			},
			{
				"type": "unocc",
				"energy": -0.04868,
				"method": "rhf"
			},
			{
				"type": "unocc",
				"energy": 0.01348,
				"method": "rhf"
			},
			{
				"type": "unocc",
				"energy": 0.03778,
				"method": "rhf"
			},
			{
				"type": "unocc",
				"energy": 0.04327,
				"method": "rhf"
			}
		],
		"cosmo_sigma_profile": { 
			"-0.025": 0.0,
			"-0.024": 0.0,
			"-0.023": 0.0,
			"-0.022": 0.0,
			"-0.021": 0.0,
			"-0.02": 0.386356329815,
			"-0.019": 1.3581778359,
			"-0.018": 1.14111888784,
			"-0.017": 0.890728738871,
			"-0.016": 1.63883260383,
			"-0.015": 0.987188733523,
			"-0.014": 1.18572909701,
			"-0.013": 3.57188948423,
			"-0.012": 3.68022064003,
			"-0.011": 4.64103724149,
			"-0.01": 2.70852777452,
			"-0.009": 3.42237936529,
			"-0.008": 6.29678038362,
			"-0.007": 6.40590729723,
			"-0.006": 6.93353265919,
			"-0.005": 7.94613994591,
			"-0.004": 11.5369013379,
			"-0.003": 10.8544023014,
			"-0.002": 9.40686607097,
			"-0.001": 8.10288886443,
			"0.0": 10.7934553316,
			"0.001": 8.8094099294,
			"0.002": 5.09263564679,
			"0.003": 3.73804100742,
			"0.004": 4.19340975282,
			"0.005": 5.36138524035,
			"0.006": 3.42977544298,
			"0.007": 3.72952548761,
			"0.008": 5.03395684396,
			"0.009": 6.37499795219,
			"0.01": 7.84678548802,
			"0.011": 7.47007074869,
			"0.012": 5.17974852417,
			"0.013": 4.09329390245,
			"0.014": 2.7580011106,
			"0.015": 2.46600560834,
			"0.016": 1.80206832988,
			"0.017": 0.347873836816,
			"0.018": 0.0,
			"0.019": 0.0,
			"0.02": 0.0,
			"0.021": 0.0,
			"0.022": 0.0,
			"0.023": 0.0,
			"0.024": 0.0,
			"0.025": 0.0
		}
	}
}
