{
	 "smiles": "NC1=C2C=CC=CC2=C(Cl)N=N1", 
	 "Tm": 433.15, 
	 "num_atms": 18, 
	 "gaussian": { 
		 "optdone": 1, 
		 "sigma_profile": "yes", 
		 "theory": "DFT", 
		 "functional": "B3LYP", 
		 "basiset": "6-31G**", 
		 "properties": { 
			 "R2extent": 2803.1937, 
			 "electric_dipole_moment_norm": 6.82156715352, 
			 "electric_quadrupole_moment_norm": 9.1949807493, 
			 "total_energy": -932.872622756, 
			 "HOMO_LUMO_gap": 0.16576, 
			 "cosmo_polarized_energy": -18.83, 
			 "cosmo_cavitation_energy": 24.04, 
			 "cosmo_dispersion_energy": -18.26, 
			 "cosmo_repulsion_energy": 1.43, 
			 "cosmo_total_nonelectrostatic_energy": 7.22, 
			 "SMD_solvation_energy": 1.83 
		},
		"coords": [
			{
				"x": -0.679288464,
				"y": -1.3145908242,
				"z": 1.4909738851,
				"element": "N" 
			},
			{
				"x": -0.0057040766,
				"y": -1.1026764668,
				"z": 0.2492464311,
				"element": "C" 
			},
			{
				"x": -0.0009292002,
				"y": 0.1757132931,
				"z": -0.4128365062,
				"element": "C" 
			},
			{
				"x": -0.6522818809,
				"y": 1.3246074036,
				"z": 0.0951054176,
				"element": "C" 
			},
			{
				"x": -0.6019186017,
				"y": 2.5160949225,
				"z": -0.599280241,
				"element": "C" 
			},
			{
				"x": 0.0989958135,
				"y": 2.6026133609,
				"z": -1.8226792797,
				"element": "C" 
			},
			{
				"x": 0.7435428798,
				"y": 1.4983510541,
				"z": -2.3419703356,
				"element": "C" 
			},
			{
				"x": 0.7026056585,
				"y": 0.2693080924,
				"z": -1.6443000982,
				"element": "C" 
			},
			{
				"x": 1.3229951838,
				"y": -0.9479984747,
				"z": -2.0652478426,
				"element": "C" 
			},
			{
				"x": 2.227780082,
				"y": -0.9719388239,
				"z": -3.5752677246,
				"element": "Cl" 
			},
			{
				"x": 1.2817240847,
				"y": -2.075172857,
				"z": -1.4191517555,
				"element": "N" 
			},
			{
				"x": 0.6048130389,
				"y": -2.1602749439,
				"z": -0.2368000613,
				"element": "N" 
			},
			{
				"x": -0.3090801967,
				"y": -0.7106028869,
				"z": 2.2199481937,
				"element": "H" 
			},
			{
				"x": -1.6747149595,
				"y": -1.1260636722,
				"z": 1.4082616567,
				"element": "H" 
			},
			{
				"x": -1.1899566597,
				"y": 1.2561764313,
				"z": 1.0346752029,
				"element": "H" 
			},
			{
				"x": -1.1034249615,
				"y": 3.3949905983,
				"z": -0.2053187754,
				"element": "H" 
			},
			{
				"x": 0.129608155,
				"y": 3.5470138533,
				"z": -2.3574048417,
				"element": "H" 
			},
			{
				"x": 1.2828341045,
				"y": 1.5585499401,
				"z": -3.2799533253,
				"element": "H" 
			}
		],
		 "valence_orbital": [ 
			{
				"type": "occ",
				"energy": -0.2998,
				"method": "rhf"
			},
			{
				"type": "occ",
				"energy": -0.29017,
				"method": "rhf"
			},
			{
				"type": "occ",
				"energy": -0.27146,
				"method": "rhf"
			},
			{
				"type": "occ",
				"energy": -0.25657,
				"method": "rhf"
			},
			{
				"type": "occ",
				"energy": -0.24073,
				"method": "rhf"
			},
			{
				"type": "unocc",
				"energy": -0.07497,
				"method": "rhf"
			},
			{
				"type": "unocc",
				"energy": -0.0556,
				"method": "rhf"
			},
			{
				"type": "unocc",
				"energy": 0.00692,
				"method": "rhf"
			},
			{
				"type": "unocc",
				"energy": 0.02796,
				"method": "rhf"
			},
			{
				"type": "unocc",
				"energy": 0.05506,
				"method": "rhf"
			}
		],
		"cosmo_sigma_profile": { 
			"-0.025": 0.0,
			"-0.024": 0.0,
			"-0.023": 0.0,
			"-0.022": 0.0,
			"-0.021": 0.0,
			"-0.02": 0.0,
			"-0.019": 0.0,
			"-0.018": 0.0,
			"-0.017": 0.0,
			"-0.016": 0.0,
			"-0.015": 0.0,
			"-0.014": 0.0,
			"-0.013": 0.453822676792,
			"-0.012": 2.56682283116,
			"-0.011": 3.55884887711,
			"-0.01": 5.0473523198,
			"-0.009": 3.81421182365,
			"-0.008": 4.38800977102,
			"-0.007": 9.92731352931,
			"-0.006": 10.4427528993,
			"-0.005": 9.40376320424,
			"-0.004": 6.85274144003,
			"-0.003": 12.3738472621,
			"-0.002": 14.5540436749,
			"-0.001": 14.417702536,
			"0.0": 15.669706236,
			"0.001": 15.7011207294,
			"0.002": 16.3493449056,
			"0.003": 8.29202235137,
			"0.004": 7.08201430009,
			"0.005": 3.11716953284,
			"0.006": 2.77999473241,
			"0.007": 2.85093932379,
			"0.008": 2.57905868838,
			"0.009": 2.19262512763,
			"0.01": 2.40439086977,
			"0.011": 3.24102717709,
			"0.012": 2.4421000189,
			"0.013": 3.22527918361,
			"0.014": 2.88568954257,
			"0.015": 2.09971758525,
			"0.016": 1.96243131239,
			"0.017": 1.4898388236,
			"0.018": 1.30247454722,
			"0.019": 0.238529932613,
			"0.02": 0.0,
			"0.021": 0.0,
			"0.022": 0.0,
			"0.023": 0.0,
			"0.024": 0.0,
			"0.025": 0.0
		}
	}
}
