{
	 "smiles": "CC(C)C1=NN(C(Cl)=C1C=O)C1=CC=CC=C1", 
	 "Tm": 327.15, 
	 "num_atms": 30, 
	 "gaussian": { 
		 "optdone": 1, 
		 "sigma_profile": "yes", 
		 "theory": "DFT", 
		 "functional": "B3LYP", 
		 "basiset": "6-31G**", 
		 "properties": { 
			 "R2extent": 5449.5126, 
			 "electric_dipole_moment_norm": 3.49186962815, 
			 "electric_quadrupole_moment_norm": 18.251881909, 
			 "total_energy": -1148.11142321, 
			 "HOMO_LUMO_gap": 0.19132, 
			 "cosmo_polarized_energy": -10.64, 
			 "cosmo_cavitation_energy": 35.4, 
			 "cosmo_dispersion_energy": -24.97, 
			 "cosmo_repulsion_energy": 1.95, 
			 "cosmo_total_nonelectrostatic_energy": 12.38, 
			 "SMD_solvation_energy": 6.16 
		},
		"coords": [
			{
				"x": -1.7646274112,
				"y": 3.4384085846,
				"z": -2.1049462854,
				"element": "C" 
			},
			{
				"x": -0.5777330117,
				"y": 2.4621426451,
				"z": -1.9906041778,
				"element": "C" 
			},
			{
				"x": 0.7725429357,
				"y": 3.1737586495,
				"z": -2.2021090046,
				"element": "C" 
			},
			{
				"x": -0.6120331266,
				"y": 1.6586986611,
				"z": -0.7108850569,
				"element": "C" 
			},
			{
				"x": -0.7472840252,
				"y": 0.3424977628,
				"z": -0.8020157433,
				"element": "N" 
			},
			{
				"x": -0.7359568539,
				"y": -0.1348493271,
				"z": 0.483730108,
				"element": "N" 
			},
			{
				"x": -0.6073504164,
				"y": 0.8804862848,
				"z": 1.3759748297,
				"element": "C" 
			},
			{
				"x": -0.6463650948,
				"y": 0.6484406073,
				"z": 3.0756999172,
				"element": "Cl" 
			},
			{
				"x": -0.513883814,
				"y": 2.0735815092,
				"z": 0.6572461471,
				"element": "C" 
			},
			{
				"x": -0.3597795688,
				"y": 3.422397642,
				"z": 1.2007564282,
				"element": "C" 
			},
			{
				"x": -0.2825782878,
				"y": 3.6987537888,
				"z": 2.3858410545,
				"element": "O" 
			},
			{
				"x": -0.8928664368,
				"y": -1.5391976624,
				"z": 0.6937409689,
				"element": "C" 
			},
			{
				"x": -0.0721429911,
				"y": -2.2267236957,
				"z": 1.591379241,
				"element": "C" 
			},
			{
				"x": -0.2474490981,
				"y": -3.6003295681,
				"z": 1.7603189213,
				"element": "C" 
			},
			{
				"x": -1.218306062,
				"y": -4.2844995291,
				"z": 1.0274637455,
				"element": "C" 
			},
			{
				"x": -2.0185935864,
				"y": -3.5902309613,
				"z": 0.1170404788,
				"element": "C" 
			},
			{
				"x": -1.8623273599,
				"y": -2.2162004413,
				"z": -0.0520173737,
				"element": "C" 
			},
			{
				"x": -1.7635143694,
				"y": 3.9181603459,
				"z": -3.0892832649,
				"element": "H" 
			},
			{
				"x": -2.71842285,
				"y": 2.9162042226,
				"z": -1.9833699244,
				"element": "H" 
			},
			{
				"x": -1.7169549885,
				"y": 4.2312044255,
				"z": -1.3514591885,
				"element": "H" 
			},
			{
				"x": -0.6859576856,
				"y": 1.7137601923,
				"z": -2.7843752866,
				"element": "H" 
			},
			{
				"x": 0.7950982191,
				"y": 3.6536992045,
				"z": -3.1860892868,
				"element": "H" 
			},
			{
				"x": 0.9471444635,
				"y": 3.9514118432,
				"z": -1.4514569196,
				"element": "H" 
			},
			{
				"x": 1.6040081134,
				"y": 2.4644368762,
				"z": -2.1515333252,
				"element": "H" 
			},
			{
				"x": -0.3136989739,
				"y": 4.2237509117,
				"z": 0.434810002,
				"element": "H" 
			},
			{
				"x": 0.699896224,
				"y": -1.7002337597,
				"z": 2.1394463189,
				"element": "H" 
			},
			{
				"x": 0.3881061244,
				"y": -4.136096629,
				"z": 2.4586412552,
				"element": "H" 
			},
			{
				"x": -1.3466155929,
				"y": -5.3545106829,
				"z": 1.1600161666,
				"element": "H" 
			},
			{
				"x": -2.7710935399,
				"y": -4.1177179562,
				"z": -0.4611603069,
				"element": "H" 
			},
			{
				"x": -2.4704609353,
				"y": -1.6615039443,
				"z": -0.7567004385,
				"element": "H" 
			}
		],
		 "valence_orbital": [ 
			{
				"type": "occ",
				"energy": -0.29003,
				"method": "rhf"
			},
			{
				"type": "occ",
				"energy": -0.26666,
				"method": "rhf"
			},
			{
				"type": "occ",
				"energy": -0.25439,
				"method": "rhf"
			},
			{
				"type": "occ",
				"energy": -0.2472,
				"method": "rhf"
			},
			{
				"type": "occ",
				"energy": -0.24489,
				"method": "rhf"
			},
			{
				"type": "unocc",
				"energy": -0.05357,
				"method": "rhf"
			},
			{
				"type": "unocc",
				"energy": -0.02118,
				"method": "rhf"
			},
			{
				"type": "unocc",
				"energy": -0.01682,
				"method": "rhf"
			},
			{
				"type": "unocc",
				"energy": 0.01485,
				"method": "rhf"
			},
			{
				"type": "unocc",
				"energy": 0.02704,
				"method": "rhf"
			}
		],
		"cosmo_sigma_profile": { 
			"-0.025": 0.0,
			"-0.024": 0.0,
			"-0.023": 0.0,
			"-0.022": 0.0,
			"-0.021": 0.0,
			"-0.02": 0.0,
			"-0.019": 0.0,
			"-0.018": 0.0,
			"-0.017": 0.0,
			"-0.016": 0.0,
			"-0.015": 0.0,
			"-0.014": 0.0,
			"-0.013": 0.0,
			"-0.012": 0.0,
			"-0.011": 0.0,
			"-0.01": 0.0,
			"-0.009": 0.0,
			"-0.008": 0.0421551994197,
			"-0.007": 5.60221510696,
			"-0.006": 15.7717113557,
			"-0.005": 15.2410414756,
			"-0.004": 20.2160538676,
			"-0.003": 27.5721699478,
			"-0.002": 28.1315883713,
			"-0.001": 32.4748810385,
			"0.0": 33.9394869858,
			"0.001": 22.5624113879,
			"0.002": 17.3808622728,
			"0.003": 17.5116746431,
			"0.004": 14.8866984693,
			"0.005": 4.9774702533,
			"0.006": 3.17262980514,
			"0.007": 3.15353466443,
			"0.008": 3.23804154129,
			"0.009": 2.87569732188,
			"0.01": 4.18033671244,
			"0.011": 4.66670501547,
			"0.012": 4.61416666384,
			"0.013": 2.01839197382,
			"0.014": 0.150760268545,
			"0.015": 0.0,
			"0.016": 0.0,
			"0.017": 0.0,
			"0.018": 0.0,
			"0.019": 0.0,
			"0.02": 0.0,
			"0.021": 0.0,
			"0.022": 0.0,
			"0.023": 0.0,
			"0.024": 0.0,
			"0.025": 0.0
		}
	}
}
