{
	 "smiles": "NC1=CC(=CC=C1)N1C=NN=C1", 
	 "Tm": 473.15, 
	 "num_atms": 20, 
	 "gaussian": { 
		 "optdone": 1, 
		 "sigma_profile": "yes", 
		 "theory": "DFT", 
		 "functional": "B3LYP", 
		 "basiset": "6-31G**", 
		 "properties": { 
			 "R2extent": 2637.2565, 
			 "electric_dipole_moment_norm": 7.34329785451, 
			 "electric_quadrupole_moment_norm": 24.7574971376, 
			 "total_energy": -528.650248567, 
			 "HOMO_LUMO_gap": 0.19479, 
			 "cosmo_polarized_energy": -19.85, 
			 "cosmo_cavitation_energy": 24.65, 
			 "cosmo_dispersion_energy": -18.12, 
			 "cosmo_repulsion_energy": 1.42, 
			 "cosmo_total_nonelectrostatic_energy": 7.95, 
			 "SMD_solvation_energy": 3.2 
		},
		"coords": [
			{
				"x": 2.1952991466,
				"y": -3.079580079,
				"z": -0.154436978,
				"element": "N" 
			},
			{
				"x": 1.5865067985,
				"y": -1.8793081471,
				"z": -0.5013002068,
				"element": "C" 
			},
			{
				"x": 0.1999308482,
				"y": -1.7129085549,
				"z": -0.3485504903,
				"element": "C" 
			},
			{
				"x": -0.4120525112,
				"y": -0.5272526926,
				"z": -0.7575497513,
				"element": "C" 
			},
			{
				"x": 0.3313749164,
				"y": 0.5198258331,
				"z": -1.3092682276,
				"element": "C" 
			},
			{
				"x": 1.7111327759,
				"y": 0.3559616735,
				"z": -1.4396607599,
				"element": "C" 
			},
			{
				"x": 2.3380303854,
				"y": -0.8225489133,
				"z": -1.0487484114,
				"element": "C" 
			},
			{
				"x": -1.8207225244,
				"y": -0.3864029344,
				"z": -0.6023322299,
				"element": "N" 
			},
			{
				"x": -2.5225411155,
				"y": 0.7167962691,
				"z": -0.1767797494,
				"element": "C" 
			},
			{
				"x": -3.809017153,
				"y": 0.4751196807,
				"z": -0.1546422037,
				"element": "N" 
			},
			{
				"x": -3.9890148385,
				"y": -0.8276676345,
				"z": -0.5861369226,
				"element": "N" 
			},
			{
				"x": -2.8027025909,
				"y": -1.3192144254,
				"z": -0.8407240737,
				"element": "C" 
			},
			{
				"x": 1.6988653615,
				"y": -3.6547236053,
				"z": 0.51106164,
				"element": "H" 
			},
			{
				"x": 3.1861724769,
				"y": -3.0331924808,
				"z": 0.0352204365,
				"element": "H" 
			},
			{
				"x": -0.3958020466,
				"y": -2.4985551628,
				"z": 0.1064094164,
				"element": "H" 
			},
			{
				"x": -0.1615555052,
				"y": 1.4232860941,
				"z": -1.64972294,
				"element": "H" 
			},
			{
				"x": 2.305851153,
				"y": 1.1587772121,
				"z": -1.8651728233,
				"element": "H" 
			},
			{
				"x": 3.412087741,
				"y": -0.935701645,
				"z": -1.1685382903,
				"element": "H" 
			},
			{
				"x": -2.0424494766,
				"y": 1.6372515152,
				"z": 0.1212149913,
				"element": "H" 
			},
			{
				"x": -2.5915938417,
				"y": -2.3084620028,
				"z": -1.219442426,
				"element": "H" 
			}
		],
		 "valence_orbital": [ 
			{
				"type": "occ",
				"energy": -0.30265,
				"method": "rhf"
			},
			{
				"type": "occ",
				"energy": -0.26026,
				"method": "rhf"
			},
			{
				"type": "occ",
				"energy": -0.25894,
				"method": "rhf"
			},
			{
				"type": "occ",
				"energy": -0.2454,
				"method": "rhf"
			},
			{
				"type": "occ",
				"energy": -0.22227,
				"method": "rhf"
			},
			{
				"type": "unocc",
				"energy": -0.02748,
				"method": "rhf"
			},
			{
				"type": "unocc",
				"energy": -0.00762,
				"method": "rhf"
			},
			{
				"type": "unocc",
				"energy": 0.03228,
				"method": "rhf"
			},
			{
				"type": "unocc",
				"energy": 0.04451,
				"method": "rhf"
			},
			{
				"type": "unocc",
				"energy": 0.06456,
				"method": "rhf"
			}
		],
		"cosmo_sigma_profile": { 
			"-0.025": 0.0,
			"-0.024": 0.0,
			"-0.023": 0.0,
			"-0.022": 0.0,
			"-0.021": 0.0,
			"-0.02": 0.0,
			"-0.019": 0.0,
			"-0.018": 0.0,
			"-0.017": 0.0,
			"-0.016": 0.0,
			"-0.015": 0.0,
			"-0.014": 0.0,
			"-0.013": 1.29593145752,
			"-0.012": 2.96157239034,
			"-0.011": 3.75697175021,
			"-0.01": 6.11700704217,
			"-0.009": 6.29157123201,
			"-0.008": 8.27567722001,
			"-0.007": 9.91751281617,
			"-0.006": 9.79668635318,
			"-0.005": 12.1553911164,
			"-0.004": 10.2313051623,
			"-0.003": 9.24083574003,
			"-0.002": 11.4547221857,
			"-0.001": 11.7792694291,
			"0.0": 8.37850705982,
			"0.001": 7.67981903382,
			"0.002": 9.809648933,
			"0.003": 8.8959882999,
			"0.004": 11.4155486285,
			"0.005": 11.5205398917,
			"0.006": 3.46219655786,
			"0.007": 3.37606261106,
			"0.008": 3.1209876541,
			"0.009": 2.34286165429,
			"0.01": 3.7051081065,
			"0.011": 3.09854647283,
			"0.012": 2.72225052917,
			"0.013": 4.88111212145,
			"0.014": 3.15584834056,
			"0.015": 3.02476785006,
			"0.016": 2.64450282994,
			"0.017": 1.08496812909,
			"0.018": 0.00670519328922,
			"0.019": 0.0,
			"0.02": 0.0,
			"0.021": 0.0,
			"0.022": 0.0,
			"0.023": 0.0,
			"0.024": 0.0,
			"0.025": 0.0
		}
	}
}
