{
	 "smiles": "NC1=NC=C(Br)C=N1", 
	 "Tm": 515.15, 
	 "num_atms": 12, 
	 "gaussian": { 
		 "optdone": 1, 
		 "sigma_profile": "yes", 
		 "theory": "DFT", 
		 "functional": "B3LYP", 
		 "basiset": "6-31G**", 
		 "properties": { 
			 "R2extent": 2570.4762, 
			 "electric_dipole_moment_norm": 1.89464802536, 
			 "electric_quadrupole_moment_norm": 6.44781836981, 
			 "total_energy": -2890.49856354, 
			 "HOMO_LUMO_gap": 0.18393, 
			 "cosmo_polarized_energy": -8.22, 
			 "cosmo_cavitation_energy": 18.93, 
			 "cosmo_dispersion_energy": -14.9, 
			 "cosmo_repulsion_energy": 1.25, 
			 "cosmo_total_nonelectrostatic_energy": 5.27, 
			 "SMD_solvation_energy": -0.63 
		},
		"coords": [
			{
				"x": -0.8288783248,
				"y": 0.3414127904,
				"z": -2.2334992717,
				"element": "N" 
			},
			{
				"x": -0.1146892467,
				"y": 0.5913718732,
				"z": -1.1021365753,
				"element": "C" 
			},
			{
				"x": 0.3180656794,
				"y": -0.4806071546,
				"z": -0.4056892923,
				"element": "N" 
			},
			{
				"x": 0.9818412069,
				"y": -0.2219485427,
				"z": 0.718552683,
				"element": "C" 
			},
			{
				"x": 1.2212591417,
				"y": 1.0808468907,
				"z": 1.1548670369,
				"element": "C" 
			},
			{
				"x": 2.1726482238,
				"y": 1.429658576,
				"z": 2.764067055,
				"element": "Br" 
			},
			{
				"x": 0.7407881932,
				"y": 2.1166313372,
				"z": 0.3540771875,
				"element": "C" 
			},
			{
				"x": 0.0740304132,
				"y": 1.88698812,
				"z": -0.7746949635,
				"element": "N" 
			},
			{
				"x": -0.8343083225,
				"y": -0.5997518904,
				"z": -2.5906494632,
				"element": "H" 
			},
			{
				"x": -1.0105774827,
				"y": 1.1103827334,
				"z": -2.8572341177,
				"element": "H" 
			},
			{
				"x": 1.3379278705,
				"y": -1.0757857865,
				"z": 1.2909602109,
				"element": "H" 
			},
			{
				"x": 0.9016926481,
				"y": 3.1562010534,
				"z": 0.6313795103,
				"element": "H" 
			}
		],
		 "valence_orbital": [ 
			{
				"type": "occ",
				"energy": -0.32128,
				"method": "rhf"
			},
			{
				"type": "occ",
				"energy": -0.2988,
				"method": "rhf"
			},
			{
				"type": "occ",
				"energy": -0.29783,
				"method": "rhf"
			},
			{
				"type": "occ",
				"energy": -0.25466,
				"method": "rhf"
			},
			{
				"type": "occ",
				"energy": -0.22733,
				"method": "rhf"
			},
			{
				"type": "unocc",
				"energy": -0.0434,
				"method": "rhf"
			},
			{
				"type": "unocc",
				"energy": -0.00953,
				"method": "rhf"
			},
			{
				"type": "unocc",
				"energy": 0.00531,
				"method": "rhf"
			},
			{
				"type": "unocc",
				"energy": 0.08711,
				"method": "rhf"
			},
			{
				"type": "unocc",
				"energy": 0.12926,
				"method": "rhf"
			}
		],
		"cosmo_sigma_profile": { 
			"-0.025": 0.0,
			"-0.024": 0.0,
			"-0.023": 0.0,
			"-0.022": 0.0,
			"-0.021": 0.0,
			"-0.02": 0.0,
			"-0.019": 0.0,
			"-0.018": 0.0,
			"-0.017": 0.0,
			"-0.016": 0.0,
			"-0.015": 0.117562397123,
			"-0.014": 1.44876152003,
			"-0.013": 2.41825692513,
			"-0.012": 1.79807871265,
			"-0.011": 2.04026468966,
			"-0.01": 1.58625337945,
			"-0.009": 2.02128626197,
			"-0.008": 4.8940033318,
			"-0.007": 4.95322974246,
			"-0.006": 4.64020913746,
			"-0.005": 4.87844675636,
			"-0.004": 6.2504606692,
			"-0.003": 6.81458569282,
			"-0.002": 9.58002974756,
			"-0.001": 12.7452809527,
			"0.0": 15.857008734,
			"0.001": 13.4146197344,
			"0.002": 8.72207040746,
			"0.003": 10.3662099697,
			"0.004": 14.975400423,
			"0.005": 6.27139210191,
			"0.006": 3.61248027875,
			"0.007": 3.63669311234,
			"0.008": 2.31018589249,
			"0.009": 1.8234835162,
			"0.01": 1.62867797882,
			"0.011": 1.6238394259,
			"0.012": 1.8552388839,
			"0.013": 1.54452605352,
			"0.014": 1.26472607067,
			"0.015": 0.141505139605,
			"0.016": 0.0,
			"0.017": 0.0,
			"0.018": 0.0,
			"0.019": 0.0,
			"0.02": 0.0,
			"0.021": 0.0,
			"0.022": 0.0,
			"0.023": 0.0,
			"0.024": 0.0,
			"0.025": 0.0
		}
	}
}
