{
	 "smiles": "ClC(=O)C1=CC(Br)=CN=C1", 
	 "Tm": 358.15, 
	 "num_atms": 13, 
	 "gaussian": { 
		 "optdone": 1, 
		 "sigma_profile": "yes", 
		 "theory": "DFT", 
		 "functional": "B3LYP", 
		 "basiset": "6-31G**", 
		 "properties": { 
			 "R2extent": 5949.5594, 
			 "electric_dipole_moment_norm": 1.83074602007, 
			 "electric_quadrupole_moment_norm": 9.00955064529, 
			 "total_energy": -3392.01166324, 
			 "HOMO_LUMO_gap": 0.17863, 
			 "cosmo_polarized_energy": -6.32, 
			 "cosmo_cavitation_energy": 22.53, 
			 "cosmo_dispersion_energy": -17.19, 
			 "cosmo_repulsion_energy": 1.39, 
			 "cosmo_total_nonelectrostatic_energy": 6.72, 
			 "SMD_solvation_energy": 2.01 
		},
		"coords": [
			{
				"x": -2.7139645967,
				"y": 1.5129445906,
				"z": 2.0677874593,
				"element": "Cl" 
			},
			{
				"x": -1.2627905575,
				"y": 0.9828821106,
				"z": 3.0227270134,
				"element": "C" 
			},
			{
				"x": -1.3772421008,
				"y": 0.756275911,
				"z": 4.1899825917,
				"element": "O" 
			},
			{
				"x": -0.0017751388,
				"y": 0.8690652848,
				"z": 2.2470673657,
				"element": "C" 
			},
			{
				"x": 1.1388350061,
				"y": 0.4611984579,
				"z": 2.9567885983,
				"element": "C" 
			},
			{
				"x": 2.3320953394,
				"y": 0.3452499188,
				"z": 2.2606151991,
				"element": "C" 
			},
			{
				"x": 3.9251150983,
				"y": -0.2013625975,
				"z": 3.1432641023,
				"element": "Br" 
			},
			{
				"x": 2.3593786171,
				"y": 0.6350094382,
				"z": 0.8913778856,
				"element": "C" 
			},
			{
				"x": 1.2759964237,
				"y": 1.0231202431,
				"z": 0.2140571262,
				"element": "N" 
			},
			{
				"x": 0.1210102742,
				"y": 1.1376413067,
				"z": 0.8769194697,
				"element": "C" 
			},
			{
				"x": 1.070407136,
				"y": 0.2474510062,
				"z": 4.0169080716,
				"element": "H" 
			},
			{
				"x": 3.2874761777,
				"y": 0.5487027176,
				"z": 0.3321108493,
				"element": "H" 
			},
			{
				"x": -0.7400416788,
				"y": 1.4548216119,
				"z": 0.2978942677,
				"element": "H" 
			}
		],
		 "valence_orbital": [ 
			{
				"type": "occ",
				"energy": -0.31883,
				"method": "rhf"
			},
			{
				"type": "occ",
				"energy": -0.31599,
				"method": "rhf"
			},
			{
				"type": "occ",
				"energy": -0.31261,
				"method": "rhf"
			},
			{
				"type": "occ",
				"energy": -0.2866,
				"method": "rhf"
			},
			{
				"type": "occ",
				"energy": -0.27806,
				"method": "rhf"
			},
			{
				"type": "unocc",
				"energy": -0.09943,
				"method": "rhf"
			},
			{
				"type": "unocc",
				"energy": -0.05801,
				"method": "rhf"
			},
			{
				"type": "unocc",
				"energy": -0.02114,
				"method": "rhf"
			},
			{
				"type": "unocc",
				"energy": 0.00043,
				"method": "rhf"
			},
			{
				"type": "unocc",
				"energy": 0.01416,
				"method": "rhf"
			}
		],
		"cosmo_sigma_profile": { 
			"-0.025": 0.0,
			"-0.024": 0.0,
			"-0.023": 0.0,
			"-0.022": 0.0,
			"-0.021": 0.0,
			"-0.02": 0.0,
			"-0.019": 0.0,
			"-0.018": 0.0,
			"-0.017": 0.0,
			"-0.016": 0.0,
			"-0.015": 0.0,
			"-0.014": 0.0,
			"-0.013": 0.0,
			"-0.012": 0.0,
			"-0.011": 0.0,
			"-0.01": 0.0243308238142,
			"-0.009": 1.7448294748,
			"-0.008": 3.90048305813,
			"-0.007": 4.17382794951,
			"-0.006": 6.72915496688,
			"-0.005": 10.1496483488,
			"-0.004": 13.4086206235,
			"-0.003": 17.8281571201,
			"-0.002": 21.0518654934,
			"-0.001": 14.8686807193,
			"0.0": 11.9986269016,
			"0.001": 13.2469736484,
			"0.002": 14.3710748471,
			"0.003": 19.2568121316,
			"0.004": 12.3773652064,
			"0.005": 4.40485213672,
			"0.006": 3.27429221944,
			"0.007": 4.1081233241,
			"0.008": 4.82191251495,
			"0.009": 1.9271251624,
			"0.01": 1.10795080254,
			"0.011": 0.963877329358,
			"0.012": 0.756994996095,
			"0.013": 0.762504625049,
			"0.014": 0.859973781387,
			"0.015": 0.0501933425921,
			"0.016": 0.0,
			"0.017": 0.0,
			"0.018": 0.0,
			"0.019": 0.0,
			"0.02": 0.0,
			"0.021": 0.0,
			"0.022": 0.0,
			"0.023": 0.0,
			"0.024": 0.0,
			"0.025": 0.0
		}
	}
}
