{
	 "smiles": "FC(F)(F)C1=C(C=C(O1)C1=CC=C(Cl)C=C1)C(Cl)=O", 
	 "Tm": 409.15, 
	 "num_atms": 24, 
	 "gaussian": { 
		 "optdone": 1, 
		 "sigma_profile": "yes", 
		 "theory": "DFT", 
		 "functional": "B3LYP", 
		 "basiset": "6-31G**", 
		 "properties": { 
			 "R2extent": 9147.5842, 
			 "electric_dipole_moment_norm": 3.36645321518, 
			 "electric_quadrupole_moment_norm": 15.5618589876, 
			 "total_energy": -1830.63082636, 
			 "HOMO_LUMO_gap": 0.15351, 
			 "cosmo_polarized_energy": -8.33, 
			 "cosmo_cavitation_energy": 35.43, 
			 "cosmo_dispersion_energy": -25.16, 
			 "cosmo_repulsion_energy": 1.87, 
			 "cosmo_total_nonelectrostatic_energy": 12.15, 
			 "SMD_solvation_energy": 7.66 
		},
		"coords": [
			{
				"x": -1.5947522044,
				"y": -1.6339595566,
				"z": 3.3108432974,
				"element": "F" 
			},
			{
				"x": -0.7421378652,
				"y": -0.7991037911,
				"z": 2.6931086376,
				"element": "C" 
			},
			{
				"x": 0.4779869576,
				"y": -1.3634284767,
				"z": 2.701622789,
				"element": "F" 
			},
			{
				"x": -0.6836138846,
				"y": 0.3374000712,
				"z": 3.4075879397,
				"element": "F" 
			},
			{
				"x": -1.1749033417,
				"y": -0.5296800443,
				"z": 1.2768775768,
				"element": "C" 
			},
			{
				"x": -2.3094176576,
				"y": 0.0211448812,
				"z": 0.7208417652,
				"element": "C" 
			},
			{
				"x": -2.1068614767,
				"y": -0.002518995,
				"z": -0.6953674618,
				"element": "C" 
			},
			{
				"x": -0.8754862502,
				"y": -0.5603957411,
				"z": -0.9089567645,
				"element": "C" 
			},
			{
				"x": -0.3116502647,
				"y": -0.8803532064,
				"z": 0.3059785566,
				"element": "O" 
			},
			{
				"x": -0.0916079158,
				"y": -0.8635843235,
				"z": -2.099610868,
				"element": "C" 
			},
			{
				"x": -0.5994085448,
				"y": -0.5678767534,
				"z": -3.3765499675,
				"element": "C" 
			},
			{
				"x": 0.1385497921,
				"y": -0.8520370383,
				"z": -4.5202122804,
				"element": "C" 
			},
			{
				"x": 1.3991312282,
				"y": -1.4384993238,
				"z": -4.3921308652,
				"element": "C" 
			},
			{
				"x": 2.3333593044,
				"y": -1.7986719137,
				"z": -5.8310377435,
				"element": "Cl" 
			},
			{
				"x": 1.92450416,
				"y": -1.7413503492,
				"z": -3.1359677291,
				"element": "C" 
			},
			{
				"x": 1.1794381971,
				"y": -1.4537409746,
				"z": -1.9960569446,
				"element": "C" 
			},
			{
				"x": -3.4537601811,
				"y": 0.5111366111,
				"z": 1.4948554352,
				"element": "C" 
			},
			{
				"x": -4.7925182608,
				"y": 1.1792742928,
				"z": 0.4534666011,
				"element": "Cl" 
			},
			{
				"x": -3.5645788185,
				"y": 0.5043050481,
				"z": 2.683071181,
				"element": "O" 
			},
			{
				"x": -2.8018652023,
				"y": 0.3549332163,
				"z": -1.4382822263,
				"element": "H" 
			},
			{
				"x": -1.5787683326,
				"y": -0.1120479429,
				"z": -3.4819883218,
				"element": "H" 
			},
			{
				"x": -0.256928761,
				"y": -0.6223130937,
				"z": -5.5031121388,
				"element": "H" 
			},
			{
				"x": 2.9048373299,
				"y": -2.1966770055,
				"z": -3.0522366288,
				"element": "H" 
			},
			{
				"x": 1.5855519929,
				"y": -1.6881555909,
				"z": -1.0184438392,
				"element": "H" 
			}
		],
		 "valence_orbital": [ 
			{
				"type": "occ",
				"energy": -0.32554,
				"method": "rhf"
			},
			{
				"type": "occ",
				"energy": -0.3073,
				"method": "rhf"
			},
			{
				"type": "occ",
				"energy": -0.30005,
				"method": "rhf"
			},
			{
				"type": "occ",
				"energy": -0.28491,
				"method": "rhf"
			},
			{
				"type": "occ",
				"energy": -0.24226,
				"method": "rhf"
			},
			{
				"type": "unocc",
				"energy": -0.08875,
				"method": "rhf"
			},
			{
				"type": "unocc",
				"energy": -0.06543,
				"method": "rhf"
			},
			{
				"type": "unocc",
				"energy": -0.03349,
				"method": "rhf"
			},
			{
				"type": "unocc",
				"energy": 0.00772,
				"method": "rhf"
			},
			{
				"type": "unocc",
				"energy": 0.01591,
				"method": "rhf"
			}
		],
		"cosmo_sigma_profile": { 
			"-0.025": 0.0,
			"-0.024": 0.0,
			"-0.023": 0.0,
			"-0.022": 0.0,
			"-0.021": 0.0,
			"-0.02": 0.0,
			"-0.019": 0.0,
			"-0.018": 0.0,
			"-0.017": 0.0,
			"-0.016": 0.0,
			"-0.015": 0.0,
			"-0.014": 0.0,
			"-0.013": 0.0,
			"-0.012": 0.0,
			"-0.011": 0.0847328770033,
			"-0.01": 1.64102133603,
			"-0.009": 2.0306304966,
			"-0.008": 4.45302118127,
			"-0.007": 7.49887526657,
			"-0.006": 9.8601023711,
			"-0.005": 12.1992411601,
			"-0.004": 14.6450623864,
			"-0.003": 17.2444700734,
			"-0.002": 19.3734873598,
			"-0.001": 25.2143887589,
			"0.0": 26.2217753318,
			"0.001": 34.7947855964,
			"0.002": 50.5626052741,
			"0.003": 26.3426690429,
			"0.004": 20.5107234989,
			"0.005": 7.3086399422,
			"0.006": 3.94630439559,
			"0.007": 3.07991918577,
			"0.008": 3.24985589666,
			"0.009": 1.21741876641,
			"0.01": 0.00870613900763,
			"0.011": 0.0,
			"0.012": 0.0,
			"0.013": 0.0,
			"0.014": 0.0,
			"0.015": 0.0,
			"0.016": 0.0,
			"0.017": 0.0,
			"0.018": 0.0,
			"0.019": 0.0,
			"0.02": 0.0,
			"0.021": 0.0,
			"0.022": 0.0,
			"0.023": 0.0,
			"0.024": 0.0,
			"0.025": 0.0
		}
	}
}
