{
	 "smiles": "N1C=NC2=C1C=CN=C2", 
	 "Tm": 444.65, 
	 "num_atms": 14, 
	 "gaussian": { 
		 "optdone": 1, 
		 "sigma_profile": "yes", 
		 "theory": "DFT", 
		 "functional": "B3LYP", 
		 "basiset": "6-31G**", 
		 "properties": { 
			 "R2extent": 993.9278, 
			 "electric_dipole_moment_norm": 5.18297624247, 
			 "electric_quadrupole_moment_norm": 6.9899399325, 
			 "total_energy": -395.902700961, 
			 "HOMO_LUMO_gap": 0.21023, 
			 "cosmo_polarized_energy": -15.73, 
			 "cosmo_cavitation_energy": 18.2, 
			 "cosmo_dispersion_energy": -14.11, 
			 "cosmo_repulsion_energy": 1.14, 
			 "cosmo_total_nonelectrostatic_energy": 5.23, 
			 "SMD_solvation_energy": 0.11 
		},
		"coords": [
			{
				"x": 0.5146792317,
				"y": 1.712248807,
				"z": -0.9710433696,
				"element": "N" 
			},
			{
				"x": 1.4904857733,
				"y": 1.6084567155,
				"z": 0.0024891694,
				"element": "C" 
			},
			{
				"x": 1.4596425853,
				"y": 0.4810459832,
				"z": 0.6602165578,
				"element": "N" 
			},
			{
				"x": 0.3989218584,
				"y": -0.2184583098,
				"z": 0.0963950837,
				"element": "C" 
			},
			{
				"x": -0.2093020474,
				"y": 0.5381457368,
				"z": -0.9316812158,
				"element": "C" 
			},
			{
				"x": -1.2996165304,
				"y": 0.0364290478,
				"z": -1.64347919,
				"element": "C" 
			},
			{
				"x": -1.7220192903,
				"y": -1.2349629202,
				"z": -1.2635242143,
				"element": "C" 
			},
			{
				"x": -1.1623915415,
				"y": -1.9815692895,
				"z": -0.2868581868,
				"element": "N" 
			},
			{
				"x": -0.121938635,
				"y": -1.4862572507,
				"z": 0.3822807265,
				"element": "C" 
			},
			{
				"x": 0.3654974091,
				"y": 2.4960578623,
				"z": -1.587412055,
				"element": "H" 
			},
			{
				"x": 2.1970480933,
				"y": 2.4108222593,
				"z": 0.1731692645,
				"element": "H" 
			},
			{
				"x": -1.7952386903,
				"y": 0.5835532955,
				"z": -2.4390183251,
				"element": "H" 
			},
			{
				"x": -2.5675021883,
				"y": -1.6904424113,
				"z": -1.7750617417,
				"element": "H" 
			},
			{
				"x": 0.3151339721,
				"y": -2.102769526,
				"z": 1.1654274964,
				"element": "H" 
			}
		],
		 "valence_orbital": [ 
			{
				"type": "occ",
				"energy": -0.31776,
				"method": "rhf"
			},
			{
				"type": "occ",
				"energy": -0.28427,
				"method": "rhf"
			},
			{
				"type": "occ",
				"energy": -0.25929,
				"method": "rhf"
			},
			{
				"type": "occ",
				"energy": -0.24736,
				"method": "rhf"
			},
			{
				"type": "occ",
				"energy": -0.23694,
				"method": "rhf"
			},
			{
				"type": "unocc",
				"energy": -0.02671,
				"method": "rhf"
			},
			{
				"type": "unocc",
				"energy": 0.00286,
				"method": "rhf"
			},
			{
				"type": "unocc",
				"energy": 0.04366,
				"method": "rhf"
			},
			{
				"type": "unocc",
				"energy": 0.06501,
				"method": "rhf"
			},
			{
				"type": "unocc",
				"energy": 0.11219,
				"method": "rhf"
			}
		],
		"cosmo_sigma_profile": { 
			"-0.025": 0.0,
			"-0.024": 0.0,
			"-0.023": 0.0,
			"-0.022": 0.0,
			"-0.021": 0.0,
			"-0.02": 0.0,
			"-0.019": 0.0,
			"-0.018": 0.0852548187287,
			"-0.017": 1.50600816266,
			"-0.016": 2.36754172774,
			"-0.015": 0.723631637246,
			"-0.014": 1.52965259986,
			"-0.013": 1.18367455845,
			"-0.012": 1.42968914905,
			"-0.011": 1.52202070212,
			"-0.01": 3.44591879805,
			"-0.009": 3.19976629823,
			"-0.008": 3.31502275056,
			"-0.007": 5.24188067348,
			"-0.006": 6.66084974787,
			"-0.005": 7.47919153676,
			"-0.004": 5.59664230754,
			"-0.003": 6.56340980452,
			"-0.002": 6.20855337557,
			"-0.001": 5.87986632703,
			"0.0": 11.3202693274,
			"0.001": 9.61449516521,
			"0.002": 13.6909630086,
			"0.003": 11.2637912728,
			"0.004": 5.73899564745,
			"0.005": 4.12869329672,
			"0.006": 3.25635772011,
			"0.007": 3.06657119482,
			"0.008": 2.78983988378,
			"0.009": 2.46718222642,
			"0.01": 1.92213832488,
			"0.011": 2.39372968445,
			"0.012": 2.06635790917,
			"0.013": 2.08398545539,
			"0.014": 1.89917332734,
			"0.015": 2.1588446644,
			"0.016": 1.7415185453,
			"0.017": 1.40481782094,
			"0.018": 0.061267977358,
			"0.019": 0.0,
			"0.02": 0.0,
			"0.021": 0.0,
			"0.022": 0.0,
			"0.023": 0.0,
			"0.024": 0.0,
			"0.025": 0.0
		}
	}
}
