{
	 "smiles": "CC1CCC(C)(C)C1", 
	 "Tm": 131.15, 
	 "num_atms": 24, 
	 "gaussian": { 
		 "optdone": 1, 
		 "sigma_profile": "yes", 
		 "theory": "DFT", 
		 "functional": "B3LYP", 
		 "basiset": "6-31G**", 
		 "properties": { 
			 "R2extent": 1457.7597, 
			 "electric_dipole_moment_norm": 0.0775645537601, 
			 "electric_quadrupole_moment_norm": 0.48143718178, 
			 "total_energy": -314.517001313, 
			 "HOMO_LUMO_gap": 0.37033, 
			 "cosmo_polarized_energy": -0.65, 
			 "cosmo_cavitation_energy": 23.56, 
			 "cosmo_dispersion_energy": -17.15, 
			 "cosmo_repulsion_energy": 1.41, 
			 "cosmo_total_nonelectrostatic_energy": 7.82, 
			 "SMD_solvation_energy": 3.76 
		},
		"coords": [
			{
				"x": -0.9578630902,
				"y": -2.2269535919,
				"z": 0.0395238436,
				"element": "C" 
			},
			{
				"x": -0.147204721,
				"y": -1.0330386753,
				"z": 0.5504086114,
				"element": "C" 
			},
			{
				"x": 0.9389528507,
				"y": -1.4093861397,
				"z": 1.6076693577,
				"element": "C" 
			},
			{
				"x": 2.2476470424,
				"y": -0.7092395595,
				"z": 1.160386861,
				"element": "C" 
			},
			{
				"x": 1.8263271162,
				"y": 0.3926072254,
				"z": 0.1527359752,
				"element": "C" 
			},
			{
				"x": 1.3693719134,
				"y": 1.662682567,
				"z": 0.8978368608,
				"element": "C" 
			},
			{
				"x": 2.9562310541,
				"y": 0.7543031846,
				"z": -0.8205763832,
				"element": "C" 
			},
			{
				"x": 0.6329373903,
				"y": -0.289995083,
				"z": -0.5565861903,
				"element": "C" 
			},
			{
				"x": -1.6950241943,
				"y": -1.9194692005,
				"z": -0.711019242,
				"element": "H" 
			},
			{
				"x": -1.5003289727,
				"y": -2.7202009788,
				"z": 0.8539676379,
				"element": "H" 
			},
			{
				"x": -0.3028518158,
				"y": -2.9746344956,
				"z": -0.4243056433,
				"element": "H" 
			},
			{
				"x": -0.8497458354,
				"y": -0.3261887684,
				"z": 1.0101142601,
				"element": "H" 
			},
			{
				"x": 1.0749558754,
				"y": -2.4952945779,
				"z": 1.6626948094,
				"element": "H" 
			},
			{
				"x": 0.6322703649,
				"y": -1.0873704005,
				"z": 2.6083813016,
				"element": "H" 
			},
			{
				"x": 2.8249185625,
				"y": -0.3054945872,
				"z": 1.9998642165,
				"element": "H" 
			},
			{
				"x": 2.898180531,
				"y": -1.4286843096,
				"z": 0.6477954008,
				"element": "H" 
			},
			{
				"x": 2.2073255155,
				"y": 2.1177501244,
				"z": 1.4383008094,
				"element": "H" 
			},
			{
				"x": 0.5822097937,
				"y": 1.452645865,
				"z": 1.6291604014,
				"element": "H" 
			},
			{
				"x": 0.9799965048,
				"y": 2.4100099808,
				"z": 0.1967147105,
				"element": "H" 
			},
			{
				"x": 2.6271912225,
				"y": 1.5018622858,
				"z": -1.551934972,
				"element": "H" 
			},
			{
				"x": 3.8194392019,
				"y": 1.1719713669,
				"z": -0.2890217154,
				"element": "H" 
			},
			{
				"x": 3.2989442949,
				"y": -0.1272569091,
				"z": -1.3743196956,
				"element": "H" 
			},
			{
				"x": 0.0075908058,
				"y": 0.4168967027,
				"z": -1.1149888818,
				"element": "H" 
			},
			{
				"x": 1.0196285893,
				"y": -1.0191220256,
				"z": -1.2831023335,
				"element": "H" 
			}
		],
		 "valence_orbital": [ 
			{
				"type": "occ",
				"energy": -0.31118,
				"method": "rhf"
			},
			{
				"type": "occ",
				"energy": -0.31063,
				"method": "rhf"
			},
			{
				"type": "occ",
				"energy": -0.30741,
				"method": "rhf"
			},
			{
				"type": "occ",
				"energy": -0.29909,
				"method": "rhf"
			},
			{
				"type": "occ",
				"energy": -0.29588,
				"method": "rhf"
			},
			{
				"type": "unocc",
				"energy": 0.07445,
				"method": "rhf"
			},
			{
				"type": "unocc",
				"energy": 0.10277,
				"method": "rhf"
			},
			{
				"type": "unocc",
				"energy": 0.11332,
				"method": "rhf"
			},
			{
				"type": "unocc",
				"energy": 0.13419,
				"method": "rhf"
			},
			{
				"type": "unocc",
				"energy": 0.14092,
				"method": "rhf"
			}
		],
		"cosmo_sigma_profile": { 
			"-0.025": 0.0,
			"-0.024": 0.0,
			"-0.023": 0.0,
			"-0.022": 0.0,
			"-0.021": 0.0,
			"-0.02": 0.0,
			"-0.019": 0.0,
			"-0.018": 0.0,
			"-0.017": 0.0,
			"-0.016": 0.0,
			"-0.015": 0.0,
			"-0.014": 0.0,
			"-0.013": 0.0,
			"-0.012": 0.0,
			"-0.011": 0.0,
			"-0.01": 0.0,
			"-0.009": 0.0,
			"-0.008": 0.0,
			"-0.007": 0.0,
			"-0.006": 0.0,
			"-0.005": 0.0,
			"-0.004": 0.0,
			"-0.003": 2.11783077867,
			"-0.002": 26.8665347658,
			"-0.001": 41.3327261764,
			"0.0": 42.1301028637,
			"0.001": 35.0888991448,
			"0.002": 30.0555118545,
			"0.003": 2.4017579701,
			"0.004": 0.0,
			"0.005": 0.0,
			"0.006": 0.0,
			"0.007": 0.0,
			"0.008": 0.0,
			"0.009": 0.0,
			"0.01": 0.0,
			"0.011": 0.0,
			"0.012": 0.0,
			"0.013": 0.0,
			"0.014": 0.0,
			"0.015": 0.0,
			"0.016": 0.0,
			"0.017": 0.0,
			"0.018": 0.0,
			"0.019": 0.0,
			"0.02": 0.0,
			"0.021": 0.0,
			"0.022": 0.0,
			"0.023": 0.0,
			"0.024": 0.0,
			"0.025": 0.0
		}
	}
}
