{
	 "smiles": "COC1=C(OC)C=C(C(=C1)C(=O)C1=CC=C(Cl)C=C1Cl)[N+]([O-])=O", 
	 "Tm": 387.15, 
	 "num_atms": 34, 
	 "gaussian": { 
		 "optdone": 1, 
		 "sigma_profile": "yes", 
		 "theory": "DFT", 
		 "functional": "B3LYP", 
		 "basiset": "6-31G**", 
		 "properties": { 
			 "R2extent": 12548.9803, 
			 "electric_dipole_moment_norm": 7.39909014407, 
			 "electric_quadrupole_moment_norm": 21.9377933507, 
			 "total_energy": -1929.33514167, 
			 "HOMO_LUMO_gap": 0.1497, 
			 "cosmo_polarized_energy": -17.5, 
			 "cosmo_cavitation_energy": 43.4, 
			 "cosmo_dispersion_energy": -30.03, 
			 "cosmo_repulsion_energy": 2.3, 
			 "cosmo_total_nonelectrostatic_energy": 15.68, 
			 "SMD_solvation_energy": 10.84 
		},
		"coords": [
			{
				"x": 4.2737567462,
				"y": -2.0843037629,
				"z": 2.2134690217,
				"element": "C" 
			},
			{
				"x": 3.6530615039,
				"y": -1.2133801056,
				"z": 1.2557862546,
				"element": "O" 
			},
			{
				"x": 2.4590272984,
				"y": -1.5454943321,
				"z": 0.7055123773,
				"element": "C" 
			},
			{
				"x": 1.3478396737,
				"y": -2.04031336,
				"z": 1.4389531914,
				"element": "C" 
			},
			{
				"x": 1.513583713,
				"y": -2.1970500062,
				"z": 2.7790065242,
				"element": "O" 
			},
			{
				"x": 0.4159545027,
				"y": -2.6880860231,
				"z": 3.5427383386,
				"element": "C" 
			},
			{
				"x": 0.1662007511,
				"y": -2.3264644893,
				"z": 0.7605807898,
				"element": "C" 
			},
			{
				"x": 0.0666545611,
				"y": -2.0860669269,
				"z": -0.611559737,
				"element": "C" 
			},
			{
				"x": 1.1263245426,
				"y": -1.5497688502,
				"z": -1.3512449632,
				"element": "C" 
			},
			{
				"x": 2.3197754169,
				"y": -1.3113532211,
				"z": -0.6635967061,
				"element": "C" 
			},
			{
				"x": 1.1211924314,
				"y": -1.2344954904,
				"z": -2.8366980628,
				"element": "C" 
			},
			{
				"x": 1.9723014177,
				"y": -1.7399125886,
				"z": -3.5434625463,
				"element": "O" 
			},
			{
				"x": 0.1739042033,
				"y": -0.1821390427,
				"z": -3.3352028388,
				"element": "C" 
			},
			{
				"x": -0.2144462604,
				"y": 0.8480484646,
				"z": -2.4639151285,
				"element": "C" 
			},
			{
				"x": -1.0211692104,
				"y": 1.9045688976,
				"z": -2.8743592872,
				"element": "C" 
			},
			{
				"x": -1.4678347158,
				"y": 1.9246226142,
				"z": -4.1936990854,
				"element": "C" 
			},
			{
				"x": -2.4926568039,
				"y": 3.2350403576,
				"z": -4.7432012254,
				"element": "Cl" 
			},
			{
				"x": -1.1176772423,
				"y": 0.9168154223,
				"z": -5.0901576602,
				"element": "C" 
			},
			{
				"x": -0.292967568,
				"y": -0.123918616,
				"z": -4.6631922856,
				"element": "C" 
			},
			{
				"x": 0.0724593384,
				"y": -1.3638304737,
				"z": -5.8370970697,
				"element": "Cl" 
			},
			{
				"x": -1.1823508814,
				"y": -2.4778675767,
				"z": -1.2664662734,
				"element": "N" 
			},
			{
				"x": -2.1530511805,
				"y": -2.7402992536,
				"z": -0.5546611699,
				"element": "O" 
			},
			{
				"x": -1.1846702637,
				"y": -2.5371636403,
				"z": -2.4980032606,
				"element": "O" 
			},
			{
				"x": 3.8367723094,
				"y": -1.9670546343,
				"z": 3.2059978471,
				"element": "H" 
			},
			{
				"x": 4.1941063047,
				"y": -3.1305060258,
				"z": 1.8994038386,
				"element": "H" 
			},
			{
				"x": 5.3249148048,
				"y": -1.7914470107,
				"z": 2.2287025549,
				"element": "H" 
			},
			{
				"x": -0.4495584298,
				"y": -2.0188895568,
				"z": 3.4718587416,
				"element": "H" 
			},
			{
				"x": 0.7643299647,
				"y": -2.7219892441,
				"z": 4.5752842122,
				"element": "H" 
			},
			{
				"x": 0.1242131498,
				"y": -3.6955744067,
				"z": 3.2231040026,
				"element": "H" 
			},
			{
				"x": -0.6990813544,
				"y": -2.7325613789,
				"z": 1.2650873811,
				"element": "H" 
			},
			{
				"x": 3.1813914238,
				"y": -0.9285084148,
				"z": -1.1991224141,
				"element": "H" 
			},
			{
				"x": 0.1411243443,
				"y": 0.8281187894,
				"z": -1.4390061646,
				"element": "H" 
			},
			{
				"x": -1.2986392716,
				"y": 2.695328966,
				"z": -2.1873184231,
				"element": "H" 
			},
			{
				"x": -1.4820852197,
				"y": 0.9350949196,
				"z": -6.1097207737,
				"element": "H" 
			}
		],
		 "valence_orbital": [ 
			{
				"type": "occ",
				"energy": -0.27654,
				"method": "rhf"
			},
			{
				"type": "occ",
				"energy": -0.26674,
				"method": "rhf"
			},
			{
				"type": "occ",
				"energy": -0.25611,
				"method": "rhf"
			},
			{
				"type": "occ",
				"energy": -0.25302,
				"method": "rhf"
			},
			{
				"type": "occ",
				"energy": -0.2439,
				"method": "rhf"
			},
			{
				"type": "unocc",
				"energy": -0.0942,
				"method": "rhf"
			},
			{
				"type": "unocc",
				"energy": -0.06481,
				"method": "rhf"
			},
			{
				"type": "unocc",
				"energy": -0.03234,
				"method": "rhf"
			},
			{
				"type": "unocc",
				"energy": -0.02651,
				"method": "rhf"
			},
			{
				"type": "unocc",
				"energy": -0.00387,
				"method": "rhf"
			}
		],
		"cosmo_sigma_profile": { 
			"-0.025": 0.0,
			"-0.024": 0.0,
			"-0.023": 0.0,
			"-0.022": 0.0,
			"-0.021": 0.0,
			"-0.02": 0.0,
			"-0.019": 0.0,
			"-0.018": 0.0,
			"-0.017": 0.0,
			"-0.016": 0.0,
			"-0.015": 0.0,
			"-0.014": 0.0,
			"-0.013": 0.0,
			"-0.012": 0.0,
			"-0.011": 0.0,
			"-0.01": 0.0,
			"-0.009": 0.916584369768,
			"-0.008": 6.65810513221,
			"-0.007": 13.0902347517,
			"-0.006": 22.1743125679,
			"-0.005": 25.2117707491,
			"-0.004": 23.7544186932,
			"-0.003": 27.2735207423,
			"-0.002": 22.1636049948,
			"-0.001": 26.9778039304,
			"0.0": 35.0354999939,
			"0.001": 26.9686856705,
			"0.002": 21.1440674898,
			"0.003": 20.9956790372,
			"0.004": 23.3924128559,
			"0.005": 10.2041682138,
			"0.006": 9.17346344934,
			"0.007": 9.31381854919,
			"0.008": 8.76598399801,
			"0.009": 8.22648138148,
			"0.01": 5.61171569471,
			"0.011": 4.57558475983,
			"0.012": 0.846287525065,
			"0.013": 0.0,
			"0.014": 0.0,
			"0.015": 0.0,
			"0.016": 0.0,
			"0.017": 0.0,
			"0.018": 0.0,
			"0.019": 0.0,
			"0.02": 0.0,
			"0.021": 0.0,
			"0.022": 0.0,
			"0.023": 0.0,
			"0.024": 0.0,
			"0.025": 0.0
		}
	}
}
