{
	 "smiles": "CC(C)C1=NN(C(N)=C1)C1=NC=CC=N1", 
	 "Tm": 420.15, 
	 "num_atms": 28, 
	 "gaussian": { 
		 "optdone": 1, 
		 "sigma_profile": "yes", 
		 "theory": "DFT", 
		 "functional": "B3LYP", 
		 "basiset": "6-31G**", 
		 "properties": { 
			 "R2extent": 4618.7059, 
			 "electric_dipole_moment_norm": 3.59259936815, 
			 "electric_quadrupole_moment_norm": 21.1485934201, 
			 "total_energy": -662.645043352, 
			 "HOMO_LUMO_gap": 0.14878, 
			 "cosmo_polarized_energy": -16.11, 
			 "cosmo_cavitation_energy": 31.56, 
			 "cosmo_dispersion_energy": -23.09, 
			 "cosmo_repulsion_energy": 1.83, 
			 "cosmo_total_nonelectrostatic_energy": 10.3, 
			 "SMD_solvation_energy": 2.91 
		},
		"coords": [
			{
				"x": -1.8864019768,
				"y": 1.9583053465,
				"z": -0.905913424,
				"element": "C" 
			},
			{
				"x": -1.4200527195,
				"y": 1.4106957502,
				"z": 0.4555679579,
				"element": "C" 
			},
			{
				"x": -1.0267327235,
				"y": 2.5538073257,
				"z": 1.4095295174,
				"element": "C" 
			},
			{
				"x": -0.2960605128,
				"y": 0.4194306702,
				"z": 0.2939299063,
				"element": "C" 
			},
			{
				"x": -0.465566088,
				"y": -0.8299494958,
				"z": 0.6848277275,
				"element": "N" 
			},
			{
				"x": 0.7382663449,
				"y": -1.4563066645,
				"z": 0.3933445122,
				"element": "N" 
			},
			{
				"x": 1.6484812545,
				"y": -0.5666247147,
				"z": -0.1776999658,
				"element": "C" 
			},
			{
				"x": 2.943220642,
				"y": -0.9047021412,
				"z": -0.4913923816,
				"element": "N" 
			},
			{
				"x": 0.9996391438,
				"y": 0.6478336344,
				"z": -0.2530637792,
				"element": "C" 
			},
			{
				"x": 0.8842807488,
				"y": -2.821747527,
				"z": 0.6416429141,
				"element": "C" 
			},
			{
				"x": -0.103716059,
				"y": -3.4297960787,
				"z": 1.3117662072,
				"element": "N" 
			},
			{
				"x": 0.0554593178,
				"y": -4.7332740765,
				"z": 1.5294807848,
				"element": "C" 
			},
			{
				"x": 1.1761341684,
				"y": -5.4493923703,
				"z": 1.1028271838,
				"element": "C" 
			},
			{
				"x": 2.1370618646,
				"y": -4.7137222191,
				"z": 0.4193818909,
				"element": "C" 
			},
			{
				"x": 2.0047760583,
				"y": -3.4059066108,
				"z": 0.178085565,
				"element": "N" 
			},
			{
				"x": -2.1972347809,
				"y": 1.147874057,
				"z": -1.5722103094,
				"element": "H" 
			},
			{
				"x": -2.7347711112,
				"y": 2.6394989025,
				"z": -0.7776526923,
				"element": "H" 
			},
			{
				"x": -1.0849297295,
				"y": 2.5149862624,
				"z": -1.4049573806,
				"element": "H" 
			},
			{
				"x": -2.2486510456,
				"y": 0.8528757921,
				"z": 0.9070340488,
				"element": "H" 
			},
			{
				"x": -0.189695911,
				"y": 3.1358059025,
				"z": 1.0072073084,
				"element": "H" 
			},
			{
				"x": -1.868420749,
				"y": 3.2392902732,
				"z": 1.5576790215,
				"element": "H" 
			},
			{
				"x": -0.7259578486,
				"y": 2.1657706925,
				"z": 2.3873247632,
				"element": "H" 
			},
			{
				"x": 3.1004958704,
				"y": -1.9000746382,
				"z": -0.6030603865,
				"element": "H" 
			},
			{
				"x": 3.383392691,
				"y": -0.2998174656,
				"z": -1.1684691247,
				"element": "H" 
			},
			{
				"x": 1.4131120428,
				"y": 1.5697114487,
				"z": -0.6345870308,
				"element": "H" 
			},
			{
				"x": -0.7491541215,
				"y": -5.2264854294,
				"z": 2.0731698966,
				"element": "H" 
			},
			{
				"x": 1.2903844621,
				"y": -6.5099867428,
				"z": 1.2924690593,
				"element": "H" 
			},
			{
				"x": 3.0465407676,
				"y": -5.1793998834,
				"z": 0.0446382099,
				"element": "H" 
			}
		],
		 "valence_orbital": [ 
			{
				"type": "occ",
				"energy": -0.29558,
				"method": "rhf"
			},
			{
				"type": "occ",
				"energy": -0.27549,
				"method": "rhf"
			},
			{
				"type": "occ",
				"energy": -0.25021,
				"method": "rhf"
			},
			{
				"type": "occ",
				"energy": -0.22961,
				"method": "rhf"
			},
			{
				"type": "occ",
				"energy": -0.1946,
				"method": "rhf"
			},
			{
				"type": "unocc",
				"energy": -0.04582,
				"method": "rhf"
			},
			{
				"type": "unocc",
				"energy": -0.03282,
				"method": "rhf"
			},
			{
				"type": "unocc",
				"energy": 0.05303,
				"method": "rhf"
			},
			{
				"type": "unocc",
				"energy": 0.08495,
				"method": "rhf"
			},
			{
				"type": "unocc",
				"energy": 0.09487,
				"method": "rhf"
			}
		],
		"cosmo_sigma_profile": { 
			"-0.025": 0.0,
			"-0.024": 0.0,
			"-0.023": 0.0,
			"-0.022": 0.0,
			"-0.021": 0.0,
			"-0.02": 0.0,
			"-0.019": 0.0,
			"-0.018": 0.0,
			"-0.017": 0.0,
			"-0.016": 0.0,
			"-0.015": 0.0,
			"-0.014": 0.182997300516,
			"-0.013": 1.24713675467,
			"-0.012": 1.58817480155,
			"-0.011": 1.17590528909,
			"-0.01": 0.858242626595,
			"-0.009": 2.16746047371,
			"-0.008": 8.2600277462,
			"-0.007": 9.66385764711,
			"-0.006": 9.89912692938,
			"-0.005": 7.3022825051,
			"-0.004": 9.09502551097,
			"-0.003": 20.4135639176,
			"-0.002": 24.1477821301,
			"-0.001": 29.0378509794,
			"0.0": 29.4235474437,
			"0.001": 27.6592344345,
			"0.002": 12.6209991573,
			"0.003": 8.29457400706,
			"0.004": 8.91607431215,
			"0.005": 7.83858890658,
			"0.006": 6.17156802145,
			"0.007": 3.47725826382,
			"0.008": 2.93617761503,
			"0.009": 1.72291370624,
			"0.01": 2.46506840133,
			"0.011": 1.63778218181,
			"0.012": 2.59272265819,
			"0.013": 1.74510432103,
			"0.014": 1.02013790199,
			"0.015": 1.52118769372,
			"0.016": 1.1184558598,
			"0.017": 0.694862717832,
			"0.018": 1.135948838,
			"0.019": 0.895047564635,
			"0.02": 1.08981803099,
			"0.021": 0.423470041381,
			"0.022": 0.00564655446265,
			"0.023": 0.0,
			"0.024": 0.0,
			"0.025": 0.0
		}
	}
}
