{
	 "smiles": "FC1=CC(F)=C(C=O)C=C1", 
	 "Tm": 275.65, 
	 "num_atms": 14, 
	 "gaussian": { 
		 "optdone": 1, 
		 "sigma_profile": "yes", 
		 "theory": "DFT", 
		 "functional": "B3LYP", 
		 "basiset": "6-31G**", 
		 "properties": { 
			 "R2extent": 3383.8258, 
			 "electric_dipole_moment_norm": 3.36005095795, 
			 "electric_quadrupole_moment_norm": 14.8568724202, 
			 "total_energy": -544.031913531, 
			 "HOMO_LUMO_gap": 0.18969, 
			 "cosmo_polarized_energy": -8.68, 
			 "cosmo_cavitation_energy": 19.99, 
			 "cosmo_dispersion_energy": -14.4, 
			 "cosmo_repulsion_energy": 1.12, 
			 "cosmo_total_nonelectrostatic_energy": 6.7, 
			 "SMD_solvation_energy": 5.56 
		},
		"coords": [
			{
				"x": -1.622057441,
				"y": -1.1023237129,
				"z": -3.4199915178,
				"element": "F" 
			},
			{
				"x": -1.8108310073,
				"y": -0.3109407207,
				"z": -2.3527809817,
				"element": "C" 
			},
			{
				"x": -2.995053557,
				"y": 0.4144476646,
				"z": -2.2675911053,
				"element": "C" 
			},
			{
				"x": -3.1802177762,
				"y": 1.2303237103,
				"z": -1.1590674668,
				"element": "C" 
			},
			{
				"x": -4.3177148263,
				"y": 1.9254290888,
				"z": -1.0798083169,
				"element": "F" 
			},
			{
				"x": -2.2155159855,
				"y": 1.3366638855,
				"z": -0.1413184178,
				"element": "C" 
			},
			{
				"x": -2.3741613171,
				"y": 2.1935539148,
				"z": 1.0545605469,
				"element": "C" 
			},
			{
				"x": -3.326961748,
				"y": 2.8994391432,
				"z": 1.3133483863,
				"element": "O" 
			},
			{
				"x": -1.0394028283,
				"y": 0.5809776655,
				"z": -0.280900505,
				"element": "C" 
			},
			{
				"x": -0.8195687702,
				"y": -0.2459128584,
				"z": -1.3760166541,
				"element": "C" 
			},
			{
				"x": -3.751322854,
				"y": 0.3474027169,
				"z": -3.040030763,
				"element": "H" 
			},
			{
				"x": -1.4991508569,
				"y": 2.1391262571,
				"z": 1.7425457451,
				"element": "H" 
			},
			{
				"x": -0.28445605,
				"y": 0.6528561172,
				"z": 0.4979242956,
				"element": "H" 
			},
			{
				"x": 0.0862150179,
				"y": -0.8302428718,
				"z": -1.4871732456,
				"element": "H" 
			}
		],
		 "valence_orbital": [ 
			{
				"type": "occ",
				"energy": -0.38137,
				"method": "rhf"
			},
			{
				"type": "occ",
				"energy": -0.36363,
				"method": "rhf"
			},
			{
				"type": "occ",
				"energy": -0.28027,
				"method": "rhf"
			},
			{
				"type": "occ",
				"energy": -0.26596,
				"method": "rhf"
			},
			{
				"type": "occ",
				"energy": -0.25797,
				"method": "rhf"
			},
			{
				"type": "unocc",
				"energy": -0.06828,
				"method": "rhf"
			},
			{
				"type": "unocc",
				"energy": -0.0292,
				"method": "rhf"
			},
			{
				"type": "unocc",
				"energy": 0.03156,
				"method": "rhf"
			},
			{
				"type": "unocc",
				"energy": 0.06902,
				"method": "rhf"
			},
			{
				"type": "unocc",
				"energy": 0.10268,
				"method": "rhf"
			}
		],
		"cosmo_sigma_profile": { 
			"-0.025": 0.0,
			"-0.024": 0.0,
			"-0.023": 0.0,
			"-0.022": 0.0,
			"-0.021": 0.0,
			"-0.02": 0.0,
			"-0.019": 0.0,
			"-0.018": 0.0,
			"-0.017": 0.0,
			"-0.016": 0.0,
			"-0.015": 0.0,
			"-0.014": 0.0,
			"-0.013": 0.0,
			"-0.012": 0.0,
			"-0.011": 0.0,
			"-0.01": 0.0535524644044,
			"-0.009": 2.84253091957,
			"-0.008": 7.23162638489,
			"-0.007": 7.74603958689,
			"-0.006": 7.95420707887,
			"-0.005": 6.80027249062,
			"-0.004": 6.87010701695,
			"-0.003": 6.30799847403,
			"-0.002": 12.2669653308,
			"-0.001": 21.2615359298,
			"0.0": 16.6444034395,
			"0.001": 10.8105818834,
			"0.002": 9.18248382194,
			"0.003": 15.582212456,
			"0.004": 7.67768348532,
			"0.005": 2.35282771176,
			"0.006": 1.89531181664,
			"0.007": 1.84965671511,
			"0.008": 2.44017523404,
			"0.009": 2.19715635365,
			"0.01": 3.01814317019,
			"0.011": 5.06292794064,
			"0.012": 3.09543760047,
			"0.013": 0.533975491468,
			"0.014": 0.0,
			"0.015": 0.0,
			"0.016": 0.0,
			"0.017": 0.0,
			"0.018": 0.0,
			"0.019": 0.0,
			"0.02": 0.0,
			"0.021": 0.0,
			"0.022": 0.0,
			"0.023": 0.0,
			"0.024": 0.0,
			"0.025": 0.0
		}
	}
}
