{
	 "smiles": "NC(=S)C1=CC(Cl)=NC(Cl)=C1", 
	 "Tm": 421.15, 
	 "num_atms": 15, 
	 "gaussian": { 
		 "optdone": 1, 
		 "sigma_profile": "yes", 
		 "theory": "DFT", 
		 "functional": "B3LYP", 
		 "basiset": "6-31G**", 
		 "properties": { 
			 "R2extent": 4982.0788, 
			 "electric_dipole_moment_norm": 4.63394787303, 
			 "electric_quadrupole_moment_norm": 17.7433262245, 
			 "total_energy": -1659.12621994, 
			 "HOMO_LUMO_gap": 0.13897, 
			 "cosmo_polarized_energy": -16.43, 
			 "cosmo_cavitation_energy": 25.57, 
			 "cosmo_dispersion_energy": -19.53, 
			 "cosmo_repulsion_energy": 1.56, 
			 "cosmo_total_nonelectrostatic_energy": 7.59, 
			 "SMD_solvation_energy": 1.58 
		},
		"coords": [
			{
				"x": -1.999339384,
				"y": 1.9120759611,
				"z": 1.2894269053,
				"element": "N" 
			},
			{
				"x": -1.0910940665,
				"y": 0.9131339296,
				"z": 1.2502677514,
				"element": "C" 
			},
			{
				"x": 0.4802691125,
				"y": 1.1033363277,
				"z": 1.7552549893,
				"element": "S" 
			},
			{
				"x": -1.6243849519,
				"y": -0.3940646496,
				"z": 0.75276427,
				"element": "C" 
			},
			{
				"x": -2.9430497452,
				"y": -0.7859453184,
				"z": 1.0241902625,
				"element": "C" 
			},
			{
				"x": -3.3642684476,
				"y": -2.0214282852,
				"z": 0.5313203364,
				"element": "C" 
			},
			{
				"x": -5.0041922141,
				"y": -2.5486321498,
				"z": 0.8691059573,
				"element": "Cl" 
			},
			{
				"x": -2.6122223293,
				"y": -2.8405259747,
				"z": -0.1834343269,
				"element": "N" 
			},
			{
				"x": -1.3669763326,
				"y": -2.4531829221,
				"z": -0.4285567032,
				"element": "C" 
			},
			{
				"x": -0.3828720898,
				"y": -3.5474770264,
				"z": -1.3795319733,
				"element": "Cl" 
			},
			{
				"x": -0.8075975955,
				"y": -1.2562399052,
				"z": 0.0123440624,
				"element": "C" 
			},
			{
				"x": -1.6949654413,
				"y": 2.8226986537,
				"z": 1.6030565565,
				"element": "H" 
			},
			{
				"x": -2.8889546373,
				"y": 1.8384823219,
				"z": 0.8174850151,
				"element": "H" 
			},
			{
				"x": -3.6085649632,
				"y": -0.1836852876,
				"z": 1.6299178428,
				"element": "H" 
			},
			{
				"x": 0.220413086,
				"y": -0.9951456747,
				"z": -0.2015109456,
				"element": "H" 
			}
		],
		 "valence_orbital": [ 
			{
				"type": "occ",
				"energy": -0.31272,
				"method": "rhf"
			},
			{
				"type": "occ",
				"energy": -0.30578,
				"method": "rhf"
			},
			{
				"type": "occ",
				"energy": -0.27253,
				"method": "rhf"
			},
			{
				"type": "occ",
				"energy": -0.25594,
				"method": "rhf"
			},
			{
				"type": "occ",
				"energy": -0.23213,
				"method": "rhf"
			},
			{
				"type": "unocc",
				"energy": -0.09316,
				"method": "rhf"
			},
			{
				"type": "unocc",
				"energy": -0.04904,
				"method": "rhf"
			},
			{
				"type": "unocc",
				"energy": -0.01807,
				"method": "rhf"
			},
			{
				"type": "unocc",
				"energy": 0.00713,
				"method": "rhf"
			},
			{
				"type": "unocc",
				"energy": 0.03563,
				"method": "rhf"
			}
		],
		"cosmo_sigma_profile": { 
			"-0.025": 0.0,
			"-0.024": 0.0,
			"-0.023": 0.0,
			"-0.022": 0.0,
			"-0.021": 0.0,
			"-0.02": 0.0,
			"-0.019": 0.0,
			"-0.018": 0.0,
			"-0.017": 0.203701631005,
			"-0.016": 1.96138432073,
			"-0.015": 2.58824990245,
			"-0.014": 2.91660723429,
			"-0.013": 2.73001908573,
			"-0.012": 2.98909875554,
			"-0.011": 2.34758518516,
			"-0.01": 2.50681871033,
			"-0.009": 2.3513432168,
			"-0.008": 2.1653766536,
			"-0.007": 5.28807280295,
			"-0.006": 4.06608235578,
			"-0.005": 4.72820499786,
			"-0.004": 7.46872201735,
			"-0.003": 13.3956477192,
			"-0.002": 20.2253451808,
			"-0.001": 16.0744708672,
			"0.0": 11.7489555676,
			"0.001": 11.8232509034,
			"0.002": 15.0274452292,
			"0.003": 21.6317562646,
			"0.004": 16.9651130398,
			"0.005": 8.51230555786,
			"0.006": 7.69227818547,
			"0.007": 8.30313357793,
			"0.008": 6.61592603665,
			"0.009": 4.75939239134,
			"0.01": 3.78090848365,
			"0.011": 1.95596852432,
			"0.012": 0.458607618376,
			"0.013": 0.0,
			"0.014": 0.0,
			"0.015": 0.0,
			"0.016": 0.0,
			"0.017": 0.0,
			"0.018": 0.0,
			"0.019": 0.0,
			"0.02": 0.0,
			"0.021": 0.0,
			"0.022": 0.0,
			"0.023": 0.0,
			"0.024": 0.0,
			"0.025": 0.0
		}
	}
}
