{
	 "smiles": "CC(C)OC(=S)NC1=CC(Cl)=C(C=C1)C#N", 
	 "Tm": 430.15, 
	 "num_atms": 27, 
	 "gaussian": { 
		 "optdone": 1, 
		 "sigma_profile": "yes", 
		 "theory": "DFT", 
		 "functional": "B3LYP", 
		 "basiset": "6-31G**", 
		 "properties": { 
			 "R2extent": 7436.2457, 
			 "electric_dipole_moment_norm": 4.92745999578, 
			 "electric_quadrupole_moment_norm": 47.6234975144, 
			 "total_energy": -1468.89979142, 
			 "HOMO_LUMO_gap": 0.1625, 
			 "cosmo_polarized_energy": -15.93, 
			 "cosmo_cavitation_energy": 35.42, 
			 "cosmo_dispersion_energy": -25.19, 
			 "cosmo_repulsion_energy": 1.93, 
			 "cosmo_total_nonelectrostatic_energy": 12.17, 
			 "SMD_solvation_energy": 6.71 
		},
		"coords": [
			{
				"x": 2.3078684439,
				"y": 1.554942222,
				"z": 2.4274905472,
				"element": "C" 
			},
			{
				"x": 1.59408875,
				"y": 0.2152037767,
				"z": 2.2897114759,
				"element": "C" 
			},
			{
				"x": 2.5074680243,
				"y": -0.9997798426,
				"z": 2.1758062069,
				"element": "C" 
			},
			{
				"x": 0.5730951379,
				"y": 0.2404295753,
				"z": 1.2244387135,
				"element": "O" 
			},
			{
				"x": 0.8156671003,
				"y": 0.3872273656,
				"z": -0.0726615937,
				"element": "C" 
			},
			{
				"x": 2.2790941648,
				"y": 0.5789700682,
				"z": -0.8562839032,
				"element": "S" 
			},
			{
				"x": -0.3426428839,
				"y": 0.3696327612,
				"z": -0.8152883977,
				"element": "N" 
			},
			{
				"x": -1.6999610382,
				"y": 0.2316222776,
				"z": -0.4933141419,
				"element": "C" 
			},
			{
				"x": -2.589788047,
				"y": 0.2688169952,
				"z": -1.5845704938,
				"element": "C" 
			},
			{
				"x": -3.9564718463,
				"y": 0.1425307172,
				"z": -1.3895825665,
				"element": "C" 
			},
			{
				"x": -5.0128207975,
				"y": 0.1956989016,
				"z": -2.7777129018,
				"element": "Cl" 
			},
			{
				"x": -4.4893670966,
				"y": -0.0259722263,
				"z": -0.0969034935,
				"element": "C" 
			},
			{
				"x": -3.5892598863,
				"y": -0.0611046187,
				"z": 0.9820812528,
				"element": "C" 
			},
			{
				"x": -2.2188458318,
				"y": 0.0638810356,
				"z": 0.803402423,
				"element": "C" 
			},
			{
				"x": -5.8922315658,
				"y": -0.1592923497,
				"z": 0.140004184,
				"element": "C" 
			},
			{
				"x": -7.026552563,
				"y": -0.2711775041,
				"z": 0.3730742922,
				"element": "N" 
			},
			{
				"x": 3.002659654,
				"y": 1.7315970827,
				"z": 1.6064819388,
				"element": "H" 
			},
			{
				"x": 2.867263842,
				"y": 1.5536401731,
				"z": 3.3688643654,
				"element": "H" 
			},
			{
				"x": 1.5844203964,
				"y": 2.3744309448,
				"z": 2.4656286422,
				"element": "H" 
			},
			{
				"x": 0.9439768659,
				"y": 0.078709168,
				"z": 3.1592245509,
				"element": "H" 
			},
			{
				"x": 3.0739845214,
				"y": -1.095207139,
				"z": 3.1080437123,
				"element": "H" 
			},
			{
				"x": 3.2088762696,
				"y": -0.9047956664,
				"z": 1.3469412271,
				"element": "H" 
			},
			{
				"x": 1.919332058,
				"y": -1.9123955327,
				"z": 2.0430645638,
				"element": "H" 
			},
			{
				"x": -0.1399708815,
				"y": 0.4823991891,
				"z": -1.7999539917,
				"element": "H" 
			},
			{
				"x": -2.2120160947,
				"y": 0.397337772,
				"z": -2.5936468995,
				"element": "H" 
			},
			{
				"x": -3.9867841527,
				"y": -0.1903670829,
				"z": 1.983066173,
				"element": "H" 
			},
			{
				"x": -1.5594825432,
				"y": 0.0321219363,
				"z": 1.6554941141,
				"element": "H" 
			}
		],
		 "valence_orbital": [ 
			{
				"type": "occ",
				"energy": -0.32534,
				"method": "rhf"
			},
			{
				"type": "occ",
				"energy": -0.27992,
				"method": "rhf"
			},
			{
				"type": "occ",
				"energy": -0.27229,
				"method": "rhf"
			},
			{
				"type": "occ",
				"energy": -0.23486,
				"method": "rhf"
			},
			{
				"type": "occ",
				"energy": -0.23462,
				"method": "rhf"
			},
			{
				"type": "unocc",
				"energy": -0.07212,
				"method": "rhf"
			},
			{
				"type": "unocc",
				"energy": -0.04008,
				"method": "rhf"
			},
			{
				"type": "unocc",
				"energy": -0.01749,
				"method": "rhf"
			},
			{
				"type": "unocc",
				"energy": 0.00765,
				"method": "rhf"
			},
			{
				"type": "unocc",
				"energy": 0.02988,
				"method": "rhf"
			}
		],
		"cosmo_sigma_profile": { 
			"-0.025": 0.0,
			"-0.024": 0.0,
			"-0.023": 0.0,
			"-0.022": 0.0,
			"-0.021": 0.0,
			"-0.02": 0.0,
			"-0.019": 0.0,
			"-0.018": 0.0,
			"-0.017": 0.167415785621,
			"-0.016": 0.987381931193,
			"-0.015": 1.54376402217,
			"-0.014": 0.686504340407,
			"-0.013": 0.523579621271,
			"-0.012": 1.79701997188,
			"-0.011": 1.19061438163,
			"-0.01": 1.23470063201,
			"-0.009": 2.25436071365,
			"-0.008": 3.79470931031,
			"-0.007": 5.35227328112,
			"-0.006": 9.35284701864,
			"-0.005": 14.6590134898,
			"-0.004": 16.4229697705,
			"-0.003": 17.7205056976,
			"-0.002": 28.1890323059,
			"-0.001": 34.3960759634,
			"0.0": 37.9290042608,
			"0.001": 19.3359708081,
			"0.002": 14.5718532782,
			"0.003": 16.2962370121,
			"0.004": 10.0799855226,
			"0.005": 6.88642564932,
			"0.006": 9.77892109457,
			"0.007": 7.17792074795,
			"0.008": 8.30461122359,
			"0.009": 7.04752665021,
			"0.01": 4.55055259907,
			"0.011": 2.6062967912,
			"0.012": 2.53522606109,
			"0.013": 1.01781101822,
			"0.014": 0.0,
			"0.015": 0.0,
			"0.016": 0.0,
			"0.017": 0.0,
			"0.018": 0.0,
			"0.019": 0.0,
			"0.02": 0.0,
			"0.021": 0.0,
			"0.022": 0.0,
			"0.023": 0.0,
			"0.024": 0.0,
			"0.025": 0.0
		}
	}
}
