{
	 "smiles": "COC(=O)C1=C(N)C(=C(S1)C(F)(F)F)C1=CC=CC=C1", 
	 "Tm": 393.15, 
	 "num_atms": 30, 
	 "gaussian": { 
		 "optdone": 1, 
		 "sigma_profile": "yes", 
		 "theory": "DFT", 
		 "functional": "B3LYP", 
		 "basiset": "6-31G**", 
		 "properties": { 
			 "R2extent": 6915.2583, 
			 "electric_dipole_moment_norm": 2.25115606078, 
			 "electric_quadrupole_moment_norm": 15.8778118814, 
			 "total_energy": -1404.33459169, 
			 "HOMO_LUMO_gap": 0.15398, 
			 "cosmo_polarized_energy": -9.1, 
			 "cosmo_cavitation_energy": 36.83, 
			 "cosmo_dispersion_energy": -26.52, 
			 "cosmo_repulsion_energy": 1.95, 
			 "cosmo_total_nonelectrostatic_energy": 12.25, 
			 "SMD_solvation_energy": 8.27 
		},
		"coords": [
			{
				"x": 4.4207390936,
				"y": -2.2559905183,
				"z": 1.3237583594,
				"element": "C" 
			},
			{
				"x": 3.0929654134,
				"y": -1.7577141433,
				"z": 1.5448809481,
				"element": "O" 
			},
			{
				"x": 2.4149443142,
				"y": -1.3873763519,
				"z": 0.4338901935,
				"element": "C" 
			},
			{
				"x": 2.8897451235,
				"y": -1.4668243206,
				"z": -0.6959679042,
				"element": "O" 
			},
			{
				"x": 1.0881622445,
				"y": -0.8857895284,
				"z": 0.7284184996,
				"element": "C" 
			},
			{
				"x": 0.1875636751,
				"y": -0.4272935331,
				"z": -0.231993936,
				"element": "C" 
			},
			{
				"x": 0.4208609274,
				"y": -0.4691597725,
				"z": -1.5759004468,
				"element": "N" 
			},
			{
				"x": -1.0355036163,
				"y": 0.0774013503,
				"z": 0.3557849451,
				"element": "C" 
			},
			{
				"x": -1.0034825829,
				"y": -0.0365377112,
				"z": 1.7289472156,
				"element": "C" 
			},
			{
				"x": 0.4542763997,
				"y": -0.7389060672,
				"z": 2.3488984378,
				"element": "S" 
			},
			{
				"x": -2.06511016,
				"y": 0.3763528486,
				"z": 2.7038756648,
				"element": "C" 
			},
			{
				"x": -3.2993410798,
				"y": 0.0370344279,
				"z": 2.2892128409,
				"element": "F" 
			},
			{
				"x": -1.8625680362,
				"y": -0.1986930853,
				"z": 3.9099253757,
				"element": "F" 
			},
			{
				"x": -2.0699779984,
				"y": 1.7181052529,
				"z": 2.9105930628,
				"element": "F" 
			},
			{
				"x": -2.1389664312,
				"y": 0.6443068683,
				"z": -0.4606949169,
				"element": "C" 
			},
			{
				"x": -2.6746424686,
				"y": -0.0948136753,
				"z": -1.5309131117,
				"element": "C" 
			},
			{
				"x": -3.6993615205,
				"y": 0.4332695706,
				"z": -2.3163043841,
				"element": "C" 
			},
			{
				"x": -4.2034151246,
				"y": 1.7073191064,
				"z": -2.0492954721,
				"element": "C" 
			},
			{
				"x": -3.6775364512,
				"y": 2.4499107139,
				"z": -0.9904290764,
				"element": "C" 
			},
			{
				"x": -2.6524372213,
				"y": 1.9264771155,
				"z": -0.2038501599,
				"element": "C" 
			},
			{
				"x": 4.3988171864,
				"y": -3.1421916114,
				"z": 0.6845545047,
				"element": "H" 
			},
			{
				"x": 4.8071198975,
				"y": -2.5063733429,
				"z": 2.311539926,
				"element": "H" 
			},
			{
				"x": 5.0450141051,
				"y": -1.494186476,
				"z": 0.8499659842,
				"element": "H" 
			},
			{
				"x": 1.372454295,
				"y": -0.6943394412,
				"z": -1.8434535327,
				"element": "H" 
			},
			{
				"x": -0.1183246403,
				"y": 0.1435604053,
				"z": -2.1682452083,
				"element": "H" 
			},
			{
				"x": -2.2945122444,
				"y": -1.0911330099,
				"z": -1.7348156156,
				"element": "H" 
			},
			{
				"x": -4.107501229,
				"y": -0.1549603473,
				"z": -3.1331800175,
				"element": "H" 
			},
			{
				"x": -5.0007481225,
				"y": 2.1183169774,
				"z": -2.6616097624,
				"element": "H" 
			},
			{
				"x": -4.0631418445,
				"y": 3.442618108,
				"z": -0.777016164,
				"element": "H" 
			},
			{
				"x": -2.2473919039,
				"y": 2.5085101908,
				"z": 0.6162237502,
				"element": "H" 
			}
		],
		 "valence_orbital": [ 
			{
				"type": "occ",
				"energy": -0.28087,
				"method": "rhf"
			},
			{
				"type": "occ",
				"energy": -0.27708,
				"method": "rhf"
			},
			{
				"type": "occ",
				"energy": -0.26068,
				"method": "rhf"
			},
			{
				"type": "occ",
				"energy": -0.24194,
				"method": "rhf"
			},
			{
				"type": "occ",
				"energy": -0.21285,
				"method": "rhf"
			},
			{
				"type": "unocc",
				"energy": -0.05887,
				"method": "rhf"
			},
			{
				"type": "unocc",
				"energy": -0.02088,
				"method": "rhf"
			},
			{
				"type": "unocc",
				"energy": -0.01212,
				"method": "rhf"
			},
			{
				"type": "unocc",
				"energy": 0.02358,
				"method": "rhf"
			},
			{
				"type": "unocc",
				"energy": 0.03472,
				"method": "rhf"
			}
		],
		"cosmo_sigma_profile": { 
			"-0.025": 0.0,
			"-0.024": 0.0,
			"-0.023": 0.0,
			"-0.022": 0.0,
			"-0.021": 0.0,
			"-0.02": 0.0,
			"-0.019": 0.0,
			"-0.018": 0.0,
			"-0.017": 0.0,
			"-0.016": 0.0,
			"-0.015": 0.0,
			"-0.014": 0.0,
			"-0.013": 0.369361082296,
			"-0.012": 0.965758327042,
			"-0.011": 0.695823578108,
			"-0.01": 1.34489335718,
			"-0.009": 1.93865427848,
			"-0.008": 2.1392490743,
			"-0.007": 3.01463270047,
			"-0.006": 12.2375509635,
			"-0.005": 18.8632839487,
			"-0.004": 22.1575979324,
			"-0.003": 20.0397037633,
			"-0.002": 18.9460337329,
			"-0.001": 19.5240577524,
			"0.0": 25.049123491,
			"0.001": 33.2852455662,
			"0.002": 43.5040066325,
			"0.003": 30.5000484765,
			"0.004": 16.5874003874,
			"0.005": 9.90958548325,
			"0.006": 4.4805771471,
			"0.007": 1.97054073448,
			"0.008": 2.08408468272,
			"0.009": 1.52417623361,
			"0.01": 1.81142872874,
			"0.011": 2.35944671874,
			"0.012": 1.71295431969,
			"0.013": 0.218323361048,
			"0.014": 0.0,
			"0.015": 0.0,
			"0.016": 0.0,
			"0.017": 0.0,
			"0.018": 0.0,
			"0.019": 0.0,
			"0.02": 0.0,
			"0.021": 0.0,
			"0.022": 0.0,
			"0.023": 0.0,
			"0.024": 0.0,
			"0.025": 0.0
		}
	}
}
