{
	 "smiles": "COC(=O)C1=C(N)C=C(S1)C1=C(Cl)C=CC=C1", 
	 "Tm": 383.15, 
	 "num_atms": 27, 
	 "gaussian": { 
		 "optdone": 1, 
		 "sigma_profile": "yes", 
		 "theory": "DFT", 
		 "functional": "B3LYP", 
		 "basiset": "6-31G**", 
		 "properties": { 
			 "R2extent": 6108.4962, 
			 "electric_dipole_moment_norm": 2.79065857639, 
			 "electric_quadrupole_moment_norm": 26.2141636355, 
			 "total_energy": -1526.88961314, 
			 "HOMO_LUMO_gap": 0.14995, 
			 "cosmo_polarized_energy": -13.74, 
			 "cosmo_cavitation_energy": 34.72, 
			 "cosmo_dispersion_energy": -25.82, 
			 "cosmo_repulsion_energy": 1.97, 
			 "cosmo_total_nonelectrostatic_energy": 10.86, 
			 "SMD_solvation_energy": 6.62 
		},
		"coords": [
			{
				"x": 3.4548941975,
				"y": -3.248410192,
				"z": -2.8821152052,
				"element": "C" 
			},
			{
				"x": 2.3289839126,
				"y": -2.447648865,
				"z": -2.4902924516,
				"element": "O" 
			},
			{
				"x": 2.4015003516,
				"y": -1.9375491579,
				"z": -1.2189956427,
				"element": "C" 
			},
			{
				"x": 3.3518031076,
				"y": -2.1493954003,
				"z": -0.4857649426,
				"element": "O" 
			},
			{
				"x": 1.2415737878,
				"y": -1.1358728152,
				"z": -0.8785367546,
				"element": "C" 
			},
			{
				"x": 0.1047227724,
				"y": -0.8154888098,
				"z": -1.6216971702,
				"element": "C" 
			},
			{
				"x": -0.2016350795,
				"y": -1.3005787476,
				"z": -2.8712933589,
				"element": "N" 
			},
			{
				"x": -0.7746341048,
				"y": 0.0512473215,
				"z": -0.9004476513,
				"element": "C" 
			},
			{
				"x": -0.3245060983,
				"y": 0.3761676069,
				"z": 0.3558603484,
				"element": "C" 
			},
			{
				"x": 1.2126336824,
				"y": -0.3765688012,
				"z": 0.6993834081,
				"element": "S" 
			},
			{
				"x": -0.9801741271,
				"y": 1.1927809716,
				"z": 1.3928193741,
				"element": "C" 
			},
			{
				"x": -1.6306158626,
				"y": 2.4193997608,
				"z": 1.1452508491,
				"element": "C" 
			},
			{
				"x": -1.6840761163,
				"y": 3.130810682,
				"z": -0.4651267986,
				"element": "Cl" 
			},
			{
				"x": -2.2333272338,
				"y": 3.1477338006,
				"z": 2.1712906507,
				"element": "C" 
			},
			{
				"x": -2.1979028404,
				"y": 2.6723822527,
				"z": 3.4803955445,
				"element": "C" 
			},
			{
				"x": -1.5544254094,
				"y": 1.4666913901,
				"z": 3.7598295526,
				"element": "C" 
			},
			{
				"x": -0.9606363767,
				"y": 0.7451331693,
				"z": 2.7299029634,
				"element": "C" 
			},
			{
				"x": 4.3748704059,
				"y": -2.6589505326,
				"z": -2.860480176,
				"element": "H" 
			},
			{
				"x": 3.5704566628,
				"y": -4.1041463291,
				"z": -2.2127051107,
				"element": "H" 
			},
			{
				"x": 3.2394048483,
				"y": -3.5837186269,
				"z": -3.8970468405,
				"element": "H" 
			},
			{
				"x": 0.5588574895,
				"y": -1.7444755257,
				"z": -3.3662749203,
				"element": "H" 
			},
			{
				"x": -0.8245653091,
				"y": -0.7405353976,
				"z": -3.4331357938,
				"element": "H" 
			},
			{
				"x": -1.7208300818,
				"y": 0.3928950183,
				"z": -1.3012638066,
				"element": "H" 
			},
			{
				"x": -2.7183208156,
				"y": 4.0884314415,
				"z": 1.93568426,
				"element": "H" 
			},
			{
				"x": -2.6695238424,
				"y": 3.2451718416,
				"z": 4.2729292526,
				"element": "H" 
			},
			{
				"x": -1.5205103798,
				"y": 1.0833659528,
				"z": 4.7748177667,
				"element": "H" 
			},
			{
				"x": -0.4799175408,
				"y": -0.2037720088,
				"z": 2.9451126532,
				"element": "H" 
			}
		],
		 "valence_orbital": [ 
			{
				"type": "occ",
				"energy": -0.27395,
				"method": "rhf"
			},
			{
				"type": "occ",
				"energy": -0.26872,
				"method": "rhf"
			},
			{
				"type": "occ",
				"energy": -0.25485,
				"method": "rhf"
			},
			{
				"type": "occ",
				"energy": -0.23331,
				"method": "rhf"
			},
			{
				"type": "occ",
				"energy": -0.2053,
				"method": "rhf"
			},
			{
				"type": "unocc",
				"energy": -0.05535,
				"method": "rhf"
			},
			{
				"type": "unocc",
				"energy": -0.02037,
				"method": "rhf"
			},
			{
				"type": "unocc",
				"energy": -0.00729,
				"method": "rhf"
			},
			{
				"type": "unocc",
				"energy": 0.0249,
				"method": "rhf"
			},
			{
				"type": "unocc",
				"energy": 0.03251,
				"method": "rhf"
			}
		],
		"cosmo_sigma_profile": { 
			"-0.025": 0.0,
			"-0.024": 0.0,
			"-0.023": 0.0,
			"-0.022": 0.0,
			"-0.021": 0.0,
			"-0.02": 0.0,
			"-0.019": 0.0,
			"-0.018": 0.0,
			"-0.017": 0.0,
			"-0.016": 0.0,
			"-0.015": 0.0,
			"-0.014": 0.538041400919,
			"-0.013": 1.5475474496,
			"-0.012": 1.7803153867,
			"-0.011": 1.4254628501,
			"-0.01": 2.48701890734,
			"-0.009": 2.41622300366,
			"-0.008": 2.64249943086,
			"-0.007": 7.04995230344,
			"-0.006": 15.4104807717,
			"-0.005": 18.397838139,
			"-0.004": 16.7007573611,
			"-0.003": 18.4811904585,
			"-0.002": 16.6720775119,
			"-0.001": 16.8925132479,
			"0.0": 18.2498148485,
			"0.001": 24.7768560066,
			"0.002": 29.2338993891,
			"0.003": 34.2460882946,
			"0.004": 20.8713949099,
			"0.005": 9.83518604579,
			"0.006": 2.53316416958,
			"0.007": 2.45226338119,
			"0.008": 2.81069031779,
			"0.009": 2.30527677708,
			"0.01": 2.71717053579,
			"0.011": 2.32174876583,
			"0.012": 4.71207643595,
			"0.013": 2.63320708568,
			"0.014": 0.0,
			"0.015": 0.0,
			"0.016": 0.0,
			"0.017": 0.0,
			"0.018": 0.0,
			"0.019": 0.0,
			"0.02": 0.0,
			"0.021": 0.0,
			"0.022": 0.0,
			"0.023": 0.0,
			"0.024": 0.0,
			"0.025": 0.0
		}
	}
}
