{
	 "smiles": "CCC1=CC(=O)N2C3=C(NC2=C1C#N)C=CC=C3", 
	 "Tm": 518.15, 
	 "num_atms": 29, 
	 "gaussian": { 
		 "optdone": 1, 
		 "sigma_profile": "yes", 
		 "theory": "DFT", 
		 "functional": "B3LYP", 
		 "basiset": "6-31G**", 
		 "properties": { 
			 "R2extent": 4910.0012, 
			 "electric_dipole_moment_norm": 2.7528087874, 
			 "electric_quadrupole_moment_norm": 21.5133128802, 
			 "total_energy": -779.618491734, 
			 "HOMO_LUMO_gap": 0.16003, 
			 "cosmo_polarized_energy": -16.95, 
			 "cosmo_cavitation_energy": 33.59, 
			 "cosmo_dispersion_energy": -24.0, 
			 "cosmo_repulsion_energy": 1.81, 
			 "cosmo_total_nonelectrostatic_energy": 11.41, 
			 "SMD_solvation_energy": 6.91 
		},
		"coords": [
			{
				"x": 2.422149583,
				"y": -3.9452776664,
				"z": 2.7489720083,
				"element": "C" 
			},
			{
				"x": 1.2069863677,
				"y": -4.0662277,
				"z": 1.8095044961,
				"element": "C" 
			},
			{
				"x": 0.7042545775,
				"y": -2.7244911503,
				"z": 1.3260548612,
				"element": "C" 
			},
			{
				"x": -0.3914424358,
				"y": -2.1324343262,
				"z": 1.9095341184,
				"element": "C" 
			},
			{
				"x": -0.9129850714,
				"y": -0.8428682579,
				"z": 1.5354428456,
				"element": "C" 
			},
			{
				"x": -1.877993791,
				"y": -0.2553305219,
				"z": 2.0101060714,
				"element": "O" 
			},
			{
				"x": -0.1674131783,
				"y": -0.2252026322,
				"z": 0.472291506,
				"element": "N" 
			},
			{
				"x": -0.4093376754,
				"y": 1.0237682857,
				"z": -0.1320205818,
				"element": "C" 
			},
			{
				"x": 0.5772530367,
				"y": 1.1882272491,
				"z": -1.1216860683,
				"element": "C" 
			},
			{
				"x": 1.3786046318,
				"y": 0.0470497258,
				"z": -1.0880979544,
				"element": "N" 
			},
			{
				"x": 0.9245620275,
				"y": -0.8041973608,
				"z": -0.1224447912,
				"element": "C" 
			},
			{
				"x": 1.4028527013,
				"y": -2.0533604739,
				"z": 0.2666667887,
				"element": "C" 
			},
			{
				"x": 2.5336875893,
				"y": -2.5800130993,
				"z": -0.4079574193,
				"element": "C" 
			},
			{
				"x": 3.466520534,
				"y": -2.9607560772,
				"z": -0.9973306517,
				"element": "N" 
			},
			{
				"x": 0.6288872128,
				"y": 2.328817526,
				"z": -1.9167724834,
				"element": "C" 
			},
			{
				"x": -0.3446753996,
				"y": 3.3038408385,
				"z": -1.6872387849,
				"element": "C" 
			},
			{
				"x": -1.3281504109,
				"y": 3.1395417101,
				"z": -0.7006866805,
				"element": "C" 
			},
			{
				"x": -1.3805145599,
				"y": 1.9944534159,
				"z": 0.0982093358,
				"element": "C" 
			},
			{
				"x": 2.7381253008,
				"y": -4.9366056566,
				"z": 3.0877690698,
				"element": "H" 
			},
			{
				"x": 3.2717063109,
				"y": -3.477674,
				"z": 2.2432114781,
				"element": "H" 
			},
			{
				"x": 2.1759907294,
				"y": -3.3449438751,
				"z": 3.6301018766,
				"element": "H" 
			},
			{
				"x": 0.3921068093,
				"y": -4.5806329041,
				"z": 2.3281680943,
				"element": "H" 
			},
			{
				"x": 1.4798459226,
				"y": -4.6851224247,
				"z": 0.9467786521,
				"element": "H" 
			},
			{
				"x": -0.9292866889,
				"y": -2.6323117334,
				"z": 2.7067474086,
				"element": "H" 
			},
			{
				"x": 2.1776560749,
				"y": -0.1540478087,
				"z": -1.6707628755,
				"element": "H" 
			},
			{
				"x": 1.3898035757,
				"y": 2.4553262741,
				"z": -2.6797859468,
				"element": "H" 
			},
			{
				"x": -0.3368826365,
				"y": 4.20792207,
				"z": -2.2879429686,
				"element": "H" 
			},
			{
				"x": -2.0679132514,
				"y": 3.9195397764,
				"z": -0.5520877358,
				"element": "H" 
			},
			{
				"x": -2.1286978864,
				"y": 1.8455107971,
				"z": 0.864356331,
				"element": "H" 
			}
		],
		 "valence_orbital": [ 
			{
				"type": "occ",
				"energy": -0.30314,
				"method": "rhf"
			},
			{
				"type": "occ",
				"energy": -0.26447,
				"method": "rhf"
			},
			{
				"type": "occ",
				"energy": -0.26329,
				"method": "rhf"
			},
			{
				"type": "occ",
				"energy": -0.25891,
				"method": "rhf"
			},
			{
				"type": "occ",
				"energy": -0.20915,
				"method": "rhf"
			},
			{
				"type": "unocc",
				"energy": -0.04912,
				"method": "rhf"
			},
			{
				"type": "unocc",
				"energy": -0.02959,
				"method": "rhf"
			},
			{
				"type": "unocc",
				"energy": -0.00548,
				"method": "rhf"
			},
			{
				"type": "unocc",
				"energy": -0.00093,
				"method": "rhf"
			},
			{
				"type": "unocc",
				"energy": 0.02263,
				"method": "rhf"
			}
		],
		"cosmo_sigma_profile": { 
			"-0.025": 0.0,
			"-0.024": 0.0,
			"-0.023": 0.0,
			"-0.022": 0.0,
			"-0.021": 0.0,
			"-0.02": 0.0,
			"-0.019": 0.0,
			"-0.018": 0.304118205826,
			"-0.017": 1.02381365159,
			"-0.016": 1.23562221324,
			"-0.015": 1.14590754056,
			"-0.014": 0.696331195393,
			"-0.013": 1.29131018788,
			"-0.012": 1.31825885742,
			"-0.011": 1.12847800858,
			"-0.01": 1.82060020375,
			"-0.009": 1.50253180239,
			"-0.008": 2.47972565692,
			"-0.007": 4.31190270452,
			"-0.006": 9.77109085093,
			"-0.005": 14.122355634,
			"-0.004": 20.9893846283,
			"-0.003": 24.2946514342,
			"-0.002": 26.1489282972,
			"-0.001": 25.5307312818,
			"0.0": 24.7479208029,
			"0.001": 20.9078221064,
			"0.002": 15.8612721795,
			"0.003": 14.3825880858,
			"0.004": 12.4868525922,
			"0.005": 4.35928505699,
			"0.006": 3.7097544079,
			"0.007": 3.23615975252,
			"0.008": 3.44116980173,
			"0.009": 4.55032694852,
			"0.01": 4.85153700623,
			"0.011": 5.07830529679,
			"0.012": 5.2891651578,
			"0.013": 5.41820875384,
			"0.014": 2.51195179653,
			"0.015": 0.136951350807,
			"0.016": 0.0,
			"0.017": 0.0,
			"0.018": 0.0,
			"0.019": 0.0,
			"0.02": 0.0,
			"0.021": 0.0,
			"0.022": 0.0,
			"0.023": 0.0,
			"0.024": 0.0,
			"0.025": 0.0
		}
	}
}
