{
	 "smiles": "CN1C(CCl)=NC2=C1C(=O)NC(=O)N2C", 
	 "Tm": 543.15, 
	 "num_atms": 24, 
	 "gaussian": { 
		 "optdone": 1, 
		 "sigma_profile": "yes", 
		 "theory": "DFT", 
		 "functional": "B3LYP", 
		 "basiset": "6-31G**", 
		 "properties": { 
			 "R2extent": 3880.7588, 
			 "electric_dipole_moment_norm": 3.43462348009, 
			 "electric_quadrupole_moment_norm": 9.51404502827, 
			 "total_energy": -1139.97711429, 
			 "HOMO_LUMO_gap": 0.16979, 
			 "cosmo_polarized_energy": -16.4, 
			 "cosmo_cavitation_energy": 29.84, 
			 "cosmo_dispersion_energy": -22.0, 
			 "cosmo_repulsion_energy": 1.71, 
			 "cosmo_total_nonelectrostatic_energy": 9.55, 
			 "SMD_solvation_energy": 4.74 
		},
		"coords": [
			{
				"x": -1.7338137532,
				"y": -1.8198506772,
				"z": -1.3170461679,
				"element": "C" 
			},
			{
				"x": -0.949586091,
				"y": -0.8104600216,
				"z": -0.6047444665,
				"element": "N" 
			},
			{
				"x": -1.3850338387,
				"y": 0.353397433,
				"z": -0.0436571335,
				"element": "C" 
			},
			{
				"x": -2.8002640844,
				"y": 0.7958129264,
				"z": -0.0548391768,
				"element": "C" 
			},
			{
				"x": -3.3263118551,
				"y": 1.4332969651,
				"z": -1.6934427852,
				"element": "Cl" 
			},
			{
				"x": -0.4000743945,
				"y": 1.0605681416,
				"z": 0.5188801157,
				"element": "N" 
			},
			{
				"x": 0.7099150577,
				"y": 0.3131678548,
				"z": 0.3061190413,
				"element": "C" 
			},
			{
				"x": 0.4153836379,
				"y": -0.8499525191,
				"z": -0.3871241281,
				"element": "C" 
			},
			{
				"x": 1.4166345359,
				"y": -1.8214252939,
				"z": -0.738751625,
				"element": "C" 
			},
			{
				"x": 1.2738062083,
				"y": -2.8789523651,
				"z": -1.3434200464,
				"element": "O" 
			},
			{
				"x": 2.6741481733,
				"y": -1.3942212033,
				"z": -0.2778024945,
				"element": "N" 
			},
			{
				"x": 3.0379802659,
				"y": -0.2370290092,
				"z": 0.4250203866,
				"element": "C" 
			},
			{
				"x": 4.1959890592,
				"y": -0.029608305,
				"z": 0.7485727971,
				"element": "O" 
			},
			{
				"x": 1.9874156243,
				"y": 0.6327883941,
				"z": 0.7141032432,
				"element": "N" 
			},
			{
				"x": 2.2489265408,
				"y": 1.8752864431,
				"z": 1.4385631037,
				"element": "C" 
			},
			{
				"x": -1.0440225846,
				"y": -2.5914734905,
				"z": -1.6575748619,
				"element": "H" 
			},
			{
				"x": -2.2420356043,
				"y": -1.3650273415,
				"z": -2.1701540099,
				"element": "H" 
			},
			{
				"x": -2.4756242713,
				"y": -2.2656978657,
				"z": -0.6479388207,
				"element": "H" 
			},
			{
				"x": -3.4965505766,
				"y": -0.0097600213,
				"z": 0.1810734666,
				"element": "H" 
			},
			{
				"x": -2.920327626,
				"y": 1.6153118371,
				"z": 0.6502826974,
				"element": "H" 
			},
			{
				"x": 3.4514647093,
				"y": -2.011847845,
				"z": -0.4777895939,
				"element": "H" 
			},
			{
				"x": 3.3172321804,
				"y": 1.9131760568,
				"z": 1.6415980195,
				"element": "H" 
			},
			{
				"x": 1.9467839401,
				"y": 2.7332777422,
				"z": 0.8327936051,
				"element": "H" 
			},
			{
				"x": 1.6848647466,
				"y": 1.8907221643,
				"z": 2.3746788341,
				"element": "H" 
			}
		],
		 "valence_orbital": [ 
			{
				"type": "occ",
				"energy": -0.29494,
				"method": "rhf"
			},
			{
				"type": "occ",
				"energy": -0.28932,
				"method": "rhf"
			},
			{
				"type": "occ",
				"energy": -0.28647,
				"method": "rhf"
			},
			{
				"type": "occ",
				"energy": -0.26809,
				"method": "rhf"
			},
			{
				"type": "occ",
				"energy": -0.22711,
				"method": "rhf"
			},
			{
				"type": "unocc",
				"energy": -0.05732,
				"method": "rhf"
			},
			{
				"type": "unocc",
				"energy": -0.00259,
				"method": "rhf"
			},
			{
				"type": "unocc",
				"energy": 0.01846,
				"method": "rhf"
			},
			{
				"type": "unocc",
				"energy": 0.04533,
				"method": "rhf"
			},
			{
				"type": "unocc",
				"energy": 0.07999,
				"method": "rhf"
			}
		],
		"cosmo_sigma_profile": { 
			"-0.025": 0.0,
			"-0.024": 0.0,
			"-0.023": 0.0,
			"-0.022": 0.0,
			"-0.021": 0.0,
			"-0.02": 0.0,
			"-0.019": 0.0,
			"-0.018": 0.0,
			"-0.017": 0.0,
			"-0.016": 0.341085579434,
			"-0.015": 1.17649663231,
			"-0.014": 0.816352671576,
			"-0.013": 0.268665513131,
			"-0.012": 0.637582496146,
			"-0.011": 0.900453935078,
			"-0.01": 2.40889480598,
			"-0.009": 5.38853291285,
			"-0.008": 5.29381767247,
			"-0.007": 6.53035012543,
			"-0.006": 11.1925791622,
			"-0.005": 16.9372620973,
			"-0.004": 19.9157827579,
			"-0.003": 24.1520618172,
			"-0.002": 24.3708080957,
			"-0.001": 16.8750494141,
			"0.0": 10.6790998534,
			"0.001": 8.04350415678,
			"0.002": 9.55107379595,
			"0.003": 9.1811260156,
			"0.004": 10.0543294235,
			"0.005": 10.5760454034,
			"0.006": 9.31441775562,
			"0.007": 4.19927348801,
			"0.008": 2.58348096178,
			"0.009": 3.28516077607,
			"0.01": 4.92271785758,
			"0.011": 4.26283926286,
			"0.012": 9.84680282993,
			"0.013": 5.96302833955,
			"0.014": 0.636904227032,
			"0.015": 0.0179221140386,
			"0.016": 0.0,
			"0.017": 0.0,
			"0.018": 0.0,
			"0.019": 0.0,
			"0.02": 0.0,
			"0.021": 0.0,
			"0.022": 0.0,
			"0.023": 0.0,
			"0.024": 0.0,
			"0.025": 0.0
		}
	}
}
