{
	 "smiles": "CCC1=C(C)SC(NC(=O)CCl)=N1", 
	 "Tm": 398.15, 
	 "num_atms": 24, 
	 "gaussian": { 
		 "optdone": 1, 
		 "sigma_profile": "yes", 
		 "theory": "DFT", 
		 "functional": "B3LYP", 
		 "basiset": "6-31G**", 
		 "properties": { 
			 "R2extent": 4845.4122, 
			 "electric_dipole_moment_norm": 4.12503791983, 
			 "electric_quadrupole_moment_norm": 9.14743206589, 
			 "total_energy": -1354.6007706, 
			 "HOMO_LUMO_gap": 0.17389, 
			 "cosmo_polarized_energy": -11.21, 
			 "cosmo_cavitation_energy": 30.83, 
			 "cosmo_dispersion_energy": -22.77, 
			 "cosmo_repulsion_energy": 1.81, 
			 "cosmo_total_nonelectrostatic_energy": 9.86, 
			 "SMD_solvation_energy": 4.4 
		},
		"coords": [
			{
				"x": 0.6629012693,
				"y": 2.4186501719,
				"z": -3.1963746122,
				"element": "C" 
			},
			{
				"x": 1.3184844871,
				"y": 1.6746387588,
				"z": -2.0211368823,
				"element": "C" 
			},
			{
				"x": 0.3358260868,
				"y": 1.3149607495,
				"z": -0.9374483139,
				"element": "C" 
			},
			{
				"x": 0.3060534261,
				"y": 1.7989286953,
				"z": 0.3434334107,
				"element": "C" 
			},
			{
				"x": 1.1896719138,
				"y": 2.7923134773,
				"z": 1.0359030779,
				"element": "C" 
			},
			{
				"x": -1.0303113287,
				"y": 1.0565412947,
				"z": 1.2144591015,
				"element": "S" 
			},
			{
				"x": -1.4581224677,
				"y": 0.1933699246,
				"z": -0.2558973695,
				"element": "C" 
			},
			{
				"x": -2.4956187097,
				"y": -0.7262622174,
				"z": -0.3929865032,
				"element": "N" 
			},
			{
				"x": -3.6985277213,
				"y": -0.9562818011,
				"z": 0.2529384842,
				"element": "C" 
			},
			{
				"x": -4.4816151778,
				"y": -1.7736630751,
				"z": -0.200217869,
				"element": "O" 
			},
			{
				"x": -4.0310844847,
				"y": -0.178225573,
				"z": 1.5178967416,
				"element": "C" 
			},
			{
				"x": -3.28364954,
				"y": -0.9548897453,
				"z": 2.9756477532,
				"element": "Cl" 
			},
			{
				"x": -0.6646739752,
				"y": 0.4142636344,
				"z": -1.262124741,
				"element": "N" 
			},
			{
				"x": 0.248456948,
				"y": 3.379042724,
				"z": -2.8728153882,
				"element": "H" 
			},
			{
				"x": 1.392498615,
				"y": 2.6124084379,
				"z": -3.9890872256,
				"element": "H" 
			},
			{
				"x": -0.1526806798,
				"y": 1.8239042305,
				"z": -3.6166652022,
				"element": "H" 
			},
			{
				"x": 1.7711343614,
				"y": 0.7463068897,
				"z": -2.3911345651,
				"element": "H" 
			},
			{
				"x": 2.1331052788,
				"y": 2.2751092257,
				"z": -1.6052455466,
				"element": "H" 
			},
			{
				"x": 1.9784533487,
				"y": 3.1311027474,
				"z": 0.3606575373,
				"element": "H" 
			},
			{
				"x": 0.6305573279,
				"y": 3.6769760544,
				"z": 1.3621380766,
				"element": "H" 
			},
			{
				"x": 1.6724127047,
				"y": 2.363338216,
				"z": 1.9213979588,
				"element": "H" 
			},
			{
				"x": -2.421770186,
				"y": -1.2529181616,
				"z": -1.2580347911,
				"element": "H" 
			},
			{
				"x": -3.6942481878,
				"y": 0.8587713777,
				"z": 1.4925423198,
				"element": "H" 
			},
			{
				"x": -5.1100533089,
				"y": -0.2286860363,
				"z": 1.6476545483,
				"element": "H" 
			}
		],
		 "valence_orbital": [ 
			{
				"type": "occ",
				"energy": -0.31062,
				"method": "rhf"
			},
			{
				"type": "occ",
				"energy": -0.28759,
				"method": "rhf"
			},
			{
				"type": "occ",
				"energy": -0.27994,
				"method": "rhf"
			},
			{
				"type": "occ",
				"energy": -0.27353,
				"method": "rhf"
			},
			{
				"type": "occ",
				"energy": -0.2225,
				"method": "rhf"
			},
			{
				"type": "unocc",
				"energy": -0.04861,
				"method": "rhf"
			},
			{
				"type": "unocc",
				"energy": -0.01035,
				"method": "rhf"
			},
			{
				"type": "unocc",
				"energy": 0.00472,
				"method": "rhf"
			},
			{
				"type": "unocc",
				"energy": 0.03844,
				"method": "rhf"
			},
			{
				"type": "unocc",
				"energy": 0.06581,
				"method": "rhf"
			}
		],
		"cosmo_sigma_profile": { 
			"-0.025": 0.0,
			"-0.024": 0.0,
			"-0.023": 0.0,
			"-0.022": 0.0,
			"-0.021": 0.0,
			"-0.02": 0.0,
			"-0.019": 0.0,
			"-0.018": 0.0,
			"-0.017": 0.0,
			"-0.016": 0.0,
			"-0.015": 0.57745519843,
			"-0.014": 0.395034871252,
			"-0.013": 1.10643337056,
			"-0.012": 1.08245283333,
			"-0.011": 0.147386074662,
			"-0.01": 1.22560772238,
			"-0.009": 3.73147386174,
			"-0.008": 4.88533273228,
			"-0.007": 5.75531313105,
			"-0.006": 6.8712931263,
			"-0.005": 10.34153087,
			"-0.004": 15.3518593762,
			"-0.003": 17.4853570212,
			"-0.002": 22.307843785,
			"-0.001": 28.6698085619,
			"0.0": 24.7017420065,
			"0.001": 22.6197463146,
			"0.002": 17.6487515715,
			"0.003": 13.4332056633,
			"0.004": 13.6487793674,
			"0.005": 11.3557596078,
			"0.006": 2.54724758044,
			"0.007": 3.3819106161,
			"0.008": 2.10719222685,
			"0.009": 2.81259336535,
			"0.01": 2.94523440334,
			"0.011": 4.47482128765,
			"0.012": 4.93328136975,
			"0.013": 1.32524299406,
			"0.014": 0.0703266330486,
			"0.015": 0.0,
			"0.016": 0.0,
			"0.017": 0.0,
			"0.018": 0.0,
			"0.019": 0.0,
			"0.02": 0.0,
			"0.021": 0.0,
			"0.022": 0.0,
			"0.023": 0.0,
			"0.024": 0.0,
			"0.025": 0.0
		}
	}
}
