{
	 "smiles": "CCCCCCCCCCCCCCCC#C", 
	 "Tm": 295.15, 
	 "num_atms": 49, 
	 "gaussian": { 
		 "optdone": 1, 
		 "sigma_profile": "yes", 
		 "theory": "DFT", 
		 "functional": "B3LYP", 
		 "basiset": "6-31G**", 
		 "properties": { 
			 "R2extent": 11052.403, 
			 "electric_dipole_moment_norm": 0.605822721594, 
			 "electric_quadrupole_moment_norm": 6.76588400211, 
			 "total_energy": -667.068865691, 
			 "HOMO_LUMO_gap": 0.31282, 
			 "cosmo_polarized_energy": -4.07, 
			 "cosmo_cavitation_energy": 49.05, 
			 "cosmo_dispersion_energy": -32.27, 
			 "cosmo_repulsion_energy": 2.63, 
			 "cosmo_total_nonelectrostatic_energy": 19.41, 
			 "SMD_solvation_energy": 7.75 
		},
		"coords": [
			{
				"x": 5.2953503952,
				"y": 2.4071021411,
				"z": 0.237032181,
				"element": "C" 
			},
			{
				"x": 5.9434862505,
				"y": 1.2678450399,
				"z": -0.5591162908,
				"element": "C" 
			},
			{
				"x": 4.9685792278,
				"y": 0.4761321356,
				"z": -1.446947185,
				"element": "C" 
			},
			{
				"x": 3.9070217221,
				"y": -0.318902148,
				"z": -0.6717370723,
				"element": "C" 
			},
			{
				"x": 3.0383889089,
				"y": -1.2394052352,
				"z": -1.5476845613,
				"element": "C" 
			},
			{
				"x": 2.1741514936,
				"y": -0.5351099572,
				"z": -2.6111635837,
				"element": "C" 
			},
			{
				"x": 1.1435699274,
				"y": 0.4761592235,
				"z": -2.0789037063,
				"element": "C" 
			},
			{
				"x": 0.0564969408,
				"y": -0.127078845,
				"z": -1.1780034501,
				"element": "C" 
			},
			{
				"x": -1.0002750973,
				"y": 0.9004915091,
				"z": -0.7468595706,
				"element": "C" 
			},
			{
				"x": -2.159157953,
				"y": 0.3254663565,
				"z": 0.0846747357,
				"element": "C" 
			},
			{
				"x": -1.7504367193,
				"y": -0.1979337148,
				"z": 1.4704833477,
				"element": "C" 
			},
			{
				"x": -2.9298456871,
				"y": -0.6283489577,
				"z": 2.3595725261,
				"element": "C" 
			},
			{
				"x": -3.7007122677,
				"y": -1.850929859,
				"z": 1.838446173,
				"element": "C" 
			},
			{
				"x": -4.772629272,
				"y": -2.3819266395,
				"z": 2.801944669,
				"element": "C" 
			},
			{
				"x": -5.9474537001,
				"y": -1.4109283554,
				"z": 3.0681330225,
				"element": "C" 
			},
			{
				"x": -6.6961518081,
				"y": -1.0522920383,
				"z": 1.8623668066,
				"element": "C" 
			},
			{
				"x": -7.3060223343,
				"y": -0.7665744213,
				"z": 0.859049747,
				"element": "C" 
			},
			{
				"x": 6.0450302777,
				"y": 2.9661216618,
				"z": 0.8068753505,
				"element": "H" 
			},
			{
				"x": 4.5520002474,
				"y": 2.0364324498,
				"z": 0.9502278737,
				"element": "H" 
			},
			{
				"x": 4.7896546482,
				"y": 3.1156606233,
				"z": -0.4296923789,
				"element": "H" 
			},
			{
				"x": 6.7364313776,
				"y": 1.6846523023,
				"z": -1.1934244032,
				"element": "H" 
			},
			{
				"x": 6.4424862508,
				"y": 0.5763239448,
				"z": 0.133967987,
				"element": "H" 
			},
			{
				"x": 5.5455945496,
				"y": -0.2228180999,
				"z": -2.0686090732,
				"element": "H" 
			},
			{
				"x": 4.4811531112,
				"y": 1.1704428127,
				"z": -2.1448517714,
				"element": "H" 
			},
			{
				"x": 4.4138465783,
				"y": -0.9380670096,
				"z": 0.0817079503,
				"element": "H" 
			},
			{
				"x": 3.2634123639,
				"y": 0.3680904241,
				"z": -0.1081992355,
				"element": "H" 
			},
			{
				"x": 3.6933170119,
				"y": -1.9581541458,
				"z": -2.0593580106,
				"element": "H" 
			},
			{
				"x": 2.3927453834,
				"y": -1.8396355012,
				"z": -0.8941260656,
				"element": "H" 
			},
			{
				"x": 1.6447027442,
				"y": -1.3056215757,
				"z": -3.1884257083,
				"element": "H" 
			},
			{
				"x": 2.8280515648,
				"y": -0.0242141827,
				"z": -3.3291579029,
				"element": "H" 
			},
			{
				"x": 0.6594758475,
				"y": 0.9592709339,
				"z": -2.93876972,
				"element": "H" 
			},
			{
				"x": 1.6558660245,
				"y": 1.2828066495,
				"z": -1.5368652769,
				"element": "H" 
			},
			{
				"x": 0.5190376091,
				"y": -0.5751964288,
				"z": -0.290228167,
				"element": "H" 
			},
			{
				"x": -0.438829379,
				"y": -0.9514152634,
				"z": -1.712336246,
				"element": "H" 
			},
			{
				"x": -1.4153846349,
				"y": 1.3752123872,
				"z": -1.6464941077,
				"element": "H" 
			},
			{
				"x": -0.5117981121,
				"y": 1.7060021835,
				"z": -0.179282858,
				"element": "H" 
			},
			{
				"x": -2.9194456657,
				"y": 1.1075708381,
				"z": 0.2174525034,
				"element": "H" 
			},
			{
				"x": -2.646073747,
				"y": -0.4743639309,
				"z": -0.4887571767,
				"element": "H" 
			},
			{
				"x": -1.0589275795,
				"y": -1.0443846116,
				"z": 1.3632844871,
				"element": "H" 
			},
			{
				"x": -1.1875902687,
				"y": 0.5899560727,
				"z": 1.9902888456,
				"element": "H" 
			},
			{
				"x": -2.5487156659,
				"y": -0.8534864816,
				"z": 3.3657153238,
				"element": "H" 
			},
			{
				"x": -3.6140361466,
				"y": 0.2233014014,
				"z": 2.4749672111,
				"element": "H" 
			},
			{
				"x": -4.1760269661,
				"y": -1.6160744675,
				"z": 0.878934521,
				"element": "H" 
			},
			{
				"x": -2.9855731808,
				"y": -2.6608559849,
				"z": 1.6395162244,
				"element": "H" 
			},
			{
				"x": -5.1824811009,
				"y": -3.3177769634,
				"z": 2.4046369771,
				"element": "H" 
			},
			{
				"x": -4.3131787734,
				"y": -2.6247398387,
				"z": 3.7691286957,
				"element": "H" 
			},
			{
				"x": -6.6329896353,
				"y": -1.8709501764,
				"z": 3.791598079,
				"element": "H" 
			},
			{
				"x": -5.5755908157,
				"y": -0.495732642,
				"z": 3.5460826592,
				"element": "H" 
			},
			{
				"x": -7.8494239461,
				"y": -0.5119236152,
				"z": -0.0208943756,
				"element": "H" 
			}
		],
		 "valence_orbital": [ 
			{
				"type": "occ",
				"energy": -0.3033,
				"method": "rhf"
			},
			{
				"type": "occ",
				"energy": -0.29893,
				"method": "rhf"
			},
			{
				"type": "occ",
				"energy": -0.29384,
				"method": "rhf"
			},
			{
				"type": "occ",
				"energy": -0.25811,
				"method": "rhf"
			},
			{
				"type": "occ",
				"energy": -0.25733,
				"method": "rhf"
			},
			{
				"type": "unocc",
				"energy": 0.05549,
				"method": "rhf"
			},
			{
				"type": "unocc",
				"energy": 0.06172,
				"method": "rhf"
			},
			{
				"type": "unocc",
				"energy": 0.07817,
				"method": "rhf"
			},
			{
				"type": "unocc",
				"energy": 0.09504,
				"method": "rhf"
			},
			{
				"type": "unocc",
				"energy": 0.10235,
				"method": "rhf"
			}
		],
		"cosmo_sigma_profile": { 
			"-0.025": 0.0,
			"-0.024": 0.0,
			"-0.023": 0.0,
			"-0.022": 0.0,
			"-0.021": 0.0,
			"-0.02": 0.0,
			"-0.019": 0.0,
			"-0.018": 0.0,
			"-0.017": 0.0,
			"-0.016": 0.0,
			"-0.015": 0.0,
			"-0.014": 0.0,
			"-0.013": 0.0,
			"-0.012": 0.0,
			"-0.011": 0.793270622673,
			"-0.01": 1.33661223083,
			"-0.009": 0.771105251278,
			"-0.008": 0.571196144525,
			"-0.007": 1.97679842858,
			"-0.006": 0.893125259188,
			"-0.005": 3.93012337126,
			"-0.004": 6.05491290833,
			"-0.003": 11.9768832244,
			"-0.002": 45.5698202922,
			"-0.001": 83.6405305892,
			"0.0": 84.6654127842,
			"0.001": 73.3312057103,
			"0.002": 30.7773747924,
			"0.003": 5.54221336569,
			"0.004": 4.07524251597,
			"0.005": 4.67013693383,
			"0.006": 6.06792255138,
			"0.007": 6.4677772238,
			"0.008": 4.18361746726,
			"0.009": 0.00930199954764,
			"0.01": 0.0,
			"0.011": 0.0,
			"0.012": 0.0,
			"0.013": 0.0,
			"0.014": 0.0,
			"0.015": 0.0,
			"0.016": 0.0,
			"0.017": 0.0,
			"0.018": 0.0,
			"0.019": 0.0,
			"0.02": 0.0,
			"0.021": 0.0,
			"0.022": 0.0,
			"0.023": 0.0,
			"0.024": 0.0,
			"0.025": 0.0
		}
	}
}
