{
	 "smiles": "CC(C)CC(=O)NC1=CC(C(O)=O)=C(Cl)C=C1", 
	 "Tm": 448.15, 
	 "num_atms": 31, 
	 "gaussian": { 
		 "optdone": 1, 
		 "sigma_profile": "yes", 
		 "theory": "DFT", 
		 "functional": "B3LYP", 
		 "basiset": "6-31G**", 
		 "properties": { 
			 "R2extent": 6948.1728, 
			 "electric_dipole_moment_norm": 4.40229055947, 
			 "electric_quadrupole_moment_norm": 20.7359716816, 
			 "total_energy": -1206.36445553, 
			 "HOMO_LUMO_gap": 0.17413, 
			 "cosmo_polarized_energy": -17.46, 
			 "cosmo_cavitation_energy": 36.23, 
			 "cosmo_dispersion_energy": -25.58, 
			 "cosmo_repulsion_energy": 1.99, 
			 "cosmo_total_nonelectrostatic_energy": 12.64, 
			 "SMD_solvation_energy": 7.57 
		},
		"coords": [
			{
				"x": 0.2766180485,
				"y": 3.1064292414,
				"z": -1.0906854509,
				"element": "C" 
			},
			{
				"x": 0.6607464279,
				"y": 1.8926595368,
				"z": -1.9490532224,
				"element": "C" 
			},
			{
				"x": -0.2391240293,
				"y": 1.7817200948,
				"z": -3.1875698126,
				"element": "C" 
			},
			{
				"x": 0.6068082717,
				"y": 0.5849343433,
				"z": -1.1375691415,
				"element": "C" 
			},
			{
				"x": 1.6786650916,
				"y": 0.5110978317,
				"z": -0.0617075126,
				"element": "C" 
			},
			{
				"x": 2.7008210758,
				"y": 1.1803260098,
				"z": -0.0962182295,
				"element": "O" 
			},
			{
				"x": 1.49611767,
				"y": -0.3427253234,
				"z": 1.0259463473,
				"element": "N" 
			},
			{
				"x": 0.4654209419,
				"y": -1.2198011975,
				"z": 1.4003836746,
				"element": "C" 
			},
			{
				"x": -0.2954037235,
				"y": -1.9522573343,
				"z": 0.4861245121,
				"element": "C" 
			},
			{
				"x": -1.3118104573,
				"y": -2.8351234054,
				"z": 0.886153122,
				"element": "C" 
			},
			{
				"x": -2.0170056157,
				"y": -3.5145952733,
				"z": -0.2785640251,
				"element": "C" 
			},
			{
				"x": -2.9597131619,
				"y": -4.4382020797,
				"z": -0.035820817,
				"element": "O" 
			},
			{
				"x": -1.7312343559,
				"y": -3.2319818304,
				"z": -1.4208868613,
				"element": "O" 
			},
			{
				"x": -1.5284970677,
				"y": -2.9923615976,
				"z": 2.2650514639,
				"element": "C" 
			},
			{
				"x": -2.768792091,
				"y": -4.0612640362,
				"z": 2.9447884175,
				"element": "Cl" 
			},
			{
				"x": -0.7588722339,
				"y": -2.2943523333,
				"z": 3.1964632639,
				"element": "C" 
			},
			{
				"x": 0.2241987488,
				"y": -1.4126700188,
				"z": 2.7716857936,
				"element": "C" 
			},
			{
				"x": 0.3327208197,
				"y": 4.0291484015,
				"z": -1.677668219,
				"element": "H" 
			},
			{
				"x": -0.7511747848,
				"y": 3.0147688429,
				"z": -0.7167875596,
				"element": "H" 
			},
			{
				"x": 0.9483446301,
				"y": 3.2149522597,
				"z": -0.2349218626,
				"element": "H" 
			},
			{
				"x": 1.698350178,
				"y": 2.0247734267,
				"z": -2.2761407863,
				"element": "H" 
			},
			{
				"x": -1.2880487095,
				"y": 1.6294252024,
				"z": -2.9052037122,
				"element": "H" 
			},
			{
				"x": 0.0568920886,
				"y": 0.9439658286,
				"z": -3.8285072594,
				"element": "H" 
			},
			{
				"x": -0.1884450598,
				"y": 2.6962527253,
				"z": -3.7875626958,
				"element": "H" 
			},
			{
				"x": 0.7583121626,
				"y": -0.267674349,
				"z": -1.8138097409,
				"element": "H" 
			},
			{
				"x": -0.387539281,
				"y": 0.4490229976,
				"z": -0.6957320493,
				"element": "H" 
			},
			{
				"x": 2.2345451236,
				"y": -0.2073198784,
				"z": 1.7066431978,
				"element": "H" 
			},
			{
				"x": -0.1225393993,
				"y": -1.8829885917,
				"z": -0.5783670323,
				"element": "H" 
			},
			{
				"x": -3.0992989172,
				"y": -4.5736778917,
				"z": 0.9161770295,
				"element": "H" 
			},
			{
				"x": -0.9443219507,
				"y": -2.4355510968,
				"z": 4.2552276455,
				"element": "H" 
			},
			{
				"x": 0.8038595597,
				"y": -0.8614305053,
				"z": 3.5066315226,
				"element": "H" 
			}
		],
		 "valence_orbital": [ 
			{
				"type": "occ",
				"energy": -0.31109,
				"method": "rhf"
			},
			{
				"type": "occ",
				"energy": -0.28812,
				"method": "rhf"
			},
			{
				"type": "occ",
				"energy": -0.28417,
				"method": "rhf"
			},
			{
				"type": "occ",
				"energy": -0.26591,
				"method": "rhf"
			},
			{
				"type": "occ",
				"energy": -0.24405,
				"method": "rhf"
			},
			{
				"type": "unocc",
				"energy": -0.06992,
				"method": "rhf"
			},
			{
				"type": "unocc",
				"energy": -0.04004,
				"method": "rhf"
			},
			{
				"type": "unocc",
				"energy": -0.00722,
				"method": "rhf"
			},
			{
				"type": "unocc",
				"energy": 0.01095,
				"method": "rhf"
			},
			{
				"type": "unocc",
				"energy": 0.04467,
				"method": "rhf"
			}
		],
		"cosmo_sigma_profile": { 
			"-0.025": 0.0,
			"-0.024": 0.0,
			"-0.023": 0.0,
			"-0.022": 0.0,
			"-0.021": 0.0,
			"-0.02": 0.0,
			"-0.019": 0.0,
			"-0.018": 0.0,
			"-0.017": 0.0,
			"-0.016": 0.0,
			"-0.015": 0.262517360201,
			"-0.014": 1.22044717944,
			"-0.013": 1.44575298166,
			"-0.012": 1.80258344966,
			"-0.011": 1.37622722695,
			"-0.01": 2.81594379428,
			"-0.009": 3.49927767751,
			"-0.008": 7.96845480274,
			"-0.007": 8.4823481628,
			"-0.006": 8.83946971366,
			"-0.005": 7.61516349927,
			"-0.004": 14.9478724571,
			"-0.003": 22.7596327201,
			"-0.002": 29.3571339256,
			"-0.001": 28.8063300885,
			"0.0": 33.0947473201,
			"0.001": 36.22407508,
			"0.002": 20.8451485388,
			"0.003": 7.11071656097,
			"0.004": 4.46082404899,
			"0.005": 4.28901646705,
			"0.006": 2.6269917597,
			"0.007": 4.09465780228,
			"0.008": 4.2510438581,
			"0.009": 4.50337269075,
			"0.01": 6.22192954527,
			"0.011": 6.8139104726,
			"0.012": 6.00761364262,
			"0.013": 6.30329397419,
			"0.014": 0.88255320114,
			"0.015": 0.0,
			"0.016": 0.0,
			"0.017": 0.0,
			"0.018": 0.0,
			"0.019": 0.0,
			"0.02": 0.0,
			"0.021": 0.0,
			"0.022": 0.0,
			"0.023": 0.0,
			"0.024": 0.0,
			"0.025": 0.0
		}
	}
}
