{
	 "smiles": "CC1=C(N=NN1C1=CC2=C(OCCO2)C=C1)C(O)=O", 
	 "Tm": 463.15, 
	 "num_atms": 30, 
	 "gaussian": { 
		 "optdone": 1, 
		 "sigma_profile": "yes", 
		 "theory": "DFT", 
		 "functional": "B3LYP", 
		 "basiset": "6-31G**", 
		 "properties": { 
			 "R2extent": 6792.5017, 
			 "electric_dipole_moment_norm": 8.41117836751, 
			 "electric_quadrupole_moment_norm": 14.3609956981, 
			 "total_energy": -929.020514001, 
			 "HOMO_LUMO_gap": 0.18967, 
			 "cosmo_polarized_energy": -17.61, 
			 "cosmo_cavitation_energy": 34.5, 
			 "cosmo_dispersion_energy": -25.58, 
			 "cosmo_repulsion_energy": 1.95, 
			 "cosmo_total_nonelectrostatic_energy": 10.87, 
			 "SMD_solvation_energy": 6.26 
		},
		"coords": [
			{
				"x": -1.2144976362,
				"y": -0.3441258578,
				"z": -1.8773873686,
				"element": "C" 
			},
			{
				"x": -0.2419770215,
				"y": -1.3716667141,
				"z": -1.4052267175,
				"element": "C" 
			},
			{
				"x": 0.2088573025,
				"y": -2.5333451358,
				"z": -2.012034094,
				"element": "C" 
			},
			{
				"x": 1.0618470466,
				"y": -3.1791879788,
				"z": -1.164974492,
				"element": "N" 
			},
			{
				"x": 1.1827028693,
				"y": -2.5008888472,
				"z": -0.0689424302,
				"element": "N" 
			},
			{
				"x": 0.3932369393,
				"y": -1.3875103684,
				"z": -0.1972305734,
				"element": "N" 
			},
			{
				"x": 0.3030143031,
				"y": -0.4732361332,
				"z": 0.895308789,
				"element": "C" 
			},
			{
				"x": 0.3959112023,
				"y": 0.900521299,
				"z": 0.6696599965,
				"element": "C" 
			},
			{
				"x": 0.3075222034,
				"y": 1.7819054304,
				"z": 1.7459833471,
				"element": "C" 
			},
			{
				"x": 0.1365542653,
				"y": 1.2839478618,
				"z": 3.0508077187,
				"element": "C" 
			},
			{
				"x": 0.034317305,
				"y": 2.1151378946,
				"z": 4.1333477545,
				"element": "O" 
			},
			{
				"x": -0.2177918636,
				"y": 3.4824020361,
				"z": 3.7988578136,
				"element": "C" 
			},
			{
				"x": 0.6782479896,
				"y": 3.9146334336,
				"z": 2.6501949137,
				"element": "C" 
			},
			{
				"x": 0.4041528512,
				"y": 3.1244310765,
				"z": 1.4900634515,
				"element": "O" 
			},
			{
				"x": 0.0767237435,
				"y": -0.0949844998,
				"z": 3.2615070178,
				"element": "C" 
			},
			{
				"x": 0.1569843607,
				"y": -0.9791880115,
				"z": 2.1910557963,
				"element": "C" 
			},
			{
				"x": -0.1260125814,
				"y": -3.1071820073,
				"z": -3.3324026642,
				"element": "C" 
			},
			{
				"x": 0.4992540185,
				"y": -4.2736842563,
				"z": -3.59340301,
				"element": "O" 
			},
			{
				"x": -0.8921606921,
				"y": -2.59603819,
				"z": -4.1214425495,
				"element": "O" 
			},
			{
				"x": -0.7055922649,
				"y": 0.5532144909,
				"z": -2.2462005427,
				"element": "H" 
			},
			{
				"x": -1.8916557248,
				"y": -0.0380040928,
				"z": -1.0747899283,
				"element": "H" 
			},
			{
				"x": -1.781769626,
				"y": -0.7655805875,
				"z": -2.7080082992,
				"element": "H" 
			},
			{
				"x": 0.5631329026,
				"y": 1.3074504502,
				"z": -0.320251721,
				"element": "H" 
			},
			{
				"x": -1.2725609625,
				"y": 3.6075263928,
				"z": 3.5200839037,
				"element": "H" 
			},
			{
				"x": -0.0159356408,
				"y": 4.0632386787,
				"z": 4.7018986267,
				"element": "H" 
			},
			{
				"x": 1.7334408456,
				"y": 3.8048318192,
				"z": 2.9334522185,
				"element": "H" 
			},
			{
				"x": 0.4900044245,
				"y": 4.9529489921,
				"z": 2.3675645725,
				"element": "H" 
			},
			{
				"x": -0.0484546116,
				"y": -0.4549021885,
				"z": 4.2771271805,
				"element": "H" 
			},
			{
				"x": 0.1064473089,
				"y": -2.0498708008,
				"z": 2.3461802689,
				"element": "H" 
			},
			{
				"x": 1.0578567435,
				"y": -4.496194186,
				"z": -2.8253989788,
				"element": "H" 
			}
		],
		 "valence_orbital": [ 
			{
				"type": "occ",
				"energy": -0.28832,
				"method": "rhf"
			},
			{
				"type": "occ",
				"energy": -0.26907,
				"method": "rhf"
			},
			{
				"type": "occ",
				"energy": -0.26711,
				"method": "rhf"
			},
			{
				"type": "occ",
				"energy": -0.25753,
				"method": "rhf"
			},
			{
				"type": "occ",
				"energy": -0.23083,
				"method": "rhf"
			},
			{
				"type": "unocc",
				"energy": -0.04116,
				"method": "rhf"
			},
			{
				"type": "unocc",
				"energy": -0.02384,
				"method": "rhf"
			},
			{
				"type": "unocc",
				"energy": -0.01958,
				"method": "rhf"
			},
			{
				"type": "unocc",
				"energy": 0.00693,
				"method": "rhf"
			},
			{
				"type": "unocc",
				"energy": 0.06257,
				"method": "rhf"
			}
		],
		"cosmo_sigma_profile": { 
			"-0.025": 0.0,
			"-0.024": 0.0,
			"-0.023": 0.0,
			"-0.022": 0.0,
			"-0.021": 0.0,
			"-0.02": 0.0,
			"-0.019": 0.0,
			"-0.018": 0.0,
			"-0.017": 0.0,
			"-0.016": 0.0,
			"-0.015": 0.112605749621,
			"-0.014": 0.548351230835,
			"-0.013": 0.461908806775,
			"-0.012": 0.787300653816,
			"-0.011": 0.439657728673,
			"-0.01": 0.882951672372,
			"-0.009": 2.52486542205,
			"-0.008": 4.44683727673,
			"-0.007": 15.1080691375,
			"-0.006": 23.1519758169,
			"-0.005": 19.352557979,
			"-0.004": 20.4526755499,
			"-0.003": 21.9962684766,
			"-0.002": 22.4178277628,
			"-0.001": 15.525415792,
			"0.0": 11.5772377095,
			"0.001": 13.8123792653,
			"0.002": 17.7206884443,
			"0.003": 14.7797952466,
			"0.004": 9.58431070005,
			"0.005": 6.28684406931,
			"0.006": 7.61870352643,
			"0.007": 7.43125976459,
			"0.008": 7.74001583235,
			"0.009": 10.698524073,
			"0.01": 9.61956840811,
			"0.011": 5.19098814777,
			"0.012": 4.22326623436,
			"0.013": 1.44197683558,
			"0.014": 0.0341932081587,
			"0.015": 0.0,
			"0.016": 0.0,
			"0.017": 0.0,
			"0.018": 0.0,
			"0.019": 0.0,
			"0.02": 0.0,
			"0.021": 0.0,
			"0.022": 0.0,
			"0.023": 0.0,
			"0.024": 0.0,
			"0.025": 0.0
		}
	}
}
