{
	 "smiles": "CC1=C(O)C(Br)=CC(Br)=C1", 
	 "Tm": 331.15, 
	 "num_atms": 16, 
	 "gaussian": { 
		 "optdone": 1, 
		 "sigma_profile": "yes", 
		 "theory": "DFT", 
		 "functional": "B3LYP", 
		 "basiset": "6-31G**", 
		 "properties": { 
			 "R2extent": 4142.6107, 
			 "electric_dipole_moment_norm": 3.51204865285, 
			 "electric_quadrupole_moment_norm": 9.63256235692, 
			 "total_energy": -5488.39197813, 
			 "HOMO_LUMO_gap": 0.20326, 
			 "cosmo_polarized_energy": -9.34, 
			 "cosmo_cavitation_energy": 24.51, 
			 "cosmo_dispersion_energy": -19.05, 
			 "cosmo_repulsion_energy": 1.54, 
			 "cosmo_total_nonelectrostatic_energy": 7.0, 
			 "SMD_solvation_energy": 2.23 
		},
		"coords": [
			{
				"x": -0.9591132924,
				"y": -2.4642977142,
				"z": -0.6416473086,
				"element": "C" 
			},
			{
				"x": -0.3884094041,
				"y": -1.2465605305,
				"z": 0.0469959374,
				"element": "C" 
			},
			{
				"x": 1.0071111665,
				"y": -1.059806541,
				"z": 0.0980018535,
				"element": "C" 
			},
			{
				"x": 1.8797770244,
				"y": -1.944006879,
				"z": -0.4557719854,
				"element": "O" 
			},
			{
				"x": 1.5288241558,
				"y": 0.0723176526,
				"z": 0.7386323666,
				"element": "C" 
			},
			{
				"x": 3.4133970185,
				"y": 0.3292529518,
				"z": 0.810499806,
				"element": "Br" 
			},
			{
				"x": 0.6915443669,
				"y": 1.0171751857,
				"z": 1.3263291173,
				"element": "C" 
			},
			{
				"x": -0.684976907,
				"y": 0.8219203271,
				"z": 1.2695317209,
				"element": "C" 
			},
			{
				"x": -1.8491507851,
				"y": 2.108144399,
				"z": 2.0703581682,
				"element": "Br" 
			},
			{
				"x": -1.2238556629,
				"y": -0.2956495563,
				"z": 0.6382335149,
				"element": "C" 
			},
			{
				"x": -0.6826487614,
				"y": -2.5024955328,
				"z": -1.7039925284,
				"element": "H" 
			},
			{
				"x": -2.0500715786,
				"y": -2.461470355,
				"z": -0.5941500176,
				"element": "H" 
			},
			{
				"x": -0.6183361123,
				"y": -3.3978787786,
				"z": -0.1739276783,
				"element": "H" 
			},
			{
				"x": 1.389480515,
				"y": -2.6705094133,
				"z": -0.8603266939,
				"element": "H" 
			},
			{
				"x": 1.1130306657,
				"y": 1.8851686554,
				"z": 1.8165496267,
				"element": "H" 
			},
			{
				"x": -2.299102409,
				"y": -0.4318038709,
				"z": 0.6034841004,
				"element": "H" 
			}
		],
		 "valence_orbital": [ 
			{
				"type": "occ",
				"energy": -0.2917,
				"method": "rhf"
			},
			{
				"type": "occ",
				"energy": -0.29022,
				"method": "rhf"
			},
			{
				"type": "occ",
				"energy": -0.28358,
				"method": "rhf"
			},
			{
				"type": "occ",
				"energy": -0.25168,
				"method": "rhf"
			},
			{
				"type": "occ",
				"energy": -0.22559,
				"method": "rhf"
			},
			{
				"type": "unocc",
				"energy": -0.02233,
				"method": "rhf"
			},
			{
				"type": "unocc",
				"energy": -0.01109,
				"method": "rhf"
			},
			{
				"type": "unocc",
				"energy": -0.00994,
				"method": "rhf"
			},
			{
				"type": "unocc",
				"energy": 0.02731,
				"method": "rhf"
			},
			{
				"type": "unocc",
				"energy": 0.05308,
				"method": "rhf"
			}
		],
		"cosmo_sigma_profile": { 
			"-0.025": 0.0,
			"-0.024": 0.0,
			"-0.023": 0.0,
			"-0.022": 0.0,
			"-0.021": 0.0,
			"-0.02": 0.0,
			"-0.019": 0.0,
			"-0.018": 0.011967658018,
			"-0.017": 0.443925796962,
			"-0.016": 0.933169758975,
			"-0.015": 0.724711181309,
			"-0.014": 0.98765058585,
			"-0.013": 0.884981286883,
			"-0.012": 1.39615074057,
			"-0.011": 1.32208646244,
			"-0.01": 0.911989554366,
			"-0.009": 1.74457807811,
			"-0.008": 2.1951373928,
			"-0.007": 6.20750026779,
			"-0.006": 6.13471819911,
			"-0.005": 8.98561944911,
			"-0.004": 9.70576386589,
			"-0.003": 12.6922277123,
			"-0.002": 12.7412259669,
			"-0.001": 13.6761433972,
			"0.0": 12.0404396468,
			"0.001": 16.8634344417,
			"0.002": 27.381808735,
			"0.003": 19.7675143722,
			"0.004": 20.2467436826,
			"0.005": 12.7459768469,
			"0.006": 2.71292586825,
			"0.007": 1.87563465786,
			"0.008": 1.2602199877,
			"0.009": 2.54782829505,
			"0.01": 2.23925776089,
			"0.011": 0.930527057529,
			"0.012": 0.0,
			"0.013": 0.0,
			"0.014": 0.0,
			"0.015": 0.0,
			"0.016": 0.0,
			"0.017": 0.0,
			"0.018": 0.0,
			"0.019": 0.0,
			"0.02": 0.0,
			"0.021": 0.0,
			"0.022": 0.0,
			"0.023": 0.0,
			"0.024": 0.0,
			"0.025": 0.0
		}
	}
}
