{
	 "smiles": "NC1=CC2=C(OC3(CCCCC3)O2)C=C1", 
	 "Tm": 339.15, 
	 "num_atms": 30, 
	 "gaussian": { 
		 "optdone": 1, 
		 "sigma_profile": "yes", 
		 "theory": "DFT", 
		 "functional": "B3LYP", 
		 "basiset": "6-31G**", 
		 "properties": { 
			 "R2extent": 3769.6671, 
			 "electric_dipole_moment_norm": 1.53790732491, 
			 "electric_quadrupole_moment_norm": 14.3764414077, 
			 "total_energy": -671.515135063, 
			 "HOMO_LUMO_gap": 0.18782, 
			 "cosmo_polarized_energy": -9.84, 
			 "cosmo_cavitation_energy": 31.13, 
			 "cosmo_dispersion_energy": -23.23, 
			 "cosmo_repulsion_energy": 1.82, 
			 "cosmo_total_nonelectrostatic_energy": 9.72, 
			 "SMD_solvation_energy": 4.5 
		},
		"coords": [
			{
				"x": -0.6980726327,
				"y": 5.132327131,
				"z": -0.082190172,
				"element": "N" 
			},
			{
				"x": -0.8848105919,
				"y": 3.7439679103,
				"z": 0.0302887961,
				"element": "C" 
			},
			{
				"x": 0.139019841,
				"y": 2.86769816,
				"z": -0.4015389953,
				"element": "C" 
			},
			{
				"x": -0.1119419788,
				"y": 1.512436614,
				"z": -0.3276021925,
				"element": "C" 
			},
			{
				"x": -1.3160899625,
				"y": 0.9993734832,
				"z": 0.1474854757,
				"element": "C" 
			},
			{
				"x": -1.2928440185,
				"y": -0.3771907108,
				"z": 0.0797868577,
				"element": "O" 
			},
			{
				"x": 0.0639073822,
				"y": -0.7445110857,
				"z": -0.2872105088,
				"element": "C" 
			},
			{
				"x": 0.0397926322,
				"y": -1.7295906851,
				"z": -1.4634155651,
				"element": "C" 
			},
			{
				"x": 0.0947367846,
				"y": -3.2045968253,
				"z": -1.0063594568,
				"element": "C" 
			},
			{
				"x": -0.6295687973,
				"y": -3.3919528359,
				"z": 0.3337738716,
				"element": "C" 
			},
			{
				"x": 0.0652910994,
				"y": -2.5907078272,
				"z": 1.4612572091,
				"element": "C" 
			},
			{
				"x": 0.7727507272,
				"y": -1.3175843552,
				"z": 0.9371693871,
				"element": "C" 
			},
			{
				"x": 0.7138094538,
				"y": 0.4858996295,
				"z": -0.7030621232,
				"element": "O" 
			},
			{
				"x": -2.3277508211,
				"y": 1.8360172541,
				"z": 0.5711528209,
				"element": "C" 
			},
			{
				"x": -2.0952964906,
				"y": 3.2220615993,
				"z": 0.5091654751,
				"element": "C" 
			},
			{
				"x": 0.267911486,
				"y": 5.4261387518,
				"z": -0.0189012718,
				"element": "H" 
			},
			{
				"x": -1.2781780745,
				"y": 5.6762469473,
				"z": 0.5430707427,
				"element": "H" 
			},
			{
				"x": 1.0816167736,
				"y": 3.244473746,
				"z": -0.7849537043,
				"element": "H" 
			},
			{
				"x": 0.890136225,
				"y": -1.4924816315,
				"z": -2.1101538687,
				"element": "H" 
			},
			{
				"x": -0.8711423077,
				"y": -1.5297418193,
				"z": -2.0359564963,
				"element": "H" 
			},
			{
				"x": 1.1401654195,
				"y": -3.5230065913,
				"z": -0.9003583887,
				"element": "H" 
			},
			{
				"x": -0.3431550151,
				"y": -3.8448748674,
				"z": -1.7794140951,
				"element": "H" 
			},
			{
				"x": -1.6639723634,
				"y": -3.0458802614,
				"z": 0.2247594659,
				"element": "H" 
			},
			{
				"x": -0.6779877868,
				"y": -4.4531150728,
				"z": 0.6012152851,
				"element": "H" 
			},
			{
				"x": -0.6732171967,
				"y": -2.3156277781,
				"z": 2.2199773315,
				"element": "H" 
			},
			{
				"x": 0.8102391036,
				"y": -3.2187848214,
				"z": 1.9627937938,
				"element": "H" 
			},
			{
				"x": 0.8263317747,
				"y": -0.545622465,
				"z": 1.7111138559,
				"element": "H" 
			},
			{
				"x": 1.8030250265,
				"y": -1.5413982777,
				"z": 0.6371300765,
				"element": "H" 
			},
			{
				"x": -3.268216074,
				"y": 1.4414942763,
				"z": 0.939986273,
				"element": "H" 
			},
			{
				"x": -2.8746896175,
				"y": 3.9050324082,
				"z": 0.835590121,
				"element": "H" 
			}
		],
		 "valence_orbital": [ 
			{
				"type": "occ",
				"energy": -0.31185,
				"method": "rhf"
			},
			{
				"type": "occ",
				"energy": -0.30912,
				"method": "rhf"
			},
			{
				"type": "occ",
				"energy": -0.26233,
				"method": "rhf"
			},
			{
				"type": "occ",
				"energy": -0.22344,
				"method": "rhf"
			},
			{
				"type": "occ",
				"energy": -0.175,
				"method": "rhf"
			},
			{
				"type": "unocc",
				"energy": 0.01282,
				"method": "rhf"
			},
			{
				"type": "unocc",
				"energy": 0.03616,
				"method": "rhf"
			},
			{
				"type": "unocc",
				"energy": 0.07603,
				"method": "rhf"
			},
			{
				"type": "unocc",
				"energy": 0.08836,
				"method": "rhf"
			},
			{
				"type": "unocc",
				"energy": 0.10232,
				"method": "rhf"
			}
		],
		"cosmo_sigma_profile": { 
			"-0.025": 0.0,
			"-0.024": 0.0,
			"-0.023": 0.0,
			"-0.022": 0.0,
			"-0.021": 0.0,
			"-0.02": 0.0,
			"-0.019": 0.0,
			"-0.018": 0.0,
			"-0.017": 0.0,
			"-0.016": 0.0,
			"-0.015": 0.0,
			"-0.014": 0.0,
			"-0.013": 0.0647809189254,
			"-0.012": 1.33888370842,
			"-0.011": 3.04008159964,
			"-0.01": 2.42678779563,
			"-0.009": 3.55295071034,
			"-0.008": 3.39183910806,
			"-0.007": 3.69824869504,
			"-0.006": 5.68055181303,
			"-0.005": 6.44166659364,
			"-0.004": 12.7399362765,
			"-0.003": 24.2690727411,
			"-0.002": 27.2574321711,
			"-0.001": 29.2335450065,
			"0.0": 27.1038533896,
			"0.001": 16.2327892744,
			"0.002": 10.7729120783,
			"0.003": 10.1716261935,
			"0.004": 11.6292900788,
			"0.005": 12.2148773563,
			"0.006": 12.1823117469,
			"0.007": 6.07920232605,
			"0.008": 3.65709270626,
			"0.009": 4.04974739291,
			"0.01": 2.40408787631,
			"0.011": 1.02069764352,
			"0.012": 0.846483157476,
			"0.013": 0.588935992759,
			"0.014": 0.41052398774,
			"0.015": 0.880606754831,
			"0.016": 0.177147281428,
			"0.017": 0.0,
			"0.018": 0.0,
			"0.019": 0.0,
			"0.02": 0.0,
			"0.021": 0.0,
			"0.022": 0.0,
			"0.023": 0.0,
			"0.024": 0.0,
			"0.025": 0.0
		}
	}
}
