{
	 "smiles": "CC1=NNC(=N1)C1CNCCO1", 
	 "Tm": 378.15, 
	 "num_atms": 24, 
	 "gaussian": { 
		 "optdone": 1, 
		 "sigma_profile": "yes", 
		 "theory": "DFT", 
		 "functional": "B3LYP", 
		 "basiset": "6-31G**", 
		 "properties": { 
			 "R2extent": 2679.2499, 
			 "electric_dipole_moment_norm": 1.42755546652, 
			 "electric_quadrupole_moment_norm": 7.7862431859, 
			 "total_energy": -568.185601292, 
			 "HOMO_LUMO_gap": 0.22308, 
			 "cosmo_polarized_energy": -12.9, 
			 "cosmo_cavitation_energy": 26.12, 
			 "cosmo_dispersion_energy": -19.6, 
			 "cosmo_repulsion_energy": 1.58, 
			 "cosmo_total_nonelectrostatic_energy": 8.1, 
			 "SMD_solvation_energy": -0.95 
		},
		"coords": [
			{
				"x": 1.699581714,
				"y": -0.7569032515,
				"z": -3.1710517979,
				"element": "C" 
			},
			{
				"x": 1.0141425538,
				"y": -0.4784799971,
				"z": -1.8734335321,
				"element": "C" 
			},
			{
				"x": 1.5131333367,
				"y": 0.3541365622,
				"z": -0.9674989855,
				"element": "N" 
			},
			{
				"x": 0.5775735892,
				"y": 0.3001907787,
				"z": 0.017097354,
				"element": "N" 
			},
			{
				"x": -0.4215900887,
				"y": -0.5448469537,
				"z": -0.3197753446,
				"element": "C" 
			},
			{
				"x": -0.1761173437,
				"y": -1.05977015,
				"z": -1.5144860953,
				"element": "N" 
			},
			{
				"x": -1.6195730775,
				"y": -0.7840008522,
				"z": 0.5666842378,
				"element": "C" 
			},
			{
				"x": -2.3456559285,
				"y": -2.0986573452,
				"z": 0.2338992073,
				"element": "C" 
			},
			{
				"x": -1.6148446553,
				"y": -3.2887757739,
				"z": 0.664596104,
				"element": "N" 
			},
			{
				"x": -1.2170149315,
				"y": -3.1726922897,
				"z": 2.069828703,
				"element": "C" 
			},
			{
				"x": -0.4732026882,
				"y": -1.8705102182,
				"z": 2.3703750454,
				"element": "C" 
			},
			{
				"x": -1.2273297812,
				"y": -0.7256957334,
				"z": 1.9451841553,
				"element": "O" 
			},
			{
				"x": 2.6342256272,
				"y": -0.1962454542,
				"z": -3.2287376715,
				"element": "H" 
			},
			{
				"x": 1.9179731224,
				"y": -1.8247523066,
				"z": -3.2732439831,
				"element": "H" 
			},
			{
				"x": 1.0622627581,
				"y": -0.4729271593,
				"z": -4.0146657159,
				"element": "H" 
			},
			{
				"x": 0.6898658088,
				"y": 0.818392142,
				"z": 0.875652813,
				"element": "H" 
			},
			{
				"x": -2.3168084687,
				"y": 0.0553580296,
				"z": 0.4457995329,
				"element": "H" 
			},
			{
				"x": -3.3147208889,
				"y": -2.0857369671,
				"z": 0.7477003532,
				"element": "H" 
			},
			{
				"x": -2.5275777058,
				"y": -2.1543531341,
				"z": -0.8422558303,
				"element": "H" 
			},
			{
				"x": -0.7922095757,
				"y": -3.4016115774,
				"z": 0.0749303264,
				"element": "H" 
			},
			{
				"x": -2.1268621981,
				"y": -3.2155329833,
				"z": 2.6828036487,
				"element": "H" 
			},
			{
				"x": -0.5946612965,
				"y": -4.0321012141,
				"z": 2.3442361668,
				"element": "H" 
			},
			{
				"x": 0.5115071889,
				"y": -1.8798660477,
				"z": 1.8758597696,
				"element": "H" 
			},
			{
				"x": -0.3139970709,
				"y": -1.7325181042,
				"z": 3.4445015387,
				"element": "H" 
			}
		],
		 "valence_orbital": [ 
			{
				"type": "occ",
				"energy": -0.29074,
				"method": "rhf"
			},
			{
				"type": "occ",
				"energy": -0.28547,
				"method": "rhf"
			},
			{
				"type": "occ",
				"energy": -0.27346,
				"method": "rhf"
			},
			{
				"type": "occ",
				"energy": -0.25372,
				"method": "rhf"
			},
			{
				"type": "occ",
				"energy": -0.21758,
				"method": "rhf"
			},
			{
				"type": "unocc",
				"energy": 0.0055,
				"method": "rhf"
			},
			{
				"type": "unocc",
				"energy": 0.04959,
				"method": "rhf"
			},
			{
				"type": "unocc",
				"energy": 0.07914,
				"method": "rhf"
			},
			{
				"type": "unocc",
				"energy": 0.09668,
				"method": "rhf"
			},
			{
				"type": "unocc",
				"energy": 0.11007,
				"method": "rhf"
			}
		],
		"cosmo_sigma_profile": { 
			"-0.025": 0.0,
			"-0.024": 0.0,
			"-0.023": 0.0,
			"-0.022": 0.0,
			"-0.021": 0.0,
			"-0.02": 0.0,
			"-0.019": 0.0,
			"-0.018": 0.0,
			"-0.017": 0.228106723622,
			"-0.016": 0.921473133613,
			"-0.015": 0.953225564976,
			"-0.014": 0.863315768628,
			"-0.013": 0.517934217066,
			"-0.012": 0.717003812338,
			"-0.011": 1.07262738945,
			"-0.01": 0.526478434065,
			"-0.009": 0.935361786428,
			"-0.008": 2.1181127918,
			"-0.007": 5.02627990045,
			"-0.006": 6.76108494503,
			"-0.005": 14.1225323873,
			"-0.004": 23.4524658712,
			"-0.003": 24.0508530959,
			"-0.002": 18.5901969823,
			"-0.001": 19.6401082456,
			"0.0": 12.5373506852,
			"0.001": 9.87705243422,
			"0.002": 7.46222352959,
			"0.003": 6.66658314234,
			"0.004": 6.2554337225,
			"0.005": 4.86610529059,
			"0.006": 4.51963639438,
			"0.007": 3.03775023221,
			"0.008": 4.46700644359,
			"0.009": 3.69952093911,
			"0.01": 4.30821230848,
			"0.011": 3.1930319082,
			"0.012": 3.26832549891,
			"0.013": 3.48265904558,
			"0.014": 2.39449659897,
			"0.015": 2.23463680932,
			"0.016": 1.02594764604,
			"0.017": 0.32257081878,
			"0.018": 0.374414712271,
			"0.019": 0.0,
			"0.02": 0.0,
			"0.021": 0.0,
			"0.022": 0.0,
			"0.023": 0.0,
			"0.024": 0.0,
			"0.025": 0.0
		}
	}
}
