{
	 "smiles": "CCOC(=O)NCCOC1=CC=C(OC2=CC=CC=C2)C=C1", 
	 "Tm": 326.35, 
	 "num_atms": 41, 
	 "gaussian": { 
		 "optdone": 1, 
		 "sigma_profile": "yes", 
		 "theory": "DFT", 
		 "functional": "B3LYP", 
		 "basiset": "6-31G**", 
		 "properties": { 
			 "R2extent": 8904.8891, 
			 "electric_dipole_moment_norm": 2.61486597362, 
			 "electric_quadrupole_moment_norm": 18.3020285914, 
			 "total_energy": -1014.91110961, 
			 "HOMO_LUMO_gap": 0.19578, 
			 "cosmo_polarized_energy": -17.37, 
			 "cosmo_cavitation_energy": 45.63, 
			 "cosmo_dispersion_energy": -29.71, 
			 "cosmo_repulsion_energy": 2.28, 
			 "cosmo_total_nonelectrostatic_energy": 18.2, 
			 "SMD_solvation_energy": 8.91 
		},
		"coords": [
			{
				"x": -2.0992266683,
				"y": -2.9272267462,
				"z": -0.1158484488,
				"element": "C" 
			},
			{
				"x": -3.1521229074,
				"y": -2.399418567,
				"z": -1.0792441551,
				"element": "C" 
			},
			{
				"x": -2.7744109835,
				"y": -1.1167257273,
				"z": -1.6245608109,
				"element": "O" 
			},
			{
				"x": -3.0765457915,
				"y": -0.037518337,
				"z": -0.8533536645,
				"element": "C" 
			},
			{
				"x": -3.6630441124,
				"y": -0.0815107135,
				"z": 0.2131141119,
				"element": "O" 
			},
			{
				"x": -2.6337293512,
				"y": 1.0992784383,
				"z": -1.4704998443,
				"element": "N" 
			},
			{
				"x": -2.7781396586,
				"y": 2.4121729184,
				"z": -0.8772096596,
				"element": "C" 
			},
			{
				"x": -1.4666513853,
				"y": 3.0549385831,
				"z": -0.415191964,
				"element": "C" 
			},
			{
				"x": -0.9044168438,
				"y": 2.3898260674,
				"z": 0.709123681,
				"element": "O" 
			},
			{
				"x": 0.1122248708,
				"y": 1.4828877568,
				"z": 0.5790568082,
				"element": "C" 
			},
			{
				"x": 0.6329765167,
				"y": 1.0054499236,
				"z": 1.7927033078,
				"element": "C" 
			},
			{
				"x": 1.6782657815,
				"y": 0.0908152246,
				"z": 1.8043599571,
				"element": "C" 
			},
			{
				"x": 2.2147627474,
				"y": -0.3656792319,
				"z": 0.5953711462,
				"element": "C" 
			},
			{
				"x": 3.3124918316,
				"y": -1.2129796197,
				"z": 0.564250373,
				"element": "O" 
			},
			{
				"x": 3.2275931933,
				"y": -2.4781554712,
				"z": 1.1062988101,
				"element": "C" 
			},
			{
				"x": 2.0201299956,
				"y": -3.1335604894,
				"z": 1.3663521264,
				"element": "C" 
			},
			{
				"x": 2.0469998595,
				"y": -4.4320754498,
				"z": 1.8805977706,
				"element": "C" 
			},
			{
				"x": 3.2574793128,
				"y": -5.0789732923,
				"z": 2.130520327,
				"element": "C" 
			},
			{
				"x": 4.4569766028,
				"y": -4.4139347011,
				"z": 1.860353628,
				"element": "C" 
			},
			{
				"x": 4.4477659034,
				"y": -3.1172634017,
				"z": 1.3521677459,
				"element": "C" 
			},
			{
				"x": 1.7046908854,
				"y": 0.1010110282,
				"z": -0.611273356,
				"element": "C" 
			},
			{
				"x": 0.6560682216,
				"y": 1.0257536869,
				"z": -0.6261130493,
				"element": "C" 
			},
			{
				"x": -2.0245487357,
				"y": -2.2744580827,
				"z": 0.7574782491,
				"element": "H" 
			},
			{
				"x": -1.1204826572,
				"y": -2.9860155462,
				"z": -0.6015667649,
				"element": "H" 
			},
			{
				"x": -2.3758218993,
				"y": -3.930572763,
				"z": 0.2256581202,
				"element": "H" 
			},
			{
				"x": -3.2549413175,
				"y": -3.046614112,
				"z": -1.9540434814,
				"element": "H" 
			},
			{
				"x": -4.1217815049,
				"y": -2.3021590782,
				"z": -0.5850850017,
				"element": "H" 
			},
			{
				"x": -2.1815360113,
				"y": 0.9869199137,
				"z": -2.3649822415,
				"element": "H" 
			},
			{
				"x": -3.4395413735,
				"y": 2.2939417651,
				"z": -0.016043096,
				"element": "H" 
			},
			{
				"x": -3.2633894117,
				"y": 3.0966573694,
				"z": -1.5869649025,
				"element": "H" 
			},
			{
				"x": -1.687930394,
				"y": 4.0736256539,
				"z": -0.0762220365,
				"element": "H" 
			},
			{
				"x": -0.7440771339,
				"y": 3.1349955718,
				"z": -1.2360857617,
				"element": "H" 
			},
			{
				"x": 0.2037605443,
				"y": 1.3756530599,
				"z": 2.7176756576,
				"element": "H" 
			},
			{
				"x": 2.0849358242,
				"y": -0.2682894835,
				"z": 2.7441531142,
				"element": "H" 
			},
			{
				"x": 1.0763530604,
				"y": -2.6377283381,
				"z": 1.1701527364,
				"element": "H" 
			},
			{
				"x": 1.1074729971,
				"y": -4.9391128434,
				"z": 2.0823852915,
				"element": "H" 
			},
			{
				"x": 3.2677534499,
				"y": -6.0881431688,
				"z": 2.5305632835,
				"element": "H" 
			},
			{
				"x": 5.4073175708,
				"y": -4.905061829,
				"z": 2.0498600927,
				"element": "H" 
			},
			{
				"x": 5.3680785121,
				"y": -2.5837383308,
				"z": 1.1380150906,
				"element": "H" 
			},
			{
				"x": 2.1334749533,
				"y": -0.2608842563,
				"z": -1.5400335047,
				"element": "H" 
			},
			{
				"x": 0.2692655064,
				"y": 1.3596726188,
				"z": -1.5804896856,
				"element": "H" 
			}
		],
		 "valence_orbital": [ 
			{
				"type": "occ",
				"energy": -0.26088,
				"method": "rhf"
			},
			{
				"type": "occ",
				"energy": -0.25463,
				"method": "rhf"
			},
			{
				"type": "occ",
				"energy": -0.24708,
				"method": "rhf"
			},
			{
				"type": "occ",
				"energy": -0.22626,
				"method": "rhf"
			},
			{
				"type": "occ",
				"energy": -0.2057,
				"method": "rhf"
			},
			{
				"type": "unocc",
				"energy": -0.00992,
				"method": "rhf"
			},
			{
				"type": "unocc",
				"energy": 0.00438,
				"method": "rhf"
			},
			{
				"type": "unocc",
				"energy": 0.00779,
				"method": "rhf"
			},
			{
				"type": "unocc",
				"energy": 0.02023,
				"method": "rhf"
			},
			{
				"type": "unocc",
				"energy": 0.05482,
				"method": "rhf"
			}
		],
		"cosmo_sigma_profile": { 
			"-0.025": 0.0,
			"-0.024": 0.0,
			"-0.023": 0.0,
			"-0.022": 0.0,
			"-0.021": 0.0,
			"-0.02": 0.0,
			"-0.019": 0.0,
			"-0.018": 0.0,
			"-0.017": 0.0,
			"-0.016": 0.0,
			"-0.015": 0.0,
			"-0.014": 0.576521116131,
			"-0.013": 1.36038761731,
			"-0.012": 1.27659010559,
			"-0.011": 2.02263285285,
			"-0.01": 1.95799368687,
			"-0.009": 2.0934587499,
			"-0.008": 1.92845479369,
			"-0.007": 3.91657926077,
			"-0.006": 19.2577386018,
			"-0.005": 27.5129455184,
			"-0.004": 29.7668829514,
			"-0.003": 32.5803286532,
			"-0.002": 29.4499240011,
			"-0.001": 26.9532352272,
			"0.0": 23.5579606763,
			"0.001": 22.797685494,
			"0.002": 24.0763006813,
			"0.003": 24.1514390865,
			"0.004": 26.6499203441,
			"0.005": 18.7164524843,
			"0.006": 12.3788042298,
			"0.007": 6.52775585826,
			"0.008": 5.92019442846,
			"0.009": 4.27666541694,
			"0.01": 3.00161366474,
			"0.011": 1.46737138474,
			"0.012": 2.15907829233,
			"0.013": 4.37311993387,
			"0.014": 1.34950199833,
			"0.015": 0.0,
			"0.016": 0.0,
			"0.017": 0.0,
			"0.018": 0.0,
			"0.019": 0.0,
			"0.02": 0.0,
			"0.021": 0.0,
			"0.022": 0.0,
			"0.023": 0.0,
			"0.024": 0.0,
			"0.025": 0.0
		}
	}
}
