{
	 "smiles": "CC1=CC=C(O1)C(C1=CC=C(C)O1)C1=CC=CC=C1N=C=S", 
	 "Tm": 338.15, 
	 "num_atms": 37, 
	 "gaussian": { 
		 "optdone": 1, 
		 "sigma_profile": "yes", 
		 "theory": "DFT", 
		 "functional": "B3LYP", 
		 "basiset": "6-31G**", 
		 "properties": { 
			 "R2extent": 9133.5325, 
			 "electric_dipole_moment_norm": 3.48818706494, 
			 "electric_quadrupole_moment_norm": 15.7708136337, 
			 "total_energy": -1298.30781522, 
			 "HOMO_LUMO_gap": 0.16022, 
			 "cosmo_polarized_energy": -9.38, 
			 "cosmo_cavitation_energy": 45.02, 
			 "cosmo_dispersion_energy": -30.11, 
			 "cosmo_repulsion_energy": 2.37, 
			 "cosmo_total_nonelectrostatic_energy": 17.27, 
			 "SMD_solvation_energy": 9.0 
		},
		"coords": [
			{
				"x": 2.0806300999,
				"y": 2.0629081518,
				"z": 3.187895636,
				"element": "C" 
			},
			{
				"x": 1.2466275148,
				"y": 1.1828333011,
				"z": 2.3247139498,
				"element": "C" 
			},
			{
				"x": 0.0062081482,
				"y": 0.6334965899,
				"z": 2.4542415216,
				"element": "C" 
			},
			{
				"x": -0.2357165795,
				"y": -0.1287321364,
				"z": 1.2619492113,
				"element": "C" 
			},
			{
				"x": 0.8751480607,
				"y": 0.0095330089,
				"z": 0.485481746,
				"element": "C" 
			},
			{
				"x": 1.7898235228,
				"y": 0.8059441434,
				"z": 1.1235847719,
				"element": "O" 
			},
			{
				"x": 1.300047406,
				"y": -0.5279698368,
				"z": -0.8573521962,
				"element": "C" 
			},
			{
				"x": 1.6328486578,
				"y": 0.5624319963,
				"z": -1.8400244147,
				"element": "C" 
			},
			{
				"x": 2.7204337563,
				"y": 0.7851252262,
				"z": -2.6289772995,
				"element": "C" 
			},
			{
				"x": 2.4538721819,
				"y": 1.9886749477,
				"z": -3.3628839965,
				"element": "C" 
			},
			{
				"x": 1.2223136389,
				"y": 2.4222299059,
				"z": -2.9715614024,
				"element": "C" 
			},
			{
				"x": 0.3768302514,
				"y": 3.5920016255,
				"z": -3.3343676953,
				"element": "C" 
			},
			{
				"x": 0.7089785744,
				"y": 1.5570856295,
				"z": -2.0382238679,
				"element": "O" 
			},
			{
				"x": 0.2767999208,
				"y": -1.5308960178,
				"z": -1.3893220073,
				"element": "C" 
			},
			{
				"x": -0.9384084509,
				"y": -1.1115481996,
				"z": -1.9427316604,
				"element": "C" 
			},
			{
				"x": -1.8742678661,
				"y": -2.0288063902,
				"z": -2.4194101348,
				"element": "C" 
			},
			{
				"x": -1.6079434317,
				"y": -3.3986588726,
				"z": -2.3522805172,
				"element": "C" 
			},
			{
				"x": -0.4096349025,
				"y": -3.8447814509,
				"z": -1.8074680381,
				"element": "C" 
			},
			{
				"x": 0.5281575383,
				"y": -2.9159010901,
				"z": -1.3248438943,
				"element": "C" 
			},
			{
				"x": 1.7195774523,
				"y": -3.3716527735,
				"z": -0.7786428318,
				"element": "N" 
			},
			{
				"x": 2.4522802014,
				"y": -4.2599115534,
				"z": -0.4508895208,
				"element": "C" 
			},
			{
				"x": 3.4986658211,
				"y": -5.35877424,
				"z": 0.0177693539,
				"element": "S" 
			},
			{
				"x": 1.5428184284,
				"y": 2.2938518515,
				"z": 4.1104071142,
				"element": "H" 
			},
			{
				"x": 2.3219562886,
				"y": 3.00695576,
				"z": 2.6856246043,
				"element": "H" 
			},
			{
				"x": 3.0290467243,
				"y": 1.5824212938,
				"z": 3.4551603215,
				"element": "H" 
			},
			{
				"x": -0.6587406666,
				"y": 0.7540014941,
				"z": 3.2978199126,
				"element": "H" 
			},
			{
				"x": -1.1171213162,
				"y": -0.703144289,
				"z": 1.0198865645,
				"element": "H" 
			},
			{
				"x": 2.2404033341,
				"y": -1.0723407176,
				"z": -0.7093401101,
				"element": "H" 
			},
			{
				"x": 3.6072200309,
				"y": 0.1692726609,
				"z": -2.6794897316,
				"element": "H" 
			},
			{
				"x": 3.0985355894,
				"y": 2.4717704887,
				"z": -4.0834981465,
				"element": "H" 
			},
			{
				"x": 0.1578613979,
				"y": 4.2160958433,
				"z": -2.460199067,
				"element": "H" 
			},
			{
				"x": 0.8952574607,
				"y": 4.207838485,
				"z": -4.0729335014,
				"element": "H" 
			},
			{
				"x": -0.5828419752,
				"y": 3.2798698595,
				"z": -3.7631373313,
				"element": "H" 
			},
			{
				"x": -1.1411988627,
				"y": -0.0479853342,
				"z": -2.0024893453,
				"element": "H" 
			},
			{
				"x": -2.8084223224,
				"y": -1.6747469641,
				"z": -2.8447000216,
				"element": "H" 
			},
			{
				"x": -2.3302817342,
				"y": -4.1189832503,
				"z": -2.7242075988,
				"element": "H" 
			},
			{
				"x": -0.1816638933,
				"y": -4.9040091463,
				"z": -1.747160377,
				"element": "H" 
			}
		],
		 "valence_orbital": [ 
			{
				"type": "occ",
				"energy": -0.26249,
				"method": "rhf"
			},
			{
				"type": "occ",
				"energy": -0.25987,
				"method": "rhf"
			},
			{
				"type": "occ",
				"energy": -0.2299,
				"method": "rhf"
			},
			{
				"type": "occ",
				"energy": -0.21575,
				"method": "rhf"
			},
			{
				"type": "occ",
				"energy": -0.20424,
				"method": "rhf"
			},
			{
				"type": "unocc",
				"energy": -0.04402,
				"method": "rhf"
			},
			{
				"type": "unocc",
				"energy": -0.02008,
				"method": "rhf"
			},
			{
				"type": "unocc",
				"energy": -0.01765,
				"method": "rhf"
			},
			{
				"type": "unocc",
				"energy": 0.01612,
				"method": "rhf"
			},
			{
				"type": "unocc",
				"energy": 0.02349,
				"method": "rhf"
			}
		],
		"cosmo_sigma_profile": { 
			"-0.025": 0.0,
			"-0.024": 0.0,
			"-0.023": 0.0,
			"-0.022": 0.0,
			"-0.021": 0.0,
			"-0.02": 0.0,
			"-0.019": 0.0,
			"-0.018": 0.0,
			"-0.017": 0.0,
			"-0.016": 0.0,
			"-0.015": 0.0,
			"-0.014": 0.0,
			"-0.013": 0.0,
			"-0.012": 0.0,
			"-0.011": 0.0,
			"-0.01": 0.0,
			"-0.009": 0.0,
			"-0.008": 0.315821448085,
			"-0.007": 4.87665550293,
			"-0.006": 15.2560214752,
			"-0.005": 27.2069785995,
			"-0.004": 28.7559107601,
			"-0.003": 27.6578167246,
			"-0.002": 28.3053471761,
			"-0.001": 37.9698203283,
			"0.0": 35.2825868675,
			"0.001": 27.3879305791,
			"0.002": 26.8558157458,
			"0.003": 28.0014102448,
			"0.004": 27.0550860455,
			"0.005": 25.1928264545,
			"0.006": 16.3082639091,
			"0.007": 5.0508911587,
			"0.008": 2.17977267644,
			"0.009": 0.841345722679,
			"0.01": 0.00222022305322,
			"0.011": 0.0,
			"0.012": 0.0,
			"0.013": 0.0,
			"0.014": 0.0,
			"0.015": 0.0,
			"0.016": 0.0,
			"0.017": 0.0,
			"0.018": 0.0,
			"0.019": 0.0,
			"0.02": 0.0,
			"0.021": 0.0,
			"0.022": 0.0,
			"0.023": 0.0,
			"0.024": 0.0,
			"0.025": 0.0
		}
	}
}
