{
	 "smiles": "OC1CCCCC1N1C=CC(=N1)[N+]([O-])=O", 
	 "Tm": 368.15, 
	 "num_atms": 28, 
	 "gaussian": { 
		 "optdone": 1, 
		 "sigma_profile": "yes", 
		 "theory": "DFT", 
		 "functional": "B3LYP", 
		 "basiset": "6-31G**", 
		 "properties": { 
			 "R2extent": 4180.7383, 
			 "electric_dipole_moment_norm": 5.57690658071, 
			 "electric_quadrupole_moment_norm": 23.68693376, 
			 "total_energy": -740.595975782, 
			 "HOMO_LUMO_gap": 0.19856, 
			 "cosmo_polarized_energy": -15.26, 
			 "cosmo_cavitation_energy": 30.52, 
			 "cosmo_dispersion_energy": -21.85, 
			 "cosmo_repulsion_energy": 1.72, 
			 "cosmo_total_nonelectrostatic_energy": 10.4, 
			 "SMD_solvation_energy": 7.03 
		},
		"coords": [
			{
				"x": -1.5736599445,
				"y": -1.6956050687,
				"z": 1.7095881343,
				"element": "O" 
			},
			{
				"x": -0.4021469498,
				"y": -1.0802932399,
				"z": 1.1693069203,
				"element": "C" 
			},
			{
				"x": -0.5601895761,
				"y": 0.4403920285,
				"z": 1.0384035124,
				"element": "C" 
			},
			{
				"x": -1.6514776134,
				"y": 0.8258306693,
				"z": 0.0283691602,
				"element": "C" 
			},
			{
				"x": -1.3692977668,
				"y": 0.2017849862,
				"z": -1.3466222121,
				"element": "C" 
			},
			{
				"x": -1.2385356901,
				"y": -1.3258527022,
				"z": -1.2433276986,
				"element": "C" 
			},
			{
				"x": -0.2133572987,
				"y": -1.7932307815,
				"z": -0.1911411669,
				"element": "C" 
			},
			{
				"x": 1.1767079402,
				"y": -1.6976856463,
				"z": -0.6621913398,
				"element": "N" 
			},
			{
				"x": 2.027677118,
				"y": -2.7458881074,
				"z": -0.8799913699,
				"element": "C" 
			},
			{
				"x": 3.2216056106,
				"y": -2.2192516427,
				"z": -1.3267061695,
				"element": "C" 
			},
			{
				"x": 2.9724783766,
				"y": -0.8352656859,
				"z": -1.3377719961,
				"element": "C" 
			},
			{
				"x": 1.743756158,
				"y": -0.5162088645,
				"z": -0.939398269,
				"element": "N" 
			},
			{
				"x": 3.9071410508,
				"y": 0.2002191207,
				"z": -1.7268489475,
				"element": "N" 
			},
			{
				"x": 5.0214604762,
				"y": -0.188148294,
				"z": -2.0873244758,
				"element": "O" 
			},
			{
				"x": 3.5392212952,
				"y": 1.3696118175,
				"z": -1.673425066,
				"element": "O" 
			},
			{
				"x": -1.8478731283,
				"y": -1.1846319109,
				"z": 2.4819287285,
				"element": "H" 
			},
			{
				"x": 0.4715709337,
				"y": -1.3082279468,
				"z": 1.8002171369,
				"element": "H" 
			},
			{
				"x": 0.4000742629,
				"y": 0.8641057868,
				"z": 0.7279757422,
				"element": "H" 
			},
			{
				"x": -0.7827530916,
				"y": 0.8542956594,
				"z": 2.0323280799,
				"element": "H" 
			},
			{
				"x": -2.6270619962,
				"y": 0.4810552618,
				"z": 0.3943354025,
				"element": "H" 
			},
			{
				"x": -1.7093287421,
				"y": 1.9165839059,
				"z": -0.0544577382,
				"element": "H" 
			},
			{
				"x": -2.177078534,
				"y": 0.4441764252,
				"z": -2.0468368381,
				"element": "H" 
			},
			{
				"x": -0.4477232489,
				"y": 0.6259414607,
				"z": -1.7584868587,
				"element": "H" 
			},
			{
				"x": -2.2017531683,
				"y": -1.7499205556,
				"z": -0.9380311351,
				"element": "H" 
			},
			{
				"x": -0.9836417379,
				"y": -1.7680639679,
				"z": -2.2128839277,
				"element": "H" 
			},
			{
				"x": -0.363160393,
				"y": -2.8598598717,
				"z": -0.0011529294,
				"element": "H" 
			},
			{
				"x": 1.7186643419,
				"y": -3.7655078609,
				"z": -0.7029870193,
				"element": "H" 
			},
			{
				"x": 4.1295813155,
				"y": -2.7296549753,
				"z": -1.6016676597,
				"element": "H" 
			}
		],
		 "valence_orbital": [ 
			{
				"type": "occ",
				"energy": -0.29952,
				"method": "rhf"
			},
			{
				"type": "occ",
				"energy": -0.28323,
				"method": "rhf"
			},
			{
				"type": "occ",
				"energy": -0.28257,
				"method": "rhf"
			},
			{
				"type": "occ",
				"energy": -0.27733,
				"method": "rhf"
			},
			{
				"type": "occ",
				"energy": -0.27481,
				"method": "rhf"
			},
			{
				"type": "unocc",
				"energy": -0.07625,
				"method": "rhf"
			},
			{
				"type": "unocc",
				"energy": 6e-05,
				"method": "rhf"
			},
			{
				"type": "unocc",
				"energy": 0.06003,
				"method": "rhf"
			},
			{
				"type": "unocc",
				"energy": 0.06909,
				"method": "rhf"
			},
			{
				"type": "unocc",
				"energy": 0.07126,
				"method": "rhf"
			}
		],
		"cosmo_sigma_profile": { 
			"-0.025": 0.0,
			"-0.024": 0.0,
			"-0.023": 0.0,
			"-0.022": 0.0,
			"-0.021": 0.0,
			"-0.02": 0.0,
			"-0.019": 0.0,
			"-0.018": 0.0,
			"-0.017": 0.0,
			"-0.016": 0.0975110523643,
			"-0.015": 1.00913347282,
			"-0.014": 0.908487801137,
			"-0.013": 0.767926384513,
			"-0.012": 1.20782667738,
			"-0.011": 1.88140097731,
			"-0.01": 4.27078618959,
			"-0.009": 3.39194165768,
			"-0.008": 4.8896075412,
			"-0.007": 5.22911089119,
			"-0.006": 6.69426035896,
			"-0.005": 7.78211827394,
			"-0.004": 14.281026683,
			"-0.003": 18.6756227952,
			"-0.002": 21.3230146093,
			"-0.001": 28.14604885,
			"0.0": 29.9580253803,
			"0.001": 17.0692078167,
			"0.002": 9.51495685222,
			"0.003": 6.48829135759,
			"0.004": 4.85906757574,
			"0.005": 5.98074044413,
			"0.006": 4.81701592917,
			"0.007": 8.94630686165,
			"0.008": 12.5550227793,
			"0.009": 7.28185490351,
			"0.01": 4.92880573727,
			"0.011": 2.74559543567,
			"0.012": 2.23981258068,
			"0.013": 1.3354934024,
			"0.014": 0.171863870962,
			"0.015": 0.0,
			"0.016": 0.0,
			"0.017": 0.0,
			"0.018": 0.0,
			"0.019": 0.0,
			"0.02": 0.0,
			"0.021": 0.0,
			"0.022": 0.0,
			"0.023": 0.0,
			"0.024": 0.0,
			"0.025": 0.0
		}
	}
}
