{
	 "smiles": "NC(=O)N1CCC2=C(C1)C=CC=C2", 
	 "Tm": 444.15, 
	 "num_atms": 25, 
	 "gaussian": { 
		 "optdone": 1, 
		 "sigma_profile": "yes", 
		 "theory": "DFT", 
		 "functional": "B3LYP", 
		 "basiset": "6-31G**", 
		 "properties": { 
			 "R2extent": 3164.7685, 
			 "electric_dipole_moment_norm": 3.49022370916, 
			 "electric_quadrupole_moment_norm": 12.3331663372, 
			 "total_energy": -573.052705435, 
			 "HOMO_LUMO_gap": 0.21943, 
			 "cosmo_polarized_energy": -14.11, 
			 "cosmo_cavitation_energy": 27.16, 
			 "cosmo_dispersion_energy": -20.44, 
			 "cosmo_repulsion_energy": 1.61, 
			 "cosmo_total_nonelectrostatic_energy": 8.34, 
			 "SMD_solvation_energy": 4.12 
		},
		"coords": [
			{
				"x": 2.3180808437,
				"y": -2.9761236314,
				"z": -0.3709549014,
				"element": "N" 
			},
			{
				"x": 1.2449000772,
				"y": -2.3687781729,
				"z": 0.2714577796,
				"element": "C" 
			},
			{
				"x": 0.6153824499,
				"y": -2.9567058518,
				"z": 1.1454215485,
				"element": "O" 
			},
			{
				"x": 0.9643140272,
				"y": -1.0667202952,
				"z": -0.1137271202,
				"element": "N" 
			},
			{
				"x": -0.0075653827,
				"y": -0.3281208438,
				"z": 0.6925726835,
				"element": "C" 
			},
			{
				"x": -0.8465540732,
				"y": 0.5726916094,
				"z": -0.2101669155,
				"element": "C" 
			},
			{
				"x": 0.0384722331,
				"y": 1.4719366063,
				"z": -1.0440139231,
				"element": "C" 
			},
			{
				"x": 1.3440624665,
				"y": 1.0645230146,
				"z": -1.3537341017,
				"element": "C" 
			},
			{
				"x": 1.9006587256,
				"y": -0.2783832072,
				"z": -0.9102998952,
				"element": "C" 
			},
			{
				"x": 2.1715660362,
				"y": 1.908650437,
				"z": -2.1069221729,
				"element": "C" 
			},
			{
				"x": 1.7128793231,
				"y": 3.1414347143,
				"z": -2.561831622,
				"element": "C" 
			},
			{
				"x": 0.4103659796,
				"y": 3.5483111959,
				"z": -2.259097877,
				"element": "C" 
			},
			{
				"x": -0.4119094644,
				"y": 2.7179189512,
				"z": -1.502669336,
				"element": "C" 
			},
			{
				"x": 2.5508558993,
				"y": -2.7073273653,
				"z": -1.3154094243,
				"element": "H" 
			},
			{
				"x": 2.334585621,
				"y": -3.9717365591,
				"z": -0.2018315046,
				"element": "H" 
			},
			{
				"x": -0.6153511868,
				"y": -1.0666818159,
				"z": 1.213268274,
				"element": "H" 
			},
			{
				"x": 0.5071559001,
				"y": 0.2794415872,
				"z": 1.4532849544,
				"element": "H" 
			},
			{
				"x": -1.5304288354,
				"y": 1.1759017376,
				"z": 0.3979971298,
				"element": "H" 
			},
			{
				"x": -1.4696102961,
				"y": -0.0557669009,
				"z": -0.860780317,
				"element": "H" 
			},
			{
				"x": 2.1596277601,
				"y": -0.8345221392,
				"z": -1.8212121385,
				"element": "H" 
			},
			{
				"x": 2.8464577928,
				"y": -0.1190046775,
				"z": -0.3666977496,
				"element": "H" 
			},
			{
				"x": 3.1868951889,
				"y": 1.5924731412,
				"z": -2.3379892387,
				"element": "H" 
			},
			{
				"x": 2.3667384345,
				"y": 3.7830468958,
				"z": -3.1452768713,
				"element": "H" 
			},
			{
				"x": 0.0431307783,
				"y": 4.5105505198,
				"z": -2.604090004,
				"element": "H" 
			},
			{
				"x": -1.4219102987,
				"y": 3.0358910498,
				"z": -1.2545972568,
				"element": "H" 
			}
		],
		 "valence_orbital": [ 
			{
				"type": "occ",
				"energy": -0.26686,
				"method": "rhf"
			},
			{
				"type": "occ",
				"energy": -0.25369,
				"method": "rhf"
			},
			{
				"type": "occ",
				"energy": -0.24753,
				"method": "rhf"
			},
			{
				"type": "occ",
				"energy": -0.24366,
				"method": "rhf"
			},
			{
				"type": "occ",
				"energy": -0.22915,
				"method": "rhf"
			},
			{
				"type": "unocc",
				"energy": -0.00972,
				"method": "rhf"
			},
			{
				"type": "unocc",
				"energy": -0.00163,
				"method": "rhf"
			},
			{
				"type": "unocc",
				"energy": 0.05557,
				"method": "rhf"
			},
			{
				"type": "unocc",
				"energy": 0.0728,
				"method": "rhf"
			},
			{
				"type": "unocc",
				"energy": 0.09567,
				"method": "rhf"
			}
		],
		"cosmo_sigma_profile": { 
			"-0.025": 0.0,
			"-0.024": 0.0,
			"-0.023": 0.0,
			"-0.022": 0.0,
			"-0.021": 0.0,
			"-0.02": 0.0,
			"-0.019": 0.0,
			"-0.018": 0.0,
			"-0.017": 0.0,
			"-0.016": 0.0,
			"-0.015": 0.0,
			"-0.014": 0.66767392765,
			"-0.013": 1.8868263238,
			"-0.012": 2.40428434376,
			"-0.011": 2.97139339739,
			"-0.01": 1.95596924984,
			"-0.009": 2.5691201336,
			"-0.008": 2.32752001518,
			"-0.007": 2.29957159115,
			"-0.006": 4.89179394439,
			"-0.005": 14.8235048643,
			"-0.004": 21.2592944993,
			"-0.003": 24.0683709696,
			"-0.002": 19.460888384,
			"-0.001": 16.0363447427,
			"0.0": 11.8620065225,
			"0.001": 10.2103924196,
			"0.002": 10.0997160814,
			"0.003": 10.0159689662,
			"0.004": 10.4446447963,
			"0.005": 9.98817833321,
			"0.006": 9.74974318752,
			"0.007": 3.9569605473,
			"0.008": 1.83299781735,
			"0.009": 2.56092405886,
			"0.01": 1.69522427845,
			"0.011": 1.46016039106,
			"0.012": 1.98199951021,
			"0.013": 1.70866096462,
			"0.014": 4.75874349162,
			"0.015": 4.14147791967,
			"0.016": 0.17592300355,
			"0.017": 0.0,
			"0.018": 0.0,
			"0.019": 0.0,
			"0.02": 0.0,
			"0.021": 0.0,
			"0.022": 0.0,
			"0.023": 0.0,
			"0.024": 0.0,
			"0.025": 0.0
		}
	}
}
