{
	 "smiles": "CC1=C(OC2=C1C=CC=C2)C(O)=O", 
	 "Tm": 468.65, 
	 "num_atms": 21, 
	 "gaussian": { 
		 "optdone": 1, 
		 "sigma_profile": "yes", 
		 "theory": "DFT", 
		 "functional": "B3LYP", 
		 "basiset": "6-31G**", 
		 "properties": { 
			 "R2extent": 2521.5327, 
			 "electric_dipole_moment_norm": 3.01991696243, 
			 "electric_quadrupole_moment_norm": 11.1481390335, 
			 "total_energy": -611.568059699, 
			 "HOMO_LUMO_gap": 0.17188, 
			 "cosmo_polarized_energy": -11.33, 
			 "cosmo_cavitation_energy": 25.7, 
			 "cosmo_dispersion_energy": -19.03, 
			 "cosmo_repulsion_energy": 1.5, 
			 "cosmo_total_nonelectrostatic_energy": 8.17, 
			 "SMD_solvation_energy": 6.02 
		},
		"coords": [
			{
				"x": -2.1020075499,
				"y": 1.5538526891,
				"z": -0.8046436645,
				"element": "C" 
			},
			{
				"x": -0.8652604152,
				"y": 0.7292763189,
				"z": -0.6061625668,
				"element": "C" 
			},
			{
				"x": 0.0808747239,
				"y": 0.3653411979,
				"z": -1.5331872023,
				"element": "C" 
			},
			{
				"x": 1.0857689886,
				"y": -0.4012106064,
				"z": -0.9810103321,
				"element": "O" 
			},
			{
				"x": 0.7788240277,
				"y": -0.5342750433,
				"z": 0.3354438326,
				"element": "C" 
			},
			{
				"x": -0.4192043014,
				"y": 0.1430002279,
				"z": 0.6339507009,
				"element": "C" 
			},
			{
				"x": -0.9045905318,
				"y": 0.1211050125,
				"z": 1.9535273054,
				"element": "C" 
			},
			{
				"x": -0.1764578791,
				"y": -0.5722415265,
				"z": 2.9118587513,
				"element": "C" 
			},
			{
				"x": 1.0211327949,
				"y": -1.2409668051,
				"z": 2.5798734726,
				"element": "C" 
			},
			{
				"x": 1.5226870542,
				"y": -1.2344828211,
				"z": 1.2815969573,
				"element": "C" 
			},
			{
				"x": 0.2253063531,
				"y": 0.6294465399,
				"z": -2.9664010141,
				"element": "C" 
			},
			{
				"x": -0.7994764465,
				"y": 1.3897843708,
				"z": -3.4410119579,
				"element": "O" 
			},
			{
				"x": 1.1322000915,
				"y": 0.234311046,
				"z": -3.6683719241,
				"element": "O" 
			},
			{
				"x": -2.6462804819,
				"y": 1.6623265658,
				"z": 0.1365544212,
				"element": "H" 
			},
			{
				"x": -1.8588843685,
				"y": 2.5526080987,
				"z": -1.1785042816,
				"element": "H" 
			},
			{
				"x": -2.7718518179,
				"y": 1.0967484176,
				"z": -1.538646609,
				"element": "H" 
			},
			{
				"x": -1.8250824326,
				"y": 0.6325706299,
				"z": 2.2188275996,
				"element": "H" 
			},
			{
				"x": -0.5316226915,
				"y": -0.6030941622,
				"z": 3.9374175659,
				"element": "H" 
			},
			{
				"x": 1.5637081066,
				"y": -1.7728269202,
				"z": 3.3556044428,
				"element": "H" 
			},
			{
				"x": 2.4411189465,
				"y": -1.7433495361,
				"z": 1.0110975805,
				"element": "H" 
			},
			{
				"x": -0.6147021708,
				"y": 1.5080763057,
				"z": -4.3874130778,
				"element": "H" 
			}
		],
		 "valence_orbital": [ 
			{
				"type": "occ",
				"energy": -0.31934,
				"method": "rhf"
			},
			{
				"type": "occ",
				"energy": -0.29315,
				"method": "rhf"
			},
			{
				"type": "occ",
				"energy": -0.2785,
				"method": "rhf"
			},
			{
				"type": "occ",
				"energy": -0.24487,
				"method": "rhf"
			},
			{
				"type": "occ",
				"energy": -0.22892,
				"method": "rhf"
			},
			{
				"type": "unocc",
				"energy": -0.05704,
				"method": "rhf"
			},
			{
				"type": "unocc",
				"energy": 0.00252,
				"method": "rhf"
			},
			{
				"type": "unocc",
				"energy": 0.01976,
				"method": "rhf"
			},
			{
				"type": "unocc",
				"energy": 0.07337,
				"method": "rhf"
			},
			{
				"type": "unocc",
				"energy": 0.09104,
				"method": "rhf"
			}
		],
		"cosmo_sigma_profile": { 
			"-0.025": 0.0,
			"-0.024": 0.0,
			"-0.023": 0.0,
			"-0.022": 0.0,
			"-0.021": 0.0,
			"-0.02": 0.0,
			"-0.019": 0.187483105199,
			"-0.018": 0.668349606453,
			"-0.017": 0.989319997438,
			"-0.016": 0.674245788719,
			"-0.015": 1.09826978207,
			"-0.014": 0.959671747194,
			"-0.013": 0.490844830248,
			"-0.012": 0.219125440278,
			"-0.011": 0.523052486404,
			"-0.01": 0.635669846271,
			"-0.009": 0.748913948591,
			"-0.008": 1.01671151076,
			"-0.007": 4.25901551039,
			"-0.006": 10.0165473852,
			"-0.005": 14.1777691018,
			"-0.004": 12.462360042,
			"-0.003": 14.3636584872,
			"-0.002": 15.4464368384,
			"-0.001": 19.9227575975,
			"0.0": 18.2193716133,
			"0.001": 15.7550999138,
			"0.002": 13.6835146865,
			"0.003": 13.5205864212,
			"0.004": 12.6034589367,
			"0.005": 7.8600298178,
			"0.006": 4.1893338464,
			"0.007": 2.46664620105,
			"0.008": 2.26240699336,
			"0.009": 2.16897290146,
			"0.01": 3.02396034032,
			"0.011": 4.69046411182,
			"0.012": 5.09676130823,
			"0.013": 1.28216615594,
			"0.014": 0.0133326118702,
			"0.015": 0.0,
			"0.016": 0.0,
			"0.017": 0.0,
			"0.018": 0.0,
			"0.019": 0.0,
			"0.02": 0.0,
			"0.021": 0.0,
			"0.022": 0.0,
			"0.023": 0.0,
			"0.024": 0.0,
			"0.025": 0.0
		}
	}
}
