{
	 "smiles": "ClC(=O)C1=CN(C2=CC=CC=C12)S(=O)(=O)C1=CC=CC=C1", 
	 "Tm": 417.15, 
	 "num_atms": 31, 
	 "gaussian": { 
		 "optdone": 1, 
		 "sigma_profile": "yes", 
		 "theory": "DFT", 
		 "functional": "B3LYP", 
		 "basiset": "6-31G**", 
		 "properties": { 
			 "R2extent": 7659.9064, 
			 "electric_dipole_moment_norm": 6.65262222661, 
			 "electric_quadrupole_moment_norm": 22.3258023988, 
			 "total_energy": -1716.36382928, 
			 "HOMO_LUMO_gap": 0.16401, 
			 "cosmo_polarized_energy": -13.49, 
			 "cosmo_cavitation_energy": 39.19, 
			 "cosmo_dispersion_energy": -27.78, 
			 "cosmo_repulsion_energy": 2.07, 
			 "cosmo_total_nonelectrostatic_energy": 13.49, 
			 "SMD_solvation_energy": 6.39 
		},
		"coords": [
			{
				"x": 3.5741476328,
				"y": -0.7882671394,
				"z": -2.0513407905,
				"element": "Cl" 
			},
			{
				"x": 2.8758407801,
				"y": 0.6003553807,
				"z": -1.0588820325,
				"element": "C" 
			},
			{
				"x": 3.6115540414,
				"y": 1.2619255755,
				"z": -0.3860355566,
				"element": "O" 
			},
			{
				"x": 1.4402920766,
				"y": 0.7520463733,
				"z": -1.1926969397,
				"element": "C" 
			},
			{
				"x": 0.5808861111,
				"y": -0.0021324815,
				"z": -1.9575848719,
				"element": "C" 
			},
			{
				"x": -0.7008065516,
				"y": 0.4835810742,
				"z": -1.8160214792,
				"element": "N" 
			},
			{
				"x": -0.6930352052,
				"y": 1.5793445433,
				"z": -0.9235543825,
				"element": "C" 
			},
			{
				"x": -1.7298852096,
				"y": 2.4031629429,
				"z": -0.4802437488,
				"element": "C" 
			},
			{
				"x": -1.3910093491,
				"y": 3.4217821097,
				"z": 0.4063020412,
				"element": "C" 
			},
			{
				"x": -0.063463401,
				"y": 3.6189635386,
				"z": 0.8275256447,
				"element": "C" 
			},
			{
				"x": 0.965703397,
				"y": 2.8043747382,
				"z": 0.3689995563,
				"element": "C" 
			},
			{
				"x": 0.6491601016,
				"y": 1.7668823912,
				"z": -0.5184805026,
				"element": "C" 
			},
			{
				"x": -2.0836571188,
				"y": -0.3553570043,
				"z": -2.4482944427,
				"element": "S" 
			},
			{
				"x": -1.5449558591,
				"y": -1.1808381146,
				"z": -3.5233233479,
				"element": "O" 
			},
			{
				"x": -3.1036925712,
				"y": 0.6643095442,
				"z": -2.6603626641,
				"element": "O" 
			},
			{
				"x": -2.5834216422,
				"y": -1.4134786894,
				"z": -1.0962843318,
				"element": "C" 
			},
			{
				"x": -3.55451055,
				"y": -0.9622472694,
				"z": -0.1996199299,
				"element": "C" 
			},
			{
				"x": -3.9294876874,
				"y": -1.7951138894,
				"z": 0.8545037197,
				"element": "C" 
			},
			{
				"x": -3.3403172799,
				"y": -3.0531945717,
				"z": 0.9983801523,
				"element": "C" 
			},
			{
				"x": -2.3777965591,
				"y": -3.4931714914,
				"z": 0.0856477757,
				"element": "C" 
			},
			{
				"x": -1.9917327119,
				"y": -2.6737979822,
				"z": -0.9737518071,
				"element": "C" 
			},
			{
				"x": 0.7813736066,
				"y": -0.8366660412,
				"z": -2.6106208849,
				"element": "H" 
			},
			{
				"x": -2.7449239049,
				"y": 2.2738236917,
				"z": -0.8335871659,
				"element": "H" 
			},
			{
				"x": -2.1703354319,
				"y": 4.0844092415,
				"z": 0.7702117382,
				"element": "H" 
			},
			{
				"x": 0.161146215,
				"y": 4.4279842644,
				"z": 1.515911293,
				"element": "H" 
			},
			{
				"x": 1.9932643009,
				"y": 2.9555532063,
				"z": 0.6783380982,
				"element": "H" 
			},
			{
				"x": -4.0151812309,
				"y": 0.0088080709,
				"z": -0.337998142,
				"element": "H" 
			},
			{
				"x": -4.6850721138,
				"y": -1.462075775,
				"z": 1.5589491548,
				"element": "H" 
			},
			{
				"x": -3.6371566418,
				"y": -3.6968550761,
				"z": 1.8208978098,
				"element": "H" 
			},
			{
				"x": -1.9312534618,
				"y": -4.4764472931,
				"z": 0.1942442599,
				"element": "H" 
			},
			{
				"x": -1.2613737822,
				"y": -3.0074638677,
				"z": -1.702428223,
				"element": "H" 
			}
		],
		 "valence_orbital": [ 
			{
				"type": "occ",
				"energy": -0.29284,
				"method": "rhf"
			},
			{
				"type": "occ",
				"energy": -0.29054,
				"method": "rhf"
			},
			{
				"type": "occ",
				"energy": -0.28976,
				"method": "rhf"
			},
			{
				"type": "occ",
				"energy": -0.25236,
				"method": "rhf"
			},
			{
				"type": "occ",
				"energy": -0.23929,
				"method": "rhf"
			},
			{
				"type": "unocc",
				"energy": -0.07528,
				"method": "rhf"
			},
			{
				"type": "unocc",
				"energy": -0.05665,
				"method": "rhf"
			},
			{
				"type": "unocc",
				"energy": -0.04098,
				"method": "rhf"
			},
			{
				"type": "unocc",
				"energy": -0.02159,
				"method": "rhf"
			},
			{
				"type": "unocc",
				"energy": -0.005,
				"method": "rhf"
			}
		],
		"cosmo_sigma_profile": { 
			"-0.025": 0.0,
			"-0.024": 0.0,
			"-0.023": 0.0,
			"-0.022": 0.0,
			"-0.021": 0.0,
			"-0.02": 0.0,
			"-0.019": 0.0,
			"-0.018": 0.0,
			"-0.017": 0.0,
			"-0.016": 0.0,
			"-0.015": 0.0,
			"-0.014": 0.0,
			"-0.013": 0.0,
			"-0.012": 0.0,
			"-0.011": 0.0,
			"-0.01": 0.0,
			"-0.009": 0.271865914806,
			"-0.008": 4.82018986732,
			"-0.007": 15.8363183051,
			"-0.006": 19.987736983,
			"-0.005": 18.377861313,
			"-0.004": 19.0099894698,
			"-0.003": 20.0658061123,
			"-0.002": 23.8357150244,
			"-0.001": 23.9820622929,
			"0.0": 26.6685029605,
			"0.001": 26.7300089798,
			"0.002": 29.8004004575,
			"0.003": 22.4387251128,
			"0.004": 19.4935531966,
			"0.005": 13.341449768,
			"0.006": 6.90457441098,
			"0.007": 5.16670655365,
			"0.008": 8.73587061113,
			"0.009": 10.4363807349,
			"0.01": 3.29149261551,
			"0.011": 0.0,
			"0.012": 0.0,
			"0.013": 0.0,
			"0.014": 0.0,
			"0.015": 0.0,
			"0.016": 0.0,
			"0.017": 0.0,
			"0.018": 0.0,
			"0.019": 0.0,
			"0.02": 0.0,
			"0.021": 0.0,
			"0.022": 0.0,
			"0.023": 0.0,
			"0.024": 0.0,
			"0.025": 0.0
		}
	}
}
