{
	 "smiles": "NC(=O)C1=CC=CC=C1C(N)=O", 
	 "Tm": 495.15, 
	 "num_atms": 20, 
	 "gaussian": { 
		 "optdone": 1, 
		 "sigma_profile": "yes", 
		 "theory": "DFT", 
		 "functional": "B3LYP", 
		 "basiset": "6-31G**", 
		 "properties": { 
			 "R2extent": 2224.0502, 
			 "electric_dipole_moment_norm": 4.68389555071, 
			 "electric_quadrupole_moment_norm": 17.1942009989, 
			 "total_energy": -569.660020772, 
			 "HOMO_LUMO_gap": 0.19284, 
			 "cosmo_polarized_energy": -17.57, 
			 "cosmo_cavitation_energy": 24.18, 
			 "cosmo_dispersion_energy": -18.1, 
			 "cosmo_repulsion_energy": 1.46, 
			 "cosmo_total_nonelectrostatic_energy": 7.54, 
			 "SMD_solvation_energy": 5.48 
		},
		"coords": [
			{
				"x": -3.1655870351,
				"y": -0.9123299355,
				"z": 0.123076736,
				"element": "N" 
			},
			{
				"x": -1.965469188,
				"y": -1.5171408415,
				"z": -0.0319726028,
				"element": "C" 
			},
			{
				"x": -1.8524640188,
				"y": -2.7203562629,
				"z": -0.2588764947,
				"element": "O" 
			},
			{
				"x": -0.7154747926,
				"y": -0.6449181632,
				"z": 0.0144741357,
				"element": "C" 
			},
			{
				"x": 0.3482778533,
				"y": -1.1612365648,
				"z": -0.7406304659,
				"element": "C" 
			},
			{
				"x": 1.5812615055,
				"y": -0.5207339787,
				"z": -0.8136872785,
				"element": "C" 
			},
			{
				"x": 1.7905803745,
				"y": 0.655410139,
				"z": -0.0953951141,
				"element": "C" 
			},
			{
				"x": 0.7636288581,
				"y": 1.1637364974,
				"z": 0.6951312015,
				"element": "C" 
			},
			{
				"x": -0.4943270145,
				"y": 0.5375050045,
				"z": 0.7614293731,
				"element": "C" 
			},
			{
				"x": -1.5170404458,
				"y": 1.2145962812,
				"z": 1.6423021843,
				"element": "C" 
			},
			{
				"x": -1.0611428965,
				"y": 1.5516066435,
				"z": 2.8819391541,
				"element": "N" 
			},
			{
				"x": -2.6574982188,
				"y": 1.5132968899,
				"z": 1.2854395899,
				"element": "O" 
			},
			{
				"x": -3.2481962828,
				"y": 0.0768109287,
				"z": 0.3436107436,
				"element": "H" 
			},
			{
				"x": -3.9777163891,
				"y": -1.5097543004,
				"z": 0.0886201552,
				"element": "H" 
			},
			{
				"x": 0.1732961793,
				"y": -2.0951265045,
				"z": -1.2625124479,
				"element": "H" 
			},
			{
				"x": 2.374634526,
				"y": -0.9409385379,
				"z": -1.4247450514,
				"element": "H" 
			},
			{
				"x": 2.7444630769,
				"y": 1.1723373585,
				"z": -0.1429779737,
				"element": "H" 
			},
			{
				"x": 0.9240184668,
				"y": 2.0783011891,
				"z": 1.2578933973,
				"element": "H" 
			},
			{
				"x": -1.7150088439,
				"y": 1.9880234204,
				"z": 3.5153481146,
				"element": "H" 
			},
			{
				"x": -0.2009357145,
				"y": 1.176610737,
				"z": 3.2475326438,
				"element": "H" 
			}
		],
		 "valence_orbital": [ 
			{
				"type": "occ",
				"energy": -0.27831,
				"method": "rhf"
			},
			{
				"type": "occ",
				"energy": -0.26502,
				"method": "rhf"
			},
			{
				"type": "occ",
				"energy": -0.26176,
				"method": "rhf"
			},
			{
				"type": "occ",
				"energy": -0.25008,
				"method": "rhf"
			},
			{
				"type": "occ",
				"energy": -0.2386,
				"method": "rhf"
			},
			{
				"type": "unocc",
				"energy": -0.04576,
				"method": "rhf"
			},
			{
				"type": "unocc",
				"energy": -0.02463,
				"method": "rhf"
			},
			{
				"type": "unocc",
				"energy": 0.02528,
				"method": "rhf"
			},
			{
				"type": "unocc",
				"energy": 0.06062,
				"method": "rhf"
			},
			{
				"type": "unocc",
				"energy": 0.07526,
				"method": "rhf"
			}
		],
		"cosmo_sigma_profile": { 
			"-0.025": 0.0,
			"-0.024": 0.0,
			"-0.023": 0.0,
			"-0.022": 0.0,
			"-0.021": 0.0,
			"-0.02": 0.0,
			"-0.019": 0.0,
			"-0.018": 0.0,
			"-0.017": 0.0,
			"-0.016": 0.0,
			"-0.015": 0.609041482327,
			"-0.014": 2.9745856119,
			"-0.013": 3.24232484085,
			"-0.012": 2.96704930517,
			"-0.011": 4.20459369798,
			"-0.01": 2.41836926552,
			"-0.009": 3.27315963779,
			"-0.008": 3.3195819035,
			"-0.007": 6.06256710018,
			"-0.006": 10.2768867164,
			"-0.005": 10.2986922471,
			"-0.004": 11.1074421647,
			"-0.003": 9.55086638286,
			"-0.002": 9.29994456592,
			"-0.001": 10.0268415636,
			"0.0": 11.9857924115,
			"0.001": 12.6969269699,
			"0.002": 13.7846949313,
			"0.003": 17.6482582231,
			"0.004": 9.76717443573,
			"0.005": 4.32299801353,
			"0.006": 3.0069280511,
			"0.007": 2.3892333345,
			"0.008": 2.60816627699,
			"0.009": 3.44075350078,
			"0.01": 2.47556018259,
			"0.011": 3.54893214692,
			"0.012": 4.12949010345,
			"0.013": 4.64111647538,
			"0.014": 5.39607953886,
			"0.015": 1.35025405453,
			"0.016": 0.0,
			"0.017": 0.0,
			"0.018": 0.0,
			"0.019": 0.0,
			"0.02": 0.0,
			"0.021": 0.0,
			"0.022": 0.0,
			"0.023": 0.0,
			"0.024": 0.0,
			"0.025": 0.0
		}
	}
}
