{
	 "smiles": "ClC1=C(Cl)C2=C(C=CC=C2)C(=O)C1=O", 
	 "Tm": 457.15, 
	 "num_atms": 18, 
	 "gaussian": { 
		 "optdone": 1, 
		 "sigma_profile": "yes", 
		 "theory": "DFT", 
		 "functional": "B3LYP", 
		 "basiset": "6-31G**", 
		 "properties": { 
			 "R2extent": 3878.0367, 
			 "electric_dipole_moment_norm": 5.90932277084, 
			 "electric_quadrupole_moment_norm": 6.03622480695, 
			 "total_energy": -1454.27447479, 
			 "HOMO_LUMO_gap": 0.12494, 
			 "cosmo_polarized_energy": -11.88, 
			 "cosmo_cavitation_energy": 26.6, 
			 "cosmo_dispersion_energy": -19.98, 
			 "cosmo_repulsion_energy": 1.53, 
			 "cosmo_total_nonelectrostatic_energy": 8.15, 
			 "SMD_solvation_energy": 5.17 
		},
		"coords": [
			{
				"x": -3.0050440054,
				"y": 2.8388853779,
				"z": -0.6129713331,
				"element": "Cl" 
			},
			{
				"x": -1.7838668222,
				"y": 1.6121654985,
				"z": -0.6389534471,
				"element": "C" 
			},
			{
				"x": -0.4729908392,
				"y": 1.8731068788,
				"z": -0.8923370778,
				"element": "C" 
			},
			{
				"x": 0.0308023297,
				"y": 3.5102109618,
				"z": -1.2094655592,
				"element": "Cl" 
			},
			{
				"x": 0.5689102472,
				"y": 0.8289523579,
				"z": -0.9148243214,
				"element": "C" 
			},
			{
				"x": 0.2136735762,
				"y": -0.5185982034,
				"z": -0.6635143125,
				"element": "C" 
			},
			{
				"x": 1.1854707144,
				"y": -1.5222747922,
				"z": -0.6801135768,
				"element": "C" 
			},
			{
				"x": 2.518025991,
				"y": -1.2133610978,
				"z": -0.9439192563,
				"element": "C" 
			},
			{
				"x": 2.8752895084,
				"y": 0.1122943248,
				"z": -1.1924248625,
				"element": "C" 
			},
			{
				"x": 1.9136730226,
				"y": 1.1239609519,
				"z": -1.1786518965,
				"element": "C" 
			},
			{
				"x": -1.1905728965,
				"y": -0.8946085577,
				"z": -0.3782514167,
				"element": "C" 
			},
			{
				"x": -1.5450730285,
				"y": -2.0362988023,
				"z": -0.1563059928,
				"element": "O" 
			},
			{
				"x": -2.2552760472,
				"y": 0.2326064842,
				"z": -0.3642581829,
				"element": "C" 
			},
			{
				"x": -3.4152307286,
				"y": -0.038405329,
				"z": -0.1347885453,
				"element": "O" 
			},
			{
				"x": 0.8659407704,
				"y": -2.5400213468,
				"z": -0.481869554,
				"element": "H" 
			},
			{
				"x": 3.2693737982,
				"y": -1.9965360264,
				"z": -0.9557121088,
				"element": "H" 
			},
			{
				"x": 3.9099017337,
				"y": 0.368355696,
				"z": -1.399534108,
				"element": "H" 
			},
			{
				"x": 2.2118926756,
				"y": 2.1461656239,
				"z": -1.3740044483,
				"element": "H" 
			}
		],
		 "valence_orbital": [ 
			{
				"type": "occ",
				"energy": -0.31209,
				"method": "rhf"
			},
			{
				"type": "occ",
				"energy": -0.3057,
				"method": "rhf"
			},
			{
				"type": "occ",
				"energy": -0.28723,
				"method": "rhf"
			},
			{
				"type": "occ",
				"energy": -0.26334,
				"method": "rhf"
			},
			{
				"type": "occ",
				"energy": -0.25727,
				"method": "rhf"
			},
			{
				"type": "unocc",
				"energy": -0.13233,
				"method": "rhf"
			},
			{
				"type": "unocc",
				"energy": -0.06235,
				"method": "rhf"
			},
			{
				"type": "unocc",
				"energy": -0.02674,
				"method": "rhf"
			},
			{
				"type": "unocc",
				"energy": -0.01396,
				"method": "rhf"
			},
			{
				"type": "unocc",
				"energy": 0.00724,
				"method": "rhf"
			}
		],
		"cosmo_sigma_profile": { 
			"-0.025": 0.0,
			"-0.024": 0.0,
			"-0.023": 0.0,
			"-0.022": 0.0,
			"-0.021": 0.0,
			"-0.02": 0.0,
			"-0.019": 0.0,
			"-0.018": 0.0,
			"-0.017": 0.0,
			"-0.016": 0.0,
			"-0.015": 0.0,
			"-0.014": 0.0,
			"-0.013": 0.0,
			"-0.012": 0.0,
			"-0.011": 0.0,
			"-0.01": 0.625589111786,
			"-0.009": 1.90249653871,
			"-0.008": 4.8850337964,
			"-0.007": 11.0996388054,
			"-0.006": 10.5153870459,
			"-0.005": 9.83251248975,
			"-0.004": 13.230594976,
			"-0.003": 17.6567098812,
			"-0.002": 18.3366758068,
			"-0.001": 18.5768176295,
			"0.0": 20.6869845714,
			"0.001": 22.2345121888,
			"0.002": 16.9186237146,
			"0.003": 12.5225200287,
			"0.004": 6.58272473099,
			"0.005": 3.81974742076,
			"0.006": 3.35617795962,
			"0.007": 3.15966873714,
			"0.008": 4.95860142601,
			"0.009": 6.2444185409,
			"0.01": 7.5399122453,
			"0.011": 2.73659613286,
			"0.012": 1.57770282595,
			"0.013": 1.16264837045,
			"0.014": 0.00580190627939,
			"0.015": 0.0,
			"0.016": 0.0,
			"0.017": 0.0,
			"0.018": 0.0,
			"0.019": 0.0,
			"0.02": 0.0,
			"0.021": 0.0,
			"0.022": 0.0,
			"0.023": 0.0,
			"0.024": 0.0,
			"0.025": 0.0
		}
	}
}
