{
	 "smiles": "CC1=C(N)C=C2NN=CC2=C1", 
	 "Tm": 493.15, 
	 "num_atms": 20, 
	 "gaussian": { 
		 "optdone": 1, 
		 "sigma_profile": "yes", 
		 "theory": "DFT", 
		 "functional": "B3LYP", 
		 "basiset": "6-31G**", 
		 "properties": { 
			 "R2extent": 1966.2147, 
			 "electric_dipole_moment_norm": 3.55561738943, 
			 "electric_quadrupole_moment_norm": 11.1574373823, 
			 "total_energy": -474.522689476, 
			 "HOMO_LUMO_gap": 0.18266, 
			 "cosmo_polarized_energy": -13.61, 
			 "cosmo_cavitation_energy": 23.29, 
			 "cosmo_dispersion_energy": -17.74, 
			 "cosmo_repulsion_energy": 1.41, 
			 "cosmo_total_nonelectrostatic_energy": 6.97, 
			 "SMD_solvation_energy": 2.93 
		},
		"coords": [
			{
				"x": 1.6290347379,
				"y": 3.4489103623,
				"z": -0.4733230681,
				"element": "C" 
			},
			{
				"x": 0.8183190861,
				"y": 2.1869621589,
				"z": -0.3027901295,
				"element": "C" 
			},
			{
				"x": 1.3797660582,
				"y": 0.9279625265,
				"z": -0.7060725669,
				"element": "C" 
			},
			{
				"x": 2.650388753,
				"y": 0.9153785232,
				"z": -1.2911556686,
				"element": "N" 
			},
			{
				"x": 0.6563748266,
				"y": -0.2574410779,
				"z": -0.5790487685,
				"element": "C" 
			},
			{
				"x": -0.6386204082,
				"y": -0.178548404,
				"z": -0.0500269872,
				"element": "C" 
			},
			{
				"x": -1.588387314,
				"y": -1.1303027114,
				"z": 0.1988247497,
				"element": "N" 
			},
			{
				"x": -2.7307889515,
				"y": -0.609900756,
				"z": 0.737265044,
				"element": "N" 
			},
			{
				"x": -2.5125835653,
				"y": 0.6891084613,
				"z": 0.8366319489,
				"element": "C" 
			},
			{
				"x": -1.2137317023,
				"y": 1.0477841505,
				"z": 0.3613471372,
				"element": "C" 
			},
			{
				"x": -0.4617138134,
				"y": 2.228913434,
				"z": 0.2252485599,
				"element": "C" 
			},
			{
				"x": 2.5414512092,
				"y": 3.4450515594,
				"z": 0.1409956061,
				"element": "H" 
			},
			{
				"x": 1.0489973262,
				"y": 4.326206093,
				"z": -0.1764658841,
				"element": "H" 
			},
			{
				"x": 1.9439634237,
				"y": 3.5896340812,
				"z": -1.5147230078,
				"element": "H" 
			},
			{
				"x": 3.2866830143,
				"y": 1.6286118912,
				"z": -0.9634819416,
				"element": "H" 
			},
			{
				"x": 3.0930669968,
				"y": 0.0069429943,
				"z": -1.3181460257,
				"element": "H" 
			},
			{
				"x": 1.0905325472,
				"y": -1.2046891912,
				"z": -0.8876962414,
				"element": "H" 
			},
			{
				"x": -1.5401688486,
				"y": -2.1214855633,
				"z": 0.0305345354,
				"element": "H" 
			},
			{
				"x": -3.2830271929,
				"y": 1.3319578206,
				"z": 1.2421392607,
				"element": "H" 
			},
			{
				"x": -0.8811561829,
				"y": 3.1844436475,
				"z": 0.5300434472,
				"element": "H" 
			}
		],
		 "valence_orbital": [ 
			{
				"type": "occ",
				"energy": -0.29684,
				"method": "rhf"
			},
			{
				"type": "occ",
				"energy": -0.27889,
				"method": "rhf"
			},
			{
				"type": "occ",
				"energy": -0.27217,
				"method": "rhf"
			},
			{
				"type": "occ",
				"energy": -0.21152,
				"method": "rhf"
			},
			{
				"type": "occ",
				"energy": -0.19437,
				"method": "rhf"
			},
			{
				"type": "unocc",
				"energy": -0.01171,
				"method": "rhf"
			},
			{
				"type": "unocc",
				"energy": 0.03278,
				"method": "rhf"
			},
			{
				"type": "unocc",
				"energy": 0.07008,
				"method": "rhf"
			},
			{
				"type": "unocc",
				"energy": 0.07602,
				"method": "rhf"
			},
			{
				"type": "unocc",
				"energy": 0.09335,
				"method": "rhf"
			}
		],
		"cosmo_sigma_profile": { 
			"-0.025": 0.0,
			"-0.024": 0.0,
			"-0.023": 0.0,
			"-0.022": 0.0,
			"-0.021": 0.0,
			"-0.02": 0.0,
			"-0.019": 0.0,
			"-0.018": 0.0,
			"-0.017": 0.0,
			"-0.016": 0.55249026627,
			"-0.015": 1.55643594978,
			"-0.014": 1.08825450079,
			"-0.013": 0.962877187354,
			"-0.012": 2.87965734,
			"-0.011": 3.50300188323,
			"-0.01": 3.6024616753,
			"-0.009": 4.31132789601,
			"-0.008": 4.2996713402,
			"-0.007": 5.12776060081,
			"-0.006": 6.97436611717,
			"-0.005": 8.88246584569,
			"-0.004": 11.3927930507,
			"-0.003": 11.7493868186,
			"-0.002": 10.0762287333,
			"-0.001": 10.1739257345,
			"0.0": 10.4922465114,
			"0.001": 10.189487066,
			"0.002": 7.77658401651,
			"0.003": 7.64904797848,
			"0.004": 13.3006049595,
			"0.005": 15.1049473791,
			"0.006": 12.5422487949,
			"0.007": 3.49245844068,
			"0.008": 3.24432044194,
			"0.009": 2.31463980326,
			"0.01": 2.1074046359,
			"0.011": 1.935338601,
			"0.012": 1.46618481272,
			"0.013": 2.24925786307,
			"0.014": 1.57450920447,
			"0.015": 1.29416109019,
			"0.016": 0.855638557564,
			"0.017": 0.181765271557,
			"0.018": 0.0,
			"0.019": 0.0,
			"0.02": 0.0,
			"0.021": 0.0,
			"0.022": 0.0,
			"0.023": 0.0,
			"0.024": 0.0,
			"0.025": 0.0
		}
	}
}
