{
	 "smiles": "NC1=CC(Cl)=NC(Cl)=C1", 
	 "Tm": 447.15, 
	 "num_atms": 13, 
	 "gaussian": { 
		 "optdone": 1, 
		 "sigma_profile": "yes", 
		 "theory": "DFT", 
		 "functional": "B3LYP", 
		 "basiset": "6-31G**", 
		 "properties": { 
			 "R2extent": 2997.6304, 
			 "electric_dipole_moment_norm": 6.02394142817, 
			 "electric_quadrupole_moment_norm": 13.5064851834, 
			 "total_energy": -1222.8354486, 
			 "HOMO_LUMO_gap": 0.2203, 
			 "cosmo_polarized_energy": -13.74, 
			 "cosmo_cavitation_energy": 21.26, 
			 "cosmo_dispersion_energy": -16.34, 
			 "cosmo_repulsion_energy": 1.36, 
			 "cosmo_total_nonelectrostatic_energy": 6.29, 
			 "SMD_solvation_energy": 1.76 
		},
		"coords": [
			{
				"x": -0.9438269605,
				"y": -0.3674405609,
				"z": 1.8183466295,
				"element": "N" 
			},
			{
				"x": 0.2991801336,
				"y": -0.0978815149,
				"z": 1.2998583151,
				"element": "C" 
			},
			{
				"x": 1.4534195545,
				"y": -0.713147439,
				"z": 1.8221564744,
				"element": "C" 
			},
			{
				"x": 2.6673512607,
				"y": -0.4230602154,
				"z": 1.2153917694,
				"element": "C" 
			},
			{
				"x": 4.1212476365,
				"y": -1.1810203093,
				"z": 1.8572626799,
				"element": "Cl" 
			},
			{
				"x": 2.8392318853,
				"y": 0.3882179716,
				"z": 0.1812017624,
				"element": "N" 
			},
			{
				"x": 1.739039272,
				"y": 0.9551615757,
				"z": -0.2935768781,
				"element": "C" 
			},
			{
				"x": 1.9537540386,
				"y": 2.037057767,
				"z": -1.6660580648,
				"element": "Cl" 
			},
			{
				"x": 0.4556510203,
				"y": 0.7682036422,
				"z": 0.2002942318,
				"element": "C" 
			},
			{
				"x": -0.9955463716,
				"y": -0.7815785818,
				"z": 2.7362607424,
				"element": "H" 
			},
			{
				"x": -1.6985889877,
				"y": 0.2622539505,
				"z": 1.5934687113,
				"element": "H" 
			},
			{
				"x": 1.4001106526,
				"y": -1.3922544596,
				"z": 2.664683805,
				"element": "H" 
			},
			{
				"x": -0.3928231345,
				"y": 1.2696881737,
				"z": -0.2496901784,
				"element": "H" 
			}
		],
		 "valence_orbital": [ 
			{
				"type": "occ",
				"energy": -0.31217,
				"method": "rhf"
			},
			{
				"type": "occ",
				"energy": -0.30732,
				"method": "rhf"
			},
			{
				"type": "occ",
				"energy": -0.28662,
				"method": "rhf"
			},
			{
				"type": "occ",
				"energy": -0.25605,
				"method": "rhf"
			},
			{
				"type": "occ",
				"energy": -0.24868,
				"method": "rhf"
			},
			{
				"type": "unocc",
				"energy": -0.02838,
				"method": "rhf"
			},
			{
				"type": "unocc",
				"energy": -0.02133,
				"method": "rhf"
			},
			{
				"type": "unocc",
				"energy": 0.01942,
				"method": "rhf"
			},
			{
				"type": "unocc",
				"energy": 0.04639,
				"method": "rhf"
			},
			{
				"type": "unocc",
				"energy": 0.05593,
				"method": "rhf"
			}
		],
		"cosmo_sigma_profile": { 
			"-0.025": 0.0,
			"-0.024": 0.0,
			"-0.023": 0.0,
			"-0.022": 0.0,
			"-0.021": 0.0,
			"-0.02": 0.0,
			"-0.019": 0.0,
			"-0.018": 0.0,
			"-0.017": 0.0,
			"-0.016": 0.0,
			"-0.015": 0.519566400933,
			"-0.014": 2.85496034137,
			"-0.013": 3.80724756086,
			"-0.012": 3.21154998222,
			"-0.011": 2.87699177132,
			"-0.01": 3.3468633149,
			"-0.009": 4.18151849169,
			"-0.008": 4.21134065317,
			"-0.007": 3.54385376369,
			"-0.006": 3.2544818941,
			"-0.005": 3.76696628924,
			"-0.004": 2.93084353199,
			"-0.003": 4.04926618037,
			"-0.002": 6.83105885603,
			"-0.001": 8.3640941273,
			"0.0": 18.9813893258,
			"0.001": 21.3097103433,
			"0.002": 14.823829506,
			"0.003": 13.0742514617,
			"0.004": 20.1428493853,
			"0.005": 11.2557451761,
			"0.006": 4.64821541591,
			"0.007": 3.1394103341,
			"0.008": 2.61662904079,
			"0.009": 2.06860989438,
			"0.01": 2.11011289986,
			"0.011": 0.829198979858,
			"0.012": 0.870536210819,
			"0.013": 1.04576221483,
			"0.014": 0.449749226533,
			"0.015": 0.00906484857342,
			"0.016": 0.0,
			"0.017": 0.0,
			"0.018": 0.0,
			"0.019": 0.0,
			"0.02": 0.0,
			"0.021": 0.0,
			"0.022": 0.0,
			"0.023": 0.0,
			"0.024": 0.0,
			"0.025": 0.0
		}
	}
}
