{
	 "smiles": "FC1=CC=C(C=C(C#N)C2=NC(=CS2)C2=CC=C(Cl)C=C2)C=C1", 
	 "Tm": 457.15, 
	 "num_atms": 33, 
	 "gaussian": { 
		 "optdone": 1, 
		 "sigma_profile": "yes", 
		 "theory": "DFT", 
		 "functional": "B3LYP", 
		 "basiset": "6-31G**", 
		 "properties": { 
			 "R2extent": 11365.923, 
			 "electric_dipole_moment_norm": 1.73367337754, 
			 "electric_quadrupole_moment_norm": 28.4194867045, 
			 "total_energy": -1759.62714376, 
			 "HOMO_LUMO_gap": 0.129, 
			 "cosmo_polarized_energy": -12.46, 
			 "cosmo_cavitation_energy": 43.7, 
			 "cosmo_dispersion_energy": -30.44, 
			 "cosmo_repulsion_energy": 2.2, 
			 "cosmo_total_nonelectrostatic_energy": 15.46, 
			 "SMD_solvation_energy": 8.0 
		},
		"coords": [
			{
				"x": -1.1700255573,
				"y": -3.9673948417,
				"z": 2.8996591847,
				"element": "F" 
			},
			{
				"x": -0.5575175778,
				"y": -2.7764828444,
				"z": 2.785150055,
				"element": "C" 
			},
			{
				"x": 0.3245683096,
				"y": -2.3729778112,
				"z": 3.783499899,
				"element": "C" 
			},
			{
				"x": 0.9477196207,
				"y": -1.1397507202,
				"z": 3.6522872604,
				"element": "C" 
			},
			{
				"x": 0.7149385146,
				"y": -0.2994351133,
				"z": 2.5360290863,
				"element": "C" 
			},
			{
				"x": 1.4189550001,
				"y": 0.97272468,
				"z": 2.5504102419,
				"element": "C" 
			},
			{
				"x": 1.5275478643,
				"y": 2.0669237436,
				"z": 1.7260440697,
				"element": "C" 
			},
			{
				"x": 2.3364768987,
				"y": 3.1321893787,
				"z": 2.2607622326,
				"element": "C" 
			},
			{
				"x": 2.9849834374,
				"y": 3.9966534378,
				"z": 2.6940073562,
				"element": "N" 
			},
			{
				"x": 0.9750935665,
				"y": 2.3486420861,
				"z": 0.396624443,
				"element": "C" 
			},
			{
				"x": 0.3509989005,
				"y": 1.518704824,
				"z": -0.397153624,
				"element": "N" 
			},
			{
				"x": -0.0381477473,
				"y": 2.1061837949,
				"z": -1.5802282852,
				"element": "C" 
			},
			{
				"x": 0.311877426,
				"y": 3.4326538846,
				"z": -1.6934956486,
				"element": "C" 
			},
			{
				"x": 1.1453241361,
				"y": 3.9731324218,
				"z": -0.2885854013,
				"element": "S" 
			},
			{
				"x": -0.7424977158,
				"y": 1.3018808865,
				"z": -2.5965478754,
				"element": "C" 
			},
			{
				"x": -0.6288461966,
				"y": -0.0977574675,
				"z": -2.5918811803,
				"element": "C" 
			},
			{
				"x": -1.2731290099,
				"y": -0.8737246882,
				"z": -3.5523496742,
				"element": "C" 
			},
			{
				"x": -2.0428975193,
				"y": -0.246998495,
				"z": -4.5319188804,
				"element": "C" 
			},
			{
				"x": -2.8598978522,
				"y": -1.2177967992,
				"z": -5.7458169092,
				"element": "Cl" 
			},
			{
				"x": -2.1771074851,
				"y": 1.1413731865,
				"z": -4.5578641178,
				"element": "C" 
			},
			{
				"x": -1.5297576548,
				"y": 1.9052159446,
				"z": -3.5904207591,
				"element": "C" 
			},
			{
				"x": -0.1863737226,
				"y": -0.7529974912,
				"z": 1.5467544116,
				"element": "C" 
			},
			{
				"x": -0.8222547655,
				"y": -1.9826214434,
				"z": 1.6727442725,
				"element": "C" 
			},
			{
				"x": 0.5045192276,
				"y": -3.0172829796,
				"z": 4.636800362,
				"element": "H" 
			},
			{
				"x": 1.6315842307,
				"y": -0.8110051707,
				"z": 4.4298126038,
				"element": "H" 
			},
			{
				"x": 1.9981316902,
				"y": 1.0966352786,
				"z": 3.4630542681,
				"element": "H" 
			},
			{
				"x": 0.1563681553,
				"y": 4.0962795209,
				"z": -2.5315225697,
				"element": "H" 
			},
			{
				"x": -0.0184677361,
				"y": -0.5757536428,
				"z": -1.8336341904,
				"element": "H" 
			},
			{
				"x": -1.1757148276,
				"y": -1.9537484917,
				"z": -3.5466046545,
				"element": "H" 
			},
			{
				"x": -2.7882373112,
				"y": 1.6145250152,
				"z": -5.3183358712,
				"element": "H" 
			},
			{
				"x": -1.6599822566,
				"y": 2.9830521819,
				"z": -3.5997608902,
				"element": "H" 
			},
			{
				"x": -0.370386631,
				"y": -0.1334975112,
				"z": 0.679488264,
				"element": "H" 
			},
			{
				"x": -1.5187454116,
				"y": -2.3359447546,
				"z": 0.9199925207,
				"element": "H" 
			}
		],
		 "valence_orbital": [ 
			{
				"type": "occ",
				"energy": -0.28721,
				"method": "rhf"
			},
			{
				"type": "occ",
				"energy": -0.2783,
				"method": "rhf"
			},
			{
				"type": "occ",
				"energy": -0.27296,
				"method": "rhf"
			},
			{
				"type": "occ",
				"energy": -0.2487,
				"method": "rhf"
			},
			{
				"type": "occ",
				"energy": -0.224,
				"method": "rhf"
			},
			{
				"type": "unocc",
				"energy": -0.095,
				"method": "rhf"
			},
			{
				"type": "unocc",
				"energy": -0.04975,
				"method": "rhf"
			},
			{
				"type": "unocc",
				"energy": -0.02654,
				"method": "rhf"
			},
			{
				"type": "unocc",
				"energy": -0.02422,
				"method": "rhf"
			},
			{
				"type": "unocc",
				"energy": -0.01563,
				"method": "rhf"
			}
		],
		"cosmo_sigma_profile": { 
			"-0.025": 0.0,
			"-0.024": 0.0,
			"-0.023": 0.0,
			"-0.022": 0.0,
			"-0.021": 0.0,
			"-0.02": 0.0,
			"-0.019": 0.0,
			"-0.018": 0.0,
			"-0.017": 0.0,
			"-0.016": 0.0,
			"-0.015": 0.0,
			"-0.014": 0.0,
			"-0.013": 0.0,
			"-0.012": 0.0,
			"-0.011": 0.0,
			"-0.01": 2.41046646339,
			"-0.009": 5.24907259636,
			"-0.008": 8.1361955399,
			"-0.007": 13.6632055532,
			"-0.006": 14.3212076732,
			"-0.005": 15.4472839729,
			"-0.004": 13.8090338845,
			"-0.003": 17.1415130995,
			"-0.002": 21.5339057313,
			"-0.001": 29.1811169187,
			"0.0": 38.7074075537,
			"0.001": 46.5103344514,
			"0.002": 45.2821929007,
			"0.003": 35.1746616685,
			"0.004": 23.4468607636,
			"0.005": 8.91580017494,
			"0.006": 2.78317294212,
			"0.007": 2.56388860352,
			"0.008": 2.81903874486,
			"0.009": 3.39284927817,
			"0.01": 2.77313991182,
			"0.011": 2.79601203658,
			"0.012": 2.2261357304,
			"0.013": 1.0855667627,
			"0.014": 0.0,
			"0.015": 0.0,
			"0.016": 0.0,
			"0.017": 0.0,
			"0.018": 0.0,
			"0.019": 0.0,
			"0.02": 0.0,
			"0.021": 0.0,
			"0.022": 0.0,
			"0.023": 0.0,
			"0.024": 0.0,
			"0.025": 0.0
		}
	}
}
