{
	 "smiles": "CC1OC2=C(NC1=O)C=C(Br)C(C)=C2", 
	 "Tm": 482.15, 
	 "num_atms": 24, 
	 "gaussian": { 
		 "optdone": 1, 
		 "sigma_profile": "yes", 
		 "theory": "DFT", 
		 "functional": "B3LYP", 
		 "basiset": "6-31G**", 
		 "properties": { 
			 "R2extent": 6395.3962, 
			 "electric_dipole_moment_norm": 1.71298974603, 
			 "electric_quadrupole_moment_norm": 7.72198533345, 
			 "total_energy": -3163.71529317, 
			 "HOMO_LUMO_gap": 0.1932, 
			 "cosmo_polarized_energy": -11.32, 
			 "cosmo_cavitation_energy": 29.76, 
			 "cosmo_dispersion_energy": -22.12, 
			 "cosmo_repulsion_energy": 1.74, 
			 "cosmo_total_nonelectrostatic_energy": 9.38, 
			 "SMD_solvation_energy": 4.68 
		},
		"coords": [
			{
				"x": 1.8653653542,
				"y": 1.1710324518,
				"z": 0.6317170069,
				"element": "C" 
			},
			{
				"x": 1.4299722247,
				"y": 1.0722724342,
				"z": -0.8328174991,
				"element": "C" 
			},
			{
				"x": 0.0141937209,
				"y": 0.8268406311,
				"z": -0.9427777299,
				"element": "O" 
			},
			{
				"x": -0.3936349206,
				"y": -0.4703082351,
				"z": -0.7950841612,
				"element": "C" 
			},
			{
				"x": 0.4490064249,
				"y": -1.5270445294,
				"z": -1.1697117456,
				"element": "C" 
			},
			{
				"x": 1.7214931486,
				"y": -1.2092239148,
				"z": -1.6691111223,
				"element": "N" 
			},
			{
				"x": 2.2798586144,
				"y": 0.041213282,
				"z": -1.5823642015,
				"element": "C" 
			},
			{
				"x": 3.3877410752,
				"y": 0.308333715,
				"z": -2.0174659328,
				"element": "O" 
			},
			{
				"x": -0.0081518373,
				"y": -2.8390811763,
				"z": -1.060079261,
				"element": "C" 
			},
			{
				"x": -1.3006950672,
				"y": -3.0811213572,
				"z": -0.5975381239,
				"element": "C" 
			},
			{
				"x": -1.8723426361,
				"y": -4.9061212963,
				"z": -0.4810084882,
				"element": "Br" 
			},
			{
				"x": -2.1692782118,
				"y": -2.0458682857,
				"z": -0.2246701372,
				"element": "C" 
			},
			{
				"x": -3.5678337241,
				"y": -2.2976910838,
				"z": 0.2768652809,
				"element": "C" 
			},
			{
				"x": -1.6766919681,
				"y": -0.7370200871,
				"z": -0.3292962957,
				"element": "C" 
			},
			{
				"x": 1.2856546517,
				"y": 1.9478757501,
				"z": 1.1370563691,
				"element": "H" 
			},
			{
				"x": 1.7069899017,
				"y": 0.2227214053,
				"z": 1.1545775993,
				"element": "H" 
			},
			{
				"x": 2.9269820585,
				"y": 1.426314698,
				"z": 0.6857506027,
				"element": "H" 
			},
			{
				"x": 1.5888660089,
				"y": 2.0280627583,
				"z": -1.3361801947,
				"element": "H" 
			},
			{
				"x": 2.2895654794,
				"y": -1.9236275502,
				"z": -2.1064896059,
				"element": "H" 
			},
			{
				"x": 0.6341229096,
				"y": -3.6667802311,
				"z": -1.3409515589,
				"element": "H" 
			},
			{
				"x": -4.0710569199,
				"y": -1.355782016,
				"z": 0.5079461713,
				"element": "H" 
			},
			{
				"x": -4.1664780913,
				"y": -2.8335766951,
				"z": -0.4674209965,
				"element": "H" 
			},
			{
				"x": -3.5619652053,
				"y": -2.9154020777,
				"z": 1.1813229978,
				"element": "H" 
			},
			{
				"x": -2.304382991,
				"y": 0.1045814101,
				"z": -0.0541689735,
				"element": "H" 
			}
		],
		 "valence_orbital": [ 
			{
				"type": "occ",
				"energy": -0.29144,
				"method": "rhf"
			},
			{
				"type": "occ",
				"energy": -0.28985,
				"method": "rhf"
			},
			{
				"type": "occ",
				"energy": -0.26372,
				"method": "rhf"
			},
			{
				"type": "occ",
				"energy": -0.24562,
				"method": "rhf"
			},
			{
				"type": "occ",
				"energy": -0.21651,
				"method": "rhf"
			},
			{
				"type": "unocc",
				"energy": -0.02331,
				"method": "rhf"
			},
			{
				"type": "unocc",
				"energy": -0.01467,
				"method": "rhf"
			},
			{
				"type": "unocc",
				"energy": 0.00472,
				"method": "rhf"
			},
			{
				"type": "unocc",
				"energy": 0.02379,
				"method": "rhf"
			},
			{
				"type": "unocc",
				"energy": 0.07214,
				"method": "rhf"
			}
		],
		"cosmo_sigma_profile": { 
			"-0.025": 0.0,
			"-0.024": 0.0,
			"-0.023": 0.0,
			"-0.022": 0.0,
			"-0.021": 0.0,
			"-0.02": 0.0,
			"-0.019": 0.0,
			"-0.018": 0.0,
			"-0.017": 0.0,
			"-0.016": 0.579367024473,
			"-0.015": 1.19152840277,
			"-0.014": 1.38018221128,
			"-0.013": 1.56535738573,
			"-0.012": 1.09411002174,
			"-0.011": 1.1254219564,
			"-0.01": 1.2480178871,
			"-0.009": 1.25802634298,
			"-0.008": 2.12013801875,
			"-0.007": 4.8727330747,
			"-0.006": 6.51847716145,
			"-0.005": 10.5490662723,
			"-0.004": 19.5926275505,
			"-0.003": 18.8379179288,
			"-0.002": 19.5501220995,
			"-0.001": 23.0072835604,
			"0.0": 23.4330581188,
			"0.001": 15.4469474496,
			"0.002": 18.1346374938,
			"0.003": 21.8878167589,
			"0.004": 14.0256027356,
			"0.005": 8.36783660814,
			"0.006": 3.1406994661,
			"0.007": 1.87595625087,
			"0.008": 1.72011155878,
			"0.009": 3.24687469334,
			"0.01": 1.91930007152,
			"0.011": 1.77479902673,
			"0.012": 4.52789889445,
			"0.013": 4.61945026001,
			"0.014": 0.64802273542,
			"0.015": 0.0,
			"0.016": 0.0,
			"0.017": 0.0,
			"0.018": 0.0,
			"0.019": 0.0,
			"0.02": 0.0,
			"0.021": 0.0,
			"0.022": 0.0,
			"0.023": 0.0,
			"0.024": 0.0,
			"0.025": 0.0
		}
	}
}
