{
	 "smiles": "CC(C)(C(O)=O)C1=CC=C(Cl)C=C1", 
	 "Tm": 400.15, 
	 "num_atms": 24, 
	 "gaussian": { 
		 "optdone": 1, 
		 "sigma_profile": "yes", 
		 "theory": "DFT", 
		 "functional": "B3LYP", 
		 "basiset": "6-31G**", 
		 "properties": { 
			 "R2extent": 3592.1704, 
			 "electric_dipole_moment_norm": 4.29884308855, 
			 "electric_quadrupole_moment_norm": 18.8858119013, 
			 "total_energy": -998.345599994, 
			 "HOMO_LUMO_gap": 0.2234, 
			 "cosmo_polarized_energy": -15.0, 
			 "cosmo_cavitation_energy": 28.67, 
			 "cosmo_dispersion_energy": -20.59, 
			 "cosmo_repulsion_energy": 1.62, 
			 "cosmo_total_nonelectrostatic_energy": 9.7, 
			 "SMD_solvation_energy": 5.65 
		},
		"coords": [
			{
				"x": 1.0879983887,
				"y": 2.146096204,
				"z": 0.5175282205,
				"element": "C" 
			},
			{
				"x": 0.6899037508,
				"y": 1.3981123048,
				"z": -0.7694470325,
				"element": "C" 
			},
			{
				"x": 0.2924980108,
				"y": 2.4376104294,
				"z": -1.8460948722,
				"element": "C" 
			},
			{
				"x": 1.9234771509,
				"y": 0.5474268637,
				"z": -1.1785785509,
				"element": "C" 
			},
			{
				"x": 2.2229342371,
				"y": 0.4702432205,
				"z": -2.5042170163,
				"element": "O" 
			},
			{
				"x": 2.5958847327,
				"y": -0.0546650037,
				"z": -0.3807682419,
				"element": "O" 
			},
			{
				"x": -0.4841557472,
				"y": 0.4202409032,
				"z": -0.5593103199,
				"element": "C" 
			},
			{
				"x": -0.8029835057,
				"y": -0.5138146644,
				"z": -1.5583175027,
				"element": "C" 
			},
			{
				"x": -1.8806660206,
				"y": -1.3861213625,
				"z": -1.4269368941,
				"element": "C" 
			},
			{
				"x": -2.6637521013,
				"y": -1.3283229621,
				"z": -0.2748695068,
				"element": "C" 
			},
			{
				"x": -4.0297605244,
				"y": -2.4189461262,
				"z": -0.0976373229,
				"element": "Cl" 
			},
			{
				"x": -2.3704265126,
				"y": -0.419488968,
				"z": 0.7376757087,
				"element": "C" 
			},
			{
				"x": -1.2833153786,
				"y": 0.4442106494,
				"z": 0.5896580006,
				"element": "C" 
			},
			{
				"x": 1.3755290608,
				"y": 1.4441821474,
				"z": 1.3014333912,
				"element": "H" 
			},
			{
				"x": 1.9454076627,
				"y": 2.7962527191,
				"z": 0.3200066332,
				"element": "H" 
			},
			{
				"x": 0.2693084491,
				"y": 2.7774852611,
				"z": 0.8737180296,
				"element": "H" 
			},
			{
				"x": -0.5334033307,
				"y": 3.050823049,
				"z": -1.4751407328,
				"element": "H" 
			},
			{
				"x": 1.1253722174,
				"y": 3.1096147384,
				"z": -2.0826397998,
				"element": "H" 
			},
			{
				"x": -0.0693123054,
				"y": 1.9731688352,
				"z": -2.7716216575,
				"element": "H" 
			},
			{
				"x": 1.643523121,
				"y": 1.0507888474,
				"z": -3.0160133434,
				"element": "H" 
			},
			{
				"x": -0.1909377918,
				"y": -0.5839661024,
				"z": -2.4529787392,
				"element": "H" 
			},
			{
				"x": -2.1075599266,
				"y": -2.1057704177,
				"z": -2.2056515696,
				"element": "H" 
			},
			{
				"x": -2.9798877312,
				"y": -0.3876235104,
				"z": 1.6340645312,
				"element": "H" 
			},
			{
				"x": -1.0678759059,
				"y": 1.1370629447,
				"z": 1.3944385874,
				"element": "H" 
			}
		],
		 "valence_orbital": [ 
			{
				"type": "occ",
				"energy": -0.31703,
				"method": "rhf"
			},
			{
				"type": "occ",
				"energy": -0.31508,
				"method": "rhf"
			},
			{
				"type": "occ",
				"energy": -0.27365,
				"method": "rhf"
			},
			{
				"type": "occ",
				"energy": -0.26974,
				"method": "rhf"
			},
			{
				"type": "occ",
				"energy": -0.24719,
				"method": "rhf"
			},
			{
				"type": "unocc",
				"energy": -0.02379,
				"method": "rhf"
			},
			{
				"type": "unocc",
				"energy": -0.0228,
				"method": "rhf"
			},
			{
				"type": "unocc",
				"energy": 0.01128,
				"method": "rhf"
			},
			{
				"type": "unocc",
				"energy": 0.02579,
				"method": "rhf"
			},
			{
				"type": "unocc",
				"energy": 0.05027,
				"method": "rhf"
			}
		],
		"cosmo_sigma_profile": { 
			"-0.025": 0.0,
			"-0.024": 0.0,
			"-0.023": 0.0,
			"-0.022": 0.0,
			"-0.021": 0.0,
			"-0.02": 0.0,
			"-0.019": 0.0,
			"-0.018": 0.0588144381982,
			"-0.017": 0.665352995599,
			"-0.016": 0.747911536656,
			"-0.015": 1.34003390264,
			"-0.014": 0.821888015916,
			"-0.013": 1.00988542887,
			"-0.012": 1.50760923407,
			"-0.011": 1.44623256588,
			"-0.01": 0.645116530524,
			"-0.009": 1.20293370211,
			"-0.008": 2.27088786864,
			"-0.007": 7.19883681123,
			"-0.006": 11.1740417548,
			"-0.005": 15.6132407004,
			"-0.004": 15.5076085702,
			"-0.003": 15.2484473943,
			"-0.002": 15.7122478171,
			"-0.001": 16.7833557369,
			"0.0": 16.4440879078,
			"0.001": 14.4957538124,
			"0.002": 15.5877513405,
			"0.003": 19.3613935472,
			"0.004": 17.7236679669,
			"0.005": 9.25298452338,
			"0.006": 2.22780167473,
			"0.007": 2.96751068429,
			"0.008": 2.72215325988,
			"0.009": 3.11772743497,
			"0.01": 4.8762678246,
			"0.011": 4.7366465731,
			"0.012": 5.26417983689,
			"0.013": 1.45942833335,
			"0.014": 0.0223536181956,
			"0.015": 0.0,
			"0.016": 0.0,
			"0.017": 0.0,
			"0.018": 0.0,
			"0.019": 0.0,
			"0.02": 0.0,
			"0.021": 0.0,
			"0.022": 0.0,
			"0.023": 0.0,
			"0.024": 0.0,
			"0.025": 0.0
		}
	}
}
