{
	 "smiles": "CN(C)CCN(C)CCN(C)C", 
	 "Tm": 291.15, 
	 "num_atms": 35, 
	 "gaussian": { 
		 "optdone": 1, 
		 "sigma_profile": "yes", 
		 "theory": "DFT", 
		 "functional": "B3LYP", 
		 "basiset": "6-31G**", 
		 "properties": { 
			 "R2extent": 4026.4048, 
			 "electric_dipole_moment_norm": 0.743806681874, 
			 "electric_quadrupole_moment_norm": 5.14415748593, 
			 "total_energy": -521.033351054, 
			 "HOMO_LUMO_gap": 0.25375, 
			 "cosmo_polarized_energy": -5.55, 
			 "cosmo_cavitation_energy": 34.43, 
			 "cosmo_dispersion_energy": -23.74, 
			 "cosmo_repulsion_energy": 1.9, 
			 "cosmo_total_nonelectrostatic_energy": 12.59, 
			 "SMD_solvation_energy": 1.48 
		},
		"coords": [
			{
				"x": -3.2261970709,
				"y": -0.0642813793,
				"z": -3.8848628961,
				"element": "C" 
			},
			{
				"x": -2.3293687062,
				"y": 0.6751430738,
				"z": -3.0050311667,
				"element": "N" 
			},
			{
				"x": -2.4678861611,
				"y": 2.1107163807,
				"z": -3.2179859136,
				"element": "C" 
			},
			{
				"x": -2.5308875356,
				"y": 0.2959569296,
				"z": -1.6027421535,
				"element": "C" 
			},
			{
				"x": -1.3903554978,
				"y": 0.670021439,
				"z": -0.642243493,
				"element": "C" 
			},
			{
				"x": -0.1998004492,
				"y": -0.1662914677,
				"z": -0.7868739571,
				"element": "N" 
			},
			{
				"x": 0.6538957089,
				"y": 0.2036142484,
				"z": -1.9118030578,
				"element": "C" 
			},
			{
				"x": 0.5321438541,
				"y": -0.3932416018,
				"z": 0.4622388476,
				"element": "C" 
			},
			{
				"x": 1.1965065211,
				"y": 0.8489839328,
				"z": 1.1115468999,
				"element": "C" 
			},
			{
				"x": 1.9307429608,
				"y": 0.6276462913,
				"z": 2.3587208688,
				"element": "N" 
			},
			{
				"x": 1.1054754095,
				"y": 0.2216372493,
				"z": 3.484653483,
				"element": "C" 
			},
			{
				"x": 3.1279257671,
				"y": -0.1857951908,
				"z": 2.2206662214,
				"element": "C" 
			},
			{
				"x": -4.2974294201,
				"y": 0.1389894001,
				"z": -3.6885298689,
				"element": "H" 
			},
			{
				"x": -3.0218818726,
				"y": 0.2005232649,
				"z": -4.9274581496,
				"element": "H" 
			},
			{
				"x": -3.058785867,
				"y": -1.1394123247,
				"z": -3.7685711334,
				"element": "H" 
			},
			{
				"x": -2.2684790728,
				"y": 2.3478143922,
				"z": -4.2678593717,
				"element": "H" 
			},
			{
				"x": -1.7447583011,
				"y": 2.6613571728,
				"z": -2.6109032455,
				"element": "H" 
			},
			{
				"x": -3.4795913591,
				"y": 2.4872791248,
				"z": -2.9677439384,
				"element": "H" 
			},
			{
				"x": -2.6369346511,
				"y": -0.7929274849,
				"z": -1.5619772839,
				"element": "H" 
			},
			{
				"x": -3.4738790943,
				"y": 0.7316663923,
				"z": -1.2106029684,
				"element": "H" 
			},
			{
				"x": -1.1663063282,
				"y": 1.750485105,
				"z": -0.7172553938,
				"element": "H" 
			},
			{
				"x": -1.7821936993,
				"y": 0.5156581352,
				"z": 0.3701204884,
				"element": "H" 
			},
			{
				"x": 1.4608735792,
				"y": -0.5308550296,
				"z": -2.0123528109,
				"element": "H" 
			},
			{
				"x": 0.0576515409,
				"y": 0.1988079567,
				"z": -2.8258460944,
				"element": "H" 
			},
			{
				"x": 1.1176253148,
				"y": 1.2038975595,
				"z": -1.8170228097,
				"element": "H" 
			},
			{
				"x": 1.3004034582,
				"y": -1.1487939932,
				"z": 0.2559684427,
				"element": "H" 
			},
			{
				"x": -0.1643896603,
				"y": -0.8470387885,
				"z": 1.1783809499,
				"element": "H" 
			},
			{
				"x": 0.4260086548,
				"y": 1.6039961662,
				"z": 1.3148837514,
				"element": "H" 
			},
			{
				"x": 1.8951585306,
				"y": 1.3015942491,
				"z": 0.3974719282,
				"element": "H" 
			},
			{
				"x": 1.6893439367,
				"y": 0.2972952037,
				"z": 4.4094690565,
				"element": "H" 
			},
			{
				"x": 0.2473533444,
				"y": 0.8964261745,
				"z": 3.5753272707,
				"element": "H" 
			},
			{
				"x": 0.7184979328,
				"y": -0.8131532636,
				"z": 3.4258297582,
				"element": "H" 
			},
			{
				"x": 2.938376172,
				"y": -1.2600508702,
				"z": 2.0363079431,
				"element": "H" 
			},
			{
				"x": 3.7240180085,
				"y": -0.1142641835,
				"z": 3.1379734802,
				"element": "H" 
			},
			{
				"x": 3.7386240525,
				"y": 0.1938957357,
				"z": 1.394506316,
				"element": "H" 
			}
		],
		 "valence_orbital": [ 
			{
				"type": "occ",
				"energy": -0.33379,
				"method": "rhf"
			},
			{
				"type": "occ",
				"energy": -0.32548,
				"method": "rhf"
			},
			{
				"type": "occ",
				"energy": -0.22298,
				"method": "rhf"
			},
			{
				"type": "occ",
				"energy": -0.20856,
				"method": "rhf"
			},
			{
				"type": "occ",
				"energy": -0.17689,
				"method": "rhf"
			},
			{
				"type": "unocc",
				"energy": 0.07686,
				"method": "rhf"
			},
			{
				"type": "unocc",
				"energy": 0.08844,
				"method": "rhf"
			},
			{
				"type": "unocc",
				"energy": 0.10746,
				"method": "rhf"
			},
			{
				"type": "unocc",
				"energy": 0.11342,
				"method": "rhf"
			},
			{
				"type": "unocc",
				"energy": 0.12264,
				"method": "rhf"
			}
		],
		"cosmo_sigma_profile": { 
			"-0.025": 0.0,
			"-0.024": 0.0,
			"-0.023": 0.0,
			"-0.022": 0.0,
			"-0.021": 0.0,
			"-0.02": 0.0,
			"-0.019": 0.0,
			"-0.018": 0.0,
			"-0.017": 0.0,
			"-0.016": 0.0,
			"-0.015": 0.0,
			"-0.014": 0.0,
			"-0.013": 0.0,
			"-0.012": 0.0,
			"-0.011": 0.0,
			"-0.01": 0.0,
			"-0.009": 0.0,
			"-0.008": 0.0,
			"-0.007": 0.0,
			"-0.006": 0.0,
			"-0.005": 0.0,
			"-0.004": 7.78547798229,
			"-0.003": 32.8645217296,
			"-0.002": 46.2565180073,
			"-0.001": 57.1899814271,
			"0.0": 55.4905127902,
			"0.001": 25.260061351,
			"0.002": 5.87564235654,
			"0.003": 5.01597063753,
			"0.004": 5.04111038824,
			"0.005": 2.95983264286,
			"0.006": 2.73170983459,
			"0.007": 3.24183020051,
			"0.008": 3.22833682904,
			"0.009": 3.06621473081,
			"0.01": 1.7463679831,
			"0.011": 1.31527047113,
			"0.012": 1.56771266272,
			"0.013": 0.829235559426,
			"0.014": 0.731190539583,
			"0.015": 1.12909240952,
			"0.016": 0.60626849128,
			"0.017": 0.150566600503,
			"0.018": 0.0,
			"0.019": 0.0,
			"0.02": 0.0,
			"0.021": 0.0,
			"0.022": 0.0,
			"0.023": 0.0,
			"0.024": 0.0,
			"0.025": 0.0
		}
	}
}
