{
	 "smiles": "CC1CC(C)(C)CC(C1)(OOC(C)(C)C)OOC(C)(C)C", 
	 "Tm": 253.15, 
	 "num_atms": 55, 
	 "gaussian": { 
		 "optdone": 1, 
		 "sigma_profile": "yes", 
		 "theory": "DFT", 
		 "functional": "B3LYP", 
		 "basiset": "6-31G**", 
		 "properties": { 
			 "R2extent": 7354.1162, 
			 "electric_dipole_moment_norm": 1.09331490889, 
			 "electric_quadrupole_moment_norm": 5.99649083965, 
			 "total_energy": -969.072024577, 
			 "HOMO_LUMO_gap": 0.24417, 
			 "cosmo_polarized_energy": -7.1, 
			 "cosmo_cavitation_energy": 51.73, 
			 "cosmo_dispersion_energy": -31.86, 
			 "cosmo_repulsion_energy": 2.48, 
			 "cosmo_total_nonelectrostatic_energy": 22.34, 
			 "SMD_solvation_energy": 8.43 
		},
		"coords": [
			{
				"x": 1.5807166995,
				"y": -4.2574721482,
				"z": -0.7188011392,
				"element": "C" 
			},
			{
				"x": 1.4612467526,
				"y": -2.7303884463,
				"z": -0.7978894437,
				"element": "C" 
			},
			{
				"x": 2.8410889459,
				"y": -2.056007638,
				"z": -0.7041723569,
				"element": "C" 
			},
			{
				"x": 2.8068635595,
				"y": -0.5097826707,
				"z": -0.7837441084,
				"element": "C" 
			},
			{
				"x": 2.4823714098,
				"y": -0.0458328435,
				"z": -2.2194072624,
				"element": "C" 
			},
			{
				"x": 4.1947218144,
				"y": 0.0437314425,
				"z": -0.404595902,
				"element": "C" 
			},
			{
				"x": 1.7749880123,
				"y": 0.0374156816,
				"z": 0.2373716932,
				"element": "C" 
			},
			{
				"x": 0.4117999284,
				"y": -0.6720642189,
				"z": 0.2681698316,
				"element": "C" 
			},
			{
				"x": 0.5428506062,
				"y": -2.1951367205,
				"z": 0.3124788345,
				"element": "C" 
			},
			{
				"x": -0.2709376196,
				"y": -0.1900229718,
				"z": -0.8673997645,
				"element": "O" 
			},
			{
				"x": -1.4728683179,
				"y": -1.0023986608,
				"z": -1.1187419531,
				"element": "O" 
			},
			{
				"x": -2.5458861382,
				"y": -0.1153820771,
				"z": -1.5126737596,
				"element": "C" 
			},
			{
				"x": -2.9239383365,
				"y": 0.8276620549,
				"z": -0.3668420216,
				"element": "C" 
			},
			{
				"x": -3.6719138869,
				"y": -1.1181820933,
				"z": -1.7999204846,
				"element": "C" 
			},
			{
				"x": -2.1577088954,
				"y": 0.6537089052,
				"z": -2.7816234457,
				"element": "C" 
			},
			{
				"x": -0.388623624,
				"y": -0.1749697139,
				"z": 1.3669155189,
				"element": "O" 
			},
			{
				"x": 0.2280810632,
				"y": -0.6496207017,
				"z": 2.6167806515,
				"element": "O" 
			},
			{
				"x": -0.1830225322,
				"y": 0.2400568126,
				"z": 3.6780619519,
				"element": "C" 
			},
			{
				"x": 0.4982751859,
				"y": -0.3974228873,
				"z": 4.8962744458,
				"element": "C" 
			},
			{
				"x": 0.3390437349,
				"y": 1.6602638453,
				"z": 3.4317942347,
				"element": "C" 
			},
			{
				"x": -1.7094406072,
				"y": 0.214742879,
				"z": 3.8268662911,
				"element": "C" 
			},
			{
				"x": 0.5991882544,
				"y": -4.7371098139,
				"z": -0.7997229713,
				"element": "H" 
			},
			{
				"x": 2.0258328487,
				"y": -4.5691523252,
				"z": 0.2341724117,
				"element": "H" 
			},
			{
				"x": 2.212496095,
				"y": -4.6482075721,
				"z": -1.524183037,
				"element": "H" 
			},
			{
				"x": 1.0067793504,
				"y": -2.4782486374,
				"z": -1.7645544005,
				"element": "H" 
			},
			{
				"x": 3.3006109818,
				"y": -2.3510739657,
				"z": 0.2514818724,
				"element": "H" 
			},
			{
				"x": 3.500906412,
				"y": -2.44100322,
				"z": -1.4932727242,
				"element": "H" 
			},
			{
				"x": 3.2430778603,
				"y": -0.4127705171,
				"z": -2.9184000736,
				"element": "H" 
			},
			{
				"x": 2.4785662805,
				"y": 1.0487547432,
				"z": -2.2777418247,
				"element": "H" 
			},
			{
				"x": 1.5051404689,
				"y": -0.3934997022,
				"z": -2.5576097691,
				"element": "H" 
			},
			{
				"x": 4.9619537841,
				"y": -0.3162447423,
				"z": -1.0996068953,
				"element": "H" 
			},
			{
				"x": 4.4859064095,
				"y": -0.2654299229,
				"z": 0.6057850087,
				"element": "H" 
			},
			{
				"x": 4.2054424614,
				"y": 1.139468632,
				"z": -0.4367396646,
				"element": "H" 
			},
			{
				"x": 2.1741859671,
				"y": -0.0713872589,
				"z": 1.2508834952,
				"element": "H" 
			},
			{
				"x": 1.6013492331,
				"y": 1.1073320515,
				"z": 0.073841042,
				"element": "H" 
			},
			{
				"x": 0.9564442288,
				"y": -2.4595909414,
				"z": 1.291056912,
				"element": "H" 
			},
			{
				"x": -0.4554232796,
				"y": -2.6331529288,
				"z": 0.2506493199,
				"element": "H" 
			},
			{
				"x": -2.08792913,
				"y": 1.4831054223,
				"z": -0.116108921,
				"element": "H" 
			},
			{
				"x": -3.1868522109,
				"y": 0.2536239253,
				"z": 0.5255297338,
				"element": "H" 
			},
			{
				"x": -3.7806599486,
				"y": 1.4466364351,
				"z": -0.6531388042,
				"element": "H" 
			},
			{
				"x": -4.5693495126,
				"y": -0.5822092876,
				"z": -2.1227886794,
				"element": "H" 
			},
			{
				"x": -3.9158791904,
				"y": -1.6936310142,
				"z": -0.9024127825,
				"element": "H" 
			},
			{
				"x": -3.3789400345,
				"y": -1.8138201061,
				"z": -2.5913393265,
				"element": "H" 
			},
			{
				"x": -1.3211029688,
				"y": 1.328098178,
				"z": -2.5860411046,
				"element": "H" 
			},
			{
				"x": -3.0036940398,
				"y": 1.2494936918,
				"z": -3.1395449761,
				"element": "H" 
			},
			{
				"x": -1.8638881428,
				"y": -0.0419892556,
				"z": -3.5733771133,
				"element": "H" 
			},
			{
				"x": 0.1466230516,
				"y": -1.422432959,
				"z": 5.0437320711,
				"element": "H" 
			},
			{
				"x": 0.2674904041,
				"y": 0.1819530454,
				"z": 5.7951003457,
				"element": "H" 
			},
			{
				"x": 1.584282861,
				"y": -0.417390713,
				"z": 4.7667774075,
				"element": "H" 
			},
			{
				"x": 0.0619363026,
				"y": 2.3174126304,
				"z": 4.262495339,
				"element": "H" 
			},
			{
				"x": -0.0819696136,
				"y": 2.069229499,
				"z": 2.5112329898,
				"element": "H" 
			},
			{
				"x": 1.429856964,
				"y": 1.6588413674,
				"z": 3.3442263773,
				"element": "H" 
			},
			{
				"x": -2.017285868,
				"y": 0.7996454879,
				"z": 4.699808547,
				"element": "H" 
			},
			{
				"x": -2.1925605649,
				"y": 0.6354045745,
				"z": 2.9424849514,
				"element": "H" 
			},
			{
				"x": -2.0597434694,
				"y": -0.8135526297,
				"z": 3.955823432,
				"element": "H" 
			}
		],
		 "valence_orbital": [ 
			{
				"type": "occ",
				"energy": -0.29992,
				"method": "rhf"
			},
			{
				"type": "occ",
				"energy": -0.29283,
				"method": "rhf"
			},
			{
				"type": "occ",
				"energy": -0.2833,
				"method": "rhf"
			},
			{
				"type": "occ",
				"energy": -0.2436,
				"method": "rhf"
			},
			{
				"type": "occ",
				"energy": -0.22518,
				"method": "rhf"
			},
			{
				"type": "unocc",
				"energy": 0.01899,
				"method": "rhf"
			},
			{
				"type": "unocc",
				"energy": 0.02881,
				"method": "rhf"
			},
			{
				"type": "unocc",
				"energy": 0.07769,
				"method": "rhf"
			},
			{
				"type": "unocc",
				"energy": 0.08909,
				"method": "rhf"
			},
			{
				"type": "unocc",
				"energy": 0.09714,
				"method": "rhf"
			}
		],
		"cosmo_sigma_profile": { 
			"-0.025": 0.0,
			"-0.024": 0.0,
			"-0.023": 0.0,
			"-0.022": 0.0,
			"-0.021": 0.0,
			"-0.02": 0.0,
			"-0.019": 0.0,
			"-0.018": 0.0,
			"-0.017": 0.0,
			"-0.016": 0.0,
			"-0.015": 0.0,
			"-0.014": 0.0,
			"-0.013": 0.0,
			"-0.012": 0.0,
			"-0.011": 0.0,
			"-0.01": 0.0,
			"-0.009": 0.0,
			"-0.008": 0.0,
			"-0.007": 0.0,
			"-0.006": 0.0,
			"-0.005": 0.841897577246,
			"-0.004": 17.1587895198,
			"-0.003": 37.0656495664,
			"-0.002": 68.5516258504,
			"-0.001": 64.9204190369,
			"0.0": 67.3711048775,
			"0.001": 62.0509096842,
			"0.002": 28.3568687556,
			"0.003": 9.91506789494,
			"0.004": 9.28670715386,
			"0.005": 9.72921548637,
			"0.006": 8.53460476922,
			"0.007": 3.66801769027,
			"0.008": 3.30711237762,
			"0.009": 2.96573362252,
			"0.01": 1.6745455579,
			"0.011": 0.680984534278,
			"0.012": 0.0,
			"0.013": 0.0,
			"0.014": 0.0,
			"0.015": 0.0,
			"0.016": 0.0,
			"0.017": 0.0,
			"0.018": 0.0,
			"0.019": 0.0,
			"0.02": 0.0,
			"0.021": 0.0,
			"0.022": 0.0,
			"0.023": 0.0,
			"0.024": 0.0,
			"0.025": 0.0
		}
	}
}
