{
	 "smiles": "[O-][N+](=O)C1=C(Cl)C(Cl)=C(Cl)C(Cl)=C1Cl", 
	 "Tm": 416.15, 
	 "num_atms": 14, 
	 "gaussian": { 
		 "optdone": 1, 
		 "sigma_profile": "yes", 
		 "theory": "DFT", 
		 "functional": "B3LYP", 
		 "basiset": "6-31G**", 
		 "properties": { 
			 "R2extent": 8278.7224, 
			 "electric_dipole_moment_norm": 2.38538601069, 
			 "electric_quadrupole_moment_norm": 10.3873596202, 
			 "total_energy": -2734.64982583, 
			 "HOMO_LUMO_gap": 0.18253, 
			 "cosmo_polarized_energy": -5.05, 
			 "cosmo_cavitation_energy": 28.72, 
			 "cosmo_dispersion_energy": -21.14, 
			 "cosmo_repulsion_energy": 1.65, 
			 "cosmo_total_nonelectrostatic_energy": 9.23, 
			 "SMD_solvation_energy": 6.4 
		},
		"coords": [
			{
				"x": 1.0736734854,
				"y": 0.5546785684,
				"z": -3.1119239568,
				"element": "O" 
			},
			{
				"x": 1.8710871054,
				"y": 1.3516713283,
				"z": -2.6381449954,
				"element": "N" 
			},
			{
				"x": 2.9374487699,
				"y": 1.7064074915,
				"z": -3.1203990842,
				"element": "O" 
			},
			{
				"x": 1.5049751302,
				"y": 1.9537098561,
				"z": -1.3355454673,
				"element": "C" 
			},
			{
				"x": 0.7729214473,
				"y": 3.139095675,
				"z": -1.3212352749,
				"element": "C" 
			},
			{
				"x": 0.3120814109,
				"y": 3.8746728897,
				"z": -2.8207712627,
				"element": "Cl" 
			},
			{
				"x": 0.4245301651,
				"y": 3.7119009666,
				"z": -0.08799386,
				"element": "C" 
			},
			{
				"x": -0.4845065408,
				"y": 5.1838804369,
				"z": -0.0473489571,
				"element": "Cl" 
			},
			{
				"x": 0.8182285037,
				"y": 3.0829653559,
				"z": 1.1078267351,
				"element": "C" 
			},
			{
				"x": 0.3901743732,
				"y": 3.786842072,
				"z": 2.6308015754,
				"element": "Cl" 
			},
			{
				"x": 1.5574482246,
				"y": 1.8858894682,
				"z": 1.074353486,
				"element": "C" 
			},
			{
				"x": 2.0418118255,
				"y": 1.1121813347,
				"z": 2.5445600874,
				"element": "Cl" 
			},
			{
				"x": 1.9030825342,
				"y": 1.3174653217,
				"z": -0.1616845168,
				"element": "C" 
			},
			{
				"x": 2.8119435653,
				"y": -0.154660765,
				"z": -0.2558945088,
				"element": "Cl" 
			}
		],
		 "valence_orbital": [ 
			{
				"type": "occ",
				"energy": -0.33033,
				"method": "rhf"
			},
			{
				"type": "occ",
				"energy": -0.32536,
				"method": "rhf"
			},
			{
				"type": "occ",
				"energy": -0.32531,
				"method": "rhf"
			},
			{
				"type": "occ",
				"energy": -0.28267,
				"method": "rhf"
			},
			{
				"type": "occ",
				"energy": -0.27923,
				"method": "rhf"
			},
			{
				"type": "unocc",
				"energy": -0.0967,
				"method": "rhf"
			},
			{
				"type": "unocc",
				"energy": -0.07346,
				"method": "rhf"
			},
			{
				"type": "unocc",
				"energy": -0.07229,
				"method": "rhf"
			},
			{
				"type": "unocc",
				"energy": -0.06649,
				"method": "rhf"
			},
			{
				"type": "unocc",
				"energy": -0.00647,
				"method": "rhf"
			}
		],
		"cosmo_sigma_profile": { 
			"-0.025": 0.0,
			"-0.024": 0.0,
			"-0.023": 0.0,
			"-0.022": 0.0,
			"-0.021": 0.0,
			"-0.02": 0.0,
			"-0.019": 0.0,
			"-0.018": 0.0,
			"-0.017": 0.0,
			"-0.016": 0.0,
			"-0.015": 0.0,
			"-0.014": 0.0,
			"-0.013": 0.0,
			"-0.012": 0.0,
			"-0.011": 0.0,
			"-0.01": 0.0,
			"-0.009": 0.0,
			"-0.008": 0.0,
			"-0.007": 0.280099921846,
			"-0.006": 2.70065357939,
			"-0.005": 11.2391763087,
			"-0.004": 28.8341944133,
			"-0.003": 20.6224254021,
			"-0.002": 18.4383129744,
			"-0.001": 23.4561261578,
			"0.0": 23.795486913,
			"0.001": 32.2456424551,
			"0.002": 40.0644095574,
			"0.003": 13.4971612955,
			"0.004": 3.66499550212,
			"0.005": 7.86822125478,
			"0.006": 10.1230939669,
			"0.007": 5.05771464916,
			"0.008": 1.42158025957,
			"0.009": 0.0,
			"0.01": 0.0,
			"0.011": 0.0,
			"0.012": 0.0,
			"0.013": 0.0,
			"0.014": 0.0,
			"0.015": 0.0,
			"0.016": 0.0,
			"0.017": 0.0,
			"0.018": 0.0,
			"0.019": 0.0,
			"0.02": 0.0,
			"0.021": 0.0,
			"0.022": 0.0,
			"0.023": 0.0,
			"0.024": 0.0,
			"0.025": 0.0
		}
	}
}
