{
	 "smiles": "CN1C=C(C)C2=CC=CC=C12", 
	 "Tm": 415.15, 
	 "num_atms": 22, 
	 "gaussian": { 
		 "optdone": 1, 
		 "sigma_profile": "yes", 
		 "theory": "DFT", 
		 "functional": "B3LYP", 
		 "basiset": "6-31G**", 
		 "properties": { 
			 "R2extent": 2182.5167, 
			 "electric_dipole_moment_norm": 2.24399414215, 
			 "electric_quadrupole_moment_norm": 11.147067688, 
			 "total_energy": -442.45472637, 
			 "HOMO_LUMO_gap": 0.18824, 
			 "cosmo_polarized_energy": -6.26, 
			 "cosmo_cavitation_energy": 24.86, 
			 "cosmo_dispersion_energy": -18.25, 
			 "cosmo_repulsion_energy": 1.45, 
			 "cosmo_total_nonelectrostatic_energy": 8.05, 
			 "SMD_solvation_energy": 4.37 
		},
		"coords": [
			{
				"x": -3.2447433979,
				"y": -1.2065091236,
				"z": -0.0394613646,
				"element": "C" 
			},
			{
				"x": -2.4205774556,
				"y": -0.0309046419,
				"z": -0.222318081,
				"element": "N" 
			},
			{
				"x": -2.8514110758,
				"y": 1.2868770465,
				"z": -0.1821401812,
				"element": "C" 
			},
			{
				"x": -1.8068656096,
				"y": 2.1499097723,
				"z": -0.3957651445,
				"element": "C" 
			},
			{
				"x": -1.8634103655,
				"y": 3.6472205111,
				"z": -0.4284538456,
				"element": "C" 
			},
			{
				"x": -0.6409046065,
				"y": 1.3233427666,
				"z": -0.5829422411,
				"element": "C" 
			},
			{
				"x": 0.7145411293,
				"y": 1.5935349504,
				"z": -0.8357746012,
				"element": "C" 
			},
			{
				"x": 1.6034523978,
				"y": 0.5327048239,
				"z": -0.9661461318,
				"element": "C" 
			},
			{
				"x": 1.1649630726,
				"y": -0.8018789522,
				"z": -0.8486796607,
				"element": "C" 
			},
			{
				"x": -0.1701252823,
				"y": -1.1032644983,
				"z": -0.598621965,
				"element": "C" 
			},
			{
				"x": -1.0617205028,
				"y": -0.0321420325,
				"z": -0.4680257374,
				"element": "C" 
			},
			{
				"x": -4.2757912875,
				"y": -0.8950950461,
				"z": 0.1379951744,
				"element": "H" 
			},
			{
				"x": -2.9080639553,
				"y": -1.7963866386,
				"z": 0.8210516311,
				"element": "H" 
			},
			{
				"x": -3.2245312222,
				"y": -1.8467775161,
				"z": -0.9290899089,
				"element": "H" 
			},
			{
				"x": -3.895155574,
				"y": 1.5067680148,
				"z": 0.0003098858,
				"element": "H" 
			},
			{
				"x": -1.2187246099,
				"y": 4.0949373248,
				"z": 0.3381639742,
				"element": "H" 
			},
			{
				"x": -2.8815952427,
				"y": 4.0085293709,
				"z": -0.2547018042,
				"element": "H" 
			},
			{
				"x": -1.5322494845,
				"y": 4.0452253844,
				"z": -1.3957685925,
				"element": "H" 
			},
			{
				"x": 1.0634798016,
				"y": 2.6185796178,
				"z": -0.9282086077,
				"element": "H" 
			},
			{
				"x": 2.6533534105,
				"y": 0.7313372263,
				"z": -1.1616644383,
				"element": "H" 
			},
			{
				"x": 1.8822622275,
				"y": -1.610624845,
				"z": -0.9552455932,
				"element": "H" 
			},
			{
				"x": -0.5026823672,
				"y": -2.1332835152,
				"z": -0.5090127666,
				"element": "H" 
			}
		],
		 "valence_orbital": [ 
			{
				"type": "occ",
				"energy": -0.32199,
				"method": "rhf"
			},
			{
				"type": "occ",
				"energy": -0.31658,
				"method": "rhf"
			},
			{
				"type": "occ",
				"energy": -0.25857,
				"method": "rhf"
			},
			{
				"type": "occ",
				"energy": -0.21091,
				"method": "rhf"
			},
			{
				"type": "occ",
				"energy": -0.18884,
				"method": "rhf"
			},
			{
				"type": "unocc",
				"energy": -0.0006,
				"method": "rhf"
			},
			{
				"type": "unocc",
				"energy": 0.03349,
				"method": "rhf"
			},
			{
				"type": "unocc",
				"energy": 0.07934,
				"method": "rhf"
			},
			{
				"type": "unocc",
				"energy": 0.09114,
				"method": "rhf"
			},
			{
				"type": "unocc",
				"energy": 0.10796,
				"method": "rhf"
			}
		],
		"cosmo_sigma_profile": { 
			"-0.025": 0.0,
			"-0.024": 0.0,
			"-0.023": 0.0,
			"-0.022": 0.0,
			"-0.021": 0.0,
			"-0.02": 0.0,
			"-0.019": 0.0,
			"-0.018": 0.0,
			"-0.017": 0.0,
			"-0.016": 0.0,
			"-0.015": 0.0,
			"-0.014": 0.0,
			"-0.013": 0.0,
			"-0.012": 0.0,
			"-0.011": 0.0,
			"-0.01": 0.0,
			"-0.009": 0.0,
			"-0.008": 0.792065622532,
			"-0.007": 3.60375885298,
			"-0.006": 4.63934511519,
			"-0.005": 12.5662447456,
			"-0.004": 20.0409546651,
			"-0.003": 23.2102754549,
			"-0.002": 22.3544698731,
			"-0.001": 16.9072339197,
			"0.0": 14.9773669507,
			"0.001": 12.6369906257,
			"0.002": 8.64069392618,
			"0.003": 9.71323309854,
			"0.004": 8.48148099927,
			"0.005": 11.4990268629,
			"0.006": 12.8501530144,
			"0.007": 11.1678580022,
			"0.008": 3.27980906788,
			"0.009": 0.0,
			"0.01": 0.0,
			"0.011": 0.0,
			"0.012": 0.0,
			"0.013": 0.0,
			"0.014": 0.0,
			"0.015": 0.0,
			"0.016": 0.0,
			"0.017": 0.0,
			"0.018": 0.0,
			"0.019": 0.0,
			"0.02": 0.0,
			"0.021": 0.0,
			"0.022": 0.0,
			"0.023": 0.0,
			"0.024": 0.0,
			"0.025": 0.0
		}
	}
}
