{
	 "smiles": "NNC1=NC=C(C=C1)S(=O)(=O)N1CCCC1", 
	 "Tm": 438.15, 
	 "num_atms": 30, 
	 "gaussian": { 
		 "optdone": 1, 
		 "sigma_profile": "yes", 
		 "theory": "DFT", 
		 "functional": "B3LYP", 
		 "basiset": "6-31G**", 
		 "properties": { 
			 "R2extent": 4983.6101, 
			 "electric_dipole_moment_norm": 4.51896142714, 
			 "electric_quadrupole_moment_norm": 21.5147520753, 
			 "total_energy": -1118.93298276, 
			 "HOMO_LUMO_gap": 0.19124, 
			 "cosmo_polarized_energy": -18.17, 
			 "cosmo_cavitation_energy": 34.07, 
			 "cosmo_dispersion_energy": -25.04, 
			 "cosmo_repulsion_energy": 1.93, 
			 "cosmo_total_nonelectrostatic_energy": 10.97, 
			 "SMD_solvation_energy": 3.18 
		},
		"coords": [
			{
				"x": 2.9378554849,
				"y": 3.198697497,
				"z": -2.802400348,
				"element": "N" 
			},
			{
				"x": 2.3520810934,
				"y": 3.4798581337,
				"z": -1.5542169843,
				"element": "N" 
			},
			{
				"x": 1.8349201526,
				"y": 2.5042173397,
				"z": -0.7397945501,
				"element": "C" 
			},
			{
				"x": 2.0873195991,
				"y": 1.2285827935,
				"z": -1.0875045867,
				"element": "N" 
			},
			{
				"x": 1.6155529188,
				"y": 0.262401027,
				"z": -0.296000284,
				"element": "C" 
			},
			{
				"x": 0.8717134117,
				"y": 0.5106165911,
				"z": 0.8563604802,
				"element": "C" 
			},
			{
				"x": 0.6110559826,
				"y": 1.8410245697,
				"z": 1.2185910449,
				"element": "C" 
			},
			{
				"x": 1.0921040089,
				"y": 2.8548264132,
				"z": 0.4140748155,
				"element": "C" 
			},
			{
				"x": 0.3073630418,
				"y": -0.8369397089,
				"z": 1.8763401805,
				"element": "S" 
			},
			{
				"x": -0.2879609581,
				"y": -0.2312613053,
				"z": 3.0786682595,
				"element": "O" 
			},
			{
				"x": 1.3790648591,
				"y": -1.8315661558,
				"z": 1.9957604552,
				"element": "O" 
			},
			{
				"x": -0.8759362684,
				"y": -1.5507665525,
				"z": 0.9142914346,
				"element": "N" 
			},
			{
				"x": -2.2056132369,
				"y": -0.897268478,
				"z": 0.8783353004,
				"element": "C" 
			},
			{
				"x": -3.116418518,
				"y": -2.0092154134,
				"z": 0.3468895056,
				"element": "C" 
			},
			{
				"x": -2.5334168516,
				"y": -3.2680789895,
				"z": 1.0087546444,
				"element": "C" 
			},
			{
				"x": -1.0146078001,
				"y": -3.0376931863,
				"z": 0.9534925291,
				"element": "C" 
			},
			{
				"x": 3.8618079914,
				"y": 2.8063999224,
				"z": -2.6256288692,
				"element": "H" 
			},
			{
				"x": 2.4061788679,
				"y": 2.4436449778,
				"z": -3.2373057158,
				"element": "H" 
			},
			{
				"x": 1.9860533308,
				"y": 4.4163563992,
				"z": -1.4742339908,
				"element": "H" 
			},
			{
				"x": 1.8432510469,
				"y": -0.7591530633,
				"z": -0.5912271731,
				"element": "H" 
			},
			{
				"x": 0.0478491681,
				"y": 2.0504181113,
				"z": 2.121690277,
				"element": "H" 
			},
			{
				"x": 0.9180613843,
				"y": 3.8978800574,
				"z": 0.6607768884,
				"element": "H" 
			},
			{
				"x": -2.5146370224,
				"y": -0.5794253613,
				"z": 1.8821845088,
				"element": "H" 
			},
			{
				"x": -2.1775001227,
				"y": -0.0160745634,
				"z": 0.229188681,
				"element": "H" 
			},
			{
				"x": -4.1666323816,
				"y": -1.8341583039,
				"z": 0.5959678415,
				"element": "H" 
			},
			{
				"x": -3.0329740045,
				"y": -2.0768293085,
				"z": -0.743648259,
				"element": "H" 
			},
			{
				"x": -2.8280962782,
				"y": -4.1951034818,
				"z": 0.5091607119,
				"element": "H" 
			},
			{
				"x": -2.865832279,
				"y": -3.3280618875,
				"z": 2.0511082084,
				"element": "H" 
			},
			{
				"x": -0.5751140407,
				"y": -3.4565575356,
				"z": 0.0412511088,
				"element": "H" 
			},
			{
				"x": -0.48309258,
				"y": -3.4676705378,
				"z": 1.8040738857,
				"element": "H" 
			}
		],
		 "valence_orbital": [ 
			{
				"type": "occ",
				"energy": -0.29131,
				"method": "rhf"
			},
			{
				"type": "occ",
				"energy": -0.28365,
				"method": "rhf"
			},
			{
				"type": "occ",
				"energy": -0.26811,
				"method": "rhf"
			},
			{
				"type": "occ",
				"energy": -0.24693,
				"method": "rhf"
			},
			{
				"type": "occ",
				"energy": -0.22309,
				"method": "rhf"
			},
			{
				"type": "unocc",
				"energy": -0.03185,
				"method": "rhf"
			},
			{
				"type": "unocc",
				"energy": -0.02488,
				"method": "rhf"
			},
			{
				"type": "unocc",
				"energy": 0.06416,
				"method": "rhf"
			},
			{
				"type": "unocc",
				"energy": 0.07602,
				"method": "rhf"
			},
			{
				"type": "unocc",
				"energy": 0.08411,
				"method": "rhf"
			}
		],
		"cosmo_sigma_profile": { 
			"-0.025": 0.0,
			"-0.024": 0.0,
			"-0.023": 0.0,
			"-0.022": 0.0,
			"-0.021": 0.0,
			"-0.02": 0.0,
			"-0.019": 0.0,
			"-0.018": 0.0,
			"-0.017": 0.0,
			"-0.016": 0.0,
			"-0.015": 0.231123971676,
			"-0.014": 1.29348713119,
			"-0.013": 1.40981219871,
			"-0.012": 1.34883186294,
			"-0.011": 2.52980975928,
			"-0.01": 3.23636091444,
			"-0.009": 3.7245585357,
			"-0.008": 4.80908482658,
			"-0.007": 6.25691340663,
			"-0.006": 6.89024734575,
			"-0.005": 10.0538581756,
			"-0.004": 23.6787017586,
			"-0.003": 32.6002938105,
			"-0.002": 27.151859101,
			"-0.001": 22.639250588,
			"0.0": 19.6244634283,
			"0.001": 16.2520714932,
			"0.002": 14.9952565272,
			"0.003": 8.91288156904,
			"0.004": 7.14521670139,
			"0.005": 6.20985570043,
			"0.006": 5.21862048747,
			"0.007": 6.0759991173,
			"0.008": 4.53687657055,
			"0.009": 4.20787695047,
			"0.01": 6.93817811739,
			"0.011": 9.67949602959,
			"0.012": 7.42641848899,
			"0.013": 1.34292477367,
			"0.014": 0.629629886287,
			"0.015": 0.663148090498,
			"0.016": 0.532239550837,
			"0.017": 0.232504350852,
			"0.018": 0.0,
			"0.019": 0.0,
			"0.02": 0.0,
			"0.021": 0.0,
			"0.022": 0.0,
			"0.023": 0.0,
			"0.024": 0.0,
			"0.025": 0.0
		}
	}
}
