{
	 "smiles": "CCSC1=CC=C(C=C1)C(O)=O", 
	 "Tm": 419.15, 
	 "num_atms": 22, 
	 "gaussian": { 
		 "optdone": 1, 
		 "sigma_profile": "yes", 
		 "theory": "DFT", 
		 "functional": "B3LYP", 
		 "basiset": "6-31G**", 
		 "properties": { 
			 "R2extent": 3321.2768, 
			 "electric_dipole_moment_norm": 4.78678055169, 
			 "electric_quadrupole_moment_norm": 23.3008783555, 
			 "total_energy": -897.632955282, 
			 "HOMO_LUMO_gap": 0.1753, 
			 "cosmo_polarized_energy": -15.35, 
			 "cosmo_cavitation_energy": 27.31, 
			 "cosmo_dispersion_energy": -20.51, 
			 "cosmo_repulsion_energy": 1.59, 
			 "cosmo_total_nonelectrostatic_energy": 8.39, 
			 "SMD_solvation_energy": 5.51 
		},
		"coords": [
			{
				"x": -0.0191457816,
				"y": -2.67084992,
				"z": 2.2083107834,
				"element": "C" 
			},
			{
				"x": -1.3443963115,
				"y": -1.913534677,
				"z": 2.1387414052,
				"element": "C" 
			},
			{
				"x": -1.9948588717,
				"y": -1.6547719068,
				"z": 0.4411828748,
				"element": "S" 
			},
			{
				"x": -0.9013171014,
				"y": -0.4569532377,
				"z": -0.2888770455,
				"element": "C" 
			},
			{
				"x": -0.0098077544,
				"y": 0.35652669,
				"z": 0.4292693234,
				"element": "C" 
			},
			{
				"x": 0.7766158168,
				"y": 1.2920936451,
				"z": -0.2341523444,
				"element": "C" 
			},
			{
				"x": 0.7056523396,
				"y": 1.4395514839,
				"z": -1.6251534026,
				"element": "C" 
			},
			{
				"x": -0.2015001766,
				"y": 0.6400620151,
				"z": -2.3377675183,
				"element": "C" 
			},
			{
				"x": -0.9902115016,
				"y": -0.2982177136,
				"z": -1.6829678837,
				"element": "C" 
			},
			{
				"x": 1.5822991388,
				"y": 2.4702323269,
				"z": -2.2618476358,
				"element": "C" 
			},
			{
				"x": 1.7785429323,
				"y": 2.3677101167,
				"z": -3.6055064849,
				"element": "O" 
			},
			{
				"x": 2.1108027882,
				"y": 3.3665549124,
				"z": -1.6453352465,
				"element": "O" 
			},
			{
				"x": -0.1084948376,
				"y": -3.655121732,
				"z": 1.7410957805,
				"element": "H" 
			},
			{
				"x": 0.7821295326,
				"y": -2.1278334742,
				"z": 1.7002053448,
				"element": "H" 
			},
			{
				"x": 0.2773409787,
				"y": -2.8112668973,
				"z": 3.2539456882,
				"element": "H" 
			},
			{
				"x": -2.1445640364,
				"y": -2.4854153693,
				"z": 2.6187082419,
				"element": "H" 
			},
			{
				"x": -1.2972180264,
				"y": -0.9509413914,
				"z": 2.6562132923,
				"element": "H" 
			},
			{
				"x": 0.0717346257,
				"y": 0.2719606107,
				"z": 1.5066884279,
				"element": "H" 
			},
			{
				"x": 1.4602560254,
				"y": 1.9297815088,
				"z": 0.3162452907,
				"element": "H" 
			},
			{
				"x": -0.3286623966,
				"y": 0.7589356279,
				"z": -3.4114688306,
				"element": "H" 
			},
			{
				"x": -1.6838260095,
				"y": -0.9106914429,
				"z": -2.2513683159,
				"element": "H" 
			},
			{
				"x": 1.4398286271,
				"y": 1.5220888247,
				"z": -3.9295617451,
				"element": "H" 
			}
		],
		 "valence_orbital": [ 
			{
				"type": "occ",
				"energy": -0.31565,
				"method": "rhf"
			},
			{
				"type": "occ",
				"energy": -0.29849,
				"method": "rhf"
			},
			{
				"type": "occ",
				"energy": -0.27415,
				"method": "rhf"
			},
			{
				"type": "occ",
				"energy": -0.26927,
				"method": "rhf"
			},
			{
				"type": "occ",
				"energy": -0.22569,
				"method": "rhf"
			},
			{
				"type": "unocc",
				"energy": -0.05039,
				"method": "rhf"
			},
			{
				"type": "unocc",
				"energy": -0.02439,
				"method": "rhf"
			},
			{
				"type": "unocc",
				"energy": 0.02606,
				"method": "rhf"
			},
			{
				"type": "unocc",
				"energy": 0.04571,
				"method": "rhf"
			},
			{
				"type": "unocc",
				"energy": 0.05431,
				"method": "rhf"
			}
		],
		"cosmo_sigma_profile": { 
			"-0.025": 0.0,
			"-0.024": 0.0,
			"-0.023": 0.0,
			"-0.022": 0.0,
			"-0.021": 0.0,
			"-0.02": 0.0,
			"-0.019": 0.104711053763,
			"-0.018": 0.851563138277,
			"-0.017": 1.09330504539,
			"-0.016": 0.970755629896,
			"-0.015": 0.796020849115,
			"-0.014": 0.857601231909,
			"-0.013": 1.03400945603,
			"-0.012": 1.23767096262,
			"-0.011": 1.56064759178,
			"-0.01": 0.991248858573,
			"-0.009": 1.59562947423,
			"-0.008": 2.62646781835,
			"-0.007": 6.95636674014,
			"-0.006": 11.3013414321,
			"-0.005": 12.1984403959,
			"-0.004": 12.7834972472,
			"-0.003": 19.7217113437,
			"-0.002": 16.5419455811,
			"-0.001": 13.8698922258,
			"0.0": 16.3370823641,
			"0.001": 12.9457201003,
			"0.002": 12.5574560778,
			"0.003": 19.8274670768,
			"0.004": 8.00279234069,
			"0.005": 6.47016844298,
			"0.006": 5.30741488311,
			"0.007": 5.208856111,
			"0.008": 4.4005347191,
			"0.009": 4.08073408882,
			"0.01": 3.91419147848,
			"0.011": 5.32108645881,
			"0.012": 5.45472024909,
			"0.013": 2.07384183107,
			"0.014": 0.240929239078,
			"0.015": 0.0,
			"0.016": 0.0,
			"0.017": 0.0,
			"0.018": 0.0,
			"0.019": 0.0,
			"0.02": 0.0,
			"0.021": 0.0,
			"0.022": 0.0,
			"0.023": 0.0,
			"0.024": 0.0,
			"0.025": 0.0
		}
	}
}
