{
	 "smiles": "CC#CC1(O)CCC2C3CC(C)C4=CC(=O)CCC4(C)C3CCC12C", 
	 "Tm": 375.15, 
	 "num_atms": 57, 
	 "gaussian": { 
		 "optdone": 1, 
		 "sigma_profile": "yes", 
		 "theory": "DFT", 
		 "functional": "B3LYP", 
		 "basiset": "6-31G**", 
		 "properties": { 
			 "R2extent": 8970.148, 
			 "electric_dipole_moment_norm": 4.85868476133, 
			 "electric_quadrupole_moment_norm": 29.1091988426, 
			 "total_energy": -1046.10107621, 
			 "HOMO_LUMO_gap": 0.18586, 
			 "cosmo_polarized_energy": -16.72, 
			 "cosmo_cavitation_energy": 50.06, 
			 "cosmo_dispersion_energy": -33.6, 
			 "cosmo_repulsion_energy": 2.5, 
			 "cosmo_total_nonelectrostatic_energy": 18.96, 
			 "SMD_solvation_energy": 8.23 
		},
		"coords": [
			{
				"x": -0.5139688964,
				"y": -1.388001099,
				"z": -4.3818129692,
				"element": "C" 
			},
			{
				"x": -1.4431657495,
				"y": -0.9618651803,
				"z": -3.3392036567,
				"element": "C" 
			},
			{
				"x": -2.2015833046,
				"y": -0.5847301783,
				"z": -2.4750643062,
				"element": "C" 
			},
			{
				"x": -3.2065977059,
				"y": -0.2136981776,
				"z": -1.463986522,
				"element": "C" 
			},
			{
				"x": -4.1991504462,
				"y": 0.5278315341,
				"z": -2.175983068,
				"element": "O" 
			},
			{
				"x": -3.7555343376,
				"y": -1.5094565925,
				"z": -0.8068098983,
				"element": "C" 
			},
			{
				"x": -2.7423737167,
				"y": -1.860068273,
				"z": 0.3019764876,
				"element": "C" 
			},
			{
				"x": -1.9474147091,
				"y": -0.548244751,
				"z": 0.6384248077,
				"element": "C" 
			},
			{
				"x": -0.410611729,
				"y": -0.7779426499,
				"z": 0.4783253676,
				"element": "C" 
			},
			{
				"x": 0.0853587474,
				"y": -1.5965546216,
				"z": 1.7112557925,
				"element": "C" 
			},
			{
				"x": 1.529124338,
				"y": -1.341570896,
				"z": 2.2130604773,
				"element": "C" 
			},
			{
				"x": 1.6457650102,
				"y": -1.7240028441,
				"z": 3.7034219142,
				"element": "C" 
			},
			{
				"x": 2.052653696,
				"y": 0.0699482273,
				"z": 1.9416755399,
				"element": "C" 
			},
			{
				"x": 3.3883122235,
				"y": 0.27394118,
				"z": 1.9380194219,
				"element": "C" 
			},
			{
				"x": 4.0536012511,
				"y": 1.465088456,
				"z": 1.3820158011,
				"element": "C" 
			},
			{
				"x": 5.2615117866,
				"y": 1.6409673915,
				"z": 1.471145583,
				"element": "O" 
			},
			{
				"x": 3.145514342,
				"y": 2.391141626,
				"z": 0.5884065684,
				"element": "C" 
			},
			{
				"x": 1.7752930983,
				"y": 2.4916234601,
				"z": 1.2596514915,
				"element": "C" 
			},
			{
				"x": 1.0536428995,
				"y": 1.1383790194,
				"z": 1.5002754592,
				"element": "C" 
			},
			{
				"x": 0.0106076974,
				"y": 1.428657093,
				"z": 2.6104188745,
				"element": "C" 
			},
			{
				"x": 0.4535042709,
				"y": 0.4890268755,
				"z": 0.1916646554,
				"element": "C" 
			},
			{
				"x": -0.2298139413,
				"y": 1.389426773,
				"z": -0.8586424233,
				"element": "C" 
			},
			{
				"x": -1.6891577952,
				"y": 1.75240205,
				"z": -0.5788500308,
				"element": "C" 
			},
			{
				"x": -2.6150817511,
				"y": 0.5698967351,
				"z": -0.2213974954,
				"element": "C" 
			},
			{
				"x": -3.7998830474,
				"y": 1.166794064,
				"z": 0.578234029,
				"element": "C" 
			},
			{
				"x": 0.494414861,
				"y": -0.9968274072,
				"z": -4.2043236685,
				"element": "H" 
			},
			{
				"x": -0.4442605546,
				"y": -2.4803252755,
				"z": -4.4336402911,
				"element": "H" 
			},
			{
				"x": -0.8401690935,
				"y": -1.0293725105,
				"z": -5.3643715181,
				"element": "H" 
			},
			{
				"x": -4.9658091675,
				"y": 0.6139018816,
				"z": -1.594326232,
				"element": "H" 
			},
			{
				"x": -3.8859615811,
				"y": -2.3062052773,
				"z": -1.5422535707,
				"element": "H" 
			},
			{
				"x": -4.7452719854,
				"y": -1.2970341047,
				"z": -0.3857930585,
				"element": "H" 
			},
			{
				"x": -3.2431176823,
				"y": -2.2741272851,
				"z": 1.1822351532,
				"element": "H" 
			},
			{
				"x": -2.0528065724,
				"y": -2.6317119575,
				"z": -0.0542356244,
				"element": "H" 
			},
			{
				"x": -2.123532105,
				"y": -0.2888953108,
				"z": 1.6871040797,
				"element": "H" 
			},
			{
				"x": -0.2884578628,
				"y": -1.39959503,
				"z": -0.4163423417,
				"element": "H" 
			},
			{
				"x": -0.0129785014,
				"y": -2.6684248568,
				"z": 1.5049410775,
				"element": "H" 
			},
			{
				"x": -0.5975558441,
				"y": -1.4121844217,
				"z": 2.5483474333,
				"element": "H" 
			},
			{
				"x": 2.201078419,
				"y": -2.0116685961,
				"z": 1.6618200972,
				"element": "H" 
			},
			{
				"x": 1.0259409555,
				"y": -1.0702775775,
				"z": 4.3264131547,
				"element": "H" 
			},
			{
				"x": 1.3114791368,
				"y": -2.7554046292,
				"z": 3.8613765077,
				"element": "H" 
			},
			{
				"x": 2.6782150399,
				"y": -1.6435761339,
				"z": 4.0548652564,
				"element": "H" 
			},
			{
				"x": 4.065513495,
				"y": -0.5214797755,
				"z": 2.2455627051,
				"element": "H" 
			},
			{
				"x": 3.0589917874,
				"y": 1.9783046815,
				"z": -0.4267621889,
				"element": "H" 
			},
			{
				"x": 3.6274010491,
				"y": 3.3686446422,
				"z": 0.4971507896,
				"element": "H" 
			},
			{
				"x": 1.1178027208,
				"y": 3.1666095878,
				"z": 0.703239613,
				"element": "H" 
			},
			{
				"x": 1.922798878,
				"y": 2.9636840384,
				"z": 2.2391429676,
				"element": "H" 
			},
			{
				"x": 0.5202043652,
				"y": 1.7678074478,
				"z": 3.5183728026,
				"element": "H" 
			},
			{
				"x": -0.6034193845,
				"y": 0.5716719236,
				"z": 2.8802534108,
				"element": "H" 
			},
			{
				"x": -0.6608956926,
				"y": 2.2332667007,
				"z": 2.2934638883,
				"element": "H" 
			},
			{
				"x": 1.3438608386,
				"y": 0.1093841791,
				"z": -0.3274181846,
				"element": "H" 
			},
			{
				"x": 0.3478446276,
				"y": 2.3073144246,
				"z": -1.0101549382,
				"element": "H" 
			},
			{
				"x": -0.1839187782,
				"y": 0.8504132991,
				"z": -1.808235425,
				"element": "H" 
			},
			{
				"x": -2.1142290075,
				"y": 2.2682026827,
				"z": -1.4491962633,
				"element": "H" 
			},
			{
				"x": -1.7258624115,
				"y": 2.4763924289,
				"z": 0.2449330631,
				"element": "H" 
			},
			{
				"x": -4.3073473287,
				"y": 1.9482247836,
				"z": 0.0024962526,
				"element": "H" 
			},
			{
				"x": -3.4246674637,
				"y": 1.6318102611,
				"z": 1.4949185874,
				"element": "H" 
			},
			{
				"x": -4.5416373881,
				"y": 0.4203879646,
				"z": 0.8801945646,
				"element": "H" 
			}
		],
		 "valence_orbital": [ 
			{
				"type": "occ",
				"energy": -0.27197,
				"method": "rhf"
			},
			{
				"type": "occ",
				"energy": -0.25774,
				"method": "rhf"
			},
			{
				"type": "occ",
				"energy": -0.24578,
				"method": "rhf"
			},
			{
				"type": "occ",
				"energy": -0.24153,
				"method": "rhf"
			},
			{
				"type": "occ",
				"energy": -0.22507,
				"method": "rhf"
			},
			{
				"type": "unocc",
				"energy": -0.03921,
				"method": "rhf"
			},
			{
				"type": "unocc",
				"energy": 0.03599,
				"method": "rhf"
			},
			{
				"type": "unocc",
				"energy": 0.04933,
				"method": "rhf"
			},
			{
				"type": "unocc",
				"energy": 0.05376,
				"method": "rhf"
			},
			{
				"type": "unocc",
				"energy": 0.06423,
				"method": "rhf"
			}
		],
		"cosmo_sigma_profile": { 
			"-0.025": 0.0,
			"-0.024": 0.0,
			"-0.023": 0.0,
			"-0.022": 0.0,
			"-0.021": 0.0,
			"-0.02": 0.0,
			"-0.019": 0.0,
			"-0.018": 0.0,
			"-0.017": 0.0,
			"-0.016": 0.0,
			"-0.015": 0.134982423302,
			"-0.014": 0.631458162481,
			"-0.013": 0.657437494881,
			"-0.012": 0.736000095824,
			"-0.011": 1.16610761263,
			"-0.01": 1.17979495407,
			"-0.009": 0.873309220766,
			"-0.008": 1.41996609151,
			"-0.007": 1.40698824889,
			"-0.006": 4.23676087377,
			"-0.005": 9.67274316162,
			"-0.004": 22.6900432535,
			"-0.003": 51.8495485418,
			"-0.002": 64.9345123366,
			"-0.001": 59.9105175677,
			"0.0": 46.9814151771,
			"0.001": 38.0277748634,
			"0.002": 15.5988345946,
			"0.003": 8.89634941223,
			"0.004": 8.29184819842,
			"0.005": 5.8873333622,
			"0.006": 5.37004366667,
			"0.007": 4.31668866683,
			"0.008": 3.85701151288,
			"0.009": 3.44695819922,
			"0.01": 3.09731959463,
			"0.011": 3.21218617047,
			"0.012": 5.00928350103,
			"0.013": 6.73952786387,
			"0.014": 5.45742160239,
			"0.015": 1.15880278467,
			"0.016": 0.0,
			"0.017": 0.0,
			"0.018": 0.0,
			"0.019": 0.0,
			"0.02": 0.0,
			"0.021": 0.0,
			"0.022": 0.0,
			"0.023": 0.0,
			"0.024": 0.0,
			"0.025": 0.0
		}
	}
}
