{
	 "smiles": "NC1=NC2=C(CCC3=C2C=CC=C3)S1", 
	 "Tm": 335.15, 
	 "num_atms": 24, 
	 "gaussian": { 
		 "optdone": 1, 
		 "sigma_profile": "yes", 
		 "theory": "DFT", 
		 "functional": "B3LYP", 
		 "basiset": "6-31G**", 
		 "properties": { 
			 "R2extent": 3324.7439, 
			 "electric_dipole_moment_norm": 1.86132712063, 
			 "electric_quadrupole_moment_norm": 13.5575292782, 
			 "total_energy": -932.904100313, 
			 "HOMO_LUMO_gap": 0.16811, 
			 "cosmo_polarized_energy": -11.16, 
			 "cosmo_cavitation_energy": 28.46, 
			 "cosmo_dispersion_energy": -22.01, 
			 "cosmo_repulsion_energy": 1.68, 
			 "cosmo_total_nonelectrostatic_energy": 8.13, 
			 "SMD_solvation_energy": 2.35 
		},
		"coords": [
			{
				"x": -2.8880162689,
				"y": 0.9765544937,
				"z": -3.3861995115,
				"element": "N" 
			},
			{
				"x": -1.8761141041,
				"y": 0.7069592076,
				"z": -2.4898642393,
				"element": "C" 
			},
			{
				"x": -2.0515622379,
				"y": 0.1227659188,
				"z": -1.3439928357,
				"element": "N" 
			},
			{
				"x": -0.836576376,
				"y": -0.0656653659,
				"z": -0.7026680767,
				"element": "C" 
			},
			{
				"x": 0.2776571514,
				"y": 0.3905043666,
				"z": -1.3516543193,
				"element": "C" 
			},
			{
				"x": 1.6736250642,
				"y": 0.2005355915,
				"z": -0.8344507499,
				"element": "C" 
			},
			{
				"x": 1.6314781553,
				"y": 0.1563714906,
				"z": 0.7064284704,
				"element": "C" 
			},
			{
				"x": 0.5178703208,
				"y": -0.7156489051,
				"z": 1.2589738151,
				"element": "C" 
			},
			{
				"x": -0.7234754448,
				"y": -0.7616437218,
				"z": 0.5840017682,
				"element": "C" 
			},
			{
				"x": -1.7908168996,
				"y": -1.4842100009,
				"z": 1.1315151241,
				"element": "C" 
			},
			{
				"x": -1.633367381,
				"y": -2.1678471785,
				"z": 2.3368121349,
				"element": "C" 
			},
			{
				"x": -0.4062951752,
				"y": -2.1368028367,
				"z": 3.0007552016,
				"element": "C" 
			},
			{
				"x": 0.6591300453,
				"y": -1.4105632202,
				"z": 2.4601168466,
				"element": "C" 
			},
			{
				"x": -0.1857468839,
				"y": 1.0808212409,
				"z": -2.8942508261,
				"element": "S" 
			},
			{
				"x": -3.8064013561,
				"y": 0.9088104357,
				"z": -2.9662501499,
				"element": "H" 
			},
			{
				"x": -2.7695400701,
				"y": 1.7916436757,
				"z": -3.971150267,
				"element": "H" 
			},
			{
				"x": 2.3407254924,
				"y": 1.0055719986,
				"z": -1.1605829553,
				"element": "H" 
			},
			{
				"x": 2.0954634037,
				"y": -0.7356430546,
				"z": -1.2310348285,
				"element": "H" 
			},
			{
				"x": 1.4760050958,
				"y": 1.1823907121,
				"z": 1.0717109146,
				"element": "H" 
			},
			{
				"x": 2.5999971277,
				"y": -0.1718042834,
				"z": 1.0981321745,
				"element": "H" 
			},
			{
				"x": -2.7347029365,
				"y": -1.5036206499,
				"z": 0.5967767538,
				"element": "H" 
			},
			{
				"x": -2.4657117352,
				"y": -2.7278804949,
				"z": 2.7537054825,
				"element": "H" 
			},
			{
				"x": -0.2760509199,
				"y": -2.6733482576,
				"z": 3.9362935163,
				"element": "H" 
			},
			{
				"x": 1.6121259328,
				"y": -1.3798511622,
				"z": 2.9834765567,
				"element": "H" 
			}
		],
		 "valence_orbital": [ 
			{
				"type": "occ",
				"energy": -0.27797,
				"method": "rhf"
			},
			{
				"type": "occ",
				"energy": -0.2695,
				"method": "rhf"
			},
			{
				"type": "occ",
				"energy": -0.24331,
				"method": "rhf"
			},
			{
				"type": "occ",
				"energy": -0.23639,
				"method": "rhf"
			},
			{
				"type": "occ",
				"energy": -0.18991,
				"method": "rhf"
			},
			{
				"type": "unocc",
				"energy": -0.0218,
				"method": "rhf"
			},
			{
				"type": "unocc",
				"energy": 0.00608,
				"method": "rhf"
			},
			{
				"type": "unocc",
				"energy": 0.01024,
				"method": "rhf"
			},
			{
				"type": "unocc",
				"energy": 0.0189,
				"method": "rhf"
			},
			{
				"type": "unocc",
				"energy": 0.07189,
				"method": "rhf"
			}
		],
		"cosmo_sigma_profile": { 
			"-0.025": 0.0,
			"-0.024": 0.0,
			"-0.023": 0.0,
			"-0.022": 0.0,
			"-0.021": 0.0,
			"-0.02": 0.0,
			"-0.019": 0.0,
			"-0.018": 0.0,
			"-0.017": 0.0,
			"-0.016": 0.0,
			"-0.015": 0.23787023927,
			"-0.014": 1.67010004543,
			"-0.013": 2.91493401717,
			"-0.012": 2.14995373139,
			"-0.011": 2.69752600169,
			"-0.01": 2.59368731428,
			"-0.009": 1.97370117932,
			"-0.008": 1.53548730312,
			"-0.007": 2.79366358626,
			"-0.006": 2.24519965668,
			"-0.005": 10.971255164,
			"-0.004": 18.7764049388,
			"-0.003": 21.2878388434,
			"-0.002": 20.3757362522,
			"-0.001": 16.9003512016,
			"0.0": 12.0648263656,
			"0.001": 12.820501636,
			"0.002": 15.1306504662,
			"0.003": 18.5698961369,
			"0.004": 19.3004682514,
			"0.005": 15.2415962317,
			"0.006": 11.9321247326,
			"0.007": 4.0153660712,
			"0.008": 2.73773503106,
			"0.009": 1.45509561951,
			"0.01": 2.29017348566,
			"0.011": 2.00070218179,
			"0.012": 1.28094806622,
			"0.013": 0.626017088296,
			"0.014": 0.19805454322,
			"0.015": 0.0,
			"0.016": 0.0,
			"0.017": 0.0,
			"0.018": 0.0,
			"0.019": 0.0,
			"0.02": 0.0,
			"0.021": 0.0,
			"0.022": 0.0,
			"0.023": 0.0,
			"0.024": 0.0,
			"0.025": 0.0
		}
	}
}
