{
	 "smiles": "C1OC2=CC=C(OC3OCC4C3COC4C3=CC=C4OCOC4=C3)C=C2O1", 
	 "Tm": 366.65, 
	 "num_atms": 45, 
	 "gaussian": { 
		 "optdone": 1, 
		 "sigma_profile": "yes", 
		 "theory": "DFT", 
		 "functional": "B3LYP", 
		 "basiset": "6-31G**", 
		 "properties": { 
			 "R2extent": 17550.1229, 
			 "electric_dipole_moment_norm": 1.54331029284, 
			 "electric_quadrupole_moment_norm": 17.110019085, 
			 "total_energy": -1299.46102124, 
			 "HOMO_LUMO_gap": 0.19043, 
			 "cosmo_polarized_energy": -15.71, 
			 "cosmo_cavitation_energy": 47.39, 
			 "cosmo_dispersion_energy": -35.08, 
			 "cosmo_repulsion_energy": 2.62, 
			 "cosmo_total_nonelectrostatic_energy": 14.93, 
			 "SMD_solvation_energy": 8.71 
		},
		"coords": [
			{
				"x": -5.9152264614,
				"y": -0.193370505,
				"z": 5.5675318982,
				"element": "C" 
			},
			{
				"x": -5.8257517298,
				"y": 0.9875313649,
				"z": 4.768309139,
				"element": "O" 
			},
			{
				"x": -4.5657488039,
				"y": 0.9532377326,
				"z": 4.2059401491,
				"element": "C" 
			},
			{
				"x": -3.9239541397,
				"y": 1.9143643727,
				"z": 3.4556779549,
				"element": "C" 
			},
			{
				"x": -2.6401534546,
				"y": 1.6087660243,
				"z": 2.9595614598,
				"element": "C" 
			},
			{
				"x": -2.0482401078,
				"y": 0.3737997491,
				"z": 3.2389377063,
				"element": "C" 
			},
			{
				"x": -0.7949348922,
				"y": 0.0023737507,
				"z": 2.8001108381,
				"element": "O" 
			},
			{
				"x": 0.1436683005,
				"y": 1.0212317585,
				"z": 2.466861342,
				"element": "C" 
			},
			{
				"x": -0.121777694,
				"y": 1.6345710687,
				"z": 1.2352126028,
				"element": "O" 
			},
			{
				"x": 0.3331786231,
				"y": 0.7453343567,
				"z": 0.2025408856,
				"element": "C" 
			},
			{
				"x": 1.5576017931,
				"y": -0.0034545153,
				"z": 0.7769678716,
				"element": "C" 
			},
			{
				"x": 1.5019998809,
				"y": 0.3307189103,
				"z": 2.2979367507,
				"element": "C" 
			},
			{
				"x": 2.7114680824,
				"y": 1.2783779922,
				"z": 2.4996444716,
				"element": "C" 
			},
			{
				"x": 3.1558937448,
				"y": 1.6691447821,
				"z": 1.2071551719,
				"element": "O" 
			},
			{
				"x": 2.9498349636,
				"y": 0.5503693692,
				"z": 0.3536878989,
				"element": "C" 
			},
			{
				"x": 3.117087057,
				"y": 0.9450016319,
				"z": -1.0957396616,
				"element": "C" 
			},
			{
				"x": 3.0377690622,
				"y": 2.281496009,
				"z": -1.4952384831,
				"element": "C" 
			},
			{
				"x": 3.1712353661,
				"y": 2.6580850143,
				"z": -2.8453172665,
				"element": "C" 
			},
			{
				"x": 3.380128931,
				"y": 1.646925758,
				"z": -3.7605340983,
				"element": "C" 
			},
			{
				"x": 3.5244211734,
				"y": 1.7380263431,
				"z": -5.1252274528,
				"element": "O" 
			},
			{
				"x": 3.8524172692,
				"y": 0.41753615,
				"z": -5.5703814964,
				"element": "C" 
			},
			{
				"x": 3.658680552,
				"y": -0.483239298,
				"z": -4.4730304994,
				"element": "O" 
			},
			{
				"x": 3.4605331091,
				"y": 0.3117562954,
				"z": -3.3691672664,
				"element": "C" 
			},
			{
				"x": 3.3377935133,
				"y": -0.0729003604,
				"z": -2.0506343884,
				"element": "C" 
			},
			{
				"x": -2.7151875881,
				"y": -0.6054266186,
				"z": 4.006265958,
				"element": "C" 
			},
			{
				"x": -3.9726463726,
				"y": -0.2808757873,
				"z": 4.4671457202,
				"element": "C" 
			},
			{
				"x": -4.829989998,
				"y": -1.0585796934,
				"z": 5.207845317,
				"element": "O" 
			},
			{
				"x": -6.8641593876,
				"y": -0.6998075805,
				"z": 5.36736619,
				"element": "H" 
			},
			{
				"x": -5.8311194332,
				"y": 0.0714805257,
				"z": 6.6324606978,
				"element": "H" 
			},
			{
				"x": -4.3933303849,
				"y": 2.8674787736,
				"z": 3.2395555979,
				"element": "H" 
			},
			{
				"x": -2.1267380498,
				"y": 2.3220846171,
				"z": 2.3284181419,
				"element": "H" 
			},
			{
				"x": 0.1115787337,
				"y": 1.8054291963,
				"z": 3.2322996426,
				"element": "H" 
			},
			{
				"x": -0.4636289018,
				"y": 0.0383685834,
				"z": -0.0572505695,
				"element": "H" 
			},
			{
				"x": 0.5638107854,
				"y": 1.3568750237,
				"z": -0.6711733387,
				"element": "H" 
			},
			{
				"x": 1.4901147072,
				"y": -1.0745487791,
				"z": 0.5738218926,
				"element": "H" 
			},
			{
				"x": 1.5628342669,
				"y": -0.5456220209,
				"z": 2.9449148317,
				"element": "H" 
			},
			{
				"x": 2.4694226638,
				"y": 2.1879055275,
				"z": 3.0571320672,
				"element": "H" 
			},
			{
				"x": 3.515903609,
				"y": 0.7497917462,
				"z": 3.0339638664,
				"element": "H" 
			},
			{
				"x": 3.6943434168,
				"y": -0.2322251776,
				"z": 0.589654523,
				"element": "H" 
			},
			{
				"x": 2.8856588083,
				"y": 3.0407812248,
				"z": -0.7375799848,
				"element": "H" 
			},
			{
				"x": 3.114660645,
				"y": 3.6958097869,
				"z": -3.1541453592,
				"element": "H" 
			},
			{
				"x": 3.1899819057,
				"y": 0.1349400281,
				"z": -6.3947502105,
				"element": "H" 
			},
			{
				"x": 4.9046559491,
				"y": 0.3872017419,
				"z": -5.8879911282,
				"element": "H" 
			},
			{
				"x": 3.4159055638,
				"y": -1.1168103529,
				"z": -1.7639065154,
				"element": "H" 
			},
			{
				"x": -2.243095077,
				"y": -1.5575345197,
				"z": 4.2150471325,
				"element": "H" 
			}
		],
		 "valence_orbital": [ 
			{
				"type": "occ",
				"energy": -0.25757,
				"method": "rhf"
			},
			{
				"type": "occ",
				"energy": -0.24341,
				"method": "rhf"
			},
			{
				"type": "occ",
				"energy": -0.23581,
				"method": "rhf"
			},
			{
				"type": "occ",
				"energy": -0.20632,
				"method": "rhf"
			},
			{
				"type": "occ",
				"energy": -0.19419,
				"method": "rhf"
			},
			{
				"type": "unocc",
				"energy": -0.00376,
				"method": "rhf"
			},
			{
				"type": "unocc",
				"energy": 0.00398,
				"method": "rhf"
			},
			{
				"type": "unocc",
				"energy": 0.00911,
				"method": "rhf"
			},
			{
				"type": "unocc",
				"energy": 0.02487,
				"method": "rhf"
			},
			{
				"type": "unocc",
				"energy": 0.07123,
				"method": "rhf"
			}
		],
		"cosmo_sigma_profile": { 
			"-0.025": 0.0,
			"-0.024": 0.0,
			"-0.023": 0.0,
			"-0.022": 0.0,
			"-0.021": 0.0,
			"-0.02": 0.0,
			"-0.019": 0.0,
			"-0.018": 0.0,
			"-0.017": 0.0,
			"-0.016": 0.0,
			"-0.015": 0.0,
			"-0.014": 0.0,
			"-0.013": 0.0,
			"-0.012": 0.0,
			"-0.011": 0.0,
			"-0.01": 0.0,
			"-0.009": 0.00894629957131,
			"-0.008": 4.59727202116,
			"-0.007": 20.0833422258,
			"-0.006": 25.0203024038,
			"-0.005": 31.525237453,
			"-0.004": 35.9216775363,
			"-0.003": 26.2112155727,
			"-0.002": 23.195932865,
			"-0.001": 19.5513795574,
			"0.0": 19.2273701427,
			"0.001": 18.898574366,
			"0.002": 25.7133878415,
			"0.003": 30.1086508619,
			"0.004": 27.1446623777,
			"0.005": 19.7781054363,
			"0.006": 10.0908348332,
			"0.007": 9.98711605893,
			"0.008": 10.3574342687,
			"0.009": 9.52765103484,
			"0.01": 6.31494432673,
			"0.011": 2.08278177957,
			"0.012": 1.16440528998,
			"0.013": 0.378398587328,
			"0.014": 0.0,
			"0.015": 0.0,
			"0.016": 0.0,
			"0.017": 0.0,
			"0.018": 0.0,
			"0.019": 0.0,
			"0.02": 0.0,
			"0.021": 0.0,
			"0.022": 0.0,
			"0.023": 0.0,
			"0.024": 0.0,
			"0.025": 0.0
		}
	}
}
