{
	 "smiles": "CC1=C(N)C2=C(C=C1)C(=O)C1=CC=CC=C1C2=O", 
	 "Tm": 478.15, 
	 "num_atms": 29, 
	 "gaussian": { 
		 "optdone": 1, 
		 "sigma_profile": "yes", 
		 "theory": "DFT", 
		 "functional": "B3LYP", 
		 "basiset": "6-31G**", 
		 "properties": { 
			 "R2extent": 4524.6984, 
			 "electric_dipole_moment_norm": 2.66905922564, 
			 "electric_quadrupole_moment_norm": 23.7724018122, 
			 "total_energy": -783.464664953, 
			 "HOMO_LUMO_gap": 0.11585, 
			 "cosmo_polarized_energy": -11.91, 
			 "cosmo_cavitation_energy": 32.13, 
			 "cosmo_dispersion_energy": -24.26, 
			 "cosmo_repulsion_energy": 1.79, 
			 "cosmo_total_nonelectrostatic_energy": 9.67, 
			 "SMD_solvation_energy": 5.66 
		},
		"coords": [
			{
				"x": -1.7622027368,
				"y": -0.05562433,
				"z": -4.3469618293,
				"element": "C" 
			},
			{
				"x": -1.1539304266,
				"y": -0.3694242774,
				"z": -3.0046695506,
				"element": "C" 
			},
			{
				"x": -1.2240587414,
				"y": 0.5962373945,
				"z": -1.9527227838,
				"element": "C" 
			},
			{
				"x": -1.8384291909,
				"y": 1.7859228486,
				"z": -2.175067983,
				"element": "N" 
			},
			{
				"x": -0.6453119428,
				"y": 0.2934693959,
				"z": -0.6809926595,
				"element": "C" 
			},
			{
				"x": -0.0121875304,
				"y": -0.9659064466,
				"z": -0.4944005754,
				"element": "C" 
			},
			{
				"x": 0.0464851915,
				"y": -1.8911320538,
				"z": -1.5265713633,
				"element": "C" 
			},
			{
				"x": -0.5242652034,
				"y": -1.5814910924,
				"z": -2.7666551263,
				"element": "C" 
			},
			{
				"x": 0.6108281924,
				"y": -1.3431586829,
				"z": 0.8083905445,
				"element": "C" 
			},
			{
				"x": 1.1562925913,
				"y": -2.4320670686,
				"z": 0.9655783629,
				"element": "O" 
			},
			{
				"x": 0.5477615043,
				"y": -0.350386237,
				"z": 1.9142621046,
				"element": "C" 
			},
			{
				"x": 1.1201727277,
				"y": -0.6644081281,
				"z": 3.1527670998,
				"element": "C" 
			},
			{
				"x": 1.0695310031,
				"y": 0.2534113612,
				"z": 4.197812172,
				"element": "C" 
			},
			{
				"x": 0.4452717059,
				"y": 1.4929388502,
				"z": 4.0109943897,
				"element": "C" 
			},
			{
				"x": -0.1259358336,
				"y": 1.8115490053,
				"z": 2.7818736051,
				"element": "C" 
			},
			{
				"x": -0.0794127484,
				"y": 0.8937340636,
				"z": 1.7248698061,
				"element": "C" 
			},
			{
				"x": -0.7009996807,
				"y": 1.264609365,
				"z": 0.4183148633,
				"element": "C" 
			},
			{
				"x": -1.241378898,
				"y": 2.3790271539,
				"z": 0.3095442607,
				"element": "O" 
			},
			{
				"x": -1.3043065158,
				"y": 0.832078646,
				"z": -4.8040323421,
				"element": "H" 
			},
			{
				"x": -2.8405536653,
				"y": 0.1388511829,
				"z": -4.2698582044,
				"element": "H" 
			},
			{
				"x": -1.627635232,
				"y": -0.8884066407,
				"z": -5.0407643148,
				"element": "H" 
			},
			{
				"x": -1.867511705,
				"y": 2.4459727823,
				"z": -1.404626021,
				"element": "H" 
			},
			{
				"x": -2.2434269786,
				"y": 1.9967957787,
				"z": -3.0696221429,
				"element": "H" 
			},
			{
				"x": 0.537057278,
				"y": -2.8405972193,
				"z": -1.3475471197,
				"element": "H" 
			},
			{
				"x": -0.4757073317,
				"y": -2.3098011673,
				"z": -3.5725119282,
				"element": "H" 
			},
			{
				"x": 1.5962922765,
				"y": -1.6325279626,
				"z": 3.2660889346,
				"element": "H" 
			},
			{
				"x": 1.5141426309,
				"y": 0.008128814,
				"z": 5.1579578107,
				"element": "H" 
			},
			{
				"x": 0.4060012404,
				"y": 2.2088683587,
				"z": 4.8269639269,
				"element": "H" 
			},
			{
				"x": -0.6145819806,
				"y": 2.764836306,
				"z": 2.6134860634,
				"element": "H" 
			}
		],
		 "valence_orbital": [ 
			{
				"type": "occ",
				"energy": -0.26146,
				"method": "rhf"
			},
			{
				"type": "occ",
				"energy": -0.25968,
				"method": "rhf"
			},
			{
				"type": "occ",
				"energy": -0.25543,
				"method": "rhf"
			},
			{
				"type": "occ",
				"energy": -0.24862,
				"method": "rhf"
			},
			{
				"type": "occ",
				"energy": -0.20942,
				"method": "rhf"
			},
			{
				"type": "unocc",
				"energy": -0.09357,
				"method": "rhf"
			},
			{
				"type": "unocc",
				"energy": -0.04349,
				"method": "rhf"
			},
			{
				"type": "unocc",
				"energy": -0.01373,
				"method": "rhf"
			},
			{
				"type": "unocc",
				"energy": 0.0062,
				"method": "rhf"
			},
			{
				"type": "unocc",
				"energy": 0.06112,
				"method": "rhf"
			}
		],
		"cosmo_sigma_profile": { 
			"-0.025": 0.0,
			"-0.024": 0.0,
			"-0.023": 0.0,
			"-0.022": 0.0,
			"-0.021": 0.0,
			"-0.02": 0.0,
			"-0.019": 0.0,
			"-0.018": 0.0,
			"-0.017": 0.0,
			"-0.016": 0.0,
			"-0.015": 0.0,
			"-0.014": 0.119117792287,
			"-0.013": 0.76893623513,
			"-0.012": 0.781854732202,
			"-0.011": 1.35230047693,
			"-0.01": 1.59156542096,
			"-0.009": 1.69855674237,
			"-0.008": 2.21218746076,
			"-0.007": 6.1940700102,
			"-0.006": 12.7608437491,
			"-0.005": 18.6672351016,
			"-0.004": 16.54402732,
			"-0.003": 16.8357393291,
			"-0.002": 17.7827463262,
			"-0.001": 21.192835657,
			"0.0": 19.2640228528,
			"0.001": 21.7511396878,
			"0.002": 31.1222278404,
			"0.003": 26.5862766333,
			"0.004": 9.16029459062,
			"0.005": 5.33303490227,
			"0.006": 3.4974103008,
			"0.007": 2.86218566781,
			"0.008": 3.73202612346,
			"0.009": 3.13696661063,
			"0.01": 4.22673073068,
			"0.011": 4.67709855267,
			"0.012": 4.19134519777,
			"0.013": 0.069145990184,
			"0.014": 0.0,
			"0.015": 0.0,
			"0.016": 0.0,
			"0.017": 0.0,
			"0.018": 0.0,
			"0.019": 0.0,
			"0.02": 0.0,
			"0.021": 0.0,
			"0.022": 0.0,
			"0.023": 0.0,
			"0.024": 0.0,
			"0.025": 0.0
		}
	}
}
