{
	 "smiles": "FC1=C2N=CC=C(Cl)C2=CC=C1Cl", 
	 "Tm": 403.15, 
	 "num_atms": 17, 
	 "gaussian": { 
		 "optdone": 1, 
		 "sigma_profile": "yes", 
		 "theory": "DFT", 
		 "functional": "B3LYP", 
		 "basiset": "6-31G**", 
		 "properties": { 
			 "R2extent": 3407.7241, 
			 "electric_dipole_moment_norm": 2.69374840325, 
			 "electric_quadrupole_moment_norm": 7.89576604137, 
			 "total_energy": -1420.33587949, 
			 "HOMO_LUMO_gap": 0.16846, 
			 "cosmo_polarized_energy": -6.72, 
			 "cosmo_cavitation_energy": 25.57, 
			 "cosmo_dispersion_energy": -19.37, 
			 "cosmo_repulsion_energy": 1.49, 
			 "cosmo_total_nonelectrostatic_energy": 7.69, 
			 "SMD_solvation_energy": 2.85 
		},
		"coords": [
			{
				"x": -0.9934921935,
				"y": 2.0449140168,
				"z": -1.4378814316,
				"element": "F" 
			},
			{
				"x": -0.0981498499,
				"y": 1.070300592,
				"z": -1.285497198,
				"element": "C" 
			},
			{
				"x": -0.2173955803,
				"y": 0.2118151057,
				"z": -0.1546589689,
				"element": "C" 
			},
			{
				"x": -1.2420564,
				"y": 0.4364015794,
				"z": 0.7085330135,
				"element": "N" 
			},
			{
				"x": -1.3405989566,
				"y": -0.3641233066,
				"z": 1.7491006038,
				"element": "C" 
			},
			{
				"x": -0.4542292007,
				"y": -1.4336501627,
				"z": 2.0218628884,
				"element": "C" 
			},
			{
				"x": 0.5818260285,
				"y": -1.6594293092,
				"z": 1.1475650751,
				"element": "C" 
			},
			{
				"x": 1.6956450387,
				"y": -2.97511568,
				"z": 1.4574139426,
				"element": "Cl" 
			},
			{
				"x": 0.7520010872,
				"y": -0.835026,
				"z": 0.0005196789,
				"element": "C" 
			},
			{
				"x": 1.784436374,
				"y": -0.9831533443,
				"z": -0.9602595195,
				"element": "C" 
			},
			{
				"x": 1.862823615,
				"y": -0.1322095417,
				"z": -2.0374538954,
				"element": "C" 
			},
			{
				"x": 0.9149687782,
				"y": 0.9041992855,
				"z": -2.204164538,
				"element": "C" 
			},
			{
				"x": 1.0280457457,
				"y": 1.9743960302,
				"z": -3.5749759513,
				"element": "Cl" 
			},
			{
				"x": -2.1657334837,
				"y": -0.1742665216,
				"z": 2.4337303111,
				"element": "H" 
			},
			{
				"x": -0.5924276614,
				"y": -2.0557952803,
				"z": 2.8982463988,
				"element": "H" 
			},
			{
				"x": 2.5141535999,
				"y": -1.7746621694,
				"z": -0.8393772347,
				"element": "H" 
			},
			{
				"x": 2.6497830588,
				"y": -0.2403952937,
				"z": -2.7753031748,
				"element": "H" 
			}
		],
		 "valence_orbital": [ 
			{
				"type": "occ",
				"energy": -0.32487,
				"method": "rhf"
			},
			{
				"type": "occ",
				"energy": -0.29739,
				"method": "rhf"
			},
			{
				"type": "occ",
				"energy": -0.27682,
				"method": "rhf"
			},
			{
				"type": "occ",
				"energy": -0.26935,
				"method": "rhf"
			},
			{
				"type": "occ",
				"energy": -0.24342,
				"method": "rhf"
			},
			{
				"type": "unocc",
				"energy": -0.07496,
				"method": "rhf"
			},
			{
				"type": "unocc",
				"energy": -0.04295,
				"method": "rhf"
			},
			{
				"type": "unocc",
				"energy": 0.00443,
				"method": "rhf"
			},
			{
				"type": "unocc",
				"energy": 0.01109,
				"method": "rhf"
			},
			{
				"type": "unocc",
				"energy": 0.01669,
				"method": "rhf"
			}
		],
		"cosmo_sigma_profile": { 
			"-0.025": 0.0,
			"-0.024": 0.0,
			"-0.023": 0.0,
			"-0.022": 0.0,
			"-0.021": 0.0,
			"-0.02": 0.0,
			"-0.019": 0.0,
			"-0.018": 0.0,
			"-0.017": 0.0,
			"-0.016": 0.0,
			"-0.015": 0.0,
			"-0.014": 0.0,
			"-0.013": 0.0,
			"-0.012": 0.0,
			"-0.011": 0.0,
			"-0.01": 0.0,
			"-0.009": 1.10201249053,
			"-0.008": 5.74252818766,
			"-0.007": 8.29966912276,
			"-0.006": 6.82910438617,
			"-0.005": 5.95069219974,
			"-0.004": 6.97842505857,
			"-0.003": 8.29215406491,
			"-0.002": 19.9075434843,
			"-0.001": 31.3383998325,
			"0.0": 27.5578431953,
			"0.001": 18.6530265282,
			"0.002": 17.7520104503,
			"0.003": 23.7487247277,
			"0.004": 15.9533856593,
			"0.005": 2.69045139082,
			"0.006": 1.39670419716,
			"0.007": 2.25469470036,
			"0.008": 1.30554844084,
			"0.009": 1.05192229251,
			"0.01": 0.756382714369,
			"0.011": 1.61889770398,
			"0.012": 0.897705123285,
			"0.013": 0.795099353577,
			"0.014": 0.914278699375,
			"0.015": 0.162312244892,
			"0.016": 0.0,
			"0.017": 0.0,
			"0.018": 0.0,
			"0.019": 0.0,
			"0.02": 0.0,
			"0.021": 0.0,
			"0.022": 0.0,
			"0.023": 0.0,
			"0.024": 0.0,
			"0.025": 0.0
		}
	}
}
