{
	 "smiles": "CC(C)C1=CC=C(C=C1)S(=O)(=O)N1CC(O)CC1C(O)=O", 
	 "Tm": 427.15, 
	 "num_atms": 40, 
	 "gaussian": { 
		 "optdone": 1, 
		 "sigma_profile": "yes", 
		 "theory": "DFT", 
		 "functional": "B3LYP", 
		 "basiset": "6-31G**", 
		 "properties": { 
			 "R2extent": 7943.9873, 
			 "electric_dipole_moment_norm": 5.58610403143, 
			 "electric_quadrupole_moment_norm": 14.0290174243, 
			 "total_energy": -1373.94586177, 
			 "HOMO_LUMO_gap": 0.21138, 
			 "cosmo_polarized_energy": -22.52, 
			 "cosmo_cavitation_energy": 42.91, 
			 "cosmo_dispersion_energy": -29.74, 
			 "cosmo_repulsion_energy": 2.27, 
			 "cosmo_total_nonelectrostatic_energy": 15.43, 
			 "SMD_solvation_energy": 6.83 
		},
		"coords": [
			{
				"x": 2.5726074541,
				"y": -1.7079155878,
				"z": 4.9954187265,
				"element": "C" 
			},
			{
				"x": 1.1682538259,
				"y": -1.2475231407,
				"z": 4.5598896174,
				"element": "C" 
			},
			{
				"x": 0.1297474923,
				"y": -2.3682438112,
				"z": 4.7571507494,
				"element": "C" 
			},
			{
				"x": 1.1659317624,
				"y": -0.7210266255,
				"z": 3.1314973345,
				"element": "C" 
			},
			{
				"x": 0.8491607465,
				"y": 0.6181461574,
				"z": 2.8660349075,
				"element": "C" 
			},
			{
				"x": 0.8469464232,
				"y": 1.1211821602,
				"z": 1.5648951909,
				"element": "C" 
			},
			{
				"x": 1.1651272101,
				"y": 0.2674217612,
				"z": 0.5063064073,
				"element": "C" 
			},
			{
				"x": 1.4961605658,
				"y": -1.0711436777,
				"z": 0.7417144151,
				"element": "C" 
			},
			{
				"x": 1.4927361679,
				"y": -1.5532676697,
				"z": 2.0480364704,
				"element": "C" 
			},
			{
				"x": 1.1119855939,
				"y": 0.8851004308,
				"z": -1.1766144902,
				"element": "S" 
			},
			{
				"x": 1.2137418051,
				"y": 2.3452242025,
				"z": -1.1121977078,
				"element": "O" 
			},
			{
				"x": 2.0102189886,
				"y": 0.0607267277,
				"z": -1.9853280611,
				"element": "O" 
			},
			{
				"x": -0.4350077941,
				"y": 0.5706624459,
				"z": -1.7357114834,
				"element": "N" 
			},
			{
				"x": -0.8469546109,
				"y": -0.7847919256,
				"z": -2.1425574591,
				"element": "C" 
			},
			{
				"x": -2.290769871,
				"y": -0.5398863322,
				"z": -2.6067199743,
				"element": "C" 
			},
			{
				"x": -2.3657159118,
				"y": -0.0645039314,
				"z": -3.9335250867,
				"element": "O" 
			},
			{
				"x": -2.7972449241,
				"y": 0.4809594221,
				"z": -1.5649271785,
				"element": "C" 
			},
			{
				"x": -1.565158034,
				"y": 1.3825205382,
				"z": -1.2558333325,
				"element": "C" 
			},
			{
				"x": -1.6660457021,
				"y": 2.7390721556,
				"z": -1.9477335084,
				"element": "C" 
			},
			{
				"x": -1.3808935969,
				"y": 2.673268767,
				"z": -3.2723321353,
				"element": "O" 
			},
			{
				"x": -2.0344707945,
				"y": 3.7511737595,
				"z": -1.4020630826,
				"element": "O" 
			},
			{
				"x": 2.5638881452,
				"y": -2.0233916185,
				"z": 6.0440705124,
				"element": "H" 
			},
			{
				"x": 2.9175435541,
				"y": -2.5575382725,
				"z": 4.3961424382,
				"element": "H" 
			},
			{
				"x": 3.3061257291,
				"y": -0.903241209,
				"z": 4.8873081841,
				"element": "H" 
			},
			{
				"x": 0.8789521437,
				"y": -0.4116591024,
				"z": 5.2097559461,
				"element": "H" 
			},
			{
				"x": -0.8750255835,
				"y": -2.0332148509,
				"z": 4.481566995,
				"element": "H" 
			},
			{
				"x": 0.1065672712,
				"y": -2.6888673563,
				"z": 5.8039728392,
				"element": "H" 
			},
			{
				"x": 0.3693393841,
				"y": -3.2460692033,
				"z": 4.1471536825,
				"element": "H" 
			},
			{
				"x": 0.6094693468,
				"y": 1.2827994951,
				"z": 3.6919499171,
				"element": "H" 
			},
			{
				"x": 0.6316176872,
				"y": 2.1661676639,
				"z": 1.3694148212,
				"element": "H" 
			},
			{
				"x": 1.7797874876,
				"y": -1.7102976405,
				"z": -0.0874839522,
				"element": "H" 
			},
			{
				"x": 1.7591042779,
				"y": -2.5913747254,
				"z": 2.2252401586,
				"element": "H" 
			},
			{
				"x": -0.8174408159,
				"y": -1.4952441341,
				"z": -1.3018328259,
				"element": "H" 
			},
			{
				"x": -0.2103870085,
				"y": -1.1510228537,
				"z": -2.9482384504,
				"element": "H" 
			},
			{
				"x": -2.877022799,
				"y": -1.4628200165,
				"z": -2.5819622069,
				"element": "H" 
			},
			{
				"x": -1.861983972,
				"y": 0.7632365591,
				"z": -3.9881511057,
				"element": "H" 
			},
			{
				"x": -3.0987425961,
				"y": -0.0333070617,
				"z": -0.6473324053,
				"element": "H" 
			},
			{
				"x": -3.656848437,
				"y": 1.0429753375,
				"z": -1.9363505939,
				"element": "H" 
			},
			{
				"x": -1.5035098188,
				"y": 1.6027026846,
				"z": -0.1852215802,
				"element": "H" 
			},
			{
				"x": -1.4983907925,
				"y": 3.5700104784,
				"z": -3.627902693,
				"element": "H" 
			}
		],
		 "valence_orbital": [ 
			{
				"type": "occ",
				"energy": -0.29608,
				"method": "rhf"
			},
			{
				"type": "occ",
				"energy": -0.27739,
				"method": "rhf"
			},
			{
				"type": "occ",
				"energy": -0.27257,
				"method": "rhf"
			},
			{
				"type": "occ",
				"energy": -0.26865,
				"method": "rhf"
			},
			{
				"type": "occ",
				"energy": -0.25077,
				"method": "rhf"
			},
			{
				"type": "unocc",
				"energy": -0.03939,
				"method": "rhf"
			},
			{
				"type": "unocc",
				"energy": -0.02545,
				"method": "rhf"
			},
			{
				"type": "unocc",
				"energy": -0.00396,
				"method": "rhf"
			},
			{
				"type": "unocc",
				"energy": 0.05071,
				"method": "rhf"
			},
			{
				"type": "unocc",
				"energy": 0.06529,
				"method": "rhf"
			}
		],
		"cosmo_sigma_profile": { 
			"-0.025": 0.0,
			"-0.024": 0.0,
			"-0.023": 0.0,
			"-0.022": 0.0,
			"-0.021": 0.0,
			"-0.02": 0.0140237427602,
			"-0.019": 0.656947675463,
			"-0.018": 1.03856451777,
			"-0.017": 0.789981306943,
			"-0.016": 1.12463425702,
			"-0.015": 0.659557098877,
			"-0.014": 0.488255951186,
			"-0.013": 0.388722043904,
			"-0.012": 1.21301157358,
			"-0.011": 0.54845067682,
			"-0.01": 0.597613227015,
			"-0.009": 0.806388931154,
			"-0.008": 0.893278901947,
			"-0.007": 7.73186645743,
			"-0.006": 26.4724881948,
			"-0.005": 25.5953974287,
			"-0.004": 25.4056574094,
			"-0.003": 31.0110637144,
			"-0.002": 28.2862224658,
			"-0.001": 26.5085991814,
			"0.0": 23.1820556647,
			"0.001": 25.9921051046,
			"0.002": 14.8897079665,
			"0.003": 17.3343150204,
			"0.004": 8.70873015593,
			"0.005": 5.61353865396,
			"0.006": 7.22663730451,
			"0.007": 8.06564528141,
			"0.008": 6.48098520396,
			"0.009": 6.39592290813,
			"0.01": 11.359931906,
			"0.011": 13.2162145837,
			"0.012": 4.3881627075,
			"0.013": 1.81661910295,
			"0.014": 2.02353307212,
			"0.015": 0.0396219753668,
			"0.016": 0.0,
			"0.017": 0.0,
			"0.018": 0.0,
			"0.019": 0.0,
			"0.02": 0.0,
			"0.021": 0.0,
			"0.022": 0.0,
			"0.023": 0.0,
			"0.024": 0.0,
			"0.025": 0.0
		}
	}
}
