{
	 "smiles": "CC1=NC(=CS1)C1=CC=C(Cl)C=C1", 
	 "Tm": 393.15, 
	 "num_atms": 21, 
	 "gaussian": { 
		 "optdone": 1, 
		 "sigma_profile": "yes", 
		 "theory": "DFT", 
		 "functional": "B3LYP", 
		 "basiset": "6-31G**", 
		 "properties": { 
			 "R2extent": 4658.528, 
			 "electric_dipole_moment_norm": 2.98715414065, 
			 "electric_quadrupole_moment_norm": 9.87340600705, 
			 "total_energy": -1299.02372215, 
			 "HOMO_LUMO_gap": 0.17421, 
			 "cosmo_polarized_energy": -7.11, 
			 "cosmo_cavitation_energy": 28.75, 
			 "cosmo_dispersion_energy": -21.98, 
			 "cosmo_repulsion_energy": 1.68, 
			 "cosmo_total_nonelectrostatic_energy": 8.46, 
			 "SMD_solvation_energy": 3.33 
		},
		"coords": [
			{
				"x": -3.6281295777,
				"y": -0.9274043643,
				"z": 1.2150122869,
				"element": "C" 
			},
			{
				"x": -2.4709285259,
				"y": -0.7609056371,
				"z": 0.2781520213,
				"element": "C" 
			},
			{
				"x": -1.2531201248,
				"y": -0.5125785919,
				"z": 0.6519832518,
				"element": "N" 
			},
			{
				"x": -0.3802130932,
				"y": -0.4055208899,
				"z": -0.420538364,
				"element": "C" 
			},
			{
				"x": -0.9699185809,
				"y": -0.5812518752,
				"z": -1.6475687536,
				"element": "C" 
			},
			{
				"x": -2.6631762243,
				"y": -0.8898167263,
				"z": -1.4716367591,
				"element": "S" 
			},
			{
				"x": 1.04337614,
				"y": -0.1243752353,
				"z": -0.1547766631,
				"element": "C" 
			},
			{
				"x": 1.9847860274,
				"y": -0.0026363734,
				"z": -1.1904529503,
				"element": "C" 
			},
			{
				"x": 3.3240178046,
				"y": 0.2629048421,
				"z": -0.9206609816,
				"element": "C" 
			},
			{
				"x": 3.7362630275,
				"y": 0.4103998704,
				"z": 0.4040907846,
				"element": "C" 
			},
			{
				"x": 5.4266866746,
				"y": 0.7459618135,
				"z": 0.7520733389,
				"element": "Cl" 
			},
			{
				"x": 2.8254820436,
				"y": 0.2950542505,
				"z": 1.4528219893,
				"element": "C" 
			},
			{
				"x": 1.4881768101,
				"y": 0.0291326583,
				"z": 1.168609404,
				"element": "C" 
			},
			{
				"x": -4.4044296126,
				"y": -0.1771960543,
				"z": 1.0310883202,
				"element": "H" 
			},
			{
				"x": -4.0891927824,
				"y": -1.9153174354,
				"z": 1.1121788189,
				"element": "H" 
			},
			{
				"x": -3.2649193795,
				"y": -0.8135321146,
				"z": 2.2379027869,
				"element": "H" 
			},
			{
				"x": -0.5186631296,
				"y": -0.5487474563,
				"z": -2.6280988312,
				"element": "H" 
			},
			{
				"x": 1.6776269602,
				"y": -0.1151173261,
				"z": -2.2255779003,
				"element": "H" 
			},
			{
				"x": 4.0426369399,
				"y": 0.3549734359,
				"z": -1.7274686001,
				"element": "H" 
			},
			{
				"x": 3.1591583277,
				"y": 0.4119444947,
				"z": 2.4780540431,
				"element": "H" 
			},
			{
				"x": 0.7683802753,
				"y": -0.0632712852,
				"z": 1.9736127573,
				"element": "H" 
			}
		],
		 "valence_orbital": [ 
			{
				"type": "occ",
				"energy": -0.29017,
				"method": "rhf"
			},
			{
				"type": "occ",
				"energy": -0.2774,
				"method": "rhf"
			},
			{
				"type": "occ",
				"energy": -0.27047,
				"method": "rhf"
			},
			{
				"type": "occ",
				"energy": -0.26118,
				"method": "rhf"
			},
			{
				"type": "occ",
				"energy": -0.21803,
				"method": "rhf"
			},
			{
				"type": "unocc",
				"energy": -0.04382,
				"method": "rhf"
			},
			{
				"type": "unocc",
				"energy": -0.01518,
				"method": "rhf"
			},
			{
				"type": "unocc",
				"energy": -0.00527,
				"method": "rhf"
			},
			{
				"type": "unocc",
				"energy": 0.0122,
				"method": "rhf"
			},
			{
				"type": "unocc",
				"energy": 0.03352,
				"method": "rhf"
			}
		],
		"cosmo_sigma_profile": { 
			"-0.025": 0.0,
			"-0.024": 0.0,
			"-0.023": 0.0,
			"-0.022": 0.0,
			"-0.021": 0.0,
			"-0.02": 0.0,
			"-0.019": 0.0,
			"-0.018": 0.0,
			"-0.017": 0.0,
			"-0.016": 0.0,
			"-0.015": 0.0,
			"-0.014": 0.0,
			"-0.013": 0.0,
			"-0.012": 0.0,
			"-0.011": 0.0,
			"-0.01": 0.84794009938,
			"-0.009": 2.43489198751,
			"-0.008": 3.2004815675,
			"-0.007": 5.40458015192,
			"-0.006": 10.4080797301,
			"-0.005": 15.5018868092,
			"-0.004": 14.9357009877,
			"-0.003": 14.1911940593,
			"-0.002": 15.9774120332,
			"-0.001": 15.5929568103,
			"0.0": 15.714644842,
			"0.001": 20.5050015347,
			"0.002": 28.6208125416,
			"0.003": 31.397254567,
			"0.004": 22.6235272614,
			"0.005": 9.86235311023,
			"0.006": 1.9584619643,
			"0.007": 1.38638557977,
			"0.008": 1.39934231389,
			"0.009": 1.59901801904,
			"0.01": 1.44304652042,
			"0.011": 0.672216797476,
			"0.012": 0.0,
			"0.013": 0.0,
			"0.014": 0.0,
			"0.015": 0.0,
			"0.016": 0.0,
			"0.017": 0.0,
			"0.018": 0.0,
			"0.019": 0.0,
			"0.02": 0.0,
			"0.021": 0.0,
			"0.022": 0.0,
			"0.023": 0.0,
			"0.024": 0.0,
			"0.0": 0.0
		}
	}
}
