{
	 "smiles": "ClCC(=O)NC1=CC=C(CC#N)C=C1", 
	 "Tm": 396.15, 
	 "num_atms": 23, 
	 "gaussian": { 
		 "optdone": 1, 
		 "sigma_profile": "yes", 
		 "theory": "DFT", 
		 "functional": "B3LYP", 
		 "basiset": "6-31G**", 
		 "properties": { 
			 "R2extent": 5763.1805, 
			 "electric_dipole_moment_norm": 2.69308918159, 
			 "electric_quadrupole_moment_norm": 23.5207039555, 
			 "total_energy": -1031.41093662, 
			 "HOMO_LUMO_gap": 0.20353, 
			 "cosmo_polarized_energy": -16.07, 
			 "cosmo_cavitation_energy": 30.26, 
			 "cosmo_dispersion_energy": -21.78, 
			 "cosmo_repulsion_energy": 1.72, 
			 "cosmo_total_nonelectrostatic_energy": 10.2, 
			 "SMD_solvation_energy": 6.64 
		},
		"coords": [
			{
				"x": 2.1431329112,
				"y": -1.3927209125,
				"z": -5.3712715002,
				"element": "Cl" 
			},
			{
				"x": 3.2464666363,
				"y": -0.4855331486,
				"z": -4.2496853094,
				"element": "C" 
			},
			{
				"x": 2.6834551717,
				"y": -0.0877879983,
				"z": -2.8797590213,
				"element": "C" 
			},
			{
				"x": 3.4403341029,
				"y": 0.517749493,
				"z": -2.1332585333,
				"element": "O" 
			},
			{
				"x": 1.3958008507,
				"y": -0.4396871001,
				"z": -2.6123189524,
				"element": "N" 
			},
			{
				"x": 0.6468802744,
				"y": -0.196134146,
				"z": -1.4405326643,
				"element": "C" 
			},
			{
				"x": 1.1583697085,
				"y": 0.4903654851,
				"z": -0.3285596678,
				"element": "C" 
			},
			{
				"x": 0.3437007821,
				"y": 0.688123706,
				"z": 0.7834726744,
				"element": "C" 
			},
			{
				"x": -0.9730917187,
				"y": 0.217029971,
				"z": 0.8249644664,
				"element": "C" 
			},
			{
				"x": -1.7964471881,
				"y": 0.4330980368,
				"z": 2.0898479526,
				"element": "C" 
			},
			{
				"x": -3.2397426147,
				"y": 0.2542761461,
				"z": 1.9122396056,
				"element": "C" 
			},
			{
				"x": -4.3809505785,
				"y": 0.101513514,
				"z": 1.7672186188,
				"element": "N" 
			},
			{
				"x": -1.4722798695,
				"y": -0.4640537347,
				"z": -0.2885478375,
				"element": "C" 
			},
			{
				"x": -0.6725550168,
				"y": -0.6679951249,
				"z": -1.4092705893,
				"element": "C" 
			},
			{
				"x": 3.5533195158,
				"y": 0.4236348377,
				"z": -4.7672188853,
				"element": "H" 
			},
			{
				"x": 4.1240600161,
				"y": -1.111393911,
				"z": -4.0866304407,
				"element": "H" 
			},
			{
				"x": 0.9146867873,
				"y": -0.9406661891,
				"z": -3.3486924337,
				"element": "H" 
			},
			{
				"x": 2.1734349615,
				"y": 0.8606820922,
				"z": -0.3493257061,
				"element": "H" 
			},
			{
				"x": 0.7504404399,
				"y": 1.2249414432,
				"z": 1.6372453385,
				"element": "H" 
			},
			{
				"x": -1.4714320709,
				"y": -0.2592546913,
				"z": 2.8786568664,
				"element": "H" 
			},
			{
				"x": -1.6256867323,
				"y": 1.4427962319,
				"z": 2.4820484006,
				"element": "H" 
			},
			{
				"x": -2.4938540043,
				"y": -0.8316546189,
				"z": -0.2884945826,
				"element": "H" 
			},
			{
				"x": -1.0789423647,
				"y": -1.1965293815,
				"z": -2.2682277993,
				"element": "H" 
			}
		],
		 "valence_orbital": [ 
			{
				"type": "occ",
				"energy": -0.32496,
				"method": "rhf"
			},
			{
				"type": "occ",
				"energy": -0.31337,
				"method": "rhf"
			},
			{
				"type": "occ",
				"energy": -0.27358,
				"method": "rhf"
			},
			{
				"type": "occ",
				"energy": -0.26724,
				"method": "rhf"
			},
			{
				"type": "occ",
				"energy": -0.23584,
				"method": "rhf"
			},
			{
				"type": "unocc",
				"energy": -0.03231,
				"method": "rhf"
			},
			{
				"type": "unocc",
				"energy": -0.01977,
				"method": "rhf"
			},
			{
				"type": "unocc",
				"energy": 0.0023,
				"method": "rhf"
			},
			{
				"type": "unocc",
				"energy": 0.02495,
				"method": "rhf"
			},
			{
				"type": "unocc",
				"energy": 0.02846,
				"method": "rhf"
			}
		],
		"cosmo_sigma_profile": { 
			"-0.025": 0.0,
			"-0.024": 0.0,
			"-0.023": 0.0,
			"-0.022": 0.0,
			"-0.021": 0.0,
			"-0.02": 0.0,
			"-0.019": 0.0,
			"-0.018": 0.0,
			"-0.017": 0.0,
			"-0.016": 0.0,
			"-0.015": 0.0,
			"-0.014": 0.0867036877958,
			"-0.013": 0.904074550608,
			"-0.012": 0.982910013384,
			"-0.011": 0.943196330993,
			"-0.01": 1.72904325717,
			"-0.009": 8.62124524895,
			"-0.008": 11.3494995506,
			"-0.007": 13.1292441641,
			"-0.006": 14.8624059595,
			"-0.005": 15.5657606997,
			"-0.004": 13.0280918843,
			"-0.003": 9.71018171195,
			"-0.002": 12.1802275021,
			"-0.001": 12.3660020147,
			"0.0": 14.8637408386,
			"0.001": 13.6145882662,
			"0.002": 15.2004102808,
			"0.003": 15.6624855229,
			"0.004": 19.6441857448,
			"0.005": 13.7843245078,
			"0.006": 5.39838130551,
			"0.007": 3.14672660089,
			"0.008": 5.0307786236,
			"0.009": 4.20023878813,
			"0.01": 4.75049427122,
			"0.011": 5.4130750506,
			"0.012": 5.63345316045,
			"0.013": 3.41493534771,
			"0.014": 0.157460126908,
			"0.015": 0.0,
			"0.016": 0.0,
			"0.017": 0.0,
			"0.018": 0.0,
			"0.019": 0.0,
			"0.02": 0.0,
			"0.021": 0.0,
			"0.022": 0.0,
			"0.023": 0.0,
			"0.024": 0.0,
			"0.025": 0.0
		}
	}
}
