{
	 "smiles": "ClCC(=O)N(CC1=CC=C(Cl)C=C1)C12CC3CC(CC(C3)C1)C2", 
	 "Tm": 386.15, 
	 "num_atms": 46, 
	 "gaussian": { 
		 "optdone": 1, 
		 "sigma_profile": "yes", 
		 "theory": "DFT", 
		 "functional": "B3LYP", 
		 "basiset": "6-31G**", 
		 "properties": { 
			 "R2extent": 9715.4577, 
			 "electric_dipole_moment_norm": 2.55427020106, 
			 "electric_quadrupole_moment_norm": 14.3002442773, 
			 "total_energy": -1788.27855804, 
			 "HOMO_LUMO_gap": 0.2158, 
			 "cosmo_polarized_energy": -11.11, 
			 "cosmo_cavitation_energy": 45.74, 
			 "cosmo_dispersion_energy": -32.34, 
			 "cosmo_repulsion_energy": 2.46, 
			 "cosmo_total_nonelectrostatic_energy": 15.85, 
			 "SMD_solvation_energy": 5.89 
		},
		"coords": [
			{
				"x": 3.2533349685,
				"y": -0.5975323911,
				"z": -3.5971087915,
				"element": "Cl" 
			},
			{
				"x": 3.0471755544,
				"y": -1.064842474,
				"z": -1.8496058876,
				"element": "C" 
			},
			{
				"x": 1.6130555498,
				"y": -1.522940916,
				"z": -1.5339272396,
				"element": "C" 
			},
			{
				"x": 1.4253675625,
				"y": -2.7325695077,
				"z": -1.433495447,
				"element": "O" 
			},
			{
				"x": 0.6370232905,
				"y": -0.5711506125,
				"z": -1.3629631176,
				"element": "N" 
			},
			{
				"x": 0.9780424402,
				"y": 0.8530547794,
				"z": -1.4374454234,
				"element": "C" 
			},
			{
				"x": 1.3454443575,
				"y": 1.5309838619,
				"z": -0.1212375266,
				"element": "C" 
			},
			{
				"x": 1.3079354049,
				"y": 2.9309316808,
				"z": -0.0515160661,
				"element": "C" 
			},
			{
				"x": 1.68311558,
				"y": 3.6093701527,
				"z": 1.1058245391,
				"element": "C" 
			},
			{
				"x": 2.1009689628,
				"y": 2.8754452789,
				"z": 2.2167099869,
				"element": "C" 
			},
			{
				"x": 2.5712180238,
				"y": 3.7194340677,
				"z": 3.6848238242,
				"element": "Cl" 
			},
			{
				"x": 2.1448548727,
				"y": 1.484215797,
				"z": 2.1778480295,
				"element": "C" 
			},
			{
				"x": 1.7674965688,
				"y": 0.8213973173,
				"z": 1.0075572942,
				"element": "C" 
			},
			{
				"x": -0.7833747029,
				"y": -1.0150578135,
				"z": -1.074786312,
				"element": "C" 
			},
			{
				"x": -0.8429564403,
				"y": -1.7998170142,
				"z": 0.2630988386,
				"element": "C" 
			},
			{
				"x": -2.2817213026,
				"y": -2.2832603894,
				"z": 0.5399693667,
				"element": "C" 
			},
			{
				"x": -2.7560497266,
				"y": -3.1853229002,
				"z": -0.6180810207,
				"element": "C" 
			},
			{
				"x": -2.7420228749,
				"y": -2.3832734655,
				"z": -1.936088118,
				"element": "C" 
			},
			{
				"x": -3.6775113913,
				"y": -1.1667056609,
				"z": -1.8071816818,
				"element": "C" 
			},
			{
				"x": -3.1799097002,
				"y": -0.2712285209,
				"z": -0.6561192341,
				"element": "C" 
			},
			{
				"x": -3.2139548213,
				"y": -1.0639692565,
				"z": 0.6641052291,
				"element": "C" 
			},
			{
				"x": -1.7379154529,
				"y": 0.1998431348,
				"z": -0.9562953732,
				"element": "C" 
			},
			{
				"x": -1.304231558,
				"y": -1.9062789931,
				"z": -2.2331015107,
				"element": "C" 
			},
			{
				"x": 3.6834871836,
				"y": -1.9314430253,
				"z": -1.6881950069,
				"element": "H" 
			},
			{
				"x": 3.3948277189,
				"y": -0.2233416792,
				"z": -1.2501785061,
				"element": "H" 
			},
			{
				"x": 0.1460983235,
				"y": 1.3924001194,
				"z": -1.8899265887,
				"element": "H" 
			},
			{
				"x": 1.7982974867,
				"y": 0.9785594541,
				"z": -2.1473659311,
				"element": "H" 
			},
			{
				"x": 0.9800809079,
				"y": 3.5042440707,
				"z": -0.9156244503,
				"element": "H" 
			},
			{
				"x": 1.6485397291,
				"y": 4.6923193693,
				"z": 1.1506842156,
				"element": "H" 
			},
			{
				"x": 2.4669842216,
				"y": 0.9253212447,
				"z": 3.0495714791,
				"element": "H" 
			},
			{
				"x": 1.7921289581,
				"y": -0.2631289522,
				"z": 0.9867939231,
				"element": "H" 
			},
			{
				"x": -0.5077220082,
				"y": -1.1447941433,
				"z": 1.0769761038,
				"element": "H" 
			},
			{
				"x": -0.1610921957,
				"y": -2.6502844496,
				"z": 0.2133211999,
				"element": "H" 
			},
			{
				"x": -2.2879869994,
				"y": -2.8527921534,
				"z": 1.4777505555,
				"element": "H" 
			},
			{
				"x": -2.1027855552,
				"y": -4.0624509604,
				"z": -0.7038438932,
				"element": "H" 
			},
			{
				"x": -3.7688792024,
				"y": -3.5569076016,
				"z": -0.4147345123,
				"element": "H" 
			},
			{
				"x": -3.0774776537,
				"y": -3.0239300568,
				"z": -2.7611097224,
				"element": "H" 
			},
			{
				"x": -4.7068653764,
				"y": -1.4935472828,
				"z": -1.6109992812,
				"element": "H" 
			},
			{
				"x": -3.6956506261,
				"y": -0.6008338124,
				"z": -2.7479802773,
				"element": "H" 
			},
			{
				"x": -3.8191368771,
				"y": 0.6166410858,
				"z": -0.5727889835,
				"element": "H" 
			},
			{
				"x": -2.8946680693,
				"y": -0.4265417671,
				"z": 1.4990540101,
				"element": "H" 
			},
			{
				"x": -4.2408147638,
				"y": -1.3852639876,
				"z": 0.8812292643,
				"element": "H" 
			},
			{
				"x": -1.7527841641,
				"y": 0.7663880097,
				"z": -1.8953552104,
				"element": "H" 
			},
			{
				"x": -1.400964551,
				"y": 0.8786395394,
				"z": -0.1641853228,
				"element": "H" 
			},
			{
				"x": -1.2805653072,
				"y": -1.3264636644,
				"z": -3.1651033035,
				"element": "H" 
			},
			{
				"x": -0.6433363452,
				"y": -2.7645155119,
				"z": -2.3607741202,
				"element": "H" 
			}
		],
		 "valence_orbital": [ 
			{
				"type": "occ",
				"energy": -0.28487,
				"method": "rhf"
			},
			{
				"type": "occ",
				"energy": -0.2729,
				"method": "rhf"
			},
			{
				"type": "occ",
				"energy": -0.25166,
				"method": "rhf"
			},
			{
				"type": "occ",
				"energy": -0.24978,
				"method": "rhf"
			},
			{
				"type": "occ",
				"energy": -0.24556,
				"method": "rhf"
			},
			{
				"type": "unocc",
				"energy": -0.02976,
				"method": "rhf"
			},
			{
				"type": "unocc",
				"energy": -0.02216,
				"method": "rhf"
			},
			{
				"type": "unocc",
				"energy": -0.02058,
				"method": "rhf"
			},
			{
				"type": "unocc",
				"energy": 0.02422,
				"method": "rhf"
			},
			{
				"type": "unocc",
				"energy": 0.05076,
				"method": "rhf"
			}
		],
		"cosmo_sigma_profile": { 
			"-0.025": 0.0,
			"-0.024": 0.0,
			"-0.023": 0.0,
			"-0.022": 0.0,
			"-0.021": 0.0,
			"-0.02": 0.0,
			"-0.019": 0.0,
			"-0.018": 0.0,
			"-0.017": 0.0,
			"-0.016": 0.0,
			"-0.015": 0.0,
			"-0.014": 0.0,
			"-0.013": 0.0,
			"-0.012": 0.0,
			"-0.011": 0.0,
			"-0.01": 0.0,
			"-0.009": 0.0373778296746,
			"-0.008": 2.83053391712,
			"-0.007": 10.7469826167,
			"-0.006": 15.4913004147,
			"-0.005": 17.1217201313,
			"-0.004": 12.938397174,
			"-0.003": 15.9325561623,
			"-0.002": 43.4911838516,
			"-0.001": 49.0082124766,
			"0.0": 49.4870682615,
			"0.001": 37.5916015206,
			"0.002": 26.8286160651,
			"0.003": 21.8464760105,
			"0.004": 23.0739679864,
			"0.005": 17.5502052509,
			"0.006": 4.68009890337,
			"0.007": 1.49824103582,
			"0.008": 1.91813763616,
			"0.009": 1.37735076435,
			"0.01": 1.26793012077,
			"0.011": 1.44100241722,
			"0.012": 1.82143524792,
			"0.013": 2.89283498801,
			"0.014": 1.38444873534,
			"0.015": 0.0,
			"0.016": 0.0,
			"0.017": 0.0,
			"0.018": 0.0,
			"0.019": 0.0,
			"0.02": 0.0,
			"0.021": 0.0,
			"0.022": 0.0,
			"0.023": 0.0,
			"0.024": 0.0,
			"0.025": 0.0
		}
	}
}
