{
	 "smiles": "ClC1=CC(=CC=C1)N(C1CCOC1=O)C(=O)C1CC1", 
	 "Tm": 368.15, 
	 "num_atms": 33, 
	 "gaussian": { 
		 "optdone": 1, 
		 "sigma_profile": "yes", 
		 "theory": "DFT", 
		 "functional": "B3LYP", 
		 "basiset": "6-31G**", 
		 "properties": { 
			 "R2extent": 6364.4788, 
			 "electric_dipole_moment_norm": 2.92958369909, 
			 "electric_quadrupole_moment_norm": 20.8953485668, 
			 "total_energy": -1282.53117181, 
			 "HOMO_LUMO_gap": 0.21707, 
			 "cosmo_polarized_energy": -15.49, 
			 "cosmo_cavitation_energy": 37.99, 
			 "cosmo_dispersion_energy": -26.11, 
			 "cosmo_repulsion_energy": 2.07, 
			 "cosmo_total_nonelectrostatic_energy": 13.94, 
			 "SMD_solvation_energy": 7.26 
		},
		"coords": [
			{
				"x": -0.3789451753,
				"y": 4.4915087503,
				"z": -1.1286052836,
				"element": "Cl" 
			},
			{
				"x": -0.4847782881,
				"y": 2.9374730309,
				"z": -0.3139673452,
				"element": "C" 
			},
			{
				"x": 0.567216542,
				"y": 2.0319188691,
				"z": -0.4393309316,
				"element": "C" 
			},
			{
				"x": 0.4814898325,
				"y": 0.7899565481,
				"z": 0.2042226026,
				"element": "C" 
			},
			{
				"x": -0.6465342199,
				"y": 0.4700747516,
				"z": 0.9691685568,
				"element": "C" 
			},
			{
				"x": -1.6835680557,
				"y": 1.3964815525,
				"z": 1.0852586073,
				"element": "C" 
			},
			{
				"x": -1.6146415934,
				"y": 2.6350487427,
				"z": 0.4456423838,
				"element": "C" 
			},
			{
				"x": 1.567192649,
				"y": -0.1418838399,
				"z": 0.0778456484,
				"element": "N" 
			},
			{
				"x": 2.5684725457,
				"y": -0.2225009359,
				"z": 1.131831159,
				"element": "C" 
			},
			{
				"x": 3.3264346452,
				"y": 1.0606237128,
				"z": 1.4972781888,
				"element": "C" 
			},
			{
				"x": 3.7921637593,
				"y": 0.7357466306,
				"z": 2.9214231869,
				"element": "C" 
			},
			{
				"x": 2.7711562255,
				"y": -0.1269028271,
				"z": 3.4775855885,
				"element": "O" 
			},
			{
				"x": 2.0296165843,
				"y": -0.694622998,
				"z": 2.4914463599,
				"element": "C" 
			},
			{
				"x": 1.1228529108,
				"y": -1.4551701188,
				"z": 2.7150111991,
				"element": "O" 
			},
			{
				"x": 1.7501029906,
				"y": -0.9605348915,
				"z": -1.0354662876,
				"element": "C" 
			},
			{
				"x": 2.7409699222,
				"y": -1.680019647,
				"z": -1.134650734,
				"element": "O" 
			},
			{
				"x": 0.6988464739,
				"y": -0.9349167248,
				"z": -2.0947529561,
				"element": "C" 
			},
			{
				"x": 1.1778781034,
				"y": -1.0942823939,
				"z": -3.5312712511,
				"element": "C" 
			},
			{
				"x": 0.4849855685,
				"y": -2.2321293837,
				"z": -2.8599206369,
				"element": "C" 
			},
			{
				"x": 1.438446632,
				"y": 2.2764881896,
				"z": -1.036309644,
				"element": "H" 
			},
			{
				"x": -0.6894777291,
				"y": -0.4916182437,
				"z": 1.4661811419,
				"element": "H" 
			},
			{
				"x": -2.5597080856,
				"y": 1.1505837245,
				"z": 1.677374859,
				"element": "H" 
			},
			{
				"x": -2.4206960429,
				"y": 3.3551240362,
				"z": 0.5312488212,
				"element": "H" 
			},
			{
				"x": 3.2722552003,
				"y": -0.990274493,
				"z": 0.7872152439,
				"element": "H" 
			},
			{
				"x": 2.647670506,
				"y": 1.9191562505,
				"z": 1.5036240115,
				"element": "H" 
			},
			{
				"x": 4.1566764218,
				"y": 1.2775912824,
				"z": 0.8214900147,
				"element": "H" 
			},
			{
				"x": 3.8765745989,
				"y": 1.6065024026,
				"z": 3.5743192978,
				"element": "H" 
			},
			{
				"x": 4.7438072318,
				"y": 0.1921233404,
				"z": 2.9290231227,
				"element": "H" 
			},
			{
				"x": -0.1699542108,
				"y": -0.3115291063,
				"z": -1.9291432426,
				"element": "H" 
			},
			{
				"x": 2.2511066502,
				"y": -1.1755845805,
				"z": -3.6664895485,
				"element": "H" 
			},
			{
				"x": 0.6496135118,
				"y": -0.527438507,
				"z": -4.2913754416,
				"element": "H" 
			},
			{
				"x": 1.0945871817,
				"y": -3.0719064106,
				"z": -2.5450299319,
				"element": "H" 
			},
			{
				"x": -0.5353132865,
				"y": -2.4692867129,
				"z": -3.1438767592,
				"element": "H" 
			}
		],
		 "valence_orbital": [ 
			{
				"type": "occ",
				"energy": -0.28399,
				"method": "rhf"
			},
			{
				"type": "occ",
				"energy": -0.27868,
				"method": "rhf"
			},
			{
				"type": "occ",
				"energy": -0.26356,
				"method": "rhf"
			},
			{
				"type": "occ",
				"energy": -0.25726,
				"method": "rhf"
			},
			{
				"type": "occ",
				"energy": -0.24987,
				"method": "rhf"
			},
			{
				"type": "unocc",
				"energy": -0.0328,
				"method": "rhf"
			},
			{
				"type": "unocc",
				"energy": -0.02934,
				"method": "rhf"
			},
			{
				"type": "unocc",
				"energy": 0.00249,
				"method": "rhf"
			},
			{
				"type": "unocc",
				"energy": 0.01111,
				"method": "rhf"
			},
			{
				"type": "unocc",
				"energy": 0.02137,
				"method": "rhf"
			}
		],
		"cosmo_sigma_profile": { 
			"-0.025": 0.0,
			"-0.024": 0.0,
			"-0.023": 0.0,
			"-0.022": 0.0,
			"-0.021": 0.0,
			"-0.02": 0.0,
			"-0.019": 0.0,
			"-0.018": 0.0,
			"-0.017": 0.0,
			"-0.016": 0.0,
			"-0.015": 0.0,
			"-0.014": 0.0,
			"-0.013": 0.0,
			"-0.012": 0.0,
			"-0.011": 0.0,
			"-0.01": 0.166056556726,
			"-0.009": 1.30506192694,
			"-0.008": 3.04555506721,
			"-0.007": 11.1563230275,
			"-0.006": 19.839416482,
			"-0.005": 27.5792095568,
			"-0.004": 25.3630345676,
			"-0.003": 22.69966235,
			"-0.002": 20.0901670689,
			"-0.001": 20.8887070922,
			"0.0": 23.5691083372,
			"0.001": 25.2686559877,
			"0.002": 22.3166396055,
			"0.003": 17.8223031682,
			"0.004": 16.3414281728,
			"0.005": 8.99503046323,
			"0.006": 4.07812170234,
			"0.007": 4.17853350191,
			"0.008": 3.59749741719,
			"0.009": 5.65027674733,
			"0.01": 5.13211401233,
			"0.011": 6.47923116821,
			"0.012": 4.29973050537,
			"0.013": 4.18996846225,
			"0.014": 0.461340325621,
			"0.015": 0.0,
			"0.016": 0.0,
			"0.017": 0.0,
			"0.018": 0.0,
			"0.019": 0.0,
			"0.02": 0.0,
			"0.021": 0.0,
			"0.022": 0.0,
			"0.023": 0.0,
			"0.024": 0.0,
			"0.025": 0.0
		}
	}
}
