{
	 "smiles": "CC1(C)CC(=O)C2=C(C1)NC1=C(C2C2=CC=CC=C2)C2=C(C=CC=C2)C=C1", 
	 "Tm": 587.15, 
	 "num_atms": 50, 
	 "gaussian": { 
		 "optdone": 1, 
		 "sigma_profile": "yes", 
		 "theory": "DFT", 
		 "functional": "B3LYP", 
		 "basiset": "6-31G**", 
		 "properties": { 
			 "R2extent": 9877.9892, 
			 "electric_dipole_moment_norm": 5.05377760789, 
			 "electric_quadrupole_moment_norm": 11.7850913276, 
			 "total_energy": -1096.53960558, 
			 "HOMO_LUMO_gap": 0.15034, 
			 "cosmo_polarized_energy": -18.81, 
			 "cosmo_cavitation_energy": 49.6, 
			 "cosmo_dispersion_energy": -33.62, 
			 "cosmo_repulsion_energy": 2.5, 
			 "cosmo_total_nonelectrostatic_energy": 18.48, 
			 "SMD_solvation_energy": 7.67 
		},
		"coords": [
			{
				"x": 3.8983741249,
				"y": 2.2246007254,
				"z": 2.2168626917,
				"element": "C" 
			},
			{
				"x": 2.556975733,
				"y": 1.513347767,
				"z": 1.9711933428,
				"element": "C" 
			},
			{
				"x": 2.2756899704,
				"y": 0.5512799196,
				"z": 3.1436133101,
				"element": "C" 
			},
			{
				"x": 1.4253968264,
				"y": 2.5540751743,
				"z": 1.8424054282,
				"element": "C" 
			},
			{
				"x": 0.0802462092,
				"y": 1.9835779012,
				"z": 1.3923764387,
				"element": "C" 
			},
			{
				"x": -0.9653989945,
				"y": 2.5567983882,
				"z": 1.6990632973,
				"element": "O" 
			},
			{
				"x": 0.0965351077,
				"y": 0.7916597689,
				"z": 0.5484471806,
				"element": "C" 
			},
			{
				"x": 1.2844761003,
				"y": 0.2485239185,
				"z": 0.157857358,
				"element": "C" 
			},
			{
				"x": 2.62830172,
				"y": 0.7356286397,
				"z": 0.6378633555,
				"element": "C" 
			},
			{
				"x": 1.3037588818,
				"y": -0.7660048034,
				"z": -0.7670007283,
				"element": "N" 
			},
			{
				"x": 0.1827630042,
				"y": -1.0670494745,
				"z": -1.5560718478,
				"element": "C" 
			},
			{
				"x": -1.0670474119,
				"y": -0.5852474596,
				"z": -1.1923711441,
				"element": "C" 
			},
			{
				"x": -1.2312075226,
				"y": 0.1850447055,
				"z": 0.1124822601,
				"element": "C" 
			},
			{
				"x": -1.8389584971,
				"y": -0.6710199328,
				"z": 1.2388929291,
				"element": "C" 
			},
			{
				"x": -1.5441663584,
				"y": -2.0348131059,
				"z": 1.3670255539,
				"element": "C" 
			},
			{
				"x": -2.0833993938,
				"y": -2.7870116171,
				"z": 2.4120898993,
				"element": "C" 
			},
			{
				"x": -2.9285063002,
				"y": -2.1870102547,
				"z": 3.3469651917,
				"element": "C" 
			},
			{
				"x": -3.2268891633,
				"y": -0.8281951923,
				"z": 3.2293466654,
				"element": "C" 
			},
			{
				"x": -2.6863039021,
				"y": -0.0763302953,
				"z": 2.185306287,
				"element": "C" 
			},
			{
				"x": -2.182660326,
				"y": -0.8639805724,
				"z": -2.0449328149,
				"element": "C" 
			},
			{
				"x": -1.9893540876,
				"y": -1.6282225116,
				"z": -3.2451844377,
				"element": "C" 
			},
			{
				"x": -3.0957953669,
				"y": -1.8948948459,
				"z": -4.0924258449,
				"element": "C" 
			},
			{
				"x": -4.355416596,
				"y": -1.4360914354,
				"z": -3.778952185,
				"element": "C" 
			},
			{
				"x": -4.5549585132,
				"y": -0.6944790443,
				"z": -2.5917620503,
				"element": "C" 
			},
			{
				"x": -3.5015595467,
				"y": -0.4192818267,
				"z": -1.7467837862,
				"element": "C" 
			},
			{
				"x": -0.6889241749,
				"y": -2.1102442208,
				"z": -3.5548748639,
				"element": "C" 
			},
			{
				"x": 0.3728112527,
				"y": -1.8390633413,
				"z": -2.7327359922,
				"element": "C" 
			},
			{
				"x": 4.7208496109,
				"y": 1.5032371711,
				"z": 2.2887942499,
				"element": "H" 
			},
			{
				"x": 3.8710351304,
				"y": 2.791098377,
				"z": 3.1537732201,
				"element": "H" 
			},
			{
				"x": 4.1346749408,
				"y": 2.9259177754,
				"z": 1.4085445244,
				"element": "H" 
			},
			{
				"x": 1.3389189881,
				"y": 0.0037015516,
				"z": 3.0100131154,
				"element": "H" 
			},
			{
				"x": 2.2079340952,
				"y": 1.1066228888,
				"z": 4.0850829693,
				"element": "H" 
			},
			{
				"x": 3.0846238045,
				"y": -0.1811074107,
				"z": 3.2471130171,
				"element": "H" 
			},
			{
				"x": 1.7143486807,
				"y": 3.3162532165,
				"z": 1.1033088323,
				"element": "H" 
			},
			{
				"x": 1.2592116814,
				"y": 3.0839338062,
				"z": 2.7856569338,
				"element": "H" 
			},
			{
				"x": 3.0630005265,
				"y": 1.3830697808,
				"z": -0.1389014654,
				"element": "H" 
			},
			{
				"x": 3.3087178643,
				"y": -0.1220212055,
				"z": 0.7377188561,
				"element": "H" 
			},
			{
				"x": 2.2002843553,
				"y": -1.1013337798,
				"z": -1.0868756438,
				"element": "H" 
			},
			{
				"x": -1.9144996149,
				"y": 1.0261464487,
				"z": -0.0459646535,
				"element": "H" 
			},
			{
				"x": -0.9005858785,
				"y": -2.517103557,
				"z": 0.6372182044,
				"element": "H" 
			},
			{
				"x": -1.8466991067,
				"y": -3.84479966,
				"z": 2.491587454,
				"element": "H" 
			},
			{
				"x": -3.3515602798,
				"y": -2.7730496918,
				"z": 4.158178307,
				"element": "H" 
			},
			{
				"x": -3.8831931434,
				"y": -0.3501460821,
				"z": 3.9516923034,
				"element": "H" 
			},
			{
				"x": -2.8954365602,
				"y": 0.9859297303,
				"z": 2.108697097,
				"element": "H" 
			},
			{
				"x": -2.9284639969,
				"y": -2.4721975798,
				"z": -4.9984658718,
				"element": "H" 
			},
			{
				"x": -5.1950962993,
				"y": -1.6461787088,
				"z": -4.4348363832,
				"element": "H" 
			},
			{
				"x": -5.551173146,
				"y": -0.3423141522,
				"z": -2.3397209317,
				"element": "H" 
			},
			{
				"x": -3.6851939373,
				"y": 0.1318825766,
				"z": -0.8320931259,
				"element": "H" 
			},
			{
				"x": -0.5451052482,
				"y": -2.6958593506,
				"z": -4.4588082439,
				"element": "H" 
			},
			{
				"x": 1.3690247577,
				"y": -2.2003791187,
				"z": -2.977708259,
				"element": "H" 
			}
		],
		 "valence_orbital": [ 
			{
				"type": "occ",
				"energy": -0.23539,
				"method": "rhf"
			},
			{
				"type": "occ",
				"energy": -0.23406,
				"method": "rhf"
			},
			{
				"type": "occ",
				"energy": -0.22247,
				"method": "rhf"
			},
			{
				"type": "occ",
				"energy": -0.21925,
				"method": "rhf"
			},
			{
				"type": "occ",
				"energy": -0.19449,
				"method": "rhf"
			},
			{
				"type": "unocc",
				"energy": -0.04415,
				"method": "rhf"
			},
			{
				"type": "unocc",
				"energy": -0.02688,
				"method": "rhf"
			},
			{
				"type": "unocc",
				"energy": 0.00156,
				"method": "rhf"
			},
			{
				"type": "unocc",
				"energy": 0.01205,
				"method": "rhf"
			},
			{
				"type": "unocc",
				"energy": 0.01317,
				"method": "rhf"
			}
		],
		"cosmo_sigma_profile": { 
			"-0.025": 0.0,
			"-0.024": 0.0,
			"-0.023": 0.0,
			"-0.022": 0.0,
			"-0.021": 0.0,
			"-0.02": 0.0,
			"-0.019": 0.0,
			"-0.018": 0.0,
			"-0.017": 0.0,
			"-0.016": 0.071204075116,
			"-0.015": 1.35912244603,
			"-0.014": 0.849614706118,
			"-0.013": 1.78370314064,
			"-0.012": 1.60918315693,
			"-0.011": 1.23235966644,
			"-0.01": 1.98384186216,
			"-0.009": 1.3411829628,
			"-0.008": 1.63833535584,
			"-0.007": 3.18021080564,
			"-0.006": 10.3467016337,
			"-0.005": 24.650708066,
			"-0.004": 31.4758140485,
			"-0.003": 42.6341755054,
			"-0.002": 34.283948198,
			"-0.001": 31.3051414769,
			"0.0": 32.6226453507,
			"0.001": 33.6457552808,
			"0.002": 24.4719734081,
			"0.003": 23.9281252428,
			"0.004": 30.0431017517,
			"0.005": 23.8479519685,
			"0.006": 13.7205416492,
			"0.007": 5.17131398493,
			"0.008": 2.31254760004,
			"0.009": 1.26114827046,
			"0.01": 1.53348931386,
			"0.011": 1.67702377614,
			"0.012": 1.97806757159,
			"0.013": 2.27027139218,
			"0.014": 2.77421419131,
			"0.015": 1.3856549275,
			"0.016": 0.240373721037,
			"0.017": 0.0,
			"0.018": 0.0,
			"0.019": 0.0,
			"0.02": 0.0,
			"0.021": 0.0,
			"0.022": 0.0,
			"0.023": 0.0,
			"0.024": 0.0,
			"0.025": 0.0
		}
	}
}
