{
	 "smiles": "ClC1=CC(OCC2CO2)=C(Cl)C=C1", 
	 "Tm": 336.15, 
	 "num_atms": 21, 
	 "gaussian": { 
		 "optdone": 1, 
		 "sigma_profile": "yes", 
		 "theory": "DFT", 
		 "functional": "B3LYP", 
		 "basiset": "6-31G**", 
		 "properties": { 
			 "R2extent": 4150.0178, 
			 "electric_dipole_moment_norm": 0.712083941681, 
			 "electric_quadrupole_moment_norm": 12.7718551354, 
			 "total_energy": -1418.54438859, 
			 "HOMO_LUMO_gap": 0.21811, 
			 "cosmo_polarized_energy": -8.26, 
			 "cosmo_cavitation_energy": 29.4, 
			 "cosmo_dispersion_energy": -21.21, 
			 "cosmo_repulsion_energy": 1.7, 
			 "cosmo_total_nonelectrostatic_energy": 9.89, 
			 "SMD_solvation_energy": 4.62 
		},
		"coords": [
			{
				"x": -1.6310013313,
				"y": -1.1523305543,
				"z": 3.4503729417,
				"element": "Cl" 
			},
			{
				"x": -0.3162389606,
				"y": -0.7801249266,
				"z": 2.3483460589,
				"element": "C" 
			},
			{
				"x": -0.5265701545,
				"y": 0.1385270112,
				"z": 1.3231153373,
				"element": "C" 
			},
			{
				"x": 0.513481228,
				"y": 0.4471984953,
				"z": 0.441380497,
				"element": "C" 
			},
			{
				"x": 0.3093340933,
				"y": 1.3938063378,
				"z": -0.5257270082,
				"element": "O" 
			},
			{
				"x": -0.0660313986,
				"y": 0.8867694413,
				"z": -1.8185634637,
				"element": "C" 
			},
			{
				"x": -0.0088147208,
				"y": 2.0416150039,
				"z": -2.7859733595,
				"element": "C" 
			},
			{
				"x": -1.2038547604,
				"y": 2.8382900153,
				"z": -3.0916462855,
				"element": "C" 
			},
			{
				"x": -0.7293310196,
				"y": 1.8381713777,
				"z": -4.0041551168,
				"element": "O" 
			},
			{
				"x": 1.7592594552,
				"y": -0.1792140065,
				"z": 0.6067698595,
				"element": "C" 
			},
			{
				"x": 3.0823027077,
				"y": 0.2125137743,
				"z": -0.4708496658,
				"element": "Cl" 
			},
			{
				"x": 1.956988352,
				"y": -1.0981411881,
				"z": 1.6365895107,
				"element": "C" 
			},
			{
				"x": 0.9183450544,
				"y": -1.4068060651,
				"z": 2.5138517427,
				"element": "C" 
			},
			{
				"x": -1.4820384798,
				"y": 0.6348913593,
				"z": 1.1999360256,
				"element": "H" 
			},
			{
				"x": -1.0815564074,
				"y": 0.4703031077,
				"z": -1.7889226696,
				"element": "H" 
			},
			{
				"x": 0.625805261,
				"y": 0.0949079539,
				"z": -2.1307455451,
				"element": "H" 
			},
			{
				"x": 0.9730457109,
				"y": 2.5036015782,
				"z": -2.8970054746,
				"element": "H" 
			},
			{
				"x": -1.0920455662,
				"y": 3.8686197172,
				"z": -3.4271159448,
				"element": "H" 
			},
			{
				"x": -2.1449891786,
				"y": 2.6080082167,
				"z": -2.5921783596,
				"element": "H" 
			},
			{
				"x": 2.9273155251,
				"y": -1.5682274088,
				"z": 1.7521494219,
				"element": "H" 
			},
			{
				"x": 1.0690945903,
				"y": -2.1185792403,
				"z": 3.3170714977,
				"element": "H" 
			}
		],
		 "valence_orbital": [ 
			{
				"type": "occ",
				"energy": -0.31659,
				"method": "rhf"
			},
			{
				"type": "occ",
				"energy": -0.29202,
				"method": "rhf"
			},
			{
				"type": "occ",
				"energy": -0.27882,
				"method": "rhf"
			},
			{
				"type": "occ",
				"energy": -0.2701,
				"method": "rhf"
			},
			{
				"type": "occ",
				"energy": -0.24797,
				"method": "rhf"
			},
			{
				"type": "unocc",
				"energy": -0.02986,
				"method": "rhf"
			},
			{
				"type": "unocc",
				"energy": -0.02535,
				"method": "rhf"
			},
			{
				"type": "unocc",
				"energy": 0.00962,
				"method": "rhf"
			},
			{
				"type": "unocc",
				"energy": 0.03221,
				"method": "rhf"
			},
			{
				"type": "unocc",
				"energy": 0.07599,
				"method": "rhf"
			}
		],
		"cosmo_sigma_profile": { 
			"-0.025": 0.0,
			"-0.024": 0.0,
			"-0.023": 0.0,
			"-0.022": 0.0,
			"-0.021": 0.0,
			"-0.02": 0.0,
			"-0.019": 0.0,
			"-0.018": 0.0,
			"-0.017": 0.0,
			"-0.016": 0.0,
			"-0.015": 0.0,
			"-0.014": 0.0,
			"-0.013": 0.0,
			"-0.012": 0.0,
			"-0.011": 0.0,
			"-0.01": 0.0,
			"-0.009": 0.139176077283,
			"-0.008": 4.15707899101,
			"-0.007": 8.18644983205,
			"-0.006": 14.4505202739,
			"-0.005": 18.0915019044,
			"-0.004": 16.5929890386,
			"-0.003": 15.7181219473,
			"-0.002": 13.8215859802,
			"-0.001": 14.181606263,
			"0.0": 18.6132997041,
			"0.001": 28.3203087408,
			"0.002": 23.4407390492,
			"0.003": 15.5373432226,
			"0.004": 19.6864960047,
			"0.005": 7.74326289184,
			"0.006": 3.45487609717,
			"0.007": 2.85161403997,
			"0.008": 2.71988739281,
			"0.009": 3.15493839323,
			"0.01": 2.90941587377,
			"0.011": 3.74857114167,
			"0.012": 1.71642141532,
			"0.013": 0.116039017152,
			"0.014": 0.0,
			"0.015": 0.0,
			"0.016": 0.0,
			"0.017": 0.0,
			"0.018": 0.0,
			"0.019": 0.0,
			"0.02": 0.0,
			"0.021": 0.0,
			"0.022": 0.0,
			"0.023": 0.0,
			"0.024": 0.0,
			"0.025": 0.0
		}
	}
}
