{
	 "smiles": "CC1=COC(C=CC(O)=O)=N1", 
	 "Tm": 377.15, 
	 "num_atms": 18, 
	 "gaussian": { 
		 "optdone": 1, 
		 "sigma_profile": "yes", 
		 "theory": "DFT", 
		 "functional": "B3LYP", 
		 "basiset": "6-31G**", 
		 "properties": { 
			 "R2extent": 4342.1501, 
			 "electric_dipole_moment_norm": 3.16612288138, 
			 "electric_quadrupole_moment_norm": 12.9451673249, 
			 "total_energy": -551.377237904, 
			 "HOMO_LUMO_gap": 0.15875, 
			 "cosmo_polarized_energy": -11.64, 
			 "cosmo_cavitation_energy": 24.05, 
			 "cosmo_dispersion_energy": -17.61, 
			 "cosmo_repulsion_energy": 1.44, 
			 "cosmo_total_nonelectrostatic_energy": 7.88, 
			 "SMD_solvation_energy": 4.85 
		},
		"coords": [
			{
				"x": 0.0576381111,
				"y": 1.8472216328,
				"z": -1.9224722618,
				"element": "C" 
			},
			{
				"x": 0.3940118112,
				"y": 0.6355172941,
				"z": -1.1164941479,
				"element": "C" 
			},
			{
				"x": -0.2066081514,
				"y": 0.143479456,
				"z": 0.0052408233,
				"element": "C" 
			},
			{
				"x": 0.4512634065,
				"y": -0.9901601619,
				"z": 0.3894672983,
				"element": "O" 
			},
			{
				"x": 1.4437069044,
				"y": -1.1385900185,
				"z": -0.5369835211,
				"element": "C" 
			},
			{
				"x": 2.349510993,
				"y": -2.2552054059,
				"z": -0.4365328938,
				"element": "C" 
			},
			{
				"x": 2.3125093877,
				"y": -3.2028783376,
				"z": 0.517339174,
				"element": "C" 
			},
			{
				"x": 3.3026868309,
				"y": -4.2972381001,
				"z": 0.5052374467,
				"element": "C" 
			},
			{
				"x": 3.1075047792,
				"y": -5.1528092406,
				"z": 1.5408648291,
				"element": "O" 
			},
			{
				"x": 4.1931094425,
				"y": -4.4483775573,
				"z": -0.3090100467,
				"element": "O" 
			},
			{
				"x": 1.448517328,
				"y": -0.199888182,
				"z": -1.4473152884,
				"element": "N" 
			},
			{
				"x": 0.9055996815,
				"y": 2.5391049564,
				"z": -1.9533343552,
				"element": "H" 
			},
			{
				"x": -0.8032040064,
				"y": 2.3737710618,
				"z": -1.5024852016,
				"element": "H" 
			},
			{
				"x": -0.175271643,
				"y": 1.5719412723,
				"z": -2.9562356949,
				"element": "H" 
			},
			{
				"x": -1.0435838007,
				"y": 0.4493346121,
				"z": 0.6123061411,
				"element": "H" 
			},
			{
				"x": 3.1107318803,
				"y": -2.3045834581,
				"z": -1.2095362027,
				"element": "H" 
			},
			{
				"x": 1.5721611865,
				"y": -3.1968587688,
				"z": 1.3096836268,
				"element": "H" 
			},
			{
				"x": 3.7950158588,
				"y": -5.8342810549,
				"z": 1.4568602747,
				"element": "H" 
			}
		],
		 "valence_orbital": [ 
			{
				"type": "occ",
				"energy": -0.31859,
				"method": "rhf"
			},
			{
				"type": "occ",
				"energy": -0.30117,
				"method": "rhf"
			},
			{
				"type": "occ",
				"energy": -0.29635,
				"method": "rhf"
			},
			{
				"type": "occ",
				"energy": -0.27731,
				"method": "rhf"
			},
			{
				"type": "occ",
				"energy": -0.23616,
				"method": "rhf"
			},
			{
				"type": "unocc",
				"energy": -0.07741,
				"method": "rhf"
			},
			{
				"type": "unocc",
				"energy": 0.02146,
				"method": "rhf"
			},
			{
				"type": "unocc",
				"energy": 0.05337,
				"method": "rhf"
			},
			{
				"type": "unocc",
				"energy": 0.08236,
				"method": "rhf"
			},
			{
				"type": "unocc",
				"energy": 0.10426,
				"method": "rhf"
			}
		],
		"cosmo_sigma_profile": { 
			"-0.025": 0.0,
			"-0.024": 0.0,
			"-0.023": 0.0,
			"-0.022": 0.0,
			"-0.021": 0.0,
			"-0.02": 0.0,
			"-0.019": 0.0105834134661,
			"-0.018": 0.772480649252,
			"-0.017": 0.937827448835,
			"-0.016": 0.911124744251,
			"-0.015": 0.682625721519,
			"-0.014": 0.735539344876,
			"-0.013": 0.737676689095,
			"-0.012": 0.191649560941,
			"-0.011": 1.22991514594,
			"-0.01": 2.36345680962,
			"-0.009": 2.25559168552,
			"-0.008": 2.92861198541,
			"-0.007": 4.44222226225,
			"-0.006": 6.35876141743,
			"-0.005": 9.28186688018,
			"-0.004": 10.2484121887,
			"-0.003": 10.8397127438,
			"-0.002": 18.0674070899,
			"-0.001": 25.1232958742,
			"0.0": 20.3690277212,
			"0.001": 16.3082643719,
			"0.002": 8.10565298538,
			"0.003": 5.96381240452,
			"0.004": 6.14867901712,
			"0.005": 7.05973005518,
			"0.006": 2.85202056047,
			"0.007": 3.42396096423,
			"0.008": 4.07433469645,
			"0.009": 4.12344273433,
			"0.01": 3.73053194959,
			"0.011": 3.58724516754,
			"0.012": 5.8932616928,
			"0.013": 0.909942515947,
			"0.014": 0.708935459312,
			"0.015": 0.870503654436,
			"0.016": 0.152017801408,
			"0.017": 0.0,
			"0.018": 0.0,
			"0.019": 0.0,
			"0.02": 0.0,
			"0.021": 0.0,
			"0.022": 0.0,
			"0.023": 0.0,
			"0.024": 0.0,
			"0.025": 0.0
		}
	}
}
