{
	 "smiles": "[O-][N+](=O)C1=CC(=C(C=C1)C#CC1=CC=C(C=C1S(=O)(=O)OC1=CC=CC=C1)[N+]([O-])=O)S(=O)(=O)OC1=CC=CC=C1", 
	 "Tm": 459.15, 
	 "num_atms": 56, 
	 "gaussian": { 
		 "optdone": 1, 
		 "sigma_profile": "yes", 
		 "theory": "DFT", 
		 "functional": "B3LYP", 
		 "basiset": "6-31G**", 
		 "properties": { 
			 "R2extent": 23913.3098, 
			 "electric_dipole_moment_norm": 1.26982210959, 
			 "electric_quadrupole_moment_norm": 50.6064414815, 
			 "total_energy": -2658.10358322, 
			 "HOMO_LUMO_gap": 0.12942, 
			 "cosmo_polarized_energy": -26.0, 
			 "cosmo_cavitation_energy": 68.84, 
			 "cosmo_dispersion_energy": -43.19, 
			 "cosmo_repulsion_energy": 3.13, 
			 "cosmo_total_nonelectrostatic_energy": 28.78, 
			 "SMD_solvation_energy": 14.01 
		},
		"coords": [
			{
				"x": 0.986341254,
				"y": -5.7058935914,
				"z": -4.0739843364,
				"element": "O" 
			},
			{
				"x": -0.0670070596,
				"y": -5.1933878351,
				"z": -3.7043358367,
				"element": "N" 
			},
			{
				"x": -1.1910751916,
				"y": -5.6409343122,
				"z": -3.9229487171,
				"element": "O" 
			},
			{
				"x": 0.0204992602,
				"y": -3.9382979409,
				"z": -2.9359629541,
				"element": "C" 
			},
			{
				"x": 1.2766575239,
				"y": -3.4086138387,
				"z": -2.6624224175,
				"element": "C" 
			},
			{
				"x": 1.357228248,
				"y": -2.225238563,
				"z": -1.9338037778,
				"element": "C" 
			},
			{
				"x": 0.1906365545,
				"y": -1.569731758,
				"z": -1.4708386803,
				"element": "C" 
			},
			{
				"x": -1.0647730855,
				"y": -2.1478115073,
				"z": -1.7730889294,
				"element": "C" 
			},
			{
				"x": -1.1538708698,
				"y": -3.3242174172,
				"z": -2.5035024021,
				"element": "C" 
			},
			{
				"x": 0.182655234,
				"y": -0.3696593903,
				"z": -0.7135563515,
				"element": "C" 
			},
			{
				"x": -0.0188711888,
				"y": 0.6478190057,
				"z": -0.0825327176,
				"element": "C" 
			},
			{
				"x": -0.1848525113,
				"y": 1.8635454314,
				"z": 0.6252865357,
				"element": "C" 
			},
			{
				"x": 0.9173370173,
				"y": 2.7342057218,
				"z": 0.7598099226,
				"element": "C" 
			},
			{
				"x": 0.7913963859,
				"y": 3.9471527911,
				"z": 1.4242165078,
				"element": "C" 
			},
			{
				"x": -0.4449117018,
				"y": 4.298452342,
				"z": 1.9621299395,
				"element": "C" 
			},
			{
				"x": -1.5589902365,
				"y": 3.4699853716,
				"z": 1.8608965277,
				"element": "C" 
			},
			{
				"x": -1.4201370464,
				"y": 2.258295527,
				"z": 1.1962252287,
				"element": "C" 
			},
			{
				"x": -2.8877567661,
				"y": 1.2249996819,
				"z": 1.0906227742,
				"element": "S" 
			},
			{
				"x": -4.0097842725,
				"y": 1.961949776,
				"z": 1.6634443024,
				"element": "O" 
			},
			{
				"x": -3.0128509503,
				"y": 0.6157802839,
				"z": -0.230645217,
				"element": "O" 
			},
			{
				"x": -2.3730074772,
				"y": 0.0810355218,
				"z": 2.1733591201,
				"element": "O" 
			},
			{
				"x": -3.0955752772,
				"y": -1.1274029977,
				"z": 2.2524076022,
				"element": "C" 
			},
			{
				"x": -4.4137444511,
				"y": -1.1414630799,
				"z": 2.7046687404,
				"element": "C" 
			},
			{
				"x": -5.0615188689,
				"y": -2.3719505009,
				"z": 2.8268175989,
				"element": "C" 
			},
			{
				"x": -4.3939060458,
				"y": -3.5588644765,
				"z": 2.516560741,
				"element": "C" 
			},
			{
				"x": -3.0691570389,
				"y": -3.520198143,
				"z": 2.0757126583,
				"element": "C" 
			},
			{
				"x": -2.4115854213,
				"y": -2.2973756204,
				"z": 1.9336863283,
				"element": "C" 
			},
			{
				"x": -0.5820772292,
				"y": 5.5876890211,
				"z": 2.6619661036,
				"element": "N" 
			},
			{
				"x": -1.684644344,
				"y": 5.8645400918,
				"z": 3.1276892254,
				"element": "O" 
			},
			{
				"x": 0.418101986,
				"y": 6.2996379423,
				"z": 2.7310613267,
				"element": "O" 
			},
			{
				"x": 3.0186771837,
				"y": -1.5979623005,
				"z": -1.6281899191,
				"element": "S" 
			},
			{
				"x": 3.0340354606,
				"y": -0.805313974,
				"z": -0.4061752793,
				"element": "O" 
			},
			{
				"x": 3.9464831979,
				"y": -2.6935930037,
				"z": -1.853409949,
				"element": "O" 
			},
			{
				"x": 3.2487117619,
				"y": -0.6028306696,
				"z": -2.9413183296,
				"element": "O" 
			},
			{
				"x": 3.0047900589,
				"y": 0.7753330322,
				"z": -2.8591544797,
				"element": "C" 
			},
			{
				"x": 1.9446059544,
				"y": 1.2938317481,
				"z": -3.5999709845,
				"element": "C" 
			},
			{
				"x": 1.7407892043,
				"y": 2.6745231887,
				"z": -3.6145721629,
				"element": "C" 
			},
			{
				"x": 2.5879155836,
				"y": 3.5176436973,
				"z": -2.8921721912,
				"element": "C" 
			},
			{
				"x": 3.6473556138,
				"y": 2.9792273454,
				"z": -2.1561853313,
				"element": "C" 
			},
			{
				"x": 3.8661391245,
				"y": 1.6006781948,
				"z": -2.1365111886,
				"element": "C" 
			},
			{
				"x": 2.1703877956,
				"y": -3.9172346646,
				"z": -3.0012331939,
				"element": "H" 
			},
			{
				"x": -1.9585201386,
				"y": -1.6457973916,
				"z": -1.418094921,
				"element": "H" 
			},
			{
				"x": -2.1100896709,
				"y": -3.7741193279,
				"z": -2.73971153,
				"element": "H" 
			},
			{
				"x": 1.8649267543,
				"y": 2.4392686071,
				"z": 0.3237098703,
				"element": "H" 
			},
			{
				"x": 1.6290253418,
				"y": 4.6248939886,
				"z": 1.5315003447,
				"element": "H" 
			},
			{
				"x": -2.5073383858,
				"y": 3.7660719401,
				"z": 2.2911747115,
				"element": "H" 
			},
			{
				"x": -4.9121291658,
				"y": -0.2115730014,
				"z": 2.9534452207,
				"element": "H" 
			},
			{
				"x": -6.0896131487,
				"y": -2.3999932326,
				"z": 3.1746894842,
				"element": "H" 
			},
			{
				"x": -4.9032659644,
				"y": -4.5117529377,
				"z": 2.6221725476,
				"element": "H" 
			},
			{
				"x": -2.5450068238,
				"y": -4.4413811316,
				"z": 1.8396243562,
				"element": "H" 
			},
			{
				"x": -1.38278665,
				"y": -2.2372057321,
				"z": 1.5960536913,
				"element": "H" 
			},
			{
				"x": 1.3066257881,
				"y": 0.6213138556,
				"z": -4.1632691051,
				"element": "H" 
			},
			{
				"x": 0.9214729231,
				"y": 3.0889436753,
				"z": -4.1939163078,
				"element": "H" 
			},
			{
				"x": 2.4294663814,
				"y": 4.5915915795,
				"z": -2.9101566781,
				"element": "H" 
			},
			{
				"x": 4.3171139896,
				"y": 3.6336533622,
				"z": -1.6060399809,
				"element": "H" 
			},
			{
				"x": 4.6892714007,
				"y": 1.1666356156,
				"z": -1.5812275402,
				"element": "H" 
			}
		],
		 "valence_orbital": [ 
			{
				"type": "occ",
				"energy": -0.27858,
				"method": "rhf"
			},
			{
				"type": "occ",
				"energy": -0.2737,
				"method": "rhf"
			},
			{
				"type": "occ",
				"energy": -0.27261,
				"method": "rhf"
			},
			{
				"type": "occ",
				"energy": -0.26523,
				"method": "rhf"
			},
			{
				"type": "occ",
				"energy": -0.26401,
				"method": "rhf"
			},
			{
				"type": "unocc",
				"energy": -0.13459,
				"method": "rhf"
			},
			{
				"type": "unocc",
				"energy": -0.10642,
				"method": "rhf"
			},
			{
				"type": "unocc",
				"energy": -0.07866,
				"method": "rhf"
			},
			{
				"type": "unocc",
				"energy": -0.07371,
				"method": "rhf"
			},
			{
				"type": "unocc",
				"energy": -0.05666,
				"method": "rhf"
			}
		],
		"cosmo_sigma_profile": { 
			"-0.025": 0.0,
			"-0.024": 0.0,
			"-0.023": 0.0,
			"-0.022": 0.0,
			"-0.021": 0.0,
			"-0.02": 0.0,
			"-0.019": 0.0,
			"-0.018": 0.0,
			"-0.017": 0.0,
			"-0.016": 0.0,
			"-0.015": 0.0,
			"-0.014": 0.0,
			"-0.013": 0.0,
			"-0.012": 0.0,
			"-0.011": 0.0,
			"-0.01": 0.592265493091,
			"-0.009": 3.56513732539,
			"-0.008": 7.21472687131,
			"-0.007": 16.7832204458,
			"-0.006": 36.0003578576,
			"-0.005": 38.9581477584,
			"-0.004": 49.3199044864,
			"-0.003": 51.7650066225,
			"-0.002": 42.3334915422,
			"-0.001": 38.1712314901,
			"0.0": 34.4186459831,
			"0.001": 34.5499866718,
			"0.002": 33.9175189505,
			"0.003": 30.9914813651,
			"0.004": 28.6623103178,
			"0.005": 16.7877991561,
			"0.006": 23.1734258264,
			"0.007": 24.8764942158,
			"0.008": 21.3961938576,
			"0.009": 19.5923848521,
			"0.01": 4.36200391123,
			"0.011": 0.0,
			"0.012": 0.0,
			"0.013": 0.0,
			"0.014": 0.0,
			"0.015": 0.0,
			"0.016": 0.0,
			"0.017": 0.0,
			"0.018": 0.0,
			"0.019": 0.0,
			"0.02": 0.0,
			"0.021": 0.0,
			"0.022": 0.0,
			"0.023": 0.0,
			"0.024": 0.0,
			"0.025": 0.0
		}
	}
}
