{
	 "smiles": "OC(=O)C=C1CCCCC1", 
	 "Tm": 364.15, 
	 "num_atms": 22, 
	 "gaussian": { 
		 "optdone": 1, 
		 "sigma_profile": "yes", 
		 "theory": "DFT", 
		 "functional": "B3LYP", 
		 "basiset": "6-31G**", 
		 "properties": { 
			 "R2extent": 3775.8076, 
			 "electric_dipole_moment_norm": 3.01535080878, 
			 "electric_quadrupole_moment_norm": 16.098259619, 
			 "total_energy": -462.546720805, 
			 "HOMO_LUMO_gap": 0.21866, 
			 "cosmo_polarized_energy": -8.52, 
			 "cosmo_cavitation_energy": 23.98, 
			 "cosmo_dispersion_energy": -17.87, 
			 "cosmo_repulsion_energy": 1.47, 
			 "cosmo_total_nonelectrostatic_energy": 7.58, 
			 "SMD_solvation_energy": 4.74 
		},
		"coords": [
			{
				"x": -5.024412912,
				"y": -0.6343780988,
				"z": -1.6661228734,
				"element": "O" 
			},
			{
				"x": -4.0457898414,
				"y": -0.7249201771,
				"z": -2.6093392024,
				"element": "C" 
			},
			{
				"x": -4.324144795,
				"y": -0.8937962395,
				"z": -3.7826652961,
				"element": "O" 
			},
			{
				"x": -2.6569164636,
				"y": -0.6081753391,
				"z": -2.1289003495,
				"element": "C" 
			},
			{
				"x": -2.1592512656,
				"y": -0.42645707,
				"z": -0.8879538076,
				"element": "C" 
			},
			{
				"x": -0.6599046163,
				"y": -0.3338514441,
				"z": -0.6970667952,
				"element": "C" 
			},
			{
				"x": -0.2617250612,
				"y": 0.9775022979,
				"z": 0.0143763838,
				"element": "C" 
			},
			{
				"x": -1.0245074246,
				"y": 1.1487143471,
				"z": 1.3350008061,
				"element": "C" 
			},
			{
				"x": -2.5400061477,
				"y": 1.0488506746,
				"z": 1.1162486856,
				"element": "C" 
			},
			{
				"x": -2.9349051554,
				"y": -0.2623403907,
				"z": 0.3980222862,
				"element": "C" 
			},
			{
				"x": -5.8556180764,
				"y": -0.7328128792,
				"z": -2.1598776755,
				"element": "H" 
			},
			{
				"x": -1.9598619839,
				"y": -0.6969724913,
				"z": -2.9575679887,
				"element": "H" 
			},
			{
				"x": -0.1401307615,
				"y": -0.4265236678,
				"z": -1.6557963267,
				"element": "H" 
			},
			{
				"x": -0.3359377128,
				"y": -1.1795630869,
				"z": -0.071486543,
				"element": "H" 
			},
			{
				"x": -0.4835258455,
				"y": 1.8237314161,
				"z": -0.6492130236,
				"element": "H" 
			},
			{
				"x": 0.8204943545,
				"y": 0.9868348426,
				"z": 0.1880720827,
				"element": "H" 
			},
			{
				"x": -0.7073083752,
				"y": 0.3678583198,
				"z": 2.0409395348,
				"element": "H" 
			},
			{
				"x": -0.770016791,
				"y": 2.1096174823,
				"z": 1.7976473504,
				"element": "H" 
			},
			{
				"x": -3.0717522705,
				"y": 1.1101208883,
				"z": 2.0726801341,
				"element": "H" 
			},
			{
				"x": -2.8799345819,
				"y": 1.9002499018,
				"z": 0.5119272675,
				"element": "H" 
			},
			{
				"x": -4.008687128,
				"y": -0.3017978788,
				"z": 0.2289975078,
				"element": "H" 
			},
			{
				"x": -2.6732571451,
				"y": -1.106691407,
				"z": 1.0543778425,
				"element": "H" 
			}
		],
		 "valence_orbital": [ 
			{
				"type": "occ",
				"energy": -0.32228,
				"method": "rhf"
			},
			{
				"type": "occ",
				"energy": -0.31099,
				"method": "rhf"
			},
			{
				"type": "occ",
				"energy": -0.30895,
				"method": "rhf"
			},
			{
				"type": "occ",
				"energy": -0.26646,
				"method": "rhf"
			},
			{
				"type": "occ",
				"energy": -0.25678,
				"method": "rhf"
			},
			{
				"type": "unocc",
				"energy": -0.03812,
				"method": "rhf"
			},
			{
				"type": "unocc",
				"energy": 0.07802,
				"method": "rhf"
			},
			{
				"type": "unocc",
				"energy": 0.08656,
				"method": "rhf"
			},
			{
				"type": "unocc",
				"energy": 0.10131,
				"method": "rhf"
			},
			{
				"type": "unocc",
				"energy": 0.1152,
				"method": "rhf"
			}
		],
		"cosmo_sigma_profile": { 
			"-0.025": 0.0,
			"-0.024": 0.0,
			"-0.023": 0.0,
			"-0.022": 0.0,
			"-0.021": 0.0,
			"-0.02": 0.0,
			"-0.019": 0.0,
			"-0.018": 0.176054201209,
			"-0.017": 0.912000261836,
			"-0.016": 0.521909399858,
			"-0.015": 1.09622821253,
			"-0.014": 1.06228682183,
			"-0.013": 0.309575304317,
			"-0.012": 0.345272312734,
			"-0.011": 0.53343861867,
			"-0.01": 1.25693960918,
			"-0.009": 0.991406915416,
			"-0.008": 0.23155781454,
			"-0.007": 0.459964423859,
			"-0.006": 1.00905927437,
			"-0.005": 3.18110048312,
			"-0.004": 11.0487608562,
			"-0.003": 18.1961244827,
			"-0.002": 26.0667643057,
			"-0.001": 31.1526560815,
			"0.0": 27.06103627,
			"0.001": 16.2328624369,
			"0.002": 8.18799544025,
			"0.003": 7.24421186737,
			"0.004": 4.92001150914,
			"0.005": 3.82202652998,
			"0.006": 2.86350855267,
			"0.007": 2.43714633564,
			"0.008": 1.40846666001,
			"0.009": 1.18295181039,
			"0.01": 1.47212470259,
			"0.011": 2.3694461932,
			"0.012": 4.66461056213,
			"0.013": 3.78743469919,
			"0.014": 0.549459799901,
			"0.015": 0.0,
			"0.016": 0.0,
			"0.017": 0.0,
			"0.018": 0.0,
			"0.019": 0.0,
			"0.02": 0.0,
			"0.021": 0.0,
			"0.022": 0.0,
			"0.023": 0.0,
			"0.024": 0.0,
			"0.025": 0.0
		}
	}
}
