{
	 "smiles": "BrCC(=O)C1=CC=CC2=C1OCCCO2", 
	 "Tm": 328.65, 
	 "num_atms": 26, 
	 "gaussian": { 
		 "optdone": 1, 
		 "sigma_profile": "yes", 
		 "theory": "DFT", 
		 "functional": "B3LYP", 
		 "basiset": "6-31G**", 
		 "properties": { 
			 "R2extent": 4854.0967, 
			 "electric_dipole_moment_norm": 4.2659221969, 
			 "electric_quadrupole_moment_norm": 9.08439072035, 
			 "total_energy": -3222.84890237, 
			 "HOMO_LUMO_gap": 0.15987, 
			 "cosmo_polarized_energy": -9.65, 
			 "cosmo_cavitation_energy": 30.52, 
			 "cosmo_dispersion_energy": -22.66, 
			 "cosmo_repulsion_energy": 1.76, 
			 "cosmo_total_nonelectrostatic_energy": 9.62, 
			 "SMD_solvation_energy": 4.71 
		},
		"coords": [
			{
				"x": -1.1285352444,
				"y": 2.7121264748,
				"z": -2.3211123267,
				"element": "Br" 
			},
			{
				"x": -1.4512611619,
				"y": 0.7558328376,
				"z": -2.2884125259,
				"element": "C" 
			},
			{
				"x": -0.1612536988,
				"y": -0.0035096183,
				"z": -2.5722446339,
				"element": "C" 
			},
			{
				"x": -0.0936846558,
				"y": -0.6146077642,
				"z": -3.6286917362,
				"element": "O" 
			},
			{
				"x": 1.0001658648,
				"y": -0.0050985216,
				"z": -1.6230437531,
				"element": "C" 
			},
			{
				"x": 2.2212412386,
				"y": -0.4506273529,
				"z": -2.159644745,
				"element": "C" 
			},
			{
				"x": 3.375878828,
				"y": -0.4740842073,
				"z": -1.3906774514,
				"element": "C" 
			},
			{
				"x": 3.3180687087,
				"y": -0.0962945068,
				"z": -0.049372782,
				"element": "C" 
			},
			{
				"x": 2.1157251026,
				"y": 0.3175257711,
				"z": 0.5228820711,
				"element": "C" 
			},
			{
				"x": 0.9458640801,
				"y": 0.3883573298,
				"z": -0.2678627938,
				"element": "C" 
			},
			{
				"x": -0.2576660471,
				"y": 0.7830013895,
				"z": 0.2575358062,
				"element": "O" 
			},
			{
				"x": -0.2382294061,
				"y": 1.8798261263,
				"z": 1.1928837511,
				"element": "C" 
			},
			{
				"x": -0.0561518,
				"y": 1.3730513576,
				"z": 2.622181953,
				"element": "C" 
			},
			{
				"x": 1.0297337388,
				"y": 0.2962261786,
				"z": 2.6610834361,
				"element": "C" 
			},
			{
				"x": 2.1580019693,
				"y": 0.6636280577,
				"z": 1.8536987794,
				"element": "O" 
			},
			{
				"x": -2.1486923794,
				"y": 0.5535929036,
				"z": -3.0973425778,
				"element": "H" 
			},
			{
				"x": -1.8698172995,
				"y": 0.5441673486,
				"z": -1.3091111526,
				"element": "H" 
			},
			{
				"x": 2.2283036876,
				"y": -0.7574262843,
				"z": -3.1989977555,
				"element": "H" 
			},
			{
				"x": 4.3165236092,
				"y": -0.8014789729,
				"z": -1.821744107,
				"element": "H" 
			},
			{
				"x": 4.1941279559,
				"y": -0.1287178554,
				"z": 0.5904743857,
				"element": "H" 
			},
			{
				"x": 0.5615673724,
				"y": 2.5725432738,
				"z": 0.9153161967,
				"element": "H" 
			},
			{
				"x": -1.1923422293,
				"y": 2.395325321,
				"z": 1.0615861716,
				"element": "H" 
			},
			{
				"x": -0.990250796,
				"y": 0.9503525685,
				"z": 3.0103231453,
				"element": "H" 
			},
			{
				"x": 0.2115106382,
				"y": 2.2211178488,
				"z": 3.2631139913,
				"element": "H" 
			},
			{
				"x": 1.4204071842,
				"y": 0.1629688673,
				"z": 3.6735921443,
				"element": "H" 
			},
			{
				"x": 0.6332647396,
				"y": -0.666398571,
				"z": 2.319186509,
				"element": "H" 
			}
		],
		 "valence_orbital": [ 
			{
				"type": "occ",
				"energy": -0.28584,
				"method": "rhf"
			},
			{
				"type": "occ",
				"energy": -0.27621,
				"method": "rhf"
			},
			{
				"type": "occ",
				"energy": -0.25644,
				"method": "rhf"
			},
			{
				"type": "occ",
				"energy": -0.2472,
				"method": "rhf"
			},
			{
				"type": "occ",
				"energy": -0.2253,
				"method": "rhf"
			},
			{
				"type": "unocc",
				"energy": -0.06543,
				"method": "rhf"
			},
			{
				"type": "unocc",
				"energy": -0.00734,
				"method": "rhf"
			},
			{
				"type": "unocc",
				"energy": 0.00035,
				"method": "rhf"
			},
			{
				"type": "unocc",
				"energy": 0.05158,
				"method": "rhf"
			},
			{
				"type": "unocc",
				"energy": 0.06535,
				"method": "rhf"
			}
		],
		"cosmo_sigma_profile": { 
			"-0.025": 0.0,
			"-0.024": 0.0,
			"-0.023": 0.0,
			"-0.022": 0.0,
			"-0.021": 0.0,
			"-0.02": 0.0,
			"-0.019": 0.0,
			"-0.018": 0.0,
			"-0.017": 0.0,
			"-0.016": 0.0,
			"-0.015": 0.0,
			"-0.014": 0.0,
			"-0.013": 0.0,
			"-0.012": 0.0,
			"-0.011": 0.0,
			"-0.01": 0.0,
			"-0.009": 0.0,
			"-0.008": 0.601114339119,
			"-0.007": 4.05856196434,
			"-0.006": 11.6260793745,
			"-0.005": 22.7519197613,
			"-0.004": 30.2232060381,
			"-0.003": 20.1700202878,
			"-0.002": 18.1230067643,
			"-0.001": 15.1567967583,
			"0.0": 14.4217581047,
			"0.001": 17.3976519998,
			"0.002": 19.2366432058,
			"0.003": 19.3628994554,
			"0.004": 15.6415021917,
			"0.005": 11.8155856374,
			"0.006": 5.66411215194,
			"0.007": 3.31616293501,
			"0.008": 2.7956869661,
			"0.009": 2.95016853096,
			"0.01": 3.75757044646,
			"0.011": 4.83060346893,
			"0.012": 1.36403417518,
			"0.013": 0.0371431697508,
			"0.014": 0.0,
			"0.015": 0.0,
			"0.016": 0.0,
			"0.017": 0.0,
			"0.018": 0.0,
			"0.019": 0.0,
			"0.02": 0.0,
			"0.021": 0.0,
			"0.022": 0.0,
			"0.023": 0.0,
			"0.024": 0.0,
			"0.025": 0.0
		}
	}
}
