{
	 "smiles": "CCOC(=O)C(=CN)C(=O)OCC", 
	 "Tm": 336.15, 
	 "num_atms": 26, 
	 "gaussian": { 
		 "optdone": 1, 
		 "sigma_profile": "yes", 
		 "theory": "DFT", 
		 "functional": "B3LYP", 
		 "basiset": "6-31G**", 
		 "properties": { 
			 "R2extent": 3723.1072, 
			 "electric_dipole_moment_norm": 6.3527978537, 
			 "electric_quadrupole_moment_norm": 12.8776387075, 
			 "total_energy": -668.355038707, 
			 "HOMO_LUMO_gap": 0.19985, 
			 "cosmo_polarized_energy": -21.4, 
			 "cosmo_cavitation_energy": 30.17, 
			 "cosmo_dispersion_energy": -21.74, 
			 "cosmo_repulsion_energy": 1.79, 
			 "cosmo_total_nonelectrostatic_energy": 10.22, 
			 "SMD_solvation_energy": 7.74 
		},
		"coords": [
			{
				"x": 2.2973256345,
				"y": -3.9303407682,
				"z": -1.359323799,
				"element": "C" 
			},
			{
				"x": 0.9155118009,
				"y": -3.5194792741,
				"z": -0.8840066096,
				"element": "C" 
			},
			{
				"x": 1.0439373714,
				"y": -2.2423373761,
				"z": -0.2312346634,
				"element": "O" 
			},
			{
				"x": -0.1255271894,
				"y": -1.7173343418,
				"z": 0.2608783486,
				"element": "C" 
			},
			{
				"x": -1.1780326145,
				"y": -2.3105984284,
				"z": 0.1636111849,
				"element": "O" 
			},
			{
				"x": 0.0872758091,
				"y": -0.3872379947,
				"z": 0.8816001556,
				"element": "C" 
			},
			{
				"x": 1.3353751593,
				"y": 0.1883396494,
				"z": 0.7651699287,
				"element": "C" 
			},
			{
				"x": 1.7609828945,
				"y": 1.3761883465,
				"z": 1.2195677726,
				"element": "N" 
			},
			{
				"x": -1.0544995339,
				"y": 0.2321129937,
				"z": 1.5797252199,
				"element": "C" 
			},
			{
				"x": -2.1442344623,
				"y": -0.2562159655,
				"z": 1.7790955821,
				"element": "O" 
			},
			{
				"x": -0.747327699,
				"y": 1.5068870683,
				"z": 2.0333452212,
				"element": "O" 
			},
			{
				"x": -1.8051080256,
				"y": 2.1953457236,
				"z": 2.7404099823,
				"element": "C" 
			},
			{
				"x": -2.7496305946,
				"y": 2.9038422415,
				"z": 1.780729485,
				"element": "C" 
			},
			{
				"x": 2.7023644061,
				"y": -3.2005750468,
				"z": -2.0671177416,
				"element": "H" 
			},
			{
				"x": 2.2456603213,
				"y": -4.9015931005,
				"z": -1.8614442027,
				"element": "H" 
			},
			{
				"x": 2.9917054293,
				"y": -4.0162247696,
				"z": -0.5180546273,
				"element": "H" 
			},
			{
				"x": 0.2075003349,
				"y": -3.4300178331,
				"z": -1.7144945395,
				"element": "H" 
			},
			{
				"x": 0.4951195661,
				"y": -4.2422111282,
				"z": -0.1773972814,
				"element": "H" 
			},
			{
				"x": 2.0875861515,
				"y": -0.387987947,
				"z": 0.2377671792,
				"element": "H" 
			},
			{
				"x": 1.110172772,
				"y": 1.9767192125,
				"z": 1.7069585127,
				"element": "H" 
			},
			{
				"x": 2.7070594444,
				"y": 1.6733257869,
				"z": 1.0522897018,
				"element": "H" 
			},
			{
				"x": -1.2851443077,
				"y": 2.9062926297,
				"z": 3.3887362626,
				"element": "H" 
			},
			{
				"x": -2.3431188554,
				"y": 1.4713592663,
				"z": 3.3557448302,
				"element": "H" 
			},
			{
				"x": -3.4957606088,
				"y": 3.473496687,
				"z": 2.3451272134,
				"element": "H" 
			},
			{
				"x": -3.2725787739,
				"y": 2.1759213458,
				"z": 1.1565202223,
				"element": "H" 
			},
			{
				"x": -2.2042144303,
				"y": 3.5989230227,
				"z": 1.1347966613,
				"element": "H" 
			}
		],
		 "valence_orbital": [ 
			{
				"type": "occ",
				"energy": -0.29039,
				"method": "rhf"
			},
			{
				"type": "occ",
				"energy": -0.28157,
				"method": "rhf"
			},
			{
				"type": "occ",
				"energy": -0.26957,
				"method": "rhf"
			},
			{
				"type": "occ",
				"energy": -0.23948,
				"method": "rhf"
			},
			{
				"type": "occ",
				"energy": -0.22868,
				"method": "rhf"
			},
			{
				"type": "unocc",
				"energy": -0.02883,
				"method": "rhf"
			},
			{
				"type": "unocc",
				"energy": 0.02702,
				"method": "rhf"
			},
			{
				"type": "unocc",
				"energy": 0.06387,
				"method": "rhf"
			},
			{
				"type": "unocc",
				"energy": 0.09934,
				"method": "rhf"
			},
			{
				"type": "unocc",
				"energy": 0.10744,
				"method": "rhf"
			}
		],
		"cosmo_sigma_profile": { 
			"-0.025": 0.0,
			"-0.024": 0.0,
			"-0.023": 0.0,
			"-0.022": 0.0,
			"-0.021": 0.0,
			"-0.02": 0.0,
			"-0.019": 0.0,
			"-0.018": 0.0,
			"-0.017": 0.0,
			"-0.016": 0.678583568617,
			"-0.015": 1.6911210611,
			"-0.014": 1.99847108885,
			"-0.013": 1.34189594413,
			"-0.012": 2.14027297764,
			"-0.011": 2.37638494989,
			"-0.01": 2.48931168086,
			"-0.009": 2.04710916112,
			"-0.008": 1.89908723,
			"-0.007": 2.24743517546,
			"-0.006": 3.33281157158,
			"-0.005": 7.51807876126,
			"-0.004": 20.4067861444,
			"-0.003": 27.1744369437,
			"-0.002": 22.3877446561,
			"-0.001": 24.0705898363,
			"0.0": 27.7442422513,
			"0.001": 21.6800705095,
			"0.002": 13.2450186621,
			"0.003": 8.06899932602,
			"0.004": 5.10836052574,
			"0.005": 4.0840291237,
			"0.006": 2.57803419197,
			"0.007": 2.3143981152,
			"0.008": 2.35427965187,
			"0.009": 2.88771289364,
			"0.01": 1.65525522595,
			"0.011": 3.07543119153,
			"0.012": 4.33506757063,
			"0.013": 6.4209740051,
			"0.014": 2.71817801466,
			"0.015": 1.82633193956,
			"0.016": 0.948174950062,
			"0.017": 1.60426783,
			"0.018": 0.868646170435,
			"0.019": 0.116616961025,
			"0.02": 0.0,
			"0.021": 0.0,
			"0.022": 0.0,
			"0.023": 0.0,
			"0.024": 0.0,
			"0.025": 0.0
		}
	}
}
