{
	 "smiles": "CN1C2=C(N(CC3OCCO3)C=N2)C(=O)N(C)C1=O", 
	 "Tm": 417.15, 
	 "num_atms": 33, 
	 "gaussian": { 
		 "optdone": 1, 
		 "sigma_profile": "yes", 
		 "theory": "DFT", 
		 "functional": "B3LYP", 
		 "basiset": "6-31G**", 
		 "properties": { 
			 "R2extent": 5059.6592, 
			 "electric_dipole_moment_norm": 4.59896235471, 
			 "electric_quadrupole_moment_norm": 8.62964234021, 
			 "total_energy": -947.531869681, 
			 "HOMO_LUMO_gap": 0.18637, 
			 "cosmo_polarized_energy": -17.11, 
			 "cosmo_cavitation_energy": 35.7, 
			 "cosmo_dispersion_energy": -25.54, 
			 "cosmo_repulsion_energy": 1.94, 
			 "cosmo_total_nonelectrostatic_energy": 12.1, 
			 "SMD_solvation_energy": 5.93 
		},
		"coords": [
			{
				"x": -3.0676643599,
				"y": 2.0957153349,
				"z": -0.9090454076,
				"element": "C" 
			},
			{
				"x": -1.6883774075,
				"y": 1.6162521572,
				"z": -0.9671367341,
				"element": "N" 
			},
			{
				"x": -1.0322024737,
				"y": 1.2348239297,
				"z": 0.1799081505,
				"element": "C" 
			},
			{
				"x": 0.26979516,
				"y": 0.7774157146,
				"z": 0.1579284085,
				"element": "C" 
			},
			{
				"x": 0.5821711185,
				"y": 0.5165361847,
				"z": 1.4854371868,
				"element": "N" 
			},
			{
				"x": 1.8232385594,
				"y": -0.0700331212,
				"z": 1.9776280221,
				"element": "C" 
			},
			{
				"x": 1.6544703793,
				"y": -1.5302556579,
				"z": 2.3988120165,
				"element": "C" 
			},
			{
				"x": 0.7577990151,
				"y": -1.6090002727,
				"z": 3.4899503366,
				"element": "O" 
			},
			{
				"x": 0.0627620065,
				"y": -2.8476908855,
				"z": 3.341825445,
				"element": "C" 
			},
			{
				"x": -0.0598975076,
				"y": -2.9703794294,
				"z": 1.8228180362,
				"element": "C" 
			},
			{
				"x": 1.1245663257,
				"y": -2.3230455445,
				"z": 1.3497667606,
				"element": "O" 
			},
			{
				"x": -0.5377346937,
				"y": 0.8200254636,
				"z": 2.1953400569,
				"element": "C" 
			},
			{
				"x": -1.5404004887,
				"y": 1.2634050934,
				"z": 1.4418755343,
				"element": "N" 
			},
			{
				"x": 1.0585094541,
				"y": 0.7017180577,
				"z": -1.0366381944,
				"element": "C" 
			},
			{
				"x": 2.236523721,
				"y": 0.3585440602,
				"z": -1.1187800988,
				"element": "O" 
			},
			{
				"x": 0.3041706045,
				"y": 1.092625113,
				"z": -2.1721338282,
				"element": "N" 
			},
			{
				"x": 0.9652635278,
				"y": 1.0513746529,
				"z": -3.4807919305,
				"element": "C" 
			},
			{
				"x": -1.0287413745,
				"y": 1.5464347947,
				"z": -2.1939890428,
				"element": "C" 
			},
			{
				"x": -1.5658602573,
				"y": 1.8645421705,
				"z": -3.246335618,
				"element": "O" 
			},
			{
				"x": -3.7241079818,
				"y": 1.3109254261,
				"z": -0.523410943,
				"element": "H" 
			},
			{
				"x": -3.3607087891,
				"y": 2.3675697201,
				"z": -1.920788991,
				"element": "H" 
			},
			{
				"x": -3.1340511062,
				"y": 2.9621496079,
				"z": -0.2462242573,
				"element": "H" 
			},
			{
				"x": 2.5507175569,
				"y": -0.0085081655,
				"z": 1.1666831084,
				"element": "H" 
			},
			{
				"x": 2.1869254476,
				"y": 0.5038599536,
				"z": 2.8353929484,
				"element": "H" 
			},
			{
				"x": 2.6431177343,
				"y": -1.9320868445,
				"z": 2.6811799836,
				"element": "H" 
			},
			{
				"x": -0.8922651507,
				"y": -2.7718780261,
				"z": 3.865893922,
				"element": "H" 
			},
			{
				"x": 0.6491706381,
				"y": -3.6742435856,
				"z": 3.7684391309,
				"element": "H" 
			},
			{
				"x": -0.0656740645,
				"y": -4.0050821819,
				"z": 1.4678484573,
				"element": "H" 
			},
			{
				"x": -0.952057473,
				"y": -2.4540481831,
				"z": 1.4460993937,
				"element": "H" 
			},
			{
				"x": -0.5779700472,
				"y": 0.6904939176,
				"z": 3.2667310354,
				"element": "H" 
			},
			{
				"x": 0.9949312123,
				"y": 2.0517731906,
				"z": -3.918169446,
				"element": "H" 
			},
			{
				"x": 0.4103014724,
				"y": 0.3983568559,
				"z": -4.1572791118,
				"element": "H" 
			},
			{
				"x": 1.973179242,
				"y": 0.6745104988,
				"z": -3.3223343301,
				"element": "H" 
			}
		],
		 "valence_orbital": [ 
			{
				"type": "occ",
				"energy": -0.27846,
				"method": "rhf"
			},
			{
				"type": "occ",
				"energy": -0.26894,
				"method": "rhf"
			},
			{
				"type": "occ",
				"energy": -0.26245,
				"method": "rhf"
			},
			{
				"type": "occ",
				"energy": -0.25585,
				"method": "rhf"
			},
			{
				"type": "occ",
				"energy": -0.21516,
				"method": "rhf"
			},
			{
				"type": "unocc",
				"energy": -0.02879,
				"method": "rhf"
			},
			{
				"type": "unocc",
				"energy": 0.02755,
				"method": "rhf"
			},
			{
				"type": "unocc",
				"energy": 0.03712,
				"method": "rhf"
			},
			{
				"type": "unocc",
				"energy": 0.0801,
				"method": "rhf"
			},
			{
				"type": "unocc",
				"energy": 0.09684,
				"method": "rhf"
			}
		],
		"cosmo_sigma_profile": { 
			"-0.025": 0.0,
			"-0.024": 0.0,
			"-0.023": 0.0,
			"-0.022": 0.0,
			"-0.021": 0.0,
			"-0.02": 0.0,
			"-0.019": 0.0,
			"-0.018": 0.0,
			"-0.017": 0.0,
			"-0.016": 0.0,
			"-0.015": 0.0,
			"-0.014": 0.0,
			"-0.013": 0.0,
			"-0.012": 0.0,
			"-0.011": 0.0,
			"-0.01": 0.215275631094,
			"-0.009": 0.889969367552,
			"-0.008": 3.78162646247,
			"-0.007": 7.54533140917,
			"-0.006": 17.3955824575,
			"-0.005": 30.5224465425,
			"-0.004": 29.3455811836,
			"-0.003": 30.2457027384,
			"-0.002": 32.0897927906,
			"-0.001": 20.6851480689,
			"0.0": 13.8407101876,
			"0.001": 11.7509879839,
			"0.002": 8.35132203039,
			"0.003": 7.36479914686,
			"0.004": 7.08588233511,
			"0.005": 6.26381480851,
			"0.006": 9.01601529036,
			"0.007": 6.57088419599,
			"0.008": 5.72178535063,
			"0.009": 4.89963073958,
			"0.01": 5.83820635442,
			"0.011": 7.85788461593,
			"0.012": 8.38586278315,
			"0.013": 5.87404510983,
			"0.014": 0.756258384171,
			"0.015": 0.717092255149,
			"0.016": 0.100896541577,
			"0.017": 0.0,
			"0.018": 0.0,
			"0.019": 0.0,
			"0.02": 0.0,
			"0.021": 0.0,
			"0.022": 0.0,
			"0.023": 0.0,
			"0.024": 0.0,
			"0.025": 0.0
		}
	}
}
