{
	 "smiles": "CCBr", 
	 "Tm": 154.15, 
	 "num_atms": 8, 
	 "gaussian": { 
		 "optdone": 1, 
		 "sigma_profile": "yes", 
		 "theory": "DFT", 
		 "functional": "B3LYP", 
		 "basiset": "6-31G**", 
		 "properties": { 
			 "R2extent": 881.7456, 
			 "electric_dipole_moment_norm": 2.18449097503, 
			 "electric_quadrupole_moment_norm": 4.60580234704, 
			 "total_energy": -2650.63904591, 
			 "HOMO_LUMO_gap": 0.27318, 
			 "cosmo_polarized_energy": -3.59, 
			 "cosmo_cavitation_energy": 13.04, 
			 "cosmo_dispersion_energy": -10.38, 
			 "cosmo_repulsion_energy": 0.98, 
			 "cosmo_total_nonelectrostatic_energy": 3.64, 
			 "SMD_solvation_energy": 1.41 
		},
		"coords": [
			{
				"x": -0.4856738803,
				"y": -1.364777,
				"z": 2.7277779301,
				"element": "C" 
			},
			{
				"x": -1.0799674448,
				"y": -1.1374174249,
				"z": 1.3504534383,
				"element": "C" 
			},
			{
				"x": 0.193394768,
				"y": -1.6376839621,
				"z": -0.0873930634,
				"element": "Br" 
			},
			{
				"x": 0.4154734283,
				"y": -0.764280575,
				"z": 2.8748143093,
				"element": "H" 
			},
			{
				"x": -0.2278595788,
				"y": -2.4158277656,
				"z": 2.8797747748,
				"element": "H" 
			},
			{
				"x": -1.2203151608,
				"y": -1.0763267129,
				"z": 3.4897262482,
				"element": "H" 
			},
			{
				"x": -1.3187792365,
				"y": -0.0906070998,
				"z": 1.16459886,
				"element": "H" 
			},
			{
				"x": -1.964272895,
				"y": -1.7478794596,
				"z": 1.1695475026,
				"element": "H" 
			}
		],
		 "valence_orbital": [ 
			{
				"type": "occ",
				"energy": -0.40433,
				"method": "rhf"
			},
			{
				"type": "occ",
				"energy": -0.37521,
				"method": "rhf"
			},
			{
				"type": "occ",
				"energy": -0.3501,
				"method": "rhf"
			},
			{
				"type": "occ",
				"energy": -0.26997,
				"method": "rhf"
			},
			{
				"type": "occ",
				"energy": -0.2688,
				"method": "rhf"
			},
			{
				"type": "unocc",
				"energy": 0.00438,
				"method": "rhf"
			},
			{
				"type": "unocc",
				"energy": 0.098,
				"method": "rhf"
			},
			{
				"type": "unocc",
				"energy": 0.13707,
				"method": "rhf"
			},
			{
				"type": "unocc",
				"energy": 0.14007,
				"method": "rhf"
			},
			{
				"type": "unocc",
				"energy": 0.16028,
				"method": "rhf"
			}
		],
		"cosmo_sigma_profile": { 
			"-0.025": 0.0,
			"-0.024": 0.0,
			"-0.023": 0.0,
			"-0.022": 0.0,
			"-0.021": 0.0,
			"-0.02": 0.0,
			"-0.019": 0.0,
			"-0.018": 0.0,
			"-0.017": 0.0,
			"-0.016": 0.0,
			"-0.015": 0.0,
			"-0.014": 0.0,
			"-0.013": 0.0,
			"-0.012": 0.0,
			"-0.011": 0.0,
			"-0.01": 0.0,
			"-0.009": 0.0,
			"-0.008": 0.0,
			"-0.007": 2.03572445318,
			"-0.006": 4.59767393199,
			"-0.005": 6.26398338381,
			"-0.004": 12.4866564901,
			"-0.003": 11.3125041414,
			"-0.002": 9.38376377516,
			"-0.001": 10.0091428776,
			"0.0": 9.0846179363,
			"0.001": 5.01381697901,
			"0.002": 3.19940045163,
			"0.003": 4.06976281517,
			"0.004": 5.20978046183,
			"0.005": 5.66017732811,
			"0.006": 9.38343750493,
			"0.007": 7.93837658013,
			"0.008": 0.0191583315502,
			"0.009": 0.0,
			"0.01": 0.0,
			"0.011": 0.0,
			"0.012": 0.0,
			"0.013": 0.0,
			"0.014": 0.0,
			"0.015": 0.0,
			"0.016": 0.0,
			"0.017": 0.0,
			"0.018": 0.0,
			"0.019": 0.0,
			"0.02": 0.0,
			"0.021": 0.0,
			"0.022": 0.0,
			"0.023": 0.0,
			"0.024": 0.0,
			"0.025": 0.0
		}
	}
}
