{
	 "smiles": "CCOC(=O)C1=CSC(=N1)C1=NC=CC=C1", 
	 "Tm": 341.15, 
	 "num_atms": 26, 
	 "gaussian": { 
		 "optdone": 1, 
		 "sigma_profile": "yes", 
		 "theory": "DFT", 
		 "functional": "B3LYP", 
		 "basiset": "6-31G**", 
		 "properties": { 
			 "R2extent": 5687.0995, 
			 "electric_dipole_moment_norm": 4.04138658631, 
			 "electric_quadrupole_moment_norm": 25.5266333546, 
			 "total_energy": -1083.33255059, 
			 "HOMO_LUMO_gap": 0.17412, 
			 "cosmo_polarized_energy": -18.46, 
			 "cosmo_cavitation_energy": 33.06, 
			 "cosmo_dispersion_energy": -24.64, 
			 "cosmo_repulsion_energy": 1.89, 
			 "cosmo_total_nonelectrostatic_energy": 10.31, 
			 "SMD_solvation_energy": 4.04 
		},
		"coords": [
			{
				"x": 5.1363794807,
				"y": -0.3917424867,
				"z": 1.1711486193,
				"element": "C" 
			},
			{
				"x": 4.0599045018,
				"y": -1.2712345626,
				"z": 1.7897272193,
				"element": "C" 
			},
			{
				"x": 2.8398156645,
				"y": -1.2383428991,
				"z": 1.0123600571,
				"element": "O" 
			},
			{
				"x": 1.9874084559,
				"y": -0.2168469141,
				"z": 1.2801143251,
				"element": "C" 
			},
			{
				"x": 2.1845483105,
				"y": 0.6390318617,
				"z": 2.1129910335,
				"element": "O" 
			},
			{
				"x": 0.7807989455,
				"y": -0.3006727362,
				"z": 0.4116056919,
				"element": "C" 
			},
			{
				"x": 0.5653207511,
				"y": -1.2693842427,
				"z": -0.5384964039,
				"element": "C" 
			},
			{
				"x": -0.9428076838,
				"y": -1.0044315298,
				"z": -1.321370523,
				"element": "S" 
			},
			{
				"x": -1.1810226387,
				"y": 0.4324496861,
				"z": -0.2961894016,
				"element": "C" 
			},
			{
				"x": -0.2065755628,
				"y": 0.6442326311,
				"z": 0.5367426209,
				"element": "N" 
			},
			{
				"x": -2.3968462249,
				"y": 1.2666072363,
				"z": -0.4151030862,
				"element": "C" 
			},
			{
				"x": -2.6581177375,
				"y": 2.0839517883,
				"z": 0.6189367149,
				"element": "N" 
			},
			{
				"x": -3.7445297683,
				"y": 2.8537508675,
				"z": 0.5447075778,
				"element": "C" 
			},
			{
				"x": -4.6277428307,
				"y": 2.8541686555,
				"z": -0.5387299635,
				"element": "C" 
			},
			{
				"x": -4.3521678642,
				"y": 2.0054171196,
				"z": -1.6087834249,
				"element": "C" 
			},
			{
				"x": -3.2174466589,
				"y": 1.2004820347,
				"z": -1.5523341504,
				"element": "C" 
			},
			{
				"x": 4.8342086848,
				"y": 0.6579464791,
				"z": 1.1954828556,
				"element": "H" 
			},
			{
				"x": 5.3295831939,
				"y": -0.6819251395,
				"z": 0.1340832777,
				"element": "H" 
			},
			{
				"x": 6.0689624525,
				"y": -0.4938822033,
				"z": 1.7361770965,
				"element": "H" 
			},
			{
				"x": 3.8341768983,
				"y": -0.9565651741,
				"z": 2.8113678636,
				"element": "H" 
			},
			{
				"x": 4.3530719549,
				"y": -2.3239496216,
				"z": 1.7902518555,
				"element": "H" 
			},
			{
				"x": 1.2078157354,
				"y": -2.0978910856,
				"z": -0.7956869107,
				"element": "H" 
			},
			{
				"x": -3.923616196,
				"y": 3.5042260712,
				"z": 1.3991907077,
				"element": "H" 
			},
			{
				"x": -5.4987693853,
				"y": 3.5014765613,
				"z": -0.5390058895,
				"element": "H" 
			},
			{
				"x": -5.0032379446,
				"y": 1.9739877794,
				"z": -2.4773591821,
				"element": "H" 
			},
			{
				"x": -2.967414534,
				"y": 0.5463398235,
				"z": -2.3818285807,
				"element": "H" 
			}
		],
		 "valence_orbital": [ 
			{
				"type": "occ",
				"energy": -0.28616,
				"method": "rhf"
			},
			{
				"type": "occ",
				"energy": -0.27824,
				"method": "rhf"
			},
			{
				"type": "occ",
				"energy": -0.26904,
				"method": "rhf"
			},
			{
				"type": "occ",
				"energy": -0.25919,
				"method": "rhf"
			},
			{
				"type": "occ",
				"energy": -0.23968,
				"method": "rhf"
			},
			{
				"type": "unocc",
				"energy": -0.06556,
				"method": "rhf"
			},
			{
				"type": "unocc",
				"energy": -0.03627,
				"method": "rhf"
			},
			{
				"type": "unocc",
				"energy": -0.02581,
				"method": "rhf"
			},
			{
				"type": "unocc",
				"energy": 0.01052,
				"method": "rhf"
			},
			{
				"type": "unocc",
				"energy": 0.02999,
				"method": "rhf"
			}
		],
		"cosmo_sigma_profile": { 
			"-0.025": 0.0,
			"-0.024": 0.0,
			"-0.023": 0.0,
			"-0.022": 0.0,
			"-0.021": 0.0,
			"-0.02": 0.0,
			"-0.019": 0.0,
			"-0.018": 0.0,
			"-0.017": 0.0,
			"-0.016": 0.0,
			"-0.015": 0.0,
			"-0.014": 0.0,
			"-0.013": 0.0,
			"-0.012": 0.0,
			"-0.011": 0.151356153099,
			"-0.01": 1.57395388507,
			"-0.009": 1.49817406601,
			"-0.008": 4.2084155345,
			"-0.007": 10.63658345,
			"-0.006": 13.3748818409,
			"-0.005": 15.1853599838,
			"-0.004": 20.0611974982,
			"-0.003": 22.8917995667,
			"-0.002": 23.7477846903,
			"-0.001": 26.748362876,
			"0.0": 32.7641212673,
			"0.001": 25.503605811,
			"0.002": 16.8659844699,
			"0.003": 6.09566024761,
			"0.004": 5.57077132923,
			"0.005": 5.35069604385,
			"0.006": 2.76782780312,
			"0.007": 2.79328532492,
			"0.008": 3.2152325973,
			"0.009": 3.1436856523,
			"0.01": 3.43914362716,
			"0.011": 3.78421711449,
			"0.012": 4.43521337442,
			"0.013": 3.53397923117,
			"0.014": 2.04634209617,
			"0.015": 2.16520908095,
			"0.016": 1.50170294077,
			"0.017": 1.62115610585,
			"0.018": 0.801147611634,
			"0.019": 0.00247706123003,
			"0.02": 0.0,
			"0.021": 0.0,
			"0.022": 0.0,
			"0.023": 0.0,
			"0.024": 0.0,
			"0.025": 0.0
		}
	}
}
