{
	 "smiles": "N#CCCCC#N", 
	 "Tm": 244.15, 
	 "num_atms": 13, 
	 "gaussian": { 
		 "optdone": 1, 
		 "sigma_profile": "yes", 
		 "theory": "DFT", 
		 "functional": "B3LYP", 
		 "basiset": "6-31G**", 
		 "properties": { 
			 "R2extent": 1412.135, 
			 "electric_dipole_moment_norm": 7.08665942811, 
			 "electric_quadrupole_moment_norm": 19.7073519424, 
			 "total_energy": -303.614044528, 
			 "HOMO_LUMO_gap": 0.32144, 
			 "cosmo_polarized_energy": -19.78, 
			 "cosmo_cavitation_energy": 18.62, 
			 "cosmo_dispersion_energy": -12.35, 
			 "cosmo_repulsion_energy": 1.08, 
			 "cosmo_total_nonelectrostatic_energy": 7.34, 
			 "SMD_solvation_energy": 5.84 
		},
		"coords": [
			{
				"x": 2.6684173116,
				"y": -3.1214332882,
				"z": -1.0053316004,
				"element": "N" 
			},
			{
				"x": 1.537739391,
				"y": -2.864161964,
				"z": -0.9649587157,
				"element": "C" 
			},
			{
				"x": 0.0990420577,
				"y": -2.5869400176,
				"z": -0.9028387832,
				"element": "C" 
			},
			{
				"x": -0.2871836859,
				"y": -1.2836501096,
				"z": -0.1721961568,
				"element": "C" 
			},
			{
				"x": 0.0170238195,
				"y": 0.0190656088,
				"z": -0.9415576422,
				"element": "C" 
			},
			{
				"x": 1.4358386747,
				"y": 0.3820690068,
				"z": -1.0171052316,
				"element": "C" 
			},
			{
				"x": 2.5485725172,
				"y": 0.7066080096,
				"z": -1.069622463,
				"element": "N" 
			},
			{
				"x": -0.3742639857,
				"y": -3.4339131767,
				"z": -0.3926343937,
				"element": "H" 
			},
			{
				"x": -0.2973106085,
				"y": -2.5793271348,
				"z": -1.9257669812,
				"element": "H" 
			},
			{
				"x": -1.3690138686,
				"y": -1.3151184377,
				"z": -0.0070353209,
				"element": "H" 
			},
			{
				"x": 0.1871069446,
				"y": -1.2540790456,
				"z": 0.8130431011,
				"element": "H" 
			},
			{
				"x": -0.5065088356,
				"y": 0.849852102,
				"z": -0.4543260698,
				"element": "H" 
			},
			{
				"x": -0.380059732,
				"y": -0.0426715528,
				"z": -1.9623697427,
				"element": "H" 
			}
		],
		 "valence_orbital": [ 
			{
				"type": "occ",
				"energy": -0.3567,
				"method": "rhf"
			},
			{
				"type": "occ",
				"energy": -0.34104,
				"method": "rhf"
			},
			{
				"type": "occ",
				"energy": -0.32869,
				"method": "rhf"
			},
			{
				"type": "occ",
				"energy": -0.32786,
				"method": "rhf"
			},
			{
				"type": "occ",
				"energy": -0.31588,
				"method": "rhf"
			},
			{
				"type": "unocc",
				"energy": 0.00556,
				"method": "rhf"
			},
			{
				"type": "unocc",
				"energy": 0.02283,
				"method": "rhf"
			},
			{
				"type": "unocc",
				"energy": 0.03918,
				"method": "rhf"
			},
			{
				"type": "unocc",
				"energy": 0.04829,
				"method": "rhf"
			},
			{
				"type": "unocc",
				"energy": 0.07728,
				"method": "rhf"
			}
		],
		"cosmo_sigma_profile": { 
			"-0.025": 0.0,
			"-0.024": 0.0,
			"-0.023": 0.0,
			"-0.022": 0.0,
			"-0.021": 0.0,
			"-0.02": 0.0,
			"-0.019": 0.0,
			"-0.018": 0.0,
			"-0.017": 0.0,
			"-0.016": 0.0,
			"-0.015": 0.0,
			"-0.014": 0.0,
			"-0.013": 0.0,
			"-0.012": 0.0,
			"-0.011": 0.0,
			"-0.01": 0.446225376333,
			"-0.009": 6.40027667114,
			"-0.008": 13.3744807204,
			"-0.007": 14.1519243654,
			"-0.006": 20.0419574986,
			"-0.005": 12.1656502326,
			"-0.004": 6.3037957668,
			"-0.003": 5.07799315527,
			"-0.002": 2.46137293961,
			"-0.001": 2.92434674058,
			"0.0": 2.03288385623,
			"0.001": 3.34921561644,
			"0.002": 2.98687005473,
			"0.003": 2.30062680976,
			"0.004": 4.0057901334,
			"0.005": 2.87604849431,
			"0.006": 6.10541316737,
			"0.007": 6.0753974711,
			"0.008": 5.96232798667,
			"0.009": 8.34772144528,
			"0.01": 5.83106442552,
			"0.011": 6.17479314727,
			"0.012": 5.1143042473,
			"0.013": 3.94421764504,
			"0.014": 0.584269158752,
			"0.015": 0.0,
			"0.016": 0.0,
			"0.017": 0.0,
			"0.018": 0.0,
			"0.019": 0.0,
			"0.02": 0.0,
			"0.021": 0.0,
			"0.022": 0.0,
			"0.023": 0.0,
			"0.024": 0.0,
			"0.025": 0.0
		}
	}
}
