{
	 "smiles": "OC(=O)C1=C(NC(=O)C2=COC=C2)C=CS1", 
	 "Tm": 481.15, 
	 "num_atms": 23, 
	 "gaussian": { 
		 "optdone": 1, 
		 "sigma_profile": "yes", 
		 "theory": "DFT", 
		 "functional": "B3LYP", 
		 "basiset": "6-31G**", 
		 "properties": { 
			 "R2extent": 4344.7945, 
			 "electric_dipole_moment_norm": 3.96811786745, 
			 "electric_quadrupole_moment_norm": 12.4234558739, 
			 "total_energy": -1139.09157541, 
			 "HOMO_LUMO_gap": 0.16335, 
			 "cosmo_polarized_energy": -19.25, 
			 "cosmo_cavitation_energy": 30.19, 
			 "cosmo_dispersion_energy": -21.66, 
			 "cosmo_repulsion_energy": 1.65, 
			 "cosmo_total_nonelectrostatic_energy": 10.18, 
			 "SMD_solvation_energy": 8.12 
		},
		"coords": [
			{
				"x": 0.070507456,
				"y": -0.5846168022,
				"z": -4.3268146337,
				"element": "O" 
			},
			{
				"x": 0.4397294165,
				"y": -0.6737575001,
				"z": -3.0215561738,
				"element": "C" 
			},
			{
				"x": 0.9456516859,
				"y": -1.6755560295,
				"z": -2.5558477534,
				"element": "O" 
			},
			{
				"x": 0.172327397,
				"y": 0.5705833642,
				"z": -2.2946646216,
				"element": "C" 
			},
			{
				"x": 0.4583330798,
				"y": 0.8626098921,
				"z": -0.965433713,
				"element": "C" 
			},
			{
				"x": 0.9776741124,
				"y": -0.0194425525,
				"z": -0.0038079802,
				"element": "N" 
			},
			{
				"x": 0.6218647076,
				"y": -1.3316076977,
				"z": 0.3067594695,
				"element": "C" 
			},
			{
				"x": 1.4080537755,
				"y": -2.0346159591,
				"z": 0.9238766425,
				"element": "O" 
			},
			{
				"x": -0.7472766075,
				"y": -1.7952568361,
				"z": -0.0079155815,
				"element": "C" 
			},
			{
				"x": -1.903432814,
				"y": -1.0877552658,
				"z": -0.1970576976,
				"element": "C" 
			},
			{
				"x": -2.9572957686,
				"y": -1.9287762335,
				"z": -0.3400881115,
				"element": "O" 
			},
			{
				"x": -2.4667663853,
				"y": -3.2052354992,
				"z": -0.2395524573,
				"element": "C" 
			},
			{
				"x": -1.1280388495,
				"y": -3.1824292721,
				"z": -0.0272553495,
				"element": "C" 
			},
			{
				"x": 0.1961424673,
				"y": 2.2304020526,
				"z": -0.6431366235,
				"element": "C" 
			},
			{
				"x": -0.292877159,
				"y": 2.9417491948,
				"z": -1.7043203488,
				"element": "C" 
			},
			{
				"x": -0.4583737544,
				"y": 1.9737328888,
				"z": -3.1214628248,
				"element": "S" 
			},
			{
				"x": 0.2993608243,
				"y": -1.4383947427,
				"z": -4.7290717644,
				"element": "H" 
			},
			{
				"x": 1.8632072672,
				"y": 0.233886699,
				"z": 0.418850017,
				"element": "H" 
			},
			{
				"x": -2.1334570763,
				"y": -0.0349362442,
				"z": -0.2333393516,
				"element": "H" 
			},
			{
				"x": -3.1956176096,
				"y": -3.9938003718,
				"z": -0.340569823,
				"element": "H" 
			},
			{
				"x": -0.4599651345,
				"y": -4.0200752325,
				"z": 0.1012549124,
				"element": "H" 
			},
			{
				"x": 0.3528064334,
				"y": 2.6408206429,
				"z": 0.3475608307,
				"element": "H" 
			},
			{
				"x": -0.5893574641,
				"y": 3.9817715045,
				"z": -1.7222070628,
				"element": "H" 
			}
		],
		 "valence_orbital": [ 
			{
				"type": "occ",
				"energy": -0.2763,
				"method": "rhf"
			},
			{
				"type": "occ",
				"energy": -0.26596,
				"method": "rhf"
			},
			{
				"type": "occ",
				"energy": -0.25393,
				"method": "rhf"
			},
			{
				"type": "occ",
				"energy": -0.24388,
				"method": "rhf"
			},
			{
				"type": "occ",
				"energy": -0.23032,
				"method": "rhf"
			},
			{
				"type": "unocc",
				"energy": -0.06697,
				"method": "rhf"
			},
			{
				"type": "unocc",
				"energy": -0.01615,
				"method": "rhf"
			},
			{
				"type": "unocc",
				"energy": 0.01379,
				"method": "rhf"
			},
			{
				"type": "unocc",
				"energy": 0.01645,
				"method": "rhf"
			},
			{
				"type": "unocc",
				"energy": 0.03115,
				"method": "rhf"
			}
		],
		"cosmo_sigma_profile": { 
			"-0.025": 0.0,
			"-0.024": 0.0,
			"-0.023": 0.0,
			"-0.022": 0.0,
			"-0.021": 0.0,
			"-0.02": 0.0,
			"-0.019": 0.195711977096,
			"-0.018": 0.921898477252,
			"-0.017": 0.750896472954,
			"-0.016": 0.826686421865,
			"-0.015": 1.52225009596,
			"-0.014": 2.00136928062,
			"-0.013": 1.20679648561,
			"-0.012": 1.48581246337,
			"-0.011": 2.29533823421,
			"-0.01": 3.02213920564,
			"-0.009": 6.06459254319,
			"-0.008": 8.46142086053,
			"-0.007": 9.69183227674,
			"-0.006": 10.1061158483,
			"-0.005": 11.1645491687,
			"-0.004": 10.2866371035,
			"-0.003": 9.50081456659,
			"-0.002": 12.1901201927,
			"-0.001": 15.4646751107,
			"0.0": 18.2500882668,
			"0.001": 20.1935364505,
			"0.002": 21.8308810672,
			"0.003": 15.9009578517,
			"0.004": 8.95837045702,
			"0.005": 8.03240068851,
			"0.006": 6.43671054531,
			"0.007": 7.87109958951,
			"0.008": 5.23220418231,
			"0.009": 4.20653641301,
			"0.01": 4.11781395837,
			"0.011": 5.46355193397,
			"0.012": 5.22648182185,
			"0.013": 5.06456766936,
			"0.014": 0.674768398211,
			"0.015": 0.0,
			"0.016": 0.0,
			"0.017": 0.0,
			"0.018": 0.0,
			"0.019": 0.0,
			"0.02": 0.0,
			"0.021": 0.0,
			"0.022": 0.0,
			"0.023": 0.0,
			"0.024": 0.0,
			"0.025": 0.0
		}
	}
}
