{
	 "smiles": "COC(=O)C1=C(C=CC=C1)S(Cl)(=O)=O", 
	 "Tm": 335.65, 
	 "num_atms": 21, 
	 "gaussian": { 
		 "optdone": 1, 
		 "sigma_profile": "yes", 
		 "theory": "DFT", 
		 "functional": "B3LYP", 
		 "basiset": "6-31G**", 
		 "properties": { 
			 "R2extent": 4309.359, 
			 "electric_dipole_moment_norm": 6.30094584487, 
			 "electric_quadrupole_moment_norm": 20.0650597435, 
			 "total_energy": -1468.27166082, 
			 "HOMO_LUMO_gap": 0.19439, 
			 "cosmo_polarized_energy": -13.9, 
			 "cosmo_cavitation_energy": 28.92, 
			 "cosmo_dispersion_energy": -21.41, 
			 "cosmo_repulsion_energy": 1.65, 
			 "cosmo_total_nonelectrostatic_energy": 9.16, 
			 "SMD_solvation_energy": 5.16 
		},
		"coords": [
			{
				"x": 2.5885232044,
				"y": -0.0977440584,
				"z": -1.6585393138,
				"element": "C" 
			},
			{
				"x": 1.2784917546,
				"y": -0.2608036371,
				"z": -1.0815031071,
				"element": "O" 
			},
			{
				"x": 1.0185938889,
				"y": 0.5401862495,
				"z": -0.0292279514,
				"element": "C" 
			},
			{
				"x": 1.7954859184,
				"y": 1.3534154344,
				"z": 0.4154030335,
				"element": "O" 
			},
			{
				"x": -0.3836297424,
				"y": 0.3366339872,
				"z": 0.4699568781,
				"element": "C" 
			},
			{
				"x": -0.7454231561,
				"y": 0.3990856431,
				"z": 1.8288047549,
				"element": "C" 
			},
			{
				"x": -2.0782956029,
				"y": 0.309318671,
				"z": 2.2311164779,
				"element": "C" 
			},
			{
				"x": -3.0810460931,
				"y": 0.1643454771,
				"z": 1.2719216751,
				"element": "C" 
			},
			{
				"x": -2.7432961253,
				"y": 0.0844273887,
				"z": -0.0772380545,
				"element": "C" 
			},
			{
				"x": -1.407024516,
				"y": 0.160961565,
				"z": -0.4698240251,
				"element": "C" 
			},
			{
				"x": 0.4573275434,
				"y": 0.4222431901,
				"z": 3.1795870876,
				"element": "S" 
			},
			{
				"x": 0.9550379063,
				"y": 2.4703592412,
				"z": 3.3402900201,
				"element": "Cl" 
			},
			{
				"x": -0.2585013656,
				"y": 0.106419918,
				"z": 4.4117656092,
				"element": "O" 
			},
			{
				"x": 1.6521823821,
				"y": -0.315227949,
				"z": 2.7949676022,
				"element": "O" 
			},
			{
				"x": 3.3581761001,
				"y": -0.2999540896,
				"z": -0.9105946146,
				"element": "H" 
			},
			{
				"x": 2.71701503,
				"y": 0.9199610523,
				"z": -2.0349690092,
				"element": "H" 
			},
			{
				"x": 2.6402388261,
				"y": -0.8202554171,
				"z": -2.4722468811,
				"element": "H" 
			},
			{
				"x": -2.3168418828,
				"y": 0.3351800699,
				"z": 3.2874894272,
				"element": "H" 
			},
			{
				"x": -4.1180001041,
				"y": 0.1007282509,
				"z": 1.5858340803,
				"element": "H" 
			},
			{
				"x": -3.5171805137,
				"y": -0.0407196524,
				"z": -0.8281996687,
				"element": "H" 
			},
			{
				"x": -1.1393334521,
				"y": 0.0948386651,
				"z": -1.5179940206,
				"element": "H" 
			}
		],
		 "valence_orbital": [ 
			{
				"type": "occ",
				"energy": -0.31489,
				"method": "rhf"
			},
			{
				"type": "occ",
				"energy": -0.30539,
				"method": "rhf"
			},
			{
				"type": "occ",
				"energy": -0.29624,
				"method": "rhf"
			},
			{
				"type": "occ",
				"energy": -0.29256,
				"method": "rhf"
			},
			{
				"type": "occ",
				"energy": -0.28217,
				"method": "rhf"
			},
			{
				"type": "unocc",
				"energy": -0.08778,
				"method": "rhf"
			},
			{
				"type": "unocc",
				"energy": -0.06093,
				"method": "rhf"
			},
			{
				"type": "unocc",
				"energy": -0.04442,
				"method": "rhf"
			},
			{
				"type": "unocc",
				"energy": 0.0198,
				"method": "rhf"
			},
			{
				"type": "unocc",
				"energy": 0.05385,
				"method": "rhf"
			}
		],
		"cosmo_sigma_profile": { 
			"-0.025": 0.0,
			"-0.024": 0.0,
			"-0.023": 0.0,
			"-0.022": 0.0,
			"-0.021": 0.0,
			"-0.02": 0.0,
			"-0.019": 0.0,
			"-0.018": 0.0,
			"-0.017": 0.0,
			"-0.016": 0.0,
			"-0.015": 0.0,
			"-0.014": 0.0,
			"-0.013": 0.0,
			"-0.012": 0.0,
			"-0.011": 0.0,
			"-0.01": 0.0,
			"-0.009": 0.482191132015,
			"-0.008": 7.2286134951,
			"-0.007": 12.0345531158,
			"-0.006": 14.5930347589,
			"-0.005": 15.5252307128,
			"-0.004": 18.3359298363,
			"-0.003": 14.7889391554,
			"-0.002": 14.6072268497,
			"-0.001": 19.1088185623,
			"0.0": 19.244253356,
			"0.001": 18.7600483761,
			"0.002": 11.2173655019,
			"0.003": 13.4199070982,
			"0.004": 7.80386211488,
			"0.005": 7.2801445957,
			"0.006": 6.01134615527,
			"0.007": 7.78400498763,
			"0.008": 10.2555837077,
			"0.009": 8.63117651769,
			"0.01": 4.17981461358,
			"0.011": 3.06896334212,
			"0.012": 0.265449667915,
			"0.013": 0.0,
			"0.014": 0.0,
			"0.015": 0.0,
			"0.016": 0.0,
			"0.017": 0.0,
			"0.018": 0.0,
			"0.019": 0.0,
			"0.02": 0.0,
			"0.021": 0.0,
			"0.022": 0.0,
			"0.023": 0.0,
			"0.024": 0.0,
			"0.025": 0.0
		}
	}
}
