{
	 "smiles": "OC(=O)C1CCN(CC1)S(=O)(=O)C1=CC(Cl)=C(F)C=C1", 
	 "Tm": 464.15, 
	 "num_atms": 33, 
	 "gaussian": { 
		 "optdone": 1, 
		 "sigma_profile": "yes", 
		 "theory": "DFT", 
		 "functional": "B3LYP", 
		 "basiset": "6-31G**", 
		 "properties": { 
			 "R2extent": 8825.2484, 
			 "electric_dipole_moment_norm": 5.51113071066, 
			 "electric_quadrupole_moment_norm": 17.9259097883, 
			 "total_energy": -1778.911754, 
			 "HOMO_LUMO_gap": 0.21013, 
			 "cosmo_polarized_energy": -17.68, 
			 "cosmo_cavitation_energy": 38.85, 
			 "cosmo_dispersion_energy": -27.34, 
			 "cosmo_repulsion_energy": 2.02, 
			 "cosmo_total_nonelectrostatic_energy": 13.53, 
			 "SMD_solvation_energy": 6.41 
		},
		"coords": [
			{
				"x": 0.9785085235,
				"y": -3.9099136521,
				"z": -2.2322186112,
				"element": "O" 
			},
			{
				"x": 0.4290388938,
				"y": -3.0046075106,
				"z": -1.3882888017,
				"element": "C" 
			},
			{
				"x": 0.884239447,
				"y": -2.8003144054,
				"z": -0.2820923859,
				"element": "O" 
			},
			{
				"x": -0.8151819493,
				"y": -2.3577014977,
				"z": -1.9898669268,
				"element": "C" 
			},
			{
				"x": -0.6152309096,
				"y": -1.971537432,
				"z": -3.4691008604,
				"element": "C" 
			},
			{
				"x": 0.5073153937,
				"y": -0.9264370301,
				"z": -3.6329523236,
				"element": "C" 
			},
			{
				"x": 0.5980277171,
				"y": -0.1201061238,
				"z": -2.3905633976,
				"element": "N" 
			},
			{
				"x": -0.7072483866,
				"y": 0.179876573,
				"z": -1.7776876238,
				"element": "C" 
			},
			{
				"x": -1.2692524708,
				"y": -1.1260751224,
				"z": -1.1753830762,
				"element": "C" 
			},
			{
				"x": 1.7170169029,
				"y": 1.1442116176,
				"z": -2.4537322842,
				"element": "S" 
			},
			{
				"x": 2.8698383416,
				"y": 0.6136873367,
				"z": -3.1876927913,
				"element": "O" 
			},
			{
				"x": 1.0936997789,
				"y": 2.4047080688,
				"z": -2.8838728926,
				"element": "O" 
			},
			{
				"x": 2.1331737547,
				"y": 1.3332236547,
				"z": -0.7150184211,
				"element": "C" 
			},
			{
				"x": 2.2098715335,
				"y": 2.631533014,
				"z": -0.2080904829,
				"element": "C" 
			},
			{
				"x": 2.6096048356,
				"y": 2.8194456894,
				"z": 1.113238421,
				"element": "C" 
			},
			{
				"x": 2.7170690456,
				"y": 4.4200059392,
				"z": 1.7945725642,
				"element": "Cl" 
			},
			{
				"x": 2.9208060331,
				"y": 1.7076654594,
				"z": 1.9013231274,
				"element": "C" 
			},
			{
				"x": 3.2988444033,
				"y": 1.8844405631,
				"z": 3.1724647632,
				"element": "F" 
			},
			{
				"x": 2.835633002,
				"y": 0.415144341,
				"z": 1.3921721295,
				"element": "C" 
			},
			{
				"x": 2.4447036711,
				"y": 0.2196114379,
				"z": 0.0705738434,
				"element": "C" 
			},
			{
				"x": 1.7403614641,
				"y": -4.2918180536,
				"z": -1.7644811062,
				"element": "H" 
			},
			{
				"x": -1.5869754965,
				"y": -3.1372636391,
				"z": -1.9388663552,
				"element": "H" 
			},
			{
				"x": -0.3822940619,
				"y": -2.8478449395,
				"z": -4.0774570468,
				"element": "H" 
			},
			{
				"x": -1.5642265631,
				"y": -1.5673601727,
				"z": -3.8375164014,
				"element": "H" 
			},
			{
				"x": 0.3041354452,
				"y": -0.2980047134,
				"z": -4.5111601239,
				"element": "H" 
			},
			{
				"x": 1.4737975378,
				"y": -1.4094170939,
				"z": -3.782890339,
				"element": "H" 
			},
			{
				"x": -0.5713989319,
				"y": 0.9299674816,
				"z": -0.9957902699,
				"element": "H" 
			},
			{
				"x": -1.3917277278,
				"y": 0.6144638839,
				"z": -2.5197906586,
				"element": "H" 
			},
			{
				"x": -0.9277846529,
				"y": -1.2410120531,
				"z": -0.1443390536,
				"element": "H" 
			},
			{
				"x": -2.3625984771,
				"y": -1.0708827445,
				"z": -1.1624542536,
				"element": "H" 
			},
			{
				"x": 1.9536491252,
				"y": 3.4782918757,
				"z": -0.8339684344,
				"element": "H" 
			},
			{
				"x": 3.0725142064,
				"y": -0.4200198963,
				"z": 2.0419625105,
				"element": "H" 
			},
			{
				"x": 2.3511705715,
				"y": -0.783960856,
				"z": -0.3263324373,
				"element": "H" 
			}
		],
		 "valence_orbital": [ 
			{
				"type": "occ",
				"energy": -0.30051,
				"method": "rhf"
			},
			{
				"type": "occ",
				"energy": -0.28966,
				"method": "rhf"
			},
			{
				"type": "occ",
				"energy": -0.27795,
				"method": "rhf"
			},
			{
				"type": "occ",
				"energy": -0.26473,
				"method": "rhf"
			},
			{
				"type": "occ",
				"energy": -0.25247,
				"method": "rhf"
			},
			{
				"type": "unocc",
				"energy": -0.04234,
				"method": "rhf"
			},
			{
				"type": "unocc",
				"energy": -0.03542,
				"method": "rhf"
			},
			{
				"type": "unocc",
				"energy": -0.00839,
				"method": "rhf"
			},
			{
				"type": "unocc",
				"energy": 0.01129,
				"method": "rhf"
			},
			{
				"type": "unocc",
				"energy": 0.05168,
				"method": "rhf"
			}
		],
		"cosmo_sigma_profile": { 
			"-0.025": 0.0,
			"-0.024": 0.0,
			"-0.023": 0.0,
			"-0.022": 0.0,
			"-0.021": 0.0,
			"-0.02": 0.0,
			"-0.019": 0.0158988264514,
			"-0.018": 0.613888163522,
			"-0.017": 0.909587485624,
			"-0.016": 1.38545315364,
			"-0.015": 0.265118174846,
			"-0.014": 0.636376402429,
			"-0.013": 0.719860202852,
			"-0.012": 0.823447879797,
			"-0.011": 0.727100173035,
			"-0.01": 0.933850214686,
			"-0.009": 2.1282637065,
			"-0.008": 2.75512032236,
			"-0.007": 5.58095537826,
			"-0.006": 9.59056518268,
			"-0.005": 22.2954526822,
			"-0.004": 29.9797348723,
			"-0.003": 28.1113415774,
			"-0.002": 28.8449908227,
			"-0.001": 29.6399439532,
			"0.0": 21.1440028991,
			"0.001": 16.5861291764,
			"0.002": 16.5723428034,
			"0.003": 22.9784597577,
			"0.004": 13.8892930165,
			"0.005": 6.54595246696,
			"0.006": 5.1716603087,
			"0.007": 5.50072541536,
			"0.008": 5.45556642124,
			"0.009": 5.74909723835,
			"0.01": 8.38142247336,
			"0.011": 12.2385421558,
			"0.012": 3.99460863225,
			"0.013": 0.000767723364454,
			"0.014": 0.0,
			"0.015": 0.0,
			"0.016": 0.0,
			"0.017": 0.0,
			"0.018": 0.0,
			"0.019": 0.0,
			"0.02": 0.0,
			"0.021": 0.0,
			"0.022": 0.0,
			"0.023": 0.0,
			"0.024": 0.0,
			"0.025": 0.0
		}
	}
}
