{
	 "smiles": "OC[C@H]1O[C@H]([C@H](O)[C@@H](O)[C@@H]1O)[C@@H]1C2=CC=CC(O)=C2C(=O)C2=C(O)C=C(CO)C=C12", 
	 "Tm": 421.15, 
	 "num_atms": 52, 
	 "gaussian": { 
		 "optdone": 1, 
		 "sigma_profile": "yes", 
		 "theory": "DFT", 
		 "functional": "B3LYP", 
		 "basiset": "6-31G**", 
		 "properties": { 
			 "R2extent": 11536.3427, 
			 "electric_dipole_moment_norm": 4.54108486708, 
			 "electric_quadrupole_moment_norm": 28.0852171653, 
			 "total_energy": -1490.4435055, 
			 "HOMO_LUMO_gap": 0.147, 
			 "cosmo_polarized_energy": -35.76, 
			 "cosmo_cavitation_energy": 49.95, 
			 "cosmo_dispersion_energy": -34.96, 
			 "cosmo_repulsion_energy": 2.57, 
			 "cosmo_total_nonelectrostatic_energy": 17.56, 
			 "SMD_solvation_energy": 8.48 
		},
		"coords": [
			{
				"x": 2.0147360021,
				"y": -0.3618715428,
				"z": -3.1468325158,
				"element": "O" 
			},
			{
				"x": 2.9919080114,
				"y": 0.528113193,
				"z": -2.6580543312,
				"element": "C" 
			},
			{
				"x": 3.3473172609,
				"y": 0.4442707882,
				"z": -1.160639401,
				"element": "C" 
			},
			{
				"x": 2.3153568001,
				"y": 0.910283947,
				"z": -0.2869185695,
				"element": "O" 
			},
			{
				"x": 1.370383963,
				"y": 0.0250247576,
				"z": 0.3417866588,
				"element": "C" 
			},
			{
				"x": 2.0951236013,
				"y": -1.2154789417,
				"z": 0.927848908,
				"element": "C" 
			},
			{
				"x": 2.7774097018,
				"y": -0.8824678506,
				"z": 2.1247645331,
				"element": "O" 
			},
			{
				"x": 3.0558050081,
				"y": -1.8866367368,
				"z": -0.0762006545,
				"element": "C" 
			},
			{
				"x": 2.3827590318,
				"y": -2.5447496041,
				"z": -1.1382598236,
				"element": "O" 
			},
			{
				"x": 4.0170638322,
				"y": -0.8610216528,
				"z": -0.6859724029,
				"element": "C" 
			},
			{
				"x": 4.9410871738,
				"y": -0.5831838484,
				"z": 0.3837382013,
				"element": "O" 
			},
			{
				"x": 0.1463856741,
				"y": -0.3640203486,
				"z": -0.5321323985,
				"element": "C" 
			},
			{
				"x": -0.4829778392,
				"y": 0.7008257861,
				"z": -1.4400148548,
				"element": "C" 
			},
			{
				"x": -0.0136473865,
				"y": 2.0099653661,
				"z": -1.5629262632,
				"element": "C" 
			},
			{
				"x": -0.6152760572,
				"y": 2.8873063096,
				"z": -2.4729063462,
				"element": "C" 
			},
			{
				"x": -1.6634184792,
				"y": 2.4704922608,
				"z": -3.2783718173,
				"element": "C" 
			},
			{
				"x": -2.1605094708,
				"y": 1.1633702219,
				"z": -3.1642451393,
				"element": "C" 
			},
			{
				"x": -3.2056398594,
				"y": 0.7552781781,
				"z": -3.9231065463,
				"element": "O" 
			},
			{
				"x": -1.5885600594,
				"y": 0.2716752281,
				"z": -2.226673559,
				"element": "C" 
			},
			{
				"x": -2.2425759915,
				"y": -1.029075573,
				"z": -1.9115906802,
				"element": "C" 
			},
			{
				"x": -3.033997192,
				"y": -1.5903860386,
				"z": -2.688194192,
				"element": "O" 
			},
			{
				"x": -2.05588908,
				"y": -1.5146929052,
				"z": -0.535150149,
				"element": "C" 
			},
			{
				"x": -3.0604536901,
				"y": -2.3314024713,
				"z": 0.0440697639,
				"element": "C" 
			},
			{
				"x": -4.0497621095,
				"y": -2.8608966415,
				"z": -0.6876404777,
				"element": "O" 
			},
			{
				"x": -3.0336494972,
				"y": -2.5785303541,
				"z": 1.4249577592,
				"element": "C" 
			},
			{
				"x": -2.030536237,
				"y": -2.0268937386,
				"z": 2.2122857803,
				"element": "C" 
			},
			{
				"x": -2.0675522608,
				"y": -2.2217568302,
				"z": 3.7190174488,
				"element": "C" 
			},
			{
				"x": -0.8383415835,
				"y": -1.9743463534,
				"z": 4.3773145052,
				"element": "O" 
			},
			{
				"x": -0.9927179251,
				"y": -1.2753283388,
				"z": 1.6249794998,
				"element": "C" 
			},
			{
				"x": -0.9820319425,
				"y": -1.044253802,
				"z": 0.2534693694,
				"element": "C" 
			},
			{
				"x": 1.1506347563,
				"y": 0.0531839474,
				"z": -3.0282903417,
				"element": "H" 
			},
			{
				"x": 2.7172471016,
				"y": 1.5726596891,
				"z": -2.8617163563,
				"element": "H" 
			},
			{
				"x": 3.9175652433,
				"y": 0.3250558428,
				"z": -3.214067174,
				"element": "H" 
			},
			{
				"x": 4.125513772,
				"y": 1.2199762921,
				"z": -1.0589085247,
				"element": "H" 
			},
			{
				"x": 1.0259055332,
				"y": 0.6160498461,
				"z": 1.1960487431,
				"element": "H" 
			},
			{
				"x": 1.3443580534,
				"y": -1.9609747334,
				"z": 1.2025595956,
				"element": "H" 
			},
			{
				"x": 3.6219813185,
				"y": -0.4800612511,
				"z": 1.8622838612,
				"element": "H" 
			},
			{
				"x": 3.675225623,
				"y": -2.5901542405,
				"z": 0.4975860349,
				"element": "H" 
			},
			{
				"x": 1.8952507626,
				"y": -3.2900539782,
				"z": -0.764071735,
				"element": "H" 
			},
			{
				"x": 4.540356032,
				"y": -1.3285594402,
				"z": -1.5306343005,
				"element": "H" 
			},
			{
				"x": 5.5270661199,
				"y": 0.1332188521,
				"z": 0.1074864511,
				"element": "H" 
			},
			{
				"x": 0.5222843961,
				"y": -1.1355352025,
				"z": -1.217587451,
				"element": "H" 
			},
			{
				"x": 0.8231936458,
				"y": 2.3407522498,
				"z": -0.9656625638,
				"element": "H" 
			},
			{
				"x": -0.2517341382,
				"y": 3.9078481075,
				"z": -2.5529844499,
				"element": "H" 
			},
			{
				"x": -2.1162176511,
				"y": 3.1524245463,
				"z": -3.9951258541,
				"element": "H" 
			},
			{
				"x": -3.511123604,
				"y": 1.5029576117,
				"z": -4.4548053399,
				"element": "H" 
			},
			{
				"x": -3.8816569112,
				"y": -2.5783894047,
				"z": -1.6251548627,
				"element": "H" 
			},
			{
				"x": -3.8183480825,
				"y": -3.1955567765,
				"z": 1.85309853,
				"element": "H" 
			},
			{
				"x": -2.7760462443,
				"y": -1.5066331895,
				"z": 4.1546225691,
				"element": "H" 
			},
			{
				"x": -2.4575499765,
				"y": -3.2266770754,
				"z": 3.9461679253,
				"element": "H" 
			},
			{
				"x": -0.1841020643,
				"y": -2.6019340023,
				"z": 4.0424755671,
				"element": "H" 
			},
			{
				"x": -0.2213030853,
				"y": -0.8893101546,
				"z": 2.2796773704,
				"element": "H" 
			}
		],
		 "valence_orbital": [ 
			{
				"type": "occ",
				"energy": -0.25393,
				"method": "rhf"
			},
			{
				"type": "occ",
				"energy": -0.24659,
				"method": "rhf"
			},
			{
				"type": "occ",
				"energy": -0.24164,
				"method": "rhf"
			},
			{
				"type": "occ",
				"energy": -0.23523,
				"method": "rhf"
			},
			{
				"type": "occ",
				"energy": -0.22062,
				"method": "rhf"
			},
			{
				"type": "unocc",
				"energy": -0.07362,
				"method": "rhf"
			},
			{
				"type": "unocc",
				"energy": -0.01382,
				"method": "rhf"
			},
			{
				"type": "unocc",
				"energy": -0.00581,
				"method": "rhf"
			},
			{
				"type": "unocc",
				"energy": 0.01226,
				"method": "rhf"
			},
			{
				"type": "unocc",
				"energy": 0.04285,
				"method": "rhf"
			}
		],
		"cosmo_sigma_profile": { 
			"-0.025": 0.0,
			"-0.024": 0.0,
			"-0.023": 0.0,
			"-0.022": 0.0,
			"-0.021": 0.0,
			"-0.02": 0.0,
			"-0.019": 0.0347500346479,
			"-0.018": 1.00008876946,
			"-0.017": 1.49654645629,
			"-0.016": 4.11548378426,
			"-0.015": 3.88072466059,
			"-0.014": 3.94900916889,
			"-0.013": 3.85444924444,
			"-0.012": 3.47228998821,
			"-0.011": 4.79333117014,
			"-0.01": 4.28614191073,
			"-0.009": 3.82446845786,
			"-0.008": 5.48939695861,
			"-0.007": 9.72947371403,
			"-0.006": 18.8882290571,
			"-0.005": 28.1971854348,
			"-0.004": 26.2687141811,
			"-0.003": 25.7367104676,
			"-0.002": 23.249964999,
			"-0.001": 22.7057568674,
			"0.0": 21.0659828479,
			"0.001": 21.8766034945,
			"0.002": 23.4401085064,
			"0.003": 27.1959395248,
			"0.004": 16.6595820315,
			"0.005": 9.54525879597,
			"0.006": 9.18951632652,
			"0.007": 8.04444451433,
			"0.008": 8.01090942918,
			"0.009": 9.67440112508,
			"0.01": 7.82788140847,
			"0.011": 8.76997683675,
			"0.012": 7.4409919594,
			"0.013": 7.39619091759,
			"0.014": 5.9708075003,
			"0.015": 2.74933408415,
			"0.016": 2.03469276388,
			"0.017": 0.624093695814,
			"0.018": 0.0179265201775,
			"0.019": 0.0,
			"0.02": 0.0,
			"0.021": 0.0,
			"0.022": 0.0,
			"0.023": 0.0,
			"0.024": 0.0,
			"0.025": 0.0
		}
	}
}
