{
	 "smiles": "CCC(C)CCC(C)O", 
	 "Tm": 212.15, 
	 "num_atms": 27, 
	 "gaussian": { 
		 "optdone": 1, 
		 "sigma_profile": "yes", 
		 "theory": "DFT", 
		 "functional": "B3LYP", 
		 "basiset": "6-31G**", 
		 "properties": { 
			 "R2extent": 2240.3595, 
			 "electric_dipole_moment_norm": 1.5951496983, 
			 "electric_quadrupole_moment_norm": 8.39037940263, 
			 "total_energy": -390.939910076, 
			 "HOMO_LUMO_gap": 0.33306, 
			 "cosmo_polarized_energy": -5.79, 
			 "cosmo_cavitation_energy": 27.34, 
			 "cosmo_dispersion_energy": -19.44, 
			 "cosmo_repulsion_energy": 1.63, 
			 "cosmo_total_nonelectrostatic_energy": 9.53, 
			 "SMD_solvation_energy": 4.43 
		},
		"coords": [
			{
				"x": 3.3825795451,
				"y": 0.7652628005,
				"z": -0.0023035566,
				"element": "C" 
			},
			{
				"x": 1.8834111788,
				"y": 0.4590590176,
				"z": -0.1067913477,
				"element": "C" 
			},
			{
				"x": 1.4043925487,
				"y": -0.7355749776,
				"z": 0.7441037809,
				"element": "C" 
			},
			{
				"x": 2.0593077888,
				"y": -2.0532195255,
				"z": 0.2995625091,
				"element": "C" 
			},
			{
				"x": -0.1334851109,
				"y": -0.8792645266,
				"z": 0.7230462005,
				"element": "C" 
			},
			{
				"x": -0.9038823245,
				"y": 0.2615871657,
				"z": 1.4039682932,
				"element": "C" 
			},
			{
				"x": -2.4225080183,
				"y": 0.0320545387,
				"z": 1.5418265119,
				"element": "C" 
			},
			{
				"x": -3.162947222,
				"y": -0.0525974516,
				"z": 0.2038298055,
				"element": "C" 
			},
			{
				"x": -2.7147278385,
				"y": -1.1009406353,
				"z": 2.3634306955,
				"element": "O" 
			},
			{
				"x": 3.6375080193,
				"y": 1.6643882334,
				"z": -0.5729605962,
				"element": "H" 
			},
			{
				"x": 3.6779932321,
				"y": 0.9402825589,
				"z": 1.0388606022,
				"element": "H" 
			},
			{
				"x": 3.9997718463,
				"y": -0.0515876356,
				"z": -0.3888542073,
				"element": "H" 
			},
			{
				"x": 1.3280044385,
				"y": 1.3567202172,
				"z": 0.1892270114,
				"element": "H" 
			},
			{
				"x": 1.6192609944,
				"y": 0.2714797864,
				"z": -1.1578678762,
				"element": "H" 
			},
			{
				"x": 1.7041348442,
				"y": -0.5448313567,
				"z": 1.7866204796,
				"element": "H" 
			},
			{
				"x": 1.8023175542,
				"y": -2.2856071043,
				"z": -0.7416580636,
				"element": "H" 
			},
			{
				"x": 1.7186233987,
				"y": -2.8896594553,
				"z": 0.919553105,
				"element": "H" 
			},
			{
				"x": 3.1501282831,
				"y": -2.0154998946,
				"z": 0.3712878891,
				"element": "H" 
			},
			{
				"x": -0.3875411403,
				"y": -1.819558354,
				"z": 1.2318206534,
				"element": "H" 
			},
			{
				"x": -0.4605679874,
				"y": -0.9936651099,
				"z": -0.3201316071,
				"element": "H" 
			},
			{
				"x": -0.5009803415,
				"y": 0.4065241615,
				"z": 2.4144253742,
				"element": "H" 
			},
			{
				"x": -0.7507425825,
				"y": 1.204807987,
				"z": 0.8649385149,
				"element": "H" 
			},
			{
				"x": -2.8300818732,
				"y": 0.8806369065,
				"z": 2.1048940253,
				"element": "H" 
			},
			{
				"x": -3.0009074231,
				"y": 0.8473894116,
				"z": -0.399172472,
				"element": "H" 
			},
			{
				"x": -4.2370739771,
				"y": -0.1647714879,
				"z": 0.3766666423,
				"element": "H" 
			},
			{
				"x": -2.8254581021,
				"y": -0.9123848193,
				"z": -0.3874140732,
				"element": "H" 
			},
			{
				"x": -2.5043297311,
				"y": -1.8943304508,
				"z": 1.8537917059,
				"element": "H" 
			}
		],
		 "valence_orbital": [ 
			{
				"type": "occ",
				"energy": -0.3178,
				"method": "rhf"
			},
			{
				"type": "occ",
				"energy": -0.31509,
				"method": "rhf"
			},
			{
				"type": "occ",
				"energy": -0.30847,
				"method": "rhf"
			},
			{
				"type": "occ",
				"energy": -0.30203,
				"method": "rhf"
			},
			{
				"type": "occ",
				"energy": -0.25932,
				"method": "rhf"
			},
			{
				"type": "unocc",
				"energy": 0.07374,
				"method": "rhf"
			},
			{
				"type": "unocc",
				"energy": 0.09077,
				"method": "rhf"
			},
			{
				"type": "unocc",
				"energy": 0.10479,
				"method": "rhf"
			},
			{
				"type": "unocc",
				"energy": 0.10994,
				"method": "rhf"
			},
			{
				"type": "unocc",
				"energy": 0.12614,
				"method": "rhf"
			}
		],
		"cosmo_sigma_profile": { 
			"-0.025": 0.0,
			"-0.024": 0.0,
			"-0.023": 0.0,
			"-0.022": 0.0,
			"-0.021": 0.0,
			"-0.02": 0.0,
			"-0.019": 0.0,
			"-0.018": 0.0,
			"-0.017": 0.0,
			"-0.016": 0.0,
			"-0.015": 0.0,
			"-0.014": 0.468751029545,
			"-0.013": 0.497312318781,
			"-0.012": 0.849476183974,
			"-0.011": 1.01426654155,
			"-0.01": 1.08027315593,
			"-0.009": 1.32747435983,
			"-0.008": 0.823501420476,
			"-0.007": 0.963818888848,
			"-0.006": 1.42179714986,
			"-0.005": 1.20873724441,
			"-0.004": 2.91136969044,
			"-0.003": 14.3924295145,
			"-0.002": 32.5303146528,
			"-0.001": 37.878520845,
			"0.0": 40.4427279276,
			"0.001": 36.0771557892,
			"0.002": 16.5362448939,
			"0.003": 2.04207362742,
			"0.004": 1.36220947927,
			"0.005": 1.69174746811,
			"0.006": 1.06013701007,
			"0.007": 0.781004301198,
			"0.008": 1.77550103255,
			"0.009": 1.16353469231,
			"0.01": 0.674425126417,
			"0.011": 1.24831709159,
			"0.012": 1.42096683583,
			"0.013": 1.70524026358,
			"0.014": 1.64089205083,
			"0.015": 2.19631741516,
			"0.016": 0.0472909320476,
			"0.017": 0.0,
			"0.018": 0.0,
			"0.019": 0.0,
			"0.02": 0.0,
			"0.021": 0.0,
			"0.022": 0.0,
			"0.023": 0.0,
			"0.024": 0.0,
			"0.025": 0.0
		}
	}
}
