{
	 "smiles": "CCOC(=O)C(C(=O)OCC)=C(C(=O)OCC)C(=O)OCC", 
	 "Tm": 331.15, 
	 "num_atms": 42, 
	 "gaussian": { 
		 "optdone": 1, 
		 "sigma_profile": "yes", 
		 "theory": "DFT", 
		 "functional": "B3LYP", 
		 "basiset": "6-31G**", 
		 "properties": { 
			 "R2extent": 8545.7662, 
			 "electric_dipole_moment_norm": 4.20136486395, 
			 "electric_quadrupole_moment_norm": 22.9544954715, 
			 "total_energy": -1147.35413004, 
			 "HOMO_LUMO_gap": 0.17926, 
			 "cosmo_polarized_energy": -18.02, 
			 "cosmo_cavitation_energy": 47.9, 
			 "cosmo_dispersion_energy": -29.98, 
			 "cosmo_repulsion_energy": 2.43, 
			 "cosmo_total_nonelectrostatic_energy": 20.35, 
			 "SMD_solvation_energy": 12.06 
		},
		"coords": [
			{
				"x": 3.5818778541,
				"y": -0.8615010844,
				"z": 1.5824699807,
				"element": "C" 
			},
			{
				"x": 2.2551091581,
				"y": -1.4853761778,
				"z": 1.9695957168,
				"element": "C" 
			},
			{
				"x": 1.2060008622,
				"y": -0.6607445681,
				"z": 1.4061650302,
				"element": "O" 
			},
			{
				"x": -0.0478773437,
				"y": -1.1030970621,
				"z": 1.6022746478,
				"element": "C" 
			},
			{
				"x": -0.3437626801,
				"y": -2.1231240468,
				"z": 2.1800581828,
				"element": "O" 
			},
			{
				"x": -1.060166343,
				"y": -0.1871595398,
				"z": 0.9582934557,
				"element": "C" 
			},
			{
				"x": -1.8346883311,
				"y": -0.7677163887,
				"z": -0.1884988461,
				"element": "C" 
			},
			{
				"x": -2.891710571,
				"y": -0.3301444127,
				"z": -0.5945957901,
				"element": "O" 
			},
			{
				"x": -1.1964701255,
				"y": -1.831735472,
				"z": -0.7046716819,
				"element": "O" 
			},
			{
				"x": -1.8474426276,
				"y": -2.5133509961,
				"z": -1.8076871702,
				"element": "C" 
			},
			{
				"x": -1.4904388787,
				"y": -1.8697846591,
				"z": -3.1384175171,
				"element": "C" 
			},
			{
				"x": -1.3116392682,
				"y": 1.0636844064,
				"z": 1.3851875064,
				"element": "C" 
			},
			{
				"x": -2.3670228082,
				"y": 1.9710403951,
				"z": 0.7881476015,
				"element": "C" 
			},
			{
				"x": -3.3828517112,
				"y": 2.2458669049,
				"z": 1.3842884604,
				"element": "O" 
			},
			{
				"x": -1.9774365063,
				"y": 2.4716943475,
				"z": -0.389202877,
				"element": "O" 
			},
			{
				"x": -2.8954984762,
				"y": 3.400117725,
				"z": -1.0271197708,
				"element": "C" 
			},
			{
				"x": -3.9359668472,
				"y": 2.6643238374,
				"z": -1.8561074439,
				"element": "C" 
			},
			{
				"x": -0.5872439883,
				"y": 1.7316090493,
				"z": 2.5185325316,
				"element": "C" 
			},
			{
				"x": -0.3677230649,
				"y": 2.9242689364,
				"z": 2.535546071,
				"element": "O" 
			},
			{
				"x": -0.2493160116,
				"y": 0.8769867041,
				"z": 3.496232112,
				"element": "O" 
			},
			{
				"x": 0.447332199,
				"y": 1.4540266372,
				"z": 4.6302714843,
				"element": "C" 
			},
			{
				"x": 0.5467258253,
				"y": 0.3823118344,
				"z": 5.6978131773,
				"element": "C" 
			},
			{
				"x": 3.6647802397,
				"y": 0.157676522,
				"z": 1.9706791896,
				"element": "H" 
			},
			{
				"x": 4.4042130425,
				"y": -1.4551909814,
				"z": 1.9936605517,
				"element": "H" 
			},
			{
				"x": 3.6935725109,
				"y": -0.824803689,
				"z": 0.4952274546,
				"element": "H" 
			},
			{
				"x": 2.1458852781,
				"y": -2.5031318166,
				"z": 1.5830798417,
				"element": "H" 
			},
			{
				"x": 2.1190450715,
				"y": -1.5286748059,
				"z": 3.0551213534,
				"element": "H" 
			},
			{
				"x": -2.9259799777,
				"y": -2.5018371442,
				"z": -1.6356229793,
				"element": "H" 
			},
			{
				"x": -1.4784337941,
				"y": -3.5390044445,
				"z": -1.7421464683,
				"element": "H" 
			},
			{
				"x": -1.9325614877,
				"y": -2.4472414854,
				"z": -3.9569625981,
				"element": "H" 
			},
			{
				"x": -1.8782915969,
				"y": -0.8495788708,
				"z": -3.1899603862,
				"element": "H" 
			},
			{
				"x": -0.4063553326,
				"y": -1.8447988713,
				"z": -3.2816114482,
				"element": "H" 
			},
			{
				"x": -2.2507244116,
				"y": 4.0268836205,
				"z": -1.6471880314,
				"element": "H" 
			},
			{
				"x": -3.362257803,
				"y": 4.0131157532,
				"z": -0.2527726339,
				"element": "H" 
			},
			{
				"x": -4.5645512832,
				"y": 2.038630435,
				"z": -1.2195649174,
				"element": "H" 
			},
			{
				"x": -3.4586741977,
				"y": 2.0265209259,
				"z": -2.6049496737,
				"element": "H" 
			},
			{
				"x": -4.5721498977,
				"y": 3.3911956351,
				"z": -2.372645383,
				"element": "H" 
			},
			{
				"x": -0.1128669229,
				"y": 2.3292673739,
				"z": 4.9704442083,
				"element": "H" 
			},
			{
				"x": 1.4303924001,
				"y": 1.798874547,
				"z": 4.2931891117,
				"element": "H" 
			},
			{
				"x": -0.4471395736,
				"y": 0.0526800079,
				"z": 6.0120956235,
				"element": "H" 
			},
			{
				"x": 1.0716721528,
				"y": 0.7812920882,
				"z": 6.5713045536,
				"element": "H" 
			},
			{
				"x": 1.0969352671,
				"y": -0.4899711697,
				"z": 5.3335477698,
				"element": "H" 
			}
		],
		 "valence_orbital": [ 
			{
				"type": "occ",
				"energy": -0.29456,
				"method": "rhf"
			},
			{
				"type": "occ",
				"energy": -0.29135,
				"method": "rhf"
			},
			{
				"type": "occ",
				"energy": -0.28744,
				"method": "rhf"
			},
			{
				"type": "occ",
				"energy": -0.28279,
				"method": "rhf"
			},
			{
				"type": "occ",
				"energy": -0.26251,
				"method": "rhf"
			},
			{
				"type": "unocc",
				"energy": -0.08325,
				"method": "rhf"
			},
			{
				"type": "unocc",
				"energy": -0.00314,
				"method": "rhf"
			},
			{
				"type": "unocc",
				"energy": 0.00788,
				"method": "rhf"
			},
			{
				"type": "unocc",
				"energy": 0.03325,
				"method": "rhf"
			},
			{
				"type": "unocc",
				"energy": 0.067,
				"method": "rhf"
			}
		],
		"cosmo_sigma_profile": { 
			"-0.025": 0.0,
			"-0.024": 0.0,
			"-0.023": 0.0,
			"-0.022": 0.0,
			"-0.021": 0.0,
			"-0.02": 0.0,
			"-0.019": 0.0,
			"-0.018": 0.0,
			"-0.017": 0.0,
			"-0.016": 0.0,
			"-0.015": 0.0,
			"-0.014": 0.0,
			"-0.013": 0.0,
			"-0.012": 0.0,
			"-0.011": 0.0,
			"-0.01": 0.0,
			"-0.009": 0.0,
			"-0.008": 0.0,
			"-0.007": 1.01078010545,
			"-0.006": 12.2743113789,
			"-0.005": 32.1429924292,
			"-0.004": 51.7766397404,
			"-0.003": 44.0590279423,
			"-0.002": 38.276363598,
			"-0.001": 38.6229655514,
			"0.0": 33.2439431125,
			"0.001": 16.4356875822,
			"0.002": 13.2103220311,
			"0.003": 11.299985078,
			"0.004": 13.1830036775,
			"0.005": 13.208236944,
			"0.006": 9.63534898929,
			"0.007": 8.43787747073,
			"0.008": 8.94801370793,
			"0.009": 8.21911202345,
			"0.01": 11.3795033592,
			"0.011": 10.2952495092,
			"0.012": 0.825447613147,
			"0.013": 0.0,
			"0.014": 0.0,
			"0.015": 0.0,
			"0.016": 0.0,
			"0.017": 0.0,
			"0.018": 0.0,
			"0.019": 0.0,
			"0.02": 0.0,
			"0.021": 0.0,
			"0.022": 0.0,
			"0.023": 0.0,
			"0.024": 0.0,
			"0.025": 0.0
		}
	}
}
