{
	 "smiles": "CCOC(=O)C1=C(N)SC(C)=C1CC(C)CC", 
	 "Tm": 351.15, 
	 "num_atms": 38, 
	 "gaussian": { 
		 "optdone": 1, 
		 "sigma_profile": "yes", 
		 "theory": "DFT", 
		 "functional": "B3LYP", 
		 "basiset": "6-31G**", 
		 "properties": { 
			 "R2extent": 5250.9883, 
			 "electric_dipole_moment_norm": 0.428299498015, 
			 "electric_quadrupole_moment_norm": 9.7361253746, 
			 "total_energy": -1111.46245278, 
			 "HOMO_LUMO_gap": 0.17507, 
			 "cosmo_polarized_energy": -8.81, 
			 "cosmo_cavitation_energy": 39.79, 
			 "cosmo_dispersion_energy": -27.43, 
			 "cosmo_repulsion_energy": 2.08, 
			 "cosmo_total_nonelectrostatic_energy": 14.45, 
			 "SMD_solvation_energy": 6.89 
		},
		"coords": [
			{
				"x": -2.8794509944,
				"y": -2.6170118227,
				"z": 1.2666243583,
				"element": "C" 
			},
			{
				"x": -1.4042852871,
				"y": -2.8607644419,
				"z": 1.523681112,
				"element": "C" 
			},
			{
				"x": -0.6551163201,
				"y": -1.9132243891,
				"z": 0.7305187436,
				"element": "O" 
			},
			{
				"x": 0.6943711566,
				"y": -2.0293950434,
				"z": 0.8055998384,
				"element": "C" 
			},
			{
				"x": 1.2106590618,
				"y": -2.8892595117,
				"z": 1.5240023639,
				"element": "O" 
			},
			{
				"x": 1.4469291672,
				"y": -1.0931400069,
				"z": -0.0222803883,
				"element": "C" 
			},
			{
				"x": 2.8353973706,
				"y": -1.2522892784,
				"z": -0.0849668299,
				"element": "C" 
			},
			{
				"x": 3.5892733657,
				"y": -2.1961978315,
				"z": 0.5312638893,
				"element": "N" 
			},
			{
				"x": 3.5608322935,
				"y": -0.0987982324,
				"z": -1.1713861037,
				"element": "S" 
			},
			{
				"x": 1.9866692417,
				"y": 0.6247610861,
				"z": -1.542722965,
				"element": "C" 
			},
			{
				"x": 1.9741083402,
				"y": 1.7758522763,
				"z": -2.5054682524,
				"element": "C" 
			},
			{
				"x": 0.9742913962,
				"y": 0.0081700722,
				"z": -0.8638100488,
				"element": "C" 
			},
			{
				"x": -0.4679905683,
				"y": 0.4557134229,
				"z": -0.9560550819,
				"element": "C" 
			},
			{
				"x": -0.9964507307,
				"y": 1.2234822634,
				"z": 0.2867988484,
				"element": "C" 
			},
			{
				"x": -2.518949751,
				"y": 1.4011018034,
				"z": 0.184489179,
				"element": "C" 
			},
			{
				"x": -0.2678910644,
				"y": 2.5604760631,
				"z": 0.5509652607,
				"element": "C" 
			},
			{
				"x": -0.5734762357,
				"y": 3.7055466289,
				"z": -0.424664166,
				"element": "C" 
			},
			{
				"x": -3.1195887928,
				"y": -2.745463024,
				"z": 0.2070546863,
				"element": "H" 
			},
			{
				"x": -3.1717742965,
				"y": -1.6070003834,
				"z": 1.5675659441,
				"element": "H" 
			},
			{
				"x": -3.4766034496,
				"y": -3.3316183038,
				"z": 1.8420437552,
				"element": "H" 
			},
			{
				"x": -1.1031023306,
				"y": -3.874235345,
				"z": 1.2418202464,
				"element": "H" 
			},
			{
				"x": -1.1453313044,
				"y": -2.7260642137,
				"z": 2.5786592117,
				"element": "H" 
			},
			{
				"x": 3.08976481,
				"y": -2.7471353632,
				"z": 1.2238628836,
				"element": "H" 
			},
			{
				"x": 4.5872678153,
				"y": -2.0811102052,
				"z": 0.5960853256,
				"element": "H" 
			},
			{
				"x": 2.6000488595,
				"y": 1.5704664754,
				"z": -3.3814638021,
				"element": "H" 
			},
			{
				"x": 0.962324355,
				"y": 1.9676845005,
				"z": -2.8686158716,
				"element": "H" 
			},
			{
				"x": 2.3436236464,
				"y": 2.7036559678,
				"z": -2.0506423472,
				"element": "H" 
			},
			{
				"x": -1.103250695,
				"y": -0.4219588201,
				"z": -1.1028582254,
				"element": "H" 
			},
			{
				"x": -0.5969843719,
				"y": 1.0833859224,
				"z": -1.8441993688,
				"element": "H" 
			},
			{
				"x": -0.8002367657,
				"y": 0.5844340351,
				"z": 1.1554221996,
				"element": "H" 
			},
			{
				"x": -3.0229849593,
				"y": 0.429929127,
				"z": 0.1449427627,
				"element": "H" 
			},
			{
				"x": -2.9139548143,
				"y": 1.9498717743,
				"z": 1.0472287656,
				"element": "H" 
			},
			{
				"x": -2.804316387,
				"y": 1.9537617428,
				"z": -0.7177856673,
				"element": "H" 
			},
			{
				"x": -0.5278114967,
				"y": 2.8923160756,
				"z": 1.5651713769,
				"element": "H" 
			},
			{
				"x": 0.8125196205,
				"y": 2.3726851422,
				"z": 0.5629979466,
				"element": "H" 
			},
			{
				"x": 0.0297148046,
				"y": 4.5869237303,
				"z": -0.1821734753,
				"element": "H" 
			},
			{
				"x": -0.3516923661,
				"y": 3.4366075043,
				"z": -1.4624337575,
				"element": "H" 
			},
			{
				"x": -1.6244523234,
				"y": 4.0086406024,
				"z": -0.380872347,
				"element": "H" 
			}
		],
		 "valence_orbital": [ 
			{
				"type": "occ",
				"energy": -0.29375,
				"method": "rhf"
			},
			{
				"type": "occ",
				"energy": -0.28817,
				"method": "rhf"
			},
			{
				"type": "occ",
				"energy": -0.26624,
				"method": "rhf"
			},
			{
				"type": "occ",
				"energy": -0.24066,
				"method": "rhf"
			},
			{
				"type": "occ",
				"energy": -0.18771,
				"method": "rhf"
			},
			{
				"type": "unocc",
				"energy": -0.01264,
				"method": "rhf"
			},
			{
				"type": "unocc",
				"energy": 0.01368,
				"method": "rhf"
			},
			{
				"type": "unocc",
				"energy": 0.02371,
				"method": "rhf"
			},
			{
				"type": "unocc",
				"energy": 0.07537,
				"method": "rhf"
			},
			{
				"type": "unocc",
				"energy": 0.08681,
				"method": "rhf"
			}
		],
		"cosmo_sigma_profile": { 
			"-0.025": 0.0,
			"-0.024": 0.0,
			"-0.023": 0.0,
			"-0.022": 0.0,
			"-0.021": 0.0,
			"-0.02": 0.0,
			"-0.019": 0.0,
			"-0.018": 0.0,
			"-0.017": 0.0,
			"-0.016": 0.0,
			"-0.015": 0.400704829818,
			"-0.014": 1.28988288408,
			"-0.013": 1.1652602005,
			"-0.012": 1.39264374859,
			"-0.011": 0.947958804853,
			"-0.01": 1.560376543,
			"-0.009": 1.9601925506,
			"-0.008": 2.01028513843,
			"-0.007": 1.86313519224,
			"-0.006": 2.13056996681,
			"-0.005": 7.01158543084,
			"-0.004": 17.357497297,
			"-0.003": 21.3044716981,
			"-0.002": 33.0968334331,
			"-0.001": 42.9966100658,
			"0.0": 47.5860906579,
			"0.001": 39.795462839,
			"0.002": 27.0773827595,
			"0.003": 19.5282107649,
			"0.004": 15.3522763871,
			"0.005": 9.65616214247,
			"0.006": 4.22559740862,
			"0.007": 2.31182372661,
			"0.008": 2.54491322047,
			"0.009": 2.05559549859,
			"0.01": 1.1843150887,
			"0.011": 1.87608800642,
			"0.012": 1.93596887116,
			"0.013": 1.02790712192,
			"0.014": 0.0,
			"0.015": 0.0,
			"0.016": 0.0,
			"0.017": 0.0,
			"0.018": 0.0,
			"0.019": 0.0,
			"0.02": 0.0,
			"0.021": 0.0,
			"0.022": 0.0,
			"0.023": 0.0,
			"0.024": 0.0,
			"0.025": 0.0
		}
	}
}
