{
	 "smiles": "NC1=CC=C(CC(=O)N2CCSCC2)C=C1", 
	 "Tm": 392.15, 
	 "num_atms": 32, 
	 "gaussian": { 
		 "optdone": 1, 
		 "sigma_profile": "yes", 
		 "theory": "DFT", 
		 "functional": "B3LYP", 
		 "basiset": "6-31G**", 
		 "properties": { 
			 "R2extent": 4526.9788, 
			 "electric_dipole_moment_norm": 3.48171406207, 
			 "electric_quadrupole_moment_norm": 19.6128831657, 
			 "total_energy": -1049.85623687, 
			 "HOMO_LUMO_gap": 0.19773, 
			 "cosmo_polarized_energy": -16.65, 
			 "cosmo_cavitation_energy": 35.19, 
			 "cosmo_dispersion_energy": -24.95, 
			 "cosmo_repulsion_energy": 1.9, 
			 "cosmo_total_nonelectrostatic_energy": 12.15, 
			 "SMD_solvation_energy": 4.79 
		},
		"coords": [
			{
				"x": 3.9840523272,
				"y": 2.6462296113,
				"z": 1.7589445915,
				"element": "N" 
			},
			{
				"x": 2.8643284561,
				"y": 2.3239245419,
				"z": 0.989997989,
				"element": "C" 
			},
			{
				"x": 2.9845888212,
				"y": 2.0469246916,
				"z": -0.3813912654,
				"element": "C" 
			},
			{
				"x": 1.8539376183,
				"y": 1.782167829,
				"z": -1.1522534841,
				"element": "C" 
			},
			{
				"x": 0.5706699648,
				"y": 1.7828797312,
				"z": -0.5938529073,
				"element": "C" 
			},
			{
				"x": -0.6659917797,
				"y": 1.5140221257,
				"z": -1.4366630541,
				"element": "C" 
			},
			{
				"x": -1.6086122924,
				"y": 0.485285051,
				"z": -0.8030028176,
				"element": "C" 
			},
			{
				"x": -2.5797525144,
				"y": 0.8689239661,
				"z": -0.1539616449,
				"element": "O" 
			},
			{
				"x": -1.3368887263,
				"y": -0.8552279664,
				"z": -0.9732034689,
				"element": "N" 
			},
			{
				"x": -2.2235388493,
				"y": -1.8307282608,
				"z": -0.3346108889,
				"element": "C" 
			},
			{
				"x": -1.5694995367,
				"y": -2.4983595739,
				"z": 0.8778245568,
				"element": "C" 
			},
			{
				"x": -0.0305829249,
				"y": -3.3994773692,
				"z": 0.4328041779,
				"element": "S" 
			},
			{
				"x": 0.7943159329,
				"y": -2.0297334681,
				"z": -0.4687137199,
				"element": "C" 
			},
			{
				"x": -0.1095176625,
				"y": -1.4067736635,
				"z": -1.541106284,
				"element": "C" 
			},
			{
				"x": 0.4556268531,
				"y": 2.0627873585,
				"z": 0.776295427,
				"element": "C" 
			},
			{
				"x": 1.5765409847,
				"y": 2.3263744669,
				"z": 1.5562423783,
				"element": "C" 
			},
			{
				"x": 4.8641703984,
				"y": 2.2951529943,
				"z": 1.4074993214,
				"element": "H" 
			},
			{
				"x": 3.8844871394,
				"y": 2.4866224153,
				"z": 2.7519480733,
				"element": "H" 
			},
			{
				"x": 3.9684063958,
				"y": 2.045386597,
				"z": -0.8446345132,
				"element": "H" 
			},
			{
				"x": 1.9781078973,
				"y": 1.5769109448,
				"z": -2.213607009,
				"element": "H" 
			},
			{
				"x": -0.3744392677,
				"y": 1.2276435841,
				"z": -2.4520054921,
				"element": "H" 
			},
			{
				"x": -1.2730039599,
				"y": 2.4205814565,
				"z": -1.5192723766,
				"element": "H" 
			},
			{
				"x": -3.1205598745,
				"y": -1.2914725623,
				"z": -0.0265735103,
				"element": "H" 
			},
			{
				"x": -2.4949861026,
				"y": -2.5938472853,
				"z": -1.0745318632,
				"element": "H" 
			},
			{
				"x": -1.3482920616,
				"y": -1.7511220269,
				"z": 1.6464117906,
				"element": "H" 
			},
			{
				"x": -2.2408933892,
				"y": -3.2459650547,
				"z": 1.309732861,
				"element": "H" 
			},
			{
				"x": 1.1168093168,
				"y": -1.2601876694,
				"z": 0.2392229811,
				"element": "H" 
			},
			{
				"x": 1.683672078,
				"y": -2.4664651418,
				"z": -0.9322809645,
				"element": "H" 
			},
			{
				"x": 0.4432560139,
				"y": -0.6212818592,
				"z": -2.0559498969,
				"element": "H" 
			},
			{
				"x": -0.377107926,
				"y": -2.1714837103,
				"z": -2.2819420562,
				"element": "H" 
			},
			{
				"x": -0.530157031,
				"y": 2.0712863765,
				"z": 1.2335542842,
				"element": "H" 
			},
			{
				"x": 1.4586537008,
				"y": 2.5450218701,
				"z": 2.6149787848,
				"element": "H" 
			}
		],
		 "valence_orbital": [ 
			{
				"type": "occ",
				"energy": -0.25001,
				"method": "rhf"
			},
			{
				"type": "occ",
				"energy": -0.24728,
				"method": "rhf"
			},
			{
				"type": "occ",
				"energy": -0.24223,
				"method": "rhf"
			},
			{
				"type": "occ",
				"energy": -0.21903,
				"method": "rhf"
			},
			{
				"type": "occ",
				"energy": -0.20163,
				"method": "rhf"
			},
			{
				"type": "unocc",
				"energy": -0.0039,
				"method": "rhf"
			},
			{
				"type": "unocc",
				"energy": 0.00996,
				"method": "rhf"
			},
			{
				"type": "unocc",
				"energy": 0.03098,
				"method": "rhf"
			},
			{
				"type": "unocc",
				"energy": 0.03561,
				"method": "rhf"
			},
			{
				"type": "unocc",
				"energy": 0.07708,
				"method": "rhf"
			}
		],
		"cosmo_sigma_profile": { 
			"-0.025": 0.0,
			"-0.024": 0.0,
			"-0.023": 0.0,
			"-0.022": 0.0,
			"-0.021": 0.0,
			"-0.02": 0.0,
			"-0.019": 0.0,
			"-0.018": 0.0,
			"-0.017": 0.0,
			"-0.016": 0.0,
			"-0.015": 0.0,
			"-0.014": 0.0,
			"-0.013": 0.0988963637541,
			"-0.012": 2.31805439099,
			"-0.011": 2.35128231339,
			"-0.01": 3.09192934543,
			"-0.009": 3.08735634302,
			"-0.008": 4.23122313208,
			"-0.007": 5.80246092965,
			"-0.006": 13.0715005878,
			"-0.005": 20.5192891944,
			"-0.004": 27.3237063232,
			"-0.003": 25.7504827724,
			"-0.002": 23.7077023772,
			"-0.001": 19.6422953391,
			"0.0": 17.014692117,
			"0.001": 13.4705069912,
			"0.002": 13.6392246509,
			"0.003": 11.341197308,
			"0.004": 12.3782099305,
			"0.005": 13.3087172389,
			"0.006": 10.9010785501,
			"0.007": 7.93009869353,
			"0.008": 4.78882107824,
			"0.009": 4.00746207219,
			"0.01": 3.99077723649,
			"0.011": 3.20629704947,
			"0.012": 2.39655682707,
			"0.013": 3.25881729837,
			"0.014": 4.64660259726,
			"0.015": 1.39205924678,
			"0.016": 0.0215987585013,
			"0.017": 0.0,
			"0.018": 0.0,
			"0.019": 0.0,
			"0.02": 0.0,
			"0.021": 0.0,
			"0.022": 0.0,
			"0.023": 0.0,
			"0.024": 0.0,
			"0.025": 0.0
		}
	}
}
