{
	 "smiles": "O=C1CCCCCCCCCCCC1", 
	 "Tm": 298.15, 
	 "num_atms": 38, 
	 "gaussian": { 
		 "optdone": 1, 
		 "sigma_profile": "yes", 
		 "theory": "DFT", 
		 "functional": "B3LYP", 
		 "basiset": "6-31G**", 
		 "properties": { 
			 "R2extent": 3290.7477, 
			 "electric_dipole_moment_norm": 2.35870211133, 
			 "electric_quadrupole_moment_norm": 9.63546877791, 
			 "total_energy": -585.087755457, 
			 "HOMO_LUMO_gap": 0.22375, 
			 "cosmo_polarized_energy": -6.15, 
			 "cosmo_cavitation_energy": 33.91, 
			 "cosmo_dispersion_energy": -24.1, 
			 "cosmo_repulsion_energy": 1.88, 
			 "cosmo_total_nonelectrostatic_energy": 11.69, 
			 "SMD_solvation_energy": 4.45 
		},
		"coords": [
			{
				"x": 1.0779031002,
				"y": 2.6281857325,
				"z": -1.0505007578,
				"element": "O" 
			},
			{
				"x": 0.739260565,
				"y": 1.8076692585,
				"z": -1.8875629147,
				"element": "C" 
			},
			{
				"x": -0.5952761578,
				"y": 1.9395233449,
				"z": -2.6070094499,
				"element": "C" 
			},
			{
				"x": -1.6865282264,
				"y": 1.0849905892,
				"z": -1.9097305594,
				"element": "C" 
			},
			{
				"x": -1.9855591348,
				"y": 1.4995840845,
				"z": -0.4471092876,
				"element": "C" 
			},
			{
				"x": -2.2228003379,
				"y": 0.282054131,
				"z": 0.4635893767,
				"element": "C" 
			},
			{
				"x": -2.1975330977,
				"y": 0.5331141357,
				"z": 1.9826366668,
				"element": "C" 
			},
			{
				"x": -0.9251109834,
				"y": 1.2032360784,
				"z": 2.5555181732,
				"element": "C" 
			},
			{
				"x": 0.4281879044,
				"y": 0.7227135575,
				"z": 1.9980339196,
				"element": "C" 
			},
			{
				"x": 0.752383951,
				"y": -0.7726605823,
				"z": 2.1435193954,
				"element": "C" 
			},
			{
				"x": 1.9207923846,
				"y": -1.2301531339,
				"z": 1.2445382067,
				"element": "C" 
			},
			{
				"x": 1.6273246016,
				"y": -1.0763020254,
				"z": -0.2727312139,
				"element": "C" 
			},
			{
				"x": 2.3899967255,
				"y": 0.0621348198,
				"z": -0.9872924773,
				"element": "C" 
			},
			{
				"x": 1.6450889618,
				"y": 0.614490094,
				"z": -2.2201716153,
				"element": "C" 
			},
			{
				"x": -0.496381642,
				"y": 1.614934964,
				"z": -3.6501912899,
				"element": "H" 
			},
			{
				"x": -0.8792594902,
				"y": 2.9962096489,
				"z": -2.5936511823,
				"element": "H" 
			},
			{
				"x": -1.3678223696,
				"y": 0.0345728838,
				"z": -1.9338375786,
				"element": "H" 
			},
			{
				"x": -2.5965110818,
				"y": 1.1301973673,
				"z": -2.5186904361,
				"element": "H" 
			},
			{
				"x": -2.8552895253,
				"y": 2.1681133327,
				"z": -0.4183622685,
				"element": "H" 
			},
			{
				"x": -1.147999186,
				"y": 2.0884620202,
				"z": -0.0628811099,
				"element": "H" 
			},
			{
				"x": -3.1811601176,
				"y": -0.1870734985,
				"z": 0.2020169128,
				"element": "H" 
			},
			{
				"x": -1.4604933867,
				"y": -0.4704583429,
				"z": 0.2288363076,
				"element": "H" 
			},
			{
				"x": -2.3483084366,
				"y": -0.436932316,
				"z": 2.4740309984,
				"element": "H" 
			},
			{
				"x": -3.0626069924,
				"y": 1.1451415614,
				"z": 2.271400797,
				"element": "H" 
			},
			{
				"x": -0.9424321954,
				"y": 1.0800864783,
				"z": 3.6469198049,
				"element": "H" 
			},
			{
				"x": -0.98110337,
				"y": 2.2852027522,
				"z": 2.3810006333,
				"element": "H" 
			},
			{
				"x": 1.2249252399,
				"y": 1.3036362622,
				"z": 2.4817204228,
				"element": "H" 
			},
			{
				"x": 0.4805611046,
				"y": 1.0005956091,
				"z": 0.9428367807,
				"element": "H" 
			},
			{
				"x": -0.1285079928,
				"y": -1.377738325,
				"z": 1.8909011393,
				"element": "H" 
			},
			{
				"x": 0.9822959833,
				"y": -1.0030955891,
				"z": 3.1924662342,
				"element": "H" 
			},
			{
				"x": 2.827026116,
				"y": -0.6668699787,
				"z": 1.5054936846,
				"element": "H" 
			},
			{
				"x": 2.1442678373,
				"y": -2.2788313122,
				"z": 1.4737306947,
				"element": "H" 
			},
			{
				"x": 0.5493441344,
				"y": -0.920831744,
				"z": -0.4040269643,
				"element": "H" 
			},
			{
				"x": 1.84387775,
				"y": -2.0180216921,
				"z": -0.791910177,
				"element": "H" 
			},
			{
				"x": 2.5566164284,
				"y": 0.9027625359,
				"z": -0.3063680459,
				"element": "H" 
			},
			{
				"x": 3.3823798825,
				"y": -0.2978350436,
				"z": -1.2817343486,
				"element": "H" 
			},
			{
				"x": 1.0785345438,
				"y": -0.1689146125,
				"z": -2.7374569853,
				"element": "H" 
			},
			{
				"x": 2.3630165098,
				"y": 1.002606954,
				"z": -2.9577714863,
				"element": "H" 
			}
		],
		 "valence_orbital": [ 
			{
				"type": "occ",
				"energy": -0.30892,
				"method": "rhf"
			},
			{
				"type": "occ",
				"energy": -0.29784,
				"method": "rhf"
			},
			{
				"type": "occ",
				"energy": -0.29458,
				"method": "rhf"
			},
			{
				"type": "occ",
				"energy": -0.29278,
				"method": "rhf"
			},
			{
				"type": "occ",
				"energy": -0.24047,
				"method": "rhf"
			},
			{
				"type": "unocc",
				"energy": -0.01672,
				"method": "rhf"
			},
			{
				"type": "unocc",
				"energy": 0.0786,
				"method": "rhf"
			},
			{
				"type": "unocc",
				"energy": 0.08819,
				"method": "rhf"
			},
			{
				"type": "unocc",
				"energy": 0.10044,
				"method": "rhf"
			},
			{
				"type": "unocc",
				"energy": 0.10329,
				"method": "rhf"
			}
		],
		"cosmo_sigma_profile": { 
			"-0.025": 0.0,
			"-0.024": 0.0,
			"-0.023": 0.0,
			"-0.022": 0.0,
			"-0.021": 0.0,
			"-0.02": 0.0,
			"-0.019": 0.0,
			"-0.018": 0.0,
			"-0.017": 0.0,
			"-0.016": 0.0,
			"-0.015": 0.0,
			"-0.014": 0.0,
			"-0.013": 0.0,
			"-0.012": 0.0,
			"-0.011": 0.0,
			"-0.01": 0.0,
			"-0.009": 0.0,
			"-0.008": 0.0159094176311,
			"-0.007": 0.0386324875796,
			"-0.006": 1.45833556996,
			"-0.005": 7.52383917322,
			"-0.004": 13.9280821413,
			"-0.003": 16.6424739453,
			"-0.002": 33.8561715676,
			"-0.001": 50.3098292904,
			"0.0": 52.1824259683,
			"0.001": 42.0994868448,
			"0.002": 17.1349121697,
			"0.003": 2.21174677768,
			"0.004": 2.34265687785,
			"0.005": 2.13952676183,
			"0.006": 2.71952701932,
			"0.007": 2.12203057996,
			"0.008": 1.71207678924,
			"0.009": 1.84473883116,
			"0.01": 1.70684666038,
			"0.011": 2.13017823681,
			"0.012": 3.19530931905,
			"0.013": 2.35745034857,
			"0.014": 0.26064861132,
			"0.015": 0.0,
			"0.016": 0.0,
			"0.017": 0.0,
			"0.018": 0.0,
			"0.019": 0.0,
			"0.02": 0.0,
			"0.021": 0.0,
			"0.022": 0.0,
			"0.023": 0.0,
			"0.024": 0.0,
			"0.025": 0.0
		}
	}
}
