{
	 "smiles": "COC(=O)C1=CC=C(C=C1)C(N)=NO", 
	 "Tm": 441.15, 
	 "num_atms": 24, 
	 "gaussian": { 
		 "optdone": 1, 
		 "sigma_profile": "yes", 
		 "theory": "DFT", 
		 "functional": "B3LYP", 
		 "basiset": "6-31G**", 
		 "properties": { 
			 "R2extent": 4292.2415, 
			 "electric_dipole_moment_norm": 1.97844415893, 
			 "electric_quadrupole_moment_norm": 14.2906321683, 
			 "total_energy": -684.123306988, 
			 "HOMO_LUMO_gap": 0.15911, 
			 "cosmo_polarized_energy": -14.47, 
			 "cosmo_cavitation_energy": 29.05, 
			 "cosmo_dispersion_energy": -21.51, 
			 "cosmo_repulsion_energy": 1.71, 
			 "cosmo_total_nonelectrostatic_energy": 9.25, 
			 "SMD_solvation_energy": 6.71 
		},
		"coords": [
			{
				"x": -2.7379439874,
				"y": -1.3725173726,
				"z": -3.3577866006,
				"element": "C" 
			},
			{
				"x": -1.9315601109,
				"y": -1.2525615384,
				"z": -2.1764231368,
				"element": "O" 
			},
			{
				"x": -0.9022133331,
				"y": -0.3787517433,
				"z": -2.2687251981,
				"element": "C" 
			},
			{
				"x": -0.6660723501,
				"y": 0.2627773082,
				"z": -3.2747361947,
				"element": "O" 
			},
			{
				"x": -0.107920256,
				"y": -0.2993332245,
				"z": -1.0113846018,
				"element": "C" 
			},
			{
				"x": 0.9828822951,
				"y": 0.5776901004,
				"z": -0.9802582551,
				"element": "C" 
			},
			{
				"x": 1.7609754094,
				"y": 0.6901064168,
				"z": 0.1673926428,
				"element": "C" 
			},
			{
				"x": 1.4655944947,
				"y": -0.0782697807,
				"z": 1.3054084269,
				"element": "C" 
			},
			{
				"x": 0.3679729599,
				"y": -0.9547129392,
				"z": 1.2705750611,
				"element": "C" 
			},
			{
				"x": -0.4132721317,
				"y": -1.0618908982,
				"z": 0.1267932397,
				"element": "C" 
			},
			{
				"x": 2.2973210498,
				"y": 0.0301341583,
				"z": 2.5271083274,
				"element": "C" 
			},
			{
				"x": 3.5791213928,
				"y": 0.5331770086,
				"z": 2.4065117894,
				"element": "N" 
			},
			{
				"x": 1.7520601629,
				"y": -0.3013572909,
				"z": 3.65387468,
				"element": "N" 
			},
			{
				"x": 2.7022387595,
				"y": -0.1695861518,
				"z": 4.7007325343,
				"element": "O" 
			},
			{
				"x": -3.5087760694,
				"y": -2.1039549807,
				"z": -3.1149567116,
				"element": "H" 
			},
			{
				"x": -3.1886490194,
				"y": -0.4108850129,
				"z": -3.6159336543,
				"element": "H" 
			},
			{
				"x": -2.1353612299,
				"y": -1.7155790426,
				"z": -4.2026472239,
				"element": "H" 
			},
			{
				"x": 1.1991343879,
				"y": 1.1691347188,
				"z": -1.8634200032,
				"element": "H" 
			},
			{
				"x": 2.5830006888,
				"y": 1.3981571998,
				"z": 0.1932560697,
				"element": "H" 
			},
			{
				"x": 0.1449897705,
				"y": -1.5463386812,
				"z": 2.150999963,
				"element": "H" 
			},
			{
				"x": -1.2572564562,
				"y": -1.7415125927,
				"z": 0.1036610237,
				"element": "H" 
			},
			{
				"x": 4.0689155335,
				"y": 0.2893374382,
				"z": 1.5576996191,
				"element": "H" 
			},
			{
				"x": 4.1297695945,
				"y": 0.4333649611,
				"z": 3.2488666211,
				"element": "H" 
			},
			{
				"x": 2.1852484447,
				"y": -0.4237280604,
				"z": 5.4745915819,
				"element": "H" 
			}
		],
		 "valence_orbital": [ 
			{
				"type": "occ",
				"energy": -0.2791,
				"method": "rhf"
			},
			{
				"type": "occ",
				"energy": -0.27255,
				"method": "rhf"
			},
			{
				"type": "occ",
				"energy": -0.26322,
				"method": "rhf"
			},
			{
				"type": "occ",
				"energy": -0.26013,
				"method": "rhf"
			},
			{
				"type": "occ",
				"energy": -0.21498,
				"method": "rhf"
			},
			{
				"type": "unocc",
				"energy": -0.05587,
				"method": "rhf"
			},
			{
				"type": "unocc",
				"energy": -0.0093,
				"method": "rhf"
			},
			{
				"type": "unocc",
				"energy": 0.02394,
				"method": "rhf"
			},
			{
				"type": "unocc",
				"energy": 0.06526,
				"method": "rhf"
			},
			{
				"type": "unocc",
				"energy": 0.08819,
				"method": "rhf"
			}
		],
		"cosmo_sigma_profile": { 
			"-0.025": 0.0,
			"-0.024": 0.0,
			"-0.023": 0.0,
			"-0.022": 0.0,
			"-0.021": 0.0,
			"-0.02": 0.0,
			"-0.019": 0.0,
			"-0.018": 0.0,
			"-0.017": 0.541640223641,
			"-0.016": 1.18769649042,
			"-0.015": 0.64121323172,
			"-0.014": 0.771539559591,
			"-0.013": 2.66420351577,
			"-0.012": 2.12672627596,
			"-0.011": 1.95859436744,
			"-0.01": 3.33938113721,
			"-0.009": 4.05150864008,
			"-0.008": 2.5063271724,
			"-0.007": 3.75342269169,
			"-0.006": 11.5964551079,
			"-0.005": 15.1060043259,
			"-0.004": 15.5380520591,
			"-0.003": 15.8387917959,
			"-0.002": 12.5086319193,
			"-0.001": 12.9225530477,
			"0.0": 12.3652070365,
			"0.001": 17.6563757366,
			"0.002": 17.111608966,
			"0.003": 20.4849838169,
			"0.004": 7.91788729276,
			"0.005": 8.38615148072,
			"0.006": 7.63522520862,
			"0.007": 6.72118417408,
			"0.008": 6.03716230289,
			"0.009": 5.18083275119,
			"0.01": 3.87956156401,
			"0.011": 4.6574417434,
			"0.012": 5.02352210505,
			"0.013": 0.970367440282,
			"0.014": 0.0457290521865,
			"0.015": 0.0,
			"0.016": 0.0,
			"0.017": 0.0,
			"0.018": 0.0,
			"0.019": 0.0,
			"0.02": 0.0,
			"0.021": 0.0,
			"0.022": 0.0,
			"0.023": 0.0,
			"0.024": 0.0,
			"0.025": 0.0
		}
	}
}
