{
	 "smiles": "OC(C(O)=O)C1=C(F)C=CC=C1F", 
	 "Tm": 416.65, 
	 "num_atms": 19, 
	 "gaussian": { 
		 "optdone": 1, 
		 "sigma_profile": "yes", 
		 "theory": "DFT", 
		 "functional": "B3LYP", 
		 "basiset": "6-31G**", 
		 "properties": { 
			 "R2extent": 2350.1827, 
			 "electric_dipole_moment_norm": 3.00897043355, 
			 "electric_quadrupole_moment_norm": 10.3573460032, 
			 "total_energy": -733.809838562, 
			 "HOMO_LUMO_gap": 0.22782, 
			 "cosmo_polarized_energy": -11.77, 
			 "cosmo_cavitation_energy": 24.74, 
			 "cosmo_dispersion_energy": -17.62, 
			 "cosmo_repulsion_energy": 1.37, 
			 "cosmo_total_nonelectrostatic_energy": 8.49, 
			 "SMD_solvation_energy": 6.22 
		},
		"coords": [
			{
				"x": -0.3413812585,
				"y": 1.0130196952,
				"z": 2.0493651825,
				"element": "O" 
			},
			{
				"x": -0.510946499,
				"y": 0.3324124199,
				"z": 0.8293264997,
				"element": "C" 
			},
			{
				"x": -1.7695748524,
				"y": 0.8552332334,
				"z": 0.1345605767,
				"element": "C" 
			},
			{
				"x": -2.0233563956,
				"y": 0.2430637183,
				"z": -1.0326195676,
				"element": "O" 
			},
			{
				"x": -2.4734983139,
				"y": 1.7183578132,
				"z": 0.6144097652,
				"element": "O" 
			},
			{
				"x": 0.7184086695,
				"y": 0.4432888542,
				"z": -0.0547523739,
				"element": "C" 
			},
			{
				"x": 1.5268423418,
				"y": -0.6551845351,
				"z": -0.3468966716,
				"element": "C" 
			},
			{
				"x": 1.1544265272,
				"y": -1.8679598464,
				"z": 0.1157933655,
				"element": "F" 
			},
			{
				"x": 2.6958876357,
				"y": -0.5608326022,
				"z": -1.0946755631,
				"element": "C" 
			},
			{
				"x": 3.0830406057,
				"y": 0.6913687975,
				"z": -1.570270109,
				"element": "C" 
			},
			{
				"x": 2.3105880257,
				"y": 1.8246105419,
				"z": -1.3055427738,
				"element": "C" 
			},
			{
				"x": 1.1547185558,
				"y": 1.6726265526,
				"z": -0.5530750711,
				"element": "C" 
			},
			{
				"x": 0.3879782181,
				"y": 2.7556116073,
				"z": -0.3037102334,
				"element": "F" 
			},
			{
				"x": -1.0108086764,
				"y": 1.7183443,
				"z": 2.0555842961,
				"element": "H" 
			},
			{
				"x": -0.6821501824,
				"y": -0.7351650282,
				"z": 1.0198981976,
				"element": "H" 
			},
			{
				"x": -2.8422661971,
				"y": 0.6324672578,
				"z": -1.3835770732,
				"element": "H" 
			},
			{
				"x": 3.278440027,
				"y": -1.4546218025,
				"z": -1.2856574959,
				"element": "H" 
			},
			{
				"x": 3.9921997839,
				"y": 0.7862099301,
				"z": -2.155259533,
				"element": "H" 
			},
			{
				"x": 2.5877519848,
				"y": 2.8081490929,
				"z": -1.6669014177,
				"element": "H" 
			}
		],
		 "valence_orbital": [ 
			{
				"type": "occ",
				"energy": -0.33803,
				"method": "rhf"
			},
			{
				"type": "occ",
				"energy": -0.30607,
				"method": "rhf"
			},
			{
				"type": "occ",
				"energy": -0.28291,
				"method": "rhf"
			},
			{
				"type": "occ",
				"energy": -0.25758,
				"method": "rhf"
			},
			{
				"type": "occ",
				"energy": -0.2538,
				"method": "rhf"
			},
			{
				"type": "unocc",
				"energy": -0.02598,
				"method": "rhf"
			},
			{
				"type": "unocc",
				"energy": -0.00975,
				"method": "rhf"
			},
			{
				"type": "unocc",
				"energy": -0.00078,
				"method": "rhf"
			},
			{
				"type": "unocc",
				"energy": 0.06232,
				"method": "rhf"
			},
			{
				"type": "unocc",
				"energy": 0.07161,
				"method": "rhf"
			}
		],
		"cosmo_sigma_profile": { 
			"-0.025": 0.0,
			"-0.024": 0.0,
			"-0.023": 0.0,
			"-0.022": 0.0,
			"-0.021": 0.0,
			"-0.02": 0.122770445762,
			"-0.019": 0.902201914368,
			"-0.018": 0.980630843126,
			"-0.017": 0.984533906606,
			"-0.016": 0.87282472411,
			"-0.015": 0.466846816722,
			"-0.014": 0.419669660457,
			"-0.013": 1.26493002734,
			"-0.012": 1.32501095294,
			"-0.011": 0.908947378427,
			"-0.01": 0.861294992541,
			"-0.009": 1.52259018714,
			"-0.008": 5.20567787145,
			"-0.007": 8.58292237777,
			"-0.006": 8.404683084,
			"-0.005": 9.9961229928,
			"-0.004": 7.23327791388,
			"-0.003": 8.6345387793,
			"-0.002": 9.01290434851,
			"-0.001": 12.6462908498,
			"0.0": 15.921240462,
			"0.001": 17.3610416365,
			"0.002": 18.4074954317,
			"0.003": 20.3168771238,
			"0.004": 14.1837995121,
			"0.005": 5.60040222403,
			"0.006": 3.61957659756,
			"0.007": 4.1581021216,
			"0.008": 3.24496871323,
			"0.009": 4.1116876245,
			"0.01": 4.16241397581,
			"0.011": 2.68838769998,
			"0.012": 1.83831424314,
			"0.013": 1.74127657039,
			"0.014": 0.113719112635,
			"0.015": 0.0,
			"0.016": 0.0,
			"0.017": 0.0,
			"0.018": 0.0,
			"0.019": 0.0,
			"0.02": 0.0,
			"0.021": 0.0,
			"0.022": 0.0,
			"0.023": 0.0,
			"0.024": 0.0,
			"0.025": 0.0
		}
	}
}
