{
	 "smiles": "CC(C)=CC(C)(C)C", 
	 "Tm": 167.15, 
	 "num_atms": 24, 
	 "gaussian": { 
		 "optdone": 1, 
		 "sigma_profile": "yes", 
		 "theory": "DFT", 
		 "functional": "B3LYP", 
		 "basiset": "6-31G**", 
		 "properties": { 
			 "R2extent": 2038.5399, 
			 "electric_dipole_moment_norm": 0.344303325572, 
			 "electric_quadrupole_moment_norm": 2.03216875776, 
			 "total_energy": -314.494466115, 
			 "HOMO_LUMO_gap": 0.25694, 
			 "cosmo_polarized_energy": -1.59, 
			 "cosmo_cavitation_energy": 24.41, 
			 "cosmo_dispersion_energy": -17.37, 
			 "cosmo_repulsion_energy": 1.44, 
			 "cosmo_total_nonelectrostatic_energy": 8.49, 
			 "SMD_solvation_energy": 4.71 
		},
		"coords": [
			{
				"x": -2.0290176698,
				"y": 2.9107839916,
				"z": 1.5707113844,
				"element": "C" 
			},
			{
				"x": -2.6299729852,
				"y": 1.5529086874,
				"z": 1.293950173,
				"element": "C" 
			},
			{
				"x": -4.0659530373,
				"y": 1.4262438518,
				"z": 1.7525403838,
				"element": "C" 
			},
			{
				"x": -2.0181516258,
				"y": 0.5119783164,
				"z": 0.7053619035,
				"element": "C" 
			},
			{
				"x": -0.5973423928,
				"y": 0.3601127864,
				"z": 0.152600704,
				"element": "C" 
			},
			{
				"x": -0.3288701787,
				"y": 1.3500870009,
				"z": -1.0047845354,
				"element": "C" 
			},
			{
				"x": -0.4642760065,
				"y": -1.073074054,
				"z": -0.4089023361,
				"element": "C" 
			},
			{
				"x": 0.4658493913,
				"y": 0.5358338517,
				"z": 1.2618501909,
				"element": "C" 
			},
			{
				"x": -2.6163635579,
				"y": 3.6964056222,
				"z": 1.0768424128,
				"element": "H" 
			},
			{
				"x": -0.9955152533,
				"y": 3.0115415836,
				"z": 1.2428964251,
				"element": "H" 
			},
			{
				"x": -2.0637895404,
				"y": 3.1321496995,
				"z": 2.6458319303,
				"element": "H" 
			},
			{
				"x": -4.1531605958,
				"y": 1.6081063721,
				"z": 2.8323228677,
				"element": "H" 
			},
			{
				"x": -4.4783847015,
				"y": 0.4359257174,
				"z": 1.5414630399,
				"element": "H" 
			},
			{
				"x": -4.7047707728,
				"y": 2.1726945024,
				"z": 1.2612889582,
				"element": "H" 
			},
			{
				"x": -2.6275160275,
				"y": -0.3863048004,
				"z": 0.5963634971,
				"element": "H" 
			},
			{
				"x": -1.065019317,
				"y": 1.220116585,
				"z": -1.8049211469,
				"element": "H" 
			},
			{
				"x": 0.6669538979,
				"y": 1.1791456177,
				"z": -1.4312026689,
				"element": "H" 
			},
			{
				"x": -0.3756095294,
				"y": 2.3924177262,
				"z": -0.6792948815,
				"element": "H" 
			},
			{
				"x": 0.5370541524,
				"y": -1.2405617551,
				"z": -0.8200820288,
				"element": "H" 
			},
			{
				"x": -0.6361561571,
				"y": -1.8207960128,
				"z": 0.3735534438,
				"element": "H" 
			},
			{
				"x": -1.191029841,
				"y": -1.2521955154,
				"z": -1.2092894536,
				"element": "H" 
			},
			{
				"x": 1.4705192906,
				"y": 0.3550117958,
				"z": 0.8610097495,
				"element": "H" 
			},
			{
				"x": 0.456269474,
				"y": 1.5409404174,
				"z": 1.6910733407,
				"element": "H" 
			},
			{
				"x": 0.2957529837,
				"y": -0.1740719878,
				"z": 2.0780166464,
				"element": "H" 
			}
		],
		 "valence_orbital": [ 
			{
				"type": "occ",
				"energy": -0.34596,
				"method": "rhf"
			},
			{
				"type": "occ",
				"energy": -0.32551,
				"method": "rhf"
			},
			{
				"type": "occ",
				"energy": -0.31006,
				"method": "rhf"
			},
			{
				"type": "occ",
				"energy": -0.3044,
				"method": "rhf"
			},
			{
				"type": "occ",
				"energy": -0.22669,
				"method": "rhf"
			},
			{
				"type": "unocc",
				"energy": 0.03025,
				"method": "rhf"
			},
			{
				"type": "unocc",
				"energy": 0.08246,
				"method": "rhf"
			},
			{
				"type": "unocc",
				"energy": 0.11198,
				"method": "rhf"
			},
			{
				"type": "unocc",
				"energy": 0.12586,
				"method": "rhf"
			},
			{
				"type": "unocc",
				"energy": 0.13559,
				"method": "rhf"
			}
		],
		"cosmo_sigma_profile": { 
			"-0.025": 0.0,
			"-0.024": 0.0,
			"-0.023": 0.0,
			"-0.022": 0.0,
			"-0.021": 0.0,
			"-0.02": 0.0,
			"-0.019": 0.0,
			"-0.018": 0.0,
			"-0.017": 0.0,
			"-0.016": 0.0,
			"-0.015": 0.0,
			"-0.014": 0.0,
			"-0.013": 0.0,
			"-0.012": 0.0,
			"-0.011": 0.0,
			"-0.01": 0.0,
			"-0.009": 0.0,
			"-0.008": 0.0,
			"-0.007": 0.0,
			"-0.006": 0.0,
			"-0.005": 0.00232753896551,
			"-0.004": 3.23576091166,
			"-0.003": 15.8446776181,
			"-0.002": 31.8836996607,
			"-0.001": 32.5884644269,
			"0.0": 32.2258696181,
			"0.001": 32.5474566996,
			"0.002": 23.3807968466,
			"0.003": 4.90745266927,
			"0.004": 3.57210501056,
			"0.005": 3.29536658606,
			"0.006": 2.70437891795,
			"0.007": 1.81593052712,
			"0.008": 0.30482421846,
			"0.009": 0.0,
			"0.01": 0.0,
			"0.011": 0.0,
			"0.012": 0.0,
			"0.013": 0.0,
			"0.014": 0.0,
			"0.015": 0.0,
			"0.016": 0.0,
			"0.017": 0.0,
			"0.018": 0.0,
			"0.019": 0.0,
			"0.02": 0.0,
			"0.021": 0.0,
			"0.022": 0.0,
			"0.023": 0.0,
			"0.024": 0.0,
			"0.025": 0.0
		}
	}
}
