{
	 "smiles": "[O-][N+](=O)C1=C(Cl)C=C2C(=O)NC(=O)C2=C1", 
	 "Tm": 475.15, 
	 "num_atms": 18, 
	 "gaussian": { 
		 "optdone": 1, 
		 "sigma_profile": "yes", 
		 "theory": "DFT", 
		 "functional": "B3LYP", 
		 "basiset": "6-31G**", 
		 "properties": { 
			 "R2extent": 3920.7605, 
			 "electric_dipole_moment_norm": 2.52639082883, 
			 "electric_quadrupole_moment_norm": 7.30857454022, 
			 "total_energy": -1177.15830875, 
			 "HOMO_LUMO_gap": 0.16888, 
			 "cosmo_polarized_energy": -15.31, 
			 "cosmo_cavitation_energy": 26.77, 
			 "cosmo_dispersion_energy": -19.62, 
			 "cosmo_repulsion_energy": 1.52, 
			 "cosmo_total_nonelectrostatic_energy": 8.67, 
			 "SMD_solvation_energy": 8.0 
		},
		"coords": [
			{
				"x": -1.9418626449,
				"y": -2.0186565113,
				"z": 1.5768824838,
				"element": "O" 
			},
			{
				"x": -2.1860634174,
				"y": -0.8862422075,
				"z": 1.165702472,
				"element": "N" 
			},
			{
				"x": -3.0485089531,
				"y": -0.1351160982,
				"z": 1.6039519677,
				"element": "O" 
			},
			{
				"x": -1.3229444814,
				"y": -0.3874747569,
				"z": 0.0751692208,
				"element": "C" 
			},
			{
				"x": -1.8129493744,
				"y": 0.4301450539,
				"z": -0.9626898478,
				"element": "C" 
			},
			{
				"x": -3.4892591017,
				"y": 0.8566868324,
				"z": -1.117836169,
				"element": "Cl" 
			},
			{
				"x": -0.9363490966,
				"y": 0.8873071403,
				"z": -1.9592066405,
				"element": "C" 
			},
			{
				"x": 0.3947429494,
				"y": 0.5223708905,
				"z": -1.8702611494,
				"element": "C" 
			},
			{
				"x": 1.542219875,
				"y": 0.8653297076,
				"z": -2.7743275231,
				"element": "C" 
			},
			{
				"x": 1.5431372221,
				"y": 1.5463484158,
				"z": -3.7754881324,
				"element": "O" 
			},
			{
				"x": 2.6438431843,
				"y": 0.2156979157,
				"z": -2.2042731779,
				"element": "N" 
			},
			{
				"x": 2.3373166479,
				"y": -0.5068837143,
				"z": -1.0398460483,
				"element": "C" 
			},
			{
				"x": 3.114257939,
				"y": -1.1486831314,
				"z": -0.3693351256,
				"element": "O" 
			},
			{
				"x": 0.8694621308,
				"y": -0.2937252372,
				"z": -0.8422414265,
				"element": "C" 
			},
			{
				"x": 0.0207809298,
				"y": -0.774110246,
				"z": 0.137585498,
				"element": "C" 
			},
			{
				"x": -1.302823517,
				"y": 1.5047043866,
				"z": -2.771304312,
				"element": "H" 
			},
			{
				"x": 3.5747953796,
				"y": 0.2602600349,
				"z": -2.5960450923,
				"element": "H" 
			},
			{
				"x": 0.3601043286,
				"y": -1.4251584749,
				"z": 0.9344630026,
				"element": "H" 
			}
		],
		 "valence_orbital": [ 
			{
				"type": "occ",
				"energy": -0.31736,
				"method": "rhf"
			},
			{
				"type": "occ",
				"energy": -0.31676,
				"method": "rhf"
			},
			{
				"type": "occ",
				"energy": -0.30262,
				"method": "rhf"
			},
			{
				"type": "occ",
				"energy": -0.29326,
				"method": "rhf"
			},
			{
				"type": "occ",
				"energy": -0.29155,
				"method": "rhf"
			},
			{
				"type": "unocc",
				"energy": -0.12267,
				"method": "rhf"
			},
			{
				"type": "unocc",
				"energy": -0.09082,
				"method": "rhf"
			},
			{
				"type": "unocc",
				"energy": -0.0674,
				"method": "rhf"
			},
			{
				"type": "unocc",
				"energy": -0.0081,
				"method": "rhf"
			},
			{
				"type": "unocc",
				"energy": 0.00168,
				"method": "rhf"
			}
		],
		"cosmo_sigma_profile": { 
			"-0.025": 0.0,
			"-0.024": 0.0,
			"-0.023": 0.0,
			"-0.022": 0.0,
			"-0.021": 0.0,
			"-0.02": 0.0,
			"-0.019": 0.0,
			"-0.018": 0.19267962268,
			"-0.017": 1.1377435253,
			"-0.016": 1.3803142562,
			"-0.015": 1.21286294188,
			"-0.014": 0.281008860234,
			"-0.013": 0.64776209622,
			"-0.012": 1.63991994293,
			"-0.011": 0.75410723144,
			"-0.01": 2.20904069796,
			"-0.009": 5.10859144765,
			"-0.008": 5.4962447563,
			"-0.007": 7.94181045303,
			"-0.006": 8.22192454785,
			"-0.005": 10.5911801799,
			"-0.004": 18.0513006026,
			"-0.003": 25.5793067272,
			"-0.002": 15.2392318296,
			"-0.001": 8.54756005135,
			"0.0": 9.0393599937,
			"0.001": 9.35652402003,
			"0.002": 11.5318716822,
			"0.003": 8.56278857615,
			"0.004": 5.61472135312,
			"0.005": 5.85344282778,
			"0.006": 11.5920028862,
			"0.007": 12.3889708454,
			"0.008": 7.72069725329,
			"0.009": 6.83487273485,
			"0.01": 9.35218872818,
			"0.011": 6.59872963339,
			"0.012": 0.309947649441,
			"0.013": 0.0,
			"0.014": 0.0,
			"0.015": 0.0,
			"0.016": 0.0,
			"0.017": 0.0,
			"0.018": 0.0,
			"0.019": 0.0,
			"0.02": 0.0,
			"0.021": 0.0,
			"0.022": 0.0,
			"0.023": 0.0,
			"0.024": 0.0,
			"0.025": 0.0
		}
	}
}
