{
	 "smiles": "CCC1=NC(C)=C(N1)C=O", 
	 "Tm": 377.15, 
	 "num_atms": 20, 
	 "gaussian": { 
		 "optdone": 1, 
		 "sigma_profile": "yes", 
		 "theory": "DFT", 
		 "functional": "B3LYP", 
		 "basiset": "6-31G**", 
		 "properties": { 
			 "R2extent": 2087.4661, 
			 "electric_dipole_moment_norm": 4.55468757545, 
			 "electric_quadrupole_moment_norm": 15.5063899757, 
			 "total_energy": -457.508420473, 
			 "HOMO_LUMO_gap": 0.18323, 
			 "cosmo_polarized_energy": -15.38, 
			 "cosmo_cavitation_energy": 23.95, 
			 "cosmo_dispersion_energy": -17.47, 
			 "cosmo_repulsion_energy": 1.46, 
			 "cosmo_total_nonelectrostatic_energy": 7.93, 
			 "SMD_solvation_energy": 3.61 
		},
		"coords": [
			{
				"x": -1.3936414748,
				"y": -1.7724342351,
				"z": 1.9329070775,
				"element": "C" 
			},
			{
				"x": -1.1094378483,
				"y": -0.2908926895,
				"z": 2.2197013744,
				"element": "C" 
			},
			{
				"x": -0.6463478072,
				"y": 0.4536928158,
				"z": 1.003369422,
				"element": "C" 
			},
			{
				"x": 0.2940218208,
				"y": 0.0387645386,
				"z": 0.1601381299,
				"element": "N" 
			},
			{
				"x": 0.4223643105,
				"y": 1.015502184,
				"z": -0.7873435017,
				"element": "C" 
			},
			{
				"x": 1.3939642415,
				"y": 0.9051014507,
				"z": -1.9163917706,
				"element": "C" 
			},
			{
				"x": -0.462374362,
				"y": 2.060462131,
				"z": -0.5223372951,
				"element": "C" 
			},
			{
				"x": -1.1333501188,
				"y": 1.6649297235,
				"z": 0.6345849589,
				"element": "N" 
			},
			{
				"x": -0.7406478886,
				"y": 3.3135768717,
				"z": -1.1896174887,
				"element": "C" 
			},
			{
				"x": -0.1903432303,
				"y": 3.7180044962,
				"z": -2.2038941229,
				"element": "O" 
			},
			{
				"x": -0.5114692373,
				"y": -2.2464603847,
				"z": 1.4968412452,
				"element": "H" 
			},
			{
				"x": -1.6569068575,
				"y": -2.2987013182,
				"z": 2.855117507,
				"element": "H" 
			},
			{
				"x": -2.2203642344,
				"y": -1.8852896018,
				"z": 1.2249729446,
				"element": "H" 
			},
			{
				"x": -2.0009146221,
				"y": 0.2000889024,
				"z": 2.6287418265,
				"element": "H" 
			},
			{
				"x": -0.3326176221,
				"y": -0.214235481,
				"z": 2.9919357589,
				"element": "H" 
			},
			{
				"x": 1.1857430791,
				"y": 0.0096731364,
				"z": -2.5122679461,
				"element": "H" 
			},
			{
				"x": 2.4149148142,
				"y": 0.8034800046,
				"z": -1.5322700046,
				"element": "H" 
			},
			{
				"x": 1.3352935924,
				"y": 1.7861014659,
				"z": -2.5561072369,
				"element": "H" 
			},
			{
				"x": -1.8541943174,
				"y": 2.18817904,
				"z": 1.1098908326,
				"element": "H" 
			},
			{
				"x": -1.5327922377,
				"y": 3.9261569495,
				"z": -0.696071711,
				"element": "H" 
			}
		],
		 "valence_orbital": [ 
			{
				"type": "occ",
				"energy": -0.35901,
				"method": "rhf"
			},
			{
				"type": "occ",
				"energy": -0.28627,
				"method": "rhf"
			},
			{
				"type": "occ",
				"energy": -0.27881,
				"method": "rhf"
			},
			{
				"type": "occ",
				"energy": -0.24775,
				"method": "rhf"
			},
			{
				"type": "occ",
				"energy": -0.23006,
				"method": "rhf"
			},
			{
				"type": "unocc",
				"energy": -0.04683,
				"method": "rhf"
			},
			{
				"type": "unocc",
				"energy": 0.03194,
				"method": "rhf"
			},
			{
				"type": "unocc",
				"energy": 0.05967,
				"method": "rhf"
			},
			{
				"type": "unocc",
				"energy": 0.09944,
				"method": "rhf"
			},
			{
				"type": "unocc",
				"energy": 0.10341,
				"method": "rhf"
			}
		],
		"cosmo_sigma_profile": { 
			"-0.025": 0.0,
			"-0.024": 0.0,
			"-0.023": 0.0,
			"-0.022": 0.0,
			"-0.021": 0.0,
			"-0.02": 0.0,
			"-0.019": 0.0,
			"-0.018": 0.0,
			"-0.017": 0.286149653675,
			"-0.016": 1.66940159423,
			"-0.015": 1.66454872492,
			"-0.014": 1.78445006506,
			"-0.013": 1.53637967288,
			"-0.012": 1.9128047248,
			"-0.011": 1.56840388516,
			"-0.01": 1.07230308594,
			"-0.009": 1.70968818605,
			"-0.008": 1.45817436064,
			"-0.007": 2.38454116472,
			"-0.006": 4.23744641732,
			"-0.005": 8.14230943162,
			"-0.004": 11.999242397,
			"-0.003": 16.9688785983,
			"-0.002": 18.9518886889,
			"-0.001": 18.5400492217,
			"0.0": 19.5602664761,
			"0.001": 16.9896236088,
			"0.002": 11.0362621075,
			"0.003": 5.44711505824,
			"0.004": 4.06511865828,
			"0.005": 4.13160349894,
			"0.006": 3.35257979874,
			"0.007": 3.78490765182,
			"0.008": 3.65618581504,
			"0.009": 2.97995787243,
			"0.01": 3.73991579662,
			"0.011": 3.0659842529,
			"0.012": 4.84121109253,
			"0.013": 3.60954570456,
			"0.014": 0.985896516062,
			"0.015": 0.846244325316,
			"0.016": 0.847007842541,
			"0.017": 0.307378398493,
			"0.018": 0.0,
			"0.019": 0.0,
			"0.02": 0.0,
			"0.021": 0.0,
			"0.022": 0.0,
			"0.023": 0.0,
			"0.024": 0.0,
			"0.025": 0.0
		}
	}
}
