{
	 "smiles": "COC1=CC=C(NS(=O)(=O)C2=CC3=C(OC(S)=N3)C=C2)C=C1", 
	 "Tm": 449.15, 
	 "num_atms": 34, 
	 "gaussian": { 
		 "optdone": 1, 
		 "sigma_profile": "yes", 
		 "theory": "DFT", 
		 "functional": "B3LYP", 
		 "basiset": "6-31G**", 
		 "properties": { 
			 "R2extent": 10346.6284, 
			 "electric_dipole_moment_norm": 6.77869628173, 
			 "electric_quadrupole_moment_norm": 18.105073236, 
			 "total_energy": -1747.4011113, 
			 "HOMO_LUMO_gap": 0.17005, 
			 "cosmo_polarized_energy": -20.57, 
			 "cosmo_cavitation_energy": 42.62, 
			 "cosmo_dispersion_energy": -30.91, 
			 "cosmo_repulsion_energy": 2.27, 
			 "cosmo_total_nonelectrostatic_energy": 13.99, 
			 "SMD_solvation_energy": 4.99 
		},
		"coords": [
			{
				"x": 3.7125351997,
				"y": 0.1098579793,
				"z": 3.7801809264,
				"element": "C" 
			},
			{
				"x": 3.1081157704,
				"y": -1.1046299755,
				"z": 3.3655022517,
				"element": "O" 
			},
			{
				"x": 1.844772553,
				"y": -1.0551782335,
				"z": 2.853099255,
				"element": "C" 
			},
			{
				"x": 1.2923606887,
				"y": -2.2885518419,
				"z": 2.4717566559,
				"element": "C" 
			},
			{
				"x": 0.0064473727,
				"y": -2.3584642332,
				"z": 1.9559658648,
				"element": "C" 
			},
			{
				"x": -0.7451233958,
				"y": -1.1851187828,
				"z": 1.7779108412,
				"element": "C" 
			},
			{
				"x": -2.0799990475,
				"y": -1.2571463883,
				"z": 1.2787128832,
				"element": "N" 
			},
			{
				"x": -2.4289860112,
				"y": -1.8007618058,
				"z": -0.2930226238,
				"element": "S" 
			},
			{
				"x": -1.8066574071,
				"y": -3.1162944805,
				"z": -0.4357079183,
				"element": "O" 
			},
			{
				"x": -3.8700660429,
				"y": -1.5877899317,
				"z": -0.4322736872,
				"element": "O" 
			},
			{
				"x": -1.5935985994,
				"y": -0.6863947444,
				"z": -1.4300240116,
				"element": "C" 
			},
			{
				"x": -2.3070112722,
				"y": 0.4068426385,
				"z": -1.9288062964,
				"element": "C" 
			},
			{
				"x": -1.6122575527,
				"y": 1.2630053828,
				"z": -2.781706831,
				"element": "C" 
			},
			{
				"x": -0.2698310685,
				"y": 1.0007077276,
				"z": -3.094589594,
				"element": "C" 
			},
			{
				"x": 0.1534137759,
				"y": 1.9916872435,
				"z": -3.9494753812,
				"element": "O" 
			},
			{
				"x": -0.9584329337,
				"y": 2.7854001013,
				"z": -4.0972145654,
				"element": "C" 
			},
			{
				"x": -0.7282761319,
				"y": 4.1668724303,
				"z": -5.1537611536,
				"element": "S" 
			},
			{
				"x": -2.0171695819,
				"y": 2.4227811113,
				"z": -3.4495152379,
				"element": "N" 
			},
			{
				"x": 0.4469430209,
				"y": -0.0824211099,
				"z": -2.6123405651,
				"element": "C" 
			},
			{
				"x": -0.249199513,
				"y": -0.939995486,
				"z": -1.7579833423,
				"element": "C" 
			},
			{
				"x": -0.1889259111,
				"y": 0.0421718934,
				"z": 2.1442509576,
				"element": "C" 
			},
			{
				"x": 1.092760136,
				"y": 0.1143122543,
				"z": 2.6961925645,
				"element": "C" 
			},
			{
				"x": 3.1406520584,
				"y": 0.5939193095,
				"z": 4.5825175246,
				"element": "H" 
			},
			{
				"x": 4.7009705352,
				"y": -0.1580031686,
				"z": 4.156303206,
				"element": "H" 
			},
			{
				"x": 3.823638072,
				"y": 0.8136118484,
				"z": 2.9449015694,
				"element": "H" 
			},
			{
				"x": 1.8863192682,
				"y": -3.1856469443,
				"z": 2.6118291389,
				"element": "H" 
			},
			{
				"x": -0.428819776,
				"y": -3.3123076927,
				"z": 1.6828500142,
				"element": "H" 
			},
			{
				"x": -2.6634748339,
				"y": -0.4535926288,
				"z": 1.4904922164,
				"element": "H" 
			},
			{
				"x": -3.3503451196,
				"y": 0.5611815006,
				"z": -1.6804417992,
				"element": "H" 
			},
			{
				"x": -1.9965713182,
				"y": 4.5907005749,
				"z": -4.9983092845,
				"element": "H" 
			},
			{
				"x": 1.4803779444,
				"y": -0.259865497,
				"z": -2.8863224028,
				"element": "H" 
			},
			{
				"x": 0.2355960078,
				"y": -1.821453649,
				"z": -1.3558826021,
				"element": "H" 
			},
			{
				"x": -0.760358602,
				"y": 0.9565888636,
				"z": 2.0055834968,
				"element": "H" 
			},
			{
				"x": 1.4905017155,
				"y": 1.0800757347,
				"z": 2.9836279299,
				"element": "H" 
			}
		],
		 "valence_orbital": [ 
			{
				"type": "occ",
				"energy": -0.29532,
				"method": "rhf"
			},
			{
				"type": "occ",
				"energy": -0.26878,
				"method": "rhf"
			},
			{
				"type": "occ",
				"energy": -0.26051,
				"method": "rhf"
			},
			{
				"type": "occ",
				"energy": -0.24534,
				"method": "rhf"
			},
			{
				"type": "occ",
				"energy": -0.21653,
				"method": "rhf"
			},
			{
				"type": "unocc",
				"energy": -0.04648,
				"method": "rhf"
			},
			{
				"type": "unocc",
				"energy": -0.03541,
				"method": "rhf"
			},
			{
				"type": "unocc",
				"energy": -0.01247,
				"method": "rhf"
			},
			{
				"type": "unocc",
				"energy": -0.00979,
				"method": "rhf"
			},
			{
				"type": "unocc",
				"energy": -0.0011,
				"method": "rhf"
			}
		],
		"cosmo_sigma_profile": { 
			"-0.025": 0.0,
			"-0.024": 0.0,
			"-0.023": 0.0,
			"-0.022": 0.0,
			"-0.021": 0.0,
			"-0.02": 0.0,
			"-0.019": 0.0,
			"-0.018": 0.0,
			"-0.017": 0.0,
			"-0.016": 0.195217364058,
			"-0.015": 1.04161922692,
			"-0.014": 1.08126524125,
			"-0.013": 2.89598284924,
			"-0.012": 3.30572583529,
			"-0.011": 2.08358710253,
			"-0.01": 2.50502006338,
			"-0.009": 3.38432016348,
			"-0.008": 5.89110486376,
			"-0.007": 9.52721797205,
			"-0.006": 15.9023745678,
			"-0.005": 22.4055409721,
			"-0.004": 22.7509876451,
			"-0.003": 22.8395124071,
			"-0.002": 19.9808185831,
			"-0.001": 26.110316729,
			"0.0": 27.3285390307,
			"0.001": 26.114649303,
			"0.002": 22.3434006815,
			"0.003": 22.9825356336,
			"0.004": 21.7956936277,
			"0.005": 13.3323150405,
			"0.006": 7.97413902774,
			"0.007": 5.85974634822,
			"0.008": 6.81569190508,
			"0.009": 7.04384186363,
			"0.01": 9.24188690457,
			"0.011": 8.83312049302,
			"0.012": 2.05615380859,
			"0.013": 0.820138363645,
			"0.014": 0.49485792321,
			"0.015": 0.0146253721058,
			"0.016": 0.0,
			"0.017": 0.0,
			"0.018": 0.0,
			"0.019": 0.0,
			"0.02": 0.0,
			"0.021": 0.0,
			"0.022": 0.0,
			"0.023": 0.0,
			"0.024": 0.0,
			"0.025": 0.0
		}
	}
}
