{
	 "smiles": "FC(F)(F)C(C(=O)NC1=NC=CS1)C(F)(F)F", 
	 "Tm": 421.15, 
	 "num_atms": 21, 
	 "gaussian": { 
		 "optdone": 1, 
		 "sigma_profile": "yes", 
		 "theory": "DFT", 
		 "functional": "B3LYP", 
		 "basiset": "6-31G**", 
		 "properties": { 
			 "R2extent": 5212.5853, 
			 "electric_dipole_moment_norm": 5.45018626012, 
			 "electric_quadrupole_moment_norm": 4.60131457303, 
			 "total_energy": -1451.11322927, 
			 "HOMO_LUMO_gap": 0.1898, 
			 "cosmo_polarized_energy": -11.55, 
			 "cosmo_cavitation_energy": 30.49, 
			 "cosmo_dispersion_energy": -21.06, 
			 "cosmo_repulsion_energy": 1.49, 
			 "cosmo_total_nonelectrostatic_energy": 10.92, 
			 "SMD_solvation_energy": 7.27 
		},
		"coords": [
			{
				"x": 2.4062289989,
				"y": 1.6306438235,
				"z": 2.0527466289,
				"element": "F" 
			},
			{
				"x": 3.1672914485,
				"y": 0.9482199241,
				"z": 1.167769023,
				"element": "C" 
			},
			{
				"x": 3.746169773,
				"y": 1.8464673904,
				"z": 0.3480453193,
				"element": "F" 
			},
			{
				"x": 4.137740837,
				"y": 0.3281571805,
				"z": 1.8489350137,
				"element": "F" 
			},
			{
				"x": 2.2743998998,
				"y": -0.0039293088,
				"z": 0.3696502073,
				"element": "C" 
			},
			{
				"x": 1.4672827317,
				"y": -0.8913916528,
				"z": 1.3222657068,
				"element": "C" 
			},
			{
				"x": 1.9964574772,
				"y": -1.6159111755,
				"z": 2.1410550499,
				"element": "O" 
			},
			{
				"x": 0.0772682263,
				"y": -0.8654711575,
				"z": 1.2369881527,
				"element": "N" 
			},
			{
				"x": -0.8033810329,
				"y": -0.1658081377,
				"z": 0.4207544706,
				"element": "C" 
			},
			{
				"x": -0.4874668274,
				"y": 0.716460489,
				"z": -0.4802731919,
				"element": "N" 
			},
			{
				"x": -1.6170220047,
				"y": 1.2101821831,
				"z": -1.0981068647,
				"element": "C" 
			},
			{
				"x": -2.806620422,
				"y": 0.7088245107,
				"z": -0.6707552125,
				"element": "C" 
			},
			{
				"x": -2.5350996731,
				"y": -0.4664623865,
				"z": 0.587396579,
				"element": "S" 
			},
			{
				"x": 3.0547575883,
				"y": -0.8787004554,
				"z": -0.6141679958,
				"element": "C" 
			},
			{
				"x": 3.6515418539,
				"y": -0.1221721449,
				"z": -1.553540111,
				"element": "F" 
			},
			{
				"x": 3.9968593097,
				"y": -1.6269645808,
				"z": -0.0269266252,
				"element": "F" 
			},
			{
				"x": 2.194343041,
				"y": -1.7126480839,
				"z": -1.241523556,
				"element": "F" 
			},
			{
				"x": 1.6022770032,
				"y": 0.6160186771,
				"z": -0.2278438916,
				"element": "H" 
			},
			{
				"x": -0.3327880647,
				"y": -1.5025659481,
				"z": 1.9099115824,
				"element": "H" 
			},
			{
				"x": -1.502994482,
				"y": 1.9567682366,
				"z": -1.8744268338,
				"element": "H" 
			},
			{
				"x": -3.8061456818,
				"y": 0.9460826168,
				"z": -1.0036534512,
				"element": "H" 
			}
		],
		 "valence_orbital": [ 
			{
				"type": "occ",
				"energy": -0.34031,
				"method": "rhf"
			},
			{
				"type": "occ",
				"energy": -0.30816,
				"method": "rhf"
			},
			{
				"type": "occ",
				"energy": -0.30645,
				"method": "rhf"
			},
			{
				"type": "occ",
				"energy": -0.29278,
				"method": "rhf"
			},
			{
				"type": "occ",
				"energy": -0.24687,
				"method": "rhf"
			},
			{
				"type": "unocc",
				"energy": -0.05707,
				"method": "rhf"
			},
			{
				"type": "unocc",
				"energy": -0.02152,
				"method": "rhf"
			},
			{
				"type": "unocc",
				"energy": -0.00782,
				"method": "rhf"
			},
			{
				"type": "unocc",
				"energy": 0.0423,
				"method": "rhf"
			},
			{
				"type": "unocc",
				"energy": 0.06578,
				"method": "rhf"
			}
		],
		"cosmo_sigma_profile": { 
			"-0.025": 0.0,
			"-0.024": 0.0,
			"-0.023": 0.0,
			"-0.022": 0.0,
			"-0.021": 0.0,
			"-0.02": 0.0,
			"-0.019": 0.0,
			"-0.018": 0.238448135471,
			"-0.017": 1.05116739077,
			"-0.016": 0.840379759754,
			"-0.015": 1.77754014331,
			"-0.014": 0.649600551189,
			"-0.013": 0.640853861711,
			"-0.012": 0.811764732436,
			"-0.011": 1.02376233555,
			"-0.01": 2.34251446445,
			"-0.009": 3.21407395506,
			"-0.008": 4.25614068335,
			"-0.007": 5.86843644253,
			"-0.006": 6.26404764748,
			"-0.005": 6.59511738783,
			"-0.004": 7.30835294402,
			"-0.003": 10.0059325779,
			"-0.002": 15.5825074507,
			"-0.001": 17.1358934221,
			"0.0": 20.6490315861,
			"0.001": 33.855667533,
			"0.002": 63.6469278954,
			"0.003": 16.7666653941,
			"0.004": 5.41018443026,
			"0.005": 4.58602486236,
			"0.006": 3.12730238566,
			"0.007": 2.25010148848,
			"0.008": 2.27748542843,
			"0.009": 2.22616441489,
			"0.01": 4.221923837,
			"0.011": 3.06126824205,
			"0.012": 0.096264134789,
			"0.013": 0.0,
			"0.014": 0.0,
			"0.015": 0.0,
			"0.016": 0.0,
			"0.017": 0.0,
			"0.018": 0.0,
			"0.019": 0.0,
			"0.02": 0.0,
			"0.021": 0.0,
			"0.022": 0.0,
			"0.023": 0.0,
			"0.024": 0.0,
			"0.025": 0.0
		}
	}
}
