{
	 "smiles": "CC1=C(C)C2=C(NC(CCC(O)=O)=NC2=O)S1", 
	 "Tm": 523.15, 
	 "num_atms": 29, 
	 "gaussian": { 
		 "optdone": 1, 
		 "sigma_profile": "yes", 
		 "theory": "DFT", 
		 "functional": "B3LYP", 
		 "basiset": "6-31G**", 
		 "properties": { 
			 "R2extent": 6102.2229, 
			 "electric_dipole_moment_norm": 6.06219016693, 
			 "electric_quadrupole_moment_norm": 20.7265204113, 
			 "total_energy": -1159.7972372, 
			 "HOMO_LUMO_gap": 0.18236, 
			 "cosmo_polarized_energy": -26.47, 
			 "cosmo_cavitation_energy": 34.37, 
			 "cosmo_dispersion_energy": -25.18, 
			 "cosmo_repulsion_energy": 1.92, 
			 "cosmo_total_nonelectrostatic_energy": 11.11, 
			 "SMD_solvation_energy": 5.38 
		},
		"coords": [
			{
				"x": -3.7449346821,
				"y": 1.720442565,
				"z": -2.1468838878,
				"element": "C" 
			},
			{
				"x": -2.6201282745,
				"y": 0.8222005395,
				"z": -1.7261668926,
				"element": "C" 
			},
			{
				"x": -1.7530849278,
				"y": 0.0735512823,
				"z": -2.4753164999,
				"element": "C" 
			},
			{
				"x": -1.7451213332,
				"y": -0.0102859043,
				"z": -3.977525274,
				"element": "C" 
			},
			{
				"x": -0.8086722531,
				"y": -0.6583610858,
				"z": -1.6560318832,
				"element": "C" 
			},
			{
				"x": -0.9977735009,
				"y": -0.4352316817,
				"z": -0.3113210471,
				"element": "C" 
			},
			{
				"x": -0.2006596674,
				"y": -1.0330579053,
				"z": 0.6332998048,
				"element": "N" 
			},
			{
				"x": 0.7969237906,
				"y": -1.8802943196,
				"z": 0.202794999,
				"element": "C" 
			},
			{
				"x": 1.6328868594,
				"y": -2.5280103987,
				"z": 1.2865691804,
				"element": "C" 
			},
			{
				"x": 0.9620986651,
				"y": -3.7411636769,
				"z": 1.9590239762,
				"element": "C" 
			},
			{
				"x": -0.1998028019,
				"y": -3.4817205479,
				"z": 2.8973252915,
				"element": "C" 
			},
			{
				"x": -0.266057324,
				"y": -2.186333896,
				"z": 3.3411953533,
				"element": "O" 
			},
			{
				"x": -0.9846893006,
				"y": -4.3169253673,
				"z": 3.2745837213,
				"element": "O" 
			},
			{
				"x": 1.0396027621,
				"y": -2.1461133517,
				"z": -1.040359022,
				"element": "N" 
			},
			{
				"x": 0.2645714379,
				"y": -1.5718133264,
				"z": -2.0788828151,
				"element": "C" 
			},
			{
				"x": 0.5007304746,
				"y": -1.8416254803,
				"z": -3.2498933508,
				"element": "O" 
			},
			{
				"x": -2.3066393847,
				"y": 0.6573548,
				"z": 0.0152167158,
				"element": "S" 
			},
			{
				"x": -3.5873255426,
				"y": 2.7540415503,
				"z": -1.8168324181,
				"element": "H" 
			},
			{
				"x": -4.706834027,
				"y": 1.3878881996,
				"z": -1.7392231404,
				"element": "H" 
			},
			{
				"x": -3.8347608854,
				"y": 1.7322578508,
				"z": -3.2349013994,
				"element": "H" 
			},
			{
				"x": -0.7794480155,
				"y": 0.3130025649,
				"z": -4.3760816712,
				"element": "H" 
			},
			{
				"x": -2.5318795949,
				"y": 0.6018982286,
				"z": -4.4235103867,
				"element": "H" 
			},
			{
				"x": -1.8738832523,
				"y": -1.0451342211,
				"z": -4.3059617572,
				"element": "H" 
			},
			{
				"x": -0.3654050256,
				"y": -0.9304876447,
				"z": 1.6273960039,
				"element": "H" 
			},
			{
				"x": 1.910772952,
				"y": -1.7891429503,
				"z": 2.0456051348,
				"element": "H" 
			},
			{
				"x": 2.5459811482,
				"y": -2.8695006104,
				"z": 0.796664516,
				"element": "H" 
			},
			{
				"x": 0.6140641123,
				"y": -4.4603566756,
				"z": 1.2121765673,
				"element": "H" 
			},
			{
				"x": 1.7100489606,
				"y": -4.2709109871,
				"z": 2.562958909,
				"element": "H" 
			},
			{
				"x": -1.0083813691,
				"y": -2.1634675498,
				"z": 3.9698812721,
				"element": "H" 
			}
		],
		 "valence_orbital": [ 
			{
				"type": "occ",
				"energy": -0.2776,
				"method": "rhf"
			},
			{
				"type": "occ",
				"energy": -0.27056,
				"method": "rhf"
			},
			{
				"type": "occ",
				"energy": -0.25229,
				"method": "rhf"
			},
			{
				"type": "occ",
				"energy": -0.22974,
				"method": "rhf"
			},
			{
				"type": "occ",
				"energy": -0.21166,
				"method": "rhf"
			},
			{
				"type": "unocc",
				"energy": -0.0293,
				"method": "rhf"
			},
			{
				"type": "unocc",
				"energy": -0.01993,
				"method": "rhf"
			},
			{
				"type": "unocc",
				"energy": -0.01375,
				"method": "rhf"
			},
			{
				"type": "unocc",
				"energy": -0.00061,
				"method": "rhf"
			},
			{
				"type": "unocc",
				"energy": 0.03388,
				"method": "rhf"
			}
		],
		"cosmo_sigma_profile": { 
			"-0.025": 0.0,
			"-0.024": 0.0,
			"-0.023": 0.0,
			"-0.022": 0.0,
			"-0.021": 0.0,
			"-0.02": 0.0,
			"-0.019": 0.330216606335,
			"-0.018": 0.927049398014,
			"-0.017": 1.14784143056,
			"-0.016": 0.737487210543,
			"-0.015": 0.781509494921,
			"-0.014": 1.30363896117,
			"-0.013": 1.62829249687,
			"-0.012": 1.88582498982,
			"-0.011": 1.55191727531,
			"-0.01": 1.99098581855,
			"-0.009": 2.91746111329,
			"-0.008": 5.59138222134,
			"-0.007": 7.72870360192,
			"-0.006": 14.5207254727,
			"-0.005": 18.0228705042,
			"-0.004": 20.6474831839,
			"-0.003": 22.6861077517,
			"-0.002": 20.2135993418,
			"-0.001": 22.6303297753,
			"0.0": 18.2990962128,
			"0.001": 19.4201815363,
			"0.002": 14.8447588188,
			"0.003": 14.0206055122,
			"0.004": 8.92949493825,
			"0.005": 4.47221197664,
			"0.006": 5.20616099893,
			"0.007": 3.25890542971,
			"0.008": 2.93241658268,
			"0.009": 3.78892921809,
			"0.01": 4.88296224724,
			"0.011": 7.22273837835,
			"0.012": 4.85370386589,
			"0.013": 2.78675784333,
			"0.014": 5.15551564558,
			"0.015": 2.86560621005,
			"0.016": 2.62924588982,
			"0.017": 1.96735258877,
			"0.018": 0.182763005272,
			"0.019": 0.0,
			"0.02": 0.0,
			"0.021": 0.0,
			"0.022": 0.0,
			"0.023": 0.0,
			"0.024": 0.0,
			"0.025": 0.0
		}
	}
}
