{
	 "smiles": "COC(=O)C1=C(SC=C1)N1CCC(N)C1=O", 
	 "Tm": 362.15, 
	 "num_atms": 28, 
	 "gaussian": { 
		 "optdone": 1, 
		 "sigma_profile": "yes", 
		 "theory": "DFT", 
		 "functional": "B3LYP", 
		 "basiset": "6-31G**", 
		 "properties": { 
			 "R2extent": 4037.9929, 
			 "electric_dipole_moment_norm": 3.76378133663, 
			 "electric_quadrupole_moment_norm": 11.2987285794, 
			 "total_energy": -1121.65711124, 
			 "HOMO_LUMO_gap": 0.18161, 
			 "cosmo_polarized_energy": -17.81, 
			 "cosmo_cavitation_energy": 33.26, 
			 "cosmo_dispersion_energy": -23.3, 
			 "cosmo_repulsion_energy": 1.78, 
			 "cosmo_total_nonelectrostatic_energy": 11.74, 
			 "SMD_solvation_energy": 6.11 
		},
		"coords": [
			{
				"x": -0.444954498,
				"y": -1.6327354519,
				"z": 3.8201088529,
				"element": "C" 
			},
			{
				"x": 0.0175518064,
				"y": -0.9608155591,
				"z": 2.6389785503,
				"element": "O" 
			},
			{
				"x": 0.1554180826,
				"y": 0.3762980481,
				"z": 2.7676497078,
				"element": "C" 
			},
			{
				"x": 0.0055053086,
				"y": 0.9643859004,
				"z": 3.8210057559,
				"element": "O" 
			},
			{
				"x": 0.5764567622,
				"y": 1.0509863229,
				"z": 1.5162619116,
				"element": "C" 
			},
			{
				"x": 0.475841181,
				"y": 0.5869909829,
				"z": 0.2194642849,
				"element": "C" 
			},
			{
				"x": 1.1675968753,
				"y": 1.7394310749,
				"z": -0.9146995201,
				"element": "S" 
			},
			{
				"x": 1.5997962917,
				"y": 2.8188710786,
				"z": 0.3776686553,
				"element": "C" 
			},
			{
				"x": 1.2062111658,
				"y": 2.3374683668,
				"z": 1.5874471348,
				"element": "C" 
			},
			{
				"x": -0.1666106662,
				"y": -0.5493529882,
				"z": -0.2650334079,
				"element": "N" 
			},
			{
				"x": 0.4092860717,
				"y": -1.400024177,
				"z": -1.3190054081,
				"element": "C" 
			},
			{
				"x": -0.4970318724,
				"y": -2.6424951238,
				"z": -1.2987180821,
				"element": "C" 
			},
			{
				"x": -1.8574927539,
				"y": -2.0944917044,
				"z": -0.8517651035,
				"element": "C" 
			},
			{
				"x": -2.7254031588,
				"y": -3.0784422376,
				"z": -0.2254645192,
				"element": "N" 
			},
			{
				"x": -1.4837547408,
				"y": -0.8897282954,
				"z": 0.0325762967,
				"element": "C" 
			},
			{
				"x": -2.2117250812,
				"y": -0.3382976819,
				"z": 0.8341460053,
				"element": "O" 
			},
			{
				"x": 0.2398105166,
				"y": -1.4659090242,
				"z": 4.6550979091,
				"element": "H" 
			},
			{
				"x": -0.4799445576,
				"y": -2.6915750961,
				"z": 3.5615183211,
				"element": "H" 
			},
			{
				"x": -1.4388906842,
				"y": -1.2739301194,
				"z": 4.0982884594,
				"element": "H" 
			},
			{
				"x": 2.1378906631,
				"y": 3.7300476229,
				"z": 0.1575681383,
				"element": "H" 
			},
			{
				"x": 1.3658835464,
				"y": 2.8423020543,
				"z": 2.531706891,
				"element": "H" 
			},
			{
				"x": 0.3725531442,
				"y": -0.8917081752,
				"z": -2.2931733329,
				"element": "H" 
			},
			{
				"x": 1.4550242198,
				"y": -1.6232088123,
				"z": -1.0918962712,
				"element": "H" 
			},
			{
				"x": -0.5327191187,
				"y": -3.1543598139,
				"z": -2.2622987489,
				"element": "H" 
			},
			{
				"x": -0.1303001623,
				"y": -3.3541724315,
				"z": -0.5499441622,
				"element": "H" 
			},
			{
				"x": -2.3917601509,
				"y": -1.6819447181,
				"z": -1.7204546113,
				"element": "H" 
			},
			{
				"x": -3.5660130592,
				"y": -2.6026344104,
				"z": 0.0983877958,
				"element": "H" 
			},
			{
				"x": -2.2738251311,
				"y": -3.4315556314,
				"z": 0.6170784971,
				"element": "H" 
			}
		],
		 "valence_orbital": [ 
			{
				"type": "occ",
				"energy": -0.27755,
				"method": "rhf"
			},
			{
				"type": "occ",
				"energy": -0.27182,
				"method": "rhf"
			},
			{
				"type": "occ",
				"energy": -0.25831,
				"method": "rhf"
			},
			{
				"type": "occ",
				"energy": -0.24023,
				"method": "rhf"
			},
			{
				"type": "occ",
				"energy": -0.22482,
				"method": "rhf"
			},
			{
				"type": "unocc",
				"energy": -0.04321,
				"method": "rhf"
			},
			{
				"type": "unocc",
				"energy": 0.00756,
				"method": "rhf"
			},
			{
				"type": "unocc",
				"energy": 0.01112,
				"method": "rhf"
			},
			{
				"type": "unocc",
				"energy": 0.02057,
				"method": "rhf"
			},
			{
				"type": "unocc",
				"energy": 0.078,
				"method": "rhf"
			}
		],
		"cosmo_sigma_profile": { 
			"-0.025": 0.0,
			"-0.024": 0.0,
			"-0.023": 0.0,
			"-0.022": 0.0,
			"-0.021": 0.0,
			"-0.02": 0.0,
			"-0.019": 0.0,
			"-0.018": 0.0,
			"-0.017": 0.0,
			"-0.016": 0.0,
			"-0.015": 0.0,
			"-0.014": 0.0,
			"-0.013": 0.0,
			"-0.012": 0.0,
			"-0.011": 0.0,
			"-0.01": 1.38295231857,
			"-0.009": 4.54257329763,
			"-0.008": 5.3893318283,
			"-0.007": 7.6944599425,
			"-0.006": 20.4064826523,
			"-0.005": 25.889686071,
			"-0.004": 25.3465477465,
			"-0.003": 23.2884979012,
			"-0.002": 15.0428993002,
			"-0.001": 14.4295240448,
			"0.0": 12.4760308237,
			"0.001": 14.3798008253,
			"0.002": 16.4747641097,
			"0.003": 16.3086496884,
			"0.004": 11.3855291405,
			"0.005": 5.57387332486,
			"0.006": 6.02108035083,
			"0.007": 4.47542139913,
			"0.008": 5.99030202308,
			"0.009": 3.86739552189,
			"0.01": 4.02958216176,
			"0.011": 5.25523053018,
			"0.012": 8.60791088138,
			"0.013": 3.32916744185,
			"0.014": 0.75562158356,
			"0.015": 0.460825072129,
			"0.016": 0.725934062966,
			"0.017": 0.582509597215,
			"0.018": 0.618602632926,
			"0.019": 0.231242524655,
			"0.02": 0.0,
			"0.021": 0.0,
			"0.022": 0.0,
			"0.023": 0.0,
			"0.024": 0.0,
			"0.025": 0.0
		}
	}
}
