{
	 "smiles": "CCCCCCCCCCCC(=O)N(C)CC(O)=O", 
	 "Tm": 319.15, 
	 "num_atms": 48, 
	 "gaussian": { 
		 "optdone": 1, 
		 "sigma_profile": "yes", 
		 "theory": "DFT", 
		 "functional": "B3LYP", 
		 "basiset": "6-31G**", 
		 "properties": { 
			 "R2extent": 11074.9202, 
			 "electric_dipole_moment_norm": 6.52313444749, 
			 "electric_quadrupole_moment_norm": 42.5452161412, 
			 "total_energy": -869.54953288, 
			 "HOMO_LUMO_gap": 0.24127, 
			 "cosmo_polarized_energy": -15.57, 
			 "cosmo_cavitation_energy": 47.84, 
			 "cosmo_dispersion_energy": -31.81, 
			 "cosmo_repulsion_energy": 2.54, 
			 "cosmo_total_nonelectrostatic_energy": 18.57, 
			 "SMD_solvation_energy": 8.17 
		},
		"coords": [
			{
				"x": 3.6290189916,
				"y": 3.7530045678,
				"z": 0.4010305736,
				"element": "C" 
			},
			{
				"x": 4.6624667019,
				"y": 2.9542331986,
				"z": 1.2037742256,
				"element": "C" 
			},
			{
				"x": 5.3226839671,
				"y": 1.7722573974,
				"z": 0.4705851616,
				"element": "C" 
			},
			{
				"x": 4.3913016099,
				"y": 0.6045364237,
				"z": 0.0730555826,
				"element": "C" 
			},
			{
				"x": 3.7548132715,
				"y": 0.7241887594,
				"z": -1.3218570328,
				"element": "C" 
			},
			{
				"x": 2.9776218756,
				"y": -0.5103226445,
				"z": -1.8151365807,
				"element": "C" 
			},
			{
				"x": 1.6905321345,
				"y": -0.8680576851,
				"z": -1.0379807936,
				"element": "C" 
			},
			{
				"x": 1.8827483477,
				"y": -1.8505497405,
				"z": 0.1301198556,
				"element": "C" 
			},
			{
				"x": 0.5774871769,
				"y": -2.2846866284,
				"z": 0.8174238021,
				"element": "C" 
			},
			{
				"x": -0.1255300204,
				"y": -1.1647267652,
				"z": 1.5989995124,
				"element": "C" 
			},
			{
				"x": -1.3889094841,
				"y": -1.6391267294,
				"z": 2.3505700831,
				"element": "C" 
			},
			{
				"x": -2.4724131348,
				"y": -2.1811096696,
				"z": 1.431020334,
				"element": "C" 
			},
			{
				"x": -2.6482900661,
				"y": -3.4087205616,
				"z": 1.3342086168,
				"element": "O" 
			},
			{
				"x": -3.2159396,
				"y": -1.3230626773,
				"z": 0.6752119777,
				"element": "N" 
			},
			{
				"x": -3.2628190001,
				"y": 0.1294626923,
				"z": 0.8151301617,
				"element": "C" 
			},
			{
				"x": -4.1176095634,
				"y": -1.8997291124,
				"z": -0.3329877255,
				"element": "C" 
			},
			{
				"x": -5.4427567513,
				"y": -2.4215071131,
				"z": 0.2546987974,
				"element": "C" 
			},
			{
				"x": -5.3159841393,
				"y": -3.4592267117,
				"z": 1.0903551485,
				"element": "O" 
			},
			{
				"x": -6.5121565959,
				"y": -1.9311579081,
				"z": -0.025570341,
				"element": "O" 
			},
			{
				"x": 2.7433406743,
				"y": 3.1552426334,
				"z": 0.1641575251,
				"element": "H" 
			},
			{
				"x": 3.289451543,
				"y": 4.628329632,
				"z": 0.9652901228,
				"element": "H" 
			},
			{
				"x": 4.0502296332,
				"y": 4.1117505528,
				"z": -0.5452134889,
				"element": "H" 
			},
			{
				"x": 4.1935427709,
				"y": 2.581178908,
				"z": 2.125070283,
				"element": "H" 
			},
			{
				"x": 5.4576200226,
				"y": 3.6376615459,
				"z": 1.5293094261,
				"element": "H" 
			},
			{
				"x": 5.8432013875,
				"y": 2.1429346368,
				"z": -0.4241171528,
				"element": "H" 
			},
			{
				"x": 6.1077231362,
				"y": 1.3798312502,
				"z": 1.129226195,
				"element": "H" 
			},
			{
				"x": 3.6120698756,
				"y": 0.4951702343,
				"z": 0.8388528075,
				"element": "H" 
			},
			{
				"x": 4.9686813168,
				"y": -0.3295045183,
				"z": 0.0988493027,
				"element": "H" 
			},
			{
				"x": 3.0902233407,
				"y": 1.5961938098,
				"z": -1.3615271423,
				"element": "H" 
			},
			{
				"x": 4.5568286657,
				"y": 0.9288955646,
				"z": -2.0445821747,
				"element": "H" 
			},
			{
				"x": 3.6466699787,
				"y": -1.3826333107,
				"z": -1.8301615192,
				"element": "H" 
			},
			{
				"x": 2.7081513356,
				"y": -0.3259275915,
				"z": -2.8626012782,
				"element": "H" 
			},
			{
				"x": 1.2179817352,
				"y": 0.0589712818,
				"z": -0.6849859843,
				"element": "H" 
			},
			{
				"x": 0.9726720389,
				"y": -1.3211402606,
				"z": -1.7354233572,
				"element": "H" 
			},
			{
				"x": 2.3847504609,
				"y": -2.7476629468,
				"z": -0.2555689021,
				"element": "H" 
			},
			{
				"x": 2.5617457186,
				"y": -1.4264539281,
				"z": 0.8801455503,
				"element": "H" 
			},
			{
				"x": -0.1082993668,
				"y": -2.7007672069,
				"z": 0.0674644363,
				"element": "H" 
			},
			{
				"x": 0.7949700068,
				"y": -3.1079834586,
				"z": 1.5099500868,
				"element": "H" 
			},
			{
				"x": -0.3845320328,
				"y": -0.3381434273,
				"z": 0.9269145502,
				"element": "H" 
			},
			{
				"x": 0.570264523,
				"y": -0.7498685149,
				"z": 2.3396733045,
				"element": "H" 
			},
			{
				"x": -1.7784671197,
				"y": -0.8305086198,
				"z": 2.9782376168,
				"element": "H" 
			},
			{
				"x": -1.1351185773,
				"y": -2.4681660967,
				"z": 3.0155718318,
				"element": "H" 
			},
			{
				"x": -2.6418146053,
				"y": 0.4608590915,
				"z": 1.6442892664,
				"element": "H" 
			},
			{
				"x": -4.2922546652,
				"y": 0.4519853987,
				"z": 1.0046338742,
				"element": "H" 
			},
			{
				"x": -2.9106897514,
				"y": 0.6187440303,
				"z": -0.1005834163,
				"element": "H" 
			},
			{
				"x": -3.595423293,
				"y": -2.7226876814,
				"z": -0.831349446,
				"element": "H" 
			},
			{
				"x": -4.3598783574,
				"y": -1.1282782772,
				"z": -1.0638479958,
				"element": "H" 
			},
			{
				"x": -4.3552061165,
				"y": -3.6773218237,
				"z": 1.1906743188,
				"element": "H" 
			}
		],
		 "valence_orbital": [ 
			{
				"type": "occ",
				"energy": -0.30343,
				"method": "rhf"
			},
			{
				"type": "occ",
				"energy": -0.29822,
				"method": "rhf"
			},
			{
				"type": "occ",
				"energy": -0.286,
				"method": "rhf"
			},
			{
				"type": "occ",
				"energy": -0.27161,
				"method": "rhf"
			},
			{
				"type": "occ",
				"energy": -0.24779,
				"method": "rhf"
			},
			{
				"type": "unocc",
				"energy": -0.00652,
				"method": "rhf"
			},
			{
				"type": "unocc",
				"energy": 0.01406,
				"method": "rhf"
			},
			{
				"type": "unocc",
				"energy": 0.06524,
				"method": "rhf"
			},
			{
				"type": "unocc",
				"energy": 0.07555,
				"method": "rhf"
			},
			{
				"type": "unocc",
				"energy": 0.09034,
				"method": "rhf"
			}
		],
		"cosmo_sigma_profile": { 
			"-0.025": 0.0,
			"-0.024": 0.0,
			"-0.023": 0.0,
			"-0.022": 0.0,
			"-0.021": 0.0,
			"-0.02": 0.0,
			"-0.019": 0.0,
			"-0.018": 0.0,
			"-0.017": 0.0,
			"-0.016": 0.0,
			"-0.015": 0.0,
			"-0.014": 0.0,
			"-0.013": 0.0,
			"-0.012": 0.0,
			"-0.011": 0.0,
			"-0.01": 0.0,
			"-0.009": 0.288523136043,
			"-0.008": 3.26490882951,
			"-0.007": 7.42274957011,
			"-0.006": 10.7426319083,
			"-0.005": 15.5596657732,
			"-0.004": 20.0874121853,
			"-0.003": 26.9684517527,
			"-0.002": 45.6514117114,
			"-0.001": 60.4964303921,
			"0.0": 60.9482940991,
			"0.001": 46.9785793936,
			"0.002": 20.3099903391,
			"0.003": 3.76794568252,
			"0.004": 3.27801918853,
			"0.005": 4.0854365466,
			"0.006": 3.14168204064,
			"0.007": 3.05486339218,
			"0.008": 3.98781781782,
			"0.009": 4.27477213048,
			"0.01": 4.65496401193,
			"0.011": 7.28735519626,
			"0.012": 7.49700306966,
			"0.013": 4.66433303621,
			"0.014": 0.962055614646,
			"0.015": 0.0,
			"0.016": 0.0,
			"0.017": 0.0,
			"0.018": 0.0,
			"0.019": 0.0,
			"0.02": 0.0,
			"0.021": 0.0,
			"0.022": 0.0,
			"0.023": 0.0,
			"0.024": 0.0,
			"0.025": 0.0
		}
	}
}
