{
	 "smiles": "OC(=O)C1CN(CC2=CC=CS2)C(=O)C1", 
	 "Tm": 418.15, 
	 "num_atms": 26, 
	 "gaussian": { 
		 "optdone": 1, 
		 "sigma_profile": "yes", 
		 "theory": "DFT", 
		 "functional": "B3LYP", 
		 "basiset": "6-31G**", 
		 "properties": { 
			 "R2extent": 5197.1363, 
			 "electric_dipole_moment_norm": 4.02477550181, 
			 "electric_quadrupole_moment_norm": 11.8202849661, 
			 "total_energy": -1066.31893124, 
			 "HOMO_LUMO_gap": 0.21397, 
			 "cosmo_polarized_energy": -16.22, 
			 "cosmo_cavitation_energy": 31.61, 
			 "cosmo_dispersion_energy": -22.74, 
			 "cosmo_repulsion_energy": 1.75, 
			 "cosmo_total_nonelectrostatic_energy": 10.62, 
			 "SMD_solvation_energy": 6.15 
		},
		"coords": [
			{
				"x": 0.0379497574,
				"y": -0.6787836378,
				"z": 2.8823154785,
				"element": "O" 
			},
			{
				"x": -0.5574603739,
				"y": 0.1923531911,
				"z": 2.0311267055,
				"element": "C" 
			},
			{
				"x": -0.9384307966,
				"y": 1.2857542292,
				"z": 2.382383695,
				"element": "O" 
			},
			{
				"x": -0.7008193098,
				"y": -0.406287779,
				"z": 0.6368228107,
				"element": "C" 
			},
			{
				"x": 0.6659699675,
				"y": -0.8593502621,
				"z": 0.0495709301,
				"element": "C" 
			},
			{
				"x": 1.0644774221,
				"y": 0.2768425465,
				"z": -0.768607818,
				"element": "N" 
			},
			{
				"x": 2.3415917518,
				"y": 0.3388523583,
				"z": -1.4707834556,
				"element": "C" 
			},
			{
				"x": 2.429581996,
				"y": -0.5758114547,
				"z": -2.6676515924,
				"element": "C" 
			},
			{
				"x": 1.8955878877,
				"y": -0.3688512023,
				"z": -3.9138665832,
				"element": "C" 
			},
			{
				"x": 2.1265720452,
				"y": -1.4519838593,
				"z": -4.8145920741,
				"element": "C" 
			},
			{
				"x": 2.8335723919,
				"y": -2.4756014865,
				"z": -4.2453103425,
				"element": "C" 
			},
			{
				"x": 3.2283336969,
				"y": -2.1286370713,
				"z": -2.5927003117,
				"element": "S" 
			},
			{
				"x": 0.0139087513,
				"y": 1.0814849119,
				"z": -1.1469651494,
				"element": "C" 
			},
			{
				"x": 0.0772236935,
				"y": 1.9838893575,
				"z": -1.967214002,
				"element": "O" 
			},
			{
				"x": -1.2226766804,
				"y": 0.6254337681,
				"z": -0.3744480822,
				"element": "C" 
			},
			{
				"x": 0.0760433698,
				"y": -0.2330855638,
				"z": 3.7453046786,
				"element": "H" 
			},
			{
				"x": -1.3620199143,
				"y": -1.2724249955,
				"z": 0.7434304791,
				"element": "H" 
			},
			{
				"x": 1.4060281648,
				"y": -1.0685120881,
				"z": 0.8273751937,
				"element": "H" 
			},
			{
				"x": 0.5494313368,
				"y": -1.7685010284,
				"z": -0.5565522761,
				"element": "H" 
			},
			{
				"x": 3.1446431804,
				"y": 0.1289882864,
				"z": -0.7561489155,
				"element": "H" 
			},
			{
				"x": 2.4469904367,
				"y": 1.3735043586,
				"z": -1.8072228337,
				"element": "H" 
			},
			{
				"x": 1.3505320312,
				"y": 0.5347736852,
				"z": -4.1636199379,
				"element": "H" 
			},
			{
				"x": 1.7868852098,
				"y": -1.4647598725,
				"z": -5.8441648019,
				"element": "H" 
			},
			{
				"x": 3.1550629646,
				"y": -3.4042261458,
				"z": -4.6960045112,
				"element": "H" 
			},
			{
				"x": -1.7091828671,
				"y": 1.4756333898,
				"z": 0.1063749069,
				"element": "H" 
			},
			{
				"x": -1.9276961134,
				"y": 0.183806364,
				"z": -1.0863521908,
				"element": "H" 
			}
		],
		 "valence_orbital": [ 
			{
				"type": "occ",
				"energy": -0.28782,
				"method": "rhf"
			},
			{
				"type": "occ",
				"energy": -0.25728,
				"method": "rhf"
			},
			{
				"type": "occ",
				"energy": -0.25263,
				"method": "rhf"
			},
			{
				"type": "occ",
				"energy": -0.24232,
				"method": "rhf"
			},
			{
				"type": "occ",
				"energy": -0.23075,
				"method": "rhf"
			},
			{
				"type": "unocc",
				"energy": -0.01678,
				"method": "rhf"
			},
			{
				"type": "unocc",
				"energy": -0.00667,
				"method": "rhf"
			},
			{
				"type": "unocc",
				"energy": 0.02298,
				"method": "rhf"
			},
			{
				"type": "unocc",
				"energy": 0.02775,
				"method": "rhf"
			},
			{
				"type": "unocc",
				"energy": 0.06216,
				"method": "rhf"
			}
		],
		"cosmo_sigma_profile": { 
			"-0.025": 0.0,
			"-0.024": 0.0,
			"-0.023": 0.0,
			"-0.022": 0.0,
			"-0.021": 0.0,
			"-0.02": 0.0,
			"-0.019": 0.152255830308,
			"-0.018": 0.719530971974,
			"-0.017": 1.35505619986,
			"-0.016": 0.587511383388,
			"-0.015": 0.294134764841,
			"-0.014": 0.872546332294,
			"-0.013": 0.507666939971,
			"-0.012": 0.765045223753,
			"-0.011": 1.29917502765,
			"-0.01": 0.602380451261,
			"-0.009": 0.776410912349,
			"-0.008": 3.21348312443,
			"-0.007": 11.0601911243,
			"-0.006": 18.947594716,
			"-0.005": 17.8327901978,
			"-0.004": 17.2755137985,
			"-0.003": 19.2925432004,
			"-0.002": 18.1713662908,
			"-0.001": 15.0568879458,
			"0.0": 13.8364827452,
			"0.001": 13.9329873909,
			"0.002": 14.764809163,
			"0.003": 15.2921323598,
			"0.004": 15.6897552144,
			"0.005": 12.8392459438,
			"0.006": 6.31468528996,
			"0.007": 3.92989789886,
			"0.008": 3.51087869734,
			"0.009": 4.02636444043,
			"0.01": 3.04582789167,
			"0.011": 5.91622919687,
			"0.012": 3.56119019044,
			"0.013": 2.55133788573,
			"0.014": 3.7608738899,
			"0.015": 0.964365491003,
			"0.016": 0.0,
			"0.017": 0.0,
			"0.018": 0.0,
			"0.019": 0.0,
			"0.02": 0.0,
			"0.021": 0.0,
			"0.022": 0.0,
			"0.023": 0.0,
			"0.024": 0.0,
			"0.025": 0.0
		}
	}
}
