{
	 "smiles": "COC1=C(NC(=O)OCC(F)(F)F)C=CC=N1", 
	 "Tm": 318.15, 
	 "num_atms": 26, 
	 "gaussian": { 
		 "optdone": 1, 
		 "sigma_profile": "yes", 
		 "theory": "DFT", 
		 "functional": "B3LYP", 
		 "basiset": "6-31G**", 
		 "properties": { 
			 "R2extent": 5246.2479, 
			 "electric_dipole_moment_norm": 3.19283907988, 
			 "electric_quadrupole_moment_norm": 14.5378939603, 
			 "total_energy": -983.08817176, 
			 "HOMO_LUMO_gap": 0.20424, 
			 "cosmo_polarized_energy": -12.88, 
			 "cosmo_cavitation_energy": 33.05, 
			 "cosmo_dispersion_energy": -22.17, 
			 "cosmo_repulsion_energy": 1.73, 
			 "cosmo_total_nonelectrostatic_energy": 12.6, 
			 "SMD_solvation_energy": 8.03 
		},
		"coords": [
			{
				"x": -2.1870639192,
				"y": -0.2180272975,
				"z": -2.8464352026,
				"element": "C" 
			},
			{
				"x": -2.2331503792,
				"y": 0.0254159857,
				"z": -1.4362926884,
				"element": "O" 
			},
			{
				"x": -1.4277511207,
				"y": 0.9912792723,
				"z": -0.9538960987,
				"element": "C" 
			},
			{
				"x": -1.4676707454,
				"y": 1.2242818927,
				"z": 0.444100986,
				"element": "C" 
			},
			{
				"x": -2.3431796364,
				"y": 0.4923030701,
				"z": 1.2924126581,
				"element": "N" 
			},
			{
				"x": -2.317050082,
				"y": -0.8570802326,
				"z": 1.5182801435,
				"element": "C" 
			},
			{
				"x": -3.1828680328,
				"y": -1.4702688415,
				"z": 2.1081691716,
				"element": "O" 
			},
			{
				"x": -1.1753677582,
				"y": -1.4109854184,
				"z": 1.0082732139,
				"element": "O" 
			},
			{
				"x": -1.0015824846,
				"y": -2.7990536271,
				"z": 1.2529737049,
				"element": "C" 
			},
			{
				"x": 0.0655724192,
				"y": -3.0005193413,
				"z": 2.3150573511,
				"element": "C" 
			},
			{
				"x": 1.2591152178,
				"y": -2.5110417604,
				"z": 1.9278488439,
				"element": "F" 
			},
			{
				"x": 0.2172431319,
				"y": -4.3221677801,
				"z": 2.5505521235,
				"element": "F" 
			},
			{
				"x": -0.2668204063,
				"y": -2.4013673506,
				"z": 3.4726691036,
				"element": "F" 
			},
			{
				"x": -0.6569646732,
				"y": 2.2307660703,
				"z": 0.9487344081,
				"element": "C" 
			},
			{
				"x": 0.1589144326,
				"y": 2.9665553745,
				"z": 0.0810292441,
				"element": "C" 
			},
			{
				"x": 0.1285278824,
				"y": 2.642163825,
				"z": -1.2684520468,
				"element": "C" 
			},
			{
				"x": -0.6469299615,
				"y": 1.6727477939,
				"z": -1.7815493478,
				"element": "N" 
			},
			{
				"x": -2.9073065054,
				"y": -1.0176950327,
				"z": -3.0229902576,
				"element": "H" 
			},
			{
				"x": -1.186143534,
				"y": -0.5286414728,
				"z": -3.1584097579,
				"element": "H" 
			},
			{
				"x": -2.4645296923,
				"y": 0.6772851493,
				"z": -3.409483487,
				"element": "H" 
			},
			{
				"x": -3.192389185,
				"y": 0.9319546142,
				"z": 1.618935965,
				"element": "H" 
			},
			{
				"x": -0.6652395946,
				"y": -3.2672803996,
				"z": 0.325458895,
				"element": "H" 
			},
			{
				"x": -1.9343659905,
				"y": -3.2496817362,
				"z": 1.5965560343,
				"element": "H" 
			},
			{
				"x": -0.6665371689,
				"y": 2.4268029128,
				"z": 2.016758155,
				"element": "H" 
			},
			{
				"x": 0.801872051,
				"y": 3.7585933868,
				"z": 0.4486250296,
				"element": "H" 
			},
			{
				"x": 0.7480657353,
				"y": 3.179660943,
				"z": -1.9834261445,
				"element": "H" 
			}
		],
		 "valence_orbital": [ 
			{
				"type": "occ",
				"energy": -0.30509,
				"method": "rhf"
			},
			{
				"type": "occ",
				"energy": -0.28568,
				"method": "rhf"
			},
			{
				"type": "occ",
				"energy": -0.28275,
				"method": "rhf"
			},
			{
				"type": "occ",
				"energy": -0.26444,
				"method": "rhf"
			},
			{
				"type": "occ",
				"energy": -0.23719,
				"method": "rhf"
			},
			{
				"type": "unocc",
				"energy": -0.03295,
				"method": "rhf"
			},
			{
				"type": "unocc",
				"energy": -0.00775,
				"method": "rhf"
			},
			{
				"type": "unocc",
				"energy": 0.04581,
				"method": "rhf"
			},
			{
				"type": "unocc",
				"energy": 0.07844,
				"method": "rhf"
			},
			{
				"type": "unocc",
				"energy": 0.09525,
				"method": "rhf"
			}
		],
		"cosmo_sigma_profile": { 
			"-0.025": 0.0,
			"-0.024": 0.0,
			"-0.023": 0.0,
			"-0.022": 0.0,
			"-0.021": 0.0,
			"-0.02": 0.0,
			"-0.019": 0.0,
			"-0.018": 0.0,
			"-0.017": 0.0,
			"-0.016": 0.262204585288,
			"-0.015": 1.24872488144,
			"-0.014": 0.940092285644,
			"-0.013": 0.622492814135,
			"-0.012": 1.06831009487,
			"-0.011": 1.03396859454,
			"-0.01": 1.16011036307,
			"-0.009": 3.05941988044,
			"-0.008": 5.0831074954,
			"-0.007": 9.03441985912,
			"-0.006": 13.5263271417,
			"-0.005": 16.7630455638,
			"-0.004": 16.1556456877,
			"-0.003": 16.3507631461,
			"-0.002": 11.7904251077,
			"-0.001": 13.158729469,
			"0.0": 17.1975529364,
			"0.001": 20.0077471457,
			"0.002": 34.862422681,
			"0.003": 34.5102675613,
			"0.004": 9.80293028183,
			"0.005": 7.3397070271,
			"0.006": 5.93695691868,
			"0.007": 4.55299352848,
			"0.008": 3.03704277215,
			"0.009": 3.10568213561,
			"0.01": 1.73127644052,
			"0.011": 3.22050149159,
			"0.012": 5.82289289291,
			"0.013": 1.38988736977,
			"0.014": 0.0,
			"0.015": 0.0,
			"0.016": 0.0,
			"0.017": 0.0,
			"0.018": 0.0,
			"0.019": 0.0,
			"0.02": 0.0,
			"0.021": 0.0,
			"0.022": 0.0,
			"0.023": 0.0,
			"0.024": 0.0,
			"0.025": 0.0
		}
	}
}
