{
	 "smiles": "CC(C)C1=CC=CC=C1Cl", 
	 "Tm": 198.95, 
	 "num_atms": 21, 
	 "gaussian": { 
		 "optdone": 1, 
		 "sigma_profile": "yes", 
		 "theory": "DFT", 
		 "functional": "B3LYP", 
		 "basiset": "6-31G**", 
		 "properties": { 
			 "R2extent": 3170.0475, 
			 "electric_dipole_moment_norm": 1.69042759384, 
			 "electric_quadrupole_moment_norm": 7.8216350944, 
			 "total_energy": -809.79320964, 
			 "HOMO_LUMO_gap": 0.2308, 
			 "cosmo_polarized_energy": -3.58, 
			 "cosmo_cavitation_energy": 25.07, 
			 "cosmo_dispersion_energy": -18.14, 
			 "cosmo_repulsion_energy": 1.48, 
			 "cosmo_total_nonelectrostatic_energy": 8.41, 
			 "SMD_solvation_energy": 4.19 
		},
		"coords": [
			{
				"x": 1.7772324416,
				"y": 2.9312268269,
				"z": 0.0116500673,
				"element": "C" 
			},
			{
				"x": 0.7961033157,
				"y": 1.9714817729,
				"z": 0.7117354394,
				"element": "C" 
			},
			{
				"x": 1.4281193034,
				"y": 0.5824312429,
				"z": 0.923691759,
				"element": "C" 
			},
			{
				"x": -0.5240545726,
				"y": 1.8745994772,
				"z": -0.0431822614,
				"element": "C" 
			},
			{
				"x": -0.5486047853,
				"y": 1.3689151567,
				"z": -1.3544510748,
				"element": "C" 
			},
			{
				"x": -1.7258994976,
				"y": 1.258801487,
				"z": -2.0892966438,
				"element": "C" 
			},
			{
				"x": -2.9364944786,
				"y": 1.6593823117,
				"z": -1.5221248354,
				"element": "C" 
			},
			{
				"x": -2.9534882919,
				"y": 2.1655689771,
				"z": -0.2252800493,
				"element": "C" 
			},
			{
				"x": -1.7600214285,
				"y": 2.2670569443,
				"z": 0.4935947788,
				"element": "C" 
			},
			{
				"x": -1.8759750423,
				"y": 2.9213259235,
				"z": 2.1340919113,
				"element": "Cl" 
			},
			{
				"x": 2.0559175847,
				"y": 2.5680700617,
				"z": -0.9836786158,
				"element": "H" 
			},
			{
				"x": 2.6970039072,
				"y": 3.0291666994,
				"z": 0.5982250097,
				"element": "H" 
			},
			{
				"x": 1.3412201962,
				"y": 3.9279855949,
				"z": -0.1057243262,
				"element": "H" 
			},
			{
				"x": 0.582405412,
				"y": 2.3868901627,
				"z": 1.6997290949,
				"element": "H" 
			},
			{
				"x": 2.3461738104,
				"y": 0.6686136217,
				"z": 1.5147842541,
				"element": "H" 
			},
			{
				"x": 0.7443523569,
				"y": -0.0877165257,
				"z": 1.45357201,
				"element": "H" 
			},
			{
				"x": 1.6903506739,
				"y": 0.1088724516,
				"z": -0.0287758812,
				"element": "H" 
			},
			{
				"x": 0.3880168751,
				"y": 1.0539449766,
				"z": -1.8061248561,
				"element": "H" 
			},
			{
				"x": -1.6982905267,
				"y": 0.8621962885,
				"z": -3.0998237247,
				"element": "H" 
			},
			{
				"x": -3.8637409811,
				"y": 1.5801923233,
				"z": -2.081590669,
				"element": "H" 
			},
			{
				"x": -3.8819262724,
				"y": 2.483094225,
				"z": 0.2363786131,
				"element": "H" 
			}
		],
		 "valence_orbital": [ 
			{
				"type": "occ",
				"energy": -0.32989,
				"method": "rhf"
			},
			{
				"type": "occ",
				"energy": -0.32798,
				"method": "rhf"
			},
			{
				"type": "occ",
				"energy": -0.30249,
				"method": "rhf"
			},
			{
				"type": "occ",
				"energy": -0.25203,
				"method": "rhf"
			},
			{
				"type": "occ",
				"energy": -0.24114,
				"method": "rhf"
			},
			{
				"type": "unocc",
				"energy": -0.01034,
				"method": "rhf"
			},
			{
				"type": "unocc",
				"energy": -0.00751,
				"method": "rhf"
			},
			{
				"type": "unocc",
				"energy": 0.03312,
				"method": "rhf"
			},
			{
				"type": "unocc",
				"energy": 0.09035,
				"method": "rhf"
			},
			{
				"type": "unocc",
				"energy": 0.11148,
				"method": "rhf"
			}
		],
		"cosmo_sigma_profile": { 
			"-0.025": 0.0,
			"-0.024": 0.0,
			"-0.023": 0.0,
			"-0.022": 0.0,
			"-0.021": 0.0,
			"-0.02": 0.0,
			"-0.019": 0.0,
			"-0.018": 0.0,
			"-0.017": 0.0,
			"-0.016": 0.0,
			"-0.015": 0.0,
			"-0.014": 0.0,
			"-0.013": 0.0,
			"-0.012": 0.0,
			"-0.011": 0.0,
			"-0.01": 0.0,
			"-0.009": 0.0,
			"-0.008": 0.0,
			"-0.007": 1.02656182226,
			"-0.006": 6.56556090667,
			"-0.005": 10.4105962542,
			"-0.004": 11.367871335,
			"-0.003": 15.6544437535,
			"-0.002": 19.9056964375,
			"-0.001": 22.4096818309,
			"0.0": 22.5572557835,
			"0.001": 25.3867268017,
			"0.002": 17.6972602257,
			"0.003": 14.981494306,
			"0.004": 16.1138767598,
			"0.005": 14.6018311854,
			"0.006": 1.49693406187,
			"0.007": 0.0,
			"0.008": 0.0,
			"0.009": 0.0,
			"0.01": 0.0,
			"0.011": 0.0,
			"0.012": 0.0,
			"0.013": 0.0,
			"0.014": 0.0,
			"0.015": 0.0,
			"0.016": 0.0,
			"0.017": 0.0,
			"0.018": 0.0,
			"0.019": 0.0,
			"0.02": 0.0,
			"0.021": 0.0,
			"0.022": 0.0,
			"0.023": 0.0,
			"0.024": 0.0,
			"0.025": 0.0
		}
	}
}
