{
	 "smiles": "CC(=O)OC1=CC=CC2=C1C(=O)C1=C(OC(C)=O)C=C(C=C1C2=O)C(O)=O", 
	 "Tm": 491.15, 
	 "num_atms": 39, 
	 "gaussian": { 
		 "optdone": 1, 
		 "sigma_profile": "yes", 
		 "theory": "DFT", 
		 "functional": "B3LYP", 
		 "basiset": "6-31G**", 
		 "properties": { 
			 "R2extent": 10837.8804, 
			 "electric_dipole_moment_norm": 5.54793917595, 
			 "electric_quadrupole_moment_norm": 25.1482974173, 
			 "total_energy": -1333.07628695, 
			 "HOMO_LUMO_gap": 0.14383, 
			 "cosmo_polarized_energy": -25.52, 
			 "cosmo_cavitation_energy": 45.8, 
			 "cosmo_dispersion_energy": -30.97, 
			 "cosmo_repulsion_energy": 2.29, 
			 "cosmo_total_nonelectrostatic_energy": 17.12, 
			 "SMD_solvation_energy": 11.51 
		},
		"coords": [
			{
				"x": 4.4030569023,
				"y": 1.8604717397,
				"z": -0.7669359347,
				"element": "C" 
			},
			{
				"x": 3.3422557915,
				"y": 0.9094221045,
				"z": -1.2441589994,
				"element": "C" 
			},
			{
				"x": 2.7851931934,
				"y": 0.9106314584,
				"z": -2.3089597266,
				"element": "O" 
			},
			{
				"x": 3.0813551316,
				"y": -0.0301407378,
				"z": -0.2598259871,
				"element": "O" 
			},
			{
				"x": 2.0091869306,
				"y": -0.8803735076,
				"z": -0.4490867042,
				"element": "C" 
			},
			{
				"x": 2.3080536059,
				"y": -2.1843724666,
				"z": -0.8416005089,
				"element": "C" 
			},
			{
				"x": 1.2949711387,
				"y": -3.1291689217,
				"z": -0.9876718866,
				"element": "C" 
			},
			{
				"x": -0.0244353302,
				"y": -2.7695246019,
				"z": -0.732164459,
				"element": "C" 
			},
			{
				"x": -0.3274349912,
				"y": -1.4682129706,
				"z": -0.3234457211,
				"element": "C" 
			},
			{
				"x": 0.6815516778,
				"y": -0.4881922729,
				"z": -0.1786479409,
				"element": "C" 
			},
			{
				"x": 0.3408559537,
				"y": 0.9046935507,
				"z": 0.2478353183,
				"element": "C" 
			},
			{
				"x": 1.1829987995,
				"y": 1.7955329668,
				"z": 0.2533391377,
				"element": "O" 
			},
			{
				"x": -1.0714063287,
				"y": 1.1788591548,
				"z": 0.6753923052,
				"element": "C" 
			},
			{
				"x": -1.4566671417,
				"y": 2.4106244708,
				"z": 1.2494693059,
				"element": "C" 
			},
			{
				"x": -0.5457423935,
				"y": 3.4092700482,
				"z": 1.5253444259,
				"element": "O" 
			},
			{
				"x": -0.1460019698,
				"y": 4.2222080959,
				"z": 0.4753403327,
				"element": "C" 
			},
			{
				"x": 0.9752040528,
				"y": 5.1143636209,
				"z": 0.9259171437,
				"element": "C" 
			},
			{
				"x": -0.6639847697,
				"y": 4.1864974694,
				"z": -0.6081850705,
				"element": "O" 
			},
			{
				"x": -2.7703268136,
				"y": 2.6380683308,
				"z": 1.6441106763,
				"element": "C" 
			},
			{
				"x": -3.7535379366,
				"y": 1.6628478188,
				"z": 1.453594855,
				"element": "C" 
			},
			{
				"x": -3.3925072406,
				"y": 0.4371369665,
				"z": 0.8953017253,
				"element": "C" 
			},
			{
				"x": -2.069371776,
				"y": 0.1949645668,
				"z": 0.5210130319,
				"element": "C" 
			},
			{
				"x": -1.7507900598,
				"y": -1.1534483319,
				"z": -0.0303144671,
				"element": "C" 
			},
			{
				"x": -2.6380296574,
				"y": -1.9815196735,
				"z": -0.2066667001,
				"element": "O" 
			},
			{
				"x": -5.1506388537,
				"y": 1.9865113375,
				"z": 1.9094822422,
				"element": "C" 
			},
			{
				"x": -6.1519671555,
				"y": 1.2307084751,
				"z": 1.399049681,
				"element": "O" 
			},
			{
				"x": -5.3895521713,
				"y": 2.8718890038,
				"z": 2.6952184584,
				"element": "O" 
			},
			{
				"x": 5.2486438278,
				"y": 1.3146816272,
				"z": -0.3405530932,
				"element": "H" 
			},
			{
				"x": 4.7305991231,
				"y": 2.4860377108,
				"z": -1.5965121135,
				"element": "H" 
			},
			{
				"x": 3.975301971,
				"y": 2.4841915524,
				"z": 0.0232830298,
				"element": "H" 
			},
			{
				"x": 3.3465112259,
				"y": -2.4361432944,
				"z": -1.0282234734,
				"element": "H" 
			},
			{
				"x": 1.5378079724,
				"y": -4.1398850793,
				"z": -1.3003456622,
				"element": "H" 
			},
			{
				"x": -0.8394218088,
				"y": -3.4770420913,
				"z": -0.8333460697,
				"element": "H" 
			},
			{
				"x": 1.1807502886,
				"y": 5.856595528,
				"z": 0.1554985214,
				"element": "H" 
			},
			{
				"x": 0.7231935282,
				"y": 5.6024582585,
				"z": 1.8709318438,
				"element": "H" 
			},
			{
				"x": 1.8617849883,
				"y": 4.4964559273,
				"z": 1.0949634721,
				"element": "H" 
			},
			{
				"x": -3.0353342549,
				"y": 3.5831250461,
				"z": 2.1038121253,
				"element": "H" 
			},
			{
				"x": -4.0932046084,
				"y": -0.382046108,
				"z": 0.7637828217,
				"element": "H" 
			},
			{
				"x": -5.8267208417,
				"y": 0.6609232276,
				"z": 0.6879640645,
				"element": "H" 
			}
		],
		 "valence_orbital": [ 
			{
				"type": "occ",
				"energy": -0.28523,
				"method": "rhf"
			},
			{
				"type": "occ",
				"energy": -0.28376,
				"method": "rhf"
			},
			{
				"type": "occ",
				"energy": -0.27812,
				"method": "rhf"
			},
			{
				"type": "occ",
				"energy": -0.27345,
				"method": "rhf"
			},
			{
				"type": "occ",
				"energy": -0.26738,
				"method": "rhf"
			},
			{
				"type": "unocc",
				"energy": -0.12355,
				"method": "rhf"
			},
			{
				"type": "unocc",
				"energy": -0.08118,
				"method": "rhf"
			},
			{
				"type": "unocc",
				"energy": -0.05605,
				"method": "rhf"
			},
			{
				"type": "unocc",
				"energy": -0.0318,
				"method": "rhf"
			},
			{
				"type": "unocc",
				"energy": -0.00274,
				"method": "rhf"
			}
		],
		"cosmo_sigma_profile": { 
			"-0.025": 0.0,
			"-0.024": 0.0,
			"-0.023": 0.0,
			"-0.022": 0.0,
			"-0.021": 0.0,
			"-0.02": 0.190277040318,
			"-0.019": 1.25336026942,
			"-0.018": 0.613547381329,
			"-0.017": 1.00272410175,
			"-0.016": 0.865166460262,
			"-0.015": 1.21475484399,
			"-0.014": 1.54364424108,
			"-0.013": 0.916228691036,
			"-0.012": 0.610316421544,
			"-0.011": 0.862450212893,
			"-0.01": 1.12459238966,
			"-0.009": 2.04097408762,
			"-0.008": 7.16310008906,
			"-0.007": 13.9889934237,
			"-0.006": 22.2818267488,
			"-0.005": 22.1031739203,
			"-0.004": 29.0233826687,
			"-0.003": 29.8602378521,
			"-0.002": 34.1286610281,
			"-0.001": 29.9854926407,
			"0.0": 23.0454006526,
			"0.001": 19.4435651193,
			"0.002": 12.8662216297,
			"0.003": 11.3614337552,
			"0.004": 11.6106819881,
			"0.005": 11.846153658,
			"0.006": 11.1771003264,
			"0.007": 12.8470103661,
			"0.008": 8.90749143221,
			"0.009": 10.2732432194,
			"0.01": 15.1903161247,
			"0.011": 14.5239574286,
			"0.012": 4.2651764507,
			"0.013": 0.191611162673,
			"0.014": 0.0,
			"0.015": 0.0,
			"0.016": 0.0,
			"0.017": 0.0,
			"0.018": 0.0,
			"0.019": 0.0,
			"0.02": 0.0,
			"0.021": 0.0,
			"0.022": 0.0,
			"0.023": 0.0,
			"0.024": 0.0,
			"0.025": 0.0
		}
	}
}
