{
	 "smiles": "ClC1=NC(Cl)=C(S1)C=O", 
	 "Tm": 313.15, 
	 "num_atms": 10, 
	 "gaussian": { 
		 "optdone": 1, 
		 "sigma_profile": "yes", 
		 "theory": "DFT", 
		 "functional": "B3LYP", 
		 "basiset": "6-31G**", 
		 "properties": { 
			 "R2extent": 2684.5388, 
			 "electric_dipole_moment_norm": 0.768219200489, 
			 "electric_quadrupole_moment_norm": 9.99479122493, 
			 "total_energy": -1601.53884339, 
			 "HOMO_LUMO_gap": 0.1704, 
			 "cosmo_polarized_energy": -6.32, 
			 "cosmo_cavitation_energy": 20.92, 
			 "cosmo_dispersion_energy": -16.25, 
			 "cosmo_repulsion_energy": 1.3, 
			 "cosmo_total_nonelectrostatic_energy": 5.96, 
			 "SMD_solvation_energy": 2.36 
		},
		"coords": [
			{
				"x": -1.2138710561,
				"y": 3.971096397,
				"z": -1.7119238558,
				"element": "Cl" 
			},
			{
				"x": -0.6142322019,
				"y": 2.4303448047,
				"z": -1.2299454632,
				"element": "C" 
			},
			{
				"x": -0.5997174192,
				"y": 2.0408521447,
				"z": 0.0118898867,
				"element": "N" 
			},
			{
				"x": -0.0722669476,
				"y": 0.788398111,
				"z": 0.0786388644,
				"element": "C" 
			},
			{
				"x": 0.0602517901,
				"y": 0.0334272251,
				"z": 1.6319710467,
				"element": "Cl" 
			},
			{
				"x": 0.3240263111,
				"y": 0.2005770875,
				"z": -1.1048639708,
				"element": "C" 
			},
			{
				"x": 0.0077543256,
				"y": 1.3162278005,
				"z": -2.4154112775,
				"element": "S" 
			},
			{
				"x": 0.9161461948,
				"y": -1.1096976723,
				"z": -1.3653944724,
				"element": "C" 
			},
			{
				"x": 1.2176216238,
				"y": -1.4938164139,
				"z": -2.4816455285,
				"element": "O" 
			},
			{
				"x": 1.0729873794,
				"y": -1.7339094843,
				"z": -0.4651152296,
				"element": "H" 
			}
		],
		 "valence_orbital": [ 
			{
				"type": "occ",
				"energy": -0.34923,
				"method": "rhf"
			},
			{
				"type": "occ",
				"energy": -0.33072,
				"method": "rhf"
			},
			{
				"type": "occ",
				"energy": -0.31871,
				"method": "rhf"
			},
			{
				"type": "occ",
				"energy": -0.27904,
				"method": "rhf"
			},
			{
				"type": "occ",
				"energy": -0.27137,
				"method": "rhf"
			},
			{
				"type": "unocc",
				"energy": -0.10097,
				"method": "rhf"
			},
			{
				"type": "unocc",
				"energy": -0.03635,
				"method": "rhf"
			},
			{
				"type": "unocc",
				"energy": -0.02694,
				"method": "rhf"
			},
			{
				"type": "unocc",
				"energy": 0.00355,
				"method": "rhf"
			},
			{
				"type": "unocc",
				"energy": 0.02452,
				"method": "rhf"
			}
		],
		"cosmo_sigma_profile": { 
			"-0.025": 0.0,
			"-0.024": 0.0,
			"-0.023": 0.0,
			"-0.022": 0.0,
			"-0.021": 0.0,
			"-0.02": 0.0,
			"-0.019": 0.0,
			"-0.018": 0.0,
			"-0.017": 0.0,
			"-0.016": 0.0,
			"-0.015": 0.0,
			"-0.014": 0.0,
			"-0.013": 0.0,
			"-0.012": 0.0,
			"-0.011": 0.0,
			"-0.01": 0.0,
			"-0.009": 0.0632465457456,
			"-0.008": 1.65410906601,
			"-0.007": 2.88374946042,
			"-0.006": 5.77002405253,
			"-0.005": 12.2276174739,
			"-0.004": 15.3614632297,
			"-0.003": 18.4931457665,
			"-0.002": 17.0314879084,
			"-0.001": 16.7449317338,
			"0.0": 17.0656855875,
			"0.001": 17.1270239331,
			"0.002": 15.5445868541,
			"0.003": 8.47417951834,
			"0.004": 4.05432394821,
			"0.005": 2.76617049678,
			"0.006": 3.4178469965,
			"0.007": 2.64866912776,
			"0.008": 1.94302077009,
			"0.009": 4.56565809443,
			"0.01": 4.3231283943,
			"0.011": 3.52025807356,
			"0.012": 1.05412485133,
			"0.013": 0.00844652291603,
			"0.014": 0.0,
			"0.015": 0.0,
			"0.016": 0.0,
			"0.017": 0.0,
			"0.018": 0.0,
			"0.019": 0.0,
			"0.02": 0.0,
			"0.021": 0.0,
			"0.022": 0.0,
			"0.023": 0.0,
			"0.024": 0.0,
			"0.025": 0.0
		}
	}
}
