{
	 "smiles": "CC1=C(OC(=N1)C1=CC=CC=C1)C(O)=O", 
	 "Tm": 518.15, 
	 "num_atms": 24, 
	 "gaussian": { 
		 "optdone": 1, 
		 "sigma_profile": "yes", 
		 "theory": "DFT", 
		 "functional": "B3LYP", 
		 "basiset": "6-31G**", 
		 "properties": { 
			 "R2extent": 3952.9272, 
			 "electric_dipole_moment_norm": 4.95677164897, 
			 "electric_quadrupole_moment_norm": 12.9928382049, 
			 "total_energy": -705.030986284, 
			 "HOMO_LUMO_gap": 0.16563, 
			 "cosmo_polarized_energy": -13.54, 
			 "cosmo_cavitation_energy": 29.47, 
			 "cosmo_dispersion_energy": -21.5, 
			 "cosmo_repulsion_energy": 1.68, 
			 "cosmo_total_nonelectrostatic_energy": 9.64, 
			 "SMD_solvation_energy": 5.16 
		},
		"coords": [
			{
				"x": -0.0241479804,
				"y": -0.7796308771,
				"z": 3.3159894374,
				"element": "C" 
			},
			{
				"x": -0.0516903348,
				"y": -0.112565057,
				"z": 1.9808666882,
				"element": "C" 
			},
			{
				"x": 0.0417666839,
				"y": 1.2223925785,
				"z": 1.6814633315,
				"element": "C" 
			},
			{
				"x": -0.0335581181,
				"y": 1.3516660554,
				"z": 0.3059545599,
				"element": "O" 
			},
			{
				"x": -0.1694903224,
				"y": 0.0769739372,
				"z": -0.1542688965,
				"element": "C" 
			},
			{
				"x": -0.184815032,
				"y": -0.8173628787,
				"z": 0.8013059397,
				"element": "N" 
			},
			{
				"x": -0.2781971572,
				"y": -0.145859198,
				"z": -1.5909832697,
				"element": "C" 
			},
			{
				"x": -0.4183809159,
				"y": -1.4614948954,
				"z": -2.0647989932,
				"element": "C" 
			},
			{
				"x": -0.524072112,
				"y": -1.700234911,
				"z": -3.4314665264,
				"element": "C" 
			},
			{
				"x": -0.4913901913,
				"y": -0.6356700805,
				"z": -4.3369523706,
				"element": "C" 
			},
			{
				"x": -0.3521444054,
				"y": 0.6731930124,
				"z": -3.8691688572,
				"element": "C" 
			},
			{
				"x": -0.2456821362,
				"y": 0.921544633,
				"z": -2.5028926053,
				"element": "C" 
			},
			{
				"x": 0.1941518842,
				"y": 2.415769787,
				"z": 2.5135654668,
				"element": "C" 
			},
			{
				"x": 0.2520325243,
				"y": 3.5994533806,
				"z": 1.8525060091,
				"element": "O" 
			},
			{
				"x": 0.265226283,
				"y": 2.3605621994,
				"z": 3.7219083824,
				"element": "O" 
			},
			{
				"x": 0.908938363,
				"y": -0.5595328277,
				"z": 3.8428637592,
				"element": "H" 
			},
			{
				"x": -0.8350702502,
				"y": -0.4129135304,
				"z": 3.9520847683,
				"element": "H" 
			},
			{
				"x": -0.1228910324,
				"y": -1.8587168518,
				"z": 3.187836021,
				"element": "H" 
			},
			{
				"x": -0.4419531896,
				"y": -2.2761199345,
				"z": -1.3492097371,
				"element": "H" 
			},
			{
				"x": -0.6322184957,
				"y": -2.7186030853,
				"z": -3.7924636203,
				"element": "H" 
			},
			{
				"x": -0.5741209764,
				"y": -0.8254414798,
				"z": -5.4029934579,
				"element": "H" 
			},
			{
				"x": -0.3264088105,
				"y": 1.5022972151,
				"z": -4.5698761123,
				"element": "H" 
			},
			{
				"x": -0.1375921746,
				"y": 1.9378428467,
				"z": -2.1396303027,
				"element": "H" 
			},
			{
				"x": 0.1793078967,
				"y": 3.4467499618,
				"z": 0.8978603858,
				"element": "H" 
			}
		],
		 "valence_orbital": [ 
			{
				"type": "occ",
				"energy": -0.30309,
				"method": "rhf"
			},
			{
				"type": "occ",
				"energy": -0.29175,
				"method": "rhf"
			},
			{
				"type": "occ",
				"energy": -0.27917,
				"method": "rhf"
			},
			{
				"type": "occ",
				"energy": -0.27002,
				"method": "rhf"
			},
			{
				"type": "occ",
				"energy": -0.23696,
				"method": "rhf"
			},
			{
				"type": "unocc",
				"energy": -0.07133,
				"method": "rhf"
			},
			{
				"type": "unocc",
				"energy": -0.02256,
				"method": "rhf"
			},
			{
				"type": "unocc",
				"energy": -0.01683,
				"method": "rhf"
			},
			{
				"type": "unocc",
				"energy": 0.04976,
				"method": "rhf"
			},
			{
				"type": "unocc",
				"energy": 0.06346,
				"method": "rhf"
			}
		],
		"cosmo_sigma_profile": { 
			"-0.025": 0.0,
			"-0.024": 0.0,
			"-0.023": 0.0,
			"-0.022": 0.0,
			"-0.021": 0.0,
			"-0.02": 0.0,
			"-0.019": 0.0,
			"-0.018": 0.0,
			"-0.017": 0.373762319353,
			"-0.016": 0.361813048997,
			"-0.015": 1.25366992039,
			"-0.014": 0.681496620049,
			"-0.013": 0.486321995654,
			"-0.012": 1.08113035368,
			"-0.011": 0.880843137402,
			"-0.01": 1.28012121417,
			"-0.009": 0.714374848417,
			"-0.008": 1.32899600356,
			"-0.007": 4.62927352607,
			"-0.006": 12.0367687581,
			"-0.005": 17.2707677038,
			"-0.004": 17.3024943543,
			"-0.003": 20.1752288694,
			"-0.002": 22.0361187472,
			"-0.001": 23.7973796415,
			"0.0": 14.8819458484,
			"0.001": 14.5113845396,
			"0.002": 13.8630975286,
			"0.003": 14.8072100146,
			"0.004": 14.2432958395,
			"0.005": 4.99246265056,
			"0.006": 3.2512093601,
			"0.007": 3.44049475374,
			"0.008": 4.27004331928,
			"0.009": 4.34975172932,
			"0.01": 6.02684582665,
			"0.011": 5.7452962757,
			"0.012": 4.7732521828,
			"0.013": 1.72126651543,
			"0.014": 0.0256408415136,
			"0.015": 0.0,
			"0.016": 0.0,
			"0.017": 0.0,
			"0.018": 0.0,
			"0.019": 0.0,
			"0.02": 0.0,
			"0.021": 0.0,
			"0.022": 0.0,
			"0.023": 0.0,
			"0.024": 0.0,
			"0.025": 0.0
		}
	}
}
