{
	 "smiles": "CCN(CC)C(=O)C1=CC=C(C=C1)C(O)=O", 
	 "Tm": 431.15, 
	 "num_atms": 31, 
	 "gaussian": { 
		 "optdone": 1, 
		 "sigma_profile": "yes", 
		 "theory": "DFT", 
		 "functional": "B3LYP", 
		 "basiset": "6-31G**", 
		 "properties": { 
			 "R2extent": 5067.5146, 
			 "electric_dipole_moment_norm": 5.20944051986, 
			 "electric_quadrupole_moment_norm": 25.7910960609, 
			 "total_energy": -746.767862396, 
			 "HOMO_LUMO_gap": 0.18281, 
			 "cosmo_polarized_energy": -19.57, 
			 "cosmo_cavitation_energy": 34.29, 
			 "cosmo_dispersion_energy": -24.05, 
			 "cosmo_repulsion_energy": 1.87, 
			 "cosmo_total_nonelectrostatic_energy": 12.12, 
			 "SMD_solvation_energy": 7.43 
		},
		"coords": [
			{
				"x": 1.6148304632,
				"y": -2.3602801191,
				"z": -3.6601306586,
				"element": "C" 
			},
			{
				"x": 2.3301802274,
				"y": -1.3490939277,
				"z": -2.7620479944,
				"element": "C" 
			},
			{
				"x": 1.5504117678,
				"y": -0.9824806817,
				"z": -1.566187346,
				"element": "N" 
			},
			{
				"x": 2.113472212,
				"y": -1.3521007516,
				"z": -0.2630717868,
				"element": "C" 
			},
			{
				"x": 2.0520227227,
				"y": -2.8528245863,
				"z": 0.0330961104,
				"element": "C" 
			},
			{
				"x": 0.5583734459,
				"y": -0.0515798484,
				"z": -1.7585249466,
				"element": "C" 
			},
			{
				"x": 0.3587931984,
				"y": 0.4612724306,
				"z": -2.8600102965,
				"element": "O" 
			},
			{
				"x": -0.3371154374,
				"y": 0.3367246141,
				"z": -0.6065296359,
				"element": "C" 
			},
			{
				"x": -0.6794490493,
				"y": 1.6904584376,
				"z": -0.4892621883,
				"element": "C" 
			},
			{
				"x": -1.5612340079,
				"y": 2.1122549305,
				"z": 0.5007566541,
				"element": "C" 
			},
			{
				"x": -2.144699267,
				"y": 1.1829278322,
				"z": 1.37550951,
				"element": "C" 
			},
			{
				"x": -1.8465368758,
				"y": -0.176800544,
				"z": 1.222133892,
				"element": "C" 
			},
			{
				"x": -0.9439342253,
				"y": -0.5947783505,
				"z": 0.2488001732,
				"element": "C" 
			},
			{
				"x": -3.1167211082,
				"y": 1.562571208,
				"z": 2.4533997102,
				"element": "C" 
			},
			{
				"x": -3.1171758254,
				"y": 2.8631651069,
				"z": 2.8496161228,
				"element": "O" 
			},
			{
				"x": -3.8738996405,
				"y": 0.7744344492,
				"z": 2.969304174,
				"element": "O" 
			},
			{
				"x": 0.6734139696,
				"y": -1.9408355084,
				"z": -4.0217509714,
				"element": "H" 
			},
			{
				"x": 1.4027555061,
				"y": -3.2911200919,
				"z": -3.1249388744,
				"element": "H" 
			},
			{
				"x": 2.2383259174,
				"y": -2.5984373386,
				"z": -4.528426978,
				"element": "H" 
			},
			{
				"x": 3.2857594725,
				"y": -1.7538297925,
				"z": -2.4154280752,
				"element": "H" 
			},
			{
				"x": 2.5340529992,
				"y": -0.4360041201,
				"z": -3.3294395388,
				"element": "H" 
			},
			{
				"x": 3.1604837227,
				"y": -1.0184330287,
				"z": -0.2352366842,
				"element": "H" 
			},
			{
				"x": 1.5903049615,
				"y": -0.7940801674,
				"z": 0.5137737009,
				"element": "H" 
			},
			{
				"x": 2.5041449187,
				"y": -3.0610159046,
				"z": 1.0082945775,
				"element": "H" 
			},
			{
				"x": 2.597598659,
				"y": -3.4330493544,
				"z": -0.717380173,
				"element": "H" 
			},
			{
				"x": 1.0194248507,
				"y": -3.2146217032,
				"z": 0.0498238836,
				"element": "H" 
			},
			{
				"x": -0.2599540666,
				"y": 2.3980107532,
				"z": -1.1961659514,
				"element": "H" 
			},
			{
				"x": -1.8248298806,
				"y": 3.1663752358,
				"z": 0.5486180214,
				"element": "H" 
			},
			{
				"x": -2.3372063011,
				"y": -0.8894098592,
				"z": 1.8762184217,
				"element": "H" 
			},
			{
				"x": -0.7291045927,
				"y": -1.6525650885,
				"z": 0.1370174646,
				"element": "H" 
			},
			{
				"x": -2.3655887372,
				"y": 3.332845769,
				"z": 2.462769683,
				"element": "H" 
			}
		],
		 "valence_orbital": [ 
			{
				"type": "occ",
				"energy": -0.28137,
				"method": "rhf"
			},
			{
				"type": "occ",
				"energy": -0.27642,
				"method": "rhf"
			},
			{
				"type": "occ",
				"energy": -0.27273,
				"method": "rhf"
			},
			{
				"type": "occ",
				"energy": -0.25059,
				"method": "rhf"
			},
			{
				"type": "occ",
				"energy": -0.24704,
				"method": "rhf"
			},
			{
				"type": "unocc",
				"energy": -0.06423,
				"method": "rhf"
			},
			{
				"type": "unocc",
				"energy": -0.02653,
				"method": "rhf"
			},
			{
				"type": "unocc",
				"energy": 0.015,
				"method": "rhf"
			},
			{
				"type": "unocc",
				"energy": 0.05255,
				"method": "rhf"
			},
			{
				"type": "unocc",
				"energy": 0.06171,
				"method": "rhf"
			}
		],
		"cosmo_sigma_profile": { 
			"-0.025": 0.0,
			"-0.024": 0.0,
			"-0.023": 0.0,
			"-0.022": 0.0,
			"-0.021": 0.0,
			"-0.02": 0.0,
			"-0.019": 0.191205724721,
			"-0.018": 1.23444546171,
			"-0.017": 0.713877974852,
			"-0.016": 0.963101081002,
			"-0.015": 1.0773486851,
			"-0.014": 1.11262243755,
			"-0.013": 0.987678770344,
			"-0.012": 1.16861024432,
			"-0.011": 1.06336045625,
			"-0.01": 1.34424733952,
			"-0.009": 1.25279977624,
			"-0.008": 1.95103114128,
			"-0.007": 4.22077551184,
			"-0.006": 7.96542459353,
			"-0.005": 15.4747137753,
			"-0.004": 21.0194254638,
			"-0.003": 29.5034990801,
			"-0.002": 30.808493576,
			"-0.001": 24.9359938238,
			"0.0": 23.6107264882,
			"0.001": 22.135509727,
			"0.002": 16.6226056845,
			"0.003": 7.63403627655,
			"0.004": 4.68686317507,
			"0.005": 3.89459436825,
			"0.006": 4.02998251832,
			"0.007": 4.03859300819,
			"0.008": 5.10226735157,
			"0.009": 5.00421167585,
			"0.01": 5.99354994635,
			"0.011": 7.02233264351,
			"0.012": 6.25835962702,
			"0.013": 4.33447896753,
			"0.014": 3.35704698086,
			"0.015": 0.340603773073,
			"0.016": 0.0,
			"0.017": 0.0,
			"0.018": 0.0,
			"0.019": 0.0,
			"0.02": 0.0,
			"0.021": 0.0,
			"0.022": 0.0,
			"0.023": 0.0,
			"0.024": 0.0,
			"0.025": 0.0
		}
	}
}
