{
	 "smiles": "COC1=C(C=C(C=C1)C(O)=O)[N+]([O-])=O", 
	 "Tm": 465.15, 
	 "num_atms": 21, 
	 "gaussian": { 
		 "optdone": 1, 
		 "sigma_profile": "yes", 
		 "theory": "DFT", 
		 "functional": "B3LYP", 
		 "basiset": "6-31G**", 
		 "properties": { 
			 "R2extent": 3382.0905, 
			 "electric_dipole_moment_norm": 4.7980777203, 
			 "electric_quadrupole_moment_norm": 26.4615502167, 
			 "total_energy": -739.825419113, 
			 "HOMO_LUMO_gap": 0.16912, 
			 "cosmo_polarized_energy": -20.22, 
			 "cosmo_cavitation_energy": 26.74, 
			 "cosmo_dispersion_energy": -19.56, 
			 "cosmo_repulsion_energy": 1.53, 
			 "cosmo_total_nonelectrostatic_energy": 8.71, 
			 "SMD_solvation_energy": 8.94 
		},
		"coords": [
			{
				"x": 3.5866035774,
				"y": -1.4680613375,
				"z": 0.6779663195,
				"element": "C" 
			},
			{
				"x": 2.7412474066,
				"y": -0.3916946299,
				"z": 1.0828074604,
				"element": "O" 
			},
			{
				"x": 1.739430322,
				"y": -0.0062852838,
				"z": 0.2800749583,
				"element": "C" 
			},
			{
				"x": 0.8794384364,
				"y": 1.037566688,
				"z": 0.7043920911,
				"element": "C" 
			},
			{
				"x": -0.2067072686,
				"y": 1.4327556973,
				"z": -0.0721415249,
				"element": "C" 
			},
			{
				"x": -0.4698898926,
				"y": 0.8275289324,
				"z": -1.300288023,
				"element": "C" 
			},
			{
				"x": 0.3955745255,
				"y": -0.1844532113,
				"z": -1.7416669799,
				"element": "C" 
			},
			{
				"x": 1.4656487253,
				"y": -0.6035535135,
				"z": -0.9662246311,
				"element": "C" 
			},
			{
				"x": -1.5994328801,
				"y": 1.2227599685,
				"z": -2.2007682195,
				"element": "C" 
			},
			{
				"x": -2.5980938185,
				"y": 1.9651241283,
				"z": -1.6591084696,
				"element": "O" 
			},
			{
				"x": -1.6446050732,
				"y": 0.9060011649,
				"z": -3.3667441853,
				"element": "O" 
			},
			{
				"x": 1.0842187336,
				"y": 1.766987208,
				"z": 1.9647271183,
				"element": "N" 
			},
			{
				"x": 2.198377685,
				"y": 1.7556472507,
				"z": 2.4761861603,
				"element": "O" 
			},
			{
				"x": 0.108240457,
				"y": 2.3706577693,
				"z": 2.4204933748,
				"element": "O" 
			},
			{
				"x": 4.1226627573,
				"y": -1.2268655229,
				"z": -0.2466180985,
				"element": "H" 
			},
			{
				"x": 3.0174582528,
				"y": -2.3951194477,
				"z": 0.5454028806,
				"element": "H" 
			},
			{
				"x": 4.3019887532,
				"y": -1.591852772,
				"z": 1.4904568441,
				"element": "H" 
			},
			{
				"x": -0.8052911685,
				"y": 2.2461535887,
				"z": 0.3226542174,
				"element": "H" 
			},
			{
				"x": 0.2038686124,
				"y": -0.6381246738,
				"z": -2.7081109204,
				"element": "H" 
			},
			{
				"x": 2.1001906409,
				"y": -1.4019720765,
				"z": -1.3287841018,
				"element": "H" 
			},
			{
				"x": -2.5144287841,
				"y": 2.0123000728,
				"z": -0.6969062709,
				"element": "H" 
			}
		],
		 "valence_orbital": [ 
			{
				"type": "occ",
				"energy": -0.31193,
				"method": "rhf"
			},
			{
				"type": "occ",
				"energy": -0.30244,
				"method": "rhf"
			},
			{
				"type": "occ",
				"energy": -0.28914,
				"method": "rhf"
			},
			{
				"type": "occ",
				"energy": -0.28359,
				"method": "rhf"
			},
			{
				"type": "occ",
				"energy": -0.26345,
				"method": "rhf"
			},
			{
				"type": "unocc",
				"energy": -0.09433,
				"method": "rhf"
			},
			{
				"type": "unocc",
				"energy": -0.06081,
				"method": "rhf"
			},
			{
				"type": "unocc",
				"energy": -0.02233,
				"method": "rhf"
			},
			{
				"type": "unocc",
				"energy": 0.03836,
				"method": "rhf"
			},
			{
				"type": "unocc",
				"energy": 0.04986,
				"method": "rhf"
			}
		],
		"cosmo_sigma_profile": { 
			"-0.025": 0.0,
			"-0.024": 0.0,
			"-0.023": 0.0,
			"-0.022": 0.0,
			"-0.021": 0.0,
			"-0.02": 0.234725033517,
			"-0.019": 0.931063498572,
			"-0.018": 0.986733408026,
			"-0.017": 1.02439445555,
			"-0.016": 0.98917111087,
			"-0.015": 0.880245561714,
			"-0.014": 1.04836463271,
			"-0.013": 0.805417268368,
			"-0.012": 1.3553940298,
			"-0.011": 0.90745479571,
			"-0.01": 0.786636375777,
			"-0.009": 1.96357966223,
			"-0.008": 5.53770236717,
			"-0.007": 13.3976077195,
			"-0.006": 15.4370763969,
			"-0.005": 12.807254303,
			"-0.004": 14.6989750259,
			"-0.003": 10.9036677084,
			"-0.002": 14.2181721688,
			"-0.001": 14.2457168476,
			"0.0": 13.1328343412,
			"0.001": 10.0087415691,
			"0.002": 5.32407410738,
			"0.003": 4.74089400818,
			"0.004": 5.47555428397,
			"0.005": 4.71658198311,
			"0.006": 6.01499515307,
			"0.007": 9.20916081614,
			"0.008": 12.0141098413,
			"0.009": 9.59777913511,
			"0.01": 9.27857023742,
			"0.011": 6.54728161989,
			"0.012": 4.01397451518,
			"0.013": 1.11576132958,
			"0.014": 0.00273112527551,
			"0.015": 0.0,
			"0.016": 0.0,
			"0.017": 0.0,
			"0.018": 0.0,
			"0.019": 0.0,
			"0.02": 0.0,
			"0.021": 0.0,
			"0.022": 0.0,
			"0.023": 0.0,
			"0.024": 0.0,
			"0.025": 0.0
		}
	}
}
