{
	 "smiles": "COC1=CC=C(C=C1)C(CNC(=O)OCC(F)(F)F)N1CCCC1", 
	 "Tm": 329.15, 
	 "num_atms": 45, 
	 "gaussian": { 
		 "optdone": 1, 
		 "sigma_profile": "yes", 
		 "theory": "DFT", 
		 "functional": "B3LYP", 
		 "basiset": "6-31G**", 
		 "properties": { 
			 "R2extent": 11048.5716, 
			 "electric_dipole_moment_norm": 3.10934568197, 
			 "electric_quadrupole_moment_norm": 11.3349202167, 
			 "total_energy": -1257.0611516, 
			 "HOMO_LUMO_gap": 0.2072, 
			 "cosmo_polarized_energy": -14.79, 
			 "cosmo_cavitation_energy": 47.9, 
			 "cosmo_dispersion_energy": -31.66, 
			 "cosmo_repulsion_energy": 2.41, 
			 "cosmo_total_nonelectrostatic_energy": 18.65, 
			 "SMD_solvation_energy": 7.59 
		},
		"coords": [
			{
				"x": 3.4582227709,
				"y": -2.256995561,
				"z": -3.8473459295,
				"element": "C" 
			},
			{
				"x": 2.0634189844,
				"y": -2.0839273029,
				"z": -3.661631331,
				"element": "O" 
			},
			{
				"x": 1.6338483092,
				"y": -1.5057951819,
				"z": -2.5020738874,
				"element": "C" 
			},
			{
				"x": 0.2439157223,
				"y": -1.3821401159,
				"z": -2.3594784203,
				"element": "C" 
			},
			{
				"x": -0.2970659962,
				"y": -0.8036902231,
				"z": -1.2185071212,
				"element": "C" 
			},
			{
				"x": 0.5254742921,
				"y": -0.3350980935,
				"z": -0.1774029332,
				"element": "C" 
			},
			{
				"x": 1.9077560464,
				"y": -0.4790890033,
				"z": -0.3344502273,
				"element": "C" 
			},
			{
				"x": 2.4717777617,
				"y": -1.0526533676,
				"z": -1.4779870122,
				"element": "C" 
			},
			{
				"x": -0.0246358584,
				"y": 0.350659004,
				"z": 1.0719032468,
				"element": "C" 
			},
			{
				"x": -1.3052700544,
				"y": -0.297004102,
				"z": 1.6467942093,
				"element": "C" 
			},
			{
				"x": -1.174330163,
				"y": -1.7228556611,
				"z": 1.8925583772,
				"element": "N" 
			},
			{
				"x": -1.8946951806,
				"y": -2.6460157946,
				"z": 1.2112416105,
				"element": "C" 
			},
			{
				"x": -2.7836636117,
				"y": -2.4268649539,
				"z": 0.4089007722,
				"element": "O" 
			},
			{
				"x": -1.4918881573,
				"y": -3.9081894003,
				"z": 1.5928075864,
				"element": "O" 
			},
			{
				"x": -2.0770810861,
				"y": -4.9826761656,
				"z": 0.873569873,
				"element": "C" 
			},
			{
				"x": -1.0858827553,
				"y": -5.5230090847,
				"z": -0.1435649518,
				"element": "C" 
			},
			{
				"x": 0.0282898272,
				"y": -5.9999494552,
				"z": 0.4464656391,
				"element": "F" 
			},
			{
				"x": -1.6564261402,
				"y": -6.5385862868,
				"z": -0.8289444577,
				"element": "F" 
			},
			{
				"x": -0.7108146638,
				"y": -4.5782559371,
				"z": -1.02336261,
				"element": "F" 
			},
			{
				"x": -0.2672041111,
				"y": 1.797836589,
				"z": 0.9538381109,
				"element": "N" 
			},
			{
				"x": 0.9282803763,
				"y": 2.6398456236,
				"z": 0.8610704866,
				"element": "C" 
			},
			{
				"x": 0.3605071777,
				"y": 4.0524362724,
				"z": 0.6145954707,
				"element": "C" 
			},
			{
				"x": -1.0452626046,
				"y": 3.8025071579,
				"z": -0.0030617042,
				"element": "C" 
			},
			{
				"x": -1.1446777657,
				"y": 2.2700467346,
				"z": -0.1232886789,
				"element": "C" 
			},
			{
				"x": 3.5765472402,
				"y": -2.7341081062,
				"z": -4.8215370981,
				"element": "H" 
			},
			{
				"x": 3.9903105411,
				"y": -1.2965176439,
				"z": -3.850131771,
				"element": "H" 
			},
			{
				"x": 3.8934850482,
				"y": -2.9039426045,
				"z": -3.0745047473,
				"element": "H" 
			},
			{
				"x": -0.393119244,
				"y": -1.7563920143,
				"z": -3.1541090658,
				"element": "H" 
			},
			{
				"x": -1.3774184873,
				"y": -0.753117103,
				"z": -1.1284858148,
				"element": "H" 
			},
			{
				"x": 2.5718786956,
				"y": -0.1436596216,
				"z": 0.4592948361,
				"element": "H" 
			},
			{
				"x": 3.5489085293,
				"y": -1.1456890813,
				"z": -1.5518677944,
				"element": "H" 
			},
			{
				"x": 0.7484770362,
				"y": 0.2566670926,
				"z": 1.8483015368,
				"element": "H" 
			},
			{
				"x": -2.1519024674,
				"y": -0.181167812,
				"z": 0.9689221644,
				"element": "H" 
			},
			{
				"x": -1.554414545,
				"y": 0.2291026882,
				"z": 2.5745294634,
				"element": "H" 
			},
			{
				"x": -0.4224155593,
				"y": -2.0674480901,
				"z": 2.4713555843,
				"element": "H" 
			},
			{
				"x": -2.9763926647,
				"y": -4.6515658988,
				"z": 0.3509212653,
				"element": "H" 
			},
			{
				"x": -2.3158994037,
				"y": -5.7765647563,
				"z": 1.5845991144,
				"element": "H" 
			},
			{
				"x": 1.582400525,
				"y": 2.3422527802,
				"z": 0.0216257342,
				"element": "H" 
			},
			{
				"x": 1.5184414078,
				"y": 2.5659220259,
				"z": 1.7821202766,
				"element": "H" 
			},
			{
				"x": 1.0110148252,
				"y": 4.6315373379,
				"z": -0.0467982006,
				"element": "H" 
			},
			{
				"x": 0.274597883,
				"y": 4.6052066123,
				"z": 1.5541324802,
				"element": "H" 
			},
			{
				"x": -1.1728683506,
				"y": 4.2892914154,
				"z": -0.9739505925,
				"element": "H" 
			},
			{
				"x": -1.8263748522,
				"y": 4.1835640333,
				"z": 0.6606309829,
				"element": "H" 
			},
			{
				"x": -0.7967883848,
				"y": 1.9417507281,
				"z": -1.1183629605,
				"element": "H" 
			},
			{
				"x": -2.1676608923,
				"y": 1.9030423273,
				"z": 0.0071684884,
				"element": "H" 
			}
		],
		 "valence_orbital": [ 
			{
				"type": "occ",
				"energy": -0.2827,
				"method": "rhf"
			},
			{
				"type": "occ",
				"energy": -0.25961,
				"method": "rhf"
			},
			{
				"type": "occ",
				"energy": -0.24596,
				"method": "rhf"
			},
			{
				"type": "occ",
				"energy": -0.21827,
				"method": "rhf"
			},
			{
				"type": "occ",
				"energy": -0.2063,
				"method": "rhf"
			},
			{
				"type": "unocc",
				"energy": 0.0009,
				"method": "rhf"
			},
			{
				"type": "unocc",
				"energy": 0.01229,
				"method": "rhf"
			},
			{
				"type": "unocc",
				"energy": 0.04923,
				"method": "rhf"
			},
			{
				"type": "unocc",
				"energy": 0.07987,
				"method": "rhf"
			},
			{
				"type": "unocc",
				"energy": 0.08599,
				"method": "rhf"
			}
		],
		"cosmo_sigma_profile": { 
			"-0.025": 0.0,
			"-0.024": 0.0,
			"-0.023": 0.0,
			"-0.022": 0.0,
			"-0.021": 0.0,
			"-0.02": 0.0,
			"-0.019": 0.0,
			"-0.018": 0.0,
			"-0.017": 0.0,
			"-0.016": 0.0,
			"-0.015": 0.234497013215,
			"-0.014": 1.19742449703,
			"-0.013": 0.516956215003,
			"-0.012": 1.43541277138,
			"-0.011": 1.16283095524,
			"-0.01": 0.984911283463,
			"-0.009": 2.7936764779,
			"-0.008": 3.99407627133,
			"-0.007": 4.69812172759,
			"-0.006": 11.4563312716,
			"-0.005": 24.260566091,
			"-0.004": 25.0195184181,
			"-0.003": 31.9529580385,
			"-0.002": 30.5854189647,
			"-0.001": 36.0589976554,
			"0.0": 34.6215281165,
			"0.001": 29.5598847785,
			"0.002": 29.2770468466,
			"0.003": 40.1113251071,
			"0.004": 18.5218085918,
			"0.005": 14.8407275474,
			"0.006": 10.635581137,
			"0.007": 3.49992974814,
			"0.008": 3.98109568943,
			"0.009": 2.97086299609,
			"0.01": 3.28686812276,
			"0.011": 3.1985906,
			"0.012": 3.27449606041,
			"0.013": 2.05585187778,
			"0.014": 0.204135406023,
			"0.015": 0.0,
			"0.016": 0.0,
			"0.017": 0.0,
			"0.018": 0.0,
			"0.019": 0.0,
			"0.02": 0.0,
			"0.021": 0.0,
			"0.022": 0.0,
			"0.023": 0.0,
			"0.024": 0.0,
			"0.025": 0.0
		}
	}
}
