{
	 "smiles": "NS(=O)(=O)C1=CC2=C(NCNS2(=O)=O)C=C1Cl", 
	 "Tm": 540.15, 
	 "num_atms": 25, 
	 "gaussian": { 
		 "optdone": 1, 
		 "sigma_profile": "yes", 
		 "theory": "DFT", 
		 "functional": "B3LYP", 
		 "basiset": "6-31G**", 
		 "properties": { 
			 "R2extent": 5565.4767, 
			 "electric_dipole_moment_norm": 8.391034556, 
			 "electric_quadrupole_moment_norm": 26.9346231362, 
			 "total_energy": -1993.12941587, 
			 "HOMO_LUMO_gap": 0.18881, 
			 "cosmo_polarized_energy": -32.41, 
			 "cosmo_cavitation_energy": 33.11, 
			 "cosmo_dispersion_energy": -25.74, 
			 "cosmo_repulsion_energy": 1.89, 
			 "cosmo_total_nonelectrostatic_energy": 9.26, 
			 "SMD_solvation_energy": 2.34 
		},
		"coords": [
			{
				"x": 1.6198980034,
				"y": -3.6683254583,
				"z": 0.0301588876,
				"element": "N" 
			},
			{
				"x": 0.2653495563,
				"y": -2.9117490053,
				"z": 0.6946847868,
				"element": "S" 
			},
			{
				"x": -0.8842131384,
				"y": -3.2951533885,
				"z": -0.1285192649,
				"element": "O" 
			},
			{
				"x": 0.2833791887,
				"y": -3.1224698607,
				"z": 2.1415796085,
				"element": "O" 
			},
			{
				"x": 0.5616134908,
				"y": -1.1707264522,
				"z": 0.3640780619,
				"element": "C" 
			},
			{
				"x": -0.378860767,
				"y": -0.5066998773,
				"z": -0.4195600655,
				"element": "C" 
			},
			{
				"x": -0.2582448856,
				"y": 0.8534786878,
				"z": -0.685485222,
				"element": "C" 
			},
			{
				"x": 0.8361770406,
				"y": 1.6000920221,
				"z": -0.1840224867,
				"element": "C" 
			},
			{
				"x": 1.0285537023,
				"y": 2.9255920216,
				"z": -0.4961586338,
				"element": "N" 
			},
			{
				"x": -0.0118966412,
				"y": 3.7367178665,
				"z": -1.1278819377,
				"element": "C" 
			},
			{
				"x": -0.6653696071,
				"y": 3.0218014987,
				"z": -2.2116343899,
				"element": "N" 
			},
			{
				"x": -1.5221687026,
				"y": 1.6638637328,
				"z": -1.6562248989,
				"element": "S" 
			},
			{
				"x": -1.8370251704,
				"y": 0.8464494826,
				"z": -2.8239595437,
				"element": "O" 
			},
			{
				"x": -2.5622702633,
				"y": 2.1667330938,
				"z": -0.7621560228,
				"element": "O" 
			},
			{
				"x": 1.7858635856,
				"y": 0.9158853948,
				"z": 0.6021831034,
				"element": "C" 
			},
			{
				"x": 1.6453807143,
				"y": -0.4354060649,
				"z": 0.8784210031,
				"element": "C" 
			},
			{
				"x": 2.8807742102,
				"y": -1.1821300025,
				"z": 1.862695765,
				"element": "Cl" 
			},
			{
				"x": 1.3175873353,
				"y": -4.3204664195,
				"z": -0.6884977176,
				"element": "H" 
			},
			{
				"x": 2.1592951162,
				"y": -4.1243976108,
				"z": 0.7603064797,
				"element": "H" 
			},
			{
				"x": -1.2092382134,
				"y": -1.0708795921,
				"z": -0.8310513255,
				"element": "H" 
			},
			{
				"x": 1.7502926483,
				"y": 3.4146889142,
				"z": 0.012715857,
				"element": "H" 
			},
			{
				"x": -0.7963251932,
				"y": 4.0284360206,
				"z": -0.4192046248,
				"element": "H" 
			},
			{
				"x": 0.451623785,
				"y": 4.6425554641,
				"z": -1.52609499,
				"element": "H" 
			},
			{
				"x": -0.0319231645,
				"y": 2.7400110882,
				"z": -2.9584370851,
				"element": "H" 
			},
			{
				"x": 2.6428473698,
				"y": 1.4511984445,
				"z": 0.997264656,
				"element": "H" 
			}
		],
		 "valence_orbital": [ 
			{
				"type": "occ",
				"energy": -0.30806,
				"method": "rhf"
			},
			{
				"type": "occ",
				"energy": -0.30431,
				"method": "rhf"
			},
			{
				"type": "occ",
				"energy": -0.29919,
				"method": "rhf"
			},
			{
				"type": "occ",
				"energy": -0.27677,
				"method": "rhf"
			},
			{
				"type": "occ",
				"energy": -0.24532,
				"method": "rhf"
			},
			{
				"type": "unocc",
				"energy": -0.05651,
				"method": "rhf"
			},
			{
				"type": "unocc",
				"energy": -0.04356,
				"method": "rhf"
			},
			{
				"type": "unocc",
				"energy": -0.00083,
				"method": "rhf"
			},
			{
				"type": "unocc",
				"energy": 0.03886,
				"method": "rhf"
			},
			{
				"type": "unocc",
				"energy": 0.04783,
				"method": "rhf"
			}
		],
		"cosmo_sigma_profile": { 
			"-0.025": 0.0,
			"-0.024": 0.0,
			"-0.023": 0.0,
			"-0.022": 0.0,
			"-0.021": 0.0,
			"-0.02": 0.0,
			"-0.019": 0.0,
			"-0.018": 0.0,
			"-0.017": 0.0,
			"-0.016": 1.47503409757,
			"-0.015": 5.64077381482,
			"-0.014": 4.82421572449,
			"-0.013": 5.32720838554,
			"-0.012": 5.82449512109,
			"-0.011": 4.65465447955,
			"-0.01": 5.97132395317,
			"-0.009": 6.56869966273,
			"-0.008": 7.23379401622,
			"-0.007": 7.43588796915,
			"-0.006": 9.88969427735,
			"-0.005": 8.5999250869,
			"-0.004": 8.65669013809,
			"-0.003": 11.5208974821,
			"-0.002": 10.1276117944,
			"-0.001": 17.5535205353,
			"0.0": 20.7267543615,
			"0.001": 12.5658594228,
			"0.002": 11.4126085031,
			"0.003": 11.8099039595,
			"0.004": 9.54773399803,
			"0.005": 6.68192330668,
			"0.006": 6.93254625486,
			"0.007": 8.9333014387,
			"0.008": 8.21565240805,
			"0.009": 11.2557918851,
			"0.01": 21.3161517414,
			"0.011": 14.8996562367,
			"0.012": 0.64028722416,
			"0.013": 0.0,
			"0.014": 0.0,
			"0.015": 0.0,
			"0.016": 0.0,
			"0.017": 0.0,
			"0.018": 0.0,
			"0.019": 0.0,
			"0.02": 0.0,
			"0.021": 0.0,
			"0.022": 0.0,
			"0.023": 0.0,
			"0.024": 0.0,
			"0.025": 0.0
		}
	}
}
