{
	 "smiles": "NC(=O)C(O)=O", 
	 "Tm": 483.15, 
	 "num_atms": 9, 
	 "gaussian": { 
		 "optdone": 1, 
		 "sigma_profile": "yes", 
		 "theory": "DFT", 
		 "functional": "B3LYP", 
		 "basiset": "6-31G**", 
		 "properties": { 
			 "R2extent": 879.6685, 
			 "electric_dipole_moment_norm": 4.96981016338, 
			 "electric_quadrupole_moment_norm": 8.58265024745, 
			 "total_energy": -358.457897369, 
			 "HOMO_LUMO_gap": 0.21397, 
			 "cosmo_polarized_energy": -17.54, 
			 "cosmo_cavitation_energy": 14.18, 
			 "cosmo_dispersion_energy": -10.63, 
			 "cosmo_repulsion_energy": 0.96, 
			 "cosmo_total_nonelectrostatic_energy": 4.51, 
			 "SMD_solvation_energy": 5.13 
		},
		"coords": [
			{
				"x": -2.310645243,
				"y": 1.5843102582,
				"z": -1.4572608436,
				"element": "N" 
			},
			{
				"x": -1.9403926144,
				"y": 1.0504318346,
				"z": -0.2635944982,
				"element": "C" 
			},
			{
				"x": -2.4868325882,
				"y": 1.2608916736,
				"z": 0.8012209083,
				"element": "O" 
			},
			{
				"x": -0.7175262103,
				"y": 0.1072194354,
				"z": -0.3355604949,
				"element": "C" 
			},
			{
				"x": -0.2330033784,
				"y": -0.0138921673,
				"z": -1.6001212511,
				"element": "O" 
			},
			{
				"x": -0.2478516084,
				"y": -0.4554412775,
				"z": 0.6175462512,
				"element": "O" 
			},
			{
				"x": -1.8152263273,
				"y": 1.3704056912,
				"z": -2.3075426738,
				"element": "H" 
			},
			{
				"x": -3.1027023346,
				"y": 2.2086752548,
				"z": -1.4745397086,
				"element": "H" 
			},
			{
				"x": 0.5266803046,
				"y": -0.6188007029,
				"z": -1.5521476892,
				"element": "H" 
			}
		],
		 "valence_orbital": [ 
			{
				"type": "occ",
				"energy": -0.40578,
				"method": "rhf"
			},
			{
				"type": "occ",
				"energy": -0.34124,
				"method": "rhf"
			},
			{
				"type": "occ",
				"energy": -0.30364,
				"method": "rhf"
			},
			{
				"type": "occ",
				"energy": -0.28423,
				"method": "rhf"
			},
			{
				"type": "occ",
				"energy": -0.26776,
				"method": "rhf"
			},
			{
				"type": "unocc",
				"energy": -0.05379,
				"method": "rhf"
			},
			{
				"type": "unocc",
				"energy": 0.05635,
				"method": "rhf"
			},
			{
				"type": "unocc",
				"energy": 0.08412,
				"method": "rhf"
			},
			{
				"type": "unocc",
				"energy": 0.08825,
				"method": "rhf"
			},
			{
				"type": "unocc",
				"energy": 0.12504,
				"method": "rhf"
			}
		],
		"cosmo_sigma_profile": { 
			"-0.025": 0.0,
			"-0.024": 0.0,
			"-0.023": 0.0,
			"-0.022": 0.0,
			"-0.021": 0.0,
			"-0.02": 0.16426208436,
			"-0.019": 0.843445934003,
			"-0.018": 1.09854066964,
			"-0.017": 0.943774228597,
			"-0.016": 0.836666234873,
			"-0.015": 1.5962298279,
			"-0.014": 2.51039487982,
			"-0.013": 2.85651149183,
			"-0.012": 3.84843018947,
			"-0.011": 2.43294846923,
			"-0.01": 2.19076893382,
			"-0.009": 2.43122876065,
			"-0.008": 1.94723269962,
			"-0.007": 2.75552721527,
			"-0.006": 3.80965199303,
			"-0.005": 5.13053289411,
			"-0.004": 4.38137318046,
			"-0.003": 5.37112453433,
			"-0.002": 5.20224840835,
			"-0.001": 4.13394576467,
			"0.0": 4.41294479006,
			"0.001": 4.38963789928,
			"0.002": 4.64250016308,
			"0.003": 4.42492234192,
			"0.004": 3.12063500988,
			"0.005": 2.23158114973,
			"0.006": 2.83507392451,
			"0.007": 1.47756802934,
			"0.008": 2.98498182491,
			"0.009": 3.56989918071,
			"0.01": 6.17521975606,
			"0.011": 5.22749040322,
			"0.012": 6.61985410878,
			"0.013": 4.21992872465,
			"0.014": 1.62813906833,
			"0.015": 0.0663669135337,
			"0.016": 0.0,
			"0.017": 0.0,
			"0.018": 0.0,
			"0.019": 0.0,
			"0.02": 0.0,
			"0.021": 0.0,
			"0.022": 0.0,
			"0.023": 0.0,
			"0.024": 0.0,
			"0.025": 0.0
		}
	}
}
