{
	 "smiles": "OC(=O)C1=CC(=C(Cl)C=C1)S(=O)(=O)NC1=C(C=CC=C1)N1CCOCC1", 
	 "Tm": 452.15, 
	 "num_atms": 43, 
	 "gaussian": { 
		 "optdone": 1, 
		 "sigma_profile": "yes", 
		 "theory": "DFT", 
		 "functional": "B3LYP", 
		 "basiset": "6-31G**", 
		 "properties": { 
			 "R2extent": 12205.3991, 
			 "electric_dipole_moment_norm": 3.01987008661, 
			 "electric_quadrupole_moment_norm": 13.2113719163, 
			 "total_energy": -2001.97851411, 
			 "HOMO_LUMO_gap": 0.14651, 
			 "cosmo_polarized_energy": -19.67, 
			 "cosmo_cavitation_energy": 49.09, 
			 "cosmo_dispersion_energy": -33.78, 
			 "cosmo_repulsion_energy": 2.49, 
			 "cosmo_total_nonelectrostatic_energy": 17.81, 
			 "SMD_solvation_energy": 7.96 
		},
		"coords": [
			{
				"x": -4.7062253054,
				"y": -1.274454627,
				"z": 3.8432152844,
				"element": "O" 
			},
			{
				"x": -4.5290855173,
				"y": 0.0619123128,
				"z": 3.9523087277,
				"element": "C" 
			},
			{
				"x": -5.0597146925,
				"y": 0.7266547141,
				"z": 4.8190230445,
				"element": "O" 
			},
			{
				"x": -3.6241876357,
				"y": 0.613752491,
				"z": 2.9064454235,
				"element": "C" 
			},
			{
				"x": -3.0382975084,
				"y": -0.1942028408,
				"z": 1.9270046611,
				"element": "C" 
			},
			{
				"x": -2.195145139,
				"y": 0.3638042918,
				"z": 0.9660679015,
				"element": "C" 
			},
			{
				"x": -1.9422671466,
				"y": 1.744083257,
				"z": 0.9837583275,
				"element": "C" 
			},
			{
				"x": -0.8943305364,
				"y": 2.5150553974,
				"z": -0.1822816645,
				"element": "Cl" 
			},
			{
				"x": -2.5246674653,
				"y": 2.551240867,
				"z": 1.964064181,
				"element": "C" 
			},
			{
				"x": -3.3630203449,
				"y": 1.9881183501,
				"z": 2.9192031993,
				"element": "C" 
			},
			{
				"x": -1.5518771641,
				"y": -0.7715492903,
				"z": -0.2870551229,
				"element": "S" 
			},
			{
				"x": -1.9592158809,
				"y": -2.1166765696,
				"z": 0.1190649031,
				"element": "O" 
			},
			{
				"x": -1.9118454782,
				"y": -0.2392025405,
				"z": -1.6050010388,
				"element": "O" 
			},
			{
				"x": 0.1241478523,
				"y": -0.6328063046,
				"z": -0.0848201693,
				"element": "N" 
			},
			{
				"x": 0.9731085218,
				"y": -1.7754698048,
				"z": -0.0290217832,
				"element": "C" 
			},
			{
				"x": 1.9891141604,
				"y": -1.870124401,
				"z": -1.0072087746,
				"element": "C" 
			},
			{
				"x": 2.9197648089,
				"y": -2.9096207353,
				"z": -0.9141978849,
				"element": "C" 
			},
			{
				"x": 2.833042469,
				"y": -3.8545322113,
				"z": 0.1092274261,
				"element": "C" 
			},
			{
				"x": 1.8109091399,
				"y": -3.7642283481,
				"z": 1.0545220613,
				"element": "C" 
			},
			{
				"x": 0.8899183491,
				"y": -2.7193529547,
				"z": 0.9963965275,
				"element": "C" 
			},
			{
				"x": 2.0150364228,
				"y": -0.8682524554,
				"z": -2.0326266594,
				"element": "N" 
			},
			{
				"x": 3.342809234,
				"y": -0.3897555707,
				"z": -2.4364477354,
				"element": "C" 
			},
			{
				"x": 3.1738836326,
				"y": 0.816860686,
				"z": -3.3591418397,
				"element": "C" 
			},
			{
				"x": 2.4061281572,
				"y": 0.4830381631,
				"z": -4.5049661061,
				"element": "O" 
			},
			{
				"x": 1.1153386249,
				"y": 0.0117219341,
				"z": -4.1366304352,
				"element": "C" 
			},
			{
				"x": 1.2030916693,
				"y": -1.2070797182,
				"z": -3.2216742007,
				"element": "C" 
			},
			{
				"x": -5.3083708316,
				"y": -1.5284433263,
				"z": 4.561863691,
				"element": "H" 
			},
			{
				"x": -3.2298106415,
				"y": -1.2598371493,
				"z": 1.9004130653,
				"element": "H" 
			},
			{
				"x": -2.3148932722,
				"y": 3.6148172661,
				"z": 1.966982706,
				"element": "H" 
			},
			{
				"x": -3.8245578479,
				"y": 2.6015766998,
				"z": 3.6853046931,
				"element": "H" 
			},
			{
				"x": 0.4940039362,
				"y": 0.0212569775,
				"z": -0.7806268732,
				"element": "H" 
			},
			{
				"x": 3.7097849509,
				"y": -2.9867691516,
				"z": -1.6544393617,
				"element": "H" 
			},
			{
				"x": 3.5593244049,
				"y": -4.6599331901,
				"z": 0.163196495,
				"element": "H" 
			},
			{
				"x": 1.7377327794,
				"y": -4.4973377052,
				"z": 1.852048705,
				"element": "H" 
			},
			{
				"x": 0.1083171263,
				"y": -2.6289756405,
				"z": 1.741062554,
				"element": "H" 
			},
			{
				"x": 3.9078614266,
				"y": -0.108838086,
				"z": -1.5418004906,
				"element": "H" 
			},
			{
				"x": 3.9163551544,
				"y": -1.1620427924,
				"z": -2.9772685308,
				"element": "H" 
			},
			{
				"x": 2.6951568856,
				"y": 1.6389408807,
				"z": -2.8015561206,
				"element": "H" 
			},
			{
				"x": 4.1472171271,
				"y": 1.1600684768,
				"z": -3.7222170064,
				"element": "H" 
			},
			{
				"x": 0.5463589785,
				"y": 0.8076191599,
				"z": -3.629822366,
				"element": "H" 
			},
			{
				"x": 0.5990869797,
				"y": -0.2455185836,
				"z": -5.0656230617,
				"element": "H" 
			},
			{
				"x": 1.6495686532,
				"y": -2.053979022,
				"z": -3.7698679568,
				"element": "H" 
			},
			{
				"x": 0.1978509629,
				"y": -1.4967389061,
				"z": -2.9038783951,
				"element": "H" 
			}
		],
		 "valence_orbital": [ 
			{
				"type": "occ",
				"energy": -0.27488,
				"method": "rhf"
			},
			{
				"type": "occ",
				"energy": -0.26992,
				"method": "rhf"
			},
			{
				"type": "occ",
				"energy": -0.25547,
				"method": "rhf"
			},
			{
				"type": "occ",
				"energy": -0.24039,
				"method": "rhf"
			},
			{
				"type": "occ",
				"energy": -0.22095,
				"method": "rhf"
			},
			{
				"type": "unocc",
				"energy": -0.07444,
				"method": "rhf"
			},
			{
				"type": "unocc",
				"energy": -0.04736,
				"method": "rhf"
			},
			{
				"type": "unocc",
				"energy": -0.01188,
				"method": "rhf"
			},
			{
				"type": "unocc",
				"energy": -0.00752,
				"method": "rhf"
			},
			{
				"type": "unocc",
				"energy": 0.00303,
				"method": "rhf"
			}
		],
		"cosmo_sigma_profile": { 
			"-0.025": 0.0,
			"-0.024": 0.0,
			"-0.023": 0.0,
			"-0.022": 0.0,
			"-0.021": 0.0,
			"-0.02": 0.0,
			"-0.019": 0.374504379645,
			"-0.018": 1.05807435326,
			"-0.017": 1.09497166717,
			"-0.016": 0.656996218949,
			"-0.015": 0.585228547523,
			"-0.014": 0.715294130015,
			"-0.013": 0.835814550596,
			"-0.012": 0.503002546892,
			"-0.011": 0.85787508036,
			"-0.01": 0.68610933078,
			"-0.009": 1.44105551589,
			"-0.008": 4.39354721004,
			"-0.007": 5.33051543729,
			"-0.006": 12.4425936137,
			"-0.005": 24.3065336528,
			"-0.004": 33.6145691162,
			"-0.003": 44.3140990058,
			"-0.002": 40.7406738743,
			"-0.001": 36.7093524318,
			"0.0": 30.9167659723,
			"0.001": 21.7301270093,
			"0.002": 19.9129942692,
			"0.003": 19.393648254,
			"0.004": 17.7844457675,
			"0.005": 15.4212031531,
			"0.006": 8.81613977821,
			"0.007": 8.08031309743,
			"0.008": 7.32062660855,
			"0.009": 8.64082888457,
			"0.01": 10.5685455471,
			"0.011": 9.02502123186,
			"0.012": 2.17073651158,
			"0.013": 2.20807296368,
			"0.014": 0.197817866679,
			"0.015": 0.0,
			"0.016": 0.0,
			"0.017": 0.0,
			"0.018": 0.0,
			"0.019": 0.0,
			"0.02": 0.0,
			"0.021": 0.0,
			"0.022": 0.0,
			"0.023": 0.0,
			"0.024": 0.0,
			"0.0": 0.0
		}
	}
}
