{
	 "smiles": "CC(C)(C)OC(=O)N1CCC(CC1)OCC(O)=O", 
	 "Tm": 376.15, 
	 "num_atms": 39, 
	 "gaussian": { 
		 "optdone": 1, 
		 "sigma_profile": "yes", 
		 "theory": "DFT", 
		 "functional": "B3LYP", 
		 "basiset": "6-31G**", 
		 "properties": { 
			 "R2extent": 6724.2029, 
			 "electric_dipole_moment_norm": 2.59521641872, 
			 "electric_quadrupole_moment_norm": 9.25794503386, 
			 "total_energy": -900.832428152, 
			 "HOMO_LUMO_gap": 0.21153, 
			 "cosmo_polarized_energy": -15.65, 
			 "cosmo_cavitation_energy": 39.23, 
			 "cosmo_dispersion_energy": -27.43, 
			 "cosmo_repulsion_energy": 2.14, 
			 "cosmo_total_nonelectrostatic_energy": 13.95, 
			 "SMD_solvation_energy": 7.62 
		},
		"coords": [
			{
				"x": 3.7242422692,
				"y": 0.0337730202,
				"z": 1.1945897411,
				"element": "C" 
			},
			{
				"x": 2.5420381913,
				"y": 0.7558875073,
				"z": 1.8506382903,
				"element": "C" 
			},
			{
				"x": 2.7344522703,
				"y": 2.2762812736,
				"z": 1.8797593216,
				"element": "C" 
			},
			{
				"x": 2.2937715907,
				"y": 0.2148189938,
				"z": 3.2616645976,
				"element": "C" 
			},
			{
				"x": 1.2934439353,
				"y": 0.4153780646,
				"z": 1.1547077001,
				"element": "O" 
			},
			{
				"x": 1.1144859473,
				"y": 0.745959824,
				"z": -0.1506335204,
				"element": "C" 
			},
			{
				"x": 1.9349655678,
				"y": 1.3152337404,
				"z": -0.8601554859,
				"element": "O" 
			},
			{
				"x": -0.1164075808,
				"y": 0.364200849,
				"z": -0.6063272374,
				"element": "N" 
			},
			{
				"x": -1.1370988751,
				"y": -0.3123682896,
				"z": 0.1991445682,
				"element": "C" 
			},
			{
				"x": -2.5118626147,
				"y": 0.3279474742,
				"z": -0.0394903504,
				"element": "C" 
			},
			{
				"x": -2.8657291281,
				"y": 0.4791299738,
				"z": -1.5488381264,
				"element": "C" 
			},
			{
				"x": -1.7214108667,
				"y": -0.026178509,
				"z": -2.4363760189,
				"element": "C" 
			},
			{
				"x": -0.4025071274,
				"y": 0.6329583746,
				"z": -2.0226547433,
				"element": "C" 
			},
			{
				"x": -4.1627001002,
				"y": -0.0602570692,
				"z": -1.8696047576,
				"element": "O" 
			},
			{
				"x": -4.2732358077,
				"y": -1.4286770802,
				"z": -2.2030430221,
				"element": "C" 
			},
			{
				"x": -3.9524588868,
				"y": -2.3904267872,
				"z": -1.0571663724,
				"element": "C" 
			},
			{
				"x": -4.8819845656,
				"y": -2.3488048969,
				"z": -0.0776376931,
				"element": "O" 
			},
			{
				"x": -2.9783455349,
				"y": -3.112063767,
				"z": -1.0095348275,
				"element": "O" 
			},
			{
				"x": 3.5361153904,
				"y": -1.044031997,
				"z": 1.1570964923,
				"element": "H" 
			},
			{
				"x": 4.6309477182,
				"y": 0.1999683142,
				"z": 1.7856462054,
				"element": "H" 
			},
			{
				"x": 3.8891548885,
				"y": 0.3999042721,
				"z": 0.1813101918,
				"element": "H" 
			},
			{
				"x": 2.8915295393,
				"y": 2.6678661494,
				"z": 0.8747318626,
				"element": "H" 
			},
			{
				"x": 3.6027314081,
				"y": 2.5254810617,
				"z": 2.4986479993,
				"element": "H" 
			},
			{
				"x": 1.8558862785,
				"y": 2.7613737472,
				"z": 2.3174231086,
				"element": "H" 
			},
			{
				"x": 2.109437599,
				"y": -0.8631848999,
				"z": 3.234735332,
				"element": "H" 
			},
			{
				"x": 3.1660155543,
				"y": 0.4014116947,
				"z": 3.8952479405,
				"element": "H" 
			},
			{
				"x": 1.425937108,
				"y": 0.7024323681,
				"z": 3.7158063209,
				"element": "H" 
			},
			{
				"x": -0.8530101547,
				"y": -0.2260048847,
				"z": 1.2462566343,
				"element": "H" 
			},
			{
				"x": -1.1686209624,
				"y": -1.3825359304,
				"z": -0.0442587861,
				"element": "H" 
			},
			{
				"x": -3.2902142727,
				"y": -0.2601917918,
				"z": 0.4553404147,
				"element": "H" 
			},
			{
				"x": -2.5263784641,
				"y": 1.3172609271,
				"z": 0.4302891843,
				"element": "H" 
			},
			{
				"x": -3.0026802895,
				"y": 1.5443592908,
				"z": -1.7637737071,
				"element": "H" 
			},
			{
				"x": -1.6189308058,
				"y": -1.1134863703,
				"z": -2.3579644071,
				"element": "H" 
			},
			{
				"x": -1.9258254236,
				"y": 0.2097921158,
				"z": -3.4859640891,
				"element": "H" 
			},
			{
				"x": 0.4232725659,
				"y": 0.2602004313,
				"z": -2.6363189612,
				"element": "H" 
			},
			{
				"x": -0.4482347381,
				"y": 1.7176807749,
				"z": -2.1912179085,
				"element": "H" 
			},
			{
				"x": -3.6339229876,
				"y": -1.7149789324,
				"z": -3.0445970604,
				"element": "H" 
			},
			{
				"x": -5.3195220322,
				"y": -1.5713089276,
				"z": -2.4898135744,
				"element": "H" 
			},
			{
				"x": -4.5873466032,
				"y": -2.9726001093,
				"z": 0.6081347438,
				"element": "H" 
			}
		],
		 "valence_orbital": [ 
			{
				"type": "occ",
				"energy": -0.29155,
				"method": "rhf"
			},
			{
				"type": "occ",
				"energy": -0.27999,
				"method": "rhf"
			},
			{
				"type": "occ",
				"energy": -0.26145,
				"method": "rhf"
			},
			{
				"type": "occ",
				"energy": -0.25211,
				"method": "rhf"
			},
			{
				"type": "occ",
				"energy": -0.22921,
				"method": "rhf"
			},
			{
				"type": "unocc",
				"energy": -0.01768,
				"method": "rhf"
			},
			{
				"type": "unocc",
				"energy": 0.05685,
				"method": "rhf"
			},
			{
				"type": "unocc",
				"energy": 0.06373,
				"method": "rhf"
			},
			{
				"type": "unocc",
				"energy": 0.08028,
				"method": "rhf"
			},
			{
				"type": "unocc",
				"energy": 0.09237,
				"method": "rhf"
			}
		],
		"cosmo_sigma_profile": { 
			"-0.025": 0.0,
			"-0.024": 0.0,
			"-0.023": 0.0,
			"-0.022": 0.0,
			"-0.021": 0.0,
			"-0.02": 0.0,
			"-0.019": 0.0613510036142,
			"-0.018": 1.00783889466,
			"-0.017": 0.831265292691,
			"-0.016": 1.06902239209,
			"-0.015": 0.594332678615,
			"-0.014": 0.774752422068,
			"-0.013": 0.634347656562,
			"-0.012": 0.738959332994,
			"-0.011": 1.07016002627,
			"-0.01": 0.719530077044,
			"-0.009": 0.370583534168,
			"-0.008": 1.43910383604,
			"-0.007": 3.9981583736,
			"-0.006": 4.95275207039,
			"-0.005": 12.5031943427,
			"-0.004": 31.2309722895,
			"-0.003": 37.8189071864,
			"-0.002": 31.4530381911,
			"-0.001": 29.8934698093,
			"0.0": 32.9643975051,
			"0.001": 28.3237780623,
			"0.002": 11.9514367784,
			"0.003": 8.96212535527,
			"0.004": 8.78563468263,
			"0.005": 7.34658274494,
			"0.006": 6.15865577316,
			"0.007": 6.50448612761,
			"0.008": 4.53105160082,
			"0.009": 6.25787716721,
			"0.01": 5.23717073336,
			"0.011": 6.58982371725,
			"0.012": 4.14683015203,
			"0.013": 2.83200623297,
			"0.014": 2.57562514682,
			"0.015": 0.222963537295,
			"0.016": 0.0,
			"0.017": 0.0,
			"0.018": 0.0,
			"0.019": 0.0,
			"0.02": 0.0,
			"0.021": 0.0,
			"0.022": 0.0,
			"0.023": 0.0,
			"0.024": 0.0,
			"0.025": 0.0
		}
	}
}
