{
	 "smiles": "CO[C@H]1O[C@@H]([C@@H](O1)C(F)([N+]([O-])=O)[N+]([O-])=O)C(F)([N+]([O-])=O)[N+]([O-])=O", 
	 "Tm": 373.55, 
	 "num_atms": 29, 
	 "gaussian": { 
		 "optdone": 1, 
		 "sigma_profile": "yes", 
		 "theory": "DFT", 
		 "functional": "B3LYP", 
		 "basiset": "6-31G**", 
		 "properties": { 
			 "R2extent": 5801.6126, 
			 "electric_dipole_moment_norm": 5.82396542916, 
			 "electric_quadrupole_moment_norm": 10.8666170325, 
			 "total_energy": -1477.87337819, 
			 "HOMO_LUMO_gap": 0.19082, 
			 "cosmo_polarized_energy": -15.03, 
			 "cosmo_cavitation_energy": 36.03, 
			 "cosmo_dispersion_energy": -23.97, 
			 "cosmo_repulsion_energy": 1.75, 
			 "cosmo_total_nonelectrostatic_energy": 13.81, 
			 "SMD_solvation_energy": 14.6 
		},
		"coords": [
			{
				"x": -2.5954374916,
				"y": -2.6190885451,
				"z": -3.09397259,
				"element": "C" 
			},
			{
				"x": -1.740676529,
				"y": -2.8293940256,
				"z": -1.9662734195,
				"element": "O" 
			},
			{
				"x": -0.8421204737,
				"y": -1.8052450328,
				"z": -1.7531522195,
				"element": "C" 
			},
			{
				"x": -1.4521149937,
				"y": -0.6486350696,
				"z": -1.213789425,
				"element": "O" 
			},
			{
				"x": -1.492684614,
				"y": -0.8925582515,
				"z": 0.1781224649,
				"element": "C" 
			},
			{
				"x": -0.1230427715,
				"y": -1.5828233537,
				"z": 0.4575142042,
				"element": "C" 
			},
			{
				"x": 0.0728225515,
				"y": -2.2661053751,
				"z": -0.7796664842,
				"element": "O" 
			},
			{
				"x": 1.2505850947,
				"y": -0.9226962723,
				"z": 0.732060178,
				"element": "C" 
			},
			{
				"x": 2.1377326033,
				"y": -1.9239978565,
				"z": 0.8551905641,
				"element": "F" 
			},
			{
				"x": 1.7455124591,
				"y": -0.0133994849,
				"z": -0.4038033106,
				"element": "N" 
			},
			{
				"x": 2.8586941621,
				"y": -0.2303378793,
				"z": -0.8344395582,
				"element": "O" 
			},
			{
				"x": 0.9505560129,
				"y": 0.8416678671,
				"z": -0.7672923004,
				"element": "O" 
			},
			{
				"x": 1.3807497523,
				"y": -0.1436092033,
				"z": 2.0512660897,
				"element": "N" 
			},
			{
				"x": 2.1968330415,
				"y": 0.7568094812,
				"z": 2.0799560866,
				"element": "O" 
			},
			{
				"x": 0.7081977216,
				"y": -0.5870464796,
				"z": 2.9701804118,
				"element": "O" 
			},
			{
				"x": -2.1232230308,
				"y": 0.3315750128,
				"z": 0.8438741018,
				"element": "C" 
			},
			{
				"x": -3.3331116622,
				"y": 0.5173782639,
				"z": 0.2986289037,
				"element": "F" 
			},
			{
				"x": -2.3800787482,
				"y": 0.1113474512,
				"z": 2.3505392451,
				"element": "N" 
			},
			{
				"x": -2.1544131265,
				"y": -1.0087541503,
				"z": 2.7848418923,
				"element": "O" 
			},
			{
				"x": -2.8588701618,
				"y": 1.061735987,
				"z": 2.9390093832,
				"element": "O" 
			},
			{
				"x": -1.3603083956,
				"y": 1.6584551387,
				"z": 0.7222278414,
				"element": "N" 
			},
			{
				"x": -0.4191394169,
				"y": 1.7791410153,
				"z": 1.4914680743,
				"element": "O" 
			},
			{
				"x": -1.761661981,
				"y": 2.439146744,
				"z": -0.1111624524,
				"element": "O" 
			},
			{
				"x": -3.2022081335,
				"y": -3.5196521085,
				"z": -3.1896972851,
				"element": "H" 
			},
			{
				"x": -2.0087191791,
				"y": -2.4792031106,
				"z": -4.0115727452,
				"element": "H" 
			},
			{
				"x": -3.2449541716,
				"y": -1.7500601215,
				"z": -2.9441271799,
				"element": "H" 
			},
			{
				"x": -0.3221894704,
				"y": -1.5046713497,
				"z": -2.670663822,
				"element": "H" 
			},
			{
				"x": -2.2233825515,
				"y": -1.683709693,
				"z": 0.3964122624,
				"element": "H" 
			},
			{
				"x": -0.2440464963,
				"y": -2.3010695983,
				"z": 1.2701210886,
				"element": "H" 
			}
		],
		 "valence_orbital": [ 
			{
				"type": "occ",
				"energy": -0.33819,
				"method": "rhf"
			},
			{
				"type": "occ",
				"energy": -0.33273,
				"method": "rhf"
			},
			{
				"type": "occ",
				"energy": -0.33199,
				"method": "rhf"
			},
			{
				"type": "occ",
				"energy": -0.32941,
				"method": "rhf"
			},
			{
				"type": "occ",
				"energy": -0.31335,
				"method": "rhf"
			},
			{
				"type": "unocc",
				"energy": -0.12253,
				"method": "rhf"
			},
			{
				"type": "unocc",
				"energy": -0.11697,
				"method": "rhf"
			},
			{
				"type": "unocc",
				"energy": -0.1135,
				"method": "rhf"
			},
			{
				"type": "unocc",
				"energy": -0.1073,
				"method": "rhf"
			},
			{
				"type": "unocc",
				"energy": 0.01676,
				"method": "rhf"
			}
		],
		"cosmo_sigma_profile": { 
			"-0.025": 0.0,
			"-0.024": 0.0,
			"-0.023": 0.0,
			"-0.022": 0.0,
			"-0.021": 0.0,
			"-0.02": 0.0,
			"-0.019": 0.0,
			"-0.018": 0.0,
			"-0.017": 0.0,
			"-0.016": 0.0,
			"-0.015": 0.0565268870294,
			"-0.014": 0.464824739242,
			"-0.013": 0.799701105088,
			"-0.012": 2.02021081857,
			"-0.011": 3.18361514539,
			"-0.01": 4.88208291367,
			"-0.009": 7.84317866657,
			"-0.008": 5.37200081716,
			"-0.007": 7.3553225459,
			"-0.006": 10.4110448633,
			"-0.005": 12.3466769514,
			"-0.004": 18.0861254683,
			"-0.003": 15.877039948,
			"-0.002": 11.8033420325,
			"-0.001": 17.1992885503,
			"0.0": 21.4566217159,
			"0.001": 19.1280400398,
			"0.002": 19.1819921277,
			"0.003": 22.6097995749,
			"0.004": 34.3167319184,
			"0.005": 26.9324765854,
			"0.006": 14.9098157921,
			"0.007": 4.78760001834,
			"0.008": 1.83268638068,
			"0.009": 1.57405532758,
			"0.01": 1.65987955671,
			"0.011": 0.7399124721,
			"0.012": 0.0,
			"0.013": 0.0,
			"0.014": 0.0,
			"0.015": 0.0,
			"0.016": 0.0,
			"0.017": 0.0,
			"0.018": 0.0,
			"0.019": 0.0,
			"0.02": 0.0,
			"0.021": 0.0,
			"0.022": 0.0,
			"0.023": 0.0,
			"0.024": 0.0,
			"0.025": 0.0
		}
	}
}
