{
	 "smiles": "O1C=CC=C1", 
	 "Tm": 187.85, 
	 "num_atms": 9, 
	 "gaussian": { 
		 "optdone": 1, 
		 "sigma_profile": "yes", 
		 "theory": "DFT", 
		 "functional": "B3LYP", 
		 "basiset": "6-31G**", 
		 "properties": { 
			 "R2extent": 348.6561, 
			 "electric_dipole_moment_norm": 0.619708883267, 
			 "electric_quadrupole_moment_norm": 3.73958697452, 
			 "total_energy": -230.022993703, 
			 "HOMO_LUMO_gap": 0.24354, 
			 "cosmo_polarized_energy": -3.49, 
			 "cosmo_cavitation_energy": 12.75, 
			 "cosmo_dispersion_energy": -9.75, 
			 "cosmo_repulsion_energy": 0.85, 
			 "cosmo_total_nonelectrostatic_energy": 3.84, 
			 "SMD_solvation_energy": 3.91 
		},
		"coords": [
			{
				"x": 0.8166936503,
				"y": -0.1047872491,
				"z": -0.2709917516,
				"element": "O" 
			},
			{
				"x": 0.1726915719,
				"y": -0.9230367979,
				"z": -1.1515311801,
				"element": "C" 
			},
			{
				"x": -1.1189255736,
				"y": -0.526089969,
				"z": -1.3143639769,
				"element": "C" 
			},
			{
				"x": -1.2905657757,
				"y": 0.6243118724,
				"z": -0.4725766374,
				"element": "C" 
			},
			{
				"x": -0.0890853841,
				"y": 0.8314515368,
				"z": 0.1323182617,
				"element": "C" 
			},
			{
				"x": 0.7633642599,
				"y": -1.7254416347,
				"z": -1.5654888488,
				"element": "H" 
			},
			{
				"x": -1.8584096691,
				"y": -0.98986711,
				"z": -1.9511858623,
				"element": "H" 
			},
			{
				"x": -2.1870265391,
				"y": 1.2126334563,
				"z": -0.3395277757,
				"element": "H" 
			},
			{
				"x": 0.2729634595,
				"y": 1.5613258952,
				"z": 0.839647771,
				"element": "H" 
			}
		],
		 "valence_orbital": [ 
			{
				"type": "occ",
				"energy": -0.40635,
				"method": "rhf"
			},
			{
				"type": "occ",
				"energy": -0.39278,
				"method": "rhf"
			},
			{
				"type": "occ",
				"energy": -0.36625,
				"method": "rhf"
			},
			{
				"type": "occ",
				"energy": -0.27363,
				"method": "rhf"
			},
			{
				"type": "occ",
				"energy": -0.22482,
				"method": "rhf"
			},
			{
				"type": "unocc",
				"energy": 0.01872,
				"method": "rhf"
			},
			{
				"type": "unocc",
				"energy": 0.07702,
				"method": "rhf"
			},
			{
				"type": "unocc",
				"energy": 0.1181,
				"method": "rhf"
			},
			{
				"type": "unocc",
				"energy": 0.14192,
				"method": "rhf"
			},
			{
				"type": "unocc",
				"energy": 0.15555,
				"method": "rhf"
			}
		],
		"cosmo_sigma_profile": { 
			"-0.025": 0.0,
			"-0.024": 0.0,
			"-0.023": 0.0,
			"-0.022": 0.0,
			"-0.021": 0.0,
			"-0.02": 0.0,
			"-0.019": 0.0,
			"-0.018": 0.0,
			"-0.017": 0.0,
			"-0.016": 0.0,
			"-0.015": 0.0,
			"-0.014": 0.0,
			"-0.013": 0.0,
			"-0.012": 0.0,
			"-0.011": 0.0,
			"-0.01": 0.0,
			"-0.009": 0.891078900733,
			"-0.008": 3.83813984979,
			"-0.007": 4.34427177575,
			"-0.006": 7.16944016123,
			"-0.005": 5.46286205992,
			"-0.004": 6.84789172635,
			"-0.003": 7.9140870582,
			"-0.002": 5.28138484713,
			"-0.001": 5.84923548415,
			"0.0": 5.14099128305,
			"0.001": 5.87515883911,
			"0.002": 5.30476539343,
			"0.003": 8.47261447265,
			"0.004": 9.81299700897,
			"0.005": 7.78464486978,
			"0.006": 7.60849850877,
			"0.007": 2.09332463779,
			"0.008": 1.87793671665,
			"0.009": 1.19956009444,
			"0.01": 0.0412724190959,
			"0.011": 0.0,
			"0.012": 0.0,
			"0.013": 0.0,
			"0.014": 0.0,
			"0.015": 0.0,
			"0.016": 0.0,
			"0.017": 0.0,
			"0.018": 0.0,
			"0.019": 0.0,
			"0.02": 0.0,
			"0.021": 0.0,
			"0.022": 0.0,
			"0.023": 0.0,
			"0.024": 0.0,
			"0.025": 0.0
		}
	}
}
