{
	 "smiles": "COC1=C(OC)C=C(C=C1)C1=CSC(CC#N)=N1", 
	 "Tm": 375.15, 
	 "num_atms": 30, 
	 "gaussian": { 
		 "optdone": 1, 
		 "sigma_profile": "yes", 
		 "theory": "DFT", 
		 "functional": "B3LYP", 
		 "basiset": "6-31G**", 
		 "properties": { 
			 "R2extent": 7551.4406, 
			 "electric_dipole_moment_norm": 3.80390306659, 
			 "electric_quadrupole_moment_norm": 19.727576249, 
			 "total_energy": -1160.69678155, 
			 "HOMO_LUMO_gap": 0.1703, 
			 "cosmo_polarized_energy": -14.44, 
			 "cosmo_cavitation_energy": 37.14, 
			 "cosmo_dispersion_energy": -26.54, 
			 "cosmo_repulsion_energy": 2.02, 
			 "cosmo_total_nonelectrostatic_energy": 12.62, 
			 "SMD_solvation_energy": 7.73 
		},
		"coords": [
			{
				"x": 3.5435696308,
				"y": -3.112841547,
				"z": 1.849590934,
				"element": "C" 
			},
			{
				"x": 3.712161788,
				"y": -2.5215573331,
				"z": 0.5543425944,
				"element": "O" 
			},
			{
				"x": 2.6051340372,
				"y": -1.8715149505,
				"z": 0.0612171011,
				"element": "C" 
			},
			{
				"x": 2.1161811701,
				"y": -0.685436093,
				"z": 0.6416835414,
				"element": "C" 
			},
			{
				"x": 2.697585827,
				"y": -0.1461084747,
				"z": 1.7687351545,
				"element": "O" 
			},
			{
				"x": 3.996503403,
				"y": 0.420728698,
				"z": 1.5577115459,
				"element": "C" 
			},
			{
				"x": 0.9995508691,
				"y": -0.055593354,
				"z": 0.0980575213,
				"element": "C" 
			},
			{
				"x": 0.3549569125,
				"y": -0.5716443389,
				"z": -1.0371649499,
				"element": "C" 
			},
			{
				"x": 0.8666250978,
				"y": -1.740394199,
				"z": -1.6235312752,
				"element": "C" 
			},
			{
				"x": 1.9743050183,
				"y": -2.380602981,
				"z": -1.0762665968,
				"element": "C" 
			},
			{
				"x": -0.8229563757,
				"y": 0.1259504227,
				"z": -1.5867705983,
				"element": "C" 
			},
			{
				"x": -1.5039776186,
				"y": -0.1854853447,
				"z": -2.7394127529,
				"element": "C" 
			},
			{
				"x": -2.8157748053,
				"y": 0.910519824,
				"z": -2.9993871118,
				"element": "S" 
			},
			{
				"x": -2.3615657362,
				"y": 1.7318146098,
				"z": -1.5181030568,
				"element": "C" 
			},
			{
				"x": -3.138518334,
				"y": 2.8937604799,
				"z": -0.9417455208,
				"element": "C" 
			},
			{
				"x": -3.7073284176,
				"y": 3.7969986309,
				"z": -1.945871953,
				"element": "C" 
			},
			{
				"x": -4.1696434542,
				"y": 4.507404005,
				"z": -2.7380325091,
				"element": "N" 
			},
			{
				"x": -1.3327765944,
				"y": 1.224482312,
				"z": -0.9127675275,
				"element": "N" 
			},
			{
				"x": 3.2857129288,
				"y": -2.3611587672,
				"z": 2.601341634,
				"element": "H" 
			},
			{
				"x": 2.7645203351,
				"y": -3.884945868,
				"z": 1.8227640929,
				"element": "H" 
			},
			{
				"x": 4.5004748696,
				"y": -3.5752317661,
				"z": 2.0997302299,
				"element": "H" 
			},
			{
				"x": 4.3257849371,
				"y": 0.799940705,
				"z": 2.5272605832,
				"element": "H" 
			},
			{
				"x": 3.9450748412,
				"y": 1.2513321744,
				"z": 0.8427213603,
				"element": "H" 
			},
			{
				"x": 4.7055600987,
				"y": -0.329458453,
				"z": 1.1935371175,
				"element": "H" 
			},
			{
				"x": 0.632317848,
				"y": 0.8500950654,
				"z": 0.565937822,
				"element": "H" 
			},
			{
				"x": 0.3925349272,
				"y": -2.1687833741,
				"z": -2.5009172498,
				"element": "H" 
			},
			{
				"x": 2.3690986886,
				"y": -3.2910832772,
				"z": -1.5157969791,
				"element": "H" 
			},
			{
				"x": -1.3003407373,
				"y": -0.9678367464,
				"z": -3.4552800006,
				"element": "H" 
			},
			{
				"x": -3.9571725981,
				"y": 2.5229146477,
				"z": -0.3105448272,
				"element": "H" 
			},
			{
				"x": -2.4604985568,
				"y": 3.4520352928,
				"z": -0.2884383234,
				"element": "H" 
			}
		],
		 "valence_orbital": [ 
			{
				"type": "occ",
				"energy": -0.2894,
				"method": "rhf"
			},
			{
				"type": "occ",
				"energy": -0.27407,
				"method": "rhf"
			},
			{
				"type": "occ",
				"energy": -0.26527,
				"method": "rhf"
			},
			{
				"type": "occ",
				"energy": -0.24503,
				"method": "rhf"
			},
			{
				"type": "occ",
				"energy": -0.21737,
				"method": "rhf"
			},
			{
				"type": "unocc",
				"energy": -0.04707,
				"method": "rhf"
			},
			{
				"type": "unocc",
				"energy": -0.01953,
				"method": "rhf"
			},
			{
				"type": "unocc",
				"energy": -0.00247,
				"method": "rhf"
			},
			{
				"type": "unocc",
				"energy": -0.00072,
				"method": "rhf"
			},
			{
				"type": "unocc",
				"energy": 0.02996,
				"method": "rhf"
			}
		],
		"cosmo_sigma_profile": { 
			"-0.025": 0.0,
			"-0.024": 0.0,
			"-0.023": 0.0,
			"-0.022": 0.0,
			"-0.021": 0.0,
			"-0.02": 0.0,
			"-0.019": 0.0,
			"-0.018": 0.0,
			"-0.017": 0.0,
			"-0.016": 0.0,
			"-0.015": 0.0,
			"-0.014": 0.0,
			"-0.013": 0.0,
			"-0.012": 0.0,
			"-0.011": 0.654052207784,
			"-0.01": 6.08972911243,
			"-0.009": 7.8984315674,
			"-0.008": 6.61116925052,
			"-0.007": 7.50001512923,
			"-0.006": 9.97618207617,
			"-0.005": 13.6310417689,
			"-0.004": 19.6658438882,
			"-0.003": 27.243463913,
			"-0.002": 22.6063766483,
			"-0.001": 21.7915409285,
			"0.0": 21.032750635,
			"0.001": 22.7757327604,
			"0.002": 24.7648927189,
			"0.003": 22.1226203856,
			"0.004": 16.7206300453,
			"0.005": 9.54565561031,
			"0.006": 6.12724206728,
			"0.007": 7.01416435663,
			"0.008": 5.95755628724,
			"0.009": 6.63117694581,
			"0.01": 5.24720855271,
			"0.011": 4.62318941631,
			"0.012": 3.21644303005,
			"0.013": 0.7635276129,
			"0.014": 0.0,
			"0.015": 0.0,
			"0.016": 0.0,
			"0.017": 0.0,
			"0.018": 0.0,
			"0.019": 0.0,
			"0.02": 0.0,
			"0.021": 0.0,
			"0.022": 0.0,
			"0.023": 0.0,
			"0.024": 0.0,
			"0.0": 0.0
		}
	}
}
