{
	 "smiles": "FC(F)(F)S(=O)(=O)N(C1=CC=CC=C1)S(=O)(=O)C(F)(F)F", 
	 "Tm": 375.15, 
	 "num_atms": 26, 
	 "gaussian": { 
		 "optdone": 1, 
		 "sigma_profile": "yes", 
		 "theory": "DFT", 
		 "functional": "B3LYP", 
		 "basiset": "6-31G**", 
		 "properties": { 
			 "R2extent": 6429.2525, 
			 "electric_dipole_moment_norm": 3.80902503142, 
			 "electric_quadrupole_moment_norm": 11.5436087997, 
			 "total_energy": -2058.73100217, 
			 "HOMO_LUMO_gap": 0.22635, 
			 "cosmo_polarized_energy": -11.25, 
			 "cosmo_cavitation_energy": 35.9, 
			 "cosmo_dispersion_energy": -24.51, 
			 "cosmo_repulsion_energy": 1.67, 
			 "cosmo_total_nonelectrostatic_energy": 13.06, 
			 "SMD_solvation_energy": 6.83 
		},
		"coords": [
			{
				"x": 1.4053744036,
				"y": -1.0357205959,
				"z": 3.3123630162,
				"element": "F" 
			},
			{
				"x": 0.7757065868,
				"y": -1.7966942021,
				"z": 2.4267109251,
				"element": "C" 
			},
			{
				"x": 1.6254582231,
				"y": -2.1624507266,
				"z": 1.464865096,
				"element": "F" 
			},
			{
				"x": 0.278786101,
				"y": -2.876788476,
				"z": 3.0224725142,
				"element": "F" 
			},
			{
				"x": -0.6596179648,
				"y": -0.85971474,
				"z": 1.6556001928,
				"element": "S" 
			},
			{
				"x": -1.1150558708,
				"y": -1.6652856252,
				"z": 0.534409989,
				"element": "O" 
			},
			{
				"x": -1.5307665458,
				"y": -0.4325528536,
				"z": 2.7347262099,
				"element": "O" 
			},
			{
				"x": 0.1343292606,
				"y": 0.5201674051,
				"z": 0.9768450617,
				"element": "N" 
			},
			{
				"x": 0.600449964,
				"y": 0.4541335591,
				"z": -0.3945239133,
				"element": "C" 
			},
			{
				"x": -0.307785527,
				"y": 0.6413067537,
				"z": -1.4396881359,
				"element": "C" 
			},
			{
				"x": 0.1441580707,
				"y": 0.5729822067,
				"z": -2.7561735705,
				"element": "C" 
			},
			{
				"x": 1.4933333931,
				"y": 0.3284015649,
				"z": -3.0217487519,
				"element": "C" 
			},
			{
				"x": 2.3950297849,
				"y": 0.1468028846,
				"z": -1.9707500059,
				"element": "C" 
			},
			{
				"x": 1.9510773781,
				"y": 0.204601192,
				"z": -0.6510398159,
				"element": "C" 
			},
			{
				"x": 0.3900261298,
				"y": 1.9765569717,
				"z": 1.8755702316,
				"element": "S" 
			},
			{
				"x": 1.458824622,
				"y": 2.6947280345,
				"z": 1.2007973712,
				"element": "O" 
			},
			{
				"x": 0.408386356,
				"y": 1.6706037126,
				"z": 3.2939903511,
				"element": "O" 
			},
			{
				"x": -1.1889549841,
				"y": 2.9342367059,
				"z": 1.5256562132,
				"element": "C" 
			},
			{
				"x": -1.2611440665,
				"y": 3.1948654027,
				"z": 0.2188047942,
				"element": "F" 
			},
			{
				"x": -1.1297680734,
				"y": 4.0735141415,
				"z": 2.2089987487,
				"element": "F" 
			},
			{
				"x": -2.2507688465,
				"y": 2.2321441765,
				"z": 1.8995121262,
				"element": "F" 
			},
			{
				"x": -1.3512570259,
				"y": 0.8322397759,
				"z": -1.2172277033,
				"element": "H" 
			},
			{
				"x": -0.5572268357,
				"y": 0.7117268804,
				"z": -3.5728160781,
				"element": "H" 
			},
			{
				"x": 1.8424106966,
				"y": 0.2792927827,
				"z": -4.0487898418,
				"element": "H" 
			},
			{
				"x": 3.4440243781,
				"y": -0.0408435172,
				"z": -2.1768926751,
				"element": "H" 
			},
			{
				"x": 2.6381703921,
				"y": 0.0639465862,
				"z": 0.1753276504,
				"element": "H" 
			}
		],
		 "valence_orbital": [ 
			{
				"type": "occ",
				"energy": -0.34288,
				"method": "rhf"
			},
			{
				"type": "occ",
				"energy": -0.33379,
				"method": "rhf"
			},
			{
				"type": "occ",
				"energy": -0.32939,
				"method": "rhf"
			},
			{
				"type": "occ",
				"energy": -0.27692,
				"method": "rhf"
			},
			{
				"type": "occ",
				"energy": -0.27651,
				"method": "rhf"
			},
			{
				"type": "unocc",
				"energy": -0.05016,
				"method": "rhf"
			},
			{
				"type": "unocc",
				"energy": -0.03363,
				"method": "rhf"
			},
			{
				"type": "unocc",
				"energy": -0.02506,
				"method": "rhf"
			},
			{
				"type": "unocc",
				"energy": 0.02407,
				"method": "rhf"
			},
			{
				"type": "unocc",
				"energy": 0.02732,
				"method": "rhf"
			}
		],
		"cosmo_sigma_profile": { 
			"-0.025": 0.0,
			"-0.024": 0.0,
			"-0.023": 0.0,
			"-0.022": 0.0,
			"-0.021": 0.0,
			"-0.02": 0.0,
			"-0.019": 0.0,
			"-0.018": 0.0,
			"-0.017": 0.0,
			"-0.016": 0.0,
			"-0.015": 0.0,
			"-0.014": 0.0,
			"-0.013": 0.0,
			"-0.012": 0.0213214057611,
			"-0.011": 0.845926600925,
			"-0.01": 1.52956099746,
			"-0.009": 1.90272990107,
			"-0.008": 2.90436995647,
			"-0.007": 11.3270921486,
			"-0.006": 13.9385689606,
			"-0.005": 13.9382605159,
			"-0.004": 14.2600914721,
			"-0.003": 17.0383582305,
			"-0.002": 22.8667895578,
			"-0.001": 26.117810539,
			"0.0": 47.9673690901,
			"0.001": 23.1149245586,
			"0.002": 14.9662015065,
			"0.003": 16.4716170039,
			"0.004": 10.0588702802,
			"0.005": 8.3623192329,
			"0.006": 9.32464620129,
			"0.007": 19.2447807586,
			"0.008": 12.4201351769,
			"0.009": 0.730044164957,
			"0.01": 0.0,
			"0.011": 0.0,
			"0.012": 0.0,
			"0.013": 0.0,
			"0.014": 0.0,
			"0.015": 0.0,
			"0.016": 0.0,
			"0.017": 0.0,
			"0.018": 0.0,
			"0.019": 0.0,
			"0.02": 0.0,
			"0.021": 0.0,
			"0.022": 0.0,
			"0.023": 0.0,
			"0.024": 0.0,
			"0.025": 0.0
		}
	}
}
