{
	 "smiles": "NC1=C(C=C2CCCC2=N1)C#N", 
	 "Tm": 479.15, 
	 "num_atms": 21, 
	 "gaussian": { 
		 "optdone": 1, 
		 "sigma_profile": "yes", 
		 "theory": "DFT", 
		 "functional": "B3LYP", 
		 "basiset": "6-31G**", 
		 "properties": { 
			 "R2extent": 2456.8917, 
			 "electric_dipole_moment_norm": 3.62930661835, 
			 "electric_quadrupole_moment_norm": 16.2130323459, 
			 "total_energy": -512.641801711, 
			 "HOMO_LUMO_gap": 0.16932, 
			 "cosmo_polarized_energy": -11.27, 
			 "cosmo_cavitation_energy": 25.11, 
			 "cosmo_dispersion_energy": -18.52, 
			 "cosmo_repulsion_energy": 1.5, 
			 "cosmo_total_nonelectrostatic_energy": 8.09, 
			 "SMD_solvation_energy": 3.37 
		},
		"coords": [
			{
				"x": 1.1940189033,
				"y": -2.6884490223,
				"z": -2.2691524247,
				"element": "N" 
			},
			{
				"x": 0.7276351114,
				"y": -1.5833574537,
				"z": -1.6206450803,
				"element": "C" 
			},
			{
				"x": 1.4539027373,
				"y": -0.9959657358,
				"z": -0.5409444329,
				"element": "C" 
			},
			{
				"x": 0.9483845295,
				"y": 0.1658616992,
				"z": 0.0669328012,
				"element": "C" 
			},
			{
				"x": -0.2440551954,
				"y": 0.6933182108,
				"z": -0.4006998483,
				"element": "C" 
			},
			{
				"x": -1.0311230423,
				"y": 1.9147036787,
				"z": 0.0145753607,
				"element": "C" 
			},
			{
				"x": -2.422681328,
				"y": 1.6673716715,
				"z": -0.6333959252,
				"element": "C" 
			},
			{
				"x": -2.1564067727,
				"y": 0.7434877066,
				"z": -1.8477320673,
				"element": "C" 
			},
			{
				"x": -0.8817193932,
				"y": 0.028661694,
				"z": -1.4622929661,
				"element": "C" 
			},
			{
				"x": -0.4334154704,
				"y": -1.0682627266,
				"z": -2.0658615681,
				"element": "N" 
			},
			{
				"x": 2.6630300075,
				"y": -1.6068167043,
				"z": -0.100161201,
				"element": "C" 
			},
			{
				"x": 3.6414859011,
				"y": -2.1525093177,
				"z": 0.2222746593,
				"element": "N" 
			},
			{
				"x": 0.5582696698,
				"y": -3.1385774615,
				"z": -2.9084003521,
				"element": "H" 
			},
			{
				"x": 1.9446476341,
				"y": -3.2311117092,
				"z": -1.8720631679,
				"element": "H" 
			},
			{
				"x": 1.4971690302,
				"y": 0.6167460708,
				"z": 0.8887154737,
				"element": "H" 
			},
			{
				"x": -1.0923697442,
				"y": 2.0447789611,
				"z": 1.1001996235,
				"element": "H" 
			},
			{
				"x": -0.5688135593,
				"y": 2.8271190783,
				"z": -0.3876600191,
				"element": "H" 
			},
			{
				"x": -3.0649663084,
				"y": 1.1443717789,
				"z": 0.0834851741,
				"element": "H" 
			},
			{
				"x": -2.929068765,
				"y": 2.5961916464,
				"z": -0.9083573896,
				"element": "H" 
			},
			{
				"x": -2.9735701835,
				"y": 0.0484801923,
				"z": -2.0613733978,
				"element": "H" 
			},
			{
				"x": -1.9840537618,
				"y": 1.3227577425,
				"z": -2.7656432518,
				"element": "H" 
			}
		],
		 "valence_orbital": [ 
			{
				"type": "occ",
				"energy": -0.33293,
				"method": "rhf"
			},
			{
				"type": "occ",
				"energy": -0.31139,
				"method": "rhf"
			},
			{
				"type": "occ",
				"energy": -0.28037,
				"method": "rhf"
			},
			{
				"type": "occ",
				"energy": -0.26702,
				"method": "rhf"
			},
			{
				"type": "occ",
				"energy": -0.21795,
				"method": "rhf"
			},
			{
				"type": "unocc",
				"energy": -0.04863,
				"method": "rhf"
			},
			{
				"type": "unocc",
				"energy": -0.00767,
				"method": "rhf"
			},
			{
				"type": "unocc",
				"energy": 0.0327,
				"method": "rhf"
			},
			{
				"type": "unocc",
				"energy": 0.07456,
				"method": "rhf"
			},
			{
				"type": "unocc",
				"energy": 0.08642,
				"method": "rhf"
			}
		],
		"cosmo_sigma_profile": { 
			"-0.025": 0.0,
			"-0.024": 0.0,
			"-0.023": 0.0,
			"-0.022": 0.0,
			"-0.021": 0.0,
			"-0.02": 0.0,
			"-0.019": 0.0,
			"-0.018": 0.0,
			"-0.017": 0.0,
			"-0.016": 0.0,
			"-0.015": 0.0,
			"-0.014": 0.550114525425,
			"-0.013": 1.92214474166,
			"-0.012": 1.52886942747,
			"-0.011": 2.48902687033,
			"-0.01": 2.19328236638,
			"-0.009": 1.88192370342,
			"-0.008": 3.18659478031,
			"-0.007": 3.92414242437,
			"-0.006": 4.05688319131,
			"-0.005": 5.36308775423,
			"-0.004": 13.0934110634,
			"-0.003": 20.9990387607,
			"-0.002": 23.5961632598,
			"-0.001": 20.648272226,
			"0.0": 22.215358742,
			"0.001": 15.4532675537,
			"0.002": 9.71108922271,
			"0.003": 5.83318200398,
			"0.004": 4.16836346813,
			"0.005": 3.74007507571,
			"0.006": 5.36590912958,
			"0.007": 4.13134478641,
			"0.008": 3.96722090455,
			"0.009": 4.81530190852,
			"0.01": 4.07667807309,
			"0.011": 3.63809365767,
			"0.012": 3.38652874158,
			"0.013": 2.84531479167,
			"0.014": 1.17071069232,
			"0.015": 0.229828653655,
			"0.016": 0.0,
			"0.017": 0.0,
			"0.018": 0.0,
			"0.019": 0.0,
			"0.02": 0.0,
			"0.021": 0.0,
			"0.022": 0.0,
			"0.023": 0.0,
			"0.024": 0.0,
			"0.025": 0.0
		}
	}
}
