{
	 "smiles": "CC1CC(=O)C2=C(S1)C=CC(Cl)=C2", 
	 "Tm": 337.65, 
	 "num_atms": 22, 
	 "gaussian": { 
		 "optdone": 1, 
		 "sigma_profile": "yes", 
		 "theory": "DFT", 
		 "functional": "B3LYP", 
		 "basiset": "6-31G**", 
		 "properties": { 
			 "R2extent": 3662.264, 
			 "electric_dipole_moment_norm": 3.26764905245, 
			 "electric_quadrupole_moment_norm": 6.40433186055, 
			 "total_energy": -1320.10259663, 
			 "HOMO_LUMO_gap": 0.15513, 
			 "cosmo_polarized_energy": -8.65, 
			 "cosmo_cavitation_energy": 28.21, 
			 "cosmo_dispersion_energy": -21.28, 
			 "cosmo_repulsion_energy": 1.63, 
			 "cosmo_total_nonelectrostatic_energy": 8.56, 
			 "SMD_solvation_energy": 4.31 
		},
		"coords": [
			{
				"x": 0.5028644164,
				"y": -1.4665002991,
				"z": -2.248389229,
				"element": "C" 
			},
			{
				"x": -0.5737340048,
				"y": -0.3958414046,
				"z": -2.0415189821,
				"element": "C" 
			},
			{
				"x": -0.0143729307,
				"y": 0.9440785443,
				"z": -1.5511820512,
				"element": "C" 
			},
			{
				"x": 0.6320938739,
				"y": 0.8986100558,
				"z": -0.1733512332,
				"element": "C" 
			},
			{
				"x": 1.6330934982,
				"y": 1.5586476532,
				"z": 0.0606136065,
				"element": "O" 
			},
			{
				"x": -0.0181285104,
				"y": 0.07698197,
				"z": 0.8932578489,
				"element": "C" 
			},
			{
				"x": -1.1409312537,
				"y": -0.750038569,
				"z": 0.6695072105,
				"element": "C" 
			},
			{
				"x": -1.9209874027,
				"y": -0.9611827075,
				"z": -0.9107246195,
				"element": "S" 
			},
			{
				"x": -1.7034414122,
				"y": -1.4430803839,
				"z": 1.7542603805,
				"element": "C" 
			},
			{
				"x": -1.17152489,
				"y": -1.3264639884,
				"z": 3.0323057006,
				"element": "C" 
			},
			{
				"x": -0.0475306091,
				"y": -0.5192885742,
				"z": 3.2397868663,
				"element": "C" 
			},
			{
				"x": 0.634578134,
				"y": -0.3864488519,
				"z": 4.8524406328,
				"element": "Cl" 
			},
			{
				"x": 0.5267097976,
				"y": 0.1712050863,
				"z": 2.1856493979,
				"element": "C" 
			},
			{
				"x": 1.0105431141,
				"y": -1.7117887545,
				"z": -1.3107804287,
				"element": "H" 
			},
			{
				"x": 0.0686240102,
				"y": -2.385415995,
				"z": -2.6493198498,
				"element": "H" 
			},
			{
				"x": 1.2578138243,
				"y": -1.1032489226,
				"z": -2.9551121766,
				"element": "H" 
			},
			{
				"x": -1.1036218591,
				"y": -0.2286662944,
				"z": -2.9848367802,
				"element": "H" 
			},
			{
				"x": -0.8273258156,
				"y": 1.6818550665,
				"z": -1.5052527399,
				"element": "H" 
			},
			{
				"x": 0.7385397097,
				"y": 1.3277322825,
				"z": -2.2465925271,
				"element": "H" 
			},
			{
				"x": -2.5599199339,
				"y": -2.0899750114,
				"z": 1.5900847539,
				"element": "H" 
			},
			{
				"x": -1.6137138344,
				"y": -1.8668797119,
				"z": 3.8622782527,
				"element": "H" 
			},
			{
				"x": 1.3938720781,
				"y": 0.8062088099,
				"z": 2.3266759666,
				"element": "H" 
			}
		],
		 "valence_orbital": [ 
			{
				"type": "occ",
				"energy": -0.31732,
				"method": "rhf"
			},
			{
				"type": "occ",
				"energy": -0.28613,
				"method": "rhf"
			},
			{
				"type": "occ",
				"energy": -0.27432,
				"method": "rhf"
			},
			{
				"type": "occ",
				"energy": -0.25717,
				"method": "rhf"
			},
			{
				"type": "occ",
				"energy": -0.22501,
				"method": "rhf"
			},
			{
				"type": "unocc",
				"energy": -0.06988,
				"method": "rhf"
			},
			{
				"type": "unocc",
				"energy": -0.0243,
				"method": "rhf"
			},
			{
				"type": "unocc",
				"energy": 0.01197,
				"method": "rhf"
			},
			{
				"type": "unocc",
				"energy": 0.02372,
				"method": "rhf"
			},
			{
				"type": "unocc",
				"energy": 0.03465,
				"method": "rhf"
			}
		],
		"cosmo_sigma_profile": { 
			"-0.025": 0.0,
			"-0.024": 0.0,
			"-0.023": 0.0,
			"-0.022": 0.0,
			"-0.021": 0.0,
			"-0.02": 0.0,
			"-0.019": 0.0,
			"-0.018": 0.0,
			"-0.017": 0.0,
			"-0.016": 0.0,
			"-0.015": 0.0,
			"-0.014": 0.0,
			"-0.013": 0.0,
			"-0.012": 0.0,
			"-0.011": 0.0,
			"-0.01": 0.0,
			"-0.009": 0.0725466958219,
			"-0.008": 2.36422603231,
			"-0.007": 8.78203736688,
			"-0.006": 11.9612567136,
			"-0.005": 15.5971262115,
			"-0.004": 17.7217948404,
			"-0.003": 16.4462933038,
			"-0.002": 16.5603976041,
			"-0.001": 16.9744825914,
			"0.0": 19.9868261424,
			"0.001": 22.7429154834,
			"0.002": 21.9387760399,
			"0.003": 12.8197547868,
			"0.004": 15.0694981101,
			"0.005": 8.70902465655,
			"0.006": 4.12505562416,
			"0.007": 3.44955214884,
			"0.008": 1.990640796,
			"0.009": 2.01067076823,
			"0.01": 2.12030804519,
			"0.011": 3.73641184829,
			"0.012": 2.72643236774,
			"0.013": 0.855228902598,
			"0.014": 0.0,
			"0.015": 0.0,
			"0.016": 0.0,
			"0.017": 0.0,
			"0.018": 0.0,
			"0.019": 0.0,
			"0.02": 0.0,
			"0.021": 0.0,
			"0.022": 0.0,
			"0.023": 0.0,
			"0.024": 0.0,
			"0.025": 0.0
		}
	}
}
