{
	 "smiles": "OC(=O)C1CC1", 
	 "Tm": 290.15, 
	 "num_atms": 12, 
	 "gaussian": { 
		 "optdone": 1, 
		 "sigma_profile": "yes", 
		 "theory": "DFT", 
		 "functional": "B3LYP", 
		 "basiset": "6-31G**", 
		 "properties": { 
			 "R2extent": 994.1354, 
			 "electric_dipole_moment_norm": 4.27827042273, 
			 "electric_quadrupole_moment_norm": 12.8821041476, 
			 "total_energy": -306.467182607, 
			 "HOMO_LUMO_gap": 0.28041, 
			 "cosmo_polarized_energy": -13.17, 
			 "cosmo_cavitation_energy": 15.73, 
			 "cosmo_dispersion_energy": -11.74, 
			 "cosmo_repulsion_energy": 1.03, 
			 "cosmo_total_nonelectrostatic_energy": 5.02, 
			 "SMD_solvation_energy": 3.72 
		},
		"coords": [
			{
				"x": -0.3731563797,
				"y": -3.5996436854,
				"z": 0.6760948666,
				"element": "O" 
			},
			{
				"x": 0.0313560596,
				"y": -2.4564518043,
				"z": 0.0591979165,
				"element": "C" 
			},
			{
				"x": 0.6401288754,
				"y": -2.5151463274,
				"z": -0.9834197946,
				"element": "O" 
			},
			{
				"x": -0.3220778889,
				"y": -1.1758243083,
				"z": 0.7442815505,
				"element": "C" 
			},
			{
				"x": 0.6682338072,
				"y": -0.0296122171,
				"z": 0.6006329363,
				"element": "C" 
			},
			{
				"x": -0.6176740192,
				"y": 0.0177638186,
				"z": -0.1522350614,
				"element": "C" 
			},
			{
				"x": -0.8443839869,
				"y": -3.388925914,
				"z": 1.4938825259,
				"element": "H" 
			},
			{
				"x": -0.8723378451,
				"y": -1.2409232581,
				"z": 1.6800372628,
				"element": "H" 
			},
			{
				"x": 1.5697089559,
				"y": -0.2564762017,
				"z": 0.041635369,
				"element": "H" 
			},
			{
				"x": 0.7984282766,
				"y": 0.6193054158,
				"z": 1.4606495934,
				"element": "H" 
			},
			{
				"x": -0.5827893159,
				"y": -0.1773367356,
				"z": -1.2186753867,
				"element": "H" 
			},
			{
				"x": -1.395136539,
				"y": 0.6998712175,
				"z": 0.1763182215,
				"element": "H" 
			}
		],
		 "valence_orbital": [ 
			{
				"type": "occ",
				"energy": -0.37864,
				"method": "rhf"
			},
			{
				"type": "occ",
				"energy": -0.32064,
				"method": "rhf"
			},
			{
				"type": "occ",
				"energy": -0.31689,
				"method": "rhf"
			},
			{
				"type": "occ",
				"energy": -0.2991,
				"method": "rhf"
			},
			{
				"type": "occ",
				"energy": -0.27091,
				"method": "rhf"
			},
			{
				"type": "unocc",
				"energy": 0.0095,
				"method": "rhf"
			},
			{
				"type": "unocc",
				"energy": 0.05224,
				"method": "rhf"
			},
			{
				"type": "unocc",
				"energy": 0.09392,
				"method": "rhf"
			},
			{
				"type": "unocc",
				"energy": 0.11855,
				"method": "rhf"
			},
			{
				"type": "unocc",
				"energy": 0.1406,
				"method": "rhf"
			}
		],
		"cosmo_sigma_profile": { 
			"-0.025": 0.0,
			"-0.024": 0.0,
			"-0.023": 0.0,
			"-0.022": 0.0,
			"-0.021": 0.0,
			"-0.02": 0.0,
			"-0.019": 0.555251899497,
			"-0.018": 1.3275190801,
			"-0.017": 0.972155993535,
			"-0.016": 1.22791734485,
			"-0.015": 1.04831435679,
			"-0.014": 0.717152858834,
			"-0.013": 1.39031414115,
			"-0.012": 0.903784701574,
			"-0.011": 1.03978737297,
			"-0.01": 0.759778033689,
			"-0.009": 1.09991244618,
			"-0.008": 1.56216725466,
			"-0.007": 1.70500913235,
			"-0.006": 6.14562972421,
			"-0.005": 8.8496145567,
			"-0.004": 7.64126028119,
			"-0.003": 7.76566129734,
			"-0.002": 8.61782420022,
			"-0.001": 9.61656547074,
			"0.0": 9.96138025088,
			"0.001": 7.16221643263,
			"0.002": 5.91257836919,
			"0.003": 4.28891002871,
			"0.004": 4.2206258843,
			"0.005": 2.13973608407,
			"0.006": 1.51799261901,
			"0.007": 2.62465939444,
			"0.008": 2.89568943605,
			"0.009": 2.8111930125,
			"0.01": 3.56357400803,
			"0.011": 5.0698596453,
			"0.012": 5.1832056167,
			"0.013": 3.09009516373,
			"0.014": 0.702433280887,
			"0.015": 0.0,
			"0.016": 0.0,
			"0.017": 0.0,
			"0.018": 0.0,
			"0.019": 0.0,
			"0.02": 0.0,
			"0.021": 0.0,
			"0.022": 0.0,
			"0.023": 0.0,
			"0.024": 0.0,
			"0.025": 0.0
		}
	}
}
