{
	 "smiles": "[O-][N+](=O)C1=CC=C(C=C1)C(=O)C1=NOC(=C1S(=O)(=O)C1=CC=CC=C1)C1=CC=C(Cl)C=C1", 
	 "Tm": 483.15, 
	 "num_atms": 45, 
	 "gaussian": { 
		 "optdone": 1, 
		 "sigma_profile": "yes", 
		 "theory": "DFT", 
		 "functional": "B3LYP", 
		 "basiset": "6-31G**", 
		 "properties": { 
			 "R2extent": 18326.3106, 
			 "electric_dipole_moment_norm": 6.2634236732, 
			 "electric_quadrupole_moment_norm": 17.6570125571, 
			 "total_energy": -2265.16587835, 
			 "HOMO_LUMO_gap": 0.14695, 
			 "cosmo_polarized_energy": -22.57, 
			 "cosmo_cavitation_energy": 55.39, 
			 "cosmo_dispersion_energy": -36.61, 
			 "cosmo_repulsion_energy": 2.69, 
			 "cosmo_total_nonelectrostatic_energy": 21.48, 
			 "SMD_solvation_energy": 10.76 
		},
		"coords": [
			{
				"x": -1.3263482527,
				"y": 2.3555530513,
				"z": -6.5135805714,
				"element": "O" 
			},
			{
				"x": -1.5661023623,
				"y": 2.4326750518,
				"z": -5.3106365114,
				"element": "N" 
			},
			{
				"x": -2.5988188144,
				"y": 2.8915175696,
				"z": -4.8249801535,
				"element": "O" 
			},
			{
				"x": -0.5368766754,
				"y": 1.9346575812,
				"z": -4.3771439065,
				"element": "C" 
			},
			{
				"x": -0.773903303,
				"y": 2.03088862,
				"z": -3.0082223574,
				"element": "C" 
			},
			{
				"x": 0.1959402381,
				"y": 1.5519775568,
				"z": -2.1308293838,
				"element": "C" 
			},
			{
				"x": 1.3824507885,
				"y": 0.9917258226,
				"z": -2.6268986223,
				"element": "C" 
			},
			{
				"x": 1.597473233,
				"y": 0.9167627221,
				"z": -4.0123057166,
				"element": "C" 
			},
			{
				"x": 0.6356431709,
				"y": 1.3857763943,
				"z": -4.8977660315,
				"element": "C" 
			},
			{
				"x": 2.4542619632,
				"y": 0.4765304355,
				"z": -1.7249774532,
				"element": "C" 
			},
			{
				"x": 3.5556177752,
				"y": 0.1623006997,
				"z": -2.1273378301,
				"element": "O" 
			},
			{
				"x": 2.1739258394,
				"y": 0.378647582,
				"z": -0.2329101724,
				"element": "C" 
			},
			{
				"x": 2.3719400172,
				"y": 1.4348163272,
				"z": 0.5168554978,
				"element": "N" 
			},
			{
				"x": 2.1719812155,
				"y": 1.0012716388,
				"z": 1.8325539454,
				"element": "O" 
			},
			{
				"x": 1.856950176,
				"y": -0.31074758,
				"z": 1.8547093207,
				"element": "C" 
			},
			{
				"x": 1.8258121757,
				"y": -0.7667018119,
				"z": 0.5507891548,
				"element": "C" 
			},
			{
				"x": 1.3317835835,
				"y": -2.3346480187,
				"z": -0.1438727869,
				"element": "S" 
			},
			{
				"x": 2.0390201466,
				"y": -3.4181017044,
				"z": 0.5542279485,
				"element": "O" 
			},
			{
				"x": 1.4533487092,
				"y": -2.1528090993,
				"z": -1.5976953073,
				"element": "O" 
			},
			{
				"x": -0.4183286383,
				"y": -2.4721998377,
				"z": 0.2458938507,
				"element": "C" 
			},
			{
				"x": -1.3419358808,
				"y": -1.8068194285,
				"z": -0.5657766123,
				"element": "C" 
			},
			{
				"x": -2.7001054088,
				"y": -1.9226621919,
				"z": -0.2745602302,
				"element": "C" 
			},
			{
				"x": -3.1211230246,
				"y": -2.6988908181,
				"z": 0.8091798721,
				"element": "C" 
			},
			{
				"x": -2.1879060897,
				"y": -3.3693119356,
				"z": 1.6022173972,
				"element": "C" 
			},
			{
				"x": -0.8245305701,
				"y": -3.2614479381,
				"z": 1.3232432691,
				"element": "C" 
			},
			{
				"x": 1.6256718214,
				"y": -0.8813323672,
				"z": 3.1824763492,
				"element": "C" 
			},
			{
				"x": 1.1288523937,
				"y": -0.0536742086,
				"z": 4.2060882635,
				"element": "C" 
			},
			{
				"x": 0.9214265141,
				"y": -0.5571108739,
				"z": 5.4852008815,
				"element": "C" 
			},
			{
				"x": 1.2211658146,
				"y": -1.8956493604,
				"z": 5.7475166461,
				"element": "C" 
			},
			{
				"x": 0.9603960563,
				"y": -2.535133657,
				"z": 7.3569893508,
				"element": "Cl" 
			},
			{
				"x": 1.7294940629,
				"y": -2.7294253607,
				"z": 4.7509622097,
				"element": "C" 
			},
			{
				"x": 1.9329321634,
				"y": -2.2222312855,
				"z": 3.4699428469,
				"element": "C" 
			},
			{
				"x": -1.6962189966,
				"y": 2.4754310159,
				"z": -2.6565853807,
				"element": "H" 
			},
			{
				"x": 0.0373473977,
				"y": 1.632119375,
				"z": -1.0609942766,
				"element": "H" 
			},
			{
				"x": 2.5238134022,
				"y": 0.4818177874,
				"z": -4.3705065739,
				"element": "H" 
			},
			{
				"x": 0.7703243813,
				"y": 1.335307742,
				"z": -5.970824993,
				"element": "H" 
			},
			{
				"x": -1.000577481,
				"y": -1.2283614516,
				"z": -1.4174129263,
				"element": "H" 
			},
			{
				"x": -3.4297961176,
				"y": -1.4160025057,
				"z": -0.8986392844,
				"element": "H" 
			},
			{
				"x": -4.1807043736,
				"y": -2.7883883094,
				"z": 1.0293997187,
				"element": "H" 
			},
			{
				"x": -2.5190841662,
				"y": -3.9829272501,
				"z": 2.4342496994,
				"element": "H" 
			},
			{
				"x": -0.0873869693,
				"y": -3.7918384438,
				"z": 1.914113319,
				"element": "H" 
			},
			{
				"x": 0.9012364681,
				"y": 0.9852471354,
				"z": 3.9945093896,
				"element": "H" 
			},
			{
				"x": 0.5315578707,
				"y": 0.077853221,
				"z": 6.272581031,
				"element": "H" 
			},
			{
				"x": 1.9746709214,
				"y": -3.7608434509,
				"z": 4.9779667883,
				"element": "H" 
			},
			{
				"x": 2.3458088246,
				"y": -2.8609184407,
				"z": 2.6973903317,
				"element": "H" 
			}
		],
		 "valence_orbital": [ 
			{
				"type": "occ",
				"energy": -0.29053,
				"method": "rhf"
			},
			{
				"type": "occ",
				"energy": -0.28778,
				"method": "rhf"
			},
			{
				"type": "occ",
				"energy": -0.28482,
				"method": "rhf"
			},
			{
				"type": "occ",
				"energy": -0.28329,
				"method": "rhf"
			},
			{
				"type": "occ",
				"energy": -0.26096,
				"method": "rhf"
			},
			{
				"type": "unocc",
				"energy": -0.11401,
				"method": "rhf"
			},
			{
				"type": "unocc",
				"energy": -0.08361,
				"method": "rhf"
			},
			{
				"type": "unocc",
				"energy": -0.06065,
				"method": "rhf"
			},
			{
				"type": "unocc",
				"energy": -0.05645,
				"method": "rhf"
			},
			{
				"type": "unocc",
				"energy": -0.04231,
				"method": "rhf"
			}
		],
		"cosmo_sigma_profile": { 
			"-0.025": 0.0,
			"-0.024": 0.0,
			"-0.023": 0.0,
			"-0.022": 0.0,
			"-0.021": 0.0,
			"-0.02": 0.0,
			"-0.019": 0.0,
			"-0.018": 0.0,
			"-0.017": 0.0,
			"-0.016": 0.0,
			"-0.015": 0.0,
			"-0.014": 0.0,
			"-0.013": 0.0,
			"-0.012": 0.0,
			"-0.011": 0.0,
			"-0.01": 0.0131140763581,
			"-0.009": 1.50135362069,
			"-0.008": 12.5951093896,
			"-0.007": 22.1016726684,
			"-0.006": 24.7964417809,
			"-0.005": 27.6009580332,
			"-0.004": 29.1933093932,
			"-0.003": 30.0206518739,
			"-0.002": 33.4058288391,
			"-0.001": 36.8064017544,
			"0.0": 38.4950038145,
			"0.001": 39.7234922897,
			"0.002": 30.7184300761,
			"0.003": 24.9895749549,
			"0.004": 17.4856480019,
			"0.005": 13.0563314299,
			"0.006": 10.8289935135,
			"0.007": 16.105403155,
			"0.008": 12.7559985311,
			"0.009": 12.6434856271,
			"0.01": 10.073112613,
			"0.011": 5.5454057045,
			"0.012": 0.245547837924,
			"0.013": 0.0,
			"0.014": 0.0,
			"0.015": 0.0,
			"0.016": 0.0,
			"0.017": 0.0,
			"0.018": 0.0,
			"0.019": 0.0,
			"0.02": 0.0,
			"0.021": 0.0,
			"0.022": 0.0,
			"0.023": 0.0,
			"0.024": 0.0,
			"0.025": 0.0
		}
	}
}
