{
	 "smiles": "OC1C(Br)CC2=CC=CC=C12", 
	 "Tm": 403.15, 
	 "num_atms": 20, 
	 "gaussian": { 
		 "optdone": 1, 
		 "sigma_profile": "yes", 
		 "theory": "DFT", 
		 "functional": "B3LYP", 
		 "basiset": "6-31G**", 
		 "properties": { 
			 "R2extent": 2998.0163, 
			 "electric_dipole_moment_norm": 2.07694766665, 
			 "electric_quadrupole_moment_norm": 6.89823897745, 
			 "total_energy": -2995.01209019, 
			 "HOMO_LUMO_gap": 0.22801, 
			 "cosmo_polarized_energy": -8.04, 
			 "cosmo_cavitation_energy": 24.66, 
			 "cosmo_dispersion_energy": -18.69, 
			 "cosmo_repulsion_energy": 1.5, 
			 "cosmo_total_nonelectrostatic_energy": 7.46, 
			 "SMD_solvation_energy": 2.55 
		},
		"coords": [
			{
				"x": -0.4641223767,
				"y": 0.0317760541,
				"z": -2.2835738477,
				"element": "O" 
			},
			{
				"x": -1.1149107628,
				"y": 0.6683848361,
				"z": -1.2167923877,
				"element": "C" 
			},
			{
				"x": -0.9941847022,
				"y": 2.2166301966,
				"z": -1.1326615365,
				"element": "C" 
			},
			{
				"x": 0.8831867271,
				"y": 2.756463015,
				"z": -1.5841272559,
				"element": "Br" 
			},
			{
				"x": -1.2934007704,
				"y": 2.5516034105,
				"z": 0.3381410476,
				"element": "C" 
			},
			{
				"x": -0.840753941,
				"y": 1.3069848079,
				"z": 1.0764874578,
				"element": "C" 
			},
			{
				"x": -0.5616594386,
				"y": 1.1299823217,
				"z": 2.4289373247,
				"element": "C" 
			},
			{
				"x": -0.1536838816,
				"y": -0.133167936,
				"z": 2.8724205045,
				"element": "C" 
			},
			{
				"x": -0.0290723361,
				"y": -1.1995791459,
				"z": 1.975754476,
				"element": "C" 
			},
			{
				"x": -0.3160751355,
				"y": -1.0215236919,
				"z": 0.6184405225,
				"element": "C" 
			},
			{
				"x": -0.7206317888,
				"y": 0.2362500256,
				"z": 0.1847794669,
				"element": "C" 
			},
			{
				"x": 0.463261244,
				"y": 0.3164334057,
				"z": -2.2599796739,
				"element": "H" 
			},
			{
				"x": -2.1847925179,
				"y": 0.4567454283,
				"z": -1.371465677,
				"element": "H" 
			},
			{
				"x": -1.5990555112,
				"y": 2.7502935227,
				"z": -1.863002843,
				"element": "H" 
			},
			{
				"x": -2.3799253501,
				"y": 2.6943390245,
				"z": 0.4445592868,
				"element": "H" 
			},
			{
				"x": -0.8147939136,
				"y": 3.4737783586,
				"z": 0.6755777007,
				"element": "H" 
			},
			{
				"x": -0.6443371954,
				"y": 1.957152564,
				"z": 3.129300425,
				"element": "H" 
			},
			{
				"x": 0.0768594075,
				"y": -0.2846180571,
				"z": 3.9231544924,
				"element": "H" 
			},
			{
				"x": 0.2967273137,
				"y": -2.1708765745,
				"z": 2.3369372642,
				"element": "H" 
			},
			{
				"x": -0.21673507,
				"y": -1.8387515661,
				"z": -0.0901867476,
				"element": "H" 
			}
		],
		 "valence_orbital": [ 
			{
				"type": "occ",
				"energy": -0.28827,
				"method": "rhf"
			},
			{
				"type": "occ",
				"energy": -0.28106,
				"method": "rhf"
			},
			{
				"type": "occ",
				"energy": -0.27211,
				"method": "rhf"
			},
			{
				"type": "occ",
				"energy": -0.25101,
				"method": "rhf"
			},
			{
				"type": "occ",
				"energy": -0.24266,
				"method": "rhf"
			},
			{
				"type": "unocc",
				"energy": -0.01465,
				"method": "rhf"
			},
			{
				"type": "unocc",
				"energy": -0.0043,
				"method": "rhf"
			},
			{
				"type": "unocc",
				"energy": -0.00398,
				"method": "rhf"
			},
			{
				"type": "unocc",
				"energy": 0.09422,
				"method": "rhf"
			},
			{
				"type": "unocc",
				"energy": 0.09958,
				"method": "rhf"
			}
		],
		"cosmo_sigma_profile": { 
			"-0.025": 0.0,
			"-0.024": 0.0,
			"-0.023": 0.0,
			"-0.022": 0.0,
			"-0.021": 0.0,
			"-0.02": 0.0,
			"-0.019": 0.0,
			"-0.018": 0.0,
			"-0.017": 0.0,
			"-0.016": 0.0,
			"-0.015": 0.0,
			"-0.014": 0.0,
			"-0.013": 0.0,
			"-0.012": 0.641265643264,
			"-0.011": 0.422415172956,
			"-0.01": 0.333357517637,
			"-0.009": 0.215249307442,
			"-0.008": 2.51786602704,
			"-0.007": 7.95544484084,
			"-0.006": 11.2341032627,
			"-0.005": 15.6723374148,
			"-0.004": 16.1191991508,
			"-0.003": 16.2180220226,
			"-0.002": 14.4440788186,
			"-0.001": 11.7115248543,
			"0.0": 11.754463354,
			"0.001": 12.0267409281,
			"0.002": 12.2912050072,
			"0.003": 10.8626917448,
			"0.004": 13.9898594105,
			"0.005": 17.829067399,
			"0.006": 12.6987341198,
			"0.007": 0.868445654066,
			"0.008": 0.986580865844,
			"0.009": 1.26072821582,
			"0.01": 1.40067752855,
			"0.011": 1.21906665486,
			"0.012": 1.32351660641,
			"0.013": 2.16094074849,
			"0.014": 0.360088260603,
			"0.015": 0.0,
			"0.016": 0.0,
			"0.017": 0.0,
			"0.018": 0.0,
			"0.019": 0.0,
			"0.02": 0.0,
			"0.021": 0.0,
			"0.022": 0.0,
			"0.023": 0.0,
			"0.024": 0.0,
			"0.025": 0.0
		}
	}
}
