{
	 "smiles": "CC(C)(C)OC(=O)N1CCN(CC1)C1=CC=C(CN)C=C1", 
	 "Tm": 358.15, 
	 "num_atms": 46, 
	 "gaussian": { 
		 "optdone": 1, 
		 "sigma_profile": "yes", 
		 "theory": "DFT", 
		 "functional": "B3LYP", 
		 "basiset": "6-31G**", 
		 "properties": { 
			 "R2extent": 11848.9122, 
			 "electric_dipole_moment_norm": 2.38789707693, 
			 "electric_quadrupole_moment_norm": 18.4628667695, 
			 "total_energy": -939.501828094, 
			 "HOMO_LUMO_gap": 0.19618, 
			 "cosmo_polarized_energy": -14.27, 
			 "cosmo_cavitation_energy": 46.14, 
			 "cosmo_dispersion_energy": -32.36, 
			 "cosmo_repulsion_energy": 2.5, 
			 "cosmo_total_nonelectrostatic_energy": 16.28, 
			 "SMD_solvation_energy": 5.21 
		},
		"coords": [
			{
				"x": -4.866311232,
				"y": 3.2387508441,
				"z": -0.7122077542,
				"element": "C" 
			},
			{
				"x": -4.4035828814,
				"y": 2.053544843,
				"z": 0.1420405583,
				"element": "C" 
			},
			{
				"x": -5.0095936444,
				"y": 0.7265180451,
				"z": -0.3271476603,
				"element": "C" 
			},
			{
				"x": -4.7146258227,
				"y": 2.2982020801,
				"z": 1.6212797021,
				"element": "C" 
			},
			{
				"x": -2.9345767048,
				"y": 1.969641673,
				"z": 0.1361192901,
				"element": "O" 
			},
			{
				"x": -2.2559876585,
				"y": 1.7471796446,
				"z": -1.0163956965,
				"element": "C" 
			},
			{
				"x": -2.7613324367,
				"y": 1.615447309,
				"z": -2.1228020006,
				"element": "O" 
			},
			{
				"x": -0.9047270018,
				"y": 1.6716303161,
				"z": -0.7863181345,
				"element": "N" 
			},
			{
				"x": 0.0065879577,
				"y": 1.5496470158,
				"z": -1.917229552,
				"element": "C" 
			},
			{
				"x": 1.0834067074,
				"y": 0.500965559,
				"z": -1.6300691532,
				"element": "C" 
			},
			{
				"x": 1.7690508996,
				"y": 0.8088405703,
				"z": -0.3770717188,
				"element": "N" 
			},
			{
				"x": 0.8265352076,
				"y": 0.8760073826,
				"z": 0.7472870462,
				"element": "C" 
			},
			{
				"x": -0.25277943,
				"y": 1.9295062489,
				"z": 0.4924356817,
				"element": "C" 
			},
			{
				"x": 3.0100059414,
				"y": 0.173807536,
				"z": -0.1287875868,
				"element": "C" 
			},
			{
				"x": 3.5065676256,
				"y": -0.8674851218,
				"z": -0.9311312658,
				"element": "C" 
			},
			{
				"x": 4.759616185,
				"y": -1.4290461958,
				"z": -0.6766900671,
				"element": "C" 
			},
			{
				"x": 5.5571817589,
				"y": -0.9985104822,
				"z": 0.3869964676,
				"element": "C" 
			},
			{
				"x": 6.8862814746,
				"y": -1.6603813779,
				"z": 0.7005892062,
				"element": "C" 
			},
			{
				"x": 6.8405244698,
				"y": -2.7562692834,
				"z": 1.6860997704,
				"element": "N" 
			},
			{
				"x": 5.057405163,
				"y": 0.0424994159,
				"z": 1.1850428927,
				"element": "C" 
			},
			{
				"x": 3.8199712287,
				"y": 0.6221940721,
				"z": 0.934240744,
				"element": "C" 
			},
			{
				"x": -4.6268276284,
				"y": 3.0786129881,
				"z": -1.7633797577,
				"element": "H" 
			},
			{
				"x": -4.3839315759,
				"y": 4.1614121763,
				"z": -0.3738754712,
				"element": "H" 
			},
			{
				"x": -5.9490946412,
				"y": 3.3647095045,
				"z": -0.6093257854,
				"element": "H" 
			},
			{
				"x": -4.7734790303,
				"y": 0.5388600021,
				"z": -1.3745785299,
				"element": "H" 
			},
			{
				"x": -6.0976021909,
				"y": 0.75739141,
				"z": -0.2081284113,
				"element": "H" 
			},
			{
				"x": -4.6257512089,
				"y": -0.1010489498,
				"z": 0.2781021892,
				"element": "H" 
			},
			{
				"x": -5.7951846615,
				"y": 2.3850649027,
				"z": 1.7686677604,
				"element": "H" 
			},
			{
				"x": -4.3474002404,
				"y": 1.4709418396,
				"z": 2.2359165198,
				"element": "H" 
			},
			{
				"x": -4.2428669093,
				"y": 3.2224413824,
				"z": 1.9677962184,
				"element": "H" 
			},
			{
				"x": 0.4926917899,
				"y": 2.5179878825,
				"z": -2.1081030669,
				"element": "H" 
			},
			{
				"x": -0.5783155477,
				"y": 1.2750194263,
				"z": -2.7949301331,
				"element": "H" 
			},
			{
				"x": 0.6182600388,
				"y": -0.5016698361,
				"z": -1.6109272244,
				"element": "H" 
			},
			{
				"x": 1.8116933784,
				"y": 0.5190964332,
				"z": -2.4455414382,
				"element": "H" 
			},
			{
				"x": 0.3418915297,
				"y": -0.1040745981,
				"z": 0.9079822966,
				"element": "H" 
			},
			{
				"x": 1.3648832882,
				"y": 1.1312450626,
				"z": 1.6615085617,
				"element": "H" 
			},
			{
				"x": -0.9970183852,
				"y": 1.9047687055,
				"z": 1.2862724533,
				"element": "H" 
			},
			{
				"x": 0.2122697028,
				"y": 2.9269779873,
				"z": 0.4787972672,
				"element": "H" 
			},
			{
				"x": 2.9185994684,
				"y": -1.2541173899,
				"z": -1.7555713949,
				"element": "H" 
			},
			{
				"x": 5.1167913292,
				"y": -2.2284911119,
				"z": -1.3230536566,
				"element": "H" 
			},
			{
				"x": 7.5928123304,
				"y": -0.9115191282,
				"z": 1.0777022199,
				"element": "H" 
			},
			{
				"x": 7.3222509069,
				"y": -2.0644514431,
				"z": -0.220340602,
				"element": "H" 
			},
			{
				"x": 6.4470246329,
				"y": -2.4020548192,
				"z": 2.5564145675,
				"element": "H" 
			},
			{
				"x": 6.1815753268,
				"y": -3.4626038141,
				"z": 1.3624887296,
				"element": "H" 
			},
			{
				"x": 5.6613076175,
				"y": 0.4233790257,
				"z": 2.00661076,
				"element": "H" 
			},
			{
				"x": 3.4887028726,
				"y": 1.457432267,
				"z": 1.5436151584,
				"element": "H" 
			}
		],
		 "valence_orbital": [ 
			{
				"type": "occ",
				"energy": -0.26015,
				"method": "rhf"
			},
			{
				"type": "occ",
				"energy": -0.24906,
				"method": "rhf"
			},
			{
				"type": "occ",
				"energy": -0.23962,
				"method": "rhf"
			},
			{
				"type": "occ",
				"energy": -0.23346,
				"method": "rhf"
			},
			{
				"type": "occ",
				"energy": -0.19817,
				"method": "rhf"
			},
			{
				"type": "unocc",
				"energy": -0.00199,
				"method": "rhf"
			},
			{
				"type": "unocc",
				"energy": 0.00563,
				"method": "rhf"
			},
			{
				"type": "unocc",
				"energy": 0.0517,
				"method": "rhf"
			},
			{
				"type": "unocc",
				"energy": 0.08269,
				"method": "rhf"
			},
			{
				"type": "unocc",
				"energy": 0.08907,
				"method": "rhf"
			}
		],
		"cosmo_sigma_profile": { 
			"-0.025": 0.0,
			"-0.024": 0.0,
			"-0.023": 0.0,
			"-0.022": 0.0,
			"-0.021": 0.0,
			"-0.02": 0.0,
			"-0.019": 0.0,
			"-0.018": 0.0,
			"-0.017": 0.0,
			"-0.016": 0.0,
			"-0.015": 0.0,
			"-0.014": 0.0,
			"-0.013": 0.0,
			"-0.012": 0.0,
			"-0.011": 0.0,
			"-0.01": 0.0471227697187,
			"-0.009": 1.67950192548,
			"-0.008": 2.53592020939,
			"-0.007": 3.03707907596,
			"-0.006": 6.47041967041,
			"-0.005": 19.0677754166,
			"-0.004": 40.6983438575,
			"-0.003": 49.7070218349,
			"-0.002": 39.255762833,
			"-0.001": 34.1878589237,
			"0.0": 37.8070811708,
			"0.001": 30.3261867514,
			"0.002": 14.3774085844,
			"0.003": 12.3631083475,
			"0.004": 13.2954071854,
			"0.005": 12.0980356461,
			"0.006": 11.5996563483,
			"0.007": 7.69025602074,
			"0.008": 3.66954932692,
			"0.009": 1.95218293883,
			"0.01": 2.30187058393,
			"0.011": 2.76608394624,
			"0.012": 3.31006221498,
			"0.013": 3.84058654517,
			"0.014": 1.78714738921,
			"0.015": 0.567529314529,
			"0.016": 0.599856366228,
			"0.017": 0.670085901249,
			"0.018": 0.854656841652,
			"0.019": 0.578897909504,
			"0.02": 0.449832995527,
			"0.021": 0.0303701530007,
			"0.022": 0.0,
			"0.023": 0.0,
			"0.024": 0.0,
			"0.025": 0.0
		}
	}
}
