{
	 "smiles": "CN(CC(=O)NC1=CC(=C(Cl)C=C1)C(F)(F)F)C(=O)CCl", 
	 "Tm": 437.15, 
	 "num_atms": 32, 
	 "gaussian": { 
		 "optdone": 1, 
		 "sigma_profile": "yes", 
		 "theory": "DFT", 
		 "functional": "B3LYP", 
		 "basiset": "6-31G**", 
		 "properties": { 
			 "R2extent": 7801.8512, 
			 "electric_dipole_moment_norm": 4.61136458871, 
			 "electric_quadrupole_moment_norm": 12.4373907674, 
			 "total_energy": -1943.77252455, 
			 "HOMO_LUMO_gap": 0.19338, 
			 "cosmo_polarized_energy": -24.23, 
			 "cosmo_cavitation_energy": 40.52, 
			 "cosmo_dispersion_energy": -26.28, 
			 "cosmo_repulsion_energy": 1.95, 
			 "cosmo_total_nonelectrostatic_energy": 16.2, 
			 "SMD_solvation_energy": 9.03 
		},
		"coords": [
			{
				"x": 0.3633762885,
				"y": 3.8122243737,
				"z": -0.3342781449,
				"element": "C" 
			},
			{
				"x": 0.4273263592,
				"y": 2.9173804766,
				"z": 0.8219627724,
				"element": "N" 
			},
			{
				"x": -0.3811950272,
				"y": 3.3057361121,
				"z": 1.9684032696,
				"element": "C" 
			},
			{
				"x": -1.8533133311,
				"y": 3.6052978853,
				"z": 1.6270045634,
				"element": "C" 
			},
			{
				"x": -2.3616206169,
				"y": 4.6565141849,
				"z": 1.9809309384,
				"element": "O" 
			},
			{
				"x": -2.5813712816,
				"y": 2.6950245885,
				"z": 0.88499716,
				"element": "N" 
			},
			{
				"x": -2.2881179827,
				"y": 1.3615319083,
				"z": 0.5053916683,
				"element": "C" 
			},
			{
				"x": -1.8662690274,
				"y": 0.4167249771,
				"z": 1.4437881943,
				"element": "C" 
			},
			{
				"x": -1.5827793549,
				"y": -0.8991832364,
				"z": 1.0707865113,
				"element": "C" 
			},
			{
				"x": -1.790705097,
				"y": -1.2878424312,
				"z": -0.2611266259,
				"element": "C" 
			},
			{
				"x": -1.502688625,
				"y": -2.9252697624,
				"z": -0.7999357661,
				"element": "Cl" 
			},
			{
				"x": -2.2519800781,
				"y": -0.359703497,
				"z": -1.1959045846,
				"element": "C" 
			},
			{
				"x": -2.4879798017,
				"y": 0.9586914654,
				"z": -0.8197896327,
				"element": "C" 
			},
			{
				"x": -1.0869855827,
				"y": -1.8635538567,
				"z": 2.1274816504,
				"element": "C" 
			},
			{
				"x": -1.962654602,
				"y": -2.8605863106,
				"z": 2.3518138132,
				"element": "F" 
			},
			{
				"x": -0.8977472676,
				"y": -1.2244492847,
				"z": 3.3107671215,
				"element": "F" 
			},
			{
				"x": 0.090562639,
				"y": -2.4142413292,
				"z": 1.7890762277,
				"element": "F" 
			},
			{
				"x": 1.4597316225,
				"y": 1.994760287,
				"z": 0.8634321581,
				"element": "C" 
			},
			{
				"x": 2.1853475752,
				"y": 1.789303474,
				"z": -0.0926412061,
				"element": "O" 
			},
			{
				"x": 1.6471008375,
				"y": 1.254459501,
				"z": 2.2014362625,
				"element": "C" 
			},
			{
				"x": 2.9813982005,
				"y": 0.065593811,
				"z": 2.1291958136,
				"element": "Cl" 
			},
			{
				"x": 0.5677292365,
				"y": 4.8460761736,
				"z": -0.029384903,
				"element": "H" 
			},
			{
				"x": -0.6269252121,
				"y": 3.7752440008,
				"z": -0.7986061399,
				"element": "H" 
			},
			{
				"x": 1.1123536215,
				"y": 3.4874485309,
				"z": -1.0534932935,
				"element": "H" 
			},
			{
				"x": -0.3444872804,
				"y": 2.5346351975,
				"z": 2.739138667,
				"element": "H" 
			},
			{
				"x": -0.0218686554,
				"y": 4.2399566173,
				"z": 2.4180877861,
				"element": "H" 
			},
			{
				"x": -3.4871504639,
				"y": 3.0653640676,
				"z": 0.6208609526,
				"element": "H" 
			},
			{
				"x": -1.7761564863,
				"y": 0.6951478342,
				"z": 2.4857258093,
				"element": "H" 
			},
			{
				"x": -2.407878662,
				"y": -0.6735572969,
				"z": -2.2216647005,
				"element": "H" 
			},
			{
				"x": -2.8228658515,
				"y": 1.6806739893,
				"z": -1.5583016814,
				"element": "H" 
			},
			{
				"x": 0.7517342013,
				"y": 0.7020264473,
				"z": 2.4890367094,
				"element": "H" 
			},
			{
				"x": 1.8877797058,
				"y": 1.9637711017,
				"z": 2.9971086292,
				"element": "H" 
			}
		],
		 "valence_orbital": [ 
			{
				"type": "occ",
				"energy": -0.29616,
				"method": "rhf"
			},
			{
				"type": "occ",
				"energy": -0.28688,
				"method": "rhf"
			},
			{
				"type": "occ",
				"energy": -0.26843,
				"method": "rhf"
			},
			{
				"type": "occ",
				"energy": -0.263,
				"method": "rhf"
			},
			{
				"type": "occ",
				"energy": -0.25246,
				"method": "rhf"
			},
			{
				"type": "unocc",
				"energy": -0.05908,
				"method": "rhf"
			},
			{
				"type": "unocc",
				"energy": -0.051,
				"method": "rhf"
			},
			{
				"type": "unocc",
				"energy": -0.00823,
				"method": "rhf"
			},
			{
				"type": "unocc",
				"energy": 0.0067,
				"method": "rhf"
			},
			{
				"type": "unocc",
				"energy": 0.00894,
				"method": "rhf"
			}
		],
		"cosmo_sigma_profile": { 
			"-0.025": 0.0,
			"-0.024": 0.0,
			"-0.023": 0.0,
			"-0.022": 0.0,
			"-0.021": 0.0,
			"-0.02": 0.0,
			"-0.019": 0.0,
			"-0.018": 0.0,
			"-0.017": 0.00103301543208,
			"-0.016": 0.0330179854656,
			"-0.015": 0.98438072567,
			"-0.014": 1.24938580593,
			"-0.013": 2.22717908507,
			"-0.012": 2.52537251438,
			"-0.011": 2.77841876937,
			"-0.01": 4.98087509906,
			"-0.009": 7.00139523128,
			"-0.008": 9.6973829519,
			"-0.007": 9.45709791464,
			"-0.006": 14.2276096547,
			"-0.005": 14.604296407,
			"-0.004": 17.2182050041,
			"-0.003": 18.4293258453,
			"-0.002": 19.4377695638,
			"-0.001": 21.8525164387,
			"0.0": 26.6160157819,
			"0.001": 22.837933294,
			"0.002": 31.5243578555,
			"0.003": 31.4437071212,
			"0.004": 16.9443473074,
			"0.005": 9.24947885639,
			"0.006": 6.89684466659,
			"0.007": 3.01646795148,
			"0.008": 2.89771742568,
			"0.009": 3.35865381974,
			"0.01": 3.57975754135,
			"0.011": 4.43832936702,
			"0.012": 8.32348768302,
			"0.013": 7.22619331592,
			"0.014": 2.38008081073,
			"0.015": 0.150393387339,
			"0.016": 0.0,
			"0.017": 0.0,
			"0.018": 0.0,
			"0.019": 0.0,
			"0.02": 0.0,
			"0.021": 0.0,
			"0.022": 0.0,
			"0.023": 0.0,
			"0.024": 0.0,
			"0.025": 0.0
		}
	}
}
