{
	 "smiles": "NC(=O)CCC(NS(=O)(=O)C1=CC(=CC=C1)C(F)(F)F)C(O)=O", 
	 "Tm": 438.15, 
	 "num_atms": 36, 
	 "gaussian": { 
		 "optdone": 1, 
		 "sigma_profile": "yes", 
		 "theory": "DFT", 
		 "functional": "B3LYP", 
		 "basiset": "6-31G**", 
		 "properties": { 
			 "R2extent": 10835.6489, 
			 "electric_dipole_moment_norm": 3.98590435535, 
			 "electric_quadrupole_moment_norm": 56.0880528609, 
			 "total_energy": -1648.40351605, 
			 "HOMO_LUMO_gap": 0.19176, 
			 "cosmo_polarized_energy": -30.46, 
			 "cosmo_cavitation_energy": 43.64, 
			 "cosmo_dispersion_energy": -29.96, 
			 "cosmo_repulsion_energy": 2.21, 
			 "cosmo_total_nonelectrostatic_energy": 15.89, 
			 "SMD_solvation_energy": 8.54 
		},
		"coords": [
			{
				"x": -3.5861038556,
				"y": -1.6961916156,
				"z": 5.4098210716,
				"element": "N" 
			},
			{
				"x": -3.3364749119,
				"y": -1.8740883625,
				"z": 4.0772918103,
				"element": "C" 
			},
			{
				"x": -4.1731746746,
				"y": -2.326466151,
				"z": 3.3103112839,
				"element": "O" 
			},
			{
				"x": -1.9154273064,
				"y": -1.5195516724,
				"z": 3.6316484703,
				"element": "C" 
			},
			{
				"x": -1.9145856847,
				"y": -0.9355318606,
				"z": 2.213313899,
				"element": "C" 
			},
			{
				"x": -0.5246785937,
				"y": -0.8962344043,
				"z": 1.5576224048,
				"element": "C" 
			},
			{
				"x": -0.5849829489,
				"y": -0.8645892437,
				"z": 0.080659764,
				"element": "N" 
			},
			{
				"x": -1.4909416724,
				"y": 0.4415951528,
				"z": -0.5846560804,
				"element": "S" 
			},
			{
				"x": -2.81963146,
				"y": -0.0563036941,
				"z": -0.939940639,
				"element": "O" 
			},
			{
				"x": -1.3643986689,
				"y": 1.626200956,
				"z": 0.2799664434,
				"element": "O" 
			},
			{
				"x": -0.562519195,
				"y": 0.7252913272,
				"z": -2.098890719,
				"element": "C" 
			},
			{
				"x": 0.6216957453,
				"y": 1.4627311767,
				"z": -2.0412571354,
				"element": "C" 
			},
			{
				"x": 1.318335709,
				"y": 1.6914383766,
				"z": -3.2273346485,
				"element": "C" 
			},
			{
				"x": 0.8297108823,
				"y": 1.1980699478,
				"z": -4.4428595097,
				"element": "C" 
			},
			{
				"x": -0.3598423493,
				"y": 0.4729780782,
				"z": -4.4784822266,
				"element": "C" 
			},
			{
				"x": -1.0690074677,
				"y": 0.2315392365,
				"z": -3.3001630985,
				"element": "C" 
			},
			{
				"x": 2.5770030405,
				"y": 2.5212921485,
				"z": -3.220891194,
				"element": "C" 
			},
			{
				"x": 3.138858732,
				"y": 2.5766460476,
				"z": -1.9974009377,
				"element": "F" 
			},
			{
				"x": 2.3303852561,
				"y": 3.7921640399,
				"z": -3.6091692489,
				"element": "F" 
			},
			{
				"x": 3.4982351435,
				"y": 2.0225672594,
				"z": -4.0755861504,
				"element": "F" 
			},
			{
				"x": 0.4560364762,
				"y": 0.1842825871,
				"z": 2.0440640787,
				"element": "C" 
			},
			{
				"x": 0.2332916014,
				"y": 0.6100181999,
				"z": 3.3006023251,
				"element": "O" 
			},
			{
				"x": 1.3974570809,
				"y": 0.5642585329,
				"z": 1.3788948085,
				"element": "O" 
			},
			{
				"x": -2.9424721843,
				"y": -1.2192000081,
				"z": 6.0192956147,
				"element": "H" 
			},
			{
				"x": -4.5165162438,
				"y": -1.8964450668,
				"z": 5.7450719179,
				"element": "H" 
			},
			{
				"x": -1.4331383096,
				"y": -0.8432697179,
				"z": 4.3422054051,
				"element": "H" 
			},
			{
				"x": -1.3439894918,
				"y": -2.458643957,
				"z": 3.6480317059,
				"element": "H" 
			},
			{
				"x": -2.5597278012,
				"y": -1.5623171262,
				"z": 1.5924781843,
				"element": "H" 
			},
			{
				"x": -2.3516652968,
				"y": 0.0667183723,
				"z": 2.2201984682,
				"element": "H" 
			},
			{
				"x": -0.0202017843,
				"y": -1.8474737456,
				"z": 1.7839368671,
				"element": "H" 
			},
			{
				"x": 0.3692956461,
				"y": -0.7579995442,
				"z": -0.2669117121,
				"element": "H" 
			},
			{
				"x": 0.992584765,
				"y": 1.8389050906,
				"z": -1.0940225392,
				"element": "H" 
			},
			{
				"x": 1.3864914494,
				"y": 1.3801561499,
				"z": -5.3561081356,
				"element": "H" 
			},
			{
				"x": -0.7360286022,
				"y": 0.0946226292,
				"z": -5.4234873065,
				"element": "H" 
			},
			{
				"x": -2.0012241314,
				"y": -0.3226203298,
				"z": -3.2995130038,
				"element": "H" 
			},
			{
				"x": 0.9280511067,
				"y": 1.2629511907,
				"z": 3.4948597626,
				"element": "H" 
			}
		],
		 "valence_orbital": [ 
			{
				"type": "occ",
				"energy": -0.29,
				"method": "rhf"
			},
			{
				"type": "occ",
				"energy": -0.28827,
				"method": "rhf"
			},
			{
				"type": "occ",
				"energy": -0.27197,
				"method": "rhf"
			},
			{
				"type": "occ",
				"energy": -0.26875,
				"method": "rhf"
			},
			{
				"type": "occ",
				"energy": -0.24882,
				"method": "rhf"
			},
			{
				"type": "unocc",
				"energy": -0.05706,
				"method": "rhf"
			},
			{
				"type": "unocc",
				"energy": -0.04441,
				"method": "rhf"
			},
			{
				"type": "unocc",
				"energy": -0.01028,
				"method": "rhf"
			},
			{
				"type": "unocc",
				"energy": 0.02663,
				"method": "rhf"
			},
			{
				"type": "unocc",
				"energy": 0.05255,
				"method": "rhf"
			}
		],
		"cosmo_sigma_profile": { 
			"-0.025": 0.0,
			"-0.024": 0.0,
			"-0.023": 0.0,
			"-0.022": 0.0,
			"-0.021": 0.0,
			"-0.02": 0.0,
			"-0.019": 0.569286170636,
			"-0.018": 1.13474691653,
			"-0.017": 0.822789421264,
			"-0.016": 0.710714745768,
			"-0.015": 0.870904835023,
			"-0.014": 2.7142238138,
			"-0.013": 3.38903112574,
			"-0.012": 4.20533932654,
			"-0.011": 3.49043952069,
			"-0.01": 5.32619318607,
			"-0.009": 7.76624781916,
			"-0.008": 12.141097907,
			"-0.007": 13.6112963143,
			"-0.006": 13.0981455609,
			"-0.005": 12.7145604288,
			"-0.004": 14.7838748504,
			"-0.003": 16.172085107,
			"-0.002": 18.267391804,
			"-0.001": 21.8410583236,
			"0.0": 27.3689518493,
			"0.001": 23.3797117024,
			"0.002": 32.9308332683,
			"0.003": 28.9370543634,
			"0.004": 8.32822496601,
			"0.005": 7.90364567464,
			"0.006": 8.29368152255,
			"0.007": 7.38191380926,
			"0.008": 6.17122428565,
			"0.009": 8.0644075512,
			"0.01": 12.4487946474,
			"0.011": 9.27129689551,
			"0.012": 2.50409915104,
			"0.013": 3.60605014618,
			"0.014": 5.42260671153,
			"0.015": 0.748493158167,
			"0.016": 0.0,
			"0.017": 0.0,
			"0.018": 0.0,
			"0.019": 0.0,
			"0.02": 0.0,
			"0.021": 0.0,
			"0.022": 0.0,
			"0.023": 0.0,
			"0.024": 0.0,
			"0.025": 0.0
		}
	}
}
