{
	 "smiles": "OC(=O)C1C2CCC(O2)C1C(O)=O", 
	 "Tm": 417.15, 
	 "num_atms": 23, 
	 "gaussian": { 
		 "optdone": 1, 
		 "sigma_profile": "yes", 
		 "theory": "DFT", 
		 "functional": "B3LYP", 
		 "basiset": "6-31G**", 
		 "properties": { 
			 "R2extent": 2171.546, 
			 "electric_dipole_moment_norm": 5.91366015341, 
			 "electric_quadrupole_moment_norm": 19.2347447584, 
			 "total_energy": -687.003880196, 
			 "HOMO_LUMO_gap": 0.25157, 
			 "cosmo_polarized_energy": -19.45, 
			 "cosmo_cavitation_energy": 25.16, 
			 "cosmo_dispersion_energy": -18.77, 
			 "cosmo_repulsion_energy": 1.48, 
			 "cosmo_total_nonelectrostatic_energy": 7.88, 
			 "SMD_solvation_energy": 5.79 
		},
		"coords": [
			{
				"x": -0.41818531,
				"y": -1.8780566892,
				"z": -1.6521591581,
				"element": "O" 
			},
			{
				"x": -1.2465156194,
				"y": -1.9942262635,
				"z": -0.5895706081,
				"element": "C" 
			},
			{
				"x": -1.7104000534,
				"y": -3.0582391961,
				"z": -0.2623011831,
				"element": "O" 
			},
			{
				"x": -1.5685651044,
				"y": -0.6805725513,
				"z": 0.1303474816,
				"element": "C" 
			},
			{
				"x": -2.036834354,
				"y": 0.3959678529,
				"z": -0.8860039326,
				"element": "C" 
			},
			{
				"x": -2.6094567722,
				"y": 1.6329883546,
				"z": -0.1663262499,
				"element": "C" 
			},
			{
				"x": -1.3063449947,
				"y": 2.339664037,
				"z": 0.315463875,
				"element": "C" 
			},
			{
				"x": -0.2366458106,
				"y": 1.3288440065,
				"z": -0.1349796864,
				"element": "C" 
			},
			{
				"x": -0.7687199048,
				"y": 0.8675220128,
				"z": -1.4015055171,
				"element": "O" 
			},
			{
				"x": -0.316843871,
				"y": 0.0630313293,
				"z": 0.7592561521,
				"element": "C" 
			},
			{
				"x": 0.9363142177,
				"y": -0.7964423615,
				"z": 0.8282706028,
				"element": "C" 
			},
			{
				"x": 1.8479717966,
				"y": -0.4894879312,
				"z": -0.1253428019,
				"element": "O" 
			},
			{
				"x": 1.110727363,
				"y": -1.666532488,
				"z": 1.6490687104,
				"element": "O" 
			},
			{
				"x": -0.2013879444,
				"y": -0.9334320989,
				"z": -1.794109009,
				"element": "H" 
			},
			{
				"x": -2.3170993996,
				"y": -0.9143362118,
				"z": 0.8872867813,
				"element": "H" 
			},
			{
				"x": -2.6405800682,
				"y": 0.0104106861,
				"z": -1.7085063974,
				"element": "H" 
			},
			{
				"x": -3.280237658,
				"y": 1.3573941668,
				"z": 0.6518418931,
				"element": "H" 
			},
			{
				"x": -3.1701560128,
				"y": 2.2579812403,
				"z": -0.8651537401,
				"element": "H" 
			},
			{
				"x": -1.2845945642,
				"y": 2.5243937103,
				"z": 1.3927278096,
				"element": "H" 
			},
			{
				"x": -1.1608236631,
				"y": 3.2939263871,
				"z": -0.1962126061,
				"element": "H" 
			},
			{
				"x": 0.7653935566,
				"y": 1.724174159,
				"z": -0.2883423559,
				"element": "H" 
			},
			{
				"x": -0.543639336,
				"y": 0.3149290934,
				"z": 1.7981507787,
				"element": "H" 
			},
			{
				"x": 2.5784235068,
				"y": -1.1224012447,
				"z": -0.0173008391,
				"element": "H" 
			}
		],
		 "valence_orbital": [ 
			{
				"type": "occ",
				"energy": -0.33054,
				"method": "rhf"
			},
			{
				"type": "occ",
				"energy": -0.30824,
				"method": "rhf"
			},
			{
				"type": "occ",
				"energy": -0.29772,
				"method": "rhf"
			},
			{
				"type": "occ",
				"energy": -0.28373,
				"method": "rhf"
			},
			{
				"type": "occ",
				"energy": -0.26096,
				"method": "rhf"
			},
			{
				"type": "unocc",
				"energy": -0.00939,
				"method": "rhf"
			},
			{
				"type": "unocc",
				"energy": 0.00961,
				"method": "rhf"
			},
			{
				"type": "unocc",
				"energy": 0.04611,
				"method": "rhf"
			},
			{
				"type": "unocc",
				"energy": 0.06715,
				"method": "rhf"
			},
			{
				"type": "unocc",
				"energy": 0.08043,
				"method": "rhf"
			}
		],
		"cosmo_sigma_profile": { 
			"-0.025": 0.0,
			"-0.024": 0.0,
			"-0.023": 0.0,
			"-0.022": 0.0,
			"-0.021": 0.0,
			"-0.02": 0.0,
			"-0.019": 0.415354135018,
			"-0.018": 0.799560131269,
			"-0.017": 1.12567728542,
			"-0.016": 0.952259025987,
			"-0.015": 0.879269604581,
			"-0.014": 0.20010130073,
			"-0.013": 0.442058550171,
			"-0.012": 0.959918022033,
			"-0.011": 0.594359779762,
			"-0.01": 0.783061141564,
			"-0.009": 1.24508772379,
			"-0.008": 5.6897194829,
			"-0.007": 13.8390905932,
			"-0.006": 14.2002471136,
			"-0.005": 14.4795471564,
			"-0.004": 17.3769243844,
			"-0.003": 14.2559489648,
			"-0.002": 12.5095524728,
			"-0.001": 10.7940490799,
			"0.0": 7.68238248501,
			"0.001": 5.96321837554,
			"0.002": 5.30302119313,
			"0.003": 5.79945876425,
			"0.004": 6.21337175052,
			"0.005": 5.42022586483,
			"0.006": 4.96856316546,
			"0.007": 4.93822707297,
			"0.008": 4.27616900264,
			"0.009": 5.9258275852,
			"0.01": 7.70495964817,
			"0.011": 12.1490457491,
			"0.012": 7.44535837065,
			"0.013": 1.8008073879,
			"0.014": 0.00183803417136,
			"0.015": 0.0,
			"0.016": 0.0,
			"0.017": 0.0,
			"0.018": 0.0,
			"0.019": 0.0,
			"0.02": 0.0,
			"0.021": 0.0,
			"0.022": 0.0,
			"0.023": 0.0,
			"0.024": 0.0,
			"0.025": 0.0
		}
	}
}
