{
	 "smiles": "CCOC(=O)C1=C(C=CC=C1)C(=O)OCC", 
	 "Tm": 232.65, 
	 "num_atms": 30, 
	 "gaussian": { 
		 "optdone": 1, 
		 "sigma_profile": "yes", 
		 "theory": "DFT", 
		 "functional": "B3LYP", 
		 "basiset": "6-31G**", 
		 "properties": { 
			 "R2extent": 4027.5439, 
			 "electric_dipole_moment_norm": 3.17972168122, 
			 "electric_quadrupole_moment_norm": 15.8088143246, 
			 "total_energy": -766.638921476, 
			 "HOMO_LUMO_gap": 0.20291, 
			 "cosmo_polarized_energy": -11.45, 
			 "cosmo_cavitation_energy": 34.15, 
			 "cosmo_dispersion_energy": -23.47, 
			 "cosmo_repulsion_energy": 1.85, 
			 "cosmo_total_nonelectrostatic_energy": 12.54, 
			 "SMD_solvation_energy": 7.63 
		},
		"coords": [
			{
				"x": 1.5857881729,
				"y": -3.5952781418,
				"z": -0.1803135208,
				"element": "C" 
			},
			{
				"x": 0.4534988658,
				"y": -3.5358656482,
				"z": -1.1941825225,
				"element": "C" 
			},
			{
				"x": 0.3123431839,
				"y": -2.2016514897,
				"z": -1.7391124899,
				"element": "O" 
			},
			{
				"x": -0.4886632138,
				"y": -1.3522164406,
				"z": -1.0563106357,
				"element": "C" 
			},
			{
				"x": -1.0695435885,
				"y": -1.6463310352,
				"z": -0.031063061,
				"element": "O" 
			},
			{
				"x": -0.6178863816,
				"y": -0.035431132,
				"z": -1.755983065,
				"element": "C" 
			},
			{
				"x": -0.9150301743,
				"y": 1.1445394474,
				"z": -1.0434348606,
				"element": "C" 
			},
			{
				"x": -1.2046899941,
				"y": 2.3174422976,
				"z": -1.7481354471,
				"element": "C" 
			},
			{
				"x": -1.1657782745,
				"y": 2.3421584269,
				"z": -3.1415387846,
				"element": "C" 
			},
			{
				"x": -0.8396998795,
				"y": 1.1838721319,
				"z": -3.846936225,
				"element": "C" 
			},
			{
				"x": -0.5729137772,
				"y": 0.0028412193,
				"z": -3.1560004436,
				"element": "C" 
			},
			{
				"x": -0.9058435289,
				"y": 1.2643552727,
				"z": 0.453837749,
				"element": "C" 
			},
			{
				"x": -1.7314744807,
				"y": 1.9036757837,
				"z": 1.0740570502,
				"element": "O" 
			},
			{
				"x": 0.1760288323,
				"y": 0.6813578081,
				"z": 1.002018008,
				"element": "O" 
			},
			{
				"x": 0.2703581631,
				"y": 0.7300091028,
				"z": 2.4473499264,
				"element": "C" 
			},
			{
				"x": -0.5733005957,
				"y": -0.3537914377,
				"z": 3.1016042303,
				"element": "C" 
			},
			{
				"x": 1.7206457657,
				"y": -4.6254003989,
				"z": 0.1660476508,
				"element": "H" 
			},
			{
				"x": 1.3587057323,
				"y": -2.9683932786,
				"z": 0.6853548759,
				"element": "H" 
			},
			{
				"x": 2.5254809365,
				"y": -3.2553324067,
				"z": -0.6251562905,
				"element": "H" 
			},
			{
				"x": -0.4961385254,
				"y": -3.8359361206,
				"z": -0.7453287226,
				"element": "H" 
			},
			{
				"x": 0.6612561173,
				"y": -4.1646247259,
				"z": -2.0634628892,
				"element": "H" 
			},
			{
				"x": -1.4522583426,
				"y": 3.210278497,
				"z": -1.1838608252,
				"element": "H" 
			},
			{
				"x": -1.3873384643,
				"y": 3.2632441456,
				"z": -3.672349208,
				"element": "H" 
			},
			{
				"x": -0.8052426165,
				"y": 1.1941588534,
				"z": -4.9322343231,
				"element": "H" 
			},
			{
				"x": -0.3455759578,
				"y": -0.9087013269,
				"z": -3.6965519265,
				"element": "H" 
			},
			{
				"x": -0.0320232407,
				"y": 1.7248608593,
				"z": 2.7841368141,
				"element": "H" 
			},
			{
				"x": 1.3350400963,
				"y": 0.5880682728,
				"z": 2.6478338501,
				"element": "H" 
			},
			{
				"x": -1.635054006,
				"y": -0.1773249778,
				"z": 2.917211133,
				"element": "H" 
			},
			{
				"x": -0.3142404066,
				"y": -1.3396549081,
				"z": 2.708154461,
				"element": "H" 
			},
			{
				"x": -0.4025504177,
				"y": -0.3479286502,
				"z": 4.1836494922,
				"element": "H" 
			}
		],
		 "valence_orbital": [ 
			{
				"type": "occ",
				"energy": -0.28883,
				"method": "rhf"
			},
			{
				"type": "occ",
				"energy": -0.2801,
				"method": "rhf"
			},
			{
				"type": "occ",
				"energy": -0.27443,
				"method": "rhf"
			},
			{
				"type": "occ",
				"energy": -0.26287,
				"method": "rhf"
			},
			{
				"type": "occ",
				"energy": -0.25569,
				"method": "rhf"
			},
			{
				"type": "unocc",
				"energy": -0.05278,
				"method": "rhf"
			},
			{
				"type": "unocc",
				"energy": -0.02456,
				"method": "rhf"
			},
			{
				"type": "unocc",
				"energy": 0.03517,
				"method": "rhf"
			},
			{
				"type": "unocc",
				"energy": 0.04831,
				"method": "rhf"
			},
			{
				"type": "unocc",
				"energy": 0.09048,
				"method": "rhf"
			}
		],
		"cosmo_sigma_profile": { 
			"-0.025": 0.0,
			"-0.024": 0.0,
			"-0.023": 0.0,
			"-0.022": 0.0,
			"-0.021": 0.0,
			"-0.02": 0.0,
			"-0.019": 0.0,
			"-0.018": 0.0,
			"-0.017": 0.0,
			"-0.016": 0.0,
			"-0.015": 0.0,
			"-0.014": 0.0,
			"-0.013": 0.0,
			"-0.012": 0.0,
			"-0.011": 0.0,
			"-0.01": 0.0,
			"-0.009": 0.0,
			"-0.008": 0.239315581227,
			"-0.007": 5.14869143871,
			"-0.006": 11.4746329061,
			"-0.005": 18.8537706122,
			"-0.004": 24.4322495057,
			"-0.003": 29.3326908629,
			"-0.002": 25.6818014249,
			"-0.001": 23.5698159001,
			"0.0": 26.0220504267,
			"0.001": 19.570885029,
			"0.002": 21.0289420005,
			"0.003": 16.7103284369,
			"0.004": 9.89535973236,
			"0.005": 7.04334208844,
			"0.006": 6.33177428759,
			"0.007": 5.75199753619,
			"0.008": 3.61928354021,
			"0.009": 2.99270126298,
			"0.01": 3.4497828962,
			"0.011": 5.13503075964,
			"0.012": 3.94210718922,
			"0.013": 0.269709673254,
			"0.014": 0.0,
			"0.015": 0.0,
			"0.016": 0.0,
			"0.017": 0.0,
			"0.018": 0.0,
			"0.019": 0.0,
			"0.02": 0.0,
			"0.021": 0.0,
			"0.022": 0.0,
			"0.023": 0.0,
			"0.024": 0.0,
			"0.025": 0.0
		}
	}
}
