{
	 "smiles": "NC1=C(N)C=C(C=C1)S(=O)(=O)NC1=CC=C(Cl)C=C1", 
	 "Tm": 421.15, 
	 "num_atms": 31, 
	 "gaussian": { 
		 "optdone": 1, 
		 "sigma_profile": "yes", 
		 "theory": "DFT", 
		 "functional": "B3LYP", 
		 "basiset": "6-31G**", 
		 "properties": { 
			 "R2extent": 9542.7716, 
			 "electric_dipole_moment_norm": 8.05448322489, 
			 "electric_quadrupole_moment_norm": 16.0402051539, 
			 "total_energy": -1637.52963689, 
			 "HOMO_LUMO_gap": 0.18673, 
			 "cosmo_polarized_energy": -23.67, 
			 "cosmo_cavitation_energy": 38.75, 
			 "cosmo_dispersion_energy": -28.48, 
			 "cosmo_repulsion_energy": 2.16, 
			 "cosmo_total_nonelectrostatic_energy": 12.43, 
			 "SMD_solvation_energy": 5.39 
		},
		"coords": [
			{
				"x": 1.0133082641,
				"y": 5.0697470084,
				"z": 0.1231441702,
				"element": "N" 
			},
			{
				"x": 0.8571242314,
				"y": 3.6968213067,
				"z": 0.2997898559,
				"element": "C" 
			},
			{
				"x": -0.4465782579,
				"y": 3.1535978828,
				"z": 0.1349038961,
				"element": "C" 
			},
			{
				"x": -1.4740437858,
				"y": 4.0365109789,
				"z": -0.2483189276,
				"element": "N" 
			},
			{
				"x": -0.6433570153,
				"y": 1.7885538935,
				"z": 0.3099989494,
				"element": "C" 
			},
			{
				"x": 0.4373095213,
				"y": 0.966682735,
				"z": 0.6555290861,
				"element": "C" 
			},
			{
				"x": 1.711181177,
				"y": 1.4913673976,
				"z": 0.8633446007,
				"element": "C" 
			},
			{
				"x": 1.9117468451,
				"y": 2.8586316693,
				"z": 0.6778548825,
				"element": "C" 
			},
			{
				"x": 0.1588911845,
				"y": -0.7739779722,
				"z": 0.8898044394,
				"element": "S" 
			},
			{
				"x": 1.3714397139,
				"y": -1.3650906329,
				"z": 1.4695994871,
				"element": "O" 
			},
			{
				"x": -1.145142909,
				"y": -1.0001076267,
				"z": 1.5195766371,
				"element": "O" 
			},
			{
				"x": -0.021454393,
				"y": -1.2529510234,
				"z": -0.7632473952,
				"element": "N" 
			},
			{
				"x": -0.3914065343,
				"y": -2.5995719001,
				"z": -1.0584788192,
				"element": "C" 
			},
			{
				"x": -1.6210386011,
				"y": -3.1152329921,
				"z": -0.6242356668,
				"element": "C" 
			},
			{
				"x": -1.9952800836,
				"y": -4.4113495374,
				"z": -0.9698235774,
				"element": "C" 
			},
			{
				"x": -1.1551728743,
				"y": -5.185350694,
				"z": -1.7703065691,
				"element": "C" 
			},
			{
				"x": -1.6423487029,
				"y": -6.8138052691,
				"z": -2.2225661135,
				"element": "Cl" 
			},
			{
				"x": 0.0645509355,
				"y": -4.683354152,
				"z": -2.2189027302,
				"element": "C" 
			},
			{
				"x": 0.4476346648,
				"y": -3.3956762468,
				"z": -1.8483705869,
				"element": "C" 
			},
			{
				"x": 1.9726499778,
				"y": 5.3840334507,
				"z": 0.0630472156,
				"element": "H" 
			},
			{
				"x": 0.4408788302,
				"y": 5.4477486331,
				"z": -0.6241579338,
				"element": "H" 
			},
			{
				"x": -1.5096020426,
				"y": 4.8664003141,
				"z": 0.3372934822,
				"element": "H" 
			},
			{
				"x": -2.3859824375,
				"y": 3.5967097772,
				"z": -0.2783416755,
				"element": "H" 
			},
			{
				"x": -1.6342150742,
				"y": 1.3596392054,
				"z": 0.1975638372,
				"element": "H" 
			},
			{
				"x": 2.5241517831,
				"y": 0.8395362676,
				"z": 1.1613010024,
				"element": "H" 
			},
			{
				"x": 2.9020603793,
				"y": 3.283748111,
				"z": 0.818807212,
				"element": "H" 
			},
			{
				"x": 0.830833395,
				"y": -0.9821609866,
				"z": -1.2497329824,
				"element": "H" 
			},
			{
				"x": -2.2712136261,
				"y": -2.5020597168,
				"z": -0.0132987316,
				"element": "H" 
			},
			{
				"x": -2.9428786425,
				"y": -4.8141962925,
				"z": -0.6298993063,
				"element": "H" 
			},
			{
				"x": 0.7131529455,
				"y": -5.2939515923,
				"z": -2.8370125175,
				"element": "H" 
			},
			{
				"x": 1.4083011316,
				"y": -3.0087919962,
				"z": -2.1783652207,
				"element": "H" 
			}
		],
		 "valence_orbital": [ 
			{
				"type": "occ",
				"energy": -0.28432,
				"method": "rhf"
			},
			{
				"type": "occ",
				"energy": -0.26105,
				"method": "rhf"
			},
			{
				"type": "occ",
				"energy": -0.24863,
				"method": "rhf"
			},
			{
				"type": "occ",
				"energy": -0.22305,
				"method": "rhf"
			},
			{
				"type": "occ",
				"energy": -0.21633,
				"method": "rhf"
			},
			{
				"type": "unocc",
				"energy": -0.0296,
				"method": "rhf"
			},
			{
				"type": "unocc",
				"energy": -0.01185,
				"method": "rhf"
			},
			{
				"type": "unocc",
				"energy": -0.00878,
				"method": "rhf"
			},
			{
				"type": "unocc",
				"energy": -0.00818,
				"method": "rhf"
			},
			{
				"type": "unocc",
				"energy": 0.03363,
				"method": "rhf"
			}
		],
		"cosmo_sigma_profile": { 
			"-0.025": 0.0,
			"-0.024": 0.0,
			"-0.023": 0.0,
			"-0.022": 0.0,
			"-0.021": 0.0,
			"-0.02": 0.0,
			"-0.019": 0.0,
			"-0.018": 0.0,
			"-0.017": 0.0,
			"-0.016": 0.177797425376,
			"-0.015": 1.01728824863,
			"-0.014": 1.42366330642,
			"-0.013": 2.82948662858,
			"-0.012": 4.90652943013,
			"-0.011": 6.39394123476,
			"-0.01": 8.12723414562,
			"-0.009": 7.15707874475,
			"-0.008": 7.36452688603,
			"-0.007": 12.2905231388,
			"-0.006": 13.3088995375,
			"-0.005": 14.8831054988,
			"-0.004": 11.2020399274,
			"-0.003": 11.2824533373,
			"-0.002": 13.4218987264,
			"-0.001": 12.1799573739,
			"0.0": 16.5015151377,
			"0.001": 20.0925605488,
			"0.002": 25.7893600226,
			"0.003": 34.9788452186,
			"0.004": 27.7131332608,
			"0.005": 15.3135334155,
			"0.006": 5.7831646705,
			"0.007": 4.04871416058,
			"0.008": 6.01682173397,
			"0.009": 5.41953256363,
			"0.01": 8.13772469184,
			"0.011": 8.68530252627,
			"0.012": 3.98522821234,
			"0.013": 0.961200978747,
			"0.014": 0.0570905526054,
			"0.015": 0.0,
			"0.016": 0.0,
			"0.017": 0.0,
			"0.018": 0.0,
			"0.019": 0.0,
			"0.02": 0.0,
			"0.021": 0.0,
			"0.022": 0.0,
			"0.023": 0.0,
			"0.024": 0.0,
			"0.025": 0.0
		}
	}
}
