{
	 "smiles": "NC1=CC=C(F)C=C1F", 
	 "Tm": 265.4, 
	 "num_atms": 14, 
	 "gaussian": { 
		 "optdone": 1, 
		 "sigma_profile": "yes", 
		 "theory": "DFT", 
		 "functional": "B3LYP", 
		 "basiset": "6-31G**", 
		 "properties": { 
			 "R2extent": 1245.8659, 
			 "electric_dipole_moment_norm": 2.48306515017, 
			 "electric_quadrupole_moment_norm": 6.65366712873, 
			 "total_energy": -486.070072444, 
			 "HOMO_LUMO_gap": 0.19743, 
			 "cosmo_polarized_energy": -6.98, 
			 "cosmo_cavitation_energy": 19.0, 
			 "cosmo_dispersion_energy": -14.07, 
			 "cosmo_repulsion_energy": 1.11, 
			 "cosmo_total_nonelectrostatic_energy": 6.04, 
			 "SMD_solvation_energy": 4.24 
		},
		"coords": [
			{
				"x": 0.8274556399,
				"y": 1.0388332057,
				"z": -2.2120344027,
				"element": "N" 
			},
			{
				"x": 0.6975858677,
				"y": 0.5804755746,
				"z": -0.899405379,
				"element": "C" 
			},
			{
				"x": 0.3722438796,
				"y": 1.4175914908,
				"z": 0.1774510899,
				"element": "C" 
			},
			{
				"x": 0.1915202126,
				"y": 0.9089666622,
				"z": 1.4653661222,
				"element": "C" 
			},
			{
				"x": 0.3330930389,
				"y": -0.4552718603,
				"z": 1.6807638851,
				"element": "C" 
			},
			{
				"x": 0.1583923827,
				"y": -0.9571006924,
				"z": 2.9236659122,
				"element": "F" 
			},
			{
				"x": 0.6569275968,
				"y": -1.32647504,
				"z": 0.6446373851,
				"element": "C" 
			},
			{
				"x": 0.8317664386,
				"y": -0.7874551796,
				"z": -0.6189006934,
				"element": "C" 
			},
			{
				"x": 1.164023446,
				"y": -1.6046126252,
				"z": -1.6514555456,
				"element": "F" 
			},
			{
				"x": 1.3324682927,
				"y": 0.4033352407,
				"z": -2.8148838739,
				"element": "H" 
			},
			{
				"x": 1.1596847136,
				"y": 1.989618466,
				"z": -2.2968420621,
				"element": "H" 
			},
			{
				"x": 0.2540406114,
				"y": 2.4827887043,
				"z": -0.000506119,
				"element": "H" 
			},
			{
				"x": -0.0590598151,
				"y": 1.5599983056,
				"z": 2.29528896,
				"element": "H" 
			},
			{
				"x": 0.7745576947,
				"y": -2.3897922523,
				"z": 0.8147547214,
				"element": "H" 
			}
		],
		 "valence_orbital": [ 
			{
				"type": "occ",
				"energy": -0.36764,
				"method": "rhf"
			},
			{
				"type": "occ",
				"energy": -0.35693,
				"method": "rhf"
			},
			{
				"type": "occ",
				"energy": -0.30762,
				"method": "rhf"
			},
			{
				"type": "occ",
				"energy": -0.25435,
				"method": "rhf"
			},
			{
				"type": "occ",
				"energy": -0.20495,
				"method": "rhf"
			},
			{
				"type": "unocc",
				"energy": -0.00752,
				"method": "rhf"
			},
			{
				"type": "unocc",
				"energy": 0.01674,
				"method": "rhf"
			},
			{
				"type": "unocc",
				"energy": 0.07591,
				"method": "rhf"
			},
			{
				"type": "unocc",
				"energy": 0.08599,
				"method": "rhf"
			},
			{
				"type": "unocc",
				"energy": 0.13184,
				"method": "rhf"
			}
		],
		"cosmo_sigma_profile": { 
			"-0.025": 0.0,
			"-0.024": 0.0,
			"-0.023": 0.0,
			"-0.022": 0.0,
			"-0.021": 0.0,
			"-0.02": 0.0,
			"-0.019": 0.0,
			"-0.018": 0.0,
			"-0.017": 0.0,
			"-0.016": 0.0,
			"-0.015": 0.0,
			"-0.014": 0.0,
			"-0.013": 0.559247836139,
			"-0.012": 1.91819123594,
			"-0.011": 2.40728070579,
			"-0.01": 3.03545494704,
			"-0.009": 2.6880637962,
			"-0.008": 3.83612845407,
			"-0.007": 6.04560278465,
			"-0.006": 5.73692453087,
			"-0.005": 7.31807062768,
			"-0.004": 6.65476072152,
			"-0.003": 4.46665461894,
			"-0.002": 5.93727861935,
			"-0.001": 5.78013603191,
			"0.0": 8.26533092143,
			"0.001": 13.076433195,
			"0.002": 16.8737429068,
			"0.003": 17.6988134112,
			"0.004": 20.4234903515,
			"0.005": 12.8057373203,
			"0.006": 0.932433420811,
			"0.007": 1.02475462801,
			"0.008": 0.757676505008,
			"0.009": 0.70441144943,
			"0.01": 0.674973274433,
			"0.011": 0.504993592651,
			"0.012": 0.45527818754,
			"0.013": 0.946693290794,
			"0.014": 0.474252911461,
			"0.015": 0.170980420427,
			"0.016": 0.0,
			"0.017": 0.0,
			"0.018": 0.0,
			"0.019": 0.0,
			"0.02": 0.0,
			"0.021": 0.0,
			"0.022": 0.0,
			"0.023": 0.0,
			"0.024": 0.0,
			"0.025": 0.0
		}
	}
}
