{
	 "smiles": "COC1=CC=C(C=C1O)C(O)=O", 
	 "Tm": 525.15, 
	 "num_atms": 20, 
	 "gaussian": { 
		 "optdone": 1, 
		 "sigma_profile": "yes", 
		 "theory": "DFT", 
		 "functional": "B3LYP", 
		 "basiset": "6-31G**", 
		 "properties": { 
			 "R2extent": 3154.7746, 
			 "electric_dipole_moment_norm": 3.49899350242, 
			 "electric_quadrupole_moment_norm": 21.7712695206, 
			 "total_energy": -610.553306094, 
			 "HOMO_LUMO_gap": 0.18783, 
			 "cosmo_polarized_energy": -17.8, 
			 "cosmo_cavitation_energy": 24.58, 
			 "cosmo_dispersion_energy": -18.32, 
			 "cosmo_repulsion_energy": 1.46, 
			 "cosmo_total_nonelectrostatic_energy": 7.73, 
			 "SMD_solvation_energy": 6.64 
		},
		"coords": [
			{
				"x": -2.2563833652,
				"y": 0.5490373474,
				"z": -0.6102753819,
				"element": "C" 
			},
			{
				"x": -0.9066184328,
				"y": 0.6244187295,
				"z": -1.0884362199,
				"element": "O" 
			},
			{
				"x": 0.039554059,
				"y": -0.1219657517,
				"z": -0.449258077,
				"element": "C" 
			},
			{
				"x": 1.1786171915,
				"y": 0.5352445186,
				"z": 0.020263933,
				"element": "C" 
			},
			{
				"x": 2.2217319579,
				"y": -0.1654291862,
				"z": 0.6223116629,
				"element": "C" 
			},
			{
				"x": 2.1302753934,
				"y": -1.5541448887,
				"z": 0.7762770002,
				"element": "C" 
			},
			{
				"x": 0.9836931263,
				"y": -2.2180041378,
				"z": 0.3208071425,
				"element": "C" 
			},
			{
				"x": -0.0487349461,
				"y": -1.5262144956,
				"z": -0.3037700064,
				"element": "C" 
			},
			{
				"x": -1.1534529156,
				"y": -2.1538772948,
				"z": -0.805711204,
				"element": "O" 
			},
			{
				"x": 3.1857878733,
				"y": -2.3891368976,
				"z": 1.4295143942,
				"element": "C" 
			},
			{
				"x": 4.4238100353,
				"y": -1.836646148,
				"z": 1.5402191683,
				"element": "O" 
			},
			{
				"x": 2.9859797263,
				"y": -3.5067301569,
				"z": 1.8480060526,
				"element": "O" 
			},
			{
				"x": -2.3014894632,
				"y": 0.7900428816,
				"z": 0.4589607595,
				"element": "H" 
			},
			{
				"x": -2.6929323011,
				"y": -0.4367394849,
				"z": -0.7823959759,
				"element": "H" 
			},
			{
				"x": -2.8093633888,
				"y": 1.3037551732,
				"z": -1.1720563209,
				"element": "H" 
			},
			{
				"x": 1.2193223494,
				"y": 1.6129978752,
				"z": -0.0967728378,
				"element": "H" 
			},
			{
				"x": 3.0687286393,
				"y": 0.3923209187,
				"z": 1.0130443116,
				"element": "H" 
			},
			{
				"x": 0.9266448151,
				"y": -3.2950841115,
				"z": 0.4555636871,
				"element": "H" 
			},
			{
				"x": -1.0786840398,
				"y": -3.1023618454,
				"z": -0.6361166644,
				"element": "H" 
			},
			{
				"x": 4.4714136856,
				"y": -1.022183045,
				"z": 1.0209245764,
				"element": "H" 
			}
		],
		 "valence_orbital": [ 
			{
				"type": "occ",
				"energy": -0.31319,
				"method": "rhf"
			},
			{
				"type": "occ",
				"energy": -0.29714,
				"method": "rhf"
			},
			{
				"type": "occ",
				"energy": -0.27301,
				"method": "rhf"
			},
			{
				"type": "occ",
				"energy": -0.25564,
				"method": "rhf"
			},
			{
				"type": "occ",
				"energy": -0.23372,
				"method": "rhf"
			},
			{
				"type": "unocc",
				"energy": -0.04589,
				"method": "rhf"
			},
			{
				"type": "unocc",
				"energy": -0.01256,
				"method": "rhf"
			},
			{
				"type": "unocc",
				"energy": 0.05488,
				"method": "rhf"
			},
			{
				"type": "unocc",
				"energy": 0.05533,
				"method": "rhf"
			},
			{
				"type": "unocc",
				"energy": 0.06247,
				"method": "rhf"
			}
		],
		"cosmo_sigma_profile": { 
			"-0.025": 0.0,
			"-0.024": 0.0,
			"-0.023": 0.0,
			"-0.022": 0.0,
			"-0.021": 0.0,
			"-0.02": 0.0,
			"-0.019": 0.121213791336,
			"-0.018": 1.73914878625,
			"-0.017": 2.09725710747,
			"-0.016": 1.71031249725,
			"-0.015": 2.31876376607,
			"-0.014": 2.95395803806,
			"-0.013": 1.2878450953,
			"-0.012": 1.55073301654,
			"-0.011": 2.02559521799,
			"-0.01": 2.96590129832,
			"-0.009": 2.25614454436,
			"-0.008": 2.08059058921,
			"-0.007": 4.25254752577,
			"-0.006": 6.72776555821,
			"-0.005": 9.5712073101,
			"-0.004": 10.0330879711,
			"-0.003": 14.2527336543,
			"-0.002": 12.0457965525,
			"-0.001": 10.4251034876,
			"0.0": 9.50098469019,
			"0.001": 11.9910349883,
			"0.002": 13.504983117,
			"0.003": 15.6849090751,
			"0.004": 8.52447789923,
			"0.005": 5.22989616711,
			"0.006": 5.44315388572,
			"0.007": 4.84214853136,
			"0.008": 5.47923262406,
			"0.009": 4.81692710405,
			"0.01": 6.72361258641,
			"0.011": 6.29761038905,
			"0.012": 5.20713011468,
			"0.013": 2.02507694071,
			"0.014": 0.195873929131,
			"0.015": 0.0,
			"0.016": 0.0,
			"0.017": 0.0,
			"0.018": 0.0,
			"0.019": 0.0,
			"0.02": 0.0,
			"0.021": 0.0,
			"0.022": 0.0,
			"0.023": 0.0,
			"0.024": 0.0,
			"0.025": 0.0
		}
	}
}
