{
	 "smiles": "CCOC(=O)C1=C(N)C=CC(=C1)S(C)(=O)=O", 
	 "Tm": 404.15, 
	 "num_atms": 29, 
	 "gaussian": { 
		 "optdone": 1, 
		 "sigma_profile": "yes", 
		 "theory": "DFT", 
		 "functional": "B3LYP", 
		 "basiset": "6-31G**", 
		 "properties": { 
			 "R2extent": 5865.5634, 
			 "electric_dipole_moment_norm": 7.90228428051, 
			 "electric_quadrupole_moment_norm": 26.5215143221, 
			 "total_energy": -1142.69773266, 
			 "HOMO_LUMO_gap": 0.17423, 
			 "cosmo_polarized_energy": -22.18, 
			 "cosmo_cavitation_energy": 34.28, 
			 "cosmo_dispersion_energy": -25.05, 
			 "cosmo_repulsion_energy": 1.93, 
			 "cosmo_total_nonelectrostatic_energy": 11.15, 
			 "SMD_solvation_energy": 6.56 
		},
		"coords": [
			{
				"x": 0.4881485073,
				"y": -2.9708855159,
				"z": 2.575912078,
				"element": "C" 
			},
			{
				"x": -0.7508235335,
				"y": -2.661950628,
				"z": 1.7503252144,
				"element": "C" 
			},
			{
				"x": -0.7956575528,
				"y": -1.2625862953,
				"z": 1.3644863397,
				"element": "O" 
			},
			{
				"x": -0.099945585,
				"y": -0.9213280315,
				"z": 0.2405624008,
				"element": "C" 
			},
			{
				"x": 0.5179027678,
				"y": -1.7422407866,
				"z": -0.4091612133,
				"element": "O" 
			},
			{
				"x": -0.1827399634,
				"y": 0.5222316786,
				"z": -0.1064714842,
				"element": "C" 
			},
			{
				"x": -0.8308009014,
				"y": 1.5350803384,
				"z": 0.6645497048,
				"element": "C" 
			},
			{
				"x": -1.4266846107,
				"y": 1.2951550771,
				"z": 1.8668956466,
				"element": "N" 
			},
			{
				"x": -0.8265665519,
				"y": 2.862206885,
				"z": 0.1628414353,
				"element": "C" 
			},
			{
				"x": -0.2101339023,
				"y": 3.1862403727,
				"z": -1.0284737314,
				"element": "C" 
			},
			{
				"x": 0.4352362438,
				"y": 2.1843205665,
				"z": -1.7704435477,
				"element": "C" 
			},
			{
				"x": 0.4375822678,
				"y": 0.8748846253,
				"z": -1.3151425619,
				"element": "C" 
			},
			{
				"x": 1.2293386432,
				"y": 2.5992453664,
				"z": -3.3186678735,
				"element": "S" 
			},
			{
				"x": 2.9596215894,
				"y": 2.877758773,
				"z": -2.8657589352,
				"element": "C" 
			},
			{
				"x": 0.682728925,
				"y": 3.8914997995,
				"z": -3.7666530038,
				"element": "O" 
			},
			{
				"x": 1.1954448175,
				"y": 1.4148233997,
				"z": -4.1903196112,
				"element": "O" 
			},
			{
				"x": 0.5425569869,
				"y": -2.3269200139,
				"z": 3.4588102467,
				"element": "H" 
			},
			{
				"x": 0.4563406136,
				"y": -4.0123956079,
				"z": 2.9125806304,
				"element": "H" 
			},
			{
				"x": 1.3913534295,
				"y": -2.8314617992,
				"z": 1.9777086227,
				"element": "H" 
			},
			{
				"x": -0.7868002449,
				"y": -3.2709996588,
				"z": 0.8452476768,
				"element": "H" 
			},
			{
				"x": -1.6673188599,
				"y": -2.8107417617,
				"z": 2.3263581969,
				"element": "H" 
			},
			{
				"x": -2.0017787019,
				"y": 2.0143087932,
				"z": 2.2737055857,
				"element": "H" 
			},
			{
				"x": -1.5624110651,
				"y": 0.3401147305,
				"z": 2.1585745274,
				"element": "H" 
			},
			{
				"x": -1.3294554528,
				"y": 3.6346048976,
				"z": 0.7387927069,
				"element": "H" 
			},
			{
				"x": -0.2354393676,
				"y": 4.2020805196,
				"z": -1.408945257,
				"element": "H" 
			},
			{
				"x": 0.9030829405,
				"y": 0.0862404417,
				"z": -1.8961567475,
				"element": "H" 
			},
			{
				"x": 3.4796301126,
				"y": 3.1427404773,
				"z": -3.7887193194,
				"element": "H" 
			},
			{
				"x": 3.3732127555,
				"y": 1.9592100191,
				"z": -2.4472934454,
				"element": "H" 
			},
			{
				"x": 3.0161756928,
				"y": 3.6981633376,
				"z": -2.1489442815,
				"element": "H" 
			}
		],
		 "valence_orbital": [ 
			{
				"type": "occ",
				"energy": -0.28612,
				"method": "rhf"
			},
			{
				"type": "occ",
				"energy": -0.28439,
				"method": "rhf"
			},
			{
				"type": "occ",
				"energy": -0.2776,
				"method": "rhf"
			},
			{
				"type": "occ",
				"energy": -0.27238,
				"method": "rhf"
			},
			{
				"type": "occ",
				"energy": -0.22691,
				"method": "rhf"
			},
			{
				"type": "unocc",
				"energy": -0.05268,
				"method": "rhf"
			},
			{
				"type": "unocc",
				"energy": -0.02218,
				"method": "rhf"
			},
			{
				"type": "unocc",
				"energy": 0.03752,
				"method": "rhf"
			},
			{
				"type": "unocc",
				"energy": 0.06848,
				"method": "rhf"
			},
			{
				"type": "unocc",
				"energy": 0.08189,
				"method": "rhf"
			}
		],
		"cosmo_sigma_profile": { 
			"-0.025": 0.0,
			"-0.024": 0.0,
			"-0.023": 0.0,
			"-0.022": 0.0,
			"-0.021": 0.0,
			"-0.02": 0.0,
			"-0.019": 0.0,
			"-0.018": 0.0,
			"-0.017": 0.0,
			"-0.016": 0.0,
			"-0.015": 0.0494967544728,
			"-0.014": 1.27072583177,
			"-0.013": 1.6683492275,
			"-0.012": 1.66011787539,
			"-0.011": 1.44940132004,
			"-0.01": 2.49400157867,
			"-0.009": 3.38806512308,
			"-0.008": 8.2316575505,
			"-0.007": 10.6709365214,
			"-0.006": 12.6737356455,
			"-0.005": 15.448649316,
			"-0.004": 22.3208092159,
			"-0.003": 21.9503416297,
			"-0.002": 20.1646288604,
			"-0.001": 19.2718587159,
			"0.0": 20.3041196756,
			"0.001": 18.4689395253,
			"0.002": 19.0477748718,
			"0.003": 10.4200389111,
			"0.004": 5.83449775744,
			"0.005": 4.3981538518,
			"0.006": 4.14929616631,
			"0.007": 5.78688542195,
			"0.008": 4.74748065255,
			"0.009": 4.31521391457,
			"0.01": 4.97202771931,
			"0.011": 11.7866756431,
			"0.012": 12.2746890537,
			"0.013": 2.77667841113,
			"0.014": 0.0,
			"0.015": 0.0,
			"0.016": 0.0,
			"0.017": 0.0,
			"0.018": 0.0,
			"0.019": 0.0,
			"0.02": 0.0,
			"0.021": 0.0,
			"0.022": 0.0,
			"0.023": 0.0,
			"0.024": 0.0,
			"0.025": 0.0
		}
	}
}
