{
	 "smiles": "NC(=O)NC1=CC(=CC=C1)C(O)=O", 
	 "Tm": 543.15, 
	 "num_atms": 21, 
	 "gaussian": { 
		 "optdone": 1, 
		 "sigma_profile": "yes", 
		 "theory": "DFT", 
		 "functional": "B3LYP", 
		 "basiset": "6-31G**", 
		 "properties": { 
			 "R2extent": 2938.4475, 
			 "electric_dipole_moment_norm": 5.48991585181, 
			 "electric_quadrupole_moment_norm": 21.2222159161, 
			 "total_energy": -644.881341594, 
			 "HOMO_LUMO_gap": 0.1783, 
			 "cosmo_polarized_energy": -24.02, 
			 "cosmo_cavitation_energy": 26.06, 
			 "cosmo_dispersion_energy": -19.2, 
			 "cosmo_repulsion_energy": 1.53, 
			 "cosmo_total_nonelectrostatic_energy": 8.39, 
			 "SMD_solvation_energy": 6.66 
		},
		"coords": [
			{
				"x": -0.1973192575,
				"y": -0.5463834734,
				"z": -2.5258130117,
				"element": "N" 
			},
			{
				"x": -1.0054741301,
				"y": -1.5512272751,
				"z": -2.04380361,
				"element": "C" 
			},
			{
				"x": -1.5764061708,
				"y": -2.3554963859,
				"z": -2.7648343162,
				"element": "O" 
			},
			{
				"x": -1.1685616262,
				"y": -1.6228528331,
				"z": -0.6575305206,
				"element": "N" 
			},
			{
				"x": -0.7690089513,
				"y": -0.7852294174,
				"z": 0.3926339144,
				"element": "C" 
			},
			{
				"x": -0.5384692911,
				"y": 0.5888439306,
				"z": 0.2404734122,
				"element": "C" 
			},
			{
				"x": -0.1388944522,
				"y": 1.3655813751,
				"z": 1.3349253301,
				"element": "C" 
			},
			{
				"x": -0.0218623578,
				"y": 0.791317994,
				"z": 2.6063552012,
				"element": "C" 
			},
			{
				"x": -0.2871085813,
				"y": -0.5697337829,
				"z": 2.7674734601,
				"element": "C" 
			},
			{
				"x": -0.6404449824,
				"y": -1.3534589925,
				"z": 1.6755852226,
				"element": "C" 
			},
			{
				"x": 0.1001308203,
				"y": 2.8260617535,
				"z": 1.0740636903,
				"element": "C" 
			},
			{
				"x": 0.834807235,
				"y": 3.4993266226,
				"z": 1.9983826528,
				"element": "O" 
			},
			{
				"x": -0.3182792329,
				"y": 3.4034462,
				"z": 0.0985705429,
				"element": "O" 
			},
			{
				"x": 0.0182846192,
				"y": -0.6507740099,
				"z": -3.5064055013,
				"element": "H" 
			},
			{
				"x": 0.5394953176,
				"y": -0.1721896,
				"z": -1.9461206803,
				"element": "H" 
			},
			{
				"x": -1.6716623057,
				"y": -2.462431171,
				"z": -0.4060776786,
				"element": "H" 
			},
			{
				"x": -0.6937442055,
				"y": 1.0880680719,
				"z": -0.7077535083,
				"element": "H" 
			},
			{
				"x": 0.2220767048,
				"y": 1.3914986569,
				"z": 3.4786662031,
				"element": "H" 
			},
			{
				"x": -0.2136652813,
				"y": -1.0241304776,
				"z": 3.7507595,
				"element": "H" 
			},
			{
				"x": -0.8236057891,
				"y": -2.416610597,
				"z": 1.8065017738,
				"element": "H" 
			},
			{
				"x": 1.2265119184,
				"y": 2.8804734113,
				"z": 2.6299479234,
				"element": "H" 
			}
		],
		 "valence_orbital": [ 
			{
				"type": "occ",
				"energy": -0.28433,
				"method": "rhf"
			},
			{
				"type": "occ",
				"energy": -0.2818,
				"method": "rhf"
			},
			{
				"type": "occ",
				"energy": -0.27332,
				"method": "rhf"
			},
			{
				"type": "occ",
				"energy": -0.26616,
				"method": "rhf"
			},
			{
				"type": "occ",
				"energy": -0.23778,
				"method": "rhf"
			},
			{
				"type": "unocc",
				"energy": -0.05948,
				"method": "rhf"
			},
			{
				"type": "unocc",
				"energy": -0.02889,
				"method": "rhf"
			},
			{
				"type": "unocc",
				"energy": 0.03264,
				"method": "rhf"
			},
			{
				"type": "unocc",
				"energy": 0.05301,
				"method": "rhf"
			},
			{
				"type": "unocc",
				"energy": 0.06296,
				"method": "rhf"
			}
		],
		"cosmo_sigma_profile": { 
			"-0.025": 0.0,
			"-0.024": 0.0,
			"-0.023": 0.0,
			"-0.022": 0.0,
			"-0.021": 0.0,
			"-0.02": 0.0,
			"-0.019": 0.145206602807,
			"-0.018": 0.612735332449,
			"-0.017": 1.08524050769,
			"-0.016": 1.36584528865,
			"-0.015": 0.66803710098,
			"-0.014": 3.01950696005,
			"-0.013": 3.97994443725,
			"-0.012": 4.45504902857,
			"-0.011": 4.91713207387,
			"-0.01": 4.89492059068,
			"-0.009": 4.86521668723,
			"-0.008": 5.2347374059,
			"-0.007": 7.50879753412,
			"-0.006": 8.91812236323,
			"-0.005": 9.35346974255,
			"-0.004": 7.68991383424,
			"-0.003": 8.53957624264,
			"-0.002": 9.37688688429,
			"-0.001": 10.751429266,
			"0.0": 10.2107006546,
			"0.001": 13.26704537,
			"0.002": 14.1000849086,
			"0.003": 13.689318468,
			"0.004": 6.85922903347,
			"0.005": 4.69588123658,
			"0.006": 4.1233357367,
			"0.007": 3.40156330456,
			"0.008": 4.52147152674,
			"0.009": 4.55984958416,
			"0.01": 6.12069503295,
			"0.011": 7.04765787081,
			"0.012": 5.88239750432,
			"0.013": 5.63907465197,
			"0.014": 5.68488986658,
			"0.015": 0.743011550845,
			"0.016": 0.0,
			"0.017": 0.0,
			"0.018": 0.0,
			"0.019": 0.0,
			"0.02": 0.0,
			"0.021": 0.0,
			"0.022": 0.0,
			"0.023": 0.0,
			"0.024": 0.0,
			"0.025": 0.0
		}
	}
}
