{
	 "smiles": "OC1=CC(=C(Cl)C=C1)[N+]([O-])=O", 
	 "Tm": 400.15, 
	 "num_atms": 15, 
	 "gaussian": { 
		 "optdone": 1, 
		 "sigma_profile": "yes", 
		 "theory": "DFT", 
		 "functional": "B3LYP", 
		 "basiset": "6-31G**", 
		 "properties": { 
			 "R2extent": 1973.6613, 
			 "electric_dipole_moment_norm": 6.18466942205, 
			 "electric_quadrupole_moment_norm": 6.54140166325, 
			 "total_energy": -971.544317627, 
			 "HOMO_LUMO_gap": 0.1585, 
			 "cosmo_polarized_energy": -13.9, 
			 "cosmo_cavitation_energy": 22.22, 
			 "cosmo_dispersion_energy": -16.64, 
			 "cosmo_repulsion_energy": 1.34, 
			 "cosmo_total_nonelectrostatic_energy": 6.91, 
			 "SMD_solvation_energy": 6.27 
		},
		"coords": [
			{
				"x": 1.8694454805,
				"y": -2.1464912515,
				"z": -1.7957192585,
				"element": "O" 
			},
			{
				"x": 1.4594978221,
				"y": -1.1645493599,
				"z": -0.94924285,
				"element": "C" 
			},
			{
				"x": 0.0850766795,
				"y": -1.0130552245,
				"z": -0.763853636,
				"element": "C" 
			},
			{
				"x": -0.397578346,
				"y": -0.0117684843,
				"z": 0.0746867266,
				"element": "C" 
			},
			{
				"x": 0.4747472212,
				"y": 0.8415121913,
				"z": 0.7691354427,
				"element": "C" 
			},
			{
				"x": -0.0452684538,
				"y": 2.0595303143,
				"z": 1.9032739987,
				"element": "Cl" 
			},
			{
				"x": 1.8479610054,
				"y": 0.6623237839,
				"z": 0.5881766192,
				"element": "C" 
			},
			{
				"x": 2.3413326303,
				"y": -0.318231074,
				"z": -0.2673961841,
				"element": "C" 
			},
			{
				"x": -1.867039102,
				"y": 0.0930142925,
				"z": 0.1688423063,
				"element": "N" 
			},
			{
				"x": -2.5046026415,
				"y": -0.9537306121,
				"z": 0.0588946095,
				"element": "O" 
			},
			{
				"x": -2.3557110419,
				"y": 1.2073590188,
				"z": 0.3179434853,
				"element": "O" 
			},
			{
				"x": 2.8344644875,
				"y": -2.1588121399,
				"z": -1.8394489293,
				"element": "H" 
			},
			{
				"x": -0.6120261702,
				"y": -1.6688216594,
				"z": -1.2693296237,
				"element": "H" 
			},
			{
				"x": 2.5333920925,
				"y": 1.3031859801,
				"z": 1.1310536369,
				"element": "H" 
			},
			{
				"x": 3.4155083364,
				"y": -0.4262657753,
				"z": -0.3959163437,
				"element": "H" 
			}
		],
		 "valence_orbital": [ 
			{
				"type": "occ",
				"energy": -0.31079,
				"method": "rhf"
			},
			{
				"type": "occ",
				"energy": -0.30973,
				"method": "rhf"
			},
			{
				"type": "occ",
				"energy": -0.29913,
				"method": "rhf"
			},
			{
				"type": "occ",
				"energy": -0.28185,
				"method": "rhf"
			},
			{
				"type": "occ",
				"energy": -0.24779,
				"method": "rhf"
			},
			{
				"type": "unocc",
				"energy": -0.08929,
				"method": "rhf"
			},
			{
				"type": "unocc",
				"energy": -0.03169,
				"method": "rhf"
			},
			{
				"type": "unocc",
				"energy": -0.01185,
				"method": "rhf"
			},
			{
				"type": "unocc",
				"energy": 0.01171,
				"method": "rhf"
			},
			{
				"type": "unocc",
				"energy": 0.04747,
				"method": "rhf"
			}
		],
		"cosmo_sigma_profile": { 
			"-0.025": 0.0,
			"-0.024": 0.0,
			"-0.023": 0.0,
			"-0.022": 0.0,
			"-0.021": 0.0,
			"-0.02": 0.0,
			"-0.019": 0.651715563781,
			"-0.018": 1.46983044805,
			"-0.017": 0.882785605329,
			"-0.016": 1.75606832642,
			"-0.015": 0.56417501637,
			"-0.014": 0.934640468854,
			"-0.013": 1.38440009051,
			"-0.012": 0.97654448686,
			"-0.011": 1.17143640625,
			"-0.01": 1.22018313816,
			"-0.009": 2.40011079557,
			"-0.008": 4.90211522646,
			"-0.007": 6.40288296688,
			"-0.006": 7.12850727661,
			"-0.005": 6.46318655198,
			"-0.004": 5.61350641544,
			"-0.003": 7.3303917299,
			"-0.002": 8.36546391123,
			"-0.001": 12.6450432789,
			"0.0": 19.6387601688,
			"0.001": 16.9159183042,
			"0.002": 10.4416410259,
			"0.003": 10.2817663522,
			"0.004": 10.3338863316,
			"0.005": 4.92866265541,
			"0.006": 5.73964281274,
			"0.007": 11.7841531979,
			"0.008": 9.82638780724,
			"0.009": 5.9944505133,
			"0.01": 2.22419300604,
			"0.011": 0.329215536006,
			"0.012": 0.0,
			"0.013": 0.0,
			"0.014": 0.0,
			"0.015": 0.0,
			"0.016": 0.0,
			"0.017": 0.0,
			"0.018": 0.0,
			"0.019": 0.0,
			"0.02": 0.0,
			"0.021": 0.0,
			"0.022": 0.0,
			"0.023": 0.0,
			"0.024": 0.0,
			"0.025": 0.0
		}
	}
}
