{
	 "smiles": "CC(C)(C)C(O)C(OC1=CC=C(Cl)C=C1)N1C=NC=N1", 
	 "Tm": 409.15, 
	 "num_atms": 38, 
	 "gaussian": { 
		 "optdone": 1, 
		 "sigma_profile": "yes", 
		 "theory": "DFT", 
		 "functional": "B3LYP", 
		 "basiset": "6-31G**", 
		 "properties": { 
			 "R2extent": 8385.9574, 
			 "electric_dipole_moment_norm": 3.67406674, 
			 "electric_quadrupole_moment_norm": 8.05597376175, 
			 "total_energy": -1319.19952275, 
			 "HOMO_LUMO_gap": 0.22046, 
			 "cosmo_polarized_energy": -13.97, 
			 "cosmo_cavitation_energy": 40.89, 
			 "cosmo_dispersion_energy": -27.77, 
			 "cosmo_repulsion_energy": 2.1, 
			 "cosmo_total_nonelectrostatic_energy": 15.22, 
			 "SMD_solvation_energy": 4.56 
		},
		"coords": [
			{
				"x": -1.1076229124,
				"y": 2.0488920028,
				"z": 2.8013328317,
				"element": "C" 
			},
			{
				"x": 0.0174354178,
				"y": 1.886268834,
				"z": 1.7563150668,
				"element": "C" 
			},
			{
				"x": 1.2581257817,
				"y": 2.6578546411,
				"z": 2.2524287237,
				"element": "C" 
			},
			{
				"x": -0.4453449436,
				"y": 2.4833590555,
				"z": 0.4106001087,
				"element": "C" 
			},
			{
				"x": 0.3362382544,
				"y": 0.3596039744,
				"z": 1.6534247659,
				"element": "C" 
			},
			{
				"x": -0.8164150895,
				"y": -0.4177014281,
				"z": 1.3429250877,
				"element": "O" 
			},
			{
				"x": 1.5417078066,
				"y": -0.0187427846,
				"z": 0.7505108427,
				"element": "C" 
			},
			{
				"x": 2.22732285,
				"y": -1.1852774106,
				"z": 1.2202729792,
				"element": "O" 
			},
			{
				"x": 1.7896659081,
				"y": -2.4649205667,
				"z": 0.9179426835,
				"element": "C" 
			},
			{
				"x": 0.7663572368,
				"y": -3.0830528198,
				"z": 1.6425705348,
				"element": "C" 
			},
			{
				"x": 0.4240344679,
				"y": -4.4069218128,
				"z": 1.3676129138,
				"element": "C" 
			},
			{
				"x": 1.1139885363,
				"y": -5.1042591298,
				"z": 0.375514947,
				"element": "C" 
			},
			{
				"x": 0.6828896708,
				"y": -6.774369565,
				"z": 0.0347835773,
				"element": "Cl" 
			},
			{
				"x": 2.1420060058,
				"y": -4.4993473392,
				"z": -0.3464761988,
				"element": "C" 
			},
			{
				"x": 2.4776338233,
				"y": -3.1743828338,
				"z": -0.0700068065,
				"element": "C" 
			},
			{
				"x": 1.219444016,
				"y": -0.0874199777,
				"z": -0.6668398652,
				"element": "N" 
			},
			{
				"x": 0.3278367157,
				"y": -0.849838629,
				"z": -1.3584782065,
				"element": "C" 
			},
			{
				"x": 0.4116701708,
				"y": -0.5985226886,
				"z": -2.6523349134,
				"element": "N" 
			},
			{
				"x": 1.3959588581,
				"y": 0.343223512,
				"z": -2.7106987473,
				"element": "C" 
			},
			{
				"x": 1.9257530221,
				"y": 0.6835055138,
				"z": -1.5472345633,
				"element": "N" 
			},
			{
				"x": -0.7863022684,
				"y": 1.6895530242,
				"z": 3.7854349136,
				"element": "H" 
			},
			{
				"x": -1.3804545356,
				"y": 3.1042873683,
				"z": 2.902373322,
				"element": "H" 
			},
			{
				"x": -2.0025009687,
				"y": 1.4881421833,
				"z": 2.5206409346,
				"element": "H" 
			},
			{
				"x": 2.0480569942,
				"y": 2.7177137256,
				"z": 1.4975492446,
				"element": "H" 
			},
			{
				"x": 0.9787007689,
				"y": 3.6861617502,
				"z": 2.5036391119,
				"element": "H" 
			},
			{
				"x": 1.6806235686,
				"y": 2.2018686108,
				"z": 3.1552322242,
				"element": "H" 
			},
			{
				"x": -0.7107490554,
				"y": 3.5367938948,
				"z": 0.5468601116,
				"element": "H" 
			},
			{
				"x": 0.3325946115,
				"y": 2.4308105431,
				"z": -0.3555881088,
				"element": "H" 
			},
			{
				"x": -1.3434832974,
				"y": 1.988973043,
				"z": 0.0183457998,
				"element": "H" 
			},
			{
				"x": 0.6405304211,
				"y": 0.0327747783,
				"z": 2.6542657591,
				"element": "H" 
			},
			{
				"x": -1.2815341437,
				"y": 0.0121988805,
				"z": 0.6124731287,
				"element": "H" 
			},
			{
				"x": 2.3002464959,
				"y": 0.7585394301,
				"z": 0.8181035905,
				"element": "H" 
			},
			{
				"x": 0.2331172305,
				"y": -2.5321577232,
				"z": 2.4073902687,
				"element": "H" 
			},
			{
				"x": -0.3687369928,
				"y": -4.8955328726,
				"z": 1.9230785332,
				"element": "H" 
			},
			{
				"x": 2.6709683828,
				"y": -5.0548188501,
				"z": -1.112706014,
				"element": "H" 
			},
			{
				"x": 3.2778375714,
				"y": -2.6803978257,
				"z": -0.6107523882,
				"element": "H" 
			},
			{
				"x": -0.324055852,
				"y": -1.5660644891,
				"z": -0.8835128728,
				"element": "H" 
			},
			{
				"x": 1.7321554725,
				"y": 0.7901039806,
				"z": -3.6363933203,
				"element": "H" 
			}
		],
		 "valence_orbital": [ 
			{
				"type": "occ",
				"energy": -0.28216,
				"method": "rhf"
			},
			{
				"type": "occ",
				"energy": -0.27568,
				"method": "rhf"
			},
			{
				"type": "occ",
				"energy": -0.27403,
				"method": "rhf"
			},
			{
				"type": "occ",
				"energy": -0.26605,
				"method": "rhf"
			},
			{
				"type": "occ",
				"energy": -0.24056,
				"method": "rhf"
			},
			{
				"type": "unocc",
				"energy": -0.0201,
				"method": "rhf"
			},
			{
				"type": "unocc",
				"energy": -0.01676,
				"method": "rhf"
			},
			{
				"type": "unocc",
				"energy": -0.00258,
				"method": "rhf"
			},
			{
				"type": "unocc",
				"energy": 0.0282,
				"method": "rhf"
			},
			{
				"type": "unocc",
				"energy": 0.04057,
				"method": "rhf"
			}
		],
		"cosmo_sigma_profile": { 
			"-0.025": 0.0,
			"-0.024": 0.0,
			"-0.023": 0.0,
			"-0.022": 0.0,
			"-0.021": 0.0,
			"-0.02": 0.0,
			"-0.019": 0.0,
			"-0.018": 0.0,
			"-0.017": 0.0,
			"-0.016": 0.0,
			"-0.015": 0.150387720556,
			"-0.014": 0.724303006574,
			"-0.013": 0.854843987303,
			"-0.012": 1.12039766534,
			"-0.011": 0.980396212171,
			"-0.01": 1.33417869637,
			"-0.009": 3.49281902442,
			"-0.008": 4.79166678185,
			"-0.007": 10.357598947,
			"-0.006": 12.2681781936,
			"-0.005": 16.6437927887,
			"-0.004": 18.982046785,
			"-0.003": 25.9575018061,
			"-0.002": 24.3942774896,
			"-0.001": 26.7642424277,
			"0.0": 32.7381949328,
			"0.001": 33.746839433,
			"0.002": 29.7700880432,
			"0.003": 19.438293713,
			"0.004": 16.3452763891,
			"0.005": 10.9483551993,
			"0.006": 5.01531416668,
			"0.007": 5.32674230573,
			"0.008": 3.805749709,
			"0.009": 4.68653496068,
			"0.01": 3.5505505555,
			"0.011": 2.86138843323,
			"0.012": 2.45505858542,
			"0.013": 1.93058245423,
			"0.014": 1.41548683531,
			"0.015": 1.17082344589,
			"0.016": 0.853022453475,
			"0.017": 0.175349340026,
			"0.018": 0.0,
			"0.019": 0.0,
			"0.02": 0.0,
			"0.021": 0.0,
			"0.022": 0.0,
			"0.023": 0.0,
			"0.024": 0.0,
			"0.025": 0.0
		}
	}
}
