{
	 "smiles": "CC1=C(CCl)C(=NO1)C1=C(Cl)C=CC=C1Cl", 
	 "Tm": 335.15, 
	 "num_atms": 24, 
	 "gaussian": { 
		 "optdone": 1, 
		 "sigma_profile": "yes", 
		 "theory": "DFT", 
		 "functional": "B3LYP", 
		 "basiset": "6-31G**", 
		 "properties": { 
			 "R2extent": 5010.5669, 
			 "electric_dipole_moment_norm": 2.48829209901, 
			 "electric_quadrupole_moment_norm": 21.869552264, 
			 "total_energy": -1934.49972183, 
			 "HOMO_LUMO_gap": 0.21727, 
			 "cosmo_polarized_energy": -12.62, 
			 "cosmo_cavitation_energy": 34.31, 
			 "cosmo_dispersion_energy": -23.3, 
			 "cosmo_repulsion_energy": 1.84, 
			 "cosmo_total_nonelectrostatic_energy": 12.85, 
			 "SMD_solvation_energy": 4.9 
		},
		"coords": [
			{
				"x": -2.0989305531,
				"y": 2.3518210573,
				"z": 2.5682803703,
				"element": "C" 
			},
			{
				"x": -1.5886582546,
				"y": 1.1504278839,
				"z": 1.8531820237,
				"element": "C" 
			},
			{
				"x": -0.3528119757,
				"y": 0.7793992497,
				"z": 1.3954177042,
				"element": "C" 
			},
			{
				"x": 0.9215808227,
				"y": 1.5319453565,
				"z": 1.4641020658,
				"element": "C" 
			},
			{
				"x": 1.8767763375,
				"y": 1.2035735684,
				"z": 3.0039770764,
				"element": "Cl" 
			},
			{
				"x": -0.5855404139,
				"y": -0.516060707,
				"z": 0.8257107716,
				"element": "C" 
			},
			{
				"x": -1.8436391485,
				"y": -0.8778856931,
				"z": 0.9221506862,
				"element": "N" 
			},
			{
				"x": -2.4810389962,
				"y": 0.1803231084,
				"z": 1.5771989161,
				"element": "O" 
			},
			{
				"x": 0.398865998,
				"y": -1.4190310507,
				"z": 0.1784601223,
				"element": "C" 
			},
			{
				"x": 0.9344689859,
				"y": -2.5330490757,
				"z": 0.8506904106,
				"element": "C" 
			},
			{
				"x": 0.4541530342,
				"y": -2.879216603,
				"z": 2.4974764964,
				"element": "Cl" 
			},
			{
				"x": 1.8595332302,
				"y": -3.3826739634,
				"z": 0.2450391904,
				"element": "C" 
			},
			{
				"x": 2.2714702219,
				"y": -3.1276035297,
				"z": -1.0606904416,
				"element": "C" 
			},
			{
				"x": 1.7677650233,
				"y": -2.0333533186,
				"z": -1.7603317013,
				"element": "C" 
			},
			{
				"x": 0.8437055835,
				"y": -1.1975370494,
				"z": -1.1366695852,
				"element": "C" 
			},
			{
				"x": 0.220756006,
				"y": 0.1693041704,
				"z": -2.0488190124,
				"element": "Cl" 
			},
			{
				"x": -1.317650164,
				"y": 3.1099991255,
				"z": 2.6499823802,
				"element": "H" 
			},
			{
				"x": -2.9563257681,
				"y": 2.7819307697,
				"z": 2.0413077701,
				"element": "H" 
			},
			{
				"x": -2.4260354151,
				"y": 2.0888741011,
				"z": 3.5798448995,
				"element": "H" 
			},
			{
				"x": 1.5912011272,
				"y": 1.2637971309,
				"z": 0.6480708019,
				"element": "H" 
			},
			{
				"x": 0.7606589157,
				"y": 2.6096933543,
				"z": 1.4517457631,
				"element": "H" 
			},
			{
				"x": 2.2476661042,
				"y": -4.2300241875,
				"z": 0.7979371791,
				"element": "H" 
			},
			{
				"x": 2.9910827391,
				"y": -3.7861867731,
				"z": -1.5368599522,
				"element": "H" 
			},
			{
				"x": 2.0786465602,
				"y": -1.8263669247,
				"z": -2.7776039351,
				"element": "H" 
			}
		],
		 "valence_orbital": [ 
			{
				"type": "occ",
				"energy": -0.29719,
				"method": "rhf"
			},
			{
				"type": "occ",
				"energy": -0.29424,
				"method": "rhf"
			},
			{
				"type": "occ",
				"energy": -0.26969,
				"method": "rhf"
			},
			{
				"type": "occ",
				"energy": -0.26046,
				"method": "rhf"
			},
			{
				"type": "occ",
				"energy": -0.25705,
				"method": "rhf"
			},
			{
				"type": "unocc",
				"energy": -0.03978,
				"method": "rhf"
			},
			{
				"type": "unocc",
				"energy": -0.03204,
				"method": "rhf"
			},
			{
				"type": "unocc",
				"energy": -0.02443,
				"method": "rhf"
			},
			{
				"type": "unocc",
				"energy": -0.00162,
				"method": "rhf"
			},
			{
				"type": "unocc",
				"energy": 0.00118,
				"method": "rhf"
			}
		],
		"cosmo_sigma_profile": { 
			"-0.025": 0.0,
			"-0.024": 0.0,
			"-0.023": 0.0,
			"-0.022": 0.0,
			"-0.021": 0.0,
			"-0.02": 0.0,
			"-0.019": 0.0,
			"-0.018": 0.0,
			"-0.017": 0.0,
			"-0.016": 0.0,
			"-0.015": 0.0,
			"-0.014": 0.0,
			"-0.013": 0.0,
			"-0.012": 0.0,
			"-0.011": 0.0,
			"-0.01": 0.0261196152168,
			"-0.009": 1.91454707991,
			"-0.008": 8.26679081376,
			"-0.007": 13.790441436,
			"-0.006": 15.1344378168,
			"-0.005": 16.1302087949,
			"-0.004": 13.9898001306,
			"-0.003": 17.7890280458,
			"-0.002": 17.6278554485,
			"-0.001": 17.5206694021,
			"0.0": 23.5848813916,
			"0.001": 27.5762748943,
			"0.002": 25.4236347066,
			"0.003": 20.8327189124,
			"0.004": 18.9062689709,
			"0.005": 11.4244984148,
			"0.006": 13.1793618849,
			"0.007": 8.91414202387,
			"0.008": 2.6731304112,
			"0.009": 1.55048233277,
			"0.01": 1.56932912016,
			"0.011": 1.53731366934,
			"0.012": 0.797063275319,
			"0.013": 1.31685398881,
			"0.014": 0.323834827354,
			"0.015": 0.0,
			"0.016": 0.0,
			"0.017": 0.0,
			"0.018": 0.0,
			"0.019": 0.0,
			"0.02": 0.0,
			"0.021": 0.0,
			"0.022": 0.0,
			"0.023": 0.0,
			"0.024": 0.0,
			"0.025": 0.0
		}
	}
}
