{
	 "smiles": "OC(=O)C1=CC=C(NS(=O)(=O)C2=CC(Cl)=C(F)C=C2)C=C1", 
	 "Tm": 514.15, 
	 "num_atms": 30, 
	 "gaussian": { 
		 "optdone": 1, 
		 "sigma_profile": "yes", 
		 "theory": "DFT", 
		 "functional": "B3LYP", 
		 "basiset": "6-31G**", 
		 "properties": { 
			 "R2extent": 9108.0357, 
			 "electric_dipole_moment_norm": 3.85974012338, 
			 "electric_quadrupole_moment_norm": 16.669912692, 
			 "total_energy": -1814.61317757, 
			 "HOMO_LUMO_gap": 0.18416, 
			 "cosmo_polarized_energy": -20.15, 
			 "cosmo_cavitation_energy": 39.59, 
			 "cosmo_dispersion_energy": -28.06, 
			 "cosmo_repulsion_energy": 2.09, 
			 "cosmo_total_nonelectrostatic_energy": 13.62, 
			 "SMD_solvation_energy": 7.34 
		},
		"coords": [
			{
				"x": -3.7735729346,
				"y": -0.8847839962,
				"z": 3.8067345337,
				"element": "O" 
			},
			{
				"x": -2.5432247061,
				"y": -1.4339201921,
				"z": 3.9745672667,
				"element": "C" 
			},
			{
				"x": -2.3722896828,
				"y": -2.4476834496,
				"z": 4.623180036,
				"element": "O" 
			},
			{
				"x": -1.4692121168,
				"y": -0.672290414,
				"z": 3.2907527819,
				"element": "C" 
			},
			{
				"x": -1.7263550868,
				"y": 0.4848474787,
				"z": 2.5430354374,
				"element": "C" 
			},
			{
				"x": -0.6848287049,
				"y": 1.1525666744,
				"z": 1.9099731056,
				"element": "C" 
			},
			{
				"x": 0.6344460158,
				"y": 0.688131358,
				"z": 2.0336564118,
				"element": "C" 
			},
			{
				"x": 1.6750470915,
				"y": 1.4258020188,
				"z": 1.421428056,
				"element": "N" 
			},
			{
				"x": 2.9481616287,
				"y": 0.7587457499,
				"z": 0.5154980056,
				"element": "S" 
			},
			{
				"x": 3.5919123549,
				"y": -0.2593243144,
				"z": 1.3411483468,
				"element": "O" 
			},
			{
				"x": 3.6533794994,
				"y": 1.9315682832,
				"z": 0.0029400897,
				"element": "O" 
			},
			{
				"x": 2.1872817993,
				"y": -0.0833483822,
				"z": -0.8756043296,
				"element": "C" 
			},
			{
				"x": 1.9843556139,
				"y": 0.6306111466,
				"z": -2.0588506968,
				"element": "C" 
			},
			{
				"x": 1.3707600142,
				"y": -0.0057716607,
				"z": -3.1345044859,
				"element": "C" 
			},
			{
				"x": 1.1025008362,
				"y": 0.836227766,
				"z": -4.6348407761,
				"element": "Cl" 
			},
			{
				"x": 0.9721927519,
				"y": -1.3413557241,
				"z": -3.007194892,
				"element": "C" 
			},
			{
				"x": 0.3832800411,
				"y": -1.9531737467,
				"z": -4.0390295261,
				"element": "F" 
			},
			{
				"x": 1.1846580157,
				"y": -2.0498283686,
				"z": -1.82905516,
				"element": "C" 
			},
			{
				"x": 1.8000393318,
				"y": -1.4199611033,
				"z": -0.7501566041,
				"element": "C" 
			},
			{
				"x": 0.9006301011,
				"y": -0.4589954344,
				"z": 2.800068212,
				"element": "C" 
			},
			{
				"x": -0.150699125,
				"y": -1.1334449526,
				"z": 3.4083051329,
				"element": "C" 
			},
			{
				"x": -4.3870428483,
				"y": -1.4606437293,
				"z": 4.2917360767,
				"element": "H" 
			},
			{
				"x": -2.7425117298,
				"y": 0.8499983801,
				"z": 2.4485124374,
				"element": "H" 
			},
			{
				"x": -0.8906030027,
				"y": 2.0390989315,
				"z": 1.315695404,
				"element": "H" 
			},
			{
				"x": 1.4033736493,
				"y": 2.3177326939,
				"z": 1.0208982929,
				"element": "H" 
			},
			{
				"x": 2.320204116,
				"y": 1.6572412383,
				"z": -2.1483590619,
				"element": "H" 
			},
			{
				"x": 0.8705922871,
				"y": -3.0865125167,
				"z": -1.7791661147,
				"element": "H" 
			},
			{
				"x": 1.9942190589,
				"y": -1.9600228689,
				"z": 0.1685008276,
				"element": "H" 
			},
			{
				"x": 1.9221523357,
				"y": -0.7970335613,
				"z": 2.9217607109,
				"element": "H" 
			},
			{
				"x": 0.0353533951,
				"y": -2.0213773045,
				"z": 4.0030704818,
				"element": "H" 
			}
		],
		 "valence_orbital": [ 
			{
				"type": "occ",
				"energy": -0.29178,
				"method": "rhf"
			},
			{
				"type": "occ",
				"energy": -0.28269,
				"method": "rhf"
			},
			{
				"type": "occ",
				"energy": -0.27627,
				"method": "rhf"
			},
			{
				"type": "occ",
				"energy": -0.27434,
				"method": "rhf"
			},
			{
				"type": "occ",
				"energy": -0.24855,
				"method": "rhf"
			},
			{
				"type": "unocc",
				"energy": -0.06439,
				"method": "rhf"
			},
			{
				"type": "unocc",
				"energy": -0.05143,
				"method": "rhf"
			},
			{
				"type": "unocc",
				"energy": -0.04724,
				"method": "rhf"
			},
			{
				"type": "unocc",
				"energy": -0.02485,
				"method": "rhf"
			},
			{
				"type": "unocc",
				"energy": -0.00051,
				"method": "rhf"
			}
		],
		"cosmo_sigma_profile": { 
			"-0.025": 0.0,
			"-0.024": 0.0,
			"-0.023": 0.0,
			"-0.022": 0.0,
			"-0.021": 0.0,
			"-0.02": 0.0,
			"-0.019": 0.0,
			"-0.018": 1.02866388653,
			"-0.017": 0.784023198004,
			"-0.016": 2.01341590409,
			"-0.015": 1.3522898642,
			"-0.014": 2.15531174472,
			"-0.013": 1.84731684076,
			"-0.012": 2.3936264756,
			"-0.011": 2.55337280849,
			"-0.01": 2.41159858866,
			"-0.009": 4.31889126245,
			"-0.008": 7.09819772411,
			"-0.007": 8.56795522911,
			"-0.006": 11.0206663148,
			"-0.005": 12.5783749158,
			"-0.004": 12.2527372778,
			"-0.003": 15.9411994123,
			"-0.002": 25.3514436641,
			"-0.001": 28.8974152986,
			"0.0": 27.2627081906,
			"0.001": 24.3750585994,
			"0.002": 28.2683720652,
			"0.003": 32.719544653,
			"0.004": 12.2342337522,
			"0.005": 7.44984899531,
			"0.006": 6.84500875054,
			"0.007": 5.88515926759,
			"0.008": 5.45892735649,
			"0.009": 7.03869589825,
			"0.01": 9.84072753294,
			"0.011": 6.19132717437,
			"0.012": 4.68211718045,
			"0.013": 0.153036308527,
			"0.014": 0.0,
			"0.015": 0.0,
			"0.016": 0.0,
			"0.017": 0.0,
			"0.018": 0.0,
			"0.019": 0.0,
			"0.02": 0.0,
			"0.021": 0.0,
			"0.022": 0.0,
			"0.023": 0.0,
			"0.024": 0.0,
			"0.025": 0.0
		}
	}
}
