{
	 "smiles": "CCOC(=O)C1=NN(C(C)=C1C(=O)C1=NOC(=C1S(=O)(=O)C1=CC=CC=C1)C1=CC=C(C)C=C1)C1=CC=C(C)C=C1", 
	 "Tm": 453.15, 
	 "num_atms": 68, 
	 "gaussian": { 
		 "optdone": 1, 
		 "sigma_profile": "yes", 
		 "theory": "DFT", 
		 "functional": "B3LYP", 
		 "basiset": "6-31G**", 
		 "properties": { 
			 "R2extent": 26862.2077, 
			 "electric_dipole_moment_norm": 4.81574416368, 
			 "electric_quadrupole_moment_norm": 59.9621809729, 
			 "total_energy": -2211.23871396, 
			 "HOMO_LUMO_gap": 0.16777, 
			 "cosmo_polarized_energy": -26.57, 
			 "cosmo_cavitation_energy": 73.3, 
			 "cosmo_dispersion_energy": -46.46, 
			 "cosmo_repulsion_energy": 3.41, 
			 "cosmo_total_nonelectrostatic_energy": 30.25, 
			 "SMD_solvation_energy": 11.56 
		},
		"coords": [
			{
				"x": -0.9027940513,
				"y": -2.6866969016,
				"z": -2.7108895185,
				"element": "C" 
			},
			{
				"x": 0.4339891617,
				"y": -2.3809430152,
				"z": -2.0635162013,
				"element": "C" 
			},
			{
				"x": 0.1885659563,
				"y": -1.8482804858,
				"z": -0.732832951,
				"element": "O" 
			},
			{
				"x": 1.2583975216,
				"y": -1.8483079337,
				"z": 0.0935143832,
				"element": "C" 
			},
			{
				"x": 2.3441821365,
				"y": -2.2984766898,
				"z": -0.1910415821,
				"element": "O" 
			},
			{
				"x": 0.9247091834,
				"y": -1.2805861943,
				"z": 1.4363002261,
				"element": "C" 
			},
			{
				"x": 1.402826214,
				"y": -1.9340795487,
				"z": 2.483995336,
				"element": "N" 
			},
			{
				"x": 0.9457937734,
				"y": -1.2559420583,
				"z": 3.5731766326,
				"element": "N" 
			},
			{
				"x": 0.1948517826,
				"y": -0.1683320092,
				"z": 3.2417340798,
				"element": "C" 
			},
			{
				"x": -0.3523903754,
				"y": 0.8101898379,
				"z": 4.2284987701,
				"element": "C" 
			},
			{
				"x": 0.1442443777,
				"y": -0.150624839,
				"z": 1.840080594,
				"element": "C" 
			},
			{
				"x": -0.5236476906,
				"y": 0.9027945298,
				"z": 1.0787536137,
				"element": "C" 
			},
			{
				"x": -1.3045065981,
				"y": 1.7001678604,
				"z": 1.5887404091,
				"element": "O" 
			},
			{
				"x": -0.1648125365,
				"y": 1.0989485932,
				"z": -0.3717673357,
				"element": "C" 
			},
			{
				"x": 1.1123627638,
				"y": 1.2283812639,
				"z": -0.6483703741,
				"element": "N" 
			},
			{
				"x": 1.1733384715,
				"y": 1.5901375396,
				"z": -1.9866967014,
				"element": "O" 
			},
			{
				"x": -0.0702060572,
				"y": 1.6775554889,
				"z": -2.5165934032,
				"element": "C" 
			},
			{
				"x": -0.978940704,
				"y": 1.3592299474,
				"z": -1.5203027862,
				"element": "C" 
			},
			{
				"x": -2.7583448756,
				"y": 1.2843400457,
				"z": -1.7353899658,
				"element": "S" 
			},
			{
				"x": -3.2627869543,
				"y": 2.651276921,
				"z": -1.9254307365,
				"element": "O" 
			},
			{
				"x": -3.0034062642,
				"y": 0.2634805541,
				"z": -2.7765154036,
				"element": "O" 
			},
			{
				"x": -3.4493452269,
				"y": 0.6283922736,
				"z": -0.217477199,
				"element": "C" 
			},
			{
				"x": -3.3114317646,
				"y": -0.7310350994,
				"z": 0.0714970845,
				"element": "C" 
			},
			{
				"x": -3.9218502524,
				"y": -1.2349636852,
				"z": 1.2196975702,
				"element": "C" 
			},
			{
				"x": -4.6683639509,
				"y": -0.3897349575,
				"z": 2.0451094004,
				"element": "C" 
			},
			{
				"x": -4.8052574195,
				"y": 0.9646459586,
				"z": 1.7326392322,
				"element": "C" 
			},
			{
				"x": -4.1897716925,
				"y": 1.4857262208,
				"z": 0.5951063607,
				"element": "C" 
			},
			{
				"x": -0.1054752148,
				"y": 2.1171166084,
				"z": -3.914507313,
				"element": "C" 
			},
			{
				"x": 0.9824709344,
				"y": 2.8656134902,
				"z": -4.4065198425,
				"element": "C" 
			},
			{
				"x": 0.9979852333,
				"y": 3.304297416,
				"z": -5.724296577,
				"element": "C" 
			},
			{
				"x": -0.0607571276,
				"y": 3.0162435775,
				"z": -6.5984256182,
				"element": "C" 
			},
			{
				"x": -0.0533729499,
				"y": 3.5247229537,
				"z": -8.0189938483,
				"element": "C" 
			},
			{
				"x": -1.1318386981,
				"y": 2.2615919509,
				"z": -6.104166769,
				"element": "C" 
			},
			{
				"x": -1.1645159313,
				"y": 1.8136555604,
				"z": -4.786208771,
				"element": "C" 
			},
			{
				"x": 1.3261816603,
				"y": -1.7316223938,
				"z": 4.8654129396,
				"element": "C" 
			},
			{
				"x": 0.3950277912,
				"y": -1.8234143719,
				"z": 5.9005806914,
				"element": "C" 
			},
			{
				"x": 0.7995693889,
				"y": -2.2987582463,
				"z": 7.1488664595,
				"element": "C" 
			},
			{
				"x": 2.1182371485,
				"y": -2.7048863001,
				"z": 7.3806406134,
				"element": "C" 
			},
			{
				"x": 2.5560094952,
				"y": -3.2148813792,
				"z": 8.7327194009,
				"element": "C" 
			},
			{
				"x": 3.0297126625,
				"y": -2.6251612338,
				"z": 6.3155655385,
				"element": "C" 
			},
			{
				"x": 2.6477385503,
				"y": -2.1423714977,
				"z": 5.0688846362,
				"element": "C" 
			},
			{
				"x": -1.4518702834,
				"y": -3.4358597567,
				"z": -2.1316083655,
				"element": "H" 
			},
			{
				"x": -0.7327799657,
				"y": -3.0957471564,
				"z": -3.7122444626,
				"element": "H" 
			},
			{
				"x": -1.5232873873,
				"y": -1.7921640105,
				"z": -2.811680926,
				"element": "H" 
			},
			{
				"x": 1.0023020643,
				"y": -1.6328132886,
				"z": -2.6263448492,
				"element": "H" 
			},
			{
				"x": 1.0603195673,
				"y": -3.2708247902,
				"z": -1.9675055341,
				"element": "H" 
			},
			{
				"x": -1.404466061,
				"y": 0.6006454224,
				"z": 4.4521217891,
				"element": "H" 
			},
			{
				"x": 0.2120050129,
				"y": 0.7890631234,
				"z": 5.1628882199,
				"element": "H" 
			},
			{
				"x": -0.3261875752,
				"y": 1.8120701458,
				"z": 3.7981027454,
				"element": "H" 
			},
			{
				"x": -2.7397992294,
				"y": -1.3786307366,
				"z": -0.5832302529,
				"element": "H" 
			},
			{
				"x": -3.8223329256,
				"y": -2.2883751344,
				"z": 1.4630060668,
				"element": "H" 
			},
			{
				"x": -5.1499669701,
				"y": -0.7904657632,
				"z": 2.9325635443,
				"element": "H" 
			},
			{
				"x": -5.3893219421,
				"y": 1.6167794994,
				"z": 2.3746748281,
				"element": "H" 
			},
			{
				"x": -4.2756817663,
				"y": 2.5331809453,
				"z": 0.3305279496,
				"element": "H" 
			},
			{
				"x": 1.8095383433,
				"y": 3.1051965429,
				"z": -3.7477693519,
				"element": "H" 
			},
			{
				"x": 1.8455024919,
				"y": 3.8837726685,
				"z": -6.0812965108,
				"element": "H" 
			},
			{
				"x": -0.4464415654,
				"y": 4.5478791993,
				"z": -8.0707118475,
				"element": "H" 
			},
			{
				"x": -0.6751794247,
				"y": 2.9035648212,
				"z": -8.6699163571,
				"element": "H" 
			},
			{
				"x": 0.9598402937,
				"y": 3.5460603552,
				"z": -8.4319575555,
				"element": "H" 
			},
			{
				"x": -1.9581276651,
				"y": 2.0112582339,
				"z": -6.7642836814,
				"element": "H" 
			},
			{
				"x": -1.9968088726,
				"y": 1.2111317828,
				"z": -4.4444043878,
				"element": "H" 
			},
			{
				"x": -0.6405705396,
				"y": -1.5499457757,
				"z": 5.7312642886,
				"element": "H" 
			},
			{
				"x": 0.0688584987,
				"y": -2.3680461968,
				"z": 7.9501003435,
				"element": "H" 
			},
			{
				"x": 1.7100417061,
				"y": -3.3082267271,
				"z": 9.4189835781,
				"element": "H" 
			},
			{
				"x": 3.2855302736,
				"y": -2.5386774168,
				"z": 9.1937329783,
				"element": "H" 
			},
			{
				"x": 3.0343356468,
				"y": -4.1970003875,
				"z": 8.6519926474,
				"element": "H" 
			},
			{
				"x": 4.0577380197,
				"y": -2.9440817465,
				"z": 6.4665137416,
				"element": "H" 
			},
			{
				"x": 3.3513323841,
				"y": -2.0886536047,
				"z": 4.2461102868,
				"element": "H" 
			}
		],
		 "valence_orbital": [ 
			{
				"type": "occ",
				"energy": -0.26192,
				"method": "rhf"
			},
			{
				"type": "occ",
				"energy": -0.2569,
				"method": "rhf"
			},
			{
				"type": "occ",
				"energy": -0.25578,
				"method": "rhf"
			},
			{
				"type": "occ",
				"energy": -0.24275,
				"method": "rhf"
			},
			{
				"type": "occ",
				"energy": -0.23461,
				"method": "rhf"
			},
			{
				"type": "unocc",
				"energy": -0.06684,
				"method": "rhf"
			},
			{
				"type": "unocc",
				"energy": -0.05523,
				"method": "rhf"
			},
			{
				"type": "unocc",
				"energy": -0.03987,
				"method": "rhf"
			},
			{
				"type": "unocc",
				"energy": -0.03632,
				"method": "rhf"
			},
			{
				"type": "unocc",
				"energy": -0.01952,
				"method": "rhf"
			}
		],
		"cosmo_sigma_profile": { 
			"-0.025": 0.0,
			"-0.024": 0.0,
			"-0.023": 0.0,
			"-0.022": 0.0,
			"-0.021": 0.0,
			"-0.02": 0.0,
			"-0.019": 0.0,
			"-0.018": 0.0,
			"-0.017": 0.0,
			"-0.016": 0.0,
			"-0.015": 0.0,
			"-0.014": 0.0,
			"-0.013": 0.0,
			"-0.012": 0.0,
			"-0.011": 0.0,
			"-0.01": 0.0,
			"-0.009": 0.0,
			"-0.008": 1.72223131085,
			"-0.007": 11.5716073051,
			"-0.006": 26.0462142927,
			"-0.005": 42.6519480417,
			"-0.004": 57.9365154894,
			"-0.003": 57.8082057153,
			"-0.002": 53.5050695688,
			"-0.001": 52.7199802862,
			"0.0": 51.7185152499,
			"0.001": 42.8118797995,
			"0.002": 38.5041433381,
			"0.003": 36.0465409096,
			"0.004": 31.9025445288,
			"0.005": 14.0004356159,
			"0.006": 9.32681057922,
			"0.007": 8.63008740771,
			"0.008": 10.0575866801,
			"0.009": 8.40958887563,
			"0.01": 12.5901893978,
			"0.011": 12.4158394374,
			"0.012": 4.13723384942,
			"0.013": 1.76932116862,
			"0.014": 0.00245078632966,
			"0.015": 0.0,
			"0.016": 0.0,
			"0.017": 0.0,
			"0.018": 0.0,
			"0.019": 0.0,
			"0.02": 0.0,
			"0.021": 0.0,
			"0.022": 0.0,
			"0.023": 0.0,
			"0.024": 0.0,
			"0.025": 0.0
		}
	}
}
