{
	 "smiles": "CCOC(=O)C(=NNC1=CC=C(C=C1)C(O)=O)C#N", 
	 "Tm": 492.15, 
	 "num_atms": 30, 
	 "gaussian": { 
		 "optdone": 1, 
		 "sigma_profile": "yes", 
		 "theory": "DFT", 
		 "functional": "B3LYP", 
		 "basiset": "6-31G**", 
		 "properties": { 
			 "R2extent": 8739.2032, 
			 "electric_dipole_moment_norm": 2.68505701615, 
			 "electric_quadrupole_moment_norm": 29.3620701423, 
			 "total_energy": -929.033963602, 
			 "HOMO_LUMO_gap": 0.14315, 
			 "cosmo_polarized_energy": -20.54, 
			 "cosmo_cavitation_energy": 37.95, 
			 "cosmo_dispersion_energy": -26.43, 
			 "cosmo_repulsion_energy": 2.07, 
			 "cosmo_total_nonelectrostatic_energy": 13.59, 
			 "SMD_solvation_energy": 9.76 
		},
		"coords": [
			{
				"x": 2.5907733963,
				"y": 2.7377284616,
				"z": 3.3647130395,
				"element": "C" 
			},
			{
				"x": 2.0134289117,
				"y": 1.3325892702,
				"z": 3.4332371327,
				"element": "C" 
			},
			{
				"x": 0.9851761378,
				"y": 1.1359550366,
				"z": 2.4278512499,
				"element": "O" 
			},
			{
				"x": -0.2513056517,
				"y": 1.5311783172,
				"z": 2.7636261797,
				"element": "C" 
			},
			{
				"x": -0.5737113937,
				"y": 2.0249734466,
				"z": 3.8266662775,
				"element": "O" 
			},
			{
				"x": -1.2412188204,
				"y": 1.2984815268,
				"z": 1.6784354544,
				"element": "C" 
			},
			{
				"x": -0.8800823,
				"y": 0.7667665498,
				"z": 0.5410885032,
				"element": "N" 
			},
			{
				"x": -1.7693167685,
				"y": 0.5697014454,
				"z": -0.4050537005,
				"element": "N" 
			},
			{
				"x": -1.4196372335,
				"y": 0.002047462,
				"z": -1.6386197224,
				"element": "C" 
			},
			{
				"x": -2.431349797,
				"y": -0.1709335841,
				"z": -2.5941371544,
				"element": "C" 
			},
			{
				"x": -2.1259303401,
				"y": -0.729987623,
				"z": -3.8290122629,
				"element": "C" 
			},
			{
				"x": -0.8117792081,
				"y": -1.1204964403,
				"z": -4.1210640922,
				"element": "C" 
			},
			{
				"x": 0.1908029691,
				"y": -0.9416048566,
				"z": -3.1553733628,
				"element": "C" 
			},
			{
				"x": -0.1002539776,
				"y": -0.3848481114,
				"z": -1.9186415365,
				"element": "C" 
			},
			{
				"x": -0.4307536354,
				"y": -1.7219149127,
				"z": -5.4225430751,
				"element": "C" 
			},
			{
				"x": -1.4782830317,
				"y": -1.8471530261,
				"z": -6.2766391568,
				"element": "O" 
			},
			{
				"x": 0.6931006461,
				"y": -2.0754382702,
				"z": -5.7220547896,
				"element": "O" 
			},
			{
				"x": -2.603246782,
				"y": 1.6781333162,
				"z": 1.9233133798,
				"element": "C" 
			},
			{
				"x": -3.7410940606,
				"y": 1.9258873625,
				"z": 1.9542461494,
				"element": "N" 
			},
			{
				"x": 3.4164333954,
				"y": 2.8317965329,
				"z": 4.0778025796,
				"element": "H" 
			},
			{
				"x": 2.9751643056,
				"y": 2.9531167349,
				"z": 2.3635677931,
				"element": "H" 
			},
			{
				"x": 1.8311186508,
				"y": 3.4798925188,
				"z": 3.6217060312,
				"element": "H" 
			},
			{
				"x": 1.5864346008,
				"y": 1.1265506389,
				"z": 4.4173789087,
				"element": "H" 
			},
			{
				"x": 2.7644196895,
				"y": 0.5760541736,
				"z": 3.1956066447,
				"element": "H" 
			},
			{
				"x": -2.744061976,
				"y": 0.8330130114,
				"z": -0.249730318,
				"element": "H" 
			},
			{
				"x": -3.4505869004,
				"y": 0.1316602034,
				"z": -2.3686044545,
				"element": "H" 
			},
			{
				"x": -2.9046729417,
				"y": -0.865467891,
				"z": -4.5703704122,
				"element": "H" 
			},
			{
				"x": 1.2021590073,
				"y": -1.2494847124,
				"z": -3.3979706009,
				"element": "H" 
			},
			{
				"x": 0.6675899384,
				"y": -0.2436072224,
				"z": -1.1680226661,
				"element": "H" 
			},
			{
				"x": -1.1143168304,
				"y": -2.2465893584,
				"z": -7.083602019,
				"element": "H" 
			}
		],
		 "valence_orbital": [ 
			{
				"type": "occ",
				"energy": -0.3051,
				"method": "rhf"
			},
			{
				"type": "occ",
				"energy": -0.28905,
				"method": "rhf"
			},
			{
				"type": "occ",
				"energy": -0.28376,
				"method": "rhf"
			},
			{
				"type": "occ",
				"energy": -0.27896,
				"method": "rhf"
			},
			{
				"type": "occ",
				"energy": -0.23953,
				"method": "rhf"
			},
			{
				"type": "unocc",
				"energy": -0.09638,
				"method": "rhf"
			},
			{
				"type": "unocc",
				"energy": -0.04344,
				"method": "rhf"
			},
			{
				"type": "unocc",
				"energy": -0.02612,
				"method": "rhf"
			},
			{
				"type": "unocc",
				"energy": 0.00693,
				"method": "rhf"
			},
			{
				"type": "unocc",
				"energy": 0.01044,
				"method": "rhf"
			}
		],
		"cosmo_sigma_profile": { 
			"-0.025": 0.0,
			"-0.024": 0.0,
			"-0.023": 0.0,
			"-0.022": 0.0,
			"-0.021": 0.0,
			"-0.02": 0.0,
			"-0.019": 0.0954097399918,
			"-0.018": 0.729970892297,
			"-0.017": 0.767487620723,
			"-0.016": 1.26302836414,
			"-0.015": 2.38096353567,
			"-0.014": 1.880021534,
			"-0.013": 1.75271035725,
			"-0.012": 2.09665222335,
			"-0.011": 2.57849432274,
			"-0.01": 2.30555772629,
			"-0.009": 2.53994773223,
			"-0.008": 3.61466452081,
			"-0.007": 6.26790250723,
			"-0.006": 12.2631195305,
			"-0.005": 15.3562517498,
			"-0.004": 23.3191258122,
			"-0.003": 23.4228173729,
			"-0.002": 25.461442052,
			"-0.001": 22.5364675753,
			"0.0": 25.0438915793,
			"0.001": 19.2960754131,
			"0.002": 22.1173198073,
			"0.003": 13.4806715423,
			"0.004": 8.30824643308,
			"0.005": 9.00801000193,
			"0.006": 8.45563653399,
			"0.007": 8.27895613856,
			"0.008": 7.0193734563,
			"0.009": 8.27243002174,
			"0.01": 7.65200194792,
			"0.011": 10.5421453844,
			"0.012": 6.20453355537,
			"0.013": 0.130608285377,
			"0.014": 0.0,
			"0.015": 0.0,
			"0.016": 0.0,
			"0.017": 0.0,
			"0.018": 0.0,
			"0.019": 0.0,
			"0.02": 0.0,
			"0.021": 0.0,
			"0.022": 0.0,
			"0.023": 0.0,
			"0.024": 0.0,
			"0.025": 0.0
		}
	}
}
