{
	 "smiles": "CC1=CC2=C(C=C1)C=C(C=O)C(Cl)=N2", 
	 "Tm": 422.15, 
	 "num_atms": 22, 
	 "gaussian": { 
		 "optdone": 1, 
		 "sigma_profile": "yes", 
		 "theory": "DFT", 
		 "functional": "B3LYP", 
		 "basiset": "6-31G**", 
		 "properties": { 
			 "R2extent": 4495.5187, 
			 "electric_dipole_moment_norm": 4.39858771426, 
			 "electric_quadrupole_moment_norm": 11.1639814596, 
			 "total_energy": -1014.16591509, 
			 "HOMO_LUMO_gap": 0.16162, 
			 "cosmo_polarized_energy": -9.22, 
			 "cosmo_cavitation_energy": 28.45, 
			 "cosmo_dispersion_energy": -21.04, 
			 "cosmo_repulsion_energy": 1.63, 
			 "cosmo_total_nonelectrostatic_energy": 9.04, 
			 "SMD_solvation_energy": 4.09 
		},
		"coords": [
			{
				"x": -1.9429476187,
				"y": -1.3775974406,
				"z": 2.748560385,
				"element": "C" 
			},
			{
				"x": -1.7216574582,
				"y": -0.7029856731,
				"z": 1.4180864631,
				"element": "C" 
			},
			{
				"x": -0.660241103,
				"y": 0.1586651487,
				"z": 1.2141020406,
				"element": "C" 
			},
			{
				"x": -0.4607076117,
				"y": 0.7873175419,
				"z": -0.0385962009,
				"element": "C" 
			},
			{
				"x": -1.3725008559,
				"y": 0.5260375471,
				"z": -1.109636308,
				"element": "C" 
			},
			{
				"x": -2.4585164902,
				"y": -0.3619486525,
				"z": -0.8842739686,
				"element": "C" 
			},
			{
				"x": -2.6238825556,
				"y": -0.9558242312,
				"z": 0.3435859915,
				"element": "C" 
			},
			{
				"x": -1.1312317124,
				"y": 1.1755034483,
				"z": -2.3364613264,
				"element": "C" 
			},
			{
				"x": -0.051669587,
				"y": 2.0296020756,
				"z": -2.4858950604,
				"element": "C" 
			},
			{
				"x": 0.1614807689,
				"y": 2.6915354624,
				"z": -3.7994219588,
				"element": "C" 
			},
			{
				"x": -0.5755998808,
				"y": 2.5138566191,
				"z": -4.7524302141,
				"element": "O" 
			},
			{
				"x": 0.7820528899,
				"y": 2.2044199114,
				"z": -1.3395860603,
				"element": "C" 
			},
			{
				"x": 2.1825751631,
				"y": 3.2819295109,
				"z": -1.4540382342,
				"element": "Cl" 
			},
			{
				"x": 0.6049171852,
				"y": 1.6311444078,
				"z": -0.1879715801,
				"element": "N" 
			},
			{
				"x": -1.9225402555,
				"y": -2.4686724473,
				"z": 2.6443108532,
				"element": "H" 
			},
			{
				"x": -1.1786668669,
				"y": -1.0924473987,
				"z": 3.4752713652,
				"element": "H" 
			},
			{
				"x": -2.9224975376,
				"y": -1.1147113645,
				"z": 3.1645976968,
				"element": "H" 
			},
			{
				"x": 0.0490259339,
				"y": 0.3778642821,
				"z": 2.005881817,
				"element": "H" 
			},
			{
				"x": -3.1529652481,
				"y": -0.5626805175,
				"z": -1.6954748444,
				"element": "H" 
			},
			{
				"x": -3.4574622514,
				"y": -1.633794917,
				"z": 0.5072411578,
				"element": "H" 
			},
			{
				"x": -1.7829432273,
				"y": 1.0237004027,
				"z": -3.1930242877,
				"element": "H" 
			},
			{
				"x": 1.0354783193,
				"y": 3.3629862844,
				"z": -3.8686277263,
				"element": "H" 
			}
		],
		 "valence_orbital": [ 
			{
				"type": "occ",
				"energy": -0.319,
				"method": "rhf"
			},
			{
				"type": "occ",
				"energy": -0.28529,
				"method": "rhf"
			},
			{
				"type": "occ",
				"energy": -0.26131,
				"method": "rhf"
			},
			{
				"type": "occ",
				"energy": -0.25944,
				"method": "rhf"
			},
			{
				"type": "occ",
				"energy": -0.24916,
				"method": "rhf"
			},
			{
				"type": "unocc",
				"energy": -0.08754,
				"method": "rhf"
			},
			{
				"type": "unocc",
				"energy": -0.05393,
				"method": "rhf"
			},
			{
				"type": "unocc",
				"energy": -0.00072,
				"method": "rhf"
			},
			{
				"type": "unocc",
				"energy": 0.00686,
				"method": "rhf"
			},
			{
				"type": "unocc",
				"energy": 0.0262,
				"method": "rhf"
			}
		],
		"cosmo_sigma_profile": { 
			"-0.025": 0.0,
			"-0.024": 0.0,
			"-0.023": 0.0,
			"-0.022": 0.0,
			"-0.021": 0.0,
			"-0.02": 0.0,
			"-0.019": 0.0,
			"-0.018": 0.0,
			"-0.017": 0.0,
			"-0.016": 0.0,
			"-0.015": 0.0,
			"-0.014": 0.0,
			"-0.013": 0.0,
			"-0.012": 0.0,
			"-0.011": 0.0,
			"-0.01": 0.0,
			"-0.009": 0.367136530812,
			"-0.008": 2.51747603954,
			"-0.007": 5.38759251498,
			"-0.006": 9.38120647918,
			"-0.005": 17.0432438442,
			"-0.004": 17.7467220929,
			"-0.003": 19.5270764118,
			"-0.002": 21.6202059319,
			"-0.001": 24.2970119807,
			"0.0": 20.9137080886,
			"0.001": 17.4212685884,
			"0.002": 19.9321434397,
			"0.003": 14.6299571878,
			"0.004": 9.14827884844,
			"0.005": 5.95745657586,
			"0.006": 3.24437972488,
			"0.007": 3.10803718294,
			"0.008": 3.45277827826,
			"0.009": 3.50015846976,
			"0.01": 4.10886120505,
			"0.011": 4.34741458837,
			"0.012": 2.43710080207,
			"0.013": 0.736298542942,
			"0.014": 0.233679213747,
			"0.015": 0.0,
			"0.016": 0.0,
			"0.017": 0.0,
			"0.018": 0.0,
			"0.019": 0.0,
			"0.02": 0.0,
			"0.021": 0.0,
			"0.022": 0.0,
			"0.023": 0.0,
			"0.024": 0.0,
			"0.025": 0.0
		}
	}
}
