{
	 "smiles": "CCCCCCCCCCCCCCCC(C)=O", 
	 "Tm": 321.15, 
	 "num_atms": 52, 
	 "gaussian": { 
		 "optdone": 1, 
		 "sigma_profile": "yes", 
		 "theory": "DFT", 
		 "functional": "B3LYP", 
		 "basiset": "6-31G**", 
		 "properties": { 
			 "R2extent": 10384.0136, 
			 "electric_dipole_moment_norm": 2.71538969763, 
			 "electric_quadrupole_moment_norm": 26.1164118753, 
			 "total_energy": -743.572105335, 
			 "HOMO_LUMO_gap": 0.23318, 
			 "cosmo_polarized_energy": -7.39, 
			 "cosmo_cavitation_energy": 51.14, 
			 "cosmo_dispersion_energy": -33.38, 
			 "cosmo_repulsion_energy": 2.73, 
			 "cosmo_total_nonelectrostatic_energy": 20.5, 
			 "SMD_solvation_energy": 7.51 
		},
		"coords": [
			{
				"x": 4.6953313548,
				"y": 3.1344358379,
				"z": -1.5704838497,
				"element": "C" 
			},
			{
				"x": 3.592277251,
				"y": 3.1024837448,
				"z": -2.6353585292,
				"element": "C" 
			},
			{
				"x": 2.5134790947,
				"y": 2.0310874134,
				"z": -2.4027356565,
				"element": "C" 
			},
			{
				"x": 3.0219219428,
				"y": 0.5855286161,
				"z": -2.5099674336,
				"element": "C" 
			},
			{
				"x": 1.9159791568,
				"y": -0.4830821471,
				"z": -2.4408691374,
				"element": "C" 
			},
			{
				"x": 1.1233756153,
				"y": -0.5485226643,
				"z": -1.1227104489,
				"element": "C" 
			},
			{
				"x": 1.9675377232,
				"y": -0.921251582,
				"z": 0.1057143196,
				"element": "C" 
			},
			{
				"x": 1.1538307245,
				"y": -1.1540472727,
				"z": 1.3903124508,
				"element": "C" 
			},
			{
				"x": 0.4584853866,
				"y": 0.1015718674,
				"z": 1.9387394598,
				"element": "C" 
			},
			{
				"x": -0.2147720104,
				"y": -0.0922774903,
				"z": 3.3091325878,
				"element": "C" 
			},
			{
				"x": -1.3633295705,
				"y": -1.1183229803,
				"z": 3.3540518569,
				"element": "C" 
			},
			{
				"x": -2.5621306935,
				"y": -0.824039832,
				"z": 2.434841625,
				"element": "C" 
			},
			{
				"x": -3.3069247005,
				"y": 0.479600428,
				"z": 2.762002538,
				"element": "C" 
			},
			{
				"x": -4.6060868121,
				"y": 0.6897977104,
				"z": 1.9683280974,
				"element": "C" 
			},
			{
				"x": -4.3977116523,
				"y": 0.8855672378,
				"z": 0.4646903067,
				"element": "C" 
			},
			{
				"x": -5.6778084693,
				"y": 1.2092125408,
				"z": -0.2985292504,
				"element": "C" 
			},
			{
				"x": -5.5534103681,
				"y": 1.3318959198,
				"z": -1.8091093604,
				"element": "C" 
			},
			{
				"x": -6.7452732016,
				"y": 1.3606330265,
				"z": 0.2654204542,
				"element": "O" 
			},
			{
				"x": 4.2730415749,
				"y": 3.2879006402,
				"z": -0.5702597386,
				"element": "H" 
			},
			{
				"x": 5.2689068044,
				"y": 2.2022211862,
				"z": -1.5475514338,
				"element": "H" 
			},
			{
				"x": 5.4023467355,
				"y": 3.9489458861,
				"z": -1.7597494086,
				"element": "H" 
			},
			{
				"x": 4.0446729055,
				"y": 2.9492060803,
				"z": -3.6249482693,
				"element": "H" 
			},
			{
				"x": 3.1073414064,
				"y": 4.0864389595,
				"z": -2.6737316277,
				"element": "H" 
			},
			{
				"x": 2.0575978506,
				"y": 2.196007267,
				"z": -1.4168189661,
				"element": "H" 
			},
			{
				"x": 1.708442118,
				"y": 2.1755130661,
				"z": -3.1370097761,
				"element": "H" 
			},
			{
				"x": 3.55156323,
				"y": 0.4706809198,
				"z": -3.4660241665,
				"element": "H" 
			},
			{
				"x": 3.7689778463,
				"y": 0.3925419616,
				"z": -1.7304654728,
				"element": "H" 
			},
			{
				"x": 1.2109085661,
				"y": -0.3119304049,
				"z": -3.2661486901,
				"element": "H" 
			},
			{
				"x": 2.3670320088,
				"y": -1.4673977867,
				"z": -2.6277197245,
				"element": "H" 
			},
			{
				"x": 0.3249077284,
				"y": -1.2950719802,
				"z": -1.238112922,
				"element": "H" 
			},
			{
				"x": 0.6152097108,
				"y": 0.4083340767,
				"z": -0.9511351228,
				"element": "H" 
			},
			{
				"x": 2.7163835825,
				"y": -0.1405201722,
				"z": 0.2960973355,
				"element": "H" 
			},
			{
				"x": 2.5340956159,
				"y": -1.8346968019,
				"z": -0.1230447361,
				"element": "H" 
			},
			{
				"x": 0.4117519229,
				"y": -1.9420384543,
				"z": 1.2030571846,
				"element": "H" 
			},
			{
				"x": 1.8247768599,
				"y": -1.5488981011,
				"z": 2.1659304589,
				"element": "H" 
			},
			{
				"x": -0.2799404123,
				"y": 0.4664699281,
				"z": 1.2137470463,
				"element": "H" 
			},
			{
				"x": 1.2049953945,
				"y": 0.9027644294,
				"z": 2.0318774591,
				"element": "H" 
			},
			{
				"x": -0.5826011379,
				"y": 0.8799883653,
				"z": 3.6606702191,
				"element": "H" 
			},
			{
				"x": 0.5493319756,
				"y": -0.4011777975,
				"z": 4.0356435853,
				"element": "H" 
			},
			{
				"x": -1.72347888,
				"y": -1.185256273,
				"z": 4.3898142918,
				"element": "H" 
			},
			{
				"x": -0.9708525839,
				"y": -2.1137597514,
				"z": 3.1110625978,
				"element": "H" 
			},
			{
				"x": -3.2703156261,
				"y": -1.6606230334,
				"z": 2.5132668567,
				"element": "H" 
			},
			{
				"x": -2.2281065962,
				"y": -0.8135547144,
				"z": 1.389199619,
				"element": "H" 
			},
			{
				"x": -3.5511080409,
				"y": 0.4833969498,
				"z": 3.8331081577,
				"element": "H" 
			},
			{
				"x": -2.6439977715,
				"y": 1.3408858416,
				"z": 2.601589623,
				"element": "H" 
			},
			{
				"x": -5.2807791207,
				"y": -0.1604708505,
				"z": 2.127621963,
				"element": "H" 
			},
			{
				"x": -5.1380619677,
				"y": 1.5639160109,
				"z": 2.3586459955,
				"element": "H" 
			},
			{
				"x": -3.9419793244,
				"y": 0.001151381,
				"z": -0.0014770605,
				"element": "H" 
			},
			{
				"x": -3.6848082085,
				"y": 1.7031431321,
				"z": 0.2750411075,
				"element": "H" 
			},
			{
				"x": -5.2655783054,
				"y": 0.3668019427,
				"z": -2.2430059442,
				"element": "H" 
			},
			{
				"x": -6.5073797308,
				"y": 1.6480393459,
				"z": -2.2334473644,
				"element": "H" 
			},
			{
				"x": -4.770066902,
				"y": 2.048578377,
				"z": -2.0805931069,
				"element": "H" 
			}
		],
		 "valence_orbital": [ 
			{
				"type": "occ",
				"energy": -0.30633,
				"method": "rhf"
			},
			{
				"type": "occ",
				"energy": -0.30386,
				"method": "rhf"
			},
			{
				"type": "occ",
				"energy": -0.30049,
				"method": "rhf"
			},
			{
				"type": "occ",
				"energy": -0.29872,
				"method": "rhf"
			},
			{
				"type": "occ",
				"energy": -0.24192,
				"method": "rhf"
			},
			{
				"type": "unocc",
				"energy": -0.00874,
				"method": "rhf"
			},
			{
				"type": "unocc",
				"energy": 0.06984,
				"method": "rhf"
			},
			{
				"type": "unocc",
				"energy": 0.082,
				"method": "rhf"
			},
			{
				"type": "unocc",
				"energy": 0.09005,
				"method": "rhf"
			},
			{
				"type": "unocc",
				"energy": 0.09905,
				"method": "rhf"
			}
		],
		"cosmo_sigma_profile": { 
			"-0.025": 0.0,
			"-0.024": 0.0,
			"-0.023": 0.0,
			"-0.022": 0.0,
			"-0.021": 0.0,
			"-0.02": 0.0,
			"-0.019": 0.0,
			"-0.018": 0.0,
			"-0.017": 0.0,
			"-0.016": 0.0,
			"-0.015": 0.0,
			"-0.014": 0.0,
			"-0.013": 0.0,
			"-0.012": 0.0,
			"-0.011": 0.0,
			"-0.01": 0.0,
			"-0.009": 0.0,
			"-0.008": 0.0,
			"-0.007": 0.0067791163268,
			"-0.006": 5.46428848693,
			"-0.005": 10.3924450307,
			"-0.004": 9.67538281209,
			"-0.003": 12.7709492049,
			"-0.002": 47.9629380063,
			"-0.001": 90.134387374,
			"0.0": 88.1086093783,
			"0.001": 73.7047583152,
			"0.002": 28.1618611115,
			"0.003": 2.25957988283,
			"0.004": 2.12589801913,
			"0.005": 1.54146847757,
			"0.006": 1.24574609101,
			"0.007": 2.32068483068,
			"0.008": 1.75625627419,
			"0.009": 1.1576266371,
			"0.01": 2.27383075388,
			"0.011": 2.83077226477,
			"0.012": 4.17751487155,
			"0.013": 2.91338118286,
			"0.014": 0.482251167194,
			"0.015": 0.0,
			"0.016": 0.0,
			"0.017": 0.0,
			"0.018": 0.0,
			"0.019": 0.0,
			"0.02": 0.0,
			"0.021": 0.0,
			"0.022": 0.0,
			"0.023": 0.0,
			"0.024": 0.0,
			"0.025": 0.0
		}
	}
}
