{
	 "smiles": "OC(=O)C1=C(Br)C(F)=CC=C1", 
	 "Tm": 432.15, 
	 "num_atms": 15, 
	 "gaussian": { 
		 "optdone": 1, 
		 "sigma_profile": "yes", 
		 "theory": "DFT", 
		 "functional": "B3LYP", 
		 "basiset": "6-31G**", 
		 "properties": { 
			 "R2extent": 2820.5047, 
			 "electric_dipole_moment_norm": 3.47121802974, 
			 "electric_quadrupole_moment_norm": 7.92933729387, 
			 "total_energy": -3090.84531514, 
			 "HOMO_LUMO_gap": 0.1868, 
			 "cosmo_polarized_energy": -10.02, 
			 "cosmo_cavitation_energy": 22.49, 
			 "cosmo_dispersion_energy": -17.15, 
			 "cosmo_repulsion_energy": 1.35, 
			 "cosmo_total_nonelectrostatic_energy": 6.69, 
			 "SMD_solvation_energy": 4.59 
		},
		"coords": [
			{
				"x": -0.3094880849,
				"y": -2.3166689815,
				"z": 1.345941212,
				"element": "O" 
			},
			{
				"x": -1.0322187422,
				"y": -1.6581272704,
				"z": 0.4004325789,
				"element": "C" 
			},
			{
				"x": -1.9547214876,
				"y": -2.1909243968,
				"z": -0.1757471946,
				"element": "O" 
			},
			{
				"x": -0.5477775377,
				"y": -0.2565989868,
				"z": 0.207687835,
				"element": "C" 
			},
			{
				"x": -0.9760583218,
				"y": 0.555413277,
				"z": -0.8626351893,
				"element": "C" 
			},
			{
				"x": -2.159719924,
				"y": 0.0051562795,
				"z": -2.2372964195,
				"element": "Br" 
			},
			{
				"x": -0.4864571568,
				"y": 1.8624697352,
				"z": -0.9501955801,
				"element": "C" 
			},
			{
				"x": -0.8766563962,
				"y": 2.6482223502,
				"z": -1.9648542917,
				"element": "F" 
			},
			{
				"x": 0.399304431,
				"y": 2.3861771726,
				"z": -0.0179618082,
				"element": "C" 
			},
			{
				"x": 0.821951402,
				"y": 1.5826987435,
				"z": 1.0384989021,
				"element": "C" 
			},
			{
				"x": 0.3550963068,
				"y": 0.2771986649,
				"z": 1.1448149021,
				"element": "C" 
			},
			{
				"x": -0.7152081548,
				"y": -3.1966627463,
				"z": 1.410604194,
				"element": "H" 
			},
			{
				"x": 0.7399660035,
				"y": 3.4086900877,
				"z": -0.1403126116,
				"element": "H" 
			},
			{
				"x": 1.5144019084,
				"y": 1.9754120709,
				"z": 1.7756644723,
				"element": "H" 
			},
			{
				"x": 0.6805857545,
				"y": -0.3525559994,
				"z": 1.9624589984,
				"element": "H" 
			}
		],
		 "valence_orbital": [ 
			{
				"type": "occ",
				"energy": -0.32041,
				"method": "rhf"
			},
			{
				"type": "occ",
				"energy": -0.30384,
				"method": "rhf"
			},
			{
				"type": "occ",
				"energy": -0.27372,
				"method": "rhf"
			},
			{
				"type": "occ",
				"energy": -0.26408,
				"method": "rhf"
			},
			{
				"type": "occ",
				"energy": -0.25094,
				"method": "rhf"
			},
			{
				"type": "unocc",
				"energy": -0.06414,
				"method": "rhf"
			},
			{
				"type": "unocc",
				"energy": -0.02181,
				"method": "rhf"
			},
			{
				"type": "unocc",
				"energy": 0.00049,
				"method": "rhf"
			},
			{
				"type": "unocc",
				"energy": 0.04418,
				"method": "rhf"
			},
			{
				"type": "unocc",
				"energy": 0.07441,
				"method": "rhf"
			}
		],
		"cosmo_sigma_profile": { 
			"-0.025": 0.0,
			"-0.024": 0.0,
			"-0.023": 0.0,
			"-0.022": 0.0,
			"-0.021": 0.0,
			"-0.02": 0.0,
			"-0.019": 0.111790236874,
			"-0.018": 0.741726819194,
			"-0.017": 1.13632409483,
			"-0.016": 0.880384077143,
			"-0.015": 0.52811173118,
			"-0.014": 0.388000125399,
			"-0.013": 0.325911088188,
			"-0.012": 1.33766323498,
			"-0.011": 0.957712547865,
			"-0.01": 0.706237837474,
			"-0.009": 1.38190310063,
			"-0.008": 3.41472169691,
			"-0.007": 6.48158738807,
			"-0.006": 7.5297195581,
			"-0.005": 6.97696815555,
			"-0.004": 6.75914086161,
			"-0.003": 9.44282817944,
			"-0.002": 11.5766640286,
			"-0.001": 17.455270257,
			"0.0": 20.0567942284,
			"0.001": 15.7104008563,
			"0.002": 14.2686835226,
			"0.003": 15.1904756301,
			"0.004": 13.2311214057,
			"0.005": 7.27233730324,
			"0.006": 3.99031014141,
			"0.007": 2.80583273938,
			"0.008": 2.06719037743,
			"0.009": 2.16757470284,
			"0.01": 2.62158608791,
			"0.011": 4.77806918541,
			"0.012": 2.01456160631,
			"0.013": 0.0,
			"0.014": 0.0,
			"0.015": 0.0,
			"0.016": 0.0,
			"0.017": 0.0,
			"0.018": 0.0,
			"0.019": 0.0,
			"0.02": 0.0,
			"0.021": 0.0,
			"0.022": 0.0,
			"0.023": 0.0,
			"0.024": 0.0,
			"0.025": 0.0
		}
	}
}
