{
	 "smiles": "CNCCCCCCN(C)N(O)N=O", 
	 "Tm": 378.15, 
	 "num_atms": 34, 
	 "gaussian": { 
		 "optdone": 1, 
		 "sigma_profile": "yes", 
		 "theory": "DFT", 
		 "functional": "B3LYP", 
		 "basiset": "6-31G**", 
		 "properties": { 
			 "R2extent": 4993.6594, 
			 "electric_dipole_moment_norm": 3.89027262541, 
			 "electric_quadrupole_moment_norm": 12.2042500868, 
			 "total_energy": -686.17045578, 
			 "HOMO_LUMO_gap": 0.16592, 
			 "cosmo_polarized_energy": -13.77, 
			 "cosmo_cavitation_energy": 35.27, 
			 "cosmo_dispersion_energy": -24.34, 
			 "cosmo_repulsion_energy": 1.97, 
			 "cosmo_total_nonelectrostatic_energy": 12.9, 
			 "SMD_solvation_energy": 4.42 
		},
		"coords": [
			{
				"x": 4.434483092,
				"y": -0.8726129776,
				"z": 1.83664369,
				"element": "C" 
			},
			{
				"x": 3.1456106739,
				"y": -0.2656386424,
				"z": 2.1436960111,
				"element": "N" 
			},
			{
				"x": 2.0175318461,
				"y": -1.1632716768,
				"z": 1.903650626,
				"element": "C" 
			},
			{
				"x": 0.6763454728,
				"y": -0.4665716306,
				"z": 2.1709288589,
				"element": "C" 
			},
			{
				"x": 0.2482653333,
				"y": 0.5847380057,
				"z": 1.1173326224,
				"element": "C" 
			},
			{
				"x": -0.780956924,
				"y": 0.1031758958,
				"z": 0.078230604,
				"element": "C" 
			},
			{
				"x": -0.28962951,
				"y": -1.015895948,
				"z": -0.8476306238,
				"element": "C" 
			},
			{
				"x": -1.3301657489,
				"y": -1.5557514086,
				"z": -1.8433335392,
				"element": "C" 
			},
			{
				"x": -1.7853890607,
				"y": -0.6831328756,
				"z": -2.9379400487,
				"element": "N" 
			},
			{
				"x": -2.8353336017,
				"y": 0.3118654863,
				"z": -2.7471175249,
				"element": "C" 
			},
			{
				"x": -0.8492299747,
				"y": -0.3630230322,
				"z": -3.8921621372,
				"element": "N" 
			},
			{
				"x": -0.4287071413,
				"y": -1.4248143636,
				"z": -4.6962674251,
				"element": "O" 
			},
			{
				"x": 0.065556629,
				"y": 0.6380448381,
				"z": -3.8567713731,
				"element": "N" 
			},
			{
				"x": -0.0929353305,
				"y": 1.4190668274,
				"z": -2.926476574,
				"element": "O" 
			},
			{
				"x": 4.621949164,
				"y": -1.7018594607,
				"z": 2.5291346241,
				"element": "H" 
			},
			{
				"x": 5.2322226998,
				"y": -0.1370471885,
				"z": 1.9792898564,
				"element": "H" 
			},
			{
				"x": 4.5184991909,
				"y": -1.2763603125,
				"z": 0.8101744793,
				"element": "H" 
			},
			{
				"x": 3.0320464757,
				"y": 0.5733568778,
				"z": 1.5800912149,
				"element": "H" 
			},
			{
				"x": 2.0289580784,
				"y": -1.5927465299,
				"z": 0.8828214386,
				"element": "H" 
			},
			{
				"x": 2.1234487947,
				"y": -2.0123914703,
				"z": 2.5926934333,
				"element": "H" 
			},
			{
				"x": 0.7559132196,
				"y": 0.0082339959,
				"z": 3.155495563,
				"element": "H" 
			},
			{
				"x": -0.1079440554,
				"y": -1.2299162703,
				"z": 2.2594571416,
				"element": "H" 
			},
			{
				"x": 1.1278314624,
				"y": 0.9721479452,
				"z": 0.5839202706,
				"element": "H" 
			},
			{
				"x": -0.1830369954,
				"y": 1.4513789473,
				"z": 1.6318983287,
				"element": "H" 
			},
			{
				"x": -1.0705665386,
				"y": 0.961781626,
				"z": -0.5348581086,
				"element": "H" 
			},
			{
				"x": -1.6857904666,
				"y": -0.2344954598,
				"z": 0.606000547,
				"element": "H" 
			},
			{
				"x": 0.5959402777,
				"y": -0.6783028036,
				"z": -1.3987028886,
				"element": "H" 
			},
			{
				"x": 0.0334192652,
				"y": -1.8783063675,
				"z": -0.2491987382,
				"element": "H" 
			},
			{
				"x": -0.9270169648,
				"y": -2.4546751124,
				"z": -2.3225659317,
				"element": "H" 
			},
			{
				"x": -2.2398000794,
				"y": -1.8615292172,
				"z": -1.3126571963,
				"element": "H" 
			},
			{
				"x": -3.6584891928,
				"y": -0.1649379591,
				"z": -2.2062212479,
				"element": "H" 
			},
			{
				"x": -2.5131473186,
				"y": 1.2045606028,
				"z": -2.2014903389,
				"element": "H" 
			},
			{
				"x": -3.2075603782,
				"y": 0.6206115038,
				"z": -3.7283122529,
				"element": "H" 
			},
			{
				"x": -1.1370223938,
				"y": -1.5213818452,
				"z": -5.3533533606,
				"element": "H" 
			}
		],
		 "valence_orbital": [ 
			{
				"type": "occ",
				"energy": -0.30769,
				"method": "rhf"
			},
			{
				"type": "occ",
				"energy": -0.27678,
				"method": "rhf"
			},
			{
				"type": "occ",
				"energy": -0.24908,
				"method": "rhf"
			},
			{
				"type": "occ",
				"energy": -0.21868,
				"method": "rhf"
			},
			{
				"type": "occ",
				"energy": -0.21133,
				"method": "rhf"
			},
			{
				"type": "unocc",
				"energy": -0.04541,
				"method": "rhf"
			},
			{
				"type": "unocc",
				"energy": 0.04755,
				"method": "rhf"
			},
			{
				"type": "unocc",
				"energy": 0.08774,
				"method": "rhf"
			},
			{
				"type": "unocc",
				"energy": 0.0886,
				"method": "rhf"
			},
			{
				"type": "unocc",
				"energy": 0.10712,
				"method": "rhf"
			}
		],
		"cosmo_sigma_profile": { 
			"-0.025": 0.0,
			"-0.024": 0.0,
			"-0.023": 0.0,
			"-0.022": 0.0,
			"-0.021": 0.0,
			"-0.02": 0.0,
			"-0.019": 0.298839764586,
			"-0.018": 1.26938575559,
			"-0.017": 1.04609404665,
			"-0.016": 0.798015832121,
			"-0.015": 1.13959186154,
			"-0.014": 0.76348376057,
			"-0.013": 0.382609671153,
			"-0.012": 0.656657319129,
			"-0.011": 0.724318184145,
			"-0.01": 0.991779353005,
			"-0.009": 1.09997223658,
			"-0.008": 1.91828520523,
			"-0.007": 2.39306603791,
			"-0.006": 4.47328342896,
			"-0.005": 9.86375920904,
			"-0.004": 11.552080542,
			"-0.003": 21.5343590916,
			"-0.002": 42.1569352847,
			"-0.001": 43.238392294,
			"0.0": 36.2280615657,
			"0.001": 23.7507454063,
			"0.002": 9.50041159666,
			"0.003": 6.00843292809,
			"0.004": 6.73575752801,
			"0.005": 5.23656214923,
			"0.006": 4.86238977749,
			"0.007": 5.96652054796,
			"0.008": 6.46332063066,
			"0.009": 6.14650023377,
			"0.01": 5.93727064905,
			"0.011": 3.8191873245,
			"0.012": 2.30730101502,
			"0.013": 0.660642650059,
			"0.014": 0.15370652733,
			"0.015": 0.447209240333,
			"0.016": 0.665582144408,
			"0.017": 0.428683617757,
			"0.018": 0.680487688283,
			"0.019": 0.18098677589,
			"0.02": 0.0,
			"0.021": 0.0,
			"0.022": 0.0,
			"0.023": 0.0,
			"0.024": 0.0,
			"0.025": 0.0
		}
	}
}
