{
	 "smiles": "CCC(NC(=O)C1=CC=CC=C1)C(N)=S", 
	 "Tm": 518.15, 
	 "num_atms": 29, 
	 "gaussian": { 
		 "optdone": 1, 
		 "sigma_profile": "yes", 
		 "theory": "DFT", 
		 "functional": "B3LYP", 
		 "basiset": "6-31G**", 
		 "properties": { 
			 "R2extent": 5014.5058, 
			 "electric_dipole_moment_norm": 5.69793658792, 
			 "electric_quadrupole_moment_norm": 16.3613291963, 
			 "total_energy": -1010.55105706, 
			 "HOMO_LUMO_gap": 0.16714, 
			 "cosmo_polarized_energy": -21.16, 
			 "cosmo_cavitation_energy": 33.97, 
			 "cosmo_dispersion_energy": -24.19, 
			 "cosmo_repulsion_energy": 1.86, 
			 "cosmo_total_nonelectrostatic_energy": 11.65, 
			 "SMD_solvation_energy": 5.25 
		},
		"coords": [
			{
				"x": -3.5991764479,
				"y": 0.0852548166,
				"z": 1.2419206085,
				"element": "C" 
			},
			{
				"x": -3.0971725823,
				"y": -0.1934796124,
				"z": -0.1769908815,
				"element": "C" 
			},
			{
				"x": -1.9764388051,
				"y": 0.7469087053,
				"z": -0.7009294011,
				"element": "C" 
			},
			{
				"x": -0.7703861253,
				"y": 0.7150539419,
				"z": 0.1479012672,
				"element": "N" 
			},
			{
				"x": 0.0170432206,
				"y": -0.4218277867,
				"z": 0.2002836581,
				"element": "C" 
			},
			{
				"x": -0.3337473769,
				"y": -1.4889669826,
				"z": -0.2905579085,
				"element": "O" 
			},
			{
				"x": 1.336704279,
				"y": -0.2723023183,
				"z": 0.9047387555,
				"element": "C" 
			},
			{
				"x": 1.6211433754,
				"y": 0.7669111957,
				"z": 1.8025925818,
				"element": "C" 
			},
			{
				"x": 2.8690929232,
				"y": 0.8410431307,
				"z": 2.4212584142,
				"element": "C" 
			},
			{
				"x": 3.8424723812,
				"y": -0.1221749407,
				"z": 2.1489312707,
				"element": "C" 
			},
			{
				"x": 3.5608340493,
				"y": -1.167123419,
				"z": 1.2648376785,
				"element": "C" 
			},
			{
				"x": 2.3131172236,
				"y": -1.2453138152,
				"z": 0.6510805596,
				"element": "C" 
			},
			{
				"x": -2.4819071846,
				"y": 2.1822234917,
				"z": -0.8252578483,
				"element": "C" 
			},
			{
				"x": -2.3244753329,
				"y": 2.9463723666,
				"z": 0.2792212402,
				"element": "N" 
			},
			{
				"x": -3.1913195626,
				"y": 2.7482386568,
				"z": -2.2139102718,
				"element": "S" 
			},
			{
				"x": -4.0996406509,
				"y": 1.0559052989,
				"z": 1.3229852992,
				"element": "H" 
			},
			{
				"x": -2.7811652719,
				"y": 0.0549390074,
				"z": 1.9698774827,
				"element": "H" 
			},
			{
				"x": -4.3252365726,
				"y": -0.6782520714,
				"z": 1.5372353462,
				"element": "H" 
			},
			{
				"x": -3.9230579098,
				"y": -0.1210359626,
				"z": -0.8921819195,
				"element": "H" 
			},
			{
				"x": -2.6975972523,
				"y": -1.2076235421,
				"z": -0.2389590052,
				"element": "H" 
			},
			{
				"x": -1.7239157812,
				"y": 0.4079262033,
				"z": -1.7099537999,
				"element": "H" 
			},
			{
				"x": -0.2521237204,
				"y": 1.583292658,
				"z": 0.1863144462,
				"element": "H" 
			},
			{
				"x": 0.8612204888,
				"y": 1.5027411658,
				"z": 2.0492932863,
				"element": "H" 
			},
			{
				"x": 3.0780257798,
				"y": 1.6446545194,
				"z": 3.1212994455,
				"element": "H" 
			},
			{
				"x": 4.8145856979,
				"y": -0.0625978806,
				"z": 2.6297948118,
				"element": "H" 
			},
			{
				"x": 4.3141148152,
				"y": -1.9211495924,
				"z": 1.0563313901,
				"element": "H" 
			},
			{
				"x": 2.0679527767,
				"y": -2.0527804283,
				"z": -0.0303920875,
				"element": "H" 
			},
			{
				"x": -2.0690117803,
				"y": 2.5282422867,
				"z": 1.1634664635,
				"element": "H" 
			},
			{
				"x": -2.7289346539,
				"y": 3.8725209074,
				"z": 0.2796691175,
				"element": "H" 
			}
		],
		 "valence_orbital": [ 
			{
				"type": "occ",
				"energy": -0.26658,
				"method": "rhf"
			},
			{
				"type": "occ",
				"energy": -0.2644,
				"method": "rhf"
			},
			{
				"type": "occ",
				"energy": -0.25754,
				"method": "rhf"
			},
			{
				"type": "occ",
				"energy": -0.24003,
				"method": "rhf"
			},
			{
				"type": "occ",
				"energy": -0.21446,
				"method": "rhf"
			},
			{
				"type": "unocc",
				"energy": -0.04732,
				"method": "rhf"
			},
			{
				"type": "unocc",
				"energy": -0.04083,
				"method": "rhf"
			},
			{
				"type": "unocc",
				"energy": -0.01662,
				"method": "rhf"
			},
			{
				"type": "unocc",
				"energy": 0.04323,
				"method": "rhf"
			},
			{
				"type": "unocc",
				"energy": 0.05016,
				"method": "rhf"
			}
		],
		"cosmo_sigma_profile": { 
			"-0.025": 0.0,
			"-0.024": 0.0,
			"-0.023": 0.0,
			"-0.022": 0.0,
			"-0.021": 0.0,
			"-0.02": 0.0,
			"-0.019": 0.0,
			"-0.018": 0.0,
			"-0.017": 0.0,
			"-0.016": 0.0917704386914,
			"-0.015": 1.69176618209,
			"-0.014": 1.69706488093,
			"-0.013": 3.34003745091,
			"-0.012": 5.13641215406,
			"-0.011": 3.80872183507,
			"-0.01": 2.17060627199,
			"-0.009": 3.22895013215,
			"-0.008": 3.45629610502,
			"-0.007": 3.68344240633,
			"-0.006": 10.8559197545,
			"-0.005": 13.3945984249,
			"-0.004": 17.0971882974,
			"-0.003": 18.1162686664,
			"-0.002": 19.0418895721,
			"-0.001": 23.6019257729,
			"0.0": 22.7995403424,
			"0.001": 18.560722604,
			"0.002": 13.0166876367,
			"0.003": 15.285732075,
			"0.004": 17.2657394275,
			"0.005": 8.97465891597,
			"0.006": 5.88817507424,
			"0.007": 6.16025903435,
			"0.008": 8.9393942919,
			"0.009": 6.43549598765,
			"0.01": 5.3603043231,
			"0.011": 4.88437300141,
			"0.012": 4.04398733938,
			"0.013": 3.22981480623,
			"0.014": 0.415895790758,
			"0.015": 0.0,
			"0.016": 0.0,
			"0.017": 0.0,
			"0.018": 0.0,
			"0.019": 0.0,
			"0.02": 0.0,
			"0.021": 0.0,
			"0.022": 0.0,
			"0.023": 0.0,
			"0.024": 0.0,
			"0.025": 0.0
		}
	}
}
