{
	 "smiles": "CC(=O)C1=CSC(N)=N1", 
	 "Tm": 444.15, 
	 "num_atms": 15, 
	 "gaussian": { 
		 "optdone": 1, 
		 "sigma_profile": "yes", 
		 "theory": "DFT", 
		 "functional": "B3LYP", 
		 "basiset": "6-31G**", 
		 "properties": { 
			 "R2extent": 1723.8419, 
			 "electric_dipole_moment_norm": 4.43282208192, 
			 "electric_quadrupole_moment_norm": 6.60715864877, 
			 "total_energy": -777.058137043, 
			 "HOMO_LUMO_gap": 0.17474, 
			 "cosmo_polarized_energy": -12.93, 
			 "cosmo_cavitation_energy": 21.35, 
			 "cosmo_dispersion_energy": -16.33, 
			 "cosmo_repulsion_energy": 1.31, 
			 "cosmo_total_nonelectrostatic_energy": 6.33, 
			 "SMD_solvation_energy": 3.25 
		},
		"coords": [
			{
				"x": 0.3967927081,
				"y": 0.5827109976,
				"z": 3.0574700299,
				"element": "C" 
			},
			{
				"x": -0.1836121799,
				"y": -0.7176551125,
				"z": 2.5431242489,
				"element": "C" 
			},
			{
				"x": -0.5969670633,
				"y": -1.5914731869,
				"z": 3.2907488075,
				"element": "O" 
			},
			{
				"x": -0.2355611236,
				"y": -0.8995277999,
				"z": 1.0646683164,
				"element": "C" 
			},
			{
				"x": -0.7425399776,
				"y": -2.0247674924,
				"z": 0.4773406549,
				"element": "C" 
			},
			{
				"x": -0.6499880152,
				"y": -1.8887915247,
				"z": -1.2504286423,
				"element": "S" 
			},
			{
				"x": 0.1023067688,
				"y": -0.2918671813,
				"z": -1.0333299176,
				"element": "C" 
			},
			{
				"x": 0.4182813395,
				"y": 0.4914003179,
				"z": -2.1187552773,
				"element": "N" 
			},
			{
				"x": 0.245663905,
				"y": 0.0752950524,
				"z": 0.2048666092,
				"element": "N" 
			},
			{
				"x": 0.3716871904,
				"y": 0.5800388734,
				"z": 4.1477583929,
				"element": "H" 
			},
			{
				"x": -0.1703677196,
				"y": 1.4339696323,
				"z": 2.6667059771,
				"element": "H" 
			},
			{
				"x": 1.4246497865,
				"y": 0.7084812779,
				"z": 2.7016265326,
				"element": "H" 
			},
			{
				"x": -1.1474084674,
				"y": -2.8957894271,
				"z": 0.9701683129,
				"element": "H" 
			},
			{
				"x": 0.703300845,
				"y": 0.0159822199,
				"z": -2.9628957473,
				"element": "H" 
			},
			{
				"x": 0.9956620033,
				"y": 1.2867933534,
				"z": -1.8790682977,
				"element": "H" 
			}
		],
		 "valence_orbital": [ 
			{
				"type": "occ",
				"energy": -0.32548,
				"method": "rhf"
			},
			{
				"type": "occ",
				"energy": -0.2874,
				"method": "rhf"
			},
			{
				"type": "occ",
				"energy": -0.28634,
				"method": "rhf"
			},
			{
				"type": "occ",
				"energy": -0.24281,
				"method": "rhf"
			},
			{
				"type": "occ",
				"energy": -0.22202,
				"method": "rhf"
			},
			{
				"type": "unocc",
				"energy": -0.04728,
				"method": "rhf"
			},
			{
				"type": "unocc",
				"energy": 7e-05,
				"method": "rhf"
			},
			{
				"type": "unocc",
				"energy": 0.00758,
				"method": "rhf"
			},
			{
				"type": "unocc",
				"energy": 0.06177,
				"method": "rhf"
			},
			{
				"type": "unocc",
				"energy": 0.09719,
				"method": "rhf"
			}
		],
		"cosmo_sigma_profile": { 
			"-0.025": 0.0,
			"-0.024": 0.0,
			"-0.023": 0.0,
			"-0.022": 0.0,
			"-0.021": 0.0,
			"-0.02": 0.0,
			"-0.019": 0.0,
			"-0.018": 0.0,
			"-0.017": 0.0,
			"-0.016": 0.0,
			"-0.015": 0.734309067506,
			"-0.014": 2.58424067036,
			"-0.013": 2.3595112317,
			"-0.012": 2.99413507444,
			"-0.011": 2.78647442167,
			"-0.01": 3.15713083777,
			"-0.009": 2.57833882554,
			"-0.008": 2.82930844548,
			"-0.007": 3.64363176393,
			"-0.006": 3.80650698775,
			"-0.005": 7.98665394661,
			"-0.004": 8.61563910508,
			"-0.003": 10.4109089086,
			"-0.002": 10.5001086509,
			"-0.001": 12.8640173438,
			"0.0": 13.7454972482,
			"0.001": 14.0134341071,
			"0.002": 14.6048791538,
			"0.003": 12.2976404208,
			"0.004": 5.25801850824,
			"0.005": 4.45058034113,
			"0.006": 3.46701140304,
			"0.007": 3.89979156414,
			"0.008": 4.53796721841,
			"0.009": 2.9362639263,
			"0.01": 3.63272437269,
			"0.011": 3.80454159495,
			"0.012": 5.33025388863,
			"0.013": 2.18245622267,
			"0.014": 0.250902423757,
			"0.015": 0.0,
			"0.016": 0.0,
			"0.017": 0.0,
			"0.018": 0.0,
			"0.019": 0.0,
			"0.02": 0.0,
			"0.021": 0.0,
			"0.022": 0.0,
			"0.023": 0.0,
			"0.024": 0.0,
			"0.025": 0.0
		}
	}
}
