{
	 "smiles": "CC1=NN2C(=N1)C1=C(C=CC=C1)N=C2Cl", 
	 "Tm": 414.15, 
	 "num_atms": 22, 
	 "gaussian": { 
		 "optdone": 1, 
		 "sigma_profile": "yes", 
		 "theory": "DFT", 
		 "functional": "B3LYP", 
		 "basiset": "6-31G**", 
		 "properties": { 
			 "R2extent": 5049.2974, 
			 "electric_dipole_moment_norm": 2.37163427619, 
			 "electric_quadrupole_moment_norm": 13.4554709219, 
			 "total_energy": -1064.48552002, 
			 "HOMO_LUMO_gap": 0.18772, 
			 "cosmo_polarized_energy": -8.66, 
			 "cosmo_cavitation_energy": 28.54, 
			 "cosmo_dispersion_energy": -21.61, 
			 "cosmo_repulsion_energy": 1.67, 
			 "cosmo_total_nonelectrostatic_energy": 8.6, 
			 "SMD_solvation_energy": 0.52 
		},
		"coords": [
			{
				"x": 2.630542187,
				"y": -0.4366667678,
				"z": -2.514570081,
				"element": "C" 
			},
			{
				"x": 1.7919964531,
				"y": 0.4611429903,
				"z": -1.6625276887,
				"element": "C" 
			},
			{
				"x": 1.9459636391,
				"y": 1.7840575451,
				"z": -1.6707568732,
				"element": "N" 
			},
			{
				"x": 1.0029606946,
				"y": 2.1839223107,
				"z": -0.773271872,
				"element": "N" 
			},
			{
				"x": 0.3295424493,
				"y": 1.0813214401,
				"z": -0.2706351854,
				"element": "C" 
			},
			{
				"x": 0.8196532755,
				"y": -0.015096198,
				"z": -0.825555808,
				"element": "N" 
			},
			{
				"x": -0.7045295567,
				"y": 1.3095597015,
				"z": 0.6925487008,
				"element": "C" 
			},
			{
				"x": -0.9444224552,
				"y": 2.6657426407,
				"z": 1.0458751062,
				"element": "C" 
			},
			{
				"x": -1.9494442026,
				"y": 2.9587605306,
				"z": 1.9890036609,
				"element": "C" 
			},
			{
				"x": -2.6862730688,
				"y": 1.9329895093,
				"z": 2.5567553227,
				"element": "C" 
			},
			{
				"x": -2.44325609,
				"y": 0.5909881669,
				"z": 2.2020091209,
				"element": "C" 
			},
			{
				"x": -1.4612007991,
				"y": 0.2776793406,
				"z": 1.2777773356,
				"element": "C" 
			},
			{
				"x": -0.2233532451,
				"y": 3.7151363723,
				"z": 0.4947207165,
				"element": "N" 
			},
			{
				"x": 0.6938630536,
				"y": 3.4658498801,
				"z": -0.3643401816,
				"element": "C" 
			},
			{
				"x": 1.621577627,
				"y": 4.7422625987,
				"z": -1.0809064217,
				"element": "Cl" 
			},
			{
				"x": 2.5077725833,
				"y": -0.1928985319,
				"z": -3.5741058792,
				"element": "H" 
			},
			{
				"x": 3.6913799923,
				"y": -0.3231892386,
				"z": -2.2719444164,
				"element": "H" 
			},
			{
				"x": 2.3363009099,
				"y": -1.4739140531,
				"z": -2.3508738068,
				"element": "H" 
			},
			{
				"x": -2.1205906728,
				"y": 3.9979636255,
				"z": 2.2482046611,
				"element": "H" 
			},
			{
				"x": -3.4595741355,
				"y": 2.1646441788,
				"z": 3.2830163197,
				"element": "H" 
			},
			{
				"x": -3.0298997108,
				"y": -0.2013971032,
				"z": 2.6564754615,
				"element": "H" 
			},
			{
				"x": -1.2579089281,
				"y": -0.7485589384,
				"z": 0.9906018082,
				"element": "H" 
			}
		],
		 "valence_orbital": [ 
			{
				"type": "occ",
				"energy": -0.298,
				"method": "rhf"
			},
			{
				"type": "occ",
				"energy": -0.29658,
				"method": "rhf"
			},
			{
				"type": "occ",
				"energy": -0.28706,
				"method": "rhf"
			},
			{
				"type": "occ",
				"energy": -0.25014,
				"method": "rhf"
			},
			{
				"type": "occ",
				"energy": -0.24884,
				"method": "rhf"
			},
			{
				"type": "unocc",
				"energy": -0.06112,
				"method": "rhf"
			},
			{
				"type": "unocc",
				"energy": -0.04817,
				"method": "rhf"
			},
			{
				"type": "unocc",
				"energy": -0.00104,
				"method": "rhf"
			},
			{
				"type": "unocc",
				"energy": 0.02004,
				"method": "rhf"
			},
			{
				"type": "unocc",
				"energy": 0.04394,
				"method": "rhf"
			}
		],
		"cosmo_sigma_profile": { 
			"-0.025": 0.0,
			"-0.024": 0.0,
			"-0.023": 0.0,
			"-0.022": 0.0,
			"-0.021": 0.0,
			"-0.02": 0.0,
			"-0.019": 0.0,
			"-0.018": 0.0,
			"-0.017": 0.0,
			"-0.016": 0.0,
			"-0.015": 0.0,
			"-0.014": 0.0,
			"-0.013": 0.0,
			"-0.012": 0.0,
			"-0.011": 0.0,
			"-0.01": 0.0,
			"-0.009": 0.0,
			"-0.008": 0.300829527245,
			"-0.007": 7.99290871295,
			"-0.006": 13.0081668348,
			"-0.005": 19.038536604,
			"-0.004": 15.4475175767,
			"-0.003": 17.7199782611,
			"-0.002": 20.2790109656,
			"-0.001": 21.3647223874,
			"0.0": 19.1891845977,
			"0.001": 20.615436862,
			"0.002": 23.9121303932,
			"0.003": 16.4408970674,
			"0.004": 7.07692956817,
			"0.005": 4.36585514319,
			"0.006": 4.59333103272,
			"0.007": 2.93279066546,
			"0.008": 3.2949390646,
			"0.009": 4.14257246052,
			"0.01": 3.28894924036,
			"0.011": 2.8341206859,
			"0.012": 2.11274493711,
			"0.013": 2.02376720196,
			"0.014": 0.826629911423,
			"0.015": 0.0782953234191,
			"0.016": 0.0,
			"0.017": 0.0,
			"0.018": 0.0,
			"0.019": 0.0,
			"0.02": 0.0,
			"0.021": 0.0,
			"0.022": 0.0,
			"0.023": 0.0,
			"0.024": 0.0,
			"0.025": 0.0
		}
	}
}
