{
	 "smiles": "ClC1=C(COC2=C(C=O)C=CC=C2)C=CC=C1", 
	 "Tm": 358.15, 
	 "num_atms": 28, 
	 "gaussian": { 
		 "optdone": 1, 
		 "sigma_profile": "yes", 
		 "theory": "DFT", 
		 "functional": "B3LYP", 
		 "basiset": "6-31G**", 
		 "properties": { 
			 "R2extent": 6328.3784, 
			 "electric_dipole_moment_norm": 4.19398792797, 
			 "electric_quadrupole_moment_norm": 11.9527162411, 
			 "total_energy": -1150.74191522, 
			 "HOMO_LUMO_gap": 0.17833, 
			 "cosmo_polarized_energy": -9.98, 
			 "cosmo_cavitation_energy": 34.2, 
			 "cosmo_dispersion_energy": -24.22, 
			 "cosmo_repulsion_energy": 1.88, 
			 "cosmo_total_nonelectrostatic_energy": 11.86, 
			 "SMD_solvation_energy": 6.67 
		},
		"coords": [
			{
				"x": 1.9866551236,
				"y": 4.3768672282,
				"z": -2.2985395354,
				"element": "Cl" 
			},
			{
				"x": 1.5194773213,
				"y": 3.8094374571,
				"z": -0.6927074427,
				"element": "C" 
			},
			{
				"x": 0.5496131002,
				"y": 2.8063897651,
				"z": -0.5638443166,
				"element": "C" 
			},
			{
				"x": -0.1292235059,
				"y": 2.2077665991,
				"z": -1.7821543004,
				"element": "C" 
			},
			{
				"x": -0.9067509989,
				"y": 1.0504608038,
				"z": -1.4874109689,
				"element": "O" 
			},
			{
				"x": -0.3052133196,
				"y": -0.1776289492,
				"z": -1.4502572781,
				"element": "C" 
			},
			{
				"x": -1.1700905516,
				"y": -1.2941160302,
				"z": -1.3923083249,
				"element": "C" 
			},
			{
				"x": -2.6432564108,
				"y": -1.1402927343,
				"z": -1.3929984851,
				"element": "C" 
			},
			{
				"x": -3.4172054691,
				"y": -2.081024729,
				"z": -1.3286055841,
				"element": "O" 
			},
			{
				"x": -0.6200353741,
				"y": -2.5830204073,
				"z": -1.3448753038,
				"element": "C" 
			},
			{
				"x": 0.7557467236,
				"y": -2.778204282,
				"z": -1.3583925107,
				"element": "C" 
			},
			{
				"x": 1.5989594382,
				"y": -1.6647111837,
				"z": -1.4135147571,
				"element": "C" 
			},
			{
				"x": 1.0820193292,
				"y": -0.3692029919,
				"z": -1.4557456471,
				"element": "C" 
			},
			{
				"x": 0.1982345566,
				"y": 2.4080015818,
				"z": 0.7315072814,
				"element": "C" 
			},
			{
				"x": 0.8014525523,
				"y": 2.978089428,
				"z": 1.8517872602,
				"element": "C" 
			},
			{
				"x": 1.7705258313,
				"y": 3.9692073528,
				"z": 1.6948296645,
				"element": "C" 
			},
			{
				"x": 2.1322446581,
				"y": 4.391178738,
				"z": 0.4158006032,
				"element": "C" 
			},
			{
				"x": 0.5994327351,
				"y": 1.9874854773,
				"z": -2.5696942756,
				"element": "H" 
			},
			{
				"x": -0.8438262385,
				"y": 2.9258941114,
				"z": -2.1984932399,
				"element": "H" 
			},
			{
				"x": -3.0169373202,
				"y": -0.1018781398,
				"z": -1.4592511282,
				"element": "H" 
			},
			{
				"x": -1.3141966449,
				"y": -3.4165844602,
				"z": -1.3027748862,
				"element": "H" 
			},
			{
				"x": 1.1714364253,
				"y": -3.7800786154,
				"z": -1.3237562823,
				"element": "H" 
			},
			{
				"x": 2.6769869483,
				"y": -1.7992821804,
				"z": -1.4166987861,
				"element": "H" 
			},
			{
				"x": 1.7588596141,
				"y": 0.4761700083,
				"z": -1.4701398132,
				"element": "H" 
			},
			{
				"x": -0.5585172213,
				"y": 1.6401415209,
				"z": 0.8483376848,
				"element": "H" 
			},
			{
				"x": 0.5127087636,
				"y": 2.6482362263,
				"z": 2.8449402032,
				"element": "H" 
			},
			{
				"x": 2.2456670305,
				"y": 4.4180977341,
				"z": 2.5617014211,
				"element": "H" 
			},
			{
				"x": 2.8803329037,
				"y": 5.162800671,
				"z": 0.2712587481,
				"element": "H" 
			}
		],
		 "valence_orbital": [ 
			{
				"type": "occ",
				"energy": -0.26944,
				"method": "rhf"
			},
			{
				"type": "occ",
				"energy": -0.26092,
				"method": "rhf"
			},
			{
				"type": "occ",
				"energy": -0.25598,
				"method": "rhf"
			},
			{
				"type": "occ",
				"energy": -0.24579,
				"method": "rhf"
			},
			{
				"type": "occ",
				"energy": -0.23743,
				"method": "rhf"
			},
			{
				"type": "unocc",
				"energy": -0.0591,
				"method": "rhf"
			},
			{
				"type": "unocc",
				"energy": -0.02342,
				"method": "rhf"
			},
			{
				"type": "unocc",
				"energy": -0.02189,
				"method": "rhf"
			},
			{
				"type": "unocc",
				"energy": -0.0029,
				"method": "rhf"
			},
			{
				"type": "unocc",
				"energy": 0.01912,
				"method": "rhf"
			}
		],
		"cosmo_sigma_profile": { 
			"-0.025": 0.0,
			"-0.024": 0.0,
			"-0.023": 0.0,
			"-0.022": 0.0,
			"-0.021": 0.0,
			"-0.02": 0.0,
			"-0.019": 0.0,
			"-0.018": 0.0,
			"-0.017": 0.0,
			"-0.016": 0.0,
			"-0.015": 0.0,
			"-0.014": 0.0,
			"-0.013": 0.0,
			"-0.012": 0.0,
			"-0.011": 0.0,
			"-0.01": 0.0,
			"-0.009": 0.0,
			"-0.008": 0.695637704568,
			"-0.007": 8.35255796789,
			"-0.006": 17.20367204,
			"-0.005": 23.2414162862,
			"-0.004": 20.723236398,
			"-0.003": 19.1665116122,
			"-0.002": 18.540109389,
			"-0.001": 18.0119000643,
			"0.0": 21.3426924506,
			"0.001": 23.2843310304,
			"0.002": 27.6382252581,
			"0.003": 27.6583748605,
			"0.004": 25.4427374438,
			"0.005": 7.93782138007,
			"0.006": 1.42950883589,
			"0.007": 1.52974002259,
			"0.008": 1.53185332573,
			"0.009": 1.98878326201,
			"0.01": 2.04873412364,
			"0.011": 4.08472428262,
			"0.012": 3.44556795739,
			"0.013": 1.43710078844,
			"0.014": 0.0941694722728,
			"0.015": 0.0,
			"0.016": 0.0,
			"0.017": 0.0,
			"0.018": 0.0,
			"0.019": 0.0,
			"0.02": 0.0,
			"0.021": 0.0,
			"0.022": 0.0,
			"0.023": 0.0,
			"0.024": 0.0,
			"0.025": 0.0
		}
	}
}
