{
	 "smiles": "OC(=O)C1=CN=C2SC=CN2C1=O", 
	 "Tm": 543.15, 
	 "num_atms": 17, 
	 "gaussian": { 
		 "optdone": 1, 
		 "sigma_profile": "yes", 
		 "theory": "DFT", 
		 "functional": "B3LYP", 
		 "basiset": "6-31G**", 
		 "properties": { 
			 "R2extent": 2799.2438, 
			 "electric_dipole_moment_norm": 8.03869234702, 
			 "electric_quadrupole_moment_norm": 3.64045056003, 
			 "total_energy": -1002.52876815, 
			 "HOMO_LUMO_gap": 0.16647, 
			 "cosmo_polarized_energy": -16.69, 
			 "cosmo_cavitation_energy": 23.76, 
			 "cosmo_dispersion_energy": -18.76, 
			 "cosmo_repulsion_energy": 1.38, 
			 "cosmo_total_nonelectrostatic_energy": 6.39, 
			 "SMD_solvation_energy": 4.6 
		},
		"coords": [
			{
				"x": 1.2926334148,
				"y": -0.4122597412,
				"z": -2.6281102986,
				"element": "O" 
			},
			{
				"x": 0.0194538866,
				"y": -0.7477067948,
				"z": -2.3776015867,
				"element": "C" 
			},
			{
				"x": -0.6766565288,
				"y": -1.3030530886,
				"z": -3.2008457939,
				"element": "O" 
			},
			{
				"x": -0.4996734573,
				"y": -0.3949190703,
				"z": -1.013243465,
				"element": "C" 
			},
			{
				"x": -1.8074104527,
				"y": -0.713469747,
				"z": -0.689745661,
				"element": "C" 
			},
			{
				"x": -2.40239719,
				"y": -0.4546254509,
				"z": 0.4987764783,
				"element": "N" 
			},
			{
				"x": -1.6440223401,
				"y": 0.1446200488,
				"z": 1.3801497537,
				"element": "C" 
			},
			{
				"x": -2.1557650159,
				"y": 0.5971222204,
				"z": 2.995086409,
				"element": "S" 
			},
			{
				"x": -0.5672449643,
				"y": 1.2643982875,
				"z": 3.3251136065,
				"element": "C" 
			},
			{
				"x": 0.2680167796,
				"y": 1.1413304298,
				"z": 2.2764734281,
				"element": "C" 
			},
			{
				"x": -0.3320158797,
				"y": 0.5138466905,
				"z": 1.1836423969,
				"element": "N" 
			},
			{
				"x": 0.3365878368,
				"y": 0.2628433988,
				"z": -0.0490786317,
				"element": "C" 
			},
			{
				"x": 1.5162765253,
				"y": 0.6149206966,
				"z": -0.1734100468,
				"element": "O" 
			},
			{
				"x": 1.6793087212,
				"y": 0.0267747965,
				"z": -1.8346103948,
				"element": "H" 
			},
			{
				"x": -2.4132397166,
				"y": -1.2107418466,
				"z": -1.4417618073,
				"element": "H" 
			},
			{
				"x": -0.3481552207,
				"y": 1.7105803098,
				"z": 4.2838937501,
				"element": "H" 
			},
			{
				"x": 1.2972036018,
				"y": 1.4530388607,
				"z": 2.1791718632,
				"element": "H" 
			}
		],
		 "valence_orbital": [ 
			{
				"type": "occ",
				"energy": -0.30883,
				"method": "rhf"
			},
			{
				"type": "occ",
				"energy": -0.30394,
				"method": "rhf"
			},
			{
				"type": "occ",
				"energy": -0.29291,
				"method": "rhf"
			},
			{
				"type": "occ",
				"energy": -0.26614,
				"method": "rhf"
			},
			{
				"type": "occ",
				"energy": -0.25283,
				"method": "rhf"
			},
			{
				"type": "unocc",
				"energy": -0.08636,
				"method": "rhf"
			},
			{
				"type": "unocc",
				"energy": -0.04671,
				"method": "rhf"
			},
			{
				"type": "unocc",
				"energy": -0.02869,
				"method": "rhf"
			},
			{
				"type": "unocc",
				"energy": -0.02026,
				"method": "rhf"
			},
			{
				"type": "unocc",
				"energy": 0.03102,
				"method": "rhf"
			}
		],
		"cosmo_sigma_profile": { 
			"-0.025": 0.0,
			"-0.024": 0.0,
			"-0.023": 0.0,
			"-0.022": 0.0,
			"-0.021": 0.0,
			"-0.02": 0.0,
			"-0.019": 0.0,
			"-0.018": 0.0,
			"-0.017": 0.0,
			"-0.016": 0.0,
			"-0.015": 0.0,
			"-0.014": 0.0,
			"-0.013": 0.0,
			"-0.012": 0.817954995512,
			"-0.011": 3.16861034463,
			"-0.01": 3.26887221095,
			"-0.009": 3.21809144992,
			"-0.008": 5.52953881988,
			"-0.007": 8.36408869661,
			"-0.006": 10.6276536112,
			"-0.005": 10.7386099894,
			"-0.004": 13.9287844338,
			"-0.003": 15.3374121753,
			"-0.002": 18.4445121481,
			"-0.001": 18.6901857179,
			"0.0": 12.7984132519,
			"0.001": 9.56871787265,
			"0.002": 5.71921205607,
			"0.003": 4.35613452111,
			"0.004": 3.96949254073,
			"0.005": 4.85118677611,
			"0.006": 3.03852378136,
			"0.007": 4.68355004957,
			"0.008": 5.21962850775,
			"0.009": 6.27259500194,
			"0.01": 6.2284911733,
			"0.011": 7.09969304768,
			"0.012": 5.99819782119,
			"0.013": 2.89838467591,
			"0.014": 0.509659792585,
			"0.015": 0.0,
			"0.016": 0.0,
			"0.017": 0.0,
			"0.018": 0.0,
			"0.019": 0.0,
			"0.02": 0.0,
			"0.021": 0.0,
			"0.022": 0.0,
			"0.023": 0.0,
			"0.024": 0.0,
			"0.025": 0.0
		}
	}
}
