{
	 "smiles": "N#CCC1=NC(=CS1)C1=CC2=C(OCCO2)C=C1", 
	 "Tm": 390.15, 
	 "num_atms": 28, 
	 "gaussian": { 
		 "optdone": 1, 
		 "sigma_profile": "yes", 
		 "theory": "DFT", 
		 "functional": "B3LYP", 
		 "basiset": "6-31G**", 
		 "properties": { 
			 "R2extent": 8001.9299, 
			 "electric_dipole_moment_norm": 4.97369295092, 
			 "electric_quadrupole_moment_norm": 28.7468520285, 
			 "total_energy": -1159.50538301, 
			 "HOMO_LUMO_gap": 0.1629, 
			 "cosmo_polarized_energy": -15.6, 
			 "cosmo_cavitation_energy": 34.91, 
			 "cosmo_dispersion_energy": -26.03, 
			 "cosmo_repulsion_energy": 1.95, 
			 "cosmo_total_nonelectrostatic_energy": 10.83, 
			 "SMD_solvation_energy": 6.12 
		},
		"coords": [
			{
				"x": 0.3824417084,
				"y": 7.433971803,
				"z": 1.160383793,
				"element": "N" 
			},
			{
				"x": 0.8300453033,
				"y": 6.370223259,
				"z": 1.0418248358,
				"element": "C" 
			},
			{
				"x": 1.4081399813,
				"y": 5.0307314473,
				"z": 0.9029949237,
				"element": "C" 
			},
			{
				"x": 0.5751773706,
				"y": 3.9258051654,
				"z": 1.5124628578,
				"element": "C" 
			},
			{
				"x": 0.5457948166,
				"y": 2.7305088945,
				"z": 1.0099969762,
				"element": "N" 
			},
			{
				"x": -0.2264803721,
				"y": 1.8654951827,
				"z": 1.7698074767,
				"element": "C" 
			},
			{
				"x": -0.7905542431,
				"y": 2.4517842132,
				"z": 2.8778816927,
				"element": "C" 
			},
			{
				"x": -0.3555892292,
				"y": 4.1223339594,
				"z": 2.985132106,
				"element": "S" 
			},
			{
				"x": -0.3733123528,
				"y": 0.4639249938,
				"z": 1.3358513243,
				"element": "C" 
			},
			{
				"x": 0.2379771288,
				"y": 0.0418886736,
				"z": 0.1471205938,
				"element": "C" 
			},
			{
				"x": 0.1146610361,
				"y": -1.2738231264,
				"z": -0.2905459719,
				"element": "C" 
			},
			{
				"x": -0.6393607704,
				"y": -2.1960924499,
				"z": 0.4550910312,
				"element": "C" 
			},
			{
				"x": -0.8048780211,
				"y": -3.4972751068,
				"z": 0.0527240324,
				"element": "O" 
			},
			{
				"x": -0.4532536116,
				"y": -3.7287627434,
				"z": -1.3122656565,
				"element": "C" 
			},
			{
				"x": 0.8635839113,
				"y": -3.0425183501,
				"z": -1.638061987,
				"element": "C" 
			},
			{
				"x": 0.7409777714,
				"y": -1.6319307963,
				"z": -1.4605772084,
				"element": "O" 
			},
			{
				"x": -1.2383050075,
				"y": -1.785143567,
				"z": 1.6477385129,
				"element": "C" 
			},
			{
				"x": -1.1047536663,
				"y": -0.4736444144,
				"z": 2.0868829112,
				"element": "C" 
			},
			{
				"x": 1.5401182146,
				"y": 4.7969074243,
				"z": -0.158197872,
				"element": "H" 
			},
			{
				"x": 2.4090467112,
				"y": 5.0407562722,
				"z": 1.354952998,
				"element": "H" 
			},
			{
				"x": -1.444963462,
				"y": 2.0133700407,
				"z": 3.6163905221,
				"element": "H" 
			},
			{
				"x": 0.8199756715,
				"y": 0.738397258,
				"z": -0.4443353637,
				"element": "H" 
			},
			{
				"x": -0.3787927061,
				"y": -4.8123584581,
				"z": -1.4337552678,
				"element": "H" 
			},
			{
				"x": -1.2457765012,
				"y": -3.3478697973,
				"z": -1.9707316696,
				"element": "H" 
			},
			{
				"x": 1.6590441015,
				"y": -3.4343500454,
				"z": -0.9891457556,
				"element": "H" 
			},
			{
				"x": 1.1457315055,
				"y": -3.2010463546,
				"z": -2.6819930908,
				"element": "H" 
			},
			{
				"x": -1.8106334917,
				"y": -2.5135569098,
				"z": 2.2129504158,
				"element": "H" 
			},
			{
				"x": -1.579661797,
				"y": -0.1829264678,
				"z": 3.0181228397,
				"element": "H" 
			}
		],
		 "valence_orbital": [ 
			{
				"type": "occ",
				"energy": -0.29369,
				"method": "rhf"
			},
			{
				"type": "occ",
				"energy": -0.28619,
				"method": "rhf"
			},
			{
				"type": "occ",
				"energy": -0.26484,
				"method": "rhf"
			},
			{
				"type": "occ",
				"energy": -0.23343,
				"method": "rhf"
			},
			{
				"type": "occ",
				"energy": -0.20544,
				"method": "rhf"
			},
			{
				"type": "unocc",
				"energy": -0.04254,
				"method": "rhf"
			},
			{
				"type": "unocc",
				"energy": -0.01508,
				"method": "rhf"
			},
			{
				"type": "unocc",
				"energy": 0.00097,
				"method": "rhf"
			},
			{
				"type": "unocc",
				"energy": 0.00406,
				"method": "rhf"
			},
			{
				"type": "unocc",
				"energy": 0.03219,
				"method": "rhf"
			}
		],
		"cosmo_sigma_profile": { 
			"-0.025": 0.0,
			"-0.024": 0.0,
			"-0.023": 0.0,
			"-0.022": 0.0,
			"-0.021": 0.0,
			"-0.02": 0.0,
			"-0.019": 0.0,
			"-0.018": 0.0,
			"-0.017": 0.0,
			"-0.016": 0.0,
			"-0.015": 0.0,
			"-0.014": 0.0,
			"-0.013": 0.0,
			"-0.012": 0.0,
			"-0.011": 0.533383221431,
			"-0.01": 5.74710468533,
			"-0.009": 7.27286048934,
			"-0.008": 7.73561485615,
			"-0.007": 13.2490613967,
			"-0.006": 19.2644315959,
			"-0.005": 17.68022982,
			"-0.004": 16.9372164702,
			"-0.003": 13.7086139314,
			"-0.002": 11.6783362396,
			"-0.001": 14.0839615449,
			"0.0": 16.6579847237,
			"0.001": 19.078985628,
			"0.002": 20.6642739508,
			"0.003": 24.8200720687,
			"0.004": 19.5162167134,
			"0.005": 13.5407298278,
			"0.006": 6.79700726714,
			"0.007": 6.98116534985,
			"0.008": 7.12575324222,
			"0.009": 7.34621762598,
			"0.01": 6.063103946,
			"0.011": 3.57888393771,
			"0.012": 2.29413639164,
			"0.013": 0.649549282939,
			"0.014": 0.0,
			"0.015": 0.0,
			"0.016": 0.0,
			"0.017": 0.0,
			"0.018": 0.0,
			"0.019": 0.0,
			"0.02": 0.0,
			"0.021": 0.0,
			"0.022": 0.0,
			"0.023": 0.0,
			"0.024": 0.0,
			"0.025": 0.0
		}
	}
}
