{
	 "smiles": "NC1=CC(Cl)=C(OC(F)(F)F)C=C1", 
	 "Tm": 303.15, 
	 "num_atms": 18, 
	 "gaussian": { 
		 "optdone": 1, 
		 "sigma_profile": "yes", 
		 "theory": "DFT", 
		 "functional": "B3LYP", 
		 "basiset": "6-31G**", 
		 "properties": { 
			 "R2extent": 4004.8704, 
			 "electric_dipole_moment_norm": 4.77995258868, 
			 "electric_quadrupole_moment_norm": 11.4031523896, 
			 "total_energy": -1159.44787136, 
			 "HOMO_LUMO_gap": 0.19889, 
			 "cosmo_polarized_energy": -9.54, 
			 "cosmo_cavitation_energy": 25.82, 
			 "cosmo_dispersion_energy": -18.57, 
			 "cosmo_repulsion_energy": 1.43, 
			 "cosmo_total_nonelectrostatic_energy": 8.68, 
			 "SMD_solvation_energy": 5.62 
		},
		"coords": [
			{
				"x": 2.4409294475,
				"y": 2.6406571754,
				"z": 1.7696874384,
				"element": "N" 
			},
			{
				"x": 1.8377065043,
				"y": 1.3879190712,
				"z": 1.7343090524,
				"element": "C" 
			},
			{
				"x": 0.5381473232,
				"y": 1.2091974889,
				"z": 2.2383730738,
				"element": "C" 
			},
			{
				"x": -0.0455923901,
				"y": -0.0544557127,
				"z": 2.251359621,
				"element": "C" 
			},
			{
				"x": -1.6628209918,
				"y": -0.2392057081,
				"z": 2.8878965045,
				"element": "Cl" 
			},
			{
				"x": 0.6527101267,
				"y": -1.1636624999,
				"z": 1.765087371,
				"element": "C" 
			},
			{
				"x": 0.089901208,
				"y": -2.4402308299,
				"z": 1.8546944799,
				"element": "O" 
			},
			{
				"x": -0.400238759,
				"y": -2.9865454804,
				"z": 0.7114466514,
				"element": "C" 
			},
			{
				"x": -0.9822063353,
				"y": -4.1402198672,
				"z": 1.0335589972,
				"element": "F" 
			},
			{
				"x": -1.3005450989,
				"y": -2.1951999869,
				"z": 0.1046201037,
				"element": "F" 
			},
			{
				"x": 0.5734307166,
				"y": -3.2407765632,
				"z": -0.19133891,
				"element": "F" 
			},
			{
				"x": 1.9464621189,
				"y": -0.9934078166,
				"z": 1.2754236786,
				"element": "C" 
			},
			{
				"x": 2.5350979883,
				"y": 0.2649967516,
				"z": 1.2529571437,
				"element": "C" 
			},
			{
				"x": 1.8142636678,
				"y": 3.4318330491,
				"z": 1.8089961856,
				"element": "H" 
			},
			{
				"x": 3.1989440917,
				"y": 2.7807715179,
				"z": 1.1170418252,
				"element": "H" 
			},
			{
				"x": -0.0210140515,
				"y": 2.0542498139,
				"z": 2.6261080466,
				"element": "H" 
			},
			{
				"x": 2.4842813006,
				"y": -1.8616606758,
				"z": 0.9125757933,
				"element": "H" 
			},
			{
				"x": 3.545043133,
				"y": 0.3806402728,
				"z": 0.8703029435,
				"element": "H" 
			}
		],
		 "valence_orbital": [ 
			{
				"type": "occ",
				"energy": -0.33551,
				"method": "rhf"
			},
			{
				"type": "occ",
				"energy": -0.31538,
				"method": "rhf"
			},
			{
				"type": "occ",
				"energy": -0.30949,
				"method": "rhf"
			},
			{
				"type": "occ",
				"energy": -0.25691,
				"method": "rhf"
			},
			{
				"type": "occ",
				"energy": -0.21989,
				"method": "rhf"
			},
			{
				"type": "unocc",
				"energy": -0.021,
				"method": "rhf"
			},
			{
				"type": "unocc",
				"energy": -0.00357,
				"method": "rhf"
			},
			{
				"type": "unocc",
				"energy": 0.02374,
				"method": "rhf"
			},
			{
				"type": "unocc",
				"energy": 0.06641,
				"method": "rhf"
			},
			{
				"type": "unocc",
				"energy": 0.10149,
				"method": "rhf"
			}
		],
		"cosmo_sigma_profile": { 
			"-0.025": 0.0,
			"-0.024": 0.0,
			"-0.023": 0.0,
			"-0.022": 0.0,
			"-0.021": 0.0,
			"-0.02": 0.0,
			"-0.019": 0.0,
			"-0.018": 0.0,
			"-0.017": 0.0,
			"-0.016": 0.0,
			"-0.015": 0.0,
			"-0.014": 0.0489585823629,
			"-0.013": 2.45343432927,
			"-0.012": 2.91782941978,
			"-0.011": 3.29398562689,
			"-0.01": 3.94653756963,
			"-0.009": 2.95309168629,
			"-0.008": 3.33562449429,
			"-0.007": 6.29459904234,
			"-0.006": 5.29500771569,
			"-0.005": 6.83846277152,
			"-0.004": 4.80614908319,
			"-0.003": 5.68861265834,
			"-0.002": 8.03627247394,
			"-0.001": 9.58256213498,
			"0.0": 14.7768203841,
			"0.001": 26.5502429376,
			"0.002": 44.544439382,
			"0.003": 25.4048238699,
			"0.004": 17.5435434915,
			"0.005": 4.69652458166,
			"0.006": 3.18396884775,
			"0.007": 2.512400857,
			"0.008": 1.05624758765,
			"0.009": 0.819336270527,
			"0.01": 0.570334709751,
			"0.011": 0.495620648935,
			"0.012": 0.757267234302,
			"0.013": 0.454809934789,
			"0.014": 0.0724108940682,
			"0.015": 0.0,
			"0.016": 0.0,
			"0.017": 0.0,
			"0.018": 0.0,
			"0.019": 0.0,
			"0.02": 0.0,
			"0.021": 0.0,
			"0.022": 0.0,
			"0.023": 0.0,
			"0.024": 0.0,
			"0.025": 0.0
		}
	}
}
