{
	 "smiles": "FC(F)(I)C(F)(F)C(F)(F)C(F)(F)I", 
	 "Tm": 264.15, 
	 "num_atms": 14, 
	 "gaussian": { 
		 "optdone": 1, 
		 "sigma_profile": "no", 
		 "theory": "DFT", 
		 "functional": "B3LYP", 
		 "basiset": "6-31G**", 
		 "properties": { 
			 "R2extent": 3282.0114, 
			 "electric_dipole_moment_norm": 1.06102045692, 
			 "electric_quadrupole_moment_norm": 5.65359531979, 
			 "total_energy": -973.858107004, 
			 "HOMO_LUMO_gap": 0.20621, 
			 "cosmo_polarized_energy": -192150.51, 
			 "cosmo_cavitation_energy": 27.5, 
			 "cosmo_dispersion_energy": -21.15, 
			 "cosmo_repulsion_energy": 1.48, 
			 "cosmo_total_nonelectrostatic_energy": 7.82, 
			 "SMD_solvation_energy": 5.58 
		},
		"coords": [
			{
				"x": 1.3299009016,
				"y": 1.0845069265,
				"z": -2.1936530158,
				"element": "F" 
			},
			{
				"x": 0.2418997462,
				"y": 0.5119370101,
				"z": -1.6482899397,
				"element": "C" 
			},
			{
				"x": -0.6301813381,
				"y": 1.4807287006,
				"z": -1.3232791955,
				"element": "F" 
			},
			{
				"x": -0.7180654376,
				"y": -0.7943314715,
				"z": -3.1148596136,
				"element": "I" 
			},
			{
				"x": 0.6613344021,
				"y": -0.1976155313,
				"z": -0.3179895028,
				"element": "C" 
			},
			{
				"x": 0.8150186814,
				"y": 0.7781673109,
				"z": 0.6066199453,
				"element": "F" 
			},
			{
				"x": -0.3370135095,
				"y": -1.0134794361,
				"z": 0.0862584351,
				"element": "F" 
			},
			{
				"x": 2.0046751609,
				"y": -0.9824621731,
				"z": -0.3894428181,
				"element": "C" 
			},
			{
				"x": 2.068181577,
				"y": -1.7004037777,
				"z": -1.5323769222,
				"element": "F" 
			},
			{
				"x": 3.0031806459,
				"y": -0.0695605637,
				"z": -0.4035319615,
				"element": "F" 
			},
			{
				"x": 2.2804058464,
				"y": -1.9257354183,
				"z": 0.8284514596,
				"element": "C" 
			},
			{
				"x": 1.9306330092,
				"y": -1.2855825713,
				"z": 1.9584180777,
				"element": "F" 
			},
			{
				"x": 3.6037870504,
				"y": -2.1542904945,
				"z": 0.8619189386,
				"element": "F" 
			},
			{
				"x": 1.2646432642,
				"y": -3.8589785105,
				"z": 0.7306561128,
				"element": "I" 
			}
		],
		 "valence_orbital": [ 
			{
				"type": "occ",
				"energy": -0.34318,
				"method": "rhf"
			},
			{
				"type": "occ",
				"energy": -0.29394,
				"method": "rhf"
			},
			{
				"type": "occ",
				"energy": -0.29271,
				"method": "rhf"
			},
			{
				"type": "occ",
				"energy": -0.29106,
				"method": "rhf"
			},
			{
				"type": "occ",
				"energy": -0.29038,
				"method": "rhf"
			},
			{
				"type": "unocc",
				"energy": -0.08417,
				"method": "rhf"
			},
			{
				"type": "unocc",
				"energy": -0.08397,
				"method": "rhf"
			},
			{
				"type": "unocc",
				"energy": 0.01671,
				"method": "rhf"
			},
			{
				"type": "unocc",
				"energy": 0.03118,
				"method": "rhf"
			},
			{
				"type": "unocc",
				"energy": 0.03651,
				"method": "rhf"
			}
		],
		"cosmo_sigma_profile": { 
			"0.0": 0.0,
			"0.0": 0.0,
			"0.0": 0.0,
			"0.0": 0.0,
			"0.0": 0.0,
			"0.0": 0.0,
			"0.0": 0.0,
			"0.0": 0.0,
			"0.0": 0.0,
			"0.0": 0.0,
			"0.0": 0.0,
			"0.0": 0.0,
			"0.0": 0.0,
			"0.0": 0.0,
			"0.0": 0.0,
			"0.0": 0.0,
			"0.0": 0.0,
			"0.0": 0.0,
			"0.0": 0.0,
			"0.0": 0.0,
			"0.0": 0.0,
			"0.0": 0.0,
			"0.0": 0.0,
			"0.0": 0.0,
			"0.0": 0.0,
			"0.0": 0.0,
			"0.0": 0.0,
			"0.0": 0.0,
			"0.0": 0.0,
			"0.0": 0.0,
			"0.0": 0.0,
			"0.0": 0.0,
			"0.0": 0.0,
			"0.0": 0.0,
			"0.0": 0.0,
			"0.0": 0.0,
			"0.0": 0.0,
			"0.0": 0.0,
			"0.0": 0.0,
			"0.0": 0.0,
			"0.0": 0.0,
			"0.0": 0.0,
			"0.0": 0.0,
			"0.0": 0.0,
			"0.0": 0.0,
			"0.0": 0.0,
			"0.0": 0.0,
			"0.0": 0.0,
			"0.0": 0.0,
			"0.0": 0.0,
			"0.0": 0.0
		}
	}
}
