{
	 "smiles": "CC(C)C1=CC=CC=C1C(C)C", 
	 "Tm": 216.15, 
	 "num_atms": 30, 
	 "gaussian": { 
		 "optdone": 1, 
		 "sigma_profile": "yes", 
		 "theory": "DFT", 
		 "functional": "B3LYP", 
		 "basiset": "6-31G**", 
		 "properties": { 
			 "R2extent": 2706.4699, 
			 "electric_dipole_moment_norm": 0.556059223465, 
			 "electric_quadrupole_moment_norm": 3.38333130952, 
			 "total_energy": -468.147677204, 
			 "HOMO_LUMO_gap": 0.23615, 
			 "cosmo_polarized_energy": -3.36, 
			 "cosmo_cavitation_energy": 30.43, 
			 "cosmo_dispersion_energy": -21.08, 
			 "cosmo_repulsion_energy": 1.69, 
			 "cosmo_total_nonelectrostatic_energy": 11.04, 
			 "SMD_solvation_energy": 5.35 
		},
		"coords": [
			{
				"x": 0.808792973,
				"y": 1.7043978144,
				"z": -0.4943872159,
				"element": "C" 
			},
			{
				"x": 1.1799727244,
				"y": 0.3581911499,
				"z": -1.1505674009,
				"element": "C" 
			},
			{
				"x": 1.9034517475,
				"y": 0.5915317223,
				"z": -2.4890316538,
				"element": "C" 
			},
			{
				"x": -0.0500697242,
				"y": -0.5455596634,
				"z": -1.2655202545,
				"element": "C" 
			},
			{
				"x": -0.8858579982,
				"y": -0.4281020039,
				"z": -2.3864612441,
				"element": "C" 
			},
			{
				"x": -2.0292241207,
				"y": -1.2094013925,
				"z": -2.5418249787,
				"element": "C" 
			},
			{
				"x": -2.3591574618,
				"y": -2.1397025661,
				"z": -1.5593302434,
				"element": "C" 
			},
			{
				"x": -1.5471388847,
				"y": -2.2612881752,
				"z": -0.4334152823,
				"element": "C" 
			},
			{
				"x": -0.3992393561,
				"y": -1.4744361355,
				"z": -0.2544193782,
				"element": "C" 
			},
			{
				"x": 0.4574076035,
				"y": -1.6740731777,
				"z": 0.9982625834,
				"element": "C" 
			},
			{
				"x": 1.4923176366,
				"y": -2.7971986716,
				"z": 0.7785401439,
				"element": "C" 
			},
			{
				"x": -0.3633479842,
				"y": -1.9385075242,
				"z": 2.273295329,
				"element": "C" 
			},
			{
				"x": 0.3538081497,
				"y": 1.5592369959,
				"z": 0.4906255649,
				"element": "H" 
			},
			{
				"x": 0.0867869132,
				"y": 2.247927429,
				"z": -1.1139172765,
				"element": "H" 
			},
			{
				"x": 1.6942437648,
				"y": 2.3383915942,
				"z": -0.3709116541,
				"element": "H" 
			},
			{
				"x": 1.905198504,
				"y": -0.137337032,
				"z": -0.497138885,
				"element": "H" 
			},
			{
				"x": 2.8451368285,
				"y": 1.1236986694,
				"z": -2.3168898842,
				"element": "H" 
			},
			{
				"x": 2.1339306705,
				"y": -0.3537539832,
				"z": -2.990216296,
				"element": "H" 
			},
			{
				"x": 1.3117998744,
				"y": 1.202381796,
				"z": -3.1788508432,
				"element": "H" 
			},
			{
				"x": -0.6365813202,
				"y": 0.2900942483,
				"z": -3.1614623606,
				"element": "H" 
			},
			{
				"x": -2.6517106735,
				"y": -1.092674857,
				"z": -3.4246195253,
				"element": "H" 
			},
			{
				"x": -3.2420792763,
				"y": -2.7643197787,
				"z": -1.6629710983,
				"element": "H" 
			},
			{
				"x": -1.8174714261,
				"y": -2.9865986515,
				"z": 0.327801207,
				"element": "H" 
			},
			{
				"x": 1.0113454141,
				"y": -0.7478408123,
				"z": 1.1817863897,
				"element": "H" 
			},
			{
				"x": 2.1363940027,
				"y": -2.9150631127,
				"z": 1.6574604053,
				"element": "H" 
			},
			{
				"x": 0.9892139008,
				"y": -3.7534245771,
				"z": 0.5966947588,
				"element": "H" 
			},
			{
				"x": 2.1308943091,
				"y": -2.5915104424,
				"z": -0.0864802955,
				"element": "H" 
			},
			{
				"x": -1.1335670973,
				"y": -1.1748508597,
				"z": 2.41976985,
				"element": "H" 
			},
			{
				"x": 0.2942444641,
				"y": -1.9308231597,
				"z": 3.1491491418,
				"element": "H" 
			},
			{
				"x": -0.8577941573,
				"y": -2.9152848431,
				"z": 2.2526303969,
				"element": "H" 
			}
		],
		 "valence_orbital": [ 
			{
				"type": "occ",
				"energy": -0.32756,
				"method": "rhf"
			},
			{
				"type": "occ",
				"energy": -0.31214,
				"method": "rhf"
			},
			{
				"type": "occ",
				"energy": -0.30336,
				"method": "rhf"
			},
			{
				"type": "occ",
				"energy": -0.23612,
				"method": "rhf"
			},
			{
				"type": "occ",
				"energy": -0.22883,
				"method": "rhf"
			},
			{
				"type": "unocc",
				"energy": 0.00732,
				"method": "rhf"
			},
			{
				"type": "unocc",
				"energy": 0.00777,
				"method": "rhf"
			},
			{
				"type": "unocc",
				"energy": 0.08287,
				"method": "rhf"
			},
			{
				"type": "unocc",
				"energy": 0.10133,
				"method": "rhf"
			},
			{
				"type": "unocc",
				"energy": 0.10565,
				"method": "rhf"
			}
		],
		"cosmo_sigma_profile": { 
			"-0.025": 0.0,
			"-0.024": 0.0,
			"-0.023": 0.0,
			"-0.022": 0.0,
			"-0.021": 0.0,
			"-0.02": 0.0,
			"-0.019": 0.0,
			"-0.018": 0.0,
			"-0.017": 0.0,
			"-0.016": 0.0,
			"-0.015": 0.0,
			"-0.014": 0.0,
			"-0.013": 0.0,
			"-0.012": 0.0,
			"-0.011": 0.0,
			"-0.01": 0.0,
			"-0.009": 0.0,
			"-0.008": 0.0,
			"-0.007": 0.0,
			"-0.006": 0.0960661154194,
			"-0.005": 5.97137465132,
			"-0.004": 9.32605537277,
			"-0.003": 24.63395709,
			"-0.002": 39.5498020366,
			"-0.001": 34.1672899197,
			"0.0": 32.3827149231,
			"0.001": 35.6559413478,
			"0.002": 19.7585184994,
			"0.003": 7.94826203441,
			"0.004": 6.431638916,
			"0.005": 7.26632749339,
			"0.006": 6.47280486125,
			"0.007": 6.30756993473,
			"0.008": 1.18677765009,
			"0.009": 0.0,
			"0.01": 0.0,
			"0.011": 0.0,
			"0.012": 0.0,
			"0.013": 0.0,
			"0.014": 0.0,
			"0.015": 0.0,
			"0.016": 0.0,
			"0.017": 0.0,
			"0.018": 0.0,
			"0.019": 0.0,
			"0.02": 0.0,
			"0.021": 0.0,
			"0.022": 0.0,
			"0.023": 0.0,
			"0.024": 0.0,
			"0.025": 0.0
		}
	}
}
