{
	 "smiles": "CN1N=C(Br)C2=C1N=CN=C2NN", 
	 "Tm": 472.15, 
	 "num_atms": 20, 
	 "gaussian": { 
		 "optdone": 1, 
		 "sigma_profile": "yes", 
		 "theory": "DFT", 
		 "functional": "B3LYP", 
		 "basiset": "6-31G**", 
		 "properties": { 
			 "R2extent": 3708.3603, 
			 "electric_dipole_moment_norm": 0.806159246055, 
			 "electric_quadrupole_moment_norm": 6.36988197457, 
			 "total_energy": -3132.73100139, 
			 "HOMO_LUMO_gap": 0.18732, 
			 "cosmo_polarized_energy": -11.06, 
			 "cosmo_cavitation_energy": 26.73, 
			 "cosmo_dispersion_energy": -20.5, 
			 "cosmo_repulsion_energy": 1.63, 
			 "cosmo_total_nonelectrostatic_energy": 7.85, 
			 "SMD_solvation_energy": 0.58 
		},
		"coords": [
			{
				"x": -2.2310566797,
				"y": 3.3838792934,
				"z": -1.1992841135,
				"element": "C" 
			},
			{
				"x": -1.789584863,
				"y": 2.0550596486,
				"z": -0.8228158571,
				"element": "N" 
			},
			{
				"x": -2.028412201,
				"y": 1.5714817129,
				"z": 0.4318387014,
				"element": "N" 
			},
			{
				"x": -1.5097691638,
				"y": 0.3614244526,
				"z": 0.4494162638,
				"element": "C" 
			},
			{
				"x": -1.6053854193,
				"y": -0.7036947025,
				"z": 2.0087268059,
				"element": "Br" 
			},
			{
				"x": -0.9144435854,
				"y": 0.0101348396,
				"z": -0.7892179508,
				"element": "C" 
			},
			{
				"x": -1.1223272681,
				"y": 1.1504821124,
				"z": -1.5909841162,
				"element": "C" 
			},
			{
				"x": -0.731412741,
				"y": 1.3037369383,
				"z": -2.8693573367,
				"element": "N" 
			},
			{
				"x": -0.1002574434,
				"y": 0.2277109549,
				"z": -3.3280639055,
				"element": "C" 
			},
			{
				"x": 0.1745850369,
				"y": -0.9293401944,
				"z": -2.6927790923,
				"element": "N" 
			},
			{
				"x": -0.2244293526,
				"y": -1.0611819563,
				"z": -1.4182159125,
				"element": "C" 
			},
			{
				"x": 0.0490488845,
				"y": -2.2217445005,
				"z": -0.7752844181,
				"element": "N" 
			},
			{
				"x": 0.7295878146,
				"y": -3.2993234874,
				"z": -1.3654051909,
				"element": "N" 
			},
			{
				"x": -1.9323862394,
				"y": 3.5454779934,
				"z": -2.2355102032,
				"element": "H" 
			},
			{
				"x": -3.3176828622,
				"y": 3.4600714929,
				"z": -1.1092187105,
				"element": "H" 
			},
			{
				"x": -1.7628885377,
				"y": 4.1334909962,
				"z": -0.5561538143,
				"element": "H" 
			},
			{
				"x": 0.2458134579,
				"y": 0.2802737583,
				"z": -4.3587429876,
				"element": "H" 
			},
			{
				"x": -0.2371936553,
				"y": -2.3497106844,
				"z": 0.1838885675,
				"element": "H" 
			},
			{
				"x": 1.6281806083,
				"y": -2.9526096842,
				"z": -1.7009533996,
				"element": "H" 
			},
			{
				"x": 0.2160142096,
				"y": -3.5688189838,
				"z": -2.2043833295,
				"element": "H" 
			}
		],
		 "valence_orbital": [ 
			{
				"type": "occ",
				"energy": -0.28282,
				"method": "rhf"
			},
			{
				"type": "occ",
				"energy": -0.28124,
				"method": "rhf"
			},
			{
				"type": "occ",
				"energy": -0.26577,
				"method": "rhf"
			},
			{
				"type": "occ",
				"energy": -0.25784,
				"method": "rhf"
			},
			{
				"type": "occ",
				"energy": -0.22771,
				"method": "rhf"
			},
			{
				"type": "unocc",
				"energy": -0.04039,
				"method": "rhf"
			},
			{
				"type": "unocc",
				"energy": -0.00137,
				"method": "rhf"
			},
			{
				"type": "unocc",
				"energy": 0.00188,
				"method": "rhf"
			},
			{
				"type": "unocc",
				"energy": 0.03236,
				"method": "rhf"
			},
			{
				"type": "unocc",
				"energy": 0.08136,
				"method": "rhf"
			}
		],
		"cosmo_sigma_profile": { 
			"-0.025": 0.0,
			"-0.024": 0.0,
			"-0.023": 0.0,
			"-0.022": 0.0,
			"-0.021": 0.0,
			"-0.02": 0.0,
			"-0.019": 0.0,
			"-0.018": 0.0,
			"-0.017": 0.0,
			"-0.016": 0.0,
			"-0.015": 0.0,
			"-0.014": 0.0,
			"-0.013": 0.0,
			"-0.012": 0.38203410095,
			"-0.011": 2.97043382333,
			"-0.01": 2.14288633719,
			"-0.009": 3.64740165432,
			"-0.008": 3.18236466041,
			"-0.007": 7.08570563381,
			"-0.006": 11.1375082384,
			"-0.005": 13.0441039154,
			"-0.004": 13.2184534013,
			"-0.003": 16.3136316877,
			"-0.002": 15.0437580799,
			"-0.001": 22.5686864386,
			"0.0": 19.1445002867,
			"0.001": 13.855352961,
			"0.002": 12.40612614,
			"0.003": 14.3010872428,
			"0.004": 9.64033666104,
			"0.005": 4.42165177251,
			"0.006": 5.04396031069,
			"0.007": 5.11455551803,
			"0.008": 4.51964778482,
			"0.009": 3.16078268589,
			"0.01": 3.40030227144,
			"0.011": 3.55261891742,
			"0.012": 2.98204577917,
			"0.013": 2.60278938599,
			"0.014": 1.4998779616,
			"0.015": 0.428874188456,
			"0.016": 0.485771865273,
			"0.017": 0.0087903667947,
			"0.018": 0.0,
			"0.019": 0.0,
			"0.02": 0.0,
			"0.021": 0.0,
			"0.022": 0.0,
			"0.023": 0.0,
			"0.024": 0.0,
			"0.025": 0.0
		}
	}
}
