{
	 "smiles": "CCC1=CC=C(C=C1)C(C)CC(O)=O", 
	 "Tm": 339.15, 
	 "num_atms": 30, 
	 "gaussian": { 
		 "optdone": 1, 
		 "sigma_profile": "yes", 
		 "theory": "DFT", 
		 "functional": "B3LYP", 
		 "basiset": "6-31G**", 
		 "properties": { 
			 "R2extent": 3822.8306, 
			 "electric_dipole_moment_norm": 1.22846221757, 
			 "electric_quadrupole_moment_norm": 5.61861169151, 
			 "total_energy": -617.403391819, 
			 "HOMO_LUMO_gap": 0.2308, 
			 "cosmo_polarized_energy": -9.24, 
			 "cosmo_cavitation_energy": 32.42, 
			 "cosmo_dispersion_energy": -22.82, 
			 "cosmo_repulsion_energy": 1.84, 
			 "cosmo_total_nonelectrostatic_energy": 11.44, 
			 "SMD_solvation_energy": 6.45 
		},
		"coords": [
			{
				"x": -3.5023014189,
				"y": -2.8166873475,
				"z": -1.5253784019,
				"element": "C" 
			},
			{
				"x": -1.9806717096,
				"y": -3.0411364614,
				"z": -1.5900504297,
				"element": "C" 
			},
			{
				"x": -1.1865629625,
				"y": -1.7873708341,
				"z": -1.2901539609,
				"element": "C" 
			},
			{
				"x": -0.8181333719,
				"y": -0.9016783316,
				"z": -2.3099957008,
				"element": "C" 
			},
			{
				"x": -0.1232716978,
				"y": 0.2731843714,
				"z": -2.0237019115,
				"element": "C" 
			},
			{
				"x": 0.2341288396,
				"y": 0.6085760715,
				"z": -0.7106343453,
				"element": "C" 
			},
			{
				"x": -0.1330252861,
				"y": -0.2793763086,
				"z": 0.3118050731,
				"element": "C" 
			},
			{
				"x": -0.8290890868,
				"y": -1.452932022,
				"z": 0.0225982993,
				"element": "C" 
			},
			{
				"x": 1.0095953722,
				"y": 1.8955017772,
				"z": -0.4452953057,
				"element": "C" 
			},
			{
				"x": 0.4440172477,
				"y": 2.7334095011,
				"z": 0.7155482811,
				"element": "C" 
			},
			{
				"x": 2.5342950992,
				"y": 1.6487239072,
				"z": -0.3251945916,
				"element": "C" 
			},
			{
				"x": 3.009112821,
				"y": 0.8371936029,
				"z": 0.863164594,
				"element": "C" 
			},
			{
				"x": 4.2150053442,
				"y": 0.2716169135,
				"z": 0.6101272562,
				"element": "O" 
			},
			{
				"x": 2.4554697516,
				"y": 0.7052130235,
				"z": 1.9349401988,
				"element": "O" 
			},
			{
				"x": -4.0461559479,
				"y": -3.7415062347,
				"z": -1.7457787057,
				"element": "H" 
			},
			{
				"x": -3.8054187073,
				"y": -2.472805971,
				"z": -0.5310957136,
				"element": "H" 
			},
			{
				"x": -3.8171055898,
				"y": -2.0566820338,
				"z": -2.2479630231,
				"element": "H" 
			},
			{
				"x": -1.7029133656,
				"y": -3.828658682,
				"z": -0.8790255763,
				"element": "H" 
			},
			{
				"x": -1.7138625191,
				"y": -3.4138179419,
				"z": -2.586454737,
				"element": "H" 
			},
			{
				"x": -1.078763518,
				"y": -1.1326738878,
				"z": -3.3406510363,
				"element": "H" 
			},
			{
				"x": 0.1464830505,
				"y": 0.943576038,
				"z": -2.8373239966,
				"element": "H" 
			},
			{
				"x": 0.1407685352,
				"y": -0.0611674667,
				"z": 1.3381290724,
				"element": "H" 
			},
			{
				"x": -1.0973762361,
				"y": -2.1249969912,
				"z": 0.83506586,
				"element": "H" 
			},
			{
				"x": 0.9072449893,
				"y": 2.5037240216,
				"z": -1.3536993159,
				"element": "H" 
			},
			{
				"x": -0.6152724692,
				"y": 2.9488931365,
				"z": 0.5461526808,
				"element": "H" 
			},
			{
				"x": 0.5489056216,
				"y": 2.2228505012,
				"z": 1.6734370497,
				"element": "H" 
			},
			{
				"x": 0.9753961325,
				"y": 3.6893939497,
				"z": 0.7880664693,
				"element": "H" 
			},
			{
				"x": 3.0540431712,
				"y": 2.6152877093,
				"z": -0.2572538165,
				"element": "H" 
			},
			{
				"x": 2.9120222638,
				"y": 1.1651173576,
				"z": -1.230991871,
				"element": "H" 
			},
			{
				"x": 4.4688356472,
				"y": -0.1931713679,
				"z": 1.4256076045,
				"element": "H" 
			}
		],
		 "valence_orbital": [ 
			{
				"type": "occ",
				"energy": -0.31989,
				"method": "rhf"
			},
			{
				"type": "occ",
				"energy": -0.31208,
				"method": "rhf"
			},
			{
				"type": "occ",
				"energy": -0.27223,
				"method": "rhf"
			},
			{
				"type": "occ",
				"energy": -0.24124,
				"method": "rhf"
			},
			{
				"type": "occ",
				"energy": -0.22859,
				"method": "rhf"
			},
			{
				"type": "unocc",
				"energy": 0.00221,
				"method": "rhf"
			},
			{
				"type": "unocc",
				"energy": 0.00568,
				"method": "rhf"
			},
			{
				"type": "unocc",
				"energy": 0.01096,
				"method": "rhf"
			},
			{
				"type": "unocc",
				"energy": 0.08061,
				"method": "rhf"
			},
			{
				"type": "unocc",
				"energy": 0.08975,
				"method": "rhf"
			}
		],
		"cosmo_sigma_profile": { 
			"-0.025": 0.0,
			"-0.024": 0.0,
			"-0.023": 0.0,
			"-0.022": 0.0,
			"-0.021": 0.0,
			"-0.02": 0.0,
			"-0.019": 0.0,
			"-0.018": 0.434678343256,
			"-0.017": 0.94538240532,
			"-0.016": 0.903102987156,
			"-0.015": 0.754414783596,
			"-0.014": 0.88624120601,
			"-0.013": 0.33797183542,
			"-0.012": 0.493967526197,
			"-0.011": 1.103068782,
			"-0.01": 0.738557919713,
			"-0.009": 0.42521505727,
			"-0.008": 0.634749536335,
			"-0.007": 1.37472283105,
			"-0.006": 4.13095077709,
			"-0.005": 9.5788087464,
			"-0.004": 16.3288211853,
			"-0.003": 28.6996050804,
			"-0.002": 28.8442511817,
			"-0.001": 27.8146285983,
			"0.0": 27.4135326039,
			"0.001": 25.6577704792,
			"0.002": 15.1113211067,
			"0.003": 10.8600836809,
			"0.004": 11.0451690399,
			"0.005": 9.33924154347,
			"0.006": 9.18363236624,
			"0.007": 7.80028428999,
			"0.008": 2.36231402559,
			"0.009": 3.15504852966,
			"0.01": 2.66931847347,
			"0.011": 2.40872036143,
			"0.012": 2.28113897078,
			"0.013": 0.119985195361,
			"0.014": 0.0,
			"0.015": 0.0,
			"0.016": 0.0,
			"0.017": 0.0,
			"0.018": 0.0,
			"0.019": 0.0,
			"0.02": 0.0,
			"0.021": 0.0,
			"0.022": 0.0,
			"0.023": 0.0,
			"0.024": 0.0,
			"0.025": 0.0
		}
	}
}
