{
	 "smiles": "OC(=O)C1=C(NC(=O)C2=CC3=C(CCC3)C=C2)SC=C1", 
	 "Tm": 488.15, 
	 "num_atms": 33, 
	 "gaussian": { 
		 "optdone": 1, 
		 "sigma_profile": "yes", 
		 "theory": "DFT", 
		 "functional": "B3LYP", 
		 "basiset": "6-31G**", 
		 "properties": { 
			 "R2extent": 8348.2599, 
			 "electric_dipole_moment_norm": 0.622835620369, 
			 "electric_quadrupole_moment_norm": 36.4788643169, 
			 "total_energy": -1258.07819622, 
			 "HOMO_LUMO_gap": 0.16038, 
			 "cosmo_polarized_energy": -16.96, 
			 "cosmo_cavitation_energy": 38.08, 
			 "cosmo_dispersion_energy": -28.65, 
			 "cosmo_repulsion_energy": 2.12, 
			 "cosmo_total_nonelectrostatic_energy": 11.55, 
			 "SMD_solvation_energy": 7.06 
		},
		"coords": [
			{
				"x": 3.1217944567,
				"y": 1.7624518075,
				"z": 4.1787570314,
				"element": "O" 
			},
			{
				"x": 2.1173833863,
				"y": 1.3918164962,
				"z": 3.3486844418,
				"element": "C" 
			},
			{
				"x": 2.3757364136,
				"y": 1.2422058335,
				"z": 2.1598136224,
				"element": "O" 
			},
			{
				"x": 0.783888702,
				"y": 1.1935559329,
				"z": 3.9276046907,
				"element": "C" 
			},
			{
				"x": -0.2868500396,
				"y": 0.7768850533,
				"z": 3.1335775782,
				"element": "C" 
			},
			{
				"x": -0.1924354919,
				"y": 0.5293883306,
				"z": 1.7877003017,
				"element": "N" 
			},
			{
				"x": -1.2382492749,
				"y": 0.1051368116,
				"z": 0.9887216776,
				"element": "C" 
			},
			{
				"x": -2.3619931352,
				"y": -0.0485598184,
				"z": 1.4626983177,
				"element": "O" 
			},
			{
				"x": -0.9193116983,
				"y": -0.1364295252,
				"z": -0.4484126781,
				"element": "C" 
			},
			{
				"x": 0.393310443,
				"y": -0.2078982506,
				"z": -0.9497272615,
				"element": "C" 
			},
			{
				"x": 0.5916580984,
				"y": -0.4497751578,
				"z": -2.3046322493,
				"element": "C" 
			},
			{
				"x": -0.5021668134,
				"y": -0.6185489176,
				"z": -3.167716377,
				"element": "C" 
			},
			{
				"x": -0.0247464437,
				"y": -0.8500452241,
				"z": -4.5849232022,
				"element": "C" 
			},
			{
				"x": 1.4641947566,
				"y": -1.2382700296,
				"z": -4.3967409979,
				"element": "C" 
			},
			{
				"x": 1.8936235368,
				"y": -0.5585401957,
				"z": -3.0713934625,
				"element": "C" 
			},
			{
				"x": -1.8052668815,
				"y": -0.5522285864,
				"z": -2.6751396413,
				"element": "C" 
			},
			{
				"x": -2.0080985692,
				"y": -0.3170677141,
				"z": -1.3165896805,
				"element": "C" 
			},
			{
				"x": -1.758382036,
				"y": 0.605484457,
				"z": 4.0498229703,
				"element": "S" 
			},
			{
				"x": -0.9304695969,
				"y": 1.0955086698,
				"z": 5.5097920086,
				"element": "C" 
			},
			{
				"x": 0.3830962973,
				"y": 1.3713516325,
				"z": 5.2969782757,
				"element": "C" 
			},
			{
				"x": 2.8043699111,
				"y": 1.83028079,
				"z": 5.089160741,
				"element": "H" 
			},
			{
				"x": 0.7404471452,
				"y": 0.7342116411,
				"z": 1.4231212658,
				"element": "H" 
			},
			{
				"x": 1.2558929275,
				"y": -0.1067032824,
				"z": -0.2962924492,
				"element": "H" 
			},
			{
				"x": -0.602787326,
				"y": -1.6140702965,
				"z": -5.1152573984,
				"element": "H" 
			},
			{
				"x": -0.118372303,
				"y": 0.0776633027,
				"z": -5.1675894305,
				"element": "H" 
			},
			{
				"x": 2.0898601513,
				"y": -0.9496644728,
				"z": -5.2456383421,
				"element": "H" 
			},
			{
				"x": 1.5414903855,
				"y": -2.3256060943,
				"z": -4.2863183219,
				"element": "H" 
			},
			{
				"x": 2.3049935158,
				"y": 0.4431996607,
				"z": -3.259262959,
				"element": "H" 
			},
			{
				"x": 2.6653367436,
				"y": -1.1200180522,
				"z": -2.5348740513,
				"element": "H" 
			},
			{
				"x": -2.6568266185,
				"y": -0.6893927906,
				"z": -3.3363218055,
				"element": "H" 
			},
			{
				"x": -3.0074741962,
				"y": -0.2727549832,
				"z": -0.897802564,
				"element": "H" 
			},
			{
				"x": -1.4799130333,
				"y": 1.1499564664,
				"z": 6.4391639666,
				"element": "H" 
			},
			{
				"x": 1.041366587,
				"y": 1.6968765053,
				"z": 6.0970359827,
				"element": "H" 
			}
		],
		 "valence_orbital": [ 
			{
				"type": "occ",
				"energy": -0.26649,
				"method": "rhf"
			},
			{
				"type": "occ",
				"energy": -0.26571,
				"method": "rhf"
			},
			{
				"type": "occ",
				"energy": -0.25705,
				"method": "rhf"
			},
			{
				"type": "occ",
				"energy": -0.2425,
				"method": "rhf"
			},
			{
				"type": "occ",
				"energy": -0.21895,
				"method": "rhf"
			},
			{
				"type": "unocc",
				"energy": -0.05857,
				"method": "rhf"
			},
			{
				"type": "unocc",
				"energy": -0.02254,
				"method": "rhf"
			},
			{
				"type": "unocc",
				"energy": -0.00783,
				"method": "rhf"
			},
			{
				"type": "unocc",
				"energy": 0.00105,
				"method": "rhf"
			},
			{
				"type": "unocc",
				"energy": 0.02977,
				"method": "rhf"
			}
		],
		"cosmo_sigma_profile": { 
			"-0.025": 0.0,
			"-0.024": 0.0,
			"-0.023": 0.0,
			"-0.022": 0.0,
			"-0.021": 0.0,
			"-0.02": 0.0693877668248,
			"-0.019": 0.916904245704,
			"-0.018": 1.09072103758,
			"-0.017": 0.60192348908,
			"-0.016": 0.918286786092,
			"-0.015": 0.93890710392,
			"-0.014": 0.783202085663,
			"-0.013": 1.21228707449,
			"-0.012": 1.424007285,
			"-0.011": 1.04070675743,
			"-0.01": 0.959917121101,
			"-0.009": 2.48925377771,
			"-0.008": 3.92245629015,
			"-0.007": 4.53389110478,
			"-0.006": 7.1369741047,
			"-0.005": 10.3786890903,
			"-0.004": 19.8962047313,
			"-0.003": 29.0653014911,
			"-0.002": 34.5960090143,
			"-0.001": 31.4681015693,
			"0.0": 28.5912155387,
			"0.001": 22.0496543391,
			"0.002": 18.8664608278,
			"0.003": 18.681105537,
			"0.004": 18.7888101577,
			"0.005": 8.77830046137,
			"0.006": 4.72136766616,
			"0.007": 4.72633694776,
			"0.008": 3.45407580477,
			"0.009": 5.00544966564,
			"0.01": 6.39052240688,
			"0.011": 5.71813793594,
			"0.012": 4.88066400263,
			"0.013": 2.32108957512,
			"0.014": 0.169496830977,
			"0.015": 0.0,
			"0.016": 0.0,
			"0.017": 0.0,
			"0.018": 0.0,
			"0.019": 0.0,
			"0.02": 0.0,
			"0.021": 0.0,
			"0.022": 0.0,
			"0.023": 0.0,
			"0.024": 0.0,
			"0.025": 0.0
		}
	}
}
