{
	 "smiles": "NC1=C(C=NN1)[N+]([O-])=O", 
	 "Tm": 511.15, 
	 "num_atms": 13, 
	 "gaussian": { 
		 "optdone": 1, 
		 "sigma_profile": "yes", 
		 "theory": "DFT", 
		 "functional": "B3LYP", 
		 "basiset": "6-31G**", 
		 "properties": { 
			 "R2extent": 1535.8797, 
			 "electric_dipole_moment_norm": 5.66364016248, 
			 "electric_quadrupole_moment_norm": 5.62186958227, 
			 "total_energy": -486.061442881, 
			 "HOMO_LUMO_gap": 0.17087, 
			 "cosmo_polarized_energy": -18.78, 
			 "cosmo_cavitation_energy": 18.12, 
			 "cosmo_dispersion_energy": -13.89, 
			 "cosmo_repulsion_energy": 1.15, 
			 "cosmo_total_nonelectrostatic_energy": 5.39, 
			 "SMD_solvation_energy": 4.61 
		},
		"coords": [
			{
				"x": 0.2028999123,
				"y": -0.4578060155,
				"z": -0.6684066196,
				"element": "N" 
			},
			{
				"x": -0.2668876124,
				"y": 0.2274427978,
				"z": 0.4070588587,
				"element": "C" 
			},
			{
				"x": -0.0778238999,
				"y": -0.0130390131,
				"z": 1.7779240284,
				"element": "C" 
			},
			{
				"x": -0.8476981841,
				"y": 0.9678589391,
				"z": 2.4568792089,
				"element": "C" 
			},
			{
				"x": -1.4687444016,
				"y": 1.7600325291,
				"z": 1.6092334529,
				"element": "N" 
			},
			{
				"x": -1.0997322063,
				"y": 1.292185603,
				"z": 0.3637523532,
				"element": "N" 
			},
			{
				"x": 0.7565848428,
				"y": -1.0068083623,
				"z": 2.3251147791,
				"element": "N" 
			},
			{
				"x": 0.8481232826,
				"y": -1.0858650984,
				"z": 3.5517779231,
				"element": "O" 
			},
			{
				"x": 1.3638333818,
				"y": -1.7545290788,
				"z": 1.5280218646,
				"element": "O" 
			},
			{
				"x": 0.3180471409,
				"y": 0.0303502493,
				"z": -1.5439280804,
				"element": "H" 
			},
			{
				"x": 0.9152066404,
				"y": -1.134808016,
				"z": -0.4158632723,
				"element": "H" 
			},
			{
				"x": -0.9467763973,
				"y": 1.0999897877,
				"z": 3.5242712292,
				"element": "H" 
			},
			{
				"x": -1.4969324991,
				"y": 1.7275956778,
				"z": -0.4540357257,
				"element": "H" 
			}
		],
		 "valence_orbital": [ 
			{
				"type": "occ",
				"energy": -0.29886,
				"method": "rhf"
			},
			{
				"type": "occ",
				"energy": -0.29704,
				"method": "rhf"
			},
			{
				"type": "occ",
				"energy": -0.28762,
				"method": "rhf"
			},
			{
				"type": "occ",
				"energy": -0.28309,
				"method": "rhf"
			},
			{
				"type": "occ",
				"energy": -0.23977,
				"method": "rhf"
			},
			{
				"type": "unocc",
				"energy": -0.0689,
				"method": "rhf"
			},
			{
				"type": "unocc",
				"energy": 0.00771,
				"method": "rhf"
			},
			{
				"type": "unocc",
				"energy": 0.04945,
				"method": "rhf"
			},
			{
				"type": "unocc",
				"energy": 0.07197,
				"method": "rhf"
			},
			{
				"type": "unocc",
				"energy": 0.08619,
				"method": "rhf"
			}
		],
		"cosmo_sigma_profile": { 
			"-0.025": 0.0,
			"-0.024": 0.0,
			"-0.023": 0.0,
			"-0.022": 0.0,
			"-0.021": 0.0,
			"-0.02": 0.0,
			"-0.019": 0.0,
			"-0.018": 1.51266359009,
			"-0.017": 2.76688714846,
			"-0.016": 2.75416991244,
			"-0.015": 2.73670913514,
			"-0.014": 2.18349173995,
			"-0.013": 1.75270381917,
			"-0.012": 2.3604062747,
			"-0.011": 3.03708680992,
			"-0.01": 1.68598299874,
			"-0.009": 2.77983075316,
			"-0.008": 3.22888024978,
			"-0.007": 2.65290361647,
			"-0.006": 4.08368548494,
			"-0.005": 2.62210593489,
			"-0.004": 4.76361933083,
			"-0.003": 7.27630075241,
			"-0.002": 6.93744725477,
			"-0.001": 9.1760761186,
			"0.0": 9.88605705185,
			"0.001": 7.83569593146,
			"0.002": 6.47264293974,
			"0.003": 4.89830355421,
			"0.004": 4.76840818108,
			"0.005": 4.15608169881,
			"0.006": 5.45241231109,
			"0.007": 5.77701723464,
			"0.008": 6.63557662242,
			"0.009": 9.32522667343,
			"0.01": 5.22536972488,
			"0.011": 5.53301301202,
			"0.012": 2.30426402178,
			"0.013": 1.11468416796,
			"0.014": 0.838395955843,
			"0.015": 0.436123189324,
			"0.016": 0.0,
			"0.017": 0.0,
			"0.018": 0.0,
			"0.019": 0.0,
			"0.02": 0.0,
			"0.021": 0.0,
			"0.022": 0.0,
			"0.023": 0.0,
			"0.024": 0.0,
			"0.025": 0.0
		}
	}
}
