{
	 "smiles": "CC1=CC(C)=C(C=C1C)N=C=S", 
	 "Tm": 296.15, 
	 "num_atms": 23, 
	 "gaussian": { 
		 "optdone": 1, 
		 "sigma_profile": "yes", 
		 "theory": "DFT", 
		 "functional": "B3LYP", 
		 "basiset": "6-31G**", 
		 "properties": { 
			 "R2extent": 4506.7223, 
			 "electric_dipole_moment_norm": 4.64774958986, 
			 "electric_quadrupole_moment_norm": 18.1879834591, 
			 "total_energy": -840.652034411, 
			 "HOMO_LUMO_gap": 0.17936, 
			 "cosmo_polarized_energy": -5.72, 
			 "cosmo_cavitation_energy": 29.26, 
			 "cosmo_dispersion_energy": -21.13, 
			 "cosmo_repulsion_energy": 1.65, 
			 "cosmo_total_nonelectrostatic_energy": 9.78, 
			 "SMD_solvation_energy": 5.63 
		},
		"coords": [
			{
				"x": 0.3654382454,
				"y": 0.42891145,
				"z": -2.6394056094,
				"element": "C" 
			},
			{
				"x": -0.1185554687,
				"y": 0.7332645284,
				"z": -1.2426553431,
				"element": "C" 
			},
			{
				"x": 0.6391393497,
				"y": 1.5529711876,
				"z": -0.3990644888,
				"element": "C" 
			},
			{
				"x": 0.2521480089,
				"y": 1.8761602981,
				"z": 0.9034892832,
				"element": "C" 
			},
			{
				"x": 1.0889779018,
				"y": 2.7630123315,
				"z": 1.7878174537,
				"element": "C" 
			},
			{
				"x": -0.9652710853,
				"y": 1.3334345333,
				"z": 1.3595616393,
				"element": "C" 
			},
			{
				"x": -1.7422124244,
				"y": 0.5093130874,
				"z": 0.5317872809,
				"element": "C" 
			},
			{
				"x": -1.3359801078,
				"y": 0.2004022053,
				"z": -0.7655208093,
				"element": "C" 
			},
			{
				"x": -2.1915918141,
				"y": -0.689460397,
				"z": -1.6349529977,
				"element": "C" 
			},
			{
				"x": -1.4041828311,
				"y": 1.6142750118,
				"z": 2.6332351679,
				"element": "N" 
			},
			{
				"x": -1.7825036721,
				"y": 1.8563460135,
				"z": 3.7310786791,
				"element": "C" 
			},
			{
				"x": -2.2982753222,
				"y": 2.1819764127,
				"z": 5.2070865198,
				"element": "S" 
			},
			{
				"x": -0.3505223043,
				"y": 0.7672105795,
				"z": -3.3984205212,
				"element": "H" 
			},
			{
				"x": 1.3215704112,
				"y": 0.918127824,
				"z": -2.8415959011,
				"element": "H" 
			},
			{
				"x": 0.5013015367,
				"y": -0.648287354,
				"z": -2.7949712679,
				"element": "H" 
			},
			{
				"x": 1.5760145173,
				"y": 1.9603224703,
				"z": -0.7722473009,
				"element": "H" 
			},
			{
				"x": 1.3782708687,
				"y": 2.2497227156,
				"z": 2.7118591814,
				"element": "H" 
			},
			{
				"x": 0.5403744003,
				"y": 3.6639679679,
				"z": 2.0859227234,
				"element": "H" 
			},
			{
				"x": 2.000788219,
				"y": 3.076373044,
				"z": 1.2736285023,
				"element": "H" 
			},
			{
				"x": -2.6742014821,
				"y": 0.1123775537,
				"z": 0.922040022,
				"element": "H" 
			},
			{
				"x": -3.093988945,
				"y": -1.0082396039,
				"z": -1.1074296923,
				"element": "H" 
			},
			{
				"x": -1.6499650215,
				"y": -1.5907342871,
				"z": -1.9463229441,
				"element": "H" 
			},
			{
				"x": -2.5039729803,
				"y": -0.1770475724,
				"z": -2.5528195773,
				"element": "H" 
			}
		],
		 "valence_orbital": [ 
			{
				"type": "occ",
				"energy": -0.34648,
				"method": "rhf"
			},
			{
				"type": "occ",
				"energy": -0.27854,
				"method": "rhf"
			},
			{
				"type": "occ",
				"energy": -0.25104,
				"method": "rhf"
			},
			{
				"type": "occ",
				"energy": -0.24562,
				"method": "rhf"
			},
			{
				"type": "occ",
				"energy": -0.21905,
				"method": "rhf"
			},
			{
				"type": "unocc",
				"energy": -0.03969,
				"method": "rhf"
			},
			{
				"type": "unocc",
				"energy": -0.00789,
				"method": "rhf"
			},
			{
				"type": "unocc",
				"energy": 0.01094,
				"method": "rhf"
			},
			{
				"type": "unocc",
				"energy": 0.05084,
				"method": "rhf"
			},
			{
				"type": "unocc",
				"energy": 0.08415,
				"method": "rhf"
			}
		],
		"cosmo_sigma_profile": { 
			"-0.025": 0.0,
			"-0.024": 0.0,
			"-0.023": 0.0,
			"-0.022": 0.0,
			"-0.021": 0.0,
			"-0.02": 0.0,
			"-0.019": 0.0,
			"-0.018": 0.0,
			"-0.017": 0.0,
			"-0.016": 0.0,
			"-0.015": 0.0,
			"-0.014": 0.0,
			"-0.013": 0.0,
			"-0.012": 0.0,
			"-0.011": 0.0,
			"-0.01": 0.0,
			"-0.009": 0.0,
			"-0.008": 0.0,
			"-0.007": 0.584308171736,
			"-0.006": 3.24882749924,
			"-0.005": 11.1417690275,
			"-0.004": 24.4778184775,
			"-0.003": 19.0336833844,
			"-0.002": 25.112971801,
			"-0.001": 29.9473578387,
			"0.0": 34.820503436,
			"0.001": 18.3701174378,
			"0.002": 12.815239655,
			"0.003": 13.0377221004,
			"0.004": 14.7886895537,
			"0.005": 9.26964936975,
			"0.006": 11.4492765657,
			"0.007": 7.73126110469,
			"0.008": 0.0,
			"0.009": 0.0,
			"0.01": 0.0,
			"0.011": 0.0,
			"0.012": 0.0,
			"0.013": 0.0,
			"0.014": 0.0,
			"0.015": 0.0,
			"0.016": 0.0,
			"0.017": 0.0,
			"0.018": 0.0,
			"0.019": 0.0,
			"0.02": 0.0,
			"0.021": 0.0,
			"0.022": 0.0,
			"0.023": 0.0,
			"0.024": 0.0,
			"0.025": 0.0
		}
	}
}
