{
	 "smiles": "CC1=CC=C(C=C1[N+]([O-])=O)S(C)(=O)=O", 
	 "Tm": 394.15, 
	 "num_atms": 23, 
	 "gaussian": { 
		 "optdone": 1, 
		 "sigma_profile": "yes", 
		 "theory": "DFT", 
		 "functional": "B3LYP", 
		 "basiset": "6-31G**", 
		 "properties": { 
			 "R2extent": 3614.6382, 
			 "electric_dipole_moment_norm": 5.35812603342, 
			 "electric_quadrupole_moment_norm": 17.4529800298, 
			 "total_energy": -1063.94599903, 
			 "HOMO_LUMO_gap": 0.18796, 
			 "cosmo_polarized_energy": -17.9, 
			 "cosmo_cavitation_energy": 29.02, 
			 "cosmo_dispersion_energy": -21.35, 
			 "cosmo_repulsion_energy": 1.63, 
			 "cosmo_total_nonelectrostatic_energy": 9.3, 
			 "SMD_solvation_energy": 6.88 
		},
		"coords": [
			{
				"x": -0.4120528976,
				"y": 1.3950231627,
				"z": -3.5175247063,
				"element": "C" 
			},
			{
				"x": -0.1604517798,
				"y": 0.7840059288,
				"z": -2.1620109238,
				"element": "C" 
			},
			{
				"x": -1.0902879654,
				"y": -0.140999987,
				"z": -1.6575281135,
				"element": "C" 
			},
			{
				"x": -0.9389717001,
				"y": -0.7551652345,
				"z": -0.4179896143,
				"element": "C" 
			},
			{
				"x": 0.1841308106,
				"y": -0.4566771008,
				"z": 0.3543902838,
				"element": "C" 
			},
			{
				"x": 1.1339998764,
				"y": 0.4509415446,
				"z": -0.0956137677,
				"element": "C" 
			},
			{
				"x": 0.9527499498,
				"y": 1.0564459971,
				"z": -1.3394812136,
				"element": "C" 
			},
			{
				"x": 2.0044208022,
				"y": 2.0119104066,
				"z": -1.7439132717,
				"element": "N" 
			},
			{
				"x": 3.0698367522,
				"y": 1.9723009748,
				"z": -1.1311090893,
				"element": "O" 
			},
			{
				"x": 1.7582499853,
				"y": 2.7937111231,
				"z": -2.6615367298,
				"element": "O" 
			},
			{
				"x": 0.3906478192,
				"y": -1.2317958686,
				"z": 1.9704993068,
				"element": "S" 
			},
			{
				"x": 1.4498820213,
				"y": -2.6562019374,
				"z": 1.6261153322,
				"element": "C" 
			},
			{
				"x": -0.9264688292,
				"y": -1.742186726,
				"z": 2.3790581065,
				"element": "O" 
			},
			{
				"x": 1.1532775455,
				"y": -0.3042002881,
				"z": 2.8169661651,
				"element": "O" 
			},
			{
				"x": -1.2627366358,
				"y": 0.8999375039,
				"z": -3.9919960956,
				"element": "H" 
			},
			{
				"x": 0.459143261,
				"y": 1.3094002334,
				"z": -4.1710426347,
				"element": "H" 
			},
			{
				"x": -0.6250530623,
				"y": 2.4637378153,
				"z": -3.4340508813,
				"element": "H" 
			},
			{
				"x": -1.9613239477,
				"y": -0.3752780743,
				"z": -2.2618574941,
				"element": "H" 
			},
			{
				"x": -1.6851185395,
				"y": -1.4454352773,
				"z": -0.038723209,
				"element": "H" 
			},
			{
				"x": 1.9971866,
				"y": 0.7102895547,
				"z": 0.5047093508,
				"element": "H" 
			},
			{
				"x": 1.5993551885,
				"y": -3.1601478734,
				"z": 2.583333895,
				"element": "H" 
			},
			{
				"x": 0.9442476747,
				"y": -3.3194551288,
				"z": 0.9229742767,
				"element": "H" 
			},
			{
				"x": 2.4040370704,
				"y": -2.3080607488,
				"z": 1.2282310279,
				"element": "H" 
			}
		],
		 "valence_orbital": [ 
			{
				"type": "occ",
				"energy": -0.30797,
				"method": "rhf"
			},
			{
				"type": "occ",
				"energy": -0.30703,
				"method": "rhf"
			},
			{
				"type": "occ",
				"energy": -0.30177,
				"method": "rhf"
			},
			{
				"type": "occ",
				"energy": -0.29369,
				"method": "rhf"
			},
			{
				"type": "occ",
				"energy": -0.28908,
				"method": "rhf"
			},
			{
				"type": "unocc",
				"energy": -0.10112,
				"method": "rhf"
			},
			{
				"type": "unocc",
				"energy": -0.05829,
				"method": "rhf"
			},
			{
				"type": "unocc",
				"energy": -0.02322,
				"method": "rhf"
			},
			{
				"type": "unocc",
				"energy": 0.05049,
				"method": "rhf"
			},
			{
				"type": "unocc",
				"energy": 0.06498,
				"method": "rhf"
			}
		],
		"cosmo_sigma_profile": { 
			"-0.025": 0.0,
			"-0.024": 0.0,
			"-0.023": 0.0,
			"-0.022": 0.0,
			"-0.021": 0.0,
			"-0.02": 0.0,
			"-0.019": 0.0,
			"-0.018": 0.0,
			"-0.017": 0.0,
			"-0.016": 0.0,
			"-0.015": 0.0,
			"-0.014": 0.0,
			"-0.013": 0.0,
			"-0.012": 0.0,
			"-0.011": 0.0,
			"-0.01": 0.251673708867,
			"-0.009": 4.96015735457,
			"-0.008": 11.2895627106,
			"-0.007": 13.048389619,
			"-0.006": 14.1694947891,
			"-0.005": 17.1488696924,
			"-0.004": 16.6171272849,
			"-0.003": 16.7428755805,
			"-0.002": 17.8514578828,
			"-0.001": 22.2375287982,
			"0.0": 13.9613020807,
			"0.001": 8.1683939721,
			"0.002": 4.06054093847,
			"0.003": 5.17210152339,
			"0.004": 5.55771641279,
			"0.005": 5.27465667015,
			"0.006": 6.08490710848,
			"0.007": 10.3199779183,
			"0.008": 8.83420017415,
			"0.009": 6.77369638697,
			"0.01": 7.52924923506,
			"0.011": 9.82841575046,
			"0.012": 5.70306668418,
			"0.013": 0.0243880339184,
			"0.014": 0.0,
			"0.015": 0.0,
			"0.016": 0.0,
			"0.017": 0.0,
			"0.018": 0.0,
			"0.019": 0.0,
			"0.02": 0.0,
			"0.021": 0.0,
			"0.022": 0.0,
			"0.023": 0.0,
			"0.024": 0.0,
			"0.025": 0.0
		}
	}
}
