{
	 "smiles": "OC(=O)C1=CN=C(S1)C1=NC=CC=N1", 
	 "Tm": 491.15, 
	 "num_atms": 19, 
	 "gaussian": { 
		 "optdone": 1, 
		 "sigma_profile": "yes", 
		 "theory": "DFT", 
		 "functional": "B3LYP", 
		 "basiset": "6-31G**", 
		 "properties": { 
			 "R2extent": 3817.8104, 
			 "electric_dipole_moment_norm": 7.0300685843, 
			 "electric_quadrupole_moment_norm": 3.91607067224, 
			 "total_energy": -1020.73984833, 
			 "HOMO_LUMO_gap": 0.16053, 
			 "cosmo_polarized_energy": -19.19, 
			 "cosmo_cavitation_energy": 26.79, 
			 "cosmo_dispersion_energy": -20.49, 
			 "cosmo_repulsion_energy": 1.55, 
			 "cosmo_total_nonelectrostatic_energy": 7.85, 
			 "SMD_solvation_energy": 1.8 
		},
		"coords": [
			{
				"x": -3.4867379683,
				"y": 0.71382799,
				"z": 2.5806105044,
				"element": "O" 
			},
			{
				"x": -3.4152590693,
				"y": 0.2914321837,
				"z": 1.2924405503,
				"element": "C" 
			},
			{
				"x": -4.4247836588,
				"y": 0.1299006908,
				"z": 0.6480056628,
				"element": "O" 
			},
			{
				"x": -2.0691198377,
				"y": 0.0444055331,
				"z": 0.7196328902,
				"element": "C" 
			},
			{
				"x": -1.8509593972,
				"y": -0.3839553822,
				"z": -0.5718585601,
				"element": "C" 
			},
			{
				"x": -0.5528218486,
				"y": -0.5620816155,
				"z": -0.9383974241,
				"element": "N" 
			},
			{
				"x": 0.2574361044,
				"y": -0.2796526413,
				"z": 0.0475466669,
				"element": "C" 
			},
			{
				"x": -0.538366733,
				"y": 0.2370229125,
				"z": 1.5294486009,
				"element": "S" 
			},
			{
				"x": 1.7292045281,
				"y": -0.3585095747,
				"z": 0.0123280366,
				"element": "C" 
			},
			{
				"x": 2.3532469431,
				"y": -0.0177829008,
				"z": 1.1523552794,
				"element": "N" 
			},
			{
				"x": 3.6860999444,
				"y": -0.0822437351,
				"z": 1.1423824412,
				"element": "C" 
			},
			{
				"x": 4.3993686501,
				"y": -0.4810429647,
				"z": 0.012720286,
				"element": "C" 
			},
			{
				"x": 3.6439220484,
				"y": -0.8110502244,
				"z": -1.1128274901,
				"element": "C" 
			},
			{
				"x": 2.3096402708,
				"y": -0.7546958672,
				"z": -1.1280238149,
				"element": "N" 
			},
			{
				"x": -2.6100599411,
				"y": 0.8036329979,
				"z": 2.980990887,
				"element": "H" 
			},
			{
				"x": -2.6518083127,
				"y": -0.5754501621,
				"z": -1.2756344932,
				"element": "H" 
			},
			{
				"x": 4.1932011098,
				"y": 0.1933969969,
				"z": 2.0649018251,
				"element": "H" 
			},
			{
				"x": 5.4822783876,
				"y": -0.5318344833,
				"z": 0.0094866414,
				"element": "H" 
			},
			{
				"x": 4.1227187799,
				"y": -1.1322197535,
				"z": -2.0361084899,
				"element": "H" 
			}
		],
		 "valence_orbital": [ 
			{
				"type": "occ",
				"energy": -0.30427,
				"method": "rhf"
			},
			{
				"type": "occ",
				"energy": -0.29404,
				"method": "rhf"
			},
			{
				"type": "occ",
				"energy": -0.28353,
				"method": "rhf"
			},
			{
				"type": "occ",
				"energy": -0.27117,
				"method": "rhf"
			},
			{
				"type": "occ",
				"energy": -0.25718,
				"method": "rhf"
			},
			{
				"type": "unocc",
				"energy": -0.09665,
				"method": "rhf"
			},
			{
				"type": "unocc",
				"energy": -0.0608,
				"method": "rhf"
			},
			{
				"type": "unocc",
				"energy": -0.03323,
				"method": "rhf"
			},
			{
				"type": "unocc",
				"energy": -0.01086,
				"method": "rhf"
			},
			{
				"type": "unocc",
				"energy": 0.02526,
				"method": "rhf"
			}
		],
		"cosmo_sigma_profile": { 
			"-0.025": 0.0,
			"-0.024": 0.0,
			"-0.023": 0.0,
			"-0.022": 0.0,
			"-0.021": 0.0,
			"-0.02": 0.0,
			"-0.019": 0.395543463898,
			"-0.018": 0.759658284344,
			"-0.017": 0.855006278363,
			"-0.016": 1.15085106064,
			"-0.015": 1.02415123364,
			"-0.014": 0.717477905753,
			"-0.013": 1.35682182944,
			"-0.012": 1.1632116049,
			"-0.011": 0.899940467134,
			"-0.01": 0.90285593768,
			"-0.009": 4.82309567828,
			"-0.008": 10.627058535,
			"-0.007": 10.3005796169,
			"-0.006": 8.57506272891,
			"-0.005": 6.82426783833,
			"-0.004": 9.21206212221,
			"-0.003": 16.1491223844,
			"-0.002": 20.0200028851,
			"-0.001": 22.1318299541,
			"0.0": 15.6960868165,
			"0.001": 11.8375790925,
			"0.002": 8.30412258736,
			"0.003": 6.53415448039,
			"0.004": 5.76136481032,
			"0.005": 5.97973452738,
			"0.006": 5.45327386453,
			"0.007": 4.89055648669,
			"0.008": 5.43592051313,
			"0.009": 6.71199389329,
			"0.01": 8.13789800529,
			"0.011": 6.58601681228,
			"0.012": 3.86891002305,
			"0.013": 1.57393385313,
			"0.014": 1.21222192198,
			"0.015": 1.76209724002,
			"0.016": 1.02225656658,
			"0.017": 0.563341303533,
			"0.018": 0.0,
			"0.019": 0.0,
			"0.02": 0.0,
			"0.021": 0.0,
			"0.022": 0.0,
			"0.023": 0.0,
			"0.024": 0.0,
			"0.025": 0.0
		}
	}
}
