{
	 "smiles": "OCC=C1O[C@@H]2CC(=O)N2[C@H]1C(O)=O", 
	 "Tm": 390.9, 
	 "num_atms": 23, 
	 "gaussian": { 
		 "optdone": 1, 
		 "sigma_profile": "yes", 
		 "theory": "DFT", 
		 "functional": "B3LYP", 
		 "basiset": "6-31G**", 
		 "properties": { 
			 "R2extent": 3394.0708, 
			 "electric_dipole_moment_norm": 3.9266534199, 
			 "electric_quadrupole_moment_norm": 24.1515792554, 
			 "total_energy": -741.092210103, 
			 "HOMO_LUMO_gap": 0.20327, 
			 "cosmo_polarized_energy": -18.18, 
			 "cosmo_cavitation_energy": 27.11, 
			 "cosmo_dispersion_energy": -19.79, 
			 "cosmo_repulsion_energy": 1.59, 
			 "cosmo_total_nonelectrostatic_energy": 8.91, 
			 "SMD_solvation_energy": 4.65 
		},
		"coords": [
			{
				"x": -0.587388557,
				"y": -2.1580351897,
				"z": 3.8692935037,
				"element": "O" 
			},
			{
				"x": -1.0852333857,
				"y": -1.2064287296,
				"z": 2.9408941036,
				"element": "C" 
			},
			{
				"x": -0.1391037323,
				"y": -0.0571060619,
				"z": 2.6811054435,
				"element": "C" 
			},
			{
				"x": 0.707378817,
				"y": 0.0088810067,
				"z": 1.6519347297,
				"element": "C" 
			},
			{
				"x": 1.5597043812,
				"y": 1.0834482526,
				"z": 1.4585532802,
				"element": "O" 
			},
			{
				"x": 2.2399953609,
				"y": 0.962784332,
				"z": 0.209818503,
				"element": "C" 
			},
			{
				"x": 1.7287131485,
				"y": 1.8914817638,
				"z": -0.9171976981,
				"element": "C" 
			},
			{
				"x": 0.9494233334,
				"y": 0.6483437499,
				"z": -1.391830817,
				"element": "C" 
			},
			{
				"x": 0.0672229973,
				"y": 0.400720752,
				"z": -2.1679715011,
				"element": "O" 
			},
			{
				"x": 1.6300605017,
				"y": -0.1896532735,
				"z": -0.4668322349,
				"element": "N" 
			},
			{
				"x": 0.9250881496,
				"y": -1.0002635927,
				"z": 0.5109725773,
				"element": "C" 
			},
			{
				"x": 1.708821565,
				"y": -2.2179862303,
				"z": 1.0054685427,
				"element": "C" 
			},
			{
				"x": 2.9755024592,
				"y": -2.2516705101,
				"z": 0.5677549776,
				"element": "O" 
			},
			{
				"x": 1.2380936549,
				"y": -3.059338863,
				"z": 1.7436954305,
				"element": "O" 
			},
			{
				"x": 0.1098237817,
				"y": -2.6432201152,
				"z": 3.4019758346,
				"element": "H" 
			},
			{
				"x": -1.3634329733,
				"y": -1.6885311102,
				"z": 1.9909958959,
				"element": "H" 
			},
			{
				"x": -2.0082114844,
				"y": -0.8121259616,
				"z": 3.3781157054,
				"element": "H" 
			},
			{
				"x": -0.1197622195,
				"y": 0.7593186495,
				"z": 3.3981757646,
				"element": "H" 
			},
			{
				"x": 3.3152909731,
				"y": 0.9000360486,
				"z": 0.3920216795,
				"element": "H" 
			},
			{
				"x": 2.4845454786,
				"y": 2.2670553852,
				"z": -1.6111869748,
				"element": "H" 
			},
			{
				"x": 1.0918120638,
				"y": 2.7082665172,
				"z": -0.5724801956,
				"element": "H" 
			},
			{
				"x": -0.0203885271,
				"y": -1.362439267,
				"z": 0.0990250335,
				"element": "H" 
			},
			{
				"x": 3.3823442135,
				"y": -3.0431375527,
				"z": 0.9616984161,
				"element": "H" 
			}
		],
		 "valence_orbital": [ 
			{
				"type": "occ",
				"energy": -0.31388,
				"method": "rhf"
			},
			{
				"type": "occ",
				"energy": -0.29646,
				"method": "rhf"
			},
			{
				"type": "occ",
				"energy": -0.27275,
				"method": "rhf"
			},
			{
				"type": "occ",
				"energy": -0.25985,
				"method": "rhf"
			},
			{
				"type": "occ",
				"energy": -0.23511,
				"method": "rhf"
			},
			{
				"type": "unocc",
				"energy": -0.03184,
				"method": "rhf"
			},
			{
				"type": "unocc",
				"energy": -0.01776,
				"method": "rhf"
			},
			{
				"type": "unocc",
				"energy": 0.01943,
				"method": "rhf"
			},
			{
				"type": "unocc",
				"energy": 0.0527,
				"method": "rhf"
			},
			{
				"type": "unocc",
				"energy": 0.07862,
				"method": "rhf"
			}
		],
		"cosmo_sigma_profile": { 
			"-0.025": 0.0,
			"-0.024": 0.0,
			"-0.023": 0.0,
			"-0.022": 0.0,
			"-0.021": 0.0,
			"-0.02": 0.164576997159,
			"-0.019": 0.815891202424,
			"-0.018": 1.33393083874,
			"-0.017": 0.534957731242,
			"-0.016": 0.473018939496,
			"-0.015": 1.0553014874,
			"-0.014": 0.718680180652,
			"-0.013": 0.765459897857,
			"-0.012": 0.773606504637,
			"-0.011": 0.699077095766,
			"-0.01": 2.19270445497,
			"-0.009": 3.03556122076,
			"-0.008": 9.27840243594,
			"-0.007": 11.929643313,
			"-0.006": 9.6482142614,
			"-0.005": 13.7237283567,
			"-0.004": 18.4850086083,
			"-0.003": 14.8511396062,
			"-0.002": 11.6272769067,
			"-0.001": 10.9818154699,
			"0.0": 9.65222750507,
			"0.001": 8.48317415031,
			"0.002": 8.58104091036,
			"0.003": 8.97359894656,
			"0.004": 7.73984469216,
			"0.005": 7.47168697573,
			"0.006": 6.80503176887,
			"0.007": 6.55390172463,
			"0.008": 6.41297060601,
			"0.009": 7.93864727657,
			"0.01": 8.41722162469,
			"0.011": 5.96312217809,
			"0.012": 2.23602424613,
			"0.013": 2.32834842837,
			"0.014": 2.10007739893,
			"0.015": 1.95872785108,
			"0.016": 0.0331812532673,
			"0.017": 0.0,
			"0.018": 0.0,
			"0.019": 0.0,
			"0.02": 0.0,
			"0.021": 0.0,
			"0.022": 0.0,
			"0.023": 0.0,
			"0.024": 0.0,
			"0.025": 0.0
		}
	}
}
