{
	 "smiles": "COC1=CC2=NN=C(C=CC(C)=O)C(C3=CC=C(C)O3)=C2C=C1OC", 
	 "Tm": 483.15, 
	 "num_atms": 43, 
	 "gaussian": { 
		 "optdone": 1, 
		 "sigma_profile": "yes", 
		 "theory": "DFT", 
		 "functional": "B3LYP", 
		 "basiset": "6-31G**", 
		 "properties": { 
			 "R2extent": 11413.9819, 
			 "electric_dipole_moment_norm": 6.68539741451, 
			 "electric_quadrupole_moment_norm": 19.6386795684, 
			 "total_energy": -1145.18307495, 
			 "HOMO_LUMO_gap": 0.13382, 
			 "cosmo_polarized_energy": -19.49, 
			 "cosmo_cavitation_energy": 48.07, 
			 "cosmo_dispersion_energy": -32.83, 
			 "cosmo_repulsion_energy": 2.49, 
			 "cosmo_total_nonelectrostatic_energy": 17.73, 
			 "SMD_solvation_energy": 9.11 
		},
		"coords": [
			{
				"x": 1.2978651499,
				"y": 0.4893497021,
				"z": -6.1320034839,
				"element": "C" 
			},
			{
				"x": 1.4259427417,
				"y": -0.7518953298,
				"z": -5.4290455011,
				"element": "O" 
			},
			{
				"x": 1.0697630658,
				"y": -0.7434331194,
				"z": -4.1097712065,
				"element": "C" 
			},
			{
				"x": -0.0242439736,
				"y": -1.458465019,
				"z": -3.6954600649,
				"element": "C" 
			},
			{
				"x": -0.3750227251,
				"y": -1.5266935376,
				"z": -2.32290141,
				"element": "C" 
			},
			{
				"x": -1.5023140555,
				"y": -2.2343446948,
				"z": -2.0138908228,
				"element": "N" 
			},
			{
				"x": -1.8748180721,
				"y": -2.3415787383,
				"z": -0.7776980212,
				"element": "N" 
			},
			{
				"x": -1.170164095,
				"y": -1.744663636,
				"z": 0.2371836342,
				"element": "C" 
			},
			{
				"x": -1.6800340354,
				"y": -2.0412380601,
				"z": 1.5760551988,
				"element": "C" 
			},
			{
				"x": -2.875136008,
				"y": -2.6046909928,
				"z": 1.839542029,
				"element": "C" 
			},
			{
				"x": -3.2782931379,
				"y": -2.8981020614,
				"z": 3.2391081134,
				"element": "C" 
			},
			{
				"x": -4.6257929125,
				"y": -3.573512408,
				"z": 3.4217232641,
				"element": "C" 
			},
			{
				"x": -2.5715588494,
				"y": -2.6124125261,
				"z": 4.1977615923,
				"element": "O" 
			},
			{
				"x": -0.0334271953,
				"y": -0.9474871926,
				"z": 0.0062062096,
				"element": "C" 
			},
			{
				"x": 0.6117754491,
				"y": -0.2251595458,
				"z": 1.1003727071,
				"element": "C" 
			},
			{
				"x": 0.1194108868,
				"y": 0.4558305335,
				"z": 2.1853247762,
				"element": "C" 
			},
			{
				"x": 1.2418685081,
				"y": 0.9767604951,
				"z": 2.8958895785,
				"element": "C" 
			},
			{
				"x": 2.3566898003,
				"y": 0.587008357,
				"z": 2.2105878404,
				"element": "C" 
			},
			{
				"x": 3.8158262844,
				"y": 0.7772240105,
				"z": 2.4301808421,
				"element": "C" 
			},
			{
				"x": 1.9890473085,
				"y": -0.1381779178,
				"z": 1.1109385391,
				"element": "O" 
			},
			{
				"x": 0.4115324086,
				"y": -0.8460922722,
				"z": -1.3490890208,
				"element": "C" 
			},
			{
				"x": 1.5375155507,
				"y": -0.1009154038,
				"z": -1.7923250298,
				"element": "C" 
			},
			{
				"x": 1.8702184534,
				"y": -0.0549779564,
				"z": -3.1323398887,
				"element": "C" 
			},
			{
				"x": 2.9442241103,
				"y": 0.6040476143,
				"z": -3.6375084279,
				"element": "O" 
			},
			{
				"x": 3.8146388581,
				"y": 1.2717462222,
				"z": -2.7323907581,
				"element": "C" 
			},
			{
				"x": 1.5901739487,
				"y": 0.2814647347,
				"z": -7.1627646864,
				"element": "H" 
			},
			{
				"x": 0.2578564191,
				"y": 0.8386592733,
				"z": -6.114355859,
				"element": "H" 
			},
			{
				"x": 1.9527118319,
				"y": 1.2585886092,
				"z": -5.7136201858,
				"element": "H" 
			},
			{
				"x": -0.6369367101,
				"y": -1.9876426163,
				"z": -4.41623272,
				"element": "H" 
			},
			{
				"x": -1.0438996235,
				"y": -1.811569008,
				"z": 2.4250384897,
				"element": "H" 
			},
			{
				"x": -3.5541896925,
				"y": -2.8561826582,
				"z": 1.0307523729,
				"element": "H" 
			},
			{
				"x": -4.8184747131,
				"y": -3.738062364,
				"z": 4.4824978234,
				"element": "H" 
			},
			{
				"x": -4.6462662023,
				"y": -4.5316101375,
				"z": 2.8887175236,
				"element": "H" 
			},
			{
				"x": -5.4235023223,
				"y": -2.9558109663,
				"z": 2.9919982794,
				"element": "H" 
			},
			{
				"x": -0.9234866253,
				"y": 0.5833240138,
				"z": 2.4345395423,
				"element": "H" 
			},
			{
				"x": 1.2236619386,
				"y": 1.5622332303,
				"z": 3.8038150942,
				"element": "H" 
			},
			{
				"x": 3.9804179095,
				"y": 1.3559418977,
				"z": 3.3416200286,
				"element": "H" 
			},
			{
				"x": 4.3317573145,
				"y": -0.1839224601,
				"z": 2.5354796841,
				"element": "H" 
			},
			{
				"x": 4.2843455284,
				"y": 1.3123790183,
				"z": 1.5958071505,
				"element": "H" 
			},
			{
				"x": 2.1481429873,
				"y": 0.407875871,
				"z": -1.0627621843,
				"element": "H" 
			},
			{
				"x": 4.2495924197,
				"y": 0.5707244642,
				"z": -2.0101654018,
				"element": "H" 
			},
			{
				"x": 4.6077748283,
				"y": 1.7028436437,
				"z": -3.3442533809,
				"element": "H" 
			},
			{
				"x": 3.294207247,
				"y": 2.0719389314,
				"z": -2.19186226,
				"element": "H" 
			}
		],
		 "valence_orbital": [ 
			{
				"type": "occ",
				"energy": -0.24647,
				"method": "rhf"
			},
			{
				"type": "occ",
				"energy": -0.23661,
				"method": "rhf"
			},
			{
				"type": "occ",
				"energy": -0.23285,
				"method": "rhf"
			},
			{
				"type": "occ",
				"energy": -0.22332,
				"method": "rhf"
			},
			{
				"type": "occ",
				"energy": -0.21185,
				"method": "rhf"
			},
			{
				"type": "unocc",
				"energy": -0.07803,
				"method": "rhf"
			},
			{
				"type": "unocc",
				"energy": -0.06005,
				"method": "rhf"
			},
			{
				"type": "unocc",
				"energy": -0.00929,
				"method": "rhf"
			},
			{
				"type": "unocc",
				"energy": -0.00223,
				"method": "rhf"
			},
			{
				"type": "unocc",
				"energy": 0.02545,
				"method": "rhf"
			}
		],
		"cosmo_sigma_profile": { 
			"-0.025": 0.0,
			"-0.024": 0.0,
			"-0.023": 0.0,
			"-0.022": 0.0,
			"-0.021": 0.0,
			"-0.02": 0.0,
			"-0.019": 0.0,
			"-0.018": 0.0,
			"-0.017": 0.0,
			"-0.016": 0.0,
			"-0.015": 0.0,
			"-0.014": 0.0,
			"-0.013": 0.0,
			"-0.012": 0.0,
			"-0.011": 0.0,
			"-0.01": 0.0,
			"-0.009": 0.0,
			"-0.008": 0.711971296268,
			"-0.007": 5.29676330757,
			"-0.006": 20.8961315066,
			"-0.005": 35.48719457,
			"-0.004": 35.7425688714,
			"-0.003": 37.4966753693,
			"-0.002": 35.9780940997,
			"-0.001": 37.5501403916,
			"0.0": 34.8186536337,
			"0.001": 28.741305521,
			"0.002": 23.1444954319,
			"0.003": 17.2814940326,
			"0.004": 12.5537485439,
			"0.005": 7.78376510889,
			"0.006": 7.07080531952,
			"0.007": 5.96097122166,
			"0.008": 6.21642208259,
			"0.009": 5.12769130959,
			"0.01": 5.87779675807,
			"0.011": 5.14808602704,
			"0.012": 6.27813325952,
			"0.013": 4.80370438874,
			"0.014": 3.15685028271,
			"0.015": 0.854789000899,
			"0.016": 0.239288831124,
			"0.017": 0.0,
			"0.018": 0.0,
			"0.019": 0.0,
			"0.02": 0.0,
			"0.021": 0.0,
			"0.022": 0.0,
			"0.023": 0.0,
			"0.024": 0.0,
			"0.025": 0.0
		}
	}
}
