{
	 "smiles": "FC1=CC(Br)=C(Cl)C(Br)=C1", 
	 "Tm": 359.15, 
	 "num_atms": 12, 
	 "gaussian": { 
		 "optdone": 1, 
		 "sigma_profile": "yes", 
		 "theory": "DFT", 
		 "functional": "B3LYP", 
		 "basiset": "6-31G**", 
		 "properties": { 
			 "R2extent": 4294.6439, 
			 "electric_dipole_moment_norm": 1.16755956165, 
			 "electric_quadrupole_moment_norm": 4.02417984315, 
			 "total_energy": -5932.66428923, 
			 "HOMO_LUMO_gap": 0.21171, 
			 "cosmo_polarized_energy": -3.66, 
			 "cosmo_cavitation_energy": 23.36, 
			 "cosmo_dispersion_energy": -18.16, 
			 "cosmo_repulsion_energy": 1.44, 
			 "cosmo_total_nonelectrostatic_energy": 6.64, 
			 "SMD_solvation_energy": 2.16 
		},
		"coords": [
			{
				"x": -0.7775736996,
				"y": 1.9837117186,
				"z": 1.4304770093,
				"element": "F" 
			},
			{
				"x": -0.345150178,
				"y": 1.0811982677,
				"z": 0.5344869268,
				"element": "C" 
			},
			{
				"x": -1.059015436,
				"y": 0.9092230219,
				"z": -0.6429254436,
				"element": "C" 
			},
			{
				"x": -0.6046525851,
				"y": -0.0289343302,
				"z": -1.568051646,
				"element": "C" 
			},
			{
				"x": -1.6049362117,
				"y": -0.2396473331,
				"z": -3.1686134131,
				"element": "Br" 
			},
			{
				"x": 0.5514806066,
				"y": -0.790195629,
				"z": -1.3232746375,
				"element": "C" 
			},
			{
				"x": 1.1105858873,
				"y": -1.957258364,
				"z": -2.4817848418,
				"element": "Cl" 
			},
			{
				"x": 1.2437504814,
				"y": -0.5833996517,
				"z": -0.1174246922,
				"element": "C" 
			},
			{
				"x": 2.814879452,
				"y": -1.5652608177,
				"z": 0.2998260378,
				"element": "Br" 
			},
			{
				"x": 0.8007830686,
				"y": 0.3513205806,
				"z": 0.8166557777,
				"element": "C" 
			},
			{
				"x": -1.9493609493,
				"y": 1.4945979114,
				"z": -0.8327410959,
				"element": "H" 
			},
			{
				"x": 1.3348095638,
				"y": 0.5094446256,
				"z": 1.7446700184,
				"element": "H" 
			}
		],
		 "valence_orbital": [ 
			{
				"type": "occ",
				"energy": -0.30922,
				"method": "rhf"
			},
			{
				"type": "occ",
				"energy": -0.30819,
				"method": "rhf"
			},
			{
				"type": "occ",
				"energy": -0.29074,
				"method": "rhf"
			},
			{
				"type": "occ",
				"energy": -0.26319,
				"method": "rhf"
			},
			{
				"type": "occ",
				"energy": -0.25743,
				"method": "rhf"
			},
			{
				"type": "unocc",
				"energy": -0.04572,
				"method": "rhf"
			},
			{
				"type": "unocc",
				"energy": -0.04417,
				"method": "rhf"
			},
			{
				"type": "unocc",
				"energy": -0.03348,
				"method": "rhf"
			},
			{
				"type": "unocc",
				"energy": 0.01349,
				"method": "rhf"
			},
			{
				"type": "unocc",
				"energy": 0.04649,
				"method": "rhf"
			}
		],
		"cosmo_sigma_profile": { 
			"-0.025": 0.0,
			"-0.024": 0.0,
			"-0.023": 0.0,
			"-0.022": 0.0,
			"-0.021": 0.0,
			"-0.02": 0.0,
			"-0.019": 0.0,
			"-0.018": 0.0,
			"-0.017": 0.0,
			"-0.016": 0.0,
			"-0.015": 0.0,
			"-0.014": 0.0,
			"-0.013": 0.0,
			"-0.012": 0.0,
			"-0.011": 0.0,
			"-0.01": 0.479563107537,
			"-0.009": 2.88118242429,
			"-0.008": 2.64834521155,
			"-0.007": 3.13142240417,
			"-0.006": 4.08578393353,
			"-0.005": 6.71028163321,
			"-0.004": 6.29968280972,
			"-0.003": 9.34132250977,
			"-0.002": 14.8352057964,
			"-0.001": 30.7776124505,
			"0.0": 26.4874505004,
			"0.001": 14.5857835899,
			"0.002": 19.2708337878,
			"0.003": 34.1062072819,
			"0.004": 19.2215793564,
			"0.005": 2.58067902396,
			"0.006": 0.0,
			"0.007": 0.0,
			"0.008": 0.0,
			"0.009": 0.0,
			"0.01": 0.0,
			"0.011": 0.0,
			"0.012": 0.0,
			"0.013": 0.0,
			"0.014": 0.0,
			"0.015": 0.0,
			"0.016": 0.0,
			"0.017": 0.0,
			"0.018": 0.0,
			"0.019": 0.0,
			"0.02": 0.0,
			"0.021": 0.0,
			"0.022": 0.0,
			"0.023": 0.0,
			"0.024": 0.0,
			"0.025": 0.0
		}
	}
}
