{
	 "smiles": "CC(=O)NC1=C(NC(C)=O)C=C(Cl)C(Cl)=C1", 
	 "Tm": 529.15, 
	 "num_atms": 26, 
	 "gaussian": { 
		 "optdone": 1, 
		 "sigma_profile": "yes", 
		 "theory": "DFT", 
		 "functional": "B3LYP", 
		 "basiset": "6-31G**", 
		 "properties": { 
			 "R2extent": 5641.0234, 
			 "electric_dipole_moment_norm": 2.41370358785, 
			 "electric_quadrupole_moment_norm": 15.925610436, 
			 "total_energy": -1567.45361761, 
			 "HOMO_LUMO_gap": 0.1906, 
			 "cosmo_polarized_energy": -19.11, 
			 "cosmo_cavitation_energy": 34.32, 
			 "cosmo_dispersion_energy": -24.09, 
			 "cosmo_repulsion_energy": 1.92, 
			 "cosmo_total_nonelectrostatic_energy": 12.14, 
			 "SMD_solvation_energy": 7.4 
		},
		"coords": [
			{
				"x": -2.0401901316,
				"y": 2.9475017734,
				"z": 0.2351753698,
				"element": "C" 
			},
			{
				"x": -2.0813998683,
				"y": 1.7274580025,
				"z": 1.1344450894,
				"element": "C" 
			},
			{
				"x": -2.9589113225,
				"y": 1.5569011836,
				"z": 1.9637895051,
				"element": "O" 
			},
			{
				"x": -1.0965899088,
				"y": 0.7540012296,
				"z": 0.982036085,
				"element": "N" 
			},
			{
				"x": 0.0673119399,
				"y": 0.722510336,
				"z": 0.1913691748,
				"element": "C" 
			},
			{
				"x": 0.4212136403,
				"y": -0.4929194534,
				"z": -0.4467252917,
				"element": "C" 
			},
			{
				"x": -0.4413871407,
				"y": -1.5973705357,
				"z": -0.3172886934,
				"element": "N" 
			},
			{
				"x": -0.181391932,
				"y": -2.9547488634,
				"z": -0.1423300954,
				"element": "C" 
			},
			{
				"x": 1.2515262011,
				"y": -3.3951031592,
				"z": 0.0849134895,
				"element": "C" 
			},
			{
				"x": -1.1129596367,
				"y": -3.741559117,
				"z": -0.1495224494,
				"element": "O" 
			},
			{
				"x": 1.5822794212,
				"y": -0.5412444335,
				"z": -1.2213694857,
				"element": "C" 
			},
			{
				"x": 2.4117705505,
				"y": 0.5730523248,
				"z": -1.352189134,
				"element": "C" 
			},
			{
				"x": 3.8441924344,
				"y": 0.4370609214,
				"z": -2.3384553859,
				"element": "Cl" 
			},
			{
				"x": 2.0675696278,
				"y": 1.7697360044,
				"z": -0.7145529118,
				"element": "C" 
			},
			{
				"x": 3.0680407063,
				"y": 3.1938840723,
				"z": -0.8324301532,
				"element": "Cl" 
			},
			{
				"x": 0.9071247766,
				"y": 1.8303418623,
				"z": 0.0577897079,
				"element": "C" 
			},
			{
				"x": -3.0685320334,
				"y": 3.2867896389,
				"z": 0.1045221038,
				"element": "H" 
			},
			{
				"x": -1.485475012,
				"y": 3.7561206269,
				"z": 0.7229606101,
				"element": "H" 
			},
			{
				"x": -1.5814281879,
				"y": 2.7552033163,
				"z": -0.7368222898,
				"element": "H" 
			},
			{
				"x": -1.2719982947,
				"y": -0.0554866261,
				"z": 1.5679913337,
				"element": "H" 
			},
			{
				"x": -1.4366239544,
				"y": -1.4072759137,
				"z": -0.3696897577,
				"element": "H" 
			},
			{
				"x": 1.8682120914,
				"y": -2.6343824274,
				"z": 0.5678192937,
				"element": "H" 
			},
			{
				"x": 1.7190388571,
				"y": -3.6618008348,
				"z": -0.8689332139,
				"element": "H" 
			},
			{
				"x": 1.2185606554,
				"y": -4.2966031124,
				"z": 0.6980099309,
				"element": "H" 
			},
			{
				"x": 1.8338108818,
				"y": -1.4444901356,
				"z": -1.7616903454,
				"element": "H" 
			},
			{
				"x": 0.6804356393,
				"y": 2.7467233196,
				"z": 0.5868775135,
				"element": "H" 
			}
		],
		 "valence_orbital": [ 
			{
				"type": "occ",
				"energy": -0.29881,
				"method": "rhf"
			},
			{
				"type": "occ",
				"energy": -0.26997,
				"method": "rhf"
			},
			{
				"type": "occ",
				"energy": -0.26942,
				"method": "rhf"
			},
			{
				"type": "occ",
				"energy": -0.26443,
				"method": "rhf"
			},
			{
				"type": "occ",
				"energy": -0.23856,
				"method": "rhf"
			},
			{
				"type": "unocc",
				"energy": -0.04796,
				"method": "rhf"
			},
			{
				"type": "unocc",
				"energy": -0.04525,
				"method": "rhf"
			},
			{
				"type": "unocc",
				"energy": -0.0126,
				"method": "rhf"
			},
			{
				"type": "unocc",
				"energy": 0.01104,
				"method": "rhf"
			},
			{
				"type": "unocc",
				"energy": 0.01288,
				"method": "rhf"
			}
		],
		"cosmo_sigma_profile": { 
			"-0.025": 0.0,
			"-0.024": 0.0,
			"-0.023": 0.0,
			"-0.022": 0.0,
			"-0.021": 0.0,
			"-0.02": 0.0,
			"-0.019": 0.0,
			"-0.018": 0.0,
			"-0.017": 0.0,
			"-0.016": 0.0,
			"-0.015": 0.0,
			"-0.014": 0.557403295088,
			"-0.013": 2.35389204298,
			"-0.012": 2.77420905853,
			"-0.011": 1.95947431508,
			"-0.01": 2.82516300086,
			"-0.009": 6.25299535033,
			"-0.008": 6.68480573758,
			"-0.007": 6.5200865954,
			"-0.006": 10.277916574,
			"-0.005": 15.4334489409,
			"-0.004": 18.3754333945,
			"-0.003": 22.2085377293,
			"-0.002": 22.8768409809,
			"-0.001": 20.7301984119,
			"0.0": 25.6147524447,
			"0.001": 20.8401614801,
			"0.002": 13.1455711988,
			"0.003": 16.6694380188,
			"0.004": 17.8204187164,
			"0.005": 5.97298304534,
			"0.006": 2.18350101493,
			"0.007": 2.96171629568,
			"0.008": 2.16301633822,
			"0.009": 2.75820631532,
			"0.01": 2.2122478374,
			"0.011": 4.54749245356,
			"0.012": 6.06718699496,
			"0.013": 10.8168577322,
			"0.014": 4.00663947668,
			"0.015": 0.136444611385,
			"0.016": 0.0,
			"0.017": 0.0,
			"0.018": 0.0,
			"0.019": 0.0,
			"0.02": 0.0,
			"0.021": 0.0,
			"0.022": 0.0,
			"0.023": 0.0,
			"0.024": 0.0,
			"0.025": 0.0
		}
	}
}
