{
	 "smiles": "CC(=O)C1=CC=CN1", 
	 "Tm": 363.15, 
	 "num_atms": 15, 
	 "gaussian": { 
		 "optdone": 1, 
		 "sigma_profile": "yes", 
		 "theory": "DFT", 
		 "functional": "B3LYP", 
		 "basiset": "6-31G**", 
		 "properties": { 
			 "R2extent": 1289.6567, 
			 "electric_dipole_moment_norm": 2.00501560094, 
			 "electric_quadrupole_moment_norm": 12.2936600409, 
			 "total_energy": -362.831451446, 
			 "HOMO_LUMO_gap": 0.18609, 
			 "cosmo_polarized_energy": -8.77, 
			 "cosmo_cavitation_energy": 19.09, 
			 "cosmo_dispersion_energy": -14.11, 
			 "cosmo_repulsion_energy": 1.17, 
			 "cosmo_total_nonelectrostatic_energy": 6.15, 
			 "SMD_solvation_energy": 4.32 
		},
		"coords": [
			{
				"x": 1.3498105826,
				"y": -2.2279142172,
				"z": 1.0555159837,
				"element": "C" 
			},
			{
				"x": 0.8856222834,
				"y": -2.0448141659,
				"z": -0.3767676513,
				"element": "C" 
			},
			{
				"x": 0.8023453751,
				"y": -2.9912719685,
				"z": -1.1579578437,
				"element": "O" 
			},
			{
				"x": 0.5323983771,
				"y": -0.6980446412,
				"z": -0.8195086413,
				"element": "C" 
			},
			{
				"x": 0.5138710297,
				"y": 0.5546107486,
				"z": -0.2093366405,
				"element": "C" 
			},
			{
				"x": 0.0699215472,
				"y": 1.4896671823,
				"z": -1.1715083014,
				"element": "C" 
			},
			{
				"x": -0.1720549588,
				"y": 0.7881154944,
				"z": -2.3461783624,
				"element": "C" 
			},
			{
				"x": 0.1095667941,
				"y": -0.522026761,
				"z": -2.1191886616,
				"element": "N" 
			},
			{
				"x": 1.5724287848,
				"y": -3.2818415334,
				"z": 1.2255103223,
				"element": "H" 
			},
			{
				"x": 0.5764084455,
				"y": -1.8987289465,
				"z": 1.7580546101,
				"element": "H" 
			},
			{
				"x": 2.2451114304,
				"y": -1.6279396501,
				"z": 1.2518299453,
				"element": "H" 
			},
			{
				"x": 0.7906890343,
				"y": 0.7624853832,
				"z": 0.8148144193,
				"element": "H" 
			},
			{
				"x": -0.0612619111,
				"y": 2.5535724852,
				"z": -1.0334991805,
				"element": "H" 
			},
			{
				"x": -0.5200349423,
				"y": 1.1324310222,
				"z": -3.3092614693,
				"element": "H" 
			},
			{
				"x": 0.0418781279,
				"y": -1.3005004321,
				"z": -2.7594185289,
				"element": "H" 
			}
		],
		 "valence_orbital": [ 
			{
				"type": "occ",
				"energy": -0.38232,
				"method": "rhf"
			},
			{
				"type": "occ",
				"energy": -0.34795,
				"method": "rhf"
			},
			{
				"type": "occ",
				"energy": -0.25479,
				"method": "rhf"
			},
			{
				"type": "occ",
				"energy": -0.24663,
				"method": "rhf"
			},
			{
				"type": "occ",
				"energy": -0.22348,
				"method": "rhf"
			},
			{
				"type": "unocc",
				"energy": -0.03739,
				"method": "rhf"
			},
			{
				"type": "unocc",
				"energy": 0.05502,
				"method": "rhf"
			},
			{
				"type": "unocc",
				"energy": 0.08888,
				"method": "rhf"
			},
			{
				"type": "unocc",
				"energy": 0.10491,
				"method": "rhf"
			},
			{
				"type": "unocc",
				"energy": 0.11495,
				"method": "rhf"
			}
		],
		"cosmo_sigma_profile": { 
			"-0.025": 0.0,
			"-0.024": 0.0,
			"-0.023": 0.0,
			"-0.022": 0.0,
			"-0.021": 0.0,
			"-0.02": 0.0,
			"-0.019": 0.0,
			"-0.018": 0.0,
			"-0.017": 0.0,
			"-0.016": 0.0,
			"-0.015": 0.383877672914,
			"-0.014": 1.0636866506,
			"-0.013": 0.759651406137,
			"-0.012": 0.657736546397,
			"-0.011": 1.05101554555,
			"-0.01": 1.04487714063,
			"-0.009": 1.11555391767,
			"-0.008": 3.63356017731,
			"-0.007": 2.74699360414,
			"-0.006": 6.78968378622,
			"-0.005": 11.4042927036,
			"-0.004": 12.6692892277,
			"-0.003": 12.1562863971,
			"-0.002": 10.8541131998,
			"-0.001": 13.9087851501,
			"0.0": 9.59844912903,
			"0.001": 8.22390495833,
			"0.002": 7.46061016984,
			"0.003": 7.01933145718,
			"0.004": 7.73503178574,
			"0.005": 7.04343683364,
			"0.006": 6.87202117287,
			"0.007": 3.84934484194,
			"0.008": 0.837865169961,
			"0.009": 1.49367381583,
			"0.01": 2.22001282663,
			"0.011": 1.63864421566,
			"0.012": 3.22620884286,
			"0.013": 3.11888627191,
			"0.014": 1.35586932525,
			"0.015": 0.108983720376,
			"0.016": 0.0,
			"0.017": 0.0,
			"0.018": 0.0,
			"0.019": 0.0,
			"0.02": 0.0,
			"0.021": 0.0,
			"0.022": 0.0,
			"0.023": 0.0,
			"0.024": 0.0,
			"0.025": 0.0
		}
	}
}
