{
	 "smiles": "CC1=CC=C(C=C1)S(=O)(=O)OCCC1=COC2=CC=CC=C12", 
	 "Tm": 334.65, 
	 "num_atms": 38, 
	 "gaussian": { 
		 "optdone": 1, 
		 "sigma_profile": "yes", 
		 "theory": "DFT", 
		 "functional": "B3LYP", 
		 "basiset": "6-31G**", 
		 "properties": { 
			 "R2extent": 11989.777, 
			 "electric_dipole_moment_norm": 4.41719674567, 
			 "electric_quadrupole_moment_norm": 20.6181018493, 
			 "total_energy": -1356.463966, 
			 "HOMO_LUMO_gap": 0.17774, 
			 "cosmo_polarized_energy": -14.17, 
			 "cosmo_cavitation_energy": 44.07, 
			 "cosmo_dispersion_energy": -31.61, 
			 "cosmo_repulsion_energy": 2.35, 
			 "cosmo_total_nonelectrostatic_energy": 14.81, 
			 "SMD_solvation_energy": 6.98 
		},
		"coords": [
			{
				"x": 4.208234794,
				"y": -4.3917319221,
				"z": 4.2919776457,
				"element": "C" 
			},
			{
				"x": 3.7279600008,
				"y": -3.5351726384,
				"z": 3.1456297905,
				"element": "C" 
			},
			{
				"x": 2.8909033008,
				"y": -4.0699383801,
				"z": 2.1543836549,
				"element": "C" 
			},
			{
				"x": 2.4656914219,
				"y": -3.2976529401,
				"z": 1.076788912,
				"element": "C" 
			},
			{
				"x": 2.8831991086,
				"y": -1.9681808726,
				"z": 0.9945161076,
				"element": "C" 
			},
			{
				"x": 3.7195217918,
				"y": -1.4078745586,
				"z": 1.9603390834,
				"element": "C" 
			},
			{
				"x": 4.1326391953,
				"y": -2.1973803175,
				"z": 3.0314143406,
				"element": "C" 
			},
			{
				"x": 2.3495216695,
				"y": -0.9701691404,
				"z": -0.3796822341,
				"element": "S" 
			},
			{
				"x": 2.016393184,
				"y": -1.8235506042,
				"z": -1.5225033077,
				"element": "O" 
			},
			{
				"x": 3.2720644781,
				"y": 0.1525510216,
				"z": -0.550122239,
				"element": "O" 
			},
			{
				"x": 0.9444041942,
				"y": -0.4152108717,
				"z": 0.2735554976,
				"element": "O" 
			},
			{
				"x": -0.0443309483,
				"y": 0.1103343328,
				"z": -0.6554586389,
				"element": "C" 
			},
			{
				"x": 0.2609478048,
				"y": 1.5554337713,
				"z": -1.0708583126,
				"element": "C" 
			},
			{
				"x": -0.8594735974,
				"y": 2.137268442,
				"z": -1.8829348339,
				"element": "C" 
			},
			{
				"x": -0.8906705198,
				"y": 2.3187342883,
				"z": -3.229640214,
				"element": "C" 
			},
			{
				"x": -2.0776080258,
				"y": 2.8503940295,
				"z": -3.6698542366,
				"element": "O" 
			},
			{
				"x": -2.8515116999,
				"y": 3.0182347836,
				"z": -2.5532781675,
				"element": "C" 
			},
			{
				"x": -4.1411095024,
				"y": 3.5356495282,
				"z": -2.5225390879,
				"element": "C" 
			},
			{
				"x": -4.7449198581,
				"y": 3.6244864167,
				"z": -1.2687785409,
				"element": "C" 
			},
			{
				"x": -4.0725328411,
				"y": 3.2119220468,
				"z": -0.1028204071,
				"element": "C" 
			},
			{
				"x": -2.7800881073,
				"y": 2.6965501676,
				"z": -0.1566889716,
				"element": "C" 
			},
			{
				"x": -2.1528797712,
				"y": 2.5932055347,
				"z": -1.4082390512,
				"element": "C" 
			},
			{
				"x": 5.1314815715,
				"y": -4.9201878767,
				"z": 4.0238103721,
				"element": "H" 
			},
			{
				"x": 3.4673815089,
				"y": -5.1492858769,
				"z": 4.5635015999,
				"element": "H" 
			},
			{
				"x": 4.4232275095,
				"y": -3.789647236,
				"z": 5.1792689258,
				"element": "H" 
			},
			{
				"x": 2.5705944673,
				"y": -5.1058108213,
				"z": 2.2266743498,
				"element": "H" 
			},
			{
				"x": 1.8287241346,
				"y": -3.7149094298,
				"z": 0.3046135685,
				"element": "H" 
			},
			{
				"x": 4.0420913821,
				"y": -0.377111786,
				"z": 1.8642827298,
				"element": "H" 
			},
			{
				"x": 4.7824635856,
				"y": -1.7685370159,
				"z": 3.7894217698,
				"element": "H" 
			},
			{
				"x": -0.1097369811,
				"y": -0.5499280237,
				"z": -1.5248202227,
				"element": "H" 
			},
			{
				"x": -0.9829058116,
				"y": 0.048978166,
				"z": -0.1000205194,
				"element": "H" 
			},
			{
				"x": 0.4245171712,
				"y": 2.1500050508,
				"z": -0.1644228215,
				"element": "H" 
			},
			{
				"x": 1.196387041,
				"y": 1.5818743038,
				"z": -1.6371263376,
				"element": "H" 
			},
			{
				"x": -0.1571062913,
				"y": 2.1286446858,
				"z": -3.9995312205,
				"element": "H" 
			},
			{
				"x": -4.6432524771,
				"y": 3.8522182208,
				"z": -3.4302505367,
				"element": "H" 
			},
			{
				"x": -5.752427556,
				"y": 4.0217298378,
				"z": -1.1907470341,
				"element": "H" 
			},
			{
				"x": -4.5738651708,
				"y": 3.2996574504,
				"z": 0.8565095359,
				"element": "H" 
			},
			{
				"x": -2.2708301563,
				"y": 2.3870082336,
				"z": 0.7516290517,
				"element": "H" 
			}
		],
		 "valence_orbital": [ 
			{
				"type": "occ",
				"energy": -0.28271,
				"method": "rhf"
			},
			{
				"type": "occ",
				"energy": -0.27192,
				"method": "rhf"
			},
			{
				"type": "occ",
				"energy": -0.26548,
				"method": "rhf"
			},
			{
				"type": "occ",
				"energy": -0.23774,
				"method": "rhf"
			},
			{
				"type": "occ",
				"energy": -0.21936,
				"method": "rhf"
			},
			{
				"type": "unocc",
				"energy": -0.04162,
				"method": "rhf"
			},
			{
				"type": "unocc",
				"energy": -0.02228,
				"method": "rhf"
			},
			{
				"type": "unocc",
				"energy": -0.01934,
				"method": "rhf"
			},
			{
				"type": "unocc",
				"energy": 0.01253,
				"method": "rhf"
			},
			{
				"type": "unocc",
				"energy": 0.04538,
				"method": "rhf"
			}
		],
		"cosmo_sigma_profile": { 
			"-0.025": 0.0,
			"-0.024": 0.0,
			"-0.023": 0.0,
			"-0.022": 0.0,
			"-0.021": 0.0,
			"-0.02": 0.0,
			"-0.019": 0.0,
			"-0.018": 0.0,
			"-0.017": 0.0,
			"-0.016": 0.0,
			"-0.015": 0.0,
			"-0.014": 0.0,
			"-0.013": 0.0,
			"-0.012": 0.0,
			"-0.011": 0.0,
			"-0.01": 0.0988507913348,
			"-0.009": 1.66008746587,
			"-0.008": 2.12327385887,
			"-0.007": 8.0001502672,
			"-0.006": 21.6291453122,
			"-0.005": 31.1533067376,
			"-0.004": 30.6049155813,
			"-0.003": 26.9677210982,
			"-0.002": 24.5786607746,
			"-0.001": 28.161786129,
			"0.0": 22.0697311783,
			"0.001": 22.8125287575,
			"0.002": 30.5471487008,
			"0.003": 28.2632243207,
			"0.004": 16.6558183504,
			"0.005": 14.5104479872,
			"0.006": 9.92991733465,
			"0.007": 6.32742473814,
			"0.008": 6.52321264258,
			"0.009": 6.87181705328,
			"0.01": 8.88903247193,
			"0.011": 3.62580164007,
			"0.012": 0.041969050305,
			"0.013": 0.0,
			"0.014": 0.0,
			"0.015": 0.0,
			"0.016": 0.0,
			"0.017": 0.0,
			"0.018": 0.0,
			"0.019": 0.0,
			"0.02": 0.0,
			"0.021": 0.0,
			"0.022": 0.0,
			"0.023": 0.0,
			"0.024": 0.0,
			"0.025": 0.0
		}
	}
}
