{
	 "smiles": "OC(=O)C1=CC2=C(ON=C2C=C1)C1=CC=CC=C1", 
	 "Tm": 516.15, 
	 "num_atms": 27, 
	 "gaussian": { 
		 "optdone": 1, 
		 "sigma_profile": "yes", 
		 "theory": "DFT", 
		 "functional": "B3LYP", 
		 "basiset": "6-31G**", 
		 "properties": { 
			 "R2extent": 5820.7014, 
			 "electric_dipole_moment_norm": 5.23701291673, 
			 "electric_quadrupole_moment_norm": 14.7020278016, 
			 "total_energy": -819.293043741, 
			 "HOMO_LUMO_gap": 0.13607, 
			 "cosmo_polarized_energy": -18.67, 
			 "cosmo_cavitation_energy": 32.46, 
			 "cosmo_dispersion_energy": -23.78, 
			 "cosmo_repulsion_energy": 1.79, 
			 "cosmo_total_nonelectrostatic_energy": 10.47, 
			 "SMD_solvation_energy": 5.98 
		},
		"coords": [
			{
				"x": -2.831083858,
				"y": 1.3229542978,
				"z": -2.252864573,
				"element": "O" 
			},
			{
				"x": -1.8598540751,
				"y": 2.1660220173,
				"z": -2.6995713347,
				"element": "C" 
			},
			{
				"x": -1.9766864646,
				"y": 2.7082495175,
				"z": -3.7734671806,
				"element": "O" 
			},
			{
				"x": -0.6722453677,
				"y": 2.362554892,
				"z": -1.8090568218,
				"element": "C" 
			},
			{
				"x": -0.2950755996,
				"y": 1.4291419354,
				"z": -0.8671874476,
				"element": "C" 
			},
			{
				"x": 0.8657624965,
				"y": 1.6802365234,
				"z": -0.0915524237,
				"element": "C" 
			},
			{
				"x": 1.5466019671,
				"y": 1.0336443405,
				"z": 0.9361236499,
				"element": "C" 
			},
			{
				"x": 2.5672404841,
				"y": 1.8220283968,
				"z": 1.31906271,
				"element": "O" 
			},
			{
				"x": 2.6226466606,
				"y": 3.0019189811,
				"z": 0.5724777013,
				"element": "N" 
			},
			{
				"x": 1.6026880164,
				"y": 2.9031967572,
				"z": -0.2698812847,
				"element": "C" 
			},
			{
				"x": 1.2091218268,
				"y": 3.8462165395,
				"z": -1.2693960081,
				"element": "C" 
			},
			{
				"x": 0.106847897,
				"y": 3.5563193373,
				"z": -2.0208426213,
				"element": "C" 
			},
			{
				"x": 1.3722709174,
				"y": -0.2281003212,
				"z": 1.6453001025,
				"element": "C" 
			},
			{
				"x": 1.8860882383,
				"y": -0.3860870552,
				"z": 2.9460030028,
				"element": "C" 
			},
			{
				"x": 1.7129732507,
				"y": -1.5877468468,
				"z": 3.6263655877,
				"element": "C" 
			},
			{
				"x": 1.0283629294,
				"y": -2.6471039873,
				"z": 3.0247029046,
				"element": "C" 
			},
			{
				"x": 0.5247951723,
				"y": -2.5020951292,
				"z": 1.7300982606,
				"element": "C" 
			},
			{
				"x": 0.6973559464,
				"y": -1.3041540812,
				"z": 1.0410364412,
				"element": "C" 
			},
			{
				"x": -2.7007942323,
				"y": 1.1372951253,
				"z": -1.3127157492,
				"element": "H" 
			},
			{
				"x": -0.8525624931,
				"y": 0.5078417873,
				"z": -0.7300324584,
				"element": "H" 
			},
			{
				"x": 1.7821773031,
				"y": 4.7551330271,
				"z": -1.4147956484,
				"element": "H" 
			},
			{
				"x": -0.2267567929,
				"y": 4.2273611714,
				"z": -2.8046117473,
				"element": "H" 
			},
			{
				"x": 2.4107800858,
				"y": 0.4397577213,
				"z": 3.4139220451,
				"element": "H" 
			},
			{
				"x": 2.1102287287,
				"y": -1.6970896981,
				"z": 4.6309780758,
				"element": "H" 
			},
			{
				"x": 0.893841405,
				"y": -3.5825630532,
				"z": 3.5593528889,
				"element": "H" 
			},
			{
				"x": 0.0074228133,
				"y": -3.3276022634,
				"z": 1.2506233131,
				"element": "H" 
			},
			{
				"x": 0.3423527442,
				"y": -1.2164299325,
				"z": 0.0197286154,
				"element": "H" 
			}
		],
		 "valence_orbital": [ 
			{
				"type": "occ",
				"energy": -0.29267,
				"method": "rhf"
			},
			{
				"type": "occ",
				"energy": -0.28051,
				"method": "rhf"
			},
			{
				"type": "occ",
				"energy": -0.27633,
				"method": "rhf"
			},
			{
				"type": "occ",
				"energy": -0.27524,
				"method": "rhf"
			},
			{
				"type": "occ",
				"energy": -0.22834,
				"method": "rhf"
			},
			{
				"type": "unocc",
				"energy": -0.09227,
				"method": "rhf"
			},
			{
				"type": "unocc",
				"energy": -0.03432,
				"method": "rhf"
			},
			{
				"type": "unocc",
				"energy": -0.02918,
				"method": "rhf"
			},
			{
				"type": "unocc",
				"energy": -0.02466,
				"method": "rhf"
			},
			{
				"type": "unocc",
				"energy": 0.03495,
				"method": "rhf"
			}
		],
		"cosmo_sigma_profile": { 
			"-0.025": 0.0,
			"-0.024": 0.0,
			"-0.023": 0.0,
			"-0.022": 0.0,
			"-0.021": 0.0,
			"-0.02": 0.0,
			"-0.019": 0.424764736646,
			"-0.018": 0.992913708526,
			"-0.017": 1.0542680218,
			"-0.016": 1.43936843693,
			"-0.015": 0.804235056094,
			"-0.014": 0.607066747017,
			"-0.013": 0.903689487256,
			"-0.012": 1.79621860142,
			"-0.011": 1.21834969509,
			"-0.01": 1.55820850645,
			"-0.009": 2.26220319467,
			"-0.008": 3.6918216111,
			"-0.007": 8.20787627214,
			"-0.006": 15.6081041256,
			"-0.005": 17.4654893003,
			"-0.004": 15.2908386396,
			"-0.003": 14.4461370454,
			"-0.002": 16.8780806369,
			"-0.001": 18.2888291409,
			"0.0": 22.332617379,
			"0.001": 20.8916743033,
			"0.002": 18.4747244142,
			"0.003": 17.1760617348,
			"0.004": 12.8744276242,
			"0.005": 5.03724239569,
			"0.006": 5.28480663688,
			"0.007": 5.23654469546,
			"0.008": 4.68534998683,
			"0.009": 5.37845140043,
			"0.01": 6.12158497607,
			"0.011": 7.19791726103,
			"0.012": 5.301202431,
			"0.013": 2.44116469625,
			"0.014": 0.976530150128,
			"0.015": 0.0329477909759,
			"0.016": 0.0,
			"0.017": 0.0,
			"0.018": 0.0,
			"0.019": 0.0,
			"0.02": 0.0,
			"0.021": 0.0,
			"0.022": 0.0,
			"0.023": 0.0,
			"0.024": 0.0,
			"0.025": 0.0
		}
	}
}
