{
	 "smiles": "OC(=O)[C@@H]1CCCN1C(=O)C1=NC=CC=C1", 
	 "Tm": 439.15, 
	 "num_atms": 28, 
	 "gaussian": { 
		 "optdone": 1, 
		 "sigma_profile": "yes", 
		 "theory": "DFT", 
		 "functional": "B3LYP", 
		 "basiset": "6-31G**", 
		 "properties": { 
			 "R2extent": 3800.5922, 
			 "electric_dipole_moment_norm": 3.41841529806, 
			 "electric_quadrupole_moment_norm": 26.2652374212, 
			 "total_energy": -761.599083547, 
			 "HOMO_LUMO_gap": 0.18258, 
			 "cosmo_polarized_energy": -17.21, 
			 "cosmo_cavitation_energy": 31.06, 
			 "cosmo_dispersion_energy": -22.12, 
			 "cosmo_repulsion_energy": 1.7, 
			 "cosmo_total_nonelectrostatic_energy": 10.64, 
			 "SMD_solvation_energy": 6.59 
		},
		"coords": [
			{
				"x": 2.3204819569,
				"y": 0.1834031002,
				"z": 1.8636839598,
				"element": "O" 
			},
			{
				"x": 2.1951965137,
				"y": 0.49356229,
				"z": 0.5615028472,
				"element": "C" 
			},
			{
				"x": 3.0698117976,
				"y": 0.2708355167,
				"z": -0.2411612448,
				"element": "O" 
			},
			{
				"x": 0.9024158762,
				"y": 1.2269566768,
				"z": 0.1536388632,
				"element": "C" 
			},
			{
				"x": 1.2267803742,
				"y": 2.6721552216,
				"z": -0.2821224675,
				"element": "C" 
			},
			{
				"x": 1.1371905027,
				"y": 3.4569523771,
				"z": 1.0340693316,
				"element": "C" 
			},
			{
				"x": -0.0744228866,
				"y": 2.8259627156,
				"z": 1.7275940408,
				"element": "C" 
			},
			{
				"x": -0.0526085609,
				"y": 1.4112969006,
				"z": 1.2746232162,
				"element": "N" 
			},
			{
				"x": -1.2048907746,
				"y": 0.681743249,
				"z": 1.5054421099,
				"element": "C" 
			},
			{
				"x": -2.1377887994,
				"y": 1.1650945286,
				"z": 2.1416495556,
				"element": "O" 
			},
			{
				"x": -1.2831958954,
				"y": -0.7472704578,
				"z": 1.0255016419,
				"element": "C" 
			},
			{
				"x": -0.1541933435,
				"y": -1.3783085519,
				"z": 0.6729126885,
				"element": "N" 
			},
			{
				"x": -0.2400059793,
				"y": -2.6599944535,
				"z": 0.3017785785,
				"element": "C" 
			},
			{
				"x": -1.4454835642,
				"y": -3.362977465,
				"z": 0.2594051373,
				"element": "C" 
			},
			{
				"x": -2.6164024965,
				"y": -2.7000041142,
				"z": 0.6289391365,
				"element": "C" 
			},
			{
				"x": -2.537637958,
				"y": -1.3682918471,
				"z": 1.0272507154,
				"element": "C" 
			},
			{
				"x": 1.4623464593,
				"y": 0.371758987,
				"z": 2.2834081019,
				"element": "H" 
			},
			{
				"x": 0.4601266106,
				"y": 0.6470049687,
				"z": -0.6549395779,
				"element": "H" 
			},
			{
				"x": 0.4629875883,
				"y": 3.0202037283,
				"z": -0.9861738228,
				"element": "H" 
			},
			{
				"x": 2.1989865444,
				"y": 2.7257029194,
				"z": -0.7749246655,
				"element": "H" 
			},
			{
				"x": 1.0104935185,
				"y": 4.5325512332,
				"z": 0.8886301962,
				"element": "H" 
			},
			{
				"x": 2.0450978466,
				"y": 3.3042334833,
				"z": 1.6283662356,
				"element": "H" 
			},
			{
				"x": -0.0379726092,
				"y": 2.8766180401,
				"z": 2.8189234083,
				"element": "H" 
			},
			{
				"x": -1.0175785969,
				"y": 3.2875635064,
				"z": 1.4146227766,
				"element": "H" 
			},
			{
				"x": 0.6960815068,
				"y": -3.1421578774,
				"z": 0.0290248705,
				"element": "H" 
			},
			{
				"x": -1.4605826501,
				"y": -4.4021994608,
				"z": -0.0530056196,
				"element": "H" 
			},
			{
				"x": -3.5729311117,
				"y": -3.2139921478,
				"z": 0.6116278426,
				"element": "H" 
			},
			{
				"x": -3.4048018696,
				"y": -0.8024030671,
				"z": 1.3460321439,
				"element": "H" 
			}
		],
		 "valence_orbital": [ 
			{
				"type": "occ",
				"energy": -0.28965,
				"method": "rhf"
			},
			{
				"type": "occ",
				"energy": -0.28083,
				"method": "rhf"
			},
			{
				"type": "occ",
				"energy": -0.27699,
				"method": "rhf"
			},
			{
				"type": "occ",
				"energy": -0.26131,
				"method": "rhf"
			},
			{
				"type": "occ",
				"energy": -0.24512,
				"method": "rhf"
			},
			{
				"type": "unocc",
				"energy": -0.06254,
				"method": "rhf"
			},
			{
				"type": "unocc",
				"energy": -0.03688,
				"method": "rhf"
			},
			{
				"type": "unocc",
				"energy": 0.01812,
				"method": "rhf"
			},
			{
				"type": "unocc",
				"energy": 0.03951,
				"method": "rhf"
			},
			{
				"type": "unocc",
				"energy": 0.07196,
				"method": "rhf"
			}
		],
		"cosmo_sigma_profile": { 
			"-0.025": 0.0,
			"-0.024": 0.0,
			"-0.023": 0.0,
			"-0.022": 0.0,
			"-0.021": 0.0,
			"-0.02": 0.0,
			"-0.019": 0.0,
			"-0.018": 0.0,
			"-0.017": 0.0,
			"-0.016": 0.0,
			"-0.015": 0.171644795384,
			"-0.014": 0.443723965027,
			"-0.013": 0.410242957283,
			"-0.012": 0.766608490842,
			"-0.011": 1.22699348238,
			"-0.01": 1.11239461143,
			"-0.009": 1.46166557437,
			"-0.008": 3.02390237226,
			"-0.007": 11.1259425456,
			"-0.006": 13.296993125,
			"-0.005": 21.4452085682,
			"-0.004": 25.0691787972,
			"-0.003": 21.6901326104,
			"-0.002": 19.8933731366,
			"-0.001": 17.2050865568,
			"0.0": 14.0981037345,
			"0.001": 18.3764832106,
			"0.002": 13.2045795065,
			"0.003": 4.90847028436,
			"0.004": 4.63467018692,
			"0.005": 5.23229119202,
			"0.006": 4.32699799852,
			"0.007": 5.1324459234,
			"0.008": 4.41359527474,
			"0.009": 5.56763591234,
			"0.01": 6.09152663073,
			"0.011": 6.06756379856,
			"0.012": 8.58200568337,
			"0.013": 6.89601237059,
			"0.014": 0.502041267039,
			"0.015": 0.0,
			"0.016": 0.0,
			"0.017": 0.0,
			"0.018": 0.0,
			"0.019": 0.0,
			"0.02": 0.0,
			"0.021": 0.0,
			"0.022": 0.0,
			"0.023": 0.0,
			"0.024": 0.0,
			"0.025": 0.0
		}
	}
}
