{
	 "smiles": "ClCC(=O)NC1CCOCC1", 
	 "Tm": 356.15, 
	 "num_atms": 23, 
	 "gaussian": { 
		 "optdone": 1, 
		 "sigma_profile": "yes", 
		 "theory": "DFT", 
		 "functional": "B3LYP", 
		 "basiset": "6-31G**", 
		 "properties": { 
			 "R2extent": 3021.2573, 
			 "electric_dipole_moment_norm": 4.57381728866, 
			 "electric_quadrupole_moment_norm": 20.265917337, 
			 "total_energy": -939.368216366, 
			 "HOMO_LUMO_gap": 0.27114, 
			 "cosmo_polarized_energy": -17.74, 
			 "cosmo_cavitation_energy": 26.64, 
			 "cosmo_dispersion_energy": -19.74, 
			 "cosmo_repulsion_energy": 1.61, 
			 "cosmo_total_nonelectrostatic_energy": 8.51, 
			 "SMD_solvation_energy": 4.24 
		},
		"coords": [
			{
				"x": 0.0278477232,
				"y": -0.5255438138,
				"z": 4.6513684387,
				"element": "Cl" 
			},
			{
				"x": -0.0434029391,
				"y": 0.1000770112,
				"z": 2.9775293487,
				"element": "C" 
			},
			{
				"x": 0.7649967201,
				"y": -0.7627671436,
				"z": 1.9935742255,
				"element": "C" 
			},
			{
				"x": 1.4347385614,
				"y": -1.7198849753,
				"z": 2.3372843862,
				"element": "O" 
			},
			{
				"x": 0.7054405165,
				"y": -0.3530646183,
				"z": 0.6845638859,
				"element": "N" 
			},
			{
				"x": -0.1346635967,
				"y": 0.6819699008,
				"z": 0.0752285972,
				"element": "C" 
			},
			{
				"x": 0.5936810393,
				"y": 1.3148320318,
				"z": -1.1284617247,
				"element": "C" 
			},
			{
				"x": 0.6025295007,
				"y": 0.3750886688,
				"z": -2.339998189,
				"element": "C" 
			},
			{
				"x": -0.7098950636,
				"y": -0.0322262019,
				"z": -2.6959753228,
				"element": "O" 
			},
			{
				"x": -1.3535223718,
				"y": -0.7364698856,
				"z": -1.640394469,
				"element": "C" 
			},
			{
				"x": -1.5055611617,
				"y": 0.1391800917,
				"z": -0.3938452584,
				"element": "C" 
			},
			{
				"x": -1.0954350356,
				"y": 0.141408027,
				"z": 2.6876406396,
				"element": "H" 
			},
			{
				"x": 0.3479586404,
				"y": 1.1204434013,
				"z": 2.9920606766,
				"element": "H" 
			},
			{
				"x": 1.2337523135,
				"y": -0.9618968302,
				"z": 0.0725332989,
				"element": "H" 
			},
			{
				"x": -0.2947503975,
				"y": 1.4604143193,
				"z": 0.8270439755,
				"element": "H" 
			},
			{
				"x": 0.0640883143,
				"y": 2.2318765148,
				"z": -1.4093117864,
				"element": "H" 
			},
			{
				"x": 1.6163478107,
				"y": 1.5909795823,
				"z": -0.8487552932,
				"element": "H" 
			},
			{
				"x": 1.0185616681,
				"y": 0.8805094803,
				"z": -3.2160344216,
				"element": "H" 
			},
			{
				"x": 1.2341373559,
				"y": -0.5112164965,
				"z": -2.1468462682,
				"element": "H" 
			},
			{
				"x": -0.789581093,
				"y": -1.6530957835,
				"z": -1.3963421862,
				"element": "H" 
			},
			{
				"x": -2.3301692016,
				"y": -1.0412294819,
				"z": -2.0258525072,
				"element": "H" 
			},
			{
				"x": -1.9870134625,
				"y": -0.4313552178,
				"z": 0.408811285,
				"element": "H" 
			},
			{
				"x": -2.1569858409,
				"y": 0.987571419,
				"z": -0.6360213311,
				"element": "H" 
			}
		],
		 "valence_orbital": [ 
			{
				"type": "occ",
				"energy": -0.29767,
				"method": "rhf"
			},
			{
				"type": "occ",
				"energy": -0.29705,
				"method": "rhf"
			},
			{
				"type": "occ",
				"energy": -0.2678,
				"method": "rhf"
			},
			{
				"type": "occ",
				"energy": -0.26091,
				"method": "rhf"
			},
			{
				"type": "occ",
				"energy": -0.25731,
				"method": "rhf"
			},
			{
				"type": "unocc",
				"energy": 0.01383,
				"method": "rhf"
			},
			{
				"type": "unocc",
				"energy": 0.02126,
				"method": "rhf"
			},
			{
				"type": "unocc",
				"energy": 0.06471,
				"method": "rhf"
			},
			{
				"type": "unocc",
				"energy": 0.06718,
				"method": "rhf"
			},
			{
				"type": "unocc",
				"energy": 0.09055,
				"method": "rhf"
			}
		],
		"cosmo_sigma_profile": { 
			"-0.025": 0.0,
			"-0.024": 0.0,
			"-0.023": 0.0,
			"-0.022": 0.0,
			"-0.021": 0.0,
			"-0.02": 0.0,
			"-0.019": 0.0,
			"-0.018": 0.0,
			"-0.017": 0.0,
			"-0.016": 0.0,
			"-0.015": 0.0,
			"-0.014": 0.0,
			"-0.013": 0.106828856288,
			"-0.012": 0.713306626784,
			"-0.011": 1.45575129468,
			"-0.01": 2.05011893505,
			"-0.009": 5.1045057262,
			"-0.008": 9.1362413547,
			"-0.007": 6.85643984165,
			"-0.006": 6.73589019355,
			"-0.005": 11.9414493629,
			"-0.004": 23.6878700524,
			"-0.003": 22.213057574,
			"-0.002": 20.4556804385,
			"-0.001": 14.5512584315,
			"0.0": 8.75709807364,
			"0.001": 5.45048639092,
			"0.002": 7.56740026747,
			"0.003": 6.37606413376,
			"0.004": 6.22946633857,
			"0.005": 7.89720847374,
			"0.006": 9.43795268249,
			"0.007": 4.23802729002,
			"0.008": 3.58974218183,
			"0.009": 2.33971750384,
			"0.01": 2.4118062838,
			"0.011": 3.48042721607,
			"0.012": 4.48003022311,
			"0.013": 7.3805013915,
			"0.014": 4.59126710539,
			"0.015": 0.856959246577,
			"0.016": 0.0,
			"0.017": 0.0,
			"0.018": 0.0,
			"0.019": 0.0,
			"0.02": 0.0,
			"0.021": 0.0,
			"0.022": 0.0,
			"0.023": 0.0,
			"0.024": 0.0,
			"0.025": 0.0
		}
	}
}
