{
	 "smiles": "CNS(=O)(=O)C1=C(N)C=CC=C1", 
	 "Tm": 327.15, 
	 "num_atms": 22, 
	 "gaussian": { 
		 "optdone": 1, 
		 "sigma_profile": "yes", 
		 "theory": "DFT", 
		 "functional": "B3LYP", 
		 "basiset": "6-31G**", 
		 "properties": { 
			 "R2extent": 2379.6683, 
			 "electric_dipole_moment_norm": 5.45167377601, 
			 "electric_quadrupole_moment_norm": 15.4964268727, 
			 "total_energy": -930.847088737, 
			 "HOMO_LUMO_gap": 0.19434, 
			 "cosmo_polarized_energy": -15.71, 
			 "cosmo_cavitation_energy": 26.17, 
			 "cosmo_dispersion_energy": -19.79, 
			 "cosmo_repulsion_energy": 1.53, 
			 "cosmo_total_nonelectrostatic_energy": 7.91, 
			 "SMD_solvation_energy": 3.35 
		},
		"coords": [
			{
				"x": 1.8630532265,
				"y": -0.4802004196,
				"z": -1.4822134691,
				"element": "C" 
			},
			{
				"x": 0.5595492031,
				"y": -0.9381743603,
				"z": -1.9747088817,
				"element": "N" 
			},
			{
				"x": -0.7456432469,
				"y": 0.1108166676,
				"z": -1.8252383811,
				"element": "S" 
			},
			{
				"x": -1.8833397372,
				"y": -0.6069953708,
				"z": -2.4218588323,
				"element": "O" 
			},
			{
				"x": -0.3085239514,
				"y": 1.4119087357,
				"z": -2.3293998438,
				"element": "O" 
			},
			{
				"x": -1.0611267265,
				"y": 0.2667881211,
				"z": -0.0692786751,
				"element": "C" 
			},
			{
				"x": -1.5566555187,
				"y": -0.8412218745,
				"z": 0.6594781288,
				"element": "C" 
			},
			{
				"x": -1.8171308152,
				"y": -2.0590887228,
				"z": 0.0376747328,
				"element": "N" 
			},
			{
				"x": -1.7121578206,
				"y": -0.6828278401,
				"z": 2.0481219167,
				"element": "C" 
			},
			{
				"x": -1.403379731,
				"y": 0.5216424499,
				"z": 2.6724749052,
				"element": "C" 
			},
			{
				"x": -0.9337023317,
				"y": 1.6131761322,
				"z": 1.9363196325,
				"element": "C" 
			},
			{
				"x": -0.7611090247,
				"y": 1.4766785375,
				"z": 0.5613641538,
				"element": "C" 
			},
			{
				"x": 2.1034270249,
				"y": 0.4670558014,
				"z": -1.9664060179,
				"element": "H" 
			},
			{
				"x": 2.6115653144,
				"y": -1.2195162633,
				"z": -1.7771389186,
				"element": "H" 
			},
			{
				"x": 1.901171492,
				"y": -0.3486629006,
				"z": -0.3922029292,
				"element": "H" 
			},
			{
				"x": 0.2836704676,
				"y": -1.8577800939,
				"z": -1.6355586492,
				"element": "H" 
			},
			{
				"x": -2.3253033586,
				"y": -2.7182812901,
				"z": 0.6118042693,
				"element": "H" 
			},
			{
				"x": -2.199573159,
				"y": -1.9721681511,
				"z": -0.9001429621,
				"element": "H" 
			},
			{
				"x": -2.0890551411,
				"y": -1.5186625215,
				"z": 2.6324010655,
				"element": "H" 
			},
			{
				"x": -1.5410733897,
				"y": 0.6104091325,
				"z": 3.7464000829,
				"element": "H" 
			},
			{
				"x": -0.7042166998,
				"y": 2.5537090883,
				"z": 2.4257490827,
				"element": "H" 
			},
			{
				"x": -0.3972460765,
				"y": 2.2980951425,
				"z": -0.0463404099,
				"element": "H" 
			}
		],
		 "valence_orbital": [ 
			{
				"type": "occ",
				"energy": -0.30671,
				"method": "rhf"
			},
			{
				"type": "occ",
				"energy": -0.30249,
				"method": "rhf"
			},
			{
				"type": "occ",
				"energy": -0.28137,
				"method": "rhf"
			},
			{
				"type": "occ",
				"energy": -0.26268,
				"method": "rhf"
			},
			{
				"type": "occ",
				"energy": -0.22601,
				"method": "rhf"
			},
			{
				"type": "unocc",
				"energy": -0.03167,
				"method": "rhf"
			},
			{
				"type": "unocc",
				"energy": -0.0057,
				"method": "rhf"
			},
			{
				"type": "unocc",
				"energy": 0.06759,
				"method": "rhf"
			},
			{
				"type": "unocc",
				"energy": 0.07374,
				"method": "rhf"
			},
			{
				"type": "unocc",
				"energy": 0.08187,
				"method": "rhf"
			}
		],
		"cosmo_sigma_profile": { 
			"-0.025": 0.0,
			"-0.024": 0.0,
			"-0.023": 0.0,
			"-0.022": 0.0,
			"-0.021": 0.0,
			"-0.02": 0.0,
			"-0.019": 0.0,
			"-0.018": 0.0,
			"-0.017": 0.0,
			"-0.016": 0.0,
			"-0.015": 0.0,
			"-0.014": 0.12647402342,
			"-0.013": 1.68014957798,
			"-0.012": 2.32104560004,
			"-0.011": 2.6883287117,
			"-0.01": 2.91339414105,
			"-0.009": 2.89885888108,
			"-0.008": 4.06884627099,
			"-0.007": 5.36325075263,
			"-0.006": 11.8231314375,
			"-0.005": 14.0369575102,
			"-0.004": 16.3428332059,
			"-0.003": 15.6407104124,
			"-0.002": 15.523544065,
			"-0.001": 12.1170729188,
			"0.0": 9.89898318059,
			"0.001": 10.0472102693,
			"0.002": 10.9786196228,
			"0.003": 11.511318589,
			"0.004": 12.288883639,
			"0.005": 7.9488625442,
			"0.006": 3.94678752511,
			"0.007": 4.79107510962,
			"0.008": 5.22536683916,
			"0.009": 5.10618070345,
			"0.01": 6.63997666005,
			"0.011": 7.8318860736,
			"0.012": 4.0817374638,
			"0.013": 0.033566984732,
			"0.014": 0.0,
			"0.015": 0.0,
			"0.016": 0.0,
			"0.017": 0.0,
			"0.018": 0.0,
			"0.019": 0.0,
			"0.02": 0.0,
			"0.021": 0.0,
			"0.022": 0.0,
			"0.023": 0.0,
			"0.024": 0.0,
			"0.025": 0.0
		}
	}
}
