{
	 "smiles": "ClC1CS(=O)(=O)CC1SC1=CC=C(Cl)C=C1", 
	 "Tm": 356.65, 
	 "num_atms": 26, 
	 "gaussian": { 
		 "optdone": 1, 
		 "sigma_profile": "yes", 
		 "theory": "DFT", 
		 "functional": "B3LYP", 
		 "basiset": "6-31G**", 
		 "properties": { 
			 "R2extent": 7355.7513, 
			 "electric_dipole_moment_norm": 3.77034215689, 
			 "electric_quadrupole_moment_norm": 21.2961178084, 
			 "total_energy": -2254.22867315, 
			 "HOMO_LUMO_gap": 0.204, 
			 "cosmo_polarized_energy": -19.22, 
			 "cosmo_cavitation_energy": 35.96, 
			 "cosmo_dispersion_energy": -26.36, 
			 "cosmo_repulsion_energy": 1.98, 
			 "cosmo_total_nonelectrostatic_energy": 11.58, 
			 "SMD_solvation_energy": 3.81 
		},
		"coords": [
			{
				"x": 0.8748382816,
				"y": 4.1624430534,
				"z": 1.0267385288,
				"element": "Cl" 
			},
			{
				"x": 0.400608296,
				"y": 3.1320956252,
				"z": -0.4040293175,
				"element": "C" 
			},
			{
				"x": 1.5472482579,
				"y": 3.0693003223,
				"z": -1.4198133264,
				"element": "C" 
			},
			{
				"x": 2.5127438996,
				"y": 1.5350703988,
				"z": -1.0422230207,
				"element": "S" 
			},
			{
				"x": 3.8573234913,
				"y": 1.8714140949,
				"z": -0.5594744828,
				"element": "O" 
			},
			{
				"x": 2.3195437062,
				"y": 0.6033822173,
				"z": -2.1652449098,
				"element": "O" 
			},
			{
				"x": 1.427758349,
				"y": 1.0078949542,
				"z": 0.3392548215,
				"element": "C" 
			},
			{
				"x": 0.0927910587,
				"y": 1.6818942194,
				"z": 0.0248932982,
				"element": "C" 
			},
			{
				"x": -1.1555128662,
				"y": 1.5991014965,
				"z": 1.3829858192,
				"element": "S" 
			},
			{
				"x": -1.7575336736,
				"y": -0.0773201967,
				"z": 1.1477336529,
				"element": "C" 
			},
			{
				"x": -2.7042807478,
				"y": -0.3656676347,
				"z": 0.1548154645,
				"element": "C" 
			},
			{
				"x": -3.1964842389,
				"y": -1.6602949216,
				"z": -0.0005331242,
				"element": "C" 
			},
			{
				"x": -2.7480644264,
				"y": -2.6661894606,
				"z": 0.8571618246,
				"element": "C" 
			},
			{
				"x": -3.3704469184,
				"y": -4.2950721183,
				"z": 0.6719366709,
				"element": "Cl" 
			},
			{
				"x": -1.819072961,
				"y": -2.3972646715,
				"z": 1.8619172572,
				"element": "C" 
			},
			{
				"x": -1.3250658959,
				"y": -1.0999962151,
				"z": 2.0019303998,
				"element": "C" 
			},
			{
				"x": -0.4841673185,
				"y": 3.6139471823,
				"z": -0.8203200877,
				"element": "H" 
			},
			{
				"x": 2.2186041035,
				"y": 3.9264319254,
				"z": -1.37617037,
				"element": "H" 
			},
			{
				"x": 1.1668210657,
				"y": 2.9369637262,
				"z": -2.4355785731,
				"element": "H" 
			},
			{
				"x": 1.3832237591,
				"y": -0.0813976759,
				"z": 0.3304669921,
				"element": "H" 
			},
			{
				"x": 1.862676201,
				"y": 1.373417143,
				"z": 1.2710915755,
				"element": "H" 
			},
			{
				"x": -0.3573199122,
				"y": 1.1950860416,
				"z": -0.8477036515,
				"element": "H" 
			},
			{
				"x": -3.0643419058,
				"y": 0.4268347206,
				"z": -0.4938288375,
				"element": "H" 
			},
			{
				"x": -3.9267356216,
				"y": -1.8868707428,
				"z": -0.7693607902,
				"element": "H" 
			},
			{
				"x": -1.4862042005,
				"y": -3.1904603405,
				"z": 2.5220023002,
				"element": "H" 
			},
			{
				"x": -0.6034497829,
				"y": -0.8792431436,
				"z": 2.7817518861,
				"element": "H" 
			}
		],
		 "valence_orbital": [ 
			{
				"type": "occ",
				"energy": -0.30492,
				"method": "rhf"
			},
			{
				"type": "occ",
				"energy": -0.29295,
				"method": "rhf"
			},
			{
				"type": "occ",
				"energy": -0.28461,
				"method": "rhf"
			},
			{
				"type": "occ",
				"energy": -0.26832,
				"method": "rhf"
			},
			{
				"type": "occ",
				"energy": -0.25282,
				"method": "rhf"
			},
			{
				"type": "unocc",
				"energy": -0.04882,
				"method": "rhf"
			},
			{
				"type": "unocc",
				"energy": -0.03567,
				"method": "rhf"
			},
			{
				"type": "unocc",
				"energy": -0.01503,
				"method": "rhf"
			},
			{
				"type": "unocc",
				"energy": 0.0115,
				"method": "rhf"
			},
			{
				"type": "unocc",
				"energy": 0.0241,
				"method": "rhf"
			}
		],
		"cosmo_sigma_profile": { 
			"-0.025": 0.0,
			"-0.024": 0.0,
			"-0.023": 0.0,
			"-0.022": 0.0,
			"-0.021": 0.0,
			"-0.02": 0.0,
			"-0.019": 0.0,
			"-0.018": 0.0,
			"-0.017": 0.0,
			"-0.016": 0.0,
			"-0.015": 0.0,
			"-0.014": 0.0,
			"-0.013": 0.0,
			"-0.012": 0.0920923640657,
			"-0.011": 1.3067363315,
			"-0.01": 4.61733301558,
			"-0.009": 7.57052200804,
			"-0.008": 10.7958700295,
			"-0.007": 17.6139227865,
			"-0.006": 19.6403882046,
			"-0.005": 16.1975582719,
			"-0.004": 13.4906246056,
			"-0.003": 12.6877515914,
			"-0.002": 12.2596638027,
			"-0.001": 16.6537300006,
			"0.0": 17.6559314462,
			"0.001": 22.3733025228,
			"0.002": 24.4082171675,
			"0.003": 19.4535384496,
			"0.004": 21.6315612373,
			"0.005": 13.804571628,
			"0.006": 4.95070119561,
			"0.007": 4.37886851047,
			"0.008": 3.69659367578,
			"0.009": 3.25993571969,
			"0.01": 5.91926697946,
			"0.011": 12.2728745106,
			"0.012": 5.77327126744,
			"0.013": 0.0984451275092,
			"0.014": 0.0,
			"0.015": 0.0,
			"0.016": 0.0,
			"0.017": 0.0,
			"0.018": 0.0,
			"0.019": 0.0,
			"0.02": 0.0,
			"0.021": 0.0,
			"0.022": 0.0,
			"0.023": 0.0,
			"0.024": 0.0,
			"0.025": 0.0
		}
	}
}
