{
	 "smiles": "OC(=O)C1=C(F)C=C(C=C1)C1=CC=CC=C1", 
	 "Tm": 461.15, 
	 "num_atms": 25, 
	 "gaussian": { 
		 "optdone": 1, 
		 "sigma_profile": "yes", 
		 "theory": "DFT", 
		 "functional": "B3LYP", 
		 "basiset": "6-31G**", 
		 "properties": { 
			 "R2extent": 4936.6888, 
			 "electric_dipole_moment_norm": 3.55425047654, 
			 "electric_quadrupole_moment_norm": 13.5368671797, 
			 "total_energy": -751.111499847, 
			 "HOMO_LUMO_gap": 0.17703, 
			 "cosmo_polarized_energy": -11.51, 
			 "cosmo_cavitation_energy": 30.38, 
			 "cosmo_dispersion_energy": -22.2, 
			 "cosmo_repulsion_energy": 1.68, 
			 "cosmo_total_nonelectrostatic_energy": 9.86, 
			 "SMD_solvation_energy": 6.62 
		},
		"coords": [
			{
				"x": -4.1731301992,
				"y": -1.0691684769,
				"z": 2.6523243342,
				"element": "O" 
			},
			{
				"x": -3.6490695767,
				"y": 0.1780622414,
				"z": 2.4934328435,
				"element": "C" 
			},
			{
				"x": -4.129594189,
				"y": 1.1454876292,
				"z": 3.0453670126,
				"element": "O" 
			},
			{
				"x": -2.4687888216,
				"y": 0.1733528673,
				"z": 1.5932033585,
				"element": "C" 
			},
			{
				"x": -1.7675271194,
				"y": 1.3529219084,
				"z": 1.2976115724,
				"element": "C" 
			},
			{
				"x": -2.1413195186,
				"y": 2.5211491222,
				"z": 1.8350930458,
				"element": "F" 
			},
			{
				"x": -0.6618321872,
				"y": 1.362347252,
				"z": 0.4575070139,
				"element": "C" 
			},
			{
				"x": -0.2073625458,
				"y": 0.1744181681,
				"z": -0.132805657,
				"element": "C" 
			},
			{
				"x": -0.9014617755,
				"y": -1.0164632112,
				"z": 0.153128909,
				"element": "C" 
			},
			{
				"x": -2.0039191022,
				"y": -1.0120605264,
				"z": 0.9963502808,
				"element": "C" 
			},
			{
				"x": 0.9716008573,
				"y": 0.1788574665,
				"z": -1.0337209846,
				"element": "C" 
			},
			{
				"x": 1.8825994528,
				"y": -0.8912890835,
				"z": -1.0304888635,
				"element": "C" 
			},
			{
				"x": 2.9908561019,
				"y": -0.8878848245,
				"z": -1.875838834,
				"element": "C" 
			},
			{
				"x": 3.2097387235,
				"y": 0.1838349632,
				"z": -2.7435408002,
				"element": "C" 
			},
			{
				"x": 2.3119803616,
				"y": 1.2530979959,
				"z": -2.7581803527,
				"element": "C" 
			},
			{
				"x": 1.2048998456,
				"y": 1.2513848334,
				"z": -1.9113606019,
				"element": "C" 
			},
			{
				"x": -4.9302380568,
				"y": -0.9528327374,
				"z": 3.2491691927,
				"element": "H" 
			},
			{
				"x": -0.1495867686,
				"y": 2.3043084849,
				"z": 0.2973075604,
				"element": "H" 
			},
			{
				"x": -0.5887624791,
				"y": -1.9447363602,
				"z": -0.3130482229,
				"element": "H" 
			},
			{
				"x": -2.5347935061,
				"y": -1.9340793259,
				"z": 1.201020639,
				"element": "H" 
			},
			{
				"x": 1.7356300947,
				"y": -1.7171536887,
				"z": -0.3409773647,
				"element": "H" 
			},
			{
				"x": 3.6885408481,
				"y": -1.7200255365,
				"z": -1.8509482545,
				"element": "H" 
			},
			{
				"x": 4.0728098284,
				"y": 0.1858327649,
				"z": -3.4027680329,
				"element": "H" 
			},
			{
				"x": 2.4692564098,
				"y": 2.0874351549,
				"z": -3.4356297068,
				"element": "H" 
			},
			{
				"x": 0.4989733221,
				"y": 2.0757029188,
				"z": -1.9488080873,
				"element": "H" 
			}
		],
		 "valence_orbital": [ 
			{
				"type": "occ",
				"energy": -0.28736,
				"method": "rhf"
			},
			{
				"type": "occ",
				"energy": -0.27194,
				"method": "rhf"
			},
			{
				"type": "occ",
				"energy": -0.2606,
				"method": "rhf"
			},
			{
				"type": "occ",
				"energy": -0.25767,
				"method": "rhf"
			},
			{
				"type": "occ",
				"energy": -0.23901,
				"method": "rhf"
			},
			{
				"type": "unocc",
				"energy": -0.06198,
				"method": "rhf"
			},
			{
				"type": "unocc",
				"energy": -0.01413,
				"method": "rhf"
			},
			{
				"type": "unocc",
				"energy": -0.00942,
				"method": "rhf"
			},
			{
				"type": "unocc",
				"energy": -0.00295,
				"method": "rhf"
			},
			{
				"type": "unocc",
				"energy": 0.05941,
				"method": "rhf"
			}
		],
		"cosmo_sigma_profile": { 
			"-0.025": 0.0,
			"-0.024": 0.0,
			"-0.023": 0.0,
			"-0.022": 0.0,
			"-0.021": 0.0,
			"-0.02": 0.0,
			"-0.019": 0.027455331436,
			"-0.018": 0.645560672591,
			"-0.017": 0.882338415297,
			"-0.016": 1.01808855261,
			"-0.015": 0.661869790206,
			"-0.014": 0.753647247454,
			"-0.013": 0.171772973121,
			"-0.012": 0.719854310464,
			"-0.011": 0.870293668287,
			"-0.01": 1.2262495019,
			"-0.009": 0.504746714531,
			"-0.008": 0.878872101196,
			"-0.007": 4.06009428251,
			"-0.006": 15.2941273962,
			"-0.005": 17.5196035929,
			"-0.004": 15.6648742323,
			"-0.003": 15.2710134418,
			"-0.002": 14.9672961599,
			"-0.001": 16.7606010751,
			"0.0": 19.3734169354,
			"0.001": 22.7117654379,
			"0.002": 21.9067081102,
			"0.003": 19.5250695957,
			"0.004": 16.5083387045,
			"0.005": 13.5581798432,
			"0.006": 3.99470173779,
			"0.007": 3.26324143258,
			"0.008": 2.26274618478,
			"0.009": 1.82444032661,
			"0.01": 2.32425342735,
			"0.011": 4.10563876413,
			"0.012": 4.83372114635,
			"0.013": 0.272323142748,
			"0.014": 0.0,
			"0.015": 0.0,
			"0.016": 0.0,
			"0.017": 0.0,
			"0.018": 0.0,
			"0.019": 0.0,
			"0.02": 0.0,
			"0.021": 0.0,
			"0.022": 0.0,
			"0.023": 0.0,
			"0.024": 0.0,
			"0.025": 0.0
		}
	}
}
