{
	 "smiles": "OC1=CC2=C(C(O)=C1)C(=O)C=C(O2)C1=CC=CC=C1", 
	 "Tm": 559.15, 
	 "num_atms": 29, 
	 "gaussian": { 
		 "optdone": 1, 
		 "sigma_profile": "yes", 
		 "theory": "DFT", 
		 "functional": "B3LYP", 
		 "basiset": "6-31G**", 
		 "properties": { 
			 "R2extent": 6797.2611, 
			 "electric_dipole_moment_norm": 3.68773399664, 
			 "electric_quadrupole_moment_norm": 27.0880619185, 
			 "total_energy": -878.530003621, 
			 "HOMO_LUMO_gap": 0.1508, 
			 "cosmo_polarized_energy": -14.4, 
			 "cosmo_cavitation_energy": 33.59, 
			 "cosmo_dispersion_energy": -25.24, 
			 "cosmo_repulsion_energy": 1.87, 
			 "cosmo_total_nonelectrostatic_energy": 10.23, 
			 "SMD_solvation_energy": 6.94 
		},
		"coords": [
			{
				"x": -2.9153718172,
				"y": 0.7398051161,
				"z": -4.1578219128,
				"element": "O" 
			},
			{
				"x": -2.2777010948,
				"y": 1.4061311208,
				"z": -3.1595427655,
				"element": "C" 
			},
			{
				"x": -1.5152921098,
				"y": 0.6297181451,
				"z": -2.2778320097,
				"element": "C" 
			},
			{
				"x": -0.8545542703,
				"y": 1.2871658125,
				"z": -1.2497585221,
				"element": "C" 
			},
			{
				"x": -0.9231663424,
				"y": 2.6793189492,
				"z": -1.0699839177,
				"element": "C" 
			},
			{
				"x": -1.7071550038,
				"y": 3.4400959528,
				"z": -1.9823342779,
				"element": "C" 
			},
			{
				"x": -1.8003421279,
				"y": 4.76577437,
				"z": -1.8440684392,
				"element": "O" 
			},
			{
				"x": -2.3791533778,
				"y": 2.7969350824,
				"z": -3.022198193,
				"element": "C" 
			},
			{
				"x": -0.2164245294,
				"y": 3.3155753358,
				"z": 0.0272933875,
				"element": "C" 
			},
			{
				"x": -0.2591886936,
				"y": 4.5530948859,
				"z": 0.2200665676,
				"element": "O" 
			},
			{
				"x": 0.5295805299,
				"y": 2.4142544564,
				"z": 0.8832497561,
				"element": "C" 
			},
			{
				"x": 0.5680037476,
				"y": 1.0762082824,
				"z": 0.6437206831,
				"element": "C" 
			},
			{
				"x": -0.107354413,
				"y": 0.5133643486,
				"z": -0.3974088639,
				"element": "O" 
			},
			{
				"x": 1.2948291307,
				"y": 0.0728706421,
				"z": 1.4436352896,
				"element": "C" 
			},
			{
				"x": 2.3438288662,
				"y": 0.4568497553,
				"z": 2.2969733143,
				"element": "C" 
			},
			{
				"x": 3.0138884769,
				"y": -0.4922777032,
				"z": 3.0636123533,
				"element": "C" 
			},
			{
				"x": 2.6534970041,
				"y": -1.840002554,
				"z": 2.9879839363,
				"element": "C" 
			},
			{
				"x": 1.6201430557,
				"y": -2.23232557,
				"z": 2.1354857425,
				"element": "C" 
			},
			{
				"x": 0.946228942,
				"y": -1.2863606629,
				"z": 1.3659993637,
				"element": "C" 
			},
			{
				"x": -3.4055641126,
				"y": 1.3714189334,
				"z": -4.7005745716,
				"element": "H" 
			},
			{
				"x": -1.4458985579,
				"y": -0.4433731108,
				"z": -2.4002196964,
				"element": "H" 
			},
			{
				"x": -1.2471505352,
				"y": 4.9990474871,
				"z": -1.042881382,
				"element": "H" 
			},
			{
				"x": -2.9730338556,
				"y": 3.3906795997,
				"z": -3.7106968785,
				"element": "H" 
			},
			{
				"x": 1.0432264835,
				"y": 2.838011603,
				"z": 1.7359661728,
				"element": "H" 
			},
			{
				"x": 2.6518492017,
				"y": 1.4959350443,
				"z": 2.3451465128,
				"element": "H" 
			},
			{
				"x": 3.8253752147,
				"y": -0.1803490811,
				"z": 3.7141930778,
				"element": "H" 
			},
			{
				"x": 3.1789328876,
				"y": -2.579037282,
				"z": 3.5855431137,
				"element": "H" 
			},
			{
				"x": 1.3355261891,
				"y": -3.2782170102,
				"z": 2.0693824799,
				"element": "H" 
			},
			{
				"x": 0.1427411115,
				"y": -1.5931119485,
				"z": 0.7067696795,
				"element": "H" 
			}
		],
		 "valence_orbital": [ 
			{
				"type": "occ",
				"energy": -0.26738,
				"method": "rhf"
			},
			{
				"type": "occ",
				"energy": -0.25507,
				"method": "rhf"
			},
			{
				"type": "occ",
				"energy": -0.24768,
				"method": "rhf"
			},
			{
				"type": "occ",
				"energy": -0.23938,
				"method": "rhf"
			},
			{
				"type": "occ",
				"energy": -0.22026,
				"method": "rhf"
			},
			{
				"type": "unocc",
				"energy": -0.06946,
				"method": "rhf"
			},
			{
				"type": "unocc",
				"energy": -0.02598,
				"method": "rhf"
			},
			{
				"type": "unocc",
				"energy": -0.01573,
				"method": "rhf"
			},
			{
				"type": "unocc",
				"energy": 0.0036,
				"method": "rhf"
			},
			{
				"type": "unocc",
				"energy": 0.02651,
				"method": "rhf"
			}
		],
		"cosmo_sigma_profile": { 
			"-0.025": 0.0,
			"-0.024": 0.0,
			"-0.023": 0.0,
			"-0.022": 0.0,
			"-0.021": 0.0,
			"-0.02": 0.0,
			"-0.019": 0.305556370498,
			"-0.018": 0.983201636743,
			"-0.017": 1.2450307456,
			"-0.016": 1.33802352149,
			"-0.015": 1.05802655569,
			"-0.014": 0.655226853396,
			"-0.013": 0.476572904354,
			"-0.012": 0.975864446015,
			"-0.011": 1.47743269506,
			"-0.01": 1.26061591227,
			"-0.009": 2.10987462492,
			"-0.008": 3.67193514105,
			"-0.007": 6.45966139176,
			"-0.006": 12.5198069914,
			"-0.005": 15.051765363,
			"-0.004": 15.5481979898,
			"-0.003": 13.8415296974,
			"-0.002": 17.0590690282,
			"-0.001": 22.2595584034,
			"0.0": 21.5758791168,
			"0.001": 27.5780909873,
			"0.002": 25.4395730703,
			"0.003": 23.3802219548,
			"0.004": 17.7766294587,
			"0.005": 5.47569472788,
			"0.006": 3.65896267594,
			"0.007": 4.64592745769,
			"0.008": 4.0347851286,
			"0.009": 4.33170849734,
			"0.01": 4.84205591465,
			"0.011": 3.89026483377,
			"0.012": 2.61136326094,
			"0.013": 1.866577919,
			"0.014": 1.2526567211,
			"0.015": 0.0639765791479,
			"0.016": 0.0,
			"0.017": 0.0,
			"0.018": 0.0,
			"0.019": 0.0,
			"0.02": 0.0,
			"0.021": 0.0,
			"0.022": 0.0,
			"0.023": 0.0,
			"0.024": 0.0,
			"0.025": 0.0
		}
	}
}
