{
	 "smiles": "COC(=O)CC[C@@H](C)[C@H]1CC[C@H]2[C@@H]3[C@H](O)C[C@@H]4C[C@H](O)CC[C@]4(C)[C@H]3C[C@H](O)[C@]12C", 
	 "Tm": 428.65, 
	 "num_atms": 72, 
	 "gaussian": { 
		 "optdone": 1, 
		 "sigma_profile": "yes", 
		 "theory": "DFT", 
		 "functional": "B3LYP", 
		 "basiset": "6-31G**", 
		 "properties": { 
			 "R2extent": 16559.2329, 
			 "electric_dipole_moment_norm": 4.15749899579, 
			 "electric_quadrupole_moment_norm": 10.7382483171, 
			 "total_energy": -1354.08456346, 
			 "HOMO_LUMO_gap": 0.26558, 
			 "cosmo_polarized_energy": -19.99, 
			 "cosmo_cavitation_energy": 60.38, 
			 "cosmo_dispersion_energy": -40.56, 
			 "cosmo_repulsion_energy": 2.97, 
			 "cosmo_total_nonelectrostatic_energy": 22.78, 
			 "SMD_solvation_energy": 9.79 
		},
		"coords": [
			{
				"x": 0.0277386988,
				"y": 3.8079002244,
				"z": -5.5665606278,
				"element": "C" 
			},
			{
				"x": 0.8752079743,
				"y": 4.2189935146,
				"z": -4.4814768896,
				"element": "O" 
			},
			{
				"x": 1.9502986727,
				"y": 3.4261027293,
				"z": -4.2557413766,
				"element": "C" 
			},
			{
				"x": 2.1927495833,
				"y": 2.4375621246,
				"z": -4.9174407362,
				"element": "O" 
			},
			{
				"x": 2.8018400973,
				"y": 3.931696469,
				"z": -3.1117051557,
				"element": "C" 
			},
			{
				"x": 2.7643202079,
				"y": 3.0838417237,
				"z": -1.8122470163,
				"element": "C" 
			},
			{
				"x": 1.5524725005,
				"y": 3.2340739355,
				"z": -0.8398823595,
				"element": "C" 
			},
			{
				"x": 0.9677582972,
				"y": 4.6578429776,
				"z": -0.8610070157,
				"element": "C" 
			},
			{
				"x": 0.4036643842,
				"y": 2.1769333166,
				"z": -0.9226374354,
				"element": "C" 
			},
			{
				"x": 0.0755073216,
				"y": 1.5550718202,
				"z": -2.3179416412,
				"element": "C" 
			},
			{
				"x": -0.5260715727,
				"y": 0.140379816,
				"z": -2.0545925167,
				"element": "C" 
			},
			{
				"x": -0.7003454272,
				"y": 0.1025934787,
				"z": -0.5320009565,
				"element": "C" 
			},
			{
				"x": -0.8688264822,
				"y": -1.2136983586,
				"z": 0.2237106452,
				"element": "C" 
			},
			{
				"x": -1.8510874887,
				"y": -2.236458032,
				"z": -0.3696517109,
				"element": "C" 
			},
			{
				"x": -3.0199782448,
				"y": -1.5295004749,
				"z": -0.7992436596,
				"element": "O" 
			},
			{
				"x": -2.2082690691,
				"y": -3.3151635653,
				"z": 0.6900233683,
				"element": "C" 
			},
			{
				"x": -1.1345507663,
				"y": -3.4405749529,
				"z": 1.7926897473,
				"element": "C" 
			},
			{
				"x": -1.3012864502,
				"y": -4.7025133754,
				"z": 2.6728467641,
				"element": "C" 
			},
			{
				"x": -2.3257930241,
				"y": -4.5943089011,
				"z": 3.8021155064,
				"element": "C" 
			},
			{
				"x": -3.6272090439,
				"y": -4.5449084565,
				"z": 3.2069044052,
				"element": "O" 
			},
			{
				"x": -2.0450300399,
				"y": -3.351183851,
				"z": 4.6553100346,
				"element": "C" 
			},
			{
				"x": -2.0291796034,
				"y": -2.0868877736,
				"z": 3.7892410793,
				"element": "C" 
			},
			{
				"x": -0.9997408954,
				"y": -2.108692505,
				"z": 2.6264395279,
				"element": "C" 
			},
			{
				"x": 0.4346963297,
				"y": -2.0201051221,
				"z": 3.1860725873,
				"element": "C" 
			},
			{
				"x": -1.323842461,
				"y": -0.9072023491,
				"z": 1.6735053762,
				"element": "C" 
			},
			{
				"x": -0.9231888773,
				"y": 0.519846674,
				"z": 2.14750532,
				"element": "C" 
			},
			{
				"x": 0.3510734636,
				"y": 1.1579328295,
				"z": 1.549511932,
				"element": "C" 
			},
			{
				"x": 0.3341267093,
				"y": 2.5662485329,
				"z": 1.823455128,
				"element": "O" 
			},
			{
				"x": 0.5094967592,
				"y": 0.9227702465,
				"z": 0.0083676239,
				"element": "C" 
			},
			{
				"x": 1.8585129444,
				"y": 0.2015758621,
				"z": -0.2166367333,
				"element": "C" 
			},
			{
				"x": -0.761772854,
				"y": 4.5573218472,
				"z": -5.6245725985,
				"element": "H" 
			},
			{
				"x": 0.5917887836,
				"y": 3.7701964347,
				"z": -6.5018827787,
				"element": "H" 
			},
			{
				"x": -0.3951970601,
				"y": 2.8193716815,
				"z": -5.3713171223,
				"element": "H" 
			},
			{
				"x": 3.8306217003,
				"y": 3.903075845,
				"z": -3.4867775577,
				"element": "H" 
			},
			{
				"x": 2.5514246224,
				"y": 4.9733087666,
				"z": -2.9038750519,
				"element": "H" 
			},
			{
				"x": 2.9289712861,
				"y": 2.0363199269,
				"z": -2.0809294928,
				"element": "H" 
			},
			{
				"x": 3.6570940452,
				"y": 3.3867216739,
				"z": -1.2517248446,
				"element": "H" 
			},
			{
				"x": 1.9743393852,
				"y": 3.1115146631,
				"z": 0.1619885832,
				"element": "H" 
			},
			{
				"x": 0.2631743294,
				"y": 4.7758330084,
				"z": -0.032916729,
				"element": "H" 
			},
			{
				"x": 0.4377068872,
				"y": 4.8695725249,
				"z": -1.7960530671,
				"element": "H" 
			},
			{
				"x": 1.7498017753,
				"y": 5.4172434911,
				"z": -0.7406403419,
				"element": "H" 
			},
			{
				"x": -0.4974020497,
				"y": 2.6998603197,
				"z": -0.5844414002,
				"element": "H" 
			},
			{
				"x": 0.9665420212,
				"y": 1.4642882892,
				"z": -2.940062565,
				"element": "H" 
			},
			{
				"x": -0.6239054678,
				"y": 2.1943298094,
				"z": -2.8657676433,
				"element": "H" 
			},
			{
				"x": 0.1587720853,
				"y": -0.64226554,
				"z": -2.4020795118,
				"element": "H" 
			},
			{
				"x": -1.4786696356,
				"y": -0.0230666187,
				"z": -2.5642270718,
				"element": "H" 
			},
			{
				"x": -1.5977428351,
				"y": 0.7007594276,
				"z": -0.3265443414,
				"element": "H" 
			},
			{
				"x": 0.1056108537,
				"y": -1.7165809555,
				"z": 0.2411602364,
				"element": "H" 
			},
			{
				"x": -1.3767714631,
				"y": -2.7149856065,
				"z": -1.2415590441,
				"element": "H" 
			},
			{
				"x": -3.6818119053,
				"y": -2.1851148758,
				"z": -1.0535868884,
				"element": "H" 
			},
			{
				"x": -2.3491919149,
				"y": -4.2890229477,
				"z": 0.2053375758,
				"element": "H" 
			},
			{
				"x": -3.1712589677,
				"y": -3.0573839252,
				"z": 1.1413759771,
				"element": "H" 
			},
			{
				"x": -0.1781452613,
				"y": -3.585161818,
				"z": 1.2715962233,
				"element": "H" 
			},
			{
				"x": -1.5602773377,
				"y": -5.5578235512,
				"z": 2.0380312557,
				"element": "H" 
			},
			{
				"x": -0.3384309586,
				"y": -4.9454679122,
				"z": 3.1394343641,
				"element": "H" 
			},
			{
				"x": -2.2452400399,
				"y": -5.495354311,
				"z": 4.4324540751,
				"element": "H" 
			},
			{
				"x": -4.2731217623,
				"y": -4.4359026296,
				"z": 3.9172656659,
				"element": "H" 
			},
			{
				"x": -2.8085155975,
				"y": -3.2584625154,
				"z": 5.4408219212,
				"element": "H" 
			},
			{
				"x": -1.0896237092,
				"y": -3.4887037102,
				"z": 5.1775110946,
				"element": "H" 
			},
			{
				"x": -1.8478438346,
				"y": -1.206497716,
				"z": 4.4182586632,
				"element": "H" 
			},
			{
				"x": -3.0322512449,
				"y": -1.9624251782,
				"z": 3.36583855,
				"element": "H" 
			},
			{
				"x": 1.1714454859,
				"y": -1.9498906811,
				"z": 2.3785394583,
				"element": "H" 
			},
			{
				"x": 0.5637396852,
				"y": -1.1461950892,
				"z": 3.8331983843,
				"element": "H" 
			},
			{
				"x": 0.6954519334,
				"y": -2.9015680871,
				"z": 3.780476824,
				"element": "H" 
			},
			{
				"x": -2.4175477455,
				"y": -0.8721605797,
				"z": 1.6125202876,
				"element": "H" 
			},
			{
				"x": -0.8471228398,
				"y": 0.5536462419,
				"z": 3.2427392835,
				"element": "H" 
			},
			{
				"x": -1.7392136012,
				"y": 1.2040328323,
				"z": 1.8906146075,
				"element": "H" 
			},
			{
				"x": 1.2292939775,
				"y": 0.7180075368,
				"z": 2.0456403224,
				"element": "H" 
			},
			{
				"x": 0.2410270472,
				"y": 2.6750996106,
				"z": 2.7789430161,
				"element": "H" 
			},
			{
				"x": 2.6832639497,
				"y": 0.8369289745,
				"z": 0.1220416471,
				"element": "H" 
			},
			{
				"x": 1.9256106095,
				"y": -0.7308982842,
				"z": 0.3530207164,
				"element": "H" 
			},
			{
				"x": 2.0391131245,
				"y": -0.0438689308,
				"z": -1.2663838971,
				"element": "H" 
			}
		],
		 "valence_orbital": [ 
			{
				"type": "occ",
				"energy": -0.26897,
				"method": "rhf"
			},
			{
				"type": "occ",
				"energy": -0.26444,
				"method": "rhf"
			},
			{
				"type": "occ",
				"energy": -0.25799,
				"method": "rhf"
			},
			{
				"type": "occ",
				"energy": -0.25195,
				"method": "rhf"
			},
			{
				"type": "occ",
				"energy": -0.24695,
				"method": "rhf"
			},
			{
				"type": "unocc",
				"energy": 0.01863,
				"method": "rhf"
			},
			{
				"type": "unocc",
				"energy": 0.05583,
				"method": "rhf"
			},
			{
				"type": "unocc",
				"energy": 0.07006,
				"method": "rhf"
			},
			{
				"type": "unocc",
				"energy": 0.07563,
				"method": "rhf"
			},
			{
				"type": "unocc",
				"energy": 0.08691,
				"method": "rhf"
			}
		],
		"cosmo_sigma_profile": { 
			"-0.025": 0.0,
			"-0.024": 0.0,
			"-0.023": 0.0,
			"-0.022": 0.0,
			"-0.021": 0.0,
			"-0.02": 0.0,
			"-0.019": 0.0,
			"-0.018": 0.0,
			"-0.017": 0.0,
			"-0.016": 0.0,
			"-0.015": 0.739461608736,
			"-0.014": 2.95290172391,
			"-0.013": 2.65351431454,
			"-0.012": 2.68374918817,
			"-0.011": 2.54284551135,
			"-0.01": 3.2326020603,
			"-0.009": 2.33862106146,
			"-0.008": 2.39549867846,
			"-0.007": 3.18548814977,
			"-0.006": 6.37435282967,
			"-0.005": 11.3784948526,
			"-0.004": 18.3288408184,
			"-0.003": 45.5851558397,
			"-0.002": 65.4990531922,
			"-0.001": 64.8131094243,
			"0.0": 61.2514899506,
			"0.001": 46.5421067217,
			"0.002": 29.3721906421,
			"0.003": 15.2867997848,
			"0.004": 9.09019990621,
			"0.005": 9.73698824129,
			"0.006": 7.2872188526,
			"0.007": 6.96793759796,
			"0.008": 8.95333559515,
			"0.009": 6.69330399826,
			"0.01": 6.17239238945,
			"0.011": 5.33696582752,
			"0.012": 6.64268121795,
			"0.013": 4.32387909341,
			"0.014": 1.84097512798,
			"0.015": 0.379764505265,
			"0.016": 0.0,
			"0.017": 0.0,
			"0.018": 0.0,
			"0.019": 0.0,
			"0.02": 0.0,
			"0.021": 0.0,
			"0.022": 0.0,
			"0.023": 0.0,
			"0.024": 0.0,
			"0.025": 0.0
		}
	}
}
