{
	 "smiles": "CC1=CC=CN2C(C=O)=CN=C12", 
	 "Tm": 357.15, 
	 "num_atms": 20, 
	 "gaussian": { 
		 "optdone": 1, 
		 "sigma_profile": "yes", 
		 "theory": "DFT", 
		 "functional": "B3LYP", 
		 "basiset": "6-31G**", 
		 "properties": { 
			 "R2extent": 2147.0085, 
			 "electric_dipole_moment_norm": 5.17352522367, 
			 "electric_quadrupole_moment_norm": 9.09737200515, 
			 "total_energy": -532.49763144, 
			 "HOMO_LUMO_gap": 0.16738, 
			 "cosmo_polarized_energy": -13.39, 
			 "cosmo_cavitation_energy": 24.46, 
			 "cosmo_dispersion_energy": -17.92, 
			 "cosmo_repulsion_energy": 1.4, 
			 "cosmo_total_nonelectrostatic_energy": 7.94, 
			 "SMD_solvation_energy": 4.15 
		},
		"coords": [
			{
				"x": 2.0676627654,
				"y": 1.0459854992,
				"z": -2.4559517545,
				"element": "C" 
			},
			{
				"x": 0.9922839335,
				"y": 0.3924591995,
				"z": -1.6343696737,
				"element": "C" 
			},
			{
				"x": 0.1784198197,
				"y": -0.6192610017,
				"z": -2.1011191045,
				"element": "C" 
			},
			{
				"x": -0.8222261843,
				"y": -1.1992911747,
				"z": -1.2776374083,
				"element": "C" 
			},
			{
				"x": -1.0041100615,
				"y": -0.765822751,
				"z": 0.0064031685,
				"element": "C" 
			},
			{
				"x": -0.2025927985,
				"y": 0.2399544993,
				"z": 0.4859012758,
				"element": "N" 
			},
			{
				"x": -0.1516267083,
				"y": 0.8796997184,
				"z": 1.7282310883,
				"element": "C" 
			},
			{
				"x": -1.003402958,
				"y": 0.5914476967,
				"z": 2.8618714347,
				"element": "C" 
			},
			{
				"x": -0.926684879,
				"y": 1.1741645244,
				"z": 3.9336339256,
				"element": "O" 
			},
			{
				"x": 0.8768508552,
				"y": 1.8154366711,
				"z": 1.5965642384,
				"element": "C" 
			},
			{
				"x": 1.4466924046,
				"y": 1.789389068,
				"z": 0.3775986116,
				"element": "N" 
			},
			{
				"x": 0.7920499721,
				"y": 0.8319299869,
				"z": -0.300233672,
				"element": "C" 
			},
			{
				"x": 2.1128586661,
				"y": 0.6134151703,
				"z": -3.4582923817,
				"element": "H" 
			},
			{
				"x": 3.0455697471,
				"y": 0.9315588299,
				"z": -1.9771471312,
				"element": "H" 
			},
			{
				"x": 1.8891813364,
				"y": 2.1226317768,
				"z": -2.5433158755,
				"element": "H" 
			},
			{
				"x": 0.3042385748,
				"y": -0.9799822317,
				"z": -3.1174884095,
				"element": "H" 
			},
			{
				"x": -1.4547267848,
				"y": -1.993495631,
				"z": -1.6571238582,
				"element": "H" 
			},
			{
				"x": -1.7489044111,
				"y": -1.1689206051,
				"z": 0.6796414879,
				"element": "H" 
			},
			{
				"x": -1.7573159658,
				"y": -0.2133067418,
				"z": 2.7103734372,
				"element": "H" 
			},
			{
				"x": 1.2008826763,
				"y": 2.4979074967,
				"z": 2.371060601,
				"element": "H" 
			}
		],
		 "valence_orbital": [ 
			{
				"type": "occ",
				"energy": -0.31977,
				"method": "rhf"
			},
			{
				"type": "occ",
				"energy": -0.28521,
				"method": "rhf"
			},
			{
				"type": "occ",
				"energy": -0.25783,
				"method": "rhf"
			},
			{
				"type": "occ",
				"energy": -0.25113,
				"method": "rhf"
			},
			{
				"type": "occ",
				"energy": -0.22519,
				"method": "rhf"
			},
			{
				"type": "unocc",
				"energy": -0.05781,
				"method": "rhf"
			},
			{
				"type": "unocc",
				"energy": -0.04146,
				"method": "rhf"
			},
			{
				"type": "unocc",
				"energy": 0.00906,
				"method": "rhf"
			},
			{
				"type": "unocc",
				"energy": 0.07375,
				"method": "rhf"
			},
			{
				"type": "unocc",
				"energy": 0.10228,
				"method": "rhf"
			}
		],
		"cosmo_sigma_profile": { 
			"-0.025": 0.0,
			"-0.024": 0.0,
			"-0.023": 0.0,
			"-0.022": 0.0,
			"-0.021": 0.0,
			"-0.02": 0.0,
			"-0.019": 0.0,
			"-0.018": 0.0,
			"-0.017": 0.0,
			"-0.016": 0.0,
			"-0.015": 0.0,
			"-0.014": 0.0,
			"-0.013": 0.0,
			"-0.012": 0.0,
			"-0.011": 0.67026635368,
			"-0.01": 3.38855464436,
			"-0.009": 2.52069844536,
			"-0.008": 5.3885010205,
			"-0.007": 9.01681431618,
			"-0.006": 10.4461461049,
			"-0.005": 11.6770337609,
			"-0.004": 11.6521378122,
			"-0.003": 11.2900740399,
			"-0.002": 16.6919945747,
			"-0.001": 20.6310656266,
			"0.0": 17.6256463916,
			"0.001": 16.4855924796,
			"0.002": 14.0027152344,
			"0.003": 6.5999347868,
			"0.004": 2.98839717086,
			"0.005": 3.99987325304,
			"0.006": 2.72572810332,
			"0.007": 2.77896913547,
			"0.008": 3.28991843463,
			"0.009": 2.46671877137,
			"0.01": 3.52514849076,
			"0.011": 4.0922325612,
			"0.012": 5.66840968159,
			"0.013": 3.86433163847,
			"0.014": 1.71818141771,
			"0.015": 0.519902966253,
			"0.016": 0.744979344326,
			"0.017": 0.0821830783124,
			"0.018": 0.0,
			"0.019": 0.0,
			"0.02": 0.0,
			"0.021": 0.0,
			"0.022": 0.0,
			"0.023": 0.0,
			"0.024": 0.0,
			"0.025": 0.0
		}
	}
}
