{
	 "smiles": "C1CNC(C1)C1=CC=CN1", 
	 "Tm": 349.15, 
	 "num_atms": 22, 
	 "gaussian": { 
		 "optdone": 1, 
		 "sigma_profile": "yes", 
		 "theory": "DFT", 
		 "functional": "B3LYP", 
		 "basiset": "6-31G**", 
		 "properties": { 
			 "R2extent": 1888.1108, 
			 "electric_dipole_moment_norm": 1.43301687359, 
			 "electric_quadrupole_moment_norm": 3.69511734726, 
			 "total_energy": -421.570665252, 
			 "HOMO_LUMO_gap": 0.24018, 
			 "cosmo_polarized_energy": -7.23, 
			 "cosmo_cavitation_energy": 23.76, 
			 "cosmo_dispersion_energy": -17.92, 
			 "cosmo_repulsion_energy": 1.46, 
			 "cosmo_total_nonelectrostatic_energy": 7.29, 
			 "SMD_solvation_energy": 1.7 
		},
		"coords": [
			{
				"x": 1.7601564246,
				"y": -1.1364264954,
				"z": -2.0537557795,
				"element": "C" 
			},
			{
				"x": 2.6505510034,
				"y": -0.062773774,
				"z": -1.354884646,
				"element": "C" 
			},
			{
				"x": 2.1232238618,
				"y": 0.1258606073,
				"z": 0.008255153,
				"element": "N" 
			},
			{
				"x": 0.6644290322,
				"y": -0.0804034636,
				"z": -0.1479829795,
				"element": "C" 
			},
			{
				"x": 0.5108711016,
				"y": -1.2581120392,
				"z": -1.1396225183,
				"element": "C" 
			},
			{
				"x": -0.0049703917,
				"y": -0.2460166173,
				"z": 1.178980267,
				"element": "C" 
			},
			{
				"x": -1.0290852234,
				"y": -1.0622158584,
				"z": 1.6217586106,
				"element": "C" 
			},
			{
				"x": -1.274653668,
				"y": -0.7441170302,
				"z": 2.9896198121,
				"element": "C" 
			},
			{
				"x": -0.3932350532,
				"y": 0.2545425874,
				"z": 3.3450946768,
				"element": "C" 
			},
			{
				"x": 0.3648064642,
				"y": 0.5534929089,
				"z": 2.238577143,
				"element": "N" 
			},
			{
				"x": 2.2810004513,
				"y": -2.0954358725,
				"z": -2.1348029807,
				"element": "H" 
			},
			{
				"x": 1.4962250019,
				"y": -0.830280437,
				"z": -3.0708325724,
				"element": "H" 
			},
			{
				"x": 3.7096017168,
				"y": -0.332248013,
				"z": -1.3178486666,
				"element": "H" 
			},
			{
				"x": 2.5765981758,
				"y": 0.8927911043,
				"z": -1.8880021742,
				"element": "H" 
			},
			{
				"x": 2.4678590239,
				"y": -0.6372758655,
				"z": 0.5927798588,
				"element": "H" 
			},
			{
				"x": 0.2861952736,
				"y": 0.8297029824,
				"z": -0.6431121419,
				"element": "H" 
			},
			{
				"x": -0.4297386774,
				"y": -1.2181760024,
				"z": -1.6968908837,
				"element": "H" 
			},
			{
				"x": 0.5240604623,
				"y": -2.2014499228,
				"z": -0.5830353256,
				"element": "H" 
			},
			{
				"x": -1.5516818749,
				"y": -1.7972455659,
				"z": 1.0255540923,
				"element": "H" 
			},
			{
				"x": -2.011210654,
				"y": -1.19862104,
				"z": 3.6374332513,
				"element": "H" 
			},
			{
				"x": -0.2397452551,
				"y": 0.7646336884,
				"z": 4.2845736964,
				"element": "H" 
			},
			{
				"x": 1.1317428042,
				"y": 1.2064741186,
				"z": 2.187644107,
				"element": "H" 
			}
		],
		 "valence_orbital": [ 
			{
				"type": "occ",
				"energy": -0.33947,
				"method": "rhf"
			},
			{
				"type": "occ",
				"energy": -0.3207,
				"method": "rhf"
			},
			{
				"type": "occ",
				"energy": -0.23493,
				"method": "rhf"
			},
			{
				"type": "occ",
				"energy": -0.22991,
				"method": "rhf"
			},
			{
				"type": "occ",
				"energy": -0.19587,
				"method": "rhf"
			},
			{
				"type": "unocc",
				"energy": 0.04431,
				"method": "rhf"
			},
			{
				"type": "unocc",
				"energy": 0.08055,
				"method": "rhf"
			},
			{
				"type": "unocc",
				"energy": 0.09436,
				"method": "rhf"
			},
			{
				"type": "unocc",
				"energy": 0.09829,
				"method": "rhf"
			},
			{
				"type": "unocc",
				"energy": 0.1069,
				"method": "rhf"
			}
		],
		"cosmo_sigma_profile": { 
			"-0.025": 0.0,
			"-0.024": 0.0,
			"-0.023": 0.0,
			"-0.022": 0.0,
			"-0.021": 0.0,
			"-0.02": 0.0,
			"-0.019": 0.0,
			"-0.018": 0.0,
			"-0.017": 0.0,
			"-0.016": 0.0,
			"-0.015": 0.0,
			"-0.014": 0.48660797884,
			"-0.013": 0.947012579812,
			"-0.012": 0.64426657468,
			"-0.011": 0.790408517857,
			"-0.01": 0.96190642028,
			"-0.009": 2.23891141061,
			"-0.008": 1.89406639506,
			"-0.007": 3.11267872118,
			"-0.006": 4.52021433897,
			"-0.005": 4.89029003282,
			"-0.004": 9.61019951287,
			"-0.003": 18.1346024146,
			"-0.002": 26.8003959953,
			"-0.001": 26.2904662262,
			"0.0": 17.7532103918,
			"0.001": 14.92237553,
			"0.002": 7.41836050277,
			"0.003": 5.98858820758,
			"0.004": 5.64208045907,
			"0.005": 5.27182722484,
			"0.006": 5.99488868241,
			"0.007": 5.3067481444,
			"0.008": 6.01320049991,
			"0.009": 5.0205214162,
			"0.01": 1.90105579764,
			"0.011": 0.671097065404,
			"0.012": 0.63861400679,
			"0.013": 0.683253231435,
			"0.014": 0.389636725312,
			"0.015": 0.337076754761,
			"0.016": 0.515319128881,
			"0.017": 0.139770748621,
			"0.018": 0.0,
			"0.019": 0.0,
			"0.02": 0.0,
			"0.021": 0.0,
			"0.022": 0.0,
			"0.023": 0.0,
			"0.024": 0.0,
			"0.025": 0.0
		}
	}
}
