{
	 "smiles": "OC1=CC(CC2CCC(=O)O2)=CC=C1", 
	 "Tm": 376.15, 
	 "num_atms": 26, 
	 "gaussian": { 
		 "optdone": 1, 
		 "sigma_profile": "yes", 
		 "theory": "DFT", 
		 "functional": "B3LYP", 
		 "basiset": "6-31G**", 
		 "properties": { 
			 "R2extent": 4260.4025, 
			 "electric_dipole_moment_norm": 3.48225216778, 
			 "electric_quadrupole_moment_norm": 24.7493330367, 
			 "total_energy": -652.087815803, 
			 "HOMO_LUMO_gap": 0.21554, 
			 "cosmo_polarized_energy": -16.49, 
			 "cosmo_cavitation_energy": 29.49, 
			 "cosmo_dispersion_energy": -21.29, 
			 "cosmo_repulsion_energy": 1.69, 
			 "cosmo_total_nonelectrostatic_energy": 9.89, 
			 "SMD_solvation_energy": 5.92 
		},
		"coords": [
			{
				"x": -3.5479771391,
				"y": -2.2223414837,
				"z": -1.4655495205,
				"element": "O" 
			},
			{
				"x": -3.2618352953,
				"y": -1.3309340872,
				"z": -0.4716154575,
				"element": "C" 
			},
			{
				"x": -2.2376210967,
				"y": -0.3862052591,
				"z": -0.5797269845,
				"element": "C" 
			},
			{
				"x": -1.9802132046,
				"y": 0.5135589186,
				"z": 0.46444038,
				"element": "C" 
			},
			{
				"x": -0.84553468,
				"y": 1.5076394498,
				"z": 0.3410821928,
				"element": "C" 
			},
			{
				"x": 0.53968225,
				"y": 0.8675032739,
				"z": 0.5492388702,
				"element": "C" 
			},
			{
				"x": 0.8575760632,
				"y": 0.4567361652,
				"z": 2.0033865556,
				"element": "C" 
			},
			{
				"x": 1.577227728,
				"y": 1.6908127948,
				"z": 2.5553815037,
				"element": "C" 
			},
			{
				"x": 2.1588916332,
				"y": 2.3579228544,
				"z": 1.3127174088,
				"element": "C" 
			},
			{
				"x": 3.0028996187,
				"y": 3.2123953814,
				"z": 1.2463003965,
				"element": "O" 
			},
			{
				"x": 1.5573176957,
				"y": 1.8376023077,
				"z": 0.2017620625,
				"element": "O" 
			},
			{
				"x": -2.7700771757,
				"y": 0.4533568077,
				"z": 1.6181965461,
				"element": "C" 
			},
			{
				"x": -3.7940168882,
				"y": -0.4931660523,
				"z": 1.7220159429,
				"element": "C" 
			},
			{
				"x": -4.0457497479,
				"y": -1.3880540778,
				"z": 0.6874292568,
				"element": "C" 
			},
			{
				"x": -2.9491580841,
				"y": -2.0741352462,
				"z": -2.2089753478,
				"element": "H" 
			},
			{
				"x": -1.640880759,
				"y": -0.3425314221,
				"z": -1.4901699577,
				"element": "H" 
			},
			{
				"x": -0.9759262592,
				"y": 2.3210832985,
				"z": 1.06422563,
				"element": "H" 
			},
			{
				"x": -0.8455016364,
				"y": 1.9665528694,
				"z": -0.6538433809,
				"element": "H" 
			},
			{
				"x": 0.6602284475,
				"y": 0.0313328651,
				"z": -0.1454269381,
				"element": "H" 
			},
			{
				"x": 1.5293221137,
				"y": -0.4069707491,
				"z": 2.0066838396,
				"element": "H" 
			},
			{
				"x": -0.0436692408,
				"y": 0.1796216162,
				"z": 2.5540627939,
				"element": "H" 
			},
			{
				"x": 2.3722036378,
				"y": 1.4769547616,
				"z": 3.2719684069,
				"element": "H" 
			},
			{
				"x": 0.8928676191,
				"y": 2.4023502005,
				"z": 3.0320812628,
				"element": "H" 
			},
			{
				"x": -2.5938997831,
				"y": 1.1541574931,
				"z": 2.4294923974,
				"element": "H" 
			},
			{
				"x": -4.4054251508,
				"y": -0.5293970966,
				"z": 2.6191536426,
				"element": "H" 
			},
			{
				"x": -4.8385306661,
				"y": -2.1257455838,
				"z": 0.7504884977,
				"element": "H" 
			}
		],
		 "valence_orbital": [ 
			{
				"type": "occ",
				"energy": -0.33413,
				"method": "rhf"
			},
			{
				"type": "occ",
				"energy": -0.29302,
				"method": "rhf"
			},
			{
				"type": "occ",
				"energy": -0.26411,
				"method": "rhf"
			},
			{
				"type": "occ",
				"energy": -0.25493,
				"method": "rhf"
			},
			{
				"type": "occ",
				"energy": -0.22929,
				"method": "rhf"
			},
			{
				"type": "unocc",
				"energy": -0.01375,
				"method": "rhf"
			},
			{
				"type": "unocc",
				"energy": 0.00305,
				"method": "rhf"
			},
			{
				"type": "unocc",
				"energy": 0.0135,
				"method": "rhf"
			},
			{
				"type": "unocc",
				"energy": 0.06341,
				"method": "rhf"
			},
			{
				"type": "unocc",
				"energy": 0.0706,
				"method": "rhf"
			}
		],
		"cosmo_sigma_profile": { 
			"-0.025": 0.0,
			"-0.024": 0.0,
			"-0.023": 0.0,
			"-0.022": 0.0,
			"-0.021": 0.0,
			"-0.02": 0.0,
			"-0.019": 0.0,
			"-0.018": 0.246832469701,
			"-0.017": 1.1251909593,
			"-0.016": 0.935243897746,
			"-0.015": 1.32775726986,
			"-0.014": 0.805693606632,
			"-0.013": 1.09390368074,
			"-0.012": 0.652662878642,
			"-0.011": 1.0833756378,
			"-0.01": 1.0958447449,
			"-0.009": 0.987504365982,
			"-0.008": 1.11706781876,
			"-0.007": 4.9561746788,
			"-0.006": 14.2078517321,
			"-0.005": 25.5983914997,
			"-0.004": 21.7306643882,
			"-0.003": 20.1401966975,
			"-0.002": 15.1217864522,
			"-0.001": 15.7629742837,
			"0.0": 9.35824926944,
			"0.001": 8.5779745025,
			"0.002": 8.39618116057,
			"0.003": 10.8563325301,
			"0.004": 12.2245037156,
			"0.005": 11.4214789344,
			"0.006": 9.7988819022,
			"0.007": 3.71195315435,
			"0.008": 4.00711411545,
			"0.009": 3.92675594699,
			"0.01": 6.28916649359,
			"0.011": 6.6449554543,
			"0.012": 7.06688736788,
			"0.013": 2.53991671765,
			"0.014": 0.0786900717107,
			"0.015": 0.0,
			"0.016": 0.0,
			"0.017": 0.0,
			"0.018": 0.0,
			"0.019": 0.0,
			"0.02": 0.0,
			"0.021": 0.0,
			"0.022": 0.0,
			"0.023": 0.0,
			"0.024": 0.0,
			"0.025": 0.0
		}
	}
}
