{
	 "smiles": "COC1=C(C)C=C2C(CC2=C1)C(O)=O", 
	 "Tm": 411.15, 
	 "num_atms": 26, 
	 "gaussian": { 
		 "optdone": 1, 
		 "sigma_profile": "yes", 
		 "theory": "DFT", 
		 "functional": "B3LYP", 
		 "basiset": "6-31G**", 
		 "properties": { 
			 "R2extent": 3680.3539, 
			 "electric_dipole_moment_norm": 1.58978252915, 
			 "electric_quadrupole_moment_norm": 15.5782038307, 
			 "total_energy": -652.046769174, 
			 "HOMO_LUMO_gap": 0.20631, 
			 "cosmo_polarized_energy": -10.95, 
			 "cosmo_cavitation_energy": 29.86, 
			 "cosmo_dispersion_energy": -21.53, 
			 "cosmo_repulsion_energy": 1.73, 
			 "cosmo_total_nonelectrostatic_energy": 10.06, 
			 "SMD_solvation_energy": 6.66 
		},
		"coords": [
			{
				"x": 4.2560943635,
				"y": -0.6146729453,
				"z": -1.7916977697,
				"element": "C" 
			},
			{
				"x": 3.3855312957,
				"y": 0.31563601,
				"z": -1.1712028846,
				"element": "O" 
			},
			{
				"x": 2.1766975921,
				"y": -0.1293274423,
				"z": -0.7053308314,
				"element": "C" 
			},
			{
				"x": 1.3836381422,
				"y": 0.8793628123,
				"z": -0.0949748891,
				"element": "C" 
			},
			{
				"x": 1.921517827,
				"y": 2.286845575,
				"z": -0.0172648366,
				"element": "C" 
			},
			{
				"x": 0.1223886122,
				"y": 0.553452752,
				"z": 0.4220343608,
				"element": "C" 
			},
			{
				"x": -0.2900813225,
				"y": -0.7675036587,
				"z": 0.3071842099,
				"element": "C" 
			},
			{
				"x": -1.4343689608,
				"y": -1.7429669063,
				"z": 0.5988244168,
				"element": "C" 
			},
			{
				"x": -0.5236299732,
				"y": -2.8497950163,
				"z": -0.0544761754,
				"element": "C" 
			},
			{
				"x": 0.4973509801,
				"y": -1.7433357164,
				"z": -0.28429567,
				"element": "C" 
			},
			{
				"x": 1.7505080047,
				"y": -1.4648088523,
				"z": -0.815688373,
				"element": "C" 
			},
			{
				"x": -1.7591750162,
				"y": -1.9369082661,
				"z": 2.0625752409,
				"element": "C" 
			},
			{
				"x": -2.499654189,
				"y": -0.9031092021,
				"z": 2.5362473058,
				"element": "O" 
			},
			{
				"x": -1.4075468019,
				"y": -2.8597333212,
				"z": 2.7642239307,
				"element": "O" 
			},
			{
				"x": 4.5446609151,
				"y": -1.4211426947,
				"z": -1.1050442955,
				"element": "H" 
			},
			{
				"x": 5.1462123492,
				"y": -0.0514449054,
				"z": -2.077080017,
				"element": "H" 
			},
			{
				"x": 3.8055297397,
				"y": -1.0556787458,
				"z": -2.6905038726,
				"element": "H" 
			},
			{
				"x": 2.8646079721,
				"y": 2.3238023589,
				"z": 0.5391109232,
				"element": "H" 
			},
			{
				"x": 1.2045249562,
				"y": 2.9487759736,
				"z": 0.4754556678,
				"element": "H" 
			},
			{
				"x": 2.13462836,
				"y": 2.6889756824,
				"z": -1.0138842771,
				"element": "H" 
			},
			{
				"x": -0.486230137,
				"y": 1.3224176676,
				"z": 0.8901942202,
				"element": "H" 
			},
			{
				"x": -2.362503114,
				"y": -1.5287153284,
				"z": 0.0561210061,
				"element": "H" 
			},
			{
				"x": -0.9485023617,
				"y": -3.3104826495,
				"z": -0.9525367504,
				"element": "H" 
			},
			{
				"x": -0.231091777,
				"y": -3.6328700827,
				"z": 0.649905943,
				"element": "H" 
			},
			{
				"x": 2.3682093817,
				"y": -2.2229092331,
				"z": -1.2825734247,
				"element": "H" 
			},
			{
				"x": -2.6350168381,
				"y": -1.0808638653,
				"z": 3.4823768421,
				"element": "H" 
			}
		],
		 "valence_orbital": [ 
			{
				"type": "occ",
				"energy": -0.31448,
				"method": "rhf"
			},
			{
				"type": "occ",
				"energy": -0.31126,
				"method": "rhf"
			},
			{
				"type": "occ",
				"energy": -0.27302,
				"method": "rhf"
			},
			{
				"type": "occ",
				"energy": -0.242,
				"method": "rhf"
			},
			{
				"type": "occ",
				"energy": -0.20778,
				"method": "rhf"
			},
			{
				"type": "unocc",
				"energy": -0.00147,
				"method": "rhf"
			},
			{
				"type": "unocc",
				"energy": 0.00481,
				"method": "rhf"
			},
			{
				"type": "unocc",
				"energy": 0.02435,
				"method": "rhf"
			},
			{
				"type": "unocc",
				"energy": 0.07989,
				"method": "rhf"
			},
			{
				"type": "unocc",
				"energy": 0.09991,
				"method": "rhf"
			}
		],
		"cosmo_sigma_profile": { 
			"-0.025": 0.0,
			"-0.024": 0.0,
			"-0.023": 0.0,
			"-0.022": 0.0,
			"-0.021": 0.0,
			"-0.02": 0.0,
			"-0.019": 0.0,
			"-0.018": 0.720619495833,
			"-0.017": 0.752943968665,
			"-0.016": 0.860423759483,
			"-0.015": 0.889547371599,
			"-0.014": 1.01446854148,
			"-0.013": 0.535013462962,
			"-0.012": 0.565219171927,
			"-0.011": 0.502872322301,
			"-0.01": 0.675655412589,
			"-0.009": 0.573333264889,
			"-0.008": 0.600205943539,
			"-0.007": 1.68973594336,
			"-0.006": 8.76330120674,
			"-0.005": 17.0525313188,
			"-0.004": 20.5876573971,
			"-0.003": 22.652566264,
			"-0.002": 18.6265768121,
			"-0.001": 19.075003685,
			"0.0": 21.7233509546,
			"0.001": 15.4452295313,
			"0.002": 12.1502036621,
			"0.003": 14.940702155,
			"0.004": 12.591329568,
			"0.005": 12.4924584725,
			"0.006": 6.70926083953,
			"0.007": 5.28669451355,
			"0.008": 4.63879522893,
			"0.009": 3.45302505649,
			"0.01": 2.91821339983,
			"0.011": 3.92377608035,
			"0.012": 3.65254813744,
			"0.013": 0.0490710650459,
			"0.014": 0.0,
			"0.015": 0.0,
			"0.016": 0.0,
			"0.017": 0.0,
			"0.018": 0.0,
			"0.019": 0.0,
			"0.02": 0.0,
			"0.021": 0.0,
			"0.022": 0.0,
			"0.023": 0.0,
			"0.024": 0.0,
			"0.025": 0.0
		}
	}
}
