{
	 "smiles": "NC1=NN2C(NC(=O)C=C2C(F)(F)F)=C1N=NC1=C(Cl)C=C(Cl)C=C1Cl", 
	 "Tm": 548.15, 
	 "num_atms": 32, 
	 "gaussian": { 
		 "optdone": 1, 
		 "sigma_profile": "yes", 
		 "theory": "DFT", 
		 "functional": "B3LYP", 
		 "basiset": "6-31G**", 
		 "properties": { 
			 "R2extent": 17569.8632, 
			 "electric_dipole_moment_norm": 2.22781322601, 
			 "electric_quadrupole_moment_norm": 7.80590656811, 
			 "total_energy": -2582.77172828, 
			 "HOMO_LUMO_gap": 0.13331, 
			 "cosmo_polarized_energy": -16.05, 
			 "cosmo_cavitation_energy": 45.85, 
			 "cosmo_dispersion_energy": -32.21, 
			 "cosmo_repulsion_energy": 2.37, 
			 "cosmo_total_nonelectrostatic_energy": 16.01, 
			 "SMD_solvation_energy": 7.16 
		},
		"coords": [
			{
				"x": 0.6927079039,
				"y": -0.8589081015,
				"z": 0.4807201597,
				"element": "N" 
			},
			{
				"x": -0.5474020125,
				"y": -0.3360257361,
				"z": 0.5893640799,
				"element": "C" 
			},
			{
				"x": -1.4859276145,
				"y": -0.8499278059,
				"z": 1.3764332646,
				"element": "N" 
			},
			{
				"x": -2.5908091473,
				"y": -0.0300220789,
				"z": 1.1607793603,
				"element": "N" 
			},
			{
				"x": -2.3418601319,
				"y": 0.970933581,
				"z": 0.2679469467,
				"element": "C" 
			},
			{
				"x": -3.3247923719,
				"y": 1.8525396888,
				"z": -0.0418254212,
				"element": "N" 
			},
			{
				"x": -4.625658657,
				"y": 1.8094303585,
				"z": 0.5105264227,
				"element": "C" 
			},
			{
				"x": -5.4653615319,
				"y": 2.6328556173,
				"z": 0.1906786866,
				"element": "O" 
			},
			{
				"x": -4.8155782137,
				"y": 0.7105542649,
				"z": 1.4586283861,
				"element": "C" 
			},
			{
				"x": -3.8217329412,
				"y": -0.1643692304,
				"z": 1.7570142341,
				"element": "C" 
			},
			{
				"x": -4.0041902037,
				"y": -1.3083167314,
				"z": 2.7374752027,
				"element": "C" 
			},
			{
				"x": -5.2592330804,
				"y": -1.2968695556,
				"z": 3.2267563021,
				"element": "F" 
			},
			{
				"x": -3.8035809402,
				"y": -2.4938390052,
				"z": 2.1434585047,
				"element": "F" 
			},
			{
				"x": -3.1572467193,
				"y": -1.20039215,
				"z": 3.7721126196,
				"element": "F" 
			},
			{
				"x": -1.0150657149,
				"y": 0.8276976102,
				"z": -0.1457064768,
				"element": "C" 
			},
			{
				"x": -0.4145535146,
				"y": 1.6772381009,
				"z": -1.0235382308,
				"element": "N" 
			},
			{
				"x": 0.8064548646,
				"y": 1.41590397,
				"z": -1.2826279794,
				"element": "N" 
			},
			{
				"x": 1.4228999225,
				"y": 2.2713538016,
				"z": -2.2139621095,
				"element": "C" 
			},
			{
				"x": 0.8496436447,
				"y": 2.7770870265,
				"z": -3.4034046476,
				"element": "C" 
			},
			{
				"x": -0.7897582994,
				"y": 2.386319026,
				"z": -3.8832229739,
				"element": "Cl" 
			},
			{
				"x": 1.5826744926,
				"y": 3.5552007304,
				"z": -4.2982547667,
				"element": "C" 
			},
			{
				"x": 2.9137964206,
				"y": 3.8488044602,
				"z": -4.0169575354,
				"element": "C" 
			},
			{
				"x": 3.83143221,
				"y": 4.8342697657,
				"z": -5.1343786205,
				"element": "Cl" 
			},
			{
				"x": 3.5316070165,
				"y": 3.361703683,
				"z": -2.8676504412,
				"element": "C" 
			},
			{
				"x": 2.7851704235,
				"y": 2.5762671788,
				"z": -1.9972918402,
				"element": "C" 
			},
			{
				"x": 3.5808534005,
				"y": 1.9782845642,
				"z": -0.5546128777,
				"element": "Cl" 
			},
			{
				"x": 0.9795451026,
				"y": -1.5750783428,
				"z": 1.1289614701,
				"element": "H" 
			},
			{
				"x": 1.3747581674,
				"y": -0.3196692385,
				"z": -0.0348605723,
				"element": "H" 
			},
			{
				"x": -3.1239326745,
				"y": 2.5877077308,
				"z": -0.7108823314,
				"element": "H" 
			},
			{
				"x": -5.787871901,
				"y": 0.6167804717,
				"z": 1.9193499037,
				"element": "H" 
			},
			{
				"x": 1.1167789949,
				"y": 3.9175402343,
				"z": -5.2059374754,
				"element": "H" 
			},
			{
				"x": 4.5681331057,
				"y": 3.5869461115,
				"z": -2.6515912438,
				"element": "H" 
			}
		],
		 "valence_orbital": [ 
			{
				"type": "occ",
				"energy": -0.28388,
				"method": "rhf"
			},
			{
				"type": "occ",
				"energy": -0.26765,
				"method": "rhf"
			},
			{
				"type": "occ",
				"energy": -0.25126,
				"method": "rhf"
			},
			{
				"type": "occ",
				"energy": -0.2351,
				"method": "rhf"
			},
			{
				"type": "occ",
				"energy": -0.22852,
				"method": "rhf"
			},
			{
				"type": "unocc",
				"energy": -0.09521,
				"method": "rhf"
			},
			{
				"type": "unocc",
				"energy": -0.07127,
				"method": "rhf"
			},
			{
				"type": "unocc",
				"energy": -0.04129,
				"method": "rhf"
			},
			{
				"type": "unocc",
				"energy": -0.02003,
				"method": "rhf"
			},
			{
				"type": "unocc",
				"energy": -0.01885,
				"method": "rhf"
			}
		],
		"cosmo_sigma_profile": { 
			"-0.025": 0.0,
			"-0.024": 0.0,
			"-0.023": 0.0,
			"-0.022": 0.0,
			"-0.021": 0.0,
			"-0.02": 0.0,
			"-0.019": 0.0,
			"-0.018": 0.0,
			"-0.017": 0.088286223704,
			"-0.016": 0.508567187336,
			"-0.015": 1.33423134599,
			"-0.014": 1.92407666752,
			"-0.013": 1.53891133479,
			"-0.012": 1.76880779215,
			"-0.011": 2.35719419248,
			"-0.01": 1.82282892815,
			"-0.009": 5.38179642709,
			"-0.008": 7.6024066517,
			"-0.007": 8.0490960044,
			"-0.006": 10.9022682412,
			"-0.005": 13.2516780731,
			"-0.004": 17.9274299965,
			"-0.003": 19.4379300736,
			"-0.002": 23.9266272849,
			"-0.001": 32.2695148328,
			"0.0": 48.2816175085,
			"0.001": 44.0670130742,
			"0.002": 41.8491980444,
			"0.003": 30.5905632375,
			"0.004": 24.4060699196,
			"0.005": 6.30014013517,
			"0.006": 5.10159040673,
			"0.007": 3.2929526216,
			"0.008": 3.81901043009,
			"0.009": 3.40447760368,
			"0.01": 3.80229121799,
			"0.011": 3.72792882971,
			"0.012": 6.27674656582,
			"0.013": 2.19338645256,
			"0.014": 0.00499241987549,
			"0.015": 0.0,
			"0.016": 0.0,
			"0.017": 0.0,
			"0.018": 0.0,
			"0.019": 0.0,
			"0.02": 0.0,
			"0.021": 0.0,
			"0.022": 0.0,
			"0.023": 0.0,
			"0.024": 0.0,
			"0.025": 0.0
		}
	}
}
