{
	 "smiles": "NC1=NC(=CN=N1)C1=C(OC(F)F)C=CC=C1", 
	 "Tm": 433.15, 
	 "num_atms": 25, 
	 "gaussian": { 
		 "optdone": 1, 
		 "sigma_profile": "yes", 
		 "theory": "DFT", 
		 "functional": "B3LYP", 
		 "basiset": "6-31G**", 
		 "properties": { 
			 "R2extent": 5576.3724, 
			 "electric_dipole_moment_norm": 5.16776222944, 
			 "electric_quadrupole_moment_norm": 12.0838120541, 
			 "total_energy": -879.758472972, 
			 "HOMO_LUMO_gap": 0.15166, 
			 "cosmo_polarized_energy": -15.25, 
			 "cosmo_cavitation_energy": 31.02, 
			 "cosmo_dispersion_energy": -22.46, 
			 "cosmo_repulsion_energy": 1.7, 
			 "cosmo_total_nonelectrostatic_energy": 10.26, 
			 "SMD_solvation_energy": 3.75 
		},
		"coords": [
			{
				"x": 0.3822885791,
				"y": 2.4784658577,
				"z": 1.8940345899,
				"element": "N" 
			},
			{
				"x": -0.074357604,
				"y": 1.8234549875,
				"z": 0.7914122402,
				"element": "C" 
			},
			{
				"x": 0.3981829779,
				"y": 0.5865358611,
				"z": 0.5617366597,
				"element": "N" 
			},
			{
				"x": -0.0275979222,
				"y": -0.0036293751,
				"z": -0.559207684,
				"element": "C" 
			},
			{
				"x": -0.9349188034,
				"y": 0.6820001871,
				"z": -1.3929231012,
				"element": "C" 
			},
			{
				"x": -1.3797864956,
				"y": 1.9014260861,
				"z": -1.0829122279,
				"element": "N" 
			},
			{
				"x": -0.9524928984,
				"y": 2.5013222989,
				"z": 0.0163080558,
				"element": "N" 
			},
			{
				"x": 0.4590679141,
				"y": -1.3883543297,
				"z": -0.7992174375,
				"element": "C" 
			},
			{
				"x": 0.5488289628,
				"y": -1.9944501098,
				"z": -2.0695880661,
				"element": "C" 
			},
			{
				"x": 0.1569888637,
				"y": -1.2467480351,
				"z": -3.1695185344,
				"element": "O" 
			},
			{
				"x": 0.8206906851,
				"y": -1.4299550475,
				"z": -4.3613902071,
				"element": "C" 
			},
			{
				"x": 0.5862670337,
				"y": -0.3373371597,
				"z": -5.1053828171,
				"element": "F" 
			},
			{
				"x": 0.3120634289,
				"y": -2.5010408598,
				"z": -5.036287797,
				"element": "F" 
			},
			{
				"x": 1.0091129256,
				"y": -3.3054020153,
				"z": -2.2160143385,
				"element": "C" 
			},
			{
				"x": 1.411693639,
				"y": -4.0287441131,
				"z": -1.0942361894,
				"element": "C" 
			},
			{
				"x": 1.3473587986,
				"y": -3.4481980444,
				"z": 0.1722490313,
				"element": "C" 
			},
			{
				"x": 0.8753611746,
				"y": -2.146841804,
				"z": 0.3082354794,
				"element": "C" 
			},
			{
				"x": -0.1024314284,
				"y": 3.3192953118,
				"z": 2.1644858615,
				"element": "H" 
			},
			{
				"x": 0.8661602154,
				"y": 1.9427499752,
				"z": 2.5957773742,
				"element": "H" 
			},
			{
				"x": -1.3257369836,
				"y": 0.2531529613,
				"z": -2.3045618825,
				"element": "H" 
			},
			{
				"x": 1.8975869915,
				"y": -1.5824907858,
				"z": -4.2258642566,
				"element": "H" 
			},
			{
				"x": 1.0262498699,
				"y": -3.7601192962,
				"z": -3.1988096977,
				"element": "H" 
			},
			{
				"x": 1.7648635127,
				"y": -5.0482264954,
				"z": -1.216537641,
				"element": "H" 
			},
			{
				"x": 1.6554792076,
				"y": -4.0078623623,
				"z": 1.0496780376,
				"element": "H" 
			},
			{
				"x": 0.8227773554,
				"y": -1.6763036935,
				"z": 1.2831345486,
				"element": "H" 
			}
		],
		 "valence_orbital": [ 
			{
				"type": "occ",
				"energy": -0.31237,
				"method": "rhf"
			},
			{
				"type": "occ",
				"energy": -0.26649,
				"method": "rhf"
			},
			{
				"type": "occ",
				"energy": -0.25573,
				"method": "rhf"
			},
			{
				"type": "occ",
				"energy": -0.2352,
				"method": "rhf"
			},
			{
				"type": "occ",
				"energy": -0.2239,
				"method": "rhf"
			},
			{
				"type": "unocc",
				"energy": -0.07224,
				"method": "rhf"
			},
			{
				"type": "unocc",
				"energy": -0.02368,
				"method": "rhf"
			},
			{
				"type": "unocc",
				"energy": -0.01626,
				"method": "rhf"
			},
			{
				"type": "unocc",
				"energy": 0.01423,
				"method": "rhf"
			},
			{
				"type": "unocc",
				"energy": 0.08146,
				"method": "rhf"
			}
		],
		"cosmo_sigma_profile": { 
			"-0.025": 0.0,
			"-0.024": 0.0,
			"-0.023": 0.0,
			"-0.022": 0.0,
			"-0.021": 0.0,
			"-0.02": 0.0,
			"-0.019": 0.0,
			"-0.018": 0.0,
			"-0.017": 0.0,
			"-0.016": 0.0,
			"-0.015": 0.0621140713111,
			"-0.014": 2.00285112262,
			"-0.013": 2.18509207076,
			"-0.012": 2.07888498265,
			"-0.011": 2.57503146385,
			"-0.01": 4.86073875746,
			"-0.009": 4.21810949359,
			"-0.008": 3.93938932894,
			"-0.007": 6.27301363671,
			"-0.006": 10.6154902592,
			"-0.005": 12.1816962259,
			"-0.004": 12.1292564522,
			"-0.003": 12.1091920034,
			"-0.002": 15.0115705631,
			"-0.001": 17.7077437613,
			"0.0": 16.9483845624,
			"0.001": 18.9624162332,
			"0.002": 22.6504521389,
			"0.003": 34.4202544041,
			"0.004": 17.6187777796,
			"0.005": 4.10803819657,
			"0.006": 3.73403571037,
			"0.007": 3.56843553093,
			"0.008": 3.18424321266,
			"0.009": 2.19234062827,
			"0.01": 3.21194157391,
			"0.011": 1.33120794738,
			"0.012": 2.59101666044,
			"0.013": 3.05524477059,
			"0.014": 2.21543769046,
			"0.015": 1.68855082504,
			"0.016": 0.269816366229,
			"0.017": 0.0,
			"0.018": 0.0,
			"0.019": 0.0,
			"0.02": 0.0,
			"0.021": 0.0,
			"0.022": 0.0,
			"0.023": 0.0,
			"0.024": 0.0,
			"0.025": 0.0
		}
	}
}
