{
	 "smiles": "CCOC(=O)C1=C(NC(=O)CN2CCN(CC2)C2=CC=CC=C2)SC2=C1CCCC2", 
	 "Tm": 461.15, 
	 "num_atms": 59, 
	 "gaussian": { 
		 "optdone": 1, 
		 "sigma_profile": "yes", 
		 "theory": "DFT", 
		 "functional": "B3LYP", 
		 "basiset": "6-31G**", 
		 "properties": { 
			 "R2extent": 20170.5875, 
			 "electric_dipole_moment_norm": 1.9621422451, 
			 "electric_quadrupole_moment_norm": 12.6893440949, 
			 "total_energy": -1682.05117055, 
			 "HOMO_LUMO_gap": 0.13753, 
			 "cosmo_polarized_energy": -15.4, 
			 "cosmo_cavitation_energy": 59.19, 
			 "cosmo_dispersion_energy": -41.85, 
			 "cosmo_repulsion_energy": 3.12, 
			 "cosmo_total_nonelectrostatic_energy": 20.46, 
			 "SMD_solvation_energy": 8.24 
		},
		"coords": [
			{
				"x": 6.8852012473,
				"y": 0.2282632248,
				"z": -0.7066163263,
				"element": "C" 
			},
			{
				"x": 6.2319812249,
				"y": -0.4981067562,
				"z": 0.4587769938,
				"element": "C" 
			},
			{
				"x": 4.8453795838,
				"y": -0.1033641239,
				"z": 0.6174942183,
				"element": "O" 
			},
			{
				"x": 4.6050068821,
				"y": 1.0210262924,
				"z": 1.3596241748,
				"element": "C" 
			},
			{
				"x": 5.5122549483,
				"y": 1.6668377236,
				"z": 1.8524210586,
				"element": "O" 
			},
			{
				"x": 3.17275235,
				"y": 1.3502792941,
				"z": 1.4729639288,
				"element": "C" 
			},
			{
				"x": 2.1132260445,
				"y": 0.5725617987,
				"z": 1.0022729941,
				"element": "C" 
			},
			{
				"x": 2.2316702998,
				"y": -0.6320576208,
				"z": 0.3247588967,
				"element": "N" 
			},
			{
				"x": 1.4258242227,
				"y": -1.7525802352,
				"z": 0.1926970632,
				"element": "C" 
			},
			{
				"x": 1.8640882979,
				"y": -2.7185433035,
				"z": -0.4197364384,
				"element": "O" 
			},
			{
				"x": 0.0241455724,
				"y": -1.7699888324,
				"z": 0.7921206603,
				"element": "C" 
			},
			{
				"x": -0.9192828844,
				"y": -0.9962486501,
				"z": -0.0108532899,
				"element": "N" 
			},
			{
				"x": -2.1896399809,
				"y": -0.8083974715,
				"z": 0.698275831,
				"element": "C" 
			},
			{
				"x": -3.2943116343,
				"y": -0.3458969524,
				"z": -0.2493058586,
				"element": "C" 
			},
			{
				"x": -3.5458112521,
				"y": -1.3610757263,
				"z": -1.265179718,
				"element": "N" 
			},
			{
				"x": -2.4282270885,
				"y": -2.2317779912,
				"z": -1.6093009436,
				"element": "C" 
			},
			{
				"x": -1.1034796001,
				"y": -1.4918105366,
				"z": -1.3927233027,
				"element": "C" 
			},
			{
				"x": -4.7961536876,
				"y": -1.5090998116,
				"z": -1.8515213235,
				"element": "C" 
			},
			{
				"x": -5.7771747433,
				"y": -0.4968564398,
				"z": -1.7482882939,
				"element": "C" 
			},
			{
				"x": -7.030171478,
				"y": -0.6553614543,
				"z": -2.335640744,
				"element": "C" 
			},
			{
				"x": -7.3514852744,
				"y": -1.8102065329,
				"z": -3.0504602818,
				"element": "C" 
			},
			{
				"x": -6.3874438545,
				"y": -2.813237895,
				"z": -3.1629245415,
				"element": "C" 
			},
			{
				"x": -5.1327152603,
				"y": -2.6762863602,
				"z": -2.5739499305,
				"element": "C" 
			},
			{
				"x": 0.581739293,
				"y": 1.3692856184,
				"z": 1.268277909,
				"element": "S" 
			},
			{
				"x": 1.3626792971,
				"y": 2.7107549991,
				"z": 2.0778502393,
				"element": "C" 
			},
			{
				"x": 2.7200559644,
				"y": 2.5756769962,
				"z": 2.1065824777,
				"element": "C" 
			},
			{
				"x": 3.5972570267,
				"y": 3.6301225284,
				"z": 2.745353157,
				"element": "C" 
			},
			{
				"x": 2.7798176141,
				"y": 4.6128502998,
				"z": 3.6014788199,
				"element": "C" 
			},
			{
				"x": 1.4915861492,
				"y": 5.0585468955,
				"z": 2.8980236707,
				"element": "C" 
			},
			{
				"x": 0.5667215741,
				"y": 3.8551528235,
				"z": 2.6449787152,
				"element": "C" 
			},
			{
				"x": 7.9058210067,
				"y": -0.1429315668,
				"z": -0.8475012863,
				"element": "H" 
			},
			{
				"x": 6.9342276789,
				"y": 1.3018034152,
				"z": -0.5103136243,
				"element": "H" 
			},
			{
				"x": 6.3291239619,
				"y": 0.0603190105,
				"z": -1.6337328385,
				"element": "H" 
			},
			{
				"x": 6.1859581577,
				"y": -1.5760536538,
				"z": 0.2872258846,
				"element": "H" 
			},
			{
				"x": 6.7575891877,
				"y": -0.2992415158,
				"z": 1.3946942714,
				"element": "H" 
			},
			{
				"x": 3.1786097524,
				"y": -0.8111056531,
				"z": -0.0005435776,
				"element": "H" 
			},
			{
				"x": 0.0412787488,
				"y": -1.3393105264,
				"z": 1.7999923422,
				"element": "H" 
			},
			{
				"x": -0.2458177309,
				"y": -2.8352352288,
				"z": 0.8832218682,
				"element": "H" 
			},
			{
				"x": -2.0485393617,
				"y": -0.0594421352,
				"z": 1.4872421124,
				"element": "H" 
			},
			{
				"x": -2.5245584946,
				"y": -1.7403933534,
				"z": 1.1893383176,
				"element": "H" 
			},
			{
				"x": -4.2040643773,
				"y": -0.1921038979,
				"z": 0.3403525979,
				"element": "H" 
			},
			{
				"x": -3.0221041207,
				"y": 0.6280256074,
				"z": -0.6884929725,
				"element": "H" 
			},
			{
				"x": -2.4408521912,
				"y": -3.1727652642,
				"z": -1.0336803436,
				"element": "H" 
			},
			{
				"x": -2.4952950114,
				"y": -2.5059408595,
				"z": -2.6676352287,
				"element": "H" 
			},
			{
				"x": -1.0659499858,
				"y": -0.6405762566,
				"z": -2.0837901643,
				"element": "H" 
			},
			{
				"x": -0.2758390755,
				"y": -2.156687071,
				"z": -1.6519734156,
				"element": "H" 
			},
			{
				"x": -5.5520995309,
				"y": 0.4295602638,
				"z": -1.2321300964,
				"element": "H" 
			},
			{
				"x": -7.7590741748,
				"y": 0.1453617394,
				"z": -2.2402783429,
				"element": "H" 
			},
			{
				"x": -8.3284677963,
				"y": -1.9253881352,
				"z": -3.5090153466,
				"element": "H" 
			},
			{
				"x": -6.6139675856,
				"y": -3.7262263562,
				"z": -3.7075679057,
				"element": "H" 
			},
			{
				"x": -4.4223341415,
				"y": -3.4911442148,
				"z": -2.6543226823,
				"element": "H" 
			},
			{
				"x": 4.1371992269,
				"y": 4.172787984,
				"z": 1.9572335298,
				"element": "H" 
			},
			{
				"x": 4.376000623,
				"y": 3.1540690814,
				"z": 3.3448875423,
				"element": "H" 
			},
			{
				"x": 2.5172242265,
				"y": 4.1331859882,
				"z": 4.5541623553,
				"element": "H" 
			},
			{
				"x": 3.3998139579,
				"y": 5.4813177687,
				"z": 3.8497363159,
				"element": "H" 
			},
			{
				"x": 1.7428315665,
				"y": 5.5301477622,
				"z": 1.9391980768,
				"element": "H" 
			},
			{
				"x": 0.9629866805,
				"y": 5.8100714331,
				"z": 3.4949022032,
				"element": "H" 
			},
			{
				"x": -0.2471476444,
				"y": 4.1371406342,
				"z": 1.9654804885,
				"element": "H" 
			},
			{
				"x": 0.0874555928,
				"y": 3.5516931997,
				"z": 3.5874601039,
				"element": "H" 
			}
		],
		 "valence_orbital": [ 
			{
				"type": "occ",
				"energy": -0.25364,
				"method": "rhf"
			},
			{
				"type": "occ",
				"energy": -0.23876,
				"method": "rhf"
			},
			{
				"type": "occ",
				"energy": -0.22328,
				"method": "rhf"
			},
			{
				"type": "occ",
				"energy": -0.20815,
				"method": "rhf"
			},
			{
				"type": "occ",
				"energy": -0.18425,
				"method": "rhf"
			},
			{
				"type": "unocc",
				"energy": -0.04672,
				"method": "rhf"
			},
			{
				"type": "unocc",
				"energy": 0.00479,
				"method": "rhf"
			},
			{
				"type": "unocc",
				"energy": 0.00979,
				"method": "rhf"
			},
			{
				"type": "unocc",
				"energy": 0.01516,
				"method": "rhf"
			},
			{
				"type": "unocc",
				"energy": 0.02532,
				"method": "rhf"
			}
		],
		"cosmo_sigma_profile": { 
			"-0.025": 0.0,
			"-0.024": 0.0,
			"-0.023": 0.0,
			"-0.022": 0.0,
			"-0.021": 0.0,
			"-0.02": 0.0,
			"-0.019": 0.0,
			"-0.018": 0.0,
			"-0.017": 0.0,
			"-0.016": 0.0,
			"-0.015": 0.0,
			"-0.014": 0.0,
			"-0.013": 0.0,
			"-0.012": 0.0,
			"-0.011": 0.0,
			"-0.01": 0.0,
			"-0.009": 0.0,
			"-0.008": 0.0568660626959,
			"-0.007": 0.783264366697,
			"-0.006": 5.47892131582,
			"-0.005": 21.4798877962,
			"-0.004": 49.766979966,
			"-0.003": 67.5678967317,
			"-0.002": 64.548846249,
			"-0.001": 56.8338264004,
			"0.0": 43.3035359739,
			"0.001": 30.550414287,
			"0.002": 22.4649597914,
			"0.003": 20.1442119336,
			"0.004": 16.0508079077,
			"0.005": 13.429858652,
			"0.006": 12.674520197,
			"0.007": 11.8024705686,
			"0.008": 8.24557130686,
			"0.009": 3.47066436203,
			"0.01": 3.36348868291,
			"0.011": 3.60538154533,
			"0.012": 6.48381088951,
			"0.013": 3.96811762397,
			"0.014": 0.534883897715,
			"0.015": 0.0,
			"0.016": 0.0,
			"0.017": 0.0,
			"0.018": 0.0,
			"0.019": 0.0,
			"0.02": 0.0,
			"0.021": 0.0,
			"0.022": 0.0,
			"0.023": 0.0,
			"0.024": 0.0,
			"0.025": 0.0
		}
	}
}
