{
	 "smiles": "CN(C)C(=O)SCCCCOC1=CC=CC=C1", 
	 "Tm": 313.65, 
	 "num_atms": 36, 
	 "gaussian": { 
		 "optdone": 1, 
		 "sigma_profile": "yes", 
		 "theory": "DFT", 
		 "functional": "B3LYP", 
		 "basiset": "6-31G**", 
		 "properties": { 
			 "R2extent": 7764.245, 
			 "electric_dipole_moment_norm": 2.70194450535, 
			 "electric_quadrupole_moment_norm": 16.2840362896, 
			 "total_energy": -1110.23381555, 
			 "HOMO_LUMO_gap": 0.21591, 
			 "cosmo_polarized_energy": -11.72, 
			 "cosmo_cavitation_energy": 40.03, 
			 "cosmo_dispersion_energy": -28.38, 
			 "cosmo_repulsion_energy": 2.22, 
			 "cosmo_total_nonelectrostatic_energy": 13.87, 
			 "SMD_solvation_energy": 7.12 
		},
		"coords": [
			{
				"x": -3.6794232331,
				"y": -2.7069292288,
				"z": 1.0294573259,
				"element": "C" 
			},
			{
				"x": -3.7748475347,
				"y": -2.6742211516,
				"z": -0.4216755469,
				"element": "N" 
			},
			{
				"x": -5.1069709861,
				"y": -2.8567977781,
				"z": -0.9883221701,
				"element": "C" 
			},
			{
				"x": -2.7022520892,
				"y": -2.6844763697,
				"z": -1.2692973142,
				"element": "C" 
			},
			{
				"x": -2.7948611568,
				"y": -2.7292990949,
				"z": -2.4870482541,
				"element": "O" 
			},
			{
				"x": -1.0678282033,
				"y": -2.6217391795,
				"z": -0.4502762354,
				"element": "S" 
			},
			{
				"x": -0.0312099937,
				"y": -2.544996272,
				"z": -1.9648838089,
				"element": "C" 
			},
			{
				"x": 0.1046658284,
				"y": -1.1509718128,
				"z": -2.5841149157,
				"element": "C" 
			},
			{
				"x": 0.8550327124,
				"y": -0.1389485501,
				"z": -1.7110143424,
				"element": "C" 
			},
			{
				"x": 0.9624470459,
				"y": 1.2278516272,
				"z": -2.3889060707,
				"element": "C" 
			},
			{
				"x": 1.7239233362,
				"y": 2.1656996628,
				"z": -1.6276417941,
				"element": "O" 
			},
			{
				"x": 1.1389277365,
				"y": 2.8466267678,
				"z": -0.5965541925,
				"element": "C" 
			},
			{
				"x": -0.2001726741,
				"y": 2.7247825325,
				"z": -0.2031547161,
				"element": "C" 
			},
			{
				"x": -0.6793186484,
				"y": 3.4977871831,
				"z": 0.8594100973,
				"element": "C" 
			},
			{
				"x": 0.1542424912,
				"y": 4.3850179664,
				"z": 1.5365527908,
				"element": "C" 
			},
			{
				"x": 1.4913395131,
				"y": 4.4980402135,
				"z": 1.140404861,
				"element": "C" 
			},
			{
				"x": 1.9825409513,
				"y": 3.738089781,
				"z": 0.0847371431,
				"element": "C" 
			},
			{
				"x": -2.7473502828,
				"y": -2.2532451853,
				"z": 1.3686663407,
				"element": "H" 
			},
			{
				"x": -3.7379209226,
				"y": -3.7309389795,
				"z": 1.4222440236,
				"element": "H" 
			},
			{
				"x": -4.506557644,
				"y": -2.1278496484,
				"z": 1.4522666718,
				"element": "H" 
			},
			{
				"x": -5.5215262027,
				"y": -3.8333648549,
				"z": -0.7058939701,
				"element": "H" 
			},
			{
				"x": -5.0351201624,
				"y": -2.7981184662,
				"z": -2.0726224286,
				"element": "H" 
			},
			{
				"x": -5.7806780693,
				"y": -2.0744372913,
				"z": -0.6208534977,
				"element": "H" 
			},
			{
				"x": 0.9403124832,
				"y": -2.9408073013,
				"z": -1.6523394079,
				"element": "H" 
			},
			{
				"x": -0.482525369,
				"y": -3.2372717438,
				"z": -2.6773488066,
				"element": "H" 
			},
			{
				"x": -0.8978437783,
				"y": -0.7835916326,
				"z": -2.8304278497,
				"element": "H" 
			},
			{
				"x": 0.6322439718,
				"y": -1.2704559935,
				"z": -3.541550886,
				"element": "H" 
			},
			{
				"x": 0.3510074706,
				"y": -0.0355979686,
				"z": -0.7441748479,
				"element": "H" 
			},
			{
				"x": 1.8701027058,
				"y": -0.4994703072,
				"z": -1.501091864,
				"element": "H" 
			},
			{
				"x": -0.0300298292,
				"y": 1.6361759491,
				"z": -2.6219281142,
				"element": "H" 
			},
			{
				"x": 1.5055934384,
				"y": 1.1367063762,
				"z": -3.3351369288,
				"element": "H" 
			},
			{
				"x": -0.8713697955,
				"y": 2.0376648357,
				"z": -0.7043725694,
				"element": "H" 
			},
			{
				"x": -1.7196632055,
				"y": 3.3949608473,
				"z": 1.156048543,
				"element": "H" 
			},
			{
				"x": -0.2277182199,
				"y": 4.9786998669,
				"z": 2.3612457832,
				"element": "H" 
			},
			{
				"x": 2.1564850006,
				"y": 5.1847590229,
				"z": 1.6567446103,
				"element": "H" 
			},
			{
				"x": 3.0158233152,
				"y": 3.8164661778,
				"z": -0.2376476584,
				"element": "H" 
			}
		],
		 "valence_orbital": [ 
			{
				"type": "occ",
				"energy": -0.25969,
				"method": "rhf"
			},
			{
				"type": "occ",
				"energy": -0.25318,
				"method": "rhf"
			},
			{
				"type": "occ",
				"energy": -0.24375,
				"method": "rhf"
			},
			{
				"type": "occ",
				"energy": -0.2403,
				"method": "rhf"
			},
			{
				"type": "occ",
				"energy": -0.2109,
				"method": "rhf"
			},
			{
				"type": "unocc",
				"energy": 0.00501,
				"method": "rhf"
			},
			{
				"type": "unocc",
				"energy": 0.0198,
				"method": "rhf"
			},
			{
				"type": "unocc",
				"energy": 0.02602,
				"method": "rhf"
			},
			{
				"type": "unocc",
				"energy": 0.03187,
				"method": "rhf"
			},
			{
				"type": "unocc",
				"energy": 0.06784,
				"method": "rhf"
			}
		],
		"cosmo_sigma_profile": { 
			"-0.025": 0.0,
			"-0.024": 0.0,
			"-0.023": 0.0,
			"-0.022": 0.0,
			"-0.021": 0.0,
			"-0.02": 0.0,
			"-0.019": 0.0,
			"-0.018": 0.0,
			"-0.017": 0.0,
			"-0.016": 0.0,
			"-0.015": 0.0,
			"-0.014": 0.0,
			"-0.013": 0.0,
			"-0.012": 0.0,
			"-0.011": 0.0,
			"-0.01": 0.0,
			"-0.009": 0.0,
			"-0.008": 0.0,
			"-0.007": 0.531176652271,
			"-0.006": 8.64892746512,
			"-0.005": 28.3615792245,
			"-0.004": 36.2799149921,
			"-0.003": 42.6623213028,
			"-0.002": 36.1828088544,
			"-0.001": 23.0413224673,
			"0.0": 19.3499118996,
			"0.001": 17.7685342301,
			"0.002": 15.5651923422,
			"0.003": 16.3922616792,
			"0.004": 16.8975732489,
			"0.005": 15.8590454916,
			"0.006": 14.4901777075,
			"0.007": 7.58816646858,
			"0.008": 3.44211120724,
			"0.009": 2.97005392623,
			"0.01": 3.12101019845,
			"0.011": 2.43907240931,
			"0.012": 2.77333626232,
			"0.013": 2.62464131023,
			"0.014": 0.0,
			"0.015": 0.0,
			"0.016": 0.0,
			"0.017": 0.0,
			"0.018": 0.0,
			"0.019": 0.0,
			"0.02": 0.0,
			"0.021": 0.0,
			"0.022": 0.0,
			"0.023": 0.0,
			"0.024": 0.0,
			"0.025": 0.0
		}
	}
}
