{
	 "smiles": "NC1=C(C=CC=C1)C(=O)NCCO", 
	 "Tm": 366.15, 
	 "num_atms": 25, 
	 "gaussian": { 
		 "optdone": 1, 
		 "sigma_profile": "yes", 
		 "theory": "DFT", 
		 "functional": "B3LYP", 
		 "basiset": "6-31G**", 
		 "properties": { 
			 "R2extent": 2664.4146, 
			 "electric_dipole_moment_norm": 2.10418175308, 
			 "electric_quadrupole_moment_norm": 10.3977190701, 
			 "total_energy": -610.150829965, 
			 "HOMO_LUMO_gap": 0.16818, 
			 "cosmo_polarized_energy": -14.09, 
			 "cosmo_cavitation_energy": 28.12, 
			 "cosmo_dispersion_energy": -20.29, 
			 "cosmo_repulsion_energy": 1.63, 
			 "cosmo_total_nonelectrostatic_energy": 9.46, 
			 "SMD_solvation_energy": 4.27 
		},
		"coords": [
			{
				"x": 1.9289255431,
				"y": 1.8000651388,
				"z": -0.9489518069,
				"element": "N" 
			},
			{
				"x": 1.7885872905,
				"y": 0.4465804596,
				"z": -1.1593877017,
				"element": "C" 
			},
			{
				"x": 0.5342525403,
				"y": -0.2059311973,
				"z": -0.9860374999,
				"element": "C" 
			},
			{
				"x": 0.4400968738,
				"y": -1.5861628775,
				"z": -1.2382252372,
				"element": "C" 
			},
			{
				"x": 1.5464926178,
				"y": -2.3426965647,
				"z": -1.6024265923,
				"element": "C" 
			},
			{
				"x": 2.7891609486,
				"y": -1.7065472129,
				"z": -1.7163872656,
				"element": "C" 
			},
			{
				"x": 2.9084179516,
				"y": -0.3413617389,
				"z": -1.5018083034,
				"element": "C" 
			},
			{
				"x": -0.670691472,
				"y": 0.5873415439,
				"z": -0.6228529271,
				"element": "C" 
			},
			{
				"x": -0.8081811503,
				"y": 1.7741955255,
				"z": -0.9492340812,
				"element": "O" 
			},
			{
				"x": -1.6964759912,
				"y": -0.047851205,
				"z": 0.0598352262,
				"element": "N" 
			},
			{
				"x": -1.5183262409,
				"y": -0.9159782045,
				"z": 1.2289282279,
				"element": "C" 
			},
			{
				"x": -1.1186395639,
				"y": -0.1221828263,
				"z": 2.4810229312,
				"element": "C" 
			},
			{
				"x": -2.0232707655,
				"y": 0.9426594344,
				"z": 2.7455112732,
				"element": "O" 
			},
			{
				"x": 1.0728997608,
				"y": 2.3321781601,
				"z": -1.0592870891,
				"element": "H" 
			},
			{
				"x": 2.7675326366,
				"y": 2.2241458082,
				"z": -1.3156969058,
				"element": "H" 
			},
			{
				"x": -0.5366669802,
				"y": -2.0554036107,
				"z": -1.1760512368,
				"element": "H" 
			},
			{
				"x": 1.4463653337,
				"y": -3.4042678576,
				"z": -1.8029038323,
				"element": "H" 
			},
			{
				"x": 3.6701288213,
				"y": -2.2794731363,
				"z": -1.9930579399,
				"element": "H" 
			},
			{
				"x": 3.8741081465,
				"y": 0.1457462391,
				"z": -1.6131404748,
				"element": "H" 
			},
			{
				"x": -2.4633531265,
				"y": 0.6052808968,
				"z": 0.1870943294,
				"element": "H" 
			},
			{
				"x": -2.4723645071,
				"y": -1.4233176237,
				"z": 1.405642208,
				"element": "H" 
			},
			{
				"x": -0.7670855676,
				"y": -1.6795351375,
				"z": 1.0212151099,
				"element": "H" 
			},
			{
				"x": -0.0881515535,
				"y": 0.2461993531,
				"z": 2.3717201026,
				"element": "H" 
			},
			{
				"x": -1.1424307359,
				"y": -0.7850421444,
				"z": 3.3533834301,
				"element": "H" 
			},
			{
				"x": -1.7620308101,
				"y": 1.693858778,
				"z": 2.1977960556,
				"element": "H" 
			}
		],
		 "valence_orbital": [ 
			{
				"type": "occ",
				"energy": -0.28751,
				"method": "rhf"
			},
			{
				"type": "occ",
				"energy": -0.26835,
				"method": "rhf"
			},
			{
				"type": "occ",
				"energy": -0.25191,
				"method": "rhf"
			},
			{
				"type": "occ",
				"energy": -0.24423,
				"method": "rhf"
			},
			{
				"type": "occ",
				"energy": -0.20467,
				"method": "rhf"
			},
			{
				"type": "unocc",
				"energy": -0.03649,
				"method": "rhf"
			},
			{
				"type": "unocc",
				"energy": 0.00957,
				"method": "rhf"
			},
			{
				"type": "unocc",
				"energy": 0.04888,
				"method": "rhf"
			},
			{
				"type": "unocc",
				"energy": 0.06683,
				"method": "rhf"
			},
			{
				"type": "unocc",
				"energy": 0.0945,
				"method": "rhf"
			}
		],
		"cosmo_sigma_profile": { 
			"-0.025": 0.0,
			"-0.024": 0.0,
			"-0.023": 0.0,
			"-0.022": 0.0,
			"-0.021": 0.0,
			"-0.02": 0.0,
			"-0.019": 0.0,
			"-0.018": 0.0,
			"-0.017": 0.0,
			"-0.016": 0.0,
			"-0.015": 0.00435090270465,
			"-0.014": 0.593265489507,
			"-0.013": 1.27182191123,
			"-0.012": 2.46195499436,
			"-0.011": 3.02696922032,
			"-0.01": 3.74721477788,
			"-0.009": 3.55018010359,
			"-0.008": 5.09858420379,
			"-0.007": 4.13075148825,
			"-0.006": 7.01100267296,
			"-0.005": 17.6222752033,
			"-0.004": 23.8903712554,
			"-0.003": 19.0033448052,
			"-0.002": 13.8912365508,
			"-0.001": 10.2606450539,
			"0.0": 9.89301250092,
			"0.001": 10.786225763,
			"0.002": 9.56247356653,
			"0.003": 13.0363815235,
			"0.004": 11.4363097615,
			"0.005": 13.0089568528,
			"0.006": 9.33973585849,
			"0.007": 4.60851421775,
			"0.008": 2.80755955483,
			"0.009": 2.95013456857,
			"0.01": 3.13274374095,
			"0.011": 4.02678980943,
			"0.012": 3.41651452756,
			"0.013": 4.97469886384,
			"0.014": 2.86036505876,
			"0.015": 0.255825304419,
			"0.016": 0.0,
			"0.017": 0.0,
			"0.018": 0.0,
			"0.019": 0.0,
			"0.02": 0.0,
			"0.021": 0.0,
			"0.022": 0.0,
			"0.023": 0.0,
			"0.024": 0.0,
			"0.025": 0.0
		}
	}
}
