{
	 "smiles": "FC1=CC=CC(=C1)C(F)(F)F", 
	 "Tm": 191.65, 
	 "num_atms": 15, 
	 "gaussian": { 
		 "optdone": 1, 
		 "sigma_profile": "yes", 
		 "theory": "DFT", 
		 "functional": "B3LYP", 
		 "basiset": "6-31G**", 
		 "properties": { 
			 "R2extent": 2229.894, 
			 "electric_dipole_moment_norm": 2.15909657727, 
			 "electric_quadrupole_moment_norm": 3.90845311472, 
			 "total_energy": -668.516546591, 
			 "HOMO_LUMO_gap": 0.22555, 
			 "cosmo_polarized_energy": -3.57, 
			 "cosmo_cavitation_energy": 21.32, 
			 "cosmo_dispersion_energy": -15.15, 
			 "cosmo_repulsion_energy": 1.13, 
			 "cosmo_total_nonelectrostatic_energy": 7.31, 
			 "SMD_solvation_energy": 5.42 
		},
		"coords": [
			{
				"x": -2.3838685153,
				"y": -0.2400944735,
				"z": -3.0105184903,
				"element": "F" 
			},
			{
				"x": -1.4922285173,
				"y": 0.1767355855,
				"z": -2.0906621266,
				"element": "C" 
			},
			{
				"x": -0.2017061489,
				"y": 0.4959980197,
				"z": -2.4993104351,
				"element": "C" 
			},
			{
				"x": 0.7166905872,
				"y": 0.9216700359,
				"z": -1.5389243361,
				"element": "C" 
			},
			{
				"x": 0.3439588216,
				"y": 1.0245751765,
				"z": -0.1984344486,
				"element": "C" 
			},
			{
				"x": -0.9605426201,
				"y": 0.6976974192,
				"z": 0.1819604331,
				"element": "C" 
			},
			{
				"x": -1.8939485712,
				"y": 0.2687612326,
				"z": -0.7643454269,
				"element": "C" 
			},
			{
				"x": -1.3850118432,
				"y": 0.8637713696,
				"z": 1.6176593963,
				"element": "C" 
			},
			{
				"x": -0.3636491959,
				"y": 0.6339831717,
				"z": 2.471209758,
				"element": "F" 
			},
			{
				"x": -2.3896713243,
				"y": 0.0229977871,
				"z": 1.9463133618,
				"element": "F" 
			},
			{
				"x": -1.826065979,
				"y": 2.1193489855,
				"z": 1.8614859383,
				"element": "F" 
			},
			{
				"x": 0.0645578414,
				"y": 0.405438151,
				"z": -3.5467418926,
				"element": "H" 
			},
			{
				"x": 1.7295858238,
				"y": 1.1708205005,
				"z": -1.8389993918,
				"element": "H" 
			},
			{
				"x": 1.0593295918,
				"y": 1.347120183,
				"z": 0.5494323856,
				"element": "H" 
			},
			{
				"x": -2.9061299505,
				"y": 0.0032768556,
				"z": -0.4838247252,
				"element": "H" 
			}
		],
		 "valence_orbital": [ 
			{
				"type": "occ",
				"energy": -0.38685,
				"method": "rhf"
			},
			{
				"type": "occ",
				"energy": -0.37436,
				"method": "rhf"
			},
			{
				"type": "occ",
				"energy": -0.35818,
				"method": "rhf"
			},
			{
				"type": "occ",
				"energy": -0.27932,
				"method": "rhf"
			},
			{
				"type": "occ",
				"energy": -0.26228,
				"method": "rhf"
			},
			{
				"type": "unocc",
				"energy": -0.03673,
				"method": "rhf"
			},
			{
				"type": "unocc",
				"energy": -0.01729,
				"method": "rhf"
			},
			{
				"type": "unocc",
				"energy": 0.07914,
				"method": "rhf"
			},
			{
				"type": "unocc",
				"energy": 0.12306,
				"method": "rhf"
			},
			{
				"type": "unocc",
				"energy": 0.13083,
				"method": "rhf"
			}
		],
		"cosmo_sigma_profile": { 
			"-0.025": 0.0,
			"-0.024": 0.0,
			"-0.023": 0.0,
			"-0.022": 0.0,
			"-0.021": 0.0,
			"-0.02": 0.0,
			"-0.019": 0.0,
			"-0.018": 0.0,
			"-0.017": 0.0,
			"-0.016": 0.0,
			"-0.015": 0.0,
			"-0.014": 0.0,
			"-0.013": 0.0,
			"-0.012": 0.0,
			"-0.011": 0.0,
			"-0.01": 0.0,
			"-0.009": 0.132223394217,
			"-0.008": 2.43004792912,
			"-0.007": 7.41992762477,
			"-0.006": 6.72860448901,
			"-0.005": 9.03292037137,
			"-0.004": 6.02895018977,
			"-0.003": 7.84934815153,
			"-0.002": 7.52706020218,
			"-0.001": 10.7052083681,
			"0.0": 17.5113940146,
			"0.001": 21.0766930319,
			"0.002": 29.7380292376,
			"0.003": 34.6314131763,
			"0.004": 10.5461592657,
			"0.005": 0.610573041777,
			"0.006": 0.0,
			"0.007": 0.0,
			"0.008": 0.0,
			"0.009": 0.0,
			"0.01": 0.0,
			"0.011": 0.0,
			"0.012": 0.0,
			"0.013": 0.0,
			"0.014": 0.0,
			"0.015": 0.0,
			"0.016": 0.0,
			"0.017": 0.0,
			"0.018": 0.0,
			"0.019": 0.0,
			"0.02": 0.0,
			"0.021": 0.0,
			"0.022": 0.0,
			"0.023": 0.0,
			"0.024": 0.0,
			"0.025": 0.0
		}
	}
}
