{
	 "smiles": "COC1=C(OCCO)C=CC(=C1)C(C)N", 
	 "Tm": 377.15, 
	 "num_atms": 32, 
	 "gaussian": { 
		 "optdone": 1, 
		 "sigma_profile": "yes", 
		 "theory": "DFT", 
		 "functional": "B3LYP", 
		 "basiset": "6-31G**", 
		 "properties": { 
			 "R2extent": 4128.9196, 
			 "electric_dipole_moment_norm": 1.69828611253, 
			 "electric_quadrupole_moment_norm": 14.7037075658, 
			 "total_energy": -709.804770924, 
			 "HOMO_LUMO_gap": 0.21508, 
			 "cosmo_polarized_energy": -12.81, 
			 "cosmo_cavitation_energy": 33.86, 
			 "cosmo_dispersion_energy": -23.63, 
			 "cosmo_repulsion_energy": 1.89, 
			 "cosmo_total_nonelectrostatic_energy": 12.12, 
			 "SMD_solvation_energy": 5.27 
		},
		"coords": [
			{
				"x": 2.9648019536,
				"y": 0.6862828836,
				"z": -1.0289505697,
				"element": "C" 
			},
			{
				"x": 1.8976606624,
				"y": -0.262098058,
				"z": -1.1998000483,
				"element": "O" 
			},
			{
				"x": 0.9714887788,
				"y": -0.2801891816,
				"z": -0.1697765838,
				"element": "C" 
			},
			{
				"x": 1.2907676977,
				"y": -0.878803081,
				"z": 1.0620111665,
				"element": "C" 
			},
			{
				"x": 2.5707338468,
				"y": -1.3442253147,
				"z": 1.2553237694,
				"element": "O" 
			},
			{
				"x": 2.7471998057,
				"y": -2.7726728138,
				"z": 1.3058649276,
				"element": "C" 
			},
			{
				"x": 2.3707303849,
				"y": -3.4612632026,
				"z": -0.0044898553,
				"element": "C" 
			},
			{
				"x": 3.0831086974,
				"y": -2.9582633953,
				"z": -1.1121820946,
				"element": "O" 
			},
			{
				"x": 0.315925434,
				"y": -0.9381303558,
				"z": 2.0585156949,
				"element": "C" 
			},
			{
				"x": -0.9576835477,
				"y": -0.4151038287,
				"z": 1.8274877788,
				"element": "C" 
			},
			{
				"x": -1.2865289579,
				"y": 0.183377304,
				"z": 0.6053256116,
				"element": "C" 
			},
			{
				"x": -0.2994079374,
				"y": 0.2450299845,
				"z": -0.387401975,
				"element": "C" 
			},
			{
				"x": -2.6790075081,
				"y": 0.776223878,
				"z": 0.3781820347,
				"element": "C" 
			},
			{
				"x": -2.6678963753,
				"y": 2.3026811071,
				"z": 0.5481131619,
				"element": "C" 
			},
			{
				"x": -3.3042179193,
				"y": 0.4521681248,
				"z": -0.9101116223,
				"element": "N" 
			},
			{
				"x": 3.5529658756,
				"y": 0.4552680249,
				"z": -0.1366330705,
				"element": "H" 
			},
			{
				"x": 2.5620097936,
				"y": 1.7034026439,
				"z": -0.9593924511,
				"element": "H" 
			},
			{
				"x": 3.5916290454,
				"y": 0.6029797023,
				"z": -1.9187798887,
				"element": "H" 
			},
			{
				"x": 3.8130199784,
				"y": -2.904635592,
				"z": 1.5080412354,
				"element": "H" 
			},
			{
				"x": 2.1725398725,
				"y": -3.2013534687,
				"z": 2.1399493391,
				"element": "H" 
			},
			{
				"x": 2.6169682972,
				"y": -4.525929348,
				"z": 0.0916839265,
				"element": "H" 
			},
			{
				"x": 1.2808451295,
				"y": -3.395507693,
				"z": -0.1547052187,
				"element": "H" 
			},
			{
				"x": 2.7594115969,
				"y": -2.0544323793,
				"z": -1.2667601428,
				"element": "H" 
			},
			{
				"x": 0.5644355093,
				"y": -1.3933191771,
				"z": 3.0127086115,
				"element": "H" 
			},
			{
				"x": -1.7075413691,
				"y": -0.4725949318,
				"z": 2.6128764272,
				"element": "H" 
			},
			{
				"x": -0.5070059739,
				"y": 0.6817562962,
				"z": -1.360281025,
				"element": "H" 
			},
			{
				"x": -3.3333307753,
				"y": 0.3594582154,
				"z": 1.1554501395,
				"element": "H" 
			},
			{
				"x": -3.6785456899,
				"y": 2.7010640357,
				"z": 0.4216578195,
				"element": "H" 
			},
			{
				"x": -2.2922433002,
				"y": 2.585707612,
				"z": 1.5353853937,
				"element": "H" 
			},
			{
				"x": -2.0169211337,
				"y": 2.7698203039,
				"z": -0.2008355497,
				"element": "H" 
			},
			{
				"x": -3.2369851202,
				"y": -0.5469693121,
				"z": -1.0902326186,
				"element": "H" 
			},
			{
				"x": -2.8079267519,
				"y": 0.9151710171,
				"z": -1.6686443235,
				"element": "H" 
			}
		],
		 "valence_orbital": [ 
			{
				"type": "occ",
				"energy": -0.28127,
				"method": "rhf"
			},
			{
				"type": "occ",
				"energy": -0.25895,
				"method": "rhf"
			},
			{
				"type": "occ",
				"energy": -0.2501,
				"method": "rhf"
			},
			{
				"type": "occ",
				"energy": -0.243,
				"method": "rhf"
			},
			{
				"type": "occ",
				"energy": -0.22496,
				"method": "rhf"
			},
			{
				"type": "unocc",
				"energy": -0.00988,
				"method": "rhf"
			},
			{
				"type": "unocc",
				"energy": -0.00334,
				"method": "rhf"
			},
			{
				"type": "unocc",
				"energy": 0.07409,
				"method": "rhf"
			},
			{
				"type": "unocc",
				"energy": 0.0841,
				"method": "rhf"
			},
			{
				"type": "unocc",
				"energy": 0.09945,
				"method": "rhf"
			}
		],
		"cosmo_sigma_profile": { 
			"-0.025": 0.0,
			"-0.024": 0.0,
			"-0.023": 0.0,
			"-0.022": 0.0,
			"-0.021": 0.0,
			"-0.02": 0.0,
			"-0.019": 0.0,
			"-0.018": 0.0,
			"-0.017": 0.0,
			"-0.016": 0.0,
			"-0.015": 0.0,
			"-0.014": 0.0,
			"-0.013": 0.0,
			"-0.012": 0.0,
			"-0.011": 0.0,
			"-0.01": 0.869093674725,
			"-0.009": 2.87298343185,
			"-0.008": 3.52989766388,
			"-0.007": 3.4767078847,
			"-0.006": 9.08086400222,
			"-0.005": 21.3531209588,
			"-0.004": 27.7843525277,
			"-0.003": 31.2512740289,
			"-0.002": 26.8533495863,
			"-0.001": 22.4977687633,
			"0.0": 17.2013130355,
			"0.001": 17.7426160624,
			"0.002": 12.4012526544,
			"0.003": 12.0775991328,
			"0.004": 12.4395147836,
			"0.005": 9.66506395668,
			"0.006": 4.89746564764,
			"0.007": 4.3587731768,
			"0.008": 3.68414232044,
			"0.009": 2.54677635826,
			"0.01": 3.67156075278,
			"0.011": 2.19615324077,
			"0.012": 2.84309784123,
			"0.013": 1.58017558049,
			"0.014": 2.55596649743,
			"0.015": 3.1238046326,
			"0.016": 0.261758685885,
			"0.017": 0.683705120886,
			"0.018": 0.541343722869,
			"0.019": 0.669040528756,
			"0.02": 0.015165109416,
			"0.021": 0.0,
			"0.022": 0.0,
			"0.023": 0.0,
			"0.024": 0.0,
			"0.025": 0.0
		}
	}
}
