{
	 "smiles": "CC1CC2C3CCC4=CC(=O)C=CC4(C)C3(F)C(O)CC2(C)C1C(=O)CO", 
	 "Tm": 490.15, 
	 "num_atms": 56, 
	 "gaussian": { 
		 "optdone": 1, 
		 "sigma_profile": "yes", 
		 "theory": "DFT", 
		 "functional": "B3LYP", 
		 "basiset": "6-31G**", 
		 "properties": { 
			 "R2extent": 9834.2298, 
			 "electric_dipole_moment_norm": 4.21369057953, 
			 "electric_quadrupole_moment_norm": 36.9952539148, 
			 "total_energy": -1256.51400108, 
			 "HOMO_LUMO_gap": 0.17622, 
			 "cosmo_polarized_energy": -22.9, 
			 "cosmo_cavitation_energy": 49.26, 
			 "cosmo_dispersion_energy": -33.35, 
			 "cosmo_repulsion_energy": 2.42, 
			 "cosmo_total_nonelectrostatic_energy": 18.34, 
			 "SMD_solvation_energy": 8.84 
		},
		"coords": [
			{
				"x": -1.2549669731,
				"y": 0.7918707055,
				"z": 3.1919762904,
				"element": "C" 
			},
			{
				"x": 0.0541083883,
				"y": 0.6190462789,
				"z": 2.4186776669,
				"element": "C" 
			},
			{
				"x": 0.1834009599,
				"y": 1.5487402426,
				"z": 1.1969132372,
				"element": "C" 
			},
			{
				"x": 1.1731579109,
				"y": 0.8675434735,
				"z": 0.2078563599,
				"element": "C" 
			},
			{
				"x": 0.6943304725,
				"y": 0.909333616,
				"z": -1.2700627808,
				"element": "C" 
			},
			{
				"x": 1.8794664522,
				"y": 1.0103191102,
				"z": -2.2660032009,
				"element": "C" 
			},
			{
				"x": 1.4550893013,
				"y": 0.7313373923,
				"z": -3.7361769384,
				"element": "C" 
			},
			{
				"x": -0.0208822115,
				"y": 0.9828556629,
				"z": -3.8650538596,
				"element": "C" 
			},
			{
				"x": -0.521066835,
				"y": 2.0251462209,
				"z": -4.5529642824,
				"element": "C" 
			},
			{
				"x": -1.9471668262,
				"y": 2.4014918829,
				"z": -4.515186932,
				"element": "C" 
			},
			{
				"x": -2.3944238558,
				"y": 3.3372908223,
				"z": -5.1744488123,
				"element": "O" 
			},
			{
				"x": -2.792837683,
				"y": 1.6078147623,
				"z": -3.599600425,
				"element": "C" 
			},
			{
				"x": -2.3123235447,
				"y": 0.5572005023,
				"z": -2.9199609357,
				"element": "C" 
			},
			{
				"x": -0.9055979774,
				"y": 0.0212160729,
				"z": -3.0806894611,
				"element": "C" 
			},
			{
				"x": -1.0736307936,
				"y": -1.2798655597,
				"z": -3.9352623005,
				"element": "C" 
			},
			{
				"x": -0.245755662,
				"y": -0.249218282,
				"z": -1.6511994487,
				"element": "C" 
			},
			{
				"x": -1.3100331223,
				"y": -0.2428571773,
				"z": -0.7095460441,
				"element": "F" 
			},
			{
				"x": 0.4437097535,
				"y": -1.631947224,
				"z": -1.4714770887,
				"element": "C" 
			},
			{
				"x": -0.5039146132,
				"y": -2.6733418696,
				"z": -1.3409109402,
				"element": "O" 
			},
			{
				"x": 1.514126709,
				"y": -1.6402972907,
				"z": -0.3467106911,
				"element": "C" 
			},
			{
				"x": 1.4373789126,
				"y": -0.5811318627,
				"z": 0.7757758208,
				"element": "C" 
			},
			{
				"x": 2.7886133441,
				"y": -0.6061140127,
				"z": 1.5226826881,
				"element": "C" 
			},
			{
				"x": 0.2387354707,
				"y": -0.7736396103,
				"z": 1.7848086549,
				"element": "C" 
			},
			{
				"x": 0.4213923514,
				"y": -1.8980443891,
				"z": 2.7808518794,
				"element": "C" 
			},
			{
				"x": 1.0103765306,
				"y": -1.7710571309,
				"z": 3.8402978649,
				"element": "O" 
			},
			{
				"x": -0.1476835518,
				"y": -3.285287079,
				"z": 2.4291088345,
				"element": "C" 
			},
			{
				"x": -1.1498555047,
				"y": -3.3069852914,
				"z": 1.4155128785,
				"element": "O" 
			},
			{
				"x": -2.122010486,
				"y": 0.5883076248,
				"z": 2.5512623701,
				"element": "H" 
			},
			{
				"x": -1.3564739022,
				"y": 1.8163097249,
				"z": 3.5659326654,
				"element": "H" 
			},
			{
				"x": -1.2983436533,
				"y": 0.1223215996,
				"z": 4.05745529,
				"element": "H" 
			},
			{
				"x": 0.8834512775,
				"y": 0.7899943317,
				"z": 3.1143666913,
				"element": "H" 
			},
			{
				"x": -0.7980731062,
				"y": 1.6504709639,
				"z": 0.7239502917,
				"element": "H" 
			},
			{
				"x": 0.510760769,
				"y": 2.5556115546,
				"z": 1.4773317573,
				"element": "H" 
			},
			{
				"x": 2.1248176803,
				"y": 1.4109657301,
				"z": 0.2333966252,
				"element": "H" 
			},
			{
				"x": 0.1005092049,
				"y": 1.8238399433,
				"z": -1.394434507,
				"element": "H" 
			},
			{
				"x": 2.283928253,
				"y": 2.0249518014,
				"z": -2.1899639885,
				"element": "H" 
			},
			{
				"x": 2.6910380091,
				"y": 0.3345233223,
				"z": -1.9789079854,
				"element": "H" 
			},
			{
				"x": 1.6843142556,
				"y": -0.3100255585,
				"z": -3.9949034954,
				"element": "H" 
			},
			{
				"x": 2.0198398097,
				"y": 1.36000878,
				"z": -4.4298962308,
				"element": "H" 
			},
			{
				"x": 0.1262640366,
				"y": 2.6772122027,
				"z": -5.1345258669,
				"element": "H" 
			},
			{
				"x": -3.8312339321,
				"y": 1.915807967,
				"z": -3.5165795927,
				"element": "H" 
			},
			{
				"x": -2.9657317315,
				"y": -0.0214535114,
				"z": -2.2760395389,
				"element": "H" 
			},
			{
				"x": -1.6166948912,
				"y": -1.0353304523,
				"z": -4.8507733745,
				"element": "H" 
			},
			{
				"x": -0.108865062,
				"y": -1.7075348728,
				"z": -4.2209735604,
				"element": "H" 
			},
			{
				"x": -1.6197644031,
				"y": -2.0376738747,
				"z": -3.3725430884,
				"element": "H" 
			},
			{
				"x": 0.9742792943,
				"y": -1.8519261944,
				"z": -2.4021937742,
				"element": "H" 
			},
			{
				"x": -0.8067017188,
				"y": -2.7262368275,
				"z": -0.4182281858,
				"element": "H" 
			},
			{
				"x": 2.4964338002,
				"y": -1.5289978901,
				"z": -0.8201230812,
				"element": "H" 
			},
			{
				"x": 1.522236454,
				"y": -2.6513436237,
				"z": 0.0760293298,
				"element": "H" 
			},
			{
				"x": 3.5973919372,
				"y": -0.3348949773,
				"z": 0.8356258722,
				"element": "H" 
			},
			{
				"x": 2.812701868,
				"y": 0.0962286409,
				"z": 2.3593512223,
				"element": "H" 
			},
			{
				"x": 3.0126080356,
				"y": -1.5987567875,
				"z": 1.9260399555,
				"element": "H" 
			},
			{
				"x": -0.6484069799,
				"y": -0.9900730378,
				"z": 1.1893565789,
				"element": "H" 
			},
			{
				"x": 0.6796775618,
				"y": -3.8969604576,
				"z": 2.0505469247,
				"element": "H" 
			},
			{
				"x": -0.4936579136,
				"y": -3.7541881436,
				"z": 3.3584097348,
				"element": "H" 
			},
			{
				"x": -1.9636418695,
				"y": -2.9331779438,
				"z": 1.7777229268,
				"element": "H" 
			}
		],
		 "valence_orbital": [ 
			{
				"type": "occ",
				"energy": -0.26533,
				"method": "rhf"
			},
			{
				"type": "occ",
				"energy": -0.26351,
				"method": "rhf"
			},
			{
				"type": "occ",
				"energy": -0.25676,
				"method": "rhf"
			},
			{
				"type": "occ",
				"energy": -0.24945,
				"method": "rhf"
			},
			{
				"type": "occ",
				"energy": -0.23211,
				"method": "rhf"
			},
			{
				"type": "unocc",
				"energy": -0.05589,
				"method": "rhf"
			},
			{
				"type": "unocc",
				"energy": -0.03669,
				"method": "rhf"
			},
			{
				"type": "unocc",
				"energy": 0.00365,
				"method": "rhf"
			},
			{
				"type": "unocc",
				"energy": 0.04037,
				"method": "rhf"
			},
			{
				"type": "unocc",
				"energy": 0.05664,
				"method": "rhf"
			}
		],
		"cosmo_sigma_profile": { 
			"-0.025": 0.0,
			"-0.024": 0.0,
			"-0.023": 0.0,
			"-0.022": 0.0,
			"-0.021": 0.0,
			"-0.02": 0.0,
			"-0.019": 0.0,
			"-0.018": 0.0289004743481,
			"-0.017": 0.766969685929,
			"-0.016": 1.44325266244,
			"-0.015": 0.816321218258,
			"-0.014": 0.894533884878,
			"-0.013": 0.931354188336,
			"-0.012": 1.27766605004,
			"-0.011": 1.22818514186,
			"-0.01": 1.1617546022,
			"-0.009": 1.30272776826,
			"-0.008": 2.88025915701,
			"-0.007": 7.82562548853,
			"-0.006": 13.2348643353,
			"-0.005": 18.9231871699,
			"-0.004": 24.3184336922,
			"-0.003": 40.7868914114,
			"-0.002": 44.1359662724,
			"-0.001": 46.4297449646,
			"0.0": 39.3181821222,
			"0.001": 30.7526224988,
			"0.002": 20.95896353,
			"0.003": 10.758866778,
			"0.004": 10.1357134328,
			"0.005": 8.45429627599,
			"0.006": 5.57610138119,
			"0.007": 6.10185083936,
			"0.008": 4.44970681801,
			"0.009": 5.09915403912,
			"0.01": 4.95126868283,
			"0.011": 6.87801556005,
			"0.012": 6.95863094965,
			"0.013": 7.51434331574,
			"0.014": 4.54367960875,
			"0.015": 1.29329826165,
			"0.016": 0.0,
			"0.017": 0.0,
			"0.018": 0.0,
			"0.019": 0.0,
			"0.02": 0.0,
			"0.021": 0.0,
			"0.022": 0.0,
			"0.023": 0.0,
			"0.024": 0.0,
			"0.025": 0.0
		}
	}
}
