{
	 "smiles": "OC(=O)C1=C(F)C(F)=CC=C1", 
	 "Tm": 436.15, 
	 "num_atms": 15, 
	 "gaussian": { 
		 "optdone": 1, 
		 "sigma_profile": "yes", 
		 "theory": "DFT", 
		 "functional": "B3LYP", 
		 "basiset": "6-31G**", 
		 "properties": { 
			 "R2extent": 1851.3823, 
			 "electric_dipole_moment_norm": 3.95944314898, 
			 "electric_quadrupole_moment_norm": 10.2829433632, 
			 "total_energy": -619.273606927, 
			 "HOMO_LUMO_gap": 0.20514, 
			 "cosmo_polarized_energy": -10.28, 
			 "cosmo_cavitation_energy": 20.69, 
			 "cosmo_dispersion_energy": -15.4, 
			 "cosmo_repulsion_energy": 1.18, 
			 "cosmo_total_nonelectrostatic_energy": 6.47, 
			 "SMD_solvation_energy": 5.72 
		},
		"coords": [
			{
				"x": -1.5266838793,
				"y": -1.1848907638,
				"z": 2.0455892225,
				"element": "O" 
			},
			{
				"x": -1.4454000347,
				"y": -0.520619855,
				"z": 0.8757318974,
				"element": "C" 
			},
			{
				"x": -2.4379643906,
				"y": -0.0703306643,
				"z": 0.3525570584,
				"element": "O" 
			},
			{
				"x": -0.0824826675,
				"y": -0.3604736561,
				"z": 0.2454970349,
				"element": "C" 
			},
			{
				"x": 1.1123939855,
				"y": -0.846629681,
				"z": 0.7779152499,
				"element": "C" 
			},
			{
				"x": 1.1353571228,
				"y": -1.530005544,
				"z": 1.9552604958,
				"element": "F" 
			},
			{
				"x": 2.3302656087,
				"y": -0.6546494361,
				"z": 0.1300784455,
				"element": "C" 
			},
			{
				"x": 3.4442409237,
				"y": -1.1464210933,
				"z": 0.6932585924,
				"element": "F" 
			},
			{
				"x": 2.3840046764,
				"y": 0.0324674148,
				"z": -1.073808096,
				"element": "C" 
			},
			{
				"x": 1.1984601655,
				"y": 0.5279172308,
				"z": -1.6247327387,
				"element": "C" 
			},
			{
				"x": -0.0150361307,
				"y": 0.3334953436,
				"z": -0.9737288423,
				"element": "C" 
			},
			{
				"x": -0.6512164181,
				"y": -1.4843074783,
				"z": 2.3370138266,
				"element": "H" 
			},
			{
				"x": 3.3457434985,
				"y": 0.1675059559,
				"z": -1.5568266242,
				"element": "H" 
			},
			{
				"x": 1.2296891144,
				"y": 1.0666892854,
				"z": -2.5658948098,
				"element": "H" 
			},
			{
				"x": -0.9473715746,
				"y": 0.7079529413,
				"z": -1.3807107123,
				"element": "H" 
			}
		],
		 "valence_orbital": [ 
			{
				"type": "occ",
				"energy": -0.36918,
				"method": "rhf"
			},
			{
				"type": "occ",
				"energy": -0.32046,
				"method": "rhf"
			},
			{
				"type": "occ",
				"energy": -0.28571,
				"method": "rhf"
			},
			{
				"type": "occ",
				"energy": -0.28325,
				"method": "rhf"
			},
			{
				"type": "occ",
				"energy": -0.27116,
				"method": "rhf"
			},
			{
				"type": "unocc",
				"energy": -0.06602,
				"method": "rhf"
			},
			{
				"type": "unocc",
				"energy": -0.02622,
				"method": "rhf"
			},
			{
				"type": "unocc",
				"energy": 0.04075,
				"method": "rhf"
			},
			{
				"type": "unocc",
				"energy": 0.04269,
				"method": "rhf"
			},
			{
				"type": "unocc",
				"energy": 0.09793,
				"method": "rhf"
			}
		],
		"cosmo_sigma_profile": { 
			"-0.025": 0.0,
			"-0.024": 0.0,
			"-0.023": 0.0,
			"-0.022": 0.0,
			"-0.021": 0.0,
			"-0.02": 0.0,
			"-0.019": 0.0,
			"-0.018": 0.0,
			"-0.017": 0.0,
			"-0.016": 0.0,
			"-0.015": 0.0,
			"-0.014": 0.249531373151,
			"-0.013": 0.368491310171,
			"-0.012": 1.06407905267,
			"-0.011": 0.979641389879,
			"-0.01": 2.37174744587,
			"-0.009": 2.78864500693,
			"-0.008": 4.86468978706,
			"-0.007": 6.95999936135,
			"-0.006": 8.14598572478,
			"-0.005": 6.52932752443,
			"-0.004": 9.16826214488,
			"-0.003": 10.0252228873,
			"-0.002": 12.8010059725,
			"-0.001": 13.9254118958,
			"0.0": 14.1259358319,
			"0.001": 13.5949593827,
			"0.002": 14.2194506015,
			"0.003": 13.5011584825,
			"0.004": 4.2394777626,
			"0.005": 2.05207333733,
			"0.006": 2.29216374152,
			"0.007": 2.37999073815,
			"0.008": 2.92373667074,
			"0.009": 3.42463640382,
			"0.01": 4.88548966867,
			"0.011": 5.53184528914,
			"0.012": 3.31939542221,
			"0.013": 0.784617376391,
			"0.014": 0.0,
			"0.015": 0.0,
			"0.016": 0.0,
			"0.017": 0.0,
			"0.018": 0.0,
			"0.019": 0.0,
			"0.02": 0.0,
			"0.021": 0.0,
			"0.022": 0.0,
			"0.023": 0.0,
			"0.024": 0.0,
			"0.025": 0.0
		}
	}
}
