{
	 "smiles": "CC1=C(C)C=C(C=C1)C1=C2C=CC=CC2=C(Cl)N=N1", 
	 "Tm": 515.15, 
	 "num_atms": 32, 
	 "gaussian": { 
		 "optdone": 1, 
		 "sigma_profile": "yes", 
		 "theory": "DFT", 
		 "functional": "B3LYP", 
		 "basiset": "6-31G**", 
		 "properties": { 
			 "R2extent": 8713.3339, 
			 "electric_dipole_moment_norm": 5.54312604313, 
			 "electric_quadrupole_moment_norm": 24.7350015361, 
			 "total_energy": -1187.22202032, 
			 "HOMO_LUMO_gap": 0.1602, 
			 "cosmo_polarized_energy": -12.86, 
			 "cosmo_cavitation_energy": 37.15, 
			 "cosmo_dispersion_energy": -27.14, 
			 "cosmo_repulsion_energy": 2.06, 
			 "cosmo_total_nonelectrostatic_energy": 12.07, 
			 "SMD_solvation_energy": 4.02 
		},
		"coords": [
			{
				"x": 3.5076829343,
				"y": 0.9022452074,
				"z": 0.63079753,
				"element": "C" 
			},
			{
				"x": 2.0776214187,
				"y": 0.6416973763,
				"z": 0.2250542188,
				"element": "C" 
			},
			{
				"x": 1.1118717387,
				"y": 1.6727300641,
				"z": 0.2649531429,
				"element": "C" 
			},
			{
				"x": 1.4855171112,
				"y": 3.0657474791,
				"z": 0.7129192576,
				"element": "C" 
			},
			{
				"x": -0.1999054083,
				"y": 1.3914597798,
				"z": -0.119425306,
				"element": "C" 
			},
			{
				"x": -0.5956406645,
				"y": 0.1100553984,
				"z": -0.5328517077,
				"element": "C" 
			},
			{
				"x": 0.3718442493,
				"y": -0.9022346546,
				"z": -0.582441928,
				"element": "C" 
			},
			{
				"x": 1.6865365094,
				"y": -0.629458713,
				"z": -0.2075336093,
				"element": "C" 
			},
			{
				"x": -1.9998957895,
				"y": -0.1121034624,
				"z": -0.9692834807,
				"element": "C" 
			},
			{
				"x": -2.7741115317,
				"y": -1.2622104479,
				"z": -0.5736096391,
				"element": "C" 
			},
			{
				"x": -2.3447888614,
				"y": -2.2359521523,
				"z": 0.3629552035,
				"element": "C" 
			},
			{
				"x": -3.1557605971,
				"y": -3.3069508359,
				"z": 0.678284197,
				"element": "C" 
			},
			{
				"x": -4.4260083207,
				"y": -3.4478194904,
				"z": 0.0784111029,
				"element": "C" 
			},
			{
				"x": -4.8866373806,
				"y": -2.4996413291,
				"z": -0.8108615394,
				"element": "C" 
			},
			{
				"x": -4.0757042262,
				"y": -1.3883618286,
				"z": -1.1387659015,
				"element": "C" 
			},
			{
				"x": -4.4711684953,
				"y": -0.3098554202,
				"z": -1.9881217224,
				"element": "C" 
			},
			{
				"x": -6.0596024204,
				"y": -0.3466207767,
				"z": -2.7480350429,
				"element": "Cl" 
			},
			{
				"x": -3.7548992862,
				"y": 0.7453165115,
				"z": -2.2438611873,
				"element": "N" 
			},
			{
				"x": -2.4946176472,
				"y": 0.8401660648,
				"z": -1.7443199592,
				"element": "N" 
			},
			{
				"x": 4.1160695506,
				"y": -0.0010072911,
				"z": 0.5371587244,
				"element": "H" 
			},
			{
				"x": 3.9677093346,
				"y": 1.681627537,
				"z": 0.0112631621,
				"element": "H" 
			},
			{
				"x": 3.5768404712,
				"y": 1.2466909384,
				"z": 1.6698832232,
				"element": "H" 
			},
			{
				"x": 0.6226190288,
				"y": 3.7351323588,
				"z": 0.6769828952,
				"element": "H" 
			},
			{
				"x": 1.8723959333,
				"y": 3.071252222,
				"z": 1.7393185723,
				"element": "H" 
			},
			{
				"x": 2.269452417,
				"y": 3.4967752869,
				"z": 0.0785836249,
				"element": "H" 
			},
			{
				"x": -0.9440590141,
				"y": 2.1815128425,
				"z": -0.1083246899,
				"element": "H" 
			},
			{
				"x": 0.11186792,
				"y": -1.8916243148,
				"z": -0.9454305398,
				"element": "H" 
			},
			{
				"x": 2.4295379119,
				"y": -1.4212349797,
				"z": -0.2613676335,
				"element": "H" 
			},
			{
				"x": -1.3795659053,
				"y": -2.1231836417,
				"z": 0.8408555799,
				"element": "H" 
			},
			{
				"x": -2.8178840034,
				"y": -4.0448215847,
				"z": 1.3998156308,
				"element": "H" 
			},
			{
				"x": -5.0500228624,
				"y": -4.2993771496,
				"z": 0.3322708685,
				"element": "H" 
			},
			{
				"x": -5.8703941146,
				"y": -2.5863509942,
				"z": -1.2564730473,
				"element": "H" 
			}
		],
		 "valence_orbital": [ 
			{
				"type": "occ",
				"energy": -0.28424,
				"method": "rhf"
			},
			{
				"type": "occ",
				"energy": -0.26025,
				"method": "rhf"
			},
			{
				"type": "occ",
				"energy": -0.24836,
				"method": "rhf"
			},
			{
				"type": "occ",
				"energy": -0.23756,
				"method": "rhf"
			},
			{
				"type": "occ",
				"energy": -0.23109,
				"method": "rhf"
			},
			{
				"type": "unocc",
				"energy": -0.07089,
				"method": "rhf"
			},
			{
				"type": "unocc",
				"energy": -0.05086,
				"method": "rhf"
			},
			{
				"type": "unocc",
				"energy": -0.01717,
				"method": "rhf"
			},
			{
				"type": "unocc",
				"energy": -0.00188,
				"method": "rhf"
			},
			{
				"type": "unocc",
				"energy": 0.0244,
				"method": "rhf"
			}
		],
		"cosmo_sigma_profile": { 
			"-0.025": 0.0,
			"-0.024": 0.0,
			"-0.023": 0.0,
			"-0.022": 0.0,
			"-0.021": 0.0,
			"-0.02": 0.0,
			"-0.019": 0.0,
			"-0.018": 0.0,
			"-0.017": 0.0,
			"-0.016": 0.0,
			"-0.015": 0.0,
			"-0.014": 0.0,
			"-0.013": 0.0,
			"-0.012": 0.0,
			"-0.011": 0.0,
			"-0.01": 0.0,
			"-0.009": 0.0,
			"-0.008": 0.867886263543,
			"-0.007": 6.30369026232,
			"-0.006": 10.6601326146,
			"-0.005": 17.1874906052,
			"-0.004": 27.3157202352,
			"-0.003": 26.1260320595,
			"-0.002": 30.3162470159,
			"-0.001": 32.1931054529,
			"0.0": 35.0170201589,
			"0.001": 26.1416246209,
			"0.002": 22.9972112432,
			"0.003": 14.1372958871,
			"0.004": 13.9228459303,
			"0.005": 11.5208932848,
			"0.006": 4.46738714748,
			"0.007": 3.04783702661,
			"0.008": 1.49739239718,
			"0.009": 2.58440211019,
			"0.01": 2.50302076912,
			"0.011": 2.15906384112,
			"0.012": 1.9544714024,
			"0.013": 3.15057924915,
			"0.014": 2.27686430483,
			"0.015": 1.37735606159,
			"0.016": 0.122090058074,
			"0.017": 0.0,
			"0.018": 0.0,
			"0.019": 0.0,
			"0.02": 0.0,
			"0.021": 0.0,
			"0.022": 0.0,
			"0.023": 0.0,
			"0.024": 0.0,
			"0.025": 0.0
		}
	}
}
