{
	 "smiles": "CC1=CC=CC=C1C=C(C#N)C1=NC2=C(C=CC=C2)C(=O)N1", 
	 "Tm": 531.15, 
	 "num_atms": 35, 
	 "gaussian": { 
		 "optdone": 1, 
		 "sigma_profile": "yes", 
		 "theory": "DFT", 
		 "functional": "B3LYP", 
		 "basiset": "6-31G**", 
		 "properties": { 
			 "R2extent": 7304.7584, 
			 "electric_dipole_moment_norm": 4.05116106567, 
			 "electric_quadrupole_moment_norm": 30.368294444, 
			 "total_energy": -933.232715037, 
			 "HOMO_LUMO_gap": 0.13928, 
			 "cosmo_polarized_energy": -19.29, 
			 "cosmo_cavitation_energy": 40.73, 
			 "cosmo_dispersion_energy": -27.73, 
			 "cosmo_repulsion_energy": 2.1, 
			 "cosmo_total_nonelectrostatic_energy": 15.1, 
			 "SMD_solvation_energy": 7.39 
		},
		"coords": [
			{
				"x": 3.3794754286,
				"y": -2.6460504543,
				"z": -1.1874409835,
				"element": "C" 
			},
			{
				"x": 1.9044438828,
				"y": -2.9409278738,
				"z": -1.0505053871,
				"element": "C" 
			},
			{
				"x": 1.4725016294,
				"y": -4.2285761579,
				"z": -0.7180916175,
				"element": "C" 
			},
			{
				"x": 0.1169171666,
				"y": -4.5336166005,
				"z": -0.5886530982,
				"element": "C" 
			},
			{
				"x": -0.8424247396,
				"y": -3.5419512261,
				"z": -0.795339479,
				"element": "C" 
			},
			{
				"x": -0.4363785122,
				"y": -2.2504727845,
				"z": -1.1180530532,
				"element": "C" 
			},
			{
				"x": 0.9293446934,
				"y": -1.9269508102,
				"z": -1.2363173848,
				"element": "C" 
			},
			{
				"x": 1.353532649,
				"y": -0.5799961332,
				"z": -1.6453077627,
				"element": "C" 
			},
			{
				"x": 0.8932053216,
				"y": 0.6410725888,
				"z": -1.2573003449,
				"element": "C" 
			},
			{
				"x": 1.4140589361,
				"y": 1.7839477911,
				"z": -1.9602039027,
				"element": "C" 
			},
			{
				"x": 1.8808810948,
				"y": 2.6667465255,
				"z": -2.5559611489,
				"element": "N" 
			},
			{
				"x": -0.0547981641,
				"y": 0.9763038664,
				"z": -0.161927152,
				"element": "C" 
			},
			{
				"x": -0.6655011462,
				"y": 2.1202611756,
				"z": -0.2149639155,
				"element": "N" 
			},
			{
				"x": -1.5199067751,
				"y": 2.4481460844,
				"z": 0.8256868834,
				"element": "C" 
			},
			{
				"x": -1.7392455277,
				"y": 1.5920425933,
				"z": 1.9327806948,
				"element": "C" 
			},
			{
				"x": -2.6143150332,
				"y": 1.9685293098,
				"z": 2.961608823,
				"element": "C" 
			},
			{
				"x": -3.2723592927,
				"y": 3.1882833,
				"z": 2.8963582381,
				"element": "C" 
			},
			{
				"x": -3.0593885545,
				"y": 4.0438920182,
				"z": 1.8002387149,
				"element": "C" 
			},
			{
				"x": -2.1959254133,
				"y": 3.6835832181,
				"z": 0.776802793,
				"element": "C" 
			},
			{
				"x": -1.0329316825,
				"y": 0.3074806253,
				"z": 1.9931953174,
				"element": "C" 
			},
			{
				"x": -1.1144648636,
				"y": -0.5292580856,
				"z": 2.8809510364,
				"element": "O" 
			},
			{
				"x": -0.1965695269,
				"y": 0.0945406861,
				"z": 0.8867694729,
				"element": "N" 
			},
			{
				"x": 3.6988591672,
				"y": -1.8365652572,
				"z": -0.5224281102,
				"element": "H" 
			},
			{
				"x": 3.6371886423,
				"y": -2.3396244196,
				"z": -2.209190022,
				"element": "H" 
			},
			{
				"x": 3.9761676453,
				"y": -3.5301684194,
				"z": -0.9510378508,
				"element": "H" 
			},
			{
				"x": 2.2147712203,
				"y": -5.005942759,
				"z": -0.5583883143,
				"element": "H" 
			},
			{
				"x": -0.1876859934,
				"y": -5.544108636,
				"z": -0.3331027194,
				"element": "H" 
			},
			{
				"x": -1.8999353641,
				"y": -3.7721534494,
				"z": -0.713062292,
				"element": "H" 
			},
			{
				"x": -1.1799505505,
				"y": -1.4831379165,
				"z": -1.3082992741,
				"element": "H" 
			},
			{
				"x": 2.1419725212,
				"y": -0.5531682399,
				"z": -2.3947398912,
				"element": "H" 
			},
			{
				"x": -2.7540096574,
				"y": 1.2864194683,
				"z": 3.7937736231,
				"element": "H" 
			},
			{
				"x": -3.9508222177,
				"y": 3.4845037419,
				"z": 3.6904814665,
				"element": "H" 
			},
			{
				"x": -3.5763464756,
				"y": 4.998149646,
				"z": 1.7552629585,
				"element": "H" 
			},
			{
				"x": -2.0174494199,
				"y": 4.3302868395,
				"z": -0.0756572454,
				"element": "H" 
			},
			{
				"x": 0.2979889117,
				"y": -0.7893202554,
				"z": 0.8862609273,
				"element": "H" 
			}
		],
		 "valence_orbital": [ 
			{
				"type": "occ",
				"energy": -0.26873,
				"method": "rhf"
			},
			{
				"type": "occ",
				"energy": -0.26699,
				"method": "rhf"
			},
			{
				"type": "occ",
				"energy": -0.2651,
				"method": "rhf"
			},
			{
				"type": "occ",
				"energy": -0.25784,
				"method": "rhf"
			},
			{
				"type": "occ",
				"energy": -0.23221,
				"method": "rhf"
			},
			{
				"type": "unocc",
				"energy": -0.09293,
				"method": "rhf"
			},
			{
				"type": "unocc",
				"energy": -0.0455,
				"method": "rhf"
			},
			{
				"type": "unocc",
				"energy": -0.0312,
				"method": "rhf"
			},
			{
				"type": "unocc",
				"energy": -0.02191,
				"method": "rhf"
			},
			{
				"type": "unocc",
				"energy": -0.00172,
				"method": "rhf"
			}
		],
		"cosmo_sigma_profile": { 
			"-0.025": 0.0,
			"-0.024": 0.0,
			"-0.023": 0.0,
			"-0.022": 0.0,
			"-0.021": 0.0,
			"-0.02": 0.0,
			"-0.019": 0.0,
			"-0.018": 0.0,
			"-0.017": 0.0,
			"-0.016": 0.0,
			"-0.015": 0.0,
			"-0.014": 0.0,
			"-0.013": 0.15700356498,
			"-0.012": 0.81980219056,
			"-0.011": 1.11433261763,
			"-0.01": 0.952632951815,
			"-0.009": 2.52758081193,
			"-0.008": 3.52642207499,
			"-0.007": 10.4370492301,
			"-0.006": 22.5706062738,
			"-0.005": 27.4293186078,
			"-0.004": 28.5111276701,
			"-0.003": 23.2373296648,
			"-0.002": 25.8320139133,
			"-0.001": 25.3765763683,
			"0.0": 20.7607653889,
			"0.001": 21.849329838,
			"0.002": 22.3379767072,
			"0.003": 23.4363609159,
			"0.004": 13.9065698325,
			"0.005": 5.10766713922,
			"0.006": 5.07739685434,
			"0.007": 4.47249742648,
			"0.008": 5.81252320512,
			"0.009": 8.00479891196,
			"0.01": 5.32314865574,
			"0.011": 6.20541806434,
			"0.012": 7.81862249956,
			"0.013": 5.54709983004,
			"0.014": 0.203414020508,
			"0.015": 0.0,
			"0.016": 0.0,
			"0.017": 0.0,
			"0.018": 0.0,
			"0.019": 0.0,
			"0.02": 0.0,
			"0.021": 0.0,
			"0.022": 0.0,
			"0.023": 0.0,
			"0.024": 0.0,
			"0.025": 0.0
		}
	}
}
