{
	 "smiles": "CC1C(=O)OC2CCN3CC=C(COC(=O)C(C)(O)C1(C)O)C23", 
	 "Tm": 473.15, 
	 "num_atms": 46, 
	 "gaussian": { 
		 "optdone": 1, 
		 "sigma_profile": "yes", 
		 "theory": "DFT", 
		 "functional": "B3LYP", 
		 "basiset": "6-31G**", 
		 "properties": { 
			 "R2extent": 7025.8893, 
			 "electric_dipole_moment_norm": 3.75958979012, 
			 "electric_quadrupole_moment_norm": 17.9067180848, 
			 "total_energy": -1129.63485901, 
			 "HOMO_LUMO_gap": 0.20598, 
			 "cosmo_polarized_energy": -20.61, 
			 "cosmo_cavitation_energy": 42.73, 
			 "cosmo_dispersion_energy": -29.91, 
			 "cosmo_repulsion_energy": 2.21, 
			 "cosmo_total_nonelectrostatic_energy": 15.04, 
			 "SMD_solvation_energy": 5.0 
		},
		"coords": [
			{
				"x": 3.2578660839,
				"y": 1.1408558973,
				"z": -0.4932244929,
				"element": "C" 
			},
			{
				"x": 1.7698109586,
				"y": 0.8548846843,
				"z": -0.2334043234,
				"element": "C" 
			},
			{
				"x": 1.4165863602,
				"y": -0.4779485767,
				"z": -0.8788483354,
				"element": "C" 
			},
			{
				"x": 2.1417021059,
				"y": -1.4513011752,
				"z": -0.8990728192,
				"element": "O" 
			},
			{
				"x": 0.1799105859,
				"y": -0.4578699727,
				"z": -1.4237525992,
				"element": "O" 
			},
			{
				"x": -0.3558342121,
				"y": -1.7205460447,
				"z": -1.8524301527,
				"element": "C" 
			},
			{
				"x": -0.1258750785,
				"y": -2.0387460196,
				"z": -3.3299795917,
				"element": "C" 
			},
			{
				"x": -1.1889602113,
				"y": -3.12264424,
				"z": -3.5804448085,
				"element": "C" 
			},
			{
				"x": -2.3119675628,
				"y": -2.7717915356,
				"z": -2.693650094,
				"element": "N" 
			},
			{
				"x": -2.955741833,
				"y": -3.8659705967,
				"z": -1.9540000051,
				"element": "C" 
			},
			{
				"x": -3.0480165998,
				"y": -3.3463349563,
				"z": -0.5436440117,
				"element": "C" 
			},
			{
				"x": -2.4831929711,
				"y": -2.1402287568,
				"z": -0.4224802301,
				"element": "C" 
			},
			{
				"x": -2.5841887736,
				"y": -1.2545327673,
				"z": 0.7805589071,
				"element": "C" 
			},
			{
				"x": -1.3423927265,
				"y": -0.5989885868,
				"z": 1.1594244709,
				"element": "O" 
			},
			{
				"x": -1.2149644707,
				"y": 0.7034020915,
				"z": 0.7756492615,
				"element": "C" 
			},
			{
				"x": -1.9800391136,
				"y": 1.2605860817,
				"z": 0.0289814178,
				"element": "O" 
			},
			{
				"x": -0.071011344,
				"y": 1.4118420746,
				"z": 1.5310089643,
				"element": "C" 
			},
			{
				"x": -0.4603602442,
				"y": 1.3988430112,
				"z": 3.0285185722,
				"element": "C" 
			},
			{
				"x": -0.086891683,
				"y": 2.7458734593,
				"z": 1.0619014846,
				"element": "O" 
			},
			{
				"x": 1.3991306701,
				"y": 0.8527927766,
				"z": 1.3008011856,
				"element": "C" 
			},
			{
				"x": 1.6844009897,
				"y": -0.4869005768,
				"z": 1.9833125553,
				"element": "C" 
			},
			{
				"x": 2.2510006001,
				"y": 1.8653558776,
				"z": 1.8827081467,
				"element": "O" 
			},
			{
				"x": -1.8922989315,
				"y": -1.7132387806,
				"z": -1.7457592298,
				"element": "C" 
			},
			{
				"x": 3.8947823912,
				"y": 0.3844988454,
				"z": -0.0287014367,
				"element": "H" 
			},
			{
				"x": 3.5358779145,
				"y": 2.1207567095,
				"z": -0.1072951075,
				"element": "H" 
			},
			{
				"x": 3.4528595613,
				"y": 1.1183873325,
				"z": -1.569759581,
				"element": "H" 
			},
			{
				"x": 1.161643222,
				"y": 1.6338274821,
				"z": -0.7009038017,
				"element": "H" 
			},
			{
				"x": 0.0720533943,
				"y": -2.5086172595,
				"z": -1.2267220902,
				"element": "H" 
			},
			{
				"x": 0.8913639898,
				"y": -2.3775529066,
				"z": -3.5383101635,
				"element": "H" 
			},
			{
				"x": -0.3253057694,
				"y": -1.1415098959,
				"z": -3.9264367859,
				"element": "H" 
			},
			{
				"x": -1.4986687852,
				"y": -3.1622472246,
				"z": -4.6319609001,
				"element": "H" 
			},
			{
				"x": -0.7829470734,
				"y": -4.1159808107,
				"z": -3.32669133,
				"element": "H" 
			},
			{
				"x": -3.9502475148,
				"y": -4.1099834707,
				"z": -2.3603594336,
				"element": "H" 
			},
			{
				"x": -2.3671026544,
				"y": -4.8005712164,
				"z": -2.0058512246,
				"element": "H" 
			},
			{
				"x": -3.5519812947,
				"y": -3.8900183568,
				"z": 0.2501711125,
				"element": "H" 
			},
			{
				"x": -3.3237143837,
				"y": -0.469157924,
				"z": 0.5968427054,
				"element": "H" 
			},
			{
				"x": -2.8806744132,
				"y": -1.8355197134,
				"z": 1.6572429226,
				"element": "H" 
			},
			{
				"x": -1.4110548831,
				"y": 1.9258002467,
				"z": 3.1429651152,
				"element": "H" 
			},
			{
				"x": -0.5663759859,
				"y": 0.3890529061,
				"z": 3.4288590136,
				"element": "H" 
			},
			{
				"x": 0.2865691358,
				"y": 1.9435178779,
				"z": 3.6146480497,
				"element": "H" 
			},
			{
				"x": 0.747899178,
				"y": 3.1226677419,
				"z": 1.3853406177,
				"element": "H" 
			},
			{
				"x": 2.688375473,
				"y": -0.834199868,
				"z": 1.7303255433,
				"element": "H" 
			},
			{
				"x": 0.9693314043,
				"y": -1.2534812813,
				"z": 1.6841123464,
				"element": "H" 
			},
			{
				"x": 1.6165659528,
				"y": -0.3818910135,
				"z": 3.0718861384,
				"element": "H" 
			},
			{
				"x": 2.3745361293,
				"y": 1.6516881041,
				"z": 2.8162054471,
				"element": "H" 
			},
			{
				"x": -2.2563575871,
				"y": -0.7177596731,
				"z": -2.0422814297,
				"element": "H" 
			}
		],
		 "valence_orbital": [ 
			{
				"type": "occ",
				"energy": -0.27236,
				"method": "rhf"
			},
			{
				"type": "occ",
				"energy": -0.26842,
				"method": "rhf"
			},
			{
				"type": "occ",
				"energy": -0.26537,
				"method": "rhf"
			},
			{
				"type": "occ",
				"energy": -0.25359,
				"method": "rhf"
			},
			{
				"type": "occ",
				"energy": -0.20511,
				"method": "rhf"
			},
			{
				"type": "unocc",
				"energy": 0.00087,
				"method": "rhf"
			},
			{
				"type": "unocc",
				"energy": 0.00347,
				"method": "rhf"
			},
			{
				"type": "unocc",
				"energy": 0.0128,
				"method": "rhf"
			},
			{
				"type": "unocc",
				"energy": 0.05349,
				"method": "rhf"
			},
			{
				"type": "unocc",
				"energy": 0.08636,
				"method": "rhf"
			}
		],
		"cosmo_sigma_profile": { 
			"-0.025": 0.0,
			"-0.024": 0.0,
			"-0.023": 0.0,
			"-0.022": 0.0,
			"-0.021": 0.0,
			"-0.02": 0.0,
			"-0.019": 0.0,
			"-0.018": 0.0,
			"-0.017": 0.0,
			"-0.016": 0.572853366362,
			"-0.015": 0.815965037288,
			"-0.014": 0.903444599711,
			"-0.013": 1.21483543586,
			"-0.012": 1.49909802592,
			"-0.011": 2.07799529626,
			"-0.01": 1.09246552407,
			"-0.009": 1.02955359814,
			"-0.008": 2.09084060515,
			"-0.007": 4.80154501388,
			"-0.006": 8.46435037283,
			"-0.005": 13.7035520358,
			"-0.004": 33.1638834271,
			"-0.003": 39.8508594045,
			"-0.002": 40.513765216,
			"-0.001": 39.9690452262,
			"0.0": 29.1302633868,
			"0.001": 18.3249034096,
			"0.002": 14.1808468548,
			"0.003": 10.9925528001,
			"0.004": 8.95455716172,
			"0.005": 7.36346450357,
			"0.006": 7.3424209761,
			"0.007": 6.55417854336,
			"0.008": 5.50548642768,
			"0.009": 4.89909988511,
			"0.01": 5.53771614274,
			"0.011": 6.34632077029,
			"0.012": 6.35557752318,
			"0.013": 2.52065995046,
			"0.014": 2.05312769335,
			"0.015": 2.20448077396,
			"0.016": 1.61795940881,
			"0.017": 0.24617796232,
			"0.018": 0.0,
			"0.019": 0.0,
			"0.02": 0.0,
			"0.021": 0.0,
			"0.022": 0.0,
			"0.023": 0.0,
			"0.024": 0.0,
			"0.025": 0.0
		}
	}
}
