{
	 "smiles": "CC(Cl)C(=O)NC1=C(C)C(=CC=C1)[N+]([O-])=O", 
	 "Tm": 394.15, 
	 "num_atms": 27, 
	 "gaussian": { 
		 "optdone": 1, 
		 "sigma_profile": "yes", 
		 "theory": "DFT", 
		 "functional": "B3LYP", 
		 "basiset": "6-31G**", 
		 "properties": { 
			 "R2extent": 5094.3586, 
			 "electric_dipole_moment_norm": 1.299893261, 
			 "electric_quadrupole_moment_norm": 22.6036406214, 
			 "total_energy": -1182.97849417, 
			 "HOMO_LUMO_gap": 0.16466, 
			 "cosmo_polarized_energy": -15.8, 
			 "cosmo_cavitation_energy": 32.83, 
			 "cosmo_dispersion_energy": -23.15, 
			 "cosmo_repulsion_energy": 1.81, 
			 "cosmo_total_nonelectrostatic_energy": 11.49, 
			 "SMD_solvation_energy": 8.29 
		},
		"coords": [
			{
				"x": -0.786891287,
				"y": 4.1092201422,
				"z": 1.8434540515,
				"element": "C" 
			},
			{
				"x": -1.1034184034,
				"y": 2.6223200256,
				"z": 1.8363393521,
				"element": "C" 
			},
			{
				"x": -1.9194333595,
				"y": 2.1526213897,
				"z": 3.4115075722,
				"element": "Cl" 
			},
			{
				"x": -2.0619179119,
				"y": 2.2738404584,
				"z": 0.6890238399,
				"element": "C" 
			},
			{
				"x": -2.9780018837,
				"y": 3.0167674584,
				"z": 0.3797388687,
				"element": "O" 
			},
			{
				"x": -1.8240874418,
				"y": 1.1205819395,
				"z": -0.0346519651,
				"element": "N" 
			},
			{
				"x": -0.8699701779,
				"y": 0.0821552954,
				"z": 0.1350615171,
				"element": "C" 
			},
			{
				"x": -0.1044492065,
				"y": -0.3266692512,
				"z": -0.9841869599,
				"element": "C" 
			},
			{
				"x": -0.240649102,
				"y": 0.4044096424,
				"z": -2.2980645747,
				"element": "C" 
			},
			{
				"x": 0.7792965139,
				"y": -1.3980533799,
				"z": -0.7629611692,
				"element": "C" 
			},
			{
				"x": 0.9549496846,
				"y": -2.0042872698,
				"z": 0.4815831152,
				"element": "C" 
			},
			{
				"x": 0.1871868536,
				"y": -1.5755838409,
				"z": 1.5564096202,
				"element": "C" 
			},
			{
				"x": -0.7402336809,
				"y": -0.5519971813,
				"z": 1.3770618355,
				"element": "C" 
			},
			{
				"x": 1.5888817478,
				"y": -1.9567489446,
				"z": -1.8632134495,
				"element": "N" 
			},
			{
				"x": 1.1431308397,
				"y": -1.8795226152,
				"z": -3.0083580372,
				"element": "O" 
			},
			{
				"x": 2.6547396671,
				"y": -2.4933670211,
				"z": -1.5644605258,
				"element": "O" 
			},
			{
				"x": -1.7109192797,
				"y": 4.6884497388,
				"z": 1.864637761,
				"element": "H" 
			},
			{
				"x": -0.1677576008,
				"y": 4.3647871991,
				"z": 2.7057998627,
				"element": "H" 
			},
			{
				"x": -0.2385665337,
				"y": 4.3671365427,
				"z": 0.9303370731,
				"element": "H" 
			},
			{
				"x": -0.1967305348,
				"y": 2.0186020135,
				"z": 1.8014913302,
				"element": "H" 
			},
			{
				"x": -2.4506782323,
				"y": 1.05132112,
				"z": -0.8283582945,
				"element": "H" 
			},
			{
				"x": -0.5546038203,
				"y": 1.4352992538,
				"z": -2.1212397975,
				"element": "H" 
			},
			{
				"x": -0.9825425084,
				"y": -0.0757879119,
				"z": -2.9462066329,
				"element": "H" 
			},
			{
				"x": 0.6932584252,
				"y": 0.410187374,
				"z": -2.8583578882,
				"element": "H" 
			},
			{
				"x": 1.6765149093,
				"y": -2.8056682876,
				"z": 0.5757022149,
				"element": "H" 
			},
			{
				"x": 0.2887664496,
				"y": -2.0533228031,
				"z": 2.5250839704,
				"element": "H" 
			},
			{
				"x": -1.3766741263,
				"y": -0.2398910869,
				"z": 2.1975273098,
				"element": "H" 
			}
		],
		 "valence_orbital": [ 
			{
				"type": "occ",
				"energy": -0.30977,
				"method": "rhf"
			},
			{
				"type": "occ",
				"energy": -0.29982,
				"method": "rhf"
			},
			{
				"type": "occ",
				"energy": -0.28209,
				"method": "rhf"
			},
			{
				"type": "occ",
				"energy": -0.27579,
				"method": "rhf"
			},
			{
				"type": "occ",
				"energy": -0.25897,
				"method": "rhf"
			},
			{
				"type": "unocc",
				"energy": -0.09431,
				"method": "rhf"
			},
			{
				"type": "unocc",
				"energy": -0.04816,
				"method": "rhf"
			},
			{
				"type": "unocc",
				"energy": -0.02607,
				"method": "rhf"
			},
			{
				"type": "unocc",
				"energy": -0.01622,
				"method": "rhf"
			},
			{
				"type": "unocc",
				"energy": 0.04566,
				"method": "rhf"
			}
		],
		"cosmo_sigma_profile": { 
			"-0.025": 0.0,
			"-0.024": 0.0,
			"-0.023": 0.0,
			"-0.022": 0.0,
			"-0.021": 0.0,
			"-0.02": 0.0,
			"-0.019": 0.0,
			"-0.018": 0.0,
			"-0.017": 0.0,
			"-0.016": 0.0,
			"-0.015": 0.25414309235,
			"-0.014": 1.00793776902,
			"-0.013": 1.19203780074,
			"-0.012": 1.09914466402,
			"-0.011": 1.13388632581,
			"-0.01": 0.952396876228,
			"-0.009": 1.62034375808,
			"-0.008": 4.08459232898,
			"-0.007": 10.8853646511,
			"-0.006": 13.5862890279,
			"-0.005": 18.3614969745,
			"-0.004": 20.3302652496,
			"-0.003": 18.6001763074,
			"-0.002": 19.0978838066,
			"-0.001": 25.0321368961,
			"0.0": 19.7401452963,
			"0.001": 15.9693788965,
			"0.002": 13.3948506747,
			"0.003": 9.57952664829,
			"0.004": 8.47481800932,
			"0.005": 11.8708593964,
			"0.006": 9.48813763528,
			"0.007": 9.33806967729,
			"0.008": 8.49245357804,
			"0.009": 5.7568740386,
			"0.01": 4.49053244835,
			"0.011": 1.76984595147,
			"0.012": 5.37800531588,
			"0.013": 2.2289966803,
			"0.014": 0.0,
			"0.015": 0.0,
			"0.016": 0.0,
			"0.017": 0.0,
			"0.018": 0.0,
			"0.019": 0.0,
			"0.02": 0.0,
			"0.021": 0.0,
			"0.022": 0.0,
			"0.023": 0.0,
			"0.024": 0.0,
			"0.025": 0.0
		}
	}
}
