{
	 "smiles": "CN(C)C(=O)COC1=C(N)C=CC(C)=C1", 
	 "Tm": 357.15, 
	 "num_atms": 31, 
	 "gaussian": { 
		 "optdone": 1, 
		 "sigma_profile": "yes", 
		 "theory": "DFT", 
		 "functional": "B3LYP", 
		 "basiset": "6-31G**", 
		 "properties": { 
			 "R2extent": 4596.0385, 
			 "electric_dipole_moment_norm": 5.24742895235, 
			 "electric_quadrupole_moment_norm": 18.3561409534, 
			 "total_energy": -688.769647553, 
			 "HOMO_LUMO_gap": 0.18878, 
			 "cosmo_polarized_energy": -15.53, 
			 "cosmo_cavitation_energy": 33.41, 
			 "cosmo_dispersion_energy": -24.2, 
			 "cosmo_repulsion_energy": 1.91, 
			 "cosmo_total_nonelectrostatic_energy": 11.13, 
			 "SMD_solvation_energy": 6.19 
		},
		"coords": [
			{
				"x": -1.6076284622,
				"y": -3.2840203549,
				"z": -0.2059870302,
				"element": "C" 
			},
			{
				"x": -1.9562720355,
				"y": -2.3998562952,
				"z": 0.8947588628,
				"element": "N" 
			},
			{
				"x": -3.3466900898,
				"y": -2.4600706848,
				"z": 1.3273695968,
				"element": "C" 
			},
			{
				"x": -1.0906459951,
				"y": -1.5570450299,
				"z": 1.5398397777,
				"element": "C" 
			},
			{
				"x": -1.45018858,
				"y": -0.8424759476,
				"z": 2.4722184317,
				"element": "O" 
			},
			{
				"x": 0.3761927616,
				"y": -1.5513503871,
				"z": 1.0534590111,
				"element": "C" 
			},
			{
				"x": 1.1663515982,
				"y": -0.6744480747,
				"z": 1.8209950084,
				"element": "O" 
			},
			{
				"x": 1.4105271796,
				"y": 0.5943651868,
				"z": 1.3037856268,
				"element": "C" 
			},
			{
				"x": 0.9344946684,
				"y": 1.7014105111,
				"z": 2.0410174797,
				"element": "C" 
			},
			{
				"x": 0.2374356934,
				"y": 1.5019392037,
				"z": 3.223138971,
				"element": "N" 
			},
			{
				"x": 1.2453825101,
				"y": 2.9768236439,
				"z": 1.5423762608,
				"element": "C" 
			},
			{
				"x": 1.9853841409,
				"y": 3.1389179653,
				"z": 0.3716443751,
				"element": "C" 
			},
			{
				"x": 2.4590465837,
				"y": 2.0406085132,
				"z": -0.353180203,
				"element": "C" 
			},
			{
				"x": 3.2879146239,
				"y": 2.2113613483,
				"z": -1.6051367924,
				"element": "C" 
			},
			{
				"x": 2.1597286203,
				"y": 0.7637536731,
				"z": 0.1444586404,
				"element": "C" 
			},
			{
				"x": -0.5623999252,
				"y": -3.1833782857,
				"z": -0.4911305307,
				"element": "H" 
			},
			{
				"x": -1.7858069528,
				"y": -4.3317235601,
				"z": 0.0695748193,
				"element": "H" 
			},
			{
				"x": -2.2221764885,
				"y": -3.0585293385,
				"z": -1.0869967366,
				"element": "H" 
			},
			{
				"x": -4.0161051409,
				"y": -2.1927053043,
				"z": 0.5004399861,
				"element": "H" 
			},
			{
				"x": -3.4837154353,
				"y": -1.7593303109,
				"z": 2.1486676296,
				"element": "H" 
			},
			{
				"x": -3.6002332587,
				"y": -3.4732000664,
				"z": 1.663674544,
				"element": "H" 
			},
			{
				"x": 0.4162823334,
				"y": -1.2903000421,
				"z": -0.0116188873,
				"element": "H" 
			},
			{
				"x": 0.7967648986,
				"y": -2.5577983154,
				"z": 1.1694877219,
				"element": "H" 
			},
			{
				"x": -0.2620779186,
				"y": 0.6154184327,
				"z": 3.2470308484,
				"element": "H" 
			},
			{
				"x": -0.3406501439,
				"y": 2.2834576623,
				"z": 3.5000536213,
				"element": "H" 
			},
			{
				"x": 0.8899498343,
				"y": 3.8512967871,
				"z": 2.0825250089,
				"element": "H" 
			},
			{
				"x": 2.1982468228,
				"y": 4.1447129174,
				"z": 0.0173274531,
				"element": "H" 
			},
			{
				"x": 4.3337696821,
				"y": 1.9198919212,
				"z": -1.4443910106,
				"element": "H" 
			},
			{
				"x": 3.2879134366,
				"y": 3.2530675015,
				"z": -1.9395297436,
				"element": "H" 
			},
			{
				"x": 2.9089672468,
				"y": 1.5982645649,
				"z": -2.4314127662,
				"element": "H" 
			},
			{
				"x": 2.529137792,
				"y": -0.1213578347,
				"z": -0.3691599741,
				"element": "H" 
			}
		],
		 "valence_orbital": [ 
			{
				"type": "occ",
				"energy": -0.27725,
				"method": "rhf"
			},
			{
				"type": "occ",
				"energy": -0.26028,
				"method": "rhf"
			},
			{
				"type": "occ",
				"energy": -0.25085,
				"method": "rhf"
			},
			{
				"type": "occ",
				"energy": -0.22273,
				"method": "rhf"
			},
			{
				"type": "occ",
				"energy": -0.17641,
				"method": "rhf"
			},
			{
				"type": "unocc",
				"energy": 0.01237,
				"method": "rhf"
			},
			{
				"type": "unocc",
				"energy": 0.0214,
				"method": "rhf"
			},
			{
				"type": "unocc",
				"energy": 0.03464,
				"method": "rhf"
			},
			{
				"type": "unocc",
				"energy": 0.07429,
				"method": "rhf"
			},
			{
				"type": "unocc",
				"energy": 0.10165,
				"method": "rhf"
			}
		],
		"cosmo_sigma_profile": { 
			"-0.025": 0.0,
			"-0.024": 0.0,
			"-0.023": 0.0,
			"-0.022": 0.0,
			"-0.021": 0.0,
			"-0.02": 0.0,
			"-0.019": 0.0,
			"-0.018": 0.0,
			"-0.017": 0.0,
			"-0.016": 0.0,
			"-0.015": 0.0,
			"-0.014": 0.0,
			"-0.013": 0.0,
			"-0.012": 0.30408089634,
			"-0.011": 1.54021010443,
			"-0.01": 1.23134806685,
			"-0.009": 1.11007438072,
			"-0.008": 4.55802421417,
			"-0.007": 7.91220750852,
			"-0.006": 8.08837353601,
			"-0.005": 21.0899073233,
			"-0.004": 24.2727565456,
			"-0.003": 29.6468587539,
			"-0.002": 27.8665282714,
			"-0.001": 19.8853497597,
			"0.0": 16.5460958542,
			"0.001": 14.4739060362,
			"0.002": 9.65410319932,
			"0.003": 7.23879115434,
			"0.004": 9.49584020563,
			"0.005": 11.2867866548,
			"0.006": 12.1706174093,
			"0.007": 9.69004941373,
			"0.008": 4.99851052301,
			"0.009": 5.32443760234,
			"0.01": 5.13518118813,
			"0.011": 3.20709450429,
			"0.012": 3.61733218313,
			"0.013": 1.36975353384,
			"0.014": 0.684832752042,
			"0.015": 0.641566783417,
			"0.016": 0.105000757273,
			"0.017": 0.0,
			"0.018": 0.0,
			"0.019": 0.0,
			"0.02": 0.0,
			"0.021": 0.0,
			"0.022": 0.0,
			"0.023": 0.0,
			"0.024": 0.0,
			"0.025": 0.0
		}
	}
}
