{
	 "smiles": "CCNC1=CC(=O)OC2=CC=CC=C12", 
	 "Tm": 423.15, 
	 "num_atms": 25, 
	 "gaussian": { 
		 "optdone": 1, 
		 "sigma_profile": "yes", 
		 "theory": "DFT", 
		 "functional": "B3LYP", 
		 "basiset": "6-31G**", 
		 "properties": { 
			 "R2extent": 5030.7475, 
			 "electric_dipole_moment_norm": 5.04967517074, 
			 "electric_quadrupole_moment_norm": 27.4860597918, 
			 "total_energy": -631.000393819, 
			 "HOMO_LUMO_gap": 0.16981, 
			 "cosmo_polarized_energy": -12.89, 
			 "cosmo_cavitation_energy": 28.25, 
			 "cosmo_dispersion_energy": -20.67, 
			 "cosmo_repulsion_energy": 1.62, 
			 "cosmo_total_nonelectrostatic_energy": 9.2, 
			 "SMD_solvation_energy": 5.02 
		},
		"coords": [
			{
				"x": -1.4654780329,
				"y": -2.9549506256,
				"z": -1.6969109938,
				"element": "C" 
			},
			{
				"x": -0.0324974941,
				"y": -3.0501583026,
				"z": -1.182014531,
				"element": "C" 
			},
			{
				"x": 0.5685967901,
				"y": -1.7665822803,
				"z": -0.7273264912,
				"element": "N" 
			},
			{
				"x": 1.0214253313,
				"y": -0.8769999076,
				"z": -1.7364574413,
				"element": "C" 
			},
			{
				"x": 2.3113121036,
				"y": -0.8902356002,
				"z": -2.1731172089,
				"element": "C" 
			},
			{
				"x": 2.8115806001,
				"y": 0.0017815894,
				"z": -3.204660858,
				"element": "C" 
			},
			{
				"x": 3.9387367191,
				"y": 0.0297646027,
				"z": -3.6417666716,
				"element": "O" 
			},
			{
				"x": 1.8749027784,
				"y": 0.8746640401,
				"z": -3.7640146945,
				"element": "O" 
			},
			{
				"x": 0.5948041578,
				"y": 0.9600593267,
				"z": -3.3021670065,
				"element": "C" 
			},
			{
				"x": -0.2166977851,
				"y": 1.9409205284,
				"z": -3.8789988007,
				"element": "C" 
			},
			{
				"x": -1.513754327,
				"y": 2.1137736105,
				"z": -3.4104372559,
				"element": "C" 
			},
			{
				"x": -2.0006939155,
				"y": 1.3245525108,
				"z": -2.3580978732,
				"element": "C" 
			},
			{
				"x": -1.1934926196,
				"y": 0.34512274,
				"z": -1.7963280798,
				"element": "C" 
			},
			{
				"x": 0.1098962692,
				"y": 0.1213349015,
				"z": -2.2783413591,
				"element": "C" 
			},
			{
				"x": -2.1356770304,
				"y": -2.5553144345,
				"z": -0.9303237866,
				"element": "H" 
			},
			{
				"x": -1.8163429938,
				"y": -3.9566939571,
				"z": -1.9661986401,
				"element": "H" 
			},
			{
				"x": -1.543632453,
				"y": -2.3252416201,
				"z": -2.5864710321,
				"element": "H" 
			},
			{
				"x": 0.6008347617,
				"y": -3.5203260539,
				"z": -1.9512762467,
				"element": "H" 
			},
			{
				"x": -0.0141240264,
				"y": -3.7082010362,
				"z": -0.306939049,
				"element": "H" 
			},
			{
				"x": 1.3690892539,
				"y": -2.0056728039,
				"z": -0.1487691333,
				"element": "H" 
			},
			{
				"x": 3.033115468,
				"y": -1.604632472,
				"z": -1.7918906158,
				"element": "H" 
			},
			{
				"x": 0.1944729837,
				"y": 2.5564307639,
				"z": -4.6716173333,
				"element": "H" 
			},
			{
				"x": -2.1443693173,
				"y": 2.8792437152,
				"z": -3.8527569908,
				"element": "H" 
			},
			{
				"x": -3.0036464313,
				"y": 1.4859759964,
				"z": -1.9758164672,
				"element": "H" 
			},
			{
				"x": -1.5407607902,
				"y": -0.2522152318,
				"z": -0.9623014397,
				"element": "H" 
			}
		],
		 "valence_orbital": [ 
			{
				"type": "occ",
				"energy": -0.31525,
				"method": "rhf"
			},
			{
				"type": "occ",
				"energy": -0.27256,
				"method": "rhf"
			},
			{
				"type": "occ",
				"energy": -0.25754,
				"method": "rhf"
			},
			{
				"type": "occ",
				"energy": -0.24679,
				"method": "rhf"
			},
			{
				"type": "occ",
				"energy": -0.2317,
				"method": "rhf"
			},
			{
				"type": "unocc",
				"energy": -0.06189,
				"method": "rhf"
			},
			{
				"type": "unocc",
				"energy": -0.00926,
				"method": "rhf"
			},
			{
				"type": "unocc",
				"energy": 0.00538,
				"method": "rhf"
			},
			{
				"type": "unocc",
				"energy": 0.06872,
				"method": "rhf"
			},
			{
				"type": "unocc",
				"energy": 0.0897,
				"method": "rhf"
			}
		],
		"cosmo_sigma_profile": { 
			"-0.025": 0.0,
			"-0.024": 0.0,
			"-0.023": 0.0,
			"-0.022": 0.0,
			"-0.021": 0.0,
			"-0.02": 0.0,
			"-0.019": 0.0,
			"-0.018": 0.0,
			"-0.017": 0.0,
			"-0.016": 0.0,
			"-0.015": 0.0,
			"-0.014": 0.0,
			"-0.013": 0.252570254561,
			"-0.012": 1.59722060083,
			"-0.011": 1.34464152664,
			"-0.01": 1.61863779408,
			"-0.009": 2.06548755107,
			"-0.008": 2.01222338317,
			"-0.007": 5.76414023402,
			"-0.006": 9.14302893597,
			"-0.005": 11.2505083768,
			"-0.004": 16.4736705835,
			"-0.003": 21.1438854418,
			"-0.002": 24.236770993,
			"-0.001": 20.3388921715,
			"0.0": 18.6602849683,
			"0.001": 20.8158251876,
			"0.002": 13.4723180735,
			"0.003": 13.4571852387,
			"0.004": 8.98594577929,
			"0.005": 2.32594295316,
			"0.006": 3.13750743962,
			"0.007": 2.95834647241,
			"0.008": 2.83460021814,
			"0.009": 2.84261559823,
			"0.01": 3.02779132864,
			"0.011": 3.29735620559,
			"0.012": 6.63157814561,
			"0.013": 4.48522689582,
			"0.014": 0.599390697492,
			"0.015": 0.0,
			"0.016": 0.0,
			"0.017": 0.0,
			"0.018": 0.0,
			"0.019": 0.0,
			"0.02": 0.0,
			"0.021": 0.0,
			"0.022": 0.0,
			"0.023": 0.0,
			"0.024": 0.0,
			"0.025": 0.0
		}
	}
}
