{
	 "smiles": "CC(O)CS(=O)(=O)C1=CC=CC=C1", 
	 "Tm": 320.15, 
	 "num_atms": 25, 
	 "gaussian": { 
		 "optdone": 1, 
		 "sigma_profile": "yes", 
		 "theory": "DFT", 
		 "functional": "B3LYP", 
		 "basiset": "6-31G**", 
		 "properties": { 
			 "R2extent": 3363.3975, 
			 "electric_dipole_moment_norm": 5.58767155352, 
			 "electric_quadrupole_moment_norm": 13.6782706228, 
			 "total_energy": -973.977517568, 
			 "HOMO_LUMO_gap": 0.23135, 
			 "cosmo_polarized_energy": -17.32, 
			 "cosmo_cavitation_energy": 29.22, 
			 "cosmo_dispersion_energy": -21.16, 
			 "cosmo_repulsion_energy": 1.64, 
			 "cosmo_total_nonelectrostatic_energy": 9.7, 
			 "SMD_solvation_energy": 4.26 
		},
		"coords": [
			{
				"x": -0.1611042272,
				"y": -2.8243372889,
				"z": 1.7150001668,
				"element": "C" 
			},
			{
				"x": -1.3873565407,
				"y": -2.0949434434,
				"z": 2.2627839619,
				"element": "C" 
			},
			{
				"x": -2.5413951519,
				"y": -2.9383244247,
				"z": 2.2177527482,
				"element": "O" 
			},
			{
				"x": -1.8065039347,
				"y": -0.8635113872,
				"z": 1.4535902986,
				"element": "C" 
			},
			{
				"x": -0.8630361746,
				"y": 0.668721448,
				"z": 1.7490255048,
				"element": "S" 
			},
			{
				"x": -0.465681102,
				"y": 0.6960041306,
				"z": 3.1682361336,
				"element": "O" 
			},
			{
				"x": -1.671114267,
				"y": 1.7496284228,
				"z": 1.1612666504,
				"element": "O" 
			},
			{
				"x": 0.6434288634,
				"y": 0.537726691,
				"z": 0.7669422733,
				"element": "C" 
			},
			{
				"x": 1.8586473143,
				"y": 0.3087818021,
				"z": 1.4135556572,
				"element": "C" 
			},
			{
				"x": 3.0272448069,
				"y": 0.2404837223,
				"z": 0.6525282788,
				"element": "C" 
			},
			{
				"x": 2.9703203593,
				"y": 0.4009454871,
				"z": -0.7335118067,
				"element": "C" 
			},
			{
				"x": 1.7480378826,
				"y": 0.6437795134,
				"z": -1.366766194,
				"element": "C" 
			},
			{
				"x": 0.5751851741,
				"y": 0.7211565849,
				"z": -0.6162907339,
				"element": "C" 
			},
			{
				"x": 0.0481027499,
				"y": -3.7142011902,
				"z": 2.3197989389,
				"element": "H" 
			},
			{
				"x": -0.3396938573,
				"y": -3.1480809083,
				"z": 0.684548259,
				"element": "H" 
			},
			{
				"x": 0.7331491035,
				"y": -2.1961466058,
				"z": 1.7351394865,
				"element": "H" 
			},
			{
				"x": -1.1928088062,
				"y": -1.7653663604,
				"z": 3.2932989155,
				"element": "H" 
			},
			{
				"x": -2.3616340103,
				"y": -3.7112380322,
				"z": 2.7688251274,
				"element": "H" 
			},
			{
				"x": -1.8048498177,
				"y": -1.0491461889,
				"z": 0.3757501337,
				"element": "H" 
			},
			{
				"x": -2.8201763873,
				"y": -0.5774344059,
				"z": 1.7489274631,
				"element": "H" 
			},
			{
				"x": 1.876316773,
				"y": 0.2051423482,
				"z": 2.4932164647,
				"element": "H" 
			},
			{
				"x": 3.9805685216,
				"y": 0.0679406209,
				"z": 1.1428365658,
				"element": "H" 
			},
			{
				"x": 3.8815418418,
				"y": 0.3464747105,
				"z": -1.321920794,
				"element": "H" 
			},
			{
				"x": 1.7100777931,
				"y": 0.7843458129,
				"z": -2.4427437839,
				"element": "H" 
			},
			{
				"x": -0.3756669065,
				"y": 0.9439989412,
				"z": -1.0894897159,
				"element": "H" 
			}
		],
		 "valence_orbital": [ 
			{
				"type": "occ",
				"energy": -0.29716,
				"method": "rhf"
			},
			{
				"type": "occ",
				"energy": -0.28587,
				"method": "rhf"
			},
			{
				"type": "occ",
				"energy": -0.27769,
				"method": "rhf"
			},
			{
				"type": "occ",
				"energy": -0.27468,
				"method": "rhf"
			},
			{
				"type": "occ",
				"energy": -0.27379,
				"method": "rhf"
			},
			{
				"type": "unocc",
				"energy": -0.04244,
				"method": "rhf"
			},
			{
				"type": "unocc",
				"energy": -0.02593,
				"method": "rhf"
			},
			{
				"type": "unocc",
				"energy": 0.05136,
				"method": "rhf"
			},
			{
				"type": "unocc",
				"energy": 0.07171,
				"method": "rhf"
			},
			{
				"type": "unocc",
				"energy": 0.07533,
				"method": "rhf"
			}
		],
		"cosmo_sigma_profile": { 
			"-0.025": 0.0,
			"-0.024": 0.0,
			"-0.023": 0.0,
			"-0.022": 0.0,
			"-0.021": 0.0,
			"-0.02": 0.0,
			"-0.019": 0.0,
			"-0.018": 0.0,
			"-0.017": 0.0,
			"-0.016": 0.317565194924,
			"-0.015": 1.08476487227,
			"-0.014": 0.929586627381,
			"-0.013": 1.14961777673,
			"-0.012": 1.06551664147,
			"-0.011": 0.765658450865,
			"-0.01": 1.06627297153,
			"-0.009": 1.81990652616,
			"-0.008": 4.40748639347,
			"-0.007": 12.1953568962,
			"-0.006": 15.6497229435,
			"-0.005": 16.663193656,
			"-0.004": 16.8326838905,
			"-0.003": 14.6934420494,
			"-0.002": 15.1594128724,
			"-0.001": 15.5838118429,
			"0.0": 17.437179044,
			"0.001": 13.8597527295,
			"0.002": 13.302902637,
			"0.003": 14.6959547854,
			"0.004": 5.98172618293,
			"0.005": 2.89861652252,
			"0.006": 3.88068600232,
			"0.007": 4.07807456611,
			"0.008": 3.67049717174,
			"0.009": 4.37814472331,
			"0.01": 6.11229696854,
			"0.011": 9.5080599952,
			"0.012": 8.75787770391,
			"0.013": 2.74713586975,
			"0.014": 0.274312244081,
			"0.015": 0.0,
			"0.016": 0.0,
			"0.017": 0.0,
			"0.018": 0.0,
			"0.019": 0.0,
			"0.02": 0.0,
			"0.021": 0.0,
			"0.022": 0.0,
			"0.023": 0.0,
			"0.024": 0.0,
			"0.025": 0.0
		}
	}
}
