{
	 "smiles": "NC1=C(C=CC=C1)S(=O)(=O)C(F)(F)F", 
	 "Tm": 321.15, 
	 "num_atms": 20, 
	 "gaussian": { 
		 "optdone": 1, 
		 "sigma_profile": "yes", 
		 "theory": "DFT", 
		 "functional": "B3LYP", 
		 "basiset": "6-31G**", 
		 "properties": { 
			 "R2extent": 2811.9516, 
			 "electric_dipole_moment_norm": 4.79965253534, 
			 "electric_quadrupole_moment_norm": 10.85028985, 
			 "total_energy": -1173.19111339, 
			 "HOMO_LUMO_gap": 0.17892, 
			 "cosmo_polarized_energy": -10.9, 
			 "cosmo_cavitation_energy": 26.66, 
			 "cosmo_dispersion_energy": -19.54, 
			 "cosmo_repulsion_energy": 1.43, 
			 "cosmo_total_nonelectrostatic_energy": 8.56, 
			 "SMD_solvation_energy": 5.03 
		},
		"coords": [
			{
				"x": -0.4789946933,
				"y": -2.2149597434,
				"z": -0.0816740454,
				"element": "N" 
			},
			{
				"x": 0.4810330415,
				"y": -1.2383075534,
				"z": -0.0693277885,
				"element": "C" 
			},
			{
				"x": 0.2295832162,
				"y": 0.1084298955,
				"z": 0.3111337582,
				"element": "C" 
			},
			{
				"x": 1.2414681176,
				"y": 1.0826037111,
				"z": 0.2833714135,
				"element": "C" 
			},
			{
				"x": 2.5227765041,
				"y": 0.7543950232,
				"z": -0.1296764718,
				"element": "C" 
			},
			{
				"x": 2.7874218774,
				"y": -0.5668044124,
				"z": -0.5188662059,
				"element": "C" 
			},
			{
				"x": 1.7987937952,
				"y": -1.5365218499,
				"z": -0.4881499945,
				"element": "C" 
			},
			{
				"x": -1.3716839888,
				"y": 0.6535966739,
				"z": 0.8465004566,
				"element": "S" 
			},
			{
				"x": -1.254171334,
				"y": 1.9232823868,
				"z": 1.5666258378,
				"element": "O" 
			},
			{
				"x": -2.1297801109,
				"y": -0.478025607,
				"z": 1.4101713188,
				"element": "O" 
			},
			{
				"x": -2.2411270232,
				"y": 1.0725051712,
				"z": -0.7633931422,
				"element": "C" 
			},
			{
				"x": -1.5833681947,
				"y": 2.0512975124,
				"z": -1.3899589552,
				"element": "F" 
			},
			{
				"x": -2.2800238407,
				"y": -0.0070862247,
				"z": -1.5506543104,
				"element": "F" 
			},
			{
				"x": -3.4826522689,
				"y": 1.4712838447,
				"z": -0.4928358176,
				"element": "F" 
			},
			{
				"x": -0.1591659613,
				"y": -3.167484541,
				"z": -0.1617166751,
				"element": "H" 
			},
			{
				"x": -1.3113688895,
				"y": -2.0646751079,
				"z": 0.4739950104,
				"element": "H" 
			},
			{
				"x": 0.9984475524,
				"y": 2.0890730987,
				"z": 0.6056623183,
				"element": "H" 
			},
			{
				"x": 3.3039086458,
				"y": 1.5061494404,
				"z": -0.1475799101,
				"element": "H" 
			},
			{
				"x": 3.7858789218,
				"y": -0.8440968493,
				"z": -0.8450959635,
				"element": "H" 
			},
			{
				"x": 2.0263246334,
				"y": -2.556354869,
				"z": -0.7870308333,
				"element": "H" 
			}
		],
		 "valence_orbital": [ 
			{
				"type": "occ",
				"energy": -0.33117,
				"method": "rhf"
			},
			{
				"type": "occ",
				"energy": -0.32131,
				"method": "rhf"
			},
			{
				"type": "occ",
				"energy": -0.30522,
				"method": "rhf"
			},
			{
				"type": "occ",
				"energy": -0.28172,
				"method": "rhf"
			},
			{
				"type": "occ",
				"energy": -0.22774,
				"method": "rhf"
			},
			{
				"type": "unocc",
				"energy": -0.04882,
				"method": "rhf"
			},
			{
				"type": "unocc",
				"energy": -0.01036,
				"method": "rhf"
			},
			{
				"type": "unocc",
				"energy": 0.04929,
				"method": "rhf"
			},
			{
				"type": "unocc",
				"energy": 0.05895,
				"method": "rhf"
			},
			{
				"type": "unocc",
				"energy": 0.06026,
				"method": "rhf"
			}
		],
		"cosmo_sigma_profile": { 
			"-0.025": 0.0,
			"-0.024": 0.0,
			"-0.023": 0.0,
			"-0.022": 0.0,
			"-0.021": 0.0,
			"-0.02": 0.0,
			"-0.019": 0.0,
			"-0.018": 0.0,
			"-0.017": 0.0,
			"-0.016": 0.0,
			"-0.015": 0.150879022709,
			"-0.014": 1.08233286572,
			"-0.013": 1.84646408652,
			"-0.012": 1.3031537253,
			"-0.011": 1.56476470309,
			"-0.01": 2.31959704331,
			"-0.009": 2.47974767785,
			"-0.008": 2.42343425831,
			"-0.007": 5.54945500541,
			"-0.006": 8.91241920138,
			"-0.005": 10.2256843942,
			"-0.004": 8.87148417899,
			"-0.003": 9.17095531556,
			"-0.002": 12.5235645961,
			"-0.001": 16.8614262149,
			"0.0": 23.6772146022,
			"0.001": 36.965348795,
			"0.002": 14.7194410913,
			"0.003": 12.4820324896,
			"0.004": 10.4143442495,
			"0.005": 3.71871233588,
			"0.006": 4.41703160018,
			"0.007": 3.93724856026,
			"0.008": 4.57656928801,
			"0.009": 7.16629940397,
			"0.01": 6.04227675793,
			"0.011": 0.632814747731,
			"0.012": 0.0,
			"0.013": 0.0,
			"0.014": 0.0,
			"0.015": 0.0,
			"0.016": 0.0,
			"0.017": 0.0,
			"0.018": 0.0,
			"0.019": 0.0,
			"0.02": 0.0,
			"0.021": 0.0,
			"0.022": 0.0,
			"0.023": 0.0,
			"0.024": 0.0,
			"0.025": 0.0
		}
	}
}
