{
	 "smiles": "CCOC(=O)C1=CC2=C(S1)SC1N=C(C(=O)OCC)C(N)=C1C2C1=CC=CC=C1", 
	 "Tm": 406.15, 
	 "num_atms": 49, 
	 "gaussian": { 
		 "optdone": 1, 
		 "sigma_profile": "yes", 
		 "theory": "DFT", 
		 "functional": "B3LYP", 
		 "basiset": "6-31G**", 
		 "properties": { 
			 "R2extent": 17557.2634, 
			 "electric_dipole_moment_norm": 7.43285482503, 
			 "electric_quadrupole_moment_norm": 23.2584839224, 
			 "total_energy": -2019.04940733, 
			 "HOMO_LUMO_gap": 0.1361, 
			 "cosmo_polarized_energy": -23.88, 
			 "cosmo_cavitation_energy": 56.54, 
			 "cosmo_dispersion_energy": -39.14, 
			 "cosmo_repulsion_energy": 2.93, 
			 "cosmo_total_nonelectrostatic_energy": 20.33, 
			 "SMD_solvation_energy": 7.22 
		},
		"coords": [
			{
				"x": -0.3011758007,
				"y": -0.0315999586,
				"z": 7.9687535123,
				"element": "C" 
			},
			{
				"x": 0.7787565607,
				"y": 0.7766132182,
				"z": 7.2650203185,
				"element": "C" 
			},
			{
				"x": 0.7841987434,
				"y": 0.522975207,
				"z": 5.8400063342,
				"element": "O" 
			},
			{
				"x": 1.4937113079,
				"y": -0.5544938123,
				"z": 5.4276463476,
				"element": "C" 
			},
			{
				"x": 2.1118091309,
				"y": -1.2958741719,
				"z": 6.1716873676,
				"element": "O" 
			},
			{
				"x": 1.4318786946,
				"y": -0.716693761,
				"z": 3.9719607226,
				"element": "C" 
			},
			{
				"x": 0.7793341071,
				"y": 0.0366865861,
				"z": 3.0288600896,
				"element": "C" 
			},
			{
				"x": 0.9334220363,
				"y": -0.4459533849,
				"z": 1.6978265214,
				"element": "C" 
			},
			{
				"x": 1.7295460558,
				"y": -1.5781691631,
				"z": 1.6578150454,
				"element": "C" 
			},
			{
				"x": 2.2966316919,
				"y": -2.047003546,
				"z": 3.23864654,
				"element": "S" 
			},
			{
				"x": 2.1847579389,
				"y": -2.5598287548,
				"z": 0.261365194,
				"element": "S" 
			},
			{
				"x": 1.8284647216,
				"y": -1.2754245295,
				"z": -1.0330129056,
				"element": "C" 
			},
			{
				"x": 1.7037894752,
				"y": -1.9787899916,
				"z": -2.3003262515,
				"element": "N" 
			},
			{
				"x": 0.5120694808,
				"y": -1.7146209357,
				"z": -2.72572591,
				"element": "C" 
			},
			{
				"x": 0.0680788466,
				"y": -2.3068977572,
				"z": -4.0364670586,
				"element": "C" 
			},
			{
				"x": 0.8117875179,
				"y": -2.7323610791,
				"z": -4.8862681326,
				"element": "O" 
			},
			{
				"x": -1.2873753798,
				"y": -2.3179885738,
				"z": -4.1314972072,
				"element": "O" 
			},
			{
				"x": -1.8425931834,
				"y": -2.878696449,
				"z": -5.3526872601,
				"element": "C" 
			},
			{
				"x": -1.901481828,
				"y": -1.8395068918,
				"z": -6.4611005552,
				"element": "C" 
			},
			{
				"x": -0.2811014262,
				"y": -0.8497863803,
				"z": -1.8152208091,
				"element": "C" 
			},
			{
				"x": -1.5558944255,
				"y": -0.3955899884,
				"z": -2.0831995705,
				"element": "N" 
			},
			{
				"x": 0.5347089722,
				"y": -0.5824911841,
				"z": -0.759459435,
				"element": "C" 
			},
			{
				"x": 0.2684552794,
				"y": 0.2052078491,
				"z": 0.4941401906,
				"element": "C" 
			},
			{
				"x": 0.6629658549,
				"y": 1.6814009976,
				"z": 0.3273515851,
				"element": "C" 
			},
			{
				"x": 1.995171142,
				"y": 2.09836173,
				"z": 0.451408929,
				"element": "C" 
			},
			{
				"x": 2.3443110644,
				"y": 3.4332326984,
				"z": 0.2470085634,
				"element": "C" 
			},
			{
				"x": 1.3660664101,
				"y": 4.3745515428,
				"z": -0.0808998272,
				"element": "C" 
			},
			{
				"x": 0.0358075105,
				"y": 3.9710324317,
				"z": -0.1998710923,
				"element": "C" 
			},
			{
				"x": -0.3101645735,
				"y": 2.6340177664,
				"z": 0.0037190711,
				"element": "C" 
			},
			{
				"x": -0.3330943173,
				"y": 0.2365380821,
				"z": 9.0301577707,
				"element": "H" 
			},
			{
				"x": -0.0906220262,
				"y": -1.100931921,
				"z": 7.8915003001,
				"element": "H" 
			},
			{
				"x": -1.2847494481,
				"y": 0.1693679652,
				"z": 7.5338152135,
				"element": "H" 
			},
			{
				"x": 0.5940577947,
				"y": 1.8504709623,
				"z": 7.3472500849,
				"element": "H" 
			},
			{
				"x": 1.7678503431,
				"y": 0.5459870228,
				"z": 7.667683864,
				"element": "H" 
			},
			{
				"x": 0.200343963,
				"y": 0.9159736739,
				"z": 3.2859082691,
				"element": "H" 
			},
			{
				"x": 2.6986545069,
				"y": -0.6104003888,
				"z": -1.0795324106,
				"element": "H" 
			},
			{
				"x": -2.8387637395,
				"y": -3.2197757672,
				"z": -5.0622881603,
				"element": "H" 
			},
			{
				"x": -1.2340762526,
				"y": -3.7371934355,
				"z": -5.6439915636,
				"element": "H" 
			},
			{
				"x": -2.3879533707,
				"y": -2.2700799091,
				"z": -7.3424901221,
				"element": "H" 
			},
			{
				"x": -2.4747552793,
				"y": -0.9620880263,
				"z": -6.1474560312,
				"element": "H" 
			},
			{
				"x": -0.8954744128,
				"y": -1.5230364925,
				"z": -6.745924459,
				"element": "H" 
			},
			{
				"x": -2.0956762447,
				"y": -0.9887805914,
				"z": -2.697856146,
				"element": "H" 
			},
			{
				"x": -2.07070412,
				"y": -0.0401497165,
				"z": -1.2899278482,
				"element": "H" 
			},
			{
				"x": -0.8170583786,
				"y": 0.1920349415,
				"z": 0.6763012735,
				"element": "H" 
			},
			{
				"x": 2.7607714871,
				"y": 1.3780364497,
				"z": 0.7256577885,
				"element": "H" 
			},
			{
				"x": 3.3816303278,
				"y": 3.7390957955,
				"z": 0.3495526967,
				"element": "H" 
			},
			{
				"x": 1.638212471,
				"y": 5.4143411053,
				"z": -0.2367050236,
				"element": "H" 
			},
			{
				"x": -0.7346542391,
				"y": 4.6957705982,
				"z": -0.4474843996,
				"element": "H" 
			},
			{
				"x": -1.3502749904,
				"y": 2.3298099376,
				"z": -0.0893514141,
				"element": "H" 
			}
		],
		 "valence_orbital": [ 
			{
				"type": "occ",
				"energy": -0.26252,
				"method": "rhf"
			},
			{
				"type": "occ",
				"energy": -0.25619,
				"method": "rhf"
			},
			{
				"type": "occ",
				"energy": -0.24657,
				"method": "rhf"
			},
			{
				"type": "occ",
				"energy": -0.21659,
				"method": "rhf"
			},
			{
				"type": "occ",
				"energy": -0.21225,
				"method": "rhf"
			},
			{
				"type": "unocc",
				"energy": -0.07615,
				"method": "rhf"
			},
			{
				"type": "unocc",
				"energy": -0.05119,
				"method": "rhf"
			},
			{
				"type": "unocc",
				"energy": -0.01039,
				"method": "rhf"
			},
			{
				"type": "unocc",
				"energy": -0.00912,
				"method": "rhf"
			},
			{
				"type": "unocc",
				"energy": 0.00103,
				"method": "rhf"
			}
		],
		"cosmo_sigma_profile": { 
			"-0.025": 0.0,
			"-0.024": 0.0,
			"-0.023": 0.0,
			"-0.022": 0.0,
			"-0.021": 0.0,
			"-0.02": 0.0,
			"-0.019": 0.0,
			"-0.018": 0.0,
			"-0.017": 0.0,
			"-0.016": 0.0,
			"-0.015": 0.0,
			"-0.014": 0.0,
			"-0.013": 0.452653894127,
			"-0.012": 1.97385503343,
			"-0.011": 1.77784626175,
			"-0.01": 3.12599956642,
			"-0.009": 3.5654142028,
			"-0.008": 3.96627468768,
			"-0.007": 8.07807907813,
			"-0.006": 17.1353729258,
			"-0.005": 29.0110634063,
			"-0.004": 43.4252518058,
			"-0.003": 42.4061520423,
			"-0.002": 36.9277902949,
			"-0.001": 36.279774385,
			"0.0": 35.8089724907,
			"0.001": 33.2549395391,
			"0.002": 36.5793849184,
			"0.003": 27.0212497569,
			"0.004": 20.1544927645,
			"0.005": 17.2184973458,
			"0.006": 15.2052224742,
			"0.007": 6.77882361492,
			"0.008": 4.90400715187,
			"0.009": 4.0329100686,
			"0.01": 5.54511321665,
			"0.011": 7.85286846107,
			"0.012": 6.63402273258,
			"0.013": 1.70745891487,
			"0.014": 1.70315160324,
			"0.015": 1.16926289566,
			"0.016": 0.305298337389,
			"0.017": 0.0,
			"0.018": 0.0,
			"0.019": 0.0,
			"0.02": 0.0,
			"0.021": 0.0,
			"0.022": 0.0,
			"0.023": 0.0,
			"0.024": 0.0,
			"0.025": 0.0
		}
	}
}
