{
	 "smiles": "CN1C=CN=C1C1=NOC(N)=C1", 
	 "Tm": 452.15, 
	 "num_atms": 20, 
	 "gaussian": { 
		 "optdone": 1, 
		 "sigma_profile": "yes", 
		 "theory": "DFT", 
		 "functional": "B3LYP", 
		 "basiset": "6-31G**", 
		 "properties": { 
			 "R2extent": 2384.7528, 
			 "electric_dipole_moment_norm": 6.32104894143, 
			 "electric_quadrupole_moment_norm": 18.7235530643, 
			 "total_energy": -565.731154807, 
			 "HOMO_LUMO_gap": 0.20263, 
			 "cosmo_polarized_energy": -23.57, 
			 "cosmo_cavitation_energy": 24.77, 
			 "cosmo_dispersion_energy": -18.3, 
			 "cosmo_repulsion_energy": 1.46, 
			 "cosmo_total_nonelectrostatic_energy": 7.93, 
			 "SMD_solvation_energy": 2.98 
		},
		"coords": [
			{
				"x": 2.4513133559,
				"y": -1.0253441349,
				"z": 1.2078962242,
				"element": "C" 
			},
			{
				"x": 1.0528520604,
				"y": -0.8311208159,
				"z": 1.561654619,
				"element": "N" 
			},
			{
				"x": 0.5492639768,
				"y": -0.8614505107,
				"z": 2.8444260788,
				"element": "C" 
			},
			{
				"x": -0.8072068627,
				"y": -0.6819173862,
				"z": 2.7208574989,
				"element": "C" 
			},
			{
				"x": -1.1577803784,
				"y": -0.542368802,
				"z": 1.4045503569,
				"element": "N" 
			},
			{
				"x": -0.0264277129,
				"y": -0.6340059241,
				"z": 0.7246737243,
				"element": "C" 
			},
			{
				"x": 0.0896132407,
				"y": -0.5336849914,
				"z": -0.7349721826,
				"element": "C" 
			},
			{
				"x": -0.7981476281,
				"y": -1.1454689421,
				"z": -1.4967383267,
				"element": "N" 
			},
			{
				"x": -0.4246819523,
				"y": -0.8062368882,
				"z": -2.8208180284,
				"element": "O" 
			},
			{
				"x": 0.6645123024,
				"y": -0.022623519,
				"z": -2.7905129609,
				"element": "C" 
			},
			{
				"x": 1.176333068,
				"y": 0.351980025,
				"z": -4.0095248921,
				"element": "N" 
			},
			{
				"x": 1.0568507209,
				"y": 0.1921111881,
				"z": -1.4948804739,
				"element": "C" 
			},
			{
				"x": 3.0210436218,
				"y": -0.0939828081,
				"z": 1.3010490014,
				"element": "H" 
			},
			{
				"x": 2.5236439483,
				"y": -1.3819291043,
				"z": 0.1802885969,
				"element": "H" 
			},
			{
				"x": 2.8921834595,
				"y": -1.7739218415,
				"z": 1.8703058705,
				"element": "H" 
			},
			{
				"x": 1.191363611,
				"y": -1.0114647512,
				"z": 3.6994418956,
				"element": "H" 
			},
			{
				"x": -1.5470643581,
				"y": -0.6455300336,
				"z": 3.5086819526,
				"element": "H" 
			},
			{
				"x": 1.7145265201,
				"y": 1.2064215223,
				"z": -4.0050914276,
				"element": "H" 
			},
			{
				"x": 0.5130717685,
				"y": 0.3009522761,
				"z": -4.7716136715,
				"element": "H" 
			},
			{
				"x": 1.8677372383,
				"y": 0.8070854417,
				"z": -1.1389738552,
				"element": "H" 
			}
		],
		 "valence_orbital": [ 
			{
				"type": "occ",
				"energy": -0.29533,
				"method": "rhf"
			},
			{
				"type": "occ",
				"energy": -0.26523,
				"method": "rhf"
			},
			{
				"type": "occ",
				"energy": -0.2579,
				"method": "rhf"
			},
			{
				"type": "occ",
				"energy": -0.22484,
				"method": "rhf"
			},
			{
				"type": "occ",
				"energy": -0.21427,
				"method": "rhf"
			},
			{
				"type": "unocc",
				"energy": -0.01164,
				"method": "rhf"
			},
			{
				"type": "unocc",
				"energy": 0.03638,
				"method": "rhf"
			},
			{
				"type": "unocc",
				"energy": 0.05318,
				"method": "rhf"
			},
			{
				"type": "unocc",
				"energy": 0.06695,
				"method": "rhf"
			},
			{
				"type": "unocc",
				"energy": 0.08977,
				"method": "rhf"
			}
		],
		"cosmo_sigma_profile": { 
			"-0.025": 0.0,
			"-0.024": 0.0,
			"-0.023": 0.0,
			"-0.022": 0.0,
			"-0.021": 0.0,
			"-0.02": 0.0,
			"-0.019": 0.0,
			"-0.018": 0.0,
			"-0.017": 0.0,
			"-0.016": 0.0,
			"-0.015": 0.930455429642,
			"-0.014": 3.09892584812,
			"-0.013": 2.56044839099,
			"-0.012": 2.70993993912,
			"-0.011": 2.78138248112,
			"-0.01": 2.4076927191,
			"-0.009": 2.33834449148,
			"-0.008": 6.52064091427,
			"-0.007": 9.29304072937,
			"-0.006": 14.0304072466,
			"-0.005": 13.0893783295,
			"-0.004": 14.0130039911,
			"-0.003": 14.5413896992,
			"-0.002": 7.82028198563,
			"-0.001": 7.00837109525,
			"0.0": 6.0479560915,
			"0.001": 8.96095927781,
			"0.002": 10.3822493659,
			"0.003": 9.69855568116,
			"0.004": 7.80340017994,
			"0.005": 8.08375873717,
			"0.006": 5.18769655017,
			"0.007": 4.60876366501,
			"0.008": 6.98458908576,
			"0.009": 4.89346153828,
			"0.01": 3.2251904786,
			"0.011": 3.60481471894,
			"0.012": 2.74209396334,
			"0.013": 3.15997990893,
			"0.014": 3.77557451957,
			"0.015": 2.69984321206,
			"0.016": 1.04769553223,
			"0.017": 1.45209003931,
			"0.018": 0.507729078805,
			"0.019": 0.0,
			"0.02": 0.0,
			"0.021": 0.0,
			"0.022": 0.0,
			"0.023": 0.0,
			"0.024": 0.0,
			"0.025": 0.0
		}
	}
}
