{
	 "smiles": "COC1=CC=C(C=C1)S(Cl)(=O)=O", 
	 "Tm": 314.15, 
	 "num_atms": 19, 
	 "gaussian": { 
		 "optdone": 1, 
		 "sigma_profile": "yes", 
		 "theory": "DFT", 
		 "functional": "B3LYP", 
		 "basiset": "6-31G**", 
		 "properties": { 
			 "R2extent": 6512.2431, 
			 "electric_dipole_moment_norm": 6.98835689129, 
			 "electric_quadrupole_moment_norm": 25.4805692949, 
			 "total_energy": -1354.93573541, 
			 "HOMO_LUMO_gap": 0.17336, 
			 "cosmo_polarized_energy": -11.25, 
			 "cosmo_cavitation_energy": 26.81, 
			 "cosmo_dispersion_energy": -20.26, 
			 "cosmo_repulsion_energy": 1.57, 
			 "cosmo_total_nonelectrostatic_energy": 8.11, 
			 "SMD_solvation_energy": 4.17 
		},
		"coords": [
			{
				"x": 1.0562166874,
				"y": 1.1490107566,
				"z": -1.4806651974,
				"element": "C" 
			},
			{
				"x": -0.1083775934,
				"y": 0.337493141,
				"z": -1.3625187451,
				"element": "O" 
			},
			{
				"x": -0.8878800312,
				"y": 0.4697551937,
				"z": -0.2649813113,
				"element": "C" 
			},
			{
				"x": -2.0187991638,
				"y": -0.3679825909,
				"z": -0.2230861176,
				"element": "C" 
			},
			{
				"x": -2.8858008036,
				"y": -0.3171241392,
				"z": 0.8549676229,
				"element": "C" 
			},
			{
				"x": -2.6206145503,
				"y": 0.5827506181,
				"z": 1.8955228603,
				"element": "C" 
			},
			{
				"x": -1.5053362161,
				"y": 1.4187306696,
				"z": 1.872089902,
				"element": "C" 
			},
			{
				"x": -0.6349865036,
				"y": 1.3661367801,
				"z": 0.7859494703,
				"element": "C" 
			},
			{
				"x": -3.731565933,
				"y": 0.6639266334,
				"z": 3.275871962,
				"element": "S" 
			},
			{
				"x": -2.9135818092,
				"y": -0.8207322997,
				"z": 4.5893243733,
				"element": "Cl" 
			},
			{
				"x": -5.0410514595,
				"y": 0.1597408304,
				"z": 2.8791064207,
				"element": "O" 
			},
			{
				"x": -3.5621451143,
				"y": 1.9374965131,
				"z": 3.9660005243,
				"element": "O" 
			},
			{
				"x": 1.5175213315,
				"y": 0.8703584744,
				"z": -2.4283476321,
				"element": "H" 
			},
			{
				"x": 0.8004425518,
				"y": 2.2150277256,
				"z": -1.5010573856,
				"element": "H" 
			},
			{
				"x": 1.7615366108,
				"y": 0.9576458246,
				"z": -0.6633212699,
				"element": "H" 
			},
			{
				"x": -2.1915121013,
				"y": -1.0446338511,
				"z": -1.0527445365,
				"element": "H" 
			},
			{
				"x": -3.76391683,
				"y": -0.9517936361,
				"z": 0.8937113422,
				"element": "H" 
			},
			{
				"x": -1.3270904413,
				"y": 2.110019878,
				"z": 2.68815919,
				"element": "H" 
			},
			{
				"x": 0.226141369,
				"y": 2.0222734785,
				"z": 0.7657185275,
				"element": "H" 
			}
		],
		 "valence_orbital": [ 
			{
				"type": "occ",
				"energy": -0.32987,
				"method": "rhf"
			},
			{
				"type": "occ",
				"energy": -0.32096,
				"method": "rhf"
			},
			{
				"type": "occ",
				"energy": -0.3061,
				"method": "rhf"
			},
			{
				"type": "occ",
				"energy": -0.28774,
				"method": "rhf"
			},
			{
				"type": "occ",
				"energy": -0.25661,
				"method": "rhf"
			},
			{
				"type": "unocc",
				"energy": -0.08325,
				"method": "rhf"
			},
			{
				"type": "unocc",
				"energy": -0.0361,
				"method": "rhf"
			},
			{
				"type": "unocc",
				"energy": -0.03068,
				"method": "rhf"
			},
			{
				"type": "unocc",
				"energy": 0.05744,
				"method": "rhf"
			},
			{
				"type": "unocc",
				"energy": 0.0764,
				"method": "rhf"
			}
		],
		"cosmo_sigma_profile": { 
			"-0.025": 0.0,
			"-0.024": 0.0,
			"-0.023": 0.0,
			"-0.022": 0.0,
			"-0.021": 0.0,
			"-0.02": 0.0,
			"-0.019": 0.0,
			"-0.018": 0.0,
			"-0.017": 0.0,
			"-0.016": 0.0,
			"-0.015": 0.0,
			"-0.014": 0.0,
			"-0.013": 0.0,
			"-0.012": 0.0,
			"-0.011": 0.0,
			"-0.01": 0.0278404967214,
			"-0.009": 0.714762975806,
			"-0.008": 5.9922895557,
			"-0.007": 11.3767232263,
			"-0.006": 14.9834738647,
			"-0.005": 13.8725277747,
			"-0.004": 14.8362916663,
			"-0.003": 11.8517045978,
			"-0.002": 9.67661000231,
			"-0.001": 12.9519420922,
			"0.0": 16.2496518606,
			"0.001": 23.0221099179,
			"0.002": 17.2723768959,
			"0.003": 12.2522031697,
			"0.004": 17.5639287303,
			"0.005": 4.8030868013,
			"0.006": 4.68270665616,
			"0.007": 6.55456012411,
			"0.008": 10.7081034804,
			"0.009": 7.68172250476,
			"0.01": 0.33128865155,
			"0.011": 0.0,
			"0.012": 0.0,
			"0.013": 0.0,
			"0.014": 0.0,
			"0.015": 0.0,
			"0.016": 0.0,
			"0.017": 0.0,
			"0.018": 0.0,
			"0.019": 0.0,
			"0.02": 0.0,
			"0.021": 0.0,
			"0.022": 0.0,
			"0.023": 0.0,
			"0.024": 0.0,
			"0.025": 0.0
		}
	}
}
