{
	 "smiles": "CN1CCCC2=C1C=CC(C=CC(O)=O)=C2", 
	 "Tm": 443.15, 
	 "num_atms": 31, 
	 "gaussian": { 
		 "optdone": 1, 
		 "sigma_profile": "yes", 
		 "theory": "DFT", 
		 "functional": "B3LYP", 
		 "basiset": "6-31G**", 
		 "properties": { 
			 "R2extent": 6206.2536, 
			 "electric_dipole_moment_norm": 5.7475777237, 
			 "electric_quadrupole_moment_norm": 15.9121514092, 
			 "total_energy": -709.638298718, 
			 "HOMO_LUMO_gap": 0.13987, 
			 "cosmo_polarized_energy": -13.39, 
			 "cosmo_cavitation_energy": 33.76, 
			 "cosmo_dispersion_energy": -24.83, 
			 "cosmo_repulsion_energy": 1.92, 
			 "cosmo_total_nonelectrostatic_energy": 10.85, 
			 "SMD_solvation_energy": 5.8 
		},
		"coords": [
			{
				"x": -0.8558441739,
				"y": -3.0823046071,
				"z": 1.3590815243,
				"element": "C" 
			},
			{
				"x": -1.0809286405,
				"y": -1.7603868183,
				"z": 1.9164676213,
				"element": "N" 
			},
			{
				"x": -1.1592966663,
				"y": -1.6577286181,
				"z": 3.3721233698,
				"element": "C" 
			},
			{
				"x": -1.8618962493,
				"y": -0.3680294175,
				"z": 3.7907095432,
				"element": "C" 
			},
			{
				"x": -1.1096306709,
				"y": 0.8379640089,
				"z": 3.2241525839,
				"element": "C" 
			},
			{
				"x": -0.8285794641,
				"y": 0.6655934708,
				"z": 1.7447516407,
				"element": "C" 
			},
			{
				"x": -0.7969912145,
				"y": -0.6316024916,
				"z": 1.1618434441,
				"element": "C" 
			},
			{
				"x": -0.4892615703,
				"y": -0.734135329,
				"z": -0.217031485,
				"element": "C" 
			},
			{
				"x": -0.2454063783,
				"y": 0.3903169688,
				"z": -0.9871849903,
				"element": "C" 
			},
			{
				"x": -0.2894813351,
				"y": 1.6825559541,
				"z": -0.4313085004,
				"element": "C" 
			},
			{
				"x": -0.0468034876,
				"y": 2.8988267975,
				"z": -1.1878206324,
				"element": "C" 
			},
			{
				"x": 0.246931338,
				"y": 3.0229538596,
				"z": -2.5001836799,
				"element": "C" 
			},
			{
				"x": 0.4589776221,
				"y": 4.3537535245,
				"z": -3.0813876378,
				"element": "C" 
			},
			{
				"x": 0.7438534525,
				"y": 4.281332244,
				"z": -4.41273962,
				"element": "O" 
			},
			{
				"x": 0.4008097483,
				"y": 5.4227602008,
				"z": -2.4975782698,
				"element": "O" 
			},
			{
				"x": -0.5868149965,
				"y": 1.7727268323,
				"z": 0.9420892852,
				"element": "C" 
			},
			{
				"x": -1.4450986942,
				"y": -3.2330047328,
				"z": 0.4480967294,
				"element": "H" 
			},
			{
				"x": -1.1772549965,
				"y": -3.8304364749,
				"z": 2.0864003978,
				"element": "H" 
			},
			{
				"x": 0.201555916,
				"y": -3.2717919454,
				"z": 1.1175326025,
				"element": "H" 
			},
			{
				"x": -1.7147073231,
				"y": -2.5266819661,
				"z": 3.7398902285,
				"element": "H" 
			},
			{
				"x": -0.1549949435,
				"y": -1.7001124852,
				"z": 3.8290570433,
				"element": "H" 
			},
			{
				"x": -1.9143553704,
				"y": -0.3178391998,
				"z": 4.8833097898,
				"element": "H" 
			},
			{
				"x": -2.890143203,
				"y": -0.3841509427,
				"z": 3.411074431,
				"element": "H" 
			},
			{
				"x": -0.1619633128,
				"y": 0.9588654574,
				"z": 3.7686156857,
				"element": "H" 
			},
			{
				"x": -1.6766932847,
				"y": 1.7604050264,
				"z": 3.3913190578,
				"element": "H" 
			},
			{
				"x": -0.4380561702,
				"y": -1.7069803746,
				"z": -0.6897858794,
				"element": "H" 
			},
			{
				"x": -0.0137026327,
				"y": 0.2598462946,
				"z": -2.0399301131,
				"element": "H" 
			},
			{
				"x": -0.1098823098,
				"y": 3.8307237718,
				"z": -0.6266614057,
				"element": "H" 
			},
			{
				"x": 0.3381075734,
				"y": 2.175437345,
				"z": -3.1711273515,
				"element": "H" 
			},
			{
				"x": 0.8653272933,
				"y": 5.2010819119,
				"z": -4.6998180145,
				"element": "H" 
			},
			{
				"x": -0.6255758553,
				"y": 2.7590417347,
				"z": 1.4010426013,
				"element": "H" 
			}
		],
		 "valence_orbital": [ 
			{
				"type": "occ",
				"energy": -0.29612,
				"method": "rhf"
			},
			{
				"type": "occ",
				"energy": -0.25598,
				"method": "rhf"
			},
			{
				"type": "occ",
				"energy": -0.25579,
				"method": "rhf"
			},
			{
				"type": "occ",
				"energy": -0.24582,
				"method": "rhf"
			},
			{
				"type": "occ",
				"energy": -0.18828,
				"method": "rhf"
			},
			{
				"type": "unocc",
				"energy": -0.04841,
				"method": "rhf"
			},
			{
				"type": "unocc",
				"energy": -0.00163,
				"method": "rhf"
			},
			{
				"type": "unocc",
				"energy": 0.0377,
				"method": "rhf"
			},
			{
				"type": "unocc",
				"energy": 0.07904,
				"method": "rhf"
			},
			{
				"type": "unocc",
				"energy": 0.0948,
				"method": "rhf"
			}
		],
		"cosmo_sigma_profile": { 
			"-0.025": 0.0,
			"-0.024": 0.0,
			"-0.023": 0.0,
			"-0.022": 0.0,
			"-0.021": 0.0,
			"-0.02": 0.0,
			"-0.019": 0.0,
			"-0.018": 0.0840304476426,
			"-0.017": 0.786322443093,
			"-0.016": 0.850575649307,
			"-0.015": 0.724823947092,
			"-0.014": 0.984279570708,
			"-0.013": 0.688306125716,
			"-0.012": 0.793663907636,
			"-0.011": 0.163336769455,
			"-0.01": 0.654980479523,
			"-0.009": 1.01563506152,
			"-0.008": 0.315573100248,
			"-0.007": 2.56552427014,
			"-0.006": 10.3960500096,
			"-0.005": 14.8951430461,
			"-0.004": 21.0334664353,
			"-0.003": 32.0752843692,
			"-0.002": 33.1051001256,
			"-0.001": 24.9211731452,
			"0.0": 16.5920342599,
			"0.001": 12.4685388368,
			"0.002": 13.9510777473,
			"0.003": 14.2643415373,
			"0.004": 16.4356372981,
			"0.005": 14.19044691,
			"0.006": 9.49186251379,
			"0.007": 3.08075405759,
			"0.008": 2.84085285831,
			"0.009": 2.66991223226,
			"0.01": 2.92518051129,
			"0.011": 2.41566760266,
			"0.012": 3.41868974791,
			"0.013": 5.22774640331,
			"0.014": 0.284108884302,
			"0.015": 0.0,
			"0.016": 0.0,
			"0.017": 0.0,
			"0.018": 0.0,
			"0.019": 0.0,
			"0.02": 0.0,
			"0.021": 0.0,
			"0.022": 0.0,
			"0.023": 0.0,
			"0.024": 0.0,
			"0.025": 0.0
		}
	}
}
