{
	 "smiles": "OC(=O)CCC1=NC(=NO1)C1=CSC=C1", 
	 "Tm": 427.15, 
	 "num_atms": 23, 
	 "gaussian": { 
		 "optdone": 1, 
		 "sigma_profile": "yes", 
		 "theory": "DFT", 
		 "functional": "B3LYP", 
		 "basiset": "6-31G**", 
		 "properties": { 
			 "R2extent": 5230.1954, 
			 "electric_dipole_moment_norm": 5.01366672307, 
			 "electric_quadrupole_moment_norm": 15.349772984, 
			 "total_energy": -1081.1009676, 
			 "HOMO_LUMO_gap": 0.19148, 
			 "cosmo_polarized_energy": -20.15, 
			 "cosmo_cavitation_energy": 30.55, 
			 "cosmo_dispersion_energy": -22.46, 
			 "cosmo_repulsion_energy": 1.73, 
			 "cosmo_total_nonelectrostatic_energy": 9.83, 
			 "SMD_solvation_energy": 5.15 
		},
		"coords": [
			{
				"x": 2.8988604837,
				"y": 1.4105154153,
				"z": 1.2643318701,
				"element": "O" 
			},
			{
				"x": 1.9208561638,
				"y": 0.5907130612,
				"z": 1.7245730188,
				"element": "C" 
			},
			{
				"x": 1.1985083391,
				"y": 0.945761502,
				"z": 2.621284987,
				"element": "O" 
			},
			{
				"x": 1.854313768,
				"y": -0.7869367326,
				"z": 1.0688149604,
				"element": "C" 
			},
			{
				"x": 0.5483002626,
				"y": -1.5095360379,
				"z": 1.3992923704,
				"element": "C" 
			},
			{
				"x": -0.6148131644,
				"y": -0.9169927393,
				"z": 0.6717491826,
				"element": "C" 
			},
			{
				"x": -0.6020385057,
				"y": -0.0983338528,
				"z": -0.3381789796,
				"element": "N" 
			},
			{
				"x": -1.9509915748,
				"y": 0.0746559204,
				"z": -0.5976211935,
				"element": "C" 
			},
			{
				"x": -2.7458668388,
				"y": -0.6017952751,
				"z": 0.2017610294,
				"element": "N" 
			},
			{
				"x": -1.8499841427,
				"y": -1.2686952168,
				"z": 1.0573787322,
				"element": "O" 
			},
			{
				"x": -2.4404404838,
				"y": 0.9355638033,
				"z": -1.6714793734,
				"element": "C" 
			},
			{
				"x": -3.7690302114,
				"y": 1.1185682254,
				"z": -1.9769484207,
				"element": "C" 
			},
			{
				"x": -3.972061902,
				"y": 2.2027874132,
				"z": -3.3021528805,
				"element": "S" 
			},
			{
				"x": -2.2555147323,
				"y": 2.4198025064,
				"z": -3.4566473478,
				"element": "C" 
			},
			{
				"x": -1.5720504049,
				"y": 1.6893893569,
				"z": -2.5289902727,
				"element": "C" 
			},
			{
				"x": 3.3621111385,
				"y": 0.9993283287,
				"z": 0.5209013856,
				"element": "H" 
			},
			{
				"x": 1.9699372866,
				"y": -0.6897979776,
				"z": -0.0160726026,
				"element": "H" 
			},
			{
				"x": 2.7055084944,
				"y": -1.3729845141,
				"z": 1.4380072402,
				"element": "H" 
			},
			{
				"x": 0.6242876504,
				"y": -2.5705757892,
				"z": 1.1333982823,
				"element": "H" 
			},
			{
				"x": 0.3531872109,
				"y": -1.4546287862,
				"z": 2.4738976826,
				"element": "H" 
			},
			{
				"x": -4.6232576437,
				"y": 0.6721163621,
				"z": -1.4885070108,
				"element": "H" 
			},
			{
				"x": -1.8590302581,
				"y": 3.0741809648,
				"z": -4.2200768419,
				"element": "H" 
			},
			{
				"x": -0.4936909354,
				"y": 1.6731940619,
				"z": -2.4359158182,
				"element": "H" 
			}
		],
		 "valence_orbital": [ 
			{
				"type": "occ",
				"energy": -0.29998,
				"method": "rhf"
			},
			{
				"type": "occ",
				"energy": -0.29695,
				"method": "rhf"
			},
			{
				"type": "occ",
				"energy": -0.28119,
				"method": "rhf"
			},
			{
				"type": "occ",
				"energy": -0.25404,
				"method": "rhf"
			},
			{
				"type": "occ",
				"energy": -0.2365,
				"method": "rhf"
			},
			{
				"type": "unocc",
				"energy": -0.04502,
				"method": "rhf"
			},
			{
				"type": "unocc",
				"energy": -0.00623,
				"method": "rhf"
			},
			{
				"type": "unocc",
				"energy": 0.00311,
				"method": "rhf"
			},
			{
				"type": "unocc",
				"energy": 0.01857,
				"method": "rhf"
			},
			{
				"type": "unocc",
				"energy": 0.02564,
				"method": "rhf"
			}
		],
		"cosmo_sigma_profile": { 
			"-0.025": 0.0,
			"-0.024": 0.0,
			"-0.023": 0.0,
			"-0.022": 0.0,
			"-0.021": 0.0,
			"-0.02": 0.0313471279287,
			"-0.019": 0.949459549803,
			"-0.018": 1.30852853572,
			"-0.017": 1.03414374998,
			"-0.016": 1.24557423451,
			"-0.015": 1.03938977389,
			"-0.014": 0.970021802,
			"-0.013": 0.569203156785,
			"-0.012": 1.51297053705,
			"-0.011": 1.49309793787,
			"-0.01": 0.859075228999,
			"-0.009": 3.9208463653,
			"-0.008": 9.8827224256,
			"-0.007": 12.1724343832,
			"-0.006": 13.3903113395,
			"-0.005": 13.4465092,
			"-0.004": 12.8739007895,
			"-0.003": 9.73108164024,
			"-0.002": 10.0042069889,
			"-0.001": 11.1911865664,
			"0.0": 13.3199261689,
			"0.001": 16.8846729291,
			"0.002": 21.5487667935,
			"0.003": 22.3987294424,
			"0.004": 11.3146410239,
			"0.005": 8.95274781628,
			"0.006": 8.27202842953,
			"0.007": 6.67916919062,
			"0.008": 5.26193062407,
			"0.009": 5.56695431328,
			"0.01": 6.30533108621,
			"0.011": 6.32643938939,
			"0.012": 4.85923549954,
			"0.013": 1.58987881203,
			"0.014": 0.0,
			"0.015": 0.0,
			"0.016": 0.0,
			"0.017": 0.0,
			"0.018": 0.0,
			"0.019": 0.0,
			"0.02": 0.0,
			"0.021": 0.0,
			"0.022": 0.0,
			"0.023": 0.0,
			"0.024": 0.0,
			"0.025": 0.0
		}
	}
}
