{
	 "smiles": "CC(C)(C)OC(=O)NC1(CCOC(C)(C)C1)C(O)=O", 
	 "Tm": 450.15, 
	 "num_atms": 42, 
	 "gaussian": { 
		 "optdone": 1, 
		 "sigma_profile": "yes", 
		 "theory": "DFT", 
		 "functional": "B3LYP", 
		 "basiset": "6-31G**", 
		 "properties": { 
			 "R2extent": 5760.1356, 
			 "electric_dipole_moment_norm": 1.58371196245, 
			 "electric_quadrupole_moment_norm": 18.6827581382, 
			 "total_energy": -940.163657332, 
			 "HOMO_LUMO_gap": 0.2447, 
			 "cosmo_polarized_energy": -16.88, 
			 "cosmo_cavitation_energy": 41.71, 
			 "cosmo_dispersion_energy": -27.25, 
			 "cosmo_repulsion_energy": 2.08, 
			 "cosmo_total_nonelectrostatic_energy": 16.54, 
			 "SMD_solvation_energy": 8.94 
		},
		"coords": [
			{
				"x": 2.8354917104,
				"y": -3.9396909839,
				"z": 0.2392354693,
				"element": "C" 
			},
			{
				"x": 1.7983383155,
				"y": -3.4901778061,
				"z": -0.7944008624,
				"element": "C" 
			},
			{
				"x": 2.3750755821,
				"y": -3.4351288055,
				"z": -2.2127943092,
				"element": "C" 
			},
			{
				"x": 0.5533485061,
				"y": -4.3792200634,
				"z": -0.744815612,
				"element": "C" 
			},
			{
				"x": 1.2612838409,
				"y": -2.1679950068,
				"z": -0.4247805677,
				"element": "O" 
			},
			{
				"x": 2.0602308202,
				"y": -1.0775396335,
				"z": -0.3745036513,
				"element": "C" 
			},
			{
				"x": 3.2637283,
				"y": -1.0477434591,
				"z": -0.5647457022,
				"element": "O" 
			},
			{
				"x": 1.3250221129,
				"y": 0.0399629511,
				"z": -0.0529659336,
				"element": "N" 
			},
			{
				"x": -0.1363219872,
				"y": 0.125512472,
				"z": -0.0404214849,
				"element": "C" 
			},
			{
				"x": -0.7605651086,
				"y": -0.6522030174,
				"z": 1.1538161169,
				"element": "C" 
			},
			{
				"x": -1.8941108111,
				"y": 0.1363877951,
				"z": 1.8004221936,
				"element": "C" 
			},
			{
				"x": -1.4488818002,
				"y": 1.3778243791,
				"z": 2.3355544054,
				"element": "O" 
			},
			{
				"x": -0.6404777578,
				"y": 2.2101050332,
				"z": 1.4757074227,
				"element": "C" 
			},
			{
				"x": -1.3360630284,
				"y": 3.5777333815,
				"z": 1.4152408163,
				"element": "C" 
			},
			{
				"x": 0.7359000619,
				"y": 2.3494772539,
				"z": 2.1452880609,
				"element": "C" 
			},
			{
				"x": -0.5552973613,
				"y": 1.6254192708,
				"z": 0.0476671611,
				"element": "C" 
			},
			{
				"x": -0.7335268341,
				"y": -0.3905515691,
				"z": -1.3652337299,
				"element": "C" 
			},
			{
				"x": 0.0141912467,
				"y": -0.0384217183,
				"z": -2.4362220541,
				"element": "O" 
			},
			{
				"x": -1.7888843843,
				"y": -0.9753315003,
				"z": -1.4702777849,
				"element": "O" 
			},
			{
				"x": 3.7125966548,
				"y": -3.2926530094,
				"z": 0.2191072017,
				"element": "H" 
			},
			{
				"x": 3.1462228848,
				"y": -4.9670424107,
				"z": 0.0228558708,
				"element": "H" 
			},
			{
				"x": 2.4025490185,
				"y": -3.920961868,
				"z": 1.2443676193,
				"element": "H" 
			},
			{
				"x": 2.6650254626,
				"y": -4.441774848,
				"z": -2.5306162925,
				"element": "H" 
			},
			{
				"x": 1.6218994983,
				"y": -3.0604290929,
				"z": -2.9131691884,
				"element": "H" 
			},
			{
				"x": 3.2497675618,
				"y": -2.7856298307,
				"z": -2.2540493819,
				"element": "H" 
			},
			{
				"x": -0.2142068169,
				"y": -4.008149422,
				"z": -1.4299614276,
				"element": "H" 
			},
			{
				"x": 0.8122585376,
				"y": -5.4030172211,
				"z": -1.030751325,
				"element": "H" 
			},
			{
				"x": 0.1319111829,
				"y": -4.3987362796,
				"z": 0.2644638751,
				"element": "H" 
			},
			{
				"x": 1.8484730701,
				"y": 0.8915263468,
				"z": -0.1920880308,
				"element": "H" 
			},
			{
				"x": -1.1262293573,
				"y": -1.6236568309,
				"z": 0.8178911578,
				"element": "H" 
			},
			{
				"x": 0.0226209969,
				"y": -0.820517938,
				"z": 1.8973771382,
				"element": "H" 
			},
			{
				"x": -2.7151968022,
				"y": 0.2794139062,
				"z": 1.0812100077,
				"element": "H" 
			},
			{
				"x": -2.3023590786,
				"y": -0.4163668485,
				"z": 2.6519509982,
				"element": "H" 
			},
			{
				"x": -2.3362198509,
				"y": 3.4814763746,
				"z": 0.9816974929,
				"element": "H" 
			},
			{
				"x": -1.4431711417,
				"y": 3.9808931437,
				"z": 2.426204003,
				"element": "H" 
			},
			{
				"x": -0.7630111973,
				"y": 4.2939537558,
				"z": 0.8161793858,
				"element": "H" 
			},
			{
				"x": 1.245739378,
				"y": 1.3864807294,
				"z": 2.2177378606,
				"element": "H" 
			},
			{
				"x": 1.3790070041,
				"y": 3.0439397897,
				"z": 1.5919297128,
				"element": "H" 
			},
			{
				"x": 0.6052353989,
				"y": 2.7409321488,
				"z": 3.1581496743,
				"element": "H" 
			},
			{
				"x": 0.1194212383,
				"y": 2.2329244533,
				"z": -0.5651064535,
				"element": "H" 
			},
			{
				"x": -1.5459910731,
				"y": 1.7220909941,
				"z": -0.4080290482,
				"element": "H" 
			},
			{
				"x": -0.4670239933,
				"y": -0.3612150161,
				"z": -3.2165208043,
				"element": "H" 
			}
		],
		 "valence_orbital": [ 
			{
				"type": "occ",
				"energy": -0.29353,
				"method": "rhf"
			},
			{
				"type": "occ",
				"energy": -0.28971,
				"method": "rhf"
			},
			{
				"type": "occ",
				"energy": -0.26508,
				"method": "rhf"
			},
			{
				"type": "occ",
				"energy": -0.24941,
				"method": "rhf"
			},
			{
				"type": "occ",
				"energy": -0.24366,
				"method": "rhf"
			},
			{
				"type": "unocc",
				"energy": 0.00104,
				"method": "rhf"
			},
			{
				"type": "unocc",
				"energy": 0.04819,
				"method": "rhf"
			},
			{
				"type": "unocc",
				"energy": 0.05842,
				"method": "rhf"
			},
			{
				"type": "unocc",
				"energy": 0.06994,
				"method": "rhf"
			},
			{
				"type": "unocc",
				"energy": 0.08825,
				"method": "rhf"
			}
		],
		"cosmo_sigma_profile": { 
			"-0.025": 0.0,
			"-0.024": 0.0,
			"-0.023": 0.0,
			"-0.022": 0.0,
			"-0.021": 0.0,
			"-0.02": 0.0,
			"-0.019": 0.105963438969,
			"-0.018": 0.837498561351,
			"-0.017": 0.955508295629,
			"-0.016": 0.633313235677,
			"-0.015": 1.00415394758,
			"-0.014": 1.05828477327,
			"-0.013": 1.01660067951,
			"-0.012": 1.20782080852,
			"-0.011": 2.24801597249,
			"-0.01": 1.67670022532,
			"-0.009": 2.09316739897,
			"-0.008": 1.76826820401,
			"-0.007": 1.95747228983,
			"-0.006": 3.7814180503,
			"-0.005": 10.8942276914,
			"-0.004": 25.5677318235,
			"-0.003": 36.7099834234,
			"-0.002": 36.2292100817,
			"-0.001": 34.0129479639,
			"0.0": 41.8903499317,
			"0.001": 33.5484842339,
			"0.002": 12.9603196303,
			"0.003": 10.0944678929,
			"0.004": 8.60370912037,
			"0.005": 8.03939306642,
			"0.006": 6.03432926738,
			"0.007": 5.17414464411,
			"0.008": 4.46106637868,
			"0.009": 4.16093837276,
			"0.01": 4.78695388528,
			"0.011": 6.28182242517,
			"0.012": 5.7487675856,
			"0.013": 4.67314110699,
			"0.014": 2.09069428323,
			"0.015": 0.0,
			"0.016": 0.0,
			"0.017": 0.0,
			"0.018": 0.0,
			"0.019": 0.0,
			"0.02": 0.0,
			"0.021": 0.0,
			"0.022": 0.0,
			"0.023": 0.0,
			"0.024": 0.0,
			"0.025": 0.0
		}
	}
}
