{
	 "smiles": "CC(C)(C)OC(=O)N1CCN(CC1)C1=CC=C(C=C1)C(O)=O", 
	 "Tm": 323.15, 
	 "num_atms": 44, 
	 "gaussian": { 
		 "optdone": 1, 
		 "sigma_profile": "yes", 
		 "theory": "DFT", 
		 "functional": "B3LYP", 
		 "basiset": "6-31G**", 
		 "properties": { 
			 "R2extent": 13146.0186, 
			 "electric_dipole_moment_norm": 4.29288019283, 
			 "electric_quadrupole_moment_norm": 22.2344586593, 
			 "total_energy": -1033.41271511, 
			 "HOMO_LUMO_gap": 0.1735, 
			 "cosmo_polarized_energy": -17.68, 
			 "cosmo_cavitation_energy": 45.34, 
			 "cosmo_dispersion_energy": -32.19, 
			 "cosmo_repulsion_energy": 2.44, 
			 "cosmo_total_nonelectrostatic_energy": 15.59, 
			 "SMD_solvation_energy": 8.04 
		},
		"coords": [
			{
				"x": -0.5168346309,
				"y": 1.210020817,
				"z": 5.3572259463,
				"element": "C" 
			},
			{
				"x": 0.1567209676,
				"y": 2.0282040042,
				"z": 4.2505509377,
				"element": "C" 
			},
			{
				"x": 1.6553165156,
				"y": 2.1815825675,
				"z": 4.5234938555,
				"element": "C" 
			},
			{
				"x": -0.5031859666,
				"y": 3.3972575799,
				"z": 4.0554320283,
				"element": "C" 
			},
			{
				"x": 0.1389975927,
				"y": 1.2764915583,
				"z": 2.9842081226,
				"element": "O" 
			},
			{
				"x": -1.032590752,
				"y": 0.9232240792,
				"z": 2.4020713145,
				"element": "C" 
			},
			{
				"x": -2.151848502,
				"y": 1.1889552954,
				"z": 2.8184244286,
				"element": "O" 
			},
			{
				"x": -0.7981841104,
				"y": 0.2087424934,
				"z": 1.2554577617,
				"element": "N" 
			},
			{
				"x": 0.5441100256,
				"y": -0.0537896156,
				"z": 0.7360908899,
				"element": "C" 
			},
			{
				"x": 0.499513956,
				"y": -1.1520558547,
				"z": -0.327812303,
				"element": "C" 
			},
			{
				"x": -0.417636209,
				"y": -0.8076259465,
				"z": -1.4097508987,
				"element": "N" 
			},
			{
				"x": -1.603892922,
				"y": -0.0270444864,
				"z": -1.0542066962,
				"element": "C" 
			},
			{
				"x": -1.9345135624,
				"y": -0.1864615263,
				"z": 0.4287986229,
				"element": "C" 
			},
			{
				"x": -0.2180502052,
				"y": -1.2546984383,
				"z": -2.701764047,
				"element": "C" 
			},
			{
				"x": -0.9623909366,
				"y": -0.7158526264,
				"z": -3.7814378757,
				"element": "C" 
			},
			{
				"x": -0.7596669978,
				"y": -1.1632125331,
				"z": -5.0765754139,
				"element": "C" 
			},
			{
				"x": 0.1869517689,
				"y": -2.1581889373,
				"z": -5.362821642,
				"element": "C" 
			},
			{
				"x": 0.9277011198,
				"y": -2.6982460639,
				"z": -4.3008532164,
				"element": "C" 
			},
			{
				"x": 0.7318890862,
				"y": -2.2634099397,
				"z": -2.998340088,
				"element": "C" 
			},
			{
				"x": 0.357845152,
				"y": -2.589822502,
				"z": -6.7624004614,
				"element": "C" 
			},
			{
				"x": 1.3069149723,
				"y": -3.5551066476,
				"z": -6.9154759235,
				"element": "O" 
			},
			{
				"x": -0.2640393237,
				"y": -2.1547100071,
				"z": -7.7153758601,
				"element": "O" 
			},
			{
				"x": -1.5802610442,
				"y": 1.0808442735,
				"z": 5.1554396887,
				"element": "H" 
			},
			{
				"x": -0.3977685972,
				"y": 1.7234633203,
				"z": 6.3168482701,
				"element": "H" 
			},
			{
				"x": -0.0478584575,
				"y": 0.2242688689,
				"z": 5.4400200936,
				"element": "H" 
			},
			{
				"x": 2.1432755011,
				"y": 2.7240374084,
				"z": 3.7084442933,
				"element": "H" 
			},
			{
				"x": 1.8126685961,
				"y": 2.7376936368,
				"z": 5.4523368708,
				"element": "H" 
			},
			{
				"x": 2.1332941339,
				"y": 1.2024049767,
				"z": 4.6217956667,
				"element": "H" 
			},
			{
				"x": -0.3861225061,
				"y": 3.994170322,
				"z": 4.9657576924,
				"element": "H" 
			},
			{
				"x": -1.5657459752,
				"y": 3.2900738002,
				"z": 3.8370775374,
				"element": "H" 
			},
			{
				"x": -0.0230206313,
				"y": 3.9364018473,
				"z": 3.232520454,
				"element": "H" 
			},
			{
				"x": 1.1981788038,
				"y": -0.3712730086,
				"z": 1.5515742881,
				"element": "H" 
			},
			{
				"x": 0.9806499171,
				"y": 0.8569070872,
				"z": 0.3030313931,
				"element": "H" 
			},
			{
				"x": 1.5092401527,
				"y": -1.2539850958,
				"z": -0.7342277644,
				"element": "H" 
			},
			{
				"x": 0.2380067564,
				"y": -2.1144647021,
				"z": 0.1403118819,
				"element": "H" 
			},
			{
				"x": -2.4601089239,
				"y": -0.3856389754,
				"z": -1.6353550455,
				"element": "H" 
			},
			{
				"x": -1.4699258522,
				"y": 1.0400199753,
				"z": -1.290326049,
				"element": "H" 
			},
			{
				"x": -2.7828711805,
				"y": 0.4444894725,
				"z": 0.697654441,
				"element": "H" 
			},
			{
				"x": -2.2213521595,
				"y": -1.2278034486,
				"z": 0.6320221399,
				"element": "H" 
			},
			{
				"x": -1.6803324234,
				"y": 0.0765274829,
				"z": -3.6071466129,
				"element": "H" 
			},
			{
				"x": -1.327492681,
				"y": -0.7390569505,
				"z": -5.8982802776,
				"element": "H" 
			},
			{
				"x": 1.6554523339,
				"y": -3.4772036624,
				"z": -4.5001668452,
				"element": "H" 
			},
			{
				"x": 1.2979247756,
				"y": -2.7327397558,
				"z": -2.2026838812,
				"element": "H" 
			},
			{
				"x": 1.3210424231,
				"y": -3.7496901426,
				"z": -7.8664877171,
				"element": "H" 
			}
		],
		 "valence_orbital": [ 
			{
				"type": "occ",
				"energy": -0.2661,
				"method": "rhf"
			},
			{
				"type": "occ",
				"energy": -0.26272,
				"method": "rhf"
			},
			{
				"type": "occ",
				"energy": -0.25479,
				"method": "rhf"
			},
			{
				"type": "occ",
				"energy": -0.24412,
				"method": "rhf"
			},
			{
				"type": "occ",
				"energy": -0.20279,
				"method": "rhf"
			},
			{
				"type": "unocc",
				"energy": -0.02929,
				"method": "rhf"
			},
			{
				"type": "unocc",
				"energy": -0.00357,
				"method": "rhf"
			},
			{
				"type": "unocc",
				"energy": 0.04772,
				"method": "rhf"
			},
			{
				"type": "unocc",
				"energy": 0.06704,
				"method": "rhf"
			},
			{
				"type": "unocc",
				"energy": 0.07333,
				"method": "rhf"
			}
		],
		"cosmo_sigma_profile": { 
			"-0.025": 0.0,
			"-0.024": 0.0,
			"-0.023": 0.0,
			"-0.022": 0.0,
			"-0.021": 0.0,
			"-0.02": 0.0,
			"-0.019": 0.0,
			"-0.018": 0.263731021505,
			"-0.017": 0.807486417562,
			"-0.016": 0.995988164787,
			"-0.015": 0.473684780371,
			"-0.014": 0.677531254245,
			"-0.013": 0.544800462939,
			"-0.012": 0.340890611354,
			"-0.011": 1.57526857014,
			"-0.01": 1.00715226694,
			"-0.009": 0.298014026683,
			"-0.008": 0.340960194951,
			"-0.007": 2.23625980575,
			"-0.006": 11.0101571193,
			"-0.005": 26.0213296353,
			"-0.004": 42.933150777,
			"-0.003": 34.3136635421,
			"-0.002": 25.7613799797,
			"-0.001": 27.9223342329,
			"0.0": 36.7458572275,
			"0.001": 30.8795900043,
			"0.002": 19.1796778448,
			"0.003": 17.9493289185,
			"0.004": 15.7674089841,
			"0.005": 16.3321486489,
			"0.006": 7.77756840689,
			"0.007": 4.88017961667,
			"0.008": 4.93128704741,
			"0.009": 3.36367517393,
			"0.01": 2.46000954307,
			"0.011": 3.75946454047,
			"0.012": 6.34613083173,
			"0.013": 6.23890007193,
			"0.014": 1.46938548829,
			"0.015": 0.0,
			"0.016": 0.0,
			"0.017": 0.0,
			"0.018": 0.0,
			"0.019": 0.0,
			"0.02": 0.0,
			"0.021": 0.0,
			"0.022": 0.0,
			"0.023": 0.0,
			"0.024": 0.0,
			"0.025": 0.0
		}
	}
}
