{
	 "smiles": "ClCCNC(=O)C1=CC=CC=C1", 
	 "Tm": 376.15, 
	 "num_atms": 22, 
	 "gaussian": { 
		 "optdone": 1, 
		 "sigma_profile": "yes", 
		 "theory": "DFT", 
		 "functional": "B3LYP", 
		 "basiset": "6-31G**", 
		 "properties": { 
			 "R2extent": 3374.8818, 
			 "electric_dipole_moment_norm": 4.24803965848, 
			 "electric_quadrupole_moment_norm": 21.389511501, 
			 "total_energy": -939.166948974, 
			 "HOMO_LUMO_gap": 0.2099, 
			 "cosmo_polarized_energy": -15.42, 
			 "cosmo_cavitation_energy": 27.66, 
			 "cosmo_dispersion_energy": -19.58, 
			 "cosmo_repulsion_energy": 1.6, 
			 "cosmo_total_nonelectrostatic_energy": 9.68, 
			 "SMD_solvation_energy": 4.34 
		},
		"coords": [
			{
				"x": -2.6006538997,
				"y": 0.1200652761,
				"z": -1.351888867,
				"element": "Cl" 
			},
			{
				"x": -1.4202037531,
				"y": 0.909134435,
				"z": -2.4763932701,
				"element": "C" 
			},
			{
				"x": -0.2547379593,
				"y": 1.5657073808,
				"z": -1.7364806321,
				"element": "C" 
			},
			{
				"x": -0.634246522,
				"y": 2.7053053854,
				"z": -0.9194684487,
				"element": "N" 
			},
			{
				"x": -0.8262827936,
				"y": 2.7402642057,
				"z": 0.4515225872,
				"element": "C" 
			},
			{
				"x": -1.5991770041,
				"y": 3.5511332474,
				"z": 0.9471003102,
				"element": "O" 
			},
			{
				"x": -0.0120076674,
				"y": 1.8186937345,
				"z": 1.3135444655,
				"element": "C" 
			},
			{
				"x": -0.6219950705,
				"y": 1.2911316031,
				"z": 2.4596732961,
				"element": "C" 
			},
			{
				"x": 0.1017529852,
				"y": 0.4808150274,
				"z": 3.3311956549,
				"element": "C" 
			},
			{
				"x": 1.4507189568,
				"y": 0.2126387289,
				"z": 3.0821541728,
				"element": "C" 
			},
			{
				"x": 2.0733340232,
				"y": 0.7599875635,
				"z": 1.959236017,
				"element": "C" 
			},
			{
				"x": 1.3445399685,
				"y": 1.5570046155,
				"z": 1.0748954344,
				"element": "C" 
			},
			{
				"x": -1.050362822,
				"y": 0.1297154729,
				"z": -3.1458008448,
				"element": "H" 
			},
			{
				"x": -1.9872392991,
				"y": 1.6368867505,
				"z": -3.0614949777,
				"element": "H" 
			},
			{
				"x": 0.4690965494,
				"y": 1.8825369544,
				"z": -2.5018473506,
				"element": "H" 
			},
			{
				"x": 0.2407458992,
				"y": 0.8257178189,
				"z": -1.1079399511,
				"element": "H" 
			},
			{
				"x": -1.2195151338,
				"y": 3.3987583628,
				"z": -1.372997775,
				"element": "H" 
			},
			{
				"x": -1.6624118828,
				"y": 1.5305485371,
				"z": 2.6521869222,
				"element": "H" 
			},
			{
				"x": -0.3823884443,
				"y": 0.0643641608,
				"z": 4.2097083804,
				"element": "H" 
			},
			{
				"x": 2.0165735747,
				"y": -0.4130967604,
				"z": 3.766439547,
				"element": "H" 
			},
			{
				"x": 3.1272321201,
				"y": 0.5728943453,
				"z": 1.7744350324,
				"element": "H" 
			},
			{
				"x": 1.8387281747,
				"y": 2.0021931544,
				"z": 0.2163202971,
				"element": "H" 
			}
		],
		 "valence_orbital": [ 
			{
				"type": "occ",
				"energy": -0.30158,
				"method": "rhf"
			},
			{
				"type": "occ",
				"energy": -0.26559,
				"method": "rhf"
			},
			{
				"type": "occ",
				"energy": -0.25766,
				"method": "rhf"
			},
			{
				"type": "occ",
				"energy": -0.25692,
				"method": "rhf"
			},
			{
				"type": "occ",
				"energy": -0.2406,
				"method": "rhf"
			},
			{
				"type": "unocc",
				"energy": -0.0307,
				"method": "rhf"
			},
			{
				"type": "unocc",
				"energy": -0.00812,
				"method": "rhf"
			},
			{
				"type": "unocc",
				"energy": 0.02017,
				"method": "rhf"
			},
			{
				"type": "unocc",
				"energy": 0.04987,
				"method": "rhf"
			},
			{
				"type": "unocc",
				"energy": 0.07483,
				"method": "rhf"
			}
		],
		"cosmo_sigma_profile": { 
			"-0.025": 0.0,
			"-0.024": 0.0,
			"-0.023": 0.0,
			"-0.022": 0.0,
			"-0.021": 0.0,
			"-0.02": 0.0,
			"-0.019": 0.0,
			"-0.018": 0.0,
			"-0.017": 0.0,
			"-0.016": 0.0,
			"-0.015": 0.0,
			"-0.014": 0.118907742329,
			"-0.013": 1.42770888378,
			"-0.012": 1.45087360579,
			"-0.011": 1.56235226519,
			"-0.01": 1.52349199904,
			"-0.009": 1.16893324985,
			"-0.008": 3.23037026656,
			"-0.007": 9.53538660895,
			"-0.006": 18.3158492987,
			"-0.005": 19.5812215905,
			"-0.004": 18.0609896445,
			"-0.003": 11.4467312536,
			"-0.002": 10.9415276261,
			"-0.001": 9.44779535155,
			"0.0": 10.7482580321,
			"0.001": 10.8796160045,
			"0.002": 12.9872829749,
			"0.003": 16.9805884136,
			"0.004": 18.479564473,
			"0.005": 13.044156695,
			"0.006": 9.71007955652,
			"0.007": 3.60727688595,
			"0.008": 2.0268786367,
			"0.009": 1.616734866,
			"0.01": 1.13743775694,
			"0.011": 1.67401586018,
			"0.012": 2.35893234633,
			"0.013": 4.55619887428,
			"0.014": 3.9075346858,
			"0.015": 0.336472745798,
			"0.016": 0.0,
			"0.017": 0.0,
			"0.018": 0.0,
			"0.019": 0.0,
			"0.02": 0.0,
			"0.021": 0.0,
			"0.022": 0.0,
			"0.023": 0.0,
			"0.024": 0.0,
			"0.025": 0.0
		}
	}
}
