{
	 "smiles": "CC1=CC=C(C=C1)C1=C(C(=NO1)C(=O)C1=CC=C(Cl)C=C1)S(=O)(=O)C1=CC=CC=C1", 
	 "Tm": 422.15, 
	 "num_atms": 46, 
	 "gaussian": { 
		 "optdone": 1, 
		 "sigma_profile": "yes", 
		 "theory": "DFT", 
		 "functional": "B3LYP", 
		 "basiset": "6-31G**", 
		 "properties": { 
			 "R2extent": 17665.4107, 
			 "electric_dipole_moment_norm": 5.26200345686, 
			 "electric_quadrupole_moment_norm": 20.2621840044, 
			 "total_energy": -2099.9991225, 
			 "HOMO_LUMO_gap": 0.16712, 
			 "cosmo_polarized_energy": -16.64, 
			 "cosmo_cavitation_energy": 54.43, 
			 "cosmo_dispersion_energy": -37.46, 
			 "cosmo_repulsion_energy": 2.78, 
			 "cosmo_total_nonelectrostatic_energy": 19.74, 
			 "SMD_solvation_energy": 8.34 
		},
		"coords": [
			{
				"x": -5.975716983,
				"y": 2.5990628125,
				"z": -0.6632658681,
				"element": "C" 
			},
			{
				"x": -4.5076300402,
				"y": 2.2548901896,
				"z": -0.7199519156,
				"element": "C" 
			},
			{
				"x": -4.0771541986,
				"y": 0.9600967211,
				"z": -1.0350662333,
				"element": "C" 
			},
			{
				"x": -2.7239856937,
				"y": 0.638422432,
				"z": -1.1133682387,
				"element": "C" 
			},
			{
				"x": -1.7541657399,
				"y": 1.6243015718,
				"z": -0.8697105865,
				"element": "C" 
			},
			{
				"x": -2.1769284184,
				"y": 2.9320526026,
				"z": -0.5593850329,
				"element": "C" 
			},
			{
				"x": -3.5304154797,
				"y": 3.2337670647,
				"z": -0.4820888426,
				"element": "C" 
			},
			{
				"x": -0.3151251124,
				"y": 1.3593391368,
				"z": -0.9538048513,
				"element": "C" 
			},
			{
				"x": 0.5477489423,
				"y": 0.3039281555,
				"z": -0.7123293706,
				"element": "C" 
			},
			{
				"x": 1.8505013719,
				"y": 0.8447744689,
				"z": -0.9609170555,
				"element": "C" 
			},
			{
				"x": 1.7882033626,
				"y": 2.0990051311,
				"z": -1.3370159321,
				"element": "N" 
			},
			{
				"x": 0.4300209008,
				"y": 2.4238938092,
				"z": -1.3286940029,
				"element": "O" 
			},
			{
				"x": 3.2184702687,
				"y": 0.2339117122,
				"z": -0.7190204255,
				"element": "C" 
			},
			{
				"x": 3.545862205,
				"y": -0.003650506,
				"z": 0.4333178404,
				"element": "O" 
			},
			{
				"x": 4.1193036348,
				"y": -0.0016944514,
				"z": -1.8719153569,
				"element": "C" 
			},
			{
				"x": 5.3810666537,
				"y": -0.5649425232,
				"z": -1.615714435,
				"element": "C" 
			},
			{
				"x": 6.2678260406,
				"y": -0.817370076,
				"z": -2.6535239953,
				"element": "C" 
			},
			{
				"x": 5.8862655897,
				"y": -0.5022011556,
				"z": -3.961670205,
				"element": "C" 
			},
			{
				"x": 6.9998949014,
				"y": -0.8173135986,
				"z": -5.2771911412,
				"element": "Cl" 
			},
			{
				"x": 4.6390210191,
				"y": 0.0567204559,
				"z": -4.2416227948,
				"element": "C" 
			},
			{
				"x": 3.7572530917,
				"y": 0.3039800265,
				"z": -3.1923981291,
				"element": "C" 
			},
			{
				"x": 0.2554734289,
				"y": -1.3830685042,
				"z": -0.2064585653,
				"element": "S" 
			},
			{
				"x": -0.9904241836,
				"y": -1.8600243559,
				"z": -0.8286442844,
				"element": "O" 
			},
			{
				"x": 1.5211253002,
				"y": -2.0827241528,
				"z": -0.4604817618,
				"element": "O" 
			},
			{
				"x": -0.0231357296,
				"y": -1.2856098031,
				"z": 1.565661409,
				"element": "C" 
			},
			{
				"x": -1.3012207841,
				"y": -1.5517561765,
				"z": 2.0592821536,
				"element": "C" 
			},
			{
				"x": -1.5120629774,
				"y": -1.5020692182,
				"z": 3.4380738552,
				"element": "C" 
			},
			{
				"x": -0.4566426614,
				"y": -1.1877390443,
				"z": 4.2962946209,
				"element": "C" 
			},
			{
				"x": 0.8169700764,
				"y": -0.9236352338,
				"z": 3.7838463854,
				"element": "C" 
			},
			{
				"x": 1.0472293939,
				"y": -0.9738129431,
				"z": 2.4096419535,
				"element": "C" 
			},
			{
				"x": -6.1928158346,
				"y": 3.2914265482,
				"z": 0.1561858756,
				"element": "H" 
			},
			{
				"x": -6.5921576985,
				"y": 1.7060926366,
				"z": -0.5285726451,
				"element": "H" 
			},
			{
				"x": -6.300129226,
				"y": 3.0857068702,
				"z": -1.5915293471,
				"element": "H" 
			},
			{
				"x": -4.8142726946,
				"y": 0.1857012723,
				"z": -1.2306591224,
				"element": "H" 
			},
			{
				"x": -2.4175859857,
				"y": -0.367431574,
				"z": -1.3705193821,
				"element": "H" 
			},
			{
				"x": -1.4381508016,
				"y": 3.7028028128,
				"z": -0.3692052991,
				"element": "H" 
			},
			{
				"x": -3.8358850939,
				"y": 4.2459543021,
				"z": -0.2298472704,
				"element": "H" 
			},
			{
				"x": 5.6447370027,
				"y": -0.8003989689,
				"z": -0.5904085309,
				"element": "H" 
			},
			{
				"x": 7.2418396168,
				"y": -1.2534905293,
				"z": -2.4625784647,
				"element": "H" 
			},
			{
				"x": 4.3659346313,
				"y": 0.2925501359,
				"z": -5.2637619099,
				"element": "H" 
			},
			{
				"x": 2.7904495552,
				"y": 0.7454444501,
				"z": -3.4045203915,
				"element": "H" 
			},
			{
				"x": -2.1013386458,
				"y": -1.8020427392,
				"z": 1.3722027284,
				"element": "H" 
			},
			{
				"x": -2.4990967684,
				"y": -1.7110111148,
				"z": 3.8393096105,
				"element": "H" 
			},
			{
				"x": -0.6256908111,
				"y": -1.1495823133,
				"z": 5.368553167,
				"element": "H" 
			},
			{
				"x": 1.6350576704,
				"y": -0.6813556292,
				"z": 4.4552845451,
				"element": "H" 
			},
			{
				"x": 2.0297769042,
				"y": -0.7658007071,
				"z": 1.9972872431,
				"element": "H" 
			}
		],
		 "valence_orbital": [ 
			{
				"type": "occ",
				"energy": -0.27208,
				"method": "rhf"
			},
			{
				"type": "occ",
				"energy": -0.26867,
				"method": "rhf"
			},
			{
				"type": "occ",
				"energy": -0.26548,
				"method": "rhf"
			},
			{
				"type": "occ",
				"energy": -0.25885,
				"method": "rhf"
			},
			{
				"type": "occ",
				"energy": -0.24562,
				"method": "rhf"
			},
			{
				"type": "unocc",
				"energy": -0.0785,
				"method": "rhf"
			},
			{
				"type": "unocc",
				"energy": -0.06529,
				"method": "rhf"
			},
			{
				"type": "unocc",
				"energy": -0.03976,
				"method": "rhf"
			},
			{
				"type": "unocc",
				"energy": -0.02373,
				"method": "rhf"
			},
			{
				"type": "unocc",
				"energy": -0.02012,
				"method": "rhf"
			}
		],
		"cosmo_sigma_profile": { 
			"-0.025": 0.0,
			"-0.024": 0.0,
			"-0.023": 0.0,
			"-0.022": 0.0,
			"-0.021": 0.0,
			"-0.02": 0.0,
			"-0.019": 0.0,
			"-0.018": 0.0,
			"-0.017": 0.0,
			"-0.016": 0.0,
			"-0.015": 0.0,
			"-0.014": 0.0,
			"-0.013": 0.0,
			"-0.012": 0.0,
			"-0.011": 0.0,
			"-0.01": 0.0,
			"-0.009": 0.178070982633,
			"-0.008": 4.42264090689,
			"-0.007": 14.3655166796,
			"-0.006": 22.7999807793,
			"-0.005": 27.4375624209,
			"-0.004": 29.8143912639,
			"-0.003": 32.2153043379,
			"-0.002": 33.4834820753,
			"-0.001": 39.1976566705,
			"0.0": 42.4331185651,
			"0.001": 45.5541249667,
			"0.002": 38.8361352156,
			"0.003": 36.09666234,
			"0.004": 23.2653573341,
			"0.005": 8.75885933482,
			"0.006": 6.87393447714,
			"0.007": 6.37923686175,
			"0.008": 7.66018024833,
			"0.009": 7.17920595907,
			"0.01": 6.71886831697,
			"0.011": 6.8882469035,
			"0.012": 1.05030885009,
			"0.013": 0.0,
			"0.014": 0.0,
			"0.015": 0.0,
			"0.016": 0.0,
			"0.017": 0.0,
			"0.018": 0.0,
			"0.019": 0.0,
			"0.02": 0.0,
			"0.021": 0.0,
			"0.022": 0.0,
			"0.023": 0.0,
			"0.024": 0.0,
			"0.025": 0.0
		}
	}
}
