{
	 "smiles": "OC(=O)C1=CC=CC=C1OP(O)(O)=O", 
	 "Tm": 441.15, 
	 "num_atms": 21, 
	 "gaussian": { 
		 "optdone": 1, 
		 "sigma_profile": "yes", 
		 "theory": "DFT", 
		 "functional": "B3LYP", 
		 "basiset": "6-31G**", 
		 "properties": { 
			 "R2extent": 3345.5849, 
			 "electric_dipole_moment_norm": 6.2580051566, 
			 "electric_quadrupole_moment_norm": 19.4512682509, 
			 "total_energy": -1063.76215506, 
			 "HOMO_LUMO_gap": 0.19316, 
			 "cosmo_polarized_energy": -19.46, 
			 "cosmo_cavitation_energy": 27.45, 
			 "cosmo_dispersion_energy": -20.59, 
			 "cosmo_repulsion_energy": 1.61, 
			 "cosmo_total_nonelectrostatic_energy": 8.47, 
			 "SMD_solvation_energy": 8.32 
		},
		"coords": [
			{
				"x": -2.1613465234,
				"y": -1.2234095315,
				"z": 1.5102059083,
				"element": "O" 
			},
			{
				"x": -1.1518035263,
				"y": -0.3272897461,
				"z": 1.4964804163,
				"element": "C" 
			},
			{
				"x": -1.128066174,
				"y": 0.5750173552,
				"z": 2.3234238471,
				"element": "O" 
			},
			{
				"x": -0.1745408651,
				"y": -0.5865096505,
				"z": 0.4116194174,
				"element": "C" 
			},
			{
				"x": -0.481359384,
				"y": -1.5249378955,
				"z": -0.5918750752,
				"element": "C" 
			},
			{
				"x": 0.403538112,
				"y": -1.779931007,
				"z": -1.6324717533,
				"element": "C" 
			},
			{
				"x": 1.6259908792,
				"y": -1.1041377764,
				"z": -1.682689978,
				"element": "C" 
			},
			{
				"x": 1.9572691684,
				"y": -0.1797834207,
				"z": -0.6954948977,
				"element": "C" 
			},
			{
				"x": 1.0637680217,
				"y": 0.0861499394,
				"z": 0.342127638,
				"element": "C" 
			},
			{
				"x": 1.4590971391,
				"y": 0.9385727075,
				"z": 1.3428629023,
				"element": "O" 
			},
			{
				"x": 1.2972799416,
				"y": 2.5721190938,
				"z": 1.3421911813,
				"element": "P" 
			},
			{
				"x": 0.4345025516,
				"y": 2.77687655,
				"z": 2.6574265127,
				"element": "O" 
			},
			{
				"x": 0.2945324215,
				"y": 2.8023941132,
				"z": 0.0882799424,
				"element": "O" 
			},
			{
				"x": 2.5517454422,
				"y": 3.339578699,
				"z": 1.2575719832,
				"element": "O" 
			},
			{
				"x": -2.7502904418,
				"y": -0.95142391,
				"z": 2.2336153344,
				"element": "H" 
			},
			{
				"x": -1.4291351193,
				"y": -2.04697402,
				"z": -0.5423221306,
				"element": "H" 
			},
			{
				"x": 0.1445492597,
				"y": -2.503416391,
				"z": -2.3985787426,
				"element": "H" 
			},
			{
				"x": 2.326821072,
				"y": -1.301527057,
				"z": -2.4884188102,
				"element": "H" 
			},
			{
				"x": 2.9085843179,
				"y": 0.3413743432,
				"z": -0.7013924947,
				"element": "H" 
			},
			{
				"x": -0.2063050106,
				"y": 2.0325276101,
				"z": 2.73357547,
				"element": "H" 
			},
			{
				"x": 0.6464687179,
				"y": 3.5076299946,
				"z": -0.472736671,
				"element": "H" 
			}
		],
		 "valence_orbital": [ 
			{
				"type": "occ",
				"energy": -0.30563,
				"method": "rhf"
			},
			{
				"type": "occ",
				"energy": -0.29324,
				"method": "rhf"
			},
			{
				"type": "occ",
				"energy": -0.29011,
				"method": "rhf"
			},
			{
				"type": "occ",
				"energy": -0.28253,
				"method": "rhf"
			},
			{
				"type": "occ",
				"energy": -0.2648,
				"method": "rhf"
			},
			{
				"type": "unocc",
				"energy": -0.07164,
				"method": "rhf"
			},
			{
				"type": "unocc",
				"energy": -0.02409,
				"method": "rhf"
			},
			{
				"type": "unocc",
				"energy": 0.03127,
				"method": "rhf"
			},
			{
				"type": "unocc",
				"energy": 0.05042,
				"method": "rhf"
			},
			{
				"type": "unocc",
				"energy": 0.05921,
				"method": "rhf"
			}
		],
		"cosmo_sigma_profile": { 
			"-0.025": 0.0,
			"-0.024": 0.0,
			"-0.023": 0.0,
			"-0.022": 0.0,
			"-0.021": 0.0,
			"-0.02": 0.178575148106,
			"-0.019": 1.26653265706,
			"-0.018": 2.26738738338,
			"-0.017": 1.0998543243,
			"-0.016": 2.10612819913,
			"-0.015": 1.4244379974,
			"-0.014": 1.35089013138,
			"-0.013": 1.47823073949,
			"-0.012": 1.30898230617,
			"-0.011": 1.68084467363,
			"-0.01": 1.30130655348,
			"-0.009": 1.28035526872,
			"-0.008": 3.24174875136,
			"-0.007": 9.44782131688,
			"-0.006": 10.6001956561,
			"-0.005": 11.4020285661,
			"-0.004": 10.4428667917,
			"-0.003": 11.7560720874,
			"-0.002": 10.8790202412,
			"-0.001": 12.2338930739,
			"0.0": 14.3232459809,
			"0.001": 16.903389581,
			"0.002": 16.0203086607,
			"0.003": 13.5994043881,
			"0.004": 9.18717135543,
			"0.005": 8.61520695636,
			"0.006": 7.23715348369,
			"0.007": 6.37444656962,
			"0.008": 5.52846818855,
			"0.009": 3.86872158418,
			"0.01": 3.37493587494,
			"0.011": 2.14384300767,
			"0.012": 1.73215802035,
			"0.013": 5.2768628433,
			"0.014": 5.40629541447,
			"0.015": 0.0414821007146,
			"0.016": 0.0,
			"0.017": 0.0,
			"0.018": 0.0,
			"0.019": 0.0,
			"0.02": 0.0,
			"0.021": 0.0,
			"0.022": 0.0,
			"0.023": 0.0,
			"0.024": 0.0,
			"0.025": 0.0
		}
	}
}
