{
	 "smiles": "CN1N=NN=C1C1=CC(=CC=C1)S(N)(=O)=O", 
	 "Tm": 442.15, 
	 "num_atms": 25, 
	 "gaussian": { 
		 "optdone": 1, 
		 "sigma_profile": "yes", 
		 "theory": "DFT", 
		 "functional": "B3LYP", 
		 "basiset": "6-31G**", 
		 "properties": { 
			 "R2extent": 5245.1083, 
			 "electric_dipole_moment_norm": 9.17561482027, 
			 "electric_quadrupole_moment_norm": 22.7547132979, 
			 "total_energy": -1132.54319535, 
			 "HOMO_LUMO_gap": 0.19883, 
			 "cosmo_polarized_energy": -30.83, 
			 "cosmo_cavitation_energy": 31.44, 
			 "cosmo_dispersion_energy": -23.35, 
			 "cosmo_repulsion_energy": 1.76, 
			 "cosmo_total_nonelectrostatic_energy": 9.85, 
			 "SMD_solvation_energy": 3.21 
		},
		"coords": [
			{
				"x": 1.7785920741,
				"y": 2.7599514205,
				"z": -0.9928005092,
				"element": "C" 
			},
			{
				"x": 0.9669441419,
				"y": 1.8333875798,
				"z": -1.76695086,
				"element": "N" 
			},
			{
				"x": 0.7836097628,
				"y": 2.0719374364,
				"z": -3.0902885427,
				"element": "N" 
			},
			{
				"x": 0.0787524587,
				"y": 1.0913252429,
				"z": -3.5508048955,
				"element": "N" 
			},
			{
				"x": -0.2133799253,
				"y": 0.2038873699,
				"z": -2.5758608529,
				"element": "N" 
			},
			{
				"x": 0.3393188539,
				"y": 0.6675556462,
				"z": -1.4602459135,
				"element": "C" 
			},
			{
				"x": 0.2732143269,
				"y": -0.0281838526,
				"z": -0.168275059,
				"element": "C" 
			},
			{
				"x": -0.0702568599,
				"y": -1.3911340508,
				"z": -0.1865616728,
				"element": "C" 
			},
			{
				"x": -0.1443413915,
				"y": -2.0964475063,
				"z": 1.0105595283,
				"element": "C" 
			},
			{
				"x": 0.09140948,
				"y": -1.4775331363,
				"z": 2.2409625521,
				"element": "C" 
			},
			{
				"x": 0.4115862555,
				"y": -0.1211955179,
				"z": 2.2580878123,
				"element": "C" 
			},
			{
				"x": 0.5037746451,
				"y": 0.5993549661,
				"z": 1.0671071555,
				"element": "C" 
			},
			{
				"x": -0.5551746493,
				"y": -3.8548552603,
				"z": 0.9772001583,
				"element": "S" 
			},
			{
				"x": 0.8678872138,
				"y": -4.675988912,
				"z": 0.6410673622,
				"element": "N" 
			},
			{
				"x": -1.4231039397,
				"y": -4.0784163801,
				"z": -0.1747861702,
				"element": "O" 
			},
			{
				"x": -0.9176154023,
				"y": -4.2287946168,
				"z": 2.3427322541,
				"element": "O" 
			},
			{
				"x": 1.154604573,
				"y": 3.389686294,
				"z": -0.3525310691,
				"element": "H" 
			},
			{
				"x": 2.3071753683,
				"y": 3.3902545635,
				"z": -1.7072691644,
				"element": "H" 
			},
			{
				"x": 2.4992253999,
				"y": 2.21174809,
				"z": -0.3826569416,
				"element": "H" 
			},
			{
				"x": -0.2974930313,
				"y": -1.8705560511,
				"z": -1.1323896124,
				"element": "H" 
			},
			{
				"x": -0.0037687525,
				"y": -2.0493363018,
				"z": 3.1574141388,
				"element": "H" 
			},
			{
				"x": 0.5771960565,
				"y": 0.3833610151,
				"z": 3.2048131683,
				"element": "H" 
			},
			{
				"x": 0.726477091,
				"y": 1.6583411171,
				"z": 1.1143275872,
				"element": "H" 
			},
			{
				"x": 1.5695727168,
				"y": -4.5905669314,
				"z": 1.3687041404,
				"element": "H" 
			},
			{
				"x": 1.2215935335,
				"y": -4.5076822243,
				"z": -0.2948545944,
				"element": "H" 
			}
		],
		 "valence_orbital": [ 
			{
				"type": "occ",
				"energy": -0.31089,
				"method": "rhf"
			},
			{
				"type": "occ",
				"energy": -0.30396,
				"method": "rhf"
			},
			{
				"type": "occ",
				"energy": -0.28752,
				"method": "rhf"
			},
			{
				"type": "occ",
				"energy": -0.28494,
				"method": "rhf"
			},
			{
				"type": "occ",
				"energy": -0.26977,
				"method": "rhf"
			},
			{
				"type": "unocc",
				"energy": -0.07094,
				"method": "rhf"
			},
			{
				"type": "unocc",
				"energy": -0.0536,
				"method": "rhf"
			},
			{
				"type": "unocc",
				"energy": -0.00952,
				"method": "rhf"
			},
			{
				"type": "unocc",
				"energy": 0.02822,
				"method": "rhf"
			},
			{
				"type": "unocc",
				"energy": 0.04217,
				"method": "rhf"
			}
		],
		"cosmo_sigma_profile": { 
			"-0.025": 0.0,
			"-0.024": 0.0,
			"-0.023": 0.0,
			"-0.022": 0.0,
			"-0.021": 0.0,
			"-0.02": 0.0,
			"-0.019": 0.0,
			"-0.018": 0.0,
			"-0.017": 0.0,
			"-0.016": 0.370846804852,
			"-0.015": 2.663547735,
			"-0.014": 2.66195273325,
			"-0.013": 2.64584830454,
			"-0.012": 3.43126566034,
			"-0.011": 3.07995917154,
			"-0.01": 3.76991377508,
			"-0.009": 4.81153951086,
			"-0.008": 12.3839457092,
			"-0.007": 16.7096997661,
			"-0.006": 13.7561365945,
			"-0.005": 15.3860053507,
			"-0.004": 13.1331740772,
			"-0.003": 9.33376623872,
			"-0.002": 11.0426328708,
			"-0.001": 11.9555920896,
			"0.0": 13.01689774,
			"0.001": 16.6660458134,
			"0.002": 8.74247938521,
			"0.003": 5.70675494287,
			"0.004": 5.16821266254,
			"0.005": 5.59262980498,
			"0.006": 6.91701031301,
			"0.007": 8.11086667255,
			"0.008": 10.0143567075,
			"0.009": 7.80985254315,
			"0.01": 13.7324869786,
			"0.011": 14.8573236534,
			"0.012": 5.32328477135,
			"0.013": 2.66310699362,
			"0.014": 0.817663324547,
			"0.015": 0.0,
			"0.016": 0.0,
			"0.017": 0.0,
			"0.018": 0.0,
			"0.019": 0.0,
			"0.02": 0.0,
			"0.021": 0.0,
			"0.022": 0.0,
			"0.023": 0.0,
			"0.024": 0.0,
			"0.025": 0.0
		}
	}
}
