{
	 "smiles": "CN1C=C(Cl)C=C1C(=O)NN", 
	 "Tm": 442.15, 
	 "num_atms": 19, 
	 "gaussian": { 
		 "optdone": 1, 
		 "sigma_profile": "yes", 
		 "theory": "DFT", 
		 "functional": "B3LYP", 
		 "basiset": "6-31G**", 
		 "properties": { 
			 "R2extent": 3291.0211, 
			 "electric_dipole_moment_norm": 1.34068560073, 
			 "electric_quadrupole_moment_norm": 10.910805539, 
			 "total_energy": -933.10115952, 
			 "HOMO_LUMO_gap": 0.19666, 
			 "cosmo_polarized_energy": -12.17, 
			 "cosmo_cavitation_energy": 25.09, 
			 "cosmo_dispersion_energy": -18.62, 
			 "cosmo_repulsion_energy": 1.51, 
			 "cosmo_total_nonelectrostatic_energy": 7.98, 
			 "SMD_solvation_energy": 5.37 
		},
		"coords": [
			{
				"x": 2.671664497,
				"y": -1.449891874,
				"z": -0.5514092821,
				"element": "C" 
			},
			{
				"x": 1.2791273636,
				"y": -1.8000470804,
				"z": -0.8264835359,
				"element": "N" 
			},
			{
				"x": 0.8420616727,
				"y": -3.0780979337,
				"z": -1.0303378534,
				"element": "C" 
			},
			{
				"x": -0.521215274,
				"y": -3.034128553,
				"z": -1.2649405351,
				"element": "C" 
			},
			{
				"x": -1.5304094573,
				"y": -4.4113558848,
				"z": -1.5923435759,
				"element": "Cl" 
			},
			{
				"x": -0.9340801184,
				"y": -1.6903812874,
				"z": -1.2010993688,
				"element": "C" 
			},
			{
				"x": 0.2030797543,
				"y": -0.9347940602,
				"z": -0.9225472023,
				"element": "C" 
			},
			{
				"x": 0.3556049266,
				"y": 0.5200695995,
				"z": -0.7602558723,
				"element": "C" 
			},
			{
				"x": 1.4438021058,
				"y": 1.0996895455,
				"z": -0.7711076798,
				"element": "O" 
			},
			{
				"x": -0.8235614665,
				"y": 1.2148611449,
				"z": -0.6017617131,
				"element": "N" 
			},
			{
				"x": -0.7878239451,
				"y": 2.5943744262,
				"z": -0.3016158494,
				"element": "N" 
			},
			{
				"x": 3.2421257214,
				"y": -2.3774776905,
				"z": -0.4787762644,
				"element": "H" 
			},
			{
				"x": 2.7506274585,
				"y": -0.8974573766,
				"z": 0.3859979986,
				"element": "H" 
			},
			{
				"x": 3.0744661291,
				"y": -0.8228500392,
				"z": -1.3470237902,
				"element": "H" 
			},
			{
				"x": 1.5167291726,
				"y": -3.9197490994,
				"z": -0.9969617852,
				"element": "H" 
			},
			{
				"x": -1.9324132108,
				"y": -1.3167987795,
				"z": -1.3751446769,
				"element": "H" 
			},
			{
				"x": -1.6224956295,
				"y": 0.7337194927,
				"z": -0.2141134097,
				"element": "H" 
			},
			{
				"x": 0.0996337692,
				"y": 2.7652663399,
				"z": 0.1746104648,
				"element": "H" 
			},
			{
				"x": -0.7172234694,
				"y": 3.0949491098,
				"z": -1.187086069,
				"element": "H" 
			}
		],
		 "valence_orbital": [ 
			{
				"type": "occ",
				"energy": -0.29166,
				"method": "rhf"
			},
			{
				"type": "occ",
				"energy": -0.266,
				"method": "rhf"
			},
			{
				"type": "occ",
				"energy": -0.25745,
				"method": "rhf"
			},
			{
				"type": "occ",
				"energy": -0.2474,
				"method": "rhf"
			},
			{
				"type": "occ",
				"energy": -0.22474,
				"method": "rhf"
			},
			{
				"type": "unocc",
				"energy": -0.02808,
				"method": "rhf"
			},
			{
				"type": "unocc",
				"energy": 0.03966,
				"method": "rhf"
			},
			{
				"type": "unocc",
				"energy": 0.0452,
				"method": "rhf"
			},
			{
				"type": "unocc",
				"energy": 0.08484,
				"method": "rhf"
			},
			{
				"type": "unocc",
				"energy": 0.09024,
				"method": "rhf"
			}
		],
		"cosmo_sigma_profile": { 
			"-0.025": 0.0,
			"-0.024": 0.0,
			"-0.023": 0.0,
			"-0.022": 0.0,
			"-0.021": 0.0,
			"-0.02": 0.0,
			"-0.019": 0.0,
			"-0.018": 0.0,
			"-0.017": 0.0,
			"-0.016": 0.0,
			"-0.015": 0.0,
			"-0.014": 0.661347486572,
			"-0.013": 0.988260862733,
			"-0.012": 1.23712876439,
			"-0.011": 2.69548402555,
			"-0.01": 3.53009277851,
			"-0.009": 6.64054920776,
			"-0.008": 6.63286414434,
			"-0.007": 6.3373828989,
			"-0.006": 7.73898933193,
			"-0.005": 10.0678773964,
			"-0.004": 10.6889341536,
			"-0.003": 12.5963086885,
			"-0.002": 13.6059476735,
			"-0.001": 9.44751225427,
			"0.0": 10.9708981634,
			"0.001": 12.0842954824,
			"0.002": 13.5255687171,
			"0.003": 16.9485965619,
			"0.004": 17.2310674243,
			"0.005": 15.1127535216,
			"0.006": 2.84763904014,
			"0.007": 2.29519428201,
			"0.008": 2.55284319393,
			"0.009": 1.49751080839,
			"0.01": 2.26187613229,
			"0.011": 2.25484244674,
			"0.012": 2.73932180877,
			"0.013": 3.3275435839,
			"0.014": 1.0625475906,
			"0.015": 1.14683714613,
			"0.016": 0.492139386912,
			"0.017": 0.274007696399,
			"0.018": 0.0,
			"0.019": 0.0,
			"0.02": 0.0,
			"0.021": 0.0,
			"0.022": 0.0,
			"0.023": 0.0,
			"0.024": 0.0,
			"0.025": 0.0
		}
	}
}
