{
	 "smiles": "COC(=O)C=CC1=CC=C(C=CC(=O)OC)C(NC(C)=O)=C1", 
	 "Tm": 441.15, 
	 "num_atms": 39, 
	 "gaussian": { 
		 "optdone": 1, 
		 "sigma_profile": "yes", 
		 "theory": "DFT", 
		 "functional": "B3LYP", 
		 "basiset": "6-31G**", 
		 "properties": { 
			 "R2extent": 12337.0132, 
			 "electric_dipole_moment_norm": 5.84953677226, 
			 "electric_quadrupole_moment_norm": 10.5851744086, 
			 "total_energy": -1050.82660361, 
			 "HOMO_LUMO_gap": 0.13946, 
			 "cosmo_polarized_energy": -22.18, 
			 "cosmo_cavitation_energy": 45.78, 
			 "cosmo_dispersion_energy": -31.49, 
			 "cosmo_repulsion_energy": 2.43, 
			 "cosmo_total_nonelectrostatic_energy": 16.72, 
			 "SMD_solvation_energy": 12.18 
		},
		"coords": [
			{
				"x": -5.7433941852,
				"y": -3.8506903565,
				"z": 0.8662399057,
				"element": "C" 
			},
			{
				"x": -4.5816682385,
				"y": -3.0164986968,
				"z": 0.7466992893,
				"element": "O" 
			},
			{
				"x": -3.4962420098,
				"y": -3.6188500319,
				"z": 0.2014974958,
				"element": "C" 
			},
			{
				"x": -3.4904935187,
				"y": -4.7793044093,
				"z": -0.1638986652,
				"element": "O" 
			},
			{
				"x": -2.3245890648,
				"y": -2.7263157228,
				"z": 0.0952382799,
				"element": "C" 
			},
			{
				"x": -2.312659689,
				"y": -1.4394021149,
				"z": 0.4896405365,
				"element": "C" 
			},
			{
				"x": -1.1898577246,
				"y": -0.5030028354,
				"z": 0.413745403,
				"element": "C" 
			},
			{
				"x": -1.3983302674,
				"y": 0.8368138277,
				"z": 0.7905461757,
				"element": "C" 
			},
			{
				"x": -0.3618578623,
				"y": 1.7562629917,
				"z": 0.7386094745,
				"element": "C" 
			},
			{
				"x": 0.9236934548,
				"y": 1.3946464853,
				"z": 0.29851141,
				"element": "C" 
			},
			{
				"x": 2.0023816624,
				"y": 2.3758808388,
				"z": 0.1903884979,
				"element": "C" 
			},
			{
				"x": 2.0983859812,
				"y": 3.5348679349,
				"z": 0.8681102277,
				"element": "C" 
			},
			{
				"x": 3.23618861,
				"y": 4.4461053162,
				"z": 0.6187689734,
				"element": "C" 
			},
			{
				"x": 4.1424916039,
				"y": 4.2545909319,
				"z": -0.1698569137,
				"element": "O" 
			},
			{
				"x": 3.1451172831,
				"y": 5.5487847176,
				"z": 1.4003586317,
				"element": "O" 
			},
			{
				"x": 4.2072889405,
				"y": 6.5007657269,
				"z": 1.2372372863,
				"element": "C" 
			},
			{
				"x": 1.1417631001,
				"y": 0.0403497175,
				"z": -0.076915309,
				"element": "C" 
			},
			{
				"x": 2.4371856767,
				"y": -0.3676685903,
				"z": -0.461751648,
				"element": "N" 
			},
			{
				"x": 2.8626920829,
				"y": -1.2085149116,
				"z": -1.4851117497,
				"element": "C" 
			},
			{
				"x": 1.8411727594,
				"y": -1.7090280113,
				"z": -2.4890225996,
				"element": "C" 
			},
			{
				"x": 4.0459933913,
				"y": -1.4951883758,
				"z": -1.5662766176,
				"element": "O" 
			},
			{
				"x": 0.0986924873,
				"y": -0.8835731857,
				"z": 0.0041998337,
				"element": "C" 
			},
			{
				"x": -6.5124223974,
				"y": -3.222333976,
				"z": 1.3156872305,
				"element": "H" 
			},
			{
				"x": -6.0652382569,
				"y": -4.2077323533,
				"z": -0.1154201747,
				"element": "H" 
			},
			{
				"x": -5.5344504538,
				"y": -4.7149163242,
				"z": 1.5019483734,
				"element": "H" 
			},
			{
				"x": -1.4595612131,
				"y": -3.213234562,
				"z": -0.3429699387,
				"element": "H" 
			},
			{
				"x": -3.2317159339,
				"y": -1.0340452057,
				"z": 0.9061001764,
				"element": "H" 
			},
			{
				"x": -2.3854459383,
				"y": 1.1522805844,
				"z": 1.1157501827,
				"element": "H" 
			},
			{
				"x": -0.5531079366,
				"y": 2.7905222753,
				"z": 1.0054919654,
				"element": "H" 
			},
			{
				"x": 2.8065613496,
				"y": 2.1563800489,
				"z": -0.5092017841,
				"element": "H" 
			},
			{
				"x": 1.3775472093,
				"y": 3.8431187139,
				"z": 1.6185122416,
				"element": "H" 
			},
			{
				"x": 3.9840260973,
				"y": 7.3137372678,
				"z": 1.9280536712,
				"element": "H" 
			},
			{
				"x": 4.2404006709,
				"y": 6.8688109863,
				"z": 0.2085088244,
				"element": "H" 
			},
			{
				"x": 5.1721138756,
				"y": 6.0465912952,
				"z": 1.4773115397,
				"element": "H" 
			},
			{
				"x": 3.219511224,
				"y": -0.0117901413,
				"z": 0.0743445685,
				"element": "H" 
			},
			{
				"x": 1.4750232326,
				"y": -2.6973442762,
				"z": -2.191703001,
				"element": "H" 
			},
			{
				"x": 0.983114034,
				"y": -1.044515494,
				"z": -2.6060051339,
				"element": "H" 
			},
			{
				"x": 2.3587925319,
				"y": -1.8253035584,
				"z": -3.4422896234,
				"element": "H" 
			},
			{
				"x": 0.3075974311,
				"y": -1.9222565266,
				"z": -0.2206770362,
				"element": "H" 
			}
		],
		 "valence_orbital": [ 
			{
				"type": "occ",
				"energy": -0.27723,
				"method": "rhf"
			},
			{
				"type": "occ",
				"energy": -0.27532,
				"method": "rhf"
			},
			{
				"type": "occ",
				"energy": -0.25885,
				"method": "rhf"
			},
			{
				"type": "occ",
				"energy": -0.25142,
				"method": "rhf"
			},
			{
				"type": "occ",
				"energy": -0.23346,
				"method": "rhf"
			},
			{
				"type": "unocc",
				"energy": -0.094,
				"method": "rhf"
			},
			{
				"type": "unocc",
				"energy": -0.04668,
				"method": "rhf"
			},
			{
				"type": "unocc",
				"energy": -0.02832,
				"method": "rhf"
			},
			{
				"type": "unocc",
				"energy": 0.01411,
				"method": "rhf"
			},
			{
				"type": "unocc",
				"energy": 0.02842,
				"method": "rhf"
			}
		],
		"cosmo_sigma_profile": { 
			"-0.025": 0.0,
			"-0.024": 0.0,
			"-0.023": 0.0,
			"-0.022": 0.0,
			"-0.021": 0.0,
			"-0.02": 0.0,
			"-0.019": 0.0,
			"-0.018": 0.0,
			"-0.017": 0.0,
			"-0.016": 0.0,
			"-0.015": 0.0338663058072,
			"-0.014": 0.453123538642,
			"-0.013": 1.17305633544,
			"-0.012": 1.0358926716,
			"-0.011": 1.24424716263,
			"-0.01": 1.34036027032,
			"-0.009": 3.24340658557,
			"-0.008": 7.21026261238,
			"-0.007": 12.392167238,
			"-0.006": 18.9322964178,
			"-0.005": 28.4756493906,
			"-0.004": 28.3535013176,
			"-0.003": 33.4186159748,
			"-0.002": 29.4910303154,
			"-0.001": 28.8585704142,
			"0.0": 25.096730565,
			"0.001": 27.8642595275,
			"0.002": 26.5957914548,
			"0.003": 16.5724800701,
			"0.004": 7.27011102019,
			"0.005": 6.7540209989,
			"0.006": 7.1632582881,
			"0.007": 5.48935235129,
			"0.008": 6.32314809628,
			"0.009": 3.96717604356,
			"0.01": 4.8655068639,
			"0.011": 6.80943198541,
			"0.012": 12.5268582251,
			"0.013": 8.68621479939,
			"0.014": 2.65501178766,
			"0.015": 0.224318937054,
			"0.016": 0.0,
			"0.017": 0.0,
			"0.018": 0.0,
			"0.019": 0.0,
			"0.02": 0.0,
			"0.021": 0.0,
			"0.022": 0.0,
			"0.023": 0.0,
			"0.024": 0.0,
			"0.025": 0.0
		}
	}
}
