{
	 "smiles": "CC1=C(C)C=C(OCCCC(O)=O)C=C1", 
	 "Tm": 364.15, 
	 "num_atms": 31, 
	 "gaussian": { 
		 "optdone": 1, 
		 "sigma_profile": "yes", 
		 "theory": "DFT", 
		 "functional": "B3LYP", 
		 "basiset": "6-31G**", 
		 "properties": { 
			 "R2extent": 6008.0241, 
			 "electric_dipole_moment_norm": 0.621132079352, 
			 "electric_quadrupole_moment_norm": 8.43628168804, 
			 "total_energy": -692.617343051, 
			 "HOMO_LUMO_gap": 0.21356, 
			 "cosmo_polarized_energy": -12.04, 
			 "cosmo_cavitation_energy": 34.35, 
			 "cosmo_dispersion_energy": -24.36, 
			 "cosmo_repulsion_energy": 1.94, 
			 "cosmo_total_nonelectrostatic_energy": 11.93, 
			 "SMD_solvation_energy": 7.09 
		},
		"coords": [
			{
				"x": 1.4724269583,
				"y": -3.020439609,
				"z": -0.0775416145,
				"element": "C" 
			},
			{
				"x": 0.2813718159,
				"y": -2.1015270728,
				"z": -0.2100230076,
				"element": "C" 
			},
			{
				"x": -0.4050578841,
				"y": -1.9657766934,
				"z": -1.4395965046,
				"element": "C" 
			},
			{
				"x": 0.0348647025,
				"y": -2.7421835351,
				"z": -2.6582508822,
				"element": "C" 
			},
			{
				"x": -1.4989192669,
				"y": -1.1066437694,
				"z": -1.5223654348,
				"element": "C" 
			},
			{
				"x": -1.9402864933,
				"y": -0.3699884677,
				"z": -0.4140757957,
				"element": "C" 
			},
			{
				"x": -3.0387451769,
				"y": 0.420172156,
				"z": -0.6397000759,
				"element": "O" 
			},
			{
				"x": -3.5655984694,
				"y": 1.2210888663,
				"z": 0.4186810308,
				"element": "C" 
			},
			{
				"x": -2.806498987,
				"y": 2.5348275621,
				"z": 0.6095178033,
				"element": "C" 
			},
			{
				"x": -2.7990983038,
				"y": 3.3916308067,
				"z": -0.6567785254,
				"element": "C" 
			},
			{
				"x": -2.0182968954,
				"y": 4.6752750284,
				"z": -0.4911253843,
				"element": "C" 
			},
			{
				"x": -2.0628791907,
				"y": 5.4325755641,
				"z": -1.6152555578,
				"element": "O" 
			},
			{
				"x": -1.4152412299,
				"y": 5.0208722772,
				"z": 0.501580526,
				"element": "O" 
			},
			{
				"x": -1.2663946009,
				"y": -0.4958516027,
				"z": 0.8023138139,
				"element": "C" 
			},
			{
				"x": -0.1696529966,
				"y": -1.3602038524,
				"z": 0.8821970656,
				"element": "C" 
			},
			{
				"x": 1.2145864522,
				"y": -4.0613739166,
				"z": -0.3098269522,
				"element": "H" 
			},
			{
				"x": 2.2848615372,
				"y": -2.7393284187,
				"z": -0.7594063521,
				"element": "H" 
			},
			{
				"x": 1.8730762284,
				"y": -2.9987515095,
				"z": 0.9396309611,
				"element": "H" 
			},
			{
				"x": -0.0016759383,
				"y": -3.8241620559,
				"z": -2.4820675411,
				"element": "H" 
			},
			{
				"x": 1.0689772793,
				"y": -2.5045601574,
				"z": -2.9362174426,
				"element": "H" 
			},
			{
				"x": -0.601531565,
				"y": -2.5222411259,
				"z": -3.5192009999,
				"element": "H" 
			},
			{
				"x": -2.0410081418,
				"y": -0.9932068543,
				"z": -2.4566872752,
				"element": "H" 
			},
			{
				"x": -4.5998599558,
				"y": 1.422347287,
				"z": 0.1195923483,
				"element": "H" 
			},
			{
				"x": -3.6003438274,
				"y": 0.6487904178,
				"z": 1.3538800626,
				"element": "H" 
			},
			{
				"x": -1.7758706436,
				"y": 2.3386611615,
				"z": 0.9192765428,
				"element": "H" 
			},
			{
				"x": -3.2735164869,
				"y": 3.0889812926,
				"z": 1.4322325283,
				"element": "H" 
			},
			{
				"x": -2.3682399339,
				"y": 2.8362633614,
				"z": -1.4976585877,
				"element": "H" 
			},
			{
				"x": -3.8173492862,
				"y": 3.654991179,
				"z": -0.9710085508,
				"element": "H" 
			},
			{
				"x": -1.5364422193,
				"y": 6.2270411986,
				"z": -1.4244919589,
				"element": "H" 
			},
			{
				"x": -1.5682481338,
				"y": 0.0608831965,
				"z": 1.6812204184,
				"element": "H" 
			},
			{
				"x": 0.3506906531,
				"y": -1.4519627145,
				"z": 1.8326553425,
				"element": "H" 
			}
		],
		 "valence_orbital": [ 
			{
				"type": "occ",
				"energy": -0.31423,
				"method": "rhf"
			},
			{
				"type": "occ",
				"energy": -0.3014,
				"method": "rhf"
			},
			{
				"type": "occ",
				"energy": -0.275,
				"method": "rhf"
			},
			{
				"type": "occ",
				"energy": -0.23735,
				"method": "rhf"
			},
			{
				"type": "occ",
				"energy": -0.20695,
				"method": "rhf"
			},
			{
				"type": "unocc",
				"energy": 0.00661,
				"method": "rhf"
			},
			{
				"type": "unocc",
				"energy": 0.01132,
				"method": "rhf"
			},
			{
				"type": "unocc",
				"energy": 0.01898,
				"method": "rhf"
			},
			{
				"type": "unocc",
				"energy": 0.07969,
				"method": "rhf"
			},
			{
				"type": "unocc",
				"energy": 0.09125,
				"method": "rhf"
			}
		],
		"cosmo_sigma_profile": { 
			"-0.025": 0.0,
			"-0.024": 0.0,
			"-0.023": 0.0,
			"-0.022": 0.0,
			"-0.021": 0.0,
			"-0.02": 0.0,
			"-0.019": 0.0,
			"-0.018": 0.468045896789,
			"-0.017": 0.804997809163,
			"-0.016": 1.09567745718,
			"-0.015": 0.707964961126,
			"-0.014": 0.583512573874,
			"-0.013": 0.897529345482,
			"-0.012": 0.419365543139,
			"-0.011": 0.945744591443,
			"-0.01": 0.880548695562,
			"-0.009": 0.420897761919,
			"-0.008": 0.486650276415,
			"-0.007": 1.45093053963,
			"-0.006": 8.11570636601,
			"-0.005": 17.4630057633,
			"-0.004": 29.4275085518,
			"-0.003": 30.0672236765,
			"-0.002": 24.3220876813,
			"-0.001": 20.5655156584,
			"0.0": 24.5792776785,
			"0.001": 18.2609587201,
			"0.002": 12.0937320213,
			"0.003": 10.9479815139,
			"0.004": 12.1265637244,
			"0.005": 11.3270679233,
			"0.006": 12.1754896493,
			"0.007": 7.44910042462,
			"0.008": 3.71874008489,
			"0.009": 3.76526884737,
			"0.01": 4.80812858436,
			"0.011": 3.57877178638,
			"0.012": 4.9600906399,
			"0.013": 0.547959103685,
			"0.014": 0.0,
			"0.015": 0.0,
			"0.016": 0.0,
			"0.017": 0.0,
			"0.018": 0.0,
			"0.019": 0.0,
			"0.02": 0.0,
			"0.021": 0.0,
			"0.022": 0.0,
			"0.023": 0.0,
			"0.024": 0.0,
			"0.025": 0.0
		}
	}
}
