{
	 "smiles": "ClC1=C(C=CC(=C1)S(Cl)(=O)=O)C#N", 
	 "Tm": 325.15, 
	 "num_atms": 16, 
	 "gaussian": { 
		 "optdone": 1, 
		 "sigma_profile": "yes", 
		 "theory": "DFT", 
		 "functional": "B3LYP", 
		 "basiset": "6-31G**", 
		 "properties": { 
			 "R2extent": 4114.6338, 
			 "electric_dipole_moment_norm": 1.00426813651, 
			 "electric_quadrupole_moment_norm": 20.9761982647, 
			 "total_energy": -1792.22614623, 
			 "HOMO_LUMO_gap": 0.17902, 
			 "cosmo_polarized_energy": -12.49, 
			 "cosmo_cavitation_energy": 27.69, 
			 "cosmo_dispersion_energy": -20.14, 
			 "cosmo_repulsion_energy": 1.56, 
			 "cosmo_total_nonelectrostatic_energy": 9.1, 
			 "SMD_solvation_energy": 4.51 
		},
		"coords": [
			{
				"x": -0.8504604436,
				"y": 2.9565489929,
				"z": 0.8853809181,
				"element": "Cl" 
			},
			{
				"x": -0.5737845724,
				"y": 1.362465049,
				"z": 0.2506715912,
				"element": "C" 
			},
			{
				"x": 0.0410831005,
				"y": 1.190014145,
				"z": -1.0066884302,
				"element": "C" 
			},
			{
				"x": 0.2480408947,
				"y": -0.1089139233,
				"z": -1.5052724505,
				"element": "C" 
			},
			{
				"x": -0.1427628586,
				"y": -1.2217839574,
				"z": -0.7702444102,
				"element": "C" 
			},
			{
				"x": -0.7428253055,
				"y": -1.0134225042,
				"z": 0.4713454742,
				"element": "C" 
			},
			{
				"x": -0.9706625054,
				"y": 0.2555131766,
				"z": 0.9979715138,
				"element": "C" 
			},
			{
				"x": -1.2739909433,
				"y": -2.4380045092,
				"z": 1.4265867535,
				"element": "S" 
			},
			{
				"x": 0.483011516,
				"y": -2.8435513443,
				"z": 2.5462599109,
				"element": "Cl" 
			},
			{
				"x": -2.2886713736,
				"y": -2.0153592715,
				"z": 2.3815582952,
				"element": "O" 
			},
			{
				"x": -1.4609009307,
				"y": -3.5645949674,
				"z": 0.5231559578,
				"element": "O" 
			},
			{
				"x": 0.4576117701,
				"y": 2.3126914535,
				"z": -1.7926184867,
				"element": "C" 
			},
			{
				"x": 0.8094441928,
				"y": 3.1979559809,
				"z": -2.4587155417,
				"element": "N" 
			},
			{
				"x": 0.7154600292,
				"y": -0.2291297368,
				"z": -2.4761897146,
				"element": "H" 
			},
			{
				"x": 0.0033211499,
				"y": -2.2260179167,
				"z": -1.1502003939,
				"element": "H" 
			},
			{
				"x": -1.4529137198,
				"y": 0.3808893329,
				"z": 1.9599990132,
				"element": "H" 
			}
		],
		 "valence_orbital": [ 
			{
				"type": "occ",
				"energy": -0.3506,
				"method": "rhf"
			},
			{
				"type": "occ",
				"energy": -0.34621,
				"method": "rhf"
			},
			{
				"type": "occ",
				"energy": -0.33222,
				"method": "rhf"
			},
			{
				"type": "occ",
				"energy": -0.31274,
				"method": "rhf"
			},
			{
				"type": "occ",
				"energy": -0.29751,
				"method": "rhf"
			},
			{
				"type": "unocc",
				"energy": -0.11849,
				"method": "rhf"
			},
			{
				"type": "unocc",
				"energy": -0.08411,
				"method": "rhf"
			},
			{
				"type": "unocc",
				"energy": -0.06931,
				"method": "rhf"
			},
			{
				"type": "unocc",
				"energy": -0.01258,
				"method": "rhf"
			},
			{
				"type": "unocc",
				"energy": 0.00557,
				"method": "rhf"
			}
		],
		"cosmo_sigma_profile": { 
			"-0.025": 0.0,
			"-0.024": 0.0,
			"-0.023": 0.0,
			"-0.022": 0.0,
			"-0.021": 0.0,
			"-0.02": 0.0,
			"-0.019": 0.0,
			"-0.018": 0.0,
			"-0.017": 0.0,
			"-0.016": 0.0,
			"-0.015": 0.0,
			"-0.014": 0.0,
			"-0.013": 0.0,
			"-0.012": 0.0,
			"-0.011": 0.363960190323,
			"-0.01": 5.08815666994,
			"-0.009": 5.79272087989,
			"-0.008": 6.31201422865,
			"-0.007": 5.90557865456,
			"-0.006": 7.26952816919,
			"-0.005": 9.43469426158,
			"-0.004": 17.571471266,
			"-0.003": 22.2290619272,
			"-0.002": 17.4902993005,
			"-0.001": 13.7055570495,
			"0.0": 13.0200087579,
			"0.001": 14.3546576874,
			"0.002": 22.9556898133,
			"0.003": 17.6684154144,
			"0.004": 6.32167249701,
			"0.005": 5.58445816642,
			"0.006": 6.19068540051,
			"0.007": 12.4165754815,
			"0.008": 10.565874194,
			"0.009": 3.96658846797,
			"0.01": 2.51056855436,
			"0.011": 2.22482069945,
			"0.012": 1.00775954428,
			"0.013": 0.0,
			"0.014": 0.0,
			"0.015": 0.0,
			"0.016": 0.0,
			"0.017": 0.0,
			"0.018": 0.0,
			"0.019": 0.0,
			"0.02": 0.0,
			"0.021": 0.0,
			"0.022": 0.0,
			"0.023": 0.0,
			"0.024": 0.0,
			"0.025": 0.0
		}
	}
}
