{
	 "smiles": "O=C1C2CCC1C1OC2C=C1", 
	 "Tm": 370.15, 
	 "num_atms": 21, 
	 "gaussian": { 
		 "optdone": 1, 
		 "sigma_profile": "yes", 
		 "theory": "DFT", 
		 "functional": "B3LYP", 
		 "basiset": "6-31G**", 
		 "properties": { 
			 "R2extent": 1276.0799, 
			 "electric_dipole_moment_norm": 4.14308054109, 
			 "electric_quadrupole_moment_norm": 10.0990136687, 
			 "total_energy": -499.359327051, 
			 "HOMO_LUMO_gap": 0.22315, 
			 "cosmo_polarized_energy": -10.63, 
			 "cosmo_cavitation_energy": 21.71, 
			 "cosmo_dispersion_energy": -17.09, 
			 "cosmo_repulsion_energy": 1.37, 
			 "cosmo_total_nonelectrostatic_energy": 5.99, 
			 "SMD_solvation_energy": 3.55 
		},
		"coords": [
			{
				"x": -2.2912377444,
				"y": 1.7133810923,
				"z": 0.180887549,
				"element": "O" 
			},
			{
				"x": -1.2997373884,
				"y": 1.0332407512,
				"z": 0.0848175527,
				"element": "C" 
			},
			{
				"x": -0.1795668651,
				"y": 1.1015415447,
				"z": -0.9703846693,
				"element": "C" 
			},
			{
				"x": 1.0393160557,
				"y": 1.3099900958,
				"z": -0.0382481957,
				"element": "C" 
			},
			{
				"x": 0.668094362,
				"y": 0.5796818939,
				"z": 1.3032153153,
				"element": "C" 
			},
			{
				"x": -0.7447005925,
				"y": -0.0107788556,
				"z": 1.0721057437,
				"element": "C" 
			},
			{
				"x": -0.7801335538,
				"y": -1.3620312108,
				"z": 0.2284668763,
				"element": "C" 
			},
			{
				"x": -1.3527552483,
				"y": -1.0215403614,
				"z": -1.0487897789,
				"element": "O" 
			},
			{
				"x": -0.2546652359,
				"y": -0.3274670679,
				"z": -1.6713723485,
				"element": "C" 
			},
			{
				"x": 0.9150167407,
				"y": -1.2338906473,
				"z": -1.3201514534,
				"element": "C" 
			},
			{
				"x": 0.5996266029,
				"y": -1.8548144648,
				"z": -0.1795893159,
				"element": "C" 
			},
			{
				"x": -0.3301856382,
				"y": 1.9071065966,
				"z": -1.6908577186,
				"element": "H" 
			},
			{
				"x": 1.966287636,
				"y": 0.9230743127,
				"z": -0.468385886,
				"element": "H" 
			},
			{
				"x": 1.1840876178,
				"y": 2.3804250107,
				"z": 0.1371651089,
				"element": "H" 
			},
			{
				"x": 0.6322282519,
				"y": 1.295371853,
				"z": 2.1302964314,
				"element": "H" 
			},
			{
				"x": 1.403311571,
				"y": -0.1845609956,
				"z": 1.5666592747,
				"element": "H" 
			},
			{
				"x": -1.3457431966,
				"y": -0.0915693723,
				"z": 1.9792570758,
				"element": "H" 
			},
			{
				"x": -1.4226833326,
				"y": -2.1045768776,
				"z": 0.705090611,
				"element": "H" 
			},
			{
				"x": -0.4707299914,
				"y": -0.2301440706,
				"z": -2.7368557297,
				"element": "H" 
			},
			{
				"x": 1.8431093594,
				"y": -1.2962329033,
				"z": -1.8756391462,
				"element": "H" 
			},
			{
				"x": 1.2141605899,
				"y": -2.5344063235,
				"z": 0.3986127034,
				"element": "H" 
			}
		],
		 "valence_orbital": [ 
			{
				"type": "occ",
				"energy": -0.33496,
				"method": "rhf"
			},
			{
				"type": "occ",
				"energy": -0.33452,
				"method": "rhf"
			},
			{
				"type": "occ",
				"energy": -0.26527,
				"method": "rhf"
			},
			{
				"type": "occ",
				"energy": -0.25994,
				"method": "rhf"
			},
			{
				"type": "occ",
				"energy": -0.23034,
				"method": "rhf"
			},
			{
				"type": "unocc",
				"energy": -0.00719,
				"method": "rhf"
			},
			{
				"type": "unocc",
				"energy": -0.00276,
				"method": "rhf"
			},
			{
				"type": "unocc",
				"energy": 0.07757,
				"method": "rhf"
			},
			{
				"type": "unocc",
				"energy": 0.0979,
				"method": "rhf"
			},
			{
				"type": "unocc",
				"energy": 0.11297,
				"method": "rhf"
			}
		],
		"cosmo_sigma_profile": { 
			"-0.025": 0.0,
			"-0.024": 0.0,
			"-0.023": 0.0,
			"-0.022": 0.0,
			"-0.021": 0.0,
			"-0.02": 0.0,
			"-0.019": 0.0,
			"-0.018": 0.0,
			"-0.017": 0.0,
			"-0.016": 0.0,
			"-0.015": 0.0,
			"-0.014": 0.0,
			"-0.013": 0.0,
			"-0.012": 0.0,
			"-0.011": 0.0,
			"-0.01": 0.0,
			"-0.009": 0.0,
			"-0.008": 0.0506822242079,
			"-0.007": 3.83882477978,
			"-0.006": 10.6468180845,
			"-0.005": 15.0789923696,
			"-0.004": 24.1866532777,
			"-0.003": 21.5891654779,
			"-0.002": 15.8640984002,
			"-0.001": 14.0386685764,
			"0.0": 13.1757122897,
			"0.001": 6.12530061068,
			"0.002": 3.62511695903,
			"0.003": 2.92648532375,
			"0.004": 3.26687020907,
			"0.005": 3.82810693422,
			"0.006": 2.66183567227,
			"0.007": 2.89847523897,
			"0.008": 3.9978905089,
			"0.009": 3.42036262721,
			"0.01": 4.23025369051,
			"0.011": 5.35128333918,
			"0.012": 6.69070660542,
			"0.013": 2.94710959989,
			"0.014": 0.0742179928401,
			"0.015": 0.0,
			"0.016": 0.0,
			"0.017": 0.0,
			"0.018": 0.0,
			"0.019": 0.0,
			"0.02": 0.0,
			"0.021": 0.0,
			"0.022": 0.0,
			"0.023": 0.0,
			"0.024": 0.0,
			"0.025": 0.0
		}
	}
}
