{
	 "smiles": "FC1=CC2=C(C=C1)C(=O)NC=N2", 
	 "Tm": 534.15, 
	 "num_atms": 17, 
	 "gaussian": { 
		 "optdone": 1, 
		 "sigma_profile": "yes", 
		 "theory": "DFT", 
		 "functional": "B3LYP", 
		 "basiset": "6-31G**", 
		 "properties": { 
			 "R2extent": 2324.8679, 
			 "electric_dipole_moment_norm": 1.88188946806, 
			 "electric_quadrupole_moment_norm": 13.5814957748, 
			 "total_energy": -592.450985398, 
			 "HOMO_LUMO_gap": 0.19448, 
			 "cosmo_polarized_energy": -12.81, 
			 "cosmo_cavitation_energy": 22.27, 
			 "cosmo_dispersion_energy": -16.74, 
			 "cosmo_repulsion_energy": 1.28, 
			 "cosmo_total_nonelectrostatic_energy": 6.81, 
			 "SMD_solvation_energy": 3.77 
		},
		"coords": [
			{
				"x": 3.953528485,
				"y": -2.3142653847,
				"z": 0.5786089606,
				"element": "F" 
			},
			{
				"x": 2.7117266653,
				"y": -1.7952584593,
				"z": 0.5870498663,
				"element": "C" 
			},
			{
				"x": 2.5549806836,
				"y": -0.4429641955,
				"z": 0.8264984485,
				"element": "C" 
			},
			{
				"x": 1.256910036,
				"y": 0.0980834974,
				"z": 0.8350750776,
				"element": "C" 
			},
			{
				"x": 0.1508814552,
				"y": -0.7585962613,
				"z": 0.5982269249,
				"element": "C" 
			},
			{
				"x": 0.352316565,
				"y": -2.1274419732,
				"z": 0.3588757471,
				"element": "C" 
			},
			{
				"x": 1.6321450964,
				"y": -2.6567153702,
				"z": 0.3512306687,
				"element": "C" 
			},
			{
				"x": -1.2077671433,
				"y": -0.2079291067,
				"z": 0.6042787609,
				"element": "C" 
			},
			{
				"x": -2.2492439904,
				"y": -0.8198849799,
				"z": 0.4173242601,
				"element": "O" 
			},
			{
				"x": -1.2208274574,
				"y": 1.1742858695,
				"z": 0.859542816,
				"element": "N" 
			},
			{
				"x": -0.0922692912,
				"y": 1.9224274504,
				"z": 1.0779127917,
				"element": "C" 
			},
			{
				"x": 1.1123760329,
				"y": 1.461046986,
				"z": 1.0774551477,
				"element": "N" 
			},
			{
				"x": 3.4097976291,
				"y": 0.1979246743,
				"z": 1.0055910566,
				"element": "H" 
			},
			{
				"x": -0.5172275528,
				"y": -2.7514355501,
				"z": 0.1818833571,
				"element": "H" 
			},
			{
				"x": 1.8199451976,
				"y": -3.7089180001,
				"z": 0.1696118008,
				"element": "H" 
			},
			{
				"x": -2.1359159915,
				"y": 1.6081590097,
				"z": 0.8753326244,
				"element": "H" 
			},
			{
				"x": -0.2633564193,
				"y": 2.9813817937,
				"z": 1.2621016909,
				"element": "H" 
			}
		],
		 "valence_orbital": [ 
			{
				"type": "occ",
				"energy": -0.30235,
				"method": "rhf"
			},
			{
				"type": "occ",
				"energy": -0.28698,
				"method": "rhf"
			},
			{
				"type": "occ",
				"energy": -0.2706,
				"method": "rhf"
			},
			{
				"type": "occ",
				"energy": -0.2614,
				"method": "rhf"
			},
			{
				"type": "occ",
				"energy": -0.24177,
				"method": "rhf"
			},
			{
				"type": "unocc",
				"energy": -0.04729,
				"method": "rhf"
			},
			{
				"type": "unocc",
				"energy": -0.04431,
				"method": "rhf"
			},
			{
				"type": "unocc",
				"energy": 0.01774,
				"method": "rhf"
			},
			{
				"type": "unocc",
				"energy": 0.06653,
				"method": "rhf"
			},
			{
				"type": "unocc",
				"energy": 0.07157,
				"method": "rhf"
			}
		],
		"cosmo_sigma_profile": { 
			"-0.025": 0.0,
			"-0.024": 0.0,
			"-0.023": 0.0,
			"-0.022": 0.0,
			"-0.021": 0.0,
			"-0.02": 0.0,
			"-0.019": 0.0,
			"-0.018": 0.0,
			"-0.017": 0.79531734447,
			"-0.016": 1.58668034495,
			"-0.015": 1.57906997623,
			"-0.014": 1.36522363426,
			"-0.013": 0.925601380553,
			"-0.012": 0.960649594903,
			"-0.011": 1.81874700606,
			"-0.01": 2.83718993478,
			"-0.009": 2.36938288372,
			"-0.008": 4.48264579158,
			"-0.007": 6.58538443742,
			"-0.006": 5.30758322577,
			"-0.005": 6.85978148715,
			"-0.004": 8.03534326616,
			"-0.003": 9.96353794134,
			"-0.002": 12.1810198597,
			"-0.001": 10.6625518256,
			"0.0": 15.4415825998,
			"0.001": 20.343704415,
			"0.002": 14.3335407669,
			"0.003": 10.6862052256,
			"0.004": 10.98969536,
			"0.005": 2.57143452067,
			"0.006": 2.99125399004,
			"0.007": 3.24492673913,
			"0.008": 1.84944630691,
			"0.009": 2.01874715217,
			"0.01": 2.19020531362,
			"0.011": 2.77776480389,
			"0.012": 5.34503331674,
			"0.013": 5.26043038724,
			"0.014": 0.869695986245,
			"0.015": 0.616559606556,
			"0.016": 0.0629945217355,
			"0.017": 0.0,
			"0.018": 0.0,
			"0.019": 0.0,
			"0.02": 0.0,
			"0.021": 0.0,
			"0.022": 0.0,
			"0.023": 0.0,
			"0.024": 0.0,
			"0.025": 0.0
		}
	}
}
