{
	 "smiles": "NC1=CC=C(C=C1)C(=O)N(CC=C)CC=C", 
	 "Tm": 378.15, 
	 "num_atms": 32, 
	 "gaussian": { 
		 "optdone": 1, 
		 "sigma_profile": "yes", 
		 "theory": "DFT", 
		 "functional": "B3LYP", 
		 "basiset": "6-31G**", 
		 "properties": { 
			 "R2extent": 4715.3057, 
			 "electric_dipole_moment_norm": 4.87946079603, 
			 "electric_quadrupole_moment_norm": 19.3365329452, 
			 "total_energy": -689.714940218, 
			 "HOMO_LUMO_gap": 0.19106, 
			 "cosmo_polarized_energy": -17.05, 
			 "cosmo_cavitation_energy": 35.93, 
			 "cosmo_dispersion_energy": -24.32, 
			 "cosmo_repulsion_energy": 1.91, 
			 "cosmo_total_nonelectrostatic_energy": 13.51, 
			 "SMD_solvation_energy": 7.55 
		},
		"coords": [
			{
				"x": 4.0756261161,
				"y": 3.5169206813,
				"z": -0.1919742827,
				"element": "N" 
			},
			{
				"x": 2.9890689748,
				"y": 2.6923519838,
				"z": -0.4607058898,
				"element": "C" 
			},
			{
				"x": 2.1304076509,
				"y": 2.9625625073,
				"z": -1.543693762,
				"element": "C" 
			},
			{
				"x": 1.0833868227,
				"y": 2.1036864315,
				"z": -1.8452723504,
				"element": "C" 
			},
			{
				"x": 0.8258618556,
				"y": 0.9652794139,
				"z": -1.0655101238,
				"element": "C" 
			},
			{
				"x": 1.6939101634,
				"y": 0.6895952312,
				"z": 0.0012870689,
				"element": "C" 
			},
			{
				"x": 2.7588942975,
				"y": 1.5326449857,
				"z": 0.3008620376,
				"element": "C" 
			},
			{
				"x": -0.273981459,
				"y": 0.0497373476,
				"z": -1.5155086877,
				"element": "C" 
			},
			{
				"x": -0.4622015529,
				"y": -0.1346504833,
				"z": -2.7174418524,
				"element": "O" 
			},
			{
				"x": -1.0490430963,
				"y": -0.5986523425,
				"z": -0.5659201432,
				"element": "N" 
			},
			{
				"x": -2.0162094217,
				"y": -1.5874317324,
				"z": -1.0786260954,
				"element": "C" 
			},
			{
				"x": -1.4228364862,
				"y": -2.9689329012,
				"z": -1.196160703,
				"element": "C" 
			},
			{
				"x": -1.2254206926,
				"y": -3.5954360748,
				"z": -2.3552660836,
				"element": "C" 
			},
			{
				"x": -1.2650566434,
				"y": -0.1180535846,
				"z": 0.8017235547,
				"element": "C" 
			},
			{
				"x": -0.9843491317,
				"y": -1.1650603883,
				"z": 1.8497028531,
				"element": "C" 
			},
			{
				"x": -1.8639309636,
				"y": -1.5651530574,
				"z": 2.7681359575,
				"element": "C" 
			},
			{
				"x": 4.4444754703,
				"y": 3.4731026841,
				"z": 0.7471328737,
				"element": "H" 
			},
			{
				"x": 4.0109745047,
				"y": 4.46189678,
				"z": -0.5423781384,
				"element": "H" 
			},
			{
				"x": 2.3032525149,
				"y": 3.8446121113,
				"z": -2.1555759187,
				"element": "H" 
			},
			{
				"x": 0.4452652812,
				"y": 2.2995165684,
				"z": -2.7007622727,
				"element": "H" 
			},
			{
				"x": 1.5578273045,
				"y": -0.2110390667,
				"z": 0.5920114758,
				"element": "H" 
			},
			{
				"x": 3.4295570976,
				"y": 1.2884193009,
				"z": 1.1210044069,
				"element": "H" 
			},
			{
				"x": -2.864006463,
				"y": -1.6024678783,
				"z": -0.3844658045,
				"element": "H" 
			},
			{
				"x": -2.3684922758,
				"y": -1.2469787073,
				"z": -2.0547894802,
				"element": "H" 
			},
			{
				"x": -1.1409438054,
				"y": -3.4488143168,
				"z": -0.2593390747,
				"element": "H" 
			},
			{
				"x": -1.4779525912,
				"y": -3.1245130022,
				"z": -3.3015162895,
				"element": "H" 
			},
			{
				"x": -0.7958018221,
				"y": -4.5922628527,
				"z": -2.4004116833,
				"element": "H" 
			},
			{
				"x": -2.3050530568,
				"y": 0.2255427946,
				"z": 0.9050863571,
				"element": "H" 
			},
			{
				"x": -0.6262544533,
				"y": 0.7534531093,
				"z": 0.9603212465,
				"element": "H" 
			},
			{
				"x": 0.0131474761,
				"y": -1.6037345028,
				"z": 1.8290127128,
				"element": "H" 
			},
			{
				"x": -2.8707007832,
				"y": -1.1549463091,
				"z": 2.8084700898,
				"element": "H" 
			},
			{
				"x": -1.6120208322,
				"y": -2.3099947305,
				"z": 3.5169680015,
				"element": "H" 
			}
		],
		 "valence_orbital": [ 
			{
				"type": "occ",
				"energy": -0.2549,
				"method": "rhf"
			},
			{
				"type": "occ",
				"energy": -0.25052,
				"method": "rhf"
			},
			{
				"type": "occ",
				"energy": -0.23851,
				"method": "rhf"
			},
			{
				"type": "occ",
				"energy": -0.22877,
				"method": "rhf"
			},
			{
				"type": "occ",
				"energy": -0.20454,
				"method": "rhf"
			},
			{
				"type": "unocc",
				"energy": -0.01348,
				"method": "rhf"
			},
			{
				"type": "unocc",
				"energy": -0.00137,
				"method": "rhf"
			},
			{
				"type": "unocc",
				"energy": 0.00908,
				"method": "rhf"
			},
			{
				"type": "unocc",
				"energy": 0.02708,
				"method": "rhf"
			},
			{
				"type": "unocc",
				"energy": 0.06166,
				"method": "rhf"
			}
		],
		"cosmo_sigma_profile": { 
			"-0.025": 0.0,
			"-0.024": 0.0,
			"-0.023": 0.0,
			"-0.022": 0.0,
			"-0.021": 0.0,
			"-0.02": 0.0,
			"-0.019": 0.0,
			"-0.018": 0.0,
			"-0.017": 0.0,
			"-0.016": 0.0,
			"-0.015": 0.0,
			"-0.014": 0.0,
			"-0.013": 1.22248458932,
			"-0.012": 2.99568416059,
			"-0.011": 2.64222064172,
			"-0.01": 3.17366956814,
			"-0.009": 3.01081123423,
			"-0.008": 2.91245458845,
			"-0.007": 4.4573666124,
			"-0.006": 8.03455141588,
			"-0.005": 20.9166648338,
			"-0.004": 24.445685562,
			"-0.003": 23.3163603495,
			"-0.002": 25.7300199201,
			"-0.001": 23.9606312051,
			"0.0": 20.2437404952,
			"0.001": 17.0121695875,
			"0.002": 15.5583040512,
			"0.003": 14.3630265591,
			"0.004": 15.5829140032,
			"0.005": 16.4987893986,
			"0.006": 11.7076712711,
			"0.007": 4.55980689878,
			"0.008": 2.84497678048,
			"0.009": 3.24606147186,
			"0.01": 3.08939022773,
			"0.011": 2.00750485335,
			"0.012": 3.28521181794,
			"0.013": 2.44548780182,
			"0.014": 3.95842381711,
			"0.015": 1.22239321494,
			"0.016": 0.000529278772278,
			"0.017": 0.0,
			"0.018": 0.0,
			"0.019": 0.0,
			"0.02": 0.0,
			"0.021": 0.0,
			"0.022": 0.0,
			"0.023": 0.0,
			"0.024": 0.0,
			"0.025": 0.0
		}
	}
}
