{
	 "smiles": "CN1N=C(C)C(C(O)=O)=C1C(F)(F)Cl", 
	 "Tm": 396.15, 
	 "num_atms": 21, 
	 "gaussian": { 
		 "optdone": 1, 
		 "sigma_profile": "yes", 
		 "theory": "DFT", 
		 "functional": "B3LYP", 
		 "basiset": "6-31G**", 
		 "properties": { 
			 "R2extent": 4421.8896, 
			 "electric_dipole_moment_norm": 2.34679685742, 
			 "electric_quadrupole_moment_norm": 20.0024606004, 
			 "total_energy": -1190.77995391, 
			 "HOMO_LUMO_gap": 0.21304, 
			 "cosmo_polarized_energy": -11.4, 
			 "cosmo_cavitation_energy": 27.91, 
			 "cosmo_dispersion_energy": -19.95, 
			 "cosmo_repulsion_energy": 1.55, 
			 "cosmo_total_nonelectrostatic_energy": 9.51, 
			 "SMD_solvation_energy": 5.33 
		},
		"coords": [
			{
				"x": 0.9017510567,
				"y": 1.0142023068,
				"z": -3.6908330678,
				"element": "C" 
			},
			{
				"x": 0.7623097437,
				"y": 0.7827524952,
				"z": -2.2552039677,
				"element": "N" 
			},
			{
				"x": 0.8580716881,
				"y": -0.4942616367,
				"z": -1.8155210566,
				"element": "N" 
			},
			{
				"x": 0.7026587761,
				"y": -0.448605895,
				"z": -0.4946003486,
				"element": "C" 
			},
			{
				"x": 0.7612448578,
				"y": -1.7158078232,
				"z": 0.3005915261,
				"element": "C" 
			},
			{
				"x": 0.5084943689,
				"y": 0.8940881886,
				"z": -0.0620718928,
				"element": "C" 
			},
			{
				"x": 0.3892986589,
				"y": 1.4067924774,
				"z": 1.3095444152,
				"element": "C" 
			},
			{
				"x": 0.2067927985,
				"y": 0.407530535,
				"z": 2.2141624888,
				"element": "O" 
			},
			{
				"x": 0.4588569751,
				"y": 2.5715412363,
				"z": 1.6454614873,
				"element": "O" 
			},
			{
				"x": 0.5427255311,
				"y": 1.6525158676,
				"z": -1.2373458627,
				"element": "C" 
			},
			{
				"x": 0.385466404,
				"y": 3.1295488908,
				"z": -1.4486625849,
				"element": "C" 
			},
			{
				"x": -0.5533507969,
				"y": 3.646018861,
				"z": -0.6478753305,
				"element": "F" 
			},
			{
				"x": 0.0024475277,
				"y": 3.3871714519,
				"z": -2.7273944827,
				"element": "F" 
			},
			{
				"x": 1.9362126193,
				"y": 4.0237079963,
				"z": -1.1758817148,
				"element": "Cl" 
			},
			{
				"x": -0.0595809479,
				"y": 1.2714675233,
				"z": -4.1398986873,
				"element": "H" 
			},
			{
				"x": 1.2694608933,
				"y": 0.0799335127,
				"z": -4.1111664383,
				"element": "H" 
			},
			{
				"x": 1.6141238539,
				"y": 1.8176332536,
				"z": -3.8820545126,
				"element": "H" 
			},
			{
				"x": 0.961157635,
				"y": -2.5512770705,
				"z": -0.3731728641,
				"element": "H" 
			},
			{
				"x": -0.1802458376,
				"y": -1.8957235159,
				"z": 0.8269274136,
				"element": "H" 
			},
			{
				"x": 1.5460853459,
				"y": -1.6714505069,
				"z": 1.0608271465,
				"element": "H" 
			},
			{
				"x": 0.1683188483,
				"y": 0.8481218516,
				"z": 3.0793683337,
				"element": "H" 
			}
		],
		 "valence_orbital": [ 
			{
				"type": "occ",
				"energy": -0.32016,
				"method": "rhf"
			},
			{
				"type": "occ",
				"energy": -0.31164,
				"method": "rhf"
			},
			{
				"type": "occ",
				"energy": -0.27681,
				"method": "rhf"
			},
			{
				"type": "occ",
				"energy": -0.26939,
				"method": "rhf"
			},
			{
				"type": "occ",
				"energy": -0.26476,
				"method": "rhf"
			},
			{
				"type": "unocc",
				"energy": -0.05172,
				"method": "rhf"
			},
			{
				"type": "unocc",
				"energy": -0.00037,
				"method": "rhf"
			},
			{
				"type": "unocc",
				"energy": 0.02218,
				"method": "rhf"
			},
			{
				"type": "unocc",
				"energy": 0.07496,
				"method": "rhf"
			},
			{
				"type": "unocc",
				"energy": 0.08331,
				"method": "rhf"
			}
		],
		"cosmo_sigma_profile": { 
			"-0.025": 0.0,
			"-0.024": 0.0,
			"-0.023": 0.0,
			"-0.022": 0.0,
			"-0.021": 0.0,
			"-0.02": 0.0,
			"-0.019": 0.0311976585535,
			"-0.018": 0.779831684005,
			"-0.017": 0.779282375919,
			"-0.016": 0.779866131944,
			"-0.015": 0.805957610978,
			"-0.014": 0.768848990832,
			"-0.013": 0.546942456089,
			"-0.012": 0.740536667872,
			"-0.011": 1.00439712377,
			"-0.01": 0.46494342959,
			"-0.009": 0.622956683664,
			"-0.008": 0.925161495807,
			"-0.007": 5.71029195241,
			"-0.006": 8.93671513078,
			"-0.005": 11.5876662636,
			"-0.004": 15.5703997872,
			"-0.003": 15.2348617681,
			"-0.002": 18.0051117952,
			"-0.001": 20.8479749853,
			"0.0": 20.7703033563,
			"0.001": 18.3916262481,
			"0.002": 23.7851861387,
			"0.003": 16.2294149535,
			"0.004": 7.10628658641,
			"0.005": 6.46717507988,
			"0.006": 5.02306082896,
			"0.007": 3.40571614253,
			"0.008": 2.9963130987,
			"0.009": 4.00562806223,
			"0.01": 3.42265278076,
			"0.011": 4.28595704431,
			"0.012": 3.26209173654,
			"0.013": 1.00470265425,
			"0.014": 0.200352012197,
			"0.015": 0.0,
			"0.016": 0.0,
			"0.017": 0.0,
			"0.018": 0.0,
			"0.019": 0.0,
			"0.02": 0.0,
			"0.021": 0.0,
			"0.022": 0.0,
			"0.023": 0.0,
			"0.024": 0.0,
			"0.025": 0.0
		}
	}
}
