{
	 "smiles": "CC1=CC=C(C=C1)C1=C(N=C(N)S1)C1=CC=C(C)C=C1", 
	 "Tm": 427.15, 
	 "num_atms": 36, 
	 "gaussian": { 
		 "optdone": 1, 
		 "sigma_profile": "yes", 
		 "theory": "DFT", 
		 "functional": "B3LYP", 
		 "basiset": "6-31G**", 
		 "properties": { 
			 "R2extent": 7171.5032, 
			 "electric_dipole_moment_norm": 1.19886110955, 
			 "electric_quadrupole_moment_norm": 19.1709452167, 
			 "total_energy": -1165.16553012, 
			 "HOMO_LUMO_gap": 0.15531, 
			 "cosmo_polarized_energy": -12.66, 
			 "cosmo_cavitation_energy": 41.09, 
			 "cosmo_dispersion_energy": -29.4, 
			 "cosmo_repulsion_energy": 2.25, 
			 "cosmo_total_nonelectrostatic_energy": 13.95, 
			 "SMD_solvation_energy": 5.16 
		},
		"coords": [
			{
				"x": -3.4819661317,
				"y": 3.3381156791,
				"z": -3.4127631917,
				"element": "C" 
			},
			{
				"x": -2.8665221103,
				"y": 2.6030147889,
				"z": -2.2459728514,
				"element": "C" 
			},
			{
				"x": -2.4602006469,
				"y": 1.2656563633,
				"z": -2.3695779718,
				"element": "C" 
			},
			{
				"x": -1.8774448914,
				"y": 0.5841922763,
				"z": -1.3062541786,
				"element": "C" 
			},
			{
				"x": -1.6617091921,
				"y": 1.2234677438,
				"z": -0.071080276,
				"element": "C" 
			},
			{
				"x": -2.0737486897,
				"y": 2.5605591579,
				"z": 0.0556073403,
				"element": "C" 
			},
			{
				"x": -2.6673679623,
				"y": 3.2328160959,
				"z": -1.0120359981,
				"element": "C" 
			},
			{
				"x": -1.072281765,
				"y": 0.4953734707,
				"z": 1.0658128257,
				"element": "C" 
			},
			{
				"x": 0.008217541,
				"y": -0.3574871886,
				"z": 1.1589963299,
				"element": "C" 
			},
			{
				"x": 0.202080156,
				"y": -0.9527983473,
				"z": 2.3986160938,
				"element": "N" 
			},
			{
				"x": -0.6879024833,
				"y": -0.5666108701,
				"z": 3.2622310096,
				"element": "C" 
			},
			{
				"x": -0.7571855499,
				"y": -1.039920137,
				"z": 4.554703486,
				"element": "N" 
			},
			{
				"x": -1.882704093,
				"y": 0.5660713619,
				"z": 2.6384278718,
				"element": "S" 
			},
			{
				"x": 0.9977369529,
				"y": -0.674280511,
				"z": 0.1045080489,
				"element": "C" 
			},
			{
				"x": 1.384675873,
				"y": 0.2553205744,
				"z": -0.8746393021,
				"element": "C" 
			},
			{
				"x": 2.3348561188,
				"y": -0.0777432195,
				"z": -1.8366218552,
				"element": "C" 
			},
			{
				"x": 2.9417322112,
				"y": -1.3410139165,
				"z": -1.856012942,
				"element": "C" 
			},
			{
				"x": 3.9948638333,
				"y": -1.6842747927,
				"z": -2.8827518633,
				"element": "C" 
			},
			{
				"x": 2.5634794527,
				"y": -2.2613445134,
				"z": -0.8695884073,
				"element": "C" 
			},
			{
				"x": 1.6162104751,
				"y": -1.9355108054,
				"z": 0.0976593232,
				"element": "C" 
			},
			{
				"x": -4.1807908034,
				"y": 2.7004556132,
				"z": -3.9641303657,
				"element": "H" 
			},
			{
				"x": -4.0247644476,
				"y": 4.2289269917,
				"z": -3.0837384548,
				"element": "H" 
			},
			{
				"x": -2.7149903617,
				"y": 3.6661614462,
				"z": -4.125792407,
				"element": "H" 
			},
			{
				"x": -2.6173961182,
				"y": 0.7446660871,
				"z": -3.3112262981,
				"element": "H" 
			},
			{
				"x": -1.5902449004,
				"y": -0.455639904,
				"z": -1.4220089961,
				"element": "H" 
			},
			{
				"x": -1.9203468904,
				"y": 3.0797658084,
				"z": 0.9976285653,
				"element": "H" 
			},
			{
				"x": -2.9768677843,
				"y": 4.2672233228,
				"z": -0.8833845658,
				"element": "H" 
			},
			{
				"x": 0.092943798,
				"y": -1.5063465288,
				"z": 4.8445357849,
				"element": "H" 
			},
			{
				"x": -1.1345917762,
				"y": -0.4115741224,
				"z": 5.2495882793,
				"element": "H" 
			},
			{
				"x": 0.9475499855,
				"y": 1.2476083504,
				"z": -0.8773002974,
				"element": "H" 
			},
			{
				"x": 2.617512391,
				"y": 0.6620766276,
				"z": -2.5820443942,
				"element": "H" 
			},
			{
				"x": 4.0267591069,
				"y": -2.7602974916,
				"z": -3.0793261068,
				"element": "H" 
			},
			{
				"x": 4.9949710347,
				"y": -1.3868554723,
				"z": -2.5419028594,
				"element": "H" 
			},
			{
				"x": 3.8119031262,
				"y": -1.1715366263,
				"z": -3.8322775465,
				"element": "H" 
			},
			{
				"x": 3.0192393989,
				"y": -3.248840493,
				"z": -0.8577014772,
				"element": "H" 
			},
			{
				"x": 1.3445951426,
				"y": -2.6544968198,
				"z": 0.8630176479,
				"element": "H" 
			}
		],
		 "valence_orbital": [ 
			{
				"type": "occ",
				"energy": -0.24892,
				"method": "rhf"
			},
			{
				"type": "occ",
				"energy": -0.24426,
				"method": "rhf"
			},
			{
				"type": "occ",
				"energy": -0.23806,
				"method": "rhf"
			},
			{
				"type": "occ",
				"energy": -0.2326,
				"method": "rhf"
			},
			{
				"type": "occ",
				"energy": -0.18816,
				"method": "rhf"
			},
			{
				"type": "unocc",
				"energy": -0.03285,
				"method": "rhf"
			},
			{
				"type": "unocc",
				"energy": -0.00573,
				"method": "rhf"
			},
			{
				"type": "unocc",
				"energy": 0.0081,
				"method": "rhf"
			},
			{
				"type": "unocc",
				"energy": 0.01282,
				"method": "rhf"
			},
			{
				"type": "unocc",
				"energy": 0.01966,
				"method": "rhf"
			}
		],
		"cosmo_sigma_profile": { 
			"-0.025": 0.0,
			"-0.024": 0.0,
			"-0.023": 0.0,
			"-0.022": 0.0,
			"-0.021": 0.0,
			"-0.02": 0.0,
			"-0.019": 0.0,
			"-0.018": 0.0,
			"-0.017": 0.0,
			"-0.016": 0.0,
			"-0.015": 0.367834169655,
			"-0.014": 2.06725611874,
			"-0.013": 2.12930456971,
			"-0.012": 2.96555434983,
			"-0.011": 2.20237407043,
			"-0.01": 3.25234078773,
			"-0.009": 1.84263075769,
			"-0.008": 1.30854742528,
			"-0.007": 1.60506244654,
			"-0.006": 3.21020223618,
			"-0.005": 12.9559911738,
			"-0.004": 29.3697512074,
			"-0.003": 30.3281549088,
			"-0.002": 26.6249754206,
			"-0.001": 27.3008380358,
			"0.0": 32.8493984031,
			"0.001": 25.3675086049,
			"0.002": 25.3719412161,
			"0.003": 26.2215842182,
			"0.004": 24.3043771215,
			"0.005": 19.9791242535,
			"0.006": 14.0663400715,
			"0.007": 3.09136250248,
			"0.008": 2.61310339774,
			"0.009": 1.91419714252,
			"0.01": 1.9343210153,
			"0.011": 1.48335274013,
			"0.012": 1.35197409366,
			"0.013": 0.581517325331,
			"0.014": 0.428886053878,
			"0.015": 0.0,
			"0.016": 0.0,
			"0.017": 0.0,
			"0.018": 0.0,
			"0.019": 0.0,
			"0.02": 0.0,
			"0.021": 0.0,
			"0.022": 0.0,
			"0.023": 0.0,
			"0.024": 0.0,
			"0.025": 0.0
		}
	}
}
