{
	 "smiles": "OC(=O)C1=CC(=NO1)C1=CC2=C(OCC2)C=C1", 
	 "Tm": 509.15, 
	 "num_atms": 26, 
	 "gaussian": { 
		 "optdone": 1, 
		 "sigma_profile": "yes", 
		 "theory": "DFT", 
		 "functional": "B3LYP", 
		 "basiset": "6-31G**", 
		 "properties": { 
			 "R2extent": 6666.7154, 
			 "electric_dipole_moment_norm": 6.20223602743, 
			 "electric_quadrupole_moment_norm": 22.0017844138, 
			 "total_energy": -818.289381096, 
			 "HOMO_LUMO_gap": 0.1537, 
			 "cosmo_polarized_energy": -21.02, 
			 "cosmo_cavitation_energy": 31.43, 
			 "cosmo_dispersion_energy": -23.53, 
			 "cosmo_repulsion_energy": 1.8, 
			 "cosmo_total_nonelectrostatic_energy": 9.71, 
			 "SMD_solvation_energy": 6.65 
		},
		"coords": [
			{
				"x": -2.9371486169,
				"y": -0.1834335457,
				"z": -5.058525737,
				"element": "O" 
			},
			{
				"x": -2.537249338,
				"y": -1.1584920555,
				"z": -4.2018562312,
				"element": "C" 
			},
			{
				"x": -2.7244493519,
				"y": -2.3227222974,
				"z": -4.4407358435,
				"element": "O" 
			},
			{
				"x": -1.8852292869,
				"y": -0.6645386438,
				"z": -2.9580023531,
				"element": "C" 
			},
			{
				"x": -1.8851658211,
				"y": 0.5401481778,
				"z": -2.3170703257,
				"element": "C" 
			},
			{
				"x": -1.0954259771,
				"y": 0.3133154082,
				"z": -1.1456538569,
				"element": "C" 
			},
			{
				"x": -0.6672805584,
				"y": -0.9396537891,
				"z": -1.1173496781,
				"element": "N" 
			},
			{
				"x": -1.1667389368,
				"y": -1.5581201853,
				"z": -2.2518779018,
				"element": "O" 
			},
			{
				"x": -0.7469950404,
				"y": 1.253274475,
				"z": -0.0708383261,
				"element": "C" 
			},
			{
				"x": 0.053970017,
				"y": 0.8214631131,
				"z": 1.009016134,
				"element": "C" 
			},
			{
				"x": 0.3686760794,
				"y": 1.7129299219,
				"z": 2.0177771062,
				"element": "C" 
			},
			{
				"x": -0.1007901694,
				"y": 3.0316949038,
				"z": 1.962850102,
				"element": "C" 
			},
			{
				"x": 0.2915455991,
				"y": 3.7914634267,
				"z": 3.0188082191,
				"element": "O" 
			},
			{
				"x": 0.9276751109,
				"y": 2.9110321695,
				"z": 3.9860237411,
				"element": "C" 
			},
			{
				"x": 1.2255645692,
				"y": 1.5773629574,
				"z": 3.2569656594,
				"element": "C" 
			},
			{
				"x": -0.8860691027,
				"y": 3.4904269539,
				"z": 0.9103794198,
				"element": "C" 
			},
			{
				"x": -1.200011785,
				"y": 2.5819853331,
				"z": -0.1023971271,
				"element": "C" 
			},
			{
				"x": -2.5775852422,
				"y": 0.6742686481,
				"z": -4.7908099894,
				"element": "H" 
			},
			{
				"x": -2.3959105935,
				"y": 1.4468438118,
				"z": -2.6040358319,
				"element": "H" 
			},
			{
				"x": 0.4094795444,
				"y": -0.2034991436,
				"z": 1.0296783048,
				"element": "H" 
			},
			{
				"x": 1.8194271529,
				"y": 3.4206050293,
				"z": 4.3564958376,
				"element": "H" 
			},
			{
				"x": 0.2282632419,
				"y": 2.7713427266,
				"z": 4.8180456981,
				"element": "H" 
			},
			{
				"x": 2.2866752896,
				"y": 1.4867971616,
				"z": 2.9951365359,
				"element": "H" 
			},
			{
				"x": 0.9650853614,
				"y": 0.710792949,
				"z": 3.8718060696,
				"element": "H" 
			},
			{
				"x": -1.2414634499,
				"y": 4.5143758805,
				"z": 0.8859999511,
				"element": "H" 
			},
			{
				"x": -1.8163486956,
				"y": 2.922836613,
				"z": -0.9286295768,
				"element": "H" 
			}
		],
		 "valence_orbital": [ 
			{
				"type": "occ",
				"energy": -0.30317,
				"method": "rhf"
			},
			{
				"type": "occ",
				"energy": -0.29254,
				"method": "rhf"
			},
			{
				"type": "occ",
				"energy": -0.28465,
				"method": "rhf"
			},
			{
				"type": "occ",
				"energy": -0.26283,
				"method": "rhf"
			},
			{
				"type": "occ",
				"energy": -0.2213,
				"method": "rhf"
			},
			{
				"type": "unocc",
				"energy": -0.0676,
				"method": "rhf"
			},
			{
				"type": "unocc",
				"energy": -0.0321,
				"method": "rhf"
			},
			{
				"type": "unocc",
				"energy": -0.01826,
				"method": "rhf"
			},
			{
				"type": "unocc",
				"energy": 0.0423,
				"method": "rhf"
			},
			{
				"type": "unocc",
				"energy": 0.05653,
				"method": "rhf"
			}
		],
		"cosmo_sigma_profile": { 
			"-0.025": 0.0,
			"-0.024": 0.0,
			"-0.023": 0.0,
			"-0.022": 0.0,
			"-0.021": 0.0,
			"-0.02": 0.316779798331,
			"-0.019": 0.779903256904,
			"-0.018": 1.50956477865,
			"-0.017": 1.18564279461,
			"-0.016": 1.17011152373,
			"-0.015": 0.921972300216,
			"-0.014": 1.14555651639,
			"-0.013": 1.52383208831,
			"-0.012": 1.44361988901,
			"-0.011": 2.28108620907,
			"-0.01": 2.78755575655,
			"-0.009": 2.4591528958,
			"-0.008": 2.22894881959,
			"-0.007": 4.65392999103,
			"-0.006": 12.129950726,
			"-0.005": 20.890747485,
			"-0.004": 18.1445299303,
			"-0.003": 17.8270038939,
			"-0.002": 16.9967833719,
			"-0.001": 12.4527873785,
			"0.0": 13.6233099593,
			"0.001": 12.4420968715,
			"0.002": 14.8182791982,
			"0.003": 15.4134602507,
			"0.004": 15.2966783394,
			"0.005": 7.14703092151,
			"0.006": 7.1842743594,
			"0.007": 8.78397050663,
			"0.008": 8.09515210583,
			"0.009": 8.75680849831,
			"0.01": 8.34171203443,
			"0.011": 7.54019518914,
			"0.012": 1.97749592087,
			"0.013": 0.072267934785,
			"0.014": 0.0,
			"0.015": 0.0,
			"0.016": 0.0,
			"0.017": 0.0,
			"0.018": 0.0,
			"0.019": 0.0,
			"0.02": 0.0,
			"0.021": 0.0,
			"0.022": 0.0,
			"0.023": 0.0,
			"0.024": 0.0,
			"0.025": 0.0
		}
	}
}
