{
	 "smiles": "CCN(CC)C1=CC2=C(C=C1)C=C(C(=O)C1=CC3=C(OC1=O)C=C(C=C3)N(CC)CC)C(=O)O2", 
	 "Tm": 487.15, 
	 "num_atms": 62, 
	 "gaussian": { 
		 "optdone": 1, 
		 "sigma_profile": "yes", 
		 "theory": "DFT", 
		 "functional": "B3LYP", 
		 "basiset": "6-31G**", 
		 "properties": { 
			 "R2extent": 30002.7697, 
			 "electric_dipole_moment_norm": 1.42886234816, 
			 "electric_quadrupole_moment_norm": 83.1051553919, 
			 "total_energy": -1531.39633578, 
			 "HOMO_LUMO_gap": 0.12511, 
			 "cosmo_polarized_energy": -29.9, 
			 "cosmo_cavitation_energy": 63.83, 
			 "cosmo_dispersion_energy": -44.65, 
			 "cosmo_repulsion_energy": 3.29, 
			 "cosmo_total_nonelectrostatic_energy": 22.47, 
			 "SMD_solvation_energy": 12.21 
		},
		"coords": [
			{
				"x": -2.8268176952,
				"y": 5.9995043269,
				"z": -5.9736578953,
				"element": "C" 
			},
			{
				"x": -1.4801318946,
				"y": 5.396501558,
				"z": -6.3977546444,
				"element": "C" 
			},
			{
				"x": -0.6675638337,
				"y": 4.8676568796,
				"z": -5.3010611824,
				"element": "N" 
			},
			{
				"x": 0.3660853351,
				"y": 5.7381737594,
				"z": -4.7370115097,
				"element": "C" 
			},
			{
				"x": -0.0555368807,
				"y": 6.5146222556,
				"z": -3.4815589839,
				"element": "C" 
			},
			{
				"x": -0.9206771613,
				"y": 3.6244389473,
				"z": -4.7575822842,
				"element": "C" 
			},
			{
				"x": -0.1616021893,
				"y": 3.1297466816,
				"z": -3.672676217,
				"element": "C" 
			},
			{
				"x": -0.4063334855,
				"y": 1.86091214,
				"z": -3.1656721569,
				"element": "C" 
			},
			{
				"x": -1.4156375008,
				"y": 1.0221841456,
				"z": -3.6839456249,
				"element": "C" 
			},
			{
				"x": -2.1760852088,
				"y": 1.5267973261,
				"z": -4.7584238434,
				"element": "C" 
			},
			{
				"x": -1.948344188,
				"y": 2.782087785,
				"z": -5.2823335218,
				"element": "C" 
			},
			{
				"x": -1.6069648293,
				"y": -0.2452115828,
				"z": -3.0668332676,
				"element": "C" 
			},
			{
				"x": -0.861836478,
				"y": -0.6382105969,
				"z": -1.9912498734,
				"element": "C" 
			},
			{
				"x": -1.1200320588,
				"y": -1.979253698,
				"z": -1.391330842,
				"element": "C" 
			},
			{
				"x": -1.5541567843,
				"y": -2.8890184539,
				"z": -2.0966058018,
				"element": "O" 
			},
			{
				"x": -0.856598853,
				"y": -2.2263940494,
				"z": 0.0554576833,
				"element": "C" 
			},
			{
				"x": -0.5321606314,
				"y": -3.4915345614,
				"z": 0.4575250193,
				"element": "C" 
			},
			{
				"x": -0.2629046366,
				"y": -3.7954103619,
				"z": 1.8204630056,
				"element": "C" 
			},
			{
				"x": -0.3648896741,
				"y": -2.7477995889,
				"z": 2.7608557255,
				"element": "C" 
			},
			{
				"x": -0.7542769497,
				"y": -1.5021782335,
				"z": 2.373509285,
				"element": "O" 
			},
			{
				"x": -1.0559540391,
				"y": -1.1689478438,
				"z": 1.046753664,
				"element": "C" 
			},
			{
				"x": -1.4965299133,
				"y": -0.0598683906,
				"z": 0.852274874,
				"element": "O" 
			},
			{
				"x": -0.0992771195,
				"y": -2.9330564814,
				"z": 4.1104466044,
				"element": "C" 
			},
			{
				"x": 0.2910582356,
				"y": -4.2029723695,
				"z": 4.5925875835,
				"element": "C" 
			},
			{
				"x": 0.3921864037,
				"y": -5.2687228713,
				"z": 3.6469050435,
				"element": "C" 
			},
			{
				"x": 0.1218784565,
				"y": -5.0602982696,
				"z": 2.3108663654,
				"element": "C" 
			},
			{
				"x": 0.5660475444,
				"y": -4.4060318446,
				"z": 5.9271161902,
				"element": "N" 
			},
			{
				"x": 0.592760994,
				"y": -3.2990114141,
				"z": 6.8834993797,
				"element": "C" 
			},
			{
				"x": -0.7736354664,
				"y": -2.9826572387,
				"z": 7.5046979616,
				"element": "C" 
			},
			{
				"x": 0.8443198612,
				"y": -5.735796504,
				"z": 6.4690621621,
				"element": "C" 
			},
			{
				"x": 2.3241119913,
				"y": -6.1349337093,
				"z": 6.4053284734,
				"element": "C" 
			},
			{
				"x": 0.2440875764,
				"y": 0.1956498423,
				"z": -1.5189689553,
				"element": "C" 
			},
			{
				"x": 1.0767734837,
				"y": -0.0966196283,
				"z": -0.692532954,
				"element": "O" 
			},
			{
				"x": 0.3809879752,
				"y": 1.445912016,
				"z": -2.135392512,
				"element": "O" 
			},
			{
				"x": -3.4433692699,
				"y": 5.2662654717,
				"z": -5.4464371102,
				"element": "H" 
			},
			{
				"x": -2.6843167779,
				"y": 6.8571876739,
				"z": -5.3100736115,
				"element": "H" 
			},
			{
				"x": -3.3809303335,
				"y": 6.3410955988,
				"z": -6.8547428588,
				"element": "H" 
			},
			{
				"x": -0.8813644022,
				"y": 6.1612711202,
				"z": -6.9016090741,
				"element": "H" 
			},
			{
				"x": -1.6388629674,
				"y": 4.6061000508,
				"z": -7.1394837888,
				"element": "H" 
			},
			{
				"x": 0.6578149831,
				"y": 6.4428538637,
				"z": -5.5217178861,
				"element": "H" 
			},
			{
				"x": 1.258185333,
				"y": 5.1384388038,
				"z": -4.5260437744,
				"element": "H" 
			},
			{
				"x": -0.880505226,
				"y": 7.1994702445,
				"z": -3.6984383147,
				"element": "H" 
			},
			{
				"x": -0.3784760054,
				"y": 5.8396711861,
				"z": -2.684456208,
				"element": "H" 
			},
			{
				"x": 0.7859959245,
				"y": 7.1065207476,
				"z": -3.1058663246,
				"element": "H" 
			},
			{
				"x": 0.6229652296,
				"y": 3.7064529759,
				"z": -3.2036022391,
				"element": "H" 
			},
			{
				"x": -2.9653083311,
				"y": 0.9078349517,
				"z": -5.1766558282,
				"element": "H" 
			},
			{
				"x": -2.5694064809,
				"y": 3.1209286252,
				"z": -6.1002830792,
				"element": "H" 
			},
			{
				"x": -2.3748210613,
				"y": -0.9195928717,
				"z": -3.4371853612,
				"element": "H" 
			},
			{
				"x": -0.4625929517,
				"y": -4.270877173,
				"z": -0.2970393199,
				"element": "H" 
			},
			{
				"x": -0.2238633163,
				"y": -2.0802844677,
				"z": 4.7632940368,
				"element": "H" 
			},
			{
				"x": 0.7055749301,
				"y": -6.2539052266,
				"z": 3.9658518639,
				"element": "H" 
			},
			{
				"x": 0.2159191356,
				"y": -5.8858849802,
				"z": 1.6105183611,
				"element": "H" 
			},
			{
				"x": 1.3036504796,
				"y": -3.566592007,
				"z": 7.6728212148,
				"element": "H" 
			},
			{
				"x": 1.0084457777,
				"y": -2.4120933487,
				"z": 6.396035891,
				"element": "H" 
			},
			{
				"x": -0.6853129059,
				"y": -2.1591553659,
				"z": 8.2211736158,
				"element": "H" 
			},
			{
				"x": -1.5001499519,
				"y": -2.6948984657,
				"z": 6.7398868825,
				"element": "H" 
			},
			{
				"x": -1.1727065682,
				"y": -3.852433988,
				"z": 8.0366356583,
				"element": "H" 
			},
			{
				"x": 0.506805889,
				"y": -5.7400876861,
				"z": 7.5111939198,
				"element": "H" 
			},
			{
				"x": 0.2237020305,
				"y": -6.475182908,
				"z": 5.9540685018,
				"element": "H" 
			},
			{
				"x": 2.4718218076,
				"y": -7.1276257259,
				"z": 6.8439418114,
				"element": "H" 
			},
			{
				"x": 2.945059738,
				"y": -5.4242976941,
				"z": 6.9601408803,
				"element": "H" 
			},
			{
				"x": 2.6843949057,
				"y": -6.1579393767,
				"z": 5.3730151911,
				"element": "H" 
			}
		],
		 "valence_orbital": [ 
			{
				"type": "occ",
				"energy": -0.23776,
				"method": "rhf"
			},
			{
				"type": "occ",
				"energy": -0.23556,
				"method": "rhf"
			},
			{
				"type": "occ",
				"energy": -0.23397,
				"method": "rhf"
			},
			{
				"type": "occ",
				"energy": -0.19526,
				"method": "rhf"
			},
			{
				"type": "occ",
				"energy": -0.19259,
				"method": "rhf"
			},
			{
				"type": "unocc",
				"energy": -0.06748,
				"method": "rhf"
			},
			{
				"type": "unocc",
				"energy": -0.04517,
				"method": "rhf"
			},
			{
				"type": "unocc",
				"energy": -0.00826,
				"method": "rhf"
			},
			{
				"type": "unocc",
				"energy": -0.00044,
				"method": "rhf"
			},
			{
				"type": "unocc",
				"energy": 0.01218,
				"method": "rhf"
			}
		],
		"cosmo_sigma_profile": { 
			"-0.025": 0.0,
			"-0.024": 0.0,
			"-0.023": 0.0,
			"-0.022": 0.0,
			"-0.021": 0.0,
			"-0.02": 0.0,
			"-0.019": 0.0,
			"-0.018": 0.0,
			"-0.017": 0.0,
			"-0.016": 0.0,
			"-0.015": 0.0,
			"-0.014": 0.0,
			"-0.013": 0.0,
			"-0.012": 0.0,
			"-0.011": 0.0,
			"-0.01": 0.0,
			"-0.009": 0.010873281455,
			"-0.008": 4.05065274911,
			"-0.007": 14.7841081247,
			"-0.006": 20.474374997,
			"-0.005": 30.5733549153,
			"-0.004": 44.0565526439,
			"-0.003": 55.0184331845,
			"-0.002": 53.710143363,
			"-0.001": 45.0268579934,
			"0.0": 50.0699575764,
			"0.001": 43.5945121512,
			"0.002": 35.3379539695,
			"0.003": 26.8922360704,
			"0.004": 12.0716063308,
			"0.005": 8.54008603675,
			"0.006": 6.38158282986,
			"0.007": 4.87812211244,
			"0.008": 7.11171943257,
			"0.009": 8.0214910931,
			"0.01": 7.48423516446,
			"0.011": 9.2397724461,
			"0.012": 12.6043392486,
			"0.013": 5.96945948238,
			"0.014": 0.450164961039,
			"0.015": 0.0,
			"0.016": 0.0,
			"0.017": 0.0,
			"0.018": 0.0,
			"0.019": 0.0,
			"0.02": 0.0,
			"0.021": 0.0,
			"0.022": 0.0,
			"0.023": 0.0,
			"0.024": 0.0,
			"0.025": 0.0
		}
	}
}
