{
	 "smiles": "NC1=NC(=O)NC=C1", 
	 "Tm": 573.15, 
	 "num_atms": 13, 
	 "gaussian": { 
		 "optdone": 1, 
		 "sigma_profile": "yes", 
		 "theory": "DFT", 
		 "functional": "B3LYP", 
		 "basiset": "6-31G**", 
		 "properties": { 
			 "R2extent": 1303.1379, 
			 "electric_dipole_moment_norm": 6.28235585191, 
			 "electric_quadrupole_moment_norm": 18.7150297943, 
			 "total_energy": -394.933267971, 
			 "HOMO_LUMO_gap": 0.19597, 
			 "cosmo_polarized_energy": -23.1, 
			 "cosmo_cavitation_energy": 17.45, 
			 "cosmo_dispersion_energy": -13.48, 
			 "cosmo_repulsion_energy": 1.14, 
			 "cosmo_total_nonelectrostatic_energy": 5.11, 
			 "SMD_solvation_energy": 2.81 
		},
		"coords": [
			{
				"x": -0.2562344172,
				"y": -1.0455992956,
				"z": -1.1520007381,
				"element": "N" 
			},
			{
				"x": -0.2294882922,
				"y": -0.6784128096,
				"z": 0.1607258737,
				"element": "C" 
			},
			{
				"x": -0.0097279436,
				"y": -1.6335880386,
				"z": 1.0440704726,
				"element": "N" 
			},
			{
				"x": 0.0703125879,
				"y": -1.3349689091,
				"z": 2.3818284022,
				"element": "C" 
			},
			{
				"x": 0.2729011982,
				"y": -2.1352389237,
				"z": 3.2802263587,
				"element": "O" 
			},
			{
				"x": -0.1092177032,
				"y": 0.0400798552,
				"z": 2.730557795,
				"element": "N" 
			},
			{
				"x": -0.3405185536,
				"y": 1.0179792376,
				"z": 1.8210016421,
				"element": "C" 
			},
			{
				"x": -0.41127448,
				"y": 0.7111828339,
				"z": 0.4986477556,
				"element": "C" 
			},
			{
				"x": -0.2567501893,
				"y": -2.036890128,
				"z": -1.3406748193,
				"element": "H" 
			},
			{
				"x": -0.6388678442,
				"y": -0.4281790463,
				"z": -1.8486447867,
				"element": "H" 
			},
			{
				"x": -0.0515663907,
				"y": 0.2386992189,
				"z": 3.7198153208,
				"element": "H" 
			},
			{
				"x": -0.4600847017,
				"y": 2.0268167523,
				"z": 2.2028442699,
				"element": "H" 
			},
			{
				"x": -0.5841832704,
				"y": 1.471519253,
				"z": -0.2519975464,
				"element": "H" 
			}
		],
		 "valence_orbital": [ 
			{
				"type": "occ",
				"energy": -0.34219,
				"method": "rhf"
			},
			{
				"type": "occ",
				"energy": -0.26323,
				"method": "rhf"
			},
			{
				"type": "occ",
				"energy": -0.25186,
				"method": "rhf"
			},
			{
				"type": "occ",
				"energy": -0.24381,
				"method": "rhf"
			},
			{
				"type": "occ",
				"energy": -0.22651,
				"method": "rhf"
			},
			{
				"type": "unocc",
				"energy": -0.03054,
				"method": "rhf"
			},
			{
				"type": "unocc",
				"energy": 0.02423,
				"method": "rhf"
			},
			{
				"type": "unocc",
				"energy": 0.06529,
				"method": "rhf"
			},
			{
				"type": "unocc",
				"energy": 0.07978,
				"method": "rhf"
			},
			{
				"type": "unocc",
				"energy": 0.11714,
				"method": "rhf"
			}
		],
		"cosmo_sigma_profile": { 
			"-0.025": 0.0,
			"-0.024": 0.0,
			"-0.023": 0.0,
			"-0.022": 0.0,
			"-0.021": 0.0,
			"-0.02": 0.0,
			"-0.019": 0.0,
			"-0.018": 0.0,
			"-0.017": 0.0,
			"-0.016": 0.680300391632,
			"-0.015": 1.89301232158,
			"-0.014": 3.78889279041,
			"-0.013": 2.83310124296,
			"-0.012": 3.64763775627,
			"-0.011": 4.00577782353,
			"-0.01": 5.86184006709,
			"-0.009": 4.5650999985,
			"-0.008": 5.45339446563,
			"-0.007": 5.67315200236,
			"-0.006": 5.46693346695,
			"-0.005": 4.30983527451,
			"-0.004": 2.87736465973,
			"-0.003": 3.85630284374,
			"-0.002": 4.95593824345,
			"-0.001": 7.5946878483,
			"0.0": 9.62291021448,
			"0.001": 9.0532398959,
			"0.002": 6.01684087984,
			"0.003": 4.94046623223,
			"0.004": 3.96606313959,
			"0.005": 2.71596758831,
			"0.006": 2.89611961883,
			"0.007": 2.21672016926,
			"0.008": 2.49764897769,
			"0.009": 2.31634195456,
			"0.01": 1.71540656657,
			"0.011": 1.43575032715,
			"0.012": 2.43456806497,
			"0.013": 3.21201488295,
			"0.014": 6.07856064122,
			"0.015": 5.18826948684,
			"0.016": 2.86393307407,
			"0.017": 2.29071631198,
			"0.018": 0.109766942892,
			"0.019": 0.0,
			"0.02": 0.0,
			"0.021": 0.0,
			"0.022": 0.0,
			"0.023": 0.0,
			"0.024": 0.0,
			"0.025": 0.0
		}
	}
}
