{
	 "smiles": "CCN(CC)C1=CC=C(N)C=C1", 
	 "Tm": 300.15, 
	 "num_atms": 28, 
	 "gaussian": { 
		 "optdone": 1, 
		 "sigma_profile": "yes", 
		 "theory": "DFT", 
		 "functional": "B3LYP", 
		 "basiset": "6-31G**", 
		 "properties": { 
			 "R2extent": 2652.9773, 
			 "electric_dipole_moment_norm": 0.856906727713, 
			 "electric_quadrupole_moment_norm": 11.746999004, 
			 "total_energy": -500.209820892, 
			 "HOMO_LUMO_gap": 0.17907, 
			 "cosmo_polarized_energy": -8.84, 
			 "cosmo_cavitation_energy": 29.44, 
			 "cosmo_dispersion_energy": -21.04, 
			 "cosmo_repulsion_energy": 1.71, 
			 "cosmo_total_nonelectrostatic_energy": 10.11, 
			 "SMD_solvation_energy": 3.94 
		},
		"coords": [
			{
				"x": -1.1172442247,
				"y": 3.4752423277,
				"z": -0.8403055168,
				"element": "C" 
			},
			{
				"x": -0.1761161191,
				"y": 2.9479597262,
				"z": 0.2458005825,
				"element": "C" 
			},
			{
				"x": -0.4882514254,
				"y": 1.5762612183,
				"z": 0.6445294112,
				"element": "N" 
			},
			{
				"x": -0.1278023079,
				"y": 1.2524882447,
				"z": 2.0327319603,
				"element": "C" 
			},
			{
				"x": 1.3795386294,
				"y": 1.2011931779,
				"z": 2.3249847957,
				"element": "C" 
			},
			{
				"x": -0.2730059923,
				"y": 0.5383640252,
				"z": -0.3072343781,
				"element": "C" 
			},
			{
				"x": 0.5688327696,
				"y": 0.6687757708,
				"z": -1.4233335426,
				"element": "C" 
			},
			{
				"x": 0.7244341042,
				"y": -0.3692958448,
				"z": -2.3430779244,
				"element": "C" 
			},
			{
				"x": 0.0630514344,
				"y": -1.5922250226,
				"z": -2.1740854555,
				"element": "C" 
			},
			{
				"x": 0.2726935854,
				"y": -2.6636642426,
				"z": -3.0573394605,
				"element": "N" 
			},
			{
				"x": -0.778326849,
				"y": -1.7308328963,
				"z": -1.057032318,
				"element": "C" 
			},
			{
				"x": -0.9513844599,
				"y": -0.6857734279,
				"z": -0.157934488,
				"element": "C" 
			},
			{
				"x": -0.8723107939,
				"y": 4.5148265161,
				"z": -1.083095407,
				"element": "H" 
			},
			{
				"x": -2.1546966971,
				"y": 3.4319054211,
				"z": -0.4960952026,
				"element": "H" 
			},
			{
				"x": -1.0434417843,
				"y": 2.8872753583,
				"z": -1.7589154181,
				"element": "H" 
			},
			{
				"x": -0.2923068636,
				"y": 3.5681055446,
				"z": 1.1416058054,
				"element": "H" 
			},
			{
				"x": 0.8738062008,
				"y": 3.0782852233,
				"z": -0.0714730955,
				"element": "H" 
			},
			{
				"x": -0.6080747619,
				"y": 1.9955335542,
				"z": 2.6814469013,
				"element": "H" 
			},
			{
				"x": -0.5756270831,
				"y": 0.287679625,
				"z": 2.2868428289,
				"element": "H" 
			},
			{
				"x": 1.8581469561,
				"y": 2.1703360845,
				"z": 2.1496845093,
				"element": "H" 
			},
			{
				"x": 1.5582554849,
				"y": 0.9259849283,
				"z": 3.3703481025,
				"element": "H" 
			},
			{
				"x": 1.8724448844,
				"y": 0.4594364208,
				"z": 1.6886816188,
				"element": "H" 
			},
			{
				"x": 1.1150230017,
				"y": 1.5908277001,
				"z": -1.5905913906,
				"element": "H" 
			},
			{
				"x": 1.3826023119,
				"y": -0.2293759812,
				"z": -3.1978747758,
				"element": "H" 
			},
			{
				"x": -0.4987820819,
				"y": -3.3166293498,
				"z": -3.1048949548,
				"element": "H" 
			},
			{
				"x": 0.5612584002,
				"y": -2.3831272159,
				"z": -3.9855297894,
				"element": "H" 
			},
			{
				"x": -1.3150085588,
				"y": -2.664460535,
				"z": -0.9033070943,
				"element": "H" 
			},
			{
				"x": -1.6412077603,
				"y": -0.8110963508,
				"z": 0.671363696,
				"element": "H" 
			}
		],
		 "valence_orbital": [ 
			{
				"type": "occ",
				"energy": -0.32459,
				"method": "rhf"
			},
			{
				"type": "occ",
				"energy": -0.30094,
				"method": "rhf"
			},
			{
				"type": "occ",
				"energy": -0.23797,
				"method": "rhf"
			},
			{
				"type": "occ",
				"energy": -0.22825,
				"method": "rhf"
			},
			{
				"type": "occ",
				"energy": -0.16952,
				"method": "rhf"
			},
			{
				"type": "unocc",
				"energy": 0.00955,
				"method": "rhf"
			},
			{
				"type": "unocc",
				"energy": 0.0302,
				"method": "rhf"
			},
			{
				"type": "unocc",
				"energy": 0.08783,
				"method": "rhf"
			},
			{
				"type": "unocc",
				"energy": 0.0915,
				"method": "rhf"
			},
			{
				"type": "unocc",
				"energy": 0.1145,
				"method": "rhf"
			}
		],
		"cosmo_sigma_profile": { 
			"-0.025": 0.0,
			"-0.024": 0.0,
			"-0.023": 0.0,
			"-0.022": 0.0,
			"-0.021": 0.0,
			"-0.02": 0.0,
			"-0.019": 0.0,
			"-0.018": 0.0,
			"-0.017": 0.0,
			"-0.016": 0.0,
			"-0.015": 0.0,
			"-0.014": 0.0,
			"-0.013": 0.0,
			"-0.012": 1.1087621953,
			"-0.011": 2.72247256252,
			"-0.01": 2.41571095267,
			"-0.009": 2.88482450062,
			"-0.008": 2.98486749298,
			"-0.007": 3.76051236977,
			"-0.006": 3.52198901454,
			"-0.005": 6.37690841606,
			"-0.004": 13.305896451,
			"-0.003": 20.2990623531,
			"-0.002": 27.2651138207,
			"-0.001": 29.2740064096,
			"0.0": 23.3398732711,
			"0.001": 22.7939969889,
			"0.002": 14.7297555882,
			"0.003": 7.35400672641,
			"0.004": 7.4643470948,
			"0.005": 7.09627916168,
			"0.006": 7.95651607074,
			"0.007": 10.1446357539,
			"0.008": 4.4824157032,
			"0.009": 2.1826229937,
			"0.01": 1.43889527487,
			"0.011": 1.11825433059,
			"0.012": 1.35402612488,
			"0.013": 0.580498370188,
			"0.014": 0.970850212799,
			"0.015": 0.577241693918,
			"0.016": 0.342120509246,
			"0.017": 0.0,
			"0.018": 0.0,
			"0.019": 0.0,
			"0.02": 0.0,
			"0.021": 0.0,
			"0.022": 0.0,
			"0.023": 0.0,
			"0.024": 0.0,
			"0.025": 0.0
		}
	}
}
