{
	 "smiles": "COC1=C(C=CC=C1)C(=O)C=C1NC(=O)CS1", 
	 "Tm": 447.15, 
	 "num_atms": 28, 
	 "gaussian": { 
		 "optdone": 1, 
		 "sigma_profile": "yes", 
		 "theory": "DFT", 
		 "functional": "B3LYP", 
		 "basiset": "6-31G**", 
		 "properties": { 
			 "R2extent": 4454.0548, 
			 "electric_dipole_moment_norm": 3.6522556318, 
			 "electric_quadrupole_moment_norm": 19.9622179098, 
			 "total_energy": -1142.49951899, 
			 "HOMO_LUMO_gap": 0.16932, 
			 "cosmo_polarized_energy": -18.25, 
			 "cosmo_cavitation_energy": 34.05, 
			 "cosmo_dispersion_energy": -23.81, 
			 "cosmo_repulsion_energy": 1.83, 
			 "cosmo_total_nonelectrostatic_energy": 12.06, 
			 "SMD_solvation_energy": 7.44 
		},
		"coords": [
			{
				"x": 1.2433725968,
				"y": -2.0140262205,
				"z": 2.0179187893,
				"element": "C" 
			},
			{
				"x": 0.3358045904,
				"y": -1.4580613429,
				"z": 1.0766841342,
				"element": "O" 
			},
			{
				"x": 0.7819183901,
				"y": -1.1850876809,
				"z": -0.1825615718,
				"element": "C" 
			},
			{
				"x": -0.1687433757,
				"y": -0.6434757987,
				"z": -1.0786145991,
				"element": "C" 
			},
			{
				"x": 0.2158836127,
				"y": -0.4038533336,
				"z": -2.4032874472,
				"element": "C" 
			},
			{
				"x": 1.5227711491,
				"y": -0.6278975641,
				"z": -2.8335212042,
				"element": "C" 
			},
			{
				"x": 2.4575693979,
				"y": -1.1342279074,
				"z": -1.9317340117,
				"element": "C" 
			},
			{
				"x": 2.0946660372,
				"y": -1.4206817169,
				"z": -0.6141178768,
				"element": "C" 
			},
			{
				"x": -1.6245343174,
				"y": -0.4337119409,
				"z": -0.7236156713,
				"element": "C" 
			},
			{
				"x": -2.4772523686,
				"y": -0.9328029205,
				"z": -1.4549676402,
				"element": "O" 
			},
			{
				"x": -2.0470197673,
				"y": 0.3819436917,
				"z": 0.420146169,
				"element": "C" 
			},
			{
				"x": -1.34001009,
				"y": 1.2836436646,
				"z": 1.1427319807,
				"element": "C" 
			},
			{
				"x": -0.0113515125,
				"y": 1.6428728501,
				"z": 1.0023526671,
				"element": "N" 
			},
			{
				"x": 0.5299055599,
				"y": 2.6110706187,
				"z": 1.8243543906,
				"element": "C" 
			},
			{
				"x": 1.6819824816,
				"y": 2.988651569,
				"z": 1.7833792558,
				"element": "O" 
			},
			{
				"x": -0.5293931346,
				"y": 3.1420751728,
				"z": 2.7914259756,
				"element": "C" 
			},
			{
				"x": -2.0833808743,
				"y": 2.235356844,
				"z": 2.4555864605,
				"element": "S" 
			},
			{
				"x": 1.6253470955,
				"y": -2.9860562917,
				"z": 1.6826979608,
				"element": "H" 
			},
			{
				"x": 2.0879405034,
				"y": -1.3409099909,
				"z": 2.2124276141,
				"element": "H" 
			},
			{
				"x": 0.6719118885,
				"y": -2.1499658826,
				"z": 2.9369014728,
				"element": "H" 
			},
			{
				"x": -0.5380088922,
				"y": -0.0365531811,
				"z": -3.0924308423,
				"element": "H" 
			},
			{
				"x": 1.8046276854,
				"y": -0.4176691731,
				"z": -3.8601466347,
				"element": "H" 
			},
			{
				"x": 3.4796320147,
				"y": -1.3189865857,
				"z": -2.2495797226,
				"element": "H" 
			},
			{
				"x": 2.8308238353,
				"y": -1.8351091466,
				"z": 0.0638327845,
				"element": "H" 
			},
			{
				"x": -3.1068808038,
				"y": 0.2948337562,
				"z": 0.637883984,
				"element": "H" 
			},
			{
				"x": 0.5719612517,
				"y": 1.2100155205,
				"z": 0.2954466396,
				"element": "H" 
			},
			{
				"x": -0.1949970668,
				"y": 2.980652591,
				"z": 3.8187296256,
				"element": "H" 
			},
			{
				"x": -0.6567458872,
				"y": 4.2152603992,
				"z": 2.6305773176,
				"element": "H" 
			}
		],
		 "valence_orbital": [ 
			{
				"type": "occ",
				"energy": -0.27599,
				"method": "rhf"
			},
			{
				"type": "occ",
				"energy": -0.26661,
				"method": "rhf"
			},
			{
				"type": "occ",
				"energy": -0.24112,
				"method": "rhf"
			},
			{
				"type": "occ",
				"energy": -0.23285,
				"method": "rhf"
			},
			{
				"type": "occ",
				"energy": -0.22641,
				"method": "rhf"
			},
			{
				"type": "unocc",
				"energy": -0.05709,
				"method": "rhf"
			},
			{
				"type": "unocc",
				"energy": -0.02024,
				"method": "rhf"
			},
			{
				"type": "unocc",
				"energy": -0.00553,
				"method": "rhf"
			},
			{
				"type": "unocc",
				"energy": -0.00248,
				"method": "rhf"
			},
			{
				"type": "unocc",
				"energy": 0.01337,
				"method": "rhf"
			}
		],
		"cosmo_sigma_profile": { 
			"-0.025": 0.0,
			"-0.024": 0.0,
			"-0.023": 0.0,
			"-0.022": 0.0,
			"-0.021": 0.0,
			"-0.02": 0.0,
			"-0.019": 0.0,
			"-0.018": 0.0,
			"-0.017": 0.0,
			"-0.016": 0.0,
			"-0.015": 0.0,
			"-0.014": 0.0,
			"-0.013": 0.0,
			"-0.012": 0.137586073677,
			"-0.011": 0.452700271483,
			"-0.01": 1.15793338381,
			"-0.009": 5.45609434656,
			"-0.008": 6.23583218312,
			"-0.007": 11.322743327,
			"-0.006": 22.4695911097,
			"-0.005": 24.5256776981,
			"-0.004": 22.890201694,
			"-0.003": 21.2523142471,
			"-0.002": 14.9609625271,
			"-0.001": 12.7448824578,
			"0.0": 12.5394538387,
			"0.001": 14.4103686784,
			"0.002": 17.94248639,
			"0.003": 16.2407729267,
			"0.004": 14.5565068993,
			"0.005": 11.0306252264,
			"0.006": 6.63264710303,
			"0.007": 3.16528226473,
			"0.008": 4.32695572477,
			"0.009": 4.61954176104,
			"0.01": 3.84532288905,
			"0.011": 6.91724245863,
			"0.012": 7.94468917461,
			"0.013": 4.87688487784,
			"0.014": 1.7376740343,
			"0.015": 0.0144050119021,
			"0.016": 0.0,
			"0.017": 0.0,
			"0.018": 0.0,
			"0.019": 0.0,
			"0.02": 0.0,
			"0.021": 0.0,
			"0.022": 0.0,
			"0.023": 0.0,
			"0.024": 0.0,
			"0.025": 0.0
		}
	}
}
