{
	 "smiles": "CC(C)C(N)C1=NN=C2C=CC=CN12", 
	 "Tm": 390.15, 
	 "num_atms": 28, 
	 "gaussian": { 
		 "optdone": 1, 
		 "sigma_profile": "yes", 
		 "theory": "DFT", 
		 "functional": "B3LYP", 
		 "basiset": "6-31G**", 
		 "properties": { 
			 "R2extent": 3623.6831, 
			 "electric_dipole_moment_norm": 4.63714413513, 
			 "electric_quadrupole_moment_norm": 16.0902450211, 
			 "total_energy": -608.488362577, 
			 "HOMO_LUMO_gap": 0.17457, 
			 "cosmo_polarized_energy": -15.53, 
			 "cosmo_cavitation_energy": 29.89, 
			 "cosmo_dispersion_energy": -21.85, 
			 "cosmo_repulsion_energy": 1.7, 
			 "cosmo_total_nonelectrostatic_energy": 9.74, 
			 "SMD_solvation_energy": 3.05 
		},
		"coords": [
			{
				"x": -1.0955450631,
				"y": -2.4013584688,
				"z": -1.8440114785,
				"element": "C" 
			},
			{
				"x": -0.9985725805,
				"y": -1.8635876205,
				"z": -0.4086826932,
				"element": "C" 
			},
			{
				"x": -2.3595518707,
				"y": -1.3512687737,
				"z": 0.083890692,
				"element": "C" 
			},
			{
				"x": 0.1282207524,
				"y": -0.7948560262,
				"z": -0.305326162,
				"element": "C" 
			},
			{
				"x": -0.1129217805,
				"y": 0.4813805833,
				"z": -1.0044751834,
				"element": "N" 
			},
			{
				"x": 0.5036666455,
				"y": -0.5122149608,
				"z": 1.1265536697,
				"element": "C" 
			},
			{
				"x": 0.0745961459,
				"y": -1.1643610381,
				"z": 2.1917214167,
				"element": "N" 
			},
			{
				"x": 0.6963644248,
				"y": -0.6880949159,
				"z": 3.308443558,
				"element": "N" 
			},
			{
				"x": 1.5221901603,
				"y": 0.2715463139,
				"z": 2.9096828475,
				"element": "C" 
			},
			{
				"x": 2.419615315,
				"y": 1.0955326615,
				"z": 3.6372788057,
				"element": "C" 
			},
			{
				"x": 3.1771566465,
				"y": 2.0112868387,
				"z": 2.9570330635,
				"element": "C" 
			},
			{
				"x": 3.0575453844,
				"y": 2.1426715566,
				"z": 1.5374193215,
				"element": "C" 
			},
			{
				"x": 2.1921023818,
				"y": 1.3586314575,
				"z": 0.8339777377,
				"element": "C" 
			},
			{
				"x": 1.4368227465,
				"y": 0.4287059115,
				"z": 1.5212382956,
				"element": "N" 
			},
			{
				"x": -1.8458837044,
				"y": -3.1954689786,
				"z": -1.9088908314,
				"element": "H" 
			},
			{
				"x": -0.141093994,
				"y": -2.8161412859,
				"z": -2.1881009808,
				"element": "H" 
			},
			{
				"x": -1.3966071477,
				"y": -1.618439117,
				"z": -2.5517091415,
				"element": "H" 
			},
			{
				"x": -0.6968308408,
				"y": -2.6872720372,
				"z": 0.248282298,
				"element": "H" 
			},
			{
				"x": -2.7264225511,
				"y": -0.5211540505,
				"z": -0.5329406314,
				"element": "H" 
			},
			{
				"x": -3.1074253409,
				"y": -2.1484359832,
				"z": 0.0235146612,
				"element": "H" 
			},
			{
				"x": -2.3040019208,
				"y": -1.0215921802,
				"z": 1.1236864788,
				"element": "H" 
			},
			{
				"x": 1.0189525919,
				"y": -1.2272394021,
				"z": -0.7888044645,
				"element": "H" 
			},
			{
				"x": -0.2669403429,
				"y": 0.3071013608,
				"z": -1.9942870714,
				"element": "H" 
			},
			{
				"x": -0.9591799853,
				"y": 0.9189187226,
				"z": -0.6465587703,
				"element": "H" 
			},
			{
				"x": 2.4769302881,
				"y": 0.9675673319,
				"z": 4.7117921073,
				"element": "H" 
			},
			{
				"x": 3.8722055097,
				"y": 2.6499524697,
				"z": 3.4924859102,
				"element": "H" 
			},
			{
				"x": 3.6503703378,
				"y": 2.8770091649,
				"z": 1.0040596208,
				"element": "H" 
			},
			{
				"x": 2.0044377921,
				"y": 1.4204804657,
				"z": -0.2291730762,
				"element": "H" 
			}
		],
		 "valence_orbital": [ 
			{
				"type": "occ",
				"energy": -0.30341,
				"method": "rhf"
			},
			{
				"type": "occ",
				"energy": -0.26524,
				"method": "rhf"
			},
			{
				"type": "occ",
				"energy": -0.25369,
				"method": "rhf"
			},
			{
				"type": "occ",
				"energy": -0.24313,
				"method": "rhf"
			},
			{
				"type": "occ",
				"energy": -0.21467,
				"method": "rhf"
			},
			{
				"type": "unocc",
				"energy": -0.0401,
				"method": "rhf"
			},
			{
				"type": "unocc",
				"energy": -0.0018,
				"method": "rhf"
			},
			{
				"type": "unocc",
				"energy": 0.04376,
				"method": "rhf"
			},
			{
				"type": "unocc",
				"energy": 0.07755,
				"method": "rhf"
			},
			{
				"type": "unocc",
				"energy": 0.09405,
				"method": "rhf"
			}
		],
		"cosmo_sigma_profile": { 
			"-0.025": 0.0,
			"-0.024": 0.0,
			"-0.023": 0.0,
			"-0.022": 0.0,
			"-0.021": 0.0,
			"-0.02": 0.0,
			"-0.019": 0.0,
			"-0.018": 0.0,
			"-0.017": 0.0,
			"-0.016": 0.0,
			"-0.015": 0.0,
			"-0.014": 0.0,
			"-0.013": 0.0,
			"-0.012": 0.0,
			"-0.011": 0.00392209949432,
			"-0.01": 0.828830059636,
			"-0.009": 2.58374806007,
			"-0.008": 4.87141099942,
			"-0.007": 10.7193708629,
			"-0.006": 11.4844689658,
			"-0.005": 15.3088094831,
			"-0.004": 14.1528246221,
			"-0.003": 17.2777294469,
			"-0.002": 20.4629590219,
			"-0.001": 23.8166290247,
			"0.0": 21.5682774605,
			"0.001": 25.4244804665,
			"0.002": 19.2601912935,
			"0.003": 10.6217709838,
			"0.004": 4.37707805681,
			"0.005": 2.49068002697,
			"0.006": 2.81740288088,
			"0.007": 3.42989270102,
			"0.008": 2.22064072303,
			"0.009": 2.977859397,
			"0.01": 2.82843811803,
			"0.011": 2.2173408642,
			"0.012": 2.07130729228,
			"0.013": 2.24529494428,
			"0.014": 2.99067502526,
			"0.015": 3.24415409453,
			"0.016": 1.81820680146,
			"0.017": 1.29766953252,
			"0.018": 0.299392213466,
			"0.019": 0.0,
			"0.02": 0.0,
			"0.021": 0.0,
			"0.022": 0.0,
			"0.023": 0.0,
			"0.024": 0.0,
			"0.025": 0.0
		}
	}
}
