{
	 "smiles": "CC1CCC(C)C(C)C1C", 
	 "Tm": 198.15, 
	 "num_atms": 30, 
	 "gaussian": { 
		 "optdone": 1, 
		 "sigma_profile": "yes", 
		 "theory": "DFT", 
		 "functional": "B3LYP", 
		 "basiset": "6-31G**", 
		 "properties": { 
			 "R2extent": 1662.7945, 
			 "electric_dipole_moment_norm": 0.00617170964968, 
			 "electric_quadrupole_moment_norm": 0.633093831908, 
			 "total_energy": -393.142295946, 
			 "HOMO_LUMO_gap": 0.35175, 
			 "cosmo_polarized_energy": -0.86, 
			 "cosmo_cavitation_energy": 27.08, 
			 "cosmo_dispersion_energy": -19.84, 
			 "cosmo_repulsion_energy": 1.58, 
			 "cosmo_total_nonelectrostatic_energy": 8.82, 
			 "SMD_solvation_energy": 4.38 
		},
		"coords": [
			{
				"x": -0.729576675,
				"y": 1.5516740971,
				"z": -1.3203153908,
				"element": "C" 
			},
			{
				"x": 0.2371861319,
				"y": 0.8932143672,
				"z": -0.3196448888,
				"element": "C" 
			},
			{
				"x": -0.4418224703,
				"y": 0.6221797027,
				"z": 1.0396981627,
				"element": "C" 
			},
			{
				"x": -1.395224077,
				"y": -0.5795844268,
				"z": 0.9898633148,
				"element": "C" 
			},
			{
				"x": -0.6831232773,
				"y": -1.8806418345,
				"z": 0.5625442985,
				"element": "C" 
			},
			{
				"x": 0.1766605989,
				"y": -2.4614236809,
				"z": 1.6997677197,
				"element": "C" 
			},
			{
				"x": 0.0900104407,
				"y": -1.6946305499,
				"z": -0.778255381,
				"element": "C" 
			},
			{
				"x": -0.8660954588,
				"y": -1.8588613036,
				"z": -1.9767539618,
				"element": "C" 
			},
			{
				"x": 0.9394764984,
				"y": -0.3844054022,
				"z": -0.8717007172,
				"element": "C" 
			},
			{
				"x": 2.3357271354,
				"y": -0.5463334971,
				"z": -0.237983626,
				"element": "C" 
			},
			{
				"x": -0.2360927365,
				"y": 1.7338724044,
				"z": -2.2813427739,
				"element": "H" 
			},
			{
				"x": -1.0756725486,
				"y": 2.5181629946,
				"z": -0.9362767958,
				"element": "H" 
			},
			{
				"x": -1.6175191556,
				"y": 0.9453926644,
				"z": -1.5189635926,
				"element": "H" 
			},
			{
				"x": 1.0330521272,
				"y": 1.6307959183,
				"z": -0.1437112748,
				"element": "H" 
			},
			{
				"x": -0.9862000236,
				"y": 1.5189185484,
				"z": 1.3616348,
				"element": "H" 
			},
			{
				"x": 0.3259578263,
				"y": 0.4473486664,
				"z": 1.8035821007,
				"element": "H" 
			},
			{
				"x": -1.8653577598,
				"y": -0.7254540036,
				"z": 1.9705978998,
				"element": "H" 
			},
			{
				"x": -2.2153727898,
				"y": -0.3658141735,
				"z": 0.2932510301,
				"element": "H" 
			},
			{
				"x": -1.464230026,
				"y": -2.6288948649,
				"z": 0.3667128271,
				"element": "H" 
			},
			{
				"x": -0.4507757374,
				"y": -2.7083188508,
				"z": 2.5639028351,
				"element": "H" 
			},
			{
				"x": 0.9491176493,
				"y": -1.7701326733,
				"z": 2.0474977014,
				"element": "H" 
			},
			{
				"x": 0.6798292817,
				"y": -3.3810719991,
				"z": 1.3813973668,
				"element": "H" 
			},
			{
				"x": 0.8043064852,
				"y": -2.5268773009,
				"z": -0.8529253201,
				"element": "H" 
			},
			{
				"x": -0.3388300781,
				"y": -1.719532752,
				"z": -2.9267976339,
				"element": "H" 
			},
			{
				"x": -1.6961374717,
				"y": -1.146635038,
				"z": -1.9551318971,
				"element": "H" 
			},
			{
				"x": -1.3018365782,
				"y": -2.8642652332,
				"z": -1.9835316755,
				"element": "H" 
			},
			{
				"x": 1.11826239,
				"y": -0.2127299194,
				"z": -1.9426924715,
				"element": "H" 
			},
			{
				"x": 2.837953817,
				"y": -1.4461483877,
				"z": -0.6096260199,
				"element": "H" 
			},
			{
				"x": 2.9696551924,
				"y": 0.312920665,
				"z": -0.4840706701,
				"element": "H" 
			},
			{
				"x": 2.2980712889,
				"y": -0.6190241371,
				"z": 0.852874034,
				"element": "H" 
			}
		],
		 "valence_orbital": [ 
			{
				"type": "occ",
				"energy": -0.31911,
				"method": "rhf"
			},
			{
				"type": "occ",
				"energy": -0.31662,
				"method": "rhf"
			},
			{
				"type": "occ",
				"energy": -0.293,
				"method": "rhf"
			},
			{
				"type": "occ",
				"energy": -0.28123,
				"method": "rhf"
			},
			{
				"type": "occ",
				"energy": -0.28062,
				"method": "rhf"
			},
			{
				"type": "unocc",
				"energy": 0.07113,
				"method": "rhf"
			},
			{
				"type": "unocc",
				"energy": 0.09191,
				"method": "rhf"
			},
			{
				"type": "unocc",
				"energy": 0.11439,
				"method": "rhf"
			},
			{
				"type": "unocc",
				"energy": 0.11851,
				"method": "rhf"
			},
			{
				"type": "unocc",
				"energy": 0.12598,
				"method": "rhf"
			}
		],
		"cosmo_sigma_profile": { 
			"-0.025": 0.0,
			"-0.024": 0.0,
			"-0.023": 0.0,
			"-0.022": 0.0,
			"-0.021": 0.0,
			"-0.02": 0.0,
			"-0.019": 0.0,
			"-0.018": 0.0,
			"-0.017": 0.0,
			"-0.016": 0.0,
			"-0.015": 0.0,
			"-0.014": 0.0,
			"-0.013": 0.0,
			"-0.012": 0.0,
			"-0.011": 0.0,
			"-0.01": 0.0,
			"-0.009": 0.0,
			"-0.008": 0.0,
			"-0.007": 0.0,
			"-0.006": 0.0144461259332,
			"-0.005": 0.237355451953,
			"-0.004": 2.46159507396,
			"-0.003": 6.1621720171,
			"-0.002": 24.7491969238,
			"-0.001": 42.1340196096,
			"0.0": 48.3531378835,
			"0.001": 45.9271525234,
			"0.002": 33.8479106298,
			"0.003": 2.7985359939,
			"0.004": 0.0,
			"0.005": 0.0,
			"0.006": 0.0,
			"0.007": 0.0,
			"0.008": 0.0,
			"0.009": 0.0,
			"0.01": 0.0,
			"0.011": 0.0,
			"0.012": 0.0,
			"0.013": 0.0,
			"0.014": 0.0,
			"0.015": 0.0,
			"0.016": 0.0,
			"0.017": 0.0,
			"0.018": 0.0,
			"0.019": 0.0,
			"0.02": 0.0,
			"0.021": 0.0,
			"0.022": 0.0,
			"0.023": 0.0,
			"0.024": 0.0,
			"0.025": 0.0
		}
	}
}
