{
	 "smiles": "NC1=C(C=CC(=C1)C(F)(F)F)N1CC(OC1=O)C(F)(F)F", 
	 "Tm": 373.15, 
	 "num_atms": 29, 
	 "gaussian": { 
		 "optdone": 1, 
		 "sigma_profile": "yes", 
		 "theory": "DFT", 
		 "functional": "B3LYP", 
		 "basiset": "6-31G**", 
		 "properties": { 
			 "R2extent": 8747.4524, 
			 "electric_dipole_moment_norm": 4.50455170466, 
			 "electric_quadrupole_moment_norm": 23.4421078751, 
			 "total_energy": -1283.01205454, 
			 "HOMO_LUMO_gap": 0.19434, 
			 "cosmo_polarized_energy": -17.16, 
			 "cosmo_cavitation_energy": 36.58, 
			 "cosmo_dispersion_energy": -24.98, 
			 "cosmo_repulsion_energy": 1.79, 
			 "cosmo_total_nonelectrostatic_energy": 13.39, 
			 "SMD_solvation_energy": 9.63 
		},
		"coords": [
			{
				"x": -2.0154923472,
				"y": 1.1216272653,
				"z": -2.427080061,
				"element": "N" 
			},
			{
				"x": -1.8661503516,
				"y": 0.3947689602,
				"z": -1.2441025442,
				"element": "C" 
			},
			{
				"x": -0.8312254343,
				"y": 0.7219966339,
				"z": -0.3405152573,
				"element": "C" 
			},
			{
				"x": -0.6796433703,
				"y": 0.0086048159,
				"z": 0.8497071075,
				"element": "C" 
			},
			{
				"x": -1.5267593552,
				"y": -1.0535251,
				"z": 1.1522186824,
				"element": "C" 
			},
			{
				"x": -2.5245919288,
				"y": -1.407889341,
				"z": 0.2407176945,
				"element": "C" 
			},
			{
				"x": -2.6967907488,
				"y": -0.6927948403,
				"z": -0.942611775,
				"element": "C" 
			},
			{
				"x": -3.3964756907,
				"y": -2.6044424702,
				"z": 0.5143238339,
				"element": "C" 
			},
			{
				"x": -3.6012913028,
				"y": -2.7859305194,
				"z": 1.836397914,
				"element": "F" 
			},
			{
				"x": -4.6090937876,
				"y": -2.492747086,
				"z": -0.0743131807,
				"element": "F" 
			},
			{
				"x": -2.8368654995,
				"y": -3.7434296553,
				"z": 0.0430973913,
				"element": "F" 
			},
			{
				"x": 0.0556231341,
				"y": 1.7821771268,
				"z": -0.692619155,
				"element": "N" 
			},
			{
				"x": 1.0364315541,
				"y": 1.6210033112,
				"z": -1.7670753578,
				"element": "C" 
			},
			{
				"x": 1.8083841347,
				"y": 2.9488637483,
				"z": -1.6457794919,
				"element": "C" 
			},
			{
				"x": 1.516398832,
				"y": 3.4468127535,
				"z": -0.3419085647,
				"element": "O" 
			},
			{
				"x": 0.4660423705,
				"y": 2.7490272793,
				"z": 0.2138084999,
				"element": "C" 
			},
			{
				"x": 0.0130670179,
				"y": 3.0026987561,
				"z": 1.2983269454,
				"element": "O" 
			},
			{
				"x": 3.3140835916,
				"y": 2.7694858581,
				"z": -1.7831467789,
				"element": "C" 
			},
			{
				"x": 3.5823897692,
				"y": 2.2590357703,
				"z": -3.0067835403,
				"element": "F" 
			},
			{
				"x": 3.7987611646,
				"y": 1.9191738286,
				"z": -0.8616277222,
				"element": "F" 
			},
			{
				"x": 3.962709226,
				"y": 3.9363408302,
				"z": -1.6634772145,
				"element": "F" 
			},
			{
				"x": -1.7934733164,
				"y": 2.1048604504,
				"z": -2.3244953389,
				"element": "H" 
			},
			{
				"x": -2.9081182967,
				"y": 0.9891511133,
				"z": -2.8842671143,
				"element": "H" 
			},
			{
				"x": 0.0983620357,
				"y": 0.3044413706,
				"z": 1.5441974769,
				"element": "H" 
			},
			{
				"x": -1.4134965866,
				"y": -1.6004011553,
				"z": 2.0806659162,
				"element": "H" 
			},
			{
				"x": -3.4965715771,
				"y": -0.9628489236,
				"z": -1.624742459,
				"element": "H" 
			},
			{
				"x": 1.6832366129,
				"y": 0.7552232438,
				"z": -1.580956876,
				"element": "H" 
			},
			{
				"x": 0.5559589689,
				"y": 1.4972832381,
				"z": -2.7394150783,
				"element": "H" 
			},
			{
				"x": 1.4929911814,
				"y": 3.6849327371,
				"z": -2.3935439518,
				"element": "H" 
			}
		],
		 "valence_orbital": [ 
			{
				"type": "occ",
				"energy": -0.31788,
				"method": "rhf"
			},
			{
				"type": "occ",
				"energy": -0.30249,
				"method": "rhf"
			},
			{
				"type": "occ",
				"energy": -0.29325,
				"method": "rhf"
			},
			{
				"type": "occ",
				"energy": -0.26037,
				"method": "rhf"
			},
			{
				"type": "occ",
				"energy": -0.23155,
				"method": "rhf"
			},
			{
				"type": "unocc",
				"energy": -0.03721,
				"method": "rhf"
			},
			{
				"type": "unocc",
				"energy": -0.01217,
				"method": "rhf"
			},
			{
				"type": "unocc",
				"energy": 0.02809,
				"method": "rhf"
			},
			{
				"type": "unocc",
				"energy": 0.0472,
				"method": "rhf"
			},
			{
				"type": "unocc",
				"energy": 0.07062,
				"method": "rhf"
			}
		],
		"cosmo_sigma_profile": { 
			"-0.025": 0.0,
			"-0.024": 0.0,
			"-0.023": 0.0,
			"-0.022": 0.0,
			"-0.021": 0.0,
			"-0.02": 0.0,
			"-0.019": 0.0,
			"-0.018": 0.0,
			"-0.017": 0.0,
			"-0.016": 0.0,
			"-0.015": 0.0,
			"-0.014": 0.126749282548,
			"-0.013": 1.49656441102,
			"-0.012": 3.12831766829,
			"-0.011": 2.50901174204,
			"-0.01": 6.38259370007,
			"-0.009": 8.62107159636,
			"-0.008": 5.41492006341,
			"-0.007": 10.3733158911,
			"-0.006": 13.4033604249,
			"-0.005": 12.5478231851,
			"-0.004": 10.3344691915,
			"-0.003": 10.7837909715,
			"-0.002": 11.4141951368,
			"-0.001": 12.56020802,
			"0.0": 14.6868496639,
			"0.001": 25.7392932399,
			"0.002": 54.4180188794,
			"0.003": 48.1949581945,
			"0.004": 8.09124359583,
			"0.005": 3.59564457793,
			"0.006": 4.04211818029,
			"0.007": 3.45060467082,
			"0.008": 4.31421458263,
			"0.009": 3.07564561318,
			"0.01": 3.68075006189,
			"0.011": 4.49793817362,
			"0.012": 5.01738255342,
			"0.013": 0.516520592962,
			"0.014": 0.0,
			"0.015": 0.0,
			"0.016": 0.0,
			"0.017": 0.0,
			"0.018": 0.0,
			"0.019": 0.0,
			"0.02": 0.0,
			"0.021": 0.0,
			"0.022": 0.0,
			"0.023": 0.0,
			"0.024": 0.0,
			"0.025": 0.0
		}
	}
}
