{
	 "smiles": "SC1=NC2=C(C=CC(Cl)=C2)N1CCOC1=CC=CC=C1", 
	 "Tm": 456.15, 
	 "num_atms": 33, 
	 "gaussian": { 
		 "optdone": 1, 
		 "sigma_profile": "yes", 
		 "theory": "DFT", 
		 "functional": "B3LYP", 
		 "basiset": "6-31G**", 
		 "properties": { 
			 "R2extent": 10533.7295, 
			 "electric_dipole_moment_norm": 4.80579202734, 
			 "electric_quadrupole_moment_norm": 11.3200082805, 
			 "total_energy": -1622.53138668, 
			 "HOMO_LUMO_gap": 0.1918, 
			 "cosmo_polarized_energy": -17.15, 
			 "cosmo_cavitation_energy": 41.67, 
			 "cosmo_dispersion_energy": -29.95, 
			 "cosmo_repulsion_energy": 2.25, 
			 "cosmo_total_nonelectrostatic_energy": 13.97, 
			 "SMD_solvation_energy": 3.75 
		},
		"coords": [
			{
				"x": -3.1745289228,
				"y": 1.832033203,
				"z": -1.5158495737,
				"element": "S" 
			},
			{
				"x": -2.6253924612,
				"y": 0.5416540531,
				"z": -0.4323535714,
				"element": "C" 
			},
			{
				"x": -3.4651942348,
				"y": -0.2278216341,
				"z": 0.2139203896,
				"element": "N" 
			},
			{
				"x": -2.6688112119,
				"y": -1.1654938954,
				"z": 0.8498213687,
				"element": "C" 
			},
			{
				"x": -1.3041407992,
				"y": -0.9246491692,
				"z": 0.5705451872,
				"element": "C" 
			},
			{
				"x": -0.2841897803,
				"y": -1.7172636964,
				"z": 1.1005403768,
				"element": "C" 
			},
			{
				"x": -0.6642107884,
				"y": -2.7759631992,
				"z": 1.9211873028,
				"element": "C" 
			},
			{
				"x": -2.0238035327,
				"y": -3.0152851503,
				"z": 2.1984246863,
				"element": "C" 
			},
			{
				"x": -2.4349983104,
				"y": -4.368348066,
				"z": 3.2489368164,
				"element": "Cl" 
			},
			{
				"x": -3.0445543618,
				"y": -2.2297332015,
				"z": 1.6790669179,
				"element": "C" 
			},
			{
				"x": -1.292833974,
				"y": 0.1770087399,
				"z": -0.2763353525,
				"element": "N" 
			},
			{
				"x": -0.1154871517,
				"y": 0.7831686521,
				"z": -0.8732198677,
				"element": "C" 
			},
			{
				"x": 0.5475179453,
				"y": 1.8014251537,
				"z": 0.0586360993,
				"element": "C" 
			},
			{
				"x": 1.6811648382,
				"y": 2.2884526432,
				"z": -0.6354811698,
				"element": "O" 
			},
			{
				"x": 2.4757697724,
				"y": 3.2268706188,
				"z": -0.0255986871,
				"element": "C" 
			},
			{
				"x": 2.246486975,
				"y": 3.7434565658,
				"z": 1.2536134062,
				"element": "C" 
			},
			{
				"x": 3.1263957122,
				"y": 4.6990776542,
				"z": 1.7734127797,
				"element": "C" 
			},
			{
				"x": 4.2220821786,
				"y": 5.1394153179,
				"z": 1.0349501878,
				"element": "C" 
			},
			{
				"x": 4.4410104867,
				"y": 4.6151918365,
				"z": -0.2438213039,
				"element": "C" 
			},
			{
				"x": 3.5760703023,
				"y": 3.6647352599,
				"z": -0.7751573978,
				"element": "C" 
			},
			{
				"x": -2.3195867305,
				"y": 2.7860352093,
				"z": -1.0901978576,
				"element": "H" 
			},
			{
				"x": 0.7645518224,
				"y": -1.5340726427,
				"z": 0.8890957763,
				"element": "H" 
			},
			{
				"x": 0.087090826,
				"y": -3.4257445637,
				"z": 2.3549552543,
				"element": "H" 
			},
			{
				"x": -4.0868940798,
				"y": -2.4251340736,
				"z": 1.9002862976,
				"element": "H" 
			},
			{
				"x": 0.6001110324,
				"y": -0.0067002506,
				"z": -1.1192229065,
				"element": "H" 
			},
			{
				"x": -0.404798368,
				"y": 1.2668668745,
				"z": -1.809120705,
				"element": "H" 
			},
			{
				"x": 0.834839291,
				"y": 1.322682611,
				"z": 1.0050814822,
				"element": "H" 
			},
			{
				"x": -0.1520529801,
				"y": 2.6167434694,
				"z": 0.2957913264,
				"element": "H" 
			},
			{
				"x": 1.4014615543,
				"y": 3.4161076749,
				"z": 1.8481222053,
				"element": "H" 
			},
			{
				"x": 2.9440506539,
				"y": 5.0969164064,
				"z": 2.7676419697,
				"element": "H" 
			},
			{
				"x": 4.8989191462,
				"y": 5.8811743682,
				"z": 1.4470207842,
				"element": "H" 
			},
			{
				"x": 5.2913928787,
				"y": 4.9490750394,
				"z": -0.8314197118,
				"element": "H" 
			},
			{
				"x": 3.7296622721,
				"y": 3.2471181915,
				"z": -1.7648725099,
				"element": "H" 
			}
		],
		 "valence_orbital": [ 
			{
				"type": "occ",
				"energy": -0.28086,
				"method": "rhf"
			},
			{
				"type": "occ",
				"energy": -0.25996,
				"method": "rhf"
			},
			{
				"type": "occ",
				"energy": -0.23724,
				"method": "rhf"
			},
			{
				"type": "occ",
				"energy": -0.23239,
				"method": "rhf"
			},
			{
				"type": "occ",
				"energy": -0.2298,
				"method": "rhf"
			},
			{
				"type": "unocc",
				"energy": -0.038,
				"method": "rhf"
			},
			{
				"type": "unocc",
				"energy": -0.01064,
				"method": "rhf"
			},
			{
				"type": "unocc",
				"energy": -0.00296,
				"method": "rhf"
			},
			{
				"type": "unocc",
				"energy": 0.00286,
				"method": "rhf"
			},
			{
				"type": "unocc",
				"energy": 0.00959,
				"method": "rhf"
			}
		],
		"cosmo_sigma_profile": { 
			"-0.025": 0.0,
			"-0.024": 0.0,
			"-0.023": 0.0,
			"-0.022": 0.0,
			"-0.021": 0.0,
			"-0.02": 0.0,
			"-0.019": 0.0,
			"-0.018": 0.0,
			"-0.017": 0.0,
			"-0.016": 0.0,
			"-0.015": 0.0,
			"-0.014": 0.00140883969361,
			"-0.013": 0.143048277948,
			"-0.012": 0.791083124566,
			"-0.011": 2.75149479585,
			"-0.01": 3.79892900938,
			"-0.009": 2.99261108957,
			"-0.008": 5.91924570876,
			"-0.007": 10.3471955016,
			"-0.006": 20.3154143538,
			"-0.005": 22.4083544052,
			"-0.004": 23.3901627069,
			"-0.003": 23.0112542284,
			"-0.002": 17.7184938683,
			"-0.001": 19.8970676602,
			"0.0": 18.8397698577,
			"0.001": 21.0967544951,
			"0.002": 26.5347058438,
			"0.003": 32.9698517892,
			"0.004": 27.7644378844,
			"0.005": 25.2090116338,
			"0.006": 13.2830409978,
			"0.007": 5.18747389232,
			"0.008": 4.13320876047,
			"0.009": 2.42468998957,
			"0.01": 0.857712909623,
			"0.011": 1.2840292842,
			"0.012": 0.988812187089,
			"0.013": 1.04364314507,
			"0.014": 1.13232962818,
			"0.015": 0.923447874047,
			"0.016": 0.811861301455,
			"0.017": 0.213418339004,
			"0.018": 0.0,
			"0.019": 0.0,
			"0.02": 0.0,
			"0.021": 0.0,
			"0.022": 0.0,
			"0.023": 0.0,
			"0.024": 0.0,
			"0.025": 0.0
		}
	}
}
