{
	 "smiles": "CCN1C(SCC(=O)N2C3=C(SC4=C2C=CC=C4)C=CC=C3)=NN=C1C1=CC=CO1", 
	 "Tm": 426.15, 
	 "num_atms": 48, 
	 "gaussian": { 
		 "optdone": 1, 
		 "sigma_profile": "yes", 
		 "theory": "DFT", 
		 "functional": "B3LYP", 
		 "basiset": "6-31G**", 
		 "properties": { 
			 "R2extent": 16405.033, 
			 "electric_dipole_moment_norm": 3.60657702954, 
			 "electric_quadrupole_moment_norm": 29.306068001, 
			 "total_energy": -2014.98074958, 
			 "HOMO_LUMO_gap": 0.17263, 
			 "cosmo_polarized_energy": -21.06, 
			 "cosmo_cavitation_energy": 55.09, 
			 "cosmo_dispersion_energy": -38.14, 
			 "cosmo_repulsion_energy": 2.77, 
			 "cosmo_total_nonelectrostatic_energy": 19.73, 
			 "SMD_solvation_energy": 7.45 
		},
		"coords": [
			{
				"x": 2.5684249075,
				"y": 3.2462990603,
				"z": 1.951697639,
				"element": "C" 
			},
			{
				"x": 1.4308287124,
				"y": 2.2267413244,
				"z": 1.9200448911,
				"element": "C" 
			},
			{
				"x": 0.3159908448,
				"y": 2.6469222187,
				"z": 1.0586789516,
				"element": "N" 
			},
			{
				"x": 0.1470759455,
				"y": 2.33458198,
				"z": -0.2723297312,
				"element": "C" 
			},
			{
				"x": 1.327770038,
				"y": 1.4583717431,
				"z": -1.2480116867,
				"element": "S" 
			},
			{
				"x": 0.3341862702,
				"y": -0.023128534,
				"z": -1.6587260003,
				"element": "C" 
			},
			{
				"x": 0.2176965427,
				"y": -1.019596176,
				"z": -0.4971884163,
				"element": "C" 
			},
			{
				"x": 0.4901780542,
				"y": -0.7172423801,
				"z": 0.6523591625,
				"element": "O" 
			},
			{
				"x": -0.2069314725,
				"y": -2.3076452371,
				"z": -0.8313172796,
				"element": "N" 
			},
			{
				"x": -0.5929469687,
				"y": -2.7034459062,
				"z": -2.1528630274,
				"element": "C" 
			},
			{
				"x": 0.0905757969,
				"y": -3.7644470014,
				"z": -2.7691661877,
				"element": "C" 
			},
			{
				"x": 1.3803436293,
				"y": -4.6009490853,
				"z": -1.8683047324,
				"element": "S" 
			},
			{
				"x": 0.6520070112,
				"y": -4.5075136336,
				"z": -0.23898041,
				"element": "C" 
			},
			{
				"x": -0.0700551766,
				"y": -3.3639478928,
				"z": 0.1324058463,
				"element": "C" 
			},
			{
				"x": -0.6395679748,
				"y": -3.2829368397,
				"z": 1.4052786131,
				"element": "C" 
			},
			{
				"x": -0.4559077862,
				"y": -4.3247451852,
				"z": 2.3132749895,
				"element": "C" 
			},
			{
				"x": 0.2721722153,
				"y": -5.459193452,
				"z": 1.9478987432,
				"element": "C" 
			},
			{
				"x": 0.8143674071,
				"y": -5.5593309701,
				"z": 0.6675037468,
				"element": "C" 
			},
			{
				"x": -0.2559616919,
				"y": -4.1605791301,
				"z": -4.0646361892,
				"element": "C" 
			},
			{
				"x": -1.280620224,
				"y": -3.5022384491,
				"z": -4.743580937,
				"element": "C" 
			},
			{
				"x": -1.9949369094,
				"y": -2.4804912233,
				"z": -4.1137580081,
				"element": "C" 
			},
			{
				"x": -1.6678690177,
				"y": -2.098779877,
				"z": -2.8132623781,
				"element": "C" 
			},
			{
				"x": -1.0067866145,
				"y": 2.7914194975,
				"z": -0.7175825278,
				"element": "N" 
			},
			{
				"x": -1.629841953,
				"y": 3.4177231895,
				"z": 0.3238170463,
				"element": "N" 
			},
			{
				"x": -0.8273013927,
				"y": 3.3390669697,
				"z": 1.3776934382,
				"element": "C" 
			},
			{
				"x": -1.1730188812,
				"y": 3.9249901861,
				"z": 2.6558059999,
				"element": "C" 
			},
			{
				"x": -2.3412098029,
				"y": 4.4962141174,
				"z": 3.0844656969,
				"element": "C" 
			},
			{
				"x": -2.1078434322,
				"y": 4.9321050834,
				"z": 4.4250368267,
				"element": "C" 
			},
			{
				"x": -0.8208371112,
				"y": 4.5978544742,
				"z": 4.7198829651,
				"element": "C" 
			},
			{
				"x": -0.2325145513,
				"y": 3.9830729526,
				"z": 3.6516708671,
				"element": "O" 
			},
			{
				"x": 2.2236001487,
				"y": 4.2071152797,
				"z": 2.34295589,
				"element": "H" 
			},
			{
				"x": 3.3711265431,
				"y": 2.8801541058,
				"z": 2.5996934119,
				"element": "H" 
			},
			{
				"x": 2.985446266,
				"y": 3.4036547264,
				"z": 0.9524416144,
				"element": "H" 
			},
			{
				"x": 1.0255411954,
				"y": 2.0698502703,
				"z": 2.9197900303,
				"element": "H" 
			},
			{
				"x": 1.7622622845,
				"y": 1.2612240082,
				"z": 1.5351249696,
				"element": "H" 
			},
			{
				"x": -0.6488733181,
				"y": 0.3319654969,
				"z": -1.972406419,
				"element": "H" 
			},
			{
				"x": 0.8109509613,
				"y": -0.4825379903,
				"z": -2.5281433894,
				"element": "H" 
			},
			{
				"x": -1.1955089251,
				"y": -2.395992091,
				"z": 1.6815405135,
				"element": "H" 
			},
			{
				"x": -0.8877956881,
				"y": -4.2504566331,
				"z": 3.3064539462,
				"element": "H" 
			},
			{
				"x": 0.4067235201,
				"y": -6.2733755292,
				"z": 2.6535317919,
				"element": "H" 
			},
			{
				"x": 1.3593770568,
				"y": -6.448246175,
				"z": 0.3655127074,
				"element": "H" 
			},
			{
				"x": 0.2709909464,
				"y": -4.9880229746,
				"z": -4.5295491174,
				"element": "H" 
			},
			{
				"x": -1.5393479836,
				"y": -3.8073989419,
				"z": -5.7528222179,
				"element": "H" 
			},
			{
				"x": -2.8169495376,
				"y": -1.9906937926,
				"z": -4.6259860333,
				"element": "H" 
			},
			{
				"x": -2.2413394212,
				"y": -1.3301625694,
				"z": -2.3055063774,
				"element": "H" 
			},
			{
				"x": -3.2435987606,
				"y": 4.5862211705,
				"z": 2.4992948326,
				"element": "H" 
			},
			{
				"x": -2.8079681263,
				"y": 5.4281748573,
				"z": 5.081560141,
				"element": "H" 
			},
			{
				"x": -0.1980035758,
				"y": 4.7151749583,
				"z": 5.5926057944,
				"element": "H" 
			}
		],
		 "valence_orbital": [ 
			{
				"type": "occ",
				"energy": -0.25148,
				"method": "rhf"
			},
			{
				"type": "occ",
				"energy": -0.24613,
				"method": "rhf"
			},
			{
				"type": "occ",
				"energy": -0.23954,
				"method": "rhf"
			},
			{
				"type": "occ",
				"energy": -0.21938,
				"method": "rhf"
			},
			{
				"type": "occ",
				"energy": -0.20592,
				"method": "rhf"
			},
			{
				"type": "unocc",
				"energy": -0.03329,
				"method": "rhf"
			},
			{
				"type": "unocc",
				"energy": -0.02806,
				"method": "rhf"
			},
			{
				"type": "unocc",
				"energy": -0.02513,
				"method": "rhf"
			},
			{
				"type": "unocc",
				"energy": -0.01873,
				"method": "rhf"
			},
			{
				"type": "unocc",
				"energy": -0.01084,
				"method": "rhf"
			}
		],
		"cosmo_sigma_profile": { 
			"-0.025": 0.0,
			"-0.024": 0.0,
			"-0.023": 0.0,
			"-0.022": 0.0,
			"-0.021": 0.0,
			"-0.02": 0.0,
			"-0.019": 0.0,
			"-0.018": 0.0,
			"-0.017": 0.0,
			"-0.016": 0.0,
			"-0.015": 0.0,
			"-0.014": 0.0,
			"-0.013": 0.0,
			"-0.012": 0.0,
			"-0.011": 0.0688727812916,
			"-0.01": 1.25679732223,
			"-0.009": 4.45232243251,
			"-0.008": 7.40261689155,
			"-0.007": 15.3824787628,
			"-0.006": 24.4743900884,
			"-0.005": 31.1869475312,
			"-0.004": 34.701472963,
			"-0.003": 30.7029742637,
			"-0.002": 31.3496510072,
			"-0.001": 31.9450581254,
			"0.0": 35.639192862,
			"0.001": 34.3477192432,
			"0.002": 36.9364966495,
			"0.003": 37.1331228773,
			"0.004": 30.158665051,
			"0.005": 12.6413492429,
			"0.006": 8.99944264245,
			"0.007": 7.63841968036,
			"0.008": 4.97683036994,
			"0.009": 4.2172293199,
			"0.01": 4.03792251207,
			"0.011": 3.42349740276,
			"0.012": 3.69833927967,
			"0.013": 3.18379930835,
			"0.014": 2.85451849967,
			"0.015": 2.34722031545,
			"0.016": 1.32114657404,
			"0.017": 0.0496033792059,
			"0.018": 0.0,
			"0.019": 0.0,
			"0.02": 0.0,
			"0.021": 0.0,
			"0.022": 0.0,
			"0.023": 0.0,
			"0.024": 0.0,
			"0.025": 0.0
		}
	}
}
