{
	 "smiles": "CC1=NC(=CS1)C1=CC(=CS1)C(O)=O", 
	 "Tm": 500.15, 
	 "num_atms": 21, 
	 "gaussian": { 
		 "optdone": 1, 
		 "sigma_profile": "yes", 
		 "theory": "DFT", 
		 "functional": "B3LYP", 
		 "basiset": "6-31G**", 
		 "properties": { 
			 "R2extent": 4636.1146, 
			 "electric_dipole_moment_norm": 6.10931055521, 
			 "electric_quadrupole_moment_norm": 15.1157804211, 
			 "total_energy": -1348.74603963, 
			 "HOMO_LUMO_gap": 0.16616, 
			 "cosmo_polarized_energy": -17.49, 
			 "cosmo_cavitation_energy": 29.66, 
			 "cosmo_dispersion_energy": -22.74, 
			 "cosmo_repulsion_energy": 1.7, 
			 "cosmo_total_nonelectrostatic_energy": 8.62, 
			 "SMD_solvation_energy": 4.83 
		},
		"coords": [
			{
				"x": 3.5815997987,
				"y": 0.0325028552,
				"z": 2.7854786832,
				"element": "C" 
			},
			{
				"x": 2.1562339039,
				"y": 0.0239044638,
				"z": 2.3260321309,
				"element": "C" 
			},
			{
				"x": 1.7861452271,
				"y": -0.0122600006,
				"z": 1.0814678287,
				"element": "N" 
			},
			{
				"x": 0.4078632072,
				"y": -0.0113249324,
				"z": 0.9448005042,
				"element": "C" 
			},
			{
				"x": -0.2883459199,
				"y": 0.0269733545,
				"z": 2.1273313762,
				"element": "C" 
			},
			{
				"x": 0.8084847277,
				"y": 0.0633682862,
				"z": 3.4647279261,
				"element": "S" 
			},
			{
				"x": -0.1511474152,
				"y": -0.049501577,
				"z": -0.400947209,
				"element": "C" 
			},
			{
				"x": -1.4622356578,
				"y": -0.0640895355,
				"z": -0.8137702644,
				"element": "C" 
			},
			{
				"x": -1.6067376347,
				"y": -0.0874844013,
				"z": -2.2374430148,
				"element": "C" 
			},
			{
				"x": -0.3906862762,
				"y": -0.0829159959,
				"z": -2.8806899793,
				"element": "C" 
			},
			{
				"x": 0.9291042586,
				"y": -0.0667839147,
				"z": -1.7795072892,
				"element": "S" 
			},
			{
				"x": -2.875386782,
				"y": -0.105037905,
				"z": -3.0164401603,
				"element": "C" 
			},
			{
				"x": -4.0068362759,
				"y": -0.4143390486,
				"z": -2.3231457909,
				"element": "O" 
			},
			{
				"x": -2.9381571471,
				"y": 0.1343153915,
				"z": -4.199283921,
				"element": "O" 
			},
			{
				"x": 4.2286045162,
				"y": 0.0039820665,
				"z": 1.907104032,
				"element": "H" 
			},
			{
				"x": 3.8105511884,
				"y": 0.9337206184,
				"z": 3.3636560089,
				"element": "H" 
			},
			{
				"x": 3.804312573,
				"y": -0.8341443544,
				"z": 3.416546258,
				"element": "H" 
			},
			{
				"x": -1.3572122662,
				"y": 0.0383485811,
				"z": 2.2828275897,
				"element": "H" 
			},
			{
				"x": -2.2894436816,
				"y": -0.0180621458,
				"z": -0.1123743785,
				"element": "H" 
			},
			{
				"x": -0.23641076,
				"y": -0.0922491686,
				"z": -3.9503986266,
				"element": "H" 
			},
			{
				"x": -3.7829995842,
				"y": -0.7174226374,
				"z": -1.4327717041,
				"element": "H" 
			}
		],
		 "valence_orbital": [ 
			{
				"type": "occ",
				"energy": -0.29009,
				"method": "rhf"
			},
			{
				"type": "occ",
				"energy": -0.28628,
				"method": "rhf"
			},
			{
				"type": "occ",
				"energy": -0.27326,
				"method": "rhf"
			},
			{
				"type": "occ",
				"energy": -0.26717,
				"method": "rhf"
			},
			{
				"type": "occ",
				"energy": -0.22407,
				"method": "rhf"
			},
			{
				"type": "unocc",
				"energy": -0.05791,
				"method": "rhf"
			},
			{
				"type": "unocc",
				"energy": -0.03869,
				"method": "rhf"
			},
			{
				"type": "unocc",
				"energy": -0.01134,
				"method": "rhf"
			},
			{
				"type": "unocc",
				"energy": -0.00226,
				"method": "rhf"
			},
			{
				"type": "unocc",
				"energy": 0.02691,
				"method": "rhf"
			}
		],
		"cosmo_sigma_profile": { 
			"-0.025": 0.0,
			"-0.024": 0.0,
			"-0.023": 0.0,
			"-0.022": 0.0,
			"-0.021": 0.0,
			"-0.02": 0.0,
			"-0.019": 0.261921674236,
			"-0.018": 0.849173955878,
			"-0.017": 1.32107741991,
			"-0.016": 1.2137581599,
			"-0.015": 0.714079961531,
			"-0.014": 0.547990498293,
			"-0.013": 1.29798489111,
			"-0.012": 1.40218229245,
			"-0.011": 1.29507665481,
			"-0.01": 2.99421054607,
			"-0.009": 5.3780337632,
			"-0.008": 5.63506288831,
			"-0.007": 5.40255278082,
			"-0.006": 8.99961434742,
			"-0.005": 12.7149634978,
			"-0.004": 13.5204415988,
			"-0.003": 12.8581474025,
			"-0.002": 13.9835618902,
			"-0.001": 15.2617930111,
			"0.0": 14.6072449409,
			"0.001": 24.2353479585,
			"0.002": 31.1870931928,
			"0.003": 20.6211734072,
			"0.004": 5.86755961318,
			"0.005": 3.4813270136,
			"0.006": 4.61106144241,
			"0.007": 4.82403331863,
			"0.008": 3.6118122481,
			"0.009": 4.32785669808,
			"0.01": 6.24463430459,
			"0.011": 6.27953760114,
			"0.012": 5.30431691157,
			"0.013": 1.8022235551,
			"0.014": 0.098896795836,
			"0.015": 0.0,
			"0.016": 0.0,
			"0.017": 0.0,
			"0.018": 0.0,
			"0.019": 0.0,
			"0.02": 0.0,
			"0.021": 0.0,
			"0.022": 0.0,
			"0.023": 0.0,
			"0.024": 0.0,
			"0.025": 0.0
		}
	}
}
