{
	 "smiles": "CC1=NC(=CS1)C1=CC=CC(=C1)C#N", 
	 "Tm": 386.15, 
	 "num_atms": 22, 
	 "gaussian": { 
		 "optdone": 1, 
		 "sigma_profile": "yes", 
		 "theory": "DFT", 
		 "functional": "B3LYP", 
		 "basiset": "6-31G**", 
		 "properties": { 
			 "R2extent": 4497.305, 
			 "electric_dipole_moment_norm": 5.63763667329, 
			 "electric_quadrupole_moment_norm": 20.4408689434, 
			 "total_energy": -931.67139839, 
			 "HOMO_LUMO_gap": 0.17291, 
			 "cosmo_polarized_energy": -11.69, 
			 "cosmo_cavitation_energy": 29.42, 
			 "cosmo_dispersion_energy": -21.53, 
			 "cosmo_repulsion_energy": 1.64, 
			 "cosmo_total_nonelectrostatic_energy": 9.53, 
			 "SMD_solvation_energy": 5.18 
		},
		"coords": [
			{
				"x": 3.217670958,
				"y": 2.4914693323,
				"z": 0.6540372061,
				"element": "C" 
			},
			{
				"x": 1.8028069761,
				"y": 2.613387076,
				"z": 0.1777380248,
				"element": "C" 
			},
			{
				"x": 0.9090409244,
				"y": 1.6779123386,
				"z": 0.2813243963,
				"element": "N" 
			},
			{
				"x": -0.3174893419,
				"y": 2.0577299755,
				"z": -0.2399985997,
				"element": "C" 
			},
			{
				"x": -0.3453321831,
				"y": 3.3292315787,
				"z": -0.7555698724,
				"element": "C" 
			},
			{
				"x": 1.2013333105,
				"y": 4.0848622595,
				"z": -0.5907072145,
				"element": "S" 
			},
			{
				"x": -1.436928842,
				"y": 1.0967761326,
				"z": -0.1942762803,
				"element": "C" 
			},
			{
				"x": -2.7098440995,
				"y": 1.4077885394,
				"z": -0.702727866,
				"element": "C" 
			},
			{
				"x": -3.7500899899,
				"y": 0.4827097277,
				"z": -0.6472753996,
				"element": "C" 
			},
			{
				"x": -3.5487220874,
				"y": -0.7752909549,
				"z": -0.0841008309,
				"element": "C" 
			},
			{
				"x": -2.2813493373,
				"y": -1.0987380592,
				"z": 0.4275892203,
				"element": "C" 
			},
			{
				"x": -1.2336262505,
				"y": -0.168820469,
				"z": 0.3724677984,
				"element": "C" 
			},
			{
				"x": -2.0559350385,
				"y": -2.3906923584,
				"z": 1.0115284751,
				"element": "C" 
			},
			{
				"x": -1.8791634286,
				"y": -3.4390576934,
				"z": 1.4835099816,
				"element": "N" 
			},
			{
				"x": 3.4489470645,
				"y": 3.2404660454,
				"z": 1.4186478257,
				"element": "H" 
			},
			{
				"x": 3.3544098714,
				"y": 1.4973234212,
				"z": 1.0830219866,
				"element": "H" 
			},
			{
				"x": 3.9299729191,
				"y": 2.6228070972,
				"z": -0.1671468668,
				"element": "H" 
			},
			{
				"x": -1.1672346537,
				"y": 3.8584273656,
				"z": -1.214595487,
				"element": "H" 
			},
			{
				"x": -2.8941341471,
				"y": 2.3808865781,
				"z": -1.1469987383,
				"element": "H" 
			},
			{
				"x": -4.7251707368,
				"y": 0.7446276508,
				"z": -1.0462039489,
				"element": "H" 
			},
			{
				"x": -4.3528554764,
				"y": -1.5014858397,
				"z": -0.0368213618,
				"element": "H" 
			},
			{
				"x": -0.2568064114,
				"y": -0.4196197438,
				"z": 0.7674575514,
				"element": "H" 
			}
		],
		 "valence_orbital": [ 
			{
				"type": "occ",
				"energy": -0.3015,
				"method": "rhf"
			},
			{
				"type": "occ",
				"energy": -0.28594,
				"method": "rhf"
			},
			{
				"type": "occ",
				"energy": -0.28411,
				"method": "rhf"
			},
			{
				"type": "occ",
				"energy": -0.26504,
				"method": "rhf"
			},
			{
				"type": "occ",
				"energy": -0.23198,
				"method": "rhf"
			},
			{
				"type": "unocc",
				"energy": -0.05907,
				"method": "rhf"
			},
			{
				"type": "unocc",
				"energy": -0.03649,
				"method": "rhf"
			},
			{
				"type": "unocc",
				"energy": -0.02111,
				"method": "rhf"
			},
			{
				"type": "unocc",
				"energy": 0.00648,
				"method": "rhf"
			},
			{
				"type": "unocc",
				"energy": 0.04221,
				"method": "rhf"
			}
		],
		"cosmo_sigma_profile": { 
			"-0.025": 0.0,
			"-0.024": 0.0,
			"-0.023": 0.0,
			"-0.022": 0.0,
			"-0.021": 0.0,
			"-0.02": 0.0,
			"-0.019": 0.0,
			"-0.018": 0.0,
			"-0.017": 0.0,
			"-0.016": 0.0,
			"-0.015": 0.0,
			"-0.014": 0.0,
			"-0.013": 0.0,
			"-0.012": 0.0,
			"-0.011": 0.120357994714,
			"-0.01": 1.76174585964,
			"-0.009": 2.87124567599,
			"-0.008": 3.81281811867,
			"-0.007": 7.86261644404,
			"-0.006": 13.4872583116,
			"-0.005": 16.5786519657,
			"-0.004": 14.2873801892,
			"-0.003": 15.2075590083,
			"-0.002": 16.6623386162,
			"-0.001": 19.4964369053,
			"0.0": 16.32693961,
			"0.001": 24.2799116452,
			"0.002": 31.7702028877,
			"0.003": 16.5063073672,
			"0.004": 5.29528781715,
			"0.005": 3.80589623238,
			"0.006": 4.49752117196,
			"0.007": 4.44059300583,
			"0.008": 4.77629862708,
			"0.009": 4.89813907561,
			"0.01": 4.26074631433,
			"0.011": 3.14786103101,
			"0.012": 2.39945688186,
			"0.013": 1.62915594831,
			"0.014": 0.0746936928472,
			"0.015": 0.0,
			"0.016": 0.0,
			"0.017": 0.0,
			"0.018": 0.0,
			"0.019": 0.0,
			"0.02": 0.0,
			"0.021": 0.0,
			"0.022": 0.0,
			"0.023": 0.0,
			"0.024": 0.0,
			"0.025": 0.0
		}
	}
}
