{
	 "smiles": "ClC1C2C(C3OC13Cl)C1(Cl)C(Cl)=C(Cl)C2(Cl)C1(Cl)Cl", 
	 "Tm": 417.15, 
	 "num_atms": 23, 
	 "gaussian": { 
		 "optdone": 1, 
		 "sigma_profile": "yes", 
		 "theory": "DFT", 
		 "functional": "B3LYP", 
		 "basiset": "6-31G**", 
		 "properties": { 
			 "R2extent": 7270.2873, 
			 "electric_dipole_moment_norm": 1.46814846661, 
			 "electric_quadrupole_moment_norm": 8.97219292815, 
			 "total_energy": -4140.12828219, 
			 "HOMO_LUMO_gap": 0.21354, 
			 "cosmo_polarized_energy": -9.2, 
			 "cosmo_cavitation_energy": 37.91, 
			 "cosmo_dispersion_energy": -26.63, 
			 "cosmo_repulsion_energy": 2.02, 
			 "cosmo_total_nonelectrostatic_energy": 13.3, 
			 "SMD_solvation_energy": 3.42 
		},
		"coords": [
			{
				"x": 2.8958344211,
				"y": -1.8377906116,
				"z": 2.1939435874,
				"element": "Cl" 
			},
			{
				"x": 1.2341857039,
				"y": -1.3223980804,
				"z": 1.7046774969,
				"element": "C" 
			},
			{
				"x": 1.283406245,
				"y": -0.4847806361,
				"z": 0.3958080544,
				"element": "C" 
			},
			{
				"x": 0.5950048946,
				"y": 0.902438089,
				"z": 0.6600659485,
				"element": "C" 
			},
			{
				"x": 0.1211790984,
				"y": 0.8660847905,
				"z": 2.0963675301,
				"element": "C" 
			},
			{
				"x": -0.7988276239,
				"y": -0.2131669966,
				"z": 2.3997909379,
				"element": "O" 
			},
			{
				"x": 0.5526130652,
				"y": -0.3931874837,
				"z": 2.7290507316,
				"element": "C" 
			},
			{
				"x": 0.9169093663,
				"y": -0.5461762802,
				"z": 4.4474373766,
				"element": "Cl" 
			},
			{
				"x": -0.4553652917,
				"y": 0.9998135866,
				"z": -0.4998517131,
				"element": "C" 
			},
			{
				"x": -1.0570133337,
				"y": 2.6452266971,
				"z": -0.7884664058,
				"element": "Cl" 
			},
			{
				"x": -1.5192715878,
				"y": -0.0803295068,
				"z": -0.2969451136,
				"element": "C" 
			},
			{
				"x": -3.1207857547,
				"y": 0.2281885252,
				"z": 0.2109123939,
				"element": "Cl" 
			},
			{
				"x": -0.9339635792,
				"y": -1.2682438963,
				"z": -0.5093978922,
				"element": "C" 
			},
			{
				"x": -1.6164546867,
				"y": -2.8246197226,
				"z": -0.2957808589,
				"element": "Cl" 
			},
			{
				"x": 0.5283932662,
				"y": -1.0124236257,
				"z": -0.8687925481,
				"element": "C" 
			},
			{
				"x": 1.3639390298,
				"y": -2.3320793033,
				"z": -1.712058055,
				"element": "Cl" 
			},
			{
				"x": 0.3474608374,
				"y": 0.3293994415,
				"z": -1.6756856942,
				"element": "C" 
			},
			{
				"x": -0.5811842412,
				"y": 0.1539409038,
				"z": -3.1919766983,
				"element": "Cl" 
			},
			{
				"x": 1.8901604252,
				"y": 1.1615874726,
				"z": -2.0763780931,
				"element": "Cl" 
			},
			{
				"x": 0.6524453517,
				"y": -2.2399911328,
				"z": 1.6124306496,
				"element": "H" 
			},
			{
				"x": 2.3263956662,
				"y": -0.3340666364,
				"z": 0.1212890828,
				"element": "H" 
			},
			{
				"x": 1.3099369521,
				"y": 1.7200548872,
				"z": 0.5455493252,
				"element": "H" 
			},
			{
				"x": -0.0321982242,
				"y": 1.7769195191,
				"z": 2.6675099573,
				"element": "H" 
			}
		],
		 "valence_orbital": [ 
			{
				"type": "occ",
				"energy": -0.32134,
				"method": "rhf"
			},
			{
				"type": "occ",
				"energy": -0.3199,
				"method": "rhf"
			},
			{
				"type": "occ",
				"energy": -0.31431,
				"method": "rhf"
			},
			{
				"type": "occ",
				"energy": -0.30023,
				"method": "rhf"
			},
			{
				"type": "occ",
				"energy": -0.26696,
				"method": "rhf"
			},
			{
				"type": "unocc",
				"energy": -0.05342,
				"method": "rhf"
			},
			{
				"type": "unocc",
				"energy": -0.04854,
				"method": "rhf"
			},
			{
				"type": "unocc",
				"energy": -0.01927,
				"method": "rhf"
			},
			{
				"type": "unocc",
				"energy": -0.01402,
				"method": "rhf"
			},
			{
				"type": "unocc",
				"energy": -0.00471,
				"method": "rhf"
			}
		],
		"cosmo_sigma_profile": { 
			"-0.025": 0.0,
			"-0.024": 0.0,
			"-0.023": 0.0,
			"-0.022": 0.0,
			"-0.021": 0.0,
			"-0.02": 0.0,
			"-0.019": 0.0,
			"-0.018": 0.0,
			"-0.017": 0.0,
			"-0.016": 0.0,
			"-0.015": 0.0,
			"-0.014": 0.0,
			"-0.013": 0.0,
			"-0.012": 0.0,
			"-0.011": 0.0623980481529,
			"-0.01": 3.22171332931,
			"-0.009": 8.28786884073,
			"-0.008": 6.10286366267,
			"-0.007": 6.34990815361,
			"-0.006": 6.31829514056,
			"-0.005": 10.1659964305,
			"-0.004": 13.3406863071,
			"-0.003": 16.5555700583,
			"-0.002": 19.8169086733,
			"-0.001": 26.2372469336,
			"0.0": 29.3815531501,
			"0.001": 34.3598935479,
			"0.002": 51.2450527135,
			"0.003": 50.8995078948,
			"0.004": 21.310418517,
			"0.005": 9.69308782726,
			"0.006": 2.88748691715,
			"0.007": 1.86040480419,
			"0.008": 1.17832530833,
			"0.009": 0.624181360953,
			"0.01": 0.0,
			"0.011": 0.0,
			"0.012": 0.0,
			"0.013": 0.0,
			"0.014": 0.0,
			"0.015": 0.0,
			"0.016": 0.0,
			"0.017": 0.0,
			"0.018": 0.0,
			"0.019": 0.0,
			"0.02": 0.0,
			"0.021": 0.0,
			"0.022": 0.0,
			"0.023": 0.0,
			"0.024": 0.0,
			"0.025": 0.0
		}
	}
}
