{
	 "smiles": "O=C1NCN(C2=CC=CC=C2)C11CCNCC1", 
	 "Tm": 457.15, 
	 "num_atms": 34, 
	 "gaussian": { 
		 "optdone": 1, 
		 "sigma_profile": "yes", 
		 "theory": "DFT", 
		 "functional": "B3LYP", 
		 "basiset": "6-31G**", 
		 "properties": { 
			 "R2extent": 3998.1305, 
			 "electric_dipole_moment_norm": 3.75539370772, 
			 "electric_quadrupole_moment_norm": 18.7104493153, 
			 "total_energy": -745.091326264, 
			 "HOMO_LUMO_gap": 0.19668, 
			 "cosmo_polarized_energy": -15.55, 
			 "cosmo_cavitation_energy": 34.16, 
			 "cosmo_dispersion_energy": -24.38, 
			 "cosmo_repulsion_energy": 1.88, 
			 "cosmo_total_nonelectrostatic_energy": 11.66, 
			 "SMD_solvation_energy": 1.73 
		},
		"coords": [
			{
				"x": 0.3405598339,
				"y": 2.6373500738,
				"z": -2.2047967771,
				"element": "O" 
			},
			{
				"x": 0.1175017888,
				"y": 1.4446678911,
				"z": -2.0788886278,
				"element": "C" 
			},
			{
				"x": -0.3894798809,
				"y": 0.6039498055,
				"z": -3.0357732521,
				"element": "N" 
			},
			{
				"x": -0.3319726612,
				"y": -0.7915983287,
				"z": -2.6046958187,
				"element": "C" 
			},
			{
				"x": -0.3000488729,
				"y": -0.7195492248,
				"z": -1.1428392501,
				"element": "N" 
			},
			{
				"x": -1.5487503348,
				"y": -1.0221339954,
				"z": -0.4956475605,
				"element": "C" 
			},
			{
				"x": -1.518412451,
				"y": -1.8237877147,
				"z": 0.6530262484,
				"element": "C" 
			},
			{
				"x": -2.6983892665,
				"y": -2.1623125557,
				"z": 1.3164617859,
				"element": "C" 
			},
			{
				"x": -3.9296008441,
				"y": -1.7213668915,
				"z": 0.8277849975,
				"element": "C" 
			},
			{
				"x": -3.9701478814,
				"y": -0.9323312324,
				"z": -0.3235269628,
				"element": "C" 
			},
			{
				"x": -2.7898525989,
				"y": -0.5767120161,
				"z": -0.977711436,
				"element": "C" 
			},
			{
				"x": 0.3838379043,
				"y": 0.5818035479,
				"z": -0.824165634,
				"element": "C" 
			},
			{
				"x": 1.9261537518,
				"y": 0.3558234565,
				"z": -0.7301710673,
				"element": "C" 
			},
			{
				"x": 2.3682438257,
				"y": 0.1238872421,
				"z": 0.7131921062,
				"element": "C" 
			},
			{
				"x": 2.1642291668,
				"y": 1.3520670926,
				"z": 1.4986068793,
				"element": "N" 
			},
			{
				"x": 0.9942949404,
				"y": 2.1416154025,
				"z": 1.0702476084,
				"element": "C" 
			},
			{
				"x": -0.1226678731,
				"y": 1.282825899,
				"z": 0.4574273224,
				"element": "C" 
			},
			{
				"x": -0.3926289387,
				"y": 0.8906044694,
				"z": -4.0051016352,
				"element": "H" 
			},
			{
				"x": 0.5763597133,
				"y": -1.2834856609,
				"z": -2.9864459627,
				"element": "H" 
			},
			{
				"x": -1.1989671346,
				"y": -1.3615202914,
				"z": -2.9459505683,
				"element": "H" 
			},
			{
				"x": -0.5571512388,
				"y": -2.1856736389,
				"z": 1.0049786705,
				"element": "H" 
			},
			{
				"x": -2.6561505179,
				"y": -2.7843724728,
				"z": 2.2061537592,
				"element": "H" 
			},
			{
				"x": -4.8496455838,
				"y": -1.9924895928,
				"z": 1.3371573027,
				"element": "H" 
			},
			{
				"x": -4.9232841018,
				"y": -0.5810632001,
				"z": -0.7091171284,
				"element": "H" 
			},
			{
				"x": -2.827792628,
				"y": 0.057529,
				"z": -1.8586398594,
				"element": "H" 
			},
			{
				"x": 2.2069904948,
				"y": -0.4987809058,
				"z": -1.3525908045,
				"element": "H" 
			},
			{
				"x": 2.4465771799,
				"y": 1.2372997097,
				"z": -1.1206104009,
				"element": "H" 
			},
			{
				"x": 1.8114887232,
				"y": -0.7439612871,
				"z": 1.1097011937,
				"element": "H" 
			},
			{
				"x": 3.4310868175,
				"y": -0.1483811672,
				"z": 0.7390835786,
				"element": "H" 
			},
			{
				"x": 2.0684829258,
				"y": 1.1089866236,
				"z": 2.4791383961,
				"element": "H" 
			},
			{
				"x": 1.3024357299,
				"y": 2.8941756348,
				"z": 0.3358216415,
				"element": "H" 
			},
			{
				"x": 0.6117267918,
				"y": 2.689402669,
				"z": 1.9372803442,
				"element": "H" 
			},
			{
				"x": -0.4348531671,
				"y": 0.5302881212,
				"z": 1.1873649057,
				"element": "H" 
			},
			{
				"x": -1.0016736122,
				"y": 1.8948435376,
				"z": 0.2329460058,
				"element": "H" 
			}
		],
		 "valence_orbital": [ 
			{
				"type": "occ",
				"energy": -0.26354,
				"method": "rhf"
			},
			{
				"type": "occ",
				"energy": -0.25367,
				"method": "rhf"
			},
			{
				"type": "occ",
				"energy": -0.24648,
				"method": "rhf"
			},
			{
				"type": "occ",
				"energy": -0.2144,
				"method": "rhf"
			},
			{
				"type": "occ",
				"energy": -0.20546,
				"method": "rhf"
			},
			{
				"type": "unocc",
				"energy": -0.00878,
				"method": "rhf"
			},
			{
				"type": "unocc",
				"energy": -0.00555,
				"method": "rhf"
			},
			{
				"type": "unocc",
				"energy": 0.02718,
				"method": "rhf"
			},
			{
				"type": "unocc",
				"energy": 0.07251,
				"method": "rhf"
			},
			{
				"type": "unocc",
				"energy": 0.08878,
				"method": "rhf"
			}
		],
		"cosmo_sigma_profile": { 
			"-0.025": 0.0,
			"-0.024": 0.0,
			"-0.023": 0.0,
			"-0.022": 0.0,
			"-0.021": 0.0,
			"-0.02": 0.0,
			"-0.019": 0.0,
			"-0.018": 0.0,
			"-0.017": 0.0,
			"-0.016": 0.0,
			"-0.015": 0.441835175569,
			"-0.014": 1.50764742014,
			"-0.013": 0.720807405193,
			"-0.012": 1.71682869479,
			"-0.011": 0.752616583591,
			"-0.01": 1.66014661257,
			"-0.009": 2.13098927895,
			"-0.008": 2.62345789952,
			"-0.007": 3.02745109963,
			"-0.006": 8.03023289849,
			"-0.005": 19.0850808035,
			"-0.004": 23.5459806456,
			"-0.003": 29.79354551,
			"-0.002": 28.3226427554,
			"-0.001": 24.5646529455,
			"0.0": 20.6177519406,
			"0.001": 14.0354498294,
			"0.002": 13.0836230997,
			"0.003": 12.0316534184,
			"0.004": 11.9984240409,
			"0.005": 11.3785030632,
			"0.006": 8.692968861,
			"0.007": 3.39849435197,
			"0.008": 2.6450812158,
			"0.009": 2.36545737881,
			"0.01": 2.15563599534,
			"0.011": 2.29612318788,
			"0.012": 3.31064278296,
			"0.013": 4.80329943058,
			"0.014": 4.38763358325,
			"0.015": 0.997458454481,
			"0.016": 0.187208355355,
			"0.017": 0.0304437489198,
			"0.018": 0.876610928003,
			"0.019": 0.354083731077,
			"0.02": 0.0,
			"0.021": 0.0,
			"0.022": 0.0,
			"0.023": 0.0,
			"0.024": 0.0,
			"0.025": 0.0
		}
	}
}
