{
	 "smiles": "NCC1=C(CN2C(=O)NC3(CCCCC3)C2=O)C=CC=C1", 
	 "Tm": 415.15, 
	 "num_atms": 42, 
	 "gaussian": { 
		 "optdone": 1, 
		 "sigma_profile": "yes", 
		 "theory": "DFT", 
		 "functional": "B3LYP", 
		 "basiset": "6-31G**", 
		 "properties": { 
			 "R2extent": 7140.557, 
			 "electric_dipole_moment_norm": 2.75117535246, 
			 "electric_quadrupole_moment_norm": 15.3727637564, 
			 "total_energy": -937.124707948, 
			 "HOMO_LUMO_gap": 0.23142, 
			 "cosmo_polarized_energy": -16.87, 
			 "cosmo_cavitation_energy": 41.57, 
			 "cosmo_dispersion_energy": -28.64, 
			 "cosmo_repulsion_energy": 2.18, 
			 "cosmo_total_nonelectrostatic_energy": 15.11, 
			 "SMD_solvation_energy": 6.39 
		},
		"coords": [
			{
				"x": -2.0270238083,
				"y": -0.4718880728,
				"z": -2.3070698699,
				"element": "N" 
			},
			{
				"x": -2.4898315003,
				"y": 0.7309326481,
				"z": -3.0305771213,
				"element": "C" 
			},
			{
				"x": -2.957532098,
				"y": 1.7920995057,
				"z": -2.0547802404,
				"element": "C" 
			},
			{
				"x": -2.0865022083,
				"y": 2.7314722591,
				"z": -1.4617722214,
				"element": "C" 
			},
			{
				"x": -0.6138802012,
				"y": 2.8367806578,
				"z": -1.8293125438,
				"element": "C" 
			},
			{
				"x": 0.2152462544,
				"y": 1.7402203284,
				"z": -1.3379279088,
				"element": "N" 
			},
			{
				"x": 0.8291133793,
				"y": 0.7915787011,
				"z": -2.1815901987,
				"element": "C" 
			},
			{
				"x": 0.7518598825,
				"y": 0.7696111791,
				"z": -3.3979535205,
				"element": "O" 
			},
			{
				"x": 1.5465263605,
				"y": -0.0460021003,
				"z": -1.3666154717,
				"element": "N" 
			},
			{
				"x": 1.2617592531,
				"y": 0.1693085616,
				"z": 0.0562572868,
				"element": "C" 
			},
			{
				"x": 2.5422290572,
				"y": 0.3556007509,
				"z": 0.893758505,
				"element": "C" 
			},
			{
				"x": 3.3057763197,
				"y": -0.9632919399,
				"z": 1.0845766888,
				"element": "C" 
			},
			{
				"x": 2.409882887,
				"y": -2.0559978552,
				"z": 1.6872615667,
				"element": "C" 
			},
			{
				"x": 1.1414311161,
				"y": -2.2615472141,
				"z": 0.8455202842,
				"element": "C" 
			},
			{
				"x": 0.3700933192,
				"y": -0.9471822565,
				"z": 0.6542366767,
				"element": "C" 
			},
			{
				"x": 0.4527574199,
				"y": 1.4750028312,
				"z": -0.0073979223,
				"element": "C" 
			},
			{
				"x": 0.0875981788,
				"y": 2.1455165581,
				"z": 0.9401456684,
				"element": "O" 
			},
			{
				"x": -2.5965953474,
				"y": 3.6366951059,
				"z": -0.5235981445,
				"element": "C" 
			},
			{
				"x": -3.9456464066,
				"y": 3.6377812169,
				"z": -0.1706355982,
				"element": "C" 
			},
			{
				"x": -4.8112444184,
				"y": 2.7211096033,
				"z": -0.7639427428,
				"element": "C" 
			},
			{
				"x": -4.3116049964,
				"y": 1.8116952307,
				"z": -1.6959524858,
				"element": "C" 
			},
			{
				"x": -2.8164777639,
				"y": -0.9037311575,
				"z": -1.8313324679,
				"element": "H" 
			},
			{
				"x": -1.6821556497,
				"y": -1.1505672551,
				"z": -2.982383001,
				"element": "H" 
			},
			{
				"x": -1.6440714647,
				"y": 1.0831402356,
				"z": -3.6258094634,
				"element": "H" 
			},
			{
				"x": -3.3141451431,
				"y": 0.52089755,
				"z": -3.7319972038,
				"element": "H" 
			},
			{
				"x": -0.4679813165,
				"y": 2.8494762801,
				"z": -2.9123972976,
				"element": "H" 
			},
			{
				"x": -0.2137665969,
				"y": 3.7704902062,
				"z": -1.4233837209,
				"element": "H" 
			},
			{
				"x": 1.8297511293,
				"y": -0.9384435424,
				"z": -1.741386054,
				"element": "H" 
			},
			{
				"x": 2.2388150832,
				"y": 0.7620189564,
				"z": 1.8657558184,
				"element": "H" 
			},
			{
				"x": 3.1796303187,
				"y": 1.1054514645,
				"z": 0.4128843194,
				"element": "H" 
			},
			{
				"x": 4.1806666152,
				"y": -0.7913026534,
				"z": 1.7218603436,
				"element": "H" 
			},
			{
				"x": 3.6966751851,
				"y": -1.3031702556,
				"z": 0.1147560831,
				"element": "H" 
			},
			{
				"x": 2.1209273904,
				"y": -1.7641721558,
				"z": 2.7065869825,
				"element": "H" 
			},
			{
				"x": 2.9650305281,
				"y": -2.9971490055,
				"z": 1.7759758935,
				"element": "H" 
			},
			{
				"x": 1.4174122745,
				"y": -2.6793772077,
				"z": -0.134307801,
				"element": "H" 
			},
			{
				"x": 0.485517965,
				"y": -3.0045521146,
				"z": 1.3137129715,
				"element": "H" 
			},
			{
				"x": -0.4997029329,
				"y": -1.0826674332,
				"z": 0.002399172,
				"element": "H" 
			},
			{
				"x": 0.0040266714,
				"y": -0.5877985025,
				"z": 1.6236012698,
				"element": "H" 
			},
			{
				"x": -1.9181088743,
				"y": 4.3444044944,
				"z": -0.0562109503,
				"element": "H" 
			},
			{
				"x": -4.3146564978,
				"y": 4.3510898639,
				"z": 0.5605556026,
				"element": "H" 
			},
			{
				"x": -5.8668018619,
				"y": 2.7137854464,
				"z": -0.5071940935,
				"element": "H" 
			},
			{
				"x": -4.9875975018,
				"y": 1.1006810864,
				"z": -2.1666170895,
				"element": "H" 
			}
		],
		 "valence_orbital": [ 
			{
				"type": "occ",
				"energy": -0.2545,
				"method": "rhf"
			},
			{
				"type": "occ",
				"energy": -0.25168,
				"method": "rhf"
			},
			{
				"type": "occ",
				"energy": -0.24374,
				"method": "rhf"
			},
			{
				"type": "occ",
				"energy": -0.23964,
				"method": "rhf"
			},
			{
				"type": "occ",
				"energy": -0.23709,
				"method": "rhf"
			},
			{
				"type": "unocc",
				"energy": -0.00567,
				"method": "rhf"
			},
			{
				"type": "unocc",
				"energy": 0.00166,
				"method": "rhf"
			},
			{
				"type": "unocc",
				"energy": 0.0033,
				"method": "rhf"
			},
			{
				"type": "unocc",
				"energy": 0.05781,
				"method": "rhf"
			},
			{
				"type": "unocc",
				"energy": 0.07137,
				"method": "rhf"
			}
		],
		"cosmo_sigma_profile": { 
			"-0.025": 0.0,
			"-0.024": 0.0,
			"-0.023": 0.0,
			"-0.022": 0.0,
			"-0.021": 0.0,
			"-0.02": 0.0,
			"-0.019": 0.0,
			"-0.018": 0.0,
			"-0.017": 0.0,
			"-0.016": 0.0,
			"-0.015": 0.0,
			"-0.014": 0.597492582946,
			"-0.013": 0.885579345138,
			"-0.012": 0.697719901547,
			"-0.011": 0.981474659333,
			"-0.01": 2.31024613882,
			"-0.009": 3.97864160318,
			"-0.008": 3.9311104086,
			"-0.007": 4.05133018777,
			"-0.006": 9.55280990383,
			"-0.005": 19.0861944028,
			"-0.004": 21.3374102375,
			"-0.003": 35.3414513041,
			"-0.002": 36.5767924433,
			"-0.001": 39.0950756669,
			"0.0": 32.1449698942,
			"0.001": 17.8739423546,
			"0.002": 11.5928474412,
			"0.003": 11.589384628,
			"0.004": 13.7083434804,
			"0.005": 13.9613138872,
			"0.006": 11.3315398778,
			"0.007": 3.99432375316,
			"0.008": 5.84010117603,
			"0.009": 2.94347362242,
			"0.01": 4.24621585172,
			"0.011": 4.30532346279,
			"0.012": 6.18669695935,
			"0.013": 5.34228192209,
			"0.014": 1.07783797127,
			"0.015": 0.0,
			"0.016": 0.0,
			"0.017": 0.0,
			"0.018": 0.0,
			"0.019": 0.0,
			"0.02": 0.0,
			"0.021": 0.0,
			"0.022": 0.0,
			"0.023": 0.0,
			"0.024": 0.0,
			"0.025": 0.0
		}
	}
}
