{
	 "smiles": "NC1=NN(C=N1)C1=CC=NC=C1", 
	 "Tm": 487.15, 
	 "num_atms": 19, 
	 "gaussian": { 
		 "optdone": 1, 
		 "sigma_profile": "yes", 
		 "theory": "DFT", 
		 "functional": "B3LYP", 
		 "basiset": "6-31G**", 
		 "properties": { 
			 "R2extent": 2475.9106, 
			 "electric_dipole_moment_norm": 2.00616102544, 
			 "electric_quadrupole_moment_norm": 13.0773855548, 
			 "total_energy": -544.703385438, 
			 "HOMO_LUMO_gap": 0.17545, 
			 "cosmo_polarized_energy": -14.69, 
			 "cosmo_cavitation_energy": 23.84, 
			 "cosmo_dispersion_energy": -18.06, 
			 "cosmo_repulsion_energy": 1.42, 
			 "cosmo_total_nonelectrostatic_energy": 7.2, 
			 "SMD_solvation_energy": 0.58 
		},
		"coords": [
			{
				"x": 2.1946394139,
				"y": -3.704827715,
				"z": 0.9727668061,
				"element": "N" 
			},
			{
				"x": 1.7997068787,
				"y": -2.6598472414,
				"z": 0.1730514821,
				"element": "C" 
			},
			{
				"x": 1.0926997736,
				"y": -1.6310601767,
				"z": 0.6181041498,
				"element": "N" 
			},
			{
				"x": 1.0017886565,
				"y": -0.8362352401,
				"z": -0.5041836039,
				"element": "N" 
			},
			{
				"x": 1.6513648453,
				"y": -1.4463969918,
				"z": -1.5312739366,
				"element": "C" 
			},
			{
				"x": 2.1660018883,
				"y": -2.5949140249,
				"z": -1.1499710977,
				"element": "N" 
			},
			{
				"x": 0.3209463696,
				"y": 0.3948856635,
				"z": -0.4661658316,
				"element": "C" 
			},
			{
				"x": -0.2160513398,
				"y": 0.858298119,
				"z": 0.7392517583,
				"element": "C" 
			},
			{
				"x": -0.8812884148,
				"y": 2.0818629703,
				"z": 0.7328519546,
				"element": "C" 
			},
			{
				"x": -1.0436512031,
				"y": 2.8516848327,
				"z": -0.3514192631,
				"element": "N" 
			},
			{
				"x": -0.5220745979,
				"y": 2.387815536,
				"z": -1.4937921168,
				"element": "C" 
			},
			{
				"x": 0.1617118211,
				"y": 1.1802990426,
				"z": -1.6144481249,
				"element": "C" 
			},
			{
				"x": 2.4013520321,
				"y": -4.5545659643,
				"z": 0.4685031878,
				"element": "H" 
			},
			{
				"x": 1.6460165837,
				"y": -3.8343781611,
				"z": 1.8103571338,
				"element": "H" 
			},
			{
				"x": 1.7269164475,
				"y": -1.0248321061,
				"z": -2.5225945984,
				"element": "H" 
			},
			{
				"x": -0.1085000773,
				"y": 0.2710879008,
				"z": 1.6416767976,
				"element": "H" 
			},
			{
				"x": -1.3075764556,
				"y": 2.4632970303,
				"z": 1.6588902576,
				"element": "H" 
			},
			{
				"x": -0.6569369199,
				"y": 3.0146585797,
				"z": -2.3734293765,
				"element": "H" 
			},
			{
				"x": 0.5475342982,
				"y": 0.8752679468,
				"z": -2.5803755784,
				"element": "H" 
			}
		],
		 "valence_orbital": [ 
			{
				"type": "occ",
				"energy": -0.28559,
				"method": "rhf"
			},
			{
				"type": "occ",
				"energy": -0.27738,
				"method": "rhf"
			},
			{
				"type": "occ",
				"energy": -0.26863,
				"method": "rhf"
			},
			{
				"type": "occ",
				"energy": -0.25903,
				"method": "rhf"
			},
			{
				"type": "occ",
				"energy": -0.2217,
				"method": "rhf"
			},
			{
				"type": "unocc",
				"energy": -0.04625,
				"method": "rhf"
			},
			{
				"type": "unocc",
				"energy": -0.01799,
				"method": "rhf"
			},
			{
				"type": "unocc",
				"energy": 0.02658,
				"method": "rhf"
			},
			{
				"type": "unocc",
				"energy": 0.06433,
				"method": "rhf"
			},
			{
				"type": "unocc",
				"energy": 0.07949,
				"method": "rhf"
			}
		],
		"cosmo_sigma_profile": { 
			"-0.025": 0.0,
			"-0.024": 0.0,
			"-0.023": 0.0,
			"-0.022": 0.0,
			"-0.021": 0.0,
			"-0.02": 0.0,
			"-0.019": 0.0,
			"-0.018": 0.0,
			"-0.017": 0.0,
			"-0.016": 0.0,
			"-0.015": 0.0,
			"-0.014": 0.690027721701,
			"-0.013": 2.54162824783,
			"-0.012": 4.25590643152,
			"-0.011": 4.01070777522,
			"-0.01": 4.57727511203,
			"-0.009": 4.44317012351,
			"-0.008": 3.71176102526,
			"-0.007": 6.06939689434,
			"-0.006": 11.1340325133,
			"-0.005": 10.4001770492,
			"-0.004": 7.89431563732,
			"-0.003": 8.3346090723,
			"-0.002": 8.79930479556,
			"-0.001": 11.3094698241,
			"0.0": 12.6747725808,
			"0.001": 17.3658259171,
			"0.002": 16.7668642457,
			"0.003": 7.34381605578,
			"0.004": 5.60371681533,
			"0.005": 6.28570851781,
			"0.006": 5.5393763461,
			"0.007": 4.57271605428,
			"0.008": 4.38277356176,
			"0.009": 5.03679318494,
			"0.01": 4.28265008655,
			"0.011": 3.74892211773,
			"0.012": 2.88208571945,
			"0.013": 2.08855094724,
			"0.014": 1.87813311459,
			"0.015": 1.6112041496,
			"0.016": 1.49534598916,
			"0.017": 0.178172205815,
			"0.018": 0.0,
			"0.019": 0.0,
			"0.02": 0.0,
			"0.021": 0.0,
			"0.022": 0.0,
			"0.023": 0.0,
			"0.024": 0.0,
			"0.025": 0.0
		}
	}
}
