{
	 "smiles": "N#CC1=CN=C(C=C1)N1C=NC=N1", 
	 "Tm": 477.15, 
	 "num_atms": 18, 
	 "gaussian": { 
		 "optdone": 1, 
		 "sigma_profile": "yes", 
		 "theory": "DFT", 
		 "functional": "B3LYP", 
		 "basiset": "6-31G**", 
		 "properties": { 
			 "R2extent": 3211.0254, 
			 "electric_dipole_moment_norm": 3.02488482095, 
			 "electric_quadrupole_moment_norm": 27.6107244076, 
			 "total_energy": -581.571379331, 
			 "HOMO_LUMO_gap": 0.18295, 
			 "cosmo_polarized_energy": -19.18, 
			 "cosmo_cavitation_energy": 24.78, 
			 "cosmo_dispersion_energy": -17.85, 
			 "cosmo_repulsion_energy": 1.37, 
			 "cosmo_total_nonelectrostatic_energy": 8.31, 
			 "SMD_solvation_energy": 2.71 
		},
		"coords": [
			{
				"x": 0.9423415482,
				"y": -5.0711944425,
				"z": 2.0857308053,
				"element": "N" 
			},
			{
				"x": 0.9352639033,
				"y": -3.9479060203,
				"z": 1.7835225767,
				"element": "C" 
			},
			{
				"x": 0.924617653,
				"y": -2.567674448,
				"z": 1.4095355595,
				"element": "C" 
			},
			{
				"x": 0.7724002227,
				"y": -2.187458315,
				"z": 0.065670192,
				"element": "C" 
			},
			{
				"x": 0.7551144939,
				"y": -0.9209684123,
				"z": -0.3400887988,
				"element": "N" 
			},
			{
				"x": 0.8893227654,
				"y": 0.034166357,
				"z": 0.5775482866,
				"element": "C" 
			},
			{
				"x": 1.0480264568,
				"y": -0.2254302206,
				"z": 1.9493243157,
				"element": "C" 
			},
			{
				"x": 1.0650398464,
				"y": -1.547081514,
				"z": 2.3647707884,
				"element": "C" 
			},
			{
				"x": 0.8653618455,
				"y": 1.3674432768,
				"z": 0.1040390356,
				"element": "N" 
			},
			{
				"x": 0.9771518376,
				"y": 2.5393516277,
				"z": 0.8057998681,
				"element": "C" 
			},
			{
				"x": 0.9057766529,
				"y": 3.5697358506,
				"z": -0.0032539017,
				"element": "N" 
			},
			{
				"x": 0.7457632425,
				"y": 2.9740627885,
				"z": -1.2281970844,
				"element": "C" 
			},
			{
				"x": 0.7144968368,
				"y": 1.6572513114,
				"z": -1.2233994209,
				"element": "N" 
			},
			{
				"x": 0.6607181357,
				"y": -2.9453376824,
				"z": -0.705884781,
				"element": "H" 
			},
			{
				"x": 1.1554093687,
				"y": 0.571301491,
				"z": 2.6747012197,
				"element": "H" 
			},
			{
				"x": 1.1852440643,
				"y": -1.7938778046,
				"z": 3.414048696,
				"element": "H" 
			},
			{
				"x": 1.1055021223,
				"y": 2.5882987835,
				"z": 1.8766289323,
				"element": "H" 
			},
			{
				"x": 0.650149004,
				"y": 3.5364173733,
				"z": -2.1465962889,
				"element": "H" 
			}
		],
		 "valence_orbital": [ 
			{
				"type": "occ",
				"energy": -0.32657,
				"method": "rhf"
			},
			{
				"type": "occ",
				"energy": -0.30583,
				"method": "rhf"
			},
			{
				"type": "occ",
				"energy": -0.29606,
				"method": "rhf"
			},
			{
				"type": "occ",
				"energy": -0.28427,
				"method": "rhf"
			},
			{
				"type": "occ",
				"energy": -0.26802,
				"method": "rhf"
			},
			{
				"type": "unocc",
				"energy": -0.08507,
				"method": "rhf"
			},
			{
				"type": "unocc",
				"energy": -0.06181,
				"method": "rhf"
			},
			{
				"type": "unocc",
				"energy": -0.00957,
				"method": "rhf"
			},
			{
				"type": "unocc",
				"energy": 0.01658,
				"method": "rhf"
			},
			{
				"type": "unocc",
				"energy": 0.03766,
				"method": "rhf"
			}
		],
		"cosmo_sigma_profile": { 
			"-0.025": 0.0,
			"-0.024": 0.0,
			"-0.023": 0.0,
			"-0.022": 0.0,
			"-0.021": 0.0,
			"-0.02": 0.0,
			"-0.019": 0.0,
			"-0.018": 0.0,
			"-0.017": 0.0,
			"-0.016": 0.0,
			"-0.015": 0.0,
			"-0.014": 0.515460535728,
			"-0.013": 2.02093648126,
			"-0.012": 1.80366361973,
			"-0.011": 2.24637728214,
			"-0.01": 4.99048112533,
			"-0.009": 9.26474375792,
			"-0.008": 8.99970286741,
			"-0.007": 7.78412860049,
			"-0.006": 7.60610191687,
			"-0.005": 9.64576506519,
			"-0.004": 10.8543429397,
			"-0.003": 17.765891841,
			"-0.002": 17.0016866361,
			"-0.001": 12.3400037833,
			"0.0": 10.7335031201,
			"0.001": 7.72619685986,
			"0.002": 5.30983758454,
			"0.003": 6.34492394411,
			"0.004": 4.74526321785,
			"0.005": 7.05692436969,
			"0.006": 6.64939921487,
			"0.007": 4.13688599847,
			"0.008": 6.24661175859,
			"0.009": 5.716023393,
			"0.01": 6.27372539171,
			"0.011": 4.37528894512,
			"0.012": 4.45933441986,
			"0.013": 3.11569052229,
			"0.014": 2.20370000827,
			"0.015": 2.18834868655,
			"0.016": 1.28355230097,
			"0.017": 0.988408635112,
			"0.018": 0.307723768914,
			"0.019": 0.0,
			"0.02": 0.0,
			"0.021": 0.0,
			"0.022": 0.0,
			"0.023": 0.0,
			"0.024": 0.0,
			"0.025": 0.0
		}
	}
}
