{
	 "smiles": "C1COCCOCCOCCN1", 
	 "Tm": 327.15, 
	 "num_atms": 29, 
	 "gaussian": { 
		 "optdone": 1, 
		 "sigma_profile": "yes", 
		 "theory": "DFT", 
		 "functional": "B3LYP", 
		 "basiset": "6-31G**", 
		 "properties": { 
			 "R2extent": 2382.321, 
			 "electric_dipole_moment_norm": 2.94824647884, 
			 "electric_quadrupole_moment_norm": 7.57221438748, 
			 "total_energy": -595.456474727, 
			 "HOMO_LUMO_gap": 0.27582, 
			 "cosmo_polarized_energy": -10.24, 
			 "cosmo_cavitation_energy": 27.38, 
			 "cosmo_dispersion_energy": -20.83, 
			 "cosmo_repulsion_energy": 1.64, 
			 "cosmo_total_nonelectrostatic_energy": 8.19, 
			 "SMD_solvation_energy": 2.27 
		},
		"coords": [
			{
				"x": 2.3729273547,
				"y": 0.0081550853,
				"z": -0.0670852522,
				"element": "C" 
			},
			{
				"x": 2.5146114243,
				"y": 0.7054143579,
				"z": -1.428703102,
				"element": "C" 
			},
			{
				"x": 2.3470773625,
				"y": -0.2409460893,
				"z": -2.4901342675,
				"element": "O" 
			},
			{
				"x": 1.1557047915,
				"y": -0.1336382791,
				"z": -3.241819399,
				"element": "C" 
			},
			{
				"x": -0.1284688911,
				"y": -0.5192710816,
				"z": -2.5081142657,
				"element": "C" 
			},
			{
				"x": -0.4896257713,
				"y": 0.5449162105,
				"z": -1.6385543914,
				"element": "O" 
			},
			{
				"x": -1.675298721,
				"y": 0.3757518097,
				"z": -0.8881416705,
				"element": "C" 
			},
			{
				"x": -1.6101265091,
				"y": -0.6997087388,
				"z": 0.2074374632,
				"element": "C" 
			},
			{
				"x": -0.4455819325,
				"y": -0.6937473748,
				"z": 1.0076782653,
				"element": "O" 
			},
			{
				"x": -0.2063983108,
				"y": 0.4599630157,
				"z": 1.811784602,
				"element": "C" 
			},
			{
				"x": 0.8051628362,
				"y": 1.4579149593,
				"z": 1.2162439892,
				"element": "C" 
			},
			{
				"x": 2.1732224248,
				"y": 0.9844746836,
				"z": 1.0143235345,
				"element": "N" 
			},
			{
				"x": 1.5676953837,
				"y": -0.7295870055,
				"z": -0.1325121477,
				"element": "H" 
			},
			{
				"x": 3.2967963118,
				"y": -0.5419271019,
				"z": 0.1443064804,
				"element": "H" 
			},
			{
				"x": 1.7859040079,
				"y": 1.5167548292,
				"z": -1.5174945768,
				"element": "H" 
			},
			{
				"x": 3.5156049529,
				"y": 1.142377746,
				"z": -1.528373053,
				"element": "H" 
			},
			{
				"x": 1.0278432006,
				"y": 0.8846660004,
				"z": -3.643072269,
				"element": "H" 
			},
			{
				"x": 1.2809144814,
				"y": -0.8165633162,
				"z": -4.089999671,
				"element": "H" 
			},
			{
				"x": -0.9302882138,
				"y": -0.6891185926,
				"z": -3.2480532195,
				"element": "H" 
			},
			{
				"x": 0.0341930867,
				"y": -1.456239983,
				"z": -1.9575729805,
				"element": "H" 
			},
			{
				"x": -1.8692316705,
				"y": 1.3563381287,
				"z": -0.4405093702,
				"element": "H" 
			},
			{
				"x": -2.5327960112,
				"y": 0.1410016836,
				"z": -1.5430835402,
				"element": "H" 
			},
			{
				"x": -2.5194757593,
				"y": -0.5932387871,
				"z": 0.8253298455,
				"element": "H" 
			},
			{
				"x": -1.6387634649,
				"y": -1.6997321795,
				"z": -0.2375060946,
				"element": "H" 
			},
			{
				"x": 0.1846139443,
				"y": 0.0826697239,
				"z": 2.766954489,
				"element": "H" 
			},
			{
				"x": -1.1525709526,
				"y": 0.9810720639,
				"z": 2.0344041649,
				"element": "H" 
			},
			{
				"x": 0.4300413955,
				"y": 1.8347064081,
				"z": 0.2613467687,
				"element": "H" 
			},
			{
				"x": 0.8409009876,
				"y": 2.3159905442,
				"z": 1.9035986861,
				"element": "H" 
			},
			{
				"x": 2.539112262,
				"y": 0.6137512795,
				"z": 1.8861209821,
				"element": "H" 
			}
		],
		 "valence_orbital": [ 
			{
				"type": "occ",
				"energy": -0.29117,
				"method": "rhf"
			},
			{
				"type": "occ",
				"energy": -0.27536,
				"method": "rhf"
			},
			{
				"type": "occ",
				"energy": -0.25315,
				"method": "rhf"
			},
			{
				"type": "occ",
				"energy": -0.24017,
				"method": "rhf"
			},
			{
				"type": "occ",
				"energy": -0.20151,
				"method": "rhf"
			},
			{
				"type": "unocc",
				"energy": 0.07431,
				"method": "rhf"
			},
			{
				"type": "unocc",
				"energy": 0.09379,
				"method": "rhf"
			},
			{
				"type": "unocc",
				"energy": 0.10067,
				"method": "rhf"
			},
			{
				"type": "unocc",
				"energy": 0.10742,
				"method": "rhf"
			},
			{
				"type": "unocc",
				"energy": 0.12297,
				"method": "rhf"
			}
		],
		"cosmo_sigma_profile": { 
			"-0.025": 0.0,
			"-0.024": 0.0,
			"-0.023": 0.0,
			"-0.022": 0.0,
			"-0.021": 0.0,
			"-0.02": 0.0,
			"-0.019": 0.0,
			"-0.018": 0.0,
			"-0.017": 0.0,
			"-0.016": 0.0,
			"-0.015": 0.0,
			"-0.014": 0.0,
			"-0.013": 0.0,
			"-0.012": 0.0,
			"-0.011": 0.0,
			"-0.01": 0.204237981728,
			"-0.009": 1.5555053884,
			"-0.008": 0.876032725732,
			"-0.007": 1.83971000876,
			"-0.006": 1.86692681113,
			"-0.005": 9.72228659316,
			"-0.004": 35.5925875272,
			"-0.003": 34.0295246273,
			"-0.002": 27.0625380029,
			"-0.001": 18.477651461,
			"0.0": 12.6333987971,
			"0.001": 9.19361811962,
			"0.002": 8.92510254723,
			"0.003": 6.06823612168,
			"0.004": 5.65900803787,
			"0.005": 4.90149292585,
			"0.006": 4.625504617,
			"0.007": 3.98504023107,
			"0.008": 3.76415120741,
			"0.009": 4.31864818074,
			"0.01": 2.9615564954,
			"0.011": 3.04358036332,
			"0.012": 2.78136780836,
			"0.013": 3.14542209258,
			"0.014": 1.90293951996,
			"0.015": 0.533407194372,
			"0.016": 0.333180439164,
			"0.017": 0.612188071243,
			"0.018": 0.192356364729,
			"0.019": 0.0,
			"0.02": 0.0,
			"0.021": 0.0,
			"0.022": 0.0,
			"0.023": 0.0,
			"0.024": 0.0,
			"0.025": 0.0
		}
	}
}
