{
	 "smiles": "CC1=C(C=O)N2C=CC=CC2=C1C=O", 
	 "Tm": 488.15, 
	 "num_atms": 23, 
	 "gaussian": { 
		 "optdone": 1, 
		 "sigma_profile": "yes", 
		 "theory": "DFT", 
		 "functional": "B3LYP", 
		 "basiset": "6-31G**", 
		 "properties": { 
			 "R2extent": 2723.903, 
			 "electric_dipole_moment_norm": 3.31550580757, 
			 "electric_quadrupole_moment_norm": 15.4485077438, 
			 "total_energy": -629.784222962, 
			 "HOMO_LUMO_gap": 0.1588, 
			 "cosmo_polarized_energy": -12.44, 
			 "cosmo_cavitation_energy": 27.2, 
			 "cosmo_dispersion_energy": -19.83, 
			 "cosmo_repulsion_energy": 1.5, 
			 "cosmo_total_nonelectrostatic_energy": 8.88, 
			 "SMD_solvation_energy": 6.88 
		},
		"coords": [
			{
				"x": 3.1974804025,
				"y": 0.9663592443,
				"z": 0.3828652984,
				"element": "C" 
			},
			{
				"x": 1.7562645961,
				"y": 0.5874631597,
				"z": 0.2327644388,
				"element": "C" 
			},
			{
				"x": 0.7030503323,
				"y": 0.9358840267,
				"z": 1.0896141822,
				"element": "C" 
			},
			{
				"x": 0.7313495936,
				"y": 1.7225908445,
				"z": 2.2970935737,
				"element": "C" 
			},
			{
				"x": -0.2367738754,
				"y": 1.9920554767,
				"z": 3.0065865195,
				"element": "O" 
			},
			{
				"x": -0.4767170108,
				"y": 0.3698485126,
				"z": 0.5712500815,
				"element": "N" 
			},
			{
				"x": -1.7522641185,
				"y": 0.442779988,
				"z": 1.0695465888,
				"element": "C" 
			},
			{
				"x": -2.769787412,
				"y": -0.1881473978,
				"z": 0.4019921709,
				"element": "C" 
			},
			{
				"x": -2.5030464896,
				"y": -0.9063358353,
				"z": -0.7886743439,
				"element": "C" 
			},
			{
				"x": -1.2178330322,
				"y": -0.974322178,
				"z": -1.2822720321,
				"element": "C" 
			},
			{
				"x": -0.1718090767,
				"y": -0.3261237493,
				"z": -0.5966082222,
				"element": "C" 
			},
			{
				"x": 1.2250135804,
				"y": -0.1972854779,
				"z": -0.8196348993,
				"element": "C" 
			},
			{
				"x": 1.9529598981,
				"y": -0.7757565989,
				"z": -1.9334705223,
				"element": "C" 
			},
			{
				"x": 3.1575651185,
				"y": -0.6620460011,
				"z": -2.1216356264,
				"element": "O" 
			},
			{
				"x": 3.822594944,
				"y": 0.0703017601,
				"z": 0.4355347303,
				"element": "H" 
			},
			{
				"x": 3.5398990271,
				"y": 1.5158302039,
				"z": -0.4987875128,
				"element": "H" 
			},
			{
				"x": 3.3765974279,
				"y": 1.5753400246,
				"z": 1.2708003858,
				"element": "H" 
			},
			{
				"x": 1.7392659204,
				"y": 2.0935736894,
				"z": 2.5664547369,
				"element": "H" 
			},
			{
				"x": -1.8556623978,
				"y": 1.0130297238,
				"z": 1.9821588437,
				"element": "H" 
			},
			{
				"x": -3.7751080345,
				"y": -0.1262021721,
				"z": 0.8016280594,
				"element": "H" 
			},
			{
				"x": -3.3129127438,
				"y": -1.4035954765,
				"z": -1.3124437767,
				"element": "H" 
			},
			{
				"x": -0.9935241418,
				"y": -1.5190297926,
				"z": -2.1920197935,
				"element": "H" 
			},
			{
				"x": 1.332097492,
				"y": -1.3600119747,
				"z": -2.6489428806,
				"element": "H" 
			}
		],
		 "valence_orbital": [ 
			{
				"type": "occ",
				"energy": -0.31678,
				"method": "rhf"
			},
			{
				"type": "occ",
				"energy": -0.25755,
				"method": "rhf"
			},
			{
				"type": "occ",
				"energy": -0.25703,
				"method": "rhf"
			},
			{
				"type": "occ",
				"energy": -0.2452,
				"method": "rhf"
			},
			{
				"type": "occ",
				"energy": -0.22051,
				"method": "rhf"
			},
			{
				"type": "unocc",
				"energy": -0.06171,
				"method": "rhf"
			},
			{
				"type": "unocc",
				"energy": -0.05446,
				"method": "rhf"
			},
			{
				"type": "unocc",
				"energy": -0.03299,
				"method": "rhf"
			},
			{
				"type": "unocc",
				"energy": 0.04826,
				"method": "rhf"
			},
			{
				"type": "unocc",
				"energy": 0.07695,
				"method": "rhf"
			}
		],
		"cosmo_sigma_profile": { 
			"-0.025": 0.0,
			"-0.024": 0.0,
			"-0.023": 0.0,
			"-0.022": 0.0,
			"-0.021": 0.0,
			"-0.02": 0.0,
			"-0.019": 0.0,
			"-0.018": 0.0,
			"-0.017": 0.0,
			"-0.016": 0.0,
			"-0.015": 0.0,
			"-0.014": 0.0,
			"-0.013": 0.0,
			"-0.012": 0.0,
			"-0.011": 0.0,
			"-0.01": 0.0,
			"-0.009": 0.35412956945,
			"-0.008": 5.73985039227,
			"-0.007": 12.2367656114,
			"-0.006": 13.2669558103,
			"-0.005": 12.8068054107,
			"-0.004": 12.5788523564,
			"-0.003": 14.1525316045,
			"-0.002": 19.9510930962,
			"-0.001": 25.8109699854,
			"0.0": 21.2876664299,
			"0.001": 20.8408253488,
			"0.002": 15.5569116534,
			"0.003": 4.27137289127,
			"0.004": 3.2151795775,
			"0.005": 3.21074220385,
			"0.006": 3.23012609207,
			"0.007": 2.764657319,
			"0.008": 3.33641353427,
			"0.009": 3.604869351,
			"0.01": 3.63532866222,
			"0.011": 4.58469501758,
			"0.012": 5.788316508,
			"0.013": 4.99262550742,
			"0.014": 1.60714292485,
			"0.015": 0.0541660512462,
			"0.016": 0.0,
			"0.017": 0.0,
			"0.018": 0.0,
			"0.019": 0.0,
			"0.02": 0.0,
			"0.021": 0.0,
			"0.022": 0.0,
			"0.023": 0.0,
			"0.024": 0.0,
			"0.0": 0.0
		}
	}
}
