{
	 "smiles": "NS(=O)(=O)C1=CC=C(SC2=CC=C(Cl)C=C2)S1", 
	 "Tm": 407.15, 
	 "num_atms": 25, 
	 "gaussian": { 
		 "optdone": 1, 
		 "sigma_profile": "yes", 
		 "theory": "DFT", 
		 "functional": "B3LYP", 
		 "basiset": "6-31G**", 
		 "properties": { 
			 "R2extent": 9611.8269, 
			 "electric_dipole_moment_norm": 3.34207636208, 
			 "electric_quadrupole_moment_norm": 19.702959548, 
			 "total_energy": -2245.74482185, 
			 "HOMO_LUMO_gap": 0.16518, 
			 "cosmo_polarized_energy": -16.59, 
			 "cosmo_cavitation_energy": 36.94, 
			 "cosmo_dispersion_energy": -27.68, 
			 "cosmo_repulsion_energy": 2.05, 
			 "cosmo_total_nonelectrostatic_energy": 11.32, 
			 "SMD_solvation_energy": 4.71 
		},
		"coords": [
			{
				"x": -1.0463783585,
				"y": -2.1931778369,
				"z": -5.8035175092,
				"element": "N" 
			},
			{
				"x": -2.1314438387,
				"y": -1.2254941948,
				"z": -4.9438424286,
				"element": "S" 
			},
			{
				"x": -2.9838396502,
				"y": -2.1586048423,
				"z": -4.2078897102,
				"element": "O" 
			},
			{
				"x": -2.6869107704,
				"y": -0.1908626013,
				"z": -5.8196665733,
				"element": "O" 
			},
			{
				"x": -1.0663619194,
				"y": -0.3803580444,
				"z": -3.804024362,
				"element": "C" 
			},
			{
				"x": -0.9364787042,
				"y": 0.9844603763,
				"z": -3.7446260069,
				"element": "C" 
			},
			{
				"x": -0.1000715278,
				"y": 1.3979298494,
				"z": -2.6722645476,
				"element": "C" 
			},
			{
				"x": 0.3898775552,
				"y": 0.3447349576,
				"z": -1.9328094272,
				"element": "C" 
			},
			{
				"x": 1.5423337648,
				"y": 0.4560867226,
				"z": -0.6005331998,
				"element": "S" 
			},
			{
				"x": 0.5766924195,
				"y": -0.055795508,
				"z": 0.8286171063,
				"element": "C" 
			},
			{
				"x": 1.2452895621,
				"y": -0.7503819322,
				"z": 1.8432488818,
				"element": "C" 
			},
			{
				"x": 0.5723120352,
				"y": -1.1110045219,
				"z": 3.0103566735,
				"element": "C" 
			},
			{
				"x": -0.7777750223,
				"y": -0.7912709849,
				"z": 3.1458734976,
				"element": "C" 
			},
			{
				"x": -1.6353026881,
				"y": -1.2580216509,
				"z": 4.6052708154,
				"element": "Cl" 
			},
			{
				"x": -1.4589877745,
				"y": -0.1085998722,
				"z": 2.1374363361,
				"element": "C" 
			},
			{
				"x": -0.7754614304,
				"y": 0.2695196915,
				"z": 0.9833290162,
				"element": "C" 
			},
			{
				"x": -0.1630539519,
				"y": -1.193084264,
				"z": -2.5626516422,
				"element": "S" 
			},
			{
				"x": -1.4745121449,
				"y": -3.1029224371,
				"z": -5.9570398759,
				"element": "H" 
			},
			{
				"x": -0.7829893785,
				"y": -1.7510221693,
				"z": -6.6806292654,
				"element": "H" 
			},
			{
				"x": -1.4402736649,
				"y": 1.647973431,
				"z": -4.4363516961,
				"element": "H" 
			},
			{
				"x": 0.1337171118,
				"y": 2.4307888142,
				"z": -2.4434414215,
				"element": "H" 
			},
			{
				"x": 2.2904157337,
				"y": -1.0183607569,
				"z": 1.7220622014,
				"element": "H" 
			},
			{
				"x": 1.0868563841,
				"y": -1.6490511161,
				"z": 3.7986999366,
				"element": "H" 
			},
			{
				"x": -2.5091688497,
				"y": 0.1332634882,
				"z": 2.2579107738,
				"element": "H" 
			},
			{
				"x": -1.2992848922,
				"y": 0.8117554025,
				"z": 0.2030824273,
				"element": "H" 
			}
		],
		 "valence_orbital": [ 
			{
				"type": "occ",
				"energy": -0.28934,
				"method": "rhf"
			},
			{
				"type": "occ",
				"energy": -0.2796,
				"method": "rhf"
			},
			{
				"type": "occ",
				"energy": -0.27384,
				"method": "rhf"
			},
			{
				"type": "occ",
				"energy": -0.2635,
				"method": "rhf"
			},
			{
				"type": "occ",
				"energy": -0.23091,
				"method": "rhf"
			},
			{
				"type": "unocc",
				"energy": -0.06573,
				"method": "rhf"
			},
			{
				"type": "unocc",
				"energy": -0.03171,
				"method": "rhf"
			},
			{
				"type": "unocc",
				"energy": -0.0257,
				"method": "rhf"
			},
			{
				"type": "unocc",
				"energy": 0.00484,
				"method": "rhf"
			},
			{
				"type": "unocc",
				"energy": 0.01389,
				"method": "rhf"
			}
		],
		"cosmo_sigma_profile": { 
			"-0.025": 0.0,
			"-0.024": 0.0,
			"-0.023": 0.0,
			"-0.022": 0.0,
			"-0.021": 0.0,
			"-0.02": 0.0,
			"-0.019": 0.0,
			"-0.018": 0.0,
			"-0.017": 0.0,
			"-0.016": 0.0760658898713,
			"-0.015": 2.25885840439,
			"-0.014": 2.78961859418,
			"-0.013": 2.41473094576,
			"-0.012": 2.71951668403,
			"-0.011": 2.55480567611,
			"-0.01": 1.55493122738,
			"-0.009": 2.75993371377,
			"-0.008": 6.35821836896,
			"-0.007": 11.7226635237,
			"-0.006": 13.3698014407,
			"-0.005": 10.7395684877,
			"-0.004": 11.6406517399,
			"-0.003": 13.162503089,
			"-0.002": 18.9102180638,
			"-0.001": 22.6216610164,
			"0.0": 27.2815157041,
			"0.001": 31.4402772928,
			"0.002": 28.822645785,
			"0.003": 25.9797704514,
			"0.004": 17.2934442784,
			"0.005": 10.3860289906,
			"0.006": 5.22722743954,
			"0.007": 3.49123071499,
			"0.008": 3.6253828251,
			"0.009": 5.48978584437,
			"0.01": 10.1010814823,
			"0.011": 7.89974577453,
			"0.012": 0.525913721162,
			"0.013": 0.0,
			"0.014": 0.0,
			"0.015": 0.0,
			"0.016": 0.0,
			"0.017": 0.0,
			"0.018": 0.0,
			"0.019": 0.0,
			"0.02": 0.0,
			"0.021": 0.0,
			"0.022": 0.0,
			"0.023": 0.0,
			"0.024": 0.0,
			"0.025": 0.0
		}
	}
}
