{
	 "smiles": "CCCCOC1=CC=C(C=C1)C(O)=O", 
	 "Tm": 421.15, 
	 "num_atms": 28, 
	 "gaussian": { 
		 "optdone": 1, 
		 "sigma_profile": "yes", 
		 "theory": "DFT", 
		 "functional": "B3LYP", 
		 "basiset": "6-31G**", 
		 "properties": { 
			 "R2extent": 4743.758, 
			 "electric_dipole_moment_norm": 5.72525154819, 
			 "electric_quadrupole_moment_norm": 26.6208004656, 
			 "total_energy": -653.290890496, 
			 "HOMO_LUMO_gap": 0.19562, 
			 "cosmo_polarized_energy": -15.24, 
			 "cosmo_cavitation_energy": 31.44, 
			 "cosmo_dispersion_energy": -22.69, 
			 "cosmo_repulsion_energy": 1.81, 
			 "cosmo_total_nonelectrostatic_energy": 10.55, 
			 "SMD_solvation_energy": 6.56 
		},
		"coords": [
			{
				"x": 0.6869956571,
				"y": -2.8579358163,
				"z": -2.7616470875,
				"element": "C" 
			},
			{
				"x": 1.5420960669,
				"y": -3.0671451926,
				"z": -1.5050156087,
				"element": "C" 
			},
			{
				"x": 1.2946511981,
				"y": -2.0428130731,
				"z": -0.3845983693,
				"element": "C" 
			},
			{
				"x": 1.7541436095,
				"y": -0.6287279528,
				"z": -0.7434947256,
				"element": "C" 
			},
			{
				"x": 1.6516118145,
				"y": 0.2737098857,
				"z": 0.3665644842,
				"element": "O" 
			},
			{
				"x": 0.4704476754,
				"y": 0.877137064,
				"z": 0.6550898363,
				"element": "C" 
			},
			{
				"x": 0.4972051844,
				"y": 1.7511736521,
				"z": 1.7555913508,
				"element": "C" 
			},
			{
				"x": -0.6509079467,
				"y": 2.428595404,
				"z": 2.1376864303,
				"element": "C" 
			},
			{
				"x": -1.8576134689,
				"y": 2.2564318427,
				"z": 1.4372198107,
				"element": "C" 
			},
			{
				"x": -1.8671734416,
				"y": 1.3993264503,
				"z": 0.3302296695,
				"element": "C" 
			},
			{
				"x": -0.726297811,
				"y": 0.7047680836,
				"z": -0.0594303299,
				"element": "C" 
			},
			{
				"x": -3.1277405054,
				"y": 2.9603557893,
				"z": 1.783698832,
				"element": "C" 
			},
			{
				"x": -3.2118451713,
				"y": 3.5018124725,
				"z": 3.0319075175,
				"element": "O" 
			},
			{
				"x": -4.0630937446,
				"y": 3.0656524268,
				"z": 1.0232848167,
				"element": "O" 
			},
			{
				"x": 0.9043098679,
				"y": -1.9057270225,
				"z": -3.2572181943,
				"element": "H" 
			},
			{
				"x": 0.8671071534,
				"y": -3.6516004361,
				"z": -3.4935395485,
				"element": "H" 
			},
			{
				"x": -0.381678321,
				"y": -2.8697944573,
				"z": -2.517966919,
				"element": "H" 
			},
			{
				"x": 1.34516067,
				"y": -4.0677831113,
				"z": -1.1026173725,
				"element": "H" 
			},
			{
				"x": 2.6062445532,
				"y": -3.0571410214,
				"z": -1.7779509891,
				"element": "H" 
			},
			{
				"x": 0.2299478566,
				"y": -2.0324133262,
				"z": -0.1206288307,
				"element": "H" 
			},
			{
				"x": 1.8367695418,
				"y": -2.3459218701,
				"z": 0.5186954505,
				"element": "H" 
			},
			{
				"x": 2.8202126344,
				"y": -0.6340604338,
				"z": -0.9909109768,
				"element": "H" 
			},
			{
				"x": 1.2183029028,
				"y": -0.2217090618,
				"z": -1.6083692044,
				"element": "H" 
			},
			{
				"x": 1.4355394246,
				"y": 1.8885749545,
				"z": 2.2820946914,
				"element": "H" 
			},
			{
				"x": -0.5818034598,
				"y": 3.1274437205,
				"z": 2.9684350126,
				"element": "H" 
			},
			{
				"x": -2.795153514,
				"y": 1.2834254157,
				"z": -0.2195637264,
				"element": "H" 
			},
			{
				"x": -0.7781299238,
				"y": 0.0366942298,
				"z": -0.9102685844,
				"element": "H" 
			},
			{
				"x": -2.4739085025,
				"y": 3.1971713839,
				"z": 3.5771225649,
				"element": "H" 
			}
		],
		 "valence_orbital": [ 
			{
				"type": "occ",
				"energy": -0.32448,
				"method": "rhf"
			},
			{
				"type": "occ",
				"energy": -0.30537,
				"method": "rhf"
			},
			{
				"type": "occ",
				"energy": -0.26908,
				"method": "rhf"
			},
			{
				"type": "occ",
				"energy": -0.26508,
				"method": "rhf"
			},
			{
				"type": "occ",
				"energy": -0.23302,
				"method": "rhf"
			},
			{
				"type": "unocc",
				"energy": -0.0374,
				"method": "rhf"
			},
			{
				"type": "unocc",
				"energy": -0.01905,
				"method": "rhf"
			},
			{
				"type": "unocc",
				"energy": 0.05811,
				"method": "rhf"
			},
			{
				"type": "unocc",
				"energy": 0.06027,
				"method": "rhf"
			},
			{
				"type": "unocc",
				"energy": 0.07114,
				"method": "rhf"
			}
		],
		"cosmo_sigma_profile": { 
			"-0.025": 0.0,
			"-0.024": 0.0,
			"-0.023": 0.0,
			"-0.022": 0.0,
			"-0.021": 0.0,
			"-0.02": 0.0,
			"-0.019": 0.022359131604,
			"-0.018": 0.723257249543,
			"-0.017": 0.93833568036,
			"-0.016": 0.904468465709,
			"-0.015": 1.04950777264,
			"-0.014": 1.30603378735,
			"-0.013": 1.06014659362,
			"-0.012": 0.517042177119,
			"-0.011": 1.34202455029,
			"-0.01": 1.26342821027,
			"-0.009": 1.15408661743,
			"-0.008": 1.14144045898,
			"-0.007": 3.9243321271,
			"-0.006": 9.1748183668,
			"-0.005": 13.0451421343,
			"-0.004": 13.4080942526,
			"-0.003": 23.200640855,
			"-0.002": 25.6144552309,
			"-0.001": 24.7753264686,
			"0.0": 23.5193931991,
			"0.001": 21.0359610186,
			"0.002": 14.8515713727,
			"0.003": 16.691011212,
			"0.004": 9.30619182997,
			"0.005": 3.66670851036,
			"0.006": 4.00932317372,
			"0.007": 3.04307383855,
			"0.008": 4.32166104495,
			"0.009": 3.99338177901,
			"0.01": 4.57578312858,
			"0.011": 5.27113941747,
			"0.012": 5.88753996386,
			"0.013": 2.68796594424,
			"0.014": 0.521310952713,
			"0.015": 0.0,
			"0.016": 0.0,
			"0.017": 0.0,
			"0.018": 0.0,
			"0.019": 0.0,
			"0.02": 0.0,
			"0.021": 0.0,
			"0.022": 0.0,
			"0.023": 0.0,
			"0.024": 0.0,
			"0.025": 0.0
		}
	}
}
