{
	 "smiles": "CCCCOC(=O)C(O)C(O)C(=O)OCCCC", 
	 "Tm": 295.15, 
	 "num_atms": 40, 
	 "gaussian": { 
		 "optdone": 1, 
		 "sigma_profile": "yes", 
		 "theory": "DFT", 
		 "functional": "B3LYP", 
		 "basiset": "6-31G**", 
		 "properties": { 
			 "R2extent": 6066.4627, 
			 "electric_dipole_moment_norm": 5.43543767327, 
			 "electric_quadrupole_moment_norm": 12.8391406235, 
			 "total_energy": -921.903701598, 
			 "HOMO_LUMO_gap": 0.24031, 
			 "cosmo_polarized_energy": -14.46, 
			 "cosmo_cavitation_energy": 42.08, 
			 "cosmo_dispersion_energy": -27.69, 
			 "cosmo_repulsion_energy": 2.23, 
			 "cosmo_total_nonelectrostatic_energy": 16.62, 
			 "SMD_solvation_energy": 7.93 
		},
		"coords": [
			{
				"x": 1.616449335,
				"y": 4.8132327614,
				"z": 0.585908766,
				"element": "C" 
			},
			{
				"x": 0.4654289876,
				"y": 4.2906190319,
				"z": -0.2831989258,
				"element": "C" 
			},
			{
				"x": -0.3579035203,
				"y": 3.1584047338,
				"z": 0.3556082187,
				"element": "C" 
			},
			{
				"x": 0.4398190271,
				"y": 1.8717985853,
				"z": 0.5380948122,
				"element": "C" 
			},
			{
				"x": -0.3673097624,
				"y": 0.84433405,
				"z": 1.1844603902,
				"element": "O" 
			},
			{
				"x": -1.1356962678,
				"y": 0.0816553875,
				"z": 0.3891321764,
				"element": "C" 
			},
			{
				"x": -1.2302018963,
				"y": 0.2125919198,
				"z": -0.8156024776,
				"element": "O" 
			},
			{
				"x": -1.9598527921,
				"y": -0.9519912578,
				"z": 1.1588259011,
				"element": "C" 
			},
			{
				"x": -2.6794572036,
				"y": -1.7372549692,
				"z": 0.2409108179,
				"element": "O" 
			},
			{
				"x": -1.1383576127,
				"y": -1.8877263371,
				"z": 2.0842536874,
				"element": "C" 
			},
			{
				"x": -0.4838603249,
				"y": -1.1915359287,
				"z": 3.1227092468,
				"element": "O" 
			},
			{
				"x": -0.1643724216,
				"y": -2.7701294472,
				"z": 1.2925453685,
				"element": "C" 
			},
			{
				"x": -0.1634335775,
				"y": -3.9779042466,
				"z": 1.3046242357,
				"element": "O" 
			},
			{
				"x": 0.7174781462,
				"y": -1.9986011396,
				"z": 0.6102196097,
				"element": "O" 
			},
			{
				"x": 1.6933318257,
				"y": -2.664082146,
				"z": -0.2338130527,
				"element": "C" 
			},
			{
				"x": 1.3219890315,
				"y": -2.5076923216,
				"z": -1.7048055869,
				"element": "C" 
			},
			{
				"x": 0.0406355815,
				"y": -3.2430851373,
				"z": -2.1195998192,
				"element": "C" 
			},
			{
				"x": -0.2789580189,
				"y": -3.069146609,
				"z": -3.6075206766,
				"element": "C" 
			},
			{
				"x": 1.2514915692,
				"y": 5.1530427854,
				"z": 1.5618746723,
				"element": "H" 
			},
			{
				"x": 2.3813034698,
				"y": 4.050128745,
				"z": 0.7654890009,
				"element": "H" 
			},
			{
				"x": 2.113840556,
				"y": 5.6611293941,
				"z": 0.1047393799,
				"element": "H" 
			},
			{
				"x": 0.8566147091,
				"y": 3.9529895434,
				"z": -1.2522426086,
				"element": "H" 
			},
			{
				"x": -0.216958247,
				"y": 5.1186754556,
				"z": -0.5076598207,
				"element": "H" 
			},
			{
				"x": -1.2233301236,
				"y": 2.9370090597,
				"z": -0.2777745012,
				"element": "H" 
			},
			{
				"x": -0.7420132399,
				"y": 3.4800388457,
				"z": 1.3318363674,
				"element": "H" 
			},
			{
				"x": 1.287221176,
				"y": 2.0042264409,
				"z": 1.2126379939,
				"element": "H" 
			},
			{
				"x": 0.7930257773,
				"y": 1.4836179598,
				"z": -0.4201692446,
				"element": "H" 
			},
			{
				"x": -2.6340672774,
				"y": -0.3832664607,
				"z": 1.8203137829,
				"element": "H" 
			},
			{
				"x": -2.5730327584,
				"y": -1.3053676624,
				"z": -0.6240715134,
				"element": "H" 
			},
			{
				"x": -1.846526453,
				"y": -2.5739932202,
				"z": 2.5534144376,
				"element": "H" 
			},
			{
				"x": 0.0276388444,
				"y": -0.4777533527,
				"z": 2.7131387876,
				"element": "H" 
			},
			{
				"x": 2.6461147776,
				"y": -2.1744922687,
				"z": -0.0133020691,
				"element": "H" 
			},
			{
				"x": 1.7467648216,
				"y": -3.7136702331,
				"z": 0.0635199395,
				"element": "H" 
			},
			{
				"x": 1.2252668934,
				"y": -1.438822983,
				"z": -1.9350607032,
				"element": "H" 
			},
			{
				"x": 2.1709042708,
				"y": -2.8797307586,
				"z": -2.2956702408,
				"element": "H" 
			},
			{
				"x": 0.1400204,
				"y": -4.3092753001,
				"z": -1.8802906573,
				"element": "H" 
			},
			{
				"x": -0.7995124606,
				"y": -2.8749722684,
				"z": -1.5205116644,
				"element": "H" 
			},
			{
				"x": -1.1938699619,
				"y": -3.604079283,
				"z": -3.8815120252,
				"element": "H" 
			},
			{
				"x": -0.4230452447,
				"y": -2.0124146554,
				"z": -3.8601262454,
				"element": "H" 
			},
			{
				"x": 0.531519965,
				"y": -3.4531067129,
				"z": -4.2381257598,
				"element": "H" 
			}
		],
		 "valence_orbital": [ 
			{
				"type": "occ",
				"energy": -0.30934,
				"method": "rhf"
			},
			{
				"type": "occ",
				"energy": -0.30145,
				"method": "rhf"
			},
			{
				"type": "occ",
				"energy": -0.29604,
				"method": "rhf"
			},
			{
				"type": "occ",
				"energy": -0.2861,
				"method": "rhf"
			},
			{
				"type": "occ",
				"energy": -0.25422,
				"method": "rhf"
			},
			{
				"type": "unocc",
				"energy": -0.01391,
				"method": "rhf"
			},
			{
				"type": "unocc",
				"energy": 0.00734,
				"method": "rhf"
			},
			{
				"type": "unocc",
				"energy": 0.06603,
				"method": "rhf"
			},
			{
				"type": "unocc",
				"energy": 0.07533,
				"method": "rhf"
			},
			{
				"type": "unocc",
				"energy": 0.08639,
				"method": "rhf"
			}
		],
		"cosmo_sigma_profile": { 
			"-0.025": 0.0,
			"-0.024": 0.0,
			"-0.023": 0.0,
			"-0.022": 0.0,
			"-0.021": 0.0,
			"-0.02": 0.0,
			"-0.019": 0.0,
			"-0.018": 0.0,
			"-0.017": 0.0,
			"-0.016": 0.0,
			"-0.015": 0.0,
			"-0.014": 0.0,
			"-0.013": 0.0,
			"-0.012": 0.259425172324,
			"-0.011": 0.798910286874,
			"-0.01": 0.598274974396,
			"-0.009": 1.06985572689,
			"-0.008": 2.92866453801,
			"-0.007": 7.11230702775,
			"-0.006": 8.5587005078,
			"-0.005": 15.0502563933,
			"-0.004": 20.2492020311,
			"-0.003": 38.4491860021,
			"-0.002": 41.6370725151,
			"-0.001": 39.0983520716,
			"0.0": 36.1004041331,
			"0.001": 31.8392477433,
			"0.002": 16.9460748856,
			"0.003": 12.3244885504,
			"0.004": 6.07116591676,
			"0.005": 5.9228285236,
			"0.006": 3.89166909011,
			"0.007": 6.01113271546,
			"0.008": 4.88711607559,
			"0.009": 5.43947820818,
			"0.01": 6.48516980283,
			"0.011": 7.25929524996,
			"0.012": 5.84258086297,
			"0.013": 1.79506602303,
			"0.014": 0.0,
			"0.015": 0.0,
			"0.016": 0.0,
			"0.017": 0.0,
			"0.018": 0.0,
			"0.019": 0.0,
			"0.02": 0.0,
			"0.021": 0.0,
			"0.022": 0.0,
			"0.023": 0.0,
			"0.024": 0.0,
			"0.025": 0.0
		}
	}
}
