{
	 "smiles": "BrC(Br)(Br)C=O", 
	 "Tm": 215.65, 
	 "num_atms": 7, 
	 "gaussian": { 
		 "optdone": 1, 
		 "sigma_profile": "yes", 
		 "theory": "DFT", 
		 "functional": "B3LYP", 
		 "basiset": "6-31G**", 
		 "properties": { 
			 "R2extent": 4832.9815, 
			 "electric_dipole_moment_norm": 1.50916208871, 
			 "electric_quadrupole_moment_norm": 2.87348260304, 
			 "total_energy": -7866.20874917, 
			 "HOMO_LUMO_gap": 0.20838, 
			 "cosmo_polarized_energy": -5.09, 
			 "cosmo_cavitation_energy": 18.51, 
			 "cosmo_dispersion_energy": -14.58, 
			 "cosmo_repulsion_energy": 1.24, 
			 "cosmo_total_nonelectrostatic_energy": 5.18, 
			 "SMD_solvation_energy": 0.93 
		},
		"coords": [
			{
				"x": -1.7051435794,
				"y": -2.3470115648,
				"z": -1.3510817357,
				"element": "Br" 
			},
			{
				"x": -0.9610707182,
				"y": -0.6601359487,
				"z": -2.0468126145,
				"element": "C" 
			},
			{
				"x": -2.2375529531,
				"y": 0.1728029864,
				"z": -3.2957329891,
				"element": "Br" 
			},
			{
				"x": 0.7599886405,
				"y": -0.9405076816,
				"z": -2.881276385,
				"element": "Br" 
			},
			{
				"x": -0.8800157219,
				"y": 0.2916459795,
				"z": -0.8357265175,
				"element": "C" 
			},
			{
				"x": 0.1331238044,
				"y": 0.8039358446,
				"z": -0.4488657297,
				"element": "O" 
			},
			{
				"x": -1.8703294724,
				"y": 0.4437703846,
				"z": -0.3670040285,
				"element": "H" 
			}
		],
		 "valence_orbital": [ 
			{
				"type": "occ",
				"energy": -0.32621,
				"method": "rhf"
			},
			{
				"type": "occ",
				"energy": -0.30693,
				"method": "rhf"
			},
			{
				"type": "occ",
				"energy": -0.30245,
				"method": "rhf"
			},
			{
				"type": "occ",
				"energy": -0.29395,
				"method": "rhf"
			},
			{
				"type": "occ",
				"energy": -0.29079,
				"method": "rhf"
			},
			{
				"type": "unocc",
				"energy": -0.08241,
				"method": "rhf"
			},
			{
				"type": "unocc",
				"energy": -0.08067,
				"method": "rhf"
			},
			{
				"type": "unocc",
				"energy": -0.02415,
				"method": "rhf"
			},
			{
				"type": "unocc",
				"energy": 0.00139,
				"method": "rhf"
			},
			{
				"type": "unocc",
				"energy": 0.10716,
				"method": "rhf"
			}
		],
		"cosmo_sigma_profile": { 
			"-0.025": 0.0,
			"-0.024": 0.0,
			"-0.023": 0.0,
			"-0.022": 0.0,
			"-0.021": 0.0,
			"-0.02": 0.0,
			"-0.019": 0.0,
			"-0.018": 0.0,
			"-0.017": 0.0,
			"-0.016": 0.0,
			"-0.015": 0.0,
			"-0.014": 0.0,
			"-0.013": 0.0,
			"-0.012": 0.0,
			"-0.011": 0.022100625566,
			"-0.01": 1.98046163985,
			"-0.009": 2.50249465204,
			"-0.008": 2.2911486052,
			"-0.007": 4.46143787049,
			"-0.006": 6.36949167644,
			"-0.005": 6.22072229102,
			"-0.004": 9.48331367461,
			"-0.003": 10.3834230554,
			"-0.002": 7.29040769418,
			"-0.001": 11.2821487484,
			"0.0": 14.0732603105,
			"0.001": 17.1118838585,
			"0.002": 31.1967167258,
			"0.003": 14.4445425898,
			"0.004": 2.92101970404,
			"0.005": 2.19061305435,
			"0.006": 2.11605068874,
			"0.007": 2.99213711076,
			"0.008": 4.05110538548,
			"0.009": 4.22978403372,
			"0.01": 0.615825474095,
			"0.011": 0.0,
			"0.012": 0.0,
			"0.013": 0.0,
			"0.014": 0.0,
			"0.015": 0.0,
			"0.016": 0.0,
			"0.017": 0.0,
			"0.018": 0.0,
			"0.019": 0.0,
			"0.02": 0.0,
			"0.021": 0.0,
			"0.022": 0.0,
			"0.023": 0.0,
			"0.024": 0.0,
			"0.025": 0.0
		}
	}
}
