{
	 "smiles": "CN1C=NC2=C1C=CC(C=O)=C2", 
	 "Tm": 373.15, 
	 "num_atms": 20, 
	 "gaussian": { 
		 "optdone": 1, 
		 "sigma_profile": "yes", 
		 "theory": "DFT", 
		 "functional": "B3LYP", 
		 "basiset": "6-31G**", 
		 "properties": { 
			 "R2extent": 2235.2743, 
			 "electric_dipole_moment_norm": 5.98860557893, 
			 "electric_quadrupole_moment_norm": 12.7055948475, 
			 "total_energy": -532.506963433, 
			 "HOMO_LUMO_gap": 0.18764, 
			 "cosmo_polarized_energy": -14.8, 
			 "cosmo_cavitation_energy": 24.59, 
			 "cosmo_dispersion_energy": -17.99, 
			 "cosmo_repulsion_energy": 1.39, 
			 "cosmo_total_nonelectrostatic_energy": 7.99, 
			 "SMD_solvation_energy": 3.68 
		},
		"coords": [
			{
				"x": -3.3952468234,
				"y": 0.4371660841,
				"z": -0.5521442193,
				"element": "C" 
			},
			{
				"x": -2.0798505048,
				"y": 1.0089103459,
				"z": -0.3332591656,
				"element": "N" 
			},
			{
				"x": -1.7623271837,
				"y": 2.3484006395,
				"z": -0.2170545809,
				"element": "C" 
			},
			{
				"x": -0.492078825,
				"y": 2.5850992924,
				"z": -0.0224377064,
				"element": "N" 
			},
			{
				"x": 0.0934248379,
				"y": 1.3262819686,
				"z": -0.0049426656,
				"element": "C" 
			},
			{
				"x": -0.8900338229,
				"y": 0.3218854883,
				"z": -0.1989437004,
				"element": "C" 
			},
			{
				"x": -0.5827279487,
				"y": -1.0456026627,
				"z": -0.2271730332,
				"element": "C" 
			},
			{
				"x": 0.7482937476,
				"y": -1.3894529802,
				"z": -0.0546196347,
				"element": "C" 
			},
			{
				"x": 1.7479071053,
				"y": -0.403292819,
				"z": 0.1407520053,
				"element": "C" 
			},
			{
				"x": 3.1531133844,
				"y": -0.8196039104,
				"z": 0.3203122291,
				"element": "C" 
			},
			{
				"x": 3.5453524176,
				"y": -1.9724439154,
				"z": 0.3155761986,
				"element": "O" 
			},
			{
				"x": 1.4290171144,
				"y": 0.9573031385,
				"z": 0.1669636009,
				"element": "C" 
			},
			{
				"x": -3.6734752509,
				"y": -0.2249199725,
				"z": 0.2740046393,
				"element": "H" 
			},
			{
				"x": -3.4208862079,
				"y": -0.1319036927,
				"z": -1.486915898,
				"element": "H" 
			},
			{
				"x": -4.1269947265,
				"y": 1.2447148914,
				"z": -0.6144556358,
				"element": "H" 
			},
			{
				"x": -2.5350005225,
				"y": 3.1046458872,
				"z": -0.2879520469,
				"element": "H" 
			},
			{
				"x": -1.3456797932,
				"y": -1.8034121809,
				"z": -0.3765679536,
				"element": "H" 
			},
			{
				"x": 1.0633727758,
				"y": -2.4276900896,
				"z": -0.0642851135,
				"element": "H" 
			},
			{
				"x": 3.8656094661,
				"y": 0.0236877138,
				"z": 0.4666869895,
				"element": "H" 
			},
			{
				"x": 2.1965107604,
				"y": 1.7118267737,
				"z": 0.3168556913,
				"element": "H" 
			}
		],
		 "valence_orbital": [ 
			{
				"type": "occ",
				"energy": -0.30926,
				"method": "rhf"
			},
			{
				"type": "occ",
				"energy": -0.28181,
				"method": "rhf"
			},
			{
				"type": "occ",
				"energy": -0.24617,
				"method": "rhf"
			},
			{
				"type": "occ",
				"energy": -0.24027,
				"method": "rhf"
			},
			{
				"type": "occ",
				"energy": -0.23754,
				"method": "rhf"
			},
			{
				"type": "unocc",
				"energy": -0.0499,
				"method": "rhf"
			},
			{
				"type": "unocc",
				"energy": -0.02444,
				"method": "rhf"
			},
			{
				"type": "unocc",
				"energy": 0.03928,
				"method": "rhf"
			},
			{
				"type": "unocc",
				"energy": 0.06322,
				"method": "rhf"
			},
			{
				"type": "unocc",
				"energy": 0.07251,
				"method": "rhf"
			}
		],
		"cosmo_sigma_profile": { 
			"-0.025": 0.0,
			"-0.024": 0.0,
			"-0.023": 0.0,
			"-0.022": 0.0,
			"-0.021": 0.0,
			"-0.02": 0.0,
			"-0.019": 0.0,
			"-0.018": 0.0,
			"-0.017": 0.0,
			"-0.016": 0.0,
			"-0.015": 0.0,
			"-0.014": 0.0,
			"-0.013": 0.0,
			"-0.012": 0.0,
			"-0.011": 0.0118460844621,
			"-0.01": 2.08911189333,
			"-0.009": 3.41402338492,
			"-0.008": 3.2740382277,
			"-0.007": 10.3678315878,
			"-0.006": 18.1088779539,
			"-0.005": 16.3666797216,
			"-0.004": 15.8928556538,
			"-0.003": 14.1981936171,
			"-0.002": 9.43133458742,
			"-0.001": 10.7985835928,
			"0.0": 9.90978836851,
			"0.001": 9.4383080115,
			"0.002": 13.0503013835,
			"0.003": 16.8993610729,
			"0.004": 7.69724640989,
			"0.005": 4.07727535203,
			"0.006": 2.9640056717,
			"0.007": 2.78314934732,
			"0.008": 3.44149047836,
			"0.009": 3.60498651543,
			"0.01": 2.93507011127,
			"0.011": 4.55657506596,
			"0.012": 5.65797434417,
			"0.013": 2.41260782754,
			"0.014": 1.09281737878,
			"0.015": 1.06836998742,
			"0.016": 1.12215470706,
			"0.017": 0.682044874493,
			"0.018": 0.0462384133395,
			"0.019": 0.0,
			"0.02": 0.0,
			"0.021": 0.0,
			"0.022": 0.0,
			"0.023": 0.0,
			"0.024": 0.0,
			"0.025": 0.0
		}
	}
}
