{
	 "smiles": "CS(=O)(=O)CC1=CC=C(C=C1)S(Cl)(=O)=O", 
	 "Tm": 401.15, 
	 "num_atms": 24, 
	 "gaussian": { 
		 "optdone": 1, 
		 "sigma_profile": "yes", 
		 "theory": "DFT", 
		 "functional": "B3LYP", 
		 "basiset": "6-31G**", 
		 "properties": { 
			 "R2extent": 6780.5704, 
			 "electric_dipole_moment_norm": 3.97862794189, 
			 "electric_quadrupole_moment_norm": 32.0270212254, 
			 "total_energy": -1867.61023503, 
			 "HOMO_LUMO_gap": 0.18765, 
			 "cosmo_polarized_energy": -21.85, 
			 "cosmo_cavitation_energy": 33.21, 
			 "cosmo_dispersion_energy": -24.47, 
			 "cosmo_repulsion_energy": 1.83, 
			 "cosmo_total_nonelectrostatic_energy": 10.57, 
			 "SMD_solvation_energy": 3.93 
		},
		"coords": [
			{
				"x": -2.233021799,
				"y": -1.9077299828,
				"z": 2.0202807189,
				"element": "C" 
			},
			{
				"x": -0.6514521098,
				"y": -2.6556485417,
				"z": 2.4699999538,
				"element": "S" 
			},
			{
				"x": -0.8219923521,
				"y": -4.114610467,
				"z": 2.5059604399,
				"element": "O" 
			},
			{
				"x": -0.121622545,
				"y": -1.9311848519,
				"z": 3.6358225369,
				"element": "O" 
			},
			{
				"x": 0.4489044374,
				"y": -2.2997584766,
				"z": 1.0381022147,
				"element": "C" 
			},
			{
				"x": 0.6619522021,
				"y": -0.8409686296,
				"z": 0.7424992095,
				"element": "C" 
			},
			{
				"x": 0.1599500754,
				"y": -0.2837359177,
				"z": -0.4430399711,
				"element": "C" 
			},
			{
				"x": 0.355178848,
				"y": 1.0635410913,
				"z": -0.7391512708,
				"element": "C" 
			},
			{
				"x": 1.0559544868,
				"y": 1.8468926018,
				"z": 0.1766944793,
				"element": "C" 
			},
			{
				"x": 1.5614838017,
				"y": 1.3261999237,
				"z": 1.3690068963,
				"element": "C" 
			},
			{
				"x": 1.3604741536,
				"y": -0.0229976005,
				"z": 1.6461248009,
				"element": "C" 
			},
			{
				"x": 1.2958070309,
				"y": 3.5818415635,
				"z": -0.1819760582,
				"element": "S" 
			},
			{
				"x": 3.1533521106,
				"y": 3.5364672451,
				"z": -1.2297794166,
				"element": "Cl" 
			},
			{
				"x": 1.5461466226,
				"y": 4.3009722133,
				"z": 1.0601273213,
				"element": "O" 
			},
			{
				"x": 0.2944448959,
				"y": 4.014444235,
				"z": -1.1486089463,
				"element": "O" 
			},
			{
				"x": -2.0986372409,
				"y": -0.8366579885,
				"z": 1.8656773793,
				"element": "H" 
			},
			{
				"x": -2.6238007338,
				"y": -2.3970998244,
				"z": 1.1268807573,
				"element": "H" 
			},
			{
				"x": -2.8970177496,
				"y": -2.0868753062,
				"z": 2.8679362563,
				"element": "H" 
			},
			{
				"x": 1.3742214982,
				"y": -2.8015119257,
				"z": 1.3388201746,
				"element": "H" 
			},
			{
				"x": 0.0286028525,
				"y": -2.8431057124,
				"z": 0.1886375231,
				"element": "H" 
			},
			{
				"x": -0.381308066,
				"y": -0.9096878246,
				"z": -1.1469450694,
				"element": "H" 
			},
			{
				"x": -0.0315035108,
				"y": 1.5009862376,
				"z": -1.6525676493,
				"element": "H" 
			},
			{
				"x": 2.0913063629,
				"y": 1.9671278151,
				"z": 2.0646178146,
				"element": "H" 
			},
			{
				"x": 1.7254767284,
				"y": -0.4436998768,
				"z": 2.5765799049,
				"element": "H" 
			}
		],
		 "valence_orbital": [ 
			{
				"type": "occ",
				"energy": -0.3192,
				"method": "rhf"
			},
			{
				"type": "occ",
				"energy": -0.31607,
				"method": "rhf"
			},
			{
				"type": "occ",
				"energy": -0.31116,
				"method": "rhf"
			},
			{
				"type": "occ",
				"energy": -0.29794,
				"method": "rhf"
			},
			{
				"type": "occ",
				"energy": -0.28624,
				"method": "rhf"
			},
			{
				"type": "unocc",
				"energy": -0.09859,
				"method": "rhf"
			},
			{
				"type": "unocc",
				"energy": -0.05916,
				"method": "rhf"
			},
			{
				"type": "unocc",
				"energy": -0.04978,
				"method": "rhf"
			},
			{
				"type": "unocc",
				"energy": 0.03727,
				"method": "rhf"
			},
			{
				"type": "unocc",
				"energy": 0.04496,
				"method": "rhf"
			}
		],
		"cosmo_sigma_profile": { 
			"-0.025": 0.0,
			"-0.024": 0.0,
			"-0.023": 0.0,
			"-0.022": 0.0,
			"-0.021": 0.0,
			"-0.02": 0.0,
			"-0.019": 0.0,
			"-0.018": 0.0,
			"-0.017": 0.0,
			"-0.016": 0.0,
			"-0.015": 0.0,
			"-0.014": 0.0,
			"-0.013": 0.0,
			"-0.012": 0.188120427284,
			"-0.011": 1.11026226601,
			"-0.01": 4.18014101909,
			"-0.009": 9.39835884274,
			"-0.008": 13.6835721999,
			"-0.007": 15.774555707,
			"-0.006": 16.3189130646,
			"-0.005": 15.3218990836,
			"-0.004": 16.0692182011,
			"-0.003": 12.6782917627,
			"-0.002": 12.0342690691,
			"-0.001": 14.946603986,
			"0.0": 18.3853290036,
			"0.001": 16.9109205632,
			"0.002": 11.3795126036,
			"0.003": 16.7881860946,
			"0.004": 11.1051553853,
			"0.005": 4.46064450881,
			"0.006": 5.88310979037,
			"0.007": 9.02707529705,
			"0.008": 12.3997619315,
			"0.009": 6.70232236129,
			"0.01": 5.04267307758,
			"0.011": 8.96517257896,
			"0.012": 8.59593662662,
			"0.013": 0.630433519422,
			"0.014": 0.0,
			"0.015": 0.0,
			"0.016": 0.0,
			"0.017": 0.0,
			"0.018": 0.0,
			"0.019": 0.0,
			"0.02": 0.0,
			"0.021": 0.0,
			"0.022": 0.0,
			"0.023": 0.0,
			"0.024": 0.0,
			"0.025": 0.0
		}
	}
}
