{
	 "smiles": "OCC1=CSC2=CC=C(Br)C=C12", 
	 "Tm": 353.15, 
	 "num_atms": 19, 
	 "gaussian": { 
		 "optdone": 1, 
		 "sigma_profile": "yes", 
		 "theory": "DFT", 
		 "functional": "B3LYP", 
		 "basiset": "6-31G**", 
		 "properties": { 
			 "R2extent": 4062.5403, 
			 "electric_dipole_moment_norm": 2.74967540084, 
			 "electric_quadrupole_moment_norm": 5.64825992231, 
			 "total_energy": -3391.98287935, 
			 "HOMO_LUMO_gap": 0.18769, 
			 "cosmo_polarized_energy": -8.8, 
			 "cosmo_cavitation_energy": 26.8, 
			 "cosmo_dispersion_energy": -20.68, 
			 "cosmo_repulsion_energy": 1.6, 
			 "cosmo_total_nonelectrostatic_energy": 7.72, 
			 "SMD_solvation_energy": 3.1 
		},
		"coords": [
			{
				"x": -2.4515572564,
				"y": 0.7034436695,
				"z": -0.0932510684,
				"element": "O" 
			},
			{
				"x": -2.2250556141,
				"y": -0.6066538376,
				"z": -0.6050495861,
				"element": "C" 
			},
			{
				"x": -1.0391308898,
				"y": -1.2974334305,
				"z": 0.016671743,
				"element": "C" 
			},
			{
				"x": -1.0709382859,
				"y": -2.559450175,
				"z": 0.5264314774,
				"element": "C" 
			},
			{
				"x": 0.4718210814,
				"y": -3.1275570307,
				"z": 1.1206884119,
				"element": "S" 
			},
			{
				"x": 1.2245671501,
				"y": -1.6015950938,
				"z": 0.6850554891,
				"element": "C" 
			},
			{
				"x": 2.5645893167,
				"y": -1.2395260023,
				"z": 0.8548733311,
				"element": "C" 
			},
			{
				"x": 2.972583186,
				"y": 0.0240923913,
				"z": 0.4449910428,
				"element": "C" 
			},
			{
				"x": 2.039703238,
				"y": 0.9095312466,
				"z": -0.1202969911,
				"element": "C" 
			},
			{
				"x": 2.6375954143,
				"y": 2.6465172096,
				"z": -0.6576798092,
				"element": "Br" 
			},
			{
				"x": 0.7077139218,
				"y": 0.5690365843,
				"z": -0.291715062,
				"element": "C" 
			},
			{
				"x": 0.2853194588,
				"y": -0.7134915024,
				"z": 0.1076359463,
				"element": "C" 
			},
			{
				"x": -2.5267479949,
				"y": 0.6343371865,
				"z": 0.8678864747,
				"element": "H" 
			},
			{
				"x": -2.0561315145,
				"y": -0.4638828147,
				"z": -1.6787146178,
				"element": "H" 
			},
			{
				"x": -3.1165359607,
				"y": -1.2432949126,
				"z": -0.4998666371,
				"element": "H" 
			},
			{
				"x": -1.9292036204,
				"y": -3.2171632791,
				"z": 0.5803329955,
				"element": "H" 
			},
			{
				"x": 3.2794320922,
				"y": -1.9264135422,
				"z": 1.2969888549,
				"element": "H" 
			},
			{
				"x": 4.0049099391,
				"y": 0.3318318148,
				"z": 0.5634487322,
				"element": "H" 
			},
			{
				"x": -0.0060336615,
				"y": 1.2737715183,
				"z": -0.6999307274,
				"element": "H" 
			}
		],
		 "valence_orbital": [ 
			{
				"type": "occ",
				"energy": -0.29121,
				"method": "rhf"
			},
			{
				"type": "occ",
				"energy": -0.28437,
				"method": "rhf"
			},
			{
				"type": "occ",
				"energy": -0.27559,
				"method": "rhf"
			},
			{
				"type": "occ",
				"energy": -0.23805,
				"method": "rhf"
			},
			{
				"type": "occ",
				"energy": -0.2254,
				"method": "rhf"
			},
			{
				"type": "unocc",
				"energy": -0.03771,
				"method": "rhf"
			},
			{
				"type": "unocc",
				"energy": -0.01394,
				"method": "rhf"
			},
			{
				"type": "unocc",
				"energy": 0.00403,
				"method": "rhf"
			},
			{
				"type": "unocc",
				"energy": 0.02017,
				"method": "rhf"
			},
			{
				"type": "unocc",
				"energy": 0.02555,
				"method": "rhf"
			}
		],
		"cosmo_sigma_profile": { 
			"-0.025": 0.0,
			"-0.024": 0.0,
			"-0.023": 0.0,
			"-0.022": 0.0,
			"-0.021": 0.0,
			"-0.02": 0.0,
			"-0.019": 0.0,
			"-0.018": 0.0,
			"-0.017": 0.0,
			"-0.016": 0.290692182122,
			"-0.015": 0.967645691201,
			"-0.014": 0.841231447683,
			"-0.013": 1.1029458601,
			"-0.012": 0.564850608732,
			"-0.011": 0.354704899796,
			"-0.01": 1.20542557094,
			"-0.009": 2.1073044415,
			"-0.008": 4.03374112927,
			"-0.007": 7.69183497094,
			"-0.006": 9.12438610667,
			"-0.005": 11.1060771865,
			"-0.004": 12.7524754169,
			"-0.003": 13.3261906409,
			"-0.002": 13.4269640995,
			"-0.001": 10.987909171,
			"0.0": 14.0195429783,
			"0.001": 15.1220267559,
			"0.002": 25.6750682703,
			"0.003": 33.6053790535,
			"0.004": 18.970038353,
			"0.005": 12.7049621307,
			"0.006": 1.24175854649,
			"0.007": 1.0981200005,
			"0.008": 0.723765713211,
			"0.009": 0.852884825031,
			"0.01": 1.09295957846,
			"0.011": 1.37278568536,
			"0.012": 1.12803433927,
			"0.013": 1.18493627458,
			"0.014": 1.31737744047,
			"0.015": 0.00165614732997,
			"0.016": 0.0,
			"0.017": 0.0,
			"0.018": 0.0,
			"0.019": 0.0,
			"0.02": 0.0,
			"0.021": 0.0,
			"0.022": 0.0,
			"0.023": 0.0,
			"0.024": 0.0,
			"0.025": 0.0
		}
	}
}
