{
	 "smiles": "O=C=S", 
	 "Tm": 134.15, 
	 "num_atms": 3, 
	 "gaussian": { 
		 "optdone": 1, 
		 "sigma_profile": "yes", 
		 "theory": "DFT", 
		 "functional": "B3LYP", 
		 "basiset": "6-31G**", 
		 "properties": { 
			 "R2extent": 952.5121, 
			 "electric_dipole_moment_norm": 0.426460947802, 
			 "electric_quadrupole_moment_norm": 0.618238400619, 
			 "total_energy": -511.530643466, 
			 "HOMO_LUMO_gap": 0.27094, 
			 "cosmo_polarized_energy": -1.05, 
			 "cosmo_cavitation_energy": 9.77, 
			 "cosmo_dispersion_energy": -7.51, 
			 "cosmo_repulsion_energy": 0.67, 
			 "cosmo_total_nonelectrostatic_energy": 2.93, 
			 "SMD_solvation_energy": 3.5 
		},
		"coords": [
			{
				"x": -1.0381886073,
				"y": -0.7744712152,
				"z": 0.0315407314,
				"element": "O" 
			},
			{
				"x": -1.1798057281,
				"y": -1.6474016104,
				"z": 0.7902789187,
				"element": "C" 
			},
			{
				"x": -1.3698056646,
				"y": -2.8272271743,
				"z": 1.8156803499,
				"element": "S" 
			}
		],
		 "valence_orbital": [ 
			{
				"type": "occ",
				"energy": -0.47731,
				"method": "rhf"
			},
			{
				"type": "occ",
				"energy": -0.47731,
				"method": "rhf"
			},
			{
				"type": "occ",
				"energy": -0.47267,
				"method": "rhf"
			},
			{
				"type": "occ",
				"energy": -0.30452,
				"method": "rhf"
			},
			{
				"type": "occ",
				"energy": -0.30452,
				"method": "rhf"
			},
			{
				"type": "unocc",
				"energy": -0.03358,
				"method": "rhf"
			},
			{
				"type": "unocc",
				"energy": -0.03358,
				"method": "rhf"
			},
			{
				"type": "unocc",
				"energy": 0.05563,
				"method": "rhf"
			},
			{
				"type": "unocc",
				"energy": 0.12159,
				"method": "rhf"
			},
			{
				"type": "unocc",
				"energy": 0.31243,
				"method": "rhf"
			}
		],
		"cosmo_sigma_profile": { 
			"-0.025": 0.0,
			"-0.024": 0.0,
			"-0.023": 0.0,
			"-0.022": 0.0,
			"-0.021": 0.0,
			"-0.02": 0.0,
			"-0.019": 0.0,
			"-0.018": 0.0,
			"-0.017": 0.0,
			"-0.016": 0.0,
			"-0.015": 0.0,
			"-0.014": 0.0,
			"-0.013": 0.0,
			"-0.012": 0.0,
			"-0.011": 0.0,
			"-0.01": 0.0,
			"-0.009": 0.0,
			"-0.008": 0.0,
			"-0.007": 0.0,
			"-0.006": 0.0,
			"-0.005": 2.38045797634,
			"-0.004": 10.0281718293,
			"-0.003": 8.77045093829,
			"-0.002": 7.6077277533,
			"-0.001": 6.92448547897,
			"0.0": 7.87167544838,
			"0.001": 9.71982423054,
			"0.002": 14.9570337936,
			"0.003": 5.08215506425,
			"0.004": 3.81831361792,
			"0.005": 5.76396735026,
			"0.006": 0.171740550891,
			"0.007": 0.0,
			"0.008": 0.0,
			"0.009": 0.0,
			"0.01": 0.0,
			"0.011": 0.0,
			"0.012": 0.0,
			"0.013": 0.0,
			"0.014": 0.0,
			"0.015": 0.0,
			"0.016": 0.0,
			"0.017": 0.0,
			"0.018": 0.0,
			"0.019": 0.0,
			"0.02": 0.0,
			"0.021": 0.0,
			"0.022": 0.0,
			"0.023": 0.0,
			"0.024": 0.0,
			"0.025": 0.0
		}
	}
}
