{
	 "smiles": "OC(=O)CCC1=C(Br)C=CC(Cl)=C1", 
	 "Tm": 357.15, 
	 "num_atms": 21, 
	 "gaussian": { 
		 "optdone": 1, 
		 "sigma_profile": "yes", 
		 "theory": "DFT", 
		 "functional": "B3LYP", 
		 "basiset": "6-31G**", 
		 "properties": { 
			 "R2extent": 4884.4807, 
			 "electric_dipole_moment_norm": 4.56418931027, 
			 "electric_quadrupole_moment_norm": 24.6615304918, 
			 "total_energy": -3529.8341055, 
			 "HOMO_LUMO_gap": 0.21506, 
			 "cosmo_polarized_energy": -14.39, 
			 "cosmo_cavitation_energy": 28.86, 
			 "cosmo_dispersion_energy": -21.13, 
			 "cosmo_repulsion_energy": 1.68, 
			 "cosmo_total_nonelectrostatic_energy": 9.42, 
			 "SMD_solvation_energy": 4.5 
		},
		"coords": [
			{
				"x": -0.0029510423,
				"y": -3.0343896768,
				"z": -1.0893746481,
				"element": "O" 
			},
			{
				"x": -1.3063064044,
				"y": -2.8167429658,
				"z": -0.7929577124,
				"element": "C" 
			},
			{
				"x": -2.0317097041,
				"y": -3.7472216825,
				"z": -0.5426020322,
				"element": "O" 
			},
			{
				"x": -1.8301064178,
				"y": -1.3806142237,
				"z": -0.8612463814,
				"element": "C" 
			},
			{
				"x": -0.8728335133,
				"y": -0.2285080103,
				"z": -0.4915898059,
				"element": "C" 
			},
			{
				"x": -0.3065998536,
				"y": -0.3023001428,
				"z": 0.913350915,
				"element": "C" 
			},
			{
				"x": 1.0524461441,
				"y": -0.4771289001,
				"z": 1.2089137277,
				"element": "C" 
			},
			{
				"x": 2.3643421253,
				"y": -0.6415607671,
				"z": -0.1889792017,
				"element": "Br" 
			},
			{
				"x": 1.5238119183,
				"y": -0.5356482006,
				"z": 2.520776683,
				"element": "C" 
			},
			{
				"x": 0.6361280772,
				"y": -0.4181268411,
				"z": 3.5858747685,
				"element": "C" 
			},
			{
				"x": -0.7196220853,
				"y": -0.239699558,
				"z": 3.3123217536,
				"element": "C" 
			},
			{
				"x": -1.8559083277,
				"y": -0.078095349,
				"z": 4.6376854823,
				"element": "Cl" 
			},
			{
				"x": -1.1843282332,
				"y": -0.1820928275,
				"z": 2.0027166796,
				"element": "C" 
			},
			{
				"x": 0.4958105335,
				"y": -2.2116457435,
				"z": -1.2076547512,
				"element": "H" 
			},
			{
				"x": -2.180016375,
				"y": -1.2239174575,
				"z": -1.8902870752,
				"element": "H" 
			},
			{
				"x": -2.7218798302,
				"y": -1.3650874923,
				"z": -0.2306183575,
				"element": "H" 
			},
			{
				"x": -1.435684522,
				"y": 0.7069956245,
				"z": -0.5912071498,
				"element": "H" 
			},
			{
				"x": -0.0592354549,
				"y": -0.1543687078,
				"z": -1.2177809466,
				"element": "H" 
			},
			{
				"x": 2.5821043009,
				"y": -0.6743283589,
				"z": 2.7083566743,
				"element": "H" 
			},
			{
				"x": 0.9914930027,
				"y": -0.4629647175,
				"z": 4.6088689389,
				"element": "H" 
			},
			{
				"x": -2.2441543383,
				"y": -0.0373540016,
				"z": 1.8202324393,
				"element": "H" 
			}
		],
		 "valence_orbital": [ 
			{
				"type": "occ",
				"energy": -0.31299,
				"method": "rhf"
			},
			{
				"type": "occ",
				"energy": -0.30823,
				"method": "rhf"
			},
			{
				"type": "occ",
				"energy": -0.28183,
				"method": "rhf"
			},
			{
				"type": "occ",
				"energy": -0.26547,
				"method": "rhf"
			},
			{
				"type": "occ",
				"energy": -0.25555,
				"method": "rhf"
			},
			{
				"type": "unocc",
				"energy": -0.04049,
				"method": "rhf"
			},
			{
				"type": "unocc",
				"energy": -0.03657,
				"method": "rhf"
			},
			{
				"type": "unocc",
				"energy": -0.01921,
				"method": "rhf"
			},
			{
				"type": "unocc",
				"energy": 0.01191,
				"method": "rhf"
			},
			{
				"type": "unocc",
				"energy": 0.01894,
				"method": "rhf"
			}
		],
		"cosmo_sigma_profile": { 
			"-0.025": 0.0,
			"-0.024": 0.0,
			"-0.023": 0.0,
			"-0.022": 0.0,
			"-0.021": 0.0,
			"-0.02": 0.0,
			"-0.019": 0.0,
			"-0.018": 0.0,
			"-0.017": 0.0,
			"-0.016": 0.0,
			"-0.015": 0.102408163691,
			"-0.014": 0.614912579301,
			"-0.013": 0.66697003004,
			"-0.012": 0.741759200614,
			"-0.011": 0.770296497512,
			"-0.01": 1.00319751629,
			"-0.009": 1.10465232958,
			"-0.008": 7.52623976527,
			"-0.007": 12.5236752888,
			"-0.006": 13.2658911945,
			"-0.005": 13.1262306473,
			"-0.004": 12.2903448272,
			"-0.003": 14.8765577306,
			"-0.002": 15.9896785261,
			"-0.001": 14.8018420882,
			"0.0": 17.5034394494,
			"0.001": 23.5484100882,
			"0.002": 22.3141371335,
			"0.003": 15.4049338866,
			"0.004": 14.1315132964,
			"0.005": 5.06230625229,
			"0.006": 1.56446433966,
			"0.007": 2.93114740524,
			"0.008": 2.09889323965,
			"0.009": 3.53793985079,
			"0.01": 3.56089893213,
			"0.011": 5.38828922265,
			"0.012": 5.99668016595,
			"0.013": 3.10503816865,
			"0.014": 0.238858721946,
			"0.015": 0.0,
			"0.016": 0.0,
			"0.017": 0.0,
			"0.018": 0.0,
			"0.019": 0.0,
			"0.02": 0.0,
			"0.021": 0.0,
			"0.022": 0.0,
			"0.023": 0.0,
			"0.024": 0.0,
			"0.025": 0.0
		}
	}
}
