{
	 "smiles": "CC(=O)OC[C@@H](OC(C)=O)[C@H](OC(C)=O)[C@H](OC(C)=O)[C@@H](OC(C)=O)C1=NN=NN1", 
	 "Tm": 382.15, 
	 "num_atms": 52, 
	 "gaussian": { 
		 "optdone": 1, 
		 "sigma_profile": "yes", 
		 "theory": "DFT", 
		 "functional": "B3LYP", 
		 "basiset": "6-31G**", 
		 "properties": { 
			 "R2extent": 10352.1586, 
			 "electric_dipole_moment_norm": 5.30967501077, 
			 "electric_quadrupole_moment_norm": 22.8798059019, 
			 "total_energy": -1594.21374738, 
			 "HOMO_LUMO_gap": 0.25914, 
			 "cosmo_polarized_energy": -29.3, 
			 "cosmo_cavitation_energy": 54.76, 
			 "cosmo_dispersion_energy": -32.36, 
			 "cosmo_repulsion_energy": 2.4, 
			 "cosmo_total_nonelectrostatic_energy": 24.8, 
			 "SMD_solvation_energy": 11.86 
		},
		"coords": [
			{
				"x": -3.2831932202,
				"y": -0.3245500598,
				"z": 2.7389544117,
				"element": "C" 
			},
			{
				"x": -2.6705386505,
				"y": 1.03193414,
				"z": 2.5133213054,
				"element": "C" 
			},
			{
				"x": -3.2698773562,
				"y": 2.0331625154,
				"z": 2.1866395735,
				"element": "O" 
			},
			{
				"x": -1.3222802506,
				"y": 1.0004054375,
				"z": 2.7036860371,
				"element": "O" 
			},
			{
				"x": -0.605002257,
				"y": 2.2284347718,
				"z": 2.5086472146,
				"element": "C" 
			},
			{
				"x": 0.7504179873,
				"y": 1.9709978892,
				"z": 1.8677910107,
				"element": "C" 
			},
			{
				"x": 1.3903484273,
				"y": 0.8945446878,
				"z": 2.5945321975,
				"element": "O" 
			},
			{
				"x": 2.7597804162,
				"y": 0.9142382392,
				"z": 2.6744110653,
				"element": "C" 
			},
			{
				"x": 3.2664686856,
				"y": -0.2705197427,
				"z": 3.4526691827,
				"element": "C" 
			},
			{
				"x": 3.433100368,
				"y": 1.7798586753,
				"z": 2.168141587,
				"element": "O" 
			},
			{
				"x": 0.8221600005,
				"y": 1.7419819686,
				"z": 0.3428301191,
				"element": "C" 
			},
			{
				"x": 0.2499918824,
				"y": 2.9485617857,
				"z": -0.2040063497,
				"element": "O" 
			},
			{
				"x": 0.8534507214,
				"y": 3.4592729018,
				"z": -1.3258791592,
				"element": "C" 
			},
			{
				"x": 0.055646061,
				"y": 4.607328319,
				"z": -1.8786226065,
				"element": "C" 
			},
			{
				"x": 1.8694453998,
				"y": 3.0009952122,
				"z": -1.7917017457,
				"element": "O" 
			},
			{
				"x": 0.1705724512,
				"y": 0.5644303821,
				"z": -0.4137591908,
				"element": "C" 
			},
			{
				"x": -1.2566686797,
				"y": 0.524193931,
				"z": -0.2633317591,
				"element": "O" 
			},
			{
				"x": -2.00828865,
				"y": 1.0178200007,
				"z": -1.3033192522,
				"element": "C" 
			},
			{
				"x": -3.476795317,
				"y": 0.8370771063,
				"z": -1.0327172069,
				"element": "C" 
			},
			{
				"x": -1.5271863573,
				"y": 1.5215467819,
				"z": -2.291218102,
				"element": "O" 
			},
			{
				"x": 0.7174580159,
				"y": -0.8726914253,
				"z": -0.1841282001,
				"element": "C" 
			},
			{
				"x": 2.1298390329,
				"y": -0.8031713523,
				"z": 0.1159218124,
				"element": "O" 
			},
			{
				"x": 2.9866312271,
				"y": -0.9191953678,
				"z": -0.95807379,
				"element": "C" 
			},
			{
				"x": 4.4165738934,
				"y": -0.8139590832,
				"z": -0.4988742377,
				"element": "C" 
			},
			{
				"x": 2.6027594841,
				"y": -1.081764533,
				"z": -2.0889388196,
				"element": "O" 
			},
			{
				"x": 0.0496600292,
				"y": -1.7305995054,
				"z": 0.8453033014,
				"element": "C" 
			},
			{
				"x": -0.5779336702,
				"y": -2.86130598,
				"z": 0.5618696563,
				"element": "N" 
			},
			{
				"x": -1.0107376672,
				"y": -3.3607392289,
				"z": 1.7471662852,
				"element": "N" 
			},
			{
				"x": -0.6679309594,
				"y": -2.5855951219,
				"z": 2.7302143976,
				"element": "N" 
			},
			{
				"x": 0.00726351,
				"y": -1.5600963114,
				"z": 2.1792033887,
				"element": "N" 
			},
			{
				"x": -4.3567960948,
				"y": -0.2131115799,
				"z": 2.8897129288,
				"element": "H" 
			},
			{
				"x": -3.1085750676,
				"y": -0.9459916852,
				"z": 1.854762727,
				"element": "H" 
			},
			{
				"x": -2.8227304638,
				"y": -0.8356663397,
				"z": 3.5862100235,
				"element": "H" 
			},
			{
				"x": -1.1875678281,
				"y": 2.9128026394,
				"z": 1.8909241993,
				"element": "H" 
			},
			{
				"x": -0.4532650716,
				"y": 2.6813474222,
				"z": 3.4939747516,
				"element": "H" 
			},
			{
				"x": 1.346755334,
				"y": 2.8755250443,
				"z": 2.0236828213,
				"element": "H" 
			},
			{
				"x": 2.7375496938,
				"y": -0.3649087262,
				"z": 4.4047891159,
				"element": "H" 
			},
			{
				"x": 3.0839991796,
				"y": -1.1820427176,
				"z": 2.8751916042,
				"element": "H" 
			},
			{
				"x": 4.3357369738,
				"y": -0.1560939691,
				"z": 3.6268784047,
				"element": "H" 
			},
			{
				"x": 1.882063613,
				"y": 1.717423251,
				"z": 0.0849573685,
				"element": "H" 
			},
			{
				"x": -0.3165734698,
				"y": 5.2515203267,
				"z": -1.0789337837,
				"element": "H" 
			},
			{
				"x": -0.8074477642,
				"y": 4.1901486147,
				"z": -2.407919485,
				"element": "H" 
			},
			{
				"x": 0.6697589364,
				"y": 5.1739170309,
				"z": -2.5780471911,
				"element": "H" 
			},
			{
				"x": 0.3890701868,
				"y": 0.7924007685,
				"z": -1.4600223398,
				"element": "H" 
			},
			{
				"x": -3.7627134557,
				"y": 1.4007293283,
				"z": -0.1397140375,
				"element": "H" 
			},
			{
				"x": -3.6949985588,
				"y": -0.2186064856,
				"z": -0.846310858,
				"element": "H" 
			},
			{
				"x": -4.0433095749,
				"y": 1.1867190185,
				"z": -1.8949639652,
				"element": "H" 
			},
			{
				"x": 0.5919517635,
				"y": -1.4101276003,
				"z": -1.1261331666,
				"element": "H" 
			},
			{
				"x": 4.5575550331,
				"y": 0.0938298448,
				"z": 0.0945565868,
				"element": "H" 
			},
			{
				"x": 4.6644236935,
				"y": -1.6705840066,
				"z": 0.1360872167,
				"element": "H" 
			},
			{
				"x": 5.0716883205,
				"y": -0.8026484859,
				"z": -1.3689480885,
				"element": "H" 
			},
			{
				"x": 0.3085900635,
				"y": -0.756078727,
				"z": 2.7212330402,
				"element": "H" 
			}
		],
		 "valence_orbital": [ 
			{
				"type": "occ",
				"energy": -0.2949,
				"method": "rhf"
			},
			{
				"type": "occ",
				"energy": -0.29066,
				"method": "rhf"
			},
			{
				"type": "occ",
				"energy": -0.28987,
				"method": "rhf"
			},
			{
				"type": "occ",
				"energy": -0.28738,
				"method": "rhf"
			},
			{
				"type": "occ",
				"energy": -0.28664,
				"method": "rhf"
			},
			{
				"type": "unocc",
				"energy": -0.0275,
				"method": "rhf"
			},
			{
				"type": "unocc",
				"energy": -0.02388,
				"method": "rhf"
			},
			{
				"type": "unocc",
				"energy": -0.01077,
				"method": "rhf"
			},
			{
				"type": "unocc",
				"energy": -0.00751,
				"method": "rhf"
			},
			{
				"type": "unocc",
				"energy": -0.00642,
				"method": "rhf"
			}
		],
		"cosmo_sigma_profile": { 
			"-0.025": 0.0,
			"-0.024": 0.0,
			"-0.023": 0.0193765945008,
			"-0.022": 0.00299818831308,
			"-0.021": 0.0424809406244,
			"-0.02": 0.0393960555617,
			"-0.019": 0.0,
			"-0.018": 0.0,
			"-0.017": 0.0,
			"-0.016": 0.0187151362862,
			"-0.015": 0.0646338722635,
			"-0.014": 0.00603219680202,
			"-0.013": 0.0142075896482,
			"-0.012": 0.115448473103,
			"-0.011": 0.696310195256,
			"-0.01": 0.634909332045,
			"-0.009": 2.06435616898,
			"-0.008": 6.10193880032,
			"-0.007": 13.5474876852,
			"-0.006": 26.7542051433,
			"-0.005": 36.4331678317,
			"-0.004": 41.8541110627,
			"-0.003": 53.1718288254,
			"-0.002": 51.8731171227,
			"-0.001": 29.7593727273,
			"0.0": 20.6941943874,
			"0.001": 17.5057604981,
			"0.002": 13.1775681239,
			"0.003": 11.9642404171,
			"0.004": 10.2740540315,
			"0.005": 10.4817981791,
			"0.006": 7.82493281558,
			"0.007": 7.81782222463,
			"0.008": 12.2491028139,
			"0.009": 13.8489596643,
			"0.01": 15.9782360064,
			"0.011": 16.8392685418,
			"0.012": 7.48185873739,
			"0.013": 2.61789232245,
			"0.014": 1.26989822433,
			"0.015": 0.155741744192,
			"0.016": 0.0,
			"0.017": 0.0,
			"0.018": 0.0,
			"0.019": 0.0,
			"0.02": 0.0,
			"0.021": 0.0,
			"0.022": 0.0,
			"0.023": 0.0,
			"0.024": 0.0,
			"0.025": 0.0
		}
	}
}
