{
	 "smiles": "CC1=CC=CC(C)=C1[N+]([O-])=O", 
	 "Tm": 288.65, 
	 "num_atms": 20, 
	 "gaussian": { 
		 "optdone": 1, 
		 "sigma_profile": "yes", 
		 "theory": "DFT", 
		 "functional": "B3LYP", 
		 "basiset": "6-31G**", 
		 "properties": { 
			 "R2extent": 1752.7132, 
			 "electric_dipole_moment_norm": 3.7244681419, 
			 "electric_quadrupole_moment_norm": 7.09387869998, 
			 "total_energy": -515.382312345, 
			 "HOMO_LUMO_gap": 0.17949, 
			 "cosmo_polarized_energy": -7.31, 
			 "cosmo_cavitation_energy": 23.64, 
			 "cosmo_dispersion_energy": -17.26, 
			 "cosmo_repulsion_energy": 1.37, 
			 "cosmo_total_nonelectrostatic_energy": 7.75, 
			 "SMD_solvation_energy": 6.26 
		},
		"coords": [
			{
				"x": 0.1867820721,
				"y": 1.2075976822,
				"z": 2.315361331,
				"element": "C" 
			},
			{
				"x": 0.7854168679,
				"y": 1.1952090191,
				"z": 0.9283172154,
				"element": "C" 
			},
			{
				"x": 1.964422183,
				"y": 1.9082938851,
				"z": 0.6831436593,
				"element": "C" 
			},
			{
				"x": 2.5421189002,
				"y": 1.9376002483,
				"z": -0.583469058,
				"element": "C" 
			},
			{
				"x": 1.9585421994,
				"y": 1.2356846142,
				"z": -1.6349660574,
				"element": "C" 
			},
			{
				"x": 0.7983807318,
				"y": 0.4759036889,
				"z": -1.4468444876,
				"element": "C" 
			},
			{
				"x": 0.2121568916,
				"y": -0.2828764724,
				"z": -2.6143065255,
				"element": "C" 
			},
			{
				"x": 0.2359760831,
				"y": 0.4855226419,
				"z": -0.1562899441,
				"element": "C" 
			},
			{
				"x": -0.9950835296,
				"y": -0.2897386324,
				"z": 0.0717469732,
				"element": "N" 
			},
			{
				"x": -1.8960642179,
				"y": 0.2407553447,
				"z": 0.7219687999,
				"element": "O" 
			},
			{
				"x": -1.0549277362,
				"y": -1.4252021276,
				"z": -0.4006203155,
				"element": "O" 
			},
			{
				"x": -0.1340117322,
				"y": 0.2140674089,
				"z": 2.6396215418,
				"element": "H" 
			},
			{
				"x": -0.6974340601,
				"y": 1.849394583,
				"z": 2.355786121,
				"element": "H" 
			},
			{
				"x": 0.92264238,
				"y": 1.5819237661,
				"z": 3.0314658508,
				"element": "H" 
			},
			{
				"x": 2.4262655512,
				"y": 2.4501649909,
				"z": 1.5032387001,
				"element": "H" 
			},
			{
				"x": 3.4500725098,
				"y": 2.5092898388,
				"z": -0.7516636586,
				"element": "H" 
			},
			{
				"x": 2.4069032208,
				"y": 1.266860947,
				"z": -2.6236420936,
				"element": "H" 
			},
			{
				"x": -0.8738574769,
				"y": -0.1750351072,
				"z": -2.6783302174,
				"element": "H" 
			},
			{
				"x": 0.414615948,
				"y": -1.3538138906,
				"z": -2.5279926409,
				"element": "H" 
			},
			{
				"x": 0.6492832141,
				"y": 0.0807975712,
				"z": -3.5476251941,
				"element": "H" 
			}
		],
		 "valence_orbital": [ 
			{
				"type": "occ",
				"energy": -0.30611,
				"method": "rhf"
			},
			{
				"type": "occ",
				"energy": -0.29953,
				"method": "rhf"
			},
			{
				"type": "occ",
				"energy": -0.29749,
				"method": "rhf"
			},
			{
				"type": "occ",
				"energy": -0.26229,
				"method": "rhf"
			},
			{
				"type": "occ",
				"energy": -0.25745,
				"method": "rhf"
			},
			{
				"type": "unocc",
				"energy": -0.07796,
				"method": "rhf"
			},
			{
				"type": "unocc",
				"energy": -0.01669,
				"method": "rhf"
			},
			{
				"type": "unocc",
				"energy": -0.00801,
				"method": "rhf"
			},
			{
				"type": "unocc",
				"energy": 0.08432,
				"method": "rhf"
			},
			{
				"type": "unocc",
				"energy": 0.11365,
				"method": "rhf"
			}
		],
		"cosmo_sigma_profile": { 
			"-0.025": 0.0,
			"-0.024": 0.0,
			"-0.023": 0.0,
			"-0.022": 0.0,
			"-0.021": 0.0,
			"-0.02": 0.0,
			"-0.019": 0.0,
			"-0.018": 0.0,
			"-0.017": 0.0,
			"-0.016": 0.0,
			"-0.015": 0.0,
			"-0.014": 0.0,
			"-0.013": 0.0,
			"-0.012": 0.0,
			"-0.011": 0.0,
			"-0.01": 0.0,
			"-0.009": 0.0,
			"-0.008": 0.397107511796,
			"-0.007": 4.29088469668,
			"-0.006": 11.6944938654,
			"-0.005": 14.3596934498,
			"-0.004": 15.4325102664,
			"-0.003": 13.6272311059,
			"-0.002": 15.6064486764,
			"-0.001": 20.524275787,
			"0.0": 17.8985872331,
			"0.001": 10.4098947953,
			"0.002": 13.638596916,
			"0.003": 12.7935791396,
			"0.004": 7.25037378933,
			"0.005": 3.44158598474,
			"0.006": 4.24924958928,
			"0.007": 6.37090744247,
			"0.008": 8.00490703645,
			"0.009": 4.26995361818,
			"0.01": 3.00662961659,
			"0.011": 0.257012021695,
			"0.012": 0.0,
			"0.013": 0.0,
			"0.014": 0.0,
			"0.015": 0.0,
			"0.016": 0.0,
			"0.017": 0.0,
			"0.018": 0.0,
			"0.019": 0.0,
			"0.02": 0.0,
			"0.021": 0.0,
			"0.022": 0.0,
			"0.023": 0.0,
			"0.024": 0.0,
			"0.025": 0.0
		}
	}
}
