{
	 "smiles": "FC1=CC=C(C=C1)C(=O)NC=C(Cl)Cl", 
	 "Tm": 343.15, 
	 "num_atms": 20, 
	 "gaussian": { 
		 "optdone": 1, 
		 "sigma_profile": "yes", 
		 "theory": "DFT", 
		 "functional": "B3LYP", 
		 "basiset": "6-31G**", 
		 "properties": { 
			 "R2extent": 5745.4452, 
			 "electric_dipole_moment_norm": 3.94367908557, 
			 "electric_quadrupole_moment_norm": 12.240196699, 
			 "total_energy": -1496.74784806, 
			 "HOMO_LUMO_gap": 0.18752, 
			 "cosmo_polarized_energy": -13.98, 
			 "cosmo_cavitation_energy": 29.56, 
			 "cosmo_dispersion_energy": -21.48, 
			 "cosmo_repulsion_energy": 1.68, 
			 "cosmo_total_nonelectrostatic_energy": 9.76, 
			 "SMD_solvation_energy": 5.97 
		},
		"coords": [
			{
				"x": 3.0308757579,
				"y": 2.6743293551,
				"z": 2.9195389931,
				"element": "F" 
			},
			{
				"x": 2.0612030512,
				"y": 2.0947888567,
				"z": 2.1881991688,
				"element": "C" 
			},
			{
				"x": 1.7193480625,
				"y": 0.7704762381,
				"z": 2.4493980694,
				"element": "C" 
			},
			{
				"x": 0.7179883698,
				"y": 0.178574833,
				"z": 1.6873597417,
				"element": "C" 
			},
			{
				"x": 0.054303897,
				"y": 0.9034870102,
				"z": 0.6860004516,
				"element": "C" 
			},
			{
				"x": 0.4332834953,
				"y": 2.2314027171,
				"z": 0.4375658762,
				"element": "C" 
			},
			{
				"x": 1.4396750395,
				"y": 2.8360186135,
				"z": 1.188797407,
				"element": "C" 
			},
			{
				"x": -1.0105903512,
				"y": 0.1847211056,
				"z": -0.0858854541,
				"element": "C" 
			},
			{
				"x": -1.0689740973,
				"y": -1.0314819957,
				"z": -0.1465203619,
				"element": "O" 
			},
			{
				"x": -1.9384332984,
				"y": 1.0156176889,
				"z": -0.717642763,
				"element": "N" 
			},
			{
				"x": -3.043981364,
				"y": 0.5643852337,
				"z": -1.4523696083,
				"element": "C" 
			},
			{
				"x": -2.998960224,
				"y": -0.2584315284,
				"z": -2.5101042285,
				"element": "C" 
			},
			{
				"x": -1.5505956029,
				"y": -0.858925766,
				"z": -3.2325521198,
				"element": "Cl" 
			},
			{
				"x": -4.4823422383,
				"y": -0.7855136539,
				"z": -3.2641140954,
				"element": "Cl" 
			},
			{
				"x": 2.2375484272,
				"y": 0.2282033394,
				"z": 3.2326857537,
				"element": "H" 
			},
			{
				"x": 0.4316238135,
				"y": -0.8547225008,
				"z": 1.8499753049,
				"element": "H" 
			},
			{
				"x": -0.0244246919,
				"y": 2.7935391411,
				"z": -0.371026494,
				"element": "H" 
			},
			{
				"x": 1.7543151494,
				"y": 3.8571738994,
				"z": 1.0041592092,
				"element": "H" 
			},
			{
				"x": -2.0120581775,
				"y": 1.9554179018,
				"z": -0.3545592119,
				"element": "H" 
			},
			{
				"x": -4.0165050178,
				"y": 0.9315395111,
				"z": -1.1373056387,
				"element": "H" 
			}
		],
		 "valence_orbital": [ 
			{
				"type": "occ",
				"energy": -0.30734,
				"method": "rhf"
			},
			{
				"type": "occ",
				"energy": -0.27789,
				"method": "rhf"
			},
			{
				"type": "occ",
				"energy": -0.27096,
				"method": "rhf"
			},
			{
				"type": "occ",
				"energy": -0.2583,
				"method": "rhf"
			},
			{
				"type": "occ",
				"energy": -0.23857,
				"method": "rhf"
			},
			{
				"type": "unocc",
				"energy": -0.05105,
				"method": "rhf"
			},
			{
				"type": "unocc",
				"energy": -0.02816,
				"method": "rhf"
			},
			{
				"type": "unocc",
				"energy": -0.00902,
				"method": "rhf"
			},
			{
				"type": "unocc",
				"energy": 0.00364,
				"method": "rhf"
			},
			{
				"type": "unocc",
				"energy": 0.03332,
				"method": "rhf"
			}
		],
		"cosmo_sigma_profile": { 
			"-0.025": 0.0,
			"-0.024": 0.0,
			"-0.023": 0.0,
			"-0.022": 0.0,
			"-0.021": 0.0,
			"-0.02": 0.0,
			"-0.019": 0.0,
			"-0.018": 0.0,
			"-0.017": 0.0744879639014,
			"-0.016": 0.828584000967,
			"-0.015": 1.34722648137,
			"-0.014": 1.30362604557,
			"-0.013": 1.56311619311,
			"-0.012": 1.35567323345,
			"-0.011": 1.63221028005,
			"-0.01": 2.76466134604,
			"-0.009": 3.12943085215,
			"-0.008": 5.14332880366,
			"-0.007": 7.5834883555,
			"-0.006": 8.71713841679,
			"-0.005": 9.07995741485,
			"-0.004": 8.43000144348,
			"-0.003": 11.3183614998,
			"-0.002": 10.8686842058,
			"-0.001": 16.4924506855,
			"0.0": 23.0405297854,
			"0.001": 25.0950184291,
			"0.002": 30.608999568,
			"0.003": 32.8716883316,
			"0.004": 17.6279998082,
			"0.005": 2.07721795849,
			"0.006": 2.28176167321,
			"0.007": 2.11116439005,
			"0.008": 1.43505266796,
			"0.009": 2.09776752806,
			"0.01": 2.62812279863,
			"0.011": 2.13385081148,
			"0.012": 3.60668175319,
			"0.013": 3.19236155794,
			"0.014": 0.0257754606861,
			"0.015": 0.0,
			"0.016": 0.0,
			"0.017": 0.0,
			"0.018": 0.0,
			"0.019": 0.0,
			"0.02": 0.0,
			"0.021": 0.0,
			"0.022": 0.0,
			"0.023": 0.0,
			"0.024": 0.0,
			"0.025": 0.0
		}
	}
}
