{
	 "smiles": "CC(C)(C)OC(=O)NC(C)(C1CC1)C(O)=O", 
	 "Tm": 414.15, 
	 "num_atms": 35, 
	 "gaussian": { 
		 "optdone": 1, 
		 "sigma_profile": "yes", 
		 "theory": "DFT", 
		 "functional": "B3LYP", 
		 "basiset": "6-31G**", 
		 "properties": { 
			 "R2extent": 4028.8268, 
			 "electric_dipole_moment_norm": 1.3603637271, 
			 "electric_quadrupole_moment_norm": 15.578674113, 
			 "total_energy": -786.289321734, 
			 "HOMO_LUMO_gap": 0.25253, 
			 "cosmo_polarized_energy": -14.57, 
			 "cosmo_cavitation_energy": 36.39, 
			 "cosmo_dispersion_energy": -23.84, 
			 "cosmo_repulsion_energy": 1.86, 
			 "cosmo_total_nonelectrostatic_energy": 14.41, 
			 "SMD_solvation_energy": 7.8 
		},
		"coords": [
			{
				"x": 0.2224489683,
				"y": -0.4153182116,
				"z": -3.0302045828,
				"element": "C" 
			},
			{
				"x": 1.0066795132,
				"y": -0.1190510162,
				"z": -1.7482110222,
				"element": "C" 
			},
			{
				"x": 1.6931066069,
				"y": 1.2501769052,
				"z": -1.7880853067,
				"element": "C" 
			},
			{
				"x": 2.0193593938,
				"y": -1.229385667,
				"z": -1.4570235368,
				"element": "C" 
			},
			{
				"x": 0.1094196322,
				"y": -0.1907704379,
				"z": -0.5812657427,
				"element": "O" 
			},
			{
				"x": -0.922195015,
				"y": 0.6725211944,
				"z": -0.4392518491,
				"element": "C" 
			},
			{
				"x": -1.2800440474,
				"y": 1.513623226,
				"z": -1.2469748425,
				"element": "O" 
			},
			{
				"x": -1.5615868454,
				"y": 0.4786069293,
				"z": 0.760843037,
				"element": "N" 
			},
			{
				"x": -1.116331689,
				"y": -0.3617059641,
				"z": 1.87022116,
				"element": "C" 
			},
			{
				"x": -1.3183322054,
				"y": -1.854855762,
				"z": 1.5579502373,
				"element": "C" 
			},
			{
				"x": -1.8963755435,
				"y": -0.0124445507,
				"z": 3.152268779,
				"element": "C" 
			},
			{
				"x": -2.2773597958,
				"y": 1.3912065295,
				"z": 3.5426993879,
				"element": "C" 
			},
			{
				"x": -3.3478215016,
				"y": 0.3998078643,
				"z": 3.1467661017,
				"element": "C" 
			},
			{
				"x": 0.3649850009,
				"y": -0.099559359,
				"z": 2.2179570635,
				"element": "C" 
			},
			{
				"x": 0.7155760837,
				"y": 1.1988158291,
				"z": 2.072048928,
				"element": "O" 
			},
			{
				"x": 1.1252321019,
				"y": -0.9346937884,
				"z": 2.6549108322,
				"element": "O" 
			},
			{
				"x": -0.2899710886,
				"y": -1.379048464,
				"z": -2.947768393,
				"element": "H" 
			},
			{
				"x": -0.5158051167,
				"y": 0.3628711976,
				"z": -3.2241083687,
				"element": "H" 
			},
			{
				"x": 0.9136224331,
				"y": -0.4700653512,
				"z": -3.8777153371,
				"element": "H" 
			},
			{
				"x": 2.450330698,
				"y": 1.2588868421,
				"z": -2.5786402283,
				"element": "H" 
			},
			{
				"x": 0.970960404,
				"y": 2.0438195122,
				"z": -1.9813252872,
				"element": "H" 
			},
			{
				"x": 2.1913273913,
				"y": 1.4503385585,
				"z": -0.8343893823,
				"element": "H" 
			},
			{
				"x": 1.5232387368,
				"y": -2.2030118129,
				"z": -1.4065920005,
				"element": "H" 
			},
			{
				"x": 2.5239888891,
				"y": -1.0534368885,
				"z": -0.5028285203,
				"element": "H" 
			},
			{
				"x": 2.772612345,
				"y": -1.2664611032,
				"z": -2.2496430664,
				"element": "H" 
			},
			{
				"x": -2.2557410819,
				"y": 1.1896615159,
				"z": 0.9300099865,
				"element": "H" 
			},
			{
				"x": -0.7866610787,
				"y": -2.1301965969,
				"z": 0.6467964731,
				"element": "H" 
			},
			{
				"x": -2.3853558604,
				"y": -2.048871886,
				"z": 1.4227931352,
				"element": "H" 
			},
			{
				"x": -0.9393953887,
				"y": -2.4684169984,
				"z": 2.3775037184,
				"element": "H" 
			},
			{
				"x": -1.5976845415,
				"y": -0.6661098243,
				"z": 3.9676580902,
				"element": "H" 
			},
			{
				"x": -2.0423175726,
				"y": 2.1994428836,
				"z": 2.8561503919,
				"element": "H" 
			},
			{
				"x": -2.1883545717,
				"y": 1.6702548107,
				"z": 4.5880289833,
				"element": "H" 
			},
			{
				"x": -3.9909177747,
				"y": -0.0085294238,
				"z": 3.9201773033,
				"element": "H" 
			},
			{
				"x": -3.8514121193,
				"y": 0.53518552,
				"z": 2.193618921,
				"element": "H" 
			},
			{
				"x": 1.6388746398,
				"y": 1.2568137876,
				"z": 2.3695249374,
				"element": "H" 
			}
		],
		 "valence_orbital": [ 
			{
				"type": "occ",
				"energy": -0.30131,
				"method": "rhf"
			},
			{
				"type": "occ",
				"energy": -0.28909,
				"method": "rhf"
			},
			{
				"type": "occ",
				"energy": -0.28391,
				"method": "rhf"
			},
			{
				"type": "occ",
				"energy": -0.26263,
				"method": "rhf"
			},
			{
				"type": "occ",
				"energy": -0.24589,
				"method": "rhf"
			},
			{
				"type": "unocc",
				"energy": 0.00664,
				"method": "rhf"
			},
			{
				"type": "unocc",
				"energy": 0.05312,
				"method": "rhf"
			},
			{
				"type": "unocc",
				"energy": 0.06412,
				"method": "rhf"
			},
			{
				"type": "unocc",
				"energy": 0.07644,
				"method": "rhf"
			},
			{
				"type": "unocc",
				"energy": 0.08783,
				"method": "rhf"
			}
		],
		"cosmo_sigma_profile": { 
			"-0.025": 0.0,
			"-0.024": 0.0,
			"-0.023": 0.0,
			"-0.022": 0.0,
			"-0.021": 0.0,
			"-0.02": 0.0,
			"-0.019": 0.020069396517,
			"-0.018": 0.690550838277,
			"-0.017": 1.0782642949,
			"-0.016": 0.536894395739,
			"-0.015": 0.73809328568,
			"-0.014": 0.611655986236,
			"-0.013": 1.80999349799,
			"-0.012": 1.79470932657,
			"-0.011": 1.13032690361,
			"-0.01": 1.90614381808,
			"-0.009": 1.09259759931,
			"-0.008": 2.14990946449,
			"-0.007": 2.29890827919,
			"-0.006": 3.71358564214,
			"-0.005": 10.4815362941,
			"-0.004": 22.0419128738,
			"-0.003": 28.2287601285,
			"-0.002": 25.7343185808,
			"-0.001": 30.3633781411,
			"0.0": 38.4771068032,
			"0.001": 30.1053374066,
			"0.002": 15.0949376649,
			"0.003": 10.7129748531,
			"0.004": 9.54026690549,
			"0.005": 7.72010961654,
			"0.006": 4.30668573269,
			"0.007": 5.08646241708,
			"0.008": 3.18035527696,
			"0.009": 3.41953412275,
			"0.01": 2.98717408194,
			"0.011": 5.33585287512,
			"0.012": 5.66701056788,
			"0.013": 3.57003719526,
			"0.014": 1.38210854448,
			"0.015": 0.0,
			"0.016": 0.0,
			"0.017": 0.0,
			"0.018": 0.0,
			"0.019": 0.0,
			"0.02": 0.0,
			"0.021": 0.0,
			"0.022": 0.0,
			"0.023": 0.0,
			"0.024": 0.0,
			"0.025": 0.0
		}
	}
}
