{
	 "smiles": "ClCC(=O)NCCOC1=CC=C(Cl)C=C1", 
	 "Tm": 582.15, 
	 "num_atms": 26, 
	 "gaussian": { 
		 "optdone": 1, 
		 "sigma_profile": "yes", 
		 "theory": "DFT", 
		 "functional": "B3LYP", 
		 "basiset": "6-31G**", 
		 "properties": { 
			 "R2extent": 7086.8886, 
			 "electric_dipole_moment_norm": 1.14495102952, 
			 "electric_quadrupole_moment_norm": 16.6881602362, 
			 "total_energy": -1513.28942952, 
			 "HOMO_LUMO_gap": 0.20888, 
			 "cosmo_polarized_energy": -12.86, 
			 "cosmo_cavitation_energy": 34.31, 
			 "cosmo_dispersion_energy": -24.76, 
			 "cosmo_repulsion_energy": 1.99, 
			 "cosmo_total_nonelectrostatic_energy": 11.55, 
			 "SMD_solvation_energy": 5.52 
		},
		"coords": [
			{
				"x": -1.8010920036,
				"y": -0.5005984271,
				"z": -4.1069412419,
				"element": "Cl" 
			},
			{
				"x": -2.9880358895,
				"y": 0.7562547524,
				"z": -3.5496947379,
				"element": "C" 
			},
			{
				"x": -3.1824751267,
				"y": 0.9031399354,
				"z": -2.0388246642,
				"element": "C" 
			},
			{
				"x": -3.9732951249,
				"y": 1.7593186123,
				"z": -1.65985885,
				"element": "O" 
			},
			{
				"x": -2.4809121231,
				"y": 0.0809158951,
				"z": -1.2235383166,
				"element": "N" 
			},
			{
				"x": -2.5865563954,
				"y": 0.154588542,
				"z": 0.2226944241,
				"element": "C" 
			},
			{
				"x": -1.2385858157,
				"y": 0.421953263,
				"z": 0.8748374854,
				"element": "C" 
			},
			{
				"x": -0.3897727881,
				"y": -0.6720241127,
				"z": 0.5313898179,
				"element": "O" 
			},
			{
				"x": 0.906641593,
				"y": -0.665809924,
				"z": 0.9664473572,
				"element": "C" 
			},
			{
				"x": 1.6883718893,
				"y": -1.7591043566,
				"z": 0.5665896931,
				"element": "C" 
			},
			{
				"x": 3.0183835026,
				"y": -1.8529708984,
				"z": 0.9576063403,
				"element": "C" 
			},
			{
				"x": 3.5738396139,
				"y": -0.8481813431,
				"z": 1.754034772,
				"element": "C" 
			},
			{
				"x": 5.2574726958,
				"y": -0.9640430767,
				"z": 2.2505635816,
				"element": "Cl" 
			},
			{
				"x": 2.8084656683,
				"y": 0.2407563092,
				"z": 2.1571739777,
				"element": "C" 
			},
			{
				"x": 1.4700671314,
				"y": 0.3356724487,
				"z": 1.764427691,
				"element": "C" 
			},
			{
				"x": -3.9514333122,
				"y": 0.5089714486,
				"z": -3.9960452054,
				"element": "H" 
			},
			{
				"x": -2.6523905296,
				"y": 1.7145476688,
				"z": -3.9462381938,
				"element": "H" 
			},
			{
				"x": -1.8294328005,
				"y": -0.5790819508,
				"z": -1.6251330581,
				"element": "H" 
			},
			{
				"x": -2.9987458931,
				"y": -0.7817039408,
				"z": 0.6180820154,
				"element": "H" 
			},
			{
				"x": -3.2829819091,
				"y": 0.9637585428,
				"z": 0.4540458202,
				"element": "H" 
			},
			{
				"x": -0.8134674062,
				"y": 1.364672991,
				"z": 0.5056423241,
				"element": "H" 
			},
			{
				"x": -1.3555064721,
				"y": 0.4904020084,
				"z": 1.9653511102,
				"element": "H" 
			},
			{
				"x": 1.2345002898,
				"y": -2.5264901225,
				"z": -0.0516365683,
				"element": "H" 
			},
			{
				"x": 3.622924314,
				"y": -2.6982799921,
				"z": 0.6480540779,
				"element": "H" 
			},
			{
				"x": 3.2485519575,
				"y": 1.0153612962,
				"z": 2.7754647044,
				"element": "H" 
			},
			{
				"x": 0.8878649342,
				"y": 1.1898744309,
				"z": 2.0882056437,
				"element": "H" 
			}
		],
		 "valence_orbital": [ 
			{
				"type": "occ",
				"energy": -0.31023,
				"method": "rhf"
			},
			{
				"type": "occ",
				"energy": -0.26896,
				"method": "rhf"
			},
			{
				"type": "occ",
				"energy": -0.26785,
				"method": "rhf"
			},
			{
				"type": "occ",
				"energy": -0.26493,
				"method": "rhf"
			},
			{
				"type": "occ",
				"energy": -0.22829,
				"method": "rhf"
			},
			{
				"type": "unocc",
				"energy": -0.01941,
				"method": "rhf"
			},
			{
				"type": "unocc",
				"energy": -0.00478,
				"method": "rhf"
			},
			{
				"type": "unocc",
				"energy": 0.01147,
				"method": "rhf"
			},
			{
				"type": "unocc",
				"energy": 0.01344,
				"method": "rhf"
			},
			{
				"type": "unocc",
				"energy": 0.0292,
				"method": "rhf"
			}
		],
		"cosmo_sigma_profile": { 
			"-0.025": 0.0,
			"-0.024": 0.0,
			"-0.023": 0.0,
			"-0.022": 0.0,
			"-0.021": 0.0,
			"-0.02": 0.0,
			"-0.019": 0.0,
			"-0.018": 0.0,
			"-0.017": 0.0,
			"-0.016": 0.0,
			"-0.015": 0.0,
			"-0.014": 0.0,
			"-0.013": 0.0,
			"-0.012": 0.0,
			"-0.011": 0.0,
			"-0.01": 0.0446100408986,
			"-0.009": 3.43734583409,
			"-0.008": 4.76469980632,
			"-0.007": 11.8401179413,
			"-0.006": 22.0063364343,
			"-0.005": 23.5681821298,
			"-0.004": 18.5084266443,
			"-0.003": 16.2260074065,
			"-0.002": 13.3397071898,
			"-0.001": 15.2350491172,
			"0.0": 14.9238052445,
			"0.001": 18.8562802414,
			"0.002": 21.9702361335,
			"0.003": 26.1275199237,
			"0.004": 23.7718097968,
			"0.005": 19.2339439838,
			"0.006": 6.04158383876,
			"0.007": 2.62231386064,
			"0.008": 1.09470143958,
			"0.009": 1.2729252269,
			"0.01": 1.36980321783,
			"0.011": 1.65751992904,
			"0.012": 2.47342970116,
			"0.013": 5.39767730129,
			"0.014": 1.75301953276,
			"0.015": 0.00934805484566,
			"0.016": 0.0,
			"0.017": 0.0,
			"0.018": 0.0,
			"0.019": 0.0,
			"0.02": 0.0,
			"0.021": 0.0,
			"0.022": 0.0,
			"0.023": 0.0,
			"0.024": 0.0,
			"0.025": 0.0
		}
	}
}
