{
	 "smiles": "NC1=NC2=C(CC3(CC2)OCCO3)C=N1", 
	 "Tm": 489.15, 
	 "num_atms": 28, 
	 "gaussian": { 
		 "optdone": 1, 
		 "sigma_profile": "yes", 
		 "theory": "DFT", 
		 "functional": "B3LYP", 
		 "basiset": "6-31G**", 
		 "properties": { 
			 "R2extent": 3955.6987, 
			 "electric_dipole_moment_norm": 1.64511443067, 
			 "electric_quadrupole_moment_norm": 13.8742389024, 
			 "total_energy": -703.609020313, 
			 "HOMO_LUMO_gap": 0.19073, 
			 "cosmo_polarized_energy": -13.41, 
			 "cosmo_cavitation_energy": 29.94, 
			 "cosmo_dispersion_energy": -22.5, 
			 "cosmo_repulsion_energy": 1.76, 
			 "cosmo_total_nonelectrostatic_energy": 9.2, 
			 "SMD_solvation_energy": 1.48 
		},
		"coords": [
			{
				"x": 4.1498357231,
				"y": 0.7689387814,
				"z": 3.3650345355,
				"element": "N" 
			},
			{
				"x": 3.4780923495,
				"y": 0.4534475539,
				"z": 2.2145283195,
				"element": "C" 
			},
			{
				"x": 2.2171126225,
				"y": 0.0107931192,
				"z": 2.3485617984,
				"element": "N" 
			},
			{
				"x": 1.5498133748,
				"y": -0.2581709723,
				"z": 1.2194452872,
				"element": "C" 
			},
			{
				"x": 2.1301722086,
				"y": -0.0984235317,
				"z": -0.0488551405,
				"element": "C" 
			},
			{
				"x": 1.3989896234,
				"y": -0.4357219604,
				"z": -1.3301215562,
				"element": "C" 
			},
			{
				"x": -0.1156203635,
				"y": -0.5645736623,
				"z": -1.1404670065,
				"element": "C" 
			},
			{
				"x": -0.4407557752,
				"y": -1.3851238656,
				"z": 0.1124019038,
				"element": "C" 
			},
			{
				"x": 0.1136094178,
				"y": -0.7043695384,
				"z": 1.3698971624,
				"element": "C" 
			},
			{
				"x": -0.7070048025,
				"y": -1.193547211,
				"z": -2.2823950382,
				"element": "O" 
			},
			{
				"x": -1.5356524525,
				"y": -0.2412655321,
				"z": -2.9443189114,
				"element": "C" 
			},
			{
				"x": -1.8826860312,
				"y": 0.73604984,
				"z": -1.8248543571,
				"element": "C" 
			},
			{
				"x": -0.6857003929,
				"y": 0.744262192,
				"z": -1.053856736,
				"element": "O" 
			},
			{
				"x": 3.4481323039,
				"y": 0.3660388755,
				"z": -0.0464484233,
				"element": "C" 
			},
			{
				"x": 4.1408770241,
				"y": 0.6456334972,
				"z": 1.0559554336,
				"element": "N" 
			},
			{
				"x": 5.1498115647,
				"y": 0.8682695208,
				"z": 3.2933944403,
				"element": "H" 
			},
			{
				"x": 3.7645672222,
				"y": 0.4171600501,
				"z": 4.2268136767,
				"element": "H" 
			},
			{
				"x": 1.7509116344,
				"y": -1.3950234912,
				"z": -1.7306694399,
				"element": "H" 
			},
			{
				"x": 1.5882212408,
				"y": 0.3206489549,
				"z": -2.0995519862,
				"element": "H" 
			},
			{
				"x": -1.5254588407,
				"y": -1.5120876491,
				"z": 0.1858733288,
				"element": "H" 
			},
			{
				"x": -0.0085396305,
				"y": -2.3848323432,
				"z": -0.0135298495,
				"element": "H" 
			},
			{
				"x": -0.4853310955,
				"y": 0.188637246,
				"z": 1.5896601874,
				"element": "H" 
			},
			{
				"x": 0.0339582104,
				"y": -1.3543661979,
				"z": 2.2465318582,
				"element": "H" 
			},
			{
				"x": -0.9889108228,
				"y": 0.2599010602,
				"z": -3.756020137,
				"element": "H" 
			},
			{
				"x": -2.4015549986,
				"y": -0.7607242237,
				"z": -3.3649774568,
				"element": "H" 
			},
			{
				"x": -2.7398049991,
				"y": 0.3804466529,
				"z": -1.2339169547,
				"element": "H" 
			},
			{
				"x": -2.0815248589,
				"y": 1.7558151433,
				"z": -2.1642566064,
				"element": "H" 
			},
			{
				"x": 3.9731405436,
				"y": 0.5196876914,
				"z": -0.9906583324,
				"element": "H" 
			}
		],
		 "valence_orbital": [ 
			{
				"type": "occ",
				"energy": -0.28744,
				"method": "rhf"
			},
			{
				"type": "occ",
				"energy": -0.27118,
				"method": "rhf"
			},
			{
				"type": "occ",
				"energy": -0.2532,
				"method": "rhf"
			},
			{
				"type": "occ",
				"energy": -0.23302,
				"method": "rhf"
			},
			{
				"type": "occ",
				"energy": -0.21267,
				"method": "rhf"
			},
			{
				"type": "unocc",
				"energy": -0.02194,
				"method": "rhf"
			},
			{
				"type": "unocc",
				"energy": 0.01308,
				"method": "rhf"
			},
			{
				"type": "unocc",
				"energy": 0.08164,
				"method": "rhf"
			},
			{
				"type": "unocc",
				"energy": 0.10019,
				"method": "rhf"
			},
			{
				"type": "unocc",
				"energy": 0.10483,
				"method": "rhf"
			}
		],
		"cosmo_sigma_profile": { 
			"-0.025": 0.0,
			"-0.024": 0.0,
			"-0.023": 0.0,
			"-0.022": 0.0,
			"-0.021": 0.0,
			"-0.02": 0.0,
			"-0.019": 0.0,
			"-0.018": 0.0,
			"-0.017": 0.0,
			"-0.016": 0.0,
			"-0.015": 0.0,
			"-0.014": 0.159979335461,
			"-0.013": 1.62742473892,
			"-0.012": 1.87532147217,
			"-0.011": 1.94838600719,
			"-0.01": 2.85079231745,
			"-0.009": 1.46596343279,
			"-0.008": 0.949857333902,
			"-0.007": 2.55229855869,
			"-0.006": 8.70693326146,
			"-0.005": 17.5314875286,
			"-0.004": 30.2130118016,
			"-0.003": 24.0108067744,
			"-0.002": 19.6124396804,
			"-0.001": 16.3343632387,
			"0.0": 13.7515489891,
			"0.001": 14.3519365056,
			"0.002": 10.6279094384,
			"0.003": 10.1550317318,
			"0.004": 7.50057011342,
			"0.005": 5.92691978027,
			"0.006": 7.31476545607,
			"0.007": 6.68840647072,
			"0.008": 5.74181893311,
			"0.009": 4.58600495111,
			"0.01": 5.011212807,
			"0.011": 4.42304869007,
			"0.012": 3.65181573997,
			"0.013": 2.81088567081,
			"0.014": 1.10221383397,
			"0.015": 1.21408127953,
			"0.016": 0.331655682311,
			"0.017": 0.0,
			"0.018": 0.0,
			"0.019": 0.0,
			"0.02": 0.0,
			"0.021": 0.0,
			"0.022": 0.0,
			"0.023": 0.0,
			"0.024": 0.0,
			"0.025": 0.0
		}
	}
}
