{
	 "smiles": "NC1=CC(=CC=C1)N1CCCS1(=O)=O", 
	 "Tm": 359.15, 
	 "num_atms": 26, 
	 "gaussian": { 
		 "optdone": 1, 
		 "sigma_profile": "yes", 
		 "theory": "DFT", 
		 "functional": "B3LYP", 
		 "basiset": "6-31G**", 
		 "properties": { 
			 "R2extent": 3508.209, 
			 "electric_dipole_moment_norm": 5.22526988011, 
			 "electric_quadrupole_moment_norm": 25.2330637953, 
			 "total_energy": -1008.25852527, 
			 "HOMO_LUMO_gap": 0.20032, 
			 "cosmo_polarized_energy": -21.42, 
			 "cosmo_cavitation_energy": 29.69, 
			 "cosmo_dispersion_energy": -22.4, 
			 "cosmo_repulsion_energy": 1.71, 
			 "cosmo_total_nonelectrostatic_energy": 9.01, 
			 "SMD_solvation_energy": 3.27 
		},
		"coords": [
			{
				"x": 1.994358682,
				"y": -1.5969068754,
				"z": 2.8501742349,
				"element": "N" 
			},
			{
				"x": 1.3513252651,
				"y": -0.4660286865,
				"z": 2.3383918264,
				"element": "C" 
			},
			{
				"x": 1.1611271224,
				"y": -0.3301495724,
				"z": 0.9529018013,
				"element": "C" 
			},
			{
				"x": 0.5780250737,
				"y": 0.827013598,
				"z": 0.4258107548,
				"element": "C" 
			},
			{
				"x": 0.1695560122,
				"y": 1.8641058952,
				"z": 1.2792671673,
				"element": "C" 
			},
			{
				"x": 0.3423679206,
				"y": 1.710015783,
				"z": 2.6520471329,
				"element": "C" 
			},
			{
				"x": 0.9300013775,
				"y": 0.5669782951,
				"z": 3.1895562605,
				"element": "C" 
			},
			{
				"x": 0.4257658134,
				"y": 0.9857836724,
				"z": -0.9810172075,
				"element": "N" 
			},
			{
				"x": 1.0695229788,
				"y": 0.076146123,
				"z": -1.9290763637,
				"element": "C" 
			},
			{
				"x": 0.7710552839,
				"y": 0.6693089888,
				"z": -3.3127487685,
				"element": "C" 
			},
			{
				"x": -0.7187279865,
				"y": 1.0193952142,
				"z": -3.3092321554,
				"element": "C" 
			},
			{
				"x": -1.1152822624,
				"y": 1.4850409784,
				"z": -1.5842435822,
				"element": "S" 
			},
			{
				"x": -1.236752189,
				"y": 2.9391850723,
				"z": -1.4409892118,
				"element": "O" 
			},
			{
				"x": -2.1898866953,
				"y": 0.623273375,
				"z": -1.0764318719,
				"element": "O" 
			},
			{
				"x": 1.7869666452,
				"y": -1.7968496672,
				"z": 3.8192752144,
				"element": "H" 
			},
			{
				"x": 1.9194826846,
				"y": -2.4268022635,
				"z": 2.277591476,
				"element": "H" 
			},
			{
				"x": 1.4723586583,
				"y": -1.1390488179,
				"z": 0.300007973,
				"element": "H" 
			},
			{
				"x": -0.2612680722,
				"y": 2.7684254219,
				"z": 0.8674896401,
				"element": "H" 
			},
			{
				"x": 0.0230682452,
				"y": 2.5065130235,
				"z": 3.3181393623,
				"element": "H" 
			},
			{
				"x": 1.071893075,
				"y": 0.4732058682,
				"z": 4.2629126183,
				"element": "H" 
			},
			{
				"x": 2.1423242607,
				"y": 0.055755329,
				"z": -1.7192396462,
				"element": "H" 
			},
			{
				"x": 0.6849449934,
				"y": -0.9541111808,
				"z": -1.85610304,
				"element": "H" 
			},
			{
				"x": 1.371117959,
				"y": 1.5715034782,
				"z": -3.458077259,
				"element": "H" 
			},
			{
				"x": 1.0086433603,
				"y": -0.0378547146,
				"z": -4.1120660424,
				"element": "H" 
			},
			{
				"x": -1.3549820879,
				"y": 0.1599695156,
				"z": -3.5313606909,
				"element": "H" 
			},
			{
				"x": -0.9934061179,
				"y": 1.8630321465,
				"z": -3.9436796228,
				"element": "H" 
			}
		],
		 "valence_orbital": [ 
			{
				"type": "occ",
				"energy": -0.30028,
				"method": "rhf"
			},
			{
				"type": "occ",
				"energy": -0.29516,
				"method": "rhf"
			},
			{
				"type": "occ",
				"energy": -0.27219,
				"method": "rhf"
			},
			{
				"type": "occ",
				"energy": -0.22434,
				"method": "rhf"
			},
			{
				"type": "occ",
				"energy": -0.19861,
				"method": "rhf"
			},
			{
				"type": "unocc",
				"energy": 0.00171,
				"method": "rhf"
			},
			{
				"type": "unocc",
				"energy": 0.01391,
				"method": "rhf"
			},
			{
				"type": "unocc",
				"energy": 0.0547,
				"method": "rhf"
			},
			{
				"type": "unocc",
				"energy": 0.06244,
				"method": "rhf"
			},
			{
				"type": "unocc",
				"energy": 0.07523,
				"method": "rhf"
			}
		],
		"cosmo_sigma_profile": { 
			"-0.025": 0.0,
			"-0.024": 0.0,
			"-0.023": 0.0,
			"-0.022": 0.0,
			"-0.021": 0.0,
			"-0.02": 0.0,
			"-0.019": 0.0,
			"-0.018": 0.0,
			"-0.017": 0.0,
			"-0.016": 0.0,
			"-0.015": 0.0,
			"-0.014": 0.0,
			"-0.013": 0.347307297129,
			"-0.012": 2.37540670742,
			"-0.011": 3.03493731958,
			"-0.01": 3.19299275276,
			"-0.009": 3.81182866184,
			"-0.008": 8.28167509373,
			"-0.007": 10.6416723274,
			"-0.006": 21.4014425631,
			"-0.005": 23.4393693467,
			"-0.004": 19.0071375709,
			"-0.003": 14.5712250872,
			"-0.002": 9.47132343993,
			"-0.001": 6.84176059359,
			"0.0": 6.3357947135,
			"0.001": 7.67819302006,
			"0.002": 6.80579669832,
			"0.003": 6.68834534896,
			"0.004": 9.86605746598,
			"0.005": 11.3094379408,
			"0.006": 15.6704793975,
			"0.007": 7.51075512886,
			"0.008": 4.59213372093,
			"0.009": 4.37202782967,
			"0.01": 9.01230113206,
			"0.011": 12.6645492893,
			"0.012": 4.21357435047,
			"0.013": 0.467500231923,
			"0.014": 0.903661445441,
			"0.015": 0.137573260102,
			"0.016": 0.0,
			"0.017": 0.0,
			"0.018": 0.0,
			"0.019": 0.0,
			"0.02": 0.0,
			"0.021": 0.0,
			"0.022": 0.0,
			"0.023": 0.0,
			"0.024": 0.0,
			"0.025": 0.0
		}
	}
}
