{
	 "smiles": "CC(N)C1=CC=C(OCC(=O)NC2CC2)C=C1", 
	 "Tm": 349.15, 
	 "num_atms": 35, 
	 "gaussian": { 
		 "optdone": 1, 
		 "sigma_profile": "yes", 
		 "theory": "DFT", 
		 "functional": "B3LYP", 
		 "basiset": "6-31G**", 
		 "properties": { 
			 "R2extent": 5620.9748, 
			 "electric_dipole_moment_norm": 2.88732355825, 
			 "electric_quadrupole_moment_norm": 14.5405009965, 
			 "total_energy": -766.154504553, 
			 "HOMO_LUMO_gap": 0.21405, 
			 "cosmo_polarized_energy": -15.57, 
			 "cosmo_cavitation_energy": 37.97, 
			 "cosmo_dispersion_energy": -26.05, 
			 "cosmo_repulsion_energy": 2.08, 
			 "cosmo_total_nonelectrostatic_energy": 14.0, 
			 "SMD_solvation_energy": 5.66 
		},
		"coords": [
			{
				"x": 0.4481840201,
				"y": -1.4797202026,
				"z": -4.0472440877,
				"element": "C" 
			},
			{
				"x": -0.958632566,
				"y": -1.0427365211,
				"z": -3.6077168789,
				"element": "C" 
			},
			{
				"x": -1.4573611484,
				"y": 0.142978446,
				"z": -4.3285448578,
				"element": "N" 
			},
			{
				"x": -1.0975828078,
				"y": -0.8020622012,
				"z": -2.1048968288,
				"element": "C" 
			},
			{
				"x": -2.2672496109,
				"y": -0.1944972777,
				"z": -1.6136249273,
				"element": "C" 
			},
			{
				"x": -2.4567435401,
				"y": 0.0162317829,
				"z": -0.2545968795,
				"element": "C" 
			},
			{
				"x": -1.4703850903,
				"y": -0.374154927,
				"z": 0.6609073227,
				"element": "C" 
			},
			{
				"x": -1.7524303545,
				"y": -0.1159565481,
				"z": 1.9849790656,
				"element": "O" 
			},
			{
				"x": -0.8790318088,
				"y": -0.6424845301,
				"z": 2.977366757,
				"element": "C" 
			},
			{
				"x": 0.3958770798,
				"y": 0.1802747114,
				"z": 3.2130929505,
				"element": "C" 
			},
			{
				"x": 1.3573248019,
				"y": -0.313013646,
				"z": 3.7866275696,
				"element": "O" 
			},
			{
				"x": 0.3253741794,
				"y": 1.4689118761,
				"z": 2.7796507893,
				"element": "N" 
			},
			{
				"x": 1.3845651523,
				"y": 2.4138633686,
				"z": 2.9882788012,
				"element": "C" 
			},
			{
				"x": 2.6201681355,
				"y": 2.3336911411,
				"z": 2.1300610162,
				"element": "C" 
			},
			{
				"x": 1.6242140347,
				"y": 3.4482543175,
				"z": 1.9202451615,
				"element": "C" 
			},
			{
				"x": -0.2959094243,
				"y": -0.9704189822,
				"z": 0.1986686379,
				"element": "C" 
			},
			{
				"x": -0.1253526973,
				"y": -1.1789813359,
				"z": -1.1755128687,
				"element": "C" 
			},
			{
				"x": 1.1982247059,
				"y": -0.7244178615,
				"z": -3.7847247783,
				"element": "H" 
			},
			{
				"x": 0.7498523132,
				"y": -2.4310409272,
				"z": -3.5961958176,
				"element": "H" 
			},
			{
				"x": 0.4702205202,
				"y": -1.6130209329,
				"z": -5.1340524611,
				"element": "H" 
			},
			{
				"x": -1.648988387,
				"y": -1.8582556217,
				"z": -3.8720590976,
				"element": "H" 
			},
			{
				"x": -1.4226983117,
				"y": -0.0297685808,
				"z": -5.3311409162,
				"element": "H" 
			},
			{
				"x": -0.837328079,
				"y": 0.9312744667,
				"z": -4.1485443252,
				"element": "H" 
			},
			{
				"x": -3.0259396418,
				"y": 0.1205810365,
				"z": -2.3221685423,
				"element": "H" 
			},
			{
				"x": -3.3641537521,
				"y": 0.4776681237,
				"z": 0.1224786303,
				"element": "H" 
			},
			{
				"x": -1.4573207302,
				"y": -0.6431486915,
				"z": 3.9069004235,
				"element": "H" 
			},
			{
				"x": -0.5862075804,
				"y": -1.6748358967,
				"z": 2.7628330585,
				"element": "H" 
			},
			{
				"x": -0.5490715604,
				"y": 1.7774965715,
				"z": 2.377298955,
				"element": "H" 
			},
			{
				"x": 1.5263060798,
				"y": 2.7153475599,
				"z": 4.0244344616,
				"element": "H" 
			},
			{
				"x": 2.6530887711,
				"y": 1.5410300389,
				"z": 1.3906614202,
				"element": "H" 
			},
			{
				"x": 3.5729823991,
				"y": 2.5617316053,
				"z": 2.5964939767,
				"element": "H" 
			},
			{
				"x": 1.001555806,
				"y": 3.4033815572,
				"z": 1.0311084641,
				"element": "H" 
			},
			{
				"x": 1.8835549914,
				"y": 4.4536751086,
				"z": 2.2363905186,
				"element": "H" 
			},
			{
				"x": 0.4943155173,
				"y": -1.2641518669,
				"z": 0.8800650028,
				"element": "H" 
			},
			{
				"x": 0.7971785832,
				"y": -1.6443251609,
				"z": -1.5058197159,
				"element": "H" 
			}
		],
		 "valence_orbital": [ 
			{
				"type": "occ",
				"energy": -0.2532,
				"method": "rhf"
			},
			{
				"type": "occ",
				"energy": -0.24965,
				"method": "rhf"
			},
			{
				"type": "occ",
				"energy": -0.24502,
				"method": "rhf"
			},
			{
				"type": "occ",
				"energy": -0.23801,
				"method": "rhf"
			},
			{
				"type": "occ",
				"energy": -0.21588,
				"method": "rhf"
			},
			{
				"type": "unocc",
				"energy": -0.00183,
				"method": "rhf"
			},
			{
				"type": "unocc",
				"energy": 0.00832,
				"method": "rhf"
			},
			{
				"type": "unocc",
				"energy": 0.0256,
				"method": "rhf"
			},
			{
				"type": "unocc",
				"energy": 0.08173,
				"method": "rhf"
			},
			{
				"type": "unocc",
				"energy": 0.09794,
				"method": "rhf"
			}
		],
		"cosmo_sigma_profile": { 
			"-0.025": 0.0,
			"-0.024": 0.0,
			"-0.023": 0.0,
			"-0.022": 0.0,
			"-0.021": 0.0,
			"-0.02": 0.0,
			"-0.019": 0.0,
			"-0.018": 0.0,
			"-0.017": 0.0,
			"-0.016": 0.0,
			"-0.015": 0.0,
			"-0.014": 0.0,
			"-0.013": 0.0551225197941,
			"-0.012": 0.373258137901,
			"-0.011": 0.987515060172,
			"-0.01": 1.01123122265,
			"-0.009": 2.70793584029,
			"-0.008": 5.88152638456,
			"-0.007": 8.02626262071,
			"-0.006": 12.0713510029,
			"-0.005": 21.160054291,
			"-0.004": 27.6600790738,
			"-0.003": 28.9872726137,
			"-0.002": 25.4118220709,
			"-0.001": 26.0778958609,
			"0.0": 23.7343278321,
			"0.001": 20.654909765,
			"0.002": 14.1606583038,
			"0.003": 12.6641647636,
			"0.004": 13.9312225759,
			"0.005": 12.5505793854,
			"0.006": 9.93316003809,
			"0.007": 3.44787981543,
			"0.008": 2.32632050915,
			"0.009": 2.50397745045,
			"0.01": 3.92431149091,
			"0.011": 2.35332688893,
			"0.012": 2.62210253549,
			"0.013": 4.58953247483,
			"0.014": 5.94723292925,
			"0.015": 1.65387930793,
			"0.016": 0.609694720192,
			"0.017": 0.1199290751,
			"0.018": 0.0,
			"0.019": 0.0,
			"0.02": 0.0,
			"0.021": 0.0,
			"0.022": 0.0,
			"0.023": 0.0,
			"0.024": 0.0,
			"0.025": 0.0
		}
	}
}
