{
	 "smiles": "CC1CC(N)=NO1", 
	 "Tm": 369.15, 
	 "num_atms": 15, 
	 "gaussian": { 
		 "optdone": 1, 
		 "sigma_profile": "yes", 
		 "theory": "DFT", 
		 "functional": "B3LYP", 
		 "basiset": "6-31G**", 
		 "properties": { 
			 "R2extent": 1298.5588, 
			 "electric_dipole_moment_norm": 3.8556792268, 
			 "electric_quadrupole_moment_norm": 12.1648392295, 
			 "total_energy": -341.918841018, 
			 "HOMO_LUMO_gap": 0.23208, 
			 "cosmo_polarized_energy": -14.03, 
			 "cosmo_cavitation_energy": 18.04, 
			 "cosmo_dispersion_energy": -13.66, 
			 "cosmo_repulsion_energy": 1.18, 
			 "cosmo_total_nonelectrostatic_energy": 5.57, 
			 "SMD_solvation_energy": 2.68 
		},
		"coords": [
			{
				"x": -0.4295662537,
				"y": 2.2335831927,
				"z": -1.4220934497,
				"element": "C" 
			},
			{
				"x": -0.2113605855,
				"y": 1.1436408852,
				"z": -0.3777467713,
				"element": "C" 
			},
			{
				"x": 1.2128555362,
				"y": 0.5625936125,
				"z": -0.375671686,
				"element": "C" 
			},
			{
				"x": 1.7768104681,
				"y": 1.2754881719,
				"z": 0.8276746001,
				"element": "C" 
			},
			{
				"x": 3.1372944097,
				"y": 1.3319661161,
				"z": 1.093062548,
				"element": "N" 
			},
			{
				"x": 0.9039039244,
				"y": 1.883237813,
				"z": 1.5474812536,
				"element": "N" 
			},
			{
				"x": -0.371191943,
				"y": 1.7151210925,
				"z": 0.951414203,
				"element": "O" 
			},
			{
				"x": -1.413841264,
				"y": 2.6911070609,
				"z": -1.2912045419,
				"element": "H" 
			},
			{
				"x": -0.3694876632,
				"y": 1.8204584012,
				"z": -2.4354640442,
				"element": "H" 
			},
			{
				"x": 0.3281314103,
				"y": 3.0171339589,
				"z": -1.319555392,
				"element": "H" 
			},
			{
				"x": -0.9743949285,
				"y": 0.3643539086,
				"z": -0.4726666534,
				"element": "H" 
			},
			{
				"x": 1.7706890228,
				"y": 0.7887401671,
				"z": -1.2900511559,
				"element": "H" 
			},
			{
				"x": 1.2355951019,
				"y": -0.524906639,
				"z": -0.2273882545,
				"element": "H" 
			},
			{
				"x": 3.6322466821,
				"y": 0.465987678,
				"z": 0.9178233202,
				"element": "H" 
			},
			{
				"x": 3.3411160825,
				"y": 1.7028945804,
				"z": 2.014186024,
				"element": "H" 
			}
		],
		 "valence_orbital": [ 
			{
				"type": "occ",
				"energy": -0.3546,
				"method": "rhf"
			},
			{
				"type": "occ",
				"energy": -0.33009,
				"method": "rhf"
			},
			{
				"type": "occ",
				"energy": -0.29992,
				"method": "rhf"
			},
			{
				"type": "occ",
				"energy": -0.27754,
				"method": "rhf"
			},
			{
				"type": "occ",
				"energy": -0.20224,
				"method": "rhf"
			},
			{
				"type": "unocc",
				"energy": 0.02984,
				"method": "rhf"
			},
			{
				"type": "unocc",
				"energy": 0.06669,
				"method": "rhf"
			},
			{
				"type": "unocc",
				"energy": 0.09367,
				"method": "rhf"
			},
			{
				"type": "unocc",
				"energy": 0.12337,
				"method": "rhf"
			},
			{
				"type": "unocc",
				"energy": 0.12504,
				"method": "rhf"
			}
		],
		"cosmo_sigma_profile": { 
			"-0.025": 0.0,
			"-0.024": 0.0,
			"-0.023": 0.0,
			"-0.022": 0.0,
			"-0.021": 0.0,
			"-0.02": 0.0,
			"-0.019": 0.0,
			"-0.018": 0.0,
			"-0.017": 0.0,
			"-0.016": 0.0,
			"-0.015": 0.0,
			"-0.014": 0.306554711052,
			"-0.013": 2.01577597332,
			"-0.012": 2.74558630079,
			"-0.011": 2.45731053733,
			"-0.01": 2.86861705665,
			"-0.009": 2.66537132718,
			"-0.008": 2.12809994452,
			"-0.007": 2.59952781373,
			"-0.006": 5.53827904778,
			"-0.005": 9.23944415853,
			"-0.004": 15.3575928605,
			"-0.003": 14.6048321002,
			"-0.002": 12.6334849494,
			"-0.001": 7.83839496631,
			"0.0": 9.02091210168,
			"0.001": 6.15065952909,
			"0.002": 2.87200519759,
			"0.003": 2.59319691962,
			"0.004": 2.34098824203,
			"0.005": 2.77181877822,
			"0.006": 2.50604606008,
			"0.007": 2.5183951957,
			"0.008": 2.36555518853,
			"0.009": 3.19684390171,
			"0.01": 2.23288057734,
			"0.011": 3.06055933566,
			"0.012": 5.1205241312,
			"0.013": 6.54528351685,
			"0.014": 2.51930357721,
			"0.015": 1.38042008018,
			"0.016": 0.71248928006,
			"0.017": 0.0,
			"0.018": 0.0,
			"0.019": 0.0,
			"0.02": 0.0,
			"0.021": 0.0,
			"0.022": 0.0,
			"0.023": 0.0,
			"0.024": 0.0,
			"0.025": 0.0
		}
	}
}
