{
	 "smiles": "COC1=CC=C(C=C1)C1=COC2=C(C(O)=CC(O)=C2)C1=O", 
	 "Tm": 484.65, 
	 "num_atms": 33, 
	 "gaussian": { 
		 "optdone": 1, 
		 "sigma_profile": "yes", 
		 "theory": "DFT", 
		 "functional": "B3LYP", 
		 "basiset": "6-31G**", 
		 "properties": { 
			 "R2extent": 10074.3668, 
			 "electric_dipole_moment_norm": 3.71272527667, 
			 "electric_quadrupole_moment_norm": 31.8626469561, 
			 "total_energy": -993.046986015, 
			 "HOMO_LUMO_gap": 0.15366, 
			 "cosmo_polarized_energy": -16.91, 
			 "cosmo_cavitation_energy": 37.37, 
			 "cosmo_dispersion_energy": -28.08, 
			 "cosmo_repulsion_energy": 2.08, 
			 "cosmo_total_nonelectrostatic_energy": 11.36, 
			 "SMD_solvation_energy": 8.59 
		},
		"coords": [
			{
				"x": -0.7627449239,
				"y": 5.0092349328,
				"z": 0.6782013062,
				"element": "C" 
			},
			{
				"x": 0.4500034888,
				"y": 4.3371746679,
				"z": 0.3748156076,
				"element": "O" 
			},
			{
				"x": 0.4025629313,
				"y": 2.9958151756,
				"z": 0.1352703966,
				"element": "C" 
			},
			{
				"x": 1.6260574631,
				"y": 2.3894537409,
				"z": -0.185424286,
				"element": "C" 
			},
			{
				"x": 1.6790901931,
				"y": 1.028961459,
				"z": -0.4512938205,
				"element": "C" 
			},
			{
				"x": 0.5248005282,
				"y": 0.2235965832,
				"z": -0.3945024815,
				"element": "C" 
			},
			{
				"x": -0.6923751674,
				"y": 0.8483778648,
				"z": -0.0858898643,
				"element": "C" 
			},
			{
				"x": -0.7598900139,
				"y": 2.2165962032,
				"z": 0.1786734719,
				"element": "C" 
			},
			{
				"x": 0.6118996006,
				"y": -1.2354062782,
				"z": -0.6334335815,
				"element": "C" 
			},
			{
				"x": 1.6806559749,
				"y": -1.9397535314,
				"z": -0.1794852834,
				"element": "C" 
			},
			{
				"x": 1.9038703283,
				"y": -3.2588248095,
				"z": -0.378789682,
				"element": "O" 
			},
			{
				"x": 0.991019129,
				"y": -3.9953706177,
				"z": -1.0837706665,
				"element": "C" 
			},
			{
				"x": -0.1747007493,
				"y": -3.386943009,
				"z": -1.5782354594,
				"element": "C" 
			},
			{
				"x": -1.0988579148,
				"y": -4.205515354,
				"z": -2.300542093,
				"element": "C" 
			},
			{
				"x": -2.2237394866,
				"y": -3.6780236512,
				"z": -2.7920225701,
				"element": "O" 
			},
			{
				"x": -0.8293503091,
				"y": -5.5576680958,
				"z": -2.4959257102,
				"element": "C" 
			},
			{
				"x": 0.3485048676,
				"y": -6.1133201484,
				"z": -1.9816283,
				"element": "C" 
			},
			{
				"x": 0.5460043422,
				"y": -7.4382241562,
				"z": -2.2091242429,
				"element": "O" 
			},
			{
				"x": 1.275538032,
				"y": -5.3435227993,
				"z": -1.2676773737,
				"element": "C" 
			},
			{
				"x": -0.4300996552,
				"y": -1.9726538658,
				"z": -1.368132723,
				"element": "C" 
			},
			{
				"x": -1.4737153179,
				"y": -1.4266848925,
				"z": -1.7926801757,
				"element": "O" 
			},
			{
				"x": -0.4979904166,
				"y": 6.0578377137,
				"z": 0.8222377823,
				"element": "H" 
			},
			{
				"x": -1.4864302171,
				"y": 4.9290333582,
				"z": -0.1429232339,
				"element": "H" 
			},
			{
				"x": -1.2206858526,
				"y": 4.6235559103,
				"z": 1.5981255537,
				"element": "H" 
			},
			{
				"x": 2.5153202212,
				"y": 3.0089447811,
				"z": -0.2375513205,
				"element": "H" 
			},
			{
				"x": 2.6299897035,
				"y": 0.5857481319,
				"z": -0.7338653493,
				"element": "H" 
			},
			{
				"x": -1.6006837907,
				"y": 0.2597793045,
				"z": -0.0599208045,
				"element": "H" 
			},
			{
				"x": -1.7198617816,
				"y": 2.6598062168,
				"z": 0.4153790596,
				"element": "H" 
			},
			{
				"x": 2.478174833,
				"y": -1.5026939691,
				"z": 0.4094142037,
				"element": "H" 
			},
			{
				"x": -2.2129082695,
				"y": -2.713234581,
				"z": -2.5363577702,
				"element": "H" 
			},
			{
				"x": -1.5290325238,
				"y": -6.1774470034,
				"z": -3.0429245767,
				"element": "H" 
			},
			{
				"x": 1.3835971566,
				"y": -7.7121016799,
				"z": -1.8129655499,
				"element": "H" 
			},
			{
				"x": 2.1892775969,
				"y": -5.7652276016,
				"z": -0.8624504626,
				"element": "H" 
			}
		],
		 "valence_orbital": [ 
			{
				"type": "occ",
				"energy": -0.26031,
				"method": "rhf"
			},
			{
				"type": "occ",
				"energy": -0.2505,
				"method": "rhf"
			},
			{
				"type": "occ",
				"energy": -0.24028,
				"method": "rhf"
			},
			{
				"type": "occ",
				"energy": -0.22917,
				"method": "rhf"
			},
			{
				"type": "occ",
				"energy": -0.20794,
				"method": "rhf"
			},
			{
				"type": "unocc",
				"energy": -0.05428,
				"method": "rhf"
			},
			{
				"type": "unocc",
				"energy": -0.02752,
				"method": "rhf"
			},
			{
				"type": "unocc",
				"energy": -0.00261,
				"method": "rhf"
			},
			{
				"type": "unocc",
				"energy": 0.00801,
				"method": "rhf"
			},
			{
				"type": "unocc",
				"energy": 0.02389,
				"method": "rhf"
			}
		],
		"cosmo_sigma_profile": { 
			"-0.025": 0.0,
			"-0.024": 0.0,
			"-0.023": 0.0,
			"-0.022": 0.0,
			"-0.021": 0.0,
			"-0.02": 0.0,
			"-0.019": 0.313010761375,
			"-0.018": 1.4418522781,
			"-0.017": 0.811828778446,
			"-0.016": 1.37024466628,
			"-0.015": 1.06510512519,
			"-0.014": 0.503366621706,
			"-0.013": 0.507712653511,
			"-0.012": 0.758627244304,
			"-0.011": 2.05152520005,
			"-0.01": 2.36131035544,
			"-0.009": 2.91338368264,
			"-0.008": 4.07533220887,
			"-0.007": 4.97917032363,
			"-0.006": 13.1548827625,
			"-0.005": 18.282534744,
			"-0.004": 20.8129775522,
			"-0.003": 22.6496801562,
			"-0.002": 20.1773882267,
			"-0.001": 20.9268882526,
			"0.0": 19.079337461,
			"0.001": 23.4433896431,
			"0.002": 22.9795388911,
			"0.003": 20.6620610703,
			"0.004": 17.2051517866,
			"0.005": 18.2764918474,
			"0.006": 7.83759285136,
			"0.007": 6.21660553345,
			"0.008": 5.57534084029,
			"0.009": 6.12793283408,
			"0.01": 6.7930145266,
			"0.011": 4.4406559464,
			"0.012": 1.88527506495,
			"0.013": 0.170619284692,
			"0.014": 0.0,
			"0.015": 0.0,
			"0.016": 0.0,
			"0.017": 0.0,
			"0.018": 0.0,
			"0.019": 0.0,
			"0.02": 0.0,
			"0.021": 0.0,
			"0.022": 0.0,
			"0.023": 0.0,
			"0.024": 0.0,
			"0.025": 0.0
		}
	}
}
