{
	 "smiles": "COC(=O)C1=C(C)NC(C)=C(C1C1=CC=C(OC)C=C1)C(=O)OC", 
	 "Tm": 448.15, 
	 "num_atms": 45, 
	 "gaussian": { 
		 "optdone": 1, 
		 "sigma_profile": "yes", 
		 "theory": "DFT", 
		 "functional": "B3LYP", 
		 "basiset": "6-31G**", 
		 "properties": { 
			 "R2extent": 8277.5164, 
			 "electric_dipole_moment_norm": 2.10220312054, 
			 "electric_quadrupole_moment_norm": 22.3425553122, 
			 "total_energy": -1129.44598727, 
			 "HOMO_LUMO_gap": 0.15617, 
			 "cosmo_polarized_energy": -20.14, 
			 "cosmo_cavitation_energy": 47.55, 
			 "cosmo_dispersion_energy": -31.92, 
			 "cosmo_repulsion_energy": 2.48, 
			 "cosmo_total_nonelectrostatic_energy": 18.1, 
			 "SMD_solvation_energy": 11.72 
		},
		"coords": [
			{
				"x": -2.7880227567,
				"y": -0.096504853,
				"z": 3.5783848264,
				"element": "C" 
			},
			{
				"x": -1.9000081479,
				"y": 0.3414267549,
				"z": 2.543866319,
				"element": "O" 
			},
			{
				"x": -2.4735677785,
				"y": 1.1059034927,
				"z": 1.5753032919,
				"element": "C" 
			},
			{
				"x": -3.6602782417,
				"y": 1.4004227005,
				"z": 1.6098686889,
				"element": "O" 
			},
			{
				"x": -1.4970575018,
				"y": 1.509904928,
				"z": 0.5528073517,
				"element": "C" 
			},
			{
				"x": -1.8844225432,
				"y": 2.3430154832,
				"z": -0.4531833278,
				"element": "C" 
			},
			{
				"x": -3.2730817458,
				"y": 2.8743205015,
				"z": -0.6990244515,
				"element": "C" 
			},
			{
				"x": -0.9309805163,
				"y": 2.7977432488,
				"z": -1.3514815989,
				"element": "N" 
			},
			{
				"x": 0.4361580136,
				"y": 2.6647689828,
				"z": -1.1616250824,
				"element": "C" 
			},
			{
				"x": 1.2767186128,
				"y": 3.5051967171,
				"z": -2.088005851,
				"element": "C" 
			},
			{
				"x": 0.8868554772,
				"y": 1.8404622877,
				"z": -0.1749727211,
				"element": "C" 
			},
			{
				"x": -0.0753699735,
				"y": 0.9514717788,
				"z": 0.6127088697,
				"element": "C" 
			},
			{
				"x": -0.017883355,
				"y": -0.506757178,
				"z": 0.1383507558,
				"element": "C" 
			},
			{
				"x": -0.369081597,
				"y": -0.8625976408,
				"z": -1.1664776758,
				"element": "C" 
			},
			{
				"x": -0.3196896915,
				"y": -2.1880377519,
				"z": -1.6071722893,
				"element": "C" 
			},
			{
				"x": 0.091565436,
				"y": -3.1933516615,
				"z": -0.7245726142,
				"element": "C" 
			},
			{
				"x": 0.1791919658,
				"y": -4.5209318006,
				"z": -1.041686235,
				"element": "O" 
			},
			{
				"x": -0.1690943457,
				"y": -4.9181656918,
				"z": -2.3563759557,
				"element": "C" 
			},
			{
				"x": 0.4475765324,
				"y": -2.8542529263,
				"z": 0.5882981842,
				"element": "C" 
			},
			{
				"x": 0.3912055344,
				"y": -1.5302459767,
				"z": 1.0057202014,
				"element": "C" 
			},
			{
				"x": 2.3278968843,
				"y": 1.7719202381,
				"z": 0.1096263316,
				"element": "C" 
			},
			{
				"x": 3.2202277253,
				"y": 2.3548943606,
				"z": -0.4904960179,
				"element": "O" 
			},
			{
				"x": 2.5925753692,
				"y": 0.9647694772,
				"z": 1.1725889488,
				"element": "O" 
			},
			{
				"x": 3.9781165201,
				"y": 0.8425855477,
				"z": 1.5132037523,
				"element": "C" 
			},
			{
				"x": -3.6011194481,
				"y": -0.69746894,
				"z": 3.1628738271,
				"element": "H" 
			},
			{
				"x": -3.2212536958,
				"y": 0.7567977982,
				"z": 4.1073438273,
				"element": "H" 
			},
			{
				"x": -2.1786932574,
				"y": -0.6960301821,
				"z": 4.2553340496,
				"element": "H" 
			},
			{
				"x": -3.5897567507,
				"y": 3.532056857,
				"z": 0.114675446,
				"element": "H" 
			},
			{
				"x": -4.003339643,
				"y": 2.0651525241,
				"z": -0.7325093069,
				"element": "H" 
			},
			{
				"x": -3.3114478644,
				"y": 3.4347997294,
				"z": -1.6395555677,
				"element": "H" 
			},
			{
				"x": -1.2372648978,
				"y": 3.4462921483,
				"z": -2.0601479294,
				"element": "H" 
			},
			{
				"x": 0.6514084801,
				"y": 3.9840269755,
				"z": -2.8495307514,
				"element": "H" 
			},
			{
				"x": 1.8117719369,
				"y": 4.2812447284,
				"z": -1.534402263,
				"element": "H" 
			},
			{
				"x": 2.0428935874,
				"y": 2.903571789,
				"z": -2.5780725371,
				"element": "H" 
			},
			{
				"x": 0.2435762705,
				"y": 0.9498607752,
				"z": 1.6565845517,
				"element": "H" 
			},
			{
				"x": -0.6907309556,
				"y": -0.0946921855,
				"z": -1.8649046452,
				"element": "H" 
			},
			{
				"x": -0.6008068508,
				"y": -2.4206101533,
				"z": -2.6277395274,
				"element": "H" 
			},
			{
				"x": -1.216150999,
				"y": -4.6828655944,
				"z": -2.5891149702,
				"element": "H" 
			},
			{
				"x": -0.0294964226,
				"y": -5.9999973227,
				"z": -2.3931491006,
				"element": "H" 
			},
			{
				"x": 0.4768392687,
				"y": -4.4467249442,
				"z": -3.1089500287,
				"element": "H" 
			},
			{
				"x": 0.7641961464,
				"y": -3.6461008098,
				"z": 1.2598320963,
				"element": "H" 
			},
			{
				"x": 0.6693083706,
				"y": -1.2793028536,
				"z": 2.0250372067,
				"element": "H" 
			},
			{
				"x": 4.0130871452,
				"y": 0.1634103477,
				"z": 2.365532388,
				"element": "H" 
			},
			{
				"x": 4.4009586762,
				"y": 1.8148171386,
				"z": 1.7807453934,
				"element": "H" 
			},
			{
				"x": 4.5488710265,
				"y": 0.4337011552,
				"z": 0.6753641404,
				"element": "H" 
			}
		],
		 "valence_orbital": [ 
			{
				"type": "occ",
				"energy": -0.26135,
				"method": "rhf"
			},
			{
				"type": "occ",
				"energy": -0.24881,
				"method": "rhf"
			},
			{
				"type": "occ",
				"energy": -0.23865,
				"method": "rhf"
			},
			{
				"type": "occ",
				"energy": -0.20425,
				"method": "rhf"
			},
			{
				"type": "occ",
				"energy": -0.20033,
				"method": "rhf"
			},
			{
				"type": "unocc",
				"energy": -0.04416,
				"method": "rhf"
			},
			{
				"type": "unocc",
				"energy": 0.00893,
				"method": "rhf"
			},
			{
				"type": "unocc",
				"energy": 0.00911,
				"method": "rhf"
			},
			{
				"type": "unocc",
				"energy": 0.02623,
				"method": "rhf"
			},
			{
				"type": "unocc",
				"energy": 0.06186,
				"method": "rhf"
			}
		],
		"cosmo_sigma_profile": { 
			"-0.025": 0.0,
			"-0.024": 0.0,
			"-0.023": 0.0,
			"-0.022": 0.0,
			"-0.021": 0.0,
			"-0.02": 0.0,
			"-0.019": 0.0,
			"-0.018": 0.0,
			"-0.017": 0.0,
			"-0.016": 0.0789611151948,
			"-0.015": 1.02886617593,
			"-0.014": 1.85316858191,
			"-0.013": 0.881617190756,
			"-0.012": 1.62865756148,
			"-0.011": 2.0844290179,
			"-0.01": 1.12382992304,
			"-0.009": 1.16759836895,
			"-0.008": 1.75323795548,
			"-0.007": 2.16317260263,
			"-0.006": 10.4440425531,
			"-0.005": 30.401940535,
			"-0.004": 35.9128233389,
			"-0.003": 41.9741143858,
			"-0.002": 35.4473938495,
			"-0.001": 33.875165309,
			"0.0": 23.7255984428,
			"0.001": 21.4473992321,
			"0.002": 21.8619088099,
			"0.003": 17.9960803085,
			"0.004": 19.0145590279,
			"0.005": 16.8923756528,
			"0.006": 16.3440766337,
			"0.007": 7.79432415801,
			"0.008": 4.63368641423,
			"0.009": 4.8750939121,
			"0.01": 4.17514424708,
			"0.011": 3.81723890342,
			"0.012": 4.69999145343,
			"0.013": 5.61820082998,
			"0.014": 0.868817079478,
			"0.015": 0.0,
			"0.016": 0.0,
			"0.017": 0.0,
			"0.018": 0.0,
			"0.019": 0.0,
			"0.02": 0.0,
			"0.021": 0.0,
			"0.022": 0.0,
			"0.023": 0.0,
			"0.024": 0.0,
			"0.025": 0.0
		}
	}
}
