{
	 "smiles": "COC1=CC=C(C=C1)C1C(CC(=O)N1C)C(N)=O", 
	 "Tm": 482.15, 
	 "num_atms": 34, 
	 "gaussian": { 
		 "optdone": 1, 
		 "sigma_profile": "yes", 
		 "theory": "DFT", 
		 "functional": "B3LYP", 
		 "basiset": "6-31G**", 
		 "properties": { 
			 "R2extent": 5030.165, 
			 "electric_dipole_moment_norm": 6.29391227298, 
			 "electric_quadrupole_moment_norm": 17.6031612206, 
			 "total_energy": -840.224500893, 
			 "HOMO_LUMO_gap": 0.20705, 
			 "cosmo_polarized_energy": -22.78, 
			 "cosmo_cavitation_energy": 36.56, 
			 "cosmo_dispersion_energy": -25.13, 
			 "cosmo_repulsion_energy": 1.96, 
			 "cosmo_total_nonelectrostatic_energy": 13.39, 
			 "SMD_solvation_energy": 8.2 
		},
		"coords": [
			{
				"x": -0.9102581888,
				"y": -0.2344528455,
				"z": 5.3495290329,
				"element": "C" 
			},
			{
				"x": 0.0586666899,
				"y": 0.6036880098,
				"z": 4.7374719766,
				"element": "O" 
			},
			{
				"x": 0.2782233762,
				"y": 0.4679200036,
				"z": 3.3986960516,
				"element": "C" 
			},
			{
				"x": 1.2600509516,
				"y": 1.3080241075,
				"z": 2.8532447809,
				"element": "C" 
			},
			{
				"x": 1.559988163,
				"y": 1.2366283856,
				"z": 1.497709546,
				"element": "C" 
			},
			{
				"x": 0.8875891939,
				"y": 0.3454687617,
				"z": 0.6481931652,
				"element": "C" 
			},
			{
				"x": -0.0884249299,
				"y": -0.4879341556,
				"z": 1.2055927635,
				"element": "C" 
			},
			{
				"x": -0.3952317575,
				"y": -0.4363580415,
				"z": 2.5665702982,
				"element": "C" 
			},
			{
				"x": 1.2117839143,
				"y": 0.3161508766,
				"z": -0.8342736266,
				"element": "C" 
			},
			{
				"x": 0.1841240435,
				"y": 1.0522523755,
				"z": -1.7868141958,
				"element": "C" 
			},
			{
				"x": 0.1966536122,
				"y": 0.2107980894,
				"z": -3.0729395148,
				"element": "C" 
			},
			{
				"x": 0.8133215706,
				"y": -1.1277458413,
				"z": -2.6877343528,
				"element": "C" 
			},
			{
				"x": 0.9149919308,
				"y": -2.112325495,
				"z": -3.4004232577,
				"element": "O" 
			},
			{
				"x": 1.2766278161,
				"y": -1.0290084674,
				"z": -1.3942142588,
				"element": "N" 
			},
			{
				"x": 2.1436031229,
				"y": -2.0479717681,
				"z": -0.8343047304,
				"element": "C" 
			},
			{
				"x": -1.2301821351,
				"y": 1.1232359082,
				"z": -1.1966652925,
				"element": "C" 
			},
			{
				"x": -1.502951288,
				"y": 2.2604133307,
				"z": -0.4827677841,
				"element": "N" 
			},
			{
				"x": -2.0677903635,
				"y": 0.2515464328,
				"z": -1.3806654571,
				"element": "O" 
			},
			{
				"x": -0.9166363064,
				"y": 0.0353482112,
				"z": 6.4065750825,
				"element": "H" 
			},
			{
				"x": -0.6487493954,
				"y": -1.2955311428,
				"z": 5.2494736949,
				"element": "H" 
			},
			{
				"x": -1.9110820937,
				"y": -0.0710562178,
				"z": 4.929733147,
				"element": "H" 
			},
			{
				"x": 1.7813323951,
				"y": 1.9939848832,
				"z": 3.512939011,
				"element": "H" 
			},
			{
				"x": 2.3383181246,
				"y": 1.8802072453,
				"z": 1.092667172,
				"element": "H" 
			},
			{
				"x": -0.6259406358,
				"y": -1.1795910318,
				"z": 0.5643723252,
				"element": "H" 
			},
			{
				"x": -1.1547609692,
				"y": -1.0998715027,
				"z": 2.9627127669,
				"element": "H" 
			},
			{
				"x": 2.1891951115,
				"y": 0.8116550287,
				"z": -0.9613239639,
				"element": "H" 
			},
			{
				"x": 0.5413792725,
				"y": 2.072198332,
				"z": -1.9567068218,
				"element": "H" 
			},
			{
				"x": -0.8034735756,
				"y": 0.0500482556,
				"z": -3.4781252014,
				"element": "H" 
			},
			{
				"x": 0.8194991139,
				"y": 0.6585589803,
				"z": -3.8543655378,
				"element": "H" 
			},
			{
				"x": 1.8240726213,
				"y": -2.3275715937,
				"z": 0.1733004454,
				"element": "H" 
			},
			{
				"x": 2.0887756103,
				"y": -2.91527146,
				"z": -1.4940252053,
				"element": "H" 
			},
			{
				"x": 3.1847547604,
				"y": -1.6996473721,
				"z": -0.7842687896,
				"element": "H" 
			},
			{
				"x": -2.3593251547,
				"y": 2.2495988192,
				"z": 0.0536758966,
				"element": "H" 
			},
			{
				"x": -0.7474446007,
				"y": 2.8201108985,
				"z": -0.1170391658,
				"element": "H" 
			}
		],
		 "valence_orbital": [ 
			{
				"type": "occ",
				"energy": -0.2619,
				"method": "rhf"
			},
			{
				"type": "occ",
				"energy": -0.25364,
				"method": "rhf"
			},
			{
				"type": "occ",
				"energy": -0.24239,
				"method": "rhf"
			},
			{
				"type": "occ",
				"energy": -0.23707,
				"method": "rhf"
			},
			{
				"type": "occ",
				"energy": -0.22322,
				"method": "rhf"
			},
			{
				"type": "unocc",
				"energy": -0.01617,
				"method": "rhf"
			},
			{
				"type": "unocc",
				"energy": -0.00329,
				"method": "rhf"
			},
			{
				"type": "unocc",
				"energy": 0.01775,
				"method": "rhf"
			},
			{
				"type": "unocc",
				"energy": 0.03657,
				"method": "rhf"
			},
			{
				"type": "unocc",
				"energy": 0.06728,
				"method": "rhf"
			}
		],
		"cosmo_sigma_profile": { 
			"-0.025": 0.0,
			"-0.024": 0.0,
			"-0.023": 0.0,
			"-0.022": 0.0,
			"-0.021": 0.0,
			"-0.02": 0.0,
			"-0.019": 0.0,
			"-0.018": 0.0,
			"-0.017": 0.0,
			"-0.016": 0.0,
			"-0.015": 0.0,
			"-0.014": 0.305420172999,
			"-0.013": 1.87653476274,
			"-0.012": 2.45256004805,
			"-0.011": 2.5825386703,
			"-0.01": 2.43884029966,
			"-0.009": 2.09447384677,
			"-0.008": 2.99774561783,
			"-0.007": 4.4123509335,
			"-0.006": 19.6314406256,
			"-0.005": 28.623960795,
			"-0.004": 27.9604099583,
			"-0.003": 26.8763104654,
			"-0.002": 23.6911594157,
			"-0.001": 17.2690991999,
			"0.0": 11.0153282117,
			"0.001": 10.9713830398,
			"0.002": 11.3259819225,
			"0.003": 14.7562316803,
			"0.004": 17.6171233472,
			"0.005": 10.3779478863,
			"0.006": 6.55065109409,
			"0.007": 4.11186836593,
			"0.008": 5.068373818,
			"0.009": 4.76040588629,
			"0.01": 4.29189432252,
			"0.011": 3.29104934216,
			"0.012": 3.94331671843,
			"0.013": 7.43509509603,
			"0.014": 7.66087781265,
			"0.015": 1.3331102024,
			"0.016": 0.0,
			"0.017": 0.0,
			"0.018": 0.0,
			"0.019": 0.0,
			"0.02": 0.0,
			"0.021": 0.0,
			"0.022": 0.0,
			"0.023": 0.0,
			"0.024": 0.0,
			"0.025": 0.0
		}
	}
}
