{
	 "smiles": "SC1=NN=C(O1)C1=CC=CC=C1", 
	 "Tm": 493.15, 
	 "num_atms": 18, 
	 "gaussian": { 
		 "optdone": 1, 
		 "sigma_profile": "yes", 
		 "theory": "DFT", 
		 "functional": "B3LYP", 
		 "basiset": "6-31G**", 
		 "properties": { 
			 "R2extent": 3653.0881, 
			 "electric_dipole_moment_norm": 4.39962098027, 
			 "electric_quadrupole_moment_norm": 14.4013942263, 
			 "total_energy": -891.342775482, 
			 "HOMO_LUMO_gap": 0.18034, 
			 "cosmo_polarized_energy": -11.75, 
			 "cosmo_cavitation_energy": 25.07, 
			 "cosmo_dispersion_energy": -19.25, 
			 "cosmo_repulsion_energy": 1.47, 
			 "cosmo_total_nonelectrostatic_energy": 7.3, 
			 "SMD_solvation_energy": 2.34 
		},
		"coords": [
			{
				"x": -2.2228624631,
				"y": 1.2580820411,
				"z": 4.7632334568,
				"element": "S" 
			},
			{
				"x": -1.3459303664,
				"y": 0.421732762,
				"z": 3.491982939,
				"element": "C" 
			},
			{
				"x": -0.8579647897,
				"y": -0.7763009909,
				"z": 3.5517720593,
				"element": "N" 
			},
			{
				"x": -0.2560684736,
				"y": -1.0017617641,
				"z": 2.3132970253,
				"element": "N" 
			},
			{
				"x": -0.4254645106,
				"y": 0.073360923,
				"z": 1.6041055363,
				"element": "C" 
			},
			{
				"x": -1.1217128045,
				"y": 1.0381402132,
				"z": 2.2990404962,
				"element": "O" 
			},
			{
				"x": 0.0127192804,
				"y": 0.350400829,
				"z": 0.241997361,
				"element": "C" 
			},
			{
				"x": -0.2611827997,
				"y": 1.5807996692,
				"z": -0.3745906039,
				"element": "C" 
			},
			{
				"x": 0.1710367454,
				"y": 1.8160195208,
				"z": -1.6784411558,
				"element": "C" 
			},
			{
				"x": 0.8758707169,
				"y": 0.8315354217,
				"z": -2.3737305726,
				"element": "C" 
			},
			{
				"x": 1.1494068438,
				"y": -0.3948910819,
				"z": -1.7604154032,
				"element": "C" 
			},
			{
				"x": 0.722200557,
				"y": -0.639375599,
				"z": -0.459170971,
				"element": "C" 
			},
			{
				"x": -2.4078572723,
				"y": 2.381527919,
				"z": 4.0440621399,
				"element": "H" 
			},
			{
				"x": -0.8089062561,
				"y": 2.3448658985,
				"z": 0.1666831233,
				"element": "H" 
			},
			{
				"x": -0.0432197134,
				"y": 2.7696435167,
				"z": -2.1515581606,
				"element": "H" 
			},
			{
				"x": 1.2111832446,
				"y": 1.0182107648,
				"z": -3.389670028,
				"element": "H" 
			},
			{
				"x": 1.6973712407,
				"y": -1.1623217333,
				"z": -2.2988134168,
				"element": "H" 
			},
			{
				"x": 0.9271808206,
				"y": -1.5859683098,
				"z": 0.0292161745,
				"element": "H" 
			}
		],
		 "valence_orbital": [ 
			{
				"type": "occ",
				"energy": -0.32667,
				"method": "rhf"
			},
			{
				"type": "occ",
				"energy": -0.28205,
				"method": "rhf"
			},
			{
				"type": "occ",
				"energy": -0.28198,
				"method": "rhf"
			},
			{
				"type": "occ",
				"energy": -0.26615,
				"method": "rhf"
			},
			{
				"type": "occ",
				"energy": -0.23393,
				"method": "rhf"
			},
			{
				"type": "unocc",
				"energy": -0.05359,
				"method": "rhf"
			},
			{
				"type": "unocc",
				"energy": -0.01556,
				"method": "rhf"
			},
			{
				"type": "unocc",
				"energy": -0.00613,
				"method": "rhf"
			},
			{
				"type": "unocc",
				"energy": 0.01036,
				"method": "rhf"
			},
			{
				"type": "unocc",
				"energy": 0.04725,
				"method": "rhf"
			}
		],
		"cosmo_sigma_profile": { 
			"-0.025": 0.0,
			"-0.024": 0.0,
			"-0.023": 0.0,
			"-0.022": 0.0,
			"-0.021": 0.0,
			"-0.02": 0.0,
			"-0.019": 0.0,
			"-0.018": 0.0,
			"-0.017": 0.0,
			"-0.016": 0.0,
			"-0.015": 0.0,
			"-0.014": 0.22317065125,
			"-0.013": 1.82978131451,
			"-0.012": 1.68528768229,
			"-0.011": 1.64762603034,
			"-0.01": 1.7122813354,
			"-0.009": 1.0083073425,
			"-0.008": 1.39481278965,
			"-0.007": 4.39026022343,
			"-0.006": 10.8572359374,
			"-0.005": 14.401924471,
			"-0.004": 14.9440415727,
			"-0.003": 12.4096293766,
			"-0.002": 14.9374557981,
			"-0.001": 14.3221021859,
			"0.0": 16.0692165024,
			"0.001": 19.1220680664,
			"0.002": 15.7844489306,
			"0.003": 16.0838740735,
			"0.004": 15.4827102784,
			"0.005": 4.75679410956,
			"0.006": 2.67017832892,
			"0.007": 1.56063783173,
			"0.008": 2.37306962301,
			"0.009": 2.10067428303,
			"0.01": 2.8912286829,
			"0.011": 3.71891572674,
			"0.012": 2.55335380348,
			"0.013": 2.40131912232,
			"0.014": 1.58710806656,
			"0.015": 0.375553938467,
			"0.016": 0.0,
			"0.017": 0.0,
			"0.018": 0.0,
			"0.019": 0.0,
			"0.02": 0.0,
			"0.021": 0.0,
			"0.022": 0.0,
			"0.023": 0.0,
			"0.024": 0.0,
			"0.025": 0.0
		}
	}
}
