{
	 "smiles": "CCCC#CCC", 
	 "Tm": 142.15, 
	 "num_atms": 19, 
	 "gaussian": { 
		 "optdone": 1, 
		 "sigma_profile": "yes", 
		 "theory": "DFT", 
		 "functional": "B3LYP", 
		 "basiset": "6-31G**", 
		 "properties": { 
			 "R2extent": 1639.9603, 
			 "electric_dipole_moment_norm": 0.134513345063, 
			 "electric_quadrupole_moment_norm": 4.39438042277, 
			 "total_energy": -273.931044439, 
			 "HOMO_LUMO_gap": 0.29607, 
			 "cosmo_polarized_energy": -3.04, 
			 "cosmo_cavitation_energy": 22.25, 
			 "cosmo_dispersion_energy": -15.73, 
			 "cosmo_repulsion_energy": 1.4, 
			 "cosmo_total_nonelectrostatic_energy": 7.91, 
			 "SMD_solvation_energy": 4.18 
		},
		"coords": [
			{
				"x": -0.2135359605,
				"y": -1.3441331496,
				"z": 0.3618080227,
				"element": "C" 
			},
			{
				"x": -0.626582409,
				"y": -1.5588928291,
				"z": -1.0959418248,
				"element": "C" 
			},
			{
				"x": -1.5206980544,
				"y": -0.4289365128,
				"z": -1.6549214944,
				"element": "C" 
			},
			{
				"x": -0.8631659764,
				"y": 0.8800651752,
				"z": -1.6907423879,
				"element": "C" 
			},
			{
				"x": -0.3073740541,
				"y": 1.955288745,
				"z": -1.7227058923,
				"element": "C" 
			},
			{
				"x": 0.3702669846,
				"y": 3.2538192535,
				"z": -1.7493819811,
				"element": "C" 
			},
			{
				"x": 1.5199050054,
				"y": 3.3600526784,
				"z": -0.729825003,
				"element": "C" 
			},
			{
				"x": -1.0902220076,
				"y": -1.2973418333,
				"z": 1.0183745194,
				"element": "H" 
			},
			{
				"x": 0.4249631226,
				"y": -2.1599289891,
				"z": 0.7158780939,
				"element": "H" 
			},
			{
				"x": 0.3384731575,
				"y": -0.4061657799,
				"z": 0.4761888529,
				"element": "H" 
			},
			{
				"x": -1.1746508573,
				"y": -2.5043672447,
				"z": -1.1930595988,
				"element": "H" 
			},
			{
				"x": 0.266094309,
				"y": -1.6464242203,
				"z": -1.7265248044,
				"element": "H" 
			},
			{
				"x": -1.8482507053,
				"y": -0.6969071363,
				"z": -2.6683229466,
				"element": "H" 
			},
			{
				"x": -2.4354803435,
				"y": -0.3615450983,
				"z": -1.0489232388,
				"element": "H" 
			},
			{
				"x": 0.7597016013,
				"y": 3.4415965041,
				"z": -2.7590144805,
				"element": "H" 
			},
			{
				"x": -0.361853268,
				"y": 4.0496737689,
				"z": -1.5572903538,
				"element": "H" 
			},
			{
				"x": 1.9941023864,
				"y": 4.3449776986,
				"z": -0.7878988339,
				"element": "H" 
			},
			{
				"x": 2.2821081083,
				"y": 2.5995472577,
				"z": -0.9223682876,
				"element": "H" 
			},
			{
				"x": 1.1502989611,
				"y": 3.2158217117,
				"z": 0.289471639,
				"element": "H" 
			}
		],
		 "valence_orbital": [ 
			{
				"type": "occ",
				"energy": -0.34694,
				"method": "rhf"
			},
			{
				"type": "occ",
				"energy": -0.34348,
				"method": "rhf"
			},
			{
				"type": "occ",
				"energy": -0.33318,
				"method": "rhf"
			},
			{
				"type": "occ",
				"energy": -0.24052,
				"method": "rhf"
			},
			{
				"type": "occ",
				"energy": -0.23836,
				"method": "rhf"
			},
			{
				"type": "unocc",
				"energy": 0.05771,
				"method": "rhf"
			},
			{
				"type": "unocc",
				"energy": 0.0677,
				"method": "rhf"
			},
			{
				"type": "unocc",
				"energy": 0.10156,
				"method": "rhf"
			},
			{
				"type": "unocc",
				"energy": 0.12221,
				"method": "rhf"
			},
			{
				"type": "unocc",
				"energy": 0.14185,
				"method": "rhf"
			}
		],
		"cosmo_sigma_profile": { 
			"-0.025": 0.0,
			"-0.024": 0.0,
			"-0.023": 0.0,
			"-0.022": 0.0,
			"-0.021": 0.0,
			"-0.02": 0.0,
			"-0.019": 0.0,
			"-0.018": 0.0,
			"-0.017": 0.0,
			"-0.016": 0.0,
			"-0.015": 0.0,
			"-0.014": 0.0,
			"-0.013": 0.0,
			"-0.012": 0.0,
			"-0.011": 0.0,
			"-0.01": 0.0,
			"-0.009": 0.0,
			"-0.008": 0.0,
			"-0.007": 0.0,
			"-0.006": 0.0,
			"-0.005": 3.27087561069,
			"-0.004": 9.32554484215,
			"-0.003": 20.6545575694,
			"-0.002": 28.0582544013,
			"-0.001": 28.7877055313,
			"0.0": 23.5114327766,
			"0.001": 21.5828182292,
			"0.002": 10.0762634538,
			"0.003": 4.4809121165,
			"0.004": 4.85428729904,
			"0.005": 4.78379853022,
			"0.006": 3.85687516464,
			"0.007": 5.53471807481,
			"0.008": 4.91467847996,
			"0.009": 0.12504288749,
			"0.01": 0.0,
			"0.011": 0.0,
			"0.012": 0.0,
			"0.013": 0.0,
			"0.014": 0.0,
			"0.015": 0.0,
			"0.016": 0.0,
			"0.017": 0.0,
			"0.018": 0.0,
			"0.019": 0.0,
			"0.02": 0.0,
			"0.021": 0.0,
			"0.022": 0.0,
			"0.023": 0.0,
			"0.024": 0.0,
			"0.025": 0.0
		}
	}
}
