{
	 "smiles": "NC1=C(C=CC(F)=C1)C(O)=O", 
	 "Tm": 467.15, 
	 "num_atms": 17, 
	 "gaussian": { 
		 "optdone": 1, 
		 "sigma_profile": "yes", 
		 "theory": "DFT", 
		 "functional": "B3LYP", 
		 "basiset": "6-31G**", 
		 "properties": { 
			 "R2extent": 1978.8009, 
			 "electric_dipole_moment_norm": 3.20546039907, 
			 "electric_quadrupole_moment_norm": 13.0701686313, 
			 "total_energy": -575.4198133, 
			 "HOMO_LUMO_gap": 0.17635, 
			 "cosmo_polarized_energy": -11.64, 
			 "cosmo_cavitation_energy": 21.84, 
			 "cosmo_dispersion_energy": -16.49, 
			 "cosmo_repulsion_energy": 1.3, 
			 "cosmo_total_nonelectrostatic_energy": 6.65, 
			 "SMD_solvation_energy": 5.36 
		},
		"coords": [
			{
				"x": -2.9688205517,
				"y": -0.2758483194,
				"z": 0.2778366742,
				"element": "N" 
			},
			{
				"x": -1.6452439211,
				"y": -0.3177644387,
				"z": 0.623722813,
				"element": "C" 
			},
			{
				"x": -0.5785112649,
				"y": -0.1955588444,
				"z": -0.3178039133,
				"element": "C" 
			},
			{
				"x": 0.7521138243,
				"y": -0.3044487229,
				"z": 0.1338651845,
				"element": "C" 
			},
			{
				"x": 1.0735530412,
				"y": -0.5173132171,
				"z": 1.4621269863,
				"element": "C" 
			},
			{
				"x": 0.0117625836,
				"y": -0.62436585,
				"z": 2.3631741283,
				"element": "C" 
			},
			{
				"x": 0.2862109895,
				"y": -0.828032247,
				"z": 3.6657688925,
				"element": "F" 
			},
			{
				"x": -1.3108236444,
				"y": -0.5311659596,
				"z": 1.9798076682,
				"element": "C" 
			},
			{
				"x": -0.7318778117,
				"y": 0.051550463,
				"z": -1.763761372,
				"element": "C" 
			},
			{
				"x": -2.0270221445,
				"y": 0.2098505029,
				"z": -2.1869012244,
				"element": "O" 
			},
			{
				"x": 0.1799078888,
				"y": 0.1281999452,
				"z": -2.5659541043,
				"element": "O" 
			},
			{
				"x": -3.2188885419,
				"y": 0.0325671812,
				"z": -0.6480825523,
				"element": "H" 
			},
			{
				"x": -3.6487847741,
				"y": -0.1676199157,
				"z": 1.012230956,
				"element": "H" 
			},
			{
				"x": 1.5323797821,
				"y": -0.2083954144,
				"z": -0.6129809545,
				"element": "H" 
			},
			{
				"x": 2.0966414362,
				"y": -0.5978569204,
				"z": 1.8086528452,
				"element": "H" 
			},
			{
				"x": -2.0887795313,
				"y": -0.6327382597,
				"z": 2.7294044015,
				"element": "H" 
			},
			{
				"x": -1.9633173602,
				"y": 0.366040017,
				"z": -3.1435064289,
				"element": "H" 
			}
		],
		 "valence_orbital": [ 
			{
				"type": "occ",
				"energy": -0.32751,
				"method": "rhf"
			},
			{
				"type": "occ",
				"energy": -0.31103,
				"method": "rhf"
			},
			{
				"type": "occ",
				"energy": -0.27774,
				"method": "rhf"
			},
			{
				"type": "occ",
				"energy": -0.25279,
				"method": "rhf"
			},
			{
				"type": "occ",
				"energy": -0.21523,
				"method": "rhf"
			},
			{
				"type": "unocc",
				"energy": -0.03888,
				"method": "rhf"
			},
			{
				"type": "unocc",
				"energy": 0.00253,
				"method": "rhf"
			},
			{
				"type": "unocc",
				"energy": 0.06279,
				"method": "rhf"
			},
			{
				"type": "unocc",
				"energy": 0.07018,
				"method": "rhf"
			},
			{
				"type": "unocc",
				"energy": 0.08856,
				"method": "rhf"
			}
		],
		"cosmo_sigma_profile": { 
			"-0.025": 0.0,
			"-0.024": 0.0,
			"-0.023": 0.0,
			"-0.022": 0.0,
			"-0.021": 0.0,
			"-0.02": 0.0,
			"-0.019": 0.0577606714616,
			"-0.018": 0.669991420448,
			"-0.017": 0.855647417102,
			"-0.016": 0.880631603158,
			"-0.015": 0.643243398552,
			"-0.014": 1.3410187228,
			"-0.013": 1.94158790407,
			"-0.012": 2.73572902813,
			"-0.011": 2.10282256661,
			"-0.01": 2.54147628121,
			"-0.009": 3.07325616363,
			"-0.008": 2.78865215373,
			"-0.007": 5.31661979847,
			"-0.006": 5.64498480601,
			"-0.005": 5.89323644011,
			"-0.004": 6.85393008491,
			"-0.003": 5.81114205345,
			"-0.002": 7.07002739833,
			"-0.001": 9.20961018825,
			"0.0": 12.628466161,
			"0.001": 15.7778306723,
			"0.002": 18.2547855351,
			"0.003": 20.6657140987,
			"0.004": 19.0255344675,
			"0.005": 4.2066857134,
			"0.006": 2.20900070913,
			"0.007": 1.96058791485,
			"0.008": 1.97019009043,
			"0.009": 2.08303001973,
			"0.01": 2.07747962123,
			"0.011": 2.56484127464,
			"0.012": 5.2220674225,
			"0.013": 0.659152454002,
			"0.014": 0.0,
			"0.015": 0.0,
			"0.016": 0.0,
			"0.017": 0.0,
			"0.018": 0.0,
			"0.019": 0.0,
			"0.02": 0.0,
			"0.021": 0.0,
			"0.022": 0.0,
			"0.023": 0.0,
			"0.024": 0.0,
			"0.025": 0.0
		}
	}
}
