{
	 "smiles": "NC1=C(C=C(S1)C1=CC=CC=C1)C#N", 
	 "Tm": 464.15, 
	 "num_atms": 22, 
	 "gaussian": { 
		 "optdone": 1, 
		 "sigma_profile": "yes", 
		 "theory": "DFT", 
		 "functional": "B3LYP", 
		 "basiset": "6-31G**", 
		 "properties": { 
			 "R2extent": 4010.5824, 
			 "electric_dipole_moment_norm": 4.03879575616, 
			 "electric_quadrupole_moment_norm": 19.8861401541, 
			 "total_energy": -931.660550671, 
			 "HOMO_LUMO_gap": 0.16111, 
			 "cosmo_polarized_energy": -14.27, 
			 "cosmo_cavitation_energy": 29.08, 
			 "cosmo_dispersion_energy": -21.34, 
			 "cosmo_repulsion_energy": 1.62, 
			 "cosmo_total_nonelectrostatic_energy": 9.37, 
			 "SMD_solvation_energy": 5.81 
		},
		"coords": [
			{
				"x": 0.7410945845,
				"y": 2.9210468811,
				"z": 2.9543145752,
				"element": "N" 
			},
			{
				"x": 0.4570295389,
				"y": 2.0670643955,
				"z": 1.919748722,
				"element": "C" 
			},
			{
				"x": -0.7464683782,
				"y": 1.4194585356,
				"z": 1.6650974855,
				"element": "C" 
			},
			{
				"x": -0.7239432732,
				"y": 0.6651468991,
				"z": 0.4437227124,
				"element": "C" 
			},
			{
				"x": 0.465557896,
				"y": 0.717028995,
				"z": -0.2254026792,
				"element": "C" 
			},
			{
				"x": 1.6151193267,
				"y": 1.7430113436,
				"z": 0.6572050571,
				"element": "S" 
			},
			{
				"x": 0.8564629927,
				"y": 0.0605921573,
				"z": -1.4767509492,
				"element": "C" 
			},
			{
				"x": 1.8551217789,
				"y": 0.595812567,
				"z": -2.3103508047,
				"element": "C" 
			},
			{
				"x": 2.2081222823,
				"y": -0.0381911305,
				"z": -3.5000693418,
				"element": "C" 
			},
			{
				"x": 1.5647290242,
				"y": -1.213664466,
				"z": -3.8905472706,
				"element": "C" 
			},
			{
				"x": 0.5697326111,
				"y": -1.7552134191,
				"z": -3.0728459575,
				"element": "C" 
			},
			{
				"x": 0.2253198315,
				"y": -1.1332145044,
				"z": -1.875775371,
				"element": "C" 
			},
			{
				"x": -1.8438505649,
				"y": 1.5223786954,
				"z": 2.5595835252,
				"element": "C" 
			},
			{
				"x": -2.7102031731,
				"y": 1.6348306135,
				"z": 3.3321380722,
				"element": "N" 
			},
			{
				"x": 0.0696550518,
				"y": 2.918837077,
				"z": 3.7117902645,
				"element": "H" 
			},
			{
				"x": 1.7021420068,
				"y": 2.9917370806,
				"z": 3.2556042056,
				"element": "H" 
			},
			{
				"x": -1.5865142717,
				"y": 0.1183721214,
				"z": 0.0830675197,
				"element": "H" 
			},
			{
				"x": 2.3442745867,
				"y": 1.5264279772,
				"z": -2.0358563823,
				"element": "H" 
			},
			{
				"x": 2.9813678998,
				"y": 0.394659574,
				"z": -4.1282171388,
				"element": "H" 
			},
			{
				"x": 1.8376796876,
				"y": -1.7050791648,
				"z": -4.8195659875,
				"element": "H" 
			},
			{
				"x": 0.0693122362,
				"y": -2.6753523561,
				"z": -3.3607832426,
				"element": "H" 
			},
			{
				"x": -0.5237416745,
				"y": -1.5828898724,
				"z": -1.2314070141,
				"element": "H" 
			}
		],
		 "valence_orbital": [ 
			{
				"type": "occ",
				"energy": -0.32652,
				"method": "rhf"
			},
			{
				"type": "occ",
				"energy": -0.26768,
				"method": "rhf"
			},
			{
				"type": "occ",
				"energy": -0.26253,
				"method": "rhf"
			},
			{
				"type": "occ",
				"energy": -0.25784,
				"method": "rhf"
			},
			{
				"type": "occ",
				"energy": -0.20362,
				"method": "rhf"
			},
			{
				"type": "unocc",
				"energy": -0.04251,
				"method": "rhf"
			},
			{
				"type": "unocc",
				"energy": -0.01632,
				"method": "rhf"
			},
			{
				"type": "unocc",
				"energy": -0.01408,
				"method": "rhf"
			},
			{
				"type": "unocc",
				"energy": 0.00119,
				"method": "rhf"
			},
			{
				"type": "unocc",
				"energy": 0.03973,
				"method": "rhf"
			}
		],
		"cosmo_sigma_profile": { 
			"-0.025": 0.0,
			"-0.024": 0.0,
			"-0.023": 0.0,
			"-0.022": 0.0,
			"-0.021": 0.0,
			"-0.02": 0.0,
			"-0.019": 0.0,
			"-0.018": 0.0,
			"-0.017": 0.0,
			"-0.016": 0.209041945402,
			"-0.015": 1.24781621589,
			"-0.014": 2.65659915427,
			"-0.013": 2.30727214094,
			"-0.012": 2.68166369385,
			"-0.011": 2.43380104019,
			"-0.01": 1.89254202473,
			"-0.009": 2.29485557065,
			"-0.008": 3.51705970428,
			"-0.007": 5.23239012278,
			"-0.006": 11.1697544988,
			"-0.005": 13.4786285338,
			"-0.004": 15.6030515767,
			"-0.003": 12.8393127198,
			"-0.002": 11.4116222607,
			"-0.001": 13.1535879669,
			"0.0": 14.6822011173,
			"0.001": 20.2208038841,
			"0.002": 22.0278766395,
			"0.003": 19.2820499065,
			"0.004": 16.4820236284,
			"0.005": 13.2148643719,
			"0.006": 5.76738924567,
			"0.007": 2.94755648897,
			"0.008": 3.80037117283,
			"0.009": 3.60210513868,
			"0.01": 3.61879876102,
			"0.011": 3.08777922645,
			"0.012": 2.83031032184,
			"0.013": 2.32403987001,
			"0.014": 0.75285741097,
			"0.015": 0.0,
			"0.016": 0.0,
			"0.017": 0.0,
			"0.018": 0.0,
			"0.019": 0.0,
			"0.02": 0.0,
			"0.021": 0.0,
			"0.022": 0.0,
			"0.023": 0.0,
			"0.024": 0.0,
			"0.025": 0.0
		}
	}
}
