{
	 "smiles": "CC(C)NC(=O)C(=O)NN", 
	 "Tm": 432.15, 
	 "num_atms": 21, 
	 "gaussian": { 
		 "optdone": 1, 
		 "sigma_profile": "yes", 
		 "theory": "DFT", 
		 "functional": "B3LYP", 
		 "basiset": "6-31G**", 
		 "properties": { 
			 "R2extent": 1792.0052, 
			 "electric_dipole_moment_norm": 1.73943017394, 
			 "electric_quadrupole_moment_norm": 7.08225606569, 
			 "total_energy": -511.865442917, 
			 "HOMO_LUMO_gap": 0.19436, 
			 "cosmo_polarized_energy": -12.08, 
			 "cosmo_cavitation_energy": 24.25, 
			 "cosmo_dispersion_energy": -17.79, 
			 "cosmo_repulsion_energy": 1.49, 
			 "cosmo_total_nonelectrostatic_energy": 7.94, 
			 "SMD_solvation_energy": 5.7 
		},
		"coords": [
			{
				"x": 1.709221093,
				"y": -1.130903332,
				"z": -1.9927817885,
				"element": "C" 
			},
			{
				"x": 1.1661165367,
				"y": -1.7463993074,
				"z": -0.6956101117,
				"element": "C" 
			},
			{
				"x": 2.1884435347,
				"y": -1.6912625757,
				"z": 0.4490416193,
				"element": "C" 
			},
			{
				"x": -0.1111238574,
				"y": -1.129036429,
				"z": -0.3056556372,
				"element": "N" 
			},
			{
				"x": -0.2835495533,
				"y": 0.1624858374,
				"z": 0.0279010742,
				"element": "C" 
			},
			{
				"x": 0.5901951772,
				"y": 1.0351811167,
				"z": 0.0260324887,
				"element": "O" 
			},
			{
				"x": -1.7543386178,
				"y": 0.4125413696,
				"z": 0.4503070831,
				"element": "C" 
			},
			{
				"x": -2.5176806767,
				"y": -0.5423972965,
				"z": 0.6049040008,
				"element": "O" 
			},
			{
				"x": -2.1478280456,
				"y": 1.6893213159,
				"z": 0.6745981192,
				"element": "N" 
			},
			{
				"x": -1.4066101101,
				"y": 2.8931453268,
				"z": 0.5893402787,
				"element": "N" 
			},
			{
				"x": 1.9480886864,
				"y": -0.075654695,
				"z": -1.8439331408,
				"element": "H" 
			},
			{
				"x": 2.6188076015,
				"y": -1.6552254879,
				"z": -2.3024681225,
				"element": "H" 
			},
			{
				"x": 0.9743395793,
				"y": -1.212953233,
				"z": -2.799293722,
				"element": "H" 
			},
			{
				"x": 0.9191732846,
				"y": -2.7964028741,
				"z": -0.889614842,
				"element": "H" 
			},
			{
				"x": 2.4399007751,
				"y": -0.654884896,
				"z": 0.6853017247,
				"element": "H" 
			},
			{
				"x": 3.1044874648,
				"y": -2.2158037486,
				"z": 0.1590404753,
				"element": "H" 
			},
			{
				"x": 1.7908027888,
				"y": -2.168523886,
				"z": 1.3498455102,
				"element": "H" 
			},
			{
				"x": -0.9394975086,
				"y": -1.6990610167,
				"z": -0.1715974758,
				"element": "H" 
			},
			{
				"x": -3.0833512361,
				"y": 1.7858175831,
				"z": 1.0497195274,
				"element": "H" 
			},
			{
				"x": -0.4391382238,
				"y": 2.6516943999,
				"z": 0.7983488736,
				"element": "H" 
			},
			{
				"x": -1.4022586927,
				"y": 3.1856218285,
				"z": -0.3886259346,
				"element": "H" 
			}
		],
		 "valence_orbital": [ 
			{
				"type": "occ",
				"energy": -0.31136,
				"method": "rhf"
			},
			{
				"type": "occ",
				"energy": -0.30422,
				"method": "rhf"
			},
			{
				"type": "occ",
				"energy": -0.26383,
				"method": "rhf"
			},
			{
				"type": "occ",
				"energy": -0.25528,
				"method": "rhf"
			},
			{
				"type": "occ",
				"energy": -0.23328,
				"method": "rhf"
			},
			{
				"type": "unocc",
				"energy": -0.03892,
				"method": "rhf"
			},
			{
				"type": "unocc",
				"energy": 0.07706,
				"method": "rhf"
			},
			{
				"type": "unocc",
				"energy": 0.0887,
				"method": "rhf"
			},
			{
				"type": "unocc",
				"energy": 0.09531,
				"method": "rhf"
			},
			{
				"type": "unocc",
				"energy": 0.10186,
				"method": "rhf"
			}
		],
		"cosmo_sigma_profile": { 
			"-0.025": 0.0,
			"-0.024": 0.0,
			"-0.023": 0.0,
			"-0.022": 0.0,
			"-0.021": 0.0,
			"-0.02": 0.0,
			"-0.019": 0.0,
			"-0.018": 0.0,
			"-0.017": 0.0,
			"-0.016": 0.0,
			"-0.015": 0.168889675218,
			"-0.014": 1.11733202232,
			"-0.013": 0.993178554019,
			"-0.012": 2.3355605196,
			"-0.011": 2.90063417915,
			"-0.01": 3.0563950512,
			"-0.009": 3.10190041724,
			"-0.008": 2.81747260952,
			"-0.007": 3.65248554257,
			"-0.006": 5.38324972816,
			"-0.005": 7.42296738311,
			"-0.004": 12.4712616458,
			"-0.003": 17.6881351683,
			"-0.002": 16.7876850003,
			"-0.001": 17.6140737419,
			"0.0": 20.9362722085,
			"0.001": 18.9904180439,
			"0.002": 6.54037587828,
			"0.003": 4.06492539639,
			"0.004": 3.14080272022,
			"0.005": 3.69814117641,
			"0.006": 4.64202187777,
			"0.007": 4.28326517626,
			"0.008": 3.14532707344,
			"0.009": 2.5022451619,
			"0.01": 3.50279085794,
			"0.011": 4.76278314157,
			"0.012": 5.32229980984,
			"0.013": 3.841366154,
			"0.014": 1.39584868825,
			"0.015": 0.459541775337,
			"0.016": 0.647958553947,
			"0.017": 0.0723219155665,
			"0.018": 0.0,
			"0.019": 0.0,
			"0.02": 0.0,
			"0.021": 0.0,
			"0.022": 0.0,
			"0.023": 0.0,
			"0.024": 0.0,
			"0.025": 0.0
		}
	}
}
