{
	 "smiles": "O=C1OC(OC2OC(=O)C3=CC=CC=C23)C2=CC=CC=C12", 
	 "Tm": 495.15, 
	 "num_atms": 31, 
	 "gaussian": { 
		 "optdone": 1, 
		 "sigma_profile": "yes", 
		 "theory": "DFT", 
		 "functional": "B3LYP", 
		 "basiset": "6-31G**", 
		 "properties": { 
			 "R2extent": 6264.0299, 
			 "electric_dipole_moment_norm": 8.66255105382, 
			 "electric_quadrupole_moment_norm": 21.0969928113, 
			 "total_energy": -991.857769398, 
			 "HOMO_LUMO_gap": 0.20944, 
			 "cosmo_polarized_energy": -21.98, 
			 "cosmo_cavitation_energy": 36.7, 
			 "cosmo_dispersion_energy": -25.78, 
			 "cosmo_repulsion_energy": 1.96, 
			 "cosmo_total_nonelectrostatic_energy": 12.87, 
			 "SMD_solvation_energy": 7.75 
		},
		"coords": [
			{
				"x": -1.0786734031,
				"y": 0.6283001307,
				"z": 3.4264669033,
				"element": "O" 
			},
			{
				"x": -0.7335341765,
				"y": -0.1152917183,
				"z": 2.5474905906,
				"element": "C" 
			},
			{
				"x": -0.759746489,
				"y": 0.2431769274,
				"z": 1.2105438284,
				"element": "O" 
			},
			{
				"x": -0.2916511948,
				"y": -0.8246422067,
				"z": 0.3738187903,
				"element": "C" 
			},
			{
				"x": -1.2851707026,
				"y": -1.2850580872,
				"z": -0.510354336,
				"element": "O" 
			},
			{
				"x": -1.6949043631,
				"y": -0.4417461943,
				"z": -1.5632509807,
				"element": "C" 
			},
			{
				"x": -2.5551190164,
				"y": 0.6059514544,
				"z": -1.0935896227,
				"element": "O" 
			},
			{
				"x": -2.0868100523,
				"y": 1.8525589187,
				"z": -1.4578403054,
				"element": "C" 
			},
			{
				"x": -2.6587323433,
				"y": 2.872634528,
				"z": -1.1805427548,
				"element": "O" 
			},
			{
				"x": -0.8419399644,
				"y": 1.6433021416,
				"z": -2.2396122161,
				"element": "C" 
			},
			{
				"x": -0.0094855357,
				"y": 2.5786093327,
				"z": -2.8479515693,
				"element": "C" 
			},
			{
				"x": 1.0974551792,
				"y": 2.096284064,
				"z": -3.5487236092,
				"element": "C" 
			},
			{
				"x": 1.3489009823,
				"y": 0.7183507515,
				"z": -3.6319333704,
				"element": "C" 
			},
			{
				"x": 0.50287002,
				"y": -0.2114846024,
				"z": -3.0173406031,
				"element": "C" 
			},
			{
				"x": -0.5958332845,
				"y": 0.2783838604,
				"z": -2.3173432151,
				"element": "C" 
			},
			{
				"x": 0.0623459893,
				"y": -1.9374157587,
				"z": 1.3291879013,
				"element": "C" 
			},
			{
				"x": 0.5547816095,
				"y": -3.2158079584,
				"z": 1.0943383217,
				"element": "C" 
			},
			{
				"x": 0.783393527,
				"y": -4.0358443172,
				"z": 2.2043125285,
				"element": "C" 
			},
			{
				"x": 0.5211493646,
				"y": -3.5869285819,
				"z": 3.5077957894,
				"element": "C" 
			},
			{
				"x": 0.0183712977,
				"y": -2.304556247,
				"z": 3.732427559,
				"element": "C" 
			},
			{
				"x": -0.2023782894,
				"y": -1.49762875,
				"z": 2.6192644116,
				"element": "C" 
			},
			{
				"x": 0.5652771409,
				"y": -0.4322272163,
				"z": -0.1858527611,
				"element": "H" 
			},
			{
				"x": -2.295515742,
				"y": -1.0963096996,
				"z": -2.2018664977,
				"element": "H" 
			},
			{
				"x": -0.2261743914,
				"y": 3.6394809299,
				"z": -2.7752275982,
				"element": "H" 
			},
			{
				"x": 1.7717012868,
				"y": 2.7916042111,
				"z": -4.0394203064,
				"element": "H" 
			},
			{
				"x": 2.2149672407,
				"y": 0.3682089875,
				"z": -4.185894486,
				"element": "H" 
			},
			{
				"x": 0.7028510974,
				"y": -1.2768323938,
				"z": -3.088211667,
				"element": "H" 
			},
			{
				"x": 0.7488077812,
				"y": -3.5735347857,
				"z": 0.0879331889,
				"element": "H" 
			},
			{
				"x": 1.1683256799,
				"y": -5.0405126606,
				"z": 2.0557130763,
				"element": "H" 
			},
			{
				"x": 0.71013928,
				"y": -4.2485249871,
				"z": 4.3477311953,
				"element": "H" 
			},
			{
				"x": -0.1975685282,
				"y": -1.9384000725,
				"z": 4.7309318145,
				"element": "H" 
			}
		],
		 "valence_orbital": [ 
			{
				"type": "occ",
				"energy": -0.28099,
				"method": "rhf"
			},
			{
				"type": "occ",
				"energy": -0.27637,
				"method": "rhf"
			},
			{
				"type": "occ",
				"energy": -0.27622,
				"method": "rhf"
			},
			{
				"type": "occ",
				"energy": -0.27314,
				"method": "rhf"
			},
			{
				"type": "occ",
				"energy": -0.27151,
				"method": "rhf"
			},
			{
				"type": "unocc",
				"energy": -0.06207,
				"method": "rhf"
			},
			{
				"type": "unocc",
				"energy": -0.05437,
				"method": "rhf"
			},
			{
				"type": "unocc",
				"energy": -0.0396,
				"method": "rhf"
			},
			{
				"type": "unocc",
				"energy": -0.02841,
				"method": "rhf"
			},
			{
				"type": "unocc",
				"energy": 0.04552,
				"method": "rhf"
			}
		],
		"cosmo_sigma_profile": { 
			"-0.025": 0.0,
			"-0.024": 0.0,
			"-0.023": 0.0,
			"-0.022": 0.0,
			"-0.021": 0.0,
			"-0.02": 0.0,
			"-0.019": 0.0,
			"-0.018": 0.0,
			"-0.017": 0.0,
			"-0.016": 0.0,
			"-0.015": 0.0,
			"-0.014": 0.0,
			"-0.013": 0.0,
			"-0.012": 0.0,
			"-0.011": 0.0,
			"-0.01": 0.0551226098537,
			"-0.009": 2.92975828437,
			"-0.008": 7.18453148575,
			"-0.007": 20.8335413543,
			"-0.006": 24.6908711493,
			"-0.005": 23.7221353121,
			"-0.004": 16.0640424115,
			"-0.003": 16.9387518097,
			"-0.002": 16.9417435708,
			"-0.001": 19.6544122182,
			"0.0": 18.7590657816,
			"0.001": 21.2271693625,
			"0.002": 25.42891932,
			"0.003": 15.292041896,
			"0.004": 5.38867668759,
			"0.005": 5.48923586308,
			"0.006": 6.62182779587,
			"0.007": 7.51099281415,
			"0.008": 8.76813002004,
			"0.009": 8.04151087726,
			"0.01": 8.06269478764,
			"0.011": 11.4592236123,
			"0.012": 4.62833266851,
			"0.013": 0.200995767547,
			"0.014": 0.0,
			"0.015": 0.0,
			"0.016": 0.0,
			"0.017": 0.0,
			"0.018": 0.0,
			"0.019": 0.0,
			"0.02": 0.0,
			"0.021": 0.0,
			"0.022": 0.0,
			"0.023": 0.0,
			"0.024": 0.0,
			"0.025": 0.0
		}
	}
}
