{
	 "smiles": "CC1=CC(=O)NC(=N1)C1=CC(N)=CC=C1", 
	 "Tm": 486.15, 
	 "num_atms": 26, 
	 "gaussian": { 
		 "optdone": 1, 
		 "sigma_profile": "yes", 
		 "theory": "DFT", 
		 "functional": "B3LYP", 
		 "basiset": "6-31G**", 
		 "properties": { 
			 "R2extent": 3850.5393, 
			 "electric_dipole_moment_norm": 5.28242307847, 
			 "electric_quadrupole_moment_norm": 15.5511975899, 
			 "total_energy": -665.309884894, 
			 "HOMO_LUMO_gap": 0.1595, 
			 "cosmo_polarized_energy": -17.71, 
			 "cosmo_cavitation_energy": 30.37, 
			 "cosmo_dispersion_energy": -22.41, 
			 "cosmo_repulsion_energy": 1.76, 
			 "cosmo_total_nonelectrostatic_energy": 9.71, 
			 "SMD_solvation_energy": 4.8 
		},
		"coords": [
			{
				"x": 2.6731613165,
				"y": -2.1989620285,
				"z": -1.2439468277,
				"element": "C" 
			},
			{
				"x": 1.2652495195,
				"y": -1.8842964777,
				"z": -0.818540241,
				"element": "C" 
			},
			{
				"x": 0.2534900557,
				"y": -2.8024562187,
				"z": -0.9064830677,
				"element": "C" 
			},
			{
				"x": -1.0918886964,
				"y": -2.4581652984,
				"z": -0.5067692751,
				"element": "C" 
			},
			{
				"x": -2.0981244082,
				"y": -3.1545745552,
				"z": -0.5478655707,
				"element": "O" 
			},
			{
				"x": -1.1743877714,
				"y": -1.1258237625,
				"z": -0.0312055819,
				"element": "N" 
			},
			{
				"x": -0.1185302471,
				"y": -0.2651974923,
				"z": 0.0530664147,
				"element": "C" 
			},
			{
				"x": 1.0857264362,
				"y": -0.6084809748,
				"z": -0.3306859566,
				"element": "N" 
			},
			{
				"x": -0.3633189475,
				"y": 1.0965568318,
				"z": 0.5909109058,
				"element": "C" 
			},
			{
				"x": 0.5719618808,
				"y": 2.0968846147,
				"z": 0.3041177529,
				"element": "C" 
			},
			{
				"x": 0.3934176741,
				"y": 3.4066304368,
				"z": 0.7719535136,
				"element": "C" 
			},
			{
				"x": 1.3520344469,
				"y": 4.3846849777,
				"z": 0.5236527976,
				"element": "N" 
			},
			{
				"x": -0.7480791409,
				"y": 3.6983860128,
				"z": 1.5422725031,
				"element": "C" 
			},
			{
				"x": -1.6702948567,
				"y": 2.6992652449,
				"z": 1.8372023712,
				"element": "C" 
			},
			{
				"x": -1.492264832,
				"y": 1.3975413557,
				"z": 1.3697783039,
				"element": "C" 
			},
			{
				"x": 3.3573825481,
				"y": -2.0692999104,
				"z": -0.3986391081,
				"element": "H" 
			},
			{
				"x": 2.7655410382,
				"y": -3.2187358785,
				"z": -1.6236546105,
				"element": "H" 
			},
			{
				"x": 2.994786826,
				"y": -1.4984766475,
				"z": -2.0222339421,
				"element": "H" 
			},
			{
				"x": 0.4177207549,
				"y": -3.802770936,
				"z": -1.2884259711,
				"element": "H" 
			},
			{
				"x": -2.108979726,
				"y": -0.8226359552,
				"z": 0.2126405107,
				"element": "H" 
			},
			{
				"x": 1.4430843613,
				"y": 1.8337075018,
				"z": -0.2866150776,
				"element": "H" 
			},
			{
				"x": 1.9601889457,
				"y": 4.2118107851,
				"z": -0.2640648524,
				"element": "H" 
			},
			{
				"x": 1.0267350755,
				"y": 5.340232549,
				"z": 0.5596859491,
				"element": "H" 
			},
			{
				"x": -0.8998320428,
				"y": 4.7079186378,
				"z": 1.9158022465,
				"element": "H" 
			},
			{
				"x": -2.5375868749,
				"y": 2.9375842545,
				"z": 2.4458594063,
				"element": "H" 
			},
			{
				"x": -2.2066933355,
				"y": 0.6308729328,
				"z": 1.6520874074,
				"element": "H" 
			}
		],
		 "valence_orbital": [ 
			{
				"type": "occ",
				"energy": -0.27392,
				"method": "rhf"
			},
			{
				"type": "occ",
				"energy": -0.26348,
				"method": "rhf"
			},
			{
				"type": "occ",
				"energy": -0.2483,
				"method": "rhf"
			},
			{
				"type": "occ",
				"energy": -0.2252,
				"method": "rhf"
			},
			{
				"type": "occ",
				"energy": -0.21565,
				"method": "rhf"
			},
			{
				"type": "unocc",
				"energy": -0.05615,
				"method": "rhf"
			},
			{
				"type": "unocc",
				"energy": -0.01158,
				"method": "rhf"
			},
			{
				"type": "unocc",
				"energy": 0.00298,
				"method": "rhf"
			},
			{
				"type": "unocc",
				"energy": 0.03749,
				"method": "rhf"
			},
			{
				"type": "unocc",
				"energy": 0.06976,
				"method": "rhf"
			}
		],
		"cosmo_sigma_profile": { 
			"-0.025": 0.0,
			"-0.024": 0.0,
			"-0.023": 0.0,
			"-0.022": 0.0,
			"-0.021": 0.0,
			"-0.02": 0.0,
			"-0.019": 0.0,
			"-0.018": 0.0,
			"-0.017": 0.0,
			"-0.016": 0.0713817983044,
			"-0.015": 0.985934579687,
			"-0.014": 0.649500010593,
			"-0.013": 2.36956011891,
			"-0.012": 3.81192646938,
			"-0.011": 3.66747868027,
			"-0.01": 4.16255158383,
			"-0.009": 4.38100317501,
			"-0.008": 3.99923316319,
			"-0.007": 6.48682637521,
			"-0.006": 9.34599173969,
			"-0.005": 13.9067570593,
			"-0.004": 15.2104686497,
			"-0.003": 15.1955235553,
			"-0.002": 17.5813910116,
			"-0.001": 19.3718554551,
			"0.0": 16.6741547621,
			"0.001": 13.1299873144,
			"0.002": 15.5770502573,
			"0.003": 10.5681713581,
			"0.004": 13.2317869172,
			"0.005": 15.2474100437,
			"0.006": 5.05979887075,
			"0.007": 3.94178352042,
			"0.008": 2.53815393651,
			"0.009": 3.57743077232,
			"0.01": 2.90737217337,
			"0.011": 2.93883446311,
			"0.012": 3.03432122394,
			"0.013": 5.14645991588,
			"0.014": 5.83390345039,
			"0.015": 1.41941618131,
			"0.016": 0.00698823202785,
			"0.017": 0.0,
			"0.018": 0.0,
			"0.019": 0.0,
			"0.02": 0.0,
			"0.021": 0.0,
			"0.022": 0.0,
			"0.023": 0.0,
			"0.024": 0.0,
			"0.025": 0.0
		}
	}
}
