{
	 "smiles": "CC1=CC(C)=C(C(C)=C1)C1(C)CC(C1)C(=N/NC(N)=O)C1=CC2=C(O1)C=CC(Br)=C2", 
	 "Tm": 504.15, 
	 "num_atms": 56, 
	 "gaussian": { 
		 "optdone": 1, 
		 "sigma_profile": "yes", 
		 "theory": "DFT", 
		 "functional": "B3LYP", 
		 "basiset": "6-31G**", 
		 "properties": { 
			 "R2extent": 22692.8996, 
			 "electric_dipole_moment_norm": 4.91738917211, 
			 "electric_quadrupole_moment_norm": 28.9550427896, 
			 "total_energy": -3816.29925828, 
			 "HOMO_LUMO_gap": 0.15488, 
			 "cosmo_polarized_energy": -19.83, 
			 "cosmo_cavitation_energy": 58.94, 
			 "cosmo_dispersion_energy": -40.08, 
			 "cosmo_repulsion_energy": 3.01, 
			 "cosmo_total_nonelectrostatic_energy": 21.87, 
			 "SMD_solvation_energy": 8.57 
		},
		"coords": [
			{
				"x": 6.2095233523,
				"y": -0.0758276723,
				"z": -2.0438122362,
				"element": "C" 
			},
			{
				"x": 4.9819288615,
				"y": 0.1941746481,
				"z": -1.2068414553,
				"element": "C" 
			},
			{
				"x": 3.9912626648,
				"y": 1.0777433895,
				"z": -1.6325669775,
				"element": "C" 
			},
			{
				"x": 2.8258322446,
				"y": 1.3147244844,
				"z": -0.8931403986,
				"element": "C" 
			},
			{
				"x": 1.8680184756,
				"y": 2.3487036074,
				"z": -1.4565170122,
				"element": "C" 
			},
			{
				"x": 2.6100788402,
				"y": 0.6258062554,
				"z": 0.3274489214,
				"element": "C" 
			},
			{
				"x": 3.644819566,
				"y": -0.2186483907,
				"z": 0.8035186184,
				"element": "C" 
			},
			{
				"x": 3.6101791538,
				"y": -0.9124583904,
				"z": 2.1532911582,
				"element": "C" 
			},
			{
				"x": 4.7930564737,
				"y": -0.4234866713,
				"z": 0.0284577554,
				"element": "C" 
			},
			{
				"x": 1.3311637403,
				"y": 0.8491993856,
				"z": 1.1452583046,
				"element": "C" 
			},
			{
				"x": 1.5221268294,
				"y": 2.0292886795,
				"z": 2.1200618965,
				"element": "C" 
			},
			{
				"x": 0.6959341876,
				"y": -0.3872475052,
				"z": 1.8732880217,
				"element": "C" 
			},
			{
				"x": -0.7162098542,
				"y": 0.1133928701,
				"z": 1.4691008649,
				"element": "C" 
			},
			{
				"x": -0.0271004621,
				"y": 0.9683804924,
				"z": 0.372300603,
				"element": "C" 
			},
			{
				"x": -1.7636479412,
				"y": -0.8980849516,
				"z": 1.0652848859,
				"element": "C" 
			},
			{
				"x": -1.9587912214,
				"y": -2.0854075873,
				"z": 1.5420617118,
				"element": "N" 
			},
			{
				"x": -1.2130708017,
				"y": -2.4983139341,
				"z": 2.6414040654,
				"element": "N" 
			},
			{
				"x": -1.3052237151,
				"y": -1.8299107937,
				"z": 3.8758135829,
				"element": "C" 
			},
			{
				"x": -0.7752405746,
				"y": -2.5846245326,
				"z": 4.9125713461,
				"element": "N" 
			},
			{
				"x": -1.8123578842,
				"y": -0.7333536622,
				"z": 4.0323933619,
				"element": "O" 
			},
			{
				"x": -2.6972701926,
				"y": -0.5710231626,
				"z": -0.0222687274,
				"element": "C" 
			},
			{
				"x": -3.6268978777,
				"y": -1.3296986694,
				"z": -0.6779134011,
				"element": "C" 
			},
			{
				"x": -4.2639087486,
				"y": -0.4656570654,
				"z": -1.6291336596,
				"element": "C" 
			},
			{
				"x": -3.6551199525,
				"y": 0.7941242407,
				"z": -1.4601214046,
				"element": "C" 
			},
			{
				"x": -2.7030028976,
				"y": 0.7311069341,
				"z": -0.4849434596,
				"element": "O" 
			},
			{
				"x": -3.9992328916,
				"y": 1.9196621005,
				"z": -2.1980964393,
				"element": "C" 
			},
			{
				"x": -5.0032899414,
				"y": 1.7634440347,
				"z": -3.151699067,
				"element": "C" 
			},
			{
				"x": -5.620370848,
				"y": 0.5122394195,
				"z": -3.3337923706,
				"element": "C" 
			},
			{
				"x": -6.9940336412,
				"y": 0.3629645804,
				"z": -4.6612742333,
				"element": "Br" 
			},
			{
				"x": -5.275482916,
				"y": -0.6106897626,
				"z": -2.5937376952,
				"element": "C" 
			},
			{
				"x": 6.0437414854,
				"y": -0.9117623285,
				"z": -2.7353905073,
				"element": "H" 
			},
			{
				"x": 6.48159268,
				"y": 0.7946752676,
				"z": -2.6488819516,
				"element": "H" 
			},
			{
				"x": 7.0702446976,
				"y": -0.33757711,
				"z": -1.4204867841,
				"element": "H" 
			},
			{
				"x": 4.1294896744,
				"y": 1.6157680378,
				"z": -2.5683633276,
				"element": "H" 
			},
			{
				"x": 2.3820344161,
				"y": 2.9617409737,
				"z": -2.2019266967,
				"element": "H" 
			},
			{
				"x": 1.0038921914,
				"y": 1.8953104177,
				"z": -1.9533314365,
				"element": "H" 
			},
			{
				"x": 1.4799193305,
				"y": 3.0241523324,
				"z": -0.6902736066,
				"element": "H" 
			},
			{
				"x": 2.9807826642,
				"y": -1.8088781553,
				"z": 2.1492285801,
				"element": "H" 
			},
			{
				"x": 4.6189435443,
				"y": -1.2290413975,
				"z": 2.4326268765,
				"element": "H" 
			},
			{
				"x": 3.2397749213,
				"y": -0.2627026449,
				"z": 2.9501010581,
				"element": "H" 
			},
			{
				"x": 5.5697111702,
				"y": -1.0804003614,
				"z": 0.415406256,
				"element": "H" 
			},
			{
				"x": 0.6228923816,
				"y": 2.2062049436,
				"z": 2.7203508544,
				"element": "H" 
			},
			{
				"x": 2.3522362884,
				"y": 1.840566413,
				"z": 2.808586223,
				"element": "H" 
			},
			{
				"x": 1.7511288782,
				"y": 2.9527835684,
				"z": 1.5786065043,
				"element": "H" 
			},
			{
				"x": 0.8988218068,
				"y": -0.4997674212,
				"z": 2.9402036923,
				"element": "H" 
			},
			{
				"x": 0.9406337912,
				"y": -1.319098946,
				"z": 1.3592815861,
				"element": "H" 
			},
			{
				"x": -1.1353831854,
				"y": 0.7436288259,
				"z": 2.2584813849,
				"element": "H" 
			},
			{
				"x": -0.4314344755,
				"y": 1.9661028208,
				"z": 0.195970022,
				"element": "H" 
			},
			{
				"x": 0.01144655,
				"y": 0.4298626888,
				"z": -0.5775467011,
				"element": "H" 
			},
			{
				"x": -1.3102216017,
				"y": -3.5024030813,
				"z": 2.7373760895,
				"element": "H" 
			},
			{
				"x": -0.677529354,
				"y": -2.0611397966,
				"z": 5.770682468,
				"element": "H" 
			},
			{
				"x": -0.0041191861,
				"y": -3.203710665,
				"z": 4.7040579447,
				"element": "H" 
			},
			{
				"x": -3.8237949457,
				"y": -2.3727658329,
				"z": -0.4848086274,
				"element": "H" 
			},
			{
				"x": -3.5100838889,
				"y": 2.8743503068,
				"z": -2.0395646628,
				"element": "H" 
			},
			{
				"x": -5.3143217754,
				"y": 2.6053995483,
				"z": -3.7584745972,
				"element": "H" 
			},
			{
				"x": -5.7719700871,
				"y": -1.5598207752,
				"z": -2.7579072015,
				"element": "H" 
			}
		],
		 "valence_orbital": [ 
			{
				"type": "occ",
				"energy": -0.24839,
				"method": "rhf"
			},
			{
				"type": "occ",
				"energy": -0.23242,
				"method": "rhf"
			},
			{
				"type": "occ",
				"energy": -0.22839,
				"method": "rhf"
			},
			{
				"type": "occ",
				"energy": -0.22119,
				"method": "rhf"
			},
			{
				"type": "occ",
				"energy": -0.21032,
				"method": "rhf"
			},
			{
				"type": "unocc",
				"energy": -0.05544,
				"method": "rhf"
			},
			{
				"type": "unocc",
				"energy": -0.00199,
				"method": "rhf"
			},
			{
				"type": "unocc",
				"energy": 0.00552,
				"method": "rhf"
			},
			{
				"type": "unocc",
				"energy": 0.00946,
				"method": "rhf"
			},
			{
				"type": "unocc",
				"energy": 0.0105,
				"method": "rhf"
			}
		],
		"cosmo_sigma_profile": { 
			"-0.025": 0.0,
			"-0.024": 0.0,
			"-0.023": 0.0,
			"-0.022": 0.0,
			"-0.021": 0.0,
			"-0.02": 0.0,
			"-0.019": 0.0,
			"-0.018": 0.0,
			"-0.017": 0.0,
			"-0.016": 0.0,
			"-0.015": 0.724467741242,
			"-0.014": 3.85701003031,
			"-0.013": 3.78270391527,
			"-0.012": 2.70699609393,
			"-0.011": 2.93713844298,
			"-0.01": 3.05441174838,
			"-0.009": 2.93819603038,
			"-0.008": 4.28701159571,
			"-0.007": 8.37143529733,
			"-0.006": 8.60040027525,
			"-0.005": 9.70738389793,
			"-0.004": 28.2542263375,
			"-0.003": 47.1213281536,
			"-0.002": 40.0093910073,
			"-0.001": 42.8078661059,
			"0.0": 47.6192171116,
			"0.001": 46.9783891909,
			"0.002": 39.2466315672,
			"0.003": 38.5186594342,
			"0.004": 24.8875147879,
			"0.005": 19.0331912692,
			"0.006": 10.8539520145,
			"0.007": 9.89557162743,
			"0.008": 5.63585344674,
			"0.009": 3.54055133494,
			"0.01": 3.89473536397,
			"0.011": 1.53957630348,
			"0.012": 1.91783556466,
			"0.013": 4.12961241212,
			"0.014": 1.60954176418,
			"0.015": 0.0,
			"0.016": 0.0,
			"0.017": 0.0,
			"0.018": 0.0,
			"0.019": 0.0,
			"0.02": 0.0,
			"0.021": 0.0,
			"0.022": 0.0,
			"0.023": 0.0,
			"0.024": 0.0,
			"0.025": 0.0
		}
	}
}
