{
	 "smiles": "CSCC1=C(SC2=C1C=CC=C2)C(O)=O", 
	 "Tm": 475.15, 
	 "num_atms": 25, 
	 "gaussian": { 
		 "optdone": 1, 
		 "sigma_profile": "yes", 
		 "theory": "DFT", 
		 "functional": "B3LYP", 
		 "basiset": "6-31G**", 
		 "properties": { 
			 "R2extent": 4522.8401, 
			 "electric_dipole_moment_norm": 6.49564007931, 
			 "electric_quadrupole_moment_norm": 19.4427736072, 
			 "total_energy": -1372.03589334, 
			 "HOMO_LUMO_gap": 0.16292, 
			 "cosmo_polarized_energy": -14.78, 
			 "cosmo_cavitation_energy": 31.24, 
			 "cosmo_dispersion_energy": -23.21, 
			 "cosmo_repulsion_energy": 1.7, 
			 "cosmo_total_nonelectrostatic_energy": 9.73, 
			 "SMD_solvation_energy": 5.79 
		},
		"coords": [
			{
				"x": -2.8148523543,
				"y": -2.0380421175,
				"z": -0.0081792992,
				"element": "C" 
			},
			{
				"x": -2.7864482906,
				"y": -0.9447584398,
				"z": -1.4705645293,
				"element": "S" 
			},
			{
				"x": -1.1424558372,
				"y": -0.0993410704,
				"z": -1.2974197224,
				"element": "C" 
			},
			{
				"x": -0.8577912062,
				"y": 0.4912863904,
				"z": 0.0563201764,
				"element": "C" 
			},
			{
				"x": -1.4067345746,
				"y": 1.6478437819,
				"z": 0.5648687956,
				"element": "C" 
			},
			{
				"x": -0.759286263,
				"y": 2.0922183166,
				"z": 2.1344064885,
				"element": "S" 
			},
			{
				"x": 0.2457021541,
				"y": 0.6650435209,
				"z": 2.1570605018,
				"element": "C" 
			},
			{
				"x": 0.0974022125,
				"y": -0.0984789453,
				"z": 0.9708776584,
				"element": "C" 
			},
			{
				"x": 0.8600879301,
				"y": -1.2765263823,
				"z": 0.8272688823,
				"element": "C" 
			},
			{
				"x": 1.7224610015,
				"y": -1.6657217175,
				"z": 1.8405617888,
				"element": "C" 
			},
			{
				"x": 1.8504872035,
				"y": -0.8965386964,
				"z": 3.0131144496,
				"element": "C" 
			},
			{
				"x": 1.117135541,
				"y": 0.2704791792,
				"z": 3.180275901,
				"element": "C" 
			},
			{
				"x": -2.3832893042,
				"y": 2.6161007388,
				"z": -0.0113364153,
				"element": "C" 
			},
			{
				"x": -3.2203142384,
				"y": 2.1676956866,
				"z": -0.9674448084,
				"element": "O" 
			},
			{
				"x": -2.4226378471,
				"y": 3.7685483907,
				"z": 0.3626546383,
				"element": "O" 
			},
			{
				"x": -3.7938872469,
				"y": -2.5215403709,
				"z": -0.0102121646,
				"element": "H" 
			},
			{
				"x": -2.0391933309,
				"y": -2.8036185986,
				"z": -0.0772468736,
				"element": "H" 
			},
			{
				"x": -2.6971635155,
				"y": -1.4675053306,
				"z": 0.9145300063,
				"element": "H" 
			},
			{
				"x": -0.3574121647,
				"y": -0.8017942932,
				"z": -1.5814753783,
				"element": "H" 
			},
			{
				"x": -1.1820137425,
				"y": 0.6769022094,
				"z": -2.066310747,
				"element": "H" 
			},
			{
				"x": 0.7751026127,
				"y": -1.8817541238,
				"z": -0.070255228,
				"element": "H" 
			},
			{
				"x": 2.3071456482,
				"y": -2.5738086446,
				"z": 1.7297552235,
				"element": "H" 
			},
			{
				"x": 2.5322099103,
				"y": -1.2179164375,
				"z": 3.7947271928,
				"element": "H" 
			},
			{
				"x": 1.2180101116,
				"y": 0.8662907848,
				"z": 4.0820905436,
				"element": "H" 
			},
			{
				"x": -3.2680644092,
				"y": 1.187036169,
				"z": -0.9943670806,
				"element": "H" 
			}
		],
		 "valence_orbital": [ 
			{
				"type": "occ",
				"energy": -0.29611,
				"method": "rhf"
			},
			{
				"type": "occ",
				"energy": -0.27539,
				"method": "rhf"
			},
			{
				"type": "occ",
				"energy": -0.25585,
				"method": "rhf"
			},
			{
				"type": "occ",
				"energy": -0.24952,
				"method": "rhf"
			},
			{
				"type": "occ",
				"energy": -0.23233,
				"method": "rhf"
			},
			{
				"type": "unocc",
				"energy": -0.06941,
				"method": "rhf"
			},
			{
				"type": "unocc",
				"energy": -0.01953,
				"method": "rhf"
			},
			{
				"type": "unocc",
				"energy": -0.0001,
				"method": "rhf"
			},
			{
				"type": "unocc",
				"energy": 0.01036,
				"method": "rhf"
			},
			{
				"type": "unocc",
				"energy": 0.02543,
				"method": "rhf"
			}
		],
		"cosmo_sigma_profile": { 
			"-0.025": 0.0,
			"-0.024": 0.0,
			"-0.023": 0.0,
			"-0.022": 0.0,
			"-0.021": 0.0,
			"-0.02": 0.0,
			"-0.019": 0.0,
			"-0.018": 0.0,
			"-0.017": 0.0,
			"-0.016": 0.0,
			"-0.015": 0.0,
			"-0.014": 0.0,
			"-0.013": 0.0,
			"-0.012": 0.0,
			"-0.011": 0.0,
			"-0.01": 0.0,
			"-0.009": 0.952356489357,
			"-0.008": 4.96465461836,
			"-0.007": 12.385826329,
			"-0.006": 16.9551485014,
			"-0.005": 20.7727752904,
			"-0.004": 19.9741893119,
			"-0.003": 18.6274921525,
			"-0.002": 18.4629130499,
			"-0.001": 15.5193883475,
			"0.0": 13.849793422,
			"0.001": 16.8951301392,
			"0.002": 18.8558557435,
			"0.003": 17.7615898148,
			"0.004": 17.6383971277,
			"0.005": 7.24089353471,
			"0.006": 4.70831325783,
			"0.007": 3.26746570899,
			"0.008": 4.14299829907,
			"0.009": 4.32964743714,
			"0.01": 4.32419931591,
			"0.011": 5.95640713108,
			"0.012": 4.70988474764,
			"0.013": 1.5797674145,
			"0.014": 0.0628279255644,
			"0.015": 0.0,
			"0.016": 0.0,
			"0.017": 0.0,
			"0.018": 0.0,
			"0.019": 0.0,
			"0.02": 0.0,
			"0.021": 0.0,
			"0.022": 0.0,
			"0.023": 0.0,
			"0.024": 0.0,
			"0.025": 0.0
		}
	}
}
