{
	 "smiles": "CCOC(=O)C1=C(C)C(C(=O)OC(C)(C)C)=C(N)S1", 
	 "Tm": 364.15, 
	 "num_atms": 38, 
	 "gaussian": { 
		 "optdone": 1, 
		 "sigma_profile": "yes", 
		 "theory": "DFT", 
		 "functional": "B3LYP", 
		 "basiset": "6-31G**", 
		 "properties": { 
			 "R2extent": 7730.0628, 
			 "electric_dipole_moment_norm": 2.7738832005, 
			 "electric_quadrupole_moment_norm": 16.565707035, 
			 "total_energy": -1260.72181633, 
			 "HOMO_LUMO_gap": 0.17105, 
			 "cosmo_polarized_energy": -12.81, 
			 "cosmo_cavitation_energy": 41.69, 
			 "cosmo_dispersion_energy": -29.48, 
			 "cosmo_repulsion_energy": 2.24, 
			 "cosmo_total_nonelectrostatic_energy": 14.45, 
			 "SMD_solvation_energy": 8.7 
		},
		"coords": [
			{
				"x": -3.7093415141,
				"y": 1.7500592328,
				"z": 3.7620705758,
				"element": "C" 
			},
			{
				"x": -2.2601719231,
				"y": 1.8067848,
				"z": 4.2072798683,
				"element": "C" 
			},
			{
				"x": -1.449439185,
				"y": 1.33768309,
				"z": 3.1061580308,
				"element": "O" 
			},
			{
				"x": -0.1141825526,
				"y": 1.3195399978,
				"z": 3.3366784859,
				"element": "C" 
			},
			{
				"x": 0.3740528383,
				"y": 1.6746799609,
				"z": 4.4000562976,
				"element": "O" 
			},
			{
				"x": 0.7021448465,
				"y": 0.843342652,
				"z": 2.2202063112,
				"element": "C" 
			},
			{
				"x": 0.4429376032,
				"y": 0.3916515772,
				"z": 0.9420721124,
				"element": "C" 
			},
			{
				"x": -0.9363050964,
				"y": 0.2821473062,
				"z": 0.3495682267,
				"element": "C" 
			},
			{
				"x": 1.6504119197,
				"y": 0.0343252059,
				"z": 0.2336332343,
				"element": "C" 
			},
			{
				"x": 1.8047799415,
				"y": -0.4828556086,
				"z": -1.1286632299,
				"element": "C" 
			},
			{
				"x": 2.9028971996,
				"y": -0.7537145037,
				"z": -1.6239824743,
				"element": "O" 
			},
			{
				"x": 0.6421291974,
				"y": -0.6362555009,
				"z": -1.7910499275,
				"element": "O" 
			},
			{
				"x": 0.5937677419,
				"y": -1.147384633,
				"z": -3.17448418,
				"element": "C" 
			},
			{
				"x": 1.3385520076,
				"y": -0.1939958308,
				"z": -4.1153621604,
				"element": "C" 
			},
			{
				"x": 1.148610701,
				"y": -2.5749857234,
				"z": -3.2286880608,
				"element": "C" 
			},
			{
				"x": -0.9069469556,
				"y": -1.1411242276,
				"z": -3.4792224627,
				"element": "C" 
			},
			{
				"x": 2.8069682469,
				"y": 0.2321715315,
				"z": 1.0155571824,
				"element": "C" 
			},
			{
				"x": 4.0766608874,
				"y": -0.0059660364,
				"z": 0.6403837321,
				"element": "N" 
			},
			{
				"x": 2.4340689255,
				"y": 0.8461506002,
				"z": 2.5968425307,
				"element": "S" 
			},
			{
				"x": -4.3589468481,
				"y": 2.0986213932,
				"z": 4.5711010614,
				"element": "H" 
			},
			{
				"x": -3.8768950333,
				"y": 2.3874289426,
				"z": 2.8889041556,
				"element": "H" 
			},
			{
				"x": -4.000893406,
				"y": 0.7276458124,
				"z": 3.5043984321,
				"element": "H" 
			},
			{
				"x": -1.9497807721,
				"y": 2.823365332,
				"z": 4.4681478867,
				"element": "H" 
			},
			{
				"x": -2.0731364967,
				"y": 1.1736095478,
				"z": 5.0801250478,
				"element": "H" 
			},
			{
				"x": -1.007768084,
				"y": 0.8858814544,
				"z": -0.5594965461,
				"element": "H" 
			},
			{
				"x": -1.6929229429,
				"y": 0.6063244696,
				"z": 1.0584187971,
				"element": "H" 
			},
			{
				"x": -1.1391807085,
				"y": -0.749457252,
				"z": 0.0483846235,
				"element": "H" 
			},
			{
				"x": 0.9511428218,
				"y": 0.8241235498,
				"z": -4.0085085454,
				"element": "H" 
			},
			{
				"x": 1.1811969684,
				"y": -0.509069349,
				"z": -5.1521444615,
				"element": "H" 
			},
			{
				"x": 2.4082445784,
				"y": -0.1890802047,
				"z": -3.9072076239,
				"element": "H" 
			},
			{
				"x": 0.628004624,
				"y": -3.2121795506,
				"z": -2.5068621614,
				"element": "H" 
			},
			{
				"x": 0.9848311353,
				"y": -2.9915536873,
				"z": -4.2279787999,
				"element": "H" 
			},
			{
				"x": 2.2161636,
				"y": -2.5923284014,
				"z": -3.0104614299,
				"element": "H" 
			},
			{
				"x": -1.4472847954,
				"y": -1.7874591575,
				"z": -2.7815642632,
				"element": "H" 
			},
			{
				"x": -1.3149590727,
				"y": -0.1293875017,
				"z": -3.3994653452,
				"element": "H" 
			},
			{
				"x": -1.0837481749,
				"y": -1.5057265623,
				"z": -4.4955009406,
				"element": "H" 
			},
			{
				"x": 4.2014509615,
				"y": -0.3665697939,
				"z": -0.3013855391,
				"element": "H" 
			},
			{
				"x": 4.8506868158,
				"y": 0.1580570686,
				"z": 1.2615415594,
				"element": "H" 
			}
		],
		 "valence_orbital": [ 
			{
				"type": "occ",
				"energy": -0.29131,
				"method": "rhf"
			},
			{
				"type": "occ",
				"energy": -0.27338,
				"method": "rhf"
			},
			{
				"type": "occ",
				"energy": -0.26226,
				"method": "rhf"
			},
			{
				"type": "occ",
				"energy": -0.24905,
				"method": "rhf"
			},
			{
				"type": "occ",
				"energy": -0.20238,
				"method": "rhf"
			},
			{
				"type": "unocc",
				"energy": -0.03133,
				"method": "rhf"
			},
			{
				"type": "unocc",
				"energy": -0.01701,
				"method": "rhf"
			},
			{
				"type": "unocc",
				"energy": 0.01736,
				"method": "rhf"
			},
			{
				"type": "unocc",
				"energy": 0.07922,
				"method": "rhf"
			},
			{
				"type": "unocc",
				"energy": 0.08634,
				"method": "rhf"
			}
		],
		"cosmo_sigma_profile": { 
			"-0.025": 0.0,
			"-0.024": 0.0,
			"-0.023": 0.0,
			"-0.022": 0.0,
			"-0.021": 0.0,
			"-0.02": 0.0,
			"-0.019": 0.0,
			"-0.018": 0.0,
			"-0.017": 0.0,
			"-0.016": 0.303863015339,
			"-0.015": 1.4832207081,
			"-0.014": 1.50985566817,
			"-0.013": 1.00431897522,
			"-0.012": 1.11250338875,
			"-0.011": 1.52080282887,
			"-0.01": 2.24917485835,
			"-0.009": 1.69996322506,
			"-0.008": 1.70277479547,
			"-0.007": 1.08440129235,
			"-0.006": 2.2238125908,
			"-0.005": 6.88472313621,
			"-0.004": 24.896851321,
			"-0.003": 31.0017556239,
			"-0.002": 32.4699582381,
			"-0.001": 34.0921065736,
			"0.0": 46.9371624976,
			"0.001": 42.000144448,
			"0.002": 28.655860053,
			"0.003": 20.2955447316,
			"0.004": 13.0507033937,
			"0.005": 7.69579686832,
			"0.006": 3.81368839445,
			"0.007": 3.1143290855,
			"0.008": 3.10306277647,
			"0.009": 3.79465128051,
			"0.01": 2.92049418503,
			"0.011": 2.65799140024,
			"0.012": 4.44495571195,
			"0.013": 1.88202162535,
			"0.014": 0.0,
			"0.015": 0.0,
			"0.016": 0.0,
			"0.017": 0.0,
			"0.018": 0.0,
			"0.019": 0.0,
			"0.02": 0.0,
			"0.021": 0.0,
			"0.022": 0.0,
			"0.023": 0.0,
			"0.024": 0.0,
			"0.025": 0.0
		}
	}
}
