{
	 "smiles": "CC(C)(C)OC(=O)NC1=C(N)C=C2OCCOC2=C1", 
	 "Tm": 393.15, 
	 "num_atms": 37, 
	 "gaussian": { 
		 "optdone": 1, 
		 "sigma_profile": "yes", 
		 "theory": "DFT", 
		 "functional": "B3LYP", 
		 "basiset": "6-31G**", 
		 "properties": { 
			 "R2extent": 6781.2847, 
			 "electric_dipole_moment_norm": 3.322586965, 
			 "electric_quadrupole_moment_norm": 12.5117212277, 
			 "total_energy": -916.649783692, 
			 "HOMO_LUMO_gap": 0.18832, 
			 "cosmo_polarized_energy": -15.91, 
			 "cosmo_cavitation_energy": 39.13, 
			 "cosmo_dispersion_energy": -27.72, 
			 "cosmo_repulsion_energy": 2.15, 
			 "cosmo_total_nonelectrostatic_energy": 13.56, 
			 "SMD_solvation_energy": 8.11 
		},
		"coords": [
			{
				"x": -2.5806404234,
				"y": 1.4626612024,
				"z": -3.0898571893,
				"element": "C" 
			},
			{
				"x": -2.1000573629,
				"y": 0.1764409312,
				"z": -3.7667883148,
				"element": "C" 
			},
			{
				"x": -3.2790361658,
				"y": -0.7608856702,
				"z": -4.0490614464,
				"element": "C" 
			},
			{
				"x": -1.2933910866,
				"y": 0.4935097949,
				"z": -5.0302526202,
				"element": "C" 
			},
			{
				"x": -1.2211053463,
				"y": -0.4143799044,
				"z": -2.7419706666,
				"element": "O" 
			},
			{
				"x": -0.6029687002,
				"y": -1.5929009621,
				"z": -2.9618786126,
				"element": "C" 
			},
			{
				"x": -0.6649562335,
				"y": -2.2648777104,
				"z": -3.9800191546,
				"element": "O" 
			},
			{
				"x": 0.1344391707,
				"y": -1.9998078685,
				"z": -1.8735701366,
				"element": "N" 
			},
			{
				"x": 0.3834324406,
				"y": -1.3972402467,
				"z": -0.6175307044,
				"element": "C" 
			},
			{
				"x": 0.5936198962,
				"y": -2.2786075978,
				"z": 0.4691414676,
				"element": "C" 
			},
			{
				"x": 0.5161072563,
				"y": -3.671251729,
				"z": 0.2375969468,
				"element": "N" 
			},
			{
				"x": 0.945972366,
				"y": -1.7527909697,
				"z": 1.7126784124,
				"element": "C" 
			},
			{
				"x": 1.0681002054,
				"y": -0.3758671288,
				"z": 1.8997914392,
				"element": "C" 
			},
			{
				"x": 1.4143224594,
				"y": 0.0821630483,
				"z": 3.1503267773,
				"element": "O" 
			},
			{
				"x": 1.8291082231,
				"y": 1.447525346,
				"z": 3.1627577888,
				"element": "C" 
			},
			{
				"x": 0.8778642874,
				"y": 2.2940429484,
				"z": 2.3303020618,
				"element": "C" 
			},
			{
				"x": 0.8969468931,
				"y": 1.8645747227,
				"z": 0.9718026609,
				"element": "O" 
			},
			{
				"x": 0.8143633246,
				"y": 0.4946603522,
				"z": 0.831209333,
				"element": "C" 
			},
			{
				"x": 0.4914986499,
				"y": -0.0202910403,
				"z": -0.4230542635,
				"element": "C" 
			},
			{
				"x": -3.1036875254,
				"y": 1.2355761396,
				"z": -2.1565841879,
				"element": "H" 
			},
			{
				"x": -3.2666495947,
				"y": 1.9998650243,
				"z": -3.7515887896,
				"element": "H" 
			},
			{
				"x": -1.7368404168,
				"y": 2.1200160259,
				"z": -2.8604501189,
				"element": "H" 
			},
			{
				"x": -3.8061550435,
				"y": -0.9980427764,
				"z": -3.1193892646,
				"element": "H" 
			},
			{
				"x": -2.9390378374,
				"y": -1.6877367081,
				"z": -4.5112683174,
				"element": "H" 
			},
			{
				"x": -3.9861397663,
				"y": -0.2668071926,
				"z": -4.7233540613,
				"element": "H" 
			},
			{
				"x": -0.9315895212,
				"y": -0.4202640015,
				"z": -5.5017275757,
				"element": "H" 
			},
			{
				"x": -0.4373751014,
				"y": 1.1300661851,
				"z": -4.7845369336,
				"element": "H" 
			},
			{
				"x": -1.9251968228,
				"y": 1.0349281468,
				"z": -5.7420083043,
				"element": "H" 
			},
			{
				"x": 0.5864047879,
				"y": -2.8926707143,
				"z": -2.0265540468,
				"element": "H" 
			},
			{
				"x": 0.6318756465,
				"y": -4.2133794562,
				"z": 1.0851593912,
				"element": "H" 
			},
			{
				"x": -0.3469932443,
				"y": -3.9430010417,
				"z": -0.2236305683,
				"element": "H" 
			},
			{
				"x": 1.1238677955,
				"y": -2.4054787356,
				"z": 2.5623521586,
				"element": "H" 
			},
			{
				"x": 1.8293681986,
				"y": 1.7623835866,
				"z": 4.2096455506,
				"element": "H" 
			},
			{
				"x": 2.8490235554,
				"y": 1.5331080218,
				"z": 2.7627375852,
				"element": "H" 
			},
			{
				"x": 1.1805930552,
				"y": 3.3445520061,
				"z": 2.3299840909,
				"element": "H" 
			},
			{
				"x": -0.1404320104,
				"y": 2.2155772023,
				"z": 2.7372299177,
				"element": "H" 
			},
			{
				"x": 0.3220439911,
				"y": 0.6667307696,
				"z": -1.2406403044,
				"element": "H" 
			}
		],
		 "valence_orbital": [ 
			{
				"type": "occ",
				"energy": -0.28518,
				"method": "rhf"
			},
			{
				"type": "occ",
				"energy": -0.26055,
				"method": "rhf"
			},
			{
				"type": "occ",
				"energy": -0.25802,
				"method": "rhf"
			},
			{
				"type": "occ",
				"energy": -0.21705,
				"method": "rhf"
			},
			{
				"type": "occ",
				"energy": -0.18405,
				"method": "rhf"
			},
			{
				"type": "unocc",
				"energy": 0.00427,
				"method": "rhf"
			},
			{
				"type": "unocc",
				"energy": 0.02284,
				"method": "rhf"
			},
			{
				"type": "unocc",
				"energy": 0.06718,
				"method": "rhf"
			},
			{
				"type": "unocc",
				"energy": 0.07929,
				"method": "rhf"
			},
			{
				"type": "unocc",
				"energy": 0.08467,
				"method": "rhf"
			}
		],
		"cosmo_sigma_profile": { 
			"-0.025": 0.0,
			"-0.024": 0.0,
			"-0.023": 0.0,
			"-0.022": 0.0,
			"-0.021": 0.0,
			"-0.02": 0.0,
			"-0.019": 0.0,
			"-0.018": 0.0,
			"-0.017": 0.0,
			"-0.016": 0.0,
			"-0.015": 0.0,
			"-0.014": 0.0,
			"-0.013": 0.0416747492285,
			"-0.012": 1.73384011416,
			"-0.011": 3.80867373965,
			"-0.01": 3.28528178517,
			"-0.009": 5.33831294262,
			"-0.008": 3.74628058868,
			"-0.007": 6.88173146977,
			"-0.006": 12.992374011,
			"-0.005": 15.3496627992,
			"-0.004": 23.0740158828,
			"-0.003": 27.8643836923,
			"-0.002": 20.098469199,
			"-0.001": 26.7857156883,
			"0.0": 32.382204359,
			"0.001": 24.6651375708,
			"0.002": 11.4974577668,
			"0.003": 11.9797845507,
			"0.004": 16.037252226,
			"0.005": 18.5150181978,
			"0.006": 7.22690807643,
			"0.007": 5.88637231318,
			"0.008": 5.62252840384,
			"0.009": 5.18397695188,
			"0.01": 4.61793343578,
			"0.011": 4.04996925152,
			"0.012": 2.54155415889,
			"0.013": 4.37585948777,
			"0.014": 1.48733191768,
			"0.015": 0.00582443519151,
			"0.016": 0.0,
			"0.017": 0.0,
			"0.018": 0.0,
			"0.019": 0.0,
			"0.02": 0.0,
			"0.021": 0.0,
			"0.022": 0.0,
			"0.023": 0.0,
			"0.024": 0.0,
			"0.025": 0.0
		}
	}
}
