{
	 "smiles": "COC1=C(OC)C=C(C=C1)S(=O)(=O)NCC(O)=O", 
	 "Tm": 447.15, 
	 "num_atms": 31, 
	 "gaussian": { 
		 "optdone": 1, 
		 "sigma_profile": "yes", 
		 "theory": "DFT", 
		 "functional": "B3LYP", 
		 "basiset": "6-31G**", 
		 "properties": { 
			 "R2extent": 7059.906, 
			 "electric_dipole_moment_norm": 5.48163682215, 
			 "electric_quadrupole_moment_norm": 18.1828172075, 
			 "total_energy": -1293.08744923, 
			 "HOMO_LUMO_gap": 0.2101, 
			 "cosmo_polarized_energy": -19.54, 
			 "cosmo_cavitation_energy": 37.25, 
			 "cosmo_dispersion_energy": -26.52, 
			 "cosmo_repulsion_energy": 2.05, 
			 "cosmo_total_nonelectrostatic_energy": 12.78, 
			 "SMD_solvation_energy": 7.77 
		},
		"coords": [
			{
				"x": -0.4710245041,
				"y": -1.6516406975,
				"z": 4.5885445624,
				"element": "C" 
			},
			{
				"x": 0.6778277518,
				"y": -1.6148653342,
				"z": 3.7271556266,
				"element": "O" 
			},
			{
				"x": 0.4762506149,
				"y": -1.0317485947,
				"z": 2.5023830197,
				"element": "C" 
			},
			{
				"x": 0.2080998053,
				"y": 0.346321517,
				"z": 2.3735421839,
				"element": "C" 
			},
			{
				"x": 0.0839958913,
				"y": 1.161375242,
				"z": 3.4734421558,
				"element": "O" 
			},
			{
				"x": 1.3057179755,
				"y": 1.4062330835,
				"z": 4.1840502898,
				"element": "C" 
			},
			{
				"x": 0.01824211,
				"y": 0.896855242,
				"z": 1.1054962972,
				"element": "C" 
			},
			{
				"x": 0.1188402406,
				"y": 0.0804439198,
				"z": -0.0206574171,
				"element": "C" 
			},
			{
				"x": 0.4094098038,
				"y": -1.2811331281,
				"z": 0.0902464358,
				"element": "C" 
			},
			{
				"x": 0.5839660876,
				"y": -1.8286276182,
				"z": 1.3576504696,
				"element": "C" 
			},
			{
				"x": -0.1365373882,
				"y": 0.7928594594,
				"z": -1.6433923947,
				"element": "S" 
			},
			{
				"x": -0.8323921841,
				"y": -0.1844540024,
				"z": -2.4835877416,
				"element": "O" 
			},
			{
				"x": -0.6576377116,
				"y": 2.1523370006,
				"z": -1.4454257868,
				"element": "O" 
			},
			{
				"x": 1.4286977098,
				"y": 0.8661123772,
				"z": -2.2789145028,
				"element": "N" 
			},
			{
				"x": 2.1892230873,
				"y": 2.0981684188,
				"z": -2.1071050001,
				"element": "C" 
			},
			{
				"x": 3.0378980424,
				"y": 2.32774299,
				"z": -3.34153369,
				"element": "C" 
			},
			{
				"x": 3.9144967808,
				"y": 3.3318352456,
				"z": -3.1545417143,
				"element": "O" 
			},
			{
				"x": 2.9377383667,
				"y": 1.7029719845,
				"z": -4.3743864253,
				"element": "O" 
			},
			{
				"x": -0.1395703673,
				"y": -2.1285889013,
				"z": 5.5124727025,
				"element": "H" 
			},
			{
				"x": -1.2695619384,
				"y": -2.2516818506,
				"z": 4.1361558759,
				"element": "H" 
			},
			{
				"x": -0.843827589,
				"y": -0.6456923632,
				"z": 4.8000565885,
				"element": "H" 
			},
			{
				"x": 2.0302128171,
				"y": 1.9204221094,
				"z": 3.5406189706,
				"element": "H" 
			},
			{
				"x": 1.7442508708,
				"y": 0.4753118525,
				"z": 4.5563354497,
				"element": "H" 
			},
			{
				"x": 1.0446817811,
				"y": 2.0542231062,
				"z": 5.0226526063,
				"element": "H" 
			},
			{
				"x": -0.2175634639,
				"y": 1.9504928855,
				"z": 1.0098370656,
				"element": "H" 
			},
			{
				"x": 0.472076275,
				"y": -1.9007214855,
				"z": -0.7971797522,
				"element": "H" 
			},
			{
				"x": 0.7961676567,
				"y": -2.8846553276,
				"z": 1.4887878532,
				"element": "H" 
			},
			{
				"x": 1.4041559542,
				"y": 0.565822023,
				"z": -3.2543629556,
				"element": "H" 
			},
			{
				"x": 2.8455813472,
				"y": 2.0448222979,
				"z": -1.2310858087,
				"element": "H" 
			},
			{
				"x": 1.5370491508,
				"y": 2.9728123868,
				"z": -1.9776369581,
				"element": "H" 
			},
			{
				"x": 4.400335026,
				"y": 3.4390461617,
				"z": -3.9898180061,
				"element": "H" 
			}
		],
		 "valence_orbital": [ 
			{
				"type": "occ",
				"energy": -0.29825,
				"method": "rhf"
			},
			{
				"type": "occ",
				"energy": -0.2813,
				"method": "rhf"
			},
			{
				"type": "occ",
				"energy": -0.27765,
				"method": "rhf"
			},
			{
				"type": "occ",
				"energy": -0.26211,
				"method": "rhf"
			},
			{
				"type": "occ",
				"energy": -0.24471,
				"method": "rhf"
			},
			{
				"type": "unocc",
				"energy": -0.03461,
				"method": "rhf"
			},
			{
				"type": "unocc",
				"energy": -0.01812,
				"method": "rhf"
			},
			{
				"type": "unocc",
				"energy": -0.00975,
				"method": "rhf"
			},
			{
				"type": "unocc",
				"energy": 0.05558,
				"method": "rhf"
			},
			{
				"type": "unocc",
				"energy": 0.0622,
				"method": "rhf"
			}
		],
		"cosmo_sigma_profile": { 
			"-0.025": 0.0,
			"-0.024": 0.0,
			"-0.023": 0.0,
			"-0.022": 0.0,
			"-0.021": 0.0,
			"-0.02": 0.0,
			"-0.019": 0.571094289133,
			"-0.018": 1.49446312467,
			"-0.017": 0.587155937055,
			"-0.016": 0.611227543118,
			"-0.015": 1.06609788111,
			"-0.014": 1.01494115699,
			"-0.013": 0.184510098184,
			"-0.012": 0.556509365362,
			"-0.011": 1.10888443827,
			"-0.01": 0.931666876408,
			"-0.009": 1.49043810759,
			"-0.008": 5.69867177238,
			"-0.007": 9.5882911773,
			"-0.006": 14.5344478231,
			"-0.005": 20.2219928376,
			"-0.004": 24.0305356388,
			"-0.003": 30.6328903784,
			"-0.002": 22.3022156226,
			"-0.001": 20.1188546632,
			"0.0": 16.1693881484,
			"0.001": 19.2197308465,
			"0.002": 17.5896646278,
			"0.003": 11.0328755453,
			"0.004": 7.86701314047,
			"0.005": 8.78107508124,
			"0.006": 6.77035748658,
			"0.007": 8.25460647289,
			"0.008": 8.95540551447,
			"0.009": 8.23728428769,
			"0.01": 12.7821501776,
			"0.011": 11.7744423194,
			"0.012": 1.70224848535,
			"0.013": 0.0,
			"0.014": 0.0,
			"0.015": 0.0,
			"0.016": 0.0,
			"0.017": 0.0,
			"0.018": 0.0,
			"0.019": 0.0,
			"0.02": 0.0,
			"0.021": 0.0,
			"0.022": 0.0,
			"0.023": 0.0,
			"0.024": 0.0,
			"0.025": 0.0
		}
	}
}
