{
	 "smiles": "OC(=O)C(S)C(S)C(O)=O", 
	 "Tm": 468.15, 
	 "num_atms": 16, 
	 "gaussian": { 
		 "optdone": 1, 
		 "sigma_profile": "yes", 
		 "theory": "DFT", 
		 "functional": "B3LYP", 
		 "basiset": "6-31G**", 
		 "properties": { 
			 "R2extent": 1979.937, 
			 "electric_dipole_moment_norm": 2.45127916199, 
			 "electric_quadrupole_moment_norm": 15.6760809997, 
			 "total_energy": -1253.31911118, 
			 "HOMO_LUMO_gap": 0.24366, 
			 "cosmo_polarized_energy": -17.78, 
			 "cosmo_cavitation_energy": 23.22, 
			 "cosmo_dispersion_energy": -17.86, 
			 "cosmo_repulsion_energy": 1.37, 
			 "cosmo_total_nonelectrostatic_energy": 6.72, 
			 "SMD_solvation_energy": 5.56 
		},
		"coords": [
			{
				"x": 2.7863881813,
				"y": -0.0287242429,
				"z": -0.4461442945,
				"element": "O" 
			},
			{
				"x": 1.6406579767,
				"y": 0.4763456024,
				"z": 0.0275499043,
				"element": "C" 
			},
			{
				"x": 1.6256140221,
				"y": 1.4010963929,
				"z": 0.8079607894,
				"element": "O" 
			},
			{
				"x": 0.338780892,
				"y": -0.1408768498,
				"z": -0.5200004486,
				"element": "C" 
			},
			{
				"x": 0.4775567974,
				"y": -1.9279963054,
				"z": -0.9511288348,
				"element": "S" 
			},
			{
				"x": -0.8494994039,
				"y": 0.2266342239,
				"z": 0.3754834221,
				"element": "C" 
			},
			{
				"x": -0.8757643638,
				"y": -0.6615529177,
				"z": 2.0029074137,
				"element": "S" 
			},
			{
				"x": -2.180293875,
				"y": 0.115341873,
				"z": -0.3957229934,
				"element": "C" 
			},
			{
				"x": -3.29126623,
				"y": -0.0526536836,
				"z": 0.3356511324,
				"element": "O" 
			},
			{
				"x": -2.2191622367,
				"y": 0.2451601852,
				"z": -1.5951584138,
				"element": "O" 
			},
			{
				"x": 2.5847847491,
				"y": -0.8138799603,
				"z": -0.9905138482,
				"element": "H" 
			},
			{
				"x": 0.1392822672,
				"y": 0.3253699582,
				"z": -1.4932056742,
				"element": "H" 
			},
			{
				"x": 0.6886456245,
				"y": -2.3654901548,
				"z": 0.3088237018,
				"element": "H" 
			},
			{
				"x": -0.7285902029,
				"y": 1.2858602807,
				"z": 0.6252309992,
				"element": "H" 
			},
			{
				"x": -0.2025405057,
				"y": 0.2842178157,
				"z": 2.684363974,
				"element": "H" 
			},
			{
				"x": -3.0523936924,
				"y": -0.1571522174,
				"z": 1.2752031706,
				"element": "H" 
			}
		],
		 "valence_orbital": [ 
			{
				"type": "occ",
				"energy": -0.33162,
				"method": "rhf"
			},
			{
				"type": "occ",
				"energy": -0.30956,
				"method": "rhf"
			},
			{
				"type": "occ",
				"energy": -0.30175,
				"method": "rhf"
			},
			{
				"type": "occ",
				"energy": -0.28258,
				"method": "rhf"
			},
			{
				"type": "occ",
				"energy": -0.27463,
				"method": "rhf"
			},
			{
				"type": "unocc",
				"energy": -0.03097,
				"method": "rhf"
			},
			{
				"type": "unocc",
				"energy": -0.02031,
				"method": "rhf"
			},
			{
				"type": "unocc",
				"energy": -0.00698,
				"method": "rhf"
			},
			{
				"type": "unocc",
				"energy": 0.00367,
				"method": "rhf"
			},
			{
				"type": "unocc",
				"energy": 0.03545,
				"method": "rhf"
			}
		],
		"cosmo_sigma_profile": { 
			"-0.025": 0.0,
			"-0.024": 0.0,
			"-0.023": 0.0,
			"-0.022": 0.0,
			"-0.021": 0.0,
			"-0.02": 0.0,
			"-0.019": 0.0,
			"-0.018": 0.0,
			"-0.017": 0.0,
			"-0.016": 0.0,
			"-0.015": 0.0834957063995,
			"-0.014": 1.19066373304,
			"-0.013": 1.69113872494,
			"-0.012": 2.07994746084,
			"-0.011": 5.40479647614,
			"-0.01": 8.53339163337,
			"-0.009": 8.9080505022,
			"-0.008": 8.78086119311,
			"-0.007": 6.61513007255,
			"-0.006": 7.21513641391,
			"-0.005": 6.79287779432,
			"-0.004": 7.00091049169,
			"-0.003": 7.66440035928,
			"-0.002": 8.43655035142,
			"-0.001": 7.83234527333,
			"0.0": 9.34446067014,
			"0.001": 7.01176030474,
			"0.002": 9.26280476152,
			"0.003": 11.5837109731,
			"0.004": 8.61778157185,
			"0.005": 6.68650299189,
			"0.006": 6.04341874953,
			"0.007": 6.14809566715,
			"0.008": 6.74267827653,
			"0.009": 9.30538851436,
			"0.01": 8.24361366871,
			"0.011": 7.26014792699,
			"0.012": 3.7384851969,
			"0.013": 0.321290134084,
			"0.014": 0.0,
			"0.015": 0.0,
			"0.016": 0.0,
			"0.017": 0.0,
			"0.018": 0.0,
			"0.019": 0.0,
			"0.02": 0.0,
			"0.021": 0.0,
			"0.022": 0.0,
			"0.023": 0.0,
			"0.024": 0.0,
			"0.025": 0.0
		}
	}
}
