{
	 "smiles": "CC(C(=O)OCC1=CC=CC=C1)S(N)(=O)=O", 
	 "Tm": 357.15, 
	 "num_atms": 29, 
	 "gaussian": { 
		 "optdone": 1, 
		 "sigma_profile": "yes", 
		 "theory": "DFT", 
		 "functional": "B3LYP", 
		 "basiset": "6-31G**", 
		 "properties": { 
			 "R2extent": 5626.6969, 
			 "electric_dipole_moment_norm": 4.95354400909, 
			 "electric_quadrupole_moment_norm": 14.842619128, 
			 "total_energy": -1142.68196971, 
			 "HOMO_LUMO_gap": 0.23589, 
			 "cosmo_polarized_energy": -17.56, 
			 "cosmo_cavitation_energy": 34.26, 
			 "cosmo_dispersion_energy": -24.79, 
			 "cosmo_repulsion_energy": 1.91, 
			 "cosmo_total_nonelectrostatic_energy": 11.38, 
			 "SMD_solvation_energy": 6.07 
		},
		"coords": [
			{
				"x": 1.9173651403,
				"y": -1.1119534348,
				"z": -1.1457695307,
				"element": "C" 
			},
			{
				"x": 1.4506830509,
				"y": -0.0621094634,
				"z": -0.1345459747,
				"element": "C" 
			},
			{
				"x": 0.3770730037,
				"y": 0.9062774977,
				"z": -0.6319824032,
				"element": "C" 
			},
			{
				"x": 0.1809557376,
				"y": 2.0096401591,
				"z": -0.1583888956,
				"element": "O" 
			},
			{
				"x": -0.3380033899,
				"y": 0.3713228471,
				"z": -1.6275149724,
				"element": "O" 
			},
			{
				"x": -1.4348828972,
				"y": 1.1786791512,
				"z": -2.1677427027,
				"element": "C" 
			},
			{
				"x": -2.7316432923,
				"y": 0.8986338068,
				"z": -1.4542973701,
				"element": "C" 
			},
			{
				"x": -3.5668732901,
				"y": -0.1378140986,
				"z": -1.8908385787,
				"element": "C" 
			},
			{
				"x": -4.7641074179,
				"y": -0.4102533695,
				"z": -1.2288976006,
				"element": "C" 
			},
			{
				"x": -5.1380197056,
				"y": 0.3544516694,
				"z": -0.1219078272,
				"element": "C" 
			},
			{
				"x": -4.3117030976,
				"y": 1.3901262171,
				"z": 0.3197577529,
				"element": "C" 
			},
			{
				"x": -3.1140349713,
				"y": 1.6615069052,
				"z": -0.3421471347,
				"element": "C" 
			},
			{
				"x": 2.9147105055,
				"y": 0.8822053389,
				"z": 0.4515496707,
				"element": "S" 
			},
			{
				"x": 2.2557509834,
				"y": 1.7111697153,
				"z": 1.7628229632,
				"element": "N" 
			},
			{
				"x": 3.8677296413,
				"y": -0.0724882572,
				"z": 1.0251974087,
				"element": "O" 
			},
			{
				"x": 3.3336195506,
				"y": 1.7706824342,
				"z": -0.6390508984,
				"element": "O" 
			},
			{
				"x": 2.685211655,
				"y": -1.7427847531,
				"z": -0.6941470173,
				"element": "H" 
			},
			{
				"x": 1.0715137485,
				"y": -1.7327109293,
				"z": -1.4449788083,
				"element": "H" 
			},
			{
				"x": 2.3315705386,
				"y": -0.6343407121,
				"z": -2.0367584672,
				"element": "H" 
			},
			{
				"x": 1.0602710871,
				"y": -0.5401370058,
				"z": 0.7707514445,
				"element": "H" 
			},
			{
				"x": -1.4827816596,
				"y": 0.8768156552,
				"z": -3.2152826477,
				"element": "H" 
			},
			{
				"x": -1.1505498731,
				"y": 2.2292613482,
				"z": -2.0966200611,
				"element": "H" 
			},
			{
				"x": -3.2784764258,
				"y": -0.7309874973,
				"z": -2.7552646673,
				"element": "H" 
			},
			{
				"x": -5.405470249,
				"y": -1.21415827,
				"z": -1.5782818389,
				"element": "H" 
			},
			{
				"x": -6.0716704292,
				"y": 0.1460053626,
				"z": 0.3926278185,
				"element": "H" 
			},
			{
				"x": -4.6011954223,
				"y": 1.9885795522,
				"z": 1.1787132086,
				"element": "H" 
			},
			{
				"x": -2.463928029,
				"y": 2.4595576101,
				"z": 0.0028275977,
				"element": "H" 
			},
			{
				"x": 3.0154857137,
				"y": 2.0157945136,
				"z": 2.3673141183,
				"element": "H" 
			},
			{
				"x": 1.6751997935,
				"y": 2.4796280072,
				"z": 1.4312554138,
				"element": "H" 
			}
		],
		 "valence_orbital": [ 
			{
				"type": "occ",
				"energy": -0.29807,
				"method": "rhf"
			},
			{
				"type": "occ",
				"energy": -0.29682,
				"method": "rhf"
			},
			{
				"type": "occ",
				"energy": -0.27857,
				"method": "rhf"
			},
			{
				"type": "occ",
				"energy": -0.26201,
				"method": "rhf"
			},
			{
				"type": "occ",
				"energy": -0.26066,
				"method": "rhf"
			},
			{
				"type": "unocc",
				"energy": -0.02477,
				"method": "rhf"
			},
			{
				"type": "unocc",
				"energy": -0.01677,
				"method": "rhf"
			},
			{
				"type": "unocc",
				"energy": -0.01289,
				"method": "rhf"
			},
			{
				"type": "unocc",
				"energy": 0.06102,
				"method": "rhf"
			},
			{
				"type": "unocc",
				"energy": 0.06701,
				"method": "rhf"
			}
		],
		"cosmo_sigma_profile": { 
			"-0.025": 0.0,
			"-0.024": 0.0,
			"-0.023": 0.0,
			"-0.022": 0.0,
			"-0.021": 0.0,
			"-0.02": 0.0,
			"-0.019": 0.0,
			"-0.018": 0.0,
			"-0.017": 0.0,
			"-0.016": 0.103324727438,
			"-0.015": 1.48686798945,
			"-0.014": 1.13568886711,
			"-0.013": 1.93408826324,
			"-0.012": 2.02295868995,
			"-0.011": 2.11044923851,
			"-0.01": 3.91893811933,
			"-0.009": 3.53290142345,
			"-0.008": 2.92490968772,
			"-0.007": 6.3669529143,
			"-0.006": 14.0373879831,
			"-0.005": 19.4917305858,
			"-0.004": 24.6690510511,
			"-0.003": 21.1037074476,
			"-0.002": 18.2399633885,
			"-0.001": 17.0869183385,
			"0.0": 12.4333629383,
			"0.001": 12.3278819201,
			"0.002": 14.2008996275,
			"0.003": 14.6837988026,
			"0.004": 16.1315502109,
			"0.005": 15.4825062867,
			"0.006": 7.40319465595,
			"0.007": 4.94106518354,
			"0.008": 3.9263308802,
			"0.009": 5.35944139823,
			"0.01": 8.92141866328,
			"0.011": 11.330795655,
			"0.012": 4.1729973795,
			"0.013": 0.0,
			"0.014": 0.0,
			"0.015": 0.0,
			"0.016": 0.0,
			"0.017": 0.0,
			"0.018": 0.0,
			"0.019": 0.0,
			"0.02": 0.0,
			"0.021": 0.0,
			"0.022": 0.0,
			"0.023": 0.0,
			"0.024": 0.0,
			"0.025": 0.0
		}
	}
}
