{
	 "smiles": "C1CC(CCN1)C1=NC2=C(O1)C=CC=C2", 
	 "Tm": 385.15, 
	 "num_atms": 29, 
	 "gaussian": { 
		 "optdone": 1, 
		 "sigma_profile": "yes", 
		 "theory": "DFT", 
		 "functional": "B3LYP", 
		 "basiset": "6-31G**", 
		 "properties": { 
			 "R2extent": 5235.7963, 
			 "electric_dipole_moment_norm": 0.995041908665, 
			 "electric_quadrupole_moment_norm": 10.2755795087, 
			 "total_energy": -650.43525818, 
			 "HOMO_LUMO_gap": 0.18969, 
			 "cosmo_polarized_energy": -9.38, 
			 "cosmo_cavitation_energy": 30.89, 
			 "cosmo_dispersion_energy": -23.01, 
			 "cosmo_repulsion_energy": 1.8, 
			 "cosmo_total_nonelectrostatic_energy": 9.68, 
			 "SMD_solvation_energy": 0.25 
		},
		"coords": [
			{
				"x": -0.0205538243,
				"y": 0.5417425216,
				"z": -2.4791693944,
				"element": "C" 
			},
			{
				"x": 0.2929671545,
				"y": -0.2511821456,
				"z": -1.2099949671,
				"element": "C" 
			},
			{
				"x": -0.7110863949,
				"y": 0.1040762489,
				"z": -0.0764232549,
				"element": "C" 
			},
			{
				"x": -2.1332914882,
				"y": 0.3672399261,
				"z": -0.6694495747,
				"element": "C" 
			},
			{
				"x": -2.2982822158,
				"y": -0.3222373487,
				"z": -2.0315069468,
				"element": "C" 
			},
			{
				"x": -1.3162379827,
				"y": 0.1179445134,
				"z": -3.0366432211,
				"element": "N" 
			},
			{
				"x": -0.7214241722,
				"y": -0.9451611538,
				"z": 0.9864386415,
				"element": "C" 
			},
			{
				"x": -0.3684994347,
				"y": -0.8288227576,
				"z": 2.2270690852,
				"element": "N" 
			},
			{
				"x": -0.5767374141,
				"y": -2.0988923869,
				"z": 2.7732561856,
				"element": "C" 
			},
			{
				"x": -1.0699003571,
				"y": -2.9445145573,
				"z": 1.7705211314,
				"element": "C" 
			},
			{
				"x": -1.1629295274,
				"y": -2.2028539039,
				"z": 0.6176157537,
				"element": "O" 
			},
			{
				"x": -1.3869968387,
				"y": -4.279462427,
				"z": 1.9708036586,
				"element": "C" 
			},
			{
				"x": -1.1844850164,
				"y": -4.7615270182,
				"z": 3.2671795802,
				"element": "C" 
			},
			{
				"x": -0.6904594284,
				"y": -3.934423611,
				"z": 4.2924238916,
				"element": "C" 
			},
			{
				"x": -0.3789887489,
				"y": -2.5935642144,
				"z": 4.064576788,
				"element": "C" 
			},
			{
				"x": 0.0091468085,
				"y": 1.6186953721,
				"z": -2.2323064292,
				"element": "H" 
			},
			{
				"x": 0.7641186427,
				"y": 0.3727993235,
				"z": -3.2274825728,
				"element": "H" 
			},
			{
				"x": 0.2369497399,
				"y": -1.3209966534,
				"z": -1.4381826879,
				"element": "H" 
			},
			{
				"x": 1.3148266394,
				"y": -0.0475649808,
				"z": -0.8754513168,
				"element": "H" 
			},
			{
				"x": -0.365391198,
				"y": 1.010787934,
				"z": 0.4282435975,
				"element": "H" 
			},
			{
				"x": -2.2678097412,
				"y": 1.4481909136,
				"z": -0.7934596233,
				"element": "H" 
			},
			{
				"x": -2.9097859672,
				"y": 0.0327954053,
				"z": 0.0267228156,
				"element": "H" 
			},
			{
				"x": -3.3019390608,
				"y": -0.1427851617,
				"z": -2.4305046688,
				"element": "H" 
			},
			{
				"x": -2.2148007409,
				"y": -1.4076079946,
				"z": -1.8899237226,
				"element": "H" 
			},
			{
				"x": -1.7078849277,
				"y": 0.8737444742,
				"z": -3.5881680812,
				"element": "H" 
			},
			{
				"x": -1.7667948877,
				"y": -4.9073945764,
				"z": 1.1724953981,
				"element": "H" 
			},
			{
				"x": -1.4142367646,
				"y": -5.7997286969,
				"z": 3.4868573191,
				"element": "H" 
			},
			{
				"x": -0.5492733281,
				"y": -4.3531487152,
				"z": 5.2843319321,
				"element": "H" 
			},
			{
				"x": 0.0019804747,
				"y": -1.9525483293,
				"z": 4.8525306834,
				"element": "H" 
			}
		],
		 "valence_orbital": [ 
			{
				"type": "occ",
				"energy": -0.31587,
				"method": "rhf"
			},
			{
				"type": "occ",
				"energy": -0.28369,
				"method": "rhf"
			},
			{
				"type": "occ",
				"energy": -0.24266,
				"method": "rhf"
			},
			{
				"type": "occ",
				"energy": -0.23074,
				"method": "rhf"
			},
			{
				"type": "occ",
				"energy": -0.21156,
				"method": "rhf"
			},
			{
				"type": "unocc",
				"energy": -0.02187,
				"method": "rhf"
			},
			{
				"type": "unocc",
				"energy": 0.00985,
				"method": "rhf"
			},
			{
				"type": "unocc",
				"energy": 0.04324,
				"method": "rhf"
			},
			{
				"type": "unocc",
				"energy": 0.06998,
				"method": "rhf"
			},
			{
				"type": "unocc",
				"energy": 0.09515,
				"method": "rhf"
			}
		],
		"cosmo_sigma_profile": { 
			"-0.025": 0.0,
			"-0.024": 0.0,
			"-0.023": 0.0,
			"-0.022": 0.0,
			"-0.021": 0.0,
			"-0.02": 0.0,
			"-0.019": 0.0,
			"-0.018": 0.0,
			"-0.017": 0.0,
			"-0.016": 0.0,
			"-0.015": 0.0,
			"-0.014": 0.0,
			"-0.013": 0.0,
			"-0.012": 0.0,
			"-0.011": 0.0,
			"-0.01": 0.612938147358,
			"-0.009": 1.40343260425,
			"-0.008": 1.44689187952,
			"-0.007": 3.86353131532,
			"-0.006": 8.15409094984,
			"-0.005": 11.5270584007,
			"-0.004": 22.4140185103,
			"-0.003": 27.7818455462,
			"-0.002": 29.0427323096,
			"-0.001": 27.1516330369,
			"0.0": 21.7964957468,
			"0.001": 14.1893188188,
			"0.002": 12.6450157516,
			"0.003": 15.6649184336,
			"0.004": 13.414757568,
			"0.005": 11.4937690503,
			"0.006": 3.16449433621,
			"0.007": 2.04344652567,
			"0.008": 1.64389685982,
			"0.009": 1.41239249205,
			"0.01": 2.52490701207,
			"0.011": 2.03227614328,
			"0.012": 1.18603516341,
			"0.013": 1.06183384393,
			"0.014": 1.80100452741,
			"0.015": 1.45078048216,
			"0.016": 1.34466987405,
			"0.017": 0.368073643177,
			"0.018": 0.515753824345,
			"0.019": 0.309880578341,
			"0.02": 0.0,
			"0.021": 0.0,
			"0.022": 0.0,
			"0.023": 0.0,
			"0.024": 0.0,
			"0.025": 0.0
		}
	}
}
