{
	 "smiles": "CC1(C)CC(=O)C(=NNC2=CC=C(O)C=C2)C(=O)C1", 
	 "Tm": 479.15, 
	 "num_atms": 35, 
	 "gaussian": { 
		 "optdone": 1, 
		 "sigma_profile": "yes", 
		 "theory": "DFT", 
		 "functional": "B3LYP", 
		 "basiset": "6-31G**", 
		 "properties": { 
			 "R2extent": 8140.4162, 
			 "electric_dipole_moment_norm": 1.07040639946, 
			 "electric_quadrupole_moment_norm": 20.915471725, 
			 "total_energy": -878.288088999, 
			 "HOMO_LUMO_gap": 0.12694, 
			 "cosmo_polarized_energy": -19.3, 
			 "cosmo_cavitation_energy": 38.19, 
			 "cosmo_dispersion_energy": -27.32, 
			 "cosmo_repulsion_energy": 2.08, 
			 "cosmo_total_nonelectrostatic_energy": 12.95, 
			 "SMD_solvation_energy": 7.07 
		},
		"coords": [
			{
				"x": 4.3163963957,
				"y": 2.2430233781,
				"z": 2.4347917562,
				"element": "C" 
			},
			{
				"x": 3.2839271481,
				"y": 1.5056997579,
				"z": 1.5650037149,
				"element": "C" 
			},
			{
				"x": 3.0557977513,
				"y": 2.304598728,
				"z": 0.2655220278,
				"element": "C" 
			},
			{
				"x": 1.9621766478,
				"y": 1.3646737913,
				"z": 2.3495346038,
				"element": "C" 
			},
			{
				"x": 0.9157571549,
				"y": 0.483660102,
				"z": 1.6889387121,
				"element": "C" 
			},
			{
				"x": -0.2898959523,
				"y": 0.681015984,
				"z": 1.9269490997,
				"element": "O" 
			},
			{
				"x": 1.3609728149,
				"y": -0.5965440828,
				"z": 0.8096868869,
				"element": "C" 
			},
			{
				"x": 0.5286932541,
				"y": -1.4453248449,
				"z": 0.2086289547,
				"element": "N" 
			},
			{
				"x": -0.7510303218,
				"y": -1.3490717228,
				"z": 0.393227538,
				"element": "N" 
			},
			{
				"x": -1.6445306614,
				"y": -2.2415500667,
				"z": -0.2276242843,
				"element": "C" 
			},
			{
				"x": -1.1941937767,
				"y": -3.2639105387,
				"z": -1.0716811419,
				"element": "C" 
			},
			{
				"x": -2.1155359964,
				"y": -4.1208325832,
				"z": -1.6627495364,
				"element": "C" 
			},
			{
				"x": -3.4876903532,
				"y": -3.9682471906,
				"z": -1.4199809488,
				"element": "C" 
			},
			{
				"x": -4.4313300643,
				"y": -4.7819955133,
				"z": -1.9750608673,
				"element": "O" 
			},
			{
				"x": -3.9339093291,
				"y": -2.9447834276,
				"z": -0.5756739184,
				"element": "C" 
			},
			{
				"x": -3.0157721697,
				"y": -2.0865014337,
				"z": 0.0169204152,
				"element": "C" 
			},
			{
				"x": 2.8042497141,
				"y": -0.8080585687,
				"z": 0.5037720479,
				"element": "C" 
			},
			{
				"x": 3.1931729295,
				"y": -1.6657008779,
				"z": -0.2733628631,
				"element": "O" 
			},
			{
				"x": 3.7971439867,
				"y": 0.0866407621,
				"z": 1.2416675368,
				"element": "C" 
			},
			{
				"x": 4.5099875736,
				"y": 1.7031323921,
				"z": 3.3685627626,
				"element": "H" 
			},
			{
				"x": 3.9655152555,
				"y": 3.2482579453,
				"z": 2.6941835111,
				"element": "H" 
			},
			{
				"x": 5.2692305865,
				"y": 2.3483971462,
				"z": 1.9046325986,
				"element": "H" 
			},
			{
				"x": 2.3243621619,
				"y": 1.8234796352,
				"z": -0.3920195686,
				"element": "H" 
			},
			{
				"x": 2.6907035135,
				"y": 3.3131095274,
				"z": 0.4886527512,
				"element": "H" 
			},
			{
				"x": 3.9907152666,
				"y": 2.4022742165,
				"z": -0.2964716303,
				"element": "H" 
			},
			{
				"x": 1.4961859227,
				"y": 2.336182239,
				"z": 2.5447131507,
				"element": "H" 
			},
			{
				"x": 2.171582251,
				"y": 0.9179078838,
				"z": 3.333498261,
				"element": "H" 
			},
			{
				"x": -1.081459995,
				"y": -0.5911641979,
				"z": 1.0123590523,
				"element": "H" 
			},
			{
				"x": -0.1310443577,
				"y": -3.3714491039,
				"z": -1.2521556089,
				"element": "H" 
			},
			{
				"x": -1.7656906229,
				"y": -4.9150617823,
				"z": -2.3186972034,
				"element": "H" 
			},
			{
				"x": -3.9973319621,
				"y": -5.4408700355,
				"z": -2.532544746,
				"element": "H" 
			},
			{
				"x": -4.9979639857,
				"y": -2.8372098321,
				"z": -0.3959290361,
				"element": "H" 
			},
			{
				"x": -3.3624716398,
				"y": -1.2922074621,
				"z": 0.6724662301,
				"element": "H" 
			},
			{
				"x": 4.7148892126,
				"y": 0.1135910547,
				"z": 0.646167482,
				"element": "H" 
			},
			{
				"x": 4.0482916469,
				"y": -0.4267612789,
				"z": 2.1825722597,
				"element": "H" 
			}
		],
		 "valence_orbital": [ 
			{
				"type": "occ",
				"energy": -0.26999,
				"method": "rhf"
			},
			{
				"type": "occ",
				"energy": -0.26547,
				"method": "rhf"
			},
			{
				"type": "occ",
				"energy": -0.24844,
				"method": "rhf"
			},
			{
				"type": "occ",
				"energy": -0.23077,
				"method": "rhf"
			},
			{
				"type": "occ",
				"energy": -0.20802,
				"method": "rhf"
			},
			{
				"type": "unocc",
				"energy": -0.08108,
				"method": "rhf"
			},
			{
				"type": "unocc",
				"energy": -0.01602,
				"method": "rhf"
			},
			{
				"type": "unocc",
				"energy": -0.01443,
				"method": "rhf"
			},
			{
				"type": "unocc",
				"energy": 0.01994,
				"method": "rhf"
			},
			{
				"type": "unocc",
				"energy": 0.06201,
				"method": "rhf"
			}
		],
		"cosmo_sigma_profile": { 
			"-0.025": 0.0,
			"-0.024": 0.0,
			"-0.023": 0.0,
			"-0.022": 0.0,
			"-0.021": 0.0,
			"-0.02": 0.0,
			"-0.019": 0.0308865366368,
			"-0.018": 0.830243109869,
			"-0.017": 1.35085626998,
			"-0.016": 1.14894116195,
			"-0.015": 0.711756501088,
			"-0.014": 1.09033462647,
			"-0.013": 0.599409256101,
			"-0.012": 0.989938292444,
			"-0.011": 2.45323568693,
			"-0.01": 3.00822459827,
			"-0.009": 1.74060029085,
			"-0.008": 3.23472879499,
			"-0.007": 6.10658369949,
			"-0.006": 12.2104469382,
			"-0.005": 15.0106287384,
			"-0.004": 19.9562793623,
			"-0.003": 34.123881163,
			"-0.002": 26.111321387,
			"-0.001": 25.8280675227,
			"0.0": 25.0548916987,
			"0.001": 23.2049871699,
			"0.002": 13.8109370605,
			"0.003": 18.6068806033,
			"0.004": 14.07063054,
			"0.005": 5.18085237705,
			"0.006": 4.83512110468,
			"0.007": 4.67039955853,
			"0.008": 4.17819752602,
			"0.009": 4.03274164095,
			"0.01": 4.95056499378,
			"0.011": 5.78381533149,
			"0.012": 5.51269237739,
			"0.013": 5.88238690327,
			"0.014": 3.52463522029,
			"0.015": 1.56618016538,
			"0.016": 0.0,
			"0.017": 0.0,
			"0.018": 0.0,
			"0.019": 0.0,
			"0.02": 0.0,
			"0.021": 0.0,
			"0.022": 0.0,
			"0.023": 0.0,
			"0.024": 0.0,
			"0.025": 0.0
		}
	}
}
