{
	 "smiles": "CC(=C/NNC1=NC(C)=CC(C)=N1)C1=CC=NC=C1", 
	 "Tm": 488.15, 
	 "num_atms": 36, 
	 "gaussian": { 
		 "optdone": 1, 
		 "sigma_profile": "yes", 
		 "theory": "DFT", 
		 "functional": "B3LYP", 
		 "basiset": "6-31G**", 
		 "properties": { 
			 "R2extent": 7765.7221, 
			 "electric_dipole_moment_norm": 5.84580408584, 
			 "electric_quadrupole_moment_norm": 16.1057912314, 
			 "total_energy": -817.472365375, 
			 "HOMO_LUMO_gap": 0.16128, 
			 "cosmo_polarized_energy": -14.77, 
			 "cosmo_cavitation_energy": 40.26, 
			 "cosmo_dispersion_energy": -28.22, 
			 "cosmo_repulsion_energy": 2.21, 
			 "cosmo_total_nonelectrostatic_energy": 14.25, 
			 "SMD_solvation_energy": 3.31 
		},
		"coords": [
			{
				"x": 0.7119349847,
				"y": -0.7239118645,
				"z": 2.874718393,
				"element": "C" 
			},
			{
				"x": -0.1675516692,
				"y": 0.1064466921,
				"z": 1.9646605079,
				"element": "C" 
			},
			{
				"x": -0.7231812126,
				"y": -0.4235067151,
				"z": 0.8516855971,
				"element": "C" 
			},
			{
				"x": -0.6272702671,
				"y": -1.7551575834,
				"z": 0.4475830544,
				"element": "N" 
			},
			{
				"x": -0.8310944944,
				"y": -1.9956918975,
				"z": -0.9117860724,
				"element": "N" 
			},
			{
				"x": 0.2435317838,
				"y": -2.0890134908,
				"z": -1.781290122,
				"element": "C" 
			},
			{
				"x": 1.4337428553,
				"y": -1.6615734639,
				"z": -1.3449461086,
				"element": "N" 
			},
			{
				"x": 2.4419140274,
				"y": -1.7281660018,
				"z": -2.2308984393,
				"element": "C" 
			},
			{
				"x": 3.7847740955,
				"y": -1.2441485392,
				"z": -1.7538116322,
				"element": "C" 
			},
			{
				"x": 2.2445315304,
				"y": -2.2250648952,
				"z": -3.5202999241,
				"element": "C" 
			},
			{
				"x": 0.960212267,
				"y": -2.6718976023,
				"z": -3.8582852007,
				"element": "C" 
			},
			{
				"x": 0.6450735421,
				"y": -3.2442187006,
				"z": -5.2148337023,
				"element": "C" 
			},
			{
				"x": -0.0506210895,
				"y": -2.609950314,
				"z": -2.9842903762,
				"element": "N" 
			},
			{
				"x": -0.4652983441,
				"y": 1.5025224091,
				"z": 2.3395916611,
				"element": "C" 
			},
			{
				"x": -0.8136668377,
				"y": 2.4922833871,
				"z": 1.3989696988,
				"element": "C" 
			},
			{
				"x": -1.0930356654,
				"y": 3.7861476331,
				"z": 1.8245330507,
				"element": "C" 
			},
			{
				"x": -1.0437399321,
				"y": 4.1904067012,
				"z": 3.103059127,
				"element": "N" 
			},
			{
				"x": -0.6993137542,
				"y": 3.2564777122,
				"z": 3.9977621186,
				"element": "C" 
			},
			{
				"x": -0.4051329475,
				"y": 1.9321206487,
				"z": 3.6782102976,
				"element": "C" 
			},
			{
				"x": 0.1373442729,
				"y": -1.2875038931,
				"z": 3.6218202026,
				"element": "H" 
			},
			{
				"x": 1.3039799492,
				"y": -1.4502143268,
				"z": 2.3055900352,
				"element": "H" 
			},
			{
				"x": 1.4249581184,
				"y": -0.0947256495,
				"z": 3.4143588378,
				"element": "H" 
			},
			{
				"x": -1.3838831139,
				"y": 0.154149923,
				"z": 0.214916372,
				"element": "H" 
			},
			{
				"x": 0.1851369139,
				"y": -2.2485518635,
				"z": 0.8068575231,
				"element": "H" 
			},
			{
				"x": -1.5986068322,
				"y": -2.6188278925,
				"z": -1.1268451445,
				"element": "H" 
			},
			{
				"x": 4.5513506724,
				"y": -1.3459336367,
				"z": -2.5253937495,
				"element": "H" 
			},
			{
				"x": 4.0956455017,
				"y": -1.8082019778,
				"z": -0.868382266,
				"element": "H" 
			},
			{
				"x": 3.7199004496,
				"y": -0.1930445143,
				"z": -1.4543719815,
				"element": "H" 
			},
			{
				"x": 3.0604674813,
				"y": -2.2772826435,
				"z": -4.2321056747,
				"element": "H" 
			},
			{
				"x": -0.0911149351,
				"y": -2.6147057786,
				"z": -5.7257196717,
				"element": "H" 
			},
			{
				"x": 0.1970259126,
				"y": -4.2371188442,
				"z": -5.1095577002,
				"element": "H" 
			},
			{
				"x": 1.5368801801,
				"y": -3.3200287435,
				"z": -5.8412168867,
				"element": "H" 
			},
			{
				"x": -0.8367569454,
				"y": 2.2661618155,
				"z": 0.337700922,
				"element": "H" 
			},
			{
				"x": -1.3595182394,
				"y": 4.548239031,
				"z": 1.0932047061,
				"element": "H" 
			},
			{
				"x": -0.6574075023,
				"y": 3.5816578744,
				"z": 5.0367384389,
				"element": "H" 
			},
			{
				"x": -0.1501107562,
				"y": 1.2395270049,
				"z": 4.4735741089,
				"element": "H" 
			}
		],
		 "valence_orbital": [ 
			{
				"type": "occ",
				"energy": -0.25291,
				"method": "rhf"
			},
			{
				"type": "occ",
				"energy": -0.247,
				"method": "rhf"
			},
			{
				"type": "occ",
				"energy": -0.2391,
				"method": "rhf"
			},
			{
				"type": "occ",
				"energy": -0.23611,
				"method": "rhf"
			},
			{
				"type": "occ",
				"energy": -0.19853,
				"method": "rhf"
			},
			{
				"type": "unocc",
				"energy": -0.03725,
				"method": "rhf"
			},
			{
				"type": "unocc",
				"energy": -0.0231,
				"method": "rhf"
			},
			{
				"type": "unocc",
				"energy": -0.00366,
				"method": "rhf"
			},
			{
				"type": "unocc",
				"energy": 0.00462,
				"method": "rhf"
			},
			{
				"type": "unocc",
				"energy": 0.05601,
				"method": "rhf"
			}
		],
		"cosmo_sigma_profile": { 
			"-0.025": 0.0,
			"-0.024": 0.0,
			"-0.023": 0.0,
			"-0.022": 0.0,
			"-0.021": 0.0,
			"-0.02": 0.0,
			"-0.019": 0.0,
			"-0.018": 0.0,
			"-0.017": 0.0,
			"-0.016": 0.0,
			"-0.015": 0.0,
			"-0.014": 0.308162470758,
			"-0.013": 0.995870101899,
			"-0.012": 1.02020250494,
			"-0.011": 2.14829065364,
			"-0.01": 1.37850422346,
			"-0.009": 1.85402150648,
			"-0.008": 1.96762717099,
			"-0.007": 3.65748419481,
			"-0.006": 12.4629166334,
			"-0.005": 23.1304392977,
			"-0.004": 27.7002787428,
			"-0.003": 27.0786761297,
			"-0.002": 26.8160506596,
			"-0.001": 33.2680453379,
			"0.0": 29.7748537404,
			"0.001": 20.7583551143,
			"0.002": 18.2636172231,
			"0.003": 21.8138693963,
			"0.004": 19.3432512502,
			"0.005": 9.93848475385,
			"0.006": 7.34795352382,
			"0.007": 4.45689654699,
			"0.008": 5.46746749525,
			"0.009": 3.81671976576,
			"0.01": 3.86708699653,
			"0.011": 2.45024590231,
			"0.012": 1.87088874445,
			"0.013": 2.10233553857,
			"0.014": 1.88418951616,
			"0.015": 0.793661221024,
			"0.016": 0.924429594868,
			"0.017": 0.978343765769,
			"0.018": 0.200153434354,
			"0.019": 0.0,
			"0.02": 0.0,
			"0.021": 0.0,
			"0.022": 0.0,
			"0.023": 0.0,
			"0.024": 0.0,
			"0.025": 0.0
		}
	}
}
