{
	 "smiles": "CC1=C(CS(C)(=O)=O)C=CC=C1N", 
	 "Tm": 423.15, 
	 "num_atms": 26, 
	 "gaussian": { 
		 "optdone": 1, 
		 "sigma_profile": "yes", 
		 "theory": "DFT", 
		 "functional": "B3LYP", 
		 "basiset": "6-31G**", 
		 "properties": { 
			 "R2extent": 3417.426, 
			 "electric_dipole_moment_norm": 5.10921557286, 
			 "electric_quadrupole_moment_norm": 24.2248981469, 
			 "total_energy": -954.128563657, 
			 "HOMO_LUMO_gap": 0.19189, 
			 "cosmo_polarized_energy": -22.33, 
			 "cosmo_cavitation_energy": 29.73, 
			 "cosmo_dispersion_energy": -21.83, 
			 "cosmo_repulsion_energy": 1.68, 
			 "cosmo_total_nonelectrostatic_energy": 9.58, 
			 "SMD_solvation_energy": 4.58 
		},
		"coords": [
			{
				"x": -1.6993242679,
				"y": 0.279081932,
				"z": 0.7315699719,
				"element": "C" 
			},
			{
				"x": -0.4871911411,
				"y": 0.2897717357,
				"z": -0.1711869574,
				"element": "C" 
			},
			{
				"x": 0.1734213982,
				"y": -0.8793197464,
				"z": -0.5947621117,
				"element": "C" 
			},
			{
				"x": -0.3280339781,
				"y": -2.2533006354,
				"z": -0.2270594313,
				"element": "C" 
			},
			{
				"x": 0.4151516338,
				"y": -2.8899680454,
				"z": 1.3322542966,
				"element": "S" 
			},
			{
				"x": -0.2668557344,
				"y": -4.5654370958,
				"z": 1.4389940527,
				"element": "C" 
			},
			{
				"x": 1.8678367805,
				"y": -3.0141784658,
				"z": 1.1416967608,
				"element": "O" 
			},
			{
				"x": -0.1304898305,
				"y": -2.1209743522,
				"z": 2.4640299395,
				"element": "O" 
			},
			{
				"x": 1.3291186023,
				"y": -0.8037241168,
				"z": -1.3857051695,
				"element": "C" 
			},
			{
				"x": 1.82516479,
				"y": 0.4344908805,
				"z": -1.7805477371,
				"element": "C" 
			},
			{
				"x": 1.164460385,
				"y": 1.5994811934,
				"z": -1.4068813399,
				"element": "C" 
			},
			{
				"x": 0.0102100818,
				"y": 1.5401971387,
				"z": -0.6117913548,
				"element": "C" 
			},
			{
				"x": -0.613212334,
				"y": 2.7243148051,
				"z": -0.2019775887,
				"element": "N" 
			},
			{
				"x": -1.8122824496,
				"y": -0.661189078,
				"z": 1.2694390511,
				"element": "H" 
			},
			{
				"x": -2.6295494839,
				"y": 0.4771278488,
				"z": 0.1779001069,
				"element": "H" 
			},
			{
				"x": -1.6040291644,
				"y": 1.0587139344,
				"z": 1.4951685337,
				"element": "H" 
			},
			{
				"x": -1.4095322399,
				"y": -2.294517155,
				"z": -0.0808798677,
				"element": "H" 
			},
			{
				"x": -0.0477055352,
				"y": -2.9838353532,
				"z": -0.9907124843,
				"element": "H" 
			},
			{
				"x": -1.3556831246,
				"y": -4.5158968442,
				"z": 1.4912569185,
				"element": "H" 
			},
			{
				"x": 0.064566131,
				"y": -5.1514646263,
				"z": 0.5804556565,
				"element": "H" 
			},
			{
				"x": 0.1331115127,
				"y": -4.9913653575,
				"z": 2.3610183502,
				"element": "H" 
			},
			{
				"x": 1.8365542599,
				"y": -1.7167294975,
				"z": -1.6799233188,
				"element": "H" 
			},
			{
				"x": 2.7212255035,
				"y": 0.4936510317,
				"z": -2.3912127821,
				"element": "H" 
			},
			{
				"x": 1.5403680691,
				"y": 2.5687906828,
				"z": -1.7262763904,
				"element": "H" 
			},
			{
				"x": -1.6140214187,
				"y": 2.671630616,
				"z": -0.0754898194,
				"element": "H" 
			},
			{
				"x": -0.3490784454,
				"y": 3.5410485703,
				"z": -0.7356772855,
				"element": "H" 
			}
		],
		 "valence_orbital": [ 
			{
				"type": "occ",
				"energy": -0.30144,
				"method": "rhf"
			},
			{
				"type": "occ",
				"energy": -0.28757,
				"method": "rhf"
			},
			{
				"type": "occ",
				"energy": -0.28238,
				"method": "rhf"
			},
			{
				"type": "occ",
				"energy": -0.23664,
				"method": "rhf"
			},
			{
				"type": "occ",
				"energy": -0.2016,
				"method": "rhf"
			},
			{
				"type": "unocc",
				"energy": -0.00971,
				"method": "rhf"
			},
			{
				"type": "unocc",
				"energy": 0.01473,
				"method": "rhf"
			},
			{
				"type": "unocc",
				"energy": 0.06272,
				"method": "rhf"
			},
			{
				"type": "unocc",
				"energy": 0.08037,
				"method": "rhf"
			},
			{
				"type": "unocc",
				"energy": 0.08513,
				"method": "rhf"
			}
		],
		"cosmo_sigma_profile": { 
			"-0.025": 0.0,
			"-0.024": 0.0,
			"-0.023": 0.0,
			"-0.022": 0.0,
			"-0.021": 0.0,
			"-0.02": 0.0,
			"-0.019": 0.0,
			"-0.018": 0.0,
			"-0.017": 0.0,
			"-0.016": 0.0,
			"-0.015": 0.0,
			"-0.014": 0.0,
			"-0.013": 0.0771344539034,
			"-0.012": 1.41858272565,
			"-0.011": 3.05522612467,
			"-0.01": 5.38553499687,
			"-0.009": 7.88773744364,
			"-0.008": 12.1722445944,
			"-0.007": 10.5062575254,
			"-0.006": 13.5164813851,
			"-0.005": 15.0979810458,
			"-0.004": 17.7221074522,
			"-0.003": 16.0792156323,
			"-0.002": 11.6123438159,
			"-0.001": 11.889020715,
			"0.0": 10.0729427577,
			"0.001": 6.96361595683,
			"0.002": 7.62480569381,
			"0.003": 8.25996391508,
			"0.004": 8.32214734164,
			"0.005": 10.9946143234,
			"0.006": 10.7989211463,
			"0.007": 7.27189995491,
			"0.008": 5.36399281765,
			"0.009": 4.36704735356,
			"0.01": 5.2205968352,
			"0.011": 8.02469485958,
			"0.012": 10.2942323576,
			"0.013": 3.79964910012,
			"0.014": 0.590781113931,
			"0.015": 0.0590937168491,
			"0.016": 0.0,
			"0.017": 0.0,
			"0.018": 0.0,
			"0.019": 0.0,
			"0.02": 0.0,
			"0.021": 0.0,
			"0.022": 0.0,
			"0.023": 0.0,
			"0.024": 0.0,
			"0.025": 0.0
		}
	}
}
