{
	 "smiles": "ClCC(=O)NOCC1=CC=CC=C1", 
	 "Tm": 366.15, 
	 "num_atms": 23, 
	 "gaussian": { 
		 "optdone": 1, 
		 "sigma_profile": "yes", 
		 "theory": "DFT", 
		 "functional": "B3LYP", 
		 "basiset": "6-31G**", 
		 "properties": { 
			 "R2extent": 5077.5937, 
			 "electric_dipole_moment_norm": 2.33654129003, 
			 "electric_quadrupole_moment_norm": 9.70638029082, 
			 "total_energy": -1014.32200042, 
			 "HOMO_LUMO_gap": 0.23654, 
			 "cosmo_polarized_energy": -12.26, 
			 "cosmo_cavitation_energy": 29.51, 
			 "cosmo_dispersion_energy": -20.83, 
			 "cosmo_repulsion_energy": 1.71, 
			 "cosmo_total_nonelectrostatic_energy": 10.39, 
			 "SMD_solvation_energy": 6.24 
		},
		"coords": [
			{
				"x": -0.4133328323,
				"y": -4.8776818068,
				"z": -0.1421998688,
				"element": "Cl" 
			},
			{
				"x": -2.0153431548,
				"y": -4.0463854159,
				"z": -0.3565086517,
				"element": "C" 
			},
			{
				"x": -2.3898378487,
				"y": -2.9855204737,
				"z": 0.6815985319,
				"element": "C" 
			},
			{
				"x": -3.5199576369,
				"y": -2.5263350126,
				"z": 0.656541738,
				"element": "O" 
			},
			{
				"x": -1.3952332846,
				"y": -2.5641716074,
				"z": 1.50788947,
				"element": "N" 
			},
			{
				"x": -1.7391165633,
				"y": -1.7874950781,
				"z": 2.6095698936,
				"element": "O" 
			},
			{
				"x": -1.7124075083,
				"y": -0.3802471462,
				"z": 2.2784100302,
				"element": "C" 
			},
			{
				"x": -0.3254745943,
				"y": 0.1373515294,
				"z": 1.980660433,
				"element": "C" 
			},
			{
				"x": 0.7313790757,
				"y": -0.1228389137,
				"z": 2.8646844036,
				"element": "C" 
			},
			{
				"x": 2.010188227,
				"y": 0.3649556565,
				"z": 2.6015688683,
				"element": "C" 
			},
			{
				"x": 2.2478512777,
				"y": 1.1260897705,
				"z": 1.4532249126,
				"element": "C" 
			},
			{
				"x": 1.2019679608,
				"y": 1.3903976411,
				"z": 0.568809505,
				"element": "C" 
			},
			{
				"x": -0.0766646483,
				"y": 0.8921439311,
				"z": 0.8300544066,
				"element": "C" 
			},
			{
				"x": -2.7858513464,
				"y": -4.8163306991,
				"z": -0.3339515935,
				"element": "H" 
			},
			{
				"x": -2.0043829167,
				"y": -3.5828729281,
				"z": -1.3437934716,
				"element": "H" 
			},
			{
				"x": -0.54060742,
				"y": -3.0897682386,
				"z": 1.6318719408,
				"element": "H" 
			},
			{
				"x": -2.4023103845,
				"y": -0.1906134852,
				"z": 1.4506342375,
				"element": "H" 
			},
			{
				"x": -2.1252793281,
				"y": 0.0791563756,
				"z": 3.1828881706,
				"element": "H" 
			},
			{
				"x": 0.5453793424,
				"y": -0.7153210495,
				"z": 3.756635604,
				"element": "H" 
			},
			{
				"x": 2.8218104474,
				"y": 0.1561360754,
				"z": 3.2928912202,
				"element": "H" 
			},
			{
				"x": 3.2439339263,
				"y": 1.5086616691,
				"z": 1.2499447901,
				"element": "H" 
			},
			{
				"x": 1.3810011602,
				"y": 1.9767109315,
				"z": -0.3279516466,
				"element": "H" 
			},
			{
				"x": -0.8884119502,
				"y": 1.0913782749,
				"z": 0.1346270761,
				"element": "H" 
			}
		],
		 "valence_orbital": [ 
			{
				"type": "occ",
				"energy": -0.30002,
				"method": "rhf"
			},
			{
				"type": "occ",
				"energy": -0.26749,
				"method": "rhf"
			},
			{
				"type": "occ",
				"energy": -0.26144,
				"method": "rhf"
			},
			{
				"type": "occ",
				"energy": -0.25692,
				"method": "rhf"
			},
			{
				"type": "occ",
				"energy": -0.25188,
				"method": "rhf"
			},
			{
				"type": "unocc",
				"energy": -0.01534,
				"method": "rhf"
			},
			{
				"type": "unocc",
				"energy": -0.00731,
				"method": "rhf"
			},
			{
				"type": "unocc",
				"energy": 0.00391,
				"method": "rhf"
			},
			{
				"type": "unocc",
				"energy": 0.01465,
				"method": "rhf"
			},
			{
				"type": "unocc",
				"energy": 0.07802,
				"method": "rhf"
			}
		],
		"cosmo_sigma_profile": { 
			"-0.025": 0.0,
			"-0.024": 0.0,
			"-0.023": 0.0,
			"-0.022": 0.0,
			"-0.021": 0.0,
			"-0.02": 0.0,
			"-0.019": 0.0,
			"-0.018": 0.0,
			"-0.017": 0.0,
			"-0.016": 0.0,
			"-0.015": 0.0,
			"-0.014": 0.256812169038,
			"-0.013": 0.289442487165,
			"-0.012": 0.847822255034,
			"-0.011": 0.660549744521,
			"-0.01": 1.11629684906,
			"-0.009": 5.11166859932,
			"-0.008": 4.98923746137,
			"-0.007": 5.78777519256,
			"-0.006": 15.5825620791,
			"-0.005": 18.7239199285,
			"-0.004": 19.0505237731,
			"-0.003": 18.765437401,
			"-0.002": 14.3171315637,
			"-0.001": 13.7699334586,
			"0.0": 13.0724136505,
			"0.001": 14.0552616879,
			"0.002": 12.1585956278,
			"0.003": 13.4003362983,
			"0.004": 15.0681126226,
			"0.005": 18.3813931375,
			"0.006": 8.81218964924,
			"0.007": 2.17181941317,
			"0.008": 2.87614683509,
			"0.009": 2.19510850445,
			"0.01": 3.2993047033,
			"0.011": 2.94712773535,
			"0.012": 5.02084440421,
			"0.013": 4.07466160014,
			"0.014": 0.210131511342,
			"0.015": 0.0,
			"0.016": 0.0,
			"0.017": 0.0,
			"0.018": 0.0,
			"0.019": 0.0,
			"0.02": 0.0,
			"0.021": 0.0,
			"0.022": 0.0,
			"0.023": 0.0,
			"0.024": 0.0,
			"0.025": 0.0
		}
	}
}
