{
	 "smiles": "FC1=CC(C#N)=C(Br)C=C1", 
	 "Tm": 363.15, 
	 "num_atms": 13, 
	 "gaussian": { 
		 "optdone": 1, 
		 "sigma_profile": "yes", 
		 "theory": "DFT", 
		 "functional": "B3LYP", 
		 "basiset": "6-31G**", 
		 "properties": { 
			 "R2extent": 2358.2105, 
			 "electric_dipole_moment_norm": 4.18954350377, 
			 "electric_quadrupole_moment_norm": 8.19588913785, 
			 "total_energy": -2994.51767446, 
			 "HOMO_LUMO_gap": 0.18994, 
			 "cosmo_polarized_energy": -8.45, 
			 "cosmo_cavitation_energy": 21.66, 
			 "cosmo_dispersion_energy": -15.64, 
			 "cosmo_repulsion_energy": 1.24, 
			 "cosmo_total_nonelectrostatic_energy": 7.26, 
			 "SMD_solvation_energy": 4.5 
		},
		"coords": [
			{
				"x": -1.0355020875,
				"y": 2.9907076027,
				"z": 0.6094997876,
				"element": "F" 
			},
			{
				"x": -0.7056758422,
				"y": 1.6976154532,
				"z": 0.4527966184,
				"element": "C" 
			},
			{
				"x": -1.1128815799,
				"y": 1.0360204165,
				"z": -0.695301085,
				"element": "C" 
			},
			{
				"x": -0.7703447548,
				"y": -0.3168246662,
				"z": -0.8639405879,
				"element": "C" 
			},
			{
				"x": -1.1971030896,
				"y": -0.9893870303,
				"z": -2.0547220429,
				"element": "C" 
			},
			{
				"x": -1.5628993253,
				"y": -1.497178356,
				"z": -3.0345704624,
				"element": "N" 
			},
			{
				"x": -0.0226802577,
				"y": -0.9700604053,
				"z": 0.1342566652,
				"element": "C" 
			},
			{
				"x": 0.4575149351,
				"y": -2.7960017618,
				"z": -0.0601278014,
				"element": "Br" 
			},
			{
				"x": 0.3736482204,
				"y": -0.280021473,
				"z": 1.2791195459,
				"element": "C" 
			},
			{
				"x": 0.033469178,
				"y": 1.061104427,
				"z": 1.4451688263,
				"element": "C" 
			},
			{
				"x": -1.6877205205,
				"y": 1.5582068395,
				"z": -1.4508306089,
				"element": "H" 
			},
			{
				"x": 0.9487517423,
				"y": -0.7941317786,
				"z": 2.0400399999,
				"element": "H" 
			},
			{
				"x": 0.3336233818,
				"y": 1.6124507322,
				"z": 2.3293111452,
				"element": "H" 
			}
		],
		 "valence_orbital": [ 
			{
				"type": "occ",
				"energy": -0.34482,
				"method": "rhf"
			},
			{
				"type": "occ",
				"energy": -0.33065,
				"method": "rhf"
			},
			{
				"type": "occ",
				"energy": -0.30518,
				"method": "rhf"
			},
			{
				"type": "occ",
				"energy": -0.2893,
				"method": "rhf"
			},
			{
				"type": "occ",
				"energy": -0.26161,
				"method": "rhf"
			},
			{
				"type": "unocc",
				"energy": -0.07167,
				"method": "rhf"
			},
			{
				"type": "unocc",
				"energy": -0.03853,
				"method": "rhf"
			},
			{
				"type": "unocc",
				"energy": -0.01459,
				"method": "rhf"
			},
			{
				"type": "unocc",
				"energy": 0.02451,
				"method": "rhf"
			},
			{
				"type": "unocc",
				"energy": 0.06551,
				"method": "rhf"
			}
		],
		"cosmo_sigma_profile": { 
			"-0.025": 0.0,
			"-0.024": 0.0,
			"-0.023": 0.0,
			"-0.022": 0.0,
			"-0.021": 0.0,
			"-0.02": 0.0,
			"-0.019": 0.0,
			"-0.018": 0.0,
			"-0.017": 0.0,
			"-0.016": 0.0,
			"-0.015": 0.0,
			"-0.014": 0.0,
			"-0.013": 0.0,
			"-0.012": 0.0,
			"-0.011": 0.0,
			"-0.01": 1.26611905153,
			"-0.009": 4.79723175635,
			"-0.008": 6.41298906332,
			"-0.007": 5.70281350363,
			"-0.006": 5.05123834086,
			"-0.005": 6.44445801523,
			"-0.004": 6.81431331299,
			"-0.003": 10.403529964,
			"-0.002": 18.4370412759,
			"-0.001": 23.1162072712,
			"0.0": 16.4181027971,
			"0.001": 10.7251293719,
			"0.002": 11.3825758833,
			"0.003": 20.1559698637,
			"0.004": 8.98690889068,
			"0.005": 3.56364136572,
			"0.006": 2.42104539061,
			"0.007": 2.96714912934,
			"0.008": 3.72003161659,
			"0.009": 3.07334645927,
			"0.01": 2.88942055874,
			"0.011": 2.55624197073,
			"0.012": 1.9843350844,
			"0.013": 0.330597155942,
			"0.014": 0.0,
			"0.015": 0.0,
			"0.016": 0.0,
			"0.017": 0.0,
			"0.018": 0.0,
			"0.019": 0.0,
			"0.02": 0.0,
			"0.021": 0.0,
			"0.022": 0.0,
			"0.023": 0.0,
			"0.024": 0.0,
			"0.025": 0.0
		}
	}
}
