{
	 "smiles": "OCC1OC(C(O)C1O)N1C=C(F)C(=O)NC1=O", 
	 "Tm": 455.15, 
	 "num_atms": 29, 
	 "gaussian": { 
		 "optdone": 1, 
		 "sigma_profile": "yes", 
		 "theory": "DFT", 
		 "functional": "B3LYP", 
		 "basiset": "6-31G**", 
		 "properties": { 
			 "R2extent": 4988.7672, 
			 "electric_dipole_moment_norm": 4.34524796761, 
			 "electric_quadrupole_moment_norm": 11.6490246055, 
			 "total_energy": -1010.24517818, 
			 "HOMO_LUMO_gap": 0.19406, 
			 "cosmo_polarized_energy": -26.45, 
			 "cosmo_cavitation_energy": 32.85, 
			 "cosmo_dispersion_energy": -23.47, 
			 "cosmo_repulsion_energy": 1.79, 
			 "cosmo_total_nonelectrostatic_energy": 11.17, 
			 "SMD_solvation_energy": 7.51 
		},
		"coords": [
			{
				"x": 0.3977880216,
				"y": 1.5339541434,
				"z": 2.641672823,
				"element": "O" 
			},
			{
				"x": 1.2342777569,
				"y": 2.0378757647,
				"z": 1.6218881149,
				"element": "C" 
			},
			{
				"x": 1.7589760576,
				"y": 0.9871621338,
				"z": 0.6442974701,
				"element": "C" 
			},
			{
				"x": 0.7368712651,
				"y": 0.7078917588,
				"z": -0.3439629007,
				"element": "O" 
			},
			{
				"x": 0.6320398641,
				"y": -0.6871653068,
				"z": -0.5305867331,
				"element": "C" 
			},
			{
				"x": 0.9793116149,
				"y": -1.2928848755,
				"z": 0.8450514914,
				"element": "C" 
			},
			{
				"x": -0.0849568585,
				"y": -1.1161824798,
				"z": 1.7735456899,
				"element": "O" 
			},
			{
				"x": 2.1350506627,
				"y": -0.3830413992,
				"z": 1.276489086,
				"element": "C" 
			},
			{
				"x": 3.3060356404,
				"y": -0.9423655198,
				"z": 0.7000956376,
				"element": "O" 
			},
			{
				"x": -0.7255947995,
				"y": -0.9910319821,
				"z": -1.0018815668,
				"element": "N" 
			},
			{
				"x": -1.7892870519,
				"y": -0.1453909392,
				"z": -0.7264385891,
				"element": "C" 
			},
			{
				"x": -3.0312369006,
				"y": -0.4046670462,
				"z": -1.1791942937,
				"element": "C" 
			},
			{
				"x": -4.0506769046,
				"y": 0.42108006,
				"z": -0.9095875731,
				"element": "F" 
			},
			{
				"x": -3.3282149853,
				"y": -1.5812164189,
				"z": -1.9920666271,
				"element": "C" 
			},
			{
				"x": -4.4126468261,
				"y": -1.8953312775,
				"z": -2.4452409716,
				"element": "O" 
			},
			{
				"x": -2.176105916,
				"y": -2.3609424898,
				"z": -2.2118010231,
				"element": "N" 
			},
			{
				"x": -0.88070117,
				"y": -2.1526501822,
				"z": -1.763481936,
				"element": "C" 
			},
			{
				"x": 0.0391069289,
				"y": -2.9209604751,
				"z": -1.9953127205,
				"element": "O" 
			},
			{
				"x": -0.0956827805,
				"y": 0.7686245643,
				"z": 2.3050094489,
				"element": "H" 
			},
			{
				"x": 0.7338917213,
				"y": 2.8202932526,
				"z": 1.0286412066,
				"element": "H" 
			},
			{
				"x": 2.0935349395,
				"y": 2.5089730522,
				"z": 2.1163969267,
				"element": "H" 
			},
			{
				"x": 2.633500311,
				"y": 1.3901590107,
				"z": 0.1148147597,
				"element": "H" 
			},
			{
				"x": 1.3258988494,
				"y": -1.0632139504,
				"z": -1.2889743826,
				"element": "H" 
			},
			{
				"x": 1.2938020887,
				"y": -2.337955167,
				"z": 0.7756020408,
				"element": "H" 
			},
			{
				"x": -0.8247341812,
				"y": -1.6797429161,
				"z": 1.5116949339,
				"element": "H" 
			},
			{
				"x": 2.1926121968,
				"y": -0.321659298,
				"z": 2.3691155834,
				"element": "H" 
			},
			{
				"x": 4.0609286846,
				"y": -0.3909417081,
				"z": 0.9415145617,
				"element": "H" 
			},
			{
				"x": -1.5521063992,
				"y": 0.7400632534,
				"z": -0.1542489808,
				"element": "H" 
			},
			{
				"x": -2.3077818299,
				"y": -3.198333562,
				"z": -2.7672514765,
				"element": "H" 
			}
		],
		 "valence_orbital": [ 
			{
				"type": "occ",
				"energy": -0.29903,
				"method": "rhf"
			},
			{
				"type": "occ",
				"energy": -0.29153,
				"method": "rhf"
			},
			{
				"type": "occ",
				"energy": -0.27694,
				"method": "rhf"
			},
			{
				"type": "occ",
				"energy": -0.26658,
				"method": "rhf"
			},
			{
				"type": "occ",
				"energy": -0.24509,
				"method": "rhf"
			},
			{
				"type": "unocc",
				"energy": -0.05103,
				"method": "rhf"
			},
			{
				"type": "unocc",
				"energy": -0.00196,
				"method": "rhf"
			},
			{
				"type": "unocc",
				"energy": 0.02689,
				"method": "rhf"
			},
			{
				"type": "unocc",
				"energy": 0.05927,
				"method": "rhf"
			},
			{
				"type": "unocc",
				"energy": 0.07154,
				"method": "rhf"
			}
		],
		"cosmo_sigma_profile": { 
			"-0.025": 0.0,
			"-0.024": 0.0,
			"-0.023": 0.0,
			"-0.022": 0.0,
			"-0.021": 0.0,
			"-0.02": 0.0,
			"-0.019": 0.0,
			"-0.018": 0.0,
			"-0.017": 1.41944399386,
			"-0.016": 3.27111508532,
			"-0.015": 3.47405489884,
			"-0.014": 2.73332139569,
			"-0.013": 2.86297379311,
			"-0.012": 3.34802753841,
			"-0.011": 3.0961001935,
			"-0.01": 3.7017365192,
			"-0.009": 3.87668886469,
			"-0.008": 5.02300825165,
			"-0.007": 8.85793206507,
			"-0.006": 12.7956809288,
			"-0.005": 15.8405319705,
			"-0.004": 16.6348827009,
			"-0.003": 17.3684898332,
			"-0.002": 16.9502896053,
			"-0.001": 14.3082529168,
			"0.0": 10.02985529,
			"0.001": 9.42794205416,
			"0.002": 8.76303559113,
			"0.003": 13.9816985754,
			"0.004": 11.5887708316,
			"0.005": 7.16515191391,
			"0.006": 6.62780158704,
			"0.007": 6.31750877344,
			"0.008": 6.39918400006,
			"0.009": 6.11553527613,
			"0.01": 8.01416451707,
			"0.011": 9.17845001119,
			"0.012": 12.7796128757,
			"0.013": 3.82135479309,
			"0.014": 1.88724829019,
			"0.015": 1.24771474705,
			"0.016": 0.0,
			"0.017": 0.0,
			"0.018": 0.0,
			"0.019": 0.0,
			"0.02": 0.0,
			"0.021": 0.0,
			"0.022": 0.0,
			"0.023": 0.0,
			"0.024": 0.0,
			"0.025": 0.0
		}
	}
}
