{
	 "smiles": "COC1=CC=C(C=C[N+]([O-])=O)C=C1", 
	 "Tm": 351.65, 
	 "num_atms": 22, 
	 "gaussian": { 
		 "optdone": 1, 
		 "sigma_profile": "yes", 
		 "theory": "DFT", 
		 "functional": "B3LYP", 
		 "basiset": "6-31G**", 
		 "properties": { 
			 "R2extent": 5078.7733, 
			 "electric_dipole_moment_norm": 7.56333187028, 
			 "electric_quadrupole_moment_norm": 26.8397369292, 
			 "total_energy": -628.678376946, 
			 "HOMO_LUMO_gap": 0.14401, 
			 "cosmo_polarized_energy": -13.15, 
			 "cosmo_cavitation_energy": 27.51, 
			 "cosmo_dispersion_energy": -20.05, 
			 "cosmo_repulsion_energy": 1.58, 
			 "cosmo_total_nonelectrostatic_energy": 9.04, 
			 "SMD_solvation_energy": 8.28 
		},
		"coords": [
			{
				"x": -0.7547386697,
				"y": -1.989800029,
				"z": 2.3431077387,
				"element": "C" 
			},
			{
				"x": -1.2526087292,
				"y": -0.8794686265,
				"z": 1.6059108002,
				"element": "O" 
			},
			{
				"x": -0.4221625661,
				"y": -0.2509852566,
				"z": 0.7377515944,
				"element": "C" 
			},
			{
				"x": -0.9819226666,
				"y": 0.8388622835,
				"z": 0.0425971412,
				"element": "C" 
			},
			{
				"x": -0.2228790238,
				"y": 1.5500780601,
				"z": -0.866625367,
				"element": "C" 
			},
			{
				"x": 1.1244997551,
				"y": 1.2054183445,
				"z": -1.1209937715,
				"element": "C" 
			},
			{
				"x": 1.9709317799,
				"y": 1.9157807316,
				"z": -2.0651372818,
				"element": "C" 
			},
			{
				"x": 1.6355808776,
				"y": 2.9723612081,
				"z": -2.8238113294,
				"element": "C" 
			},
			{
				"x": 2.6028661497,
				"y": 3.5687157207,
				"z": -3.720194615,
				"element": "N" 
			},
			{
				"x": 3.7425543628,
				"y": 3.0984080158,
				"z": -3.7837880517,
				"element": "O" 
			},
			{
				"x": 2.2029681074,
				"y": 4.5360585089,
				"z": -4.3767331491,
				"element": "O" 
			},
			{
				"x": 1.6633333636,
				"y": 0.1154852196,
				"z": -0.4170689595,
				"element": "C" 
			},
			{
				"x": 0.9112878978,
				"y": -0.6115735737,
				"z": 0.5026434036,
				"element": "C" 
			},
			{
				"x": -0.4420438206,
				"y": -2.804625413,
				"z": 1.6788683125,
				"element": "H" 
			},
			{
				"x": 0.0869810747,
				"y": -1.7008504019,
				"z": 2.9841577188,
				"element": "H" 
			},
			{
				"x": -1.5824839905,
				"y": -2.3298898635,
				"z": 2.9661942485,
				"element": "H" 
			},
			{
				"x": -2.0160800306,
				"y": 1.0993767409,
				"z": 0.2411682918,
				"element": "H" 
			},
			{
				"x": -0.6774618456,
				"y": 2.3857174965,
				"z": -1.3893895835,
				"element": "H" 
			},
			{
				"x": 2.9924030166,
				"y": 1.5596616952,
				"z": -2.1772477569,
				"element": "H" 
			},
			{
				"x": 0.6825263871,
				"y": 3.4793135032,
				"z": -2.867139435,
				"element": "H" 
			},
			{
				"x": 2.6968737067,
				"y": -0.169165458,
				"z": -0.5949575449,
				"element": "H" 
			},
			{
				"x": 1.3659748637,
				"y": -1.4451789065,
				"z": 1.0236875956,
				"element": "H" 
			}
		],
		 "valence_orbital": [ 
			{
				"type": "occ",
				"energy": -0.29243,
				"method": "rhf"
			},
			{
				"type": "occ",
				"energy": -0.2924,
				"method": "rhf"
			},
			{
				"type": "occ",
				"energy": -0.27566,
				"method": "rhf"
			},
			{
				"type": "occ",
				"energy": -0.27443,
				"method": "rhf"
			},
			{
				"type": "occ",
				"energy": -0.23183,
				"method": "rhf"
			},
			{
				"type": "unocc",
				"energy": -0.08782,
				"method": "rhf"
			},
			{
				"type": "unocc",
				"energy": -0.02374,
				"method": "rhf"
			},
			{
				"type": "unocc",
				"energy": -0.01296,
				"method": "rhf"
			},
			{
				"type": "unocc",
				"energy": 0.05554,
				"method": "rhf"
			},
			{
				"type": "unocc",
				"energy": 0.07295,
				"method": "rhf"
			}
		],
		"cosmo_sigma_profile": { 
			"-0.025": 0.0,
			"-0.024": 0.0,
			"-0.023": 0.0,
			"-0.022": 0.0,
			"-0.021": 0.0,
			"-0.02": 0.0,
			"-0.019": 0.0,
			"-0.018": 0.0,
			"-0.017": 0.0,
			"-0.016": 0.0,
			"-0.015": 0.0,
			"-0.014": 0.0,
			"-0.013": 0.0,
			"-0.012": 0.0,
			"-0.011": 0.10374768014,
			"-0.01": 1.47570069105,
			"-0.009": 2.60113581142,
			"-0.008": 4.23690778126,
			"-0.007": 9.5224762898,
			"-0.006": 17.2238177409,
			"-0.005": 16.5027481299,
			"-0.004": 16.8020209557,
			"-0.003": 14.6151815685,
			"-0.002": 12.8378958579,
			"-0.001": 12.2420837428,
			"0.0": 13.6611656463,
			"0.001": 16.7323710387,
			"0.002": 15.4334742111,
			"0.003": 16.8014623281,
			"0.004": 7.42930832902,
			"0.005": 4.29004589252,
			"0.006": 3.57505247795,
			"0.007": 4.18807478966,
			"0.008": 9.22230941816,
			"0.009": 11.3993263761,
			"0.01": 5.46698297568,
			"0.011": 3.26503110583,
			"0.012": 0.381753815322,
			"0.013": 0.0,
			"0.014": 0.0,
			"0.015": 0.0,
			"0.016": 0.0,
			"0.017": 0.0,
			"0.018": 0.0,
			"0.019": 0.0,
			"0.02": 0.0,
			"0.021": 0.0,
			"0.022": 0.0,
			"0.023": 0.0,
			"0.024": 0.0,
			"0.025": 0.0
		}
	}
}
