{
	 "smiles": "FC1=CC=C(Cl)C=C1", 
	 "Tm": 248.75, 
	 "num_atms": 12, 
	 "gaussian": { 
		 "optdone": 1, 
		 "sigma_profile": "yes", 
		 "theory": "DFT", 
		 "functional": "B3LYP", 
		 "basiset": "6-31G**", 
		 "properties": { 
			 "R2extent": 1569.9989, 
			 "electric_dipole_moment_norm": 0.545970063282, 
			 "electric_quadrupole_moment_norm": 7.08851076884, 
			 "total_energy": -791.074308335, 
			 "HOMO_LUMO_gap": 0.21964, 
			 "cosmo_polarized_energy": -3.59, 
			 "cosmo_cavitation_energy": 18.48, 
			 "cosmo_dispersion_energy": -13.86, 
			 "cosmo_repulsion_energy": 1.13, 
			 "cosmo_total_nonelectrostatic_energy": 5.74, 
			 "SMD_solvation_energy": 3.5 
		},
		"coords": [
			{
				"x": -1.9836589964,
				"y": 2.4573360752,
				"z": -0.5600883114,
				"element": "F" 
			},
			{
				"x": -1.2159693066,
				"y": 1.5958943636,
				"z": 0.1370794033,
				"element": "C" 
			},
			{
				"x": -0.8520825498,
				"y": 0.3892485724,
				"z": -0.4503057315,
				"element": "C" 
			},
			{
				"x": -0.0577256974,
				"y": -0.5016082948,
				"z": 0.2716088393,
				"element": "C" 
			},
			{
				"x": 0.3530353817,
				"y": -0.1646695678,
				"z": 1.5619079602,
				"element": "C" 
			},
			{
				"x": 1.354140475,
				"y": -1.2880846923,
				"z": 2.47109677,
				"element": "Cl" 
			},
			{
				"x": -0.0173451819,
				"y": 1.0487707264,
				"z": 2.1428470802,
				"element": "C" 
			},
			{
				"x": -0.8116707875,
				"y": 1.940568975,
				"z": 1.4220603465,
				"element": "C" 
			},
			{
				"x": -1.1879513116,
				"y": 0.1575081239,
				"z": -1.4549962035,
				"element": "H" 
			},
			{
				"x": 0.2398443288,
				"y": -1.4490232664,
				"z": -0.1634731591,
				"element": "H" 
			},
			{
				"x": 0.3112866841,
				"y": 1.2934933233,
				"z": 3.1466148537,
				"element": "H" 
			},
			{
				"x": -1.1167030384,
				"y": 2.8914656616,
				"z": 1.8447481524,
				"element": "H" 
			}
		],
		 "valence_orbital": [ 
			{
				"type": "occ",
				"energy": -0.36106,
				"method": "rhf"
			},
			{
				"type": "occ",
				"energy": -0.33084,
				"method": "rhf"
			},
			{
				"type": "occ",
				"energy": -0.317,
				"method": "rhf"
			},
			{
				"type": "occ",
				"energy": -0.27508,
				"method": "rhf"
			},
			{
				"type": "occ",
				"energy": -0.24477,
				"method": "rhf"
			},
			{
				"type": "unocc",
				"energy": -0.02513,
				"method": "rhf"
			},
			{
				"type": "unocc",
				"energy": -0.0121,
				"method": "rhf"
			},
			{
				"type": "unocc",
				"energy": 0.02412,
				"method": "rhf"
			},
			{
				"type": "unocc",
				"energy": 0.0969,
				"method": "rhf"
			},
			{
				"type": "unocc",
				"energy": 0.12861,
				"method": "rhf"
			}
		],
		"cosmo_sigma_profile": { 
			"-0.025": 0.0,
			"-0.024": 0.0,
			"-0.023": 0.0,
			"-0.022": 0.0,
			"-0.021": 0.0,
			"-0.02": 0.0,
			"-0.019": 0.0,
			"-0.018": 0.0,
			"-0.017": 0.0,
			"-0.016": 0.0,
			"-0.015": 0.0,
			"-0.014": 0.0,
			"-0.013": 0.0,
			"-0.012": 0.0,
			"-0.011": 0.0,
			"-0.01": 0.0,
			"-0.009": 3.90863845325e-06,
			"-0.008": 4.15100490745,
			"-0.007": 7.31245629704,
			"-0.006": 7.84518907785,
			"-0.005": 7.05674577049,
			"-0.004": 5.43266288206,
			"-0.003": 5.96962746243,
			"-0.002": 7.46956007388,
			"-0.001": 8.83986525317,
			"0.0": 14.2348856565,
			"0.001": 17.2416305059,
			"0.002": 21.161762693,
			"0.003": 17.5327064025,
			"0.004": 18.6809428394,
			"0.005": 8.30894971841,
			"0.006": 0.0577583211882,
			"0.007": 0.0,
			"0.008": 0.0,
			"0.009": 0.0,
			"0.01": 0.0,
			"0.011": 0.0,
			"0.012": 0.0,
			"0.013": 0.0,
			"0.014": 0.0,
			"0.015": 0.0,
			"0.016": 0.0,
			"0.017": 0.0,
			"0.018": 0.0,
			"0.019": 0.0,
			"0.02": 0.0,
			"0.021": 0.0,
			"0.022": 0.0,
			"0.023": 0.0,
			"0.024": 0.0,
			"0.025": 0.0
		}
	}
}
