{
	 "smiles": "CC(O)CC1=NC2=C(S1)C=CC=C2", 
	 "Tm": 358.15, 
	 "num_atms": 24, 
	 "gaussian": { 
		 "optdone": 1, 
		 "sigma_profile": "yes", 
		 "theory": "DFT", 
		 "functional": "B3LYP", 
		 "basiset": "6-31G**", 
		 "properties": { 
			 "R2extent": 3741.1708, 
			 "electric_dipole_moment_norm": 2.72801072395, 
			 "electric_quadrupole_moment_norm": 9.18602442953, 
			 "total_energy": -915.871301507, 
			 "HOMO_LUMO_gap": 0.19994, 
			 "cosmo_polarized_energy": -8.22, 
			 "cosmo_cavitation_energy": 28.41, 
			 "cosmo_dispersion_energy": -21.31, 
			 "cosmo_repulsion_energy": 1.65, 
			 "cosmo_total_nonelectrostatic_energy": 8.75, 
			 "SMD_solvation_energy": 3.11 
		},
		"coords": [
			{
				"x": -0.4411075499,
				"y": 0.5163431369,
				"z": 3.4358048928,
				"element": "C" 
			},
			{
				"x": -0.454339197,
				"y": -0.9791142516,
				"z": 3.0992921891,
				"element": "C" 
			},
			{
				"x": -1.4687420233,
				"y": -1.3037075783,
				"z": 2.166038549,
				"element": "O" 
			},
			{
				"x": 0.9263937798,
				"y": -1.5064697997,
				"z": 2.6306002049,
				"element": "C" 
			},
			{
				"x": 1.40027458,
				"y": -0.8812133091,
				"z": 1.3478884053,
				"element": "C" 
			},
			{
				"x": 0.6196622202,
				"y": -0.5973276923,
				"z": 0.3505481137,
				"element": "N" 
			},
			{
				"x": 1.3176372317,
				"y": -0.048398513,
				"z": -0.7159952472,
				"element": "C" 
			},
			{
				"x": 2.7120879311,
				"y": 0.0859492422,
				"z": -0.5124169675,
				"element": "C" 
			},
			{
				"x": 3.1168254199,
				"y": -0.5009760695,
				"z": 1.0888484622,
				"element": "S" 
			},
			{
				"x": 3.5430783259,
				"y": 0.6205033774,
				"z": -1.5000825257,
				"element": "C" 
			},
			{
				"x": 2.960877215,
				"y": 1.0213762125,
				"z": -2.6999370178,
				"element": "C" 
			},
			{
				"x": 1.5772981172,
				"y": 0.8926331097,
				"z": -2.912962811,
				"element": "C" 
			},
			{
				"x": 0.7502229386,
				"y": 0.3609711516,
				"z": -1.9309300665,
				"element": "C" 
			},
			{
				"x": 0.2834703011,
				"y": 0.7439639402,
				"z": 4.2261258679,
				"element": "H" 
			},
			{
				"x": -1.4339948109,
				"y": 0.8190806292,
				"z": 3.7789384262,
				"element": "H" 
			},
			{
				"x": -0.1896606716,
				"y": 1.117375483,
				"z": 2.5561521214,
				"element": "H" 
			},
			{
				"x": -0.704012521,
				"y": -1.5365786093,
				"z": 4.0111017217,
				"element": "H" 
			},
			{
				"x": -1.1591207542,
				"y": -0.977345147,
				"z": 1.30274782,
				"element": "H" 
			},
			{
				"x": 0.8366833788,
				"y": -2.5887041159,
				"z": 2.4714858898,
				"element": "H" 
			},
			{
				"x": 1.6749906394,
				"y": -1.3571991082,
				"z": 3.4161309769,
				"element": "H" 
			},
			{
				"x": 4.6115972339,
				"y": 0.7222114794,
				"z": -1.3400913298,
				"element": "H" 
			},
			{
				"x": 3.5874917925,
				"y": 1.4396567725,
				"z": -3.4818567254,
				"element": "H" 
			},
			{
				"x": 1.1505090592,
				"y": 1.2129035454,
				"z": -3.8585004397,
				"element": "H" 
			},
			{
				"x": -0.3189226366,
				"y": 0.254466114,
				"z": -2.0822305101,
				"element": "H" 
			}
		],
		 "valence_orbital": [ 
			{
				"type": "occ",
				"energy": -0.30964,
				"method": "rhf"
			},
			{
				"type": "occ",
				"energy": -0.27781,
				"method": "rhf"
			},
			{
				"type": "occ",
				"energy": -0.25481,
				"method": "rhf"
			},
			{
				"type": "occ",
				"energy": -0.2431,
				"method": "rhf"
			},
			{
				"type": "occ",
				"energy": -0.2409,
				"method": "rhf"
			},
			{
				"type": "unocc",
				"energy": -0.04096,
				"method": "rhf"
			},
			{
				"type": "unocc",
				"energy": -0.01204,
				"method": "rhf"
			},
			{
				"type": "unocc",
				"energy": 0.00163,
				"method": "rhf"
			},
			{
				"type": "unocc",
				"energy": 0.02469,
				"method": "rhf"
			},
			{
				"type": "unocc",
				"energy": 0.08581,
				"method": "rhf"
			}
		],
		"cosmo_sigma_profile": { 
			"-0.025": 0.0,
			"-0.024": 0.0,
			"-0.023": 0.0,
			"-0.022": 0.0,
			"-0.021": 0.0,
			"-0.02": 0.0,
			"-0.019": 0.0,
			"-0.018": 0.0,
			"-0.017": 0.0,
			"-0.016": 0.0,
			"-0.015": 0.0,
			"-0.014": 0.0,
			"-0.013": 0.0,
			"-0.012": 0.0,
			"-0.011": 0.0,
			"-0.01": 0.0,
			"-0.009": 0.0,
			"-0.008": 0.248846686332,
			"-0.007": 4.23352210054,
			"-0.006": 12.5821432376,
			"-0.005": 14.7094675809,
			"-0.004": 21.9026015033,
			"-0.003": 20.0046886279,
			"-0.002": 16.7868733214,
			"-0.001": 20.6427417529,
			"0.0": 18.5781568725,
			"0.001": 21.5624042497,
			"0.002": 19.0642790946,
			"0.003": 18.6301315814,
			"0.004": 15.7011126759,
			"0.005": 7.68143059187,
			"0.006": 2.22405556227,
			"0.007": 1.47246342761,
			"0.008": 1.57579603015,
			"0.009": 1.00802500361,
			"0.01": 1.19435325376,
			"0.011": 1.03607289659,
			"0.012": 1.21430432415,
			"0.013": 1.85406558879,
			"0.014": 1.5100274941,
			"0.015": 2.27273453713,
			"0.016": 0.105058617032,
			"0.017": 0.0,
			"0.018": 0.0,
			"0.019": 0.0,
			"0.02": 0.0,
			"0.021": 0.0,
			"0.022": 0.0,
			"0.023": 0.0,
			"0.024": 0.0,
			"0.025": 0.0
		}
	}
}
