{
	 "smiles": "CC(=O)N1CCC(N)CC1", 
	 "Tm": 293.15, 
	 "num_atms": 24, 
	 "gaussian": { 
		 "optdone": 1, 
		 "sigma_profile": "yes", 
		 "theory": "DFT", 
		 "functional": "B3LYP", 
		 "basiset": "6-31G**", 
		 "properties": { 
			 "R2extent": 1911.3628, 
			 "electric_dipole_moment_norm": 4.19218284668, 
			 "electric_quadrupole_moment_norm": 6.20000045161, 
			 "total_energy": -459.929765341, 
			 "HOMO_LUMO_gap": 0.26204, 
			 "cosmo_polarized_energy": -13.62, 
			 "cosmo_cavitation_energy": 25.01, 
			 "cosmo_dispersion_energy": -18.39, 
			 "cosmo_repulsion_energy": 1.5, 
			 "cosmo_total_nonelectrostatic_energy": 8.12, 
			 "SMD_solvation_energy": 3.09 
		},
		"coords": [
			{
				"x": -1.4788423809,
				"y": 0.1383287532,
				"z": 1.9208431193,
				"element": "C" 
			},
			{
				"x": -1.2401055143,
				"y": 0.1249575239,
				"z": 0.4147413887,
				"element": "C" 
			},
			{
				"x": -2.1253013747,
				"y": -0.2408557258,
				"z": -0.3528603294,
				"element": "O" 
			},
			{
				"x": -0.0058215795,
				"y": 0.5330153583,
				"z": -0.039520724,
				"element": "N" 
			},
			{
				"x": 0.2630039294,
				"y": 0.5448070001,
				"z": -1.4784666206,
				"element": "C" 
			},
			{
				"x": 1.5156758957,
				"y": -0.2735359119,
				"z": -1.8145132941,
				"element": "C" 
			},
			{
				"x": 2.7304829064,
				"y": 0.1863163747,
				"z": -0.9974216502,
				"element": "C" 
			},
			{
				"x": 3.9025388604,
				"y": -0.6158878438,
				"z": -1.3572239366,
				"element": "N" 
			},
			{
				"x": 2.3757616224,
				"y": 0.1858195912,
				"z": 0.5040595052,
				"element": "C" 
			},
			{
				"x": 1.101439073,
				"y": 0.998044797,
				"z": 0.7886514075,
				"element": "C" 
			},
			{
				"x": -0.7825006774,
				"y": -0.5173634659,
				"z": 2.4540637901,
				"element": "H" 
			},
			{
				"x": -2.4952441491,
				"y": -0.2173706106,
				"z": 2.0861897308,
				"element": "H" 
			},
			{
				"x": -1.3818155959,
				"y": 1.1444210436,
				"z": 2.3420891517,
				"element": "H" 
			},
			{
				"x": -0.6233569273,
				"y": 0.1512084264,
				"z": -1.9750436175,
				"element": "H" 
			},
			{
				"x": 0.4034526079,
				"y": 1.5866660868,
				"z": -1.8060366782,
				"element": "H" 
			},
			{
				"x": 1.3173545953,
				"y": -1.3334023519,
				"z": -1.6016160263,
				"element": "H" 
			},
			{
				"x": 1.7429028954,
				"y": -0.1946168975,
				"z": -2.8827061992,
				"element": "H" 
			},
			{
				"x": 2.9572023389,
				"y": 1.2237605704,
				"z": -1.2878352071,
				"element": "H" 
			},
			{
				"x": 3.746002018,
				"y": -1.5864814881,
				"z": -1.0890874833,
				"element": "H" 
			},
			{
				"x": 4.7147325478,
				"y": -0.3040184567,
				"z": -0.8283949728,
				"element": "H" 
			},
			{
				"x": 3.2085664634,
				"y": 0.5960496753,
				"z": 1.0900842646,
				"element": "H" 
			},
			{
				"x": 2.222239615,
				"y": -0.8507622497,
				"z": 0.8349935492,
				"element": "H" 
			},
			{
				"x": 0.8337418209,
				"y": 0.9328363069,
				"z": 1.8428190585,
				"element": "H" 
			},
			{
				"x": 1.292991009,
				"y": 2.0612634942,
				"z": 0.5707917734,
				"element": "H" 
			}
		],
		 "valence_orbital": [ 
			{
				"type": "occ",
				"energy": -0.3371,
				"method": "rhf"
			},
			{
				"type": "occ",
				"energy": -0.32445,
				"method": "rhf"
			},
			{
				"type": "occ",
				"energy": -0.24152,
				"method": "rhf"
			},
			{
				"type": "occ",
				"energy": -0.238,
				"method": "rhf"
			},
			{
				"type": "occ",
				"energy": -0.23012,
				"method": "rhf"
			},
			{
				"type": "unocc",
				"energy": 0.03192,
				"method": "rhf"
			},
			{
				"type": "unocc",
				"energy": 0.07902,
				"method": "rhf"
			},
			{
				"type": "unocc",
				"energy": 0.08476,
				"method": "rhf"
			},
			{
				"type": "unocc",
				"energy": 0.09927,
				"method": "rhf"
			},
			{
				"type": "unocc",
				"energy": 0.12313,
				"method": "rhf"
			}
		],
		"cosmo_sigma_profile": { 
			"-0.025": 0.0,
			"-0.024": 0.0,
			"-0.023": 0.0,
			"-0.022": 0.0,
			"-0.021": 0.0,
			"-0.02": 0.0,
			"-0.019": 0.0,
			"-0.018": 0.0,
			"-0.017": 0.0,
			"-0.016": 0.0,
			"-0.015": 0.0,
			"-0.014": 0.0,
			"-0.013": 0.0,
			"-0.012": 0.0,
			"-0.011": 0.0,
			"-0.01": 0.210854819582,
			"-0.009": 2.21411573075,
			"-0.008": 2.69418124072,
			"-0.007": 2.70521149803,
			"-0.006": 7.38794981573,
			"-0.005": 12.1729363928,
			"-0.004": 19.47846012,
			"-0.003": 29.9359638195,
			"-0.002": 28.9867848015,
			"-0.001": 20.8562465755,
			"0.0": 13.6813876642,
			"0.001": 8.73646173589,
			"0.002": 4.31725061331,
			"0.003": 4.12291196361,
			"0.004": 2.39378029312,
			"0.005": 2.16685541019,
			"0.006": 2.52724198457,
			"0.007": 1.78109734099,
			"0.008": 2.69297340813,
			"0.009": 3.12415906465,
			"0.01": 1.61478311333,
			"0.011": 2.218016695,
			"0.012": 2.2332232002,
			"0.013": 2.13180264083,
			"0.014": 6.03268395817,
			"0.015": 3.66360328277,
			"0.016": 1.1438950338,
			"0.017": 0.615611016598,
			"0.018": 0.142202226679,
			"0.019": 0.998417455935,
			"0.02": 0.113441105834,
			"0.021": 0.0,
			"0.022": 0.0,
			"0.023": 0.0,
			"0.024": 0.0,
			"0.025": 0.0
		}
	}
}
