{
	 "smiles": "COC1=C(OCC2=CSC(C)=N2)C=CC(C=O)=C1", 
	 "Tm": 360.15, 
	 "num_atms": 31, 
	 "gaussian": { 
		 "optdone": 1, 
		 "sigma_profile": "yes", 
		 "theory": "DFT", 
		 "functional": "B3LYP", 
		 "basiset": "6-31G**", 
		 "properties": { 
			 "R2extent": 8430.9621, 
			 "electric_dipole_moment_norm": 4.99254190668, 
			 "electric_quadrupole_moment_norm": 13.0669502513, 
			 "total_energy": -1181.79002312, 
			 "HOMO_LUMO_gap": 0.17664, 
			 "cosmo_polarized_energy": -13.56, 
			 "cosmo_cavitation_energy": 37.96, 
			 "cosmo_dispersion_energy": -27.1, 
			 "cosmo_repulsion_energy": 2.05, 
			 "cosmo_total_nonelectrostatic_energy": 12.91, 
			 "SMD_solvation_energy": 6.82 
		},
		"coords": [
			{
				"x": 2.8574671187,
				"y": 2.4226275041,
				"z": -1.5539686125,
				"element": "C" 
			},
			{
				"x": 1.6939984648,
				"y": 1.9479634005,
				"z": -2.2389445965,
				"element": "O" 
			},
			{
				"x": 1.3894229792,
				"y": 0.6250982279,
				"z": -2.0323662313,
				"element": "C" 
			},
			{
				"x": 0.8326071651,
				"y": 0.1909561062,
				"z": -0.8044532513,
				"element": "C" 
			},
			{
				"x": 0.6657536366,
				"y": 1.1553574392,
				"z": 0.1372173969,
				"element": "O" 
			},
			{
				"x": 0.0705861587,
				"y": 0.8085858343,
				"z": 1.3837327515,
				"element": "C" 
			},
			{
				"x": -0.1058599668,
				"y": 2.0662292879,
				"z": 2.1844924361,
				"element": "C" 
			},
			{
				"x": 0.0364933473,
				"y": 3.3430266647,
				"z": 1.7272828966,
				"element": "C" 
			},
			{
				"x": -0.296015182,
				"y": 4.4602877876,
				"z": 3.0118522065,
				"element": "S" 
			},
			{
				"x": -0.6098989139,
				"y": 3.0951837254,
				"z": 4.0829834838,
				"element": "C" 
			},
			{
				"x": -0.9959435388,
				"y": 3.2852789574,
				"z": 5.5179913913,
				"element": "C" 
			},
			{
				"x": -0.469119444,
				"y": 1.934806867,
				"z": 3.5085082732,
				"element": "N" 
			},
			{
				"x": 0.4905728159,
				"y": -1.158975801,
				"z": -0.6333296244,
				"element": "C" 
			},
			{
				"x": 0.6798794539,
				"y": -2.0631613437,
				"z": -1.6736672844,
				"element": "C" 
			},
			{
				"x": 1.2121663042,
				"y": -1.6380689611,
				"z": -2.8964977344,
				"element": "C" 
			},
			{
				"x": 1.4066843308,
				"y": -2.5940237367,
				"z": -4.0030383376,
				"element": "C" 
			},
			{
				"x": 1.1394708712,
				"y": -3.7811921789,
				"z": -3.951364204,
				"element": "O" 
			},
			{
				"x": 1.5684354193,
				"y": -0.2897641532,
				"z": -3.0598623287,
				"element": "C" 
			},
			{
				"x": 2.7365581989,
				"y": 2.3632984688,
				"z": -0.4676729391,
				"element": "H" 
			},
			{
				"x": 2.9804099782,
				"y": 3.4663012799,
				"z": -1.8504392857,
				"element": "H" 
			},
			{
				"x": 3.7476970386,
				"y": 1.8552302007,
				"z": -1.8541875664,
				"element": "H" 
			},
			{
				"x": 0.7035413671,
				"y": 0.1003030491,
				"z": 1.9356570492,
				"element": "H" 
			},
			{
				"x": -0.903232207,
				"y": 0.3256841323,
				"z": 1.2193544544,
				"element": "H" 
			},
			{
				"x": 0.3029285392,
				"y": 3.6686729179,
				"z": 0.733342888,
				"element": "H" 
			},
			{
				"x": -1.9273030208,
				"y": 3.8535918558,
				"z": 5.6118977342,
				"element": "H" 
			},
			{
				"x": -1.1368221195,
				"y": 2.3025902734,
				"z": 5.9716163573,
				"element": "H" 
			},
			{
				"x": -0.2212820062,
				"y": 3.8226579355,
				"z": 6.0751381934,
				"element": "H" 
			},
			{
				"x": 0.0741270128,
				"y": -1.5029929428,
				"z": 0.3059239526,
				"element": "H" 
			},
			{
				"x": 0.4156466957,
				"y": -3.1091931715,
				"z": -1.5574801496,
				"element": "H" 
			},
			{
				"x": 1.8314322215,
				"y": -2.1460106102,
				"z": -4.9298077151,
				"element": "H" 
			},
			{
				"x": 1.9830972811,
				"y": 0.0666509834,
				"z": -3.999211604,
				"element": "H" 
			}
		],
		 "valence_orbital": [ 
			{
				"type": "occ",
				"energy": -0.28217,
				"method": "rhf"
			},
			{
				"type": "occ",
				"energy": -0.25894,
				"method": "rhf"
			},
			{
				"type": "occ",
				"energy": -0.24793,
				"method": "rhf"
			},
			{
				"type": "occ",
				"energy": -0.2438,
				"method": "rhf"
			},
			{
				"type": "occ",
				"energy": -0.23061,
				"method": "rhf"
			},
			{
				"type": "unocc",
				"energy": -0.05397,
				"method": "rhf"
			},
			{
				"type": "unocc",
				"energy": -0.02945,
				"method": "rhf"
			},
			{
				"type": "unocc",
				"energy": -0.01103,
				"method": "rhf"
			},
			{
				"type": "unocc",
				"energy": 0.01237,
				"method": "rhf"
			},
			{
				"type": "unocc",
				"energy": 0.04028,
				"method": "rhf"
			}
		],
		"cosmo_sigma_profile": { 
			"-0.025": 0.0,
			"-0.024": 0.0,
			"-0.023": 0.0,
			"-0.022": 0.0,
			"-0.021": 0.0,
			"-0.02": 0.0,
			"-0.019": 0.0,
			"-0.018": 0.0,
			"-0.017": 0.0,
			"-0.016": 0.0,
			"-0.015": 0.0,
			"-0.014": 0.0,
			"-0.013": 0.0,
			"-0.012": 0.0,
			"-0.011": 0.0,
			"-0.01": 0.0,
			"-0.009": 0.230857460647,
			"-0.008": 4.58474522726,
			"-0.007": 10.3664352727,
			"-0.006": 17.7742277798,
			"-0.005": 23.9744560076,
			"-0.004": 23.3307838853,
			"-0.003": 26.1061994748,
			"-0.002": 26.0503302248,
			"-0.001": 24.2970140494,
			"0.0": 18.1201441725,
			"0.001": 22.9132271716,
			"0.002": 30.270173068,
			"0.003": 23.7771255799,
			"0.004": 10.5964183065,
			"0.005": 5.56862872589,
			"0.006": 4.25068870235,
			"0.007": 5.41405763218,
			"0.008": 3.97340797803,
			"0.009": 3.5963401232,
			"0.01": 4.61353381861,
			"0.011": 6.70600588735,
			"0.012": 5.39432399445,
			"0.013": 2.14674506602,
			"0.014": 0.944552826193,
			"0.015": 0.224563976037,
			"0.016": 0.0,
			"0.017": 0.0,
			"0.018": 0.0,
			"0.019": 0.0,
			"0.02": 0.0,
			"0.021": 0.0,
			"0.022": 0.0,
			"0.023": 0.0,
			"0.024": 0.0,
			"0.025": 0.0
		}
	}
}
