{
	 "smiles": "CN1CCCN(CC1)C(=O)C1=C(N)C=CC=C1", 
	 "Tm": 354.15, 
	 "num_atms": 36, 
	 "gaussian": { 
		 "optdone": 1, 
		 "sigma_profile": "yes", 
		 "theory": "DFT", 
		 "functional": "B3LYP", 
		 "basiset": "6-31G**", 
		 "properties": { 
			 "R2extent": 5495.7607, 
			 "electric_dipole_moment_norm": 1.93606468125, 
			 "electric_quadrupole_moment_norm": 13.2384972663, 
			 "total_energy": -746.32112568, 
			 "HOMO_LUMO_gap": 0.177, 
			 "cosmo_polarized_energy": -12.04, 
			 "cosmo_cavitation_energy": 36.02, 
			 "cosmo_dispersion_energy": -26.26, 
			 "cosmo_repulsion_energy": 2.03, 
			 "cosmo_total_nonelectrostatic_energy": 11.79, 
			 "SMD_solvation_energy": 2.95 
		},
		"coords": [
			{
				"x": 3.7348558957,
				"y": 0.8581642047,
				"z": 3.5975334306,
				"element": "C" 
			},
			{
				"x": 2.3578677502,
				"y": 1.0054405282,
				"z": 3.1399512252,
				"element": "N" 
			},
			{
				"x": 1.8255731289,
				"y": 2.3102281212,
				"z": 3.5240610413,
				"element": "C" 
			},
			{
				"x": 0.3414404066,
				"y": 2.516083474,
				"z": 3.2008285874,
				"element": "C" 
			},
			{
				"x": 0.0106154719,
				"y": 2.767066651,
				"z": 1.7272541848,
				"element": "C" 
			},
			{
				"x": -0.0133210772,
				"y": 1.5569838325,
				"z": 0.8889081097,
				"element": "N" 
			},
			{
				"x": 0.7983043071,
				"y": 0.394963222,
				"z": 1.2651893175,
				"element": "C" 
			},
			{
				"x": 2.2350691709,
				"y": 0.7149102302,
				"z": 1.7124536461,
				"element": "C" 
			},
			{
				"x": -0.5754255888,
				"y": 1.7283190561,
				"z": -0.3554095947,
				"element": "C" 
			},
			{
				"x": -0.9030986331,
				"y": 2.863730726,
				"z": -0.7333752514,
				"element": "O" 
			},
			{
				"x": -0.8374317226,
				"y": 0.5352183581,
				"z": -1.2253440411,
				"element": "C" 
			},
			{
				"x": -0.6715569569,
				"y": 0.6515008724,
				"z": -2.633371827,
				"element": "C" 
			},
			{
				"x": -0.1799490697,
				"y": 1.8122695149,
				"z": -3.2013450713,
				"element": "N" 
			},
			{
				"x": -0.9681273916,
				"y": -0.4678650278,
				"z": -3.4365432644,
				"element": "C" 
			},
			{
				"x": -1.4640086817,
				"y": -1.6412118393,
				"z": -2.8827208624,
				"element": "C" 
			},
			{
				"x": -1.6836696309,
				"y": -1.7401418918,
				"z": -1.5052200981,
				"element": "C" 
			},
			{
				"x": -1.3653655825,
				"y": -0.6529270478,
				"z": -0.6969759242,
				"element": "C" 
			},
			{
				"x": 3.7791905971,
				"y": 1.0028774858,
				"z": 4.6818267101,
				"element": "H" 
			},
			{
				"x": 4.0945739712,
				"y": -0.1519116263,
				"z": 3.3772411972,
				"element": "H" 
			},
			{
				"x": 4.434851676,
				"y": 1.5787924378,
				"z": 3.1324263264,
				"element": "H" 
			},
			{
				"x": 1.9631892155,
				"y": 2.408188243,
				"z": 4.6075055019,
				"element": "H" 
			},
			{
				"x": 2.4024855495,
				"y": 3.137167846,
				"z": 3.0581315522,
				"element": "H" 
			},
			{
				"x": -0.2496710508,
				"y": 1.6844825144,
				"z": 3.6011543647,
				"element": "H" 
			},
			{
				"x": 0.01936146,
				"y": 3.4130577895,
				"z": 3.7430782226,
				"element": "H" 
			},
			{
				"x": 0.7187527711,
				"y": 3.4972428531,
				"z": 1.3099301088,
				"element": "H" 
			},
			{
				"x": -0.9747939771,
				"y": 3.2307604613,
				"z": 1.6393563576,
				"element": "H" 
			},
			{
				"x": 0.8532300278,
				"y": -0.2516250402,
				"z": 0.3908325245,
				"element": "H" 
			},
			{
				"x": 0.3204677995,
				"y": -0.1792547697,
				"z": 2.069140214,
				"element": "H" 
			},
			{
				"x": 2.82920497,
				"y": -0.1854483125,
				"z": 1.5211627783,
				"element": "H" 
			},
			{
				"x": 2.6590264605,
				"y": 1.5129369368,
				"z": 1.0715044274,
				"element": "H" 
			},
			{
				"x": -0.381661917,
				"y": 2.644738267,
				"z": -2.6577562724,
				"element": "H" 
			},
			{
				"x": -0.3378573621,
				"y": 1.9078487579,
				"z": -4.193901758,
				"element": "H" 
			},
			{
				"x": -0.819122842,
				"y": -0.3934270288,
				"z": -4.5111714488,
				"element": "H" 
			},
			{
				"x": -1.696030936,
				"y": -2.4800215574,
				"z": -3.5335038516,
				"element": "H" 
			},
			{
				"x": -2.0970927174,
				"y": -2.6450283239,
				"z": -1.0719048899,
				"element": "H" 
			},
			{
				"x": -1.5453754921,
				"y": -0.7115099184,
				"z": 0.372374327,
				"element": "H" 
			}
		],
		 "valence_orbital": [ 
			{
				"type": "occ",
				"energy": -0.25369,
				"method": "rhf"
			},
			{
				"type": "occ",
				"energy": -0.23985,
				"method": "rhf"
			},
			{
				"type": "occ",
				"energy": -0.23133,
				"method": "rhf"
			},
			{
				"type": "occ",
				"energy": -0.21688,
				"method": "rhf"
			},
			{
				"type": "occ",
				"energy": -0.19711,
				"method": "rhf"
			},
			{
				"type": "unocc",
				"energy": -0.02011,
				"method": "rhf"
			},
			{
				"type": "unocc",
				"energy": 0.01621,
				"method": "rhf"
			},
			{
				"type": "unocc",
				"energy": 0.05609,
				"method": "rhf"
			},
			{
				"type": "unocc",
				"energy": 0.07578,
				"method": "rhf"
			},
			{
				"type": "unocc",
				"energy": 0.09372,
				"method": "rhf"
			}
		],
		"cosmo_sigma_profile": { 
			"-0.025": 0.0,
			"-0.024": 0.0,
			"-0.023": 0.0,
			"-0.022": 0.0,
			"-0.021": 0.0,
			"-0.02": 0.0,
			"-0.019": 0.0,
			"-0.018": 0.0,
			"-0.017": 0.0,
			"-0.016": 0.0,
			"-0.015": 0.0,
			"-0.014": 0.0,
			"-0.013": 0.246885531899,
			"-0.012": 1.14801932421,
			"-0.011": 1.39438405973,
			"-0.01": 1.24281985952,
			"-0.009": 1.40916399945,
			"-0.008": 2.39322845521,
			"-0.007": 2.23813419182,
			"-0.006": 4.75552954894,
			"-0.005": 12.2009124158,
			"-0.004": 26.1007288745,
			"-0.003": 36.7478131954,
			"-0.002": 37.6674900645,
			"-0.001": 34.5637348393,
			"0.0": 26.9050707696,
			"0.001": 12.3334350477,
			"0.002": 9.7802093101,
			"0.003": 9.84460968283,
			"0.004": 11.2389446066,
			"0.005": 12.3207868267,
			"0.006": 10.9068280409,
			"0.007": 4.68537687882,
			"0.008": 2.75098285013,
			"0.009": 2.9348992846,
			"0.01": 2.5439457449,
			"0.011": 2.60151940897,
			"0.012": 3.32384321523,
			"0.013": 3.33444239663,
			"0.014": 3.1418928526,
			"0.015": 0.530874925504,
			"0.016": 0.0409296249661,
			"0.017": 0.0,
			"0.018": 0.0,
			"0.019": 0.0,
			"0.02": 0.0,
			"0.021": 0.0,
			"0.022": 0.0,
			"0.023": 0.0,
			"0.024": 0.0,
			"0.025": 0.0
		}
	}
}
