{
	 "smiles": "CN1CCN(CC1)C1=C(F)C=C2C(=O)C(=CN3N(C)COC1=C23)C(O)=O", 
	 "Tm": 541.15, 
	 "num_atms": 45, 
	 "gaussian": { 
		 "optdone": 1, 
		 "sigma_profile": "yes", 
		 "theory": "DFT", 
		 "functional": "B3LYP", 
		 "basiset": "6-31G**", 
		 "properties": { 
			 "R2extent": 11998.5445, 
			 "electric_dipole_moment_norm": 8.23453938117, 
			 "electric_quadrupole_moment_norm": 24.1346834415, 
			 "total_energy": -1278.92910931, 
			 "HOMO_LUMO_gap": 0.1557, 
			 "cosmo_polarized_energy": -26.75, 
			 "cosmo_cavitation_energy": 46.11, 
			 "cosmo_dispersion_energy": -33.02, 
			 "cosmo_repulsion_energy": 2.41, 
			 "cosmo_total_nonelectrostatic_energy": 15.51, 
			 "SMD_solvation_energy": 5.26 
		},
		"coords": [
			{
				"x": 0.1484228931,
				"y": -1.8040163508,
				"z": -5.1049707065,
				"element": "C" 
			},
			{
				"x": -0.4258716273,
				"y": -1.7635795979,
				"z": -3.7726429895,
				"element": "N" 
			},
			{
				"x": -1.5261504636,
				"y": -2.6950530663,
				"z": -3.5726165914,
				"element": "C" 
			},
			{
				"x": -1.779397236,
				"y": -2.8868454844,
				"z": -2.0646877992,
				"element": "C" 
			},
			{
				"x": -1.6209585615,
				"y": -1.6062815545,
				"z": -1.3645412672,
				"element": "N" 
			},
			{
				"x": -1.8035781898,
				"y": -0.4326668747,
				"z": -2.2066459446,
				"element": "C" 
			},
			{
				"x": -0.7956370904,
				"y": -0.401710623,
				"z": -3.3734170713,
				"element": "C" 
			},
			{
				"x": -1.2424639572,
				"y": -1.5515915753,
				"z": -0.0347462326,
				"element": "C" 
			},
			{
				"x": -1.7339548402,
				"y": -2.4865455595,
				"z": 0.913700227,
				"element": "C" 
			},
			{
				"x": -2.6318307292,
				"y": -3.4049641037,
				"z": 0.4829958847,
				"element": "F" 
			},
			{
				"x": -1.3562846785,
				"y": -2.5107794171,
				"z": 2.2359510707,
				"element": "C" 
			},
			{
				"x": -0.4814922384,
				"y": -1.5378066775,
				"z": 2.7333062057,
				"element": "C" 
			},
			{
				"x": -0.1000642989,
				"y": -1.5606155471,
				"z": 4.1714629888,
				"element": "C" 
			},
			{
				"x": -0.5458400999,
				"y": -2.4239189269,
				"z": 4.9264407776,
				"element": "O" 
			},
			{
				"x": 0.8278451091,
				"y": -0.4885419428,
				"z": 4.5470510368,
				"element": "C" 
			},
			{
				"x": 1.2480992296,
				"y": 0.4356869089,
				"z": 3.6135200601,
				"element": "C" 
			},
			{
				"x": 0.8681811266,
				"y": 0.4287884267,
				"z": 2.3224254854,
				"element": "N" 
			},
			{
				"x": 1.1579756111,
				"y": 1.4919054114,
				"z": 1.405231152,
				"element": "N" 
			},
			{
				"x": 2.2203967745,
				"y": 2.3882078865,
				"z": 1.8474930399,
				"element": "C" 
			},
			{
				"x": 1.419471895,
				"y": 0.8816843132,
				"z": 0.1049194014,
				"element": "C" 
			},
			{
				"x": 0.2323021153,
				"y": 0.305946161,
				"z": -0.3982987186,
				"element": "O" 
			},
			{
				"x": -0.3398273218,
				"y": -0.5946835948,
				"z": 0.4757900229,
				"element": "C" 
			},
			{
				"x": -0.0037313582,
				"y": -0.5609111538,
				"z": 1.8410116313,
				"element": "C" 
			},
			{
				"x": 1.3961792568,
				"y": -0.2705099355,
				"z": 5.8944618674,
				"element": "C" 
			},
			{
				"x": 0.9955425604,
				"y": -1.1546644212,
				"z": 6.8268412383,
				"element": "O" 
			},
			{
				"x": 2.172784818,
				"y": 0.6379510804,
				"z": 6.1640664723,
				"element": "O" 
			},
			{
				"x": -0.5577571535,
				"y": -1.4972349557,
				"z": -5.9014965834,
				"element": "H" 
			},
			{
				"x": 1.0116986285,
				"y": -1.1309359126,
				"z": -5.151682574,
				"element": "H" 
			},
			{
				"x": 0.4984196676,
				"y": -2.8164813396,
				"z": -5.3316178607,
				"element": "H" 
			},
			{
				"x": -1.256594596,
				"y": -3.665733565,
				"z": -4.0015855485,
				"element": "H" 
			},
			{
				"x": -2.4543072075,
				"y": -2.3761456335,
				"z": -4.0872926308,
				"element": "H" 
			},
			{
				"x": -2.7757331403,
				"y": -3.3218082744,
				"z": -1.9126923075,
				"element": "H" 
			},
			{
				"x": -1.0443113975,
				"y": -3.5908277319,
				"z": -1.6632766983,
				"element": "H" 
			},
			{
				"x": -1.7190561279,
				"y": 0.4727930936,
				"z": -1.6090396326,
				"element": "H" 
			},
			{
				"x": -2.8276066704,
				"y": -0.4546088138,
				"z": -2.6075773309,
				"element": "H" 
			},
			{
				"x": 0.1141938347,
				"y": 0.1330611791,
				"z": -3.0779249242,
				"element": "H" 
			},
			{
				"x": -1.2562933377,
				"y": 0.1609895132,
				"z": -4.2094021333,
				"element": "H" 
			},
			{
				"x": -1.7543666719,
				"y": -3.2526008156,
				"z": 2.9184024075,
				"element": "H" 
			},
			{
				"x": 1.9214988442,
				"y": 1.2154741854,
				"z": 3.9400227254,
				"element": "H" 
			},
			{
				"x": 1.8950114071,
				"y": 2.9590801479,
				"z": 2.7196150083,
				"element": "H" 
			},
			{
				"x": 3.1685293512,
				"y": 1.8793120951,
				"z": 2.0823111035,
				"element": "H" 
			},
			{
				"x": 2.3919417478,
				"y": 3.0975860045,
				"z": 1.0354844568,
				"element": "H" 
			},
			{
				"x": 2.2096805442,
				"y": 0.1136159903,
				"z": 0.1606994483,
				"element": "H" 
			},
			{
				"x": 1.7072377604,
				"y": 1.6702241558,
				"z": -0.5907152037,
				"element": "H" 
			},
			{
				"x": 1.4477958188,
				"y": -0.8794431039,
				"z": 7.6421670367,
				"element": "H" 
			}
		],
		 "valence_orbital": [ 
			{
				"type": "occ",
				"energy": -0.25117,
				"method": "rhf"
			},
			{
				"type": "occ",
				"energy": -0.2244,
				"method": "rhf"
			},
			{
				"type": "occ",
				"energy": -0.21638,
				"method": "rhf"
			},
			{
				"type": "occ",
				"energy": -0.2059,
				"method": "rhf"
			},
			{
				"type": "occ",
				"energy": -0.19715,
				"method": "rhf"
			},
			{
				"type": "unocc",
				"energy": -0.04145,
				"method": "rhf"
			},
			{
				"type": "unocc",
				"energy": -0.0343,
				"method": "rhf"
			},
			{
				"type": "unocc",
				"energy": 0.01386,
				"method": "rhf"
			},
			{
				"type": "unocc",
				"energy": 0.04213,
				"method": "rhf"
			},
			{
				"type": "unocc",
				"energy": 0.05686,
				"method": "rhf"
			}
		],
		"cosmo_sigma_profile": { 
			"-0.025": 0.0,
			"-0.024": 0.0,
			"-0.023": 0.0,
			"-0.022": 0.0,
			"-0.021": 0.0,
			"-0.02": 0.0,
			"-0.019": 0.0,
			"-0.018": 0.3750024636,
			"-0.017": 0.74787280404,
			"-0.016": 0.83432933677,
			"-0.015": 0.725125426778,
			"-0.014": 1.25587384438,
			"-0.013": 0.418013368352,
			"-0.012": 0.465455372605,
			"-0.011": 0.782326296284,
			"-0.01": 3.06987264591,
			"-0.009": 4.8075854682,
			"-0.008": 7.12823798219,
			"-0.007": 12.5928546435,
			"-0.006": 14.5466661627,
			"-0.005": 13.2761953214,
			"-0.004": 25.5077255292,
			"-0.003": 32.9791762274,
			"-0.002": 38.14634874,
			"-0.001": 37.6977247545,
			"0.0": 36.4042761212,
			"0.001": 25.7612734836,
			"0.002": 16.1172153974,
			"0.003": 16.1662519929,
			"0.004": 13.7885862805,
			"0.005": 6.94340832454,
			"0.006": 6.0599827338,
			"0.007": 5.37571814323,
			"0.008": 5.00741905903,
			"0.009": 3.62819203681,
			"0.01": 4.5426379458,
			"0.011": 4.82527866513,
			"0.012": 7.69397098442,
			"0.013": 5.79780411025,
			"0.014": 4.58091052144,
			"0.015": 2.55029373276,
			"0.016": 2.17170267377,
			"0.017": 1.25196987272,
			"0.018": 0.0538957117279,
			"0.019": 0.0,
			"0.02": 0.0,
			"0.021": 0.0,
			"0.022": 0.0,
			"0.023": 0.0,
			"0.024": 0.0,
			"0.025": 0.0
		}
	}
}
