{
	 "smiles": "OC(=O)CC1=C(Br)C=C(Cl)C=C1", 
	 "Tm": 400.15, 
	 "num_atms": 18, 
	 "gaussian": { 
		 "optdone": 1, 
		 "sigma_profile": "yes", 
		 "theory": "DFT", 
		 "functional": "B3LYP", 
		 "basiset": "6-31G**", 
		 "properties": { 
			 "R2extent": 3672.6096, 
			 "electric_dipole_moment_norm": 3.37941445964, 
			 "electric_quadrupole_moment_norm": 19.7740630084, 
			 "total_energy": -3490.52156275, 
			 "HOMO_LUMO_gap": 0.21329, 
			 "cosmo_polarized_energy": -11.91, 
			 "cosmo_cavitation_energy": 26.49, 
			 "cosmo_dispersion_energy": -19.75, 
			 "cosmo_repulsion_energy": 1.57, 
			 "cosmo_total_nonelectrostatic_energy": 8.31, 
			 "SMD_solvation_energy": 4.32 
		},
		"coords": [
			{
				"x": -2.0885215834,
				"y": -0.2327588888,
				"z": 2.4518605973,
				"element": "O" 
			},
			{
				"x": -1.0701622822,
				"y": -1.1214679468,
				"z": 2.4254799329,
				"element": "C" 
			},
			{
				"x": -0.4798890421,
				"y": -1.4177049582,
				"z": 3.4334218606,
				"element": "O" 
			},
			{
				"x": -0.7148453063,
				"y": -1.7014153998,
				"z": 1.046458929,
				"element": "C" 
			},
			{
				"x": -0.0228724536,
				"y": -0.6905914466,
				"z": 0.155369276,
				"element": "C" 
			},
			{
				"x": -0.6846747319,
				"y": 0.1296460403,
				"z": -0.7677816913,
				"element": "C" 
			},
			{
				"x": -2.5968470958,
				"y": 0.0330419821,
				"z": -0.9679990601,
				"element": "Br" 
			},
			{
				"x": -0.01655002,
				"y": 1.0503793471,
				"z": -1.5726509809,
				"element": "C" 
			},
			{
				"x": 1.3659839712,
				"y": 1.1648291248,
				"z": -1.4459612657,
				"element": "C" 
			},
			{
				"x": 2.2236321138,
				"y": 2.3143379705,
				"z": -2.4520389722,
				"element": "Cl" 
			},
			{
				"x": 2.0690271473,
				"y": 0.380224532,
				"z": -0.5325460766,
				"element": "C" 
			},
			{
				"x": 1.3688007799,
				"y": -0.5317621084,
				"z": 0.2511592244,
				"element": "C" 
			},
			{
				"x": -2.4634715485,
				"y": -0.1052009153,
				"z": 1.5641630958,
				"element": "H" 
			},
			{
				"x": -0.0475475645,
				"y": -2.5436001283,
				"z": 1.2335044188,
				"element": "H" 
			},
			{
				"x": -1.619376296,
				"y": -2.0823749605,
				"z": 0.5625099692,
				"element": "H" 
			},
			{
				"x": -0.5594124713,
				"y": 1.6653907137,
				"z": -2.2789548301,
				"element": "H" 
			},
			{
				"x": 3.1441818821,
				"y": 0.4810031238,
				"z": -0.4394547779,
				"element": "H" 
			},
			{
				"x": 1.9109445014,
				"y": -1.1437760816,
				"z": 0.966060351,
				"element": "H" 
			}
		],
		 "valence_orbital": [ 
			{
				"type": "occ",
				"energy": -0.32213,
				"method": "rhf"
			},
			{
				"type": "occ",
				"energy": -0.31608,
				"method": "rhf"
			},
			{
				"type": "occ",
				"energy": -0.28465,
				"method": "rhf"
			},
			{
				"type": "occ",
				"energy": -0.27626,
				"method": "rhf"
			},
			{
				"type": "occ",
				"energy": -0.25764,
				"method": "rhf"
			},
			{
				"type": "unocc",
				"energy": -0.04435,
				"method": "rhf"
			},
			{
				"type": "unocc",
				"energy": -0.0421,
				"method": "rhf"
			},
			{
				"type": "unocc",
				"energy": -0.03209,
				"method": "rhf"
			},
			{
				"type": "unocc",
				"energy": 0.01248,
				"method": "rhf"
			},
			{
				"type": "unocc",
				"energy": 0.0258,
				"method": "rhf"
			}
		],
		"cosmo_sigma_profile": { 
			"-0.025": 0.0,
			"-0.024": 0.0,
			"-0.023": 0.0,
			"-0.022": 0.0,
			"-0.021": 0.0,
			"-0.02": 0.0,
			"-0.019": 0.0,
			"-0.018": 0.0,
			"-0.017": 0.0,
			"-0.016": 0.0,
			"-0.015": 0.0,
			"-0.014": 0.0,
			"-0.013": 0.0439244208067,
			"-0.012": 0.270236221799,
			"-0.011": 1.30613811278,
			"-0.01": 1.43962951073,
			"-0.009": 2.14131998149,
			"-0.008": 7.30519353912,
			"-0.007": 10.4726086438,
			"-0.006": 11.481054351,
			"-0.005": 10.6553624071,
			"-0.004": 12.9240813339,
			"-0.003": 12.7497251873,
			"-0.002": 12.5649660894,
			"-0.001": 16.5761992902,
			"0.0": 19.7666934288,
			"0.001": 23.6827934573,
			"0.002": 18.1281035744,
			"0.003": 14.0315351413,
			"0.004": 11.177132584,
			"0.005": 3.80657577161,
			"0.006": 2.33867460307,
			"0.007": 2.0648875519,
			"0.008": 2.63246488249,
			"0.009": 3.37282625252,
			"0.01": 5.08198187158,
			"0.011": 5.43588874518,
			"0.012": 5.03644400146,
			"0.013": 1.26916560898,
			"0.014": 0.0,
			"0.015": 0.0,
			"0.016": 0.0,
			"0.017": 0.0,
			"0.018": 0.0,
			"0.019": 0.0,
			"0.02": 0.0,
			"0.021": 0.0,
			"0.022": 0.0,
			"0.023": 0.0,
			"0.024": 0.0,
			"0.025": 0.0
		}
	}
}
