{
	 "smiles": "CCOP(=S)(OCC)SCSP(=S)(OCC)OCC", 
	 "Tm": 261.15, 
	 "num_atms": 41, 
	 "gaussian": { 
		 "optdone": 1, 
		 "sigma_profile": "yes", 
		 "theory": "DFT", 
		 "functional": "B3LYP", 
		 "basiset": "6-31G**", 
		 "properties": { 
			 "R2extent": 9351.4269, 
			 "electric_dipole_moment_norm": 3.33408805073, 
			 "electric_quadrupole_moment_norm": 28.198154598, 
			 "total_energy": -2932.70375133, 
			 "HOMO_LUMO_gap": 0.22509, 
			 "cosmo_polarized_energy": -15.89, 
			 "cosmo_cavitation_energy": 52.88, 
			 "cosmo_dispersion_energy": -33.68, 
			 "cosmo_repulsion_energy": 2.49, 
			 "cosmo_total_nonelectrostatic_energy": 21.69, 
			 "SMD_solvation_energy": 7.37 
		},
		"coords": [
			{
				"x": 0.7865790615,
				"y": 1.166233076,
				"z": 3.6374796803,
				"element": "C" 
			},
			{
				"x": 1.3512615499,
				"y": -0.1175032817,
				"z": 3.063002577,
				"element": "C" 
			},
			{
				"x": 0.3792516291,
				"y": -0.6440190429,
				"z": 2.1137857225,
				"element": "O" 
			},
			{
				"x": 0.6237580554,
				"y": -2.0805604293,
				"z": 1.4177228325,
				"element": "P" 
			},
			{
				"x": 1.1145738126,
				"y": -3.5810145154,
				"z": 2.5427573003,
				"element": "S" 
			},
			{
				"x": -0.7986237965,
				"y": -2.123902979,
				"z": 0.6424450243,
				"element": "O" 
			},
			{
				"x": -1.2391999442,
				"y": -3.3544508719,
				"z": 0.0051870093,
				"element": "C" 
			},
			{
				"x": -2.6189462773,
				"y": -3.1049724158,
				"z": -0.5720987099,
				"element": "C" 
			},
			{
				"x": 2.0827077251,
				"y": -1.796534123,
				"z": -0.1080079394,
				"element": "S" 
			},
			{
				"x": 1.3448782212,
				"y": -0.4521490079,
				"z": -1.1181971185,
				"element": "C" 
			},
			{
				"x": 1.8642813307,
				"y": 1.2287755443,
				"z": -0.5375679274,
				"element": "S" 
			},
			{
				"x": 0.3527426329,
				"y": 2.4352508266,
				"z": -1.4167488607,
				"element": "P" 
			},
			{
				"x": 0.5524985025,
				"y": 4.2909080075,
				"z": -0.8849700259,
				"element": "S" 
			},
			{
				"x": -1.04535267,
				"y": 1.6848409378,
				"z": -1.1110034492,
				"element": "O" 
			},
			{
				"x": -1.6826960462,
				"y": 1.7977418071,
				"z": 0.1937762418,
				"element": "C" 
			},
			{
				"x": -3.0786980369,
				"y": 1.2197849309,
				"z": 0.068838053,
				"element": "C" 
			},
			{
				"x": 0.369317474,
				"y": 2.0822886778,
				"z": -2.9964601775,
				"element": "O" 
			},
			{
				"x": 1.3713624707,
				"y": 2.6708294619,
				"z": -3.8657044111,
				"element": "C" 
			},
			{
				"x": 1.0686899859,
				"y": 2.2190314787,
				"z": -5.2816279753,
				"element": "C" 
			},
			{
				"x": 1.4859470625,
				"y": 1.5712352129,
				"z": 4.3757450984,
				"element": "H" 
			},
			{
				"x": -0.1703384347,
				"y": 0.982195709,
				"z": 4.1338747721,
				"element": "H" 
			},
			{
				"x": 0.643663052,
				"y": 1.9159207296,
				"z": 2.8548920003,
				"element": "H" 
			},
			{
				"x": 2.2923328164,
				"y": 0.0635454339,
				"z": 2.5335820587,
				"element": "H" 
			},
			{
				"x": 1.5185287657,
				"y": -0.870425678,
				"z": 3.8389201434,
				"element": "H" 
			},
			{
				"x": -0.5209122554,
				"y": -3.6264516696,
				"z": -0.7767853611,
				"element": "H" 
			},
			{
				"x": -1.2516775777,
				"y": -4.150419689,
				"z": 0.7552716478,
				"element": "H" 
			},
			{
				"x": -2.9854668178,
				"y": -4.0185059834,
				"z": -1.0509166254,
				"element": "H" 
			},
			{
				"x": -3.3229012806,
				"y": -2.8220431072,
				"z": 0.2152581149,
				"element": "H" 
			},
			{
				"x": -2.5948924813,
				"y": -2.3098901734,
				"z": -1.3229445835,
				"element": "H" 
			},
			{
				"x": 1.7008722249,
				"y": -0.6149004325,
				"z": -2.1359107915,
				"element": "H" 
			},
			{
				"x": 0.2572240691,
				"y": -0.5246437924,
				"z": -1.0993076882,
				"element": "H" 
			},
			{
				"x": -1.0862346957,
				"y": 1.2392408134,
				"z": 0.921690759,
				"element": "H" 
			},
			{
				"x": -1.706388688,
				"y": 2.8536283217,
				"z": 0.4799978305,
				"element": "H" 
			},
			{
				"x": -3.6595188967,
				"y": 1.7616633637,
				"z": -0.6824623335,
				"element": "H" 
			},
			{
				"x": -3.0371722676,
				"y": 0.1634141626,
				"z": -0.2090645406,
				"element": "H" 
			},
			{
				"x": -3.5930708606,
				"y": 1.3002161892,
				"z": 1.0317653866,
				"element": "H" 
			},
			{
				"x": 1.3246709007,
				"y": 3.7598078622,
				"z": -3.7699071869,
				"element": "H" 
			},
			{
				"x": 2.3641698344,
				"y": 2.3369057699,
				"z": -3.541289798,
				"element": "H" 
			},
			{
				"x": 1.8054853723,
				"y": 2.6465340647,
				"z": -5.9689644122,
				"element": "H" 
			},
			{
				"x": 0.0736290625,
				"y": 2.5516258235,
				"z": -5.5889976247,
				"element": "H" 
			},
			{
				"x": 1.1111654148,
				"y": 1.1292689875,
				"z": -5.3638547122,
				"element": "H" 
			}
		],
		 "valence_orbital": [ 
			{
				"type": "occ",
				"energy": -0.27221,
				"method": "rhf"
			},
			{
				"type": "occ",
				"energy": -0.2522,
				"method": "rhf"
			},
			{
				"type": "occ",
				"energy": -0.25098,
				"method": "rhf"
			},
			{
				"type": "occ",
				"energy": -0.24475,
				"method": "rhf"
			},
			{
				"type": "occ",
				"energy": -0.24236,
				"method": "rhf"
			},
			{
				"type": "unocc",
				"energy": -0.01727,
				"method": "rhf"
			},
			{
				"type": "unocc",
				"energy": -0.01406,
				"method": "rhf"
			},
			{
				"type": "unocc",
				"energy": -0.00568,
				"method": "rhf"
			},
			{
				"type": "unocc",
				"energy": 0.02098,
				"method": "rhf"
			},
			{
				"type": "unocc",
				"energy": 0.02902,
				"method": "rhf"
			}
		],
		"cosmo_sigma_profile": { 
			"-0.025": 0.0,
			"-0.024": 0.0,
			"-0.023": 0.0,
			"-0.022": 0.0,
			"-0.021": 0.0,
			"-0.02": 0.0,
			"-0.019": 0.0,
			"-0.018": 0.0,
			"-0.017": 0.0,
			"-0.016": 0.0,
			"-0.015": 0.0,
			"-0.014": 0.0,
			"-0.013": 0.0,
			"-0.012": 0.0,
			"-0.011": 0.0,
			"-0.01": 0.102635649649,
			"-0.009": 1.91275269603,
			"-0.008": 1.57976255157,
			"-0.007": 1.8629462155,
			"-0.006": 5.14216982677,
			"-0.005": 29.0846844769,
			"-0.004": 51.5310721297,
			"-0.003": 45.9592991746,
			"-0.002": 43.9800750528,
			"-0.001": 42.6009436114,
			"0.0": 38.6983799228,
			"0.001": 23.7415298455,
			"0.002": 26.5341812405,
			"0.003": 21.0144714793,
			"0.004": 17.090886826,
			"0.005": 15.2032434926,
			"0.006": 15.9550298054,
			"0.007": 16.2278052828,
			"0.008": 15.3594916434,
			"0.009": 6.49897837442,
			"0.01": 2.07192918599,
			"0.011": 0.181377372302,
			"0.012": 0.0,
			"0.013": 0.0,
			"0.014": 0.0,
			"0.015": 0.0,
			"0.016": 0.0,
			"0.017": 0.0,
			"0.018": 0.0,
			"0.019": 0.0,
			"0.02": 0.0,
			"0.021": 0.0,
			"0.022": 0.0,
			"0.023": 0.0,
			"0.024": 0.0,
			"0.025": 0.0
		}
	}
}
