{
	 "smiles": "BrC12CC3CC(CC(C3)C1)C2", 
	 "Tm": 392.15, 
	 "num_atms": 26, 
	 "gaussian": { 
		 "optdone": 1, 
		 "sigma_profile": "yes", 
		 "theory": "DFT", 
		 "functional": "B3LYP", 
		 "basiset": "6-31G**", 
		 "properties": { 
			 "R2extent": 2665.6266, 
			 "electric_dipole_moment_norm": 2.83961538417, 
			 "electric_quadrupole_moment_norm": 7.04007133629, 
			 "total_energy": -2961.55010642, 
			 "HOMO_LUMO_gap": 0.26196, 
			 "cosmo_polarized_energy": -3.83, 
			 "cosmo_cavitation_energy": 25.84, 
			 "cosmo_dispersion_energy": -20.2, 
			 "cosmo_repulsion_energy": 1.58, 
			 "cosmo_total_nonelectrostatic_energy": 7.21, 
			 "SMD_solvation_energy": 1.76 
		},
		"coords": [
			{
				"x": 1.11644533,
				"y": -2.7305673358,
				"z": -1.5649460125,
				"element": "Br" 
			},
			{
				"x": 0.5486789168,
				"y": -0.9074073193,
				"z": -0.9136448935,
				"element": "C" 
			},
			{
				"x": 1.3992424902,
				"y": 0.1518013289,
				"z": -1.6263289415,
				"element": "C" 
			},
			{
				"x": 0.9634466711,
				"y": 1.551459108,
				"z": -1.126499691,
				"element": "C" 
			},
			{
				"x": -0.5290027877,
				"y": 1.7699027301,
				"z": -1.4503124815,
				"element": "C" 
			},
			{
				"x": -1.3726059501,
				"y": 0.6876410899,
				"z": -0.745223186,
				"element": "C" 
			},
			{
				"x": -1.1574817708,
				"y": 0.7773633507,
				"z": 0.7798826242,
				"element": "C" 
			},
			{
				"x": 0.3351913958,
				"y": 0.5593222655,
				"z": 1.103024766,
				"element": "C" 
			},
			{
				"x": 1.1796870607,
				"y": 1.6412230044,
				"z": 0.39846208,
				"element": "C" 
			},
			{
				"x": 0.7709591901,
				"y": -0.8401786225,
				"z": 0.6027621791,
				"element": "C" 
			},
			{
				"x": -0.9362830638,
				"y": -0.7118657902,
				"z": -1.2451437818,
				"element": "C" 
			},
			{
				"x": 2.4608047659,
				"y": -0.0178253462,
				"z": -1.4156946764,
				"element": "H" 
			},
			{
				"x": 1.2642472721,
				"y": 0.0718092631,
				"z": -2.7104893106,
				"element": "H" 
			},
			{
				"x": 1.5700450242,
				"y": 2.3117518309,
				"z": -1.6340784655,
				"element": "H" 
			},
			{
				"x": -0.843780447,
				"y": 2.7676099348,
				"z": -1.1187218457,
				"element": "H" 
			},
			{
				"x": -0.6903875088,
				"y": 1.7278075255,
				"z": -2.5351356613,
				"element": "H" 
			},
			{
				"x": -2.4345095372,
				"y": 0.8308685789,
				"z": -0.9807782767,
				"element": "H" 
			},
			{
				"x": -1.7691306273,
				"y": 0.0240139264,
				"z": 1.2927225938,
				"element": "H" 
			},
			{
				"x": -1.4829452542,
				"y": 1.7584553065,
				"z": 1.148622459,
				"element": "H" 
			},
			{
				"x": 0.4930085088,
				"y": 0.6110291273,
				"z": 2.187484561,
				"element": "H" 
			},
			{
				"x": 0.8938249625,
				"y": 2.6368683749,
				"z": 0.7610007045,
				"element": "H" 
			},
			{
				"x": 2.242289459,
				"y": 1.5066269971,
				"z": 0.63807152,
				"element": "H" 
			},
			{
				"x": 0.189920549,
				"y": -1.6241801731,
				"z": 1.1005529426,
				"element": "H" 
			},
			{
				"x": 1.8266946691,
				"y": -1.0191491195,
				"z": 0.8339081524,
				"element": "H" 
			},
			{
				"x": -1.5327062065,
				"y": -1.494700348,
				"z": -0.7640288714,
				"element": "H" 
			},
			{
				"x": -1.092453112,
				"y": -0.7996796884,
				"z": -2.3258684873,
				"element": "H" 
			}
		],
		 "valence_orbital": [ 
			{
				"type": "occ",
				"energy": -0.29186,
				"method": "rhf"
			},
			{
				"type": "occ",
				"energy": -0.29185,
				"method": "rhf"
			},
			{
				"type": "occ",
				"energy": -0.28828,
				"method": "rhf"
			},
			{
				"type": "occ",
				"energy": -0.25936,
				"method": "rhf"
			},
			{
				"type": "occ",
				"energy": -0.25936,
				"method": "rhf"
			},
			{
				"type": "unocc",
				"energy": 0.0026,
				"method": "rhf"
			},
			{
				"type": "unocc",
				"energy": 0.07325,
				"method": "rhf"
			},
			{
				"type": "unocc",
				"energy": 0.11995,
				"method": "rhf"
			},
			{
				"type": "unocc",
				"energy": 0.12061,
				"method": "rhf"
			},
			{
				"type": "unocc",
				"energy": 0.12062,
				"method": "rhf"
			}
		],
		"cosmo_sigma_profile": { 
			"-0.025": 0.0,
			"-0.024": 0.0,
			"-0.023": 0.0,
			"-0.022": 0.0,
			"-0.021": 0.0,
			"-0.02": 0.0,
			"-0.019": 0.0,
			"-0.018": 0.0,
			"-0.017": 0.0,
			"-0.016": 0.0,
			"-0.015": 0.0,
			"-0.014": 0.0,
			"-0.013": 0.0,
			"-0.012": 0.0,
			"-0.011": 0.0,
			"-0.01": 0.0,
			"-0.009": 0.0,
			"-0.008": 0.0,
			"-0.007": 0.0,
			"-0.006": 0.0,
			"-0.005": 0.0,
			"-0.004": 1.45381588868,
			"-0.003": 28.3379138837,
			"-0.002": 43.6759196898,
			"-0.001": 39.0955184507,
			"0.0": 30.6606409118,
			"0.001": 18.2701321481,
			"0.002": 4.74710350434,
			"0.003": 5.38595291732,
			"0.004": 5.6327379441,
			"0.005": 4.71347940742,
			"0.006": 7.97798535673,
			"0.007": 10.611191648,
			"0.008": 0.827059861247,
			"0.009": 0.0,
			"0.01": 0.0,
			"0.011": 0.0,
			"0.012": 0.0,
			"0.013": 0.0,
			"0.014": 0.0,
			"0.015": 0.0,
			"0.016": 0.0,
			"0.017": 0.0,
			"0.018": 0.0,
			"0.019": 0.0,
			"0.02": 0.0,
			"0.021": 0.0,
			"0.022": 0.0,
			"0.023": 0.0,
			"0.024": 0.0,
			"0.025": 0.0
		}
	}
}
