{
	 "smiles": "CCCCCCCCCCC(C)O", 
	 "Tm": 292.15, 
	 "num_atms": 39, 
	 "gaussian": { 
		 "optdone": 1, 
		 "sigma_profile": "yes", 
		 "theory": "DFT", 
		 "functional": "B3LYP", 
		 "basiset": "6-31G**", 
		 "properties": { 
			 "R2extent": 4735.2506, 
			 "electric_dipole_moment_norm": 1.3866949953, 
			 "electric_quadrupole_moment_norm": 7.81342378154, 
			 "total_energy": -548.198010886, 
			 "HOMO_LUMO_gap": 0.32907, 
			 "cosmo_polarized_energy": -5.84, 
			 "cosmo_cavitation_energy": 38.33, 
			 "cosmo_dispersion_energy": -25.89, 
			 "cosmo_repulsion_energy": 2.15, 
			 "cosmo_total_nonelectrostatic_energy": 14.59, 
			 "SMD_solvation_energy": 5.45 
		},
		"coords": [
			{
				"x": 1.1970062858,
				"y": 2.587958286,
				"z": 3.6824480506,
				"element": "C" 
			},
			{
				"x": -0.2180587795,
				"y": 2.120820733,
				"z": 4.0447211497,
				"element": "C" 
			},
			{
				"x": -0.9259645507,
				"y": 1.3172715616,
				"z": 2.9407384259,
				"element": "C" 
			},
			{
				"x": -1.2390234466,
				"y": 2.1233245955,
				"z": 1.6707137877,
				"element": "C" 
			},
			{
				"x": -2.0741554856,
				"y": 1.3660560898,
				"z": 0.6243854279,
				"element": "C" 
			},
			{
				"x": -1.3666016969,
				"y": 0.165175218,
				"z": -0.0205409599,
				"element": "C" 
			},
			{
				"x": -2.221306461,
				"y": -0.520021242,
				"z": -1.098864032,
				"element": "C" 
			},
			{
				"x": -1.6061835563,
				"y": -1.7771252634,
				"z": -1.7518791508,
				"element": "C" 
			},
			{
				"x": -0.7307030755,
				"y": -1.5495408315,
				"z": -2.9995604281,
				"element": "C" 
			},
			{
				"x": 0.5970215052,
				"y": -0.7957484422,
				"z": -2.8143177378,
				"element": "C" 
			},
			{
				"x": 1.60537566,
				"y": -1.4863675041,
				"z": -1.8929547062,
				"element": "C" 
			},
			{
				"x": 2.9187706856,
				"y": -0.7079605019,
				"z": -1.7891453705,
				"element": "C" 
			},
			{
				"x": 1.8265361906,
				"y": -2.7929480645,
				"z": -2.432073725,
				"element": "O" 
			},
			{
				"x": 1.6681444503,
				"y": 3.1073560122,
				"z": 4.5235475134,
				"element": "H" 
			},
			{
				"x": 1.1950204427,
				"y": 3.2773313101,
				"z": 2.8319574365,
				"element": "H" 
			},
			{
				"x": 1.8368131595,
				"y": 1.7377379732,
				"z": 3.4175843445,
				"element": "H" 
			},
			{
				"x": -0.1667805842,
				"y": 1.5029919439,
				"z": 4.9505162917,
				"element": "H" 
			},
			{
				"x": -0.8338565129,
				"y": 2.9922280306,
				"z": 4.307280964,
				"element": "H" 
			},
			{
				"x": -0.3105740334,
				"y": 0.4433040907,
				"z": 2.6879917273,
				"element": "H" 
			},
			{
				"x": -1.8679161276,
				"y": 0.9190110882,
				"z": 3.3431731991,
				"element": "H" 
			},
			{
				"x": -0.3051728808,
				"y": 2.4629170445,
				"z": 1.2028701275,
				"element": "H" 
			},
			{
				"x": -1.7808930874,
				"y": 3.034441875,
				"z": 1.9606359378,
				"element": "H" 
			},
			{
				"x": -2.3653111062,
				"y": 2.0685187706,
				"z": -0.1686108377,
				"element": "H" 
			},
			{
				"x": -3.0129829323,
				"y": 1.0273023196,
				"z": 1.0862680475,
				"element": "H" 
			},
			{
				"x": -0.4118271566,
				"y": 0.5025031538,
				"z": -0.4436617124,
				"element": "H" 
			},
			{
				"x": -1.1128436996,
				"y": -0.5762052017,
				"z": 0.7488238047,
				"element": "H" 
			},
			{
				"x": -3.1765367619,
				"y": -0.7999793389,
				"z": -0.6341120372,
				"element": "H" 
			},
			{
				"x": -2.4770982935,
				"y": 0.2088354329,
				"z": -1.8817283927,
				"element": "H" 
			},
			{
				"x": -2.4265882128,
				"y": -2.4365054696,
				"z": -2.0622769819,
				"element": "H" 
			},
			{
				"x": -1.0468269866,
				"y": -2.347365347,
				"z": -0.9979998876,
				"element": "H" 
			},
			{
				"x": -0.498361731,
				"y": -2.5268268732,
				"z": -3.435936317,
				"element": "H" 
			},
			{
				"x": -1.3285633864,
				"y": -1.0099963891,
				"z": -3.7468669843,
				"element": "H" 
			},
			{
				"x": 0.4204645808,
				"y": 0.2188657009,
				"z": -2.4381149823,
				"element": "H" 
			},
			{
				"x": 1.070940963,
				"y": -0.6823384992,
				"z": -3.7984487653,
				"element": "H" 
			},
			{
				"x": 1.168481055,
				"y": -1.5711965248,
				"z": -0.8840759417,
				"element": "H" 
			},
			{
				"x": 3.3796378035,
				"y": -0.605413825,
				"z": -2.7770591225,
				"element": "H" 
			},
			{
				"x": 2.7561491096,
				"y": 0.2930371059,
				"z": -1.3748746035,
				"element": "H" 
			},
			{
				"x": 3.6307753567,
				"y": -1.2243672959,
				"z": -1.1338193422,
				"element": "H" 
			},
			{
				"x": 2.436493297,
				"y": -3.2567817217,
				"z": -1.8446342171,
				"element": "H" 
			}
		],
		 "valence_orbital": [ 
			{
				"type": "occ",
				"energy": -0.30361,
				"method": "rhf"
			},
			{
				"type": "occ",
				"energy": -0.30096,
				"method": "rhf"
			},
			{
				"type": "occ",
				"energy": -0.30031,
				"method": "rhf"
			},
			{
				"type": "occ",
				"energy": -0.29273,
				"method": "rhf"
			},
			{
				"type": "occ",
				"energy": -0.2604,
				"method": "rhf"
			},
			{
				"type": "unocc",
				"energy": 0.06867,
				"method": "rhf"
			},
			{
				"type": "unocc",
				"energy": 0.09038,
				"method": "rhf"
			},
			{
				"type": "unocc",
				"energy": 0.09915,
				"method": "rhf"
			},
			{
				"type": "unocc",
				"energy": 0.10387,
				"method": "rhf"
			},
			{
				"type": "unocc",
				"energy": 0.10949,
				"method": "rhf"
			}
		],
		"cosmo_sigma_profile": { 
			"-0.025": 0.0,
			"-0.024": 0.0,
			"-0.023": 0.0,
			"-0.022": 0.0,
			"-0.021": 0.0,
			"-0.02": 0.0,
			"-0.019": 0.0,
			"-0.018": 0.0,
			"-0.017": 0.0,
			"-0.016": 0.0,
			"-0.015": 0.281879911194,
			"-0.014": 1.14960278338,
			"-0.013": 0.692674291662,
			"-0.012": 1.07165788802,
			"-0.011": 1.19507152176,
			"-0.01": 0.891548608301,
			"-0.009": 0.781281281347,
			"-0.008": 0.474175251188,
			"-0.007": 0.932236064379,
			"-0.006": 1.31720273935,
			"-0.005": 2.04312692342,
			"-0.004": 1.64508601581,
			"-0.003": 9.47716276061,
			"-0.002": 35.9845671672,
			"-0.001": 63.5061864356,
			"0.0": 65.5216398602,
			"0.001": 60.0908959507,
			"0.002": 25.6358668168,
			"0.003": 2.94616203825,
			"0.004": 1.64691589598,
			"0.005": 1.68503576933,
			"0.006": 2.05869591582,
			"0.007": 1.03019327209,
			"0.008": 1.29722837526,
			"0.009": 1.32297832683,
			"0.01": 1.76364680379,
			"0.011": 1.58296862735,
			"0.012": 1.71019348959,
			"0.013": 0.828324287501,
			"0.014": 1.49973982417,
			"0.015": 0.428535009657,
			"0.016": 0.0129754503707,
			"0.017": 0.0,
			"0.018": 0.0,
			"0.019": 0.0,
			"0.02": 0.0,
			"0.021": 0.0,
			"0.022": 0.0,
			"0.023": 0.0,
			"0.024": 0.0,
			"0.025": 0.0
		}
	}
}
