{
	 "smiles": "NC1=C(C=O)C=C(C=O)C2=NC(C3=CC=CC=C3)=C(N=C12)C1=CC=CC=C1", 
	 "Tm": 562.15, 
	 "num_atms": 42, 
	 "gaussian": { 
		 "optdone": 1, 
		 "sigma_profile": "yes", 
		 "theory": "DFT", 
		 "functional": "B3LYP", 
		 "basiset": "6-31G**", 
		 "properties": { 
			 "R2extent": 10611.317, 
			 "electric_dipole_moment_norm": 3.77654707239, 
			 "electric_quadrupole_moment_norm": 14.1792896592, 
			 "total_energy": -1162.09605167, 
			 "HOMO_LUMO_gap": 0.1318, 
			 "cosmo_polarized_energy": -19.14, 
			 "cosmo_cavitation_energy": 46.96, 
			 "cosmo_dispersion_energy": -32.56, 
			 "cosmo_repulsion_energy": 2.41, 
			 "cosmo_total_nonelectrostatic_energy": 16.81, 
			 "SMD_solvation_energy": 7.72 
		},
		"coords": [
			{
				"x": 0.8152325453,
				"y": 3.4896064547,
				"z": 1.9821233002,
				"element": "N" 
			},
			{
				"x": 0.6533391334,
				"y": 2.2248685308,
				"z": 2.3841341409,
				"element": "C" 
			},
			{
				"x": 0.6308950407,
				"y": 1.8476187069,
				"z": 3.751601269,
				"element": "C" 
			},
			{
				"x": 0.7868236978,
				"y": 2.8386354004,
				"z": 4.8051173436,
				"element": "C" 
			},
			{
				"x": 0.9404952092,
				"y": 4.0476253816,
				"z": 4.6313035617,
				"element": "O" 
			},
			{
				"x": 0.4869464185,
				"y": 0.482196262,
				"z": 4.087639887,
				"element": "C" 
			},
			{
				"x": 0.3457430604,
				"y": -0.535422878,
				"z": 3.1620824797,
				"element": "C" 
			},
			{
				"x": 0.2678310851,
				"y": -1.9177578348,
				"z": 3.6688296057,
				"element": "C" 
			},
			{
				"x": 0.2657112485,
				"y": -2.9481159775,
				"z": 3.0231325966,
				"element": "O" 
			},
			{
				"x": 0.3101255253,
				"y": -0.1684784853,
				"z": 1.7681253354,
				"element": "C" 
			},
			{
				"x": 0.0397448202,
				"y": -1.0774230945,
				"z": 0.8090989131,
				"element": "N" 
			},
			{
				"x": 0.0544438966,
				"y": -0.7224113701,
				"z": -0.4688027775,
				"element": "C" 
			},
			{
				"x": -0.4120267269,
				"y": -1.7716508364,
				"z": -1.4144529211,
				"element": "C" 
			},
			{
				"x": -0.2113532601,
				"y": -3.1201836467,
				"z": -1.0682672977,
				"element": "C" 
			},
			{
				"x": -0.6744205544,
				"y": -4.1376135188,
				"z": -1.8985879148,
				"element": "C" 
			},
			{
				"x": -1.3643877541,
				"y": -3.8279909456,
				"z": -3.0733489502,
				"element": "C" 
			},
			{
				"x": -1.5942065019,
				"y": -2.4924505831,
				"z": -3.4099570401,
				"element": "C" 
			},
			{
				"x": -1.119340639,
				"y": -1.4699166654,
				"z": -2.5904646047,
				"element": "C" 
			},
			{
				"x": 0.4567301308,
				"y": 0.6141294835,
				"z": -0.8486196311,
				"element": "C" 
			},
			{
				"x": 0.6028823388,
				"y": 1.5384914402,
				"z": 0.0916981431,
				"element": "N" 
			},
			{
				"x": 0.5025588065,
				"y": 1.1848437076,
				"z": 1.3887085821,
				"element": "C" 
			},
			{
				"x": 0.776370294,
				"y": 1.0453770729,
				"z": -2.2360965313,
				"element": "C" 
			},
			{
				"x": 1.5527288424,
				"y": 0.24254164,
				"z": -3.0873834431,
				"element": "C" 
			},
			{
				"x": 1.9050843526,
				"y": 0.6955169734,
				"z": -4.3574729916,
				"element": "C" 
			},
			{
				"x": 1.4808133543,
				"y": 1.9504413645,
				"z": -4.7999934718,
				"element": "C" 
			},
			{
				"x": 0.710724827,
				"y": 2.756997329,
				"z": -3.9592436919,
				"element": "C" 
			},
			{
				"x": 0.3687630195,
				"y": 2.3119965796,
				"z": -2.6834147052,
				"element": "C" 
			},
			{
				"x": 0.9447462328,
				"y": 4.2024535544,
				"z": 2.6930293367,
				"element": "H" 
			},
			{
				"x": 0.86945108,
				"y": 3.6659260001,
				"z": 0.9890180899,
				"element": "H" 
			},
			{
				"x": 0.7607628817,
				"y": 2.4297510906,
				"z": 5.8367968966,
				"element": "H" 
			},
			{
				"x": 0.4995858479,
				"y": 0.2211899692,
				"z": 5.1454722145,
				"element": "H" 
			},
			{
				"x": 0.2277128515,
				"y": -1.9535939525,
				"z": 4.7841842148,
				"element": "H" 
			},
			{
				"x": 0.2905996644,
				"y": -3.3477506817,
				"z": -0.1339491393,
				"element": "H" 
			},
			{
				"x": -0.5036961149,
				"y": -5.1743938347,
				"z": -1.6237649762,
				"element": "H" 
			},
			{
				"x": -1.7292375469,
				"y": -4.6226721082,
				"z": -3.7179186737,
				"element": "H" 
			},
			{
				"x": -2.1487147764,
				"y": -2.2443072259,
				"z": -4.310272222,
				"element": "H" 
			},
			{
				"x": -1.3153458924,
				"y": -0.4379569829,
				"z": -2.8583711873,
				"element": "H" 
			},
			{
				"x": 1.8887240486,
				"y": -0.7324605874,
				"z": -2.7500430101,
				"element": "H" 
			},
			{
				"x": 2.5144259325,
				"y": 0.0679151208,
				"z": -5.0011134674,
				"element": "H" 
			},
			{
				"x": 1.7509513841,
				"y": 2.2984916566,
				"z": -5.7927364645,
				"element": "H" 
			},
			{
				"x": 0.3777046718,
				"y": 3.7343435633,
				"z": -4.2965507276,
				"element": "H" 
			},
			{
				"x": -0.2208224751,
				"y": 2.9386939273,
				"z": -2.0221700703,
				"element": "H" 
			}
		],
		 "valence_orbital": [ 
			{
				"type": "occ",
				"energy": -0.26033,
				"method": "rhf"
			},
			{
				"type": "occ",
				"energy": -0.25107,
				"method": "rhf"
			},
			{
				"type": "occ",
				"energy": -0.23356,
				"method": "rhf"
			},
			{
				"type": "occ",
				"energy": -0.23006,
				"method": "rhf"
			},
			{
				"type": "occ",
				"energy": -0.22107,
				"method": "rhf"
			},
			{
				"type": "unocc",
				"energy": -0.08927,
				"method": "rhf"
			},
			{
				"type": "unocc",
				"energy": -0.067,
				"method": "rhf"
			},
			{
				"type": "unocc",
				"energy": -0.04207,
				"method": "rhf"
			},
			{
				"type": "unocc",
				"energy": -0.02803,
				"method": "rhf"
			},
			{
				"type": "unocc",
				"energy": -0.01492,
				"method": "rhf"
			}
		],
		"cosmo_sigma_profile": { 
			"-0.025": 0.0,
			"-0.024": 0.0,
			"-0.023": 0.0,
			"-0.022": 0.0,
			"-0.021": 0.0,
			"-0.02": 0.0,
			"-0.019": 0.0,
			"-0.018": 0.0,
			"-0.017": 0.0,
			"-0.016": 0.0,
			"-0.015": 0.0,
			"-0.014": 0.0077571027288,
			"-0.013": 0.629881359526,
			"-0.012": 0.608723491155,
			"-0.011": 1.29651198522,
			"-0.01": 2.03700828074,
			"-0.009": 3.07951094121,
			"-0.008": 6.13746754067,
			"-0.007": 6.47406711763,
			"-0.006": 19.7692665461,
			"-0.005": 26.4693649914,
			"-0.004": 32.5505033554,
			"-0.003": 27.3757451175,
			"-0.002": 32.7273474331,
			"-0.001": 32.7972068913,
			"0.0": 30.9793431431,
			"0.001": 27.8833219287,
			"0.002": 20.3558653478,
			"0.003": 21.7739526683,
			"0.004": 24.8891823068,
			"0.005": 18.7906561918,
			"0.006": 5.32370001145,
			"0.007": 5.10153829139,
			"0.008": 3.65841444888,
			"0.009": 4.1307092929,
			"0.01": 6.00758721877,
			"0.011": 6.93720610233,
			"0.012": 5.87170802044,
			"0.013": 3.64572293772,
			"0.014": 1.1053014093,
			"0.015": 0.252675064629,
			"0.016": 0.0037118509576,
			"0.017": 0.0,
			"0.018": 0.0,
			"0.019": 0.0,
			"0.02": 0.0,
			"0.021": 0.0,
			"0.022": 0.0,
			"0.023": 0.0,
			"0.024": 0.0,
			"0.025": 0.0
		}
	}
}
