{
	 "smiles": "NC(=S)C1=CC(=NC=C1)N1C=NC=N1", 
	 "Tm": 532.15, 
	 "num_atms": 21, 
	 "gaussian": { 
		 "optdone": 1, 
		 "sigma_profile": "yes", 
		 "theory": "DFT", 
		 "functional": "B3LYP", 
		 "basiset": "6-31G**", 
		 "properties": { 
			 "R2extent": 4024.6728, 
			 "electric_dipole_moment_norm": 3.61747807734, 
			 "electric_quadrupole_moment_norm": 16.3304072022, 
			 "total_energy": -980.992064354, 
			 "HOMO_LUMO_gap": 0.1409, 
			 "cosmo_polarized_energy": -24.76, 
			 "cosmo_cavitation_energy": 28.35, 
			 "cosmo_dispersion_energy": -21.14, 
			 "cosmo_repulsion_energy": 1.61, 
			 "cosmo_total_nonelectrostatic_energy": 8.82, 
			 "SMD_solvation_energy": 0.74 
		},
		"coords": [
			{
				"x": 2.1996081558,
				"y": -0.0492566802,
				"z": -2.0990342332,
				"element": "N" 
			},
			{
				"x": 1.8867761495,
				"y": -1.1615577691,
				"z": -1.3976161993,
				"element": "C" 
			},
			{
				"x": 2.6385249226,
				"y": -2.6227622272,
				"z": -1.6483659861,
				"element": "S" 
			},
			{
				"x": 0.8416690133,
				"y": -0.9654916282,
				"z": -0.3470434565,
				"element": "C" 
			},
			{
				"x": 0.7587971473,
				"y": 0.2319893578,
				"z": 0.3741009332,
				"element": "C" 
			},
			{
				"x": -0.2323761473,
				"y": 0.3471209826,
				"z": 1.3554102273,
				"element": "C" 
			},
			{
				"x": -1.1344367571,
				"y": -0.5914781849,
				"z": 1.6202615659,
				"element": "N" 
			},
			{
				"x": -1.0605024113,
				"y": -1.7216614959,
				"z": 0.9064801102,
				"element": "C" 
			},
			{
				"x": -0.0908618495,
				"y": -1.9702801453,
				"z": -0.0615396807,
				"element": "C" 
			},
			{
				"x": -0.2934942994,
				"y": 1.5321602506,
				"z": 2.1376003516,
				"element": "N" 
			},
			{
				"x": 0.7343928358,
				"y": 2.313169063,
				"z": 2.5794855239,
				"element": "C" 
			},
			{
				"x": 0.2737103601,
				"y": 3.3232703332,
				"z": 3.2860463306,
				"element": "N" 
			},
			{
				"x": -1.0780235365,
				"y": 3.1156285003,
				"z": 3.2498727227,
				"element": "C" 
			},
			{
				"x": -1.4755336956,
				"y": 2.050160128,
				"z": 2.5774715508,
				"element": "N" 
			},
			{
				"x": 2.8850270851,
				"y": -0.1282790335,
				"z": -2.8368658456,
				"element": "H" 
			},
			{
				"x": 1.6079660415,
				"y": 0.7689366899,
				"z": -2.0800257199,
				"element": "H" 
			},
			{
				"x": 1.4529124177,
				"y": 1.0453872567,
				"z": 0.1949103977,
				"element": "H" 
			},
			{
				"x": -1.8132581102,
				"y": -2.4733596349,
				"z": 1.1323582821,
				"element": "H" 
			},
			{
				"x": -0.053209896,
				"y": -2.9135634538,
				"z": -0.5931773204,
				"element": "H" 
			},
			{
				"x": 1.7733277658,
				"y": 2.0851413475,
				"z": 2.3874439784,
				"element": "H" 
			},
			{
				"x": -1.7876151916,
				"y": 3.7732263435,
				"z": 3.7327264673,
				"element": "H" 
			}
		],
		 "valence_orbital": [ 
			{
				"type": "occ",
				"energy": -0.28544,
				"method": "rhf"
			},
			{
				"type": "occ",
				"energy": -0.2783,
				"method": "rhf"
			},
			{
				"type": "occ",
				"energy": -0.26424,
				"method": "rhf"
			},
			{
				"type": "occ",
				"energy": -0.25321,
				"method": "rhf"
			},
			{
				"type": "occ",
				"energy": -0.22905,
				"method": "rhf"
			},
			{
				"type": "unocc",
				"energy": -0.08815,
				"method": "rhf"
			},
			{
				"type": "unocc",
				"energy": -0.05074,
				"method": "rhf"
			},
			{
				"type": "unocc",
				"energy": -0.01666,
				"method": "rhf"
			},
			{
				"type": "unocc",
				"energy": 0.01162,
				"method": "rhf"
			},
			{
				"type": "unocc",
				"energy": 0.04492,
				"method": "rhf"
			}
		],
		"cosmo_sigma_profile": { 
			"-0.025": 0.0,
			"-0.024": 0.0,
			"-0.023": 0.0,
			"-0.022": 0.0,
			"-0.021": 0.0,
			"-0.02": 0.0,
			"-0.019": 0.0,
			"-0.018": 0.0,
			"-0.017": 0.0362477627662,
			"-0.016": 1.07644157788,
			"-0.015": 2.85187390689,
			"-0.014": 3.04326559143,
			"-0.013": 2.95459468289,
			"-0.012": 2.65217682977,
			"-0.011": 6.20502935809,
			"-0.01": 5.15992420196,
			"-0.009": 5.68900851827,
			"-0.008": 7.87759130342,
			"-0.007": 8.53534208888,
			"-0.006": 8.84346949259,
			"-0.005": 8.79577972953,
			"-0.004": 9.09424378463,
			"-0.003": 9.8279000287,
			"-0.002": 15.8106938771,
			"-0.001": 14.5864521451,
			"0.0": 14.4733185306,
			"0.001": 12.3055047241,
			"0.002": 8.89389690382,
			"0.003": 9.67106009628,
			"0.004": 7.50559640038,
			"0.005": 8.38675246689,
			"0.006": 8.14933557708,
			"0.007": 9.11256973856,
			"0.008": 9.40917020689,
			"0.009": 7.59291202948,
			"0.01": 5.64857985964,
			"0.011": 4.156449872,
			"0.012": 3.26090211872,
			"0.013": 2.25755821539,
			"0.014": 3.05013204852,
			"0.015": 2.66273451892,
			"0.016": 1.94180645606,
			"0.017": 0.075055039787,
			"0.018": 0.0,
			"0.019": 0.0,
			"0.02": 0.0,
			"0.021": 0.0,
			"0.022": 0.0,
			"0.023": 0.0,
			"0.024": 0.0,
			"0.025": 0.0
		}
	}
}
