{
	 "smiles": "CC(O)(C(O)=O)C1=CC=C(F)C=C1", 
	 "Tm": 363.15, 
	 "num_atms": 22, 
	 "gaussian": { 
		 "optdone": 1, 
		 "sigma_profile": "yes", 
		 "theory": "DFT", 
		 "functional": "B3LYP", 
		 "basiset": "6-31G**", 
		 "properties": { 
			 "R2extent": 2682.2649, 
			 "electric_dipole_moment_norm": 4.06580560037, 
			 "electric_quadrupole_moment_norm": 14.7249809069, 
			 "total_energy": -673.896519555, 
			 "HOMO_LUMO_gap": 0.22655, 
			 "cosmo_polarized_energy": -14.25, 
			 "cosmo_cavitation_energy": 26.21, 
			 "cosmo_dispersion_energy": -18.82, 
			 "cosmo_repulsion_energy": 1.47, 
			 "cosmo_total_nonelectrostatic_energy": 8.86, 
			 "SMD_solvation_energy": 6.38 
		},
		"coords": [
			{
				"x": 1.095582166,
				"y": 0.5284387234,
				"z": 1.9955198521,
				"element": "C" 
			},
			{
				"x": 1.4584838588,
				"y": 0.1453565798,
				"z": 0.5557505745,
				"element": "C" 
			},
			{
				"x": 2.6012896322,
				"y": -0.734461389,
				"z": 0.5371555358,
				"element": "O" 
			},
			{
				"x": 1.824209017,
				"y": 1.4251638257,
				"z": -0.2474409432,
				"element": "C" 
			},
			{
				"x": 2.9075298875,
				"y": 1.2896510694,
				"z": -1.0266175806,
				"element": "O" 
			},
			{
				"x": 1.1839880797,
				"y": 2.4491959057,
				"z": -0.1876508871,
				"element": "O" 
			},
			{
				"x": 0.2998845536,
				"y": -0.5788363862,
				"z": -0.1387632679,
				"element": "C" 
			},
			{
				"x": -0.8530637868,
				"y": 0.1272210615,
				"z": -0.5137875381,
				"element": "C" 
			},
			{
				"x": -1.9302358667,
				"y": -0.5311272031,
				"z": -1.1035790353,
				"element": "C" 
			},
			{
				"x": -1.8431630647,
				"y": -1.9023314967,
				"z": -1.3172216056,
				"element": "C" 
			},
			{
				"x": -2.8829149283,
				"y": -2.5442904996,
				"z": -1.8887987349,
				"element": "F" 
			},
			{
				"x": -0.7137308872,
				"y": -2.6279093546,
				"z": -0.9608588626,
				"element": "C" 
			},
			{
				"x": 0.358372226,
				"y": -1.9582893274,
				"z": -0.3697081391,
				"element": "C" 
			},
			{
				"x": 0.2681517801,
				"y": 1.2387562233,
				"z": 1.9972581505,
				"element": "H" 
			},
			{
				"x": 0.8038084198,
				"y": -0.3639642257,
				"z": 2.5554264364,
				"element": "H" 
			},
			{
				"x": 1.9444904586,
				"y": 1.0110887455,
				"z": 2.496374817,
				"element": "H" 
			},
			{
				"x": 3.1344256375,
				"y": -0.5458241284,
				"z": 1.3210965817,
				"element": "H" 
			},
			{
				"x": 3.248523737,
				"y": 0.3885257388,
				"z": -0.8591865883,
				"element": "H" 
			},
			{
				"x": -0.9005267679,
				"y": 1.1996712097,
				"z": -0.357816387,
				"element": "H" 
			},
			{
				"x": -2.8259029078,
				"y": 0.0031769994,
				"z": -1.4011474194,
				"element": "H" 
			},
			{
				"x": -0.6810407941,
				"y": -3.6959308481,
				"z": -1.1474198068,
				"element": "H" 
			},
			{
				"x": 1.2478395498,
				"y": -2.5082812234,
				"z": -0.087785152,
				"element": "H" 
			}
		],
		 "valence_orbital": [ 
			{
				"type": "occ",
				"energy": -0.34502,
				"method": "rhf"
			},
			{
				"type": "occ",
				"energy": -0.31539,
				"method": "rhf"
			},
			{
				"type": "occ",
				"energy": -0.26949,
				"method": "rhf"
			},
			{
				"type": "occ",
				"energy": -0.26371,
				"method": "rhf"
			},
			{
				"type": "occ",
				"energy": -0.24251,
				"method": "rhf"
			},
			{
				"type": "unocc",
				"energy": -0.01596,
				"method": "rhf"
			},
			{
				"type": "unocc",
				"energy": -0.01327,
				"method": "rhf"
			},
			{
				"type": "unocc",
				"energy": 0.01437,
				"method": "rhf"
			},
			{
				"type": "unocc",
				"energy": 0.04461,
				"method": "rhf"
			},
			{
				"type": "unocc",
				"energy": 0.09453,
				"method": "rhf"
			}
		],
		"cosmo_sigma_profile": { 
			"-0.025": 0.0,
			"-0.024": 0.0,
			"-0.023": 0.0,
			"-0.022": 0.0,
			"-0.021": 0.0,
			"-0.02": 0.0,
			"-0.019": 0.0,
			"-0.018": 0.0736444936914,
			"-0.017": 1.02167061829,
			"-0.016": 1.06403173475,
			"-0.015": 1.596706342,
			"-0.014": 1.15481807623,
			"-0.013": 2.0791389301,
			"-0.012": 1.86013776108,
			"-0.011": 1.99004949873,
			"-0.01": 2.00526141766,
			"-0.009": 1.66716038082,
			"-0.008": 2.28792867424,
			"-0.007": 6.32443410439,
			"-0.006": 6.18899748378,
			"-0.005": 11.2612410272,
			"-0.004": 13.5637818218,
			"-0.003": 11.4868452462,
			"-0.002": 14.7374675559,
			"-0.001": 11.8030931985,
			"0.0": 12.6962438494,
			"0.001": 17.7295786491,
			"0.002": 15.1562831736,
			"0.003": 15.597980972,
			"0.004": 20.3297405919,
			"0.005": 7.53707468019,
			"0.006": 3.06062426687,
			"0.007": 2.65491264136,
			"0.008": 3.94490582085,
			"0.009": 3.79768930406,
			"0.01": 4.79025279922,
			"0.011": 4.01910417635,
			"0.012": 3.55278667967,
			"0.013": 1.20129880109,
			"0.014": 0.0,
			"0.015": 0.0,
			"0.016": 0.0,
			"0.017": 0.0,
			"0.018": 0.0,
			"0.019": 0.0,
			"0.02": 0.0,
			"0.021": 0.0,
			"0.022": 0.0,
			"0.023": 0.0,
			"0.024": 0.0,
			"0.025": 0.0
		}
	}
}
