{
	 "smiles": "OC(=O)C1=CC2=C(C=C1)C(=O)N(C1CCCCC1)C2=O", 
	 "Tm": 467.15, 
	 "num_atms": 35, 
	 "gaussian": { 
		 "optdone": 1, 
		 "sigma_profile": "yes", 
		 "theory": "DFT", 
		 "functional": "B3LYP", 
		 "basiset": "6-31G**", 
		 "properties": { 
			 "R2extent": 8388.5361, 
			 "electric_dipole_moment_norm": 0.522685000741, 
			 "electric_quadrupole_moment_norm": 10.19176963, 
			 "total_energy": -936.345475835, 
			 "HOMO_LUMO_gap": 0.17173, 
			 "cosmo_polarized_energy": -13.54, 
			 "cosmo_cavitation_energy": 37.83, 
			 "cosmo_dispersion_energy": -27.28, 
			 "cosmo_repulsion_energy": 2.07, 
			 "cosmo_total_nonelectrostatic_energy": 12.61, 
			 "SMD_solvation_energy": 7.9 
		},
		"coords": [
			{
				"x": -1.3639549271,
				"y": -3.1015023015,
				"z": 5.7168891223,
				"element": "O" 
			},
			{
				"x": -0.152627292,
				"y": -2.5019353082,
				"z": 5.7889880959,
				"element": "C" 
			},
			{
				"x": 0.5234961567,
				"y": -2.5137832466,
				"z": 6.7974450549,
				"element": "O" 
			},
			{
				"x": 0.2422645941,
				"y": -1.8407792201,
				"z": 4.5115972427,
				"element": "C" 
			},
			{
				"x": -0.5899156318,
				"y": -1.8650069517,
				"z": 3.3781181965,
				"element": "C" 
			},
			{
				"x": -0.129803842,
				"y": -1.2201762818,
				"z": 2.2417260316,
				"element": "C" 
			},
			{
				"x": 1.1050636774,
				"y": -0.5719420525,
				"z": 2.2149342306,
				"element": "C" 
			},
			{
				"x": 1.9357899172,
				"y": -0.54088375,
				"z": 3.3262967123,
				"element": "C" 
			},
			{
				"x": 1.4863301235,
				"y": -1.1870322508,
				"z": 4.4813777166,
				"element": "C" 
			},
			{
				"x": 1.2962902331,
				"y": 0.0162891412,
				"z": 0.8519598836,
				"element": "C" 
			},
			{
				"x": 2.2477856644,
				"y": 0.6567090771,
				"z": 0.44479907,
				"element": "O" 
			},
			{
				"x": 0.1478051163,
				"y": -0.320861768,
				"z": 0.1230679249,
				"element": "N" 
			},
			{
				"x": -0.1342686112,
				"y": 0.0569813371,
				"z": -1.2723240689,
				"element": "C" 
			},
			{
				"x": -0.3003869879,
				"y": 1.5844491291,
				"z": -1.4158681977,
				"element": "C" 
			},
			{
				"x": -0.3301940062,
				"y": 1.9643949005,
				"z": -2.9029983808,
				"element": "C" 
			},
			{
				"x": 1.0208033503,
				"y": 1.6581273043,
				"z": -3.6002285847,
				"element": "C" 
			},
			{
				"x": 1.8245094898,
				"y": 0.5622308056,
				"z": -2.8658222334,
				"element": "C" 
			},
			{
				"x": 0.9059838164,
				"y": -0.5186020402,
				"z": -2.2797138795,
				"element": "C" 
			},
			{
				"x": -0.7638463403,
				"y": -1.0655861523,
				"z": 0.8988521845,
				"element": "C" 
			},
			{
				"x": -1.8399350466,
				"y": -1.4801097805,
				"z": 0.5175014767,
				"element": "O" 
			},
			{
				"x": -1.5223869705,
				"y": -3.4958044333,
				"z": 6.5904214782,
				"element": "H" 
			},
			{
				"x": -1.5500192465,
				"y": -2.3670613667,
				"z": 3.3950486122,
				"element": "H" 
			},
			{
				"x": 2.8942782761,
				"y": -0.033600982,
				"z": 3.293711631,
				"element": "H" 
			},
			{
				"x": 2.0873194981,
				"y": -1.1996442138,
				"z": 5.3842933817,
				"element": "H" 
			},
			{
				"x": -1.1022697547,
				"y": -0.413889512,
				"z": -1.4642290844,
				"element": "H" 
			},
			{
				"x": -1.2215046036,
				"y": 1.8962134197,
				"z": -0.9113394765,
				"element": "H" 
			},
			{
				"x": 0.5308484921,
				"y": 2.094159784,
				"z": -0.9177355602,
				"element": "H" 
			},
			{
				"x": -0.5873086297,
				"y": 3.0229335343,
				"z": -3.0147729559,
				"element": "H" 
			},
			{
				"x": -1.1393465934,
				"y": 1.4043143374,
				"z": -3.3904692345,
				"element": "H" 
			},
			{
				"x": 1.6284897811,
				"y": 2.5686464222,
				"z": -3.6552889934,
				"element": "H" 
			},
			{
				"x": 0.8315494299,
				"y": 1.3535695178,
				"z": -4.6364984796,
				"element": "H" 
			},
			{
				"x": 2.5464860043,
				"y": 0.1033429711,
				"z": -3.5506915882,
				"element": "H" 
			},
			{
				"x": 2.4038264564,
				"y": 1.002872482,
				"z": -2.0492857135,
				"element": "H" 
			},
			{
				"x": 1.4947254794,
				"y": -1.3022186319,
				"z": -1.7927997399,
				"element": "H" 
			},
			{
				"x": 0.3573229271,
				"y": -1.0089139194,
				"z": -3.0934618751,
				"element": "H" 
			}
		],
		 "valence_orbital": [ 
			{
				"type": "occ",
				"energy": -0.289,
				"method": "rhf"
			},
			{
				"type": "occ",
				"energy": -0.2884,
				"method": "rhf"
			},
			{
				"type": "occ",
				"energy": -0.28656,
				"method": "rhf"
			},
			{
				"type": "occ",
				"energy": -0.27219,
				"method": "rhf"
			},
			{
				"type": "occ",
				"energy": -0.2675,
				"method": "rhf"
			},
			{
				"type": "unocc",
				"energy": -0.09577,
				"method": "rhf"
			},
			{
				"type": "unocc",
				"energy": -0.05774,
				"method": "rhf"
			},
			{
				"type": "unocc",
				"energy": -0.0149,
				"method": "rhf"
			},
			{
				"type": "unocc",
				"energy": 0.06622,
				"method": "rhf"
			},
			{
				"type": "unocc",
				"energy": 0.06678,
				"method": "rhf"
			}
		],
		"cosmo_sigma_profile": { 
			"-0.025": 0.0,
			"-0.024": 0.0,
			"-0.023": 0.0,
			"-0.022": 0.0,
			"-0.021": 0.0,
			"-0.02": 0.0,
			"-0.019": 0.469478964004,
			"-0.018": 1.21369754786,
			"-0.017": 0.507106560002,
			"-0.016": 0.962556080311,
			"-0.015": 0.702124840871,
			"-0.014": 0.451422986487,
			"-0.013": 0.581597812649,
			"-0.012": 0.706132484162,
			"-0.011": 0.990687062276,
			"-0.01": 0.405923291198,
			"-0.009": 0.725382700245,
			"-0.008": 3.03924334272,
			"-0.007": 5.31526928264,
			"-0.006": 6.97123991184,
			"-0.005": 7.62334825609,
			"-0.004": 16.4136431181,
			"-0.003": 29.4790733124,
			"-0.002": 36.9594531584,
			"-0.001": 46.4560889799,
			"0.0": 41.2005590062,
			"0.001": 24.5714149313,
			"0.002": 9.59583889013,
			"0.003": 6.26318290495,
			"0.004": 8.4292692761,
			"0.005": 5.50068392371,
			"0.006": 5.88982124829,
			"0.007": 4.49511351004,
			"0.008": 4.54709552743,
			"0.009": 6.25401159369,
			"0.01": 7.74832410329,
			"0.011": 11.7602193245,
			"0.012": 3.01851043926,
			"0.013": 0.0,
			"0.014": 0.0,
			"0.015": 0.0,
			"0.016": 0.0,
			"0.017": 0.0,
			"0.018": 0.0,
			"0.019": 0.0,
			"0.02": 0.0,
			"0.021": 0.0,
			"0.022": 0.0,
			"0.023": 0.0,
			"0.024": 0.0,
			"0.025": 0.0
		}
	}
}
