{
	 "smiles": "OC(=O)C1=C(C=CC=C1)S(=O)(=O)N1CCCCC1", 
	 "Tm": 380.15, 
	 "num_atms": 33, 
	 "gaussian": { 
		 "optdone": 1, 
		 "sigma_profile": "yes", 
		 "theory": "DFT", 
		 "functional": "B3LYP", 
		 "basiset": "6-31G**", 
		 "properties": { 
			 "R2extent": 5378.5852, 
			 "electric_dipole_moment_norm": 4.44648987967, 
			 "electric_quadrupole_moment_norm": 19.2145808037, 
			 "total_energy": -1220.08875723, 
			 "HOMO_LUMO_gap": 0.17507, 
			 "cosmo_polarized_energy": -16.96, 
			 "cosmo_cavitation_energy": 35.6, 
			 "cosmo_dispersion_energy": -26.03, 
			 "cosmo_repulsion_energy": 1.97, 
			 "cosmo_total_nonelectrostatic_energy": 11.54, 
			 "SMD_solvation_energy": 5.12 
		},
		"coords": [
			{
				"x": -0.0886916084,
				"y": -2.0849425626,
				"z": -3.8977019151,
				"element": "O" 
			},
			{
				"x": 0.1479909608,
				"y": -1.5245035347,
				"z": -2.6879151331,
				"element": "C" 
			},
			{
				"x": 1.0442835576,
				"y": -1.8989940113,
				"z": -1.9646572664,
				"element": "O" 
			},
			{
				"x": -0.8693341693,
				"y": -0.4784903004,
				"z": -2.3546337358,
				"element": "C" 
			},
			{
				"x": -0.5696743115,
				"y": 0.7169802359,
				"z": -1.6700050974,
				"element": "C" 
			},
			{
				"x": -1.5940537486,
				"y": 1.6030984759,
				"z": -1.3323104931,
				"element": "C" 
			},
			{
				"x": -2.921901504,
				"y": 1.3044356908,
				"z": -1.6439414315,
				"element": "C" 
			},
			{
				"x": -3.2267939874,
				"y": 0.1305748668,
				"z": -2.3278876328,
				"element": "C" 
			},
			{
				"x": -2.2036026199,
				"y": -0.7446028185,
				"z": -2.6906298339,
				"element": "C" 
			},
			{
				"x": 1.1228184282,
				"y": 1.2826597142,
				"z": -1.3075351857,
				"element": "S" 
			},
			{
				"x": 0.9718976864,
				"y": 2.6954102865,
				"z": -0.9308110706,
				"element": "O" 
			},
			{
				"x": 1.9743278667,
				"y": 0.9012528072,
				"z": -2.4364755245,
				"element": "O" 
			},
			{
				"x": 1.5909575611,
				"y": 0.4295758448,
				"z": 0.0423842633,
				"element": "N" 
			},
			{
				"x": 1.1794849887,
				"y": 0.9853542601,
				"z": 1.3500267612,
				"element": "C" 
			},
			{
				"x": 1.6736114238,
				"y": 0.0591416901,
				"z": 2.4632791194,
				"element": "C" 
			},
			{
				"x": 3.2134685086,
				"y": -0.048466357,
				"z": 2.4792991427,
				"element": "C" 
			},
			{
				"x": 3.8034261705,
				"y": -0.0008571979,
				"z": 1.047160413,
				"element": "C" 
			},
			{
				"x": 2.7801625731,
				"y": -0.4504994142,
				"z": 0.0009098436,
				"element": "C" 
			},
			{
				"x": 0.586271823,
				"y": -2.7762077809,
				"z": -4.0054827402,
				"element": "H" 
			},
			{
				"x": -1.3328825155,
				"y": 2.5379388246,
				"z": -0.8509713229,
				"element": "H" 
			},
			{
				"x": -3.7081206093,
				"y": 2.000435079,
				"z": -1.3676129773,
				"element": "H" 
			},
			{
				"x": -4.2542278994,
				"y": -0.1031475418,
				"z": -2.5895306349,
				"element": "H" 
			},
			{
				"x": -2.4311919203,
				"y": -1.6538307555,
				"z": -3.2354708643,
				"element": "H" 
			},
			{
				"x": 1.5794686928,
				"y": 1.9979854145,
				"z": 1.4866259025,
				"element": "H" 
			},
			{
				"x": 0.0863735143,
				"y": 1.0600820084,
				"z": 1.3775554594,
				"element": "H" 
			},
			{
				"x": 1.3024090319,
				"y": 0.43318814,
				"z": 3.4233638674,
				"element": "H" 
			},
			{
				"x": 1.2258202127,
				"y": -0.9308020747,
				"z": 2.3186612536,
				"element": "H" 
			},
			{
				"x": 3.6374333168,
				"y": 0.7666611954,
				"z": 3.0765390616,
				"element": "H" 
			},
			{
				"x": 3.5005690665,
				"y": -0.9797007953,
				"z": 2.9801549445,
				"element": "H" 
			},
			{
				"x": 4.123338083,
				"y": 1.0186493413,
				"z": 0.8030177923,
				"element": "H" 
			},
			{
				"x": 4.6942708795,
				"y": -0.6344961967,
				"z": 0.9740885931,
				"element": "H" 
			},
			{
				"x": 3.1941579107,
				"y": -0.4095374924,
				"z": -1.0054917857,
				"element": "H" 
			},
			{
				"x": 2.4634326369,
				"y": -1.4842450417,
				"z": 0.1748982276,
				"element": "H" 
			}
		],
		 "valence_orbital": [ 
			{
				"type": "occ",
				"energy": -0.29361,
				"method": "rhf"
			},
			{
				"type": "occ",
				"energy": -0.28767,
				"method": "rhf"
			},
			{
				"type": "occ",
				"energy": -0.27547,
				"method": "rhf"
			},
			{
				"type": "occ",
				"energy": -0.27048,
				"method": "rhf"
			},
			{
				"type": "occ",
				"energy": -0.23269,
				"method": "rhf"
			},
			{
				"type": "unocc",
				"energy": -0.05762,
				"method": "rhf"
			},
			{
				"type": "unocc",
				"energy": -0.0295,
				"method": "rhf"
			},
			{
				"type": "unocc",
				"energy": 0.02954,
				"method": "rhf"
			},
			{
				"type": "unocc",
				"energy": 0.0594,
				"method": "rhf"
			},
			{
				"type": "unocc",
				"energy": 0.07549,
				"method": "rhf"
			}
		],
		"cosmo_sigma_profile": { 
			"-0.025": 0.0,
			"-0.024": 0.0,
			"-0.023": 0.0,
			"-0.022": 0.0,
			"-0.021": 0.0,
			"-0.02": 0.0,
			"-0.019": 0.438451803976,
			"-0.018": 0.762795383152,
			"-0.017": 1.2566277164,
			"-0.016": 0.3575291683,
			"-0.015": 0.735652024089,
			"-0.014": 0.545295879087,
			"-0.013": 0.374310322253,
			"-0.012": 1.17804992863,
			"-0.011": 0.718021314507,
			"-0.01": 0.602079853816,
			"-0.009": 0.599517642224,
			"-0.008": 2.05721478098,
			"-0.007": 8.9877874888,
			"-0.006": 10.454216969,
			"-0.005": 10.6179026163,
			"-0.004": 16.4272938596,
			"-0.003": 33.8741075994,
			"-0.002": 36.8474509195,
			"-0.001": 24.7636307694,
			"0.0": 22.8364271819,
			"0.001": 21.2437296667,
			"0.002": 17.7390565967,
			"0.003": 8.00459810381,
			"0.004": 5.71344411247,
			"0.005": 5.10140522107,
			"0.006": 6.17673633726,
			"0.007": 6.87743591612,
			"0.008": 6.49487129771,
			"0.009": 7.98859116304,
			"0.01": 8.98543730334,
			"0.011": 7.51686170658,
			"0.012": 4.40067329731,
			"0.013": 0.081408492533,
			"0.014": 0.0,
			"0.015": 0.0,
			"0.016": 0.0,
			"0.017": 0.0,
			"0.018": 0.0,
			"0.019": 0.0,
			"0.02": 0.0,
			"0.021": 0.0,
			"0.022": 0.0,
			"0.023": 0.0,
			"0.024": 0.0,
			"0.025": 0.0
		}
	}
}
