{
	 "smiles": "CC1(NC(=O)NC1=O)C1=CC(=CC=C1)[N+]([O-])=O", 
	 "Tm": 452.15, 
	 "num_atms": 26, 
	 "gaussian": { 
		 "optdone": 1, 
		 "sigma_profile": "yes", 
		 "theory": "DFT", 
		 "functional": "B3LYP", 
		 "basiset": "6-31G**", 
		 "properties": { 
			 "R2extent": 4662.6043, 
			 "electric_dipole_moment_norm": 4.35969784848, 
			 "electric_quadrupole_moment_norm": 31.2435714298, 
			 "total_energy": -851.580100384, 
			 "HOMO_LUMO_gap": 0.18045, 
			 "cosmo_polarized_energy": -21.37, 
			 "cosmo_cavitation_energy": 31.41, 
			 "cosmo_dispersion_energy": -22.13, 
			 "cosmo_repulsion_energy": 1.72, 
			 "cosmo_total_nonelectrostatic_energy": 11.0, 
			 "SMD_solvation_energy": 9.39 
		},
		"coords": [
			{
				"x": 0.0988965013,
				"y": -2.2622551675,
				"z": -0.1152153482,
				"element": "C" 
			},
			{
				"x": 0.1341016879,
				"y": -0.8557827652,
				"z": 0.518428383,
				"element": "C" 
			},
			{
				"x": 1.4715054593,
				"y": -0.5151186425,
				"z": 0.9995683896,
				"element": "N" 
			},
			{
				"x": 1.5687156114,
				"y": -0.4793108556,
				"z": 2.3744084115,
				"element": "C" 
			},
			{
				"x": 2.5629547889,
				"y": -0.3507648385,
				"z": 3.0539387527,
				"element": "O" 
			},
			{
				"x": 0.2491487008,
				"y": -0.6236451589,
				"z": 2.8482309095,
				"element": "N" 
			},
			{
				"x": -0.6662086205,
				"y": -0.8779692864,
				"z": 1.8527294979,
				"element": "C" 
			},
			{
				"x": -1.851058438,
				"y": -1.0965326704,
				"z": 1.9776557047,
				"element": "O" 
			},
			{
				"x": -0.448100972,
				"y": 0.2032748524,
				"z": -0.4253746336,
				"element": "C" 
			},
			{
				"x": -1.7571095872,
				"y": 0.0596180285,
				"z": -0.9018195957,
				"element": "C" 
			},
			{
				"x": -2.2692372115,
				"y": 1.0192406081,
				"z": -1.7686711771,
				"element": "C" 
			},
			{
				"x": -1.5328491666,
				"y": 2.1268302283,
				"z": -2.1844607969,
				"element": "C" 
			},
			{
				"x": -0.2366609606,
				"y": 2.267347211,
				"z": -1.6988936893,
				"element": "C" 
			},
			{
				"x": 0.299449725,
				"y": 1.3175484619,
				"z": -0.8248174238,
				"element": "C" 
			},
			{
				"x": -3.6470716129,
				"y": 0.8545627105,
				"z": -2.2691962808,
				"element": "N" 
			},
			{
				"x": -4.2660417065,
				"y": -0.1486510733,
				"z": -1.9197530226,
				"element": "O" 
			},
			{
				"x": -4.0900720034,
				"y": 1.731065827,
				"z": -3.0103781119,
				"element": "O" 
			},
			{
				"x": 0.6780913045,
				"y": -2.2709214015,
				"z": -1.0436188179,
				"element": "H" 
			},
			{
				"x": -0.9273208402,
				"y": -2.5545371697,
				"z": -0.345240108,
				"element": "H" 
			},
			{
				"x": 0.5220819736,
				"y": -2.9997270967,
				"z": 0.5730513269,
				"element": "H" 
			},
			{
				"x": 2.3074740277,
				"y": -0.7167391977,
				"z": 0.4703211314,
				"element": "H" 
			},
			{
				"x": 0.0250026682,
				"y": -0.6030871939,
				"z": 3.8331932482,
				"element": "H" 
			},
			{
				"x": -2.3906828634,
				"y": -0.7603498096,
				"z": -0.5909322424,
				"element": "H" 
			},
			{
				"x": -1.9787953503,
				"y": 2.8432955378,
				"z": -2.8623671315,
				"element": "H" 
			},
			{
				"x": 0.3617626398,
				"y": 3.122004768,
				"z": -1.9980412605,
				"element": "H" 
			},
			{
				"x": 1.3046242449,
				"y": 1.4484040938,
				"z": -0.4399461152,
				"element": "H" 
			}
		],
		 "valence_orbital": [ 
			{
				"type": "occ",
				"energy": -0.29358,
				"method": "rhf"
			},
			{
				"type": "occ",
				"energy": -0.29021,
				"method": "rhf"
			},
			{
				"type": "occ",
				"energy": -0.28704,
				"method": "rhf"
			},
			{
				"type": "occ",
				"energy": -0.28153,
				"method": "rhf"
			},
			{
				"type": "occ",
				"energy": -0.27221,
				"method": "rhf"
			},
			{
				"type": "unocc",
				"energy": -0.09176,
				"method": "rhf"
			},
			{
				"type": "unocc",
				"energy": -0.04255,
				"method": "rhf"
			},
			{
				"type": "unocc",
				"energy": -0.01859,
				"method": "rhf"
			},
			{
				"type": "unocc",
				"energy": -0.00348,
				"method": "rhf"
			},
			{
				"type": "unocc",
				"energy": 0.04283,
				"method": "rhf"
			}
		],
		"cosmo_sigma_profile": { 
			"-0.025": 0.0,
			"-0.024": 0.0,
			"-0.023": 0.0,
			"-0.022": 0.0,
			"-0.021": 0.0,
			"-0.02": 0.0,
			"-0.019": 0.0,
			"-0.018": 0.0178290432549,
			"-0.017": 0.991826120396,
			"-0.016": 1.3024565368,
			"-0.015": 2.6949060249,
			"-0.014": 1.9621091581,
			"-0.013": 1.40367468747,
			"-0.012": 1.8330741445,
			"-0.011": 2.4989216203,
			"-0.01": 2.30589523254,
			"-0.009": 1.97530268868,
			"-0.008": 3.79580402112,
			"-0.007": 10.312857295,
			"-0.006": 14.6143317044,
			"-0.005": 15.3730522506,
			"-0.004": 15.8910383478,
			"-0.003": 15.5434284629,
			"-0.002": 18.8775967446,
			"-0.001": 19.848440069,
			"0.0": 16.2687471452,
			"0.001": 15.0501678612,
			"0.002": 11.8548844306,
			"0.003": 6.47449071962,
			"0.004": 5.14326552772,
			"0.005": 5.89848647144,
			"0.006": 5.8651516001,
			"0.007": 10.2357015398,
			"0.008": 10.7000509337,
			"0.009": 6.98296538087,
			"0.01": 6.4498058906,
			"0.011": 6.30869285194,
			"0.012": 8.27006253052,
			"0.013": 3.83424912445,
			"0.014": 0.0825139719816,
			"0.015": 0.0,
			"0.016": 0.0,
			"0.017": 0.0,
			"0.018": 0.0,
			"0.019": 0.0,
			"0.02": 0.0,
			"0.021": 0.0,
			"0.022": 0.0,
			"0.023": 0.0,
			"0.024": 0.0,
			"0.025": 0.0
		}
	}
}
