{
	 "smiles": "CCCCCCCCCCCS", 
	 "Tm": 270.15, 
	 "num_atms": 36, 
	 "gaussian": { 
		 "optdone": 1, 
		 "sigma_profile": "yes", 
		 "theory": "DFT", 
		 "functional": "B3LYP", 
		 "basiset": "6-31G**", 
		 "properties": { 
			 "R2extent": 5667.2403, 
			 "electric_dipole_moment_norm": 2.04282101027, 
			 "electric_quadrupole_moment_norm": 10.8428358297, 
			 "total_energy": -831.853871193, 
			 "HOMO_LUMO_gap": 0.26321, 
			 "cosmo_polarized_energy": -4.47, 
			 "cosmo_cavitation_energy": 37.73, 
			 "cosmo_dispersion_energy": -26.13, 
			 "cosmo_repulsion_energy": 2.14, 
			 "cosmo_total_nonelectrostatic_energy": 13.74, 
			 "SMD_solvation_energy": 4.63 
		},
		"coords": [
			{
				"x": 2.1352438667,
				"y": 2.9309155439,
				"z": -0.4028822949,
				"element": "C" 
			},
			{
				"x": 1.1170380516,
				"y": 2.7377829868,
				"z": -1.533409376,
				"element": "C" 
			},
			{
				"x": -0.2109546139,
				"y": 2.0986926204,
				"z": -1.0935715219,
				"element": "C" 
			},
			{
				"x": -1.0607476139,
				"y": 2.980982633,
				"z": -0.1636974445,
				"element": "C" 
			},
			{
				"x": -2.436991186,
				"y": 2.3934661227,
				"z": 0.2225671609,
				"element": "C" 
			},
			{
				"x": -2.4833381492,
				"y": 1.5608379859,
				"z": 1.5167440361,
				"element": "C" 
			},
			{
				"x": -1.6711123563,
				"y": 0.2581085242,
				"z": 1.5172214883,
				"element": "C" 
			},
			{
				"x": -1.8805790685,
				"y": -0.5678351774,
				"z": 2.7950383609,
				"element": "C" 
			},
			{
				"x": -1.1466650254,
				"y": -1.9193317193,
				"z": 2.8195173389,
				"element": "C" 
			},
			{
				"x": 0.3864352731,
				"y": -1.8107582676,
				"z": 2.8509747501,
				"element": "C" 
			},
			{
				"x": 1.0601831753,
				"y": -3.1812181372,
				"z": 2.9424477106,
				"element": "C" 
			},
			{
				"x": 2.899399342,
				"y": -3.1271033846,
				"z": 3.0581664244,
				"element": "S" 
			},
			{
				"x": 1.7674445795,
				"y": 3.6167090154,
				"z": 0.3671438974,
				"element": "H" 
			},
			{
				"x": 2.3661493646,
				"y": 1.9774263118,
				"z": 0.086928382,
				"element": "H" 
			},
			{
				"x": 3.0753906735,
				"y": 3.3424131991,
				"z": -0.7848447741,
				"element": "H" 
			},
			{
				"x": 0.9107571427,
				"y": 3.7070073531,
				"z": -2.0085169615,
				"element": "H" 
			},
			{
				"x": 1.5673603395,
				"y": 2.1095083203,
				"z": -2.3126919704,
				"element": "H" 
			},
			{
				"x": -0.805543309,
				"y": 1.8704784298,
				"z": -1.9887967821,
				"element": "H" 
			},
			{
				"x": -0.00206433,
				"y": 1.1321440274,
				"z": -0.6176100668,
				"element": "H" 
			},
			{
				"x": -1.2175423813,
				"y": 3.9420934541,
				"z": -0.6720888297,
				"element": "H" 
			},
			{
				"x": -0.5022310711,
				"y": 3.2176104206,
				"z": 0.7517780146,
				"element": "H" 
			},
			{
				"x": -3.1467993796,
				"y": 3.2210850337,
				"z": 0.3454001271,
				"element": "H" 
			},
			{
				"x": -2.8241929986,
				"y": 1.7926040407,
				"z": -0.612768043,
				"element": "H" 
			},
			{
				"x": -3.5337882275,
				"y": 1.3157796139,
				"z": 1.7277260627,
				"element": "H" 
			},
			{
				"x": -2.1492877115,
				"y": 2.1895694341,
				"z": 2.3548003618,
				"element": "H" 
			},
			{
				"x": -0.6063675321,
				"y": 0.4899474491,
				"z": 1.39920134,
				"element": "H" 
			},
			{
				"x": -1.9531759237,
				"y": -0.3489378123,
				"z": 0.6444510872,
				"element": "H" 
			},
			{
				"x": -2.9558153953,
				"y": -0.7530409605,
				"z": 2.9215782156,
				"element": "H" 
			},
			{
				"x": -1.5723683365,
				"y": 0.0266519187,
				"z": 3.6669603654,
				"element": "H" 
			},
			{
				"x": -1.4530501253,
				"y": -2.5138825076,
				"z": 1.9469810723,
				"element": "H" 
			},
			{
				"x": -1.4775753143,
				"y": -2.4833945184,
				"z": 3.7020893225,
				"element": "H" 
			},
			{
				"x": 0.6995968482,
				"y": -1.1982175147,
				"z": 3.7053947019,
				"element": "H" 
			},
			{
				"x": 0.7465560691,
				"y": -1.2953831664,
				"z": 1.9520952865,
				"element": "H" 
			},
			{
				"x": 0.7522930553,
				"y": -3.7022474575,
				"z": 3.8549508597,
				"element": "H" 
			},
			{
				"x": 0.777084477,
				"y": -3.8184951585,
				"z": 2.0990985717,
				"element": "H" 
			},
			{
				"x": 3.1178577909,
				"y": -2.5376686569,
				"z": 1.8646231261,
				"element": "H" 
			}
		],
		 "valence_orbital": [ 
			{
				"type": "occ",
				"energy": -0.31382,
				"method": "rhf"
			},
			{
				"type": "occ",
				"energy": -0.30948,
				"method": "rhf"
			},
			{
				"type": "occ",
				"energy": -0.30101,
				"method": "rhf"
			},
			{
				"type": "occ",
				"energy": -0.2997,
				"method": "rhf"
			},
			{
				"type": "occ",
				"energy": -0.2332,
				"method": "rhf"
			},
			{
				"type": "unocc",
				"energy": 0.03001,
				"method": "rhf"
			},
			{
				"type": "unocc",
				"energy": 0.07324,
				"method": "rhf"
			},
			{
				"type": "unocc",
				"energy": 0.07835,
				"method": "rhf"
			},
			{
				"type": "unocc",
				"energy": 0.09386,
				"method": "rhf"
			},
			{
				"type": "unocc",
				"energy": 0.098,
				"method": "rhf"
			}
		],
		"cosmo_sigma_profile": { 
			"-0.025": 0.0,
			"-0.024": 0.0,
			"-0.023": 0.0,
			"-0.022": 0.0,
			"-0.021": 0.0,
			"-0.02": 0.0,
			"-0.019": 0.0,
			"-0.018": 0.0,
			"-0.017": 0.0,
			"-0.016": 0.0,
			"-0.015": 0.0,
			"-0.014": 0.0,
			"-0.013": 0.0,
			"-0.012": 0.0,
			"-0.011": 0.0,
			"-0.01": 0.0,
			"-0.009": 0.389549201271,
			"-0.008": 1.96440823523,
			"-0.007": 2.20961991278,
			"-0.006": 2.08331502904,
			"-0.005": 5.28044555783,
			"-0.004": 7.42632554763,
			"-0.003": 11.2800621821,
			"-0.002": 38.3912374392,
			"-0.001": 59.9793445751,
			"0.0": 63.102142239,
			"0.001": 49.8872670226,
			"0.002": 21.9505749135,
			"0.003": 3.95457505025,
			"0.004": 3.57274081577,
			"0.005": 3.99875078336,
			"0.006": 2.89443960245,
			"0.007": 3.33014635802,
			"0.008": 3.36878976488,
			"0.009": 2.13698642475,
			"0.01": 2.2930783081,
			"0.011": 1.87667425082,
			"0.012": 0.304836326379,
			"0.013": 0.0,
			"0.014": 0.0,
			"0.015": 0.0,
			"0.016": 0.0,
			"0.017": 0.0,
			"0.018": 0.0,
			"0.019": 0.0,
			"0.02": 0.0,
			"0.021": 0.0,
			"0.022": 0.0,
			"0.023": 0.0,
			"0.024": 0.0,
			"0.025": 0.0
		}
	}
}
