{
	 "smiles": "CN1C=C(C=N1)N1CCNCC1=O", 
	 "Tm": 397.15, 
	 "num_atms": 25, 
	 "gaussian": { 
		 "optdone": 1, 
		 "sigma_profile": "yes", 
		 "theory": "DFT", 
		 "functional": "B3LYP", 
		 "basiset": "6-31G**", 
		 "properties": { 
			 "R2extent": 2943.1608, 
			 "electric_dipole_moment_norm": 1.20527124748, 
			 "electric_quadrupole_moment_norm": 12.0518493083, 
			 "total_energy": -606.282782435, 
			 "HOMO_LUMO_gap": 0.21568, 
			 "cosmo_polarized_energy": -15.05, 
			 "cosmo_cavitation_energy": 27.45, 
			 "cosmo_dispersion_energy": -20.64, 
			 "cosmo_repulsion_energy": 1.62, 
			 "cosmo_total_nonelectrostatic_energy": 8.43, 
			 "SMD_solvation_energy": 1.75 
		},
		"coords": [
			{
				"x": -0.9100984003,
				"y": 0.517265208,
				"z": 3.7013478578,
				"element": "C" 
			},
			{
				"x": -0.4466894859,
				"y": 0.9267796515,
				"z": 2.3893467526,
				"element": "N" 
			},
			{
				"x": -0.3850946423,
				"y": 0.1637716201,
				"z": 1.2637783131,
				"element": "C" 
			},
			{
				"x": 0.2218652429,
				"y": 0.9532670619,
				"z": 0.2935341524,
				"element": "C" 
			},
			{
				"x": 0.4981761298,
				"y": 2.1761085718,
				"z": 0.9553238157,
				"element": "C" 
			},
			{
				"x": 0.0910187112,
				"y": 2.1488068264,
				"z": 2.2252339946,
				"element": "N" 
			},
			{
				"x": 0.4900547605,
				"y": 0.6250987068,
				"z": -1.0529613921,
				"element": "N" 
			},
			{
				"x": 1.1134296035,
				"y": 1.6129735426,
				"z": -1.9403372339,
				"element": "C" 
			},
			{
				"x": 0.4673369062,
				"y": 1.605120621,
				"z": -3.341244175,
				"element": "C" 
			},
			{
				"x": 0.1609711417,
				"y": 0.2529619116,
				"z": -3.8337505864,
				"element": "N" 
			},
			{
				"x": 0.743753012,
				"y": -0.8045979647,
				"z": -3.0030451823,
				"element": "C" 
			},
			{
				"x": 0.3723300027,
				"y": -0.6684153246,
				"z": -1.5249839875,
				"element": "C" 
			},
			{
				"x": -0.0377253634,
				"y": -1.6069636588,
				"z": -0.8506463651,
				"element": "O" 
			},
			{
				"x": -1.7083910293,
				"y": -0.2197819874,
				"z": 3.5914252,
				"element": "H" 
			},
			{
				"x": -0.0970836948,
				"y": 0.0813412247,
				"z": 4.292083537,
				"element": "H" 
			},
			{
				"x": -1.2939941178,
				"y": 1.3974331102,
				"z": 4.2181787132,
				"element": "H" 
			},
			{
				"x": -0.7494121187,
				"y": -0.8470022091,
				"z": 1.2149348779,
				"element": "H" 
			},
			{
				"x": 0.9712256875,
				"y": 3.0701982707,
				"z": 0.5745947906,
				"element": "H" 
			},
			{
				"x": 1.0031611145,
				"y": 2.6051945779,
				"z": -1.5032107522,
				"element": "H" 
			},
			{
				"x": 2.1907496348,
				"y": 1.4156818278,
				"z": -2.0196341483,
				"element": "H" 
			},
			{
				"x": -0.4548380245,
				"y": 2.1953662008,
				"z": -3.3196167837,
				"element": "H" 
			},
			{
				"x": 1.1572352762,
				"y": 2.1160178677,
				"z": -4.0273976983,
				"element": "H" 
			},
			{
				"x": -0.845295015,
				"y": 0.1240550487,
				"z": -3.8432749854,
				"element": "H" 
			},
			{
				"x": 0.3873250169,
				"y": -1.779853621,
				"z": -3.3391699356,
				"element": "H" 
			},
			{
				"x": 1.8361896515,
				"y": -0.8001270845,
				"z": -3.1206087794,
				"element": "H" 
			}
		],
		 "valence_orbital": [ 
			{
				"type": "occ",
				"energy": -0.2847,
				"method": "rhf"
			},
			{
				"type": "occ",
				"energy": -0.271,
				"method": "rhf"
			},
			{
				"type": "occ",
				"energy": -0.2448,
				"method": "rhf"
			},
			{
				"type": "occ",
				"energy": -0.22029,
				"method": "rhf"
			},
			{
				"type": "occ",
				"energy": -0.20542,
				"method": "rhf"
			},
			{
				"type": "unocc",
				"energy": 0.01026,
				"method": "rhf"
			},
			{
				"type": "unocc",
				"energy": 0.02535,
				"method": "rhf"
			},
			{
				"type": "unocc",
				"energy": 0.069,
				"method": "rhf"
			},
			{
				"type": "unocc",
				"energy": 0.0866,
				"method": "rhf"
			},
			{
				"type": "unocc",
				"energy": 0.104,
				"method": "rhf"
			}
		],
		"cosmo_sigma_profile": { 
			"-0.025": 0.0,
			"-0.024": 0.0,
			"-0.023": 0.0,
			"-0.022": 0.0,
			"-0.021": 0.0,
			"-0.02": 0.0,
			"-0.019": 0.0,
			"-0.018": 0.0,
			"-0.017": 0.0,
			"-0.016": 0.0,
			"-0.015": 0.0,
			"-0.014": 0.0,
			"-0.013": 0.0,
			"-0.012": 0.0530336939545,
			"-0.011": 1.25915964136,
			"-0.01": 1.57592309625,
			"-0.009": 2.15460170872,
			"-0.008": 4.29474520606,
			"-0.007": 9.66860195582,
			"-0.006": 16.2330333694,
			"-0.005": 21.1161236884,
			"-0.004": 24.2031996264,
			"-0.003": 21.3449723904,
			"-0.002": 14.9716586929,
			"-0.001": 9.61602947108,
			"0.0": 7.22248340665,
			"0.001": 6.57072814199,
			"0.002": 7.63609951052,
			"0.003": 9.11407140969,
			"0.004": 10.9179768424,
			"0.005": 8.98449911514,
			"0.006": 4.61027467069,
			"0.007": 3.99086417368,
			"0.008": 3.97374948038,
			"0.009": 4.31208830039,
			"0.01": 3.48999985406,
			"0.011": 3.46979724557,
			"0.012": 3.66307231262,
			"0.013": 4.94015317381,
			"0.014": 3.311211116,
			"0.015": 2.41429763887,
			"0.016": 0.933295099768,
			"0.017": 0.54638772367,
			"0.018": 0.0122116604133,
			"0.019": 0.0,
			"0.02": 0.0,
			"0.021": 0.0,
			"0.022": 0.0,
			"0.023": 0.0,
			"0.024": 0.0,
			"0.025": 0.0
		}
	}
}
