{
	 "smiles": "BrCCBr", 
	 "Tm": 283.1, 
	 "num_atms": 8, 
	 "gaussian": { 
		 "optdone": 1, 
		 "sigma_profile": "yes", 
		 "theory": "DFT", 
		 "functional": "B3LYP", 
		 "basiset": "6-31G**", 
		 "properties": { 
			 "R2extent": 2185.1755, 
			 "electric_dipole_moment_norm": 0.0, 
			 "electric_quadrupole_moment_norm": 4.85840574674, 
			 "total_energy": -5221.43932398, 
			 "HOMO_LUMO_gap": 0.25151, 
			 "cosmo_polarized_energy": -4.68, 
			 "cosmo_cavitation_energy": 15.91, 
			 "cosmo_dispersion_energy": -12.9, 
			 "cosmo_repulsion_energy": 1.17, 
			 "cosmo_total_nonelectrostatic_energy": 4.17, 
			 "SMD_solvation_energy": 0.41 
		},
		"coords": [
			{
				"x": -1.7965031693,
				"y": -2.3399357068,
				"z": 1.1250110972,
				"element": "Br" 
			},
			{
				"x": -0.2040375849,
				"y": -1.9159385265,
				"z": 0.0226650655,
				"element": "C" 
			},
			{
				"x": 0.6100630213,
				"y": -0.8561117624,
				"z": 0.7278340718,
				"element": "C" 
			},
			{
				"x": 2.2025315307,
				"y": -0.4321141339,
				"z": -0.3745104569,
				"element": "Br" 
			},
			{
				"x": -0.5816437132,
				"y": -1.5769093728,
				"z": -0.9399917666,
				"element": "H" 
			},
			{
				"x": 0.3426386847,
				"y": -2.8495931855,
				"z": -0.0942961426,
				"element": "H" 
			},
			{
				"x": 0.9876645421,
				"y": -1.1951405087,
				"z": 1.6904928211,
				"element": "H" 
			},
			{
				"x": 0.0633866886,
				"y": 0.0775431966,
				"z": 0.8447953106,
				"element": "H" 
			}
		],
		 "valence_orbital": [ 
			{
				"type": "occ",
				"energy": -0.36195,
				"method": "rhf"
			},
			{
				"type": "occ",
				"energy": -0.29166,
				"method": "rhf"
			},
			{
				"type": "occ",
				"energy": -0.28829,
				"method": "rhf"
			},
			{
				"type": "occ",
				"energy": -0.28492,
				"method": "rhf"
			},
			{
				"type": "occ",
				"energy": -0.28306,
				"method": "rhf"
			},
			{
				"type": "unocc",
				"energy": -0.03155,
				"method": "rhf"
			},
			{
				"type": "unocc",
				"energy": 0.00857,
				"method": "rhf"
			},
			{
				"type": "unocc",
				"energy": 0.10509,
				"method": "rhf"
			},
			{
				"type": "unocc",
				"energy": 0.11802,
				"method": "rhf"
			},
			{
				"type": "unocc",
				"energy": 0.12402,
				"method": "rhf"
			}
		],
		"cosmo_sigma_profile": { 
			"-0.025": 0.0,
			"-0.024": 0.0,
			"-0.023": 0.0,
			"-0.022": 0.0,
			"-0.021": 0.0,
			"-0.02": 0.0,
			"-0.019": 0.0,
			"-0.018": 0.0,
			"-0.017": 0.0,
			"-0.016": 0.0,
			"-0.015": 0.0,
			"-0.014": 0.0,
			"-0.013": 0.0,
			"-0.012": 0.0,
			"-0.011": 0.0,
			"-0.01": 0.0,
			"-0.009": 0.0322185648744,
			"-0.008": 5.49750212429,
			"-0.007": 9.54372670414,
			"-0.006": 8.00313218629,
			"-0.005": 7.30213550411,
			"-0.004": 6.70657936544,
			"-0.003": 7.71623967076,
			"-0.002": 6.2916767974,
			"-0.001": 8.57557946198,
			"0.0": 7.22522949898,
			"0.001": 5.68898198369,
			"0.002": 8.39328136814,
			"0.003": 8.65718087136,
			"0.004": 11.1845890155,
			"0.005": 18.9234969889,
			"0.006": 12.7199911346,
			"0.007": 0.0363202556071,
			"0.008": 0.0,
			"0.009": 0.0,
			"0.01": 0.0,
			"0.011": 0.0,
			"0.012": 0.0,
			"0.013": 0.0,
			"0.014": 0.0,
			"0.015": 0.0,
			"0.016": 0.0,
			"0.017": 0.0,
			"0.018": 0.0,
			"0.019": 0.0,
			"0.02": 0.0,
			"0.021": 0.0,
			"0.022": 0.0,
			"0.023": 0.0,
			"0.024": 0.0,
			"0.025": 0.0
		}
	}
}
