{
	 "smiles": "O=C1NNC(=O)N1C1=CC=CC=C1", 
	 "Tm": 481.15, 
	 "num_atms": 20, 
	 "gaussian": { 
		 "optdone": 1, 
		 "sigma_profile": "yes", 
		 "theory": "DFT", 
		 "functional": "B3LYP", 
		 "basiset": "6-31G**", 
		 "properties": { 
			 "R2extent": 2374.8399, 
			 "electric_dipole_moment_norm": 1.43472157926, 
			 "electric_quadrupole_moment_norm": 19.4067562328, 
			 "total_energy": -623.777683387, 
			 "HOMO_LUMO_gap": 0.22318, 
			 "cosmo_polarized_energy": -15.93, 
			 "cosmo_cavitation_energy": 24.64, 
			 "cosmo_dispersion_energy": -18.54, 
			 "cosmo_repulsion_energy": 1.45, 
			 "cosmo_total_nonelectrostatic_energy": 7.55, 
			 "SMD_solvation_energy": 5.78 
		},
		"coords": [
			{
				"x": 1.2345178826,
				"y": 0.0690090824,
				"z": -1.7734761251,
				"element": "O" 
			},
			{
				"x": 1.2627631421,
				"y": 0.7081812184,
				"z": -0.7450857939,
				"element": "C" 
			},
			{
				"x": 2.2804282225,
				"y": 1.5927556168,
				"z": -0.3600069542,
				"element": "N" 
			},
			{
				"x": 1.7942358394,
				"y": 2.3616982036,
				"z": 0.733659441,
				"element": "N" 
			},
			{
				"x": 0.6716721516,
				"y": 1.7014011227,
				"z": 1.2534972582,
				"element": "C" 
			},
			{
				"x": 0.1427665025,
				"y": 1.9383080814,
				"z": 2.3170077969,
				"element": "O" 
			},
			{
				"x": 0.3186103642,
				"y": 0.7365879105,
				"z": 0.2950584133,
				"element": "N" 
			},
			{
				"x": -0.8395318657,
				"y": -0.0992645291,
				"z": 0.3679747991,
				"element": "C" 
			},
			{
				"x": -2.0116034695,
				"y": 0.3883582676,
				"z": 0.9569585389,
				"element": "C" 
			},
			{
				"x": -3.1340501906,
				"y": -0.4353885336,
				"z": 1.0294336168,
				"element": "C" 
			},
			{
				"x": -3.0996119755,
				"y": -1.7303552221,
				"z": 0.5104104462,
				"element": "C" 
			},
			{
				"x": -1.9274350425,
				"y": -2.2042189009,
				"z": -0.080316635,
				"element": "C" 
			},
			{
				"x": -0.7918878157,
				"y": -1.3983847473,
				"z": -0.1501435672,
				"element": "C" 
			},
			{
				"x": 2.6195556643,
				"y": 2.1610526681,
				"z": -1.1304832947,
				"element": "H" 
			},
			{
				"x": 2.501472094,
				"y": 2.5487468589,
				"z": 1.4382382906,
				"element": "H" 
			},
			{
				"x": -2.0354542584,
				"y": 1.3887771011,
				"z": 1.3689717227,
				"element": "H" 
			},
			{
				"x": -4.0402625096,
				"y": -0.0563947151,
				"z": 1.4923873886,
				"element": "H" 
			},
			{
				"x": -3.978968185,
				"y": -2.3649859162,
				"z": 0.5658417925,
				"element": "H" 
			},
			{
				"x": -1.8893444315,
				"y": -3.2097439731,
				"z": -0.4885442125,
				"element": "H" 
			},
			{
				"x": 0.1136278809,
				"y": -1.7625395941,
				"z": -0.6176829223,
				"element": "H" 
			}
		],
		 "valence_orbital": [ 
			{
				"type": "occ",
				"energy": -0.30508,
				"method": "rhf"
			},
			{
				"type": "occ",
				"energy": -0.28148,
				"method": "rhf"
			},
			{
				"type": "occ",
				"energy": -0.26058,
				"method": "rhf"
			},
			{
				"type": "occ",
				"energy": -0.25475,
				"method": "rhf"
			},
			{
				"type": "occ",
				"energy": -0.24041,
				"method": "rhf"
			},
			{
				"type": "unocc",
				"energy": -0.01723,
				"method": "rhf"
			},
			{
				"type": "unocc",
				"energy": -0.00629,
				"method": "rhf"
			},
			{
				"type": "unocc",
				"energy": 0.00029,
				"method": "rhf"
			},
			{
				"type": "unocc",
				"energy": 0.04554,
				"method": "rhf"
			},
			{
				"type": "unocc",
				"energy": 0.07474,
				"method": "rhf"
			}
		],
		"cosmo_sigma_profile": { 
			"-0.025": 0.0,
			"-0.024": 0.0,
			"-0.023": 0.0,
			"-0.022": 0.0,
			"-0.021": 0.0,
			"-0.02": 0.0,
			"-0.019": 0.0,
			"-0.018": 0.0,
			"-0.017": 0.692859928605,
			"-0.016": 3.30572581808,
			"-0.015": 2.17699871419,
			"-0.014": 1.84854170848,
			"-0.013": 1.86508580376,
			"-0.012": 1.85063448444,
			"-0.011": 2.44384108251,
			"-0.01": 2.14246554754,
			"-0.009": 2.21095018987,
			"-0.008": 1.8224656118,
			"-0.007": 3.10037982294,
			"-0.006": 10.4940580864,
			"-0.005": 15.231388376,
			"-0.004": 14.509121413,
			"-0.003": 11.3515602791,
			"-0.002": 10.3074547145,
			"-0.001": 8.32667503152,
			"0.0": 8.69856672071,
			"0.001": 9.9564720949,
			"0.002": 10.3732126574,
			"0.003": 11.3332003661,
			"0.004": 15.4638206222,
			"0.005": 11.4758129952,
			"0.006": 5.26423071478,
			"0.007": 3.79706653884,
			"0.008": 4.05432192948,
			"0.009": 3.78783665906,
			"0.01": 3.83808268353,
			"0.011": 8.00481730871,
			"0.012": 7.53568085402,
			"0.013": 0.536775209344,
			"0.014": 0.0,
			"0.015": 0.0,
			"0.016": 0.0,
			"0.017": 0.0,
			"0.018": 0.0,
			"0.019": 0.0,
			"0.02": 0.0,
			"0.021": 0.0,
			"0.022": 0.0,
			"0.023": 0.0,
			"0.024": 0.0,
			"0.025": 0.0
		}
	}
}
