{
	 "smiles": "N#CC1=CC2=C(O1)C=CC=C2", 
	 "Tm": 307.15, 
	 "num_atms": 16, 
	 "gaussian": { 
		 "optdone": 1, 
		 "sigma_profile": "yes", 
		 "theory": "DFT", 
		 "functional": "B3LYP", 
		 "basiset": "6-31G**", 
		 "properties": { 
			 "R2extent": 2603.343, 
			 "electric_dipole_moment_norm": 4.75583482577, 
			 "electric_quadrupole_moment_norm": 20.5226714516, 
			 "total_energy": -475.911509368, 
			 "HOMO_LUMO_gap": 0.1776, 
			 "cosmo_polarized_energy": -8.1, 
			 "cosmo_cavitation_energy": 21.88, 
			 "cosmo_dispersion_energy": -15.9, 
			 "cosmo_repulsion_energy": 1.26, 
			 "cosmo_total_nonelectrostatic_energy": 7.24, 
			 "SMD_solvation_energy": 5.62 
		},
		"coords": [
			{
				"x": -0.7550726976,
				"y": 4.283700631,
				"z": 4.0267282437,
				"element": "N" 
			},
			{
				"x": -0.4949489527,
				"y": 3.4520884931,
				"z": 3.255024948,
				"element": "C" 
			},
			{
				"x": -0.1636484993,
				"y": 2.4624383598,
				"z": 2.2967872253,
				"element": "C" 
			},
			{
				"x": 0.5011207154,
				"y": 2.5599375902,
				"z": 1.1076141068,
				"element": "C" 
			},
			{
				"x": 0.5409535977,
				"y": 1.2307359722,
				"z": 0.5661875682,
				"element": "C" 
			},
			{
				"x": -0.1255233721,
				"y": 0.4204474976,
				"z": 1.5075710373,
				"element": "C" 
			},
			{
				"x": -0.5575375021,
				"y": 1.1685530767,
				"z": 2.5662096635,
				"element": "O" 
			},
			{
				"x": -0.3047837612,
				"y": -0.9503639075,
				"z": 1.3547432039,
				"element": "C" 
			},
			{
				"x": 0.2183199962,
				"y": -1.5132732213,
				"z": 0.1936058621,
				"element": "C" 
			},
			{
				"x": 0.8906955428,
				"y": -0.7307111175,
				"z": -0.7684167797,
				"element": "C" 
			},
			{
				"x": 1.0598934242,
				"y": 0.6374479908,
				"z": -0.5979853035,
				"element": "C" 
			},
			{
				"x": 0.9052302739,
				"y": 3.4675246486,
				"z": 0.6833952595,
				"element": "H" 
			},
			{
				"x": -0.8237749519,
				"y": -1.5389523281,
				"z": 2.1027746843,
				"element": "H" 
			},
			{
				"x": 0.1058651396,
				"y": -2.5797989699,
				"z": 0.0249806011,
				"element": "H" 
			},
			{
				"x": 1.2825569761,
				"y": -1.2118188457,
				"z": -1.6592053588,
				"element": "H" 
			},
			{
				"x": 1.5783540711,
				"y": 1.2335441301,
				"z": -1.3424149618,
				"element": "H" 
			}
		],
		 "valence_orbital": [ 
			{
				"type": "occ",
				"energy": -0.35805,
				"method": "rhf"
			},
			{
				"type": "occ",
				"energy": -0.34576,
				"method": "rhf"
			},
			{
				"type": "occ",
				"energy": -0.31242,
				"method": "rhf"
			},
			{
				"type": "occ",
				"energy": -0.25809,
				"method": "rhf"
			},
			{
				"type": "occ",
				"energy": -0.24279,
				"method": "rhf"
			},
			{
				"type": "unocc",
				"energy": -0.06519,
				"method": "rhf"
			},
			{
				"type": "unocc",
				"energy": -0.00854,
				"method": "rhf"
			},
			{
				"type": "unocc",
				"energy": 0.00486,
				"method": "rhf"
			},
			{
				"type": "unocc",
				"energy": 0.01207,
				"method": "rhf"
			},
			{
				"type": "unocc",
				"energy": 0.08312,
				"method": "rhf"
			}
		],
		"cosmo_sigma_profile": { 
			"-0.025": 0.0,
			"-0.024": 0.0,
			"-0.023": 0.0,
			"-0.022": 0.0,
			"-0.021": 0.0,
			"-0.02": 0.0,
			"-0.019": 0.0,
			"-0.018": 0.0,
			"-0.017": 0.0,
			"-0.016": 0.0,
			"-0.015": 0.0,
			"-0.014": 0.0,
			"-0.013": 0.0,
			"-0.012": 0.0,
			"-0.011": 0.0,
			"-0.01": 0.742699727714,
			"-0.009": 2.73104929258,
			"-0.008": 2.99974762521,
			"-0.007": 7.1686424804,
			"-0.006": 11.2303467523,
			"-0.005": 10.9138222419,
			"-0.004": 9.85897307532,
			"-0.003": 8.89719741891,
			"-0.002": 14.12341489,
			"-0.001": 14.4986063574,
			"0.0": 14.8747024854,
			"0.001": 16.2433432761,
			"0.002": 13.2172904517,
			"0.003": 13.056983058,
			"0.004": 11.9500476744,
			"0.005": 4.95663331747,
			"0.006": 3.59887370043,
			"0.007": 4.01324111841,
			"0.008": 3.24454069572,
			"0.009": 3.03973369116,
			"0.01": 2.89054423527,
			"0.011": 2.30593757298,
			"0.012": 1.73880430466,
			"0.013": 0.152845547673,
			"0.014": 0.0,
			"0.015": 0.0,
			"0.016": 0.0,
			"0.017": 0.0,
			"0.018": 0.0,
			"0.019": 0.0,
			"0.02": 0.0,
			"0.021": 0.0,
			"0.022": 0.0,
			"0.023": 0.0,
			"0.024": 0.0,
			"0.025": 0.0
		}
	}
}
