{
	 "smiles": "NNC(=O)C(=O)NC1=NC=CC=C1", 
	 "Tm": 453.15, 
	 "num_atms": 21, 
	 "gaussian": { 
		 "optdone": 1, 
		 "sigma_profile": "yes", 
		 "theory": "DFT", 
		 "functional": "B3LYP", 
		 "basiset": "6-31G**", 
		 "properties": { 
			 "R2extent": 3107.8362, 
			 "electric_dipole_moment_norm": 3.32438421065, 
			 "electric_quadrupole_moment_norm": 7.35577759588, 
			 "total_energy": -640.999106971, 
			 "HOMO_LUMO_gap": 0.19292, 
			 "cosmo_polarized_energy": -14.71, 
			 "cosmo_cavitation_energy": 26.07, 
			 "cosmo_dispersion_energy": -19.28, 
			 "cosmo_repulsion_energy": 1.55, 
			 "cosmo_total_nonelectrostatic_energy": 8.34, 
			 "SMD_solvation_energy": 4.95 
		},
		"coords": [
			{
				"x": 4.339103079,
				"y": 0.3644139925,
				"z": -0.5378152759,
				"element": "N" 
			},
			{
				"x": 3.8394441296,
				"y": -0.4203723675,
				"z": 0.5211713048,
				"element": "N" 
			},
			{
				"x": 2.7417689465,
				"y": -0.1826870919,
				"z": 1.2881394765,
				"element": "C" 
			},
			{
				"x": 2.4888699718,
				"y": -0.8327845111,
				"z": 2.2974697574,
				"element": "O" 
			},
			{
				"x": 1.9032844999,
				"y": 1.0384885174,
				"z": 0.8819666807,
				"element": "C" 
			},
			{
				"x": 2.4693964545,
				"y": 2.1229888447,
				"z": 0.7596779683,
				"element": "O" 
			},
			{
				"x": 0.5467707341,
				"y": 0.9454346826,
				"z": 0.7288702697,
				"element": "N" 
			},
			{
				"x": -0.4011088878,
				"y": -0.1011425039,
				"z": 0.6359119083,
				"element": "C" 
			},
			{
				"x": -1.4904653445,
				"y": 0.2852216975,
				"z": -0.0430846641,
				"element": "N" 
			},
			{
				"x": -2.4794854868,
				"y": -0.5996687264,
				"z": -0.1990191955,
				"element": "C" 
			},
			{
				"x": -2.4324428965,
				"y": -1.901196984,
				"z": 0.2968715064,
				"element": "C" 
			},
			{
				"x": -1.2991696563,
				"y": -2.2790620017,
				"z": 1.0174271801,
				"element": "C" 
			},
			{
				"x": -0.26082003,
				"y": -1.3714003306,
				"z": 1.2102232534,
				"element": "C" 
			},
			{
				"x": 3.7825497935,
				"y": 0.1914763259,
				"z": -1.3725247123,
				"element": "H" 
			},
			{
				"x": 4.2250989086,
				"y": 1.3431461293,
				"z": -0.2815615617,
				"element": "H" 
			},
			{
				"x": 4.4837676032,
				"y": -1.1062464893,
				"z": 0.8965818016,
				"element": "H" 
			},
			{
				"x": 0.1478638022,
				"y": 1.8285356067,
				"z": 0.4226169602,
				"element": "H" 
			},
			{
				"x": -3.3488978447,
				"y": -0.244885555,
				"z": -0.749143666,
				"element": "H" 
			},
			{
				"x": -3.2592942619,
				"y": -2.5846372634,
				"z": 0.1365086519,
				"element": "H" 
			},
			{
				"x": -1.2242724097,
				"y": -3.2738573035,
				"z": 1.4469725697,
				"element": "H" 
			},
			{
				"x": 0.6086388952,
				"y": -1.6185646682,
				"z": 1.8031397863,
				"element": "H" 
			}
		],
		 "valence_orbital": [ 
			{
				"type": "occ",
				"energy": -0.29247,
				"method": "rhf"
			},
			{
				"type": "occ",
				"energy": -0.2789,
				"method": "rhf"
			},
			{
				"type": "occ",
				"energy": -0.26877,
				"method": "rhf"
			},
			{
				"type": "occ",
				"energy": -0.24974,
				"method": "rhf"
			},
			{
				"type": "occ",
				"energy": -0.24261,
				"method": "rhf"
			},
			{
				"type": "unocc",
				"energy": -0.04969,
				"method": "rhf"
			},
			{
				"type": "unocc",
				"energy": -0.03226,
				"method": "rhf"
			},
			{
				"type": "unocc",
				"energy": -0.00586,
				"method": "rhf"
			},
			{
				"type": "unocc",
				"energy": 0.04323,
				"method": "rhf"
			},
			{
				"type": "unocc",
				"energy": 0.08286,
				"method": "rhf"
			}
		],
		"cosmo_sigma_profile": { 
			"-0.025": 0.0,
			"-0.024": 0.0,
			"-0.023": 0.0,
			"-0.022": 0.0,
			"-0.021": 0.0,
			"-0.02": 0.0,
			"-0.019": 0.0,
			"-0.018": 0.0,
			"-0.017": 0.0,
			"-0.016": 0.0,
			"-0.015": 0.332974400432,
			"-0.014": 1.6070576059,
			"-0.013": 1.69304980537,
			"-0.012": 2.78662098999,
			"-0.011": 3.27992565853,
			"-0.01": 4.16655630142,
			"-0.009": 3.65024202351,
			"-0.008": 3.34601330384,
			"-0.007": 9.17013479026,
			"-0.006": 10.9937745266,
			"-0.005": 12.3156520321,
			"-0.004": 9.91894584067,
			"-0.003": 10.8504313079,
			"-0.002": 10.8293980152,
			"-0.001": 13.3493984445,
			"0.0": 13.9091426863,
			"0.001": 18.028935008,
			"0.002": 17.7239253284,
			"0.003": 12.1445960448,
			"0.004": 4.84987977538,
			"0.005": 4.18081654752,
			"0.006": 3.70508658829,
			"0.007": 3.95243593864,
			"0.008": 4.35221814315,
			"0.009": 5.26752890296,
			"0.01": 4.2912273343,
			"0.011": 7.83862302484,
			"0.012": 5.78774266602,
			"0.013": 2.12280515357,
			"0.014": 1.16194912754,
			"0.015": 0.37893299385,
			"0.016": 0.328500825199,
			"0.017": 0.0,
			"0.018": 0.0,
			"0.019": 0.0,
			"0.02": 0.0,
			"0.021": 0.0,
			"0.022": 0.0,
			"0.023": 0.0,
			"0.024": 0.0,
			"0.025": 0.0
		}
	}
}
