{
	 "smiles": "COC1=CC=C(C=C1)C(=O)C1=CC=CC=C1", 
	 "Tm": 334.95, 
	 "num_atms": 28, 
	 "gaussian": { 
		 "optdone": 1, 
		 "sigma_profile": "yes", 
		 "theory": "DFT", 
		 "functional": "B3LYP", 
		 "basiset": "6-31G**", 
		 "properties": { 
			 "R2extent": 6640.9968, 
			 "electric_dipole_moment_norm": 4.46547415288, 
			 "electric_quadrupole_moment_norm": 11.0114637042, 
			 "total_energy": -691.161404167, 
			 "HOMO_LUMO_gap": 0.17164, 
			 "cosmo_polarized_energy": -11.28, 
			 "cosmo_cavitation_energy": 32.19, 
			 "cosmo_dispersion_energy": -23.48, 
			 "cosmo_repulsion_energy": 1.81, 
			 "cosmo_total_nonelectrostatic_energy": 10.53, 
			 "SMD_solvation_energy": 6.67 
		},
		"coords": [
			{
				"x": 0.7576163341,
				"y": -3.8545432107,
				"z": 0.3788170903,
				"element": "C" 
			},
			{
				"x": 1.7276665671,
				"y": -2.8185954585,
				"z": 0.3154068591,
				"element": "O" 
			},
			{
				"x": 1.3903731419,
				"y": -1.6495390696,
				"z": -0.290401021,
				"element": "C" 
			},
			{
				"x": 2.3943958018,
				"y": -0.6640735724,
				"z": -0.3123001938,
				"element": "C" 
			},
			{
				"x": 2.1478470217,
				"y": 0.5622056949,
				"z": -0.9020889014,
				"element": "C" 
			},
			{
				"x": 0.9081089363,
				"y": 0.8401949899,
				"z": -1.5121095761,
				"element": "C" 
			},
			{
				"x": -0.0859050774,
				"y": -0.1464695573,
				"z": -1.4741902722,
				"element": "C" 
			},
			{
				"x": 0.1418097712,
				"y": -1.3823992487,
				"z": -0.86647961,
				"element": "C" 
			},
			{
				"x": 0.6995742392,
				"y": 2.2054680964,
				"z": -2.0801887679,
				"element": "C" 
			},
			{
				"x": 1.3818293534,
				"y": 3.1468589869,
				"z": -1.684050003,
				"element": "O" 
			},
			{
				"x": -0.342229676,
				"y": 2.4464968298,
				"z": -3.1364401729,
				"element": "C" 
			},
			{
				"x": -0.9258754337,
				"y": 3.7222205743,
				"z": -3.1971829961,
				"element": "C" 
			},
			{
				"x": -1.8616924299,
				"y": 4.0256738621,
				"z": -4.1815790043,
				"element": "C" 
			},
			{
				"x": -2.20735363,
				"y": 3.0658666149,
				"z": -5.1381032228,
				"element": "C" 
			},
			{
				"x": -1.6119102698,
				"y": 1.8041483147,
				"z": -5.1043483152,
				"element": "C" 
			},
			{
				"x": -0.6880305105,
				"y": 1.4921598094,
				"z": -4.1055008925,
				"element": "C" 
			},
			{
				"x": 1.2391664725,
				"y": -4.6852428584,
				"z": 0.8964150143,
				"element": "H" 
			},
			{
				"x": 0.4506959488,
				"y": -4.1814851225,
				"z": -0.6225800776,
				"element": "H" 
			},
			{
				"x": -0.1296405301,
				"y": -3.542374921,
				"z": 0.9436924165,
				"element": "H" 
			},
			{
				"x": 3.3508027368,
				"y": -0.8916527861,
				"z": 0.1469433148,
				"element": "H" 
			},
			{
				"x": 2.9065180812,
				"y": 1.3375783616,
				"z": -0.9059591992,
				"element": "H" 
			},
			{
				"x": -1.0640400097,
				"y": 0.0536120964,
				"z": -1.8982071883,
				"element": "H" 
			},
			{
				"x": -0.6534688283,
				"y": -2.1176978793,
				"z": -0.8423956927,
				"element": "H" 
			},
			{
				"x": -0.6256824016,
				"y": 4.4612263777,
				"z": -2.4617287418,
				"element": "H" 
			},
			{
				"x": -2.3177116972,
				"y": 5.0111343027,
				"z": -4.2106328092,
				"element": "H" 
			},
			{
				"x": -2.9325141929,
				"y": 3.3044197759,
				"z": -5.911075523,
				"element": "H" 
			},
			{
				"x": -1.8625173316,
				"y": 1.0629927336,
				"z": -5.8578844959,
				"element": "H" 
			},
			{
				"x": -0.2145323873,
				"y": 0.5160162634,
				"z": -4.096448018,
				"element": "H" 
			}
		],
		 "valence_orbital": [ 
			{
				"type": "occ",
				"energy": -0.25965,
				"method": "rhf"
			},
			{
				"type": "occ",
				"energy": -0.25688,
				"method": "rhf"
			},
			{
				"type": "occ",
				"energy": -0.25558,
				"method": "rhf"
			},
			{
				"type": "occ",
				"energy": -0.24049,
				"method": "rhf"
			},
			{
				"type": "occ",
				"energy": -0.22713,
				"method": "rhf"
			},
			{
				"type": "unocc",
				"energy": -0.05549,
				"method": "rhf"
			},
			{
				"type": "unocc",
				"energy": -0.01231,
				"method": "rhf"
			},
			{
				"type": "unocc",
				"energy": -0.00319,
				"method": "rhf"
			},
			{
				"type": "unocc",
				"energy": -0.00214,
				"method": "rhf"
			},
			{
				"type": "unocc",
				"energy": 0.06452,
				"method": "rhf"
			}
		],
		"cosmo_sigma_profile": { 
			"-0.025": 0.0,
			"-0.024": 0.0,
			"-0.023": 0.0,
			"-0.022": 0.0,
			"-0.021": 0.0,
			"-0.02": 0.0,
			"-0.019": 0.0,
			"-0.018": 0.0,
			"-0.017": 0.0,
			"-0.016": 0.0,
			"-0.015": 0.0,
			"-0.014": 0.0,
			"-0.013": 0.0,
			"-0.012": 0.0,
			"-0.011": 0.0,
			"-0.01": 0.0,
			"-0.009": 0.0,
			"-0.008": 0.0,
			"-0.007": 3.01377086365,
			"-0.006": 19.1977317555,
			"-0.005": 25.6212403917,
			"-0.004": 25.9165445964,
			"-0.003": 22.0124267215,
			"-0.002": 18.0989773557,
			"-0.001": 16.5160960793,
			"0.0": 13.8621018994,
			"0.001": 15.5406083341,
			"0.002": 18.9029777226,
			"0.003": 23.1413423081,
			"0.004": 23.7353610537,
			"0.005": 8.7516547421,
			"0.006": 2.36786878967,
			"0.007": 3.56157310562,
			"0.008": 3.2881726968,
			"0.009": 2.75317232213,
			"0.01": 2.76446168703,
			"0.011": 2.47490249099,
			"0.012": 4.06660154637,
			"0.013": 2.35673952778,
			"0.014": 0.0106214258188,
			"0.015": 0.0,
			"0.016": 0.0,
			"0.017": 0.0,
			"0.018": 0.0,
			"0.019": 0.0,
			"0.02": 0.0,
			"0.021": 0.0,
			"0.022": 0.0,
			"0.023": 0.0,
			"0.024": 0.0,
			"0.025": 0.0
		}
	}
}
