{
	 "smiles": "ClC1=NC=C(C=C1)C(=O)NCC#C", 
	 "Tm": 413.15, 
	 "num_atms": 20, 
	 "gaussian": { 
		 "optdone": 1, 
		 "sigma_profile": "yes", 
		 "theory": "DFT", 
		 "functional": "B3LYP", 
		 "basiset": "6-31G**", 
		 "properties": { 
			 "R2extent": 4136.6818, 
			 "electric_dipole_moment_norm": 2.9202524908, 
			 "electric_quadrupole_moment_norm": 13.0402790043, 
			 "total_energy": -992.019847808, 
			 "HOMO_LUMO_gap": 0.20058, 
			 "cosmo_polarized_energy": -14.17, 
			 "cosmo_cavitation_energy": 28.21, 
			 "cosmo_dispersion_energy": -19.65, 
			 "cosmo_repulsion_energy": 1.58, 
			 "cosmo_total_nonelectrostatic_energy": 10.13, 
			 "SMD_solvation_energy": 4.44 
		},
		"coords": [
			{
				"x": -3.0400996189,
				"y": 4.3552871039,
				"z": -0.5383506229,
				"element": "Cl" 
			},
			{
				"x": -2.5019531224,
				"y": 2.6991206157,
				"z": -0.292535184,
				"element": "C" 
			},
			{
				"x": -1.8161480006,
				"y": 2.1461362826,
				"z": -1.2760149975,
				"element": "N" 
			},
			{
				"x": -1.3816049472,
				"y": 0.8915942408,
				"z": -1.0919120522,
				"element": "C" 
			},
			{
				"x": -1.6159919924,
				"y": 0.1538667943,
				"z": 0.0726110294,
				"element": "C" 
			},
			{
				"x": -2.3842353567,
				"y": 0.757605497,
				"z": 1.0787761109,
				"element": "C" 
			},
			{
				"x": -2.8306899071,
				"y": 2.0602442687,
				"z": 0.9094068699,
				"element": "C" 
			},
			{
				"x": -1.2125379858,
				"y": -1.2814922647,
				"z": 0.2446501691,
				"element": "C" 
			},
			{
				"x": -1.9643115505,
				"y": -2.0725033404,
				"z": 0.8005588145,
				"element": "O" 
			},
			{
				"x": -0.0154899383,
				"y": -1.698489847,
				"z": -0.3060424905,
				"element": "N" 
			},
			{
				"x": 1.2230507626,
				"y": -0.912665401,
				"z": -0.3788761006,
				"element": "C" 
			},
			{
				"x": 2.1101287658,
				"y": -1.1288393836,
				"z": 0.7702295469,
				"element": "C" 
			},
			{
				"x": 2.8375946818,
				"y": -1.3310705541,
				"z": 1.7122123198,
				"element": "C" 
			},
			{
				"x": -0.8475433485,
				"y": 0.4502581559,
				"z": -1.9303400753,
				"element": "H" 
			},
			{
				"x": -2.6241020486,
				"y": 0.1921682816,
				"z": 1.9732325016,
				"element": "H" 
			},
			{
				"x": -3.4169723589,
				"y": 2.5689147149,
				"z": 1.6650460239,
				"element": "H" 
			},
			{
				"x": 0.12933742,
				"y": -2.6857616848,
				"z": -0.1213046331,
				"element": "H" 
			},
			{
				"x": 0.9647469009,
				"y": 0.1460359647,
				"z": -0.4502485529,
				"element": "H" 
			},
			{
				"x": 1.7522059832,
				"y": -1.1690146645,
				"z": -1.3048780144,
				"element": "H" 
			},
			{
				"x": 3.4748156616,
				"y": -1.5022947802,
				"z": 2.5491793374,
				"element": "H" 
			}
		],
		 "valence_orbital": [ 
			{
				"type": "occ",
				"energy": -0.28987,
				"method": "rhf"
			},
			{
				"type": "occ",
				"energy": -0.28582,
				"method": "rhf"
			},
			{
				"type": "occ",
				"energy": -0.27299,
				"method": "rhf"
			},
			{
				"type": "occ",
				"energy": -0.27179,
				"method": "rhf"
			},
			{
				"type": "occ",
				"energy": -0.2584,
				"method": "rhf"
			},
			{
				"type": "unocc",
				"energy": -0.05782,
				"method": "rhf"
			},
			{
				"type": "unocc",
				"energy": -0.0466,
				"method": "rhf"
			},
			{
				"type": "unocc",
				"energy": 0.01327,
				"method": "rhf"
			},
			{
				"type": "unocc",
				"energy": 0.02824,
				"method": "rhf"
			},
			{
				"type": "unocc",
				"energy": 0.03422,
				"method": "rhf"
			}
		],
		"cosmo_sigma_profile": { 
			"-0.025": 0.0,
			"-0.024": 0.0,
			"-0.023": 0.0,
			"-0.022": 0.0,
			"-0.021": 0.0,
			"-0.02": 0.0,
			"-0.019": 0.0,
			"-0.018": 0.0,
			"-0.017": 0.0,
			"-0.016": 0.0,
			"-0.015": 0.0,
			"-0.014": 0.577197615555,
			"-0.013": 0.811102524535,
			"-0.012": 2.01045627496,
			"-0.011": 2.36838581983,
			"-0.01": 1.97707595178,
			"-0.009": 2.43779342926,
			"-0.008": 10.8656181078,
			"-0.007": 13.235991671,
			"-0.006": 11.5298359273,
			"-0.005": 11.1992024994,
			"-0.004": 10.0239489728,
			"-0.003": 10.5659212118,
			"-0.002": 14.7722055074,
			"-0.001": 17.9981724541,
			"0.0": 17.5207254048,
			"0.001": 12.0684377009,
			"0.002": 12.0514873944,
			"0.003": 14.226062454,
			"0.004": 15.9318405408,
			"0.005": 11.2214353475,
			"0.006": 11.1244335442,
			"0.007": 4.62484997006,
			"0.008": 2.65629490947,
			"0.009": 2.08343197732,
			"0.01": 2.16620659416,
			"0.011": 3.1797772919,
			"0.012": 5.51654360639,
			"0.013": 4.63593332356,
			"0.014": 0.71098675192,
			"0.015": 0.0,
			"0.016": 0.0,
			"0.017": 0.0,
			"0.018": 0.0,
			"0.019": 0.0,
			"0.02": 0.0,
			"0.021": 0.0,
			"0.022": 0.0,
			"0.023": 0.0,
			"0.024": 0.0,
			"0.025": 0.0
		}
	}
}
