{
	 "smiles": "CC1=NC2=C(C=NN2C(C)=C1)C(O)=O", 
	 "Tm": 450.15, 
	 "num_atms": 23, 
	 "gaussian": { 
		 "optdone": 1, 
		 "sigma_profile": "yes", 
		 "theory": "DFT", 
		 "functional": "B3LYP", 
		 "basiset": "6-31G**", 
		 "properties": { 
			 "R2extent": 4274.131, 
			 "electric_dipole_moment_norm": 5.1444299451, 
			 "electric_quadrupole_moment_norm": 12.018115693, 
			 "total_energy": -663.093022195, 
			 "HOMO_LUMO_gap": 0.17131, 
			 "cosmo_polarized_energy": -16.37, 
			 "cosmo_cavitation_energy": 27.94, 
			 "cosmo_dispersion_energy": -20.43, 
			 "cosmo_repulsion_energy": 1.61, 
			 "cosmo_total_nonelectrostatic_energy": 9.12, 
			 "SMD_solvation_energy": 4.35 
		},
		"coords": [
			{
				"x": 1.6924816297,
				"y": 0.709637833,
				"z": -2.7164704558,
				"element": "C" 
			},
			{
				"x": 1.3577449162,
				"y": 0.5263826243,
				"z": -1.2584371914,
				"element": "C" 
			},
			{
				"x": 2.317619155,
				"y": 0.0450338022,
				"z": -0.4807686273,
				"element": "N" 
			},
			{
				"x": 2.0361794163,
				"y": -0.1243853501,
				"z": 0.8203761758,
				"element": "C" 
			},
			{
				"x": 2.773654228,
				"y": -0.5966355902,
				"z": 1.9221591162,
				"element": "C" 
			},
			{
				"x": 1.8802845662,
				"y": -0.5165927336,
				"z": 3.0103708182,
				"element": "C" 
			},
			{
				"x": 0.677298753,
				"y": -0.0457568455,
				"z": 2.6870176589,
				"element": "N" 
			},
			{
				"x": 0.7749995638,
				"y": 0.1932237526,
				"z": 1.3484904022,
				"element": "N" 
			},
			{
				"x": -0.2305861489,
				"y": 0.6898731971,
				"z": 0.571379781,
				"element": "C" 
			},
			{
				"x": -1.5355271138,
				"y": 0.9955569676,
				"z": 1.2308386331,
				"element": "C" 
			},
			{
				"x": 0.0663931505,
				"y": 0.8605432445,
				"z": -0.7613540541,
				"element": "C" 
			},
			{
				"x": 4.1471465545,
				"y": -1.0811746887,
				"z": 2.0296455239,
				"element": "C" 
			},
			{
				"x": 4.8243030567,
				"y": -1.0706869697,
				"z": 0.8563274253,
				"element": "O" 
			},
			{
				"x": 4.6550182196,
				"y": -1.4634295302,
				"z": 3.0702097095,
				"element": "O" 
			},
			{
				"x": 2.5431541292,
				"y": 1.389926786,
				"z": -2.8233999658,
				"element": "H" 
			},
			{
				"x": 1.9913631375,
				"y": -0.2471921027,
				"z": -3.1558130202,
				"element": "H" 
			},
			{
				"x": 0.8482730101,
				"y": 1.1092213024,
				"z": -3.2831379383,
				"element": "H" 
			},
			{
				"x": 2.0942827257,
				"y": -0.7963744925,
				"z": 4.0329159516,
				"element": "H" 
			},
			{
				"x": -2.2485220584,
				"y": 1.3838685256,
				"z": 0.5018876268,
				"element": "H" 
			},
			{
				"x": -1.9458435972,
				"y": 0.0960728003,
				"z": 1.7007140984,
				"element": "H" 
			},
			{
				"x": -1.3960144322,
				"y": 1.7280110797,
				"z": 2.0322485272,
				"element": "H" 
			},
			{
				"x": -0.6940791933,
				"y": 1.2518756914,
				"z": -1.4265786079,
				"element": "H" 
			},
			{
				"x": 5.7084763318,
				"y": -1.4118993033,
				"z": 1.0704784127,
				"element": "H" 
			}
		],
		 "valence_orbital": [ 
			{
				"type": "occ",
				"energy": -0.30141,
				"method": "rhf"
			},
			{
				"type": "occ",
				"energy": -0.2684,
				"method": "rhf"
			},
			{
				"type": "occ",
				"energy": -0.26603,
				"method": "rhf"
			},
			{
				"type": "occ",
				"energy": -0.26345,
				"method": "rhf"
			},
			{
				"type": "occ",
				"energy": -0.22909,
				"method": "rhf"
			},
			{
				"type": "unocc",
				"energy": -0.05778,
				"method": "rhf"
			},
			{
				"type": "unocc",
				"energy": -0.02314,
				"method": "rhf"
			},
			{
				"type": "unocc",
				"energy": 0.00599,
				"method": "rhf"
			},
			{
				"type": "unocc",
				"energy": 0.08641,
				"method": "rhf"
			},
			{
				"type": "unocc",
				"energy": 0.09236,
				"method": "rhf"
			}
		],
		"cosmo_sigma_profile": { 
			"-0.025": 0.0,
			"-0.024": 0.0,
			"-0.023": 0.0,
			"-0.022": 0.0,
			"-0.021": 0.0,
			"-0.02": 0.0,
			"-0.019": 0.0,
			"-0.018": 0.526107468064,
			"-0.017": 0.670819510888,
			"-0.016": 0.971372507987,
			"-0.015": 1.28030931551,
			"-0.014": 0.261012177515,
			"-0.013": 0.130838821981,
			"-0.012": 0.263611804464,
			"-0.011": 1.29740753052,
			"-0.01": 1.36923808024,
			"-0.009": 0.689198551424,
			"-0.008": 4.3382028311,
			"-0.007": 6.46275590433,
			"-0.006": 11.3971704065,
			"-0.005": 14.5923296632,
			"-0.004": 16.1758346203,
			"-0.003": 20.8482916419,
			"-0.002": 23.5178027188,
			"-0.001": 22.3212844831,
			"0.0": 14.5498951534,
			"0.001": 14.963293175,
			"0.002": 8.51875979194,
			"0.003": 5.53185648889,
			"0.004": 5.48111816744,
			"0.005": 6.54948303301,
			"0.006": 3.91221037891,
			"0.007": 3.08176895872,
			"0.008": 4.33093770188,
			"0.009": 4.85938156753,
			"0.01": 4.04936399127,
			"0.011": 5.34556845027,
			"0.012": 6.85604413333,
			"0.013": 4.23243995428,
			"0.014": 1.4806819317,
			"0.015": 1.24054062424,
			"0.016": 0.818993020217,
			"0.017": 0.0569100160811,
			"0.018": 0.0,
			"0.019": 0.0,
			"0.02": 0.0,
			"0.021": 0.0,
			"0.022": 0.0,
			"0.023": 0.0,
			"0.024": 0.0,
			"0.025": 0.0
		}
	}
}
