{
	 "smiles": "CCC(C(=O)OC)C1=CC=CC=C1", 
	 "Tm": 350.65, 
	 "num_atms": 27, 
	 "gaussian": { 
		 "optdone": 1, 
		 "sigma_profile": "yes", 
		 "theory": "DFT", 
		 "functional": "B3LYP", 
		 "basiset": "6-31G**", 
		 "properties": { 
			 "R2extent": 2986.219, 
			 "electric_dipole_moment_norm": 1.50386656323, 
			 "electric_quadrupole_moment_norm": 6.42888708409, 
			 "total_energy": -578.071988963, 
			 "HOMO_LUMO_gap": 0.2349, 
			 "cosmo_polarized_energy": -7.24, 
			 "cosmo_cavitation_energy": 29.61, 
			 "cosmo_dispersion_energy": -21.04, 
			 "cosmo_repulsion_energy": 1.7, 
			 "cosmo_total_nonelectrostatic_energy": 10.27, 
			 "SMD_solvation_energy": 6.38 
		},
		"coords": [
			{
				"x": -1.2110274192,
				"y": 1.066586394,
				"z": -1.4234669815,
				"element": "C" 
			},
			{
				"x": -0.9223981146,
				"y": -0.3687791376,
				"z": -0.9775869782,
				"element": "C" 
			},
			{
				"x": 0.4365673914,
				"y": -0.6103605341,
				"z": -0.2473155321,
				"element": "C" 
			},
			{
				"x": 1.5983925812,
				"y": -0.3748763225,
				"z": -1.2018884679,
				"element": "C" 
			},
			{
				"x": 1.9266276944,
				"y": 0.6892930116,
				"z": -1.6888287064,
				"element": "O" 
			},
			{
				"x": 2.2319375042,
				"y": -1.5347975965,
				"z": -1.4873014135,
				"element": "O" 
			},
			{
				"x": 3.3311661922,
				"y": -1.4254101848,
				"z": -2.407609775,
				"element": "C" 
			},
			{
				"x": 0.5575365239,
				"y": 0.1749133011,
				"z": 1.0555558201,
				"element": "C" 
			},
			{
				"x": 0.1360305751,
				"y": -0.440020069,
				"z": 2.243598528,
				"element": "C" 
			},
			{
				"x": 0.1822463315,
				"y": 0.2386459605,
				"z": 3.4613264119,
				"element": "C" 
			},
			{
				"x": 0.6592592601,
				"y": 1.5494809168,
				"z": 3.512157716,
				"element": "C" 
			},
			{
				"x": 1.086713501,
				"y": 2.1697158454,
				"z": 2.3375108252,
				"element": "C" 
			},
			{
				"x": 1.0358126504,
				"y": 1.4918711404,
				"z": 1.1175975948,
				"element": "C" 
			},
			{
				"x": -2.1847154874,
				"y": 1.113348727,
				"z": -1.9222308994,
				"element": "H" 
			},
			{
				"x": -1.2398600909,
				"y": 1.7497490531,
				"z": -0.5697233442,
				"element": "H" 
			},
			{
				"x": -0.4507872493,
				"y": 1.4306665515,
				"z": -2.1186656671,
				"element": "H" 
			},
			{
				"x": -1.708700128,
				"y": -0.7051222048,
				"z": -0.2911386556,
				"element": "H" 
			},
			{
				"x": -0.9606153411,
				"y": -1.0416657022,
				"z": -1.8441498668,
				"element": "H" 
			},
			{
				"x": 0.4641799573,
				"y": -1.6735915425,
				"z": 0.0078573424,
				"element": "H" 
			},
			{
				"x": 4.1023097548,
				"y": -0.7624090163,
				"z": -2.0077220105,
				"element": "H" 
			},
			{
				"x": 3.718467194,
				"y": -2.437418241,
				"z": -2.5245959213,
				"element": "H" 
			},
			{
				"x": 2.9915849305,
				"y": -1.0298384722,
				"z": -3.3681458731,
				"element": "H" 
			},
			{
				"x": -0.2301006994,
				"y": -1.463845611,
				"z": 2.2136651814,
				"element": "H" 
			},
			{
				"x": -0.1473370163,
				"y": -0.2590308057,
				"z": 4.3691566,
				"element": "H" 
			},
			{
				"x": 0.7010685398,
				"y": 2.0804465379,
				"z": 4.4589292963,
				"element": "H" 
			},
			{
				"x": 1.4643807792,
				"y": 3.1881150238,
				"z": 2.3670853744,
				"element": "H" 
			},
			{
				"x": 1.3804601851,
				"y": 1.9756329772,
				"z": 0.2108294021,
				"element": "H" 
			}
		],
		 "valence_orbital": [ 
			{
				"type": "occ",
				"energy": -0.32372,
				"method": "rhf"
			},
			{
				"type": "occ",
				"energy": -0.3023,
				"method": "rhf"
			},
			{
				"type": "occ",
				"energy": -0.26769,
				"method": "rhf"
			},
			{
				"type": "occ",
				"energy": -0.24545,
				"method": "rhf"
			},
			{
				"type": "occ",
				"energy": -0.23943,
				"method": "rhf"
			},
			{
				"type": "unocc",
				"energy": -0.00453,
				"method": "rhf"
			},
			{
				"type": "unocc",
				"energy": 0.00223,
				"method": "rhf"
			},
			{
				"type": "unocc",
				"energy": 0.01656,
				"method": "rhf"
			},
			{
				"type": "unocc",
				"energy": 0.09154,
				"method": "rhf"
			},
			{
				"type": "unocc",
				"energy": 0.10708,
				"method": "rhf"
			}
		],
		"cosmo_sigma_profile": { 
			"-0.025": 0.0,
			"-0.024": 0.0,
			"-0.023": 0.0,
			"-0.022": 0.0,
			"-0.021": 0.0,
			"-0.02": 0.0,
			"-0.019": 0.0,
			"-0.018": 0.0,
			"-0.017": 0.0,
			"-0.016": 0.0,
			"-0.015": 0.0,
			"-0.014": 0.0,
			"-0.013": 0.0,
			"-0.012": 0.0,
			"-0.011": 0.0,
			"-0.01": 0.0,
			"-0.009": 0.0,
			"-0.008": 0.0,
			"-0.007": 0.496124526485,
			"-0.006": 8.46553428582,
			"-0.005": 17.349588528,
			"-0.004": 21.3389753628,
			"-0.003": 28.9924926061,
			"-0.002": 21.2477909789,
			"-0.001": 22.8402511067,
			"0.0": 20.4390459008,
			"0.001": 19.3272347884,
			"0.002": 14.4362662229,
			"0.003": 11.6082491108,
			"0.004": 11.3039333979,
			"0.005": 10.1999029376,
			"0.006": 11.3492986097,
			"0.007": 3.17547115676,
			"0.008": 2.77548503276,
			"0.009": 2.07300053847,
			"0.01": 1.51779101308,
			"0.011": 2.09913344716,
			"0.012": 2.33249349359,
			"0.013": 0.112344177344,
			"0.014": 0.0,
			"0.015": 0.0,
			"0.016": 0.0,
			"0.017": 0.0,
			"0.018": 0.0,
			"0.019": 0.0,
			"0.02": 0.0,
			"0.021": 0.0,
			"0.022": 0.0,
			"0.023": 0.0,
			"0.024": 0.0,
			"0.025": 0.0
		}
	}
}
