{
	 "smiles": "FC1=C(F)C(F)=C(OC(=O)C2=C(OC3CCOCC3)C=CC=C2)C(F)=C1F", 
	 "Tm": 336.15, 
	 "num_atms": 40, 
	 "gaussian": { 
		 "optdone": 1, 
		 "sigma_profile": "yes", 
		 "theory": "DFT", 
		 "functional": "B3LYP", 
		 "basiset": "6-31G**", 
		 "properties": { 
			 "R2extent": 10906.8057, 
			 "electric_dipole_moment_norm": 5.93870491353, 
			 "electric_quadrupole_moment_norm": 8.44774150528, 
			 "total_energy": -1493.75266042, 
			 "HOMO_LUMO_gap": 0.18329, 
			 "cosmo_polarized_energy": -12.89, 
			 "cosmo_cavitation_energy": 45.54, 
			 "cosmo_dispersion_energy": -30.2, 
			 "cosmo_repulsion_energy": 2.15, 
			 "cosmo_total_nonelectrostatic_energy": 17.48, 
			 "SMD_solvation_energy": 10.4 
		},
		"coords": [
			{
				"x": 3.9375187563,
				"y": -4.3891705002,
				"z": 2.6385223753,
				"element": "F" 
			},
			{
				"x": 2.9089587565,
				"y": -3.584131367,
				"z": 2.3546678949,
				"element": "C" 
			},
			{
				"x": 3.1364817435,
				"y": -2.3489934445,
				"z": 1.752044202,
				"element": "C" 
			},
			{
				"x": 4.3859257284,
				"y": -1.9687146835,
				"z": 1.4602496921,
				"element": "F" 
			},
			{
				"x": 2.0635825109,
				"y": -1.5095682364,
				"z": 1.4610932935,
				"element": "C" 
			},
			{
				"x": 2.3023818729,
				"y": -0.3209897331,
				"z": 0.8978869167,
				"element": "F" 
			},
			{
				"x": 0.7576285512,
				"y": -1.9003946923,
				"z": 1.7588226133,
				"element": "C" 
			},
			{
				"x": -0.2843457612,
				"y": -1.0896389375,
				"z": 1.3793905406,
				"element": "O" 
			},
			{
				"x": -1.0345107576,
				"y": -0.48548686,
				"z": 2.3703424178,
				"element": "C" 
			},
			{
				"x": -0.8642083587,
				"y": -0.713595487,
				"z": 3.5438754017,
				"element": "O" 
			},
			{
				"x": -2.0930251297,
				"y": 0.39440254,
				"z": 1.8097667903,
				"element": "C" 
			},
			{
				"x": -1.9789765067,
				"y": 1.1041511955,
				"z": 0.5878902427,
				"element": "C" 
			},
			{
				"x": -0.7757815483,
				"y": 1.063629891,
				"z": -0.031124859,
				"element": "O" 
			},
			{
				"x": -0.6085116645,
				"y": 1.4563438674,
				"z": -1.4071820405,
				"element": "C" 
			},
			{
				"x": -1.237418236,
				"y": 0.4227664322,
				"z": -2.3454248475,
				"element": "C" 
			},
			{
				"x": -0.5966711799,
				"y": -0.9655668381,
				"z": -2.1393970119,
				"element": "C" 
			},
			{
				"x": 0.7640893123,
				"y": -0.9039781739,
				"z": -1.7196081006,
				"element": "O" 
			},
			{
				"x": 1.4577400305,
				"y": 0.2195443314,
				"z": -2.2360306445,
				"element": "C" 
			},
			{
				"x": 0.9138432868,
				"y": 1.5313260279,
				"z": -1.6393955202,
				"element": "C" 
			},
			{
				"x": -3.0727811357,
				"y": 1.8576139851,
				"z": 0.1349720383,
				"element": "C" 
			},
			{
				"x": -4.2392788361,
				"y": 1.9324363974,
				"z": 0.8953082493,
				"element": "C" 
			},
			{
				"x": -4.3405609528,
				"y": 1.2734753801,
				"z": 2.1216302187,
				"element": "C" 
			},
			{
				"x": -3.2631209261,
				"y": 0.5177506849,
				"z": 2.5716549107,
				"element": "C" 
			},
			{
				"x": 0.539199947,
				"y": -3.1426571006,
				"z": 2.3558983856,
				"element": "C" 
			},
			{
				"x": -0.706244784,
				"y": -3.5413041979,
				"z": 2.6293574803,
				"element": "F" 
			},
			{
				"x": 1.6085187252,
				"y": -3.9813380649,
				"z": 2.6592767427,
				"element": "C" 
			},
			{
				"x": 1.3909175133,
				"y": -5.1699729673,
				"z": 3.2329337308,
				"element": "F" 
			},
			{
				"x": -1.0562992758,
				"y": 2.4460350272,
				"z": -1.555770903,
				"element": "H" 
			},
			{
				"x": -2.3195537603,
				"y": 0.3545617259,
				"z": -2.19569445,
				"element": "H" 
			},
			{
				"x": -1.0842616288,
				"y": 0.7753724152,
				"z": -3.3726522113,
				"element": "H" 
			},
			{
				"x": -0.6796278506,
				"y": -1.5495847774,
				"z": -3.0702475014,
				"element": "H" 
			},
			{
				"x": -1.120329341,
				"y": -1.5101841287,
				"z": -1.3496018957,
				"element": "H" 
			},
			{
				"x": 1.3970248794,
				"y": 0.2392979814,
				"z": -3.3372653987,
				"element": "H" 
			},
			{
				"x": 2.5080004479,
				"y": 0.0806454004,
				"z": -1.9684377135,
				"element": "H" 
			},
			{
				"x": 1.3844482041,
				"y": 1.7344114964,
				"z": -0.6744575108,
				"element": "H" 
			},
			{
				"x": 1.1471878675,
				"y": 2.367708875,
				"z": -2.3083392997,
				"element": "H" 
			},
			{
				"x": -3.0109745959,
				"y": 2.4022446107,
				"z": -0.799313429,
				"element": "H" 
			},
			{
				"x": -5.0720935353,
				"y": 2.5237017842,
				"z": 0.5248698026,
				"element": "H" 
			},
			{
				"x": -5.2465651242,
				"y": 1.3443918455,
				"z": 2.7141355773,
				"element": "H" 
			},
			{
				"x": -3.3077072448,
				"y": -0.0106417046,
				"z": 3.5181538202,
				"element": "H" 
			}
		],
		 "valence_orbital": [ 
			{
				"type": "occ",
				"energy": -0.26585,
				"method": "rhf"
			},
			{
				"type": "occ",
				"energy": -0.25389,
				"method": "rhf"
			},
			{
				"type": "occ",
				"energy": -0.25152,
				"method": "rhf"
			},
			{
				"type": "occ",
				"energy": -0.24954,
				"method": "rhf"
			},
			{
				"type": "occ",
				"energy": -0.23341,
				"method": "rhf"
			},
			{
				"type": "unocc",
				"energy": -0.05012,
				"method": "rhf"
			},
			{
				"type": "unocc",
				"energy": -0.01743,
				"method": "rhf"
			},
			{
				"type": "unocc",
				"energy": -0.01093,
				"method": "rhf"
			},
			{
				"type": "unocc",
				"energy": -0.00608,
				"method": "rhf"
			},
			{
				"type": "unocc",
				"energy": 0.00774,
				"method": "rhf"
			}
		],
		"cosmo_sigma_profile": { 
			"-0.025": 0.0,
			"-0.024": 0.0,
			"-0.023": 0.0,
			"-0.022": 0.0,
			"-0.021": 0.0,
			"-0.02": 0.0,
			"-0.019": 0.0,
			"-0.018": 0.0,
			"-0.017": 0.0,
			"-0.016": 0.0,
			"-0.015": 0.0,
			"-0.014": 0.0,
			"-0.013": 0.0,
			"-0.012": 0.0,
			"-0.011": 0.0,
			"-0.01": 0.0,
			"-0.009": 0.0145285857014,
			"-0.008": 1.37167289789,
			"-0.007": 4.59230884359,
			"-0.006": 9.9084617789,
			"-0.005": 18.697239589,
			"-0.004": 40.2645973914,
			"-0.003": 42.1766463771,
			"-0.002": 33.9250813169,
			"-0.001": 29.8195858154,
			"0.0": 20.8442683831,
			"0.001": 26.2236081131,
			"0.002": 53.0671717241,
			"0.003": 37.1197398472,
			"0.004": 12.9908738695,
			"0.005": 5.71222066788,
			"0.006": 4.50080549158,
			"0.007": 4.88256626234,
			"0.008": 3.65561747503,
			"0.009": 3.4307059212,
			"0.01": 4.1822545208,
			"0.011": 3.46288367756,
			"0.012": 0.975841317803,
			"0.013": 0.807971957766,
			"0.014": 0.470890933231,
			"0.015": 0.0554404954104,
			"0.016": 0.0783013059679,
			"0.017": 0.251677663517,
			"0.018": 0.324323783504,
			"0.019": 0.137344325142,
			"0.02": 0.255966465318,
			"0.021": 0.0447895299396,
			"0.022": 0.0346916870424,
			"0.023": 0.0375927029576,
			"0.024": 0.0,
			"0.025": 0.0
		}
	}
}
