{
	 "smiles": "CCN(CC)C(=O)N1CCN(C)CC1", 
	 "Tm": 321.15, 
	 "num_atms": 35, 
	 "gaussian": { 
		 "optdone": 1, 
		 "sigma_profile": "yes", 
		 "theory": "DFT", 
		 "functional": "B3LYP", 
		 "basiset": "6-31G**", 
		 "properties": { 
			 "R2extent": 3945.9897, 
			 "electric_dipole_moment_norm": 3.23222622042, 
			 "electric_quadrupole_moment_norm": 9.53519934768, 
			 "total_energy": -633.210921904, 
			 "HOMO_LUMO_gap": 0.25418, 
			 "cosmo_polarized_energy": -10.07, 
			 "cosmo_cavitation_energy": 34.08, 
			 "cosmo_dispersion_energy": -23.94, 
			 "cosmo_repulsion_energy": 1.88, 
			 "cosmo_total_nonelectrostatic_energy": 12.02, 
			 "SMD_solvation_energy": 3.16 
		},
		"coords": [
			{
				"x": 0.4335179828,
				"y": -1.1103841577,
				"z": -1.429610557,
				"element": "C" 
			},
			{
				"x": 1.2404945175,
				"y": 0.0233042363,
				"z": -0.7844236694,
				"element": "C" 
			},
			{
				"x": 0.525824355,
				"y": 1.3031760587,
				"z": -0.6536839136,
				"element": "N" 
			},
			{
				"x": 0.7775567014,
				"y": 2.3290190968,
				"z": -1.6751907464,
				"element": "C" 
			},
			{
				"x": 0.1530035415,
				"y": 2.0619509129,
				"z": -3.0490979667,
				"element": "C" 
			},
			{
				"x": -0.6772579123,
				"y": 1.4131808121,
				"z": 0.0291887808,
				"element": "C" 
			},
			{
				"x": -1.5699523324,
				"y": 2.1778048237,
				"z": -0.3295272408,
				"element": "O" 
			},
			{
				"x": -0.8183452638,
				"y": 0.5801318252,
				"z": 1.1534593776,
				"element": "N" 
			},
			{
				"x": 0.1818645413,
				"y": 0.6546402993,
				"z": 2.2290162243,
				"element": "C" 
			},
			{
				"x": 0.0562623979,
				"y": -0.5667209517,
				"z": 3.1370450938,
				"element": "C" 
			},
			{
				"x": -1.2922964702,
				"y": -0.6504817448,
				"z": 3.6903881969,
				"element": "N" 
			},
			{
				"x": -1.4327992345,
				"y": -1.7600319115,
				"z": 4.6197838675,
				"element": "C" 
			},
			{
				"x": -2.290755894,
				"y": -0.6980397575,
				"z": 2.6229238085,
				"element": "C" 
			},
			{
				"x": -2.1740288765,
				"y": 0.5212339493,
				"z": 1.7105339889,
				"element": "C" 
			},
			{
				"x": -0.4442882421,
				"y": -1.3461200839,
				"z": -0.8227216776,
				"element": "H" 
			},
			{
				"x": 1.0501590212,
				"y": -2.0135219636,
				"z": -1.4996870548,
				"element": "H" 
			},
			{
				"x": 0.0984775588,
				"y": -0.8468488637,
				"z": -2.4361312238,
				"element": "H" 
			},
			{
				"x": 1.6037093608,
				"y": -0.3134799228,
				"z": 0.1912273169,
				"element": "H" 
			},
			{
				"x": 2.13393097,
				"y": 0.2313318022,
				"z": -1.3819097244,
				"element": "H" 
			},
			{
				"x": 1.8654608462,
				"y": 2.434762009,
				"z": -1.7668468615,
				"element": "H" 
			},
			{
				"x": 0.3859748478,
				"y": 3.2698959558,
				"z": -1.2835263642,
				"element": "H" 
			},
			{
				"x": 0.3541668485,
				"y": 2.9045989171,
				"z": -3.7199990295,
				"element": "H" 
			},
			{
				"x": 0.5624239347,
				"y": 1.1617575791,
				"z": -3.5186373776,
				"element": "H" 
			},
			{
				"x": -0.9292187435,
				"y": 1.9513135707,
				"z": -2.950496654,
				"element": "H" 
			},
			{
				"x": 1.1854156937,
				"y": 0.7162598521,
				"z": 1.8084322315,
				"element": "H" 
			},
			{
				"x": 0.016283249,
				"y": 1.5626091188,
				"z": 2.8314042286,
				"element": "H" 
			},
			{
				"x": 0.7702259151,
				"y": -0.4777329339,
				"z": 3.9645738221,
				"element": "H" 
			},
			{
				"x": 0.3244361434,
				"y": -1.4755233698,
				"z": 2.5605029804,
				"element": "H" 
			},
			{
				"x": -2.4365260482,
				"y": -1.7507508645,
				"z": 5.0571642247,
				"element": "H" 
			},
			{
				"x": -1.2760049359,
				"y": -2.7499258098,
				"z": 4.1485478945,
				"element": "H" 
			},
			{
				"x": -0.7079286146,
				"y": -1.6557337871,
				"z": 5.4340084189,
				"element": "H" 
			},
			{
				"x": -2.1921360383,
				"y": -1.6181266343,
				"z": 2.012076444,
				"element": "H" 
			},
			{
				"x": -3.2874240433,
				"y": -0.711932773,
				"z": 3.0791311413,
				"element": "H" 
			},
			{
				"x": -2.8875670986,
				"y": 0.4563009713,
				"z": 0.8877707417,
				"element": "H" 
			},
			{
				"x": -2.4054586786,
				"y": 1.4345837391,
				"z": 2.2784112786,
				"element": "H" 
			}
		],
		 "valence_orbital": [ 
			{
				"type": "occ",
				"energy": -0.33224,
				"method": "rhf"
			},
			{
				"type": "occ",
				"energy": -0.26133,
				"method": "rhf"
			},
			{
				"type": "occ",
				"energy": -0.22788,
				"method": "rhf"
			},
			{
				"type": "occ",
				"energy": -0.22541,
				"method": "rhf"
			},
			{
				"type": "occ",
				"energy": -0.21584,
				"method": "rhf"
			},
			{
				"type": "unocc",
				"energy": 0.03834,
				"method": "rhf"
			},
			{
				"type": "unocc",
				"energy": 0.07648,
				"method": "rhf"
			},
			{
				"type": "unocc",
				"energy": 0.09309,
				"method": "rhf"
			},
			{
				"type": "unocc",
				"energy": 0.10626,
				"method": "rhf"
			},
			{
				"type": "unocc",
				"energy": 0.11455,
				"method": "rhf"
			}
		],
		"cosmo_sigma_profile": { 
			"-0.025": 0.0,
			"-0.024": 0.0,
			"-0.023": 0.0,
			"-0.022": 0.0,
			"-0.021": 0.0,
			"-0.02": 0.0,
			"-0.019": 0.0,
			"-0.018": 0.0,
			"-0.017": 0.0,
			"-0.016": 0.0,
			"-0.015": 0.0,
			"-0.014": 0.0,
			"-0.013": 0.0,
			"-0.012": 0.0,
			"-0.011": 0.0,
			"-0.01": 0.0,
			"-0.009": 0.0,
			"-0.008": 0.0,
			"-0.007": 0.0558290654061,
			"-0.006": 1.40906914885,
			"-0.005": 6.22846128112,
			"-0.004": 22.8802835459,
			"-0.003": 36.4313620625,
			"-0.002": 43.3438666387,
			"-0.001": 44.2567098945,
			"0.0": 35.4377411127,
			"0.001": 23.5314767255,
			"0.002": 9.53157910412,
			"0.003": 5.81594198538,
			"0.004": 4.92744075962,
			"0.005": 3.31446780649,
			"0.006": 3.44753784095,
			"0.007": 2.60908740234,
			"0.008": 1.92733375408,
			"0.009": 2.29858492145,
			"0.01": 2.09937006082,
			"0.011": 2.02445286216,
			"0.012": 2.33114217059,
			"0.013": 2.56880987911,
			"0.014": 4.52614812525,
			"0.015": 1.72258161491,
			"0.016": 0.322053095636,
			"0.017": 0.0415390078914,
			"0.018": 0.0,
			"0.019": 0.0,
			"0.02": 0.0,
			"0.021": 0.0,
			"0.022": 0.0,
			"0.023": 0.0,
			"0.024": 0.0,
			"0.025": 0.0
		}
	}
}
