{
	 "smiles": "CCOC(=O)C(C)(C)C1=CCC2(C)C(CCC3C4CCC(OCC5=CC=CC=C5)C4(C)CCC23)C1", 
	 "Tm": 411.15, 
	 "num_atms": 81, 
	 "gaussian": { 
		 "optdone": 1, 
		 "sigma_profile": "yes", 
		 "theory": "DFT", 
		 "functional": "B3LYP", 
		 "basiset": "6-31G**", 
		 "properties": { 
			 "R2extent": 26576.4166, 
			 "electric_dipole_moment_norm": 1.16226398464, 
			 "electric_quadrupole_moment_norm": 19.9379441144, 
			 "total_energy": -1472.82326666, 
			 "HOMO_LUMO_gap": 0.23038, 
			 "cosmo_polarized_energy": -11.88, 
			 "cosmo_cavitation_energy": 71.51, 
			 "cosmo_dispersion_energy": -47.07, 
			 "cosmo_repulsion_energy": 3.47, 
			 "cosmo_total_nonelectrostatic_energy": 27.92, 
			 "SMD_solvation_energy": 11.21 
		},
		"coords": [
			{
				"x": -8.8458060853,
				"y": 2.4102155633,
				"z": -1.4361746651,
				"element": "C" 
			},
			{
				"x": -7.7741718944,
				"y": 1.5067843079,
				"z": -2.027299381,
				"element": "C" 
			},
			{
				"x": -6.4876698336,
				"y": 2.170758288,
				"z": -2.0674570955,
				"element": "O" 
			},
			{
				"x": -5.7422034899,
				"y": 2.1140143471,
				"z": -0.9399103779,
				"element": "C" 
			},
			{
				"x": -6.0997965301,
				"y": 1.5329107565,
				"z": 0.0647163029,
				"element": "O" 
			},
			{
				"x": -4.4387509748,
				"y": 2.9273736894,
				"z": -1.0552127714,
				"element": "C" 
			},
			{
				"x": -4.8090007534,
				"y": 4.3322916427,
				"z": -0.5194435601,
				"element": "C" 
			},
			{
				"x": -3.9703843444,
				"y": 3.0737015892,
				"z": -2.5224523646,
				"element": "C" 
			},
			{
				"x": -3.3556887217,
				"y": 2.2279043205,
				"z": -0.2213548326,
				"element": "C" 
			},
			{
				"x": -2.6460791563,
				"y": 2.8589847594,
				"z": 0.7232312852,
				"element": "C" 
			},
			{
				"x": -1.5543695118,
				"y": 2.2259440516,
				"z": 1.5478016602,
				"element": "C" 
			},
			{
				"x": -1.5273466308,
				"y": 0.6758986651,
				"z": 1.4925312333,
				"element": "C" 
			},
			{
				"x": -2.6615781172,
				"y": 0.1719540747,
				"z": 2.4144662376,
				"element": "C" 
			},
			{
				"x": -1.7778666288,
				"y": 0.2155112782,
				"z": 0.0279356603,
				"element": "C" 
			},
			{
				"x": -0.598712319,
				"y": 0.5738117413,
				"z": -0.8969357727,
				"element": "C" 
			},
			{
				"x": 0.7409556227,
				"y": 0.0158464452,
				"z": -0.3913380035,
				"element": "C" 
			},
			{
				"x": 1.0237953154,
				"y": 0.5084017949,
				"z": 1.0414975502,
				"element": "C" 
			},
			{
				"x": 2.3749373026,
				"y": 0.1125715558,
				"z": 1.697219906,
				"element": "C" 
			},
			{
				"x": 3.6237683338,
				"y": 0.1487241189,
				"z": 0.788364397,
				"element": "C" 
			},
			{
				"x": 4.6240136538,
				"y": -0.7630746829,
				"z": 1.5104579052,
				"element": "C" 
			},
			{
				"x": 3.7458452061,
				"y": -1.9530194736,
				"z": 1.936380592,
				"element": "C" 
			},
			{
				"x": 3.4931801711,
				"y": -2.8107095681,
				"z": 0.8199837553,
				"element": "O" 
			},
			{
				"x": 4.5102414064,
				"y": -3.7634565614,
				"z": 0.5779339159,
				"element": "C" 
			},
			{
				"x": 4.1796602312,
				"y": -4.5837917184,
				"z": -0.6492991261,
				"element": "C" 
			},
			{
				"x": 3.3726741262,
				"y": -4.0706737655,
				"z": -1.6707222369,
				"element": "C" 
			},
			{
				"x": 3.1151779947,
				"y": -4.8279549387,
				"z": -2.814857717,
				"element": "C" 
			},
			{
				"x": 3.6652698871,
				"y": -6.1031459251,
				"z": -2.9555294786,
				"element": "C" 
			},
			{
				"x": 4.4718555269,
				"y": -6.6208919868,
				"z": -1.9400325104,
				"element": "C" 
			},
			{
				"x": 4.7223682288,
				"y": -5.8664795908,
				"z": -0.7936057179,
				"element": "C" 
			},
			{
				"x": 2.4110805182,
				"y": -1.2935172012,
				"z": 2.4189281422,
				"element": "C" 
			},
			{
				"x": 2.5034034512,
				"y": -1.1026710241,
				"z": 3.9482261602,
				"element": "C" 
			},
			{
				"x": 1.1671345653,
				"y": -2.1277026501,
				"z": 2.072886377,
				"element": "C" 
			},
			{
				"x": -0.162629256,
				"y": -1.3829555655,
				"z": 2.3194467641,
				"element": "C" 
			},
			{
				"x": -0.143326914,
				"y": 0.1434964221,
				"z": 1.9962083262,
				"element": "C" 
			},
			{
				"x": -3.1167851876,
				"y": 0.7570602501,
				"z": -0.5091208842,
				"element": "C" 
			},
			{
				"x": -8.6274657458,
				"y": 2.6284120329,
				"z": -0.3880344056,
				"element": "H" 
			},
			{
				"x": -8.9116173286,
				"y": 3.3517096897,
				"z": -1.9897058905,
				"element": "H" 
			},
			{
				"x": -9.8205070209,
				"y": 1.9134677358,
				"z": -1.4871624618,
				"element": "H" 
			},
			{
				"x": -7.9861231125,
				"y": 1.2635673068,
				"z": -3.0713415744,
				"element": "H" 
			},
			{
				"x": -7.6754329791,
				"y": 0.5842549763,
				"z": -1.4504933228,
				"element": "H" 
			},
			{
				"x": -5.1224894178,
				"y": 4.2872513524,
				"z": 0.5265844611,
				"element": "H" 
			},
			{
				"x": -3.9557049189,
				"y": 5.0117518267,
				"z": -0.6023534297,
				"element": "H" 
			},
			{
				"x": -5.6275845486,
				"y": 4.7524671998,
				"z": -1.111530982,
				"element": "H" 
			},
			{
				"x": -4.7229228511,
				"y": 3.588098836,
				"z": -3.1239445789,
				"element": "H" 
			},
			{
				"x": -3.0439645635,
				"y": 3.6555104538,
				"z": -2.5464037323,
				"element": "H" 
			},
			{
				"x": -3.775899291,
				"y": 2.106704046,
				"z": -2.9928586186,
				"element": "H" 
			},
			{
				"x": -2.8350795444,
				"y": 3.9079489938,
				"z": 0.9354464899,
				"element": "H" 
			},
			{
				"x": -1.6704436203,
				"y": 2.5394764974,
				"z": 2.5952024984,
				"element": "H" 
			},
			{
				"x": -0.5938624533,
				"y": 2.6539978054,
				"z": 1.2319582123,
				"element": "H" 
			},
			{
				"x": -2.4163901253,
				"y": 0.3701683963,
				"z": 3.4647583838,
				"element": "H" 
			},
			{
				"x": -3.6027685547,
				"y": 0.6833073955,
				"z": 2.1942293867,
				"element": "H" 
			},
			{
				"x": -2.8355493872,
				"y": -0.903018988,
				"z": 2.310269183,
				"element": "H" 
			},
			{
				"x": -1.8564447947,
				"y": -0.8811533385,
				"z": 0.0316229898,
				"element": "H" 
			},
			{
				"x": -0.5274191158,
				"y": 1.6647552035,
				"z": -1.0010075737,
				"element": "H" 
			},
			{
				"x": -0.8039785184,
				"y": 0.1860902698,
				"z": -1.9032495061,
				"element": "H" 
			},
			{
				"x": 1.5420004821,
				"y": 0.3363305987,
				"z": -1.067062382,
				"element": "H" 
			},
			{
				"x": 0.7182337475,
				"y": -1.0790249966,
				"z": -0.4390340994,
				"element": "H" 
			},
			{
				"x": 1.0593364007,
				"y": 1.6034608126,
				"z": 0.9635171644,
				"element": "H" 
			},
			{
				"x": 2.5358814899,
				"y": 0.863997745,
				"z": 2.4830929354,
				"element": "H" 
			},
			{
				"x": 3.9986137299,
				"y": 1.1646753881,
				"z": 0.6245455858,
				"element": "H" 
			},
			{
				"x": 3.4047356377,
				"y": -0.2836492382,
				"z": -0.192437902,
				"element": "H" 
			},
			{
				"x": 5.0323718771,
				"y": -0.2662141714,
				"z": 2.3994914208,
				"element": "H" 
			},
			{
				"x": 5.472858093,
				"y": -1.0664895029,
				"z": 0.8893618775,
				"element": "H" 
			},
			{
				"x": 4.2001382757,
				"y": -2.5509375897,
				"z": 2.7409006792,
				"element": "H" 
			},
			{
				"x": 5.4837672285,
				"y": -3.2642270518,
				"z": 0.432170419,
				"element": "H" 
			},
			{
				"x": 4.628219865,
				"y": -4.4267791928,
				"z": 1.4514971259,
				"element": "H" 
			},
			{
				"x": 2.9422962906,
				"y": -3.0820560918,
				"z": -1.5558143371,
				"element": "H" 
			},
			{
				"x": 2.4823296593,
				"y": -4.4198632506,
				"z": -3.5983121324,
				"element": "H" 
			},
			{
				"x": 3.4636720062,
				"y": -6.6910677757,
				"z": -3.8464836293,
				"element": "H" 
			},
			{
				"x": 4.8988547268,
				"y": -7.6153666922,
				"z": -2.0358969319,
				"element": "H" 
			},
			{
				"x": 5.3425897916,
				"y": -6.2802023838,
				"z": -0.0012875527,
				"element": "H" 
			},
			{
				"x": 1.6503734387,
				"y": -0.5325710477,
				"z": 4.3293191443,
				"element": "H" 
			},
			{
				"x": 2.5175327218,
				"y": -2.0687875868,
				"z": 4.4660371132,
				"element": "H" 
			},
			{
				"x": 3.410127671,
				"y": -0.5562592014,
				"z": 4.2323843848,
				"element": "H" 
			},
			{
				"x": 1.2340254125,
				"y": -2.4354407433,
				"z": 1.0290360253,
				"element": "H" 
			},
			{
				"x": 1.1726058862,
				"y": -3.0601139417,
				"z": 2.6517895789,
				"element": "H" 
			},
			{
				"x": -0.4728352506,
				"y": -1.5118819906,
				"z": 3.3620285282,
				"element": "H" 
			},
			{
				"x": -0.9307161066,
				"y": -1.8876656652,
				"z": 1.724492139,
				"element": "H" 
			},
			{
				"x": 0.0569378305,
				"y": 0.6704528058,
				"z": 2.9419695746,
				"element": "H" 
			},
			{
				"x": -3.1626629217,
				"y": 0.5695837584,
				"z": -1.5901668043,
				"element": "H" 
			},
			{
				"x": -3.9496352838,
				"y": 0.1868143047,
				"z": -0.0799931291,
				"element": "H" 
			}
		],
		 "valence_orbital": [ 
			{
				"type": "occ",
				"energy": -0.26125,
				"method": "rhf"
			},
			{
				"type": "occ",
				"energy": -0.25331,
				"method": "rhf"
			},
			{
				"type": "occ",
				"energy": -0.24314,
				"method": "rhf"
			},
			{
				"type": "occ",
				"energy": -0.23381,
				"method": "rhf"
			},
			{
				"type": "occ",
				"energy": -0.22684,
				"method": "rhf"
			},
			{
				"type": "unocc",
				"energy": 0.00354,
				"method": "rhf"
			},
			{
				"type": "unocc",
				"energy": 0.00541,
				"method": "rhf"
			},
			{
				"type": "unocc",
				"energy": 0.01357,
				"method": "rhf"
			},
			{
				"type": "unocc",
				"energy": 0.03581,
				"method": "rhf"
			},
			{
				"type": "unocc",
				"energy": 0.07082,
				"method": "rhf"
			}
		],
		"cosmo_sigma_profile": { 
			"-0.025": 0.0,
			"-0.024": 0.0,
			"-0.023": 0.0,
			"-0.022": 0.0,
			"-0.021": 0.0,
			"-0.02": 0.0,
			"-0.019": 0.0,
			"-0.018": 0.0,
			"-0.017": 0.0,
			"-0.016": 0.0,
			"-0.015": 0.0,
			"-0.014": 0.0,
			"-0.013": 0.0,
			"-0.012": 0.0,
			"-0.011": 0.0,
			"-0.01": 0.0,
			"-0.009": 0.0,
			"-0.008": 0.0,
			"-0.007": 0.0,
			"-0.006": 3.36527338314,
			"-0.005": 14.9551699844,
			"-0.004": 31.7869989656,
			"-0.003": 55.9121828272,
			"-0.002": 78.0599193056,
			"-0.001": 88.7389931969,
			"0.0": 87.8997899524,
			"0.001": 65.5042519393,
			"0.002": 36.3910544543,
			"0.003": 19.3860796969,
			"0.004": 16.6318059816,
			"0.005": 17.1793473552,
			"0.006": 14.9068055696,
			"0.007": 6.65485555171,
			"0.008": 4.19582929679,
			"0.009": 2.6484212578,
			"0.01": 1.95435219323,
			"0.011": 2.19962457464,
			"0.012": 3.35585809174,
			"0.013": 0.801754749924,
			"0.014": 0.0,
			"0.015": 0.0,
			"0.016": 0.0,
			"0.017": 0.0,
			"0.018": 0.0,
			"0.019": 0.0,
			"0.02": 0.0,
			"0.021": 0.0,
			"0.022": 0.0,
			"0.023": 0.0,
			"0.024": 0.0,
			"0.025": 0.0
		}
	}
}
