{
	 "smiles": "OC(=O)C1=C(CN2C(=O)CNC2=O)C=CC=C1", 
	 "Tm": 475.15, 
	 "num_atms": 27, 
	 "gaussian": { 
		 "optdone": 1, 
		 "sigma_profile": "yes", 
		 "theory": "DFT", 
		 "functional": "B3LYP", 
		 "basiset": "6-31G**", 
		 "properties": { 
			 "R2extent": 4535.3604, 
			 "electric_dipole_moment_norm": 3.06879430396, 
			 "electric_quadrupole_moment_norm": 16.0651134733, 
			 "total_energy": -835.649997056, 
			 "HOMO_LUMO_gap": 0.20926, 
			 "cosmo_polarized_energy": -20.46, 
			 "cosmo_cavitation_energy": 31.57, 
			 "cosmo_dispersion_energy": -22.57, 
			 "cosmo_repulsion_energy": 1.76, 
			 "cosmo_total_nonelectrostatic_energy": 10.76, 
			 "SMD_solvation_energy": 6.75 
		},
		"coords": [
			{
				"x": -2.3888520124,
				"y": 0.4770330783,
				"z": 3.5969738455,
				"element": "O" 
			},
			{
				"x": -2.4924894905,
				"y": -0.4079842751,
				"z": 2.5758320303,
				"element": "C" 
			},
			{
				"x": -3.5540429033,
				"y": -0.6096337015,
				"z": 2.0182775284,
				"element": "O" 
			},
			{
				"x": -1.1988150623,
				"y": -1.0990601581,
				"z": 2.2901478764,
				"element": "C" 
			},
			{
				"x": -0.9076582519,
				"y": -1.6523062196,
				"z": 1.0247311551,
				"element": "C" 
			},
			{
				"x": -1.8036101978,
				"y": -1.4840142737,
				"z": -0.1938142542,
				"element": "C" 
			},
			{
				"x": -1.2318927143,
				"y": -0.5516191909,
				"z": -1.1680288377,
				"element": "N" 
			},
			{
				"x": -0.5116062989,
				"y": -0.9254653745,
				"z": -2.2819342121,
				"element": "C" 
			},
			{
				"x": -0.2356722428,
				"y": -2.0585453468,
				"z": -2.6269323421,
				"element": "O" 
			},
			{
				"x": -0.123721691,
				"y": 0.3752309184,
				"z": -2.9948607133,
				"element": "C" 
			},
			{
				"x": -0.7449180605,
				"y": 1.3838627763,
				"z": -2.1608291769,
				"element": "N" 
			},
			{
				"x": -1.3367109738,
				"y": 0.8539869029,
				"z": -1.0396817169,
				"element": "C" 
			},
			{
				"x": -1.8590141729,
				"y": 1.4427109449,
				"z": -0.1153533682,
				"element": "O" 
			},
			{
				"x": 0.2996506643,
				"y": -2.3431386058,
				"z": 0.8559518196,
				"element": "C" 
			},
			{
				"x": 1.2041284291,
				"y": -2.4908280534,
				"z": 1.9056741707,
				"element": "C" 
			},
			{
				"x": 0.9187708094,
				"y": -1.932172302,
				"z": 3.1523746128,
				"element": "C" 
			},
			{
				"x": -0.272058622,
				"y": -1.2368825896,
				"z": 3.3373363881,
				"element": "C" 
			},
			{
				"x": -3.2801376617,
				"y": 0.8470267456,
				"z": 3.7096065178,
				"element": "H" 
			},
			{
				"x": -2.7897737097,
				"y": -1.1243555199,
				"z": 0.0884906126,
				"element": "H" 
			},
			{
				"x": -1.9016845939,
				"y": -2.4384437303,
				"z": -0.7168821138,
				"element": "H" 
			},
			{
				"x": 0.9696494877,
				"y": 0.4555806563,
				"z": -3.0365600224,
				"element": "H" 
			},
			{
				"x": -0.5074032185,
				"y": 0.3656772858,
				"z": -4.0215363547,
				"element": "H" 
			},
			{
				"x": -0.5476690918,
				"y": 2.3707901686,
				"z": -2.203508184,
				"element": "H" 
			},
			{
				"x": 0.5249440414,
				"y": -2.764533392,
				"z": -0.1199951408,
				"element": "H" 
			},
			{
				"x": 2.128102498,
				"y": -3.040337172,
				"z": 1.7497757416,
				"element": "H" 
			},
			{
				"x": 1.6176405391,
				"y": -2.0390097862,
				"z": 3.9765377695,
				"element": "H" 
			},
			{
				"x": -0.503355499,
				"y": -0.7985697857,
				"z": 4.3011063687,
				"element": "H" 
			}
		],
		 "valence_orbital": [ 
			{
				"type": "occ",
				"energy": -0.27321,
				"method": "rhf"
			},
			{
				"type": "occ",
				"energy": -0.2668,
				"method": "rhf"
			},
			{
				"type": "occ",
				"energy": -0.26492,
				"method": "rhf"
			},
			{
				"type": "occ",
				"energy": -0.25969,
				"method": "rhf"
			},
			{
				"type": "occ",
				"energy": -0.25334,
				"method": "rhf"
			},
			{
				"type": "unocc",
				"energy": -0.04408,
				"method": "rhf"
			},
			{
				"type": "unocc",
				"energy": -0.01723,
				"method": "rhf"
			},
			{
				"type": "unocc",
				"energy": -0.00742,
				"method": "rhf"
			},
			{
				"type": "unocc",
				"energy": 0.05022,
				"method": "rhf"
			},
			{
				"type": "unocc",
				"energy": 0.05857,
				"method": "rhf"
			}
		],
		"cosmo_sigma_profile": { 
			"-0.025": 0.0,
			"-0.024": 0.0,
			"-0.023": 0.0,
			"-0.022": 0.0,
			"-0.021": 0.0,
			"-0.02": 0.0,
			"-0.019": 0.00966749650705,
			"-0.018": 0.67460619693,
			"-0.017": 1.28203553164,
			"-0.016": 0.964716458765,
			"-0.015": 2.20923293296,
			"-0.014": 1.94258687811,
			"-0.013": 1.52863399154,
			"-0.012": 1.75376326242,
			"-0.011": 1.42060426965,
			"-0.01": 1.71616402329,
			"-0.009": 2.57804292679,
			"-0.008": 5.89760164104,
			"-0.007": 11.3398956673,
			"-0.006": 14.5825187962,
			"-0.005": 17.3078224669,
			"-0.004": 15.9842138787,
			"-0.003": 16.7226536969,
			"-0.002": 14.3757211255,
			"-0.001": 12.4805966913,
			"0.0": 12.4082250748,
			"0.001": 13.3043265598,
			"0.002": 14.3434091107,
			"0.003": 18.2791973629,
			"0.004": 12.5153503262,
			"0.005": 6.1142065493,
			"0.006": 5.75636104065,
			"0.007": 5.53760939912,
			"0.008": 5.79533027125,
			"0.009": 5.32381706429,
			"0.01": 6.15417088164,
			"0.011": 9.59898174772,
			"0.012": 8.23423888045,
			"0.013": 3.54022957491,
			"0.014": 0.315500224715,
			"0.015": 0.0,
			"0.016": 0.0,
			"0.017": 0.0,
			"0.018": 0.0,
			"0.019": 0.0,
			"0.02": 0.0,
			"0.021": 0.0,
			"0.022": 0.0,
			"0.023": 0.0,
			"0.024": 0.0,
			"0.025": 0.0
		}
	}
}
