{
	 "smiles": "BrC1=CC=CC2=C1NC(=O)C2=O", 
	 "Tm": 473.15, 
	 "num_atms": 16, 
	 "gaussian": { 
		 "optdone": 1, 
		 "sigma_profile": "yes", 
		 "theory": "DFT", 
		 "functional": "B3LYP", 
		 "basiset": "6-31G**", 
		 "properties": { 
			 "R2extent": 4549.2421, 
			 "electric_dipole_moment_norm": 4.98647653258, 
			 "electric_quadrupole_moment_norm": 7.10628501821, 
			 "total_energy": -3083.86396206, 
			 "HOMO_LUMO_gap": 0.14085, 
			 "cosmo_polarized_energy": -12.91, 
			 "cosmo_cavitation_energy": 23.84, 
			 "cosmo_dispersion_energy": -18.0, 
			 "cosmo_repulsion_energy": 1.42, 
			 "cosmo_total_nonelectrostatic_energy": 7.26, 
			 "SMD_solvation_energy": 4.3 
		},
		"coords": [
			{
				"x": 4.3099441157,
				"y": -1.5655733426,
				"z": 0.4458842584,
				"element": "Br" 
			},
			{
				"x": 2.6629605767,
				"y": -0.970446685,
				"z": -0.3062984111,
				"element": "C" 
			},
			{
				"x": 2.6144604515,
				"y": -0.4173267413,
				"z": -1.5905159294,
				"element": "C" 
			},
			{
				"x": 1.4053012251,
				"y": 0.0194831879,
				"z": -2.1424890392,
				"element": "C" 
			},
			{
				"x": 0.2173730111,
				"y": -0.0903356352,
				"z": -1.4146667734,
				"element": "C" 
			},
			{
				"x": 0.2686755977,
				"y": -0.6404363878,
				"z": -0.1384874837,
				"element": "C" 
			},
			{
				"x": 1.4851744465,
				"y": -1.0818296666,
				"z": 0.4211841819,
				"element": "C" 
			},
			{
				"x": 1.2876235671,
				"y": -1.5932384446,
				"z": 1.7040528406,
				"element": "N" 
			},
			{
				"x": -0.0458319682,
				"y": -1.5323924363,
				"z": 2.0873356709,
				"element": "C" 
			},
			{
				"x": -0.5223882104,
				"y": -1.8977785035,
				"z": 3.136125294,
				"element": "O" 
			},
			{
				"x": -0.7877252465,
				"y": -0.8877369079,
				"z": 0.862001157,
				"element": "C" 
			},
			{
				"x": -1.9769676123,
				"y": -0.6687900803,
				"z": 0.8147158022,
				"element": "O" 
			},
			{
				"x": 3.5345233614,
				"y": -0.3305670282,
				"z": -2.1582515338,
				"element": "H" 
			},
			{
				"x": 1.401317218,
				"y": 0.4437993885,
				"z": -3.1408305437,
				"element": "H" 
			},
			{
				"x": -0.7329079854,
				"y": 0.2412685318,
				"z": -1.8208644404,
				"element": "H" 
			},
			{
				"x": 2.0263674521,
				"y": -1.9638992489,
				"z": 2.2851049497,
				"element": "H" 
			}
		],
		 "valence_orbital": [ 
			{
				"type": "occ",
				"energy": -0.3194,
				"method": "rhf"
			},
			{
				"type": "occ",
				"energy": -0.31485,
				"method": "rhf"
			},
			{
				"type": "occ",
				"energy": -0.27545,
				"method": "rhf"
			},
			{
				"type": "occ",
				"energy": -0.25493,
				"method": "rhf"
			},
			{
				"type": "occ",
				"energy": -0.2473,
				"method": "rhf"
			},
			{
				"type": "unocc",
				"energy": -0.10645,
				"method": "rhf"
			},
			{
				"type": "unocc",
				"energy": -0.03462,
				"method": "rhf"
			},
			{
				"type": "unocc",
				"energy": -0.01599,
				"method": "rhf"
			},
			{
				"type": "unocc",
				"energy": -0.00439,
				"method": "rhf"
			},
			{
				"type": "unocc",
				"energy": 0.07735,
				"method": "rhf"
			}
		],
		"cosmo_sigma_profile": { 
			"-0.025": 0.0,
			"-0.024": 0.0,
			"-0.023": 0.0,
			"-0.022": 0.0,
			"-0.021": 0.0,
			"-0.02": 0.0,
			"-0.019": 0.0,
			"-0.018": 0.0,
			"-0.017": 0.0,
			"-0.016": 0.552737791393,
			"-0.015": 0.842717084606,
			"-0.014": 0.579834715311,
			"-0.013": 0.902961744712,
			"-0.012": 0.747030679056,
			"-0.011": 1.33343361615,
			"-0.01": 0.496358269662,
			"-0.009": 1.34306936125,
			"-0.008": 6.4512818255,
			"-0.007": 9.82739032002,
			"-0.006": 10.0896699667,
			"-0.005": 9.44730903966,
			"-0.004": 9.91431438274,
			"-0.003": 12.0527971995,
			"-0.002": 14.9105181096,
			"-0.001": 14.4477856535,
			"0.0": 18.1730192548,
			"0.001": 16.9895192435,
			"0.002": 14.0844670016,
			"0.003": 10.0725585729,
			"0.004": 6.90871423006,
			"0.005": 2.3550419985,
			"0.006": 2.72228426236,
			"0.007": 3.00394465463,
			"0.008": 3.99595099581,
			"0.009": 5.94275868911,
			"0.01": 8.86857736778,
			"0.011": 7.29690027402,
			"0.012": 1.7815463125,
			"0.013": 0.0,
			"0.014": 0.0,
			"0.015": 0.0,
			"0.016": 0.0,
			"0.017": 0.0,
			"0.018": 0.0,
			"0.019": 0.0,
			"0.02": 0.0,
			"0.021": 0.0,
			"0.022": 0.0,
			"0.023": 0.0,
			"0.024": 0.0,
			"0.025": 0.0
		}
	}
}
