{
	 "smiles": "COC1=C(C)C=CC(=C1)C1(CCC1)C(O)=O", 
	 "Tm": 399.15, 
	 "num_atms": 32, 
	 "gaussian": { 
		 "optdone": 1, 
		 "sigma_profile": "yes", 
		 "theory": "DFT", 
		 "functional": "B3LYP", 
		 "basiset": "6-31G**", 
		 "properties": { 
			 "R2extent": 4313.8338, 
			 "electric_dipole_moment_norm": 4.12675888925, 
			 "electric_quadrupole_moment_norm": 18.9565547621, 
			 "total_energy": -730.670489972, 
			 "HOMO_LUMO_gap": 0.21177, 
			 "cosmo_polarized_energy": -17.23, 
			 "cosmo_cavitation_energy": 33.88, 
			 "cosmo_dispersion_energy": -23.82, 
			 "cosmo_repulsion_energy": 1.87, 
			 "cosmo_total_nonelectrostatic_energy": 11.92, 
			 "SMD_solvation_energy": 7.37 
		},
		"coords": [
			{
				"x": -2.6297944279,
				"y": 0.593261072,
				"z": 1.901394302,
				"element": "C" 
			},
			{
				"x": -1.5695197932,
				"y": 0.3473783348,
				"z": 2.8101110723,
				"element": "O" 
			},
			{
				"x": -0.3262491184,
				"y": 0.0782317526,
				"z": 2.306007694,
				"element": "C" 
			},
			{
				"x": 0.6603730926,
				"y": -0.2138124757,
				"z": 3.2727609188,
				"element": "C" 
			},
			{
				"x": 0.3103010857,
				"y": -0.2070484285,
				"z": 4.7378097884,
				"element": "C" 
			},
			{
				"x": 1.9392508201,
				"y": -0.5116784168,
				"z": 2.8126362483,
				"element": "C" 
			},
			{
				"x": 2.2559487255,
				"y": -0.5148133473,
				"z": 1.4494844184,
				"element": "C" 
			},
			{
				"x": 1.2826315338,
				"y": -0.2064098839,
				"z": 0.5008958497,
				"element": "C" 
			},
			{
				"x": -0.0175624821,
				"y": 0.084633208,
				"z": 0.9463839523,
				"element": "C" 
			},
			{
				"x": 1.5628989593,
				"y": -0.2218409765,
				"z": -0.9984822717,
				"element": "C" 
			},
			{
				"x": 3.0321119458,
				"y": 0.1773446155,
				"z": -1.3924055249,
				"element": "C" 
			},
			{
				"x": 2.5586000846,
				"y": 1.6289199792,
				"z": -1.6390407131,
				"element": "C" 
			},
			{
				"x": 1.1057408269,
				"y": 1.1058482744,
				"z": -1.7225400272,
				"element": "C" 
			},
			{
				"x": 0.998860617,
				"y": -1.5122420283,
				"z": -1.6231044961,
				"element": "C" 
			},
			{
				"x": 1.2602281698,
				"y": -1.7014237164,
				"z": -2.9492527018,
				"element": "O" 
			},
			{
				"x": 0.3323985824,
				"y": -2.3272093897,
				"z": -1.0371688181,
				"element": "O" 
			},
			{
				"x": -2.7977968795,
				"y": -0.2618971215,
				"z": 1.23459563,
				"element": "H" 
			},
			{
				"x": -3.5196821009,
				"y": 0.7539012766,
				"z": 2.5123359698,
				"element": "H" 
			},
			{
				"x": -2.4448702189,
				"y": 1.4895552152,
				"z": 1.2944419034,
				"element": "H" 
			},
			{
				"x": -0.4875311052,
				"y": -0.9248369514,
				"z": 4.9579234151,
				"element": "H" 
			},
			{
				"x": -0.0597865559,
				"y": 0.7742773652,
				"z": 5.0552088166,
				"element": "H" 
			},
			{
				"x": 1.181419993,
				"y": -0.4610660203,
				"z": 5.3475367986,
				"element": "H" 
			},
			{
				"x": 2.7126034273,
				"y": -0.7510843427,
				"z": 3.5383404554,
				"element": "H" 
			},
			{
				"x": 3.2644131877,
				"y": -0.7750760932,
				"z": 1.1475622386,
				"element": "H" 
			},
			{
				"x": -0.7912282307,
				"y": 0.2901396072,
				"z": 0.2167353349,
				"element": "H" 
			},
			{
				"x": 3.8096434661,
				"y": 0.0158777718,
				"z": -0.6451463507,
				"element": "H" 
			},
			{
				"x": 3.364545011,
				"y": -0.3132246923,
				"z": -2.3139469002,
				"element": "H" 
			},
			{
				"x": 2.7099863101,
				"y": 2.253631767,
				"z": -0.7551393948,
				"element": "H" 
			},
			{
				"x": 2.9597493664,
				"y": 2.1519277702,
				"z": -2.5113173539,
				"element": "H" 
			},
			{
				"x": 0.3263636891,
				"y": 1.6837639723,
				"z": -1.2226218343,
				"element": "H" 
			},
			{
				"x": 0.7879535174,
				"y": 0.921057319,
				"z": -2.7541735277,
				"element": "H" 
			},
			{
				"x": 1.803198501,
				"y": -0.9818854162,
				"z": -3.2979248918,
				"element": "H" 
			}
		],
		 "valence_orbital": [ 
			{
				"type": "occ",
				"energy": -0.30943,
				"method": "rhf"
			},
			{
				"type": "occ",
				"energy": -0.30602,
				"method": "rhf"
			},
			{
				"type": "occ",
				"energy": -0.25954,
				"method": "rhf"
			},
			{
				"type": "occ",
				"energy": -0.23617,
				"method": "rhf"
			},
			{
				"type": "occ",
				"energy": -0.21213,
				"method": "rhf"
			},
			{
				"type": "unocc",
				"energy": -0.00036,
				"method": "rhf"
			},
			{
				"type": "unocc",
				"energy": 0.00642,
				"method": "rhf"
			},
			{
				"type": "unocc",
				"energy": 0.01778,
				"method": "rhf"
			},
			{
				"type": "unocc",
				"energy": 0.0477,
				"method": "rhf"
			},
			{
				"type": "unocc",
				"energy": 0.08677,
				"method": "rhf"
			}
		],
		"cosmo_sigma_profile": { 
			"-0.025": 0.0,
			"-0.024": 0.0,
			"-0.023": 0.0,
			"-0.022": 0.0,
			"-0.021": 0.0,
			"-0.02": 0.0,
			"-0.019": 0.0,
			"-0.018": 0.375983602519,
			"-0.017": 0.762401963244,
			"-0.016": 0.903703561891,
			"-0.015": 1.40216661547,
			"-0.014": 0.737491476729,
			"-0.013": 0.732460606849,
			"-0.012": 1.08177624953,
			"-0.011": 0.879627809328,
			"-0.01": 0.960477908273,
			"-0.009": 1.08478152045,
			"-0.008": 1.21205593085,
			"-0.007": 2.0207156376,
			"-0.006": 8.62791907764,
			"-0.005": 19.1934951822,
			"-0.004": 25.7147175059,
			"-0.003": 31.4919670724,
			"-0.002": 24.6285312437,
			"-0.001": 22.8137742578,
			"0.0": 22.7533476831,
			"0.001": 16.493850623,
			"0.002": 9.98056352183,
			"0.003": 10.1900604831,
			"0.004": 9.53506125531,
			"0.005": 8.30294386844,
			"0.006": 9.40016221162,
			"0.007": 5.54325129876,
			"0.008": 5.12993986597,
			"0.009": 4.79415432283,
			"0.01": 4.63659974139,
			"0.011": 5.45292638686,
			"0.012": 6.02751601597,
			"0.013": 3.59459016352,
			"0.014": 0.304974663019,
			"0.015": 0.0,
			"0.016": 0.0,
			"0.017": 0.0,
			"0.018": 0.0,
			"0.019": 0.0,
			"0.02": 0.0,
			"0.021": 0.0,
			"0.022": 0.0,
			"0.023": 0.0,
			"0.024": 0.0,
			"0.025": 0.0
		}
	}
}
