{
	 "smiles": "CC(=O)NC1=CC2=C(C=C1)C(CCl)=CC(=O)O2", 
	 "Tm": 465.15, 
	 "num_atms": 27, 
	 "gaussian": { 
		 "optdone": 1, 
		 "sigma_profile": "yes", 
		 "theory": "DFT", 
		 "functional": "B3LYP", 
		 "basiset": "6-31G**", 
		 "properties": { 
			 "R2extent": 6861.8096, 
			 "electric_dipole_moment_norm": 5.55325038694, 
			 "electric_quadrupole_moment_norm": 13.6904576578, 
			 "total_energy": -1203.94026564, 
			 "HOMO_LUMO_gap": 0.15687, 
			 "cosmo_polarized_energy": -21.42, 
			 "cosmo_cavitation_energy": 33.35, 
			 "cosmo_dispersion_energy": -24.72, 
			 "cosmo_repulsion_energy": 1.89, 
			 "cosmo_total_nonelectrostatic_energy": 10.52, 
			 "SMD_solvation_energy": 7.19 
		},
		"coords": [
			{
				"x": 1.4396481574,
				"y": -4.482958715,
				"z": -3.5559198722,
				"element": "C" 
			},
			{
				"x": 2.6709410642,
				"y": -3.606107602,
				"z": -3.6047865583,
				"element": "C" 
			},
			{
				"x": 3.6294435736,
				"y": -3.8789882703,
				"z": -4.3098854037,
				"element": "O" 
			},
			{
				"x": 2.7405622353,
				"y": -2.4464775922,
				"z": -2.8330425533,
				"element": "N" 
			},
			{
				"x": 1.906728955,
				"y": -1.7860249202,
				"z": -1.9245393236,
				"element": "C" 
			},
			{
				"x": 2.4107306805,
				"y": -0.5999000101,
				"z": -1.3697808104,
				"element": "C" 
			},
			{
				"x": 1.6601811359,
				"y": 0.1313812159,
				"z": -0.4566887696,
				"element": "C" 
			},
			{
				"x": 0.3736049659,
				"y": -0.2828111221,
				"z": -0.0528242752,
				"element": "C" 
			},
			{
				"x": -0.1138747102,
				"y": -1.4739033924,
				"z": -0.6198472115,
				"element": "C" 
			},
			{
				"x": 0.6207020461,
				"y": -2.2167222611,
				"z": -1.5323335985,
				"element": "C" 
			},
			{
				"x": -0.335612361,
				"y": 0.5479651814,
				"z": 0.9072023183,
				"element": "C" 
			},
			{
				"x": -1.7117714924,
				"y": 0.0927810566,
				"z": 1.3303992594,
				"element": "C" 
			},
			{
				"x": -2.54654041,
				"y": 1.1576984754,
				"z": 2.5206707042,
				"element": "Cl" 
			},
			{
				"x": 0.2576512477,
				"y": 1.6733901884,
				"z": 1.3717745251,
				"element": "C" 
			},
			{
				"x": 1.5870446172,
				"y": 2.0944898071,
				"z": 0.9498170622,
				"element": "C" 
			},
			{
				"x": 2.1719923831,
				"y": 3.0820750836,
				"z": 1.3230760215,
				"element": "O" 
			},
			{
				"x": 2.2338350741,
				"y": 1.2672312516,
				"z": 0.0255530794,
				"element": "O" 
			},
			{
				"x": 1.2632025719,
				"y": -4.8691212329,
				"z": -2.5473178191,
				"element": "H" 
			},
			{
				"x": 1.6123789714,
				"y": -5.3187028659,
				"z": -4.2332937225,
				"element": "H" 
			},
			{
				"x": 0.5472476383,
				"y": -3.9379565679,
				"z": -3.8785837627,
				"element": "H" 
			},
			{
				"x": 3.6326573496,
				"y": -1.9935662781,
				"z": -2.9964518864,
				"element": "H" 
			},
			{
				"x": 3.3938857471,
				"y": -0.2278505634,
				"z": -1.6397738024,
				"element": "H" 
			},
			{
				"x": -1.097950841,
				"y": -1.8384937062,
				"z": -0.3441404135,
				"element": "H" 
			},
			{
				"x": 0.1863526117,
				"y": -3.1211421592,
				"z": -1.9281771059,
				"element": "H" 
			},
			{
				"x": -2.3719586178,
				"y": 0.028000434,
				"z": 0.4620389678,
				"element": "H" 
			},
			{
				"x": -1.6575340834,
				"y": -0.896882895,
				"z": 1.7905252938,
				"element": "H" 
			},
			{
				"x": -0.2286485102,
				"y": 2.32389746,
				"z": 2.0864296569,
				"element": "H" 
			}
		],
		 "valence_orbital": [ 
			{
				"type": "occ",
				"energy": -0.29499,
				"method": "rhf"
			},
			{
				"type": "occ",
				"energy": -0.28058,
				"method": "rhf"
			},
			{
				"type": "occ",
				"energy": -0.27384,
				"method": "rhf"
			},
			{
				"type": "occ",
				"energy": -0.26251,
				"method": "rhf"
			},
			{
				"type": "occ",
				"energy": -0.23331,
				"method": "rhf"
			},
			{
				"type": "unocc",
				"energy": -0.07644,
				"method": "rhf"
			},
			{
				"type": "unocc",
				"energy": -0.03028,
				"method": "rhf"
			},
			{
				"type": "unocc",
				"energy": -0.01689,
				"method": "rhf"
			},
			{
				"type": "unocc",
				"energy": 0.00409,
				"method": "rhf"
			},
			{
				"type": "unocc",
				"energy": 0.01863,
				"method": "rhf"
			}
		],
		"cosmo_sigma_profile": { 
			"-0.025": 0.0,
			"-0.024": 0.0,
			"-0.023": 0.0,
			"-0.022": 0.0,
			"-0.021": 0.0,
			"-0.02": 0.0,
			"-0.019": 0.0,
			"-0.018": 0.0,
			"-0.017": 0.0,
			"-0.016": 0.0,
			"-0.015": 0.725037497699,
			"-0.014": 1.33766009343,
			"-0.013": 1.05382569969,
			"-0.012": 1.10683238999,
			"-0.011": 0.941175604864,
			"-0.01": 1.91612105845,
			"-0.009": 8.31026573219,
			"-0.008": 9.39541121202,
			"-0.007": 14.2080910557,
			"-0.006": 14.6505379782,
			"-0.005": 12.0825318367,
			"-0.004": 13.9675096016,
			"-0.003": 15.6049006301,
			"-0.002": 17.5760043548,
			"-0.001": 19.2967891619,
			"0.0": 21.5003440397,
			"0.001": 21.5476408421,
			"0.002": 18.1008791324,
			"0.003": 12.4314326442,
			"0.004": 8.01045137927,
			"0.005": 9.69537480311,
			"0.006": 7.1993874381,
			"0.007": 2.66090739513,
			"0.008": 3.75396316927,
			"0.009": 4.07009500249,
			"0.01": 3.96959154994,
			"0.011": 5.98766726178,
			"0.012": 10.6393291204,
			"0.013": 6.54640981735,
			"0.014": 0.966741601433,
			"0.015": 0.0,
			"0.016": 0.0,
			"0.017": 0.0,
			"0.018": 0.0,
			"0.019": 0.0,
			"0.02": 0.0,
			"0.021": 0.0,
			"0.022": 0.0,
			"0.023": 0.0,
			"0.024": 0.0,
			"0.025": 0.0
		}
	}
}
