{
	 "smiles": "OC1=C2NC(=O)COC2=CC=C1", 
	 "Tm": 521.15, 
	 "num_atms": 19, 
	 "gaussian": { 
		 "optdone": 1, 
		 "sigma_profile": "yes", 
		 "theory": "DFT", 
		 "functional": "B3LYP", 
		 "basiset": "6-31G**", 
		 "properties": { 
			 "R2extent": 1975.8176, 
			 "electric_dipole_moment_norm": 2.16356499787, 
			 "electric_quadrupole_moment_norm": 7.27294019637, 
			 "total_energy": -589.487414296, 
			 "HOMO_LUMO_gap": 0.20076, 
			 "cosmo_polarized_energy": -14.69, 
			 "cosmo_cavitation_energy": 23.11, 
			 "cosmo_dispersion_energy": -17.65, 
			 "cosmo_repulsion_energy": 1.4, 
			 "cosmo_total_nonelectrostatic_energy": 6.86, 
			 "SMD_solvation_energy": 5.12 
		},
		"coords": [
			{
				"x": -1.539293981,
				"y": -2.1558754568,
				"z": -1.2707161483,
				"element": "O" 
			},
			{
				"x": -1.143416368,
				"y": -1.3813532753,
				"z": -0.2042438687,
				"element": "C" 
			},
			{
				"x": 0.0005201477,
				"y": -0.5764585744,
				"z": -0.2937325231,
				"element": "C" 
			},
			{
				"x": 0.7522062003,
				"y": -0.4974952425,
				"z": -1.4846614533,
				"element": "N" 
			},
			{
				"x": 1.9994628667,
				"y": 0.0784444949,
				"z": -1.5330864767,
				"element": "C" 
			},
			{
				"x": 2.6264890512,
				"y": 0.2429020979,
				"z": -2.5649745427,
				"element": "O" 
			},
			{
				"x": 2.5348329862,
				"y": 0.4567069268,
				"z": -0.1528466274,
				"element": "C" 
			},
			{
				"x": 1.5231285094,
				"y": 0.9684901398,
				"z": 0.7198832887,
				"element": "O" 
			},
			{
				"x": 0.3971287896,
				"y": 0.1908029101,
				"z": 0.8096739936,
				"element": "C" 
			},
			{
				"x": -0.3691661759,
				"y": 0.2076120746,
				"z": 1.9727138932,
				"element": "C" 
			},
			{
				"x": -1.5381508178,
				"y": -0.5540943287,
				"z": 2.0270918213,
				"element": "C" 
			},
			{
				"x": -1.9220917667,
				"y": -1.3580537046,
				"z": 0.9525901891,
				"element": "C" 
			},
			{
				"x": -0.7570029233,
				"y": -2.5543988519,
				"z": -1.6777431211,
				"element": "H" 
			},
			{
				"x": 0.2931042894,
				"y": -0.6560501699,
				"z": -2.3734705209,
				"element": "H" 
			},
			{
				"x": 3.2762771919,
				"y": 1.2450455742,
				"z": -0.2777019492,
				"element": "H" 
			},
			{
				"x": 3.0194274503,
				"y": -0.4217830931,
				"z": 0.3008541926,
				"element": "H" 
			},
			{
				"x": -0.0442627091,
				"y": 0.8195479943,
				"z": 2.8067039586,
				"element": "H" 
			},
			{
				"x": -2.1425596439,
				"y": -0.5415845285,
				"z": 2.9285094979,
				"element": "H" 
			},
			{
				"x": -2.8104330969,
				"y": -1.9784049868,
				"z": 0.9926563963,
				"element": "H" 
			}
		],
		 "valence_orbital": [ 
			{
				"type": "occ",
				"energy": -0.31975,
				"method": "rhf"
			},
			{
				"type": "occ",
				"energy": -0.31594,
				"method": "rhf"
			},
			{
				"type": "occ",
				"energy": -0.26606,
				"method": "rhf"
			},
			{
				"type": "occ",
				"energy": -0.23155,
				"method": "rhf"
			},
			{
				"type": "occ",
				"energy": -0.22207,
				"method": "rhf"
			},
			{
				"type": "unocc",
				"energy": -0.02131,
				"method": "rhf"
			},
			{
				"type": "unocc",
				"energy": 0.00143,
				"method": "rhf"
			},
			{
				"type": "unocc",
				"energy": 0.02184,
				"method": "rhf"
			},
			{
				"type": "unocc",
				"energy": 0.04691,
				"method": "rhf"
			},
			{
				"type": "unocc",
				"energy": 0.09345,
				"method": "rhf"
			}
		],
		"cosmo_sigma_profile": { 
			"-0.025": 0.0,
			"-0.024": 0.0,
			"-0.023": 0.0,
			"-0.022": 0.0,
			"-0.021": 0.0,
			"-0.02": 0.0,
			"-0.019": 0.0,
			"-0.018": 0.541961875943,
			"-0.017": 1.2247094775,
			"-0.016": 1.84964004183,
			"-0.015": 2.09815478682,
			"-0.014": 2.00036636926,
			"-0.013": 1.45429467027,
			"-0.012": 1.60506444234,
			"-0.011": 1.18926844361,
			"-0.01": 1.22945159034,
			"-0.009": 1.55444548876,
			"-0.008": 3.93499916257,
			"-0.007": 7.26690392286,
			"-0.006": 10.8820802735,
			"-0.005": 10.8448046708,
			"-0.004": 10.8499962299,
			"-0.003": 9.10369556764,
			"-0.002": 10.0268035131,
			"-0.001": 10.4373200692,
			"0.0": 8.23944710024,
			"0.001": 7.81813238981,
			"0.002": 10.9030058533,
			"0.003": 13.9337157823,
			"0.004": 11.0002525152,
			"0.005": 10.1418654382,
			"0.006": 5.04478815526,
			"0.007": 4.04789400006,
			"0.008": 3.40429645593,
			"0.009": 3.18573009978,
			"0.01": 4.39920028248,
			"0.011": 4.15776805631,
			"0.012": 5.03249815164,
			"0.013": 4.5239279887,
			"0.014": 0.483929891543,
			"0.015": 0.0,
			"0.016": 0.0,
			"0.017": 0.0,
			"0.018": 0.0,
			"0.019": 0.0,
			"0.02": 0.0,
			"0.021": 0.0,
			"0.022": 0.0,
			"0.023": 0.0,
			"0.024": 0.0,
			"0.025": 0.0
		}
	}
}
