{
	 "smiles": "COC(=O)C(C)O", 
	 "Tm": 207.15, 
	 "num_atms": 15, 
	 "gaussian": { 
		 "optdone": 1, 
		 "sigma_profile": "yes", 
		 "theory": "DFT", 
		 "functional": "B3LYP", 
		 "basiset": "6-31G**", 
		 "properties": { 
			 "R2extent": 1132.6559, 
			 "electric_dipole_moment_norm": 2.32376620597, 
			 "electric_quadrupole_moment_norm": 9.92047278107, 
			 "total_energy": -382.917303054, 
			 "HOMO_LUMO_gap": 0.26344, 
			 "cosmo_polarized_energy": -8.93, 
			 "cosmo_cavitation_energy": 18.7, 
			 "cosmo_dispersion_energy": -13.66, 
			 "cosmo_repulsion_energy": 1.19, 
			 "cosmo_total_nonelectrostatic_energy": 6.23, 
			 "SMD_solvation_energy": 5.04 
		},
		"coords": [
			{
				"x": 2.4553467653,
				"y": -1.0651679587,
				"z": 0.319334438,
				"element": "C" 
			},
			{
				"x": 1.584839154,
				"y": -0.846200092,
				"z": -0.8050630608,
				"element": "O" 
			},
			{
				"x": 0.7720296239,
				"y": 0.2328227378,
				"z": -0.7125298903,
				"element": "C" 
			},
			{
				"x": 0.74439536,
				"y": 0.9761941912,
				"z": 0.2418552153,
				"element": "O" 
			},
			{
				"x": -0.1449968037,
				"y": 0.3390075614,
				"z": -1.9312500182,
				"element": "C" 
			},
			{
				"x": -1.5262616439,
				"y": -0.2343051427,
				"z": -1.5743455611,
				"element": "C" 
			},
			{
				"x": 0.400477746,
				"y": -0.2596162281,
				"z": -3.090925969,
				"element": "O" 
			},
			{
				"x": 3.1167286926,
				"y": -0.2072543709,
				"z": 0.4599485503,
				"element": "H" 
			},
			{
				"x": 3.0310743774,
				"y": -1.9585699722,
				"z": 0.0788746859,
				"element": "H" 
			},
			{
				"x": 1.8714814487,
				"y": -1.2154417996,
				"z": 1.230553135,
				"element": "H" 
			},
			{
				"x": -0.2450247887,
				"y": 1.4077287791,
				"z": -2.1459538083,
				"element": "H" 
			},
			{
				"x": -2.1929749862,
				"y": -0.1261460572,
				"z": -2.4334488662,
				"element": "H" 
			},
			{
				"x": -1.9575245483,
				"y": 0.2897440639,
				"z": -0.7165153599,
				"element": "H" 
			},
			{
				"x": -1.4483632925,
				"y": -1.2994223916,
				"z": -1.3299408065,
				"element": "H" 
			},
			{
				"x": 0.8022728953,
				"y": -1.0961733206,
				"z": -2.8188926844,
				"element": "H" 
			}
		],
		 "valence_orbital": [ 
			{
				"type": "occ",
				"energy": -0.36548,
				"method": "rhf"
			},
			{
				"type": "occ",
				"energy": -0.35048,
				"method": "rhf"
			},
			{
				"type": "occ",
				"energy": -0.31245,
				"method": "rhf"
			},
			{
				"type": "occ",
				"energy": -0.29159,
				"method": "rhf"
			},
			{
				"type": "occ",
				"energy": -0.25932,
				"method": "rhf"
			},
			{
				"type": "unocc",
				"energy": 0.00412,
				"method": "rhf"
			},
			{
				"type": "unocc",
				"energy": 0.07865,
				"method": "rhf"
			},
			{
				"type": "unocc",
				"energy": 0.10867,
				"method": "rhf"
			},
			{
				"type": "unocc",
				"energy": 0.128,
				"method": "rhf"
			},
			{
				"type": "unocc",
				"energy": 0.13397,
				"method": "rhf"
			}
		],
		"cosmo_sigma_profile": { 
			"-0.025": 0.0,
			"-0.024": 0.0,
			"-0.023": 0.0,
			"-0.022": 0.0,
			"-0.021": 0.0,
			"-0.02": 0.0,
			"-0.019": 0.0,
			"-0.018": 0.0,
			"-0.017": 0.0,
			"-0.016": 0.0,
			"-0.015": 0.0,
			"-0.014": 0.0952103013853,
			"-0.013": 0.513531485929,
			"-0.012": 0.644469129798,
			"-0.011": 0.814251839884,
			"-0.01": 0.658178093124,
			"-0.009": 0.312797664562,
			"-0.008": 0.766268584886,
			"-0.007": 2.67844945078,
			"-0.006": 9.15499725232,
			"-0.005": 11.8959532365,
			"-0.004": 17.395882924,
			"-0.003": 18.1179482733,
			"-0.002": 12.3598464896,
			"-0.001": 11.9427353998,
			"0.0": 9.95193202464,
			"0.001": 6.14792041626,
			"0.002": 5.26453910698,
			"0.003": 4.4009441434,
			"0.004": 2.97355051626,
			"0.005": 2.77858703459,
			"0.006": 2.35299694997,
			"0.007": 2.58847456761,
			"0.008": 2.92903553516,
			"0.009": 2.41141682173,
			"0.01": 2.55424481187,
			"0.011": 5.13085896789,
			"0.012": 5.82546382967,
			"0.013": 2.5121895537,
			"0.014": 1.13301225337,
			"0.015": 0.0,
			"0.016": 0.0,
			"0.017": 0.0,
			"0.018": 0.0,
			"0.019": 0.0,
			"0.02": 0.0,
			"0.021": 0.0,
			"0.022": 0.0,
			"0.023": 0.0,
			"0.024": 0.0,
			"0.025": 0.0
		}
	}
}
