{
	 "smiles": "CCOC(=O)C1=CNC=C1C", 
	 "Tm": 347.15, 
	 "num_atms": 22, 
	 "gaussian": { 
		 "optdone": 1, 
		 "sigma_profile": "yes", 
		 "theory": "DFT", 
		 "functional": "B3LYP", 
		 "basiset": "6-31G**", 
		 "properties": { 
			 "R2extent": 2183.8412, 
			 "electric_dipole_moment_norm": 3.69961599899, 
			 "electric_quadrupole_moment_norm": 11.0732942542, 
			 "total_energy": -516.696102491, 
			 "HOMO_LUMO_gap": 0.20894, 
			 "cosmo_polarized_energy": -12.14, 
			 "cosmo_cavitation_energy": 25.74, 
			 "cosmo_dispersion_energy": -18.77, 
			 "cosmo_repulsion_energy": 1.54, 
			 "cosmo_total_nonelectrostatic_energy": 8.51, 
			 "SMD_solvation_energy": 5.95 
		},
		"coords": [
			{
				"x": -3.7304470624,
				"y": -0.6178951989,
				"z": 0.2862284859,
				"element": "C" 
			},
			{
				"x": -2.7559159328,
				"y": -1.0616724161,
				"z": -0.7958122804,
				"element": "C" 
			},
			{
				"x": -1.4526268902,
				"y": -1.3502538083,
				"z": -0.2479145309,
				"element": "O" 
			},
			{
				"x": -0.6091736507,
				"y": -0.2882596599,
				"z": -0.1054075828,
				"element": "C" 
			},
			{
				"x": -0.9126543778,
				"y": 0.8497780235,
				"z": -0.4218412723,
				"element": "O" 
			},
			{
				"x": 0.6784738736,
				"y": -0.6900990209,
				"z": 0.4604287939,
				"element": "C" 
			},
			{
				"x": 1.045779625,
				"y": -1.9772392222,
				"z": 0.8249545913,
				"element": "C" 
			},
			{
				"x": 2.3175920153,
				"y": -1.9210900276,
				"z": 1.3063628673,
				"element": "N" 
			},
			{
				"x": 2.7820374888,
				"y": -0.6182490022,
				"z": 1.2594240835,
				"element": "C" 
			},
			{
				"x": 1.7911146718,
				"y": 0.1808136428,
				"z": 0.73913214,
				"element": "C" 
			},
			{
				"x": 1.866104693,
				"y": 1.6609775527,
				"z": 0.5114363612,
				"element": "C" 
			},
			{
				"x": -3.7986022409,
				"y": -1.367138783,
				"z": 1.0808145624,
				"element": "H" 
			},
			{
				"x": -3.4092033301,
				"y": 0.3312804772,
				"z": 0.721789258,
				"element": "H" 
			},
			{
				"x": -4.7288047767,
				"y": -0.4794943228,
				"z": -0.1428172201,
				"element": "H" 
			},
			{
				"x": -2.6552046967,
				"y": -0.2947915953,
				"z": -1.5677412743,
				"element": "H" 
			},
			{
				"x": -3.0740247253,
				"y": -2.0003456628,
				"z": -1.2575056453,
				"element": "H" 
			},
			{
				"x": 0.4899191415,
				"y": -2.900099942,
				"z": 0.7705971071,
				"element": "H" 
			},
			{
				"x": 2.8425765487,
				"y": -2.7110130399,
				"z": 1.6459002949,
				"element": "H" 
			},
			{
				"x": 3.7762287987,
				"y": -0.3680004757,
				"z": 1.5994013681,
				"element": "H" 
			},
			{
				"x": 1.7095083846,
				"y": 1.9106917967,
				"z": -0.5424115682,
				"element": "H" 
			},
			{
				"x": 1.0873910634,
				"y": 2.1902206623,
				"z": 1.069200135,
				"element": "H" 
			},
			{
				"x": 2.8406313789,
				"y": 2.0517800223,
				"z": 0.8199813256,
				"element": "H" 
			}
		],
		 "valence_orbital": [ 
			{
				"type": "occ",
				"energy": -0.3272,
				"method": "rhf"
			},
			{
				"type": "occ",
				"energy": -0.28162,
				"method": "rhf"
			},
			{
				"type": "occ",
				"energy": -0.25577,
				"method": "rhf"
			},
			{
				"type": "occ",
				"energy": -0.23954,
				"method": "rhf"
			},
			{
				"type": "occ",
				"energy": -0.21465,
				"method": "rhf"
			},
			{
				"type": "unocc",
				"energy": -0.00571,
				"method": "rhf"
			},
			{
				"type": "unocc",
				"energy": 0.04892,
				"method": "rhf"
			},
			{
				"type": "unocc",
				"energy": 0.0725,
				"method": "rhf"
			},
			{
				"type": "unocc",
				"energy": 0.11672,
				"method": "rhf"
			},
			{
				"type": "unocc",
				"energy": 0.12725,
				"method": "rhf"
			}
		],
		"cosmo_sigma_profile": { 
			"-0.025": 0.0,
			"-0.024": 0.0,
			"-0.023": 0.0,
			"-0.022": 0.0,
			"-0.021": 0.0,
			"-0.02": 0.0,
			"-0.019": 0.0,
			"-0.018": 0.0,
			"-0.017": 0.0577793826437,
			"-0.016": 1.55247624285,
			"-0.015": 1.4963585853,
			"-0.014": 1.26121404949,
			"-0.013": 1.1289186842,
			"-0.012": 0.998067575589,
			"-0.011": 1.4425177496,
			"-0.01": 1.24233345044,
			"-0.009": 1.27205595345,
			"-0.008": 3.18969751907,
			"-0.007": 5.03246052156,
			"-0.006": 3.79946000205,
			"-0.005": 6.51524682991,
			"-0.004": 12.1528582439,
			"-0.003": 18.1291275236,
			"-0.002": 16.845596201,
			"-0.001": 17.4553081758,
			"0.0": 20.0313279699,
			"0.001": 18.3793103889,
			"0.002": 10.5896329523,
			"0.003": 11.0351367949,
			"0.004": 11.4663822904,
			"0.005": 10.020501656,
			"0.006": 9.55542054343,
			"0.007": 5.52462388153,
			"0.008": 2.12151722109,
			"0.009": 1.73317011509,
			"0.01": 1.55322408026,
			"0.011": 2.0739657692,
			"0.012": 2.1025864589,
			"0.013": 3.20893641277,
			"0.014": 0.139812921886,
			"0.015": 0.0,
			"0.016": 0.0,
			"0.017": 0.0,
			"0.018": 0.0,
			"0.019": 0.0,
			"0.02": 0.0,
			"0.021": 0.0,
			"0.022": 0.0,
			"0.023": 0.0,
			"0.024": 0.0,
			"0.025": 0.0
		}
	}
}
