{
	 "smiles": "OC(=O)C1=CC2=C(S1)C=CC(Br)=C2", 
	 "Tm": 507.15, 
	 "num_atms": 18, 
	 "gaussian": { 
		 "optdone": 1, 
		 "sigma_profile": "yes", 
		 "theory": "DFT", 
		 "functional": "B3LYP", 
		 "basiset": "6-31G**", 
		 "properties": { 
			 "R2extent": 5208.1036, 
			 "electric_dipole_moment_norm": 3.97836054047, 
			 "electric_quadrupole_moment_norm": 18.7726692106, 
			 "total_energy": -3466.01579343, 
			 "HOMO_LUMO_gap": 0.16606, 
			 "cosmo_polarized_energy": -13.33, 
			 "cosmo_cavitation_energy": 27.06, 
			 "cosmo_dispersion_energy": -21.05, 
			 "cosmo_repulsion_energy": 1.6, 
			 "cosmo_total_nonelectrostatic_energy": 7.61, 
			 "SMD_solvation_energy": 4.16 
		},
		"coords": [
			{
				"x": 2.7758385282,
				"y": -3.1777987086,
				"z": -2.3325592372,
				"element": "O" 
			},
			{
				"x": 1.7393836203,
				"y": -3.2128500548,
				"z": -1.4571912228,
				"element": "C" 
			},
			{
				"x": 1.400614863,
				"y": -4.2600003503,
				"z": -0.9582242471,
				"element": "O" 
			},
			{
				"x": 1.0527261611,
				"y": -1.9323275197,
				"z": -1.1418694175,
				"element": "C" 
			},
			{
				"x": 0.0003123015,
				"y": -1.8364432797,
				"z": -0.2790063919,
				"element": "C" 
			},
			{
				"x": -0.4973557545,
				"y": -0.5004916644,
				"z": -0.1336996872,
				"element": "C" 
			},
			{
				"x": 0.2234372761,
				"y": 0.4281724418,
				"z": -0.9269644748,
				"element": "C" 
			},
			{
				"x": 1.4964942153,
				"y": -0.3672109861,
				"z": -1.8322311674,
				"element": "S" 
			},
			{
				"x": -0.0981840211,
				"y": 1.7890191189,
				"z": -0.9343106123,
				"element": "C" 
			},
			{
				"x": -1.1510288165,
				"y": 2.2264724488,
				"z": -0.1407656208,
				"element": "C" 
			},
			{
				"x": -1.8694807358,
				"y": 1.3092858356,
				"z": 0.6481429293,
				"element": "C" 
			},
			{
				"x": -3.3091434682,
				"y": 1.9584951838,
				"z": 1.7226794376,
				"element": "Br" 
			},
			{
				"x": -1.5625255541,
				"y": -0.0401445066,
				"z": 0.6654977267,
				"element": "C" 
			},
			{
				"x": 2.9495708858,
				"y": -2.2840243874,
				"z": -2.6608765582,
				"element": "H" 
			},
			{
				"x": -0.397232419,
				"y": -2.7056456404,
				"z": 0.2311183264,
				"element": "H" 
			},
			{
				"x": 0.4565774047,
				"y": 2.495534283,
				"z": -1.5431237013,
				"element": "H" 
			},
			{
				"x": -1.4237714482,
				"y": 3.2751353267,
				"z": -0.1255432677,
				"element": "H" 
			},
			{
				"x": -2.1281330387,
				"y": -0.7310775407,
				"z": 1.2802271861,
				"element": "H" 
			}
		],
		 "valence_orbital": [ 
			{
				"type": "occ",
				"energy": -0.30469,
				"method": "rhf"
			},
			{
				"type": "occ",
				"energy": -0.29847,
				"method": "rhf"
			},
			{
				"type": "occ",
				"energy": -0.28572,
				"method": "rhf"
			},
			{
				"type": "occ",
				"energy": -0.25458,
				"method": "rhf"
			},
			{
				"type": "occ",
				"energy": -0.24431,
				"method": "rhf"
			},
			{
				"type": "unocc",
				"energy": -0.07825,
				"method": "rhf"
			},
			{
				"type": "unocc",
				"energy": -0.03237,
				"method": "rhf"
			},
			{
				"type": "unocc",
				"energy": -0.02392,
				"method": "rhf"
			},
			{
				"type": "unocc",
				"energy": -0.00176,
				"method": "rhf"
			},
			{
				"type": "unocc",
				"energy": -0.00054,
				"method": "rhf"
			}
		],
		"cosmo_sigma_profile": { 
			"-0.025": 0.0,
			"-0.024": 0.0,
			"-0.023": 0.0,
			"-0.022": 0.0,
			"-0.021": 0.0,
			"-0.02": 0.0,
			"-0.019": 0.126929989375,
			"-0.018": 0.78303854401,
			"-0.017": 0.728403147719,
			"-0.016": 1.0346796936,
			"-0.015": 0.755409075881,
			"-0.014": 0.459325023771,
			"-0.013": 1.07306905279,
			"-0.012": 1.43008176654,
			"-0.011": 0.990386246807,
			"-0.01": 0.80235327632,
			"-0.009": 2.46786196995,
			"-0.008": 8.94543741344,
			"-0.007": 9.28980233678,
			"-0.006": 7.6075118293,
			"-0.005": 7.53919090745,
			"-0.004": 8.92961093149,
			"-0.003": 11.1352602471,
			"-0.002": 11.5191518641,
			"-0.001": 12.6966368404,
			"0.0": 20.8587000946,
			"0.001": 29.6766797053,
			"0.002": 25.0784737186,
			"0.003": 14.3052562594,
			"0.004": 13.5637098916,
			"0.005": 5.69259314165,
			"0.006": 3.06038433875,
			"0.007": 2.13526021659,
			"0.008": 2.79379558677,
			"0.009": 3.96329020853,
			"0.01": 4.86011851994,
			"0.011": 5.57607885305,
			"0.012": 3.44749838193,
			"0.013": 0.563283359388,
			"0.014": 0.0,
			"0.015": 0.0,
			"0.016": 0.0,
			"0.017": 0.0,
			"0.018": 0.0,
			"0.019": 0.0,
			"0.02": 0.0,
			"0.021": 0.0,
			"0.022": 0.0,
			"0.023": 0.0,
			"0.024": 0.0,
			"0.025": 0.0
		}
	}
}
