{
	 "smiles": "C1CCCCCCCCC1", 
	 "Tm": 283.15, 
	 "num_atms": 30, 
	 "gaussian": { 
		 "optdone": 1, 
		 "sigma_profile": "yes", 
		 "theory": "DFT", 
		 "functional": "B3LYP", 
		 "basiset": "6-31G**", 
		 "properties": { 
			 "R2extent": 1774.7452, 
			 "electric_dipole_moment_norm": 0.0, 
			 "electric_quadrupole_moment_norm": 0.230971513395, 
			 "total_energy": -393.132427994, 
			 "HOMO_LUMO_gap": 0.36961, 
			 "cosmo_polarized_energy": -0.65, 
			 "cosmo_cavitation_energy": 26.22, 
			 "cosmo_dispersion_energy": -20.29, 
			 "cosmo_repulsion_energy": 1.64, 
			 "cosmo_total_nonelectrostatic_energy": 7.57, 
			 "SMD_solvation_energy": 3.06 
		},
		"coords": [
			{
				"x": -1.7093791247,
				"y": 0.291422272,
				"z": -1.053161843,
				"element": "C" 
			},
			{
				"x": -1.5422347281,
				"y": -0.1128185401,
				"z": 0.4277834933,
				"element": "C" 
			},
			{
				"x": -1.044740153,
				"y": 1.0076382362,
				"z": 1.3656124788,
				"element": "C" 
			},
			{
				"x": -0.2463419949,
				"y": 0.5313323577,
				"z": 2.5987090996,
				"element": "C" 
			},
			{
				"x": 0.9951020573,
				"y": -0.3568346711,
				"z": 2.3631732088,
				"element": "C" 
			},
			{
				"x": 2.2143608242,
				"y": 0.2472032533,
				"z": 1.6323573351,
				"element": "C" 
			},
			{
				"x": 2.0471710976,
				"y": 0.6514760906,
				"z": 0.1514239999,
				"element": "C" 
			},
			{
				"x": 1.5497892312,
				"y": -0.4689933607,
				"z": -0.7864498482,
				"element": "C" 
			},
			{
				"x": 0.7513391432,
				"y": 0.0072900448,
				"z": -2.0195206246,
				"element": "C" 
			},
			{
				"x": -0.4901021277,
				"y": 0.8954552605,
				"z": -1.7839545982,
				"element": "C" 
			},
			{
				"x": -2.5244594983,
				"y": 1.0252989978,
				"z": -1.124661997,
				"element": "H" 
			},
			{
				"x": -2.0542451988,
				"y": -0.5900498814,
				"z": -1.6114904691,
				"element": "H" 
			},
			{
				"x": -2.5098919045,
				"y": -0.4829097039,
				"z": 0.7912845916,
				"element": "H" 
			},
			{
				"x": -0.8709343563,
				"y": -0.9726794192,
				"z": 0.4845861991,
				"element": "H" 
			},
			{
				"x": -1.9063003121,
				"y": 1.5879437635,
				"z": 1.7211693469,
				"element": "H" 
			},
			{
				"x": -0.4355872804,
				"y": 1.7203115906,
				"z": 0.8050011552,
				"element": "H" 
			},
			{
				"x": 0.057885991,
				"y": 1.4178791266,
				"z": 3.1724277418,
				"element": "H" 
			},
			{
				"x": -0.9239858163,
				"y": -0.0298715064,
				"z": 3.2574040024,
				"element": "H" 
			},
			{
				"x": 0.6925094124,
				"y": -1.2858980789,
				"z": 1.8658653251,
				"element": "H" 
			},
			{
				"x": 1.347325553,
				"y": -0.6746090535,
				"z": 3.3535180003,
				"element": "H" 
			},
			{
				"x": 3.0294517546,
				"y": -0.4866644413,
				"z": 1.7038310844,
				"element": "H" 
			},
			{
				"x": 2.5592274705,
				"y": 1.1286728282,
				"z": 2.1906891497,
				"element": "H" 
			},
			{
				"x": 3.0147918734,
				"y": 1.0216727344,
				"z": -0.2120659974,
				"element": "H" 
			},
			{
				"x": 1.3757850851,
				"y": 1.5112754456,
				"z": 0.0946533208,
				"element": "H" 
			},
			{
				"x": 2.411403984,
				"y": -1.0491997718,
				"z": -1.1420364148,
				"element": "H" 
			},
			{
				"x": 0.9407112859,
				"y": -1.1817505123,
				"z": -0.2258682792,
				"element": "H" 
			},
			{
				"x": 1.4289578695,
				"y": 0.5685042848,
				"z": -2.6782322599,
				"element": "H" 
			},
			{
				"x": 0.4471105606,
				"y": -0.8792611748,
				"z": -2.5932326133,
				"element": "H" 
			},
			{
				"x": -0.1875012334,
				"y": 1.8245040428,
				"z": -1.2866228541,
				"element": "H" 
			},
			{
				"x": -0.8423194652,
				"y": 1.2132597858,
				"z": -2.774291734,
				"element": "H" 
			}
		],
		 "valence_orbital": [ 
			{
				"type": "occ",
				"energy": -0.3121,
				"method": "rhf"
			},
			{
				"type": "occ",
				"energy": -0.29968,
				"method": "rhf"
			},
			{
				"type": "occ",
				"energy": -0.29884,
				"method": "rhf"
			},
			{
				"type": "occ",
				"energy": -0.29296,
				"method": "rhf"
			},
			{
				"type": "occ",
				"energy": -0.28811,
				"method": "rhf"
			},
			{
				"type": "unocc",
				"energy": 0.0815,
				"method": "rhf"
			},
			{
				"type": "unocc",
				"energy": 0.09567,
				"method": "rhf"
			},
			{
				"type": "unocc",
				"energy": 0.10032,
				"method": "rhf"
			},
			{
				"type": "unocc",
				"energy": 0.10754,
				"method": "rhf"
			},
			{
				"type": "unocc",
				"energy": 0.12143,
				"method": "rhf"
			}
		],
		"cosmo_sigma_profile": { 
			"-0.025": 0.0,
			"-0.024": 0.0,
			"-0.023": 0.0,
			"-0.022": 0.0,
			"-0.021": 0.0,
			"-0.02": 0.0,
			"-0.019": 0.0,
			"-0.018": 0.0,
			"-0.017": 0.0,
			"-0.016": 0.0,
			"-0.015": 0.0,
			"-0.014": 0.0,
			"-0.013": 0.0,
			"-0.012": 0.0,
			"-0.011": 0.0,
			"-0.01": 0.0,
			"-0.009": 0.0,
			"-0.008": 0.0,
			"-0.007": 0.0,
			"-0.006": 0.0,
			"-0.005": 0.0762589030181,
			"-0.004": 2.25924211967,
			"-0.003": 3.19176084727,
			"-0.002": 19.7286526593,
			"-0.001": 39.204699095,
			"0.0": 58.9843852487,
			"0.001": 55.2576628564,
			"0.002": 21.3785866553,
			"0.003": 0.0455721584029,
			"0.004": 0.0,
			"0.005": 0.0,
			"0.006": 0.0,
			"0.007": 0.0,
			"0.008": 0.0,
			"0.009": 0.0,
			"0.01": 0.0,
			"0.011": 0.0,
			"0.012": 0.0,
			"0.013": 0.0,
			"0.014": 0.0,
			"0.015": 0.0,
			"0.016": 0.0,
			"0.017": 0.0,
			"0.018": 0.0,
			"0.019": 0.0,
			"0.02": 0.0,
			"0.021": 0.0,
			"0.022": 0.0,
			"0.023": 0.0,
			"0.024": 0.0,
			"0.025": 0.0
		}
	}
}
