{
	 "smiles": "OC(=O)C1CN(C(=O)C1)C1=C(Br)C=CC=C1", 
	 "Tm": 451.15, 
	 "num_atms": 26, 
	 "gaussian": { 
		 "optdone": 1, 
		 "sigma_profile": "yes", 
		 "theory": "DFT", 
		 "functional": "B3LYP", 
		 "basiset": "6-31G**", 
		 "properties": { 
			 "R2extent": 4867.36, 
			 "electric_dipole_moment_norm": 4.35288836866, 
			 "electric_quadrupole_moment_norm": 15.0077662735, 
			 "total_energy": -3277.04969947, 
			 "HOMO_LUMO_gap": 0.21368, 
			 "cosmo_polarized_energy": -17.59, 
			 "cosmo_cavitation_energy": 32.29, 
			 "cosmo_dispersion_energy": -22.83, 
			 "cosmo_repulsion_energy": 1.78, 
			 "cosmo_total_nonelectrostatic_energy": 11.24, 
			 "SMD_solvation_energy": 6.17 
		},
		"coords": [
			{
				"x": -3.3925459626,
				"y": -1.8387785037,
				"z": 2.1624334061,
				"element": "O" 
			},
			{
				"x": -2.119596233,
				"y": -1.7630742648,
				"z": 2.6186971539,
				"element": "C" 
			},
			{
				"x": -1.8462945022,
				"y": -1.3674322681,
				"z": 3.7287711445,
				"element": "O" 
			},
			{
				"x": -1.1290153566,
				"y": -2.2754612022,
				"z": 1.5785402409,
				"element": "C" 
			},
			{
				"x": -1.2418838621,
				"y": -1.5113806921,
				"z": 0.2338183091,
				"element": "C" 
			},
			{
				"x": -0.2041872819,
				"y": -0.4802097645,
				"z": 0.3471051885,
				"element": "N" 
			},
			{
				"x": 0.789745925,
				"y": -0.8106086256,
				"z": 1.2616472793,
				"element": "C" 
			},
			{
				"x": 1.8417677417,
				"y": -0.2202107027,
				"z": 1.4117007214,
				"element": "O" 
			},
			{
				"x": 0.3231354587,
				"y": -2.0527358883,
				"z": 2.0183665938,
				"element": "C" 
			},
			{
				"x": -0.0320505238,
				"y": 0.5275963585,
				"z": -0.6372890545,
				"element": "C" 
			},
			{
				"x": -0.9663451886,
				"y": 1.559895313,
				"z": -0.8174934704,
				"element": "C" 
			},
			{
				"x": -2.4937080045,
				"y": 1.7110309489,
				"z": 0.3225330467,
				"element": "Br" 
			},
			{
				"x": -0.7952620919,
				"y": 2.5229944298,
				"z": -1.8112520105,
				"element": "C" 
			},
			{
				"x": 0.3351048274,
				"y": 2.4833381362,
				"z": -2.6257761483,
				"element": "C" 
			},
			{
				"x": 1.2898211538,
				"y": 1.4820116213,
				"z": -2.443282997,
				"element": "C" 
			},
			{
				"x": 1.1017301414,
				"y": 0.512171133,
				"z": -1.4626972518,
				"element": "C" 
			},
			{
				"x": -3.9594682754,
				"y": -1.5043068523,
				"z": 2.8774995106,
				"element": "H" 
			},
			{
				"x": -1.3709681664,
				"y": -3.3316252601,
				"z": 1.4210306961,
				"element": "H" 
			},
			{
				"x": -2.228134434,
				"y": -1.0711380739,
				"z": 0.0861800142,
				"element": "H" 
			},
			{
				"x": -1.0295219516,
				"y": -2.1780561863,
				"z": -0.6135029386,
				"element": "H" 
			},
			{
				"x": 0.9729002082,
				"y": -2.8891024995,
				"z": 1.7399467838,
				"element": "H" 
			},
			{
				"x": 0.4154233302,
				"y": -1.8920800015,
				"z": 3.0937664728,
				"element": "H" 
			},
			{
				"x": -1.5377223287,
				"y": 3.3036857932,
				"z": -1.9302885588,
				"element": "H" 
			},
			{
				"x": 0.4692167648,
				"y": 3.2400119682,
				"z": -3.3926873976,
				"element": "H" 
			},
			{
				"x": 2.1777193188,
				"y": 1.45107051,
				"z": -3.0669672092,
				"element": "H" 
			},
			{
				"x": 1.8403392932,
				"y": -0.2660054267,
				"z": -1.308899525,
				"element": "H" 
			}
		],
		 "valence_orbital": [ 
			{
				"type": "occ",
				"energy": -0.28779,
				"method": "rhf"
			},
			{
				"type": "occ",
				"energy": -0.27873,
				"method": "rhf"
			},
			{
				"type": "occ",
				"energy": -0.25635,
				"method": "rhf"
			},
			{
				"type": "occ",
				"energy": -0.24585,
				"method": "rhf"
			},
			{
				"type": "occ",
				"energy": -0.23919,
				"method": "rhf"
			},
			{
				"type": "unocc",
				"energy": -0.02551,
				"method": "rhf"
			},
			{
				"type": "unocc",
				"energy": -0.01765,
				"method": "rhf"
			},
			{
				"type": "unocc",
				"energy": -0.00273,
				"method": "rhf"
			},
			{
				"type": "unocc",
				"energy": 0.00084,
				"method": "rhf"
			},
			{
				"type": "unocc",
				"energy": 0.02746,
				"method": "rhf"
			}
		],
		"cosmo_sigma_profile": { 
			"-0.025": 0.0,
			"-0.024": 0.0,
			"-0.023": 0.0,
			"-0.022": 0.0,
			"-0.021": 0.0,
			"-0.02": 0.0,
			"-0.019": 0.0604944073556,
			"-0.018": 0.825608473719,
			"-0.017": 1.03001903084,
			"-0.016": 0.832297664111,
			"-0.015": 0.704982901706,
			"-0.014": 0.763244709623,
			"-0.013": 0.688670084354,
			"-0.012": 0.870567491348,
			"-0.011": 0.686488878087,
			"-0.01": 0.473179404957,
			"-0.009": 0.281860464492,
			"-0.008": 3.17593681232,
			"-0.007": 11.8581735853,
			"-0.006": 21.0826761817,
			"-0.005": 18.0982910969,
			"-0.004": 17.6941538442,
			"-0.003": 16.0043621159,
			"-0.002": 16.4998906792,
			"-0.001": 13.6446236167,
			"0.0": 16.0246354864,
			"0.001": 18.0255472617,
			"0.002": 21.0875561209,
			"0.003": 19.5889188132,
			"0.004": 16.4764625052,
			"0.005": 5.43527432085,
			"0.006": 4.48567092045,
			"0.007": 3.86884667795,
			"0.008": 3.7990452669,
			"0.009": 3.8390831549,
			"0.01": 4.25210256126,
			"0.011": 6.22228925807,
			"0.012": 4.4451310305,
			"0.013": 5.6580832613,
			"0.014": 1.76579624747,
			"0.015": 0.0839446040338,
			"0.016": 0.0,
			"0.017": 0.0,
			"0.018": 0.0,
			"0.019": 0.0,
			"0.02": 0.0,
			"0.021": 0.0,
			"0.022": 0.0,
			"0.023": 0.0,
			"0.024": 0.0,
			"0.025": 0.0
		}
	}
}
