{
	 "smiles": "OC(=O)C1=C(C=CC(=C1)S(=O)(=O)N1CCOCC1)N1CCCCC1", 
	 "Tm": 453.15, 
	 "num_atms": 46, 
	 "gaussian": { 
		 "optdone": 1, 
		 "sigma_profile": "yes", 
		 "theory": "DFT", 
		 "functional": "B3LYP", 
		 "basiset": "6-31G**", 
		 "properties": { 
			 "R2extent": 10864.1727, 
			 "electric_dipole_moment_norm": 9.03366483051, 
			 "electric_quadrupole_moment_norm": 21.4209249747, 
			 "total_energy": -1506.70134517, 
			 "HOMO_LUMO_gap": 0.1795, 
			 "cosmo_polarized_energy": -24.34, 
			 "cosmo_cavitation_energy": 46.58, 
			 "cosmo_dispersion_energy": -33.22, 
			 "cosmo_repulsion_energy": 2.49, 
			 "cosmo_total_nonelectrostatic_energy": 15.86, 
			 "SMD_solvation_energy": 6.26 
		},
		"coords": [
			{
				"x": -2.0466336394,
				"y": -2.0240896984,
				"z": 3.257291844,
				"element": "O" 
			},
			{
				"x": -0.8143771551,
				"y": -1.4963165738,
				"z": 3.1671268486,
				"element": "C" 
			},
			{
				"x": -0.0987964683,
				"y": -1.3872927113,
				"z": 4.1382668557,
				"element": "O" 
			},
			{
				"x": -0.345626366,
				"y": -1.1062116522,
				"z": 1.7808247691,
				"element": "C" 
			},
			{
				"x": -1.1890761278,
				"y": -0.9558717978,
				"z": 0.650745665,
				"element": "C" 
			},
			{
				"x": -0.5989420906,
				"y": -0.7731514934,
				"z": -0.6122916222,
				"element": "C" 
			},
			{
				"x": 0.7808480256,
				"y": -0.6845763615,
				"z": -0.7571261416,
				"element": "C" 
			},
			{
				"x": 1.5946413851,
				"y": -0.7669898754,
				"z": 0.37437635,
				"element": "C" 
			},
			{
				"x": 1.0410597577,
				"y": -0.9894887768,
				"z": 1.6299903041,
				"element": "C" 
			},
			{
				"x": 3.3738318253,
				"y": -0.652514287,
				"z": 0.1805979667,
				"element": "S" 
			},
			{
				"x": 3.99034785,
				"y": -1.1941190322,
				"z": 1.3979580451,
				"element": "O" 
			},
			{
				"x": 3.72669651,
				"y": -1.1776744673,
				"z": -1.1430432395,
				"element": "O" 
			},
			{
				"x": 3.594609143,
				"y": 1.03663236,
				"z": 0.0840439593,
				"element": "N" 
			},
			{
				"x": 3.547359144,
				"y": 1.7385235515,
				"z": 1.3816325291,
				"element": "C" 
			},
			{
				"x": 3.5226893927,
				"y": 3.2427871903,
				"z": 1.1071926591,
				"element": "C" 
			},
			{
				"x": 4.6392469598,
				"y": 3.6501047308,
				"z": 0.3322774124,
				"element": "O" 
			},
			{
				"x": 4.670147521,
				"y": 2.97114227,
				"z": -0.9151629306,
				"element": "C" 
			},
			{
				"x": 4.7577608798,
				"y": 1.4582617349,
				"z": -0.726686858,
				"element": "C" 
			},
			{
				"x": -2.6048558236,
				"y": -1.0352128067,
				"z": 0.8328832156,
				"element": "N" 
			},
			{
				"x": -3.4396960252,
				"y": -1.5518137073,
				"z": -0.2740773637,
				"element": "C" 
			},
			{
				"x": -3.9672002241,
				"y": -0.4908028563,
				"z": -1.2572819457,
				"element": "C" 
			},
			{
				"x": -4.6207830694,
				"y": 0.6826388242,
				"z": -0.5138738928,
				"element": "C" 
			},
			{
				"x": -3.66477147,
				"y": 1.2350288204,
				"z": 0.5515335857,
				"element": "C" 
			},
			{
				"x": -3.2378111052,
				"y": 0.1271491056,
				"z": 1.5200497553,
				"element": "C" 
			},
			{
				"x": -2.4613056981,
				"y": -1.9751832955,
				"z": 2.3597027871,
				"element": "H" 
			},
			{
				"x": -1.2234647818,
				"y": -0.6868952699,
				"z": -1.492278226,
				"element": "H" 
			},
			{
				"x": 1.2264922545,
				"y": -0.5500518799,
				"z": -1.7367073846,
				"element": "H" 
			},
			{
				"x": 1.6699773225,
				"y": -1.1203361727,
				"z": 2.5034805194,
				"element": "H" 
			},
			{
				"x": 4.4137274157,
				"y": 1.4790459163,
				"z": 2.0049993622,
				"element": "H" 
			},
			{
				"x": 2.6383548289,
				"y": 1.4489930842,
				"z": 1.9175525424,
				"element": "H" 
			},
			{
				"x": 2.5835746258,
				"y": 3.5053014294,
				"z": 0.5934412809,
				"element": "H" 
			},
			{
				"x": 3.574655922,
				"y": 3.79582603,
				"z": 2.0492209144,
				"element": "H" 
			},
			{
				"x": 3.7733712536,
				"y": 3.2161704697,
				"z": -1.5069313482,
				"element": "H" 
			},
			{
				"x": 5.5536244514,
				"y": 3.3342021542,
				"z": -1.4478535708,
				"element": "H" 
			},
			{
				"x": 5.7051731279,
				"y": 1.2049464904,
				"z": -0.2280894326,
				"element": "H" 
			},
			{
				"x": 4.719842036,
				"y": 0.9448575139,
				"z": -1.6888180216,
				"element": "H" 
			},
			{
				"x": -4.3018404876,
				"y": -2.0444882444,
				"z": 0.1956127361,
				"element": "H" 
			},
			{
				"x": -2.8740627633,
				"y": -2.3307095102,
				"z": -0.792099189,
				"element": "H" 
			},
			{
				"x": -4.6843540408,
				"y": -0.9712496181,
				"z": -1.9331603502,
				"element": "H" 
			},
			{
				"x": -3.1546658165,
				"y": -0.1087038975,
				"z": -1.8862324904,
				"element": "H" 
			},
			{
				"x": -5.5447664206,
				"y": 0.3403573975,
				"z": -0.026844149,
				"element": "H" 
			},
			{
				"x": -4.9109412247,
				"y": 1.4673091243,
				"z": -1.2207681243,
				"element": "H" 
			},
			{
				"x": -2.7755385029,
				"y": 1.6659172397,
				"z": 0.0728206309,
				"element": "H" 
			},
			{
				"x": -4.1411352456,
				"y": 2.040272884,
				"z": 1.1227734297,
				"element": "H" 
			},
			{
				"x": -4.1173236815,
				"y": -0.2488069171,
				"z": 2.0588270213,
				"element": "H" 
			},
			{
				"x": -2.5413634042,
				"y": 0.5070825816,
				"z": 2.2692032914,
				"element": "H" 
			}
		],
		 "valence_orbital": [ 
			{
				"type": "occ",
				"energy": -0.28164,
				"method": "rhf"
			},
			{
				"type": "occ",
				"energy": -0.27346,
				"method": "rhf"
			},
			{
				"type": "occ",
				"energy": -0.26805,
				"method": "rhf"
			},
			{
				"type": "occ",
				"energy": -0.25367,
				"method": "rhf"
			},
			{
				"type": "occ",
				"energy": -0.24242,
				"method": "rhf"
			},
			{
				"type": "unocc",
				"energy": -0.06292,
				"method": "rhf"
			},
			{
				"type": "unocc",
				"energy": -0.04136,
				"method": "rhf"
			},
			{
				"type": "unocc",
				"energy": 0.03096,
				"method": "rhf"
			},
			{
				"type": "unocc",
				"energy": 0.05384,
				"method": "rhf"
			},
			{
				"type": "unocc",
				"energy": 0.06193,
				"method": "rhf"
			}
		],
		"cosmo_sigma_profile": { 
			"-0.025": 0.0,
			"-0.024": 0.0,
			"-0.023": 0.0,
			"-0.022": 0.0,
			"-0.021": 0.0,
			"-0.02": 0.0,
			"-0.019": 0.0,
			"-0.018": 0.0,
			"-0.017": 0.0,
			"-0.016": 0.0,
			"-0.015": 0.0,
			"-0.014": 0.0,
			"-0.013": 0.0,
			"-0.012": 0.0,
			"-0.011": 0.0,
			"-0.01": 0.0,
			"-0.009": 0.0969943851772,
			"-0.008": 2.99532013315,
			"-0.007": 7.79146314895,
			"-0.006": 19.1667449247,
			"-0.005": 32.1983255486,
			"-0.004": 43.5804043148,
			"-0.003": 46.202728501,
			"-0.002": 38.9352310738,
			"-0.001": 29.7919844688,
			"0.0": 27.8689833967,
			"0.001": 17.3680105193,
			"0.002": 11.2082700219,
			"0.003": 7.86359516729,
			"0.004": 6.65827257611,
			"0.005": 6.19795340588,
			"0.006": 7.30391008411,
			"0.007": 7.5808852994,
			"0.008": 5.93338641803,
			"0.009": 6.80765759989,
			"0.01": 13.251689987,
			"0.011": 14.0053548062,
			"0.012": 9.2741699646,
			"0.013": 3.46807375842,
			"0.014": 0.323066075147,
			"0.015": 0.0,
			"0.016": 0.0,
			"0.017": 0.0,
			"0.018": 0.0,
			"0.019": 0.0,
			"0.02": 0.0,
			"0.021": 0.0,
			"0.022": 0.0,
			"0.023": 0.0,
			"0.024": 0.0,
			"0.025": 0.0
		}
	}
}
