{
	 "smiles": "FC1=CC=C(NC(=O)C2CCC3=C(N2)C=CC=C3)C=C1", 
	 "Tm": 389.15, 
	 "num_atms": 35, 
	 "gaussian": { 
		 "optdone": 1, 
		 "sigma_profile": "yes", 
		 "theory": "DFT", 
		 "functional": "B3LYP", 
		 "basiset": "6-31G**", 
		 "properties": { 
			 "R2extent": 8976.7451, 
			 "electric_dipole_moment_norm": 3.23278306263, 
			 "electric_quadrupole_moment_norm": 6.33058315323, 
			 "total_energy": -903.331195582, 
			 "HOMO_LUMO_gap": 0.20227, 
			 "cosmo_polarized_energy": -13.18, 
			 "cosmo_cavitation_energy": 38.5, 
			 "cosmo_dispersion_energy": -27.94, 
			 "cosmo_repulsion_energy": 2.09, 
			 "cosmo_total_nonelectrostatic_energy": 12.64, 
			 "SMD_solvation_energy": 6.42 
		},
		"coords": [
			{
				"x": 4.2560168425,
				"y": 1.3946688418,
				"z": -4.8428426386,
				"element": "F" 
			},
			{
				"x": 3.3025794662,
				"y": 1.1250298953,
				"z": -3.9242292263,
				"element": "C" 
			},
			{
				"x": 3.5693548121,
				"y": 1.3478222881,
				"z": -2.5793903888,
				"element": "C" 
			},
			{
				"x": 2.5909085444,
				"y": 1.0723342825,
				"z": -1.6246296491,
				"element": "C" 
			},
			{
				"x": 1.3430257759,
				"y": 0.5718631275,
				"z": -2.0304584898,
				"element": "C" 
			},
			{
				"x": 0.3017470155,
				"y": 0.2708946445,
				"z": -1.1273888134,
				"element": "N" 
			},
			{
				"x": 0.2896632535,
				"y": 0.3694974167,
				"z": 0.2405132873,
				"element": "C" 
			},
			{
				"x": 1.221516283,
				"y": 0.7660088493,
				"z": 0.9286581839,
				"element": "O" 
			},
			{
				"x": -1.0239184527,
				"y": -0.1276079096,
				"z": 0.867192145,
				"element": "C" 
			},
			{
				"x": -1.2573172241,
				"y": 0.4031425663,
				"z": 2.2828314116,
				"element": "C" 
			},
			{
				"x": -2.4687754279,
				"y": -0.3304167633,
				"z": 2.8732094123,
				"element": "C" 
			},
			{
				"x": -3.6302679646,
				"y": -0.4180948811,
				"z": 1.8972791912,
				"element": "C" 
			},
			{
				"x": -3.4491130179,
				"y": -0.1706745102,
				"z": 0.5238275773,
				"element": "C" 
			},
			{
				"x": -2.1618152974,
				"y": 0.1349485502,
				"z": -0.0253094833,
				"element": "N" 
			},
			{
				"x": -4.545639034,
				"y": -0.2120397206,
				"z": -0.3493249702,
				"element": "C" 
			},
			{
				"x": -5.8195982672,
				"y": -0.5040137561,
				"z": 0.1262719684,
				"element": "C" 
			},
			{
				"x": -6.008340458,
				"y": -0.77626476,
				"z": 1.4845435371,
				"element": "C" 
			},
			{
				"x": -4.9191557933,
				"y": -0.7315659392,
				"z": 2.3508677608,
				"element": "C" 
			},
			{
				"x": 1.0978665211,
				"y": 0.3548355708,
				"z": -3.3958185579,
				"element": "C" 
			},
			{
				"x": 2.0751144204,
				"y": 0.6296774299,
				"z": -4.3483481796,
				"element": "C" 
			},
			{
				"x": 4.538994556,
				"y": 1.7345466203,
				"z": -2.2845757677,
				"element": "H" 
			},
			{
				"x": 2.7789826347,
				"y": 1.2372555075,
				"z": -0.5732278776,
				"element": "H" 
			},
			{
				"x": -0.5603856648,
				"y": -0.0870547846,
				"z": -1.524236952,
				"element": "H" 
			},
			{
				"x": -0.9277291429,
				"y": -1.2235616531,
				"z": 0.9313405218,
				"element": "H" 
			},
			{
				"x": -1.4410391076,
				"y": 1.4838179107,
				"z": 2.2343820158,
				"element": "H" 
			},
			{
				"x": -0.3634986223,
				"y": 0.2564168971,
				"z": 2.8931517123,
				"element": "H" 
			},
			{
				"x": -2.1641183123,
				"y": -1.3451310039,
				"z": 3.1676638524,
				"element": "H" 
			},
			{
				"x": -2.8023187009,
				"y": 0.1614701831,
				"z": 3.793995705,
				"element": "H" 
			},
			{
				"x": -2.1451490013,
				"y": 1.1015782224,
				"z": -0.3455199234,
				"element": "H" 
			},
			{
				"x": -4.3768824938,
				"y": -0.0234098923,
				"z": -1.4061385278,
				"element": "H" 
			},
			{
				"x": -6.6600687209,
				"y": -0.5320010606,
				"z": -0.5611724789,
				"element": "H" 
			},
			{
				"x": -6.9971665505,
				"y": -1.0155332423,
				"z": 1.8642722717,
				"element": "H" 
			},
			{
				"x": -5.0664044454,
				"y": -0.9248252829,
				"z": 3.4113202543,
				"element": "H" 
			},
			{
				"x": 0.1345133506,
				"y": -0.0345652205,
				"z": -3.7159032937,
				"element": "H" 
			},
			{
				"x": 1.8956182237,
				"y": 0.4644515763,
				"z": -5.4050055902,
				"element": "H" 
			}
		],
		 "valence_orbital": [ 
			{
				"type": "occ",
				"energy": -0.26103,
				"method": "rhf"
			},
			{
				"type": "occ",
				"energy": -0.25851,
				"method": "rhf"
			},
			{
				"type": "occ",
				"energy": -0.24575,
				"method": "rhf"
			},
			{
				"type": "occ",
				"energy": -0.22066,
				"method": "rhf"
			},
			{
				"type": "occ",
				"energy": -0.21834,
				"method": "rhf"
			},
			{
				"type": "unocc",
				"energy": -0.01607,
				"method": "rhf"
			},
			{
				"type": "unocc",
				"energy": -0.01139,
				"method": "rhf"
			},
			{
				"type": "unocc",
				"energy": -0.00582,
				"method": "rhf"
			},
			{
				"type": "unocc",
				"energy": 0.00275,
				"method": "rhf"
			},
			{
				"type": "unocc",
				"energy": 0.04085,
				"method": "rhf"
			}
		],
		"cosmo_sigma_profile": { 
			"-0.025": 0.0,
			"-0.024": 0.0,
			"-0.023": 0.0,
			"-0.022": 0.0,
			"-0.021": 0.0,
			"-0.02": 0.0,
			"-0.019": 0.0,
			"-0.018": 0.0,
			"-0.017": 0.0,
			"-0.016": 0.0,
			"-0.015": 0.0,
			"-0.014": 0.0,
			"-0.013": 0.194319008677,
			"-0.012": 2.10688449916,
			"-0.011": 2.01008165547,
			"-0.01": 3.04816981978,
			"-0.009": 2.71629259207,
			"-0.008": 3.18328909214,
			"-0.007": 7.69025642588,
			"-0.006": 11.0286088247,
			"-0.005": 18.4738540939,
			"-0.004": 25.1324802747,
			"-0.003": 25.1137740787,
			"-0.002": 22.8832641509,
			"-0.001": 21.7303065122,
			"0.0": 20.0358472484,
			"0.001": 20.2530520838,
			"0.002": 22.0340844023,
			"0.003": 22.9015498899,
			"0.004": 28.4559669805,
			"0.005": 16.3074651411,
			"0.006": 11.319065926,
			"0.007": 6.61704676438,
			"0.008": 1.89720052225,
			"0.009": 2.39113216491,
			"0.01": 1.23372026362,
			"0.011": 2.26786895193,
			"0.012": 2.53262270725,
			"0.013": 2.65211004725,
			"0.014": 0.188459419343,
			"0.015": 0.0,
			"0.016": 0.0,
			"0.017": 0.0,
			"0.018": 0.0,
			"0.019": 0.0,
			"0.02": 0.0,
			"0.021": 0.0,
			"0.022": 0.0,
			"0.023": 0.0,
			"0.024": 0.0,
			"0.025": 0.0
		}
	}
}
