{
	 "smiles": "CCN1N=CC2=C1C=C(N)C=C2", 
	 "Tm": 391.15, 
	 "num_atms": 23, 
	 "gaussian": { 
		 "optdone": 1, 
		 "sigma_profile": "yes", 
		 "theory": "DFT", 
		 "functional": "B3LYP", 
		 "basiset": "6-31G**", 
		 "properties": { 
			 "R2extent": 2207.6335, 
			 "electric_dipole_moment_norm": 3.15595713691, 
			 "electric_quadrupole_moment_norm": 10.076395163, 
			 "total_energy": -513.836808186, 
			 "HOMO_LUMO_gap": 0.17936, 
			 "cosmo_polarized_energy": -12.1, 
			 "cosmo_cavitation_energy": 26.41, 
			 "cosmo_dispersion_energy": -19.28, 
			 "cosmo_repulsion_energy": 1.54, 
			 "cosmo_total_nonelectrostatic_energy": 8.67, 
			 "SMD_solvation_energy": 3.44 
		},
		"coords": [
			{
				"x": 0.3766940761,
				"y": 2.7458918022,
				"z": 1.7300928958,
				"element": "C" 
			},
			{
				"x": 1.033256346,
				"y": 1.3736513168,
				"z": 1.9070530048,
				"element": "C" 
			},
			{
				"x": 0.3296810436,
				"y": 0.3098210967,
				"z": 1.211953452,
				"element": "N" 
			},
			{
				"x": -0.7072719863,
				"y": -0.328916757,
				"z": 1.8368606953,
				"element": "N" 
			},
			{
				"x": -1.2174869036,
				"y": -1.1605320661,
				"z": 0.9466334982,
				"element": "C" 
			},
			{
				"x": -0.5321306983,
				"y": -1.0802907581,
				"z": -0.3018929019,
				"element": "C" 
			},
			{
				"x": 0.4680844529,
				"y": -0.0973145177,
				"z": -0.0885876392,
				"element": "C" 
			},
			{
				"x": 1.375737307,
				"y": 0.2850500291,
				"z": -1.0895669754,
				"element": "C" 
			},
			{
				"x": 1.2685691108,
				"y": -0.3409360273,
				"z": -2.3315652437,
				"element": "C" 
			},
			{
				"x": 2.0973955565,
				"y": 0.0309461578,
				"z": -3.394309783,
				"element": "N" 
			},
			{
				"x": 0.2672086993,
				"y": -1.3314234104,
				"z": -2.5546470681,
				"element": "C" 
			},
			{
				"x": -0.6192781662,
				"y": -1.7006061428,
				"z": -1.5619416574,
				"element": "C" 
			},
			{
				"x": 0.3511173619,
				"y": 3.0377642564,
				"z": 0.6757771471,
				"element": "H" 
			},
			{
				"x": 0.9329314144,
				"y": 3.5087483346,
				"z": 2.2849278531,
				"element": "H" 
			},
			{
				"x": -0.6500806704,
				"y": 2.7238733904,
				"z": 2.105252955,
				"element": "H" 
			},
			{
				"x": 2.0667929516,
				"y": 1.3856796741,
				"z": 1.5441220178,
				"element": "H" 
			},
			{
				"x": 1.0580875196,
				"y": 1.0926103939,
				"z": 2.9629662443,
				"element": "H" 
			},
			{
				"x": -2.0508914967,
				"y": -1.7948569423,
				"z": 1.2197071366,
				"element": "H" 
			},
			{
				"x": 2.1323033049,
				"y": 1.045005761,
				"z": -0.9169487893,
				"element": "H" 
			},
			{
				"x": 2.2357663014,
				"y": -0.683474961,
				"z": -4.0957850159,
				"element": "H" 
			},
			{
				"x": 2.9706386518,
				"y": 0.4633735527,
				"z": -3.125526051,
				"element": "H" 
			},
			{
				"x": 0.205558072,
				"y": -1.7935390938,
				"z": -3.5365679917,
				"element": "H" 
			},
			{
				"x": -1.3715822485,
				"y": -2.459725089,
				"z": -1.7568077833,
				"element": "H" 
			}
		],
		 "valence_orbital": [ 
			{
				"type": "occ",
				"energy": -0.29332,
				"method": "rhf"
			},
			{
				"type": "occ",
				"energy": -0.27746,
				"method": "rhf"
			},
			{
				"type": "occ",
				"energy": -0.26957,
				"method": "rhf"
			},
			{
				"type": "occ",
				"energy": -0.21156,
				"method": "rhf"
			},
			{
				"type": "occ",
				"energy": -0.1921,
				"method": "rhf"
			},
			{
				"type": "unocc",
				"energy": -0.01274,
				"method": "rhf"
			},
			{
				"type": "unocc",
				"energy": 0.03112,
				"method": "rhf"
			},
			{
				"type": "unocc",
				"energy": 0.06892,
				"method": "rhf"
			},
			{
				"type": "unocc",
				"energy": 0.08239,
				"method": "rhf"
			},
			{
				"type": "unocc",
				"energy": 0.0952,
				"method": "rhf"
			}
		],
		"cosmo_sigma_profile": { 
			"-0.025": 0.0,
			"-0.024": 0.0,
			"-0.023": 0.0,
			"-0.022": 0.0,
			"-0.021": 0.0,
			"-0.02": 0.0,
			"-0.019": 0.0,
			"-0.018": 0.0,
			"-0.017": 0.0,
			"-0.016": 0.0,
			"-0.015": 0.0,
			"-0.014": 0.0,
			"-0.013": 0.214995745357,
			"-0.012": 2.60134258395,
			"-0.011": 2.74694423122,
			"-0.01": 2.52067099266,
			"-0.009": 3.94335968062,
			"-0.008": 2.77542036627,
			"-0.007": 4.74648914524,
			"-0.006": 10.1436935686,
			"-0.005": 11.8689033277,
			"-0.004": 14.4845062291,
			"-0.003": 19.3771221866,
			"-0.002": 16.2252063252,
			"-0.001": 14.198602791,
			"0.0": 15.0157281854,
			"0.001": 10.9731419723,
			"0.002": 9.10142913062,
			"0.003": 8.52837611158,
			"0.004": 11.9784780512,
			"0.005": 14.8236884776,
			"0.006": 13.8464241398,
			"0.007": 3.49599922744,
			"0.008": 2.27403436687,
			"0.009": 2.66879637431,
			"0.01": 2.18367344515,
			"0.011": 1.10317497643,
			"0.012": 1.91531661964,
			"0.013": 2.28151188812,
			"0.014": 1.36101963198,
			"0.015": 1.14826415872,
			"0.016": 0.645109275781,
			"0.017": 0.000489695554406,
			"0.018": 0.0,
			"0.019": 0.0,
			"0.02": 0.0,
			"0.021": 0.0,
			"0.022": 0.0,
			"0.023": 0.0,
			"0.024": 0.0,
			"0.025": 0.0
		}
	}
}
