{
	 "smiles": "NC1=CC=C(C=C1)S(=O)(=O)NC1=CC(=CC=C1)C(F)(F)F", 
	 "Tm": 387.15, 
	 "num_atms": 32, 
	 "gaussian": { 
		 "optdone": 1, 
		 "sigma_profile": "yes", 
		 "theory": "DFT", 
		 "functional": "B3LYP", 
		 "basiset": "6-31G**", 
		 "properties": { 
			 "R2extent": 7566.8769, 
			 "electric_dipole_moment_norm": 8.48763966071, 
			 "electric_quadrupole_moment_norm": 15.114429842, 
			 "total_energy": -1459.61627465, 
			 "HOMO_LUMO_gap": 0.19096, 
			 "cosmo_polarized_energy": -21.74, 
			 "cosmo_cavitation_energy": 39.46, 
			 "cosmo_dispersion_energy": -27.03, 
			 "cosmo_repulsion_energy": 1.97, 
			 "cosmo_total_nonelectrostatic_energy": 14.41, 
			 "SMD_solvation_energy": 6.95 
		},
		"coords": [
			{
				"x": 0.90754354,
				"y": -2.9533147422,
				"z": -3.45631409,
				"element": "N" 
			},
			{
				"x": 0.9050423491,
				"y": -2.4533731558,
				"z": -2.1689501045,
				"element": "C" 
			},
			{
				"x": 1.604773349,
				"y": -1.2698868617,
				"z": -1.8571132982,
				"element": "C" 
			},
			{
				"x": 1.6462007114,
				"y": -0.7934791085,
				"z": -0.5544050331,
				"element": "C" 
			},
			{
				"x": 0.9830419205,
				"y": -1.4912779465,
				"z": 0.4619683303,
				"element": "C" 
			},
			{
				"x": 0.2883712481,
				"y": -2.6714863564,
				"z": 0.1718879496,
				"element": "C" 
			},
			{
				"x": 0.250722117,
				"y": -3.1482757774,
				"z": -1.1302073599,
				"element": "C" 
			},
			{
				"x": 0.997380273,
				"y": -0.8699858492,
				"z": 2.1289452117,
				"element": "S" 
			},
			{
				"x": 2.176435326,
				"y": -0.0182500384,
				"z": 2.2824757895,
				"element": "O" 
			},
			{
				"x": 0.6959050554,
				"y": -1.9731425434,
				"z": 3.0421696786,
				"element": "O" 
			},
			{
				"x": -0.3695778088,
				"y": 0.144593147,
				"z": 2.2976136481,
				"element": "N" 
			},
			{
				"x": -0.6284482563,
				"y": 1.2746897761,
				"z": 1.4889129741,
				"element": "C" 
			},
			{
				"x": 0.3679523481,
				"y": 2.2243612339,
				"z": 1.226562282,
				"element": "C" 
			},
			{
				"x": 0.0647528952,
				"y": 3.3380554772,
				"z": 0.4422996888,
				"element": "C" 
			},
			{
				"x": -1.2230062239,
				"y": 3.5451826912,
				"z": -0.0564231561,
				"element": "C" 
			},
			{
				"x": -2.2165285887,
				"y": 2.6097993098,
				"z": 0.2311043407,
				"element": "C" 
			},
			{
				"x": -1.9223754743,
				"y": 1.4754306218,
				"z": 0.9831784298,
				"element": "C" 
			},
			{
				"x": 1.1711657476,
				"y": 4.3014634643,
				"z": 0.1010554733,
				"element": "C" 
			},
			{
				"x": 1.9098343633,
				"y": 3.850330241,
				"z": -0.9423623781,
				"element": "F" 
			},
			{
				"x": 0.6961737615,
				"y": 5.516421939,
				"z": -0.2507370414,
				"element": "F" 
			},
			{
				"x": 2.0230435504,
				"y": 4.4797465235,
				"z": 1.1324069674,
				"element": "F" 
			},
			{
				"x": 1.1383257353,
				"y": -2.3136870319,
				"z": -4.2015735086,
				"element": "H" 
			},
			{
				"x": 0.1922119899,
				"y": -3.6230958455,
				"z": -3.6958248426,
				"element": "H" 
			},
			{
				"x": 2.1273067462,
				"y": -0.7332123492,
				"z": -2.6442548111,
				"element": "H" 
			},
			{
				"x": 2.2021052712,
				"y": 0.1068921739,
				"z": -0.3193949925,
				"element": "H" 
			},
			{
				"x": -0.1983816465,
				"y": -3.2197867802,
				"z": 0.971528252,
				"element": "H" 
			},
			{
				"x": -0.2749443222,
				"y": -4.0729927224,
				"z": -1.3527628891,
				"element": "H" 
			},
			{
				"x": -1.1802827057,
				"y": -0.4236015252,
				"z": 2.5193459481,
				"element": "H" 
			},
			{
				"x": 1.3584700374,
				"y": 2.0944153272,
				"z": 1.6442623142,
				"element": "H" 
			},
			{
				"x": -1.4427619793,
				"y": 4.4261190916,
				"z": -0.6479294482,
				"element": "H" 
			},
			{
				"x": -3.2251986749,
				"y": 2.757821146,
				"z": -0.1423285524,
				"element": "H" 
			},
			{
				"x": -2.6977526552,
				"y": 0.7410264704,
				"z": 1.1862642276,
				"element": "H" 
			}
		],
		 "valence_orbital": [ 
			{
				"type": "occ",
				"energy": -0.30248,
				"method": "rhf"
			},
			{
				"type": "occ",
				"energy": -0.2735,
				"method": "rhf"
			},
			{
				"type": "occ",
				"energy": -0.27065,
				"method": "rhf"
			},
			{
				"type": "occ",
				"energy": -0.24248,
				"method": "rhf"
			},
			{
				"type": "occ",
				"energy": -0.22468,
				"method": "rhf"
			},
			{
				"type": "unocc",
				"energy": -0.03372,
				"method": "rhf"
			},
			{
				"type": "unocc",
				"energy": -0.03052,
				"method": "rhf"
			},
			{
				"type": "unocc",
				"energy": -0.01989,
				"method": "rhf"
			},
			{
				"type": "unocc",
				"energy": -0.01322,
				"method": "rhf"
			},
			{
				"type": "unocc",
				"energy": 0.05447,
				"method": "rhf"
			}
		],
		"cosmo_sigma_profile": { 
			"-0.025": 0.0,
			"-0.024": 0.0,
			"-0.023": 0.0,
			"-0.022": 0.0,
			"-0.021": 0.0,
			"-0.02": 0.0,
			"-0.019": 0.0,
			"-0.018": 0.0,
			"-0.017": 0.0,
			"-0.016": 0.249224120481,
			"-0.015": 1.07334509854,
			"-0.014": 2.00815511856,
			"-0.013": 4.50821774905,
			"-0.012": 3.42596671697,
			"-0.011": 4.760973936,
			"-0.01": 5.10874167479,
			"-0.009": 4.02046762028,
			"-0.008": 4.81803395586,
			"-0.007": 10.180075702,
			"-0.006": 14.3671722826,
			"-0.005": 16.04879975,
			"-0.004": 12.4902890764,
			"-0.003": 13.1813316273,
			"-0.002": 13.5648881133,
			"-0.001": 14.08585206,
			"0.0": 18.2120246679,
			"0.001": 23.4786673906,
			"0.002": 36.9551636629,
			"0.003": 51.6360541787,
			"0.004": 19.371706305,
			"0.005": 5.85303788856,
			"0.006": 4.31480287022,
			"0.007": 5.70518423162,
			"0.008": 4.78289914912,
			"0.009": 3.94369937282,
			"0.01": 7.3283866772,
			"0.011": 8.82329105677,
			"0.012": 1.67231329142,
			"0.013": 0.0,
			"0.014": 0.0,
			"0.015": 0.0,
			"0.016": 0.0,
			"0.017": 0.0,
			"0.018": 0.0,
			"0.019": 0.0,
			"0.02": 0.0,
			"0.021": 0.0,
			"0.022": 0.0,
			"0.023": 0.0,
			"0.024": 0.0,
			"0.025": 0.0
		}
	}
}
