{
	 "smiles": "CCN1C(SCC(O)=O)=NN=C1C1=CC=CO1", 
	 "Tm": 447.15, 
	 "num_atms": 28, 
	 "gaussian": { 
		 "optdone": 1, 
		 "sigma_profile": "yes", 
		 "theory": "DFT", 
		 "functional": "B3LYP", 
		 "basiset": "6-31G**", 
		 "properties": { 
			 "R2extent": 6376.5059, 
			 "electric_dipole_moment_norm": 6.19652621555, 
			 "electric_quadrupole_moment_norm": 16.75375782, 
			 "total_energy": -1175.76651903, 
			 "HOMO_LUMO_gap": 0.18233, 
			 "cosmo_polarized_energy": -23.98, 
			 "cosmo_cavitation_energy": 34.43, 
			 "cosmo_dispersion_energy": -24.78, 
			 "cosmo_repulsion_energy": 1.89, 
			 "cosmo_total_nonelectrostatic_energy": 11.54, 
			 "SMD_solvation_energy": 6.05 
		},
		"coords": [
			{
				"x": 1.0697154333,
				"y": 2.2181724422,
				"z": -0.2468699668,
				"element": "C" 
			},
			{
				"x": 0.0069279688,
				"y": 1.7530939032,
				"z": -1.2455053052,
				"element": "C" 
			},
			{
				"x": -0.5055233144,
				"y": 0.4123990528,
				"z": -0.9585762495,
				"element": "N" 
			},
			{
				"x": 0.0347632714,
				"y": -0.7801496488,
				"z": -1.3679718535,
				"element": "C" 
			},
			{
				"x": 1.5422410537,
				"y": -0.8861605681,
				"z": -2.2774469908,
				"element": "S" 
			},
			{
				"x": 1.4907935629,
				"y": -2.6723619804,
				"z": -2.6541185583,
				"element": "C" 
			},
			{
				"x": 0.4459730259,
				"y": -3.1791588325,
				"z": -3.6390202387,
				"element": "C" 
			},
			{
				"x": -0.1936655331,
				"y": -2.2139972923,
				"z": -4.3241085946,
				"element": "O" 
			},
			{
				"x": 0.2508321167,
				"y": -4.3608106596,
				"z": -3.8043980981,
				"element": "O" 
			},
			{
				"x": -0.716977796,
				"y": -1.7941523628,
				"z": -1.0018473951,
				"element": "N" 
			},
			{
				"x": -1.7948395122,
				"y": -1.2781440273,
				"z": -0.3206547924,
				"element": "N" 
			},
			{
				"x": -1.6630460145,
				"y": 0.0337693396,
				"z": -0.29546913,
				"element": "C" 
			},
			{
				"x": -2.604774523,
				"y": 0.9466996098,
				"z": 0.324370737,
				"element": "C" 
			},
			{
				"x": -2.5190373334,
				"y": 2.2091970498,
				"z": 0.8591632198,
				"element": "C" 
			},
			{
				"x": -3.8232261517,
				"y": 2.5328859308,
				"z": 1.3474408695,
				"element": "C" 
			},
			{
				"x": -4.6036498091,
				"y": 1.4489603754,
				"z": 1.0806238187,
				"element": "C" 
			},
			{
				"x": -3.8824756031,
				"y": 0.4802987646,
				"z": 0.4582976016,
				"element": "O" 
			},
			{
				"x": 1.4077164254,
				"y": 3.2262770137,
				"z": -0.506227677,
				"element": "H" 
			},
			{
				"x": 1.9382580521,
				"y": 1.553799222,
				"z": -0.260249124,
				"element": "H" 
			},
			{
				"x": 0.6755105507,
				"y": 2.2379291158,
				"z": 0.7733321574,
				"element": "H" 
			},
			{
				"x": -0.8505779741,
				"y": 2.4297051516,
				"z": -1.254299461,
				"element": "H" 
			},
			{
				"x": 0.4162783966,
				"y": 1.7351638134,
				"z": -2.2605607632,
				"element": "H" 
			},
			{
				"x": 1.3559923034,
				"y": -3.2325769225,
				"z": -1.7282913114,
				"element": "H" 
			},
			{
				"x": 2.480347511,
				"y": -2.9078243903,
				"z": -3.0570744569,
				"element": "H" 
			},
			{
				"x": -0.832458554,
				"y": -2.6722667454,
				"z": -4.8958896286,
				"element": "H" 
			},
			{
				"x": -1.6342535636,
				"y": 2.8230102636,
				"z": 0.9336990313,
				"element": "H" 
			},
			{
				"x": -4.1295483288,
				"y": 3.4459409697,
				"z": 1.8366765177,
				"element": "H" 
			},
			{
				"x": -5.6420956609,
				"y": 1.2170014123,
				"z": 1.2585756419,
				"element": "H" 
			}
		],
		 "valence_orbital": [ 
			{
				"type": "occ",
				"energy": -0.28886,
				"method": "rhf"
			},
			{
				"type": "occ",
				"energy": -0.28091,
				"method": "rhf"
			},
			{
				"type": "occ",
				"energy": -0.25355,
				"method": "rhf"
			},
			{
				"type": "occ",
				"energy": -0.25113,
				"method": "rhf"
			},
			{
				"type": "occ",
				"energy": -0.20974,
				"method": "rhf"
			},
			{
				"type": "unocc",
				"energy": -0.02741,
				"method": "rhf"
			},
			{
				"type": "unocc",
				"energy": 0.00395,
				"method": "rhf"
			},
			{
				"type": "unocc",
				"energy": 0.01077,
				"method": "rhf"
			},
			{
				"type": "unocc",
				"energy": 0.0304,
				"method": "rhf"
			},
			{
				"type": "unocc",
				"energy": 0.04539,
				"method": "rhf"
			}
		],
		"cosmo_sigma_profile": { 
			"-0.025": 0.0,
			"-0.024": 0.0,
			"-0.023": 0.0,
			"-0.022": 0.0,
			"-0.021": 0.0,
			"-0.02": 0.0,
			"-0.019": 0.465302869298,
			"-0.018": 1.08924018077,
			"-0.017": 0.949836745345,
			"-0.016": 1.07603633998,
			"-0.015": 0.167398474607,
			"-0.014": 0.112767788466,
			"-0.013": 0.781877745436,
			"-0.012": 1.47356632194,
			"-0.011": 1.31551832652,
			"-0.01": 3.67124141954,
			"-0.009": 4.75840061275,
			"-0.008": 6.28434898925,
			"-0.007": 12.327073178,
			"-0.006": 14.5776628216,
			"-0.005": 20.060548762,
			"-0.004": 21.4225230894,
			"-0.003": 17.9586673299,
			"-0.002": 20.4821975414,
			"-0.001": 15.7676036286,
			"0.0": 13.5224820894,
			"0.001": 16.291612776,
			"0.002": 14.3357071356,
			"0.003": 12.8325475566,
			"0.004": 12.1825667245,
			"0.005": 9.21076430839,
			"0.006": 7.59855233478,
			"0.007": 6.06588565708,
			"0.008": 5.14182108823,
			"0.009": 6.63521318166,
			"0.01": 5.48698099979,
			"0.011": 7.80384032673,
			"0.012": 5.82264424288,
			"0.013": 3.53708004667,
			"0.014": 2.78563777836,
			"0.015": 1.31543698402,
			"0.016": 1.22896956192,
			"0.017": 0.26132102958,
			"0.018": 0.0,
			"0.019": 0.0,
			"0.02": 0.0,
			"0.021": 0.0,
			"0.022": 0.0,
			"0.023": 0.0,
			"0.024": 0.0,
			"0.025": 0.0
		}
	}
}
