{
	 "smiles": "OC(=O)C1=C(OC2=CC(Br)=CC=C2)N=CC=C1", 
	 "Tm": 441.15, 
	 "num_atms": 25, 
	 "gaussian": { 
		 "optdone": 1, 
		 "sigma_profile": "yes", 
		 "theory": "DFT", 
		 "functional": "B3LYP", 
		 "basiset": "6-31G**", 
		 "properties": { 
			 "R2extent": 7060.6796, 
			 "electric_dipole_moment_norm": 3.10906585649, 
			 "electric_quadrupole_moment_norm": 11.4072595592, 
			 "total_energy": -3313.92758505, 
			 "HOMO_LUMO_gap": 0.17565, 
			 "cosmo_polarized_energy": -14.05, 
			 "cosmo_cavitation_energy": 33.37, 
			 "cosmo_dispersion_energy": -24.29, 
			 "cosmo_repulsion_energy": 1.91, 
			 "cosmo_total_nonelectrostatic_energy": 10.99, 
			 "SMD_solvation_energy": 5.25 
		},
		"coords": [
			{
				"x": -3.9525694434,
				"y": -1.5500308473,
				"z": -0.6046567284,
				"element": "O" 
			},
			{
				"x": -2.6111624419,
				"y": -1.3702184426,
				"z": -0.7720972366,
				"element": "C" 
			},
			{
				"x": -1.9333267014,
				"y": -2.1770872475,
				"z": -1.3704489003,
				"element": "O" 
			},
			{
				"x": -2.146688732,
				"y": -0.1052457344,
				"z": -0.1436582482,
				"element": "C" 
			},
			{
				"x": -0.7858473143,
				"y": 0.2983655657,
				"z": -0.1448544605,
				"element": "C" 
			},
			{
				"x": 0.1136387014,
				"y": -0.5050539111,
				"z": -0.7600698385,
				"element": "O" 
			},
			{
				"x": 1.4765201399,
				"y": -0.2345508717,
				"z": -0.7021784269,
				"element": "C" 
			},
			{
				"x": 2.1654170965,
				"y": -0.2650818764,
				"z": 0.5107189083,
				"element": "C" 
			},
			{
				"x": 3.5459432237,
				"y": -0.0940086182,
				"z": 0.4856581074,
				"element": "C" 
			},
			{
				"x": 4.5122786833,
				"y": -0.1270001043,
				"z": 2.1363763994,
				"element": "Br" 
			},
			{
				"x": 4.2425544679,
				"y": 0.0945838217,
				"z": -0.7081585402,
				"element": "C" 
			},
			{
				"x": 3.5270907987,
				"y": 0.1096488238,
				"z": -1.9056305799,
				"element": "C" 
			},
			{
				"x": 2.141310509,
				"y": -0.0535789664,
				"z": -1.9117036409,
				"element": "C" 
			},
			{
				"x": -0.3567751883,
				"y": 1.4256332291,
				"z": 0.4088158181,
				"element": "N" 
			},
			{
				"x": -1.2495330947,
				"y": 2.2252788715,
				"z": 1.0023754724,
				"element": "C" 
			},
			{
				"x": -2.6103061043,
				"y": 1.9396649182,
				"z": 1.0711000764,
				"element": "C" 
			},
			{
				"x": -3.0526328197,
				"y": 0.755896073,
				"z": 0.4864956699,
				"element": "C" 
			},
			{
				"x": -4.153876038,
				"y": -2.390565961,
				"z": -1.0470858604,
				"element": "H" 
			},
			{
				"x": 1.6363822087,
				"y": -0.4141155956,
				"z": 1.4427707724,
				"element": "H" 
			},
			{
				"x": 5.3184073546,
				"y": 0.2228033096,
				"z": -0.6987486875,
				"element": "H" 
			},
			{
				"x": 4.0564657969,
				"y": 0.249984971,
				"z": -2.8431047684,
				"element": "H" 
			},
			{
				"x": 1.571453019,
				"y": -0.0515324126,
				"z": -2.8340749746,
				"element": "H" 
			},
			{
				"x": -0.848676216,
				"y": 3.1377776729,
				"z": 1.43972926,
				"element": "H" 
			},
			{
				"x": -3.2975378723,
				"y": 2.6185540718,
				"z": 1.5633292131,
				"element": "H" 
			},
			{
				"x": -4.1007300334,
				"y": 0.4823792606,
				"z": 0.5094011942,
				"element": "H" 
			}
		],
		 "valence_orbital": [ 
			{
				"type": "occ",
				"energy": -0.28556,
				"method": "rhf"
			},
			{
				"type": "occ",
				"energy": -0.27683,
				"method": "rhf"
			},
			{
				"type": "occ",
				"energy": -0.26235,
				"method": "rhf"
			},
			{
				"type": "occ",
				"energy": -0.24594,
				"method": "rhf"
			},
			{
				"type": "occ",
				"energy": -0.23834,
				"method": "rhf"
			},
			{
				"type": "unocc",
				"energy": -0.06269,
				"method": "rhf"
			},
			{
				"type": "unocc",
				"energy": -0.02605,
				"method": "rhf"
			},
			{
				"type": "unocc",
				"energy": -0.01356,
				"method": "rhf"
			},
			{
				"type": "unocc",
				"energy": -0.00475,
				"method": "rhf"
			},
			{
				"type": "unocc",
				"energy": 0.00736,
				"method": "rhf"
			}
		],
		"cosmo_sigma_profile": { 
			"-0.025": 0.0,
			"-0.024": 0.0,
			"-0.023": 0.0,
			"-0.022": 0.0,
			"-0.021": 0.0,
			"-0.02": 0.0,
			"-0.019": 0.00899346620871,
			"-0.018": 0.762060010966,
			"-0.017": 0.766364836454,
			"-0.016": 0.856071730411,
			"-0.015": 1.12320577241,
			"-0.014": 0.298392586366,
			"-0.013": 0.546474512051,
			"-0.012": 0.531825548361,
			"-0.011": 1.35532622437,
			"-0.01": 0.823656623502,
			"-0.009": 0.245869482532,
			"-0.008": 3.4041364708,
			"-0.007": 13.7720905862,
			"-0.006": 15.4067328483,
			"-0.005": 13.5304165668,
			"-0.004": 13.1906164987,
			"-0.003": 15.4106393768,
			"-0.002": 19.4680803345,
			"-0.001": 21.339407068,
			"0.0": 20.6792369846,
			"0.001": 24.7965296659,
			"0.002": 25.6797263739,
			"0.003": 20.8248888791,
			"0.004": 17.9898431891,
			"0.005": 9.33829872685,
			"0.006": 4.85394010297,
			"0.007": 3.83838141522,
			"0.008": 2.15628826365,
			"0.009": 3.30730131926,
			"0.01": 3.26880640686,
			"0.011": 4.3348979625,
			"0.012": 5.01106249827,
			"0.013": 2.46857717187,
			"0.014": 0.854715593127,
			"0.015": 0.0,
			"0.016": 0.0,
			"0.017": 0.0,
			"0.018": 0.0,
			"0.019": 0.0,
			"0.02": 0.0,
			"0.021": 0.0,
			"0.022": 0.0,
			"0.023": 0.0,
			"0.024": 0.0,
			"0.025": 0.0
		}
	}
}
