{
	 "smiles": "O=C1C2CCCC1CCC2", 
	 "Tm": 428.15, 
	 "num_atms": 24, 
	 "gaussian": { 
		 "optdone": 1, 
		 "sigma_profile": "yes", 
		 "theory": "DFT", 
		 "functional": "B3LYP", 
		 "basiset": "6-31G**", 
		 "properties": { 
			 "R2extent": 1313.0837, 
			 "electric_dipole_moment_norm": 2.98586776834, 
			 "electric_quadrupole_moment_norm": 7.48026699724, 
			 "total_energy": -426.619316095, 
			 "HOMO_LUMO_gap": 0.21934, 
			 "cosmo_polarized_energy": -6.53, 
			 "cosmo_cavitation_energy": 23.27, 
			 "cosmo_dispersion_energy": -17.86, 
			 "cosmo_repulsion_energy": 1.45, 
			 "cosmo_total_nonelectrostatic_energy": 6.86, 
			 "SMD_solvation_energy": 3.46 
		},
		"coords": [
			{
				"x": 1.5513929666,
				"y": 1.9677670661,
				"z": -0.3693918171,
				"element": "O" 
			},
			{
				"x": 0.6748996125,
				"y": 1.1360476943,
				"z": -0.2313769326,
				"element": "C" 
			},
			{
				"x": 0.8395522379,
				"y": -0.172992331,
				"z": 0.5304484896,
				"element": "C" 
			},
			{
				"x": 0.3024548617,
				"y": -1.3476852303,
				"z": -0.3549888672,
				"element": "C" 
			},
			{
				"x": 0.1403960426,
				"y": -0.9292717965,
				"z": -1.8260223206,
				"element": "C" 
			},
			{
				"x": -0.8274901988,
				"y": 0.2669056228,
				"z": -1.9947528133,
				"element": "C" 
			},
			{
				"x": -0.7336527819,
				"y": 1.2645813324,
				"z": -0.7975877205,
				"element": "C" 
			},
			{
				"x": -1.7679913766,
				"y": 0.9475609035,
				"z": 0.3346010182,
				"element": "C" 
			},
			{
				"x": -1.1219483567,
				"y": 0.9887883017,
				"z": 1.7295844106,
				"element": "C" 
			},
			{
				"x": 0.047833714,
				"y": -0.0157718207,
				"z": 1.8667837794,
				"element": "C" 
			},
			{
				"x": 1.9037791134,
				"y": -0.3136689944,
				"z": 0.7371320667,
				"element": "H" 
			},
			{
				"x": 0.9885891253,
				"y": -2.1981630527,
				"z": -0.2797867597,
				"element": "H" 
			},
			{
				"x": -0.6596522023,
				"y": -1.700965014,
				"z": 0.0335257031,
				"element": "H" 
			},
			{
				"x": -0.1991608736,
				"y": -1.7775445167,
				"z": -2.4305079289,
				"element": "H" 
			},
			{
				"x": 1.1271192145,
				"y": -0.6488704267,
				"z": -2.2175724115,
				"element": "H" 
			},
			{
				"x": -0.5968129265,
				"y": 0.7877668748,
				"z": -2.9295416585,
				"element": "H" 
			},
			{
				"x": -1.8620440763,
				"y": -0.0863471604,
				"z": -2.0793798734,
				"element": "H" 
			},
			{
				"x": -0.8649484706,
				"y": 2.2907612531,
				"z": -1.1508552671,
				"element": "H" 
			},
			{
				"x": -2.2165690885,
				"y": -0.0384447539,
				"z": 0.16757052,
				"element": "H" 
			},
			{
				"x": -2.5923442711,
				"y": 1.6668104341,
				"z": 0.2809928908,
				"element": "H" 
			},
			{
				"x": -1.872714797,
				"y": 0.8018447937,
				"z": 2.5052589968,
				"element": "H" 
			},
			{
				"x": -0.7438667142,
				"y": 2.0042634748,
				"z": 1.906823999,
				"element": "H" 
			},
			{
				"x": -0.3262035662,
				"y": -0.9998888523,
				"z": 2.1731635516,
				"element": "H" 
			},
			{
				"x": 0.7227828116,
				"y": 0.3234161982,
				"z": 2.6590789446,
				"element": "H" 
			}
		],
		 "valence_orbital": [ 
			{
				"type": "occ",
				"energy": -0.32958,
				"method": "rhf"
			},
			{
				"type": "occ",
				"energy": -0.31761,
				"method": "rhf"
			},
			{
				"type": "occ",
				"energy": -0.30884,
				"method": "rhf"
			},
			{
				"type": "occ",
				"energy": -0.29601,
				"method": "rhf"
			},
			{
				"type": "occ",
				"energy": -0.22493,
				"method": "rhf"
			},
			{
				"type": "unocc",
				"energy": -0.00559,
				"method": "rhf"
			},
			{
				"type": "unocc",
				"energy": 0.07455,
				"method": "rhf"
			},
			{
				"type": "unocc",
				"energy": 0.09107,
				"method": "rhf"
			},
			{
				"type": "unocc",
				"energy": 0.11067,
				"method": "rhf"
			},
			{
				"type": "unocc",
				"energy": 0.12729,
				"method": "rhf"
			}
		],
		"cosmo_sigma_profile": { 
			"-0.025": 0.0,
			"-0.024": 0.0,
			"-0.023": 0.0,
			"-0.022": 0.0,
			"-0.021": 0.0,
			"-0.02": 0.0,
			"-0.019": 0.0,
			"-0.018": 0.0,
			"-0.017": 0.0,
			"-0.016": 0.0,
			"-0.015": 0.0,
			"-0.014": 0.0,
			"-0.013": 0.0,
			"-0.012": 0.0,
			"-0.011": 0.0,
			"-0.01": 0.0,
			"-0.009": 0.0,
			"-0.008": 0.0,
			"-0.007": 0.0,
			"-0.006": 0.0,
			"-0.005": 0.02728352145,
			"-0.004": 5.95178360545,
			"-0.003": 33.863901854,
			"-0.002": 39.6922507138,
			"-0.001": 36.501540797,
			"0.0": 27.9335799252,
			"0.001": 9.24756243185,
			"0.002": 1.79808538082,
			"0.003": 1.58373989857,
			"0.004": 1.51720605762,
			"0.005": 1.4089821586,
			"0.006": 1.21979810121,
			"0.007": 2.01594094993,
			"0.008": 1.34263551943,
			"0.009": 0.925789053176,
			"0.01": 1.63590846156,
			"0.011": 2.82376843024,
			"0.012": 4.42382865737,
			"0.013": 3.78857784733,
			"0.014": 1.46654840433,
			"0.015": 0.0,
			"0.016": 0.0,
			"0.017": 0.0,
			"0.018": 0.0,
			"0.019": 0.0,
			"0.02": 0.0,
			"0.021": 0.0,
			"0.022": 0.0,
			"0.023": 0.0,
			"0.024": 0.0,
			"0.025": 0.0
		}
	}
}
