{
	 "smiles": "NC1=C(N=C2C=CC=CN12)C1=CC=NC=C1", 
	 "Tm": 485.15, 
	 "num_atms": 26, 
	 "gaussian": { 
		 "optdone": 1, 
		 "sigma_profile": "yes", 
		 "theory": "DFT", 
		 "functional": "B3LYP", 
		 "basiset": "6-31G**", 
		 "properties": { 
			 "R2extent": 4096.2937, 
			 "electric_dipole_moment_norm": 5.34455174266, 
			 "electric_quadrupole_moment_norm": 11.346252543, 
			 "total_energy": -682.302098402, 
			 "HOMO_LUMO_gap": 0.14637, 
			 "cosmo_polarized_energy": -17.04, 
			 "cosmo_cavitation_energy": 30.09, 
			 "cosmo_dispersion_energy": -22.5, 
			 "cosmo_repulsion_energy": 1.7, 
			 "cosmo_total_nonelectrostatic_energy": 9.3, 
			 "SMD_solvation_energy": 2.19 
		},
		"coords": [
			{
				"x": 0.1141698875,
				"y": 2.5272099781,
				"z": 0.5719199301,
				"element": "N" 
			},
			{
				"x": -0.1863205773,
				"y": 1.1613111822,
				"z": 0.5093358443,
				"element": "C" 
			},
			{
				"x": 0.4890884275,
				"y": 0.030359218,
				"z": 0.0448802767,
				"element": "C" 
			},
			{
				"x": -0.2587131593,
				"y": -1.1059752983,
				"z": 0.2505951795,
				"element": "N" 
			},
			{
				"x": -1.3833625512,
				"y": -0.7044611962,
				"z": 0.8174850495,
				"element": "C" 
			},
			{
				"x": -2.517165814,
				"y": -1.4264314438,
				"z": 1.2607656588,
				"element": "C" 
			},
			{
				"x": -3.5765569593,
				"y": -0.7550530207,
				"z": 1.820348516,
				"element": "C" 
			},
			{
				"x": -3.548188632,
				"y": 0.6667606293,
				"z": 1.9473127723,
				"element": "C" 
			},
			{
				"x": -2.4618239948,
				"y": 1.3785679638,
				"z": 1.5280829215,
				"element": "C" 
			},
			{
				"x": -1.3918236354,
				"y": 0.7004904448,
				"z": 0.984930839,
				"element": "N" 
			},
			{
				"x": 1.8224682548,
				"y": -0.0387695304,
				"z": -0.5572713894,
				"element": "C" 
			},
			{
				"x": 2.3968378155,
				"y": 1.0232665474,
				"z": -1.2761003253,
				"element": "C" 
			},
			{
				"x": 3.6857702802,
				"y": 0.8813490618,
				"z": -1.7899739641,
				"element": "C" 
			},
			{
				"x": 4.4286938913,
				"y": -0.2231334386,
				"z": -1.6570611871,
				"element": "N" 
			},
			{
				"x": 3.8640705613,
				"y": -1.2459292415,
				"z": -0.9958027846,
				"element": "C" 
			},
			{
				"x": 2.5903823967,
				"y": -1.2092007948,
				"z": -0.4377826389,
				"element": "C" 
			},
			{
				"x": 1.0466487441,
				"y": 2.7142185408,
				"z": 0.2242800566,
				"element": "H" 
			},
			{
				"x": 0.04767422,
				"y": 2.8918845626,
				"z": 1.520517312,
				"element": "H" 
			},
			{
				"x": -2.5099118236,
				"y": -2.5035723947,
				"z": 1.1400085232,
				"element": "H" 
			},
			{
				"x": -4.4479527568,
				"y": -1.3020970106,
				"z": 2.1643687619,
				"element": "H" 
			},
			{
				"x": -4.3940188828,
				"y": 1.1984238722,
				"z": 2.367975483,
				"element": "H" 
			},
			{
				"x": -2.3829025138,
				"y": 2.4578840824,
				"z": 1.5624470081,
				"element": "H" 
			},
			{
				"x": 1.8354188093,
				"y": 1.9274617198,
				"z": -1.4930006041,
				"element": "H" 
			},
			{
				"x": 4.1385031304,
				"y": 1.6998006391,
				"z": -2.348239117,
				"element": "H" 
			},
			{
				"x": 4.4700854432,
				"y": -2.1460401441,
				"z": -0.9049589188,
				"element": "H" 
			},
			{
				"x": 2.1821294383,
				"y": -2.0656249285,
				"z": 0.0868367967,
				"element": "H" 
			}
		],
		 "valence_orbital": [ 
			{
				"type": "occ",
				"energy": -0.27321,
				"method": "rhf"
			},
			{
				"type": "occ",
				"energy": -0.25583,
				"method": "rhf"
			},
			{
				"type": "occ",
				"energy": -0.24698,
				"method": "rhf"
			},
			{
				"type": "occ",
				"energy": -0.23297,
				"method": "rhf"
			},
			{
				"type": "occ",
				"energy": -0.19448,
				"method": "rhf"
			},
			{
				"type": "unocc",
				"energy": -0.04811,
				"method": "rhf"
			},
			{
				"type": "unocc",
				"energy": -0.0147,
				"method": "rhf"
			},
			{
				"type": "unocc",
				"energy": -0.00588,
				"method": "rhf"
			},
			{
				"type": "unocc",
				"energy": 0.00701,
				"method": "rhf"
			},
			{
				"type": "unocc",
				"energy": 0.06134,
				"method": "rhf"
			}
		],
		"cosmo_sigma_profile": { 
			"-0.025": 0.0,
			"-0.024": 0.0,
			"-0.023": 0.0,
			"-0.022": 0.0,
			"-0.021": 0.0,
			"-0.02": 0.0,
			"-0.019": 0.0,
			"-0.018": 0.0,
			"-0.017": 0.0,
			"-0.016": 0.0,
			"-0.015": 0.0,
			"-0.014": 0.178423228244,
			"-0.013": 1.43855215016,
			"-0.012": 3.25800433804,
			"-0.011": 3.84654819565,
			"-0.01": 3.06406804851,
			"-0.009": 4.5061575299,
			"-0.008": 3.73963797778,
			"-0.007": 8.50105932018,
			"-0.006": 15.2350389315,
			"-0.005": 16.2534368085,
			"-0.004": 14.0316303373,
			"-0.003": 10.8521039715,
			"-0.002": 11.6886142461,
			"-0.001": 11.2582301482,
			"0.0": 16.0358312693,
			"0.001": 17.0064209437,
			"0.002": 23.4119515947,
			"0.003": 26.9677164641,
			"0.004": 13.9201223999,
			"0.005": 5.09112266732,
			"0.006": 4.18522458815,
			"0.007": 3.51916705614,
			"0.008": 4.10384682275,
			"0.009": 2.82425660787,
			"0.01": 3.39164653728,
			"0.011": 2.93539652444,
			"0.012": 2.36647836032,
			"0.013": 2.61573062456,
			"0.014": 1.79850100814,
			"0.015": 1.82970233898,
			"0.016": 1.85986442996,
			"0.017": 0.658921077579,
			"0.018": 0.0125442151316,
			"0.019": 0.0,
			"0.02": 0.0,
			"0.021": 0.0,
			"0.022": 0.0,
			"0.023": 0.0,
			"0.024": 0.0,
			"0.025": 0.0
		}
	}
}
