{
	 "smiles": "CCCCCCCCC1=CC=C(C=C1)C(Cl)=CC1=CC=C(OCC)C=C1", 
	 "Tm": 305.15, 
	 "num_atms": 57, 
	 "gaussian": { 
		 "optdone": 1, 
		 "sigma_profile": "yes", 
		 "theory": "DFT", 
		 "functional": "B3LYP", 
		 "basiset": "6-31G**", 
		 "properties": { 
			 "R2extent": 13526.1513, 
			 "electric_dipole_moment_norm": 3.32534656389, 
			 "electric_quadrupole_moment_norm": 23.7074078868, 
			 "total_energy": -1468.67317879, 
			 "HOMO_LUMO_gap": 0.16152, 
			 "cosmo_polarized_energy": -8.55, 
			 "cosmo_cavitation_energy": 60.09, 
			 "cosmo_dispersion_energy": -37.11, 
			 "cosmo_repulsion_energy": 2.84, 
			 "cosmo_total_nonelectrostatic_energy": 25.82, 
			 "SMD_solvation_energy": 8.76 
		},
		"coords": [
			{
				"x": -3.5023862035,
				"y": -3.5670048047,
				"z": 0.8803408155,
				"element": "C" 
			},
			{
				"x": -2.0422205511,
				"y": -3.9436081039,
				"z": 0.6007009227,
				"element": "C" 
			},
			{
				"x": -1.0094660261,
				"y": -3.0485375512,
				"z": 1.3061791296,
				"element": "C" 
			},
			{
				"x": -1.0321313804,
				"y": -3.1231783291,
				"z": 2.8409684471,
				"element": "C" 
			},
			{
				"x": 0.0940031519,
				"y": -2.3320635325,
				"z": 3.529397948,
				"element": "C" 
			},
			{
				"x": 0.0159805552,
				"y": -0.8120010535,
				"z": 3.328204882,
				"element": "C" 
			},
			{
				"x": 1.1284069197,
				"y": -0.0456079639,
				"z": 4.0541427589,
				"element": "C" 
			},
			{
				"x": 1.0879551136,
				"y": 1.4857839707,
				"z": 3.8374821051,
				"element": "C" 
			},
			{
				"x": 1.339794509,
				"y": 1.9017436079,
				"z": 2.4038878843,
				"element": "C" 
			},
			{
				"x": 2.6473095341,
				"y": 1.9939480811,
				"z": 1.902754281,
				"element": "C" 
			},
			{
				"x": 2.8903506449,
				"y": 2.3232634678,
				"z": 0.5718274913,
				"element": "C" 
			},
			{
				"x": 1.8240166379,
				"y": 2.5552792674,
				"z": -0.3115780104,
				"element": "C" 
			},
			{
				"x": 0.5149270805,
				"y": 2.4919334415,
				"z": 0.1898199404,
				"element": "C" 
			},
			{
				"x": 0.2816403145,
				"y": 2.1724821975,
				"z": 1.5255944141,
				"element": "C" 
			},
			{
				"x": 2.0485885536,
				"y": 2.8708630326,
				"z": -1.7392509578,
				"element": "C" 
			},
			{
				"x": 3.076560772,
				"y": 4.3007629942,
				"z": -2.0177289858,
				"element": "Cl" 
			},
			{
				"x": 1.5502555877,
				"y": 2.2479450877,
				"z": -2.8233826935,
				"element": "C" 
			},
			{
				"x": 0.7815011084,
				"y": 0.9948900621,
				"z": -2.8897221624,
				"element": "C" 
			},
			{
				"x": 0.8913461935,
				"y": -0.0485533477,
				"z": -1.9460641328,
				"element": "C" 
			},
			{
				"x": 0.1645707757,
				"y": -1.2201409504,
				"z": -2.0829422346,
				"element": "C" 
			},
			{
				"x": -0.7057530576,
				"y": -1.3981028995,
				"z": -3.1708924622,
				"element": "C" 
			},
			{
				"x": -1.3795628868,
				"y": -2.5832436485,
				"z": -3.2049288702,
				"element": "O" 
			},
			{
				"x": -2.2673612256,
				"y": -2.8375453345,
				"z": -4.2940119303,
				"element": "C" 
			},
			{
				"x": -2.8706606686,
				"y": -4.2151996922,
				"z": -4.0845551341,
				"element": "C" 
			},
			{
				"x": -0.8162297521,
				"y": -0.3858542735,
				"z": -4.1315871929,
				"element": "C" 
			},
			{
				"x": -0.0701636521,
				"y": 0.7847965057,
				"z": -3.9853797248,
				"element": "C" 
			},
			{
				"x": -4.1889059404,
				"y": -4.2001903515,
				"z": 0.3079981324,
				"element": "H" 
			},
			{
				"x": -3.7004885534,
				"y": -2.5256167197,
				"z": 0.6001942164,
				"element": "H" 
			},
			{
				"x": -3.7605148561,
				"y": -3.6797573407,
				"z": 1.9384039023,
				"element": "H" 
			},
			{
				"x": -1.8730875292,
				"y": -4.9899706056,
				"z": 0.8910681119,
				"element": "H" 
			},
			{
				"x": -1.8638739604,
				"y": -3.8909826641,
				"z": -0.4806924331,
				"element": "H" 
			},
			{
				"x": -0.00480329,
				"y": -3.3312855595,
				"z": 0.9597831156,
				"element": "H" 
			},
			{
				"x": -1.1625719447,
				"y": -2.0116638377,
				"z": 0.9794713201,
				"element": "H" 
			},
			{
				"x": -0.9582700828,
				"y": -4.1771948979,
				"z": 3.1430602003,
				"element": "H" 
			},
			{
				"x": -1.9997340743,
				"y": -2.7666389794,
				"z": 3.218681841,
				"element": "H" 
			},
			{
				"x": 1.0655887872,
				"y": -2.6948590692,
				"z": 3.1636663482,
				"element": "H" 
			},
			{
				"x": 0.0751698922,
				"y": -2.5513163947,
				"z": 4.6058205365,
				"element": "H" 
			},
			{
				"x": 0.0596331856,
				"y": -0.5773114048,
				"z": 2.2588144434,
				"element": "H" 
			},
			{
				"x": -0.9618381079,
				"y": -0.4508965166,
				"z": 3.6804363026,
				"element": "H" 
			},
			{
				"x": 1.0662286494,
				"y": -0.2450875165,
				"z": 5.1323573677,
				"element": "H" 
			},
			{
				"x": 2.1060872213,
				"y": -0.4248886998,
				"z": 3.7269965709,
				"element": "H" 
			},
			{
				"x": 1.8394155199,
				"y": 1.9504087194,
				"z": 4.4873363348,
				"element": "H" 
			},
			{
				"x": 0.1127769115,
				"y": 1.8676045698,
				"z": 4.1644634495,
				"element": "H" 
			},
			{
				"x": 3.4877186579,
				"y": 1.8061871429,
				"z": 2.5669742399,
				"element": "H" 
			},
			{
				"x": 3.9108801336,
				"y": 2.3970668234,
				"z": 0.208458656,
				"element": "H" 
			},
			{
				"x": -0.3185322438,
				"y": 2.6930491387,
				"z": -0.4755240138,
				"element": "H" 
			},
			{
				"x": -0.7405328505,
				"y": 2.133876126,
				"z": 1.8934228692,
				"element": "H" 
			},
			{
				"x": 1.7444574603,
				"y": 2.7166618107,
				"z": -3.7854252996,
				"element": "H" 
			},
			{
				"x": 1.5678400258,
				"y": 0.0554844393,
				"z": -1.1059400607,
				"element": "H" 
			},
			{
				"x": 0.2607221117,
				"y": -2.0237505608,
				"z": -1.3605136297,
				"element": "H" 
			},
			{
				"x": -3.050667376,
				"y": -2.0670117084,
				"z": -4.3247347078,
				"element": "H" 
			},
			{
				"x": -1.714582448,
				"y": -2.7925863901,
				"z": -5.2429801342,
				"element": "H" 
			},
			{
				"x": -3.4272385709,
				"y": -4.2542327495,
				"z": -3.1440130022,
				"element": "H" 
			},
			{
				"x": -2.0878553052,
				"y": -4.9781386558,
				"z": -4.0541557546,
				"element": "H" 
			},
			{
				"x": -3.5562430207,
				"y": -4.4532880522,
				"z": -4.9036341806,
				"element": "H" 
			},
			{
				"x": -1.4670270975,
				"y": -0.4965855501,
				"z": -4.9905858616,
				"element": "H" 
			},
			{
				"x": -0.1603233528,
				"y": 1.5599652231,
				"z": -4.7422854089,
				"element": "H" 
			}
		],
		 "valence_orbital": [ 
			{
				"type": "occ",
				"energy": -0.26451,
				"method": "rhf"
			},
			{
				"type": "occ",
				"energy": -0.2559,
				"method": "rhf"
			},
			{
				"type": "occ",
				"energy": -0.24874,
				"method": "rhf"
			},
			{
				"type": "occ",
				"energy": -0.24038,
				"method": "rhf"
			},
			{
				"type": "occ",
				"energy": -0.20017,
				"method": "rhf"
			},
			{
				"type": "unocc",
				"energy": -0.03865,
				"method": "rhf"
			},
			{
				"type": "unocc",
				"energy": -0.00927,
				"method": "rhf"
			},
			{
				"type": "unocc",
				"energy": -0.00124,
				"method": "rhf"
			},
			{
				"type": "unocc",
				"energy": 0.00344,
				"method": "rhf"
			},
			{
				"type": "unocc",
				"energy": 0.04258,
				"method": "rhf"
			}
		],
		"cosmo_sigma_profile": { 
			"-0.025": 0.0,
			"-0.024": 0.0,
			"-0.023": 0.0,
			"-0.022": 0.0,
			"-0.021": 0.0,
			"-0.02": 0.0,
			"-0.019": 0.0,
			"-0.018": 0.0,
			"-0.017": 0.0,
			"-0.016": 0.0,
			"-0.015": 0.0,
			"-0.014": 0.0,
			"-0.013": 0.0,
			"-0.012": 0.0,
			"-0.011": 0.0,
			"-0.01": 0.0,
			"-0.009": 0.0,
			"-0.008": 0.0,
			"-0.007": 1.09898365152,
			"-0.006": 9.17215119754,
			"-0.005": 19.4735486255,
			"-0.004": 27.0998483562,
			"-0.003": 36.5671196686,
			"-0.002": 49.8271001977,
			"-0.001": 66.0735923445,
			"0.0": 69.7014858561,
			"0.001": 59.3523548657,
			"0.002": 37.5028034256,
			"0.003": 29.4487822172,
			"0.004": 30.253570017,
			"0.005": 28.6012015977,
			"0.006": 6.38025861056,
			"0.007": 0.922421976236,
			"0.008": 0.54175384659,
			"0.009": 0.535062683214,
			"0.01": 0.0939362116277,
			"0.011": 0.0,
			"0.012": 0.0,
			"0.013": 0.0,
			"0.014": 0.0,
			"0.015": 0.0,
			"0.016": 0.0,
			"0.017": 0.0,
			"0.018": 0.0,
			"0.019": 0.0,
			"0.02": 0.0,
			"0.021": 0.0,
			"0.022": 0.0,
			"0.023": 0.0,
			"0.024": 0.0,
			"0.025": 0.0
		}
	}
}
