{
	 "smiles": "CS(=O)(=O)NCC1=NC=CC=C1", 
	 "Tm": 362.15, 
	 "num_atms": 22, 
	 "gaussian": { 
		 "optdone": 1, 
		 "sigma_profile": "yes", 
		 "theory": "DFT", 
		 "functional": "B3LYP", 
		 "basiset": "6-31G**", 
		 "properties": { 
			 "R2extent": 3024.3127, 
			 "electric_dipole_moment_norm": 7.32638173589, 
			 "electric_quadrupole_moment_norm": 19.0008572615, 
			 "total_energy": -930.841052589, 
			 "HOMO_LUMO_gap": 0.22744, 
			 "cosmo_polarized_energy": -17.4, 
			 "cosmo_cavitation_energy": 26.96, 
			 "cosmo_dispersion_energy": -19.92, 
			 "cosmo_repulsion_energy": 1.55, 
			 "cosmo_total_nonelectrostatic_energy": 8.59, 
			 "SMD_solvation_energy": 2.7 
		},
		"coords": [
			{
				"x": -2.3535570729,
				"y": 1.9974894731,
				"z": -0.3042263598,
				"element": "C" 
			},
			{
				"x": -0.8633343366,
				"y": 2.9368556081,
				"z": -0.7166689191,
				"element": "S" 
			},
			{
				"x": -1.0146356596,
				"y": 4.2625634156,
				"z": -0.1195010798,
				"element": "O" 
			},
			{
				"x": -0.6185805259,
				"y": 2.7457728157,
				"z": -2.1483655922,
				"element": "O" 
			},
			{
				"x": 0.4227487039,
				"y": 2.2167863661,
				"z": 0.0895772476,
				"element": "N" 
			},
			{
				"x": 0.8881700838,
				"y": 0.8979869463,
				"z": -0.3300551613,
				"element": "C" 
			},
			{
				"x": 0.2809756503,
				"y": -0.2588809573,
				"z": 0.4530256865,
				"element": "C" 
			},
			{
				"x": -0.175249157,
				"y": 0.0303332127,
				"z": 1.6802250991,
				"element": "N" 
			},
			{
				"x": -0.6698960783,
				"y": -0.9680509923,
				"z": 2.4236688641,
				"element": "C" 
			},
			{
				"x": -0.7352570802,
				"y": -2.2907426117,
				"z": 1.9882849303,
				"element": "C" 
			},
			{
				"x": -0.2637831047,
				"y": -2.5867134707,
				"z": 0.7086651102,
				"element": "C" 
			},
			{
				"x": 0.2525225832,
				"y": -1.5558170954,
				"z": -0.0731578794,
				"element": "C" 
			},
			{
				"x": -3.1853081354,
				"y": 2.4881784301,
				"z": -0.8130170589,
				"element": "H" 
			},
			{
				"x": -2.5003677923,
				"y": 2.019055469,
				"z": 0.7760523459,
				"element": "H" 
			},
			{
				"x": -2.246321512,
				"y": 0.9721391818,
				"z": -0.6600724639,
				"element": "H" 
			},
			{
				"x": 0.3037765879,
				"y": 2.2839231095,
				"z": 1.0987773699,
				"element": "H" 
			},
			{
				"x": 0.7060791076,
				"y": 0.7941609915,
				"z": -1.4029408924,
				"element": "H" 
			},
			{
				"x": 1.9786773499,
				"y": 0.8739989799,
				"z": -0.1988571465,
				"element": "H" 
			},
			{
				"x": -1.0304054249,
				"y": -0.6939166619,
				"z": 3.4133589842,
				"element": "H" 
			},
			{
				"x": -1.147206075,
				"y": -3.0611982948,
				"z": 2.6317427916,
				"element": "H" 
			},
			{
				"x": -0.3025071889,
				"y": -3.6020103579,
				"z": 0.3246493073,
				"element": "H" 
			},
			{
				"x": 0.6256590773,
				"y": -1.7472135573,
				"z": -1.0751651835,
				"element": "H" 
			}
		],
		 "valence_orbital": [ 
			{
				"type": "occ",
				"energy": -0.29421,
				"method": "rhf"
			},
			{
				"type": "occ",
				"energy": -0.29295,
				"method": "rhf"
			},
			{
				"type": "occ",
				"energy": -0.28087,
				"method": "rhf"
			},
			{
				"type": "occ",
				"energy": -0.27643,
				"method": "rhf"
			},
			{
				"type": "occ",
				"energy": -0.27213,
				"method": "rhf"
			},
			{
				"type": "unocc",
				"energy": -0.04469,
				"method": "rhf"
			},
			{
				"type": "unocc",
				"energy": -0.0314,
				"method": "rhf"
			},
			{
				"type": "unocc",
				"energy": 0.07195,
				"method": "rhf"
			},
			{
				"type": "unocc",
				"energy": 0.07956,
				"method": "rhf"
			},
			{
				"type": "unocc",
				"energy": 0.08542,
				"method": "rhf"
			}
		],
		"cosmo_sigma_profile": { 
			"-0.025": 0.0,
			"-0.024": 0.0,
			"-0.023": 0.0,
			"-0.022": 0.0,
			"-0.021": 0.0,
			"-0.02": 0.0,
			"-0.019": 0.0,
			"-0.018": 0.0,
			"-0.017": 0.0,
			"-0.016": 0.0,
			"-0.015": 0.0,
			"-0.014": 0.0,
			"-0.013": 0.0,
			"-0.012": 0.258235598102,
			"-0.011": 0.551349369875,
			"-0.01": 1.14658659045,
			"-0.009": 1.94055471245,
			"-0.008": 5.2080377343,
			"-0.007": 15.0675232817,
			"-0.006": 20.2089458125,
			"-0.005": 19.5871809769,
			"-0.004": 18.3606974517,
			"-0.003": 13.6032504547,
			"-0.002": 8.71354102056,
			"-0.001": 9.75275361347,
			"0.0": 10.0129214104,
			"0.001": 11.8133517683,
			"0.002": 15.1908331889,
			"0.003": 9.17327389199,
			"0.004": 4.93726300226,
			"0.005": 3.78534285848,
			"0.006": 3.65013713896,
			"0.007": 4.70794121265,
			"0.008": 5.48934560327,
			"0.009": 5.11813450546,
			"0.01": 5.03285259783,
			"0.011": 11.8729059151,
			"0.012": 8.62061165403,
			"0.013": 0.616181735489,
			"0.014": 0.0,
			"0.015": 0.0,
			"0.016": 0.0,
			"0.017": 0.0,
			"0.018": 0.0,
			"0.019": 0.0,
			"0.02": 0.0,
			"0.021": 0.0,
			"0.022": 0.0,
			"0.023": 0.0,
			"0.024": 0.0,
			"0.025": 0.0
		}
	}
}
