{
	 "smiles": "OC(=O)C1=CC=C(F)C=C1", 
	 "Tm": 458.15, 
	 "num_atms": 15, 
	 "gaussian": { 
		 "optdone": 1, 
		 "sigma_profile": "yes", 
		 "theory": "DFT", 
		 "functional": "B3LYP", 
		 "basiset": "6-31G**", 
		 "properties": { 
			 "R2extent": 2527.8141, 
			 "electric_dipole_moment_norm": 3.69005247253, 
			 "electric_quadrupole_moment_norm": 11.0862908197, 
			 "total_energy": -520.04676607, 
			 "HOMO_LUMO_gap": 0.21169, 
			 "cosmo_polarized_energy": -13.32, 
			 "cosmo_cavitation_energy": 20.31, 
			 "cosmo_dispersion_energy": -15.0, 
			 "cosmo_repulsion_energy": 1.18, 
			 "cosmo_total_nonelectrostatic_energy": 6.5, 
			 "SMD_solvation_energy": 5.25 
		},
		"coords": [
			{
				"x": 0.8013449029,
				"y": -1.8100579527,
				"z": -0.8094121231,
				"element": "O" 
			},
			{
				"x": 0.6361817807,
				"y": -1.8250021161,
				"z": 0.5416774801,
				"element": "C" 
			},
			{
				"x": 1.4432233504,
				"y": -2.3910407572,
				"z": 1.2407204695,
				"element": "O" 
			},
			{
				"x": -0.5685408334,
				"y": -1.1192264686,
				"z": 1.0841608815,
				"element": "C" 
			},
			{
				"x": -0.9826895311,
				"y": -1.4503889289,
				"z": 2.3832223651,
				"element": "C" 
			},
			{
				"x": -2.0893713657,
				"y": -0.8329855427,
				"z": 2.9551647617,
				"element": "C" 
			},
			{
				"x": -2.7675606166,
				"y": 0.1349889875,
				"z": 2.2185706941,
				"element": "C" 
			},
			{
				"x": -3.8369710269,
				"y": 0.7392187251,
				"z": 2.7659315145,
				"element": "F" 
			},
			{
				"x": -2.3705848944,
				"y": 0.5048440308,
				"z": 0.9376686859,
				"element": "C" 
			},
			{
				"x": -1.2654398513,
				"y": -0.1297718036,
				"z": 0.374543597,
				"element": "C" 
			},
			{
				"x": 0.0000507076,
				"y": -1.4853660717,
				"z": -1.2422900963,
				"element": "H" 
			},
			{
				"x": -0.4189514684,
				"y": -2.1994114122,
				"z": 2.9283366477,
				"element": "H" 
			},
			{
				"x": -2.4310935906,
				"y": -1.0824100427,
				"z": 3.9536626305,
				"element": "H" 
			},
			{
				"x": -2.9159038308,
				"y": 1.2788994314,
				"z": 0.4094385008,
				"element": "H" 
			},
			{
				"x": -0.9329937325,
				"y": 0.1886099215,
				"z": -0.6102960092,
				"element": "H" 
			}
		],
		 "valence_orbital": [ 
			{
				"type": "occ",
				"energy": -0.36531,
				"method": "rhf"
			},
			{
				"type": "occ",
				"energy": -0.31972,
				"method": "rhf"
			},
			{
				"type": "occ",
				"energy": -0.28399,
				"method": "rhf"
			},
			{
				"type": "occ",
				"energy": -0.27943,
				"method": "rhf"
			},
			{
				"type": "occ",
				"energy": -0.26451,
				"method": "rhf"
			},
			{
				"type": "unocc",
				"energy": -0.05282,
				"method": "rhf"
			},
			{
				"type": "unocc",
				"energy": -0.03376,
				"method": "rhf"
			},
			{
				"type": "unocc",
				"energy": 0.04461,
				"method": "rhf"
			},
			{
				"type": "unocc",
				"energy": 0.05442,
				"method": "rhf"
			},
			{
				"type": "unocc",
				"energy": 0.08958,
				"method": "rhf"
			}
		],
		"cosmo_sigma_profile": { 
			"-0.025": 0.0,
			"-0.024": 0.0,
			"-0.023": 0.0,
			"-0.022": 0.0,
			"-0.021": 0.0,
			"-0.02": 0.0,
			"-0.019": 0.154106066825,
			"-0.018": 1.05435028975,
			"-0.017": 0.993487378387,
			"-0.016": 1.03951192087,
			"-0.015": 1.00297236766,
			"-0.014": 1.31045136711,
			"-0.013": 0.742809586561,
			"-0.012": 0.847329688442,
			"-0.011": 1.51619779236,
			"-0.01": 1.28022642533,
			"-0.009": 1.91415715884,
			"-0.008": 4.21355943763,
			"-0.007": 7.15793678385,
			"-0.006": 8.03799637616,
			"-0.005": 7.09529263313,
			"-0.004": 6.06287431182,
			"-0.003": 6.77420767739,
			"-0.002": 8.05735727688,
			"-0.001": 11.8081056694,
			"0.0": 13.3517061838,
			"0.001": 13.5135389451,
			"0.002": 16.5533558567,
			"0.003": 9.72030240235,
			"0.004": 10.0780312784,
			"0.005": 2.25485735656,
			"0.006": 2.52300797828,
			"0.007": 1.85805809112,
			"0.008": 2.82407342441,
			"0.009": 3.55644837414,
			"0.01": 4.65165671664,
			"0.011": 5.1892330449,
			"0.012": 4.68764055071,
			"0.013": 1.61594837453,
			"0.014": 0.0800145459387,
			"0.015": 0.0,
			"0.016": 0.0,
			"0.017": 0.0,
			"0.018": 0.0,
			"0.019": 0.0,
			"0.02": 0.0,
			"0.021": 0.0,
			"0.022": 0.0,
			"0.023": 0.0,
			"0.024": 0.0,
			"0.025": 0.0
		}
	}
}
