{
	 "smiles": "CCOC(=O)C#CC1=CC(=CC=C1)C#CC(=O)OCC", 
	 "Tm": 329.15, 
	 "num_atms": 34, 
	 "gaussian": { 
		 "optdone": 1, 
		 "sigma_profile": "yes", 
		 "theory": "DFT", 
		 "functional": "B3LYP", 
		 "basiset": "6-31G**", 
		 "properties": { 
			 "R2extent": 12821.6421, 
			 "electric_dipole_moment_norm": 1.78715690134, 
			 "electric_quadrupole_moment_norm": 20.0193915012, 
			 "total_energy": -918.931272548, 
			 "HOMO_LUMO_gap": 0.17386, 
			 "cosmo_polarized_energy": -13.79, 
			 "cosmo_cavitation_energy": 43.24, 
			 "cosmo_dispersion_energy": -30.31, 
			 "cosmo_repulsion_energy": 2.44, 
			 "cosmo_total_nonelectrostatic_energy": 15.37, 
			 "SMD_solvation_energy": 10.42 
		},
		"coords": [
			{
				"x": 4.1839089112,
				"y": -4.1045930839,
				"z": -2.709331734,
				"element": "C" 
			},
			{
				"x": 4.7860824586,
				"y": -2.7445142806,
				"z": -3.0046927069,
				"element": "C" 
			},
			{
				"x": 3.9781726699,
				"y": -1.7563585003,
				"z": -2.3196557387,
				"element": "O" 
			},
			{
				"x": 4.3743860015,
				"y": -0.4768150833,
				"z": -2.4745958549,
				"element": "C" 
			},
			{
				"x": 5.3338240374,
				"y": -0.1248710259,
				"z": -3.131622949,
				"element": "O" 
			},
			{
				"x": 3.507336128,
				"y": 0.4284257142,
				"z": -1.7552701563,
				"element": "C" 
			},
			{
				"x": 2.8221039192,
				"y": 1.2456553113,
				"z": -1.1762675289,
				"element": "C" 
			},
			{
				"x": 2.0147519559,
				"y": 2.2030466915,
				"z": -0.4945742065,
				"element": "C" 
			},
			{
				"x": 0.9088825456,
				"y": 1.784984025,
				"z": 0.2634570018,
				"element": "C" 
			},
			{
				"x": 0.1123979079,
				"y": 2.7261336821,
				"z": 0.9359583401,
				"element": "C" 
			},
			{
				"x": 0.4319453719,
				"y": 4.09588366,
				"z": 0.8438056377,
				"element": "C" 
			},
			{
				"x": 1.5287868477,
				"y": 4.5097700604,
				"z": 0.0916598719,
				"element": "C" 
			},
			{
				"x": 2.3193167614,
				"y": 3.5769229924,
				"z": -0.5754030074,
				"element": "C" 
			},
			{
				"x": -1.0096152481,
				"y": 2.298988817,
				"z": 1.7051188486,
				"element": "C" 
			},
			{
				"x": -1.9635587193,
				"y": 1.9321476878,
				"z": 2.3594251739,
				"element": "C" 
			},
			{
				"x": -3.1148397484,
				"y": 1.5804318264,
				"z": 3.1586398078,
				"element": "C" 
			},
			{
				"x": -3.8098018193,
				"y": 2.3899523505,
				"z": 3.7406497216,
				"element": "O" 
			},
			{
				"x": -3.3091988636,
				"y": 0.244971252,
				"z": 3.1637455173,
				"element": "O" 
			},
			{
				"x": -4.439745743,
				"y": -0.2324996073,
				"z": 3.9370046449,
				"element": "C" 
			},
			{
				"x": -4.0735820073,
				"y": -0.4059483158,
				"z": 5.40328002,
				"element": "C" 
			},
			{
				"x": 4.1873511046,
				"y": -4.3089194883,
				"z": -1.634949362,
				"element": "H" 
			},
			{
				"x": 4.7670522572,
				"y": -4.8834133666,
				"z": -3.210414099,
				"element": "H" 
			},
			{
				"x": 3.1523401651,
				"y": -4.161882739,
				"z": -3.0679951248,
				"element": "H" 
			},
			{
				"x": 4.787901183,
				"y": -2.5163939676,
				"z": -4.0752353855,
				"element": "H" 
			},
			{
				"x": 5.8180618155,
				"y": -2.6627806583,
				"z": -2.6491083748,
				"element": "H" 
			},
			{
				"x": 0.668706246,
				"y": 0.729972918,
				"z": 0.3299223016,
				"element": "H" 
			},
			{
				"x": -0.1863227234,
				"y": 4.8190573895,
				"z": 1.3649487721,
				"element": "H" 
			},
			{
				"x": 1.7691277835,
				"y": 5.5662058359,
				"z": 0.0249506769,
				"element": "H" 
			},
			{
				"x": 3.1744843575,
				"y": 3.8950129156,
				"z": -1.1622042311,
				"element": "H" 
			},
			{
				"x": -5.2699753852,
				"y": 0.4672884856,
				"z": 3.8162011232,
				"element": "H" 
			},
			{
				"x": -4.6963558213,
				"y": -1.1863579668,
				"z": 3.4707099602,
				"element": "H" 
			},
			{
				"x": -4.9186476981,
				"y": -0.8424377561,
				"z": 5.9460139235,
				"element": "H" 
			},
			{
				"x": -3.8364038893,
				"y": 0.5590239337,
				"z": 5.8575515835,
				"element": "H" 
			},
			{
				"x": -3.2130727626,
				"y": -1.0721897091,
				"z": 5.5134775335,
				"element": "H" 
			}
		],
		 "valence_orbital": [ 
			{
				"type": "occ",
				"energy": -0.30174,
				"method": "rhf"
			},
			{
				"type": "occ",
				"energy": -0.2744,
				"method": "rhf"
			},
			{
				"type": "occ",
				"energy": -0.27215,
				"method": "rhf"
			},
			{
				"type": "occ",
				"energy": -0.26233,
				"method": "rhf"
			},
			{
				"type": "occ",
				"energy": -0.25,
				"method": "rhf"
			},
			{
				"type": "unocc",
				"energy": -0.07614,
				"method": "rhf"
			},
			{
				"type": "unocc",
				"energy": -0.06273,
				"method": "rhf"
			},
			{
				"type": "unocc",
				"energy": -0.0061,
				"method": "rhf"
			},
			{
				"type": "unocc",
				"energy": 0.01313,
				"method": "rhf"
			},
			{
				"type": "unocc",
				"energy": 0.02336,
				"method": "rhf"
			}
		],
		"cosmo_sigma_profile": { 
			"-0.025": 0.0,
			"-0.024": 0.0,
			"-0.023": 0.0,
			"-0.022": 0.0,
			"-0.021": 0.0,
			"-0.02": 0.0,
			"-0.019": 0.0,
			"-0.018": 0.0,
			"-0.017": 0.0,
			"-0.016": 0.0,
			"-0.015": 0.0,
			"-0.014": 0.0,
			"-0.013": 0.0,
			"-0.012": 0.0,
			"-0.011": 0.0,
			"-0.01": 0.0,
			"-0.009": 0.145893440554,
			"-0.008": 4.77140565908,
			"-0.007": 9.33954368696,
			"-0.006": 11.9228709342,
			"-0.005": 21.2661456974,
			"-0.004": 32.642733676,
			"-0.003": 34.2321593529,
			"-0.002": 28.0603202976,
			"-0.001": 30.7157059357,
			"0.0": 38.74164156,
			"0.001": 32.1764434271,
			"0.002": 23.5744482948,
			"0.003": 18.5732605167,
			"0.004": 10.4758688697,
			"0.005": 6.8978293858,
			"0.006": 7.1100276607,
			"0.007": 6.01105222013,
			"0.008": 6.26053032768,
			"0.009": 4.87652195203,
			"0.01": 4.65650105307,
			"0.011": 9.91845243205,
			"0.012": 4.43329603462,
			"0.013": 0.150909642168,
			"0.014": 0.0,
			"0.015": 0.0,
			"0.016": 0.0,
			"0.017": 0.0,
			"0.018": 0.0,
			"0.019": 0.0,
			"0.02": 0.0,
			"0.021": 0.0,
			"0.022": 0.0,
			"0.023": 0.0,
			"0.024": 0.0,
			"0.025": 0.0
		}
	}
}
