{
	 "smiles": "COC1=C(OC)C(=O)C(C)=CC1=O", 
	 "Tm": 332.15, 
	 "num_atms": 23, 
	 "gaussian": { 
		 "optdone": 1, 
		 "sigma_profile": "yes", 
		 "theory": "DFT", 
		 "functional": "B3LYP", 
		 "basiset": "6-31G**", 
		 "properties": { 
			 "R2extent": 2859.9814, 
			 "electric_dipole_moment_norm": 0.823268826083, 
			 "electric_quadrupole_moment_norm": 11.4324854236, 
			 "total_energy": -649.81314215, 
			 "HOMO_LUMO_gap": 0.10965, 
			 "cosmo_polarized_energy": -10.25, 
			 "cosmo_cavitation_energy": 27.35, 
			 "cosmo_dispersion_energy": -19.78, 
			 "cosmo_repulsion_energy": 1.58, 
			 "cosmo_total_nonelectrostatic_energy": 9.14, 
			 "SMD_solvation_energy": 7.62 
		},
		"coords": [
			{
				"x": 0.4473659386,
				"y": 2.3647083214,
				"z": 2.3971454125,
				"element": "C" 
			},
			{
				"x": -0.2971093962,
				"y": 1.1553484753,
				"z": 2.1847084747,
				"element": "O" 
			},
			{
				"x": -0.6893237535,
				"y": 0.7583826913,
				"z": 0.9612545439,
				"element": "C" 
			},
			{
				"x": -0.9487661654,
				"y": -0.5725706811,
				"z": 0.7706309667,
				"element": "C" 
			},
			{
				"x": -0.6705431326,
				"y": -1.4420243112,
				"z": 1.7727615178,
				"element": "O" 
			},
			{
				"x": -1.6937842775,
				"y": -2.3640566916,
				"z": 2.177849432,
				"element": "C" 
			},
			{
				"x": -1.3857713583,
				"y": -1.0861432187,
				"z": -0.5481344622,
				"element": "C" 
			},
			{
				"x": -1.5301419645,
				"y": -2.2893318196,
				"z": -0.7530327082,
				"element": "O" 
			},
			{
				"x": -1.6299169856,
				"y": -0.1077139803,
				"z": -1.6625672409,
				"element": "C" 
			},
			{
				"x": -2.1092171242,
				"y": -0.6812493981,
				"z": -2.9612336289,
				"element": "C" 
			},
			{
				"x": -1.394859508,
				"y": 1.1977562344,
				"z": -1.4500592507,
				"element": "C" 
			},
			{
				"x": -0.9421728232,
				"y": 1.7294001182,
				"z": -0.1453289321,
				"element": "C" 
			},
			{
				"x": -0.8133705343,
				"y": 2.9403578216,
				"z": 0.0146454853,
				"element": "O" 
			},
			{
				"x": 1.2416389362,
				"y": 2.4820209228,
				"z": 1.6551163242,
				"element": "H" 
			},
			{
				"x": 0.8871439478,
				"y": 2.2463874189,
				"z": 3.3894400584,
				"element": "H" 
			},
			{
				"x": -0.1993519517,
				"y": 3.2419615772,
				"z": 2.3680418715,
				"element": "H" 
			},
			{
				"x": -1.8958468634,
				"y": -3.1009860862,
				"z": 1.3996891549,
				"element": "H" 
			},
			{
				"x": -2.615338748,
				"y": -1.8283785043,
				"z": 2.4363424131,
				"element": "H" 
			},
			{
				"x": -1.3044261778,
				"y": -2.8546645146,
				"z": 3.0715124008,
				"element": "H" 
			},
			{
				"x": -2.2262634055,
				"y": 0.0978711876,
				"z": -3.7175543763,
				"element": "H" 
			},
			{
				"x": -1.4085379481,
				"y": -1.4384773098,
				"z": -3.3271638467,
				"element": "H" 
			},
			{
				"x": -3.0673724146,
				"y": -1.1942435125,
				"z": -2.8255902911,
				"element": "H" 
			},
			{
				"x": -1.5445342903,
				"y": 1.9507452592,
				"z": -2.2185733187,
				"element": "H" 
			}
		],
		 "valence_orbital": [ 
			{
				"type": "occ",
				"energy": -0.30594,
				"method": "rhf"
			},
			{
				"type": "occ",
				"energy": -0.28756,
				"method": "rhf"
			},
			{
				"type": "occ",
				"energy": -0.26464,
				"method": "rhf"
			},
			{
				"type": "occ",
				"energy": -0.25932,
				"method": "rhf"
			},
			{
				"type": "occ",
				"energy": -0.22534,
				"method": "rhf"
			},
			{
				"type": "unocc",
				"energy": -0.11569,
				"method": "rhf"
			},
			{
				"type": "unocc",
				"energy": 2e-05,
				"method": "rhf"
			},
			{
				"type": "unocc",
				"energy": 0.01955,
				"method": "rhf"
			},
			{
				"type": "unocc",
				"energy": 0.08549,
				"method": "rhf"
			},
			{
				"type": "unocc",
				"energy": 0.10647,
				"method": "rhf"
			}
		],
		"cosmo_sigma_profile": { 
			"-0.025": 0.0,
			"-0.024": 0.0,
			"-0.023": 0.0,
			"-0.022": 0.0,
			"-0.021": 0.0,
			"-0.02": 0.0,
			"-0.019": 0.0,
			"-0.018": 0.0,
			"-0.017": 0.0,
			"-0.016": 0.0,
			"-0.015": 0.0,
			"-0.014": 0.0,
			"-0.013": 0.0,
			"-0.012": 0.0,
			"-0.011": 0.0,
			"-0.01": 0.0,
			"-0.009": 0.0,
			"-0.008": 0.593106162128,
			"-0.007": 2.52547716754,
			"-0.006": 10.0469069273,
			"-0.005": 21.9990536908,
			"-0.004": 26.8082298201,
			"-0.003": 27.8860639823,
			"-0.002": 21.3755613993,
			"-0.001": 20.2479080394,
			"0.0": 13.5339157205,
			"0.001": 9.09935351087,
			"0.002": 5.72611843734,
			"0.003": 6.0678631197,
			"0.004": 5.29214010164,
			"0.005": 5.53484002608,
			"0.006": 6.48547839586,
			"0.007": 4.90938066898,
			"0.008": 5.83456242245,
			"0.009": 6.25127824432,
			"0.01": 7.47137689799,
			"0.011": 6.03645560611,
			"0.012": 2.69354918699,
			"0.013": 0.811391385037,
			"0.014": 0.0617660651985,
			"0.015": 0.0,
			"0.016": 0.0,
			"0.017": 0.0,
			"0.018": 0.0,
			"0.019": 0.0,
			"0.02": 0.0,
			"0.021": 0.0,
			"0.022": 0.0,
			"0.023": 0.0,
			"0.024": 0.0,
			"0.025": 0.0
		}
	}
}
