{
	 "smiles": "CN1C(=O)CC2=C1C=CC(S)=C2", 
	 "Tm": 378.15, 
	 "num_atms": 21, 
	 "gaussian": { 
		 "optdone": 1, 
		 "sigma_profile": "yes", 
		 "theory": "DFT", 
		 "functional": "B3LYP", 
		 "basiset": "6-31G**", 
		 "properties": { 
			 "R2extent": 4194.9049, 
			 "electric_dipole_moment_norm": 1.70809796557, 
			 "electric_quadrupole_moment_norm": 16.2705072957, 
			 "total_energy": -876.56440968, 
			 "HOMO_LUMO_gap": 0.19651, 
			 "cosmo_polarized_energy": -10.85, 
			 "cosmo_cavitation_energy": 26.33, 
			 "cosmo_dispersion_energy": -19.97, 
			 "cosmo_repulsion_energy": 1.54, 
			 "cosmo_total_nonelectrostatic_energy": 7.9, 
			 "SMD_solvation_energy": 4.53 
		},
		"coords": [
			{
				"x": 0.2190216973,
				"y": 2.4562997332,
				"z": -0.5559030915,
				"element": "C" 
			},
			{
				"x": 0.0625389071,
				"y": 1.2034642687,
				"z": -1.2648761653,
				"element": "N" 
			},
			{
				"x": 1.0552565364,
				"y": 0.6673434038,
				"z": -2.0822087205,
				"element": "C" 
			},
			{
				"x": 2.1392266836,
				"y": 1.1771012402,
				"z": -2.2928965532,
				"element": "O" 
			},
			{
				"x": 0.5099322673,
				"y": -0.6556526148,
				"z": -2.6394873724,
				"element": "C" 
			},
			{
				"x": -0.8652563287,
				"y": -0.7535185567,
				"z": -2.0324154455,
				"element": "C" 
			},
			{
				"x": -1.0693932279,
				"y": 0.3817817369,
				"z": -1.2248795766,
				"element": "C" 
			},
			{
				"x": -2.253563393,
				"y": 0.5732392818,
				"z": -0.5210138787,
				"element": "C" 
			},
			{
				"x": -3.2528841613,
				"y": -0.4005646049,
				"z": -0.6450034287,
				"element": "C" 
			},
			{
				"x": -3.0681932411,
				"y": -1.5323759845,
				"z": -1.4455519388,
				"element": "C" 
			},
			{
				"x": -4.3558417818,
				"y": -2.7901475979,
				"z": -1.5180287203,
				"element": "S" 
			},
			{
				"x": -1.8548566982,
				"y": -1.7151845786,
				"z": -2.1371999312,
				"element": "C" 
			},
			{
				"x": -0.5382541298,
				"y": 3.1828887662,
				"z": -0.8709428377,
				"element": "H" 
			},
			{
				"x": 0.1381807525,
				"y": 2.307078224,
				"z": 0.5265931512,
				"element": "H" 
			},
			{
				"x": 1.2115121935,
				"y": 2.8402201302,
				"z": -0.7958288969,
				"element": "H" 
			},
			{
				"x": 1.1797994643,
				"y": -1.4733663698,
				"z": -2.3509962374,
				"element": "H" 
			},
			{
				"x": 0.5086897572,
				"y": -0.6140841327,
				"z": -3.7344014669,
				"element": "H" 
			},
			{
				"x": -2.4090064379,
				"y": 1.4465669219,
				"z": 0.1036743553,
				"element": "H" 
			},
			{
				"x": -4.1901232603,
				"y": -0.2771363375,
				"z": -0.1125642619,
				"element": "H" 
			},
			{
				"x": -4.8537635903,
				"y": -2.4779975489,
				"z": -2.7345407805,
				"element": "H" 
			},
			{
				"x": -1.7069220089,
				"y": -2.6054553807,
				"z": -2.7408282028,
				"element": "H" 
			}
		],
		 "valence_orbital": [ 
			{
				"type": "occ",
				"energy": -0.30381,
				"method": "rhf"
			},
			{
				"type": "occ",
				"energy": -0.26315,
				"method": "rhf"
			},
			{
				"type": "occ",
				"energy": -0.26267,
				"method": "rhf"
			},
			{
				"type": "occ",
				"energy": -0.24851,
				"method": "rhf"
			},
			{
				"type": "occ",
				"energy": -0.21896,
				"method": "rhf"
			},
			{
				"type": "unocc",
				"energy": -0.02245,
				"method": "rhf"
			},
			{
				"type": "unocc",
				"energy": -0.01741,
				"method": "rhf"
			},
			{
				"type": "unocc",
				"energy": 0.02104,
				"method": "rhf"
			},
			{
				"type": "unocc",
				"energy": 0.03781,
				"method": "rhf"
			},
			{
				"type": "unocc",
				"energy": 0.06634,
				"method": "rhf"
			}
		],
		"cosmo_sigma_profile": { 
			"-0.025": 0.0,
			"-0.024": 0.0,
			"-0.023": 0.0,
			"-0.022": 0.0,
			"-0.021": 0.0,
			"-0.02": 0.0,
			"-0.019": 0.0,
			"-0.018": 0.0,
			"-0.017": 0.0,
			"-0.016": 0.0,
			"-0.015": 0.0,
			"-0.014": 0.0,
			"-0.013": 0.0,
			"-0.012": 0.0,
			"-0.011": 0.0,
			"-0.01": 0.382848039052,
			"-0.009": 2.09972021197,
			"-0.008": 2.17401983704,
			"-0.007": 7.15999262152,
			"-0.006": 14.0214612469,
			"-0.005": 20.4908225478,
			"-0.004": 18.7895101344,
			"-0.003": 18.7661683329,
			"-0.002": 16.3027601131,
			"-0.001": 13.2467838436,
			"0.0": 11.145307055,
			"0.001": 11.2252597745,
			"0.002": 11.994140122,
			"0.003": 13.1996546002,
			"0.004": 14.7636648764,
			"0.005": 6.56471139219,
			"0.006": 4.74377805554,
			"0.007": 4.36248131785,
			"0.008": 3.55732049062,
			"0.009": 3.15976966475,
			"0.01": 2.43407205583,
			"0.011": 2.32604653883,
			"0.012": 3.40363034605,
			"0.013": 4.90489041893,
			"0.014": 1.13939944948,
			"0.015": 0.0084701504988,
			"0.016": 0.0,
			"0.017": 0.0,
			"0.018": 0.0,
			"0.019": 0.0,
			"0.02": 0.0,
			"0.021": 0.0,
			"0.022": 0.0,
			"0.023": 0.0,
			"0.024": 0.0,
			"0.025": 0.0
		}
	}
}
