{
	 "smiles": "OC(=O)CN1C(=O)C2=C(C=CC=C2)C(F)(F)C1=O", 
	 "Tm": 477.15, 
	 "num_atms": 25, 
	 "gaussian": { 
		 "optdone": 1, 
		 "sigma_profile": "yes", 
		 "theory": "DFT", 
		 "functional": "B3LYP", 
		 "basiset": "6-31G**", 
		 "properties": { 
			 "R2extent": 4217.3228, 
			 "electric_dipole_moment_norm": 3.62330229073, 
			 "electric_quadrupole_moment_norm": 31.6712522034, 
			 "total_energy": -978.737256038, 
			 "HOMO_LUMO_gap": 0.19641, 
			 "cosmo_polarized_energy": -21.02, 
			 "cosmo_cavitation_energy": 31.27, 
			 "cosmo_dispersion_energy": -21.83, 
			 "cosmo_repulsion_energy": 1.63, 
			 "cosmo_total_nonelectrostatic_energy": 11.07, 
			 "SMD_solvation_energy": 8.07 
		},
		"coords": [
			{
				"x": -0.314817162,
				"y": -3.4977158312,
				"z": 3.1549013523,
				"element": "O" 
			},
			{
				"x": -0.404314425,
				"y": -2.461435566,
				"z": 2.2877689691,
				"element": "C" 
			},
			{
				"x": -1.0126301695,
				"y": -1.4635539771,
				"z": 2.566287022,
				"element": "O" 
			},
			{
				"x": 0.3369360786,
				"y": -2.6753932998,
				"z": 0.9607953423,
				"element": "C" 
			},
			{
				"x": 0.1480555192,
				"y": -1.5442482141,
				"z": 0.0679445728,
				"element": "N" 
			},
			{
				"x": 0.984885864,
				"y": -0.4233937455,
				"z": 0.268199045,
				"element": "C" 
			},
			{
				"x": 1.9372273114,
				"y": -0.5056527601,
				"z": 1.0241895769,
				"element": "O" 
			},
			{
				"x": 0.6270150955,
				"y": 0.8251844994,
				"z": -0.4538794696,
				"element": "C" 
			},
			{
				"x": -0.4216135867,
				"y": 0.865738322,
				"z": -1.3799648917,
				"element": "C" 
			},
			{
				"x": -0.765949023,
				"y": 2.0668128399,
				"z": -2.0008476036,
				"element": "C" 
			},
			{
				"x": -0.0584910959,
				"y": 3.2283427739,
				"z": -1.6937023551,
				"element": "C" 
			},
			{
				"x": 0.994736466,
				"y": 3.1906474961,
				"z": -0.7736720009,
				"element": "C" 
			},
			{
				"x": 1.3372707884,
				"y": 1.9934493721,
				"z": -0.1521149477,
				"element": "C" 
			},
			{
				"x": -1.1025400135,
				"y": -0.4150281304,
				"z": -1.7595361118,
				"element": "C" 
			},
			{
				"x": -0.5236090951,
				"y": -0.9135000165,
				"z": -2.9096845641,
				"element": "F" 
			},
			{
				"x": -2.4137571304,
				"y": -0.2079170547,
				"z": -2.0379285827,
				"element": "F" 
			},
			{
				"x": -0.9957432086,
				"y": -1.5535589725,
				"z": -0.7256888317,
				"element": "C" 
			},
			{
				"x": -1.8057348266,
				"y": -2.4537837743,
				"z": -0.6944805988,
				"element": "O" 
			},
			{
				"x": 0.1998525204,
				"y": -4.2251832668,
				"z": 2.7758763986,
				"element": "H" 
			},
			{
				"x": -0.0444739728,
				"y": -3.5717438013,
				"z": 0.4660782719,
				"element": "H" 
			},
			{
				"x": 1.4064765141,
				"y": -2.7788912229,
				"z": 1.1577441558,
				"element": "H" 
			},
			{
				"x": -1.5852283242,
				"y": 2.0857633482,
				"z": -2.7110970402,
				"element": "H" 
			},
			{
				"x": -0.3286584235,
				"y": 4.1652219268,
				"z": -2.1713548474,
				"element": "H" 
			},
			{
				"x": 1.5421158416,
				"y": 4.0979464665,
				"z": -0.5377807298,
				"element": "H" 
			},
			{
				"x": 2.1402884575,
				"y": 1.9379925883,
				"z": 0.5742478684,
				"element": "H" 
			}
		],
		 "valence_orbital": [ 
			{
				"type": "occ",
				"energy": -0.30082,
				"method": "rhf"
			},
			{
				"type": "occ",
				"energy": -0.28876,
				"method": "rhf"
			},
			{
				"type": "occ",
				"energy": -0.28575,
				"method": "rhf"
			},
			{
				"type": "occ",
				"energy": -0.28171,
				"method": "rhf"
			},
			{
				"type": "occ",
				"energy": -0.28072,
				"method": "rhf"
			},
			{
				"type": "unocc",
				"energy": -0.08431,
				"method": "rhf"
			},
			{
				"type": "unocc",
				"energy": -0.04439,
				"method": "rhf"
			},
			{
				"type": "unocc",
				"energy": -0.01897,
				"method": "rhf"
			},
			{
				"type": "unocc",
				"energy": 0.00061,
				"method": "rhf"
			},
			{
				"type": "unocc",
				"energy": 0.03861,
				"method": "rhf"
			}
		],
		"cosmo_sigma_profile": { 
			"-0.025": 0.0,
			"-0.024": 0.0,
			"-0.023": 0.0,
			"-0.022": 0.0,
			"-0.021": 0.0774870266708,
			"-0.02": 1.33731569705,
			"-0.019": 1.21294276742,
			"-0.018": 1.40267078801,
			"-0.017": 1.00163874367,
			"-0.016": 0.799943150644,
			"-0.015": 1.53685745966,
			"-0.014": 1.5467477901,
			"-0.013": 1.00525483357,
			"-0.012": 1.18360768275,
			"-0.011": 1.663000034,
			"-0.01": 1.46683638729,
			"-0.009": 2.11041575479,
			"-0.008": 5.89324204598,
			"-0.007": 12.4345423433,
			"-0.006": 14.1338277868,
			"-0.005": 13.374900891,
			"-0.004": 11.7520211125,
			"-0.003": 10.2107157846,
			"-0.002": 9.85179280579,
			"-0.001": 13.1843846348,
			"0.0": 16.7448432084,
			"0.001": 20.7145573062,
			"0.002": 18.9380250248,
			"0.003": 21.6847334543,
			"0.004": 12.1829626114,
			"0.005": 5.13817969667,
			"0.006": 6.58598852534,
			"0.007": 5.70347824947,
			"0.008": 6.97399751615,
			"0.009": 9.66840959595,
			"0.01": 11.5700681928,
			"0.011": 6.22108576035,
			"0.012": 1.74316098215,
			"0.013": 0.0873171236366,
			"0.014": 0.0,
			"0.015": 0.0,
			"0.016": 0.0,
			"0.017": 0.0,
			"0.018": 0.0,
			"0.019": 0.0,
			"0.02": 0.0,
			"0.021": 0.0,
			"0.022": 0.0,
			"0.023": 0.0,
			"0.024": 0.0,
			"0.025": 0.0
		}
	}
}
