{
	 "smiles": "CCOC(=O)C1=CN=C2SC(=NN2C1=N)C(F)(F)F", 
	 "Tm": 471.15, 
	 "num_atms": 26, 
	 "gaussian": { 
		 "optdone": 1, 
		 "sigma_profile": "yes", 
		 "theory": "DFT", 
		 "functional": "B3LYP", 
		 "basiset": "6-31G**", 
		 "properties": { 
			 "R2extent": 8791.7633, 
			 "electric_dipole_moment_norm": 3.37127128099, 
			 "electric_quadrupole_moment_norm": 13.6101059221, 
			 "total_energy": -1414.29040418, 
			 "HOMO_LUMO_gap": 0.14596, 
			 "cosmo_polarized_energy": -16.85, 
			 "cosmo_cavitation_energy": 35.17, 
			 "cosmo_dispersion_energy": -25.52, 
			 "cosmo_repulsion_energy": 1.87, 
			 "cosmo_total_nonelectrostatic_energy": 11.52, 
			 "SMD_solvation_energy": 5.04 
		},
		"coords": [
			{
				"x": -4.4055841129,
				"y": 2.2619612483,
				"z": -2.3589072752,
				"element": "C" 
			},
			{
				"x": -3.4397116505,
				"y": 2.3541234509,
				"z": -1.1928784068,
				"element": "C" 
			},
			{
				"x": -2.6043915826,
				"y": 1.1750592196,
				"z": -1.2269031854,
				"element": "O" 
			},
			{
				"x": -1.6733911816,
				"y": 1.0932999703,
				"z": -0.2398203043,
				"element": "C" 
			},
			{
				"x": -1.5625512994,
				"y": 1.9190279092,
				"z": 0.6374870042,
				"element": "O" 
			},
			{
				"x": -0.8133611637,
				"y": -0.1143320446,
				"z": -0.4162421617,
				"element": "C" 
			},
			{
				"x": -0.7071877972,
				"y": -0.6980773335,
				"z": -1.6514317732,
				"element": "C" 
			},
			{
				"x": 0.0957164335,
				"y": -1.768754855,
				"z": -1.9739255144,
				"element": "N" 
			},
			{
				"x": 0.7985638576,
				"y": -2.2254282969,
				"z": -0.9920680605,
				"element": "C" 
			},
			{
				"x": 1.9257055522,
				"y": -3.584977572,
				"z": -1.0764605241,
				"element": "S" 
			},
			{
				"x": 2.2444837367,
				"y": -3.3211615952,
				"z": 0.6327531347,
				"element": "C" 
			},
			{
				"x": 1.5995416243,
				"y": -2.3602480214,
				"z": 1.1970802479,
				"element": "N" 
			},
			{
				"x": 0.7899018865,
				"y": -1.7419371987,
				"z": 0.3007606048,
				"element": "N" 
			},
			{
				"x": -0.0601543464,
				"y": -0.6369892954,
				"z": 0.7307185492,
				"element": "C" 
			},
			{
				"x": -0.1203932602,
				"y": -0.2400585542,
				"z": 1.9338269746,
				"element": "N" 
			},
			{
				"x": 3.2630220549,
				"y": -4.144175933,
				"z": 1.3844174532,
				"element": "C" 
			},
			{
				"x": 4.5092618577,
				"y": -3.7203929908,
				"z": 1.1059329403,
				"element": "F" 
			},
			{
				"x": 3.0702801293,
				"y": -4.0663434048,
				"z": 2.7020221633,
				"element": "F" 
			},
			{
				"x": 3.1778426239,
				"y": -5.4340101144,
				"z": 1.0029468181,
				"element": "F" 
			},
			{
				"x": -5.0289751933,
				"y": 1.366577571,
				"z": -2.2809501298,
				"element": "H" 
			},
			{
				"x": -5.0615463094,
				"y": 3.1379985411,
				"z": -2.3666323203,
				"element": "H" 
			},
			{
				"x": -3.8692989308,
				"y": 2.2269089822,
				"z": -3.311832469,
				"element": "H" 
			},
			{
				"x": -3.9584039755,
				"y": 2.3896197327,
				"z": -0.2299486385,
				"element": "H" 
			},
			{
				"x": -2.8029359571,
				"y": 3.2426439715,
				"z": -1.2540055864,
				"element": "H" 
			},
			{
				"x": -1.2879074184,
				"y": -0.2991694918,
				"z": -2.4746888585,
				"element": "H" 
			},
			{
				"x": 0.4974744224,
				"y": -0.7854638954,
				"z": 2.536749318,
				"element": "H" 
			}
		],
		 "valence_orbital": [ 
			{
				"type": "occ",
				"energy": -0.30692,
				"method": "rhf"
			},
			{
				"type": "occ",
				"energy": -0.29767,
				"method": "rhf"
			},
			{
				"type": "occ",
				"energy": -0.28787,
				"method": "rhf"
			},
			{
				"type": "occ",
				"energy": -0.25832,
				"method": "rhf"
			},
			{
				"type": "occ",
				"energy": -0.23425,
				"method": "rhf"
			},
			{
				"type": "unocc",
				"energy": -0.08829,
				"method": "rhf"
			},
			{
				"type": "unocc",
				"energy": -0.05898,
				"method": "rhf"
			},
			{
				"type": "unocc",
				"energy": -0.0406,
				"method": "rhf"
			},
			{
				"type": "unocc",
				"energy": -0.01032,
				"method": "rhf"
			},
			{
				"type": "unocc",
				"energy": 0.02599,
				"method": "rhf"
			}
		],
		"cosmo_sigma_profile": { 
			"-0.025": 0.0,
			"-0.024": 0.0,
			"-0.023": 0.0,
			"-0.022": 0.0,
			"-0.021": 0.0,
			"-0.02": 0.0,
			"-0.019": 0.0,
			"-0.018": 0.0,
			"-0.017": 0.0,
			"-0.016": 0.0,
			"-0.015": 0.0,
			"-0.014": 0.0,
			"-0.013": 0.0,
			"-0.012": 0.0,
			"-0.011": 0.0,
			"-0.01": 0.640911160056,
			"-0.009": 2.22353110528,
			"-0.008": 4.38787196037,
			"-0.007": 7.69131616935,
			"-0.006": 8.31530326179,
			"-0.005": 16.5636732586,
			"-0.004": 26.8727902009,
			"-0.003": 33.3723790106,
			"-0.002": 26.2459017161,
			"-0.001": 28.2437730475,
			"0.0": 24.6971091015,
			"0.001": 32.6748202489,
			"0.002": 18.39960518,
			"0.003": 6.72812969786,
			"0.004": 6.97702789352,
			"0.005": 5.2216389879,
			"0.006": 3.49930585022,
			"0.007": 3.01163890888,
			"0.008": 3.47682788726,
			"0.009": 3.19079052696,
			"0.01": 3.25686164134,
			"0.011": 3.48031236781,
			"0.012": 5.50304606997,
			"0.013": 2.33834808114,
			"0.014": 2.03170233317,
			"0.015": 1.6203878503,
			"0.016": 0.786531336284,
			"0.017": 1.70160412374,
			"0.018": 1.06801766767,
			"0.019": 0.73222590651,
			"0.02": 0.0261146095525,
			"0.021": 0.0,
			"0.022": 0.0,
			"0.023": 0.0,
			"0.024": 0.0,
			"0.025": 0.0
		}
	}
}
