{
	 "smiles": "CC(=O)NC1=CC=C(F)C=C1[N+]([O-])=O", 
	 "Tm": 344.65, 
	 "num_atms": 21, 
	 "gaussian": { 
		 "optdone": 1, 
		 "sigma_profile": "yes", 
		 "theory": "DFT", 
		 "functional": "B3LYP", 
		 "basiset": "6-31G**", 
		 "properties": { 
			 "R2extent": 3162.0679, 
			 "electric_dipole_moment_norm": 5.14630915608, 
			 "electric_quadrupole_moment_norm": 12.5334640698, 
			 "total_energy": -743.987421974, 
			 "HOMO_LUMO_gap": 0.13991, 
			 "cosmo_polarized_energy": -13.85, 
			 "cosmo_cavitation_energy": 26.58, 
			 "cosmo_dispersion_energy": -19.3, 
			 "cosmo_repulsion_energy": 1.48, 
			 "cosmo_total_nonelectrostatic_energy": 8.76, 
			 "SMD_solvation_energy": 7.98 
		},
		"coords": [
			{
				"x": 2.2857468544,
				"y": -3.0802124134,
				"z": -0.5544537929,
				"element": "C" 
			},
			{
				"x": 1.9918776488,
				"y": -2.5242814106,
				"z": 0.8254265288,
				"element": "C" 
			},
			{
				"x": 2.4130467466,
				"y": -3.0631305919,
				"z": 1.8338551723,
				"element": "O" 
			},
			{
				"x": 1.2583485089,
				"y": -1.3419649703,
				"z": 0.9660149158,
				"element": "N" 
			},
			{
				"x": 0.6288707368,
				"y": -0.5164689033,
				"z": 0.0421023733,
				"element": "C" 
			},
			{
				"x": 0.051168199,
				"y": -1.0270587933,
				"z": -1.1404366515,
				"element": "C" 
			},
			{
				"x": -0.5722389451,
				"y": -0.2095802052,
				"z": -2.0718345026,
				"element": "C" 
			},
			{
				"x": -0.6547804869,
				"y": 1.1607282008,
				"z": -1.8338496714,
				"element": "C" 
			},
			{
				"x": -1.2666407147,
				"y": 1.9514061172,
				"z": -2.7334026199,
				"element": "F" 
			},
			{
				"x": -0.1381037499,
				"y": 1.7143414695,
				"z": -0.6807029617,
				"element": "C" 
			},
			{
				"x": 0.493208379,
				"y": 0.8833004102,
				"z": 0.2517504616,
				"element": "C" 
			},
			{
				"x": 0.9967643409,
				"y": 1.5555131224,
				"z": 1.4524537209,
				"element": "N" 
			},
			{
				"x": 1.080837746,
				"y": 2.7805469154,
				"z": 1.4321265758,
				"element": "O" 
			},
			{
				"x": 1.3003126225,
				"y": 0.8671534129,
				"z": 2.4376747191,
				"element": "O" 
			},
			{
				"x": 2.4191960185,
				"y": -2.3058514362,
				"z": -1.3131016415,
				"element": "H" 
			},
			{
				"x": 1.4815448199,
				"y": -3.74930596,
				"z": -0.8792896361,
				"element": "H" 
			},
			{
				"x": 3.1946616837,
				"y": -3.67626102,
				"z": -0.4667183056,
				"element": "H" 
			},
			{
				"x": 1.3290150169,
				"y": -0.9505973804,
				"z": 1.9012865324,
				"element": "H" 
			},
			{
				"x": 0.0643164927,
				"y": -2.0943030044,
				"z": -1.3110147896,
				"element": "H" 
			},
			{
				"x": -1.0163528222,
				"y": -0.6261789291,
				"z": -2.9693299423,
				"element": "H" 
			},
			{
				"x": -0.2104990958,
				"y": 2.7759053697,
				"z": -0.4861564848,
				"element": "H" 
			}
		],
		 "valence_orbital": [ 
			{
				"type": "occ",
				"energy": -0.319,
				"method": "rhf"
			},
			{
				"type": "occ",
				"energy": -0.31052,
				"method": "rhf"
			},
			{
				"type": "occ",
				"energy": -0.29825,
				"method": "rhf"
			},
			{
				"type": "occ",
				"energy": -0.2699,
				"method": "rhf"
			},
			{
				"type": "occ",
				"energy": -0.24611,
				"method": "rhf"
			},
			{
				"type": "unocc",
				"energy": -0.1062,
				"method": "rhf"
			},
			{
				"type": "unocc",
				"energy": -0.04039,
				"method": "rhf"
			},
			{
				"type": "unocc",
				"energy": -0.02004,
				"method": "rhf"
			},
			{
				"type": "unocc",
				"energy": 0.01615,
				"method": "rhf"
			},
			{
				"type": "unocc",
				"energy": 0.05833,
				"method": "rhf"
			}
		],
		"cosmo_sigma_profile": { 
			"-0.025": 0.0,
			"-0.024": 0.0,
			"-0.023": 0.0,
			"-0.022": 0.0,
			"-0.021": 0.0,
			"-0.02": 0.0,
			"-0.019": 0.0,
			"-0.018": 0.0,
			"-0.017": 0.0,
			"-0.016": 0.0,
			"-0.015": 0.0,
			"-0.014": 0.0,
			"-0.013": 0.0,
			"-0.012": 0.0,
			"-0.011": 0.0222310802048,
			"-0.01": 1.11948405153,
			"-0.009": 4.19225005686,
			"-0.008": 6.38255563834,
			"-0.007": 8.51178861126,
			"-0.006": 11.1075348373,
			"-0.005": 14.3552614488,
			"-0.004": 15.162121418,
			"-0.003": 16.4413232385,
			"-0.002": 18.5928768063,
			"-0.001": 21.8986832781,
			"0.0": 15.7673206524,
			"0.001": 9.74306570436,
			"0.002": 7.40623686952,
			"0.003": 10.8132518695,
			"0.004": 9.51091823452,
			"0.005": 3.90870129903,
			"0.006": 5.67003483118,
			"0.007": 7.21543167844,
			"0.008": 6.03264025455,
			"0.009": 5.25074345764,
			"0.01": 3.19679576146,
			"0.011": 2.14206717622,
			"0.012": 4.34574111834,
			"0.013": 4.18729108938,
			"0.014": 0.5081697821,
			"0.015": 0.0,
			"0.016": 0.0,
			"0.017": 0.0,
			"0.018": 0.0,
			"0.019": 0.0,
			"0.02": 0.0,
			"0.021": 0.0,
			"0.022": 0.0,
			"0.023": 0.0,
			"0.024": 0.0,
			"0.025": 0.0
		}
	}
}
