{
	 "smiles": "COC1=CC=C(C=CC2=CC=CC=C2)C=C1", 
	 "Tm": 409.15, 
	 "num_atms": 30, 
	 "gaussian": { 
		 "optdone": 1, 
		 "sigma_profile": "yes", 
		 "theory": "DFT", 
		 "functional": "B3LYP", 
		 "basiset": "6-31G**", 
		 "properties": { 
			 "R2extent": 5728.5029, 
			 "electric_dipole_moment_norm": 1.55747521971, 
			 "electric_quadrupole_moment_norm": 7.99154966386, 
			 "total_energy": -655.232958899, 
			 "HOMO_LUMO_gap": 0.15815, 
			 "cosmo_polarized_energy": -7.44, 
			 "cosmo_cavitation_energy": 33.63, 
			 "cosmo_dispersion_energy": -24.08, 
			 "cosmo_repulsion_energy": 1.87, 
			 "cosmo_total_nonelectrostatic_energy": 11.42, 
			 "SMD_solvation_energy": 6.31 
		},
		"coords": [
			{
				"x": -3.353440195,
				"y": 2.9403611159,
				"z": -1.8219319423,
				"element": "C" 
			},
			{
				"x": -4.0660711373,
				"y": 2.2204326193,
				"z": -0.8288821464,
				"element": "O" 
			},
			{
				"x": -3.3720087857,
				"y": 1.3555276864,
				"z": -0.0340751143,
				"element": "C" 
			},
			{
				"x": -1.9934923958,
				"y": 1.1202034821,
				"z": -0.1220170885,
				"element": "C" 
			},
			{
				"x": -1.3880108281,
				"y": 0.2086369596,
				"z": 0.7425495398,
				"element": "C" 
			},
			{
				"x": -2.1249477653,
				"y": -0.4941275884,
				"z": 1.7090953476,
				"element": "C" 
			},
			{
				"x": -1.5226858644,
				"y": -1.4251534086,
				"z": 2.6779843022,
				"element": "C" 
			},
			{
				"x": -0.4434510168,
				"y": -2.2320279253,
				"z": 2.5900789955,
				"element": "C" 
			},
			{
				"x": 0.4250922844,
				"y": -2.5695395398,
				"z": 1.4462995454,
				"element": "C" 
			},
			{
				"x": 1.7776180738,
				"y": -2.8734751881,
				"z": 1.6870347143,
				"element": "C" 
			},
			{
				"x": 2.631624532,
				"y": -3.2421058337,
				"z": 0.6485242432,
				"element": "C" 
			},
			{
				"x": 2.1462508686,
				"y": -3.3356134995,
				"z": -0.6567908058,
				"element": "C" 
			},
			{
				"x": 0.7990567009,
				"y": -3.0620132928,
				"z": -0.9096607847,
				"element": "C" 
			},
			{
				"x": -0.0519479407,
				"y": -2.6857212138,
				"z": 0.1269525622,
				"element": "C" 
			},
			{
				"x": -3.5050405536,
				"y": -0.2176659295,
				"z": 1.7951012997,
				"element": "C" 
			},
			{
				"x": -4.1245686627,
				"y": 0.6793696146,
				"z": 0.9374019342,
				"element": "C" 
			},
			{
				"x": -4.0918987319,
				"y": 3.558741948,
				"z": -2.334668197,
				"element": "H" 
			},
			{
				"x": -2.879402204,
				"y": 2.2681031002,
				"z": -2.5487754875,
				"element": "H" 
			},
			{
				"x": -2.5852450366,
				"y": 3.5884257177,
				"z": -1.3805321153,
				"element": "H" 
			},
			{
				"x": -1.383269248,
				"y": 1.6451614416,
				"z": -0.8475671143,
				"element": "H" 
			},
			{
				"x": -0.3174659276,
				"y": 0.0518001167,
				"z": 0.669908529,
				"element": "H" 
			},
			{
				"x": -2.037143475,
				"y": -1.4411506449,
				"z": 3.6390454722,
				"element": "H" 
			},
			{
				"x": -0.1631312086,
				"y": -2.7403229389,
				"z": 3.5125101405,
				"element": "H" 
			},
			{
				"x": 2.1598054016,
				"y": -2.812410713,
				"z": 2.703106821,
				"element": "H" 
			},
			{
				"x": 3.6742299803,
				"y": -3.4627395894,
				"z": 0.8602131781,
				"element": "H" 
			},
			{
				"x": 2.806881155,
				"y": -3.629268455,
				"z": -1.4674896119,
				"element": "H" 
			},
			{
				"x": 0.4068945337,
				"y": -3.151747216,
				"z": -1.9190781738,
				"element": "H" 
			},
			{
				"x": -1.0990054884,
				"y": -2.4914517946,
				"z": -0.0787584983,
				"element": "H" 
			},
			{
				"x": -4.1004791056,
				"y": -0.7264470311,
				"z": 2.5491597111,
				"element": "H" 
			},
			{
				"x": -5.188847959,
				"y": 0.8809180002,
				"z": 1.0026607442,
				"element": "H" 
			}
		],
		 "valence_orbital": [ 
			{
				"type": "occ",
				"energy": -0.28407,
				"method": "rhf"
			},
			{
				"type": "occ",
				"energy": -0.25107,
				"method": "rhf"
			},
			{
				"type": "occ",
				"energy": -0.2447,
				"method": "rhf"
			},
			{
				"type": "occ",
				"energy": -0.23924,
				"method": "rhf"
			},
			{
				"type": "occ",
				"energy": -0.19554,
				"method": "rhf"
			},
			{
				"type": "unocc",
				"energy": -0.03739,
				"method": "rhf"
			},
			{
				"type": "unocc",
				"energy": -0.00329,
				"method": "rhf"
			},
			{
				"type": "unocc",
				"energy": 0.00844,
				"method": "rhf"
			},
			{
				"type": "unocc",
				"energy": 0.01859,
				"method": "rhf"
			},
			{
				"type": "unocc",
				"energy": 0.07113,
				"method": "rhf"
			}
		],
		"cosmo_sigma_profile": { 
			"-0.025": 0.0,
			"-0.024": 0.0,
			"-0.023": 0.0,
			"-0.022": 0.0,
			"-0.021": 0.0,
			"-0.02": 0.0,
			"-0.019": 0.0,
			"-0.018": 0.0,
			"-0.017": 0.0,
			"-0.016": 0.0,
			"-0.015": 0.0,
			"-0.014": 0.0,
			"-0.013": 0.0,
			"-0.012": 0.0,
			"-0.011": 0.0,
			"-0.01": 0.0,
			"-0.009": 0.0,
			"-0.008": 0.0,
			"-0.007": 0.181933052574,
			"-0.006": 9.73623179461,
			"-0.005": 29.4843848126,
			"-0.004": 28.7379297629,
			"-0.003": 29.28334378,
			"-0.002": 17.4005982709,
			"-0.001": 16.630850027,
			"0.0": 16.2920769564,
			"0.001": 15.4056011645,
			"0.002": 16.9157125066,
			"0.003": 21.0612152281,
			"0.004": 25.5947170242,
			"0.005": 22.4940948029,
			"0.006": 12.7732656417,
			"0.007": 1.67310660189,
			"0.008": 1.34464652541,
			"0.009": 1.55427214875,
			"0.01": 1.429040823,
			"0.011": 0.433617115932,
			"0.012": 0.0,
			"0.013": 0.0,
			"0.014": 0.0,
			"0.015": 0.0,
			"0.016": 0.0,
			"0.017": 0.0,
			"0.018": 0.0,
			"0.019": 0.0,
			"0.02": 0.0,
			"0.021": 0.0,
			"0.022": 0.0,
			"0.023": 0.0,
			"0.024": 0.0,
			"0.025": 0.0
		}
	}
}
