{
	 "smiles": "CC1=CC(=CC=C1[N+]([O-])=O)[N+]([O-])=O", 
	 "Tm": 325.65, 
	 "num_atms": 19, 
	 "gaussian": { 
		 "optdone": 1, 
		 "sigma_profile": "yes", 
		 "theory": "DFT", 
		 "functional": "B3LYP", 
		 "basiset": "6-31G**", 
		 "properties": { 
			 "R2extent": 2828.3891, 
			 "electric_dipole_moment_norm": 0.879948839422, 
			 "electric_quadrupole_moment_norm": 20.5332880501, 
			 "total_energy": -680.557219559, 
			 "HOMO_LUMO_gap": 0.17077, 
			 "cosmo_polarized_energy": -10.37, 
			 "cosmo_cavitation_energy": 24.71, 
			 "cosmo_dispersion_energy": -18.13, 
			 "cosmo_repulsion_energy": 1.42, 
			 "cosmo_total_nonelectrostatic_energy": 7.99, 
			 "SMD_solvation_energy": 8.73 
		},
		"coords": [
			{
				"x": 1.2307210981,
				"y": -1.9020353527,
				"z": -2.0359664003,
				"element": "C" 
			},
			{
				"x": 0.3649135295,
				"y": -1.1706540951,
				"z": -1.0398884533,
				"element": "C" 
			},
			{
				"x": -0.2899629286,
				"y": -0.0015241386,
				"z": -1.4518525449,
				"element": "C" 
			},
			{
				"x": -1.0986965906,
				"y": 0.7121549184,
				"z": -0.575877422,
				"element": "C" 
			},
			{
				"x": -1.2929735916,
				"y": 0.3239065852,
				"z": 0.7464528065,
				"element": "C" 
			},
			{
				"x": -0.6431303675,
				"y": -0.8216863533,
				"z": 1.1835651753,
				"element": "C" 
			},
			{
				"x": 0.159399381,
				"y": -1.5510589358,
				"z": 0.3018797227,
				"element": "C" 
			},
			{
				"x": 0.7916692023,
				"y": -2.763502292,
				"z": 0.8649003072,
				"element": "N" 
			},
			{
				"x": 1.1979116934,
				"y": -3.620797665,
				"z": 0.0822553895,
				"element": "O" 
			},
			{
				"x": 0.8626298513,
				"y": -2.8465065702,
				"z": 2.0894749761,
				"element": "O" 
			},
			{
				"x": -1.772545004,
				"y": 1.9322832819,
				"z": -1.0673235242,
				"element": "N" 
			},
			{
				"x": -2.4822478185,
				"y": 2.542851429,
				"z": -0.2714878066,
				"element": "O" 
			},
			{
				"x": -1.5801138253,
				"y": 2.2558814133,
				"z": -2.2370526509,
				"element": "O" 
			},
			{
				"x": 2.2206319476,
				"y": -2.1230524158,
				"z": -1.6304873014,
				"element": "H" 
			},
			{
				"x": 1.3443536018,
				"y": -1.2957655085,
				"z": -2.9375678891,
				"element": "H" 
			},
			{
				"x": 0.7895733475,
				"y": -2.863854301,
				"z": -2.3092289274,
				"element": "H" 
			},
			{
				"x": -0.1724753206,
				"y": 0.361199941,
				"z": -2.4654842027,
				"element": "H" 
			},
			{
				"x": -1.9291418417,
				"y": 0.9082274239,
				"z": 1.3982118639,
				"element": "H" 
			},
			{
				"x": -0.7416163641,
				"y": -1.1689673649,
				"z": 2.2038768815,
				"element": "H" 
			}
		],
		 "valence_orbital": [ 
			{
				"type": "occ",
				"energy": -0.32322,
				"method": "rhf"
			},
			{
				"type": "occ",
				"energy": -0.3157,
				"method": "rhf"
			},
			{
				"type": "occ",
				"energy": -0.30929,
				"method": "rhf"
			},
			{
				"type": "occ",
				"energy": -0.30068,
				"method": "rhf"
			},
			{
				"type": "occ",
				"energy": -0.29383,
				"method": "rhf"
			},
			{
				"type": "unocc",
				"energy": -0.12306,
				"method": "rhf"
			},
			{
				"type": "unocc",
				"energy": -0.07937,
				"method": "rhf"
			},
			{
				"type": "unocc",
				"energy": -0.04885,
				"method": "rhf"
			},
			{
				"type": "unocc",
				"energy": -0.00778,
				"method": "rhf"
			},
			{
				"type": "unocc",
				"energy": 0.0672,
				"method": "rhf"
			}
		],
		"cosmo_sigma_profile": { 
			"-0.025": 0.0,
			"-0.024": 0.0,
			"-0.023": 0.0,
			"-0.022": 0.0,
			"-0.021": 0.0,
			"-0.02": 0.0,
			"-0.019": 0.0,
			"-0.018": 0.0,
			"-0.017": 0.0,
			"-0.016": 0.0,
			"-0.015": 0.0,
			"-0.014": 0.0,
			"-0.013": 0.0,
			"-0.012": 0.0,
			"-0.011": 0.0,
			"-0.01": 0.0,
			"-0.009": 1.58273990656,
			"-0.008": 7.29447087136,
			"-0.007": 8.68973551241,
			"-0.006": 8.62373599785,
			"-0.005": 13.3927079023,
			"-0.004": 12.7383240322,
			"-0.003": 17.7264788133,
			"-0.002": 23.5599435134,
			"-0.001": 21.209359862,
			"0.0": 9.89450013583,
			"0.001": 5.97599179197,
			"0.002": 5.06664574764,
			"0.003": 4.08701912287,
			"0.004": 5.82056524868,
			"0.005": 7.40665553754,
			"0.006": 9.41509368999,
			"0.007": 17.3951160178,
			"0.008": 9.60073907668,
			"0.009": 7.23354609184,
			"0.01": 1.53159729069,
			"0.011": 0.0,
			"0.012": 0.0,
			"0.013": 0.0,
			"0.014": 0.0,
			"0.015": 0.0,
			"0.016": 0.0,
			"0.017": 0.0,
			"0.018": 0.0,
			"0.019": 0.0,
			"0.02": 0.0,
			"0.021": 0.0,
			"0.022": 0.0,
			"0.023": 0.0,
			"0.024": 0.0,
			"0.025": 0.0
		}
	}
}
