{
	 "smiles": "ICC(=O)C1=CC=CC=C1", 
	 "Tm": 307.55, 
	 "num_atms": 17, 
	 "gaussian": { 
		 "optdone": 1, 
		 "sigma_profile": "no", 
		 "theory": "DFT", 
		 "functional": "B3LYP", 
		 "basiset": "6-31G**", 
		 "properties": { 
			 "R2extent": 1817.7391, 
			 "electric_dipole_moment_norm": 4.46321097081, 
			 "electric_quadrupole_moment_norm": 7.45762287797, 
			 "total_energy": -395.678552314, 
			 "HOMO_LUMO_gap": 0.18904, 
			 "cosmo_polarized_energy": -109499.87, 
			 "cosmo_cavitation_energy": 24.34, 
			 "cosmo_dispersion_energy": -19.43, 
			 "cosmo_repulsion_energy": 1.54, 
			 "cosmo_total_nonelectrostatic_energy": 6.44, 
			 "SMD_solvation_energy": 3.73 
		},
		"coords": [
			{
				"x": 1.1551252116,
				"y": 4.5876508771,
				"z": -0.7116255538,
				"element": "I" 
			},
			{
				"x": 0.3187109752,
				"y": 2.6076576454,
				"z": -0.8818019317,
				"element": "C" 
			},
			{
				"x": 0.6476962731,
				"y": 1.6907625116,
				"z": 0.2979773076,
				"element": "C" 
			},
			{
				"x": 1.3214180394,
				"y": 2.0586129753,
				"z": 1.2408827682,
				"element": "O" 
			},
			{
				"x": 0.0925304327,
				"y": 0.2971511927,
				"z": 0.2364644033,
				"element": "C" 
			},
			{
				"x": -0.6903363932,
				"y": -0.1781253772,
				"z": -0.827863442,
				"element": "C" 
			},
			{
				"x": -1.1727808337,
				"y": -1.4865775784,
				"z": -0.8173533707,
				"element": "C" 
			},
			{
				"x": -0.8787121392,
				"y": -2.3317471776,
				"z": 0.2541716551,
				"element": "C" 
			},
			{
				"x": -0.0998538135,
				"y": -1.8666650902,
				"z": 1.3181545375,
				"element": "C" 
			},
			{
				"x": 0.3823386256,
				"y": -0.5618024615,
				"z": 1.3095843056,
				"element": "C" 
			},
			{
				"x": 0.7018016663,
				"y": 2.1901869738,
				"z": -1.8144841922,
				"element": "H" 
			},
			{
				"x": -0.7603178881,
				"y": 2.7363214439,
				"z": -0.9822435061,
				"element": "H" 
			},
			{
				"x": -0.9296331215,
				"y": 0.463603119,
				"z": -1.6696166443,
				"element": "H" 
			},
			{
				"x": -1.7774355584,
				"y": -1.845342555,
				"z": -1.6448587113,
				"element": "H" 
			},
			{
				"x": -1.2553970225,
				"y": -3.3505305788,
				"z": 0.2605051711,
				"element": "H" 
			},
			{
				"x": 0.1295736873,
				"y": -2.523163663,
				"z": 2.1522475932,
				"element": "H" 
			},
			{
				"x": 0.9882718588,
				"y": -0.178692257,
				"z": 2.1234596106,
				"element": "H" 
			}
		],
		 "valence_orbital": [ 
			{
				"type": "occ",
				"energy": -0.27279,
				"method": "rhf"
			},
			{
				"type": "occ",
				"energy": -0.26846,
				"method": "rhf"
			},
			{
				"type": "occ",
				"energy": -0.26692,
				"method": "rhf"
			},
			{
				"type": "occ",
				"energy": -0.25779,
				"method": "rhf"
			},
			{
				"type": "occ",
				"energy": -0.25676,
				"method": "rhf"
			},
			{
				"type": "unocc",
				"energy": -0.06772,
				"method": "rhf"
			},
			{
				"type": "unocc",
				"energy": -0.04186,
				"method": "rhf"
			},
			{
				"type": "unocc",
				"energy": -0.01932,
				"method": "rhf"
			},
			{
				"type": "unocc",
				"energy": 0.02606,
				"method": "rhf"
			},
			{
				"type": "unocc",
				"energy": 0.046,
				"method": "rhf"
			}
		],
		"cosmo_sigma_profile": { 
			"0.0": 0.0,
			"0.0": 0.0,
			"0.0": 0.0,
			"0.0": 0.0,
			"0.0": 0.0,
			"0.0": 0.0,
			"0.0": 0.0,
			"0.0": 0.0,
			"0.0": 0.0,
			"0.0": 0.0,
			"0.0": 0.0,
			"0.0": 0.0,
			"0.0": 0.0,
			"0.0": 0.0,
			"0.0": 0.0,
			"0.0": 0.0,
			"0.0": 0.0,
			"0.0": 0.0,
			"0.0": 0.0,
			"0.0": 0.0,
			"0.0": 0.0,
			"0.0": 0.0,
			"0.0": 0.0,
			"0.0": 0.0,
			"0.0": 0.0,
			"0.0": 0.0,
			"0.0": 0.0,
			"0.0": 0.0,
			"0.0": 0.0,
			"0.0": 0.0,
			"0.0": 0.0,
			"0.0": 0.0,
			"0.0": 0.0,
			"0.0": 0.0,
			"0.0": 0.0,
			"0.0": 0.0,
			"0.0": 0.0,
			"0.0": 0.0,
			"0.0": 0.0,
			"0.0": 0.0,
			"0.0": 0.0,
			"0.0": 0.0,
			"0.0": 0.0,
			"0.0": 0.0,
			"0.0": 0.0,
			"0.0": 0.0,
			"0.0": 0.0,
			"0.0": 0.0,
			"0.0": 0.0,
			"0.0": 0.0,
			"0.0": 0.0
		}
	}
}
