{
	 "smiles": "COC1=C(OC)C(Cl)=C(C=C1)C(O)=O", 
	 "Tm": 467.15, 
	 "num_atms": 23, 
	 "gaussian": { 
		 "optdone": 1, 
		 "sigma_profile": "yes", 
		 "theory": "DFT", 
		 "functional": "B3LYP", 
		 "basiset": "6-31G**", 
		 "properties": { 
			 "R2extent": 3766.6959, 
			 "electric_dipole_moment_norm": 5.75296526671, 
			 "electric_quadrupole_moment_norm": 17.925010894, 
			 "total_energy": -1109.43912975, 
			 "HOMO_LUMO_gap": 0.19886, 
			 "cosmo_polarized_energy": -12.1, 
			 "cosmo_cavitation_energy": 28.61, 
			 "cosmo_dispersion_energy": -20.9, 
			 "cosmo_repulsion_energy": 1.64, 
			 "cosmo_total_nonelectrostatic_energy": 9.34, 
			 "SMD_solvation_energy": 7.41 
		},
		"coords": [
			{
				"x": -0.8500358803,
				"y": -2.4974720496,
				"z": 0.8531447204,
				"element": "C" 
			},
			{
				"x": -1.287264113,
				"y": -1.2477108682,
				"z": 1.4126754928,
				"element": "O" 
			},
			{
				"x": -0.4511806615,
				"y": -0.1824537987,
				"z": 1.2172714163,
				"element": "C" 
			},
			{
				"x": -0.2547660687,
				"y": 0.3600086567,
				"z": -0.0677950894,
				"element": "C" 
			},
			{
				"x": -0.8510081137,
				"y": -0.2012193029,
				"z": -1.1633661068,
				"element": "O" 
			},
			{
				"x": -2.2639933745,
				"y": 0.0447410552,
				"z": -1.2752936938,
				"element": "C" 
			},
			{
				"x": 0.5955416408,
				"y": 1.4657802155,
				"z": -0.22022895,
				"element": "C" 
			},
			{
				"x": 0.7682043517,
				"y": 2.0524566627,
				"z": -1.8801754581,
				"element": "Cl" 
			},
			{
				"x": 1.2466445221,
				"y": 2.0631120712,
				"z": 0.8766494216,
				"element": "C" 
			},
			{
				"x": 0.9933208701,
				"y": 1.5098250179,
				"z": 2.143057776,
				"element": "C" 
			},
			{
				"x": 0.1676404316,
				"y": 0.409026576,
				"z": 2.3181051701,
				"element": "C" 
			},
			{
				"x": 2.1944155766,
				"y": 3.2483836065,
				"z": 0.896565325,
				"element": "C" 
			},
			{
				"x": 2.5808246849,
				"y": 3.8124770651,
				"z": -0.2602152528,
				"element": "O" 
			},
			{
				"x": 2.6141699896,
				"y": 3.684421329,
				"z": 1.9458738036,
				"element": "O" 
			},
			{
				"x": 0.0959905994,
				"y": -2.8101772391,
				"z": 1.3104341281,
				"element": "H" 
			},
			{
				"x": -0.7305365251,
				"y": -2.4287067328,
				"z": -0.2312583897,
				"element": "H" 
			},
			{
				"x": -1.6274175159,
				"y": -3.2229711418,
				"z": 1.0976275132,
				"element": "H" 
			},
			{
				"x": -2.8000487765,
				"y": -0.3524330522,
				"z": -0.4084576015,
				"element": "H" 
			},
			{
				"x": -2.5870488636,
				"y": -0.4704021507,
				"z": -2.1811255135,
				"element": "H" 
			},
			{
				"x": -2.4611407463,
				"y": 1.1177376,
				"z": -1.376222199,
				"element": "H" 
			},
			{
				"x": 1.4873612337,
				"y": 1.9776834833,
				"z": 2.9862372105,
				"element": "H" 
			},
			{
				"x": -0.0087136648,
				"y": -0.0134845231,
				"z": 3.3014479756,
				"element": "H" 
			},
			{
				"x": 2.1679404033,
				"y": 3.37807752,
				"z": -1.0252516986,
				"element": "H" 
			}
		],
		 "valence_orbital": [ 
			{
				"type": "occ",
				"energy": -0.30704,
				"method": "rhf"
			},
			{
				"type": "occ",
				"energy": -0.28971,
				"method": "rhf"
			},
			{
				"type": "occ",
				"energy": -0.27233,
				"method": "rhf"
			},
			{
				"type": "occ",
				"energy": -0.26356,
				"method": "rhf"
			},
			{
				"type": "occ",
				"energy": -0.25463,
				"method": "rhf"
			},
			{
				"type": "unocc",
				"energy": -0.05577,
				"method": "rhf"
			},
			{
				"type": "unocc",
				"energy": -0.02677,
				"method": "rhf"
			},
			{
				"type": "unocc",
				"energy": 0.00039,
				"method": "rhf"
			},
			{
				"type": "unocc",
				"energy": 0.04896,
				"method": "rhf"
			},
			{
				"type": "unocc",
				"energy": 0.07456,
				"method": "rhf"
			}
		],
		"cosmo_sigma_profile": { 
			"-0.025": 0.0,
			"-0.024": 0.0,
			"-0.023": 0.0,
			"-0.022": 0.0,
			"-0.021": 0.0,
			"-0.02": 0.0,
			"-0.019": 0.0,
			"-0.018": 0.0,
			"-0.017": 0.0,
			"-0.016": 0.0,
			"-0.015": 0.0,
			"-0.014": 0.0,
			"-0.013": 0.0,
			"-0.012": 0.115977739594,
			"-0.011": 0.758741559536,
			"-0.01": 0.988717654324,
			"-0.009": 1.5613654798,
			"-0.008": 2.33457358764,
			"-0.007": 4.44336335731,
			"-0.006": 10.6500705919,
			"-0.005": 16.1927319048,
			"-0.004": 21.439381034,
			"-0.003": 27.632539724,
			"-0.002": 20.2100586422,
			"-0.001": 18.9517685297,
			"0.0": 18.8942713913,
			"0.001": 16.620708832,
			"0.002": 14.5738726434,
			"0.003": 8.25124147437,
			"0.004": 5.9868285627,
			"0.005": 5.02901749206,
			"0.006": 3.6610905005,
			"0.007": 4.55916503245,
			"0.008": 4.92758558969,
			"0.009": 5.32665730677,
			"0.01": 5.93407278242,
			"0.011": 5.88697369414,
			"0.012": 4.16240590581,
			"0.013": 1.53117017502,
			"0.014": 0.0788016585623,
			"0.015": 0.0,
			"0.016": 0.0,
			"0.017": 0.0,
			"0.018": 0.0,
			"0.019": 0.0,
			"0.02": 0.0,
			"0.021": 0.0,
			"0.022": 0.0,
			"0.023": 0.0,
			"0.024": 0.0,
			"0.025": 0.0
		}
	}
}
