{
	 "smiles": "OC(=O)CCNC(=O)C1=CC=C(Cl)C=C1", 
	 "Tm": 441.15, 
	 "num_atms": 25, 
	 "gaussian": { 
		 "optdone": 1, 
		 "sigma_profile": "yes", 
		 "theory": "DFT", 
		 "functional": "B3LYP", 
		 "basiset": "6-31G**", 
		 "properties": { 
			 "R2extent": 5288.7426, 
			 "electric_dipole_moment_norm": 3.58929990527, 
			 "electric_quadrupole_moment_norm": 27.537528577, 
			 "total_energy": -1127.72595955, 
			 "HOMO_LUMO_gap": 0.2026, 
			 "cosmo_polarized_energy": -23.94, 
			 "cosmo_cavitation_energy": 32.11, 
			 "cosmo_dispersion_energy": -22.81, 
			 "cosmo_repulsion_energy": 1.83, 
			 "cosmo_total_nonelectrostatic_energy": 11.12, 
			 "SMD_solvation_energy": 6.43 
		},
		"coords": [
			{
				"x": -3.8491412629,
				"y": 1.7039855937,
				"z": 2.1945742018,
				"element": "O" 
			},
			{
				"x": -2.5251129175,
				"y": 1.4260961118,
				"z": 2.0660833626,
				"element": "C" 
			},
			{
				"x": -1.9253327399,
				"y": 0.8973202214,
				"z": 2.9680819585,
				"element": "O" 
			},
			{
				"x": -1.8948724442,
				"y": 1.8183469541,
				"z": 0.7359646425,
				"element": "C" 
			},
			{
				"x": -0.3924464236,
				"y": 1.515229515,
				"z": 0.7042262248,
				"element": "C" 
			},
			{
				"x": 0.2101748152,
				"y": 1.8932100096,
				"z": -0.5710611635,
				"element": "N" 
			},
			{
				"x": 1.098659621,
				"y": 1.1647935227,
				"z": -1.3381564282,
				"element": "C" 
			},
			{
				"x": 1.9077803649,
				"y": 1.7364314662,
				"z": -2.0612087369,
				"element": "O" 
			},
			{
				"x": 1.0238233109,
				"y": -0.3352688373,
				"z": -1.3119147446,
				"element": "C" 
			},
			{
				"x": -0.1784518135,
				"y": -1.049792904,
				"z": -1.2267938792,
				"element": "C" 
			},
			{
				"x": -0.1875438333,
				"y": -2.4429061708,
				"z": -1.287743823,
				"element": "C" 
			},
			{
				"x": 1.0219051093,
				"y": -3.1224509347,
				"z": -1.4285924479,
				"element": "C" 
			},
			{
				"x": 1.0213721765,
				"y": -4.8762051342,
				"z": -1.4928503362,
				"element": "Cl" 
			},
			{
				"x": 2.2313609701,
				"y": -2.4323728108,
				"z": -1.5302352306,
				"element": "C" 
			},
			{
				"x": 2.2220998158,
				"y": -1.0415869682,
				"z": -1.485085238,
				"element": "C" 
			},
			{
				"x": -4.1871066449,
				"y": 2.1268756423,
				"z": 1.3922202935,
				"element": "H" 
			},
			{
				"x": -2.0742121097,
				"y": 2.887560945,
				"z": 0.5568775761,
				"element": "H" 
			},
			{
				"x": -2.4084606606,
				"y": 1.2854369862,
				"z": -0.0753739971,
				"element": "H" 
			},
			{
				"x": 0.0975479403,
				"y": 2.0462563678,
				"z": 1.528660614,
				"element": "H" 
			},
			{
				"x": -0.2269786068,
				"y": 0.453815107,
				"z": 0.8850477077,
				"element": "H" 
			},
			{
				"x": 0.3827598467,
				"y": 2.8845573602,
				"z": -0.6967678115,
				"element": "H" 
			},
			{
				"x": -1.1224575328,
				"y": -0.5208454146,
				"z": -1.1445702347,
				"element": "H" 
			},
			{
				"x": -1.1187946845,
				"y": -2.9953979768,
				"z": -1.2327333346,
				"element": "H" 
			},
			{
				"x": 3.1600454446,
				"y": -2.9787794291,
				"z": -1.6510208549,
				"element": "H" 
			},
			{
				"x": 3.1451822591,
				"y": -0.4819092225,
				"z": -1.5910283205,
				"element": "H" 
			}
		],
		 "valence_orbital": [ 
			{
				"type": "occ",
				"energy": -0.28933,
				"method": "rhf"
			},
			{
				"type": "occ",
				"energy": -0.27553,
				"method": "rhf"
			},
			{
				"type": "occ",
				"energy": -0.27113,
				"method": "rhf"
			},
			{
				"type": "occ",
				"energy": -0.26027,
				"method": "rhf"
			},
			{
				"type": "occ",
				"energy": -0.24871,
				"method": "rhf"
			},
			{
				"type": "unocc",
				"energy": -0.04611,
				"method": "rhf"
			},
			{
				"type": "unocc",
				"energy": -0.02457,
				"method": "rhf"
			},
			{
				"type": "unocc",
				"energy": -0.00533,
				"method": "rhf"
			},
			{
				"type": "unocc",
				"energy": 0.02218,
				"method": "rhf"
			},
			{
				"type": "unocc",
				"energy": 0.03702,
				"method": "rhf"
			}
		],
		"cosmo_sigma_profile": { 
			"-0.025": 0.0,
			"-0.024": 0.0,
			"-0.023": 0.0,
			"-0.022": 0.0,
			"-0.021": 0.0,
			"-0.02": 0.0,
			"-0.019": 0.887073450899,
			"-0.018": 1.06201882177,
			"-0.017": 1.05473145113,
			"-0.016": 1.39003883166,
			"-0.015": 0.987223435336,
			"-0.014": 1.01379739501,
			"-0.013": 2.26719187669,
			"-0.012": 2.26750282985,
			"-0.011": 2.41068657108,
			"-0.01": 3.43861267245,
			"-0.009": 2.49792301943,
			"-0.008": 8.33074831284,
			"-0.007": 13.1047313135,
			"-0.006": 15.0664230398,
			"-0.005": 11.7191127446,
			"-0.004": 12.5881698241,
			"-0.003": 14.4211669202,
			"-0.002": 12.7563448502,
			"-0.001": 12.3381380099,
			"0.0": 13.9591893287,
			"0.001": 17.6212359745,
			"0.002": 22.4287436464,
			"0.003": 17.0848206725,
			"0.004": 13.671614497,
			"0.005": 7.29472060449,
			"0.006": 3.3667632601,
			"0.007": 4.50427485169,
			"0.008": 3.37599637932,
			"0.009": 4.20778068838,
			"0.01": 6.69882660392,
			"0.011": 7.63028205081,
			"0.012": 6.44606109958,
			"0.013": 6.36654477188,
			"0.014": 3.27741056756,
			"0.015": 0.0759843455996,
			"0.016": 0.0,
			"0.017": 0.0,
			"0.018": 0.0,
			"0.019": 0.0,
			"0.02": 0.0,
			"0.021": 0.0,
			"0.022": 0.0,
			"0.023": 0.0,
			"0.024": 0.0,
			"0.025": 0.0
		}
	}
}
