{
	 "smiles": "FC(F)C1=NN=C2C=CC(Cl)=NN12", 
	 "Tm": 375.15, 
	 "num_atms": 16, 
	 "gaussian": { 
		 "optdone": 1, 
		 "sigma_profile": "yes", 
		 "theory": "DFT", 
		 "functional": "B3LYP", 
		 "basiset": "6-31G**", 
		 "properties": { 
			 "R2extent": 2948.6861, 
			 "electric_dipole_moment_norm": 5.14400205871, 
			 "electric_quadrupole_moment_norm": 14.9831361707, 
			 "total_energy": -1109.2434841, 
			 "HOMO_LUMO_gap": 0.17095, 
			 "cosmo_polarized_energy": -14.8, 
			 "cosmo_cavitation_energy": 24.42, 
			 "cosmo_dispersion_energy": -17.93, 
			 "cosmo_repulsion_energy": 1.38, 
			 "cosmo_total_nonelectrostatic_energy": 7.87, 
			 "SMD_solvation_energy": 2.06 
		},
		"coords": [
			{
				"x": -1.2439491356,
				"y": -0.4560164155,
				"z": -3.6535520625,
				"element": "F" 
			},
			{
				"x": -1.1581602816,
				"y": -0.1442696054,
				"z": -2.3396595077,
				"element": "C" 
			},
			{
				"x": -0.8761897874,
				"y": 1.1897735999,
				"z": -2.2227132703,
				"element": "F" 
			},
			{
				"x": -0.0564160973,
				"y": -0.9413793129,
				"z": -1.7092229136,
				"element": "C" 
			},
			{
				"x": 0.8614020058,
				"y": -1.6721758896,
				"z": -2.3176486653,
				"element": "N" 
			},
			{
				"x": 1.6945339202,
				"y": -2.2119546631,
				"z": -1.3830889368,
				"element": "N" 
			},
			{
				"x": 1.2706646571,
				"y": -1.7989296127,
				"z": -0.1966298158,
				"element": "C" 
			},
			{
				"x": 1.7174038445,
				"y": -2.0187851274,
				"z": 1.1290380088,
				"element": "C" 
			},
			{
				"x": 1.0193162577,
				"y": -1.4247949995,
				"z": 2.1435834669,
				"element": "C" 
			},
			{
				"x": -0.1217751572,
				"y": -0.619315816,
				"z": 1.8160248934,
				"element": "C" 
			},
			{
				"x": -1.0085303382,
				"y": 0.1223087223,
				"z": 3.1192208996,
				"element": "Cl" 
			},
			{
				"x": -0.5698357278,
				"y": -0.3830596093,
				"z": 0.61545437,
				"element": "N" 
			},
			{
				"x": 0.1507811991,
				"y": -0.9848436253,
				"z": -0.3589815827,
				"element": "N" 
			},
			{
				"x": -2.1275570526,
				"y": -0.3221783634,
				"z": -1.8592246787,
				"element": "H" 
			},
			{
				"x": 2.5873208855,
				"y": -2.6416370273,
				"z": 1.3020818554,
				"element": "H" 
			},
			{
				"x": 1.2996908079,
				"y": -1.5436422549,
				"z": 3.1823179394,
				"element": "H" 
			}
		],
		 "valence_orbital": [ 
			{
				"type": "occ",
				"energy": -0.34594,
				"method": "rhf"
			},
			{
				"type": "occ",
				"energy": -0.33277,
				"method": "rhf"
			},
			{
				"type": "occ",
				"energy": -0.29874,
				"method": "rhf"
			},
			{
				"type": "occ",
				"energy": -0.27498,
				"method": "rhf"
			},
			{
				"type": "occ",
				"energy": -0.26859,
				"method": "rhf"
			},
			{
				"type": "unocc",
				"energy": -0.09764,
				"method": "rhf"
			},
			{
				"type": "unocc",
				"energy": -0.04418,
				"method": "rhf"
			},
			{
				"type": "unocc",
				"energy": -0.0021,
				"method": "rhf"
			},
			{
				"type": "unocc",
				"energy": 0.00759,
				"method": "rhf"
			},
			{
				"type": "unocc",
				"energy": 0.08048,
				"method": "rhf"
			}
		],
		"cosmo_sigma_profile": { 
			"-0.025": 0.0,
			"-0.024": 0.0,
			"-0.023": 0.0,
			"-0.022": 0.0,
			"-0.021": 0.0,
			"-0.02": 0.0,
			"-0.019": 0.0,
			"-0.018": 0.0,
			"-0.017": 0.0,
			"-0.016": 0.0,
			"-0.015": 0.0,
			"-0.014": 0.0,
			"-0.013": 0.0,
			"-0.012": 0.0,
			"-0.011": 1.97524922572,
			"-0.01": 7.26282558279,
			"-0.009": 6.20325944931,
			"-0.008": 7.44776448934,
			"-0.007": 6.74488874353,
			"-0.006": 8.4685338265,
			"-0.005": 7.85101980545,
			"-0.004": 13.4196254261,
			"-0.003": 13.2700348409,
			"-0.002": 11.4595625798,
			"-0.001": 10.7542433999,
			"0.0": 9.25124366768,
			"0.001": 10.5769249083,
			"0.002": 14.0120216915,
			"0.003": 22.5693628047,
			"0.004": 18.1336330795,
			"0.005": 3.74745135033,
			"0.006": 3.71274837466,
			"0.007": 2.65883244746,
			"0.008": 2.33462115735,
			"0.009": 3.21945993794,
			"0.01": 3.27978953405,
			"0.011": 2.64067658502,
			"0.012": 3.41237858473,
			"0.013": 2.49225749845,
			"0.014": 2.12111033725,
			"0.015": 1.33222990136,
			"0.016": 0.090580134346,
			"0.017": 0.0,
			"0.018": 0.0,
			"0.019": 0.0,
			"0.02": 0.0,
			"0.021": 0.0,
			"0.022": 0.0,
			"0.023": 0.0,
			"0.024": 0.0,
			"0.025": 0.0
		}
	}
}
