{
	 "smiles": "[O-][N+](=O)C1=CC2=C(OCCOCCOCCOCCO2)C=C1", 
	 "Tm": 369.65, 
	 "num_atms": 41, 
	 "gaussian": { 
		 "optdone": 1, 
		 "sigma_profile": "yes", 
		 "theory": "DFT", 
		 "functional": "B3LYP", 
		 "basiset": "6-31G**", 
		 "properties": { 
			 "R2extent": 8294.991, 
			 "electric_dipole_moment_norm": 6.28626614215, 
			 "electric_quadrupole_moment_norm": 30.2352443807, 
			 "total_energy": -1126.08311698, 
			 "HOMO_LUMO_gap": 0.14917, 
			 "cosmo_polarized_energy": -20.87, 
			 "cosmo_cavitation_energy": 42.65, 
			 "cosmo_dispersion_energy": -29.56, 
			 "cosmo_repulsion_energy": 2.22, 
			 "cosmo_total_nonelectrostatic_energy": 15.31, 
			 "SMD_solvation_energy": 9.45 
		},
		"coords": [
			{
				"x": -5.0835874577,
				"y": 1.8615567884,
				"z": -1.8396187366,
				"element": "O" 
			},
			{
				"x": -4.1965020053,
				"y": 1.912392961,
				"z": -2.6947380396,
				"element": "N" 
			},
			{
				"x": -4.3853733351,
				"y": 2.2005051552,
				"z": -3.8780506223,
				"element": "O" 
			},
			{
				"x": -2.8277835956,
				"y": 1.6115698231,
				"z": -2.2748731721,
				"element": "C" 
			},
			{
				"x": -2.5979189469,
				"y": 1.271552176,
				"z": -0.9360691237,
				"element": "C" 
			},
			{
				"x": -1.3036916367,
				"y": 0.9814920063,
				"z": -0.5280370901,
				"element": "C" 
			},
			{
				"x": -0.2318859885,
				"y": 1.0567576542,
				"z": -1.4636237976,
				"element": "C" 
			},
			{
				"x": 0.9952594919,
				"y": 0.8157527469,
				"z": -0.9383339028,
				"element": "O" 
			},
			{
				"x": 2.106248756,
				"y": 0.5053895305,
				"z": -1.7799703402,
				"element": "C" 
			},
			{
				"x": 2.1049638581,
				"y": -0.9637094104,
				"z": -2.2080897116,
				"element": "C" 
			},
			{
				"x": 2.0949541009,
				"y": -1.8646105292,
				"z": -1.1209409095,
				"element": "O" 
			},
			{
				"x": 3.3285835395,
				"y": -2.0215524526,
				"z": -0.424306047,
				"element": "C" 
			},
			{
				"x": 3.1451866107,
				"y": -1.7990092065,
				"z": 1.0711466736,
				"element": "C" 
			},
			{
				"x": 2.4113434102,
				"y": -2.8694323872,
				"z": 1.6440512359,
				"element": "O" 
			},
			{
				"x": 1.2977579002,
				"y": -2.5038181163,
				"z": 2.4478230897,
				"element": "C" 
			},
			{
				"x": 0.0618707988,
				"y": -2.2190417744,
				"z": 1.5881772061,
				"element": "C" 
			},
			{
				"x": -1.079103006,
				"y": -1.9380095651,
				"z": 2.4062288429,
				"element": "O" 
			},
			{
				"x": -1.2844294124,
				"y": -0.5853014271,
				"z": 2.7666892312,
				"element": "C" 
			},
			{
				"x": -1.9519928479,
				"y": 0.2415235135,
				"z": 1.6724298935,
				"element": "C" 
			},
			{
				"x": -0.9446207458,
				"y": 0.6114663131,
				"z": 0.7259311756,
				"element": "O" 
			},
			{
				"x": -0.500358578,
				"y": 1.3859579506,
				"z": -2.7939729331,
				"element": "C" 
			},
			{
				"x": -1.8034932283,
				"y": 1.6671030996,
				"z": -3.2087451727,
				"element": "C" 
			},
			{
				"x": -3.4365131031,
				"y": 1.2399685719,
				"z": -0.254694472,
				"element": "H" 
			},
			{
				"x": 2.9821914856,
				"y": 0.7282777205,
				"z": -1.1647121399,
				"element": "H" 
			},
			{
				"x": 2.1507047451,
				"y": 1.1604994941,
				"z": -2.658401987,
				"element": "H" 
			},
			{
				"x": 1.1995031073,
				"y": -1.1783887718,
				"z": -2.7850401014,
				"element": "H" 
			},
			{
				"x": 2.9701901165,
				"y": -1.1317172697,
				"z": -2.870611417,
				"element": "H" 
			},
			{
				"x": 3.7009503147,
				"y": -3.0406856986,
				"z": -0.5934971799,
				"element": "H" 
			},
			{
				"x": 4.0904021558,
				"y": -1.3210366317,
				"z": -0.7961710917,
				"element": "H" 
			},
			{
				"x": 2.6444079827,
				"y": -0.8353520887,
				"z": 1.2328431376,
				"element": "H" 
			},
			{
				"x": 4.1394419734,
				"y": -1.7488223856,
				"z": 1.5440844491,
				"element": "H" 
			},
			{
				"x": 1.5375049485,
				"y": -1.6393231274,
				"z": 3.0862882947,
				"element": "H" 
			},
			{
				"x": 1.0960027071,
				"y": -3.3526417462,
				"z": 3.1085053226,
				"element": "H" 
			},
			{
				"x": 0.2615307611,
				"y": -1.4140542153,
				"z": 0.8770729585,
				"element": "H" 
			},
			{
				"x": -0.1816984719,
				"y": -3.1177244818,
				"z": 1.0137864584,
				"element": "H" 
			},
			{
				"x": -1.9520446343,
				"y": -0.6034449157,
				"z": 3.6355673429,
				"element": "H" 
			},
			{
				"x": -0.3519819608,
				"y": -0.0867830776,
				"z": 3.0700709132,
				"element": "H" 
			},
			{
				"x": -2.7319744119,
				"y": -0.360335349,
				"z": 1.1907358482,
				"element": "H" 
			},
			{
				"x": -2.4113012828,
				"y": 1.1460806198,
				"z": 2.0966821448,
				"element": "H" 
			},
			{
				"x": 0.3013635099,
				"y": 1.4308208048,
				"z": -3.5207784922,
				"element": "H" 
			},
			{
				"x": -2.0264076248,
				"y": 1.9273276983,
				"z": -4.2351377385,
				"element": "H" 
			}
		],
		 "valence_orbital": [ 
			{
				"type": "occ",
				"energy": -0.28147,
				"method": "rhf"
			},
			{
				"type": "occ",
				"energy": -0.26581,
				"method": "rhf"
			},
			{
				"type": "occ",
				"energy": -0.26309,
				"method": "rhf"
			},
			{
				"type": "occ",
				"energy": -0.23929,
				"method": "rhf"
			},
			{
				"type": "occ",
				"energy": -0.22861,
				"method": "rhf"
			},
			{
				"type": "unocc",
				"energy": -0.07944,
				"method": "rhf"
			},
			{
				"type": "unocc",
				"energy": -0.01624,
				"method": "rhf"
			},
			{
				"type": "unocc",
				"energy": 0.01504,
				"method": "rhf"
			},
			{
				"type": "unocc",
				"energy": 0.06381,
				"method": "rhf"
			},
			{
				"type": "unocc",
				"energy": 0.0733,
				"method": "rhf"
			}
		],
		"cosmo_sigma_profile": { 
			"-0.025": 0.0,
			"-0.024": 0.0,
			"-0.023": 0.0,
			"-0.022": 0.0,
			"-0.021": 0.0,
			"-0.02": 0.0,
			"-0.019": 0.0,
			"-0.018": 0.0,
			"-0.017": 0.0,
			"-0.016": 0.0,
			"-0.015": 0.0,
			"-0.014": 0.0,
			"-0.013": 0.0,
			"-0.012": 0.0,
			"-0.011": 0.0,
			"-0.01": 0.422041368352,
			"-0.009": 2.14177970333,
			"-0.008": 4.36419607794,
			"-0.007": 11.5098163936,
			"-0.006": 23.7544470334,
			"-0.005": 33.1660006128,
			"-0.004": 36.1287295559,
			"-0.003": 26.9711511593,
			"-0.002": 22.8312088909,
			"-0.001": 18.7601624022,
			"0.0": 24.2662600124,
			"0.001": 22.8358343476,
			"0.002": 16.0717118008,
			"0.003": 10.3088633753,
			"0.004": 7.65694071696,
			"0.005": 8.87139399233,
			"0.006": 8.2442948483,
			"0.007": 10.3785260379,
			"0.008": 15.576697026,
			"0.009": 10.5735736049,
			"0.01": 8.76624704987,
			"0.011": 4.65076840959,
			"0.012": 3.62888547322,
			"0.013": 3.35596442635,
			"0.014": 0.314344017687,
			"0.015": 0.0,
			"0.016": 0.0,
			"0.017": 0.0,
			"0.018": 0.0,
			"0.019": 0.0,
			"0.02": 0.0,
			"0.021": 0.0,
			"0.022": 0.0,
			"0.023": 0.0,
			"0.024": 0.0,
			"0.025": 0.0
		}
	}
}
