{
	 "smiles": "CC(C)(C)N(NC(=O)C1=CC=CC=C1)C(=O)C1=CC=CC=C1F", 
	 "Tm": 457.15, 
	 "num_atms": 42, 
	 "gaussian": { 
		 "optdone": 1, 
		 "sigma_profile": "yes", 
		 "theory": "DFT", 
		 "functional": "B3LYP", 
		 "basiset": "6-31G**", 
		 "properties": { 
			 "R2extent": 7629.6584, 
			 "electric_dipole_moment_norm": 6.36849471539, 
			 "electric_quadrupole_moment_norm": 14.837540647, 
			 "total_energy": -1057.13879599, 
			 "HOMO_LUMO_gap": 0.21056, 
			 "cosmo_polarized_energy": -17.65, 
			 "cosmo_cavitation_energy": 44.23, 
			 "cosmo_dispersion_energy": -28.49, 
			 "cosmo_repulsion_energy": 2.12, 
			 "cosmo_total_nonelectrostatic_energy": 17.86, 
			 "SMD_solvation_energy": 9.39 
		},
		"coords": [
			{
				"x": -3.09882761,
				"y": -0.9676194619,
				"z": -1.9110396693,
				"element": "C" 
			},
			{
				"x": -2.072109831,
				"y": -0.86820379,
				"z": -0.7672614797,
				"element": "C" 
			},
			{
				"x": -2.7519622834,
				"y": -0.4140804518,
				"z": 0.5365973143,
				"element": "C" 
			},
			{
				"x": -1.4503941316,
				"y": -2.2516302093,
				"z": -0.5001203318,
				"element": "C" 
			},
			{
				"x": -0.9526780113,
				"y": 0.0777899497,
				"z": -1.1888400421,
				"element": "N" 
			},
			{
				"x": -0.0267899866,
				"y": -0.5038369154,
				"z": -2.0530034963,
				"element": "N" 
			},
			{
				"x": 1.2695657703,
				"y": -0.8700633377,
				"z": -1.7373017103,
				"element": "C" 
			},
			{
				"x": 1.9516394644,
				"y": -1.4273643215,
				"z": -2.5855363969,
				"element": "O" 
			},
			{
				"x": 1.7878786578,
				"y": -0.6116547931,
				"z": -0.3513543037,
				"element": "C" 
			},
			{
				"x": 1.7969622544,
				"y": 0.6700333262,
				"z": 0.2156730324,
				"element": "C" 
			},
			{
				"x": 2.386445817,
				"y": 0.8760424654,
				"z": 1.4639649873,
				"element": "C" 
			},
			{
				"x": 2.9567098373,
				"y": -0.193282543,
				"z": 2.1582567992,
				"element": "C" 
			},
			{
				"x": 2.963446505,
				"y": -1.4682754028,
				"z": 1.5879591882,
				"element": "C" 
			},
			{
				"x": 2.3983382027,
				"y": -1.6728651949,
				"z": 0.3298026872,
				"element": "C" 
			},
			{
				"x": -1.053752001,
				"y": 1.4597558327,
				"z": -1.3818058394,
				"element": "C" 
			},
			{
				"x": -0.313509177,
				"y": 2.0419935284,
				"z": -2.1610924541,
				"element": "O" 
			},
			{
				"x": -1.9981530425,
				"y": 2.2825820289,
				"z": -0.5446712426,
				"element": "C" 
			},
			{
				"x": -1.6471824666,
				"y": 2.69299899,
				"z": 0.747676032,
				"element": "C" 
			},
			{
				"x": -2.4518687953,
				"y": 3.5883070644,
				"z": 1.4524201652,
				"element": "C" 
			},
			{
				"x": -3.6182545808,
				"y": 4.0889998366,
				"z": 0.8694942114,
				"element": "C" 
			},
			{
				"x": -3.9809128147,
				"y": 3.6994856131,
				"z": -0.4209798289,
				"element": "C" 
			},
			{
				"x": -3.157383289,
				"y": 2.8157312441,
				"z": -1.1053845769,
				"element": "C" 
			},
			{
				"x": -3.5103707896,
				"y": 2.42758753,
				"z": -2.3536037398,
				"element": "F" 
			},
			{
				"x": -3.5502044753,
				"y": 0.0038379215,
				"z": -2.1280134024,
				"element": "H" 
			},
			{
				"x": -2.6287305404,
				"y": -1.3422698407,
				"z": -2.826310155,
				"element": "H" 
			},
			{
				"x": -3.8985253107,
				"y": -1.6654202407,
				"z": -1.6422715579,
				"element": "H" 
			},
			{
				"x": -2.0123324025,
				"y": -0.2058562225,
				"z": 1.3142492251,
				"element": "H" 
			},
			{
				"x": -3.3840211701,
				"y": 0.4634582399,
				"z": 0.4124024923,
				"element": "H" 
			},
			{
				"x": -3.390325602,
				"y": -1.2303959008,
				"z": 0.8877550069,
				"element": "H" 
			},
			{
				"x": -0.6755525281,
				"y": -2.1927436943,
				"z": 0.2694052391,
				"element": "H" 
			},
			{
				"x": -1.0148730141,
				"y": -2.6908566902,
				"z": -1.3984506725,
				"element": "H" 
			},
			{
				"x": -2.2362904273,
				"y": -2.9228413642,
				"z": -0.1421067059,
				"element": "H" 
			},
			{
				"x": -0.2176833217,
				"y": -0.4507233113,
				"z": -3.0480937678,
				"element": "H" 
			},
			{
				"x": 1.3857620744,
				"y": 1.5069759319,
				"z": -0.3386576159,
				"element": "H" 
			},
			{
				"x": 2.4101767773,
				"y": 1.8753620554,
				"z": 1.8897611711,
				"element": "H" 
			},
			{
				"x": 3.407729069,
				"y": -0.0307161747,
				"z": 3.1330560863,
				"element": "H" 
			},
			{
				"x": 3.4213521779,
				"y": -2.2994679881,
				"z": 2.1163586179,
				"element": "H" 
			},
			{
				"x": 2.4291509707,
				"y": -2.6517415254,
				"z": -0.1383190471,
				"element": "H" 
			},
			{
				"x": -0.7397974341,
				"y": 2.3006511373,
				"z": 1.1966891538,
				"element": "H" 
			},
			{
				"x": -2.1671604171,
				"y": 3.8965132496,
				"z": 2.4534052844,
				"element": "H" 
			},
			{
				"x": -4.2483613806,
				"y": 4.7839543216,
				"z": 1.4158852249,
				"element": "H" 
			},
			{
				"x": -4.8782507438,
				"y": 4.0708491074,
				"z": -0.9037938828,
				"element": "H" 
			}
		],
		 "valence_orbital": [ 
			{
				"type": "occ",
				"energy": -0.26639,
				"method": "rhf"
			},
			{
				"type": "occ",
				"energy": -0.26077,
				"method": "rhf"
			},
			{
				"type": "occ",
				"energy": -0.25485,
				"method": "rhf"
			},
			{
				"type": "occ",
				"energy": -0.24882,
				"method": "rhf"
			},
			{
				"type": "occ",
				"energy": -0.24015,
				"method": "rhf"
			},
			{
				"type": "unocc",
				"energy": -0.02959,
				"method": "rhf"
			},
			{
				"type": "unocc",
				"energy": -0.02769,
				"method": "rhf"
			},
			{
				"type": "unocc",
				"energy": -0.01517,
				"method": "rhf"
			},
			{
				"type": "unocc",
				"energy": -0.00684,
				"method": "rhf"
			},
			{
				"type": "unocc",
				"energy": -0.0007,
				"method": "rhf"
			}
		],
		"cosmo_sigma_profile": { 
			"-0.025": 0.0,
			"-0.024": 0.0,
			"-0.023": 0.0,
			"-0.022": 0.0,
			"-0.021": 0.0,
			"-0.02": 0.0,
			"-0.019": 0.0,
			"-0.018": 0.0,
			"-0.017": 0.0,
			"-0.016": 0.0,
			"-0.015": 0.0,
			"-0.014": 0.339599475305,
			"-0.013": 0.592373766639,
			"-0.012": 0.779504146924,
			"-0.011": 0.804212866412,
			"-0.01": 1.50261149391,
			"-0.009": 0.944831687585,
			"-0.008": 2.07501151863,
			"-0.007": 5.64938841229,
			"-0.006": 16.8200237521,
			"-0.005": 24.9794350919,
			"-0.004": 29.4902565555,
			"-0.003": 28.75398122,
			"-0.002": 32.0977439015,
			"-0.001": 32.5972284274,
			"0.0": 38.6209885074,
			"0.001": 23.1371736186,
			"0.002": 21.2625289916,
			"0.003": 23.0244796599,
			"0.004": 22.2241709184,
			"0.005": 9.55151755222,
			"0.006": 3.77315894061,
			"0.007": 2.95049074045,
			"0.008": 3.08046247395,
			"0.009": 2.79001301521,
			"0.01": 2.44169329672,
			"0.011": 5.00735497276,
			"0.012": 7.30255961308,
			"0.013": 6.39969079081,
			"0.014": 1.63623749424,
			"0.015": 0.0,
			"0.016": 0.0,
			"0.017": 0.0,
			"0.018": 0.0,
			"0.019": 0.0,
			"0.02": 0.0,
			"0.021": 0.0,
			"0.022": 0.0,
			"0.023": 0.0,
			"0.024": 0.0,
			"0.025": 0.0
		}
	}
}
