{
	 "smiles": "CC1=CC(C)=C(CC(O)=O)C(C)=C1", 
	 "Tm": 441.15, 
	 "num_atms": 27, 
	 "gaussian": { 
		 "optdone": 1, 
		 "sigma_profile": "yes", 
		 "theory": "DFT", 
		 "functional": "B3LYP", 
		 "basiset": "6-31G**", 
		 "properties": { 
			 "R2extent": 3069.9365, 
			 "electric_dipole_moment_norm": 3.84153834421, 
			 "electric_quadrupole_moment_norm": 15.349458753, 
			 "total_energy": -578.084236015, 
			 "HOMO_LUMO_gap": 0.22679, 
			 "cosmo_polarized_energy": -16.52, 
			 "cosmo_cavitation_energy": 29.73, 
			 "cosmo_dispersion_energy": -20.96, 
			 "cosmo_repulsion_energy": 1.67, 
			 "cosmo_total_nonelectrostatic_energy": 10.44, 
			 "SMD_solvation_energy": 6.14 
		},
		"coords": [
			{
				"x": 0.1116437879,
				"y": 3.6720387167,
				"z": -0.8573238342,
				"element": "C" 
			},
			{
				"x": 0.3830872491,
				"y": 2.1875486493,
				"z": -0.9247191762,
				"element": "C" 
			},
			{
				"x": -0.5994889036,
				"y": 1.2955983465,
				"z": -1.3627248353,
				"element": "C" 
			},
			{
				"x": -0.3802899613,
				"y": -0.0843336029,
				"z": -1.4043195271,
				"element": "C" 
			},
			{
				"x": -1.4931243126,
				"y": -0.9992081374,
				"z": -1.8633305318,
				"element": "C" 
			},
			{
				"x": 0.8705490062,
				"y": -0.5952959315,
				"z": -1.0030460235,
				"element": "C" 
			},
			{
				"x": 1.1340032328,
				"y": -2.0828816191,
				"z": -1.0596545423,
				"element": "C" 
			},
			{
				"x": 0.6298473524,
				"y": -2.8682178175,
				"z": 0.1573907659,
				"element": "C" 
			},
			{
				"x": 1.0259997972,
				"y": -4.1723821887,
				"z": 0.1914080634,
				"element": "O" 
			},
			{
				"x": -0.0796643216,
				"y": -2.4326618122,
				"z": 1.0262705819,
				"element": "O" 
			},
			{
				"x": 1.871487716,
				"y": 0.2855402135,
				"z": -0.5484680021,
				"element": "C" 
			},
			{
				"x": 3.2191773032,
				"y": -0.2178835295,
				"z": -0.0782701538,
				"element": "C" 
			},
			{
				"x": 1.6118202915,
				"y": 1.6599192079,
				"z": -0.5216570889,
				"element": "C" 
			},
			{
				"x": -0.5634579595,
				"y": 3.9928006298,
				"z": -1.6568450437,
				"element": "H" 
			},
			{
				"x": 1.0353255673,
				"y": 4.2527129665,
				"z": -0.9399265122,
				"element": "H" 
			},
			{
				"x": -0.3609348494,
				"y": 3.9451696492,
				"z": 0.0946169488,
				"element": "H" 
			},
			{
				"x": -1.5665855611,
				"y": 1.6823508685,
				"z": -1.6769297442,
				"element": "H" 
			},
			{
				"x": -2.3907674251,
				"y": -0.425994884,
				"z": -2.1083849346,
				"element": "H" 
			},
			{
				"x": -1.2175064042,
				"y": -1.5702932959,
				"z": -2.7594175285,
				"element": "H" 
			},
			{
				"x": -1.7590812955,
				"y": -1.719289837,
				"z": -1.0822950623,
				"element": "H" 
			},
			{
				"x": 0.6504842366,
				"y": -2.5296895156,
				"z": -1.9385285612,
				"element": "H" 
			},
			{
				"x": 2.2048010617,
				"y": -2.2855165615,
				"z": -1.1742965914,
				"element": "H" 
			},
			{
				"x": 1.5921560927,
				"y": -4.3700682166,
				"z": -0.5681320915,
				"element": "H" 
			},
			{
				"x": 3.7802945238,
				"y": -0.7149911741,
				"z": -0.8799380336,
				"element": "H" 
			},
			{
				"x": 3.1216217612,
				"y": -0.9363126822,
				"z": 0.743908951,
				"element": "H" 
			},
			{
				"x": 3.8360337808,
				"y": 0.6091941327,
				"z": 0.2819967929,
				"element": "H" 
			},
			{
				"x": 2.3908682336,
				"y": 2.3342474251,
				"z": -0.1725842854,
				"element": "H" 
			}
		],
		 "valence_orbital": [ 
			{
				"type": "occ",
				"energy": -0.3271,
				"method": "rhf"
			},
			{
				"type": "occ",
				"energy": -0.31489,
				"method": "rhf"
			},
			{
				"type": "occ",
				"energy": -0.27131,
				"method": "rhf"
			},
			{
				"type": "occ",
				"energy": -0.23307,
				"method": "rhf"
			},
			{
				"type": "occ",
				"energy": -0.2282,
				"method": "rhf"
			},
			{
				"type": "unocc",
				"energy": -0.00141,
				"method": "rhf"
			},
			{
				"type": "unocc",
				"energy": 0.00726,
				"method": "rhf"
			},
			{
				"type": "unocc",
				"energy": 0.0118,
				"method": "rhf"
			},
			{
				"type": "unocc",
				"energy": 0.05341,
				"method": "rhf"
			},
			{
				"type": "unocc",
				"energy": 0.09118,
				"method": "rhf"
			}
		],
		"cosmo_sigma_profile": { 
			"-0.025": 0.0,
			"-0.024": 0.0,
			"-0.023": 0.0,
			"-0.022": 0.0,
			"-0.021": 0.0,
			"-0.02": 0.0,
			"-0.019": 0.456578406402,
			"-0.018": 1.26918967061,
			"-0.017": 1.23714572943,
			"-0.016": 0.555293376161,
			"-0.015": 1.19736085183,
			"-0.014": 1.37675729657,
			"-0.013": 1.18546143135,
			"-0.012": 1.04544230996,
			"-0.011": 1.32113713202,
			"-0.01": 0.830791107495,
			"-0.009": 1.32004465441,
			"-0.008": 1.97738195455,
			"-0.007": 4.12816129663,
			"-0.006": 6.21389515227,
			"-0.005": 9.00637905598,
			"-0.004": 21.5822576978,
			"-0.003": 21.8763156458,
			"-0.002": 21.1253409109,
			"-0.001": 19.8445416244,
			"0.0": 26.3930488305,
			"0.001": 16.9439180669,
			"0.002": 9.222702411,
			"0.003": 7.07759808956,
			"0.004": 7.70900240975,
			"0.005": 7.8953390401,
			"0.006": 8.06569168838,
			"0.007": 6.98481882995,
			"0.008": 2.85189303145,
			"0.009": 4.1605992941,
			"0.01": 4.68936868588,
			"0.011": 5.69838130735,
			"0.012": 5.86485924451,
			"0.013": 2.41225299516,
			"0.014": 0.0260586298403,
			"0.015": 0.0,
			"0.016": 0.0,
			"0.017": 0.0,
			"0.018": 0.0,
			"0.019": 0.0,
			"0.02": 0.0,
			"0.021": 0.0,
			"0.022": 0.0,
			"0.023": 0.0,
			"0.024": 0.0,
			"0.025": 0.0
		}
	}
}
