{
	 "smiles": "O=NC1=CC=C(C=C1)C(=O)OC1CC2=CC=CC=C12", 
	 "Tm": 392.15, 
	 "num_atms": 30, 
	 "gaussian": { 
		 "optdone": 1, 
		 "sigma_profile": "yes", 
		 "theory": "DFT", 
		 "functional": "B3LYP", 
		 "basiset": "6-31G**", 
		 "properties": { 
			 "R2extent": 7560.7351, 
			 "electric_dipole_moment_norm": 3.5456071638, 
			 "electric_quadrupole_moment_norm": 21.7075860314, 
			 "total_energy": -858.538490826, 
			 "HOMO_LUMO_gap": 0.11363, 
			 "cosmo_polarized_energy": -9.92, 
			 "cosmo_cavitation_energy": 36.02, 
			 "cosmo_dispersion_energy": -25.69, 
			 "cosmo_repulsion_energy": 1.96, 
			 "cosmo_total_nonelectrostatic_energy": 12.29, 
			 "SMD_solvation_energy": 6.64 
		},
		"coords": [
			{
				"x": -5.3994738192,
				"y": 2.7176289777,
				"z": 0.2485893827,
				"element": "O" 
			},
			{
				"x": -4.3361054068,
				"y": 3.1397320011,
				"z": -0.1777076844,
				"element": "N" 
			},
			{
				"x": -3.198717508,
				"y": 2.2908519894,
				"z": 0.0916223805,
				"element": "C" 
			},
			{
				"x": -1.9731686991,
				"y": 2.7620538461,
				"z": -0.389918288,
				"element": "C" 
			},
			{
				"x": -0.8201687792,
				"y": 2.0128370684,
				"z": -0.1791313729,
				"element": "C" 
			},
			{
				"x": -0.8988672415,
				"y": 0.7967586126,
				"z": 0.5125798896,
				"element": "C" 
			},
			{
				"x": -2.13610847,
				"y": 0.3294959016,
				"z": 0.9938916198,
				"element": "C" 
			},
			{
				"x": -3.2870021092,
				"y": 1.0751624788,
				"z": 0.7840187555,
				"element": "C" 
			},
			{
				"x": 0.3713723985,
				"y": 0.0320610363,
				"z": 0.7116611084,
				"element": "C" 
			},
			{
				"x": 1.455122664,
				"y": 0.4002575318,
				"z": 0.3001899224,
				"element": "O" 
			},
			{
				"x": 0.1823102799,
				"y": -1.1109326069,
				"z": 1.401426855,
				"element": "O" 
			},
			{
				"x": 1.370382711,
				"y": -1.8950988307,
				"z": 1.6508143791,
				"element": "C" 
			},
			{
				"x": 1.0198436874,
				"y": -3.2488959079,
				"z": 2.3627369314,
				"element": "C" 
			},
			{
				"x": 1.6650211938,
				"y": -3.9259928875,
				"z": 1.1587152132,
				"element": "C" 
			},
			{
				"x": 2.034789204,
				"y": -5.1502532676,
				"z": 0.6181698958,
				"element": "C" 
			},
			{
				"x": 2.6511143227,
				"y": -5.0988344777,
				"z": -0.6420314766,
				"element": "C" 
			},
			{
				"x": 2.8906838846,
				"y": -3.88427135,
				"z": -1.3052363351,
				"element": "C" 
			},
			{
				"x": 2.5315332207,
				"y": -2.6516969874,
				"z": -0.7400472415,
				"element": "C" 
			},
			{
				"x": 1.9149334306,
				"y": -2.7225311982,
				"z": 0.5013811408,
				"element": "C" 
			},
			{
				"x": -1.9522751912,
				"y": 3.7086804256,
				"z": -0.9208123051,
				"element": "H" 
			},
			{
				"x": 0.1474663574,
				"y": 2.3454459363,
				"z": -0.537815876,
				"element": "H" 
			},
			{
				"x": -2.1774444325,
				"y": -0.6137542735,
				"z": 1.5257722525,
				"element": "H" 
			},
			{
				"x": -4.2583494353,
				"y": 0.7484406981,
				"z": 1.1390705141,
				"element": "H" 
			},
			{
				"x": 2.1015204288,
				"y": -1.2630747218,
				"z": 2.1622278209,
				"element": "H" 
			},
			{
				"x": 1.4976376284,
				"y": -3.4003765324,
				"z": 3.3362389391,
				"element": "H" 
			},
			{
				"x": -0.0582984825,
				"y": -3.404583507,
				"z": 2.4668255084,
				"element": "H" 
			},
			{
				"x": 1.8608261046,
				"y": -6.0995038715,
				"z": 1.1168443472,
				"element": "H" 
			},
			{
				"x": 2.9537629744,
				"y": -6.0252539998,
				"z": -1.1227414105,
				"element": "H" 
			},
			{
				"x": 3.3725754712,
				"y": -3.90518249,
				"z": -2.2787641224,
				"element": "H" 
			},
			{
				"x": 2.7264836124,
				"y": -1.7112695941,
				"z": -1.2446707438,
				"element": "H" 
			}
		],
		 "valence_orbital": [ 
			{
				"type": "occ",
				"energy": -0.28155,
				"method": "rhf"
			},
			{
				"type": "occ",
				"energy": -0.27863,
				"method": "rhf"
			},
			{
				"type": "occ",
				"energy": -0.2571,
				"method": "rhf"
			},
			{
				"type": "occ",
				"energy": -0.24834,
				"method": "rhf"
			},
			{
				"type": "occ",
				"energy": -0.22604,
				"method": "rhf"
			},
			{
				"type": "unocc",
				"energy": -0.11241,
				"method": "rhf"
			},
			{
				"type": "unocc",
				"energy": -0.036,
				"method": "rhf"
			},
			{
				"type": "unocc",
				"energy": -0.02529,
				"method": "rhf"
			},
			{
				"type": "unocc",
				"energy": -0.01722,
				"method": "rhf"
			},
			{
				"type": "unocc",
				"energy": -0.00457,
				"method": "rhf"
			}
		],
		"cosmo_sigma_profile": { 
			"-0.025": 0.0,
			"-0.024": 0.0,
			"-0.023": 0.0,
			"-0.022": 0.0,
			"-0.021": 0.0,
			"-0.02": 0.0,
			"-0.019": 0.0,
			"-0.018": 0.0,
			"-0.017": 0.0,
			"-0.016": 0.0,
			"-0.015": 0.0,
			"-0.014": 0.0,
			"-0.013": 0.0,
			"-0.012": 0.0,
			"-0.011": 0.0,
			"-0.01": 0.0,
			"-0.009": 0.0205399222017,
			"-0.008": 1.9457213752,
			"-0.007": 5.88591722806,
			"-0.006": 14.868887509,
			"-0.005": 20.0441787705,
			"-0.004": 21.5668002094,
			"-0.003": 24.3968436715,
			"-0.002": 24.898446798,
			"-0.001": 29.5392513256,
			"0.0": 30.819676855,
			"0.001": 26.2302267872,
			"0.002": 14.8562422852,
			"0.003": 13.8097421153,
			"0.004": 14.9268481091,
			"0.005": 13.4930328755,
			"0.006": 8.28575343055,
			"0.007": 6.07000471699,
			"0.008": 5.01327481917,
			"0.009": 5.05863418515,
			"0.01": 3.76618410481,
			"0.011": 3.80765449743,
			"0.012": 0.4602537592,
			"0.013": 0.0,
			"0.014": 0.0,
			"0.015": 0.0,
			"0.016": 0.0,
			"0.017": 0.0,
			"0.018": 0.0,
			"0.019": 0.0,
			"0.02": 0.0,
			"0.021": 0.0,
			"0.022": 0.0,
			"0.023": 0.0,
			"0.024": 0.0,
			"0.025": 0.0
		}
	}
}
