{
	 "smiles": "OC(=O)CCNC(=O)NC1CCCCC1", 
	 "Tm": 437.15, 
	 "num_atms": 33, 
	 "gaussian": { 
		 "optdone": 1, 
		 "sigma_profile": "yes", 
		 "theory": "DFT", 
		 "functional": "B3LYP", 
		 "basiset": "6-31G**", 
		 "properties": { 
			 "R2extent": 4423.0231, 
			 "electric_dipole_moment_norm": 2.78028739881, 
			 "electric_quadrupole_moment_norm": 20.2469081657, 
			 "total_energy": -727.136804588, 
			 "HOMO_LUMO_gap": 0.2417, 
			 "cosmo_polarized_energy": -18.51, 
			 "cosmo_cavitation_energy": 34.59, 
			 "cosmo_dispersion_energy": -23.88, 
			 "cosmo_repulsion_energy": 1.92, 
			 "cosmo_total_nonelectrostatic_energy": 12.64, 
			 "SMD_solvation_energy": 6.06 
		},
		"coords": [
			{
				"x": -2.1802863389,
				"y": -3.6084106332,
				"z": 0.9636943939,
				"element": "O" 
			},
			{
				"x": -0.9496446845,
				"y": -3.0712635124,
				"z": 0.7968545121,
				"element": "C" 
			},
			{
				"x": -0.11981137,
				"y": -3.0492915145,
				"z": 1.6812242538,
				"element": "O" 
			},
			{
				"x": -0.7645795867,
				"y": -2.5040069185,
				"z": -0.591835327,
				"element": "C" 
			},
			{
				"x": 0.7134983831,
				"y": -2.2243110238,
				"z": -0.9103824632,
				"element": "C" 
			},
			{
				"x": 0.9317146663,
				"y": -1.5686840795,
				"z": -2.1901607667,
				"element": "N" 
			},
			{
				"x": 0.5467985832,
				"y": -0.2733134861,
				"z": -2.5191473057,
				"element": "C" 
			},
			{
				"x": 0.4055468819,
				"y": 0.0687964519,
				"z": -3.6899423501,
				"element": "O" 
			},
			{
				"x": 0.3493484748,
				"y": 0.58501836,
				"z": -1.456288416,
				"element": "N" 
			},
			{
				"x": 0.1724434447,
				"y": 2.0264134902,
				"z": -1.7189952989,
				"element": "C" 
			},
			{
				"x": 0.5388231961,
				"y": 2.8516711354,
				"z": -0.4578385214,
				"element": "C" 
			},
			{
				"x": -0.6850010058,
				"y": 3.2502261675,
				"z": 0.3978790871,
				"element": "C" 
			},
			{
				"x": -1.7691364266,
				"y": 2.1656761553,
				"z": 0.3638048729,
				"element": "C" 
			},
			{
				"x": -2.3103038694,
				"y": 1.9645745542,
				"z": -1.0729715181,
				"element": "C" 
			},
			{
				"x": -1.2705168994,
				"y": 2.3264917391,
				"z": -2.1571830454,
				"element": "C" 
			},
			{
				"x": -2.2179015651,
				"y": -3.9218704678,
				"z": 1.8834766512,
				"element": "H" 
			},
			{
				"x": -1.2108729847,
				"y": -3.1860077167,
				"z": -1.3230397356,
				"element": "H" 
			},
			{
				"x": -1.3389452685,
				"y": -1.571023014,
				"z": -0.6521187513,
				"element": "H" 
			},
			{
				"x": 1.2765715565,
				"y": -3.1621202787,
				"z": -0.9177715159,
				"element": "H" 
			},
			{
				"x": 1.1522344762,
				"y": -1.6368638411,
				"z": -0.0980254005,
				"element": "H" 
			},
			{
				"x": 0.9191908913,
				"y": -2.1574921668,
				"z": -3.0117874184,
				"element": "H" 
			},
			{
				"x": 0.7910819152,
				"y": 0.3434045753,
				"z": -0.5808730646,
				"element": "H" 
			},
			{
				"x": 0.8439811712,
				"y": 2.2929874022,
				"z": -2.5424691917,
				"element": "H" 
			},
			{
				"x": 1.2544585506,
				"y": 2.2841003529,
				"z": 0.1526078241,
				"element": "H" 
			},
			{
				"x": 1.0736521448,
				"y": 3.7542915649,
				"z": -0.7721146563,
				"element": "H" 
			},
			{
				"x": -0.3674249177,
				"y": 3.453869921,
				"z": 1.4266627026,
				"element": "H" 
			},
			{
				"x": -1.1091066744,
				"y": 4.1891150028,
				"z": 0.0189810996,
				"element": "H" 
			},
			{
				"x": -1.3397800137,
				"y": 1.2257518772,
				"z": 0.7343214933,
				"element": "H" 
			},
			{
				"x": -2.5867972665,
				"y": 2.4181887419,
				"z": 1.0482069399,
				"element": "H" 
			},
			{
				"x": -2.6352019371,
				"y": 0.9263162446,
				"z": -1.1990801761,
				"element": "H" 
			},
			{
				"x": -3.2033160176,
				"y": 2.5828135853,
				"z": -1.2231494388,
				"element": "H" 
			},
			{
				"x": -1.4763338097,
				"y": 1.7962011219,
				"z": -3.0900133318,
				"element": "H" 
			},
			{
				"x": -1.3243836996,
				"y": 3.3987502091,
				"z": -2.3862261371,
				"element": "H" 
			}
		],
		 "valence_orbital": [ 
			{
				"type": "occ",
				"energy": -0.3005,
				"method": "rhf"
			},
			{
				"type": "occ",
				"energy": -0.28699,
				"method": "rhf"
			},
			{
				"type": "occ",
				"energy": -0.25444,
				"method": "rhf"
			},
			{
				"type": "occ",
				"energy": -0.24384,
				"method": "rhf"
			},
			{
				"type": "occ",
				"energy": -0.24207,
				"method": "rhf"
			},
			{
				"type": "unocc",
				"energy": -0.00037,
				"method": "rhf"
			},
			{
				"type": "unocc",
				"energy": 0.05265,
				"method": "rhf"
			},
			{
				"type": "unocc",
				"energy": 0.05934,
				"method": "rhf"
			},
			{
				"type": "unocc",
				"energy": 0.0739,
				"method": "rhf"
			},
			{
				"type": "unocc",
				"energy": 0.08441,
				"method": "rhf"
			}
		],
		"cosmo_sigma_profile": { 
			"-0.025": 0.0,
			"-0.024": 0.0,
			"-0.023": 0.0,
			"-0.022": 0.0,
			"-0.021": 0.0,
			"-0.02": 0.0,
			"-0.019": 0.0,
			"-0.018": 0.794946111366,
			"-0.017": 0.914408265803,
			"-0.016": 0.770977757457,
			"-0.015": 0.626723562106,
			"-0.014": 0.540185926683,
			"-0.013": 1.62457436841,
			"-0.012": 2.86940820596,
			"-0.011": 3.51724935013,
			"-0.01": 2.63163600615,
			"-0.009": 3.62969982766,
			"-0.008": 3.83646750747,
			"-0.007": 3.232337134,
			"-0.006": 10.264266395,
			"-0.005": 11.4198382565,
			"-0.004": 10.2592175678,
			"-0.003": 17.1204591631,
			"-0.002": 32.8660018235,
			"-0.001": 32.8139465455,
			"0.0": 31.2408395056,
			"0.001": 24.4407523713,
			"0.002": 12.2533200148,
			"0.003": 5.26340955301,
			"0.004": 5.3181510485,
			"0.005": 4.85115303333,
			"0.006": 4.16809502242,
			"0.007": 5.87190617353,
			"0.008": 4.57357667008,
			"0.009": 5.23103864721,
			"0.01": 3.78960209198,
			"0.011": 4.62408243875,
			"0.012": 6.12223160366,
			"0.013": 2.07314879716,
			"0.014": 3.17428553608,
			"0.015": 4.84450682623,
			"0.016": 0.327639255936,
			"0.017": 0.0,
			"0.018": 0.0,
			"0.019": 0.0,
			"0.02": 0.0,
			"0.021": 0.0,
			"0.022": 0.0,
			"0.023": 0.0,
			"0.024": 0.0,
			"0.025": 0.0
		}
	}
}
