{
	 "smiles": "CCC(=C)CC", 
	 "Tm": 141.15, 
	 "num_atms": 18, 
	 "gaussian": { 
		 "optdone": 1, 
		 "sigma_profile": "yes", 
		 "theory": "DFT", 
		 "functional": "B3LYP", 
		 "basiset": "6-31G**", 
		 "properties": { 
			 "R2extent": 922.6299, 
			 "electric_dipole_moment_norm": 0.528934636794, 
			 "electric_quadrupole_moment_norm": 1.18574164977, 
			 "total_energy": -235.864310373, 
			 "HOMO_LUMO_gap": 0.26926, 
			 "cosmo_polarized_energy": -1.56, 
			 "cosmo_cavitation_energy": 19.87, 
			 "cosmo_dispersion_energy": -14.33, 
			 "cosmo_repulsion_energy": 1.24, 
			 "cosmo_total_nonelectrostatic_energy": 6.78, 
			 "SMD_solvation_energy": 4.12 
		},
		"coords": [
			{
				"x": 0.7489531358,
				"y": 1.2822061324,
				"z": -0.9157343559,
				"element": "C" 
			},
			{
				"x": -0.1140824868,
				"y": 0.0372744894,
				"z": -0.7020110443,
				"element": "C" 
			},
			{
				"x": -0.7493427399,
				"y": -0.1220303547,
				"z": 0.6657185449,
				"element": "C" 
			},
			{
				"x": -0.5936233827,
				"y": 0.7624327773,
				"z": 1.6568072016,
				"element": "C" 
			},
			{
				"x": -1.5889558935,
				"y": -1.3707266585,
				"z": 0.8607268005,
				"element": "C" 
			},
			{
				"x": -2.9175848224,
				"y": -1.3615556484,
				"z": 0.0824026265,
				"element": "C" 
			},
			{
				"x": 1.1630557044,
				"y": 1.2921965291,
				"z": -1.9287437721,
				"element": "H" 
			},
			{
				"x": 0.1668023363,
				"y": 2.2001532458,
				"z": -0.7846427838,
				"element": "H" 
			},
			{
				"x": 1.5869453695,
				"y": 1.3138926819,
				"z": -0.2118943531,
				"element": "H" 
			},
			{
				"x": 0.4886085837,
				"y": -0.8619407557,
				"z": -0.9011755452,
				"element": "H" 
			},
			{
				"x": -0.9064743343,
				"y": 0.0158099618,
				"z": -1.4636190055,
				"element": "H" 
			},
			{
				"x": -0.0064862009,
				"y": 1.6679976951,
				"z": 1.5455605551,
				"element": "H" 
			},
			{
				"x": -1.0568641577,
				"y": 0.6055027203,
				"z": 2.6273066821,
				"element": "H" 
			},
			{
				"x": -1.0062935534,
				"y": -2.2513353203,
				"z": 0.5537864717,
				"element": "H" 
			},
			{
				"x": -1.8025694257,
				"y": -1.4961345788,
				"z": 1.9280672324,
				"element": "H" 
			},
			{
				"x": -3.4885633593,
				"y": -2.274513893,
				"z": 0.2811091222,
				"element": "H" 
			},
			{
				"x": -3.5339332609,
				"y": -0.5057140273,
				"z": 0.3761226775,
				"element": "H" 
			},
			{
				"x": -2.7580915123,
				"y": -1.3032149963,
				"z": -0.9989870544,
				"element": "H" 
			}
		],
		 "valence_orbital": [ 
			{
				"type": "occ",
				"energy": -0.35088,
				"method": "rhf"
			},
			{
				"type": "occ",
				"energy": -0.34082,
				"method": "rhf"
			},
			{
				"type": "occ",
				"energy": -0.32841,
				"method": "rhf"
			},
			{
				"type": "occ",
				"energy": -0.3143,
				"method": "rhf"
			},
			{
				"type": "occ",
				"energy": -0.23888,
				"method": "rhf"
			},
			{
				"type": "unocc",
				"energy": 0.03038,
				"method": "rhf"
			},
			{
				"type": "unocc",
				"energy": 0.09339,
				"method": "rhf"
			},
			{
				"type": "unocc",
				"energy": 0.11626,
				"method": "rhf"
			},
			{
				"type": "unocc",
				"energy": 0.13135,
				"method": "rhf"
			},
			{
				"type": "unocc",
				"energy": 0.1405,
				"method": "rhf"
			}
		],
		"cosmo_sigma_profile": { 
			"-0.025": 0.0,
			"-0.024": 0.0,
			"-0.023": 0.0,
			"-0.022": 0.0,
			"-0.021": 0.0,
			"-0.02": 0.0,
			"-0.019": 0.0,
			"-0.018": 0.0,
			"-0.017": 0.0,
			"-0.016": 0.0,
			"-0.015": 0.0,
			"-0.014": 0.0,
			"-0.013": 0.0,
			"-0.012": 0.0,
			"-0.011": 0.0,
			"-0.01": 0.0,
			"-0.009": 0.0,
			"-0.008": 0.0,
			"-0.007": 0.0,
			"-0.006": 0.0,
			"-0.005": 0.0,
			"-0.004": 1.91864681605,
			"-0.003": 17.1106848596,
			"-0.002": 25.1800891474,
			"-0.001": 26.3826278689,
			"0.0": 29.4115895662,
			"0.001": 24.8764746903,
			"0.002": 11.120077137,
			"0.003": 4.57891916465,
			"0.004": 3.87440294846,
			"0.005": 3.45223859273,
			"0.006": 2.35138767041,
			"0.007": 2.842499265,
			"0.008": 0.918234004381,
			"0.009": 0.0,
			"0.01": 0.0,
			"0.011": 0.0,
			"0.012": 0.0,
			"0.013": 0.0,
			"0.014": 0.0,
			"0.015": 0.0,
			"0.016": 0.0,
			"0.017": 0.0,
			"0.018": 0.0,
			"0.019": 0.0,
			"0.02": 0.0,
			"0.021": 0.0,
			"0.022": 0.0,
			"0.023": 0.0,
			"0.024": 0.0,
			"0.025": 0.0
		}
	}
}
