{
	 "smiles": "OC1=CC=C(C=C1)C(=O)C1=CC=C(O)C=C1O", 
	 "Tm": 471.15, 
	 "num_atms": 27, 
	 "gaussian": { 
		 "optdone": 1, 
		 "sigma_profile": "yes", 
		 "theory": "DFT", 
		 "functional": "B3LYP", 
		 "basiset": "6-31G**", 
		 "properties": { 
			 "R2extent": 5365.5766, 
			 "electric_dipole_moment_norm": 2.12534871021, 
			 "electric_quadrupole_moment_norm": 24.392267937, 
			 "total_energy": -802.313129943, 
			 "HOMO_LUMO_gap": 0.16026, 
			 "cosmo_polarized_energy": -17.41, 
			 "cosmo_cavitation_energy": 31.54, 
			 "cosmo_dispersion_energy": -23.57, 
			 "cosmo_repulsion_energy": 1.8, 
			 "cosmo_total_nonelectrostatic_energy": 9.77, 
			 "SMD_solvation_energy": 6.67 
		},
		"coords": [
			{
				"x": -2.9984676199,
				"y": 4.1235010143,
				"z": 3.0490674996,
				"element": "O" 
			},
			{
				"x": -2.4574631768,
				"y": 3.0323721571,
				"z": 2.4416906098,
				"element": "C" 
			},
			{
				"x": -1.0905850502,
				"y": 2.7983249717,
				"z": 2.6348786165,
				"element": "C" 
			},
			{
				"x": -0.4839148842,
				"y": 1.7065998702,
				"z": 2.0246679377,
				"element": "C" 
			},
			{
				"x": -1.2237238797,
				"y": 0.821537234,
				"z": 1.2202495366,
				"element": "C" 
			},
			{
				"x": -2.6007260216,
				"y": 1.0514499031,
				"z": 1.0680754799,
				"element": "C" 
			},
			{
				"x": -3.2128472252,
				"y": 2.151427283,
				"z": 1.6551485767,
				"element": "C" 
			},
			{
				"x": -0.652339188,
				"y": -0.4122225831,
				"z": 0.606559293,
				"element": "C" 
			},
			{
				"x": -1.383665801,
				"y": -1.4275659397,
				"z": 0.5628775183,
				"element": "O" 
			},
			{
				"x": 0.7109707654,
				"y": -0.4599600423,
				"z": 0.0688696871,
				"element": "C" 
			},
			{
				"x": 1.4975054652,
				"y": 0.6880061459,
				"z": -0.1844817567,
				"element": "C" 
			},
			{
				"x": 2.7830957056,
				"y": 0.6054756396,
				"z": -0.6813770568,
				"element": "C" 
			},
			{
				"x": 3.3323275194,
				"y": -0.6643285988,
				"z": -0.946790571,
				"element": "C" 
			},
			{
				"x": 4.6046322259,
				"y": -0.6959345901,
				"z": -1.421285895,
				"element": "O" 
			},
			{
				"x": 2.5836056135,
				"y": -1.8199967845,
				"z": -0.7461232332,
				"element": "C" 
			},
			{
				"x": 1.2694980203,
				"y": -1.7327709067,
				"z": -0.2676661646,
				"element": "C" 
			},
			{
				"x": 0.5757647427,
				"y": -2.8667202823,
				"z": -0.1375444969,
				"element": "O" 
			},
			{
				"x": -3.9437763661,
				"y": 4.1642184684,
				"z": 2.8527052428,
				"element": "H" 
			},
			{
				"x": -0.5276877997,
				"y": 3.4736572227,
				"z": 3.2702709207,
				"element": "H" 
			},
			{
				"x": 0.5689100062,
				"y": 1.5205561681,
				"z": 2.2069326975,
				"element": "H" 
			},
			{
				"x": -3.1828257243,
				"y": 0.3503993107,
				"z": 0.4796088408,
				"element": "H" 
			},
			{
				"x": -4.2772385361,
				"y": 2.3261866258,
				"z": 1.5123780308,
				"element": "H" 
			},
			{
				"x": 1.067831694,
				"y": 1.6669919325,
				"z": -0.0080042521,
				"element": "H" 
			},
			{
				"x": 3.376438172,
				"y": 1.4898659281,
				"z": -0.8825063512,
				"element": "H" 
			},
			{
				"x": 4.8672205371,
				"y": -1.6139038423,
				"z": -1.5723714651,
				"element": "H" 
			},
			{
				"x": 2.9823944963,
				"y": -2.8040367729,
				"z": -0.9762279446,
				"element": "H" 
			},
			{
				"x": -0.3460336907,
				"y": -2.5874295322,
				"z": 0.1287986994,
				"element": "H" 
			}
		],
		 "valence_orbital": [ 
			{
				"type": "occ",
				"energy": -0.26569,
				"method": "rhf"
			},
			{
				"type": "occ",
				"energy": -0.25921,
				"method": "rhf"
			},
			{
				"type": "occ",
				"energy": -0.24099,
				"method": "rhf"
			},
			{
				"type": "occ",
				"energy": -0.23449,
				"method": "rhf"
			},
			{
				"type": "occ",
				"energy": -0.22051,
				"method": "rhf"
			},
			{
				"type": "unocc",
				"energy": -0.06025,
				"method": "rhf"
			},
			{
				"type": "unocc",
				"energy": -0.01467,
				"method": "rhf"
			},
			{
				"type": "unocc",
				"energy": -0.00499,
				"method": "rhf"
			},
			{
				"type": "unocc",
				"energy": 0.00927,
				"method": "rhf"
			},
			{
				"type": "unocc",
				"energy": 0.05983,
				"method": "rhf"
			}
		],
		"cosmo_sigma_profile": { 
			"-0.025": 0.0,
			"-0.024": 0.0,
			"-0.023": 0.0,
			"-0.022": 0.0,
			"-0.021": 0.0,
			"-0.02": 0.0,
			"-0.019": 0.236662433401,
			"-0.018": 1.81999809459,
			"-0.017": 2.59013280405,
			"-0.016": 2.07405215683,
			"-0.015": 1.91538913976,
			"-0.014": 2.3489592525,
			"-0.013": 1.88580113748,
			"-0.012": 1.94829203459,
			"-0.011": 1.68587895826,
			"-0.01": 2.03220611153,
			"-0.009": 2.92578078548,
			"-0.008": 1.49181341671,
			"-0.007": 5.36007609653,
			"-0.006": 11.2337102459,
			"-0.005": 12.9938222904,
			"-0.004": 13.0295255358,
			"-0.003": 10.8647521756,
			"-0.002": 13.9428563758,
			"-0.001": 16.751703422,
			"0.0": 13.4911066699,
			"0.001": 15.1859223329,
			"0.002": 23.2321423437,
			"0.003": 28.5358094217,
			"0.004": 19.8070898875,
			"0.005": 7.28700247974,
			"0.006": 6.8330463924,
			"0.007": 4.78850756751,
			"0.008": 5.74698783517,
			"0.009": 5.91298602412,
			"0.01": 7.10226801503,
			"0.011": 5.4737683959,
			"0.012": 1.83450646104,
			"0.013": 0.315611614315,
			"0.014": 0.0,
			"0.015": 0.0,
			"0.016": 0.0,
			"0.017": 0.0,
			"0.018": 0.0,
			"0.019": 0.0,
			"0.02": 0.0,
			"0.021": 0.0,
			"0.022": 0.0,
			"0.023": 0.0,
			"0.024": 0.0,
			"0.025": 0.0
		}
	}
}
