{
	 "smiles": "COC(=O)C1=C(C=CC=C1)[N+]([O-])=O", 
	 "Tm": 260.15, 
	 "num_atms": 20, 
	 "gaussian": { 
		 "optdone": 1, 
		 "sigma_profile": "yes", 
		 "theory": "DFT", 
		 "functional": "B3LYP", 
		 "basiset": "6-31G**", 
		 "properties": { 
			 "R2extent": 3237.6461, 
			 "electric_dipole_moment_norm": 5.27441445755, 
			 "electric_quadrupole_moment_norm": 13.4212535692, 
			 "total_energy": -664.611661434, 
			 "HOMO_LUMO_gap": 0.18413, 
			 "cosmo_polarized_energy": -12.82, 
			 "cosmo_cavitation_energy": 25.74, 
			 "cosmo_dispersion_energy": -18.37, 
			 "cosmo_repulsion_energy": 1.46, 
			 "cosmo_total_nonelectrostatic_energy": 8.84, 
			 "SMD_solvation_energy": 8.13 
		},
		"coords": [
			{
				"x": -3.1602561635,
				"y": 0.6857287108,
				"z": 2.4513364489,
				"element": "C" 
			},
			{
				"x": -2.6214020901,
				"y": -0.4589389409,
				"z": 1.7623807647,
				"element": "O" 
			},
			{
				"x": -1.6131910347,
				"y": -0.1865620024,
				"z": 0.91282638,
				"element": "C" 
			},
			{
				"x": -1.1403276151,
				"y": 0.9125475801,
				"z": 0.7363594358,
				"element": "O" 
			},
			{
				"x": -1.0813525023,
				"y": -1.4455926074,
				"z": 0.2856977601,
				"element": "C" 
			},
			{
				"x": -0.8279793689,
				"y": -1.5616309067,
				"z": -1.0875341751,
				"element": "C" 
			},
			{
				"x": -0.1765202637,
				"y": -2.6666938096,
				"z": -1.6268560124,
				"element": "C" 
			},
			{
				"x": 0.2182170505,
				"y": -3.7038986224,
				"z": -0.7832745996,
				"element": "C" 
			},
			{
				"x": -0.0438786468,
				"y": -3.6238763273,
				"z": 0.5846585447,
				"element": "C" 
			},
			{
				"x": -0.6864546673,
				"y": -2.5025975912,
				"z": 1.1123807345,
				"element": "C" 
			},
			{
				"x": -1.3265312862,
				"y": -0.5470107662,
				"z": -2.0336218423,
				"element": "N" 
			},
			{
				"x": -0.7022669753,
				"y": -0.3994643191,
				"z": -3.0823831703,
				"element": "O" 
			},
			{
				"x": -2.3561844385,
				"y": 0.0501459632,
				"z": -1.7301415276,
				"element": "O" 
			},
			{
				"x": -2.3879869158,
				"y": 1.1689816446,
				"z": 3.0546610358,
				"element": "H" 
			},
			{
				"x": -3.9577058215,
				"y": 0.2968595804,
				"z": 3.0836966022,
				"element": "H" 
			},
			{
				"x": -3.553857555,
				"y": 1.4080216704,
				"z": 1.7327736613,
				"element": "H" 
			},
			{
				"x": -0.0036646899,
				"y": -2.7016082131,
				"z": -2.6955695004,
				"element": "H" 
			},
			{
				"x": 0.7187683422,
				"y": -4.5732494127,
				"z": -1.1972859982,
				"element": "H" 
			},
			{
				"x": 0.2551547606,
				"y": -4.4318841855,
				"z": 1.245139251,
				"element": "H" 
			},
			{
				"x": -0.8764801187,
				"y": -2.4311774451,
				"z": 2.1777562068,
				"element": "H" 
			}
		],
		 "valence_orbital": [ 
			{
				"type": "occ",
				"energy": -0.30765,
				"method": "rhf"
			},
			{
				"type": "occ",
				"energy": -0.30174,
				"method": "rhf"
			},
			{
				"type": "occ",
				"energy": -0.29285,
				"method": "rhf"
			},
			{
				"type": "occ",
				"energy": -0.28064,
				"method": "rhf"
			},
			{
				"type": "occ",
				"energy": -0.27368,
				"method": "rhf"
			},
			{
				"type": "unocc",
				"energy": -0.08955,
				"method": "rhf"
			},
			{
				"type": "unocc",
				"energy": -0.04496,
				"method": "rhf"
			},
			{
				"type": "unocc",
				"energy": -0.01661,
				"method": "rhf"
			},
			{
				"type": "unocc",
				"energy": 0.02089,
				"method": "rhf"
			},
			{
				"type": "unocc",
				"energy": 0.07073,
				"method": "rhf"
			}
		],
		"cosmo_sigma_profile": { 
			"-0.025": 0.0,
			"-0.024": 0.0,
			"-0.023": 0.0,
			"-0.022": 0.0,
			"-0.021": 0.0,
			"-0.02": 0.0,
			"-0.019": 0.0,
			"-0.018": 0.0,
			"-0.017": 0.0,
			"-0.016": 0.0,
			"-0.015": 0.0,
			"-0.014": 0.0,
			"-0.013": 0.0,
			"-0.012": 0.0,
			"-0.011": 0.0,
			"-0.01": 0.0,
			"-0.009": 0.161697430565,
			"-0.008": 6.52248015721,
			"-0.007": 11.7521184383,
			"-0.006": 16.6444603711,
			"-0.005": 14.9516759298,
			"-0.004": 16.070433726,
			"-0.003": 12.9684149302,
			"-0.002": 11.7844015574,
			"-0.001": 13.087915309,
			"0.0": 16.4468451646,
			"0.001": 16.2196434044,
			"0.002": 9.17939749757,
			"0.003": 6.55305286214,
			"0.004": 5.36778838682,
			"0.005": 6.08495038329,
			"0.006": 7.23452381639,
			"0.007": 11.7520776917,
			"0.008": 8.52909242975,
			"0.009": 5.77134962564,
			"0.01": 3.64043640955,
			"0.011": 4.51911921239,
			"0.012": 1.00492560921,
			"0.013": 0.0,
			"0.014": 0.0,
			"0.015": 0.0,
			"0.016": 0.0,
			"0.017": 0.0,
			"0.018": 0.0,
			"0.019": 0.0,
			"0.02": 0.0,
			"0.021": 0.0,
			"0.022": 0.0,
			"0.023": 0.0,
			"0.024": 0.0,
			"0.025": 0.0
		}
	}
}
