{
	 "smiles": "CC(=O)NC1=C(CCNC(=O)C2=C(O)C3=CC=CC=C3C=C2)C=CC=C1", 
	 "Tm": 499.15, 
	 "num_atms": 46, 
	 "gaussian": { 
		 "optdone": 1, 
		 "sigma_profile": "yes", 
		 "theory": "DFT", 
		 "functional": "B3LYP", 
		 "basiset": "6-31G**", 
		 "properties": { 
			 "R2extent": 11198.994, 
			 "electric_dipole_moment_norm": 5.78513526376, 
			 "electric_quadrupole_moment_norm": 25.3542901046, 
			 "total_energy": -1147.53066034, 
			 "HOMO_LUMO_gap": 0.15862, 
			 "cosmo_polarized_energy": -22.41, 
			 "cosmo_cavitation_energy": 48.88, 
			 "cosmo_dispersion_energy": -32.97, 
			 "cosmo_repulsion_energy": 2.47, 
			 "cosmo_total_nonelectrostatic_energy": 18.38, 
			 "SMD_solvation_energy": 8.76 
		},
		"coords": [
			{
				"x": -1.3767937502,
				"y": 2.2418874566,
				"z": 3.5064623039,
				"element": "C" 
			},
			{
				"x": -0.2762117039,
				"y": 2.0314564698,
				"z": 4.5286039904,
				"element": "C" 
			},
			{
				"x": -0.4916495781,
				"y": 1.9407273881,
				"z": 5.7289343242,
				"element": "O" 
			},
			{
				"x": 1.0213417024,
				"y": 1.9027922113,
				"z": 4.0562276121,
				"element": "N" 
			},
			{
				"x": 1.5268574236,
				"y": 2.0400726233,
				"z": 2.7337292727,
				"element": "C" 
			},
			{
				"x": 2.2675236475,
				"y": 0.9886693795,
				"z": 2.1522737492,
				"element": "C" 
			},
			{
				"x": 2.472990795,
				"y": -0.3276226098,
				"z": 2.8700306085,
				"element": "C" 
			},
			{
				"x": 1.2516156231,
				"y": -1.2728647979,
				"z": 2.8065762834,
				"element": "C" 
			},
			{
				"x": 0.9338911344,
				"y": -1.7117267294,
				"z": 1.4561215493,
				"element": "N" 
			},
			{
				"x": -0.1506805589,
				"y": -1.2783713312,
				"z": 0.7594789479,
				"element": "C" 
			},
			{
				"x": -0.9622631395,
				"y": -0.4805146433,
				"z": 1.2862282363,
				"element": "O" 
			},
			{
				"x": -0.3516473764,
				"y": -1.771850085,
				"z": -0.6212483309,
				"element": "C" 
			},
			{
				"x": -1.4238999628,
				"y": -1.2401728524,
				"z": -1.3602386091,
				"element": "C" 
			},
			{
				"x": -2.2679807083,
				"y": -0.3391897213,
				"z": -0.8537880551,
				"element": "O" 
			},
			{
				"x": -1.6496239895,
				"y": -1.6554214182,
				"z": -2.7167078741,
				"element": "C" 
			},
			{
				"x": -2.7171272938,
				"y": -1.116744492,
				"z": -3.4761173484,
				"element": "C" 
			},
			{
				"x": -2.922336744,
				"y": -1.5240824772,
				"z": -4.7779738551,
				"element": "C" 
			},
			{
				"x": -2.0685067227,
				"y": -2.4856250285,
				"z": -5.3645518304,
				"element": "C" 
			},
			{
				"x": -1.0239958312,
				"y": -3.0248529356,
				"z": -4.6427894318,
				"element": "C" 
			},
			{
				"x": -0.7845337151,
				"y": -2.6267779534,
				"z": -3.3031280752,
				"element": "C" 
			},
			{
				"x": 0.2821702363,
				"y": -3.1688071394,
				"z": -2.5272596652,
				"element": "C" 
			},
			{
				"x": 0.4819377805,
				"y": -2.7521055144,
				"z": -1.2391740805,
				"element": "C" 
			},
			{
				"x": 2.7848347204,
				"y": 1.1751539011,
				"z": 0.8651453137,
				"element": "C" 
			},
			{
				"x": 2.5639146701,
				"y": 2.3526254661,
				"z": 0.1503655573,
				"element": "C" 
			},
			{
				"x": 1.8279718441,
				"y": 3.3832238788,
				"z": 0.7331349022,
				"element": "C" 
			},
			{
				"x": 1.3299148026,
				"y": 3.2317538459,
				"z": 2.0262091269,
				"element": "C" 
			},
			{
				"x": -1.2608842864,
				"y": 1.5780757095,
				"z": 2.6456128703,
				"element": "H" 
			},
			{
				"x": -2.3257615075,
				"y": 2.045783567,
				"z": 4.0059578647,
				"element": "H" 
			},
			{
				"x": -1.3847061874,
				"y": 3.274449666,
				"z": 3.1441310022,
				"element": "H" 
			},
			{
				"x": 1.6762018624,
				"y": 1.6906114167,
				"z": 4.7995627513,
				"element": "H" 
			},
			{
				"x": 2.7065391316,
				"y": -0.1713460356,
				"z": 3.929586436,
				"element": "H" 
			},
			{
				"x": 3.3432890068,
				"y": -0.8391443317,
				"z": 2.4407719923,
				"element": "H" 
			},
			{
				"x": 0.3636839838,
				"y": -0.7772544756,
				"z": 3.1983485177,
				"element": "H" 
			},
			{
				"x": 1.4485651108,
				"y": -2.1550082275,
				"z": 3.4277450223,
				"element": "H" 
			},
			{
				"x": 1.6040008671,
				"y": -2.2978191274,
				"z": 0.9848418684,
				"element": "H" 
			},
			{
				"x": -1.9678064244,
				"y": -0.1951026661,
				"z": 0.0929904084,
				"element": "H" 
			},
			{
				"x": -3.3637466981,
				"y": -0.3813537774,
				"z": -3.0112353625,
				"element": "H" 
			},
			{
				"x": -3.7419714192,
				"y": -1.1071415678,
				"z": -5.3555621911,
				"element": "H" 
			},
			{
				"x": -2.2382203066,
				"y": -2.8012231145,
				"z": -6.390153024,
				"element": "H" 
			},
			{
				"x": -0.3682618682,
				"y": -3.7654302339,
				"z": -5.0931502509,
				"element": "H" 
			},
			{
				"x": 0.9288811062,
				"y": -3.9203940223,
				"z": -2.9699815369,
				"element": "H" 
			},
			{
				"x": 1.2925266079,
				"y": -3.2077275159,
				"z": -0.6770329375,
				"element": "H" 
			},
			{
				"x": 3.3653308947,
				"y": 0.3750347882,
				"z": 0.4126095033,
				"element": "H" 
			},
			{
				"x": 2.969025306,
				"y": 2.4644666888,
				"z": -0.8508163328,
				"element": "H" 
			},
			{
				"x": 1.659308159,
				"y": 4.3112565807,
				"z": 0.1951271955,
				"element": "H" 
			},
			{
				"x": 0.7967933559,
				"y": 4.0455337873,
				"z": 2.5066015811,
				"element": "H" 
			}
		],
		 "valence_orbital": [ 
			{
				"type": "occ",
				"energy": -0.25433,
				"method": "rhf"
			},
			{
				"type": "occ",
				"energy": -0.2495,
				"method": "rhf"
			},
			{
				"type": "occ",
				"energy": -0.24238,
				"method": "rhf"
			},
			{
				"type": "occ",
				"energy": -0.2297,
				"method": "rhf"
			},
			{
				"type": "occ",
				"energy": -0.20644,
				"method": "rhf"
			},
			{
				"type": "unocc",
				"energy": -0.04782,
				"method": "rhf"
			},
			{
				"type": "unocc",
				"energy": -0.02945,
				"method": "rhf"
			},
			{
				"type": "unocc",
				"energy": -0.0158,
				"method": "rhf"
			},
			{
				"type": "unocc",
				"energy": -0.01045,
				"method": "rhf"
			},
			{
				"type": "unocc",
				"energy": 0.02851,
				"method": "rhf"
			}
		],
		"cosmo_sigma_profile": { 
			"-0.025": 0.0,
			"-0.024": 0.0,
			"-0.023": 0.0,
			"-0.022": 0.0,
			"-0.021": 0.0,
			"-0.02": 0.0,
			"-0.019": 0.0,
			"-0.018": 0.0,
			"-0.017": 0.0,
			"-0.016": 0.131526048179,
			"-0.015": 0.975554842344,
			"-0.014": 1.5108869222,
			"-0.013": 1.62807920174,
			"-0.012": 2.54673975529,
			"-0.011": 2.47202208928,
			"-0.01": 3.20578541956,
			"-0.009": 2.66512243445,
			"-0.008": 2.2227389344,
			"-0.007": 6.0969794017,
			"-0.006": 20.357141318,
			"-0.005": 30.870898337,
			"-0.004": 30.4406666847,
			"-0.003": 28.5063834358,
			"-0.002": 24.4974947729,
			"-0.001": 26.8378800203,
			"0.0": 25.5115981202,
			"0.001": 26.8133757083,
			"0.002": 28.3600985493,
			"0.003": 30.9160571175,
			"0.004": 31.742050172,
			"0.005": 22.7090024611,
			"0.006": 8.26216563981,
			"0.007": 4.78521430646,
			"0.008": 3.58466569238,
			"0.009": 3.898310721,
			"0.01": 3.43269680897,
			"0.011": 2.09037103263,
			"0.012": 1.87868566825,
			"0.013": 4.1145149207,
			"0.014": 5.35007315964,
			"0.015": 1.22026355566,
			"0.016": 0.0010043161891,
			"0.017": 0.0,
			"0.018": 0.0,
			"0.019": 0.0,
			"0.02": 0.0,
			"0.021": 0.0,
			"0.022": 0.0,
			"0.023": 0.0,
			"0.024": 0.0,
			"0.025": 0.0
		}
	}
}
