{
	 "smiles": "CCOC(=O)C1=NN(C(C)=C1)C1=NNC(C)=C1", 
	 "Tm": 394.15, 
	 "num_atms": 31, 
	 "gaussian": { 
		 "optdone": 1, 
		 "sigma_profile": "yes", 
		 "theory": "DFT", 
		 "functional": "B3LYP", 
		 "basiset": "6-31G**", 
		 "properties": { 
			 "R2extent": 6165.8814, 
			 "electric_dipole_moment_norm": 5.38975798436, 
			 "electric_quadrupole_moment_norm": 13.187376341, 
			 "total_energy": -797.049696788, 
			 "HOMO_LUMO_gap": 0.19812, 
			 "cosmo_polarized_energy": -16.45, 
			 "cosmo_cavitation_energy": 35.84, 
			 "cosmo_dispersion_energy": -25.89, 
			 "cosmo_repulsion_energy": 2.06, 
			 "cosmo_total_nonelectrostatic_energy": 12.01, 
			 "SMD_solvation_energy": 6.19 
		},
		"coords": [
			{
				"x": -1.749835634,
				"y": -5.0391747622,
				"z": -2.8351748313,
				"element": "C" 
			},
			{
				"x": -0.7851040735,
				"y": -4.8590047136,
				"z": -1.6719421316,
				"element": "C" 
			},
			{
				"x": -0.4977390983,
				"y": -3.4622420917,
				"z": -1.4376006254,
				"element": "O" 
			},
			{
				"x": 0.4915944357,
				"y": -2.9254280995,
				"z": -2.1806876359,
				"element": "C" 
			},
			{
				"x": 1.1391274512,
				"y": -3.5394237991,
				"z": -3.0096965473,
				"element": "O" 
			},
			{
				"x": 0.7222927748,
				"y": -1.4960867913,
				"z": -1.8838947015,
				"element": "C" 
			},
			{
				"x": 0.0180849107,
				"y": -0.8156785602,
				"z": -0.9794323304,
				"element": "N" 
			},
			{
				"x": 0.5351138789,
				"y": 0.433624839,
				"z": -1.016647685,
				"element": "N" 
			},
			{
				"x": 1.5631721753,
				"y": 0.562914718,
				"z": -1.9348111177,
				"element": "C" 
			},
			{
				"x": 2.3224272181,
				"y": 1.8231744476,
				"z": -2.1949154862,
				"element": "C" 
			},
			{
				"x": 1.6977646963,
				"y": -0.6829900042,
				"z": -2.5080722202,
				"element": "C" 
			},
			{
				"x": -0.0223385862,
				"y": 1.3912139031,
				"z": -0.1501517891,
				"element": "C" 
			},
			{
				"x": 0.4216024235,
				"y": 2.6436381565,
				"z": -0.1202139083,
				"element": "N" 
			},
			{
				"x": -0.3581042127,
				"y": 3.2272142869,
				"z": 0.8218735034,
				"element": "N" 
			},
			{
				"x": -1.2712290813,
				"y": 2.3824125571,
				"z": 1.3790210149,
				"element": "C" 
			},
			{
				"x": -2.2332807097,
				"y": 2.8152789742,
				"z": 2.4389951364,
				"element": "C" 
			},
			{
				"x": -1.079009773,
				"y": 1.1608948081,
				"z": 0.7616115033,
				"element": "C" 
			},
			{
				"x": -1.2899186773,
				"y": -4.70575758,
				"z": -3.7685641382,
				"element": "H" 
			},
			{
				"x": -2.6690284141,
				"y": -4.469563625,
				"z": -2.6695043143,
				"element": "H" 
			},
			{
				"x": -2.0136370709,
				"y": -6.0970766608,
				"z": -2.9402705094,
				"element": "H" 
			},
			{
				"x": 0.1527157409,
				"y": -5.3894642298,
				"z": -1.8545146961,
				"element": "H" 
			},
			{
				"x": -1.222574597,
				"y": -5.2064900139,
				"z": -0.7327201602,
				"element": "H" 
			},
			{
				"x": 3.0719211417,
				"y": 1.6314278819,
				"z": -2.9663530756,
				"element": "H" 
			},
			{
				"x": 1.6653993618,
				"y": 2.6301970591,
				"z": -2.5314325299,
				"element": "H" 
			},
			{
				"x": 2.825389153,
				"y": 2.1865719363,
				"z": -1.294250448,
				"element": "H" 
			},
			{
				"x": 2.3986675558,
				"y": -0.9808847093,
				"z": -3.272303336,
				"element": "H" 
			},
			{
				"x": -0.2108040195,
				"y": 4.2018121956,
				"z": 1.0317867055,
				"element": "H" 
			},
			{
				"x": -1.7146267084,
				"y": 3.1742562564,
				"z": 3.3354469821,
				"element": "H" 
			},
			{
				"x": -2.8653075072,
				"y": 1.9752002816,
				"z": 2.7329140546,
				"element": "H" 
			},
			{
				"x": -2.8884041115,
				"y": 3.6208492235,
				"z": 2.0877624044,
				"element": "H" 
			},
			{
				"x": -1.6061306429,
				"y": 0.2360841157,
				"z": 0.9272429127,
				"element": "H" 
			}
		],
		 "valence_orbital": [ 
			{
				"type": "occ",
				"energy": -0.28413,
				"method": "rhf"
			},
			{
				"type": "occ",
				"energy": -0.26138,
				"method": "rhf"
			},
			{
				"type": "occ",
				"energy": -0.24985,
				"method": "rhf"
			},
			{
				"type": "occ",
				"energy": -0.23827,
				"method": "rhf"
			},
			{
				"type": "occ",
				"energy": -0.22428,
				"method": "rhf"
			},
			{
				"type": "unocc",
				"energy": -0.02616,
				"method": "rhf"
			},
			{
				"type": "unocc",
				"energy": 0.00967,
				"method": "rhf"
			},
			{
				"type": "unocc",
				"energy": 0.03212,
				"method": "rhf"
			},
			{
				"type": "unocc",
				"energy": 0.06896,
				"method": "rhf"
			},
			{
				"type": "unocc",
				"energy": 0.09838,
				"method": "rhf"
			}
		],
		"cosmo_sigma_profile": { 
			"-0.025": 0.0,
			"-0.024": 0.0,
			"-0.023": 0.0,
			"-0.022": 0.0,
			"-0.021": 0.0,
			"-0.02": 0.0,
			"-0.019": 0.0,
			"-0.018": 0.0,
			"-0.017": 0.540116363959,
			"-0.016": 1.30891241732,
			"-0.015": 1.3859335661,
			"-0.014": 0.961907645689,
			"-0.013": 0.475169045387,
			"-0.012": 1.43027646644,
			"-0.011": 1.41778101107,
			"-0.01": 0.948617906357,
			"-0.009": 0.866390567699,
			"-0.008": 1.035568592,
			"-0.007": 2.80571861728,
			"-0.006": 8.62982189217,
			"-0.005": 19.9446696068,
			"-0.004": 22.7604561027,
			"-0.003": 26.3933507296,
			"-0.002": 28.9405380026,
			"-0.001": 28.4965648338,
			"0.0": 23.9631756747,
			"0.001": 17.5739492959,
			"0.002": 16.1085132422,
			"0.003": 17.5574250778,
			"0.004": 12.8092411265,
			"0.005": 8.74220186558,
			"0.006": 6.00335169065,
			"0.007": 6.13899440554,
			"0.008": 4.67212125792,
			"0.009": 3.99171992456,
			"0.01": 4.70105332969,
			"0.011": 5.11290326259,
			"0.012": 5.86730849926,
			"0.013": 1.42515947564,
			"0.014": 1.23941482939,
			"0.015": 0.0148535111549,
			"0.016": 0.0,
			"0.017": 0.0,
			"0.018": 0.0,
			"0.019": 0.0,
			"0.02": 0.0,
			"0.021": 0.0,
			"0.022": 0.0,
			"0.023": 0.0,
			"0.024": 0.0,
			"0.025": 0.0
		}
	}
}
