{
	 "smiles": "FC(F)(F)C1=CC=C(C=C1)N1N=CC(Cl)=C(Cl)C1=O", 
	 "Tm": 413.15, 
	 "num_atms": 24, 
	 "gaussian": { 
		 "optdone": 1, 
		 "sigma_profile": "yes", 
		 "theory": "DFT", 
		 "functional": "B3LYP", 
		 "basiset": "6-31G**", 
		 "properties": { 
			 "R2extent": 10863.2365, 
			 "electric_dipole_moment_norm": 3.28666613759, 
			 "electric_quadrupole_moment_norm": 12.5067566063, 
			 "total_energy": -1826.785029, 
			 "HOMO_LUMO_gap": 0.15588, 
			 "cosmo_polarized_energy": -9.74, 
			 "cosmo_cavitation_energy": 34.59, 
			 "cosmo_dispersion_energy": -25.09, 
			 "cosmo_repulsion_energy": 1.85, 
			 "cosmo_total_nonelectrostatic_energy": 11.35, 
			 "SMD_solvation_energy": 6.76 
		},
		"coords": [
			{
				"x": 4.0571199396,
				"y": 4.1659699673,
				"z": -0.7422845253,
				"element": "F" 
			},
			{
				"x": 2.7224633185,
				"y": 4.2834956554,
				"z": -0.5666463173,
				"element": "C" 
			},
			{
				"x": 2.4998294721,
				"y": 5.4176473016,
				"z": 0.1318630333,
				"element": "F" 
			},
			{
				"x": 2.1795969971,
				"y": 4.4635644038,
				"z": -1.7933534371,
				"element": "F" 
			},
			{
				"x": 2.1414829117,
				"y": 3.077979515,
				"z": 0.1220080289,
				"element": "C" 
			},
			{
				"x": 2.7158497541,
				"y": 1.8192791056,
				"z": -0.0714617577,
				"element": "C" 
			},
			{
				"x": 2.1508733559,
				"y": 0.6968301785,
				"z": 0.5239105295,
				"element": "C" 
			},
			{
				"x": 1.0036519406,
				"y": 0.8311433572,
				"z": 1.3135442249,
				"element": "C" 
			},
			{
				"x": 0.4228436029,
				"y": 2.08831488,
				"z": 1.511132357,
				"element": "C" 
			},
			{
				"x": 0.997219028,
				"y": 3.2063197603,
				"z": 0.9114839547,
				"element": "C" 
			},
			{
				"x": 0.4263297267,
				"y": -0.3584249671,
				"z": 1.887401602,
				"element": "N" 
			},
			{
				"x": 0.5264465085,
				"y": -1.4511911752,
				"z": 1.1036111864,
				"element": "N" 
			},
			{
				"x": 0.075220811,
				"y": -2.5867589663,
				"z": 1.5469338291,
				"element": "C" 
			},
			{
				"x": -0.5262917699,
				"y": -2.7425528923,
				"z": 2.8339992276,
				"element": "C" 
			},
			{
				"x": -1.0939506505,
				"y": -4.3186619153,
				"z": 3.2825078736,
				"element": "Cl" 
			},
			{
				"x": -0.6243432804,
				"y": -1.6497010714,
				"z": 3.6447418126,
				"element": "C" 
			},
			{
				"x": -1.3113727845,
				"y": -1.6961280911,
				"z": 5.2207364629,
				"element": "Cl" 
			},
			{
				"x": -0.1225610215,
				"y": -0.3390725501,
				"z": 3.1999388648,
				"element": "C" 
			},
			{
				"x": -0.1635419393,
				"y": 0.6738623603,
				"z": 3.8766006981,
				"element": "O" 
			},
			{
				"x": 3.6110662082,
				"y": 1.7189493217,
				"z": -0.6750258678,
				"element": "H" 
			},
			{
				"x": 2.5869120073,
				"y": -0.2834715659,
				"z": 0.3775593229,
				"element": "H" 
			},
			{
				"x": -0.4541259106,
				"y": 2.1950922112,
				"z": 2.1328789714,
				"element": "H" 
			},
			{
				"x": 0.5538472691,
				"y": 4.1837902263,
				"z": 1.0652611246,
				"element": "H" 
			},
			{
				"x": 0.1692345059,
				"y": -3.4368750495,
				"z": 0.8800588011,
				"element": "H" 
			}
		],
		 "valence_orbital": [ 
			{
				"type": "occ",
				"energy": -0.3175,
				"method": "rhf"
			},
			{
				"type": "occ",
				"energy": -0.28551,
				"method": "rhf"
			},
			{
				"type": "occ",
				"energy": -0.2782,
				"method": "rhf"
			},
			{
				"type": "occ",
				"energy": -0.27425,
				"method": "rhf"
			},
			{
				"type": "occ",
				"energy": -0.25111,
				"method": "rhf"
			},
			{
				"type": "unocc",
				"energy": -0.09523,
				"method": "rhf"
			},
			{
				"type": "unocc",
				"energy": -0.0377,
				"method": "rhf"
			},
			{
				"type": "unocc",
				"energy": -0.02621,
				"method": "rhf"
			},
			{
				"type": "unocc",
				"energy": -0.024,
				"method": "rhf"
			},
			{
				"type": "unocc",
				"energy": -0.01815,
				"method": "rhf"
			}
		],
		"cosmo_sigma_profile": { 
			"-0.025": 0.0,
			"-0.024": 0.0,
			"-0.023": 0.0,
			"-0.022": 0.0,
			"-0.021": 0.0,
			"-0.02": 0.0,
			"-0.019": 0.0,
			"-0.018": 0.0,
			"-0.017": 0.0,
			"-0.016": 0.0,
			"-0.015": 0.0,
			"-0.014": 0.0,
			"-0.013": 0.0,
			"-0.012": 0.0,
			"-0.011": 0.0468668802674,
			"-0.01": 1.59430350354,
			"-0.009": 1.68384561908,
			"-0.008": 3.22138582366,
			"-0.007": 9.39591136668,
			"-0.006": 11.8029206532,
			"-0.005": 14.0915251084,
			"-0.004": 21.3281020982,
			"-0.003": 19.137531829,
			"-0.002": 17.8016216656,
			"-0.001": 17.5855694346,
			"0.0": 22.7720624157,
			"0.001": 29.0928705459,
			"0.002": 46.4614570912,
			"0.003": 39.5298670488,
			"0.004": 6.14435147823,
			"0.005": 3.42573838442,
			"0.006": 2.50099949794,
			"0.007": 2.12594940995,
			"0.008": 3.50019747518,
			"0.009": 2.07869594119,
			"0.01": 2.50105052506,
			"0.011": 3.58944427496,
			"0.012": 2.70943867785,
			"0.013": 0.345610838364,
			"0.014": 0.0,
			"0.015": 0.0,
			"0.016": 0.0,
			"0.017": 0.0,
			"0.018": 0.0,
			"0.019": 0.0,
			"0.02": 0.0,
			"0.021": 0.0,
			"0.022": 0.0,
			"0.023": 0.0,
			"0.024": 0.0,
			"0.025": 0.0
		}
	}
}
