{
	 "smiles": "NC1=CC(Cl)=C(NC(=O)C2=NC=CN=C2)C(Cl)=C1", 
	 "Tm": 469.15, 
	 "num_atms": 26, 
	 "gaussian": { 
		 "optdone": 1, 
		 "sigma_profile": "yes", 
		 "theory": "DFT", 
		 "functional": "B3LYP", 
		 "basiset": "6-31G**", 
		 "properties": { 
			 "R2extent": 7649.4154, 
			 "electric_dipole_moment_norm": 4.77983351488, 
			 "electric_quadrupole_moment_norm": 27.3789947672, 
			 "total_energy": -1638.60775248, 
			 "HOMO_LUMO_gap": 0.14632, 
			 "cosmo_polarized_energy": -19.0, 
			 "cosmo_cavitation_energy": 35.32, 
			 "cosmo_dispersion_energy": -25.31, 
			 "cosmo_repulsion_energy": 1.96, 
			 "cosmo_total_nonelectrostatic_energy": 11.97, 
			 "SMD_solvation_energy": 3.86 
		},
		"coords": [
			{
				"x": -3.1195511349,
				"y": 0.2344700514,
				"z": 4.6128287756,
				"element": "N" 
			},
			{
				"x": -2.017352553,
				"y": 0.3003468346,
				"z": 3.7714127791,
				"element": "C" 
			},
			{
				"x": -2.1834748885,
				"y": 0.419440101,
				"z": 2.3823155899,
				"element": "C" 
			},
			{
				"x": -1.0765510832,
				"y": 0.4349022397,
				"z": 1.5419020379,
				"element": "C" 
			},
			{
				"x": -1.3532724011,
				"y": 0.6742897246,
				"z": -0.1679302609,
				"element": "Cl" 
			},
			{
				"x": 0.236913952,
				"y": 0.3040493705,
				"z": 2.0288581505,
				"element": "C" 
			},
			{
				"x": 1.3650625409,
				"y": 0.3106024526,
				"z": 1.1833341543,
				"element": "N" 
			},
			{
				"x": 1.6571102882,
				"y": -0.6872166267,
				"z": 0.288905583,
				"element": "C" 
			},
			{
				"x": 0.9455966007,
				"y": -1.6514887525,
				"z": 0.0498559757,
				"element": "O" 
			},
			{
				"x": 2.9783500757,
				"y": -0.4889247846,
				"z": -0.4120579206,
				"element": "C" 
			},
			{
				"x": 3.7383028642,
				"y": 0.5614607848,
				"z": -0.0726864581,
				"element": "N" 
			},
			{
				"x": 4.9029908032,
				"y": 0.6889297722,
				"z": -0.7132517202,
				"element": "C" 
			},
			{
				"x": 5.3039860722,
				"y": -0.2274647809,
				"z": -1.6891491054,
				"element": "C" 
			},
			{
				"x": 4.5504781736,
				"y": -1.2786643412,
				"z": -2.0324010489,
				"element": "N" 
			},
			{
				"x": 3.386102177,
				"y": -1.4063643315,
				"z": -1.3880049544,
				"element": "C" 
			},
			{
				"x": 0.3709497405,
				"y": 0.197891042,
				"z": 3.4242107684,
				"element": "C" 
			},
			{
				"x": 1.9793255145,
				"y": 0.0656266712,
				"z": 4.117189263,
				"element": "Cl" 
			},
			{
				"x": -0.7153334549,
				"y": 0.2041269889,
				"z": 4.2889905844,
				"element": "C" 
			},
			{
				"x": -3.9805166333,
				"y": 0.6169347553,
				"z": 4.2494945208,
				"element": "H" 
			},
			{
				"x": -2.9582848746,
				"y": 0.4782672188,
				"z": 5.5792546154,
				"element": "H" 
			},
			{
				"x": -3.1758764673,
				"y": 0.5105492489,
				"z": 1.9545581023,
				"element": "H" 
			},
			{
				"x": 2.1140022021,
				"y": 0.9732973522,
				"z": 1.3533014412,
				"element": "H" 
			},
			{
				"x": 5.5299770424,
				"y": 1.5363409847,
				"z": -0.445687289,
				"element": "H" 
			},
			{
				"x": 6.2549928129,
				"y": -0.1097285017,
				"z": -2.2041297973,
				"element": "H" 
			},
			{
				"x": 2.747536429,
				"y": -2.2480458165,
				"z": -1.6375130358,
				"element": "H" 
			},
			{
				"x": -0.5507637985,
				"y": 0.1157723421,
				"z": 5.3571992491,
				"element": "H" 
			}
		],
		 "valence_orbital": [ 
			{
				"type": "occ",
				"energy": -0.27518,
				"method": "rhf"
			},
			{
				"type": "occ",
				"energy": -0.27181,
				"method": "rhf"
			},
			{
				"type": "occ",
				"energy": -0.24927,
				"method": "rhf"
			},
			{
				"type": "occ",
				"energy": -0.24869,
				"method": "rhf"
			},
			{
				"type": "occ",
				"energy": -0.21664,
				"method": "rhf"
			},
			{
				"type": "unocc",
				"energy": -0.07032,
				"method": "rhf"
			},
			{
				"type": "unocc",
				"energy": -0.04589,
				"method": "rhf"
			},
			{
				"type": "unocc",
				"energy": -0.02141,
				"method": "rhf"
			},
			{
				"type": "unocc",
				"energy": -0.00722,
				"method": "rhf"
			},
			{
				"type": "unocc",
				"energy": 0.00876,
				"method": "rhf"
			}
		],
		"cosmo_sigma_profile": { 
			"-0.025": 0.0,
			"-0.024": 0.0,
			"-0.023": 0.0,
			"-0.022": 0.0,
			"-0.021": 0.0,
			"-0.02": 0.0,
			"-0.019": 0.0,
			"-0.018": 0.0,
			"-0.017": 0.0,
			"-0.016": 0.0,
			"-0.015": 0.0,
			"-0.014": 0.469623978767,
			"-0.013": 2.96776205832,
			"-0.012": 3.89103432487,
			"-0.011": 3.98414157182,
			"-0.01": 3.70259609086,
			"-0.009": 5.29406790552,
			"-0.008": 11.5939016355,
			"-0.007": 9.09823935852,
			"-0.006": 9.67878462183,
			"-0.005": 8.50787321017,
			"-0.004": 8.9260240576,
			"-0.003": 14.8980339811,
			"-0.002": 23.4924510494,
			"-0.001": 22.1278454431,
			"0.0": 18.4878815603,
			"0.001": 23.4996830222,
			"0.002": 26.8791617451,
			"0.003": 26.6861254801,
			"0.004": 19.7905598527,
			"0.005": 9.08995386139,
			"0.006": 6.37573690208,
			"0.007": 3.0173384021,
			"0.008": 3.37105837982,
			"0.009": 4.02967491594,
			"0.01": 4.05112643899,
			"0.011": 3.66193501501,
			"0.012": 5.72143647752,
			"0.013": 3.84405045279,
			"0.014": 1.03939829036,
			"0.015": 0.222721656297,
			"0.016": 0.0,
			"0.017": 0.0,
			"0.018": 0.0,
			"0.019": 0.0,
			"0.02": 0.0,
			"0.021": 0.0,
			"0.022": 0.0,
			"0.023": 0.0,
			"0.024": 0.0,
			"0.025": 0.0
		}
	}
}
