{
	 "smiles": "N#CCC1=C(C=CC=C1)C#N", 
	 "Tm": 349.15, 
	 "num_atms": 17, 
	 "gaussian": { 
		 "optdone": 1, 
		 "sigma_profile": "yes", 
		 "theory": "DFT", 
		 "functional": "B3LYP", 
		 "basiset": "6-31G**", 
		 "properties": { 
			 "R2extent": 2482.2543, 
			 "electric_dipole_moment_norm": 3.98000252638, 
			 "electric_quadrupole_moment_norm": 16.7251223933, 
			 "total_energy": -456.042282992, 
			 "HOMO_LUMO_gap": 0.20969, 
			 "cosmo_polarized_energy": -12.99, 
			 "cosmo_cavitation_energy": 23.37, 
			 "cosmo_dispersion_energy": -15.94, 
			 "cosmo_repulsion_energy": 1.27, 
			 "cosmo_total_nonelectrostatic_energy": 8.7, 
			 "SMD_solvation_energy": 6.53 
		},
		"coords": [
			{
				"x": 4.4047955156,
				"y": -0.8241096022,
				"z": -0.9640318144,
				"element": "N" 
			},
			{
				"x": 3.493850107,
				"y": -0.8867796866,
				"z": -0.2482323905,
				"element": "C" 
			},
			{
				"x": 2.3418548609,
				"y": -0.9583364007,
				"z": 0.6516597493,
				"element": "C" 
			},
			{
				"x": 1.5416292304,
				"y": 0.3349440794,
				"z": 0.7466034333,
				"element": "C" 
			},
			{
				"x": 0.4076776261,
				"y": 0.3751798037,
				"z": 1.5892545014,
				"element": "C" 
			},
			{
				"x": -0.3561644315,
				"y": 1.5472624046,
				"z": 1.7046545803,
				"element": "C" 
			},
			{
				"x": 0.0014466571,
				"y": 2.6838969684,
				"z": 0.9849353569,
				"element": "C" 
			},
			{
				"x": 1.1196184786,
				"y": 2.6497785895,
				"z": 0.1516961615,
				"element": "C" 
			},
			{
				"x": 1.8818748146,
				"y": 1.4847563983,
				"z": 0.0347147547,
				"element": "C" 
			},
			{
				"x": 0.0299133496,
				"y": -0.7897773201,
				"z": 2.3352241962,
				"element": "C" 
			},
			{
				"x": -0.2574754668,
				"y": -1.7473867657,
				"z": 2.9307509431,
				"element": "N" 
			},
			{
				"x": 1.6939542364,
				"y": -1.7782050308,
				"z": 0.3163840231,
				"element": "H" 
			},
			{
				"x": 2.6997116548,
				"y": -1.2532330325,
				"z": 1.6463363465,
				"element": "H" 
			},
			{
				"x": -1.2219844914,
				"y": 1.5523968312,
				"z": 2.3581882352,
				"element": "H" 
			},
			{
				"x": -0.5897581084,
				"y": 3.5894598006,
				"z": 1.0749937069,
				"element": "H" 
			},
			{
				"x": 1.4047632533,
				"y": 3.532291065,
				"z": -0.4127698111,
				"element": "H" 
			},
			{
				"x": 2.7497927136,
				"y": 1.469761898,
				"z": -0.6166619724,
				"element": "H" 
			}
		],
		 "valence_orbital": [ 
			{
				"type": "occ",
				"energy": -0.34772,
				"method": "rhf"
			},
			{
				"type": "occ",
				"energy": -0.33908,
				"method": "rhf"
			},
			{
				"type": "occ",
				"energy": -0.33778,
				"method": "rhf"
			},
			{
				"type": "occ",
				"energy": -0.28401,
				"method": "rhf"
			},
			{
				"type": "occ",
				"energy": -0.27684,
				"method": "rhf"
			},
			{
				"type": "unocc",
				"energy": -0.06715,
				"method": "rhf"
			},
			{
				"type": "unocc",
				"energy": -0.03517,
				"method": "rhf"
			},
			{
				"type": "unocc",
				"energy": 0.01394,
				"method": "rhf"
			},
			{
				"type": "unocc",
				"energy": 0.02499,
				"method": "rhf"
			},
			{
				"type": "unocc",
				"energy": 0.0286,
				"method": "rhf"
			}
		],
		"cosmo_sigma_profile": { 
			"-0.025": 0.0,
			"-0.024": 0.0,
			"-0.023": 0.0,
			"-0.022": 0.0,
			"-0.021": 0.0,
			"-0.02": 0.0,
			"-0.019": 0.0,
			"-0.018": 0.0,
			"-0.017": 0.0,
			"-0.016": 0.0,
			"-0.015": 0.0,
			"-0.014": 0.0,
			"-0.013": 0.0,
			"-0.012": 0.0,
			"-0.011": 0.0,
			"-0.01": 2.81370777006,
			"-0.009": 5.48745746891,
			"-0.008": 7.18211356405,
			"-0.007": 11.969453347,
			"-0.006": 14.4396385751,
			"-0.005": 11.7369386793,
			"-0.004": 9.89677411153,
			"-0.003": 11.0542523044,
			"-0.002": 10.8073636863,
			"-0.001": 11.6198122806,
			"0.0": 11.5775256785,
			"0.001": 12.0666156714,
			"0.002": 13.6396588159,
			"0.003": 7.97368751423,
			"0.004": 3.50508327641,
			"0.005": 4.24304294356,
			"0.006": 4.14860076148,
			"0.007": 5.51604993662,
			"0.008": 6.14391994118,
			"0.009": 6.15044330816,
			"0.01": 6.06282943659,
			"0.011": 5.15988973308,
			"0.012": 4.71086035028,
			"0.013": 2.0307338535,
			"0.014": 0.0,
			"0.015": 0.0,
			"0.016": 0.0,
			"0.017": 0.0,
			"0.018": 0.0,
			"0.019": 0.0,
			"0.02": 0.0,
			"0.021": 0.0,
			"0.022": 0.0,
			"0.023": 0.0,
			"0.024": 0.0,
			"0.025": 0.0
		}
	}
}
