{
	 "smiles": "CNCCOC1=CC=C(OCC2=CC=CC=C2)C=C1", 
	 "Tm": 318.15, 
	 "num_atms": 38, 
	 "gaussian": { 
		 "optdone": 1, 
		 "sigma_profile": "yes", 
		 "theory": "DFT", 
		 "functional": "B3LYP", 
		 "basiset": "6-31G**", 
		 "properties": { 
			 "R2extent": 7950.2406, 
			 "electric_dipole_moment_norm": 2.69033645108, 
			 "electric_quadrupole_moment_norm": 7.29702865556, 
			 "total_energy": -826.320786816, 
			 "HOMO_LUMO_gap": 0.18637, 
			 "cosmo_polarized_energy": -11.34, 
			 "cosmo_cavitation_energy": 41.07, 
			 "cosmo_dispersion_energy": -28.87, 
			 "cosmo_repulsion_energy": 2.27, 
			 "cosmo_total_nonelectrostatic_energy": 14.47, 
			 "SMD_solvation_energy": 5.16 
		},
		"coords": [
			{
				"x": -3.099285366,
				"y": -2.3833425675,
				"z": -3.1084204895,
				"element": "C" 
			},
			{
				"x": -2.6076962055,
				"y": -1.4268596652,
				"z": -4.0954368375,
				"element": "N" 
			},
			{
				"x": -1.449204798,
				"y": -0.648923829,
				"z": -3.6583360316,
				"element": "C" 
			},
			{
				"x": -0.1493598737,
				"y": -1.4204066926,
				"z": -3.9210139267,
				"element": "C" 
			},
			{
				"x": 1.0036508344,
				"y": -0.654161259,
				"z": -3.5819420955,
				"element": "O" 
			},
			{
				"x": 1.4563066536,
				"y": -0.6328261779,
				"z": -2.2879019346,
				"element": "C" 
			},
			{
				"x": 2.6215061252,
				"y": 0.1208439928,
				"z": -2.0710726458,
				"element": "C" 
			},
			{
				"x": 3.1827677112,
				"y": 0.2046059294,
				"z": -0.8063382635,
				"element": "C" 
			},
			{
				"x": 2.5940641921,
				"y": -0.4623967941,
				"z": 0.2785804705,
				"element": "C" 
			},
			{
				"x": 3.2389939809,
				"y": -0.3147696688,
				"z": 1.4854002257,
				"element": "O" 
			},
			{
				"x": 2.8277290967,
				"y": -1.1159157117,
				"z": 2.5857393942,
				"element": "C" 
			},
			{
				"x": 1.5863461922,
				"y": -0.6117166421,
				"z": 3.2998703958,
				"element": "C" 
			},
			{
				"x": 1.2709341418,
				"y": 0.7515950564,
				"z": 3.3139010225,
				"element": "C" 
			},
			{
				"x": 0.1583739881,
				"y": 1.2108520974,
				"z": 4.0194619532,
				"element": "C" 
			},
			{
				"x": -0.6471924217,
				"y": 0.3146127757,
				"z": 4.7254980968,
				"element": "C" 
			},
			{
				"x": -0.3369537553,
				"y": -1.0463936523,
				"z": 4.7174427507,
				"element": "C" 
			},
			{
				"x": 0.771697514,
				"y": -1.5059287469,
				"z": 4.0044397018,
				"element": "C" 
			},
			{
				"x": 1.4320533064,
				"y": -1.2054619079,
				"z": 0.0725294201,
				"element": "C" 
			},
			{
				"x": 0.8660138148,
				"y": -1.2911059769,
				"z": -1.2074466523,
				"element": "C" 
			},
			{
				"x": -4.0102906679,
				"y": -2.8587112835,
				"z": -3.4842809956,
				"element": "H" 
			},
			{
				"x": -3.3232739606,
				"y": -1.9393950419,
				"z": -2.1210453291,
				"element": "H" 
			},
			{
				"x": -2.3631624854,
				"y": -3.1791865574,
				"z": -2.9519816177,
				"element": "H" 
			},
			{
				"x": -3.3593801412,
				"y": -0.7937947127,
				"z": -4.3472930692,
				"element": "H" 
			},
			{
				"x": -1.5023314512,
				"y": -0.354559479,
				"z": -2.5952584083,
				"element": "H" 
			},
			{
				"x": -1.4047646705,
				"y": 0.2764400689,
				"z": -4.2420836685,
				"element": "H" 
			},
			{
				"x": -0.0674231801,
				"y": -1.6201696678,
				"z": -4.9923375495,
				"element": "H" 
			},
			{
				"x": -0.1379567938,
				"y": -2.3876968627,
				"z": -3.403314388,
				"element": "H" 
			},
			{
				"x": 3.0742146764,
				"y": 0.6277735213,
				"z": -2.9170533803,
				"element": "H" 
			},
			{
				"x": 4.0877612462,
				"y": 0.7785793537,
				"z": -0.6349459192,
				"element": "H" 
			},
			{
				"x": 2.6924936625,
				"y": -2.1604431623,
				"z": 2.2725068587,
				"element": "H" 
			},
			{
				"x": 3.6827189566,
				"y": -1.0900406598,
				"z": 3.2713143804,
				"element": "H" 
			},
			{
				"x": 1.8972988945,
				"y": 1.4443175665,
				"z": 2.7608148497,
				"element": "H" 
			},
			{
				"x": -0.0798674031,
				"y": 2.270888145,
				"z": 4.0183662006,
				"element": "H" 
			},
			{
				"x": -1.5126575229,
				"y": 0.6738586663,
				"z": 5.2748902197,
				"element": "H" 
			},
			{
				"x": -0.9612248185,
				"y": -1.7516029418,
				"z": 5.2590523347,
				"element": "H" 
			},
			{
				"x": 1.0047136741,
				"y": -2.5687630125,
				"z": 3.9953580676,
				"element": "H" 
			},
			{
				"x": 0.9348955879,
				"y": -1.7031412024,
				"z": 0.8963061924,
				"element": "H" 
			},
			{
				"x": -0.0441087342,
				"y": -1.8658532976,
				"z": -1.3308693327,
				"element": "H" 
			}
		],
		 "valence_orbital": [ 
			{
				"type": "occ",
				"energy": -0.25078,
				"method": "rhf"
			},
			{
				"type": "occ",
				"energy": -0.24777,
				"method": "rhf"
			},
			{
				"type": "occ",
				"energy": -0.24171,
				"method": "rhf"
			},
			{
				"type": "occ",
				"energy": -0.22635,
				"method": "rhf"
			},
			{
				"type": "occ",
				"energy": -0.19234,
				"method": "rhf"
			},
			{
				"type": "unocc",
				"energy": -0.00597,
				"method": "rhf"
			},
			{
				"type": "unocc",
				"energy": -0.00298,
				"method": "rhf"
			},
			{
				"type": "unocc",
				"energy": 0.00503,
				"method": "rhf"
			},
			{
				"type": "unocc",
				"energy": 0.03103,
				"method": "rhf"
			},
			{
				"type": "unocc",
				"energy": 0.06953,
				"method": "rhf"
			}
		],
		"cosmo_sigma_profile": { 
			"-0.025": 0.0,
			"-0.024": 0.0,
			"-0.023": 0.0,
			"-0.022": 0.0,
			"-0.021": 0.0,
			"-0.02": 0.0,
			"-0.019": 0.0,
			"-0.018": 0.0,
			"-0.017": 0.0,
			"-0.016": 0.0,
			"-0.015": 0.0,
			"-0.014": 0.0,
			"-0.013": 0.0,
			"-0.012": 0.0,
			"-0.011": 0.163970476785,
			"-0.01": 1.21888830657,
			"-0.009": 1.58199164126,
			"-0.008": 0.965147705842,
			"-0.007": 1.46072560605,
			"-0.006": 14.5608490956,
			"-0.005": 27.2178117041,
			"-0.004": 32.9589348828,
			"-0.003": 30.8328584896,
			"-0.002": 28.7323698834,
			"-0.001": 29.3690273423,
			"0.0": 24.4756573891,
			"0.001": 16.0573390964,
			"0.002": 16.6474843497,
			"0.003": 19.6461377124,
			"0.004": 21.4206540436,
			"0.005": 24.6372151846,
			"0.006": 16.3729894681,
			"0.007": 2.97026608679,
			"0.008": 2.02364486256,
			"0.009": 3.30635432405,
			"0.01": 3.49267050721,
			"0.011": 1.8291622891,
			"0.012": 0.525014754019,
			"0.013": 0.291163633095,
			"0.014": 0.610193935334,
			"0.015": 0.43102254589,
			"0.016": 0.593456165585,
			"0.017": 0.292501609055,
			"0.018": 0.0587681190423,
			"0.019": 0.0,
			"0.02": 0.0,
			"0.021": 0.0,
			"0.022": 0.0,
			"0.023": 0.0,
			"0.024": 0.0,
			"0.025": 0.0
		}
	}
}
