{
	 "smiles": "CC(=O)OC1=CC=C(C=C1)C#N", 
	 "Tm": 330.15, 
	 "num_atms": 19, 
	 "gaussian": { 
		 "optdone": 1, 
		 "sigma_profile": "yes", 
		 "theory": "DFT", 
		 "functional": "B3LYP", 
		 "basiset": "6-31G**", 
		 "properties": { 
			 "R2extent": 2704.7898, 
			 "electric_dipole_moment_norm": 5.41503012919, 
			 "electric_quadrupole_moment_norm": 12.5856390779, 
			 "total_energy": -552.366486891, 
			 "HOMO_LUMO_gap": 0.21069, 
			 "cosmo_polarized_energy": -13.05, 
			 "cosmo_cavitation_energy": 25.67, 
			 "cosmo_dispersion_energy": -17.73, 
			 "cosmo_repulsion_energy": 1.44, 
			 "cosmo_total_nonelectrostatic_energy": 9.38, 
			 "SMD_solvation_energy": 7.22 
		},
		"coords": [
			{
				"x": -2.7129442548,
				"y": -2.7725019622,
				"z": -2.2092743899,
				"element": "C" 
			},
			{
				"x": -1.5031695217,
				"y": -1.8943932994,
				"z": -2.0218705329,
				"element": "C" 
			},
			{
				"x": -0.6916530503,
				"y": -1.5938018134,
				"z": -2.8580679282,
				"element": "O" 
			},
			{
				"x": -1.4398965,
				"y": -1.4590247866,
				"z": -0.7133303505,
				"element": "O" 
			},
			{
				"x": -0.3794944215,
				"y": -0.6309822107,
				"z": -0.3540102488,
				"element": "C" 
			},
			{
				"x": -0.5356565842,
				"y": 0.7516630922,
				"z": -0.4362962844,
				"element": "C" 
			},
			{
				"x": 0.4941754817,
				"y": 1.5819430277,
				"z": -0.0065291658,
				"element": "C" 
			},
			{
				"x": 1.6790581146,
				"y": 1.0245965983,
				"z": 0.5039837523,
				"element": "C" 
			},
			{
				"x": 1.8209616576,
				"y": -0.3715892045,
				"z": 0.5797010603,
				"element": "C" 
			},
			{
				"x": 0.7894724171,
				"y": -1.1994423676,
				"z": 0.1492212512,
				"element": "C" 
			},
			{
				"x": 2.7397670873,
				"y": 1.8793167999,
				"z": 0.9515728711,
				"element": "C" 
			},
			{
				"x": 3.5995524653,
				"y": 2.5727400226,
				"z": 1.3164750427,
				"element": "N" 
			},
			{
				"x": -2.6599327783,
				"y": -3.6317633858,
				"z": -1.5343993369,
				"element": "H" 
			},
			{
				"x": -2.7558705492,
				"y": -3.1114107832,
				"z": -3.2435336418,
				"element": "H" 
			},
			{
				"x": -3.6212061678,
				"y": -2.217039679,
				"z": -1.9580523711,
				"element": "H" 
			},
			{
				"x": -1.4582711909,
				"y": 1.164149436,
				"z": -0.8295583898,
				"element": "H" 
			},
			{
				"x": 0.3886186342,
				"y": 2.6598700402,
				"z": -0.0629435993,
				"element": "H" 
			},
			{
				"x": 2.7368481034,
				"y": -0.797602394,
				"z": 0.9745653103,
				"element": "H" 
			},
			{
				"x": 0.8800410574,
				"y": -2.2787271304,
				"z": 0.2036469512,
				"element": "H" 
			}
		],
		 "valence_orbital": [ 
			{
				"type": "occ",
				"energy": -0.33239,
				"method": "rhf"
			},
			{
				"type": "occ",
				"energy": -0.32685,
				"method": "rhf"
			},
			{
				"type": "occ",
				"energy": -0.29235,
				"method": "rhf"
			},
			{
				"type": "occ",
				"energy": -0.28329,
				"method": "rhf"
			},
			{
				"type": "occ",
				"energy": -0.26479,
				"method": "rhf"
			},
			{
				"type": "unocc",
				"energy": -0.0541,
				"method": "rhf"
			},
			{
				"type": "unocc",
				"energy": -0.03208,
				"method": "rhf"
			},
			{
				"type": "unocc",
				"energy": -0.00745,
				"method": "rhf"
			},
			{
				"type": "unocc",
				"energy": 0.03465,
				"method": "rhf"
			},
			{
				"type": "unocc",
				"energy": 0.07031,
				"method": "rhf"
			}
		],
		"cosmo_sigma_profile": { 
			"-0.025": 0.0,
			"-0.024": 0.0,
			"-0.023": 0.0,
			"-0.022": 0.0,
			"-0.021": 0.0,
			"-0.02": 0.0,
			"-0.019": 0.0,
			"-0.018": 0.0,
			"-0.017": 0.0,
			"-0.016": 0.0,
			"-0.015": 0.0,
			"-0.014": 0.0,
			"-0.013": 0.0,
			"-0.012": 0.0,
			"-0.011": 0.0,
			"-0.01": 0.0,
			"-0.009": 1.37592029329,
			"-0.008": 8.56724481834,
			"-0.007": 12.6705092836,
			"-0.006": 15.4791129016,
			"-0.005": 14.945793685,
			"-0.004": 13.3596294031,
			"-0.003": 14.8513605071,
			"-0.002": 15.8304070901,
			"-0.001": 12.6298390354,
			"0.0": 13.6442134628,
			"0.001": 17.053059587,
			"0.002": 9.40413674084,
			"0.003": 5.38716590837,
			"0.004": 5.18739091191,
			"0.005": 4.99287533435,
			"0.006": 5.77411413234,
			"0.007": 5.38763936278,
			"0.008": 6.16944535622,
			"0.009": 5.25903429022,
			"0.01": 6.60507952188,
			"0.011": 7.37456200293,
			"0.012": 3.7526432866,
			"0.013": 1.39037356785,
			"0.014": 0.0247676354527,
			"0.015": 0.0,
			"0.016": 0.0,
			"0.017": 0.0,
			"0.018": 0.0,
			"0.019": 0.0,
			"0.02": 0.0,
			"0.021": 0.0,
			"0.022": 0.0,
			"0.023": 0.0,
			"0.024": 0.0,
			"0.025": 0.0
		}
	}
}
