{
	 "smiles": "OC(=O)C(C(O)=O)C1=CC=CC=C1", 
	 "Tm": 427.15, 
	 "num_atms": 21, 
	 "gaussian": { 
		 "optdone": 1, 
		 "sigma_profile": "yes", 
		 "theory": "DFT", 
		 "functional": "B3LYP", 
		 "basiset": "6-31G**", 
		 "properties": { 
			 "R2extent": 2619.0552, 
			 "electric_dipole_moment_norm": 2.13916659005, 
			 "electric_quadrupole_moment_norm": 9.07144902538, 
			 "total_energy": -648.698060507, 
			 "HOMO_LUMO_gap": 0.22941, 
			 "cosmo_polarized_energy": -15.99, 
			 "cosmo_cavitation_energy": 26.43, 
			 "cosmo_dispersion_energy": -18.59, 
			 "cosmo_repulsion_energy": 1.51, 
			 "cosmo_total_nonelectrostatic_energy": 9.34, 
			 "SMD_solvation_energy": 6.86 
		},
		"coords": [
			{
				"x": 0.0085237697,
				"y": 2.4299209458,
				"z": -2.789805553,
				"element": "O" 
			},
			{
				"x": -0.6337088201,
				"y": 2.1153663703,
				"z": -1.6403296619,
				"element": "C" 
			},
			{
				"x": -1.6155330413,
				"y": 2.6970571192,
				"z": -1.2499787456,
				"element": "O" 
			},
			{
				"x": 0.0782227219,
				"y": 0.9493703641,
				"z": -0.9488329981,
				"element": "C" 
			},
			{
				"x": -0.1363914765,
				"y": -0.3111469202,
				"z": -1.7883956977,
				"element": "C" 
			},
			{
				"x": 0.9528405222,
				"y": -1.1071656921,
				"z": -1.7698415134,
				"element": "O" 
			},
			{
				"x": -1.1599865814,
				"y": -0.5939815307,
				"z": -2.3687079749,
				"element": "O" 
			},
			{
				"x": -0.3869109303,
				"y": 0.7101110008,
				"z": 0.4791900045,
				"element": "C" 
			},
			{
				"x": -1.7236636161,
				"y": 0.3925271782,
				"z": 0.7537494958,
				"element": "C" 
			},
			{
				"x": -2.1324788435,
				"y": 0.1641996727,
				"z": 2.0668739119,
				"element": "C" 
			},
			{
				"x": -1.2141253813,
				"y": 0.2473197077,
				"z": 3.1162071256,
				"element": "C" 
			},
			{
				"x": 0.1188016871,
				"y": 0.559432851,
				"z": 2.8469840691,
				"element": "C" 
			},
			{
				"x": 0.529861345,
				"y": 0.7879213175,
				"z": 1.5327542814,
				"element": "C" 
			},
			{
				"x": -0.5030446889,
				"y": 3.1456980802,
				"z": -3.2032385782,
				"element": "H" 
			},
			{
				"x": 1.1494702446,
				"y": 1.1686733129,
				"z": -0.9545329587,
				"element": "H" 
			},
			{
				"x": 0.7190303487,
				"y": -1.9029798017,
				"z": -2.277829754,
				"element": "H" 
			},
			{
				"x": -2.4364752176,
				"y": 0.3280834608,
				"z": -0.0608935423,
				"element": "H" 
			},
			{
				"x": -3.171343601,
				"y": -0.0783592662,
				"z": 2.2708449999,
				"element": "H" 
			},
			{
				"x": -1.536505113,
				"y": 0.0693497384,
				"z": 4.1381149417,
				"element": "H" 
			},
			{
				"x": 0.8396960142,
				"y": 0.6251996206,
				"z": 3.6567568767,
				"element": "H" 
			},
			{
				"x": 1.5692206577,
				"y": 1.0298024706,
				"z": 1.3255112712,
				"element": "H" 
			}
		],
		 "valence_orbital": [ 
			{
				"type": "occ",
				"energy": -0.32575,
				"method": "rhf"
			},
			{
				"type": "occ",
				"energy": -0.28949,
				"method": "rhf"
			},
			{
				"type": "occ",
				"energy": -0.28493,
				"method": "rhf"
			},
			{
				"type": "occ",
				"energy": -0.25142,
				"method": "rhf"
			},
			{
				"type": "occ",
				"energy": -0.24855,
				"method": "rhf"
			},
			{
				"type": "unocc",
				"energy": -0.01914,
				"method": "rhf"
			},
			{
				"type": "unocc",
				"energy": -0.0074,
				"method": "rhf"
			},
			{
				"type": "unocc",
				"energy": 0.00106,
				"method": "rhf"
			},
			{
				"type": "unocc",
				"energy": 0.01617,
				"method": "rhf"
			},
			{
				"type": "unocc",
				"energy": 0.06976,
				"method": "rhf"
			}
		],
		"cosmo_sigma_profile": { 
			"-0.025": 0.0,
			"-0.024": 0.0,
			"-0.023": 0.0,
			"-0.022": 0.0,
			"-0.021": 0.0,
			"-0.02": 0.0,
			"-0.019": 0.816947795453,
			"-0.018": 2.00745515612,
			"-0.017": 2.23958626593,
			"-0.016": 1.40965194766,
			"-0.015": 1.38168803452,
			"-0.014": 1.6418226808,
			"-0.013": 1.15884596246,
			"-0.012": 1.73322077717,
			"-0.011": 1.45919876306,
			"-0.01": 1.16771176456,
			"-0.009": 2.07181601975,
			"-0.008": 4.60821208496,
			"-0.007": 5.3674470425,
			"-0.006": 9.27301709282,
			"-0.005": 12.7933798741,
			"-0.004": 12.5218587017,
			"-0.003": 11.7676521258,
			"-0.002": 10.1510611456,
			"-0.001": 12.3535888448,
			"0.0": 9.40727428547,
			"0.001": 11.7773727271,
			"0.002": 12.3757541949,
			"0.003": 12.4179221034,
			"0.004": 12.8625577052,
			"0.005": 16.2956202448,
			"0.006": 6.35798860525,
			"0.007": 5.55348928323,
			"0.008": 6.52028339934,
			"0.009": 4.55879239759,
			"0.01": 6.44350184422,
			"0.011": 8.87881404166,
			"0.012": 0.768298622032,
			"0.013": 0.0,
			"0.014": 0.0,
			"0.015": 0.0,
			"0.016": 0.0,
			"0.017": 0.0,
			"0.018": 0.0,
			"0.019": 0.0,
			"0.02": 0.0,
			"0.021": 0.0,
			"0.022": 0.0,
			"0.023": 0.0,
			"0.024": 0.0,
			"0.025": 0.0
		}
	}
}
