{
	 "smiles": "CSCC1=C(F)C=CC(=C1)C(O)=O", 
	 "Tm": 393.15, 
	 "num_atms": 22, 
	 "gaussian": { 
		 "optdone": 1, 
		 "sigma_profile": "yes", 
		 "theory": "DFT", 
		 "functional": "B3LYP", 
		 "basiset": "6-31G**", 
		 "properties": { 
			 "R2extent": 3555.5945, 
			 "electric_dipole_moment_norm": 4.85550893419, 
			 "electric_quadrupole_moment_norm": 13.8939531808, 
			 "total_energy": -996.863829909, 
			 "HOMO_LUMO_gap": 0.17516, 
			 "cosmo_polarized_energy": -16.3, 
			 "cosmo_cavitation_energy": 28.2, 
			 "cosmo_dispersion_energy": -20.49, 
			 "cosmo_repulsion_energy": 1.56, 
			 "cosmo_total_nonelectrostatic_energy": 9.27, 
			 "SMD_solvation_energy": 6.16 
		},
		"coords": [
			{
				"x": -1.0451780683,
				"y": -2.5943311832,
				"z": -2.9081238492,
				"element": "C" 
			},
			{
				"x": -2.5441373957,
				"y": -2.4140932704,
				"z": -1.8811735732,
				"element": "S" 
			},
			{
				"x": -1.7991139086,
				"y": -2.2731365844,
				"z": -0.1977001019,
				"element": "C" 
			},
			{
				"x": -0.9473507788,
				"y": -1.0489867657,
				"z": 0.0116892644,
				"element": "C" 
			},
			{
				"x": 0.4459303589,
				"y": -1.1144428969,
				"z": -0.095332207,
				"element": "C" 
			},
			{
				"x": 1.0186250912,
				"y": -2.3033757572,
				"z": -0.3854211783,
				"element": "F" 
			},
			{
				"x": 1.2753089973,
				"y": -0.0148725994,
				"z": 0.0949069007,
				"element": "C" 
			},
			{
				"x": 0.6966101946,
				"y": 1.2158085203,
				"z": 0.3912724477,
				"element": "C" 
			},
			{
				"x": -0.6980699035,
				"y": 1.3325298213,
				"z": 0.4960255297,
				"element": "C" 
			},
			{
				"x": -1.4980672084,
				"y": 0.1976375806,
				"z": 0.3183228058,
				"element": "C" 
			},
			{
				"x": -1.3873806442,
				"y": 2.6183350945,
				"z": 0.8394388806,
				"element": "C" 
			},
			{
				"x": -0.6962803387,
				"y": 3.7657959508,
				"z": 0.5990623155,
				"element": "O" 
			},
			{
				"x": -2.499361304,
				"y": 2.6703149548,
				"z": 1.3090200044,
				"element": "O" 
			},
			{
				"x": -0.4483855007,
				"y": -3.4526695788,
				"z": -2.5912423162,
				"element": "H" 
			},
			{
				"x": -1.3927462133,
				"y": -2.7588826136,
				"z": -3.9303476376,
				"element": "H" 
			},
			{
				"x": -0.4334393013,
				"y": -1.6893732336,
				"z": -2.8863059686,
				"element": "H" 
			},
			{
				"x": -1.2305663707,
				"y": -3.181373242,
				"z": 0.012426585,
				"element": "H" 
			},
			{
				"x": -2.6624488653,
				"y": -2.2506746739,
				"z": 0.4723272349,
				"element": "H" 
			},
			{
				"x": 2.3498011744,
				"y": -0.1401903572,
				"z": 0.0208878638,
				"element": "H" 
			},
			{
				"x": 1.3462428108,
				"y": 2.0661156733,
				"z": 0.5811954224,
				"element": "H" 
			},
			{
				"x": -2.5729889182,
				"y": 0.3059348228,
				"z": 0.4225940497,
				"element": "H" 
			},
			{
				"x": 0.0873960927,
				"y": 3.5791303378,
				"z": 0.0641775272,
				"element": "H" 
			}
		],
		 "valence_orbital": [ 
			{
				"type": "occ",
				"energy": -0.31967,
				"method": "rhf"
			},
			{
				"type": "occ",
				"energy": -0.28177,
				"method": "rhf"
			},
			{
				"type": "occ",
				"energy": -0.27447,
				"method": "rhf"
			},
			{
				"type": "occ",
				"energy": -0.26437,
				"method": "rhf"
			},
			{
				"type": "occ",
				"energy": -0.22839,
				"method": "rhf"
			},
			{
				"type": "unocc",
				"energy": -0.05323,
				"method": "rhf"
			},
			{
				"type": "unocc",
				"energy": -0.04011,
				"method": "rhf"
			},
			{
				"type": "unocc",
				"energy": 0.03217,
				"method": "rhf"
			},
			{
				"type": "unocc",
				"energy": 0.04546,
				"method": "rhf"
			},
			{
				"type": "unocc",
				"energy": 0.05429,
				"method": "rhf"
			}
		],
		"cosmo_sigma_profile": { 
			"-0.025": 0.0,
			"-0.024": 0.0,
			"-0.023": 0.0,
			"-0.022": 0.0,
			"-0.021": 0.0,
			"-0.02": 0.0,
			"-0.019": 0.176249666839,
			"-0.018": 1.00912269998,
			"-0.017": 1.13456247489,
			"-0.016": 0.92867676999,
			"-0.015": 0.945872219478,
			"-0.014": 0.768722912652,
			"-0.013": 0.752959476591,
			"-0.012": 1.80936599908,
			"-0.011": 1.39261663382,
			"-0.01": 0.983960005062,
			"-0.009": 1.73764415326,
			"-0.008": 3.87235900727,
			"-0.007": 7.91601415405,
			"-0.006": 10.720658748,
			"-0.005": 11.3805763232,
			"-0.004": 16.3542737227,
			"-0.003": 16.2257131121,
			"-0.002": 16.5735809143,
			"-0.001": 19.2043433646,
			"0.0": 15.2427024525,
			"0.001": 14.6523079256,
			"0.002": 15.1560775473,
			"0.003": 10.8621597728,
			"0.004": 10.0546120328,
			"0.005": 4.98968908049,
			"0.006": 6.52157570564,
			"0.007": 5.44682474498,
			"0.008": 5.01527114796,
			"0.009": 5.63094995484,
			"0.01": 6.60386188507,
			"0.011": 6.36476200306,
			"0.012": 4.88348372332,
			"0.013": 1.32134576732,
			"0.014": 0.0115255784144,
			"0.015": 0.0,
			"0.016": 0.0,
			"0.017": 0.0,
			"0.018": 0.0,
			"0.019": 0.0,
			"0.02": 0.0,
			"0.021": 0.0,
			"0.022": 0.0,
			"0.023": 0.0,
			"0.024": 0.0,
			"0.025": 0.0
		}
	}
}
