{
	 "smiles": "C(CC1=CC=C(COC2=CC=CC=C2)C=C1)N1CCOCC1", 
	 "Tm": 359.15, 
	 "num_atms": 45, 
	 "gaussian": { 
		 "optdone": 1, 
		 "sigma_profile": "yes", 
		 "theory": "DFT", 
		 "functional": "B3LYP", 
		 "basiset": "6-31G**", 
		 "properties": { 
			 "R2extent": 12387.7002, 
			 "electric_dipole_moment_norm": 0.649166272999, 
			 "electric_quadrupole_moment_norm": 16.761778329, 
			 "total_energy": -943.047057821, 
			 "HOMO_LUMO_gap": 0.20221, 
			 "cosmo_polarized_energy": -11.92, 
			 "cosmo_cavitation_energy": 46.63, 
			 "cosmo_dispersion_energy": -32.94, 
			 "cosmo_repulsion_energy": 2.55, 
			 "cosmo_total_nonelectrostatic_energy": 16.24, 
			 "SMD_solvation_energy": 5.12 
		},
		"coords": [
			{
				"x": -1.2743022483,
				"y": -2.2811456554,
				"z": 0.2275595229,
				"element": "C" 
			},
			{
				"x": -1.7401483617,
				"y": -1.1307098738,
				"z": 1.1423283663,
				"element": "C" 
			},
			{
				"x": -0.761825585,
				"y": 0.0229945984,
				"z": 1.1455498914,
				"element": "C" 
			},
			{
				"x": -0.8377376477,
				"y": 1.0382283949,
				"z": 0.181499559,
				"element": "C" 
			},
			{
				"x": 0.0837672976,
				"y": 2.0836633449,
				"z": 0.1580307685,
				"element": "C" 
			},
			{
				"x": 1.1172213258,
				"y": 2.1393537659,
				"z": 1.0994341578,
				"element": "C" 
			},
			{
				"x": 2.0872189104,
				"y": 3.3050806949,
				"z": 1.125728043,
				"element": "C" 
			},
			{
				"x": 2.329606405,
				"y": 3.8946661771,
				"z": -0.1488083849,
				"element": "O" 
			},
			{
				"x": 3.2021521404,
				"y": 3.286012382,
				"z": -1.0142817796,
				"element": "C" 
			},
			{
				"x": 3.5007376226,
				"y": 4.0161623393,
				"z": -2.1737661374,
				"element": "C" 
			},
			{
				"x": 4.3834835773,
				"y": 3.4973178534,
				"z": -3.1151091249,
				"element": "C" 
			},
			{
				"x": 4.9811390232,
				"y": 2.2483322947,
				"z": -2.9155320649,
				"element": "C" 
			},
			{
				"x": 4.6768425928,
				"y": 1.5262121392,
				"z": -1.7634928299,
				"element": "C" 
			},
			{
				"x": 3.7886339642,
				"y": 2.0319012917,
				"z": -0.8088296182,
				"element": "C" 
			},
			{
				"x": 1.2029561352,
				"y": 1.1278705831,
				"z": 2.0621833183,
				"element": "C" 
			},
			{
				"x": 0.2744295594,
				"y": 0.0871593073,
				"z": 2.0861114566,
				"element": "C" 
			},
			{
				"x": -2.150739147,
				"y": -3.4427668808,
				"z": 0.2935646377,
				"element": "N" 
			},
			{
				"x": -1.5691412628,
				"y": -4.6518214782,
				"z": -0.275388713,
				"element": "C" 
			},
			{
				"x": -2.4181802474,
				"y": -5.8628782881,
				"z": 0.146588175,
				"element": "C" 
			},
			{
				"x": -3.8145537135,
				"y": -5.5702186327,
				"z": 0.1769027517,
				"element": "O" 
			},
			{
				"x": -4.1559600997,
				"y": -4.508114917,
				"z": -0.6928382798,
				"element": "C" 
			},
			{
				"x": -3.4962264843,
				"y": -3.1913480716,
				"z": -0.244601419,
				"element": "C" 
			},
			{
				"x": -0.2736737874,
				"y": -2.5937600532,
				"z": 0.5487188926,
				"element": "H" 
			},
			{
				"x": -1.1677814031,
				"y": -1.8964504758,
				"z": -0.8072525563,
				"element": "H" 
			},
			{
				"x": -2.7234017872,
				"y": -0.7742600269,
				"z": 0.8155424383,
				"element": "H" 
			},
			{
				"x": -1.8651963464,
				"y": -1.5304546241,
				"z": 2.1546895423,
				"element": "H" 
			},
			{
				"x": -1.6347693407,
				"y": 1.0119715741,
				"z": -0.5580771787,
				"element": "H" 
			},
			{
				"x": 0.0103208078,
				"y": 2.8613559085,
				"z": -0.5958228847,
				"element": "H" 
			},
			{
				"x": 1.6687438574,
				"y": 4.1250482304,
				"z": 1.7203140479,
				"element": "H" 
			},
			{
				"x": 3.0331785818,
				"y": 3.0091706774,
				"z": 1.5988307981,
				"element": "H" 
			},
			{
				"x": 3.0335514377,
				"y": 4.986411414,
				"z": -2.3086138334,
				"element": "H" 
			},
			{
				"x": 4.6092419803,
				"y": 4.0732782369,
				"z": -4.008279197,
				"element": "H" 
			},
			{
				"x": 5.6709138876,
				"y": 1.8453622748,
				"z": -3.6506277516,
				"element": "H" 
			},
			{
				"x": 5.1267946288,
				"y": 0.5510938264,
				"z": -1.5981554564,
				"element": "H" 
			},
			{
				"x": 3.5467597512,
				"y": 1.4398015344,
				"z": 0.0652169409,
				"element": "H" 
			},
			{
				"x": 1.9994986878,
				"y": 1.1535105994,
				"z": 2.8030735423,
				"element": "H" 
			},
			{
				"x": 0.3564360569,
				"y": -0.687689222,
				"z": 2.8448141019,
				"element": "H" 
			},
			{
				"x": -1.4752383414,
				"y": -4.6046487706,
				"z": -1.3781992718,
				"element": "H" 
			},
			{
				"x": -0.553500391,
				"y": -4.7791253972,
				"z": 0.1145416191,
				"element": "H" 
			},
			{
				"x": -2.2201360926,
				"y": -6.7082777227,
				"z": -0.5322453006,
				"element": "H" 
			},
			{
				"x": -2.1531506622,
				"y": -6.1702287139,
				"z": 1.1634108273,
				"element": "H" 
			},
			{
				"x": -5.2451812225,
				"y": -4.4145520778,
				"z": -0.6651638603,
				"element": "H" 
			},
			{
				"x": -3.87494005,
				"y": -4.7465033771,
				"z": -1.7313781523,
				"element": "H" 
			},
			{
				"x": -4.1072130912,
				"y": -2.7150306609,
				"z": 0.5307736961,
				"element": "H" 
			},
			{
				"x": -3.4706309182,
				"y": -2.5020745235,
				"z": -1.1116433004,
				"element": "H" 
			}
		],
		 "valence_orbital": [ 
			{
				"type": "occ",
				"energy": -0.24762,
				"method": "rhf"
			},
			{
				"type": "occ",
				"energy": -0.24575,
				"method": "rhf"
			},
			{
				"type": "occ",
				"energy": -0.23756,
				"method": "rhf"
			},
			{
				"type": "occ",
				"energy": -0.21626,
				"method": "rhf"
			},
			{
				"type": "occ",
				"energy": -0.20963,
				"method": "rhf"
			},
			{
				"type": "unocc",
				"energy": -0.00742,
				"method": "rhf"
			},
			{
				"type": "unocc",
				"energy": -0.00507,
				"method": "rhf"
			},
			{
				"type": "unocc",
				"energy": 0.00534,
				"method": "rhf"
			},
			{
				"type": "unocc",
				"energy": 0.01702,
				"method": "rhf"
			},
			{
				"type": "unocc",
				"energy": 0.07769,
				"method": "rhf"
			}
		],
		"cosmo_sigma_profile": { 
			"-0.025": 0.0,
			"-0.024": 0.0,
			"-0.023": 0.0,
			"-0.022": 0.0,
			"-0.021": 0.0,
			"-0.02": 0.0,
			"-0.019": 0.0,
			"-0.018": 0.0,
			"-0.017": 0.0,
			"-0.016": 0.0,
			"-0.015": 0.0,
			"-0.014": 0.0,
			"-0.013": 0.0,
			"-0.012": 0.0,
			"-0.011": 0.0,
			"-0.01": 0.0,
			"-0.009": 0.0,
			"-0.008": 0.0,
			"-0.007": 0.232114897433,
			"-0.006": 9.99598704405,
			"-0.005": 24.0165196582,
			"-0.004": 39.7055054056,
			"-0.003": 52.620883139,
			"-0.002": 46.9418854385,
			"-0.001": 33.8146482453,
			"0.0": 23.2553922137,
			"0.001": 19.2203203156,
			"0.002": 16.8088967518,
			"0.003": 18.3154214746,
			"0.004": 21.0935852582,
			"0.005": 21.1348190772,
			"0.006": 16.9493040553,
			"0.007": 4.45321731856,
			"0.008": 3.26377574233,
			"0.009": 2.78894255727,
			"0.01": 3.0356717551,
			"0.011": 1.55040038274,
			"0.012": 2.80970043089,
			"0.013": 2.62533666063,
			"0.014": 1.64243103553,
			"0.015": 0.291627766652,
			"0.016": 0.0374683146537,
			"0.017": 0.0,
			"0.018": 0.0,
			"0.019": 0.0,
			"0.02": 0.0,
			"0.021": 0.0,
			"0.022": 0.0,
			"0.023": 0.0,
			"0.024": 0.0,
			"0.025": 0.0
		}
	}
}
