{
	 "smiles": "CCOC(=O)C(ON=C(C1=CC2=C(O1)C=CC=C2)C1=CC2=C(O1)C=CC=C2)C(=O)OCC", 
	 "Tm": 411.15, 
	 "num_atms": 53, 
	 "gaussian": { 
		 "optdone": 1, 
		 "sigma_profile": "yes", 
		 "theory": "DFT", 
		 "functional": "B3LYP", 
		 "basiset": "6-31G**", 
		 "properties": { 
			 "R2extent": 17336.0188, 
			 "electric_dipole_moment_norm": 3.84471506096, 
			 "electric_quadrupole_moment_norm": 19.6935648848, 
			 "total_energy": -1508.46686858, 
			 "HOMO_LUMO_gap": 0.14467, 
			 "cosmo_polarized_energy": -17.68, 
			 "cosmo_cavitation_energy": 60.6, 
			 "cosmo_dispersion_energy": -38.95, 
			 "cosmo_repulsion_energy": 3.0, 
			 "cosmo_total_nonelectrostatic_energy": 24.65, 
			 "SMD_solvation_energy": 12.36 
		},
		"coords": [
			{
				"x": 2.9145426075,
				"y": -0.4098394501,
				"z": 3.243634439,
				"element": "C" 
			},
			{
				"x": 3.0190300619,
				"y": 0.7749379165,
				"z": 2.2967199633,
				"element": "C" 
			},
			{
				"x": 1.782145693,
				"y": 0.9624924298,
				"z": 1.5575635496,
				"element": "O" 
			},
			{
				"x": 0.8381509494,
				"y": 1.6966788907,
				"z": 2.1539727125,
				"element": "C" 
			},
			{
				"x": 0.9287752427,
				"y": 2.2226564689,
				"z": 3.2425644021,
				"element": "O" 
			},
			{
				"x": -0.411623841,
				"y": 1.8584698205,
				"z": 1.2760867993,
				"element": "C" 
			},
			{
				"x": -0.5361251809,
				"y": 0.8446097574,
				"z": 0.2888902825,
				"element": "O" 
			},
			{
				"x": -0.0441610246,
				"y": 1.3049300057,
				"z": -0.9318376954,
				"element": "N" 
			},
			{
				"x": -0.027088367,
				"y": 0.3753838517,
				"z": -1.8413051081,
				"element": "C" 
			},
			{
				"x": 0.5534913088,
				"y": 0.8314734422,
				"z": -3.1126207934,
				"element": "C" 
			},
			{
				"x": 1.5717456815,
				"y": 1.7059764636,
				"z": -3.3539892532,
				"element": "C" 
			},
			{
				"x": 1.6749747066,
				"y": 1.8241902351,
				"z": -4.7828768175,
				"element": "C" 
			},
			{
				"x": 0.6726749447,
				"y": 0.9790305182,
				"z": -5.2999320905,
				"element": "C" 
			},
			{
				"x": -0.0122722842,
				"y": 0.3752473515,
				"z": -4.2835732016,
				"element": "O" 
			},
			{
				"x": 0.437664849,
				"y": 0.8023799537,
				"z": -6.6586691213,
				"element": "C" 
			},
			{
				"x": 1.2592260992,
				"y": 1.5187172093,
				"z": -7.5272849809,
				"element": "C" 
			},
			{
				"x": 2.2714489778,
				"y": 2.3715108981,
				"z": -7.0435063292,
				"element": "C" 
			},
			{
				"x": 2.491402121,
				"y": 2.5334321188,
				"z": -5.6797401066,
				"element": "C" 
			},
			{
				"x": -0.4767761001,
				"y": -1.0024499713,
				"z": -1.682073688,
				"element": "C" 
			},
			{
				"x": -1.1765999992,
				"y": -1.6618210252,
				"z": -0.7035600558,
				"element": "C" 
			},
			{
				"x": -1.2878266137,
				"y": -3.0265677279,
				"z": -1.1306084423,
				"element": "C" 
			},
			{
				"x": -0.6190354608,
				"y": -3.0905741114,
				"z": -2.3688233871,
				"element": "C" 
			},
			{
				"x": -0.1261926827,
				"y": -1.8673674275,
				"z": -2.7055377359,
				"element": "O" 
			},
			{
				"x": -0.4949061497,
				"y": -4.2560347217,
				"z": -3.1185933825,
				"element": "C" 
			},
			{
				"x": -1.0783415858,
				"y": -5.4009542863,
				"z": -2.581225096,
				"element": "C" 
			},
			{
				"x": -1.7555197029,
				"y": -5.3713799288,
				"z": -1.3440839267,
				"element": "C" 
			},
			{
				"x": -1.8679742493,
				"y": -4.1970022015,
				"z": -0.609893634,
				"element": "C" 
			},
			{
				"x": -1.6677042244,
				"y": 1.8345738392,
				"z": 2.1542938191,
				"element": "C" 
			},
			{
				"x": -2.3718112315,
				"y": 2.795123995,
				"z": 2.3541071215,
				"element": "O" 
			},
			{
				"x": -1.875069863,
				"y": 0.6051648309,
				"z": 2.6554890635,
				"element": "O" 
			},
			{
				"x": -3.0356281141,
				"y": 0.4655318157,
				"z": 3.5151921628,
				"element": "C" 
			},
			{
				"x": -3.0806674081,
				"y": -0.9727626329,
				"z": 3.9916953809,
				"element": "C" 
			},
			{
				"x": 2.6370870873,
				"y": -1.3181794722,
				"z": 2.7014149273,
				"element": "H" 
			},
			{
				"x": 3.8810210516,
				"y": -0.579468279,
				"z": 3.7296585799,
				"element": "H" 
			},
			{
				"x": 2.1698852981,
				"y": -0.2178124117,
				"z": 4.0199346573,
				"element": "H" 
			},
			{
				"x": 3.7693830461,
				"y": 0.6073393038,
				"z": 1.5212412636,
				"element": "H" 
			},
			{
				"x": 3.2481074824,
				"y": 1.6971138294,
				"z": 2.8356746248,
				"element": "H" 
			},
			{
				"x": -0.3652449407,
				"y": 2.8384720199,
				"z": 0.7934029932,
				"element": "H" 
			},
			{
				"x": 2.1689558414,
				"y": 2.1926710099,
				"z": -2.5977539341,
				"element": "H" 
			},
			{
				"x": -0.3453336053,
				"y": 0.1417169643,
				"z": -7.0143111188,
				"element": "H" 
			},
			{
				"x": 1.1161264129,
				"y": 1.4170674212,
				"z": -8.5988187556,
				"element": "H" 
			},
			{
				"x": 2.8903412362,
				"y": 2.912267914,
				"z": -7.7533375321,
				"element": "H" 
			},
			{
				"x": 3.2732511043,
				"y": 3.1937265545,
				"z": -5.3166497605,
				"element": "H" 
			},
			{
				"x": -1.5499956166,
				"y": -1.2207971814,
				"z": 0.205216343,
				"element": "H" 
			},
			{
				"x": 0.0281378416,
				"y": -4.2628100359,
				"z": -4.0684276973,
				"element": "H" 
			},
			{
				"x": -1.0110037258,
				"y": -6.3371097075,
				"z": -3.1272097131,
				"element": "H" 
			},
			{
				"x": -2.1962143561,
				"y": -6.2872281007,
				"z": -0.9618104384,
				"element": "H" 
			},
			{
				"x": -2.3903438336,
				"y": -4.1824063501,
				"z": 0.3419450834,
				"element": "H" 
			},
			{
				"x": -2.9380410996,
				"y": 1.1731496602,
				"z": 4.3436976764,
				"element": "H" 
			},
			{
				"x": -3.9275088059,
				"y": 0.7415997377,
				"z": 2.9444722697,
				"element": "H" 
			},
			{
				"x": -3.9413755878,
				"y": -1.11505809,
				"z": 4.6524434659,
				"element": "H" 
			},
			{
				"x": -2.1742588279,
				"y": -1.2293162026,
				"z": 4.5471299193,
				"element": "H" 
			},
			{
				"x": -3.1777251624,
				"y": -1.6635969119,
				"z": 3.1491122961,
				"element": "H" 
			}
		],
		 "valence_orbital": [ 
			{
				"type": "occ",
				"energy": -0.26577,
				"method": "rhf"
			},
			{
				"type": "occ",
				"energy": -0.24183,
				"method": "rhf"
			},
			{
				"type": "occ",
				"energy": -0.23697,
				"method": "rhf"
			},
			{
				"type": "occ",
				"energy": -0.22437,
				"method": "rhf"
			},
			{
				"type": "occ",
				"energy": -0.21164,
				"method": "rhf"
			},
			{
				"type": "unocc",
				"energy": -0.06697,
				"method": "rhf"
			},
			{
				"type": "unocc",
				"energy": -0.02354,
				"method": "rhf"
			},
			{
				"type": "unocc",
				"energy": -0.00568,
				"method": "rhf"
			},
			{
				"type": "unocc",
				"energy": -0.00102,
				"method": "rhf"
			},
			{
				"type": "unocc",
				"energy": 0.00544,
				"method": "rhf"
			}
		],
		"cosmo_sigma_profile": { 
			"-0.025": 0.0,
			"-0.024": 0.0,
			"-0.023": 0.0,
			"-0.022": 0.0,
			"-0.021": 0.0,
			"-0.02": 0.0,
			"-0.019": 0.0,
			"-0.018": 0.0,
			"-0.017": 0.0,
			"-0.016": 0.0,
			"-0.015": 0.0,
			"-0.014": 0.0,
			"-0.013": 0.0,
			"-0.012": 0.0,
			"-0.011": 0.0667549798622,
			"-0.01": 0.889744971024,
			"-0.009": 1.33612458672,
			"-0.008": 1.87044578809,
			"-0.007": 7.96475827235,
			"-0.006": 24.7378661155,
			"-0.005": 34.497728322,
			"-0.004": 50.14885404,
			"-0.003": 37.6325008885,
			"-0.002": 36.0964375231,
			"-0.001": 36.845710729,
			"0.0": 42.1398204497,
			"0.001": 39.0564699566,
			"0.002": 34.9085174067,
			"0.003": 37.4938333935,
			"0.004": 29.4077653748,
			"0.005": 23.2721782519,
			"0.006": 10.0339155975,
			"0.007": 8.7547886836,
			"0.008": 6.59866745167,
			"0.009": 5.86855464966,
			"0.01": 6.39122862882,
			"0.011": 8.05934825745,
			"0.012": 0.520000054853,
			"0.013": 0.0,
			"0.014": 0.0,
			"0.015": 0.0,
			"0.016": 0.0,
			"0.017": 0.0,
			"0.018": 0.0,
			"0.019": 0.0,
			"0.02": 0.0,
			"0.021": 0.0,
			"0.022": 0.0,
			"0.023": 0.0,
			"0.024": 0.0,
			"0.025": 0.0
		}
	}
}
