{
	 "smiles": "CC1=CC(N)=NN1", 
	 "Tm": 315.15, 
	 "num_atms": 14, 
	 "gaussian": { 
		 "optdone": 1, 
		 "sigma_profile": "yes", 
		 "theory": "DFT", 
		 "functional": "B3LYP", 
		 "basiset": "6-31G**", 
		 "properties": { 
			 "R2extent": 1446.9236, 
			 "electric_dipole_moment_norm": 2.25000097333, 
			 "electric_quadrupole_moment_norm": 10.7942345217, 
			 "total_energy": -320.882068238, 
			 "HOMO_LUMO_gap": 0.23065, 
			 "cosmo_polarized_energy": -12.33, 
			 "cosmo_cavitation_energy": 17.71, 
			 "cosmo_dispersion_energy": -13.5, 
			 "cosmo_repulsion_energy": 1.17, 
			 "cosmo_total_nonelectrostatic_energy": 5.38, 
			 "SMD_solvation_energy": 2.31 
		},
		"coords": [
			{
				"x": 1.9538547318,
				"y": 2.2902884873,
				"z": -0.3357977216,
				"element": "C" 
			},
			{
				"x": 0.6749060711,
				"y": 1.790123159,
				"z": -0.9298597048,
				"element": "C" 
			},
			{
				"x": -0.0341601977,
				"y": 0.619958488,
				"z": -0.7232367086,
				"element": "C" 
			},
			{
				"x": -1.1713972709,
				"y": 0.7245080463,
				"z": -1.5690878246,
				"element": "C" 
			},
			{
				"x": -2.2344760767,
				"y": -0.178345993,
				"z": -1.674585178,
				"element": "N" 
			},
			{
				"x": -1.1744257804,
				"y": 1.8634249399,
				"z": -2.2579014503,
				"element": "N" 
			},
			{
				"x": -0.0420322966,
				"y": 2.4999318911,
				"z": -1.8402562835,
				"element": "N" 
			},
			{
				"x": 1.8068850152,
				"y": 3.2241713412,
				"z": 0.2197010209,
				"element": "H" 
			},
			{
				"x": 2.3583826387,
				"y": 1.5511247857,
				"z": 0.3588678353,
				"element": "H" 
			},
			{
				"x": 2.7142868236,
				"y": 2.4781843107,
				"z": -1.1031795215,
				"element": "H" 
			},
			{
				"x": 0.2212064637,
				"y": -0.1831657762,
				"z": -0.0476315296,
				"element": "H" 
			},
			{
				"x": -1.9341657881,
				"y": -1.1449506805,
				"z": -1.7037532644,
				"element": "H" 
			},
			{
				"x": -2.8182304487,
				"y": 0.0363724098,
				"z": -2.4748107993,
				"element": "H" 
			},
			{
				"x": 0.174766115,
				"y": 3.4045745907,
				"z": -2.2255688699,
				"element": "H" 
			}
		],
		 "valence_orbital": [ 
			{
				"type": "occ",
				"energy": -0.37394,
				"method": "rhf"
			},
			{
				"type": "occ",
				"energy": -0.30874,
				"method": "rhf"
			},
			{
				"type": "occ",
				"energy": -0.27348,
				"method": "rhf"
			},
			{
				"type": "occ",
				"energy": -0.22647,
				"method": "rhf"
			},
			{
				"type": "occ",
				"energy": -0.19524,
				"method": "rhf"
			},
			{
				"type": "unocc",
				"energy": 0.03541,
				"method": "rhf"
			},
			{
				"type": "unocc",
				"energy": 0.08309,
				"method": "rhf"
			},
			{
				"type": "unocc",
				"energy": 0.09084,
				"method": "rhf"
			},
			{
				"type": "unocc",
				"energy": 0.11292,
				"method": "rhf"
			},
			{
				"type": "unocc",
				"energy": 0.12076,
				"method": "rhf"
			}
		],
		"cosmo_sigma_profile": { 
			"-0.025": 0.0,
			"-0.024": 0.0,
			"-0.023": 0.0,
			"-0.022": 0.0,
			"-0.021": 0.0,
			"-0.02": 0.0,
			"-0.019": 0.0,
			"-0.018": 0.0,
			"-0.017": 0.0,
			"-0.016": 0.135668920428,
			"-0.015": 1.28856071816,
			"-0.014": 1.04073888277,
			"-0.013": 1.17326215986,
			"-0.012": 2.21164607108,
			"-0.011": 3.10353327384,
			"-0.01": 3.25085414392,
			"-0.009": 3.25600880099,
			"-0.008": 3.7042913183,
			"-0.007": 2.36846628082,
			"-0.006": 4.40791245769,
			"-0.005": 10.7329983878,
			"-0.004": 10.0515702458,
			"-0.003": 10.6915618216,
			"-0.002": 8.92251506519,
			"-0.001": 9.77490319795,
			"0.0": 7.39312255074,
			"0.001": 5.14858294477,
			"0.002": 4.12672510804,
			"0.003": 3.57567306565,
			"0.004": 3.72507067429,
			"0.005": 5.28027260337,
			"0.006": 6.92877631991,
			"0.007": 6.2427247266,
			"0.008": 3.46061075316,
			"0.009": 2.02984935163,
			"0.01": 3.50805139935,
			"0.011": 1.69600691508,
			"0.012": 2.01221844012,
			"0.013": 1.82004772089,
			"0.014": 2.1368953881,
			"0.015": 1.48534615359,
			"0.016": 1.6459903743,
			"0.017": 1.09078244365,
			"0.018": 0.0774482105824,
			"0.019": 0.0,
			"0.02": 0.0,
			"0.021": 0.0,
			"0.022": 0.0,
			"0.023": 0.0,
			"0.024": 0.0,
			"0.025": 0.0
		}
	}
}
