{
	 "smiles": "CCC1=C(SN=N1)C(O)=O", 
	 "Tm": 402.15, 
	 "num_atms": 16, 
	 "gaussian": { 
		 "optdone": 1, 
		 "sigma_profile": "yes", 
		 "theory": "DFT", 
		 "functional": "B3LYP", 
		 "basiset": "6-31G**", 
		 "properties": { 
			 "R2extent": 2588.1556, 
			 "electric_dipole_moment_norm": 1.21939228307, 
			 "electric_quadrupole_moment_norm": 17.5360256598, 
			 "total_energy": -852.248813991, 
			 "HOMO_LUMO_gap": 0.18021, 
			 "cosmo_polarized_energy": -13.05, 
			 "cosmo_cavitation_energy": 22.1, 
			 "cosmo_dispersion_energy": -17.02, 
			 "cosmo_repulsion_energy": 1.34, 
			 "cosmo_total_nonelectrostatic_energy": 6.42, 
			 "SMD_solvation_energy": 3.26 
		},
		"coords": [
			{
				"x": 2.158954869,
				"y": 1.6498498488,
				"z": 0.9624779771,
				"element": "C" 
			},
			{
				"x": 0.8880781527,
				"y": 1.6925088422,
				"z": 0.1092826462,
				"element": "C" 
			},
			{
				"x": 0.8973611331,
				"y": 0.7384206044,
				"z": -1.0554541328,
				"element": "C" 
			},
			{
				"x": -0.1008172895,
				"y": 0.5474045299,
				"z": -2.0017463981,
				"element": "C" 
			},
			{
				"x": 0.409082711,
				"y": -0.6569873906,
				"z": -3.117391225,
				"element": "S" 
			},
			{
				"x": 1.9316848341,
				"y": -0.8542396491,
				"z": -2.2728751125,
				"element": "N" 
			},
			{
				"x": 1.9864967119,
				"y": -0.0718014243,
				"z": -1.2735125997,
				"element": "N" 
			},
			{
				"x": -1.3977781164,
				"y": 1.2774555146,
				"z": -2.0302890442,
				"element": "C" 
			},
			{
				"x": -2.267403352,
				"y": 0.9743103022,
				"z": -3.0235423005,
				"element": "O" 
			},
			{
				"x": -1.6869960687,
				"y": 2.1154639748,
				"z": -1.2083324042,
				"element": "O" 
			},
			{
				"x": 3.045641951,
				"y": 1.9034383555,
				"z": 0.3753437309,
				"element": "H" 
			},
			{
				"x": 2.0735547717,
				"y": 2.3678553059,
				"z": 1.7830510329,
				"element": "H" 
			},
			{
				"x": 2.3222727647,
				"y": 0.6572044846,
				"z": 1.3905323127,
				"element": "H" 
			},
			{
				"x": 0.0028984864,
				"y": 1.4795788526,
				"z": 0.7192201125,
				"element": "H" 
			},
			{
				"x": 0.7128552436,
				"y": 2.7028606954,
				"z": -0.2772133323,
				"element": "H" 
			},
			{
				"x": -1.9222868027,
				"y": 0.291077153,
				"z": -3.616351263,
				"element": "H" 
			}
		],
		 "valence_orbital": [ 
			{
				"type": "occ",
				"energy": -0.33961,
				"method": "rhf"
			},
			{
				"type": "occ",
				"energy": -0.32709,
				"method": "rhf"
			},
			{
				"type": "occ",
				"energy": -0.29929,
				"method": "rhf"
			},
			{
				"type": "occ",
				"energy": -0.28306,
				"method": "rhf"
			},
			{
				"type": "occ",
				"energy": -0.28049,
				"method": "rhf"
			},
			{
				"type": "unocc",
				"energy": -0.10028,
				"method": "rhf"
			},
			{
				"type": "unocc",
				"energy": -0.04956,
				"method": "rhf"
			},
			{
				"type": "unocc",
				"energy": -0.01273,
				"method": "rhf"
			},
			{
				"type": "unocc",
				"energy": 0.05472,
				"method": "rhf"
			},
			{
				"type": "unocc",
				"energy": 0.05913,
				"method": "rhf"
			}
		],
		"cosmo_sigma_profile": { 
			"-0.025": 0.0,
			"-0.024": 0.0,
			"-0.023": 0.0,
			"-0.022": 0.0,
			"-0.021": 0.0,
			"-0.02": 0.181743793037,
			"-0.019": 0.746056742713,
			"-0.018": 0.955404348638,
			"-0.017": 0.884619993741,
			"-0.016": 1.02791943348,
			"-0.015": 1.56653255288,
			"-0.014": 1.01018679964,
			"-0.013": 1.06373458612,
			"-0.012": 0.816420224018,
			"-0.011": 1.00491774138,
			"-0.01": 0.883742675841,
			"-0.009": 1.48453724526,
			"-0.008": 2.09013154682,
			"-0.007": 0.972249349607,
			"-0.006": 2.00187756838,
			"-0.005": 6.43315739304,
			"-0.004": 13.6312746765,
			"-0.003": 22.853143971,
			"-0.002": 21.2223856553,
			"-0.001": 16.560118092,
			"0.0": 14.6733403726,
			"0.001": 9.08159327262,
			"0.002": 5.26975869196,
			"0.003": 4.82796633871,
			"0.004": 4.23084243406,
			"0.005": 4.25519025309,
			"0.006": 5.33138312736,
			"0.007": 5.36759327205,
			"0.008": 7.10842738596,
			"0.009": 7.03196792667,
			"0.01": 7.32362813687,
			"0.011": 5.17010486198,
			"0.012": 1.41451873761,
			"0.013": 0.0,
			"0.014": 0.0,
			"0.015": 0.0,
			"0.016": 0.0,
			"0.017": 0.0,
			"0.018": 0.0,
			"0.019": 0.0,
			"0.02": 0.0,
			"0.021": 0.0,
			"0.022": 0.0,
			"0.023": 0.0,
			"0.024": 0.0,
			"0.025": 0.0
		}
	}
}
