{
	 "smiles": "CC(C)C(Br)C(=O)NCC1CCCO1", 
	 "Tm": 327.15, 
	 "num_atms": 32, 
	 "gaussian": { 
		 "optdone": 1, 
		 "sigma_profile": "yes", 
		 "theory": "DFT", 
		 "functional": "B3LYP", 
		 "basiset": "6-31G**", 
		 "properties": { 
			 "R2extent": 5688.5601, 
			 "electric_dipole_moment_norm": 1.36849783339, 
			 "electric_quadrupole_moment_norm": 3.98067040836, 
			 "total_energy": -3168.54247656, 
			 "HOMO_LUMO_gap": 0.23319, 
			 "cosmo_polarized_energy": -10.19, 
			 "cosmo_cavitation_energy": 34.77, 
			 "cosmo_dispersion_energy": -24.65, 
			 "cosmo_repulsion_energy": 1.96, 
			 "cosmo_total_nonelectrostatic_energy": 12.09, 
			 "SMD_solvation_energy": 4.45 
		},
		"coords": [
			{
				"x": 0.2147463831,
				"y": 1.3558746417,
				"z": 4.0412081477,
				"element": "C" 
			},
			{
				"x": 0.0989493924,
				"y": 0.72216684,
				"z": 2.6501551873,
				"element": "C" 
			},
			{
				"x": 0.0787583242,
				"y": -0.8101196322,
				"z": 2.7195993111,
				"element": "C" 
			},
			{
				"x": 1.1514691121,
				"y": 1.2727456065,
				"z": 1.6692163712,
				"element": "C" 
			},
			{
				"x": 3.0223552614,
				"y": 0.8015235426,
				"z": 2.2430370662,
				"element": "Br" 
			},
			{
				"x": 0.8257786198,
				"y": 0.8938113487,
				"z": 0.2147128247,
				"element": "C" 
			},
			{
				"x": -0.2469292062,
				"y": 1.3010256844,
				"z": -0.2287200891,
				"element": "O" 
			},
			{
				"x": 1.7034152038,
				"y": 0.1423704246,
				"z": -0.4860968122,
				"element": "N" 
			},
			{
				"x": 1.4987129875,
				"y": -0.2074860011,
				"z": -1.8862548581,
				"element": "C" 
			},
			{
				"x": 0.9443988903,
				"y": -1.6282431003,
				"z": -2.0828400827,
				"element": "C" 
			},
			{
				"x": -0.5611802585,
				"y": -1.7763775978,
				"z": -1.762518247,
				"element": "C" 
			},
			{
				"x": -1.213728834,
				"y": -1.7158700565,
				"z": -3.1542057599,
				"element": "C" 
			},
			{
				"x": -0.1433694306,
				"y": -2.3802820497,
				"z": -4.0195556075,
				"element": "C" 
			},
			{
				"x": 1.1043482056,
				"y": -1.9482322916,
				"z": -3.4730988707,
				"element": "O" 
			},
			{
				"x": 0.1905601692,
				"y": 2.449671113,
				"z": 3.986945301,
				"element": "H" 
			},
			{
				"x": -0.6187855724,
				"y": 1.033403895,
				"z": 4.6731057408,
				"element": "H" 
			},
			{
				"x": 1.1458917876,
				"y": 1.0621126152,
				"z": 4.5354164296,
				"element": "H" 
			},
			{
				"x": -0.8438239807,
				"y": 1.0563356925,
				"z": 2.1967961893,
				"element": "H" 
			},
			{
				"x": -0.7519015999,
				"y": -1.1464534846,
				"z": 3.3475985606,
				"element": "H" 
			},
			{
				"x": 1.0068678382,
				"y": -1.1967952695,
				"z": 3.151861163,
				"element": "H" 
			},
			{
				"x": -0.049364012,
				"y": -1.2596926475,
				"z": 1.729916994,
				"element": "H" 
			},
			{
				"x": 1.1580534169,
				"y": 2.3626685035,
				"z": 1.7100003614,
				"element": "H" 
			},
			{
				"x": 2.5650218987,
				"y": -0.1222377019,
				"z": -0.0286126585,
				"element": "H" 
			},
			{
				"x": 2.4554263784,
				"y": -0.133662769,
				"z": -2.4124258685,
				"element": "H" 
			},
			{
				"x": 0.812047542,
				"y": 0.5252723549,
				"z": -2.317051609,
				"element": "H" 
			},
			{
				"x": 1.5466190361,
				"y": -2.326325536,
				"z": -1.4822339935,
				"element": "H" 
			},
			{
				"x": -0.9188760943,
				"y": -0.9925840546,
				"z": -1.0913037503,
				"element": "H" 
			},
			{
				"x": -0.7549814201,
				"y": -2.7482391218,
				"z": -1.2958746686,
				"element": "H" 
			},
			{
				"x": -2.1807803243,
				"y": -2.2245943364,
				"z": -3.1990109549,
				"element": "H" 
			},
			{
				"x": -1.3621898914,
				"y": -0.6764135948,
				"z": -3.4660192215,
				"element": "H" 
			},
			{
				"x": -0.1707731016,
				"y": -2.082842633,
				"z": -5.0725162002,
				"element": "H" 
			},
			{
				"x": -0.223836721,
				"y": -3.4783303841,
				"z": -3.9701303957,
				"element": "H" 
			}
		],
		 "valence_orbital": [ 
			{
				"type": "occ",
				"energy": -0.2964,
				"method": "rhf"
			},
			{
				"type": "occ",
				"energy": -0.28494,
				"method": "rhf"
			},
			{
				"type": "occ",
				"energy": -0.26689,
				"method": "rhf"
			},
			{
				"type": "occ",
				"energy": -0.25609,
				"method": "rhf"
			},
			{
				"type": "occ",
				"energy": -0.24397,
				"method": "rhf"
			},
			{
				"type": "unocc",
				"energy": -0.01078,
				"method": "rhf"
			},
			{
				"type": "unocc",
				"energy": 0.01505,
				"method": "rhf"
			},
			{
				"type": "unocc",
				"energy": 0.07719,
				"method": "rhf"
			},
			{
				"type": "unocc",
				"energy": 0.08993,
				"method": "rhf"
			},
			{
				"type": "unocc",
				"energy": 0.10016,
				"method": "rhf"
			}
		],
		"cosmo_sigma_profile": { 
			"-0.025": 0.0,
			"-0.024": 0.0,
			"-0.023": 0.0,
			"-0.022": 0.0,
			"-0.021": 0.0,
			"-0.02": 0.0,
			"-0.019": 0.0,
			"-0.018": 0.0,
			"-0.017": 0.0,
			"-0.016": 0.0,
			"-0.015": 0.0,
			"-0.014": 0.0,
			"-0.013": 0.0991991190506,
			"-0.012": 0.715024809237,
			"-0.011": 0.977477756393,
			"-0.01": 0.981358748264,
			"-0.009": 0.942595931655,
			"-0.008": 2.44933577499,
			"-0.007": 3.31270089517,
			"-0.006": 4.20085213452,
			"-0.005": 6.74296302446,
			"-0.004": 16.9708278727,
			"-0.003": 34.9629485372,
			"-0.002": 40.0252970183,
			"-0.001": 36.9890494175,
			"0.0": 33.8143059398,
			"0.001": 24.7250100919,
			"0.002": 11.5832844135,
			"0.003": 8.44038571124,
			"0.004": 9.59194528091,
			"0.005": 8.30544806638,
			"0.006": 4.46194768766,
			"0.007": 2.14057783937,
			"0.008": 1.64616971499,
			"0.009": 3.39673671962,
			"0.01": 2.87887703035,
			"0.011": 2.05743253859,
			"0.012": 3.03976851786,
			"0.013": 5.39709432272,
			"0.014": 2.41947717462,
			"0.015": 0.0,
			"0.016": 0.0,
			"0.017": 0.0,
			"0.018": 0.0,
			"0.019": 0.0,
			"0.02": 0.0,
			"0.021": 0.0,
			"0.022": 0.0,
			"0.023": 0.0,
			"0.024": 0.0,
			"0.025": 0.0
		}
	}
}
