{
	 "smiles": "OC1=C(C=C(Cl)C=C1)C(=O)NC1=CC(Cl)=C(Cl)C=C1", 
	 "Tm": 520.15, 
	 "num_atms": 27, 
	 "gaussian": { 
		 "optdone": 1, 
		 "sigma_profile": "yes", 
		 "theory": "DFT", 
		 "functional": "B3LYP", 
		 "basiset": "6-31G**", 
		 "properties": { 
			 "R2extent": 9244.9225, 
			 "electric_dipole_moment_norm": 1.13760436884, 
			 "electric_quadrupole_moment_norm": 16.9138475126, 
			 "total_energy": -2085.98646482, 
			 "HOMO_LUMO_gap": 0.16978, 
			 "cosmo_polarized_energy": -14.54, 
			 "cosmo_cavitation_energy": 37.5, 
			 "cosmo_dispersion_energy": -26.77, 
			 "cosmo_repulsion_energy": 2.08, 
			 "cosmo_total_nonelectrostatic_energy": 12.82, 
			 "SMD_solvation_energy": 6.48 
		},
		"coords": [
			{
				"x": 1.1298211678,
				"y": 1.6689318795,
				"z": -2.2527620306,
				"element": "O" 
			},
			{
				"x": -0.103427795,
				"y": 1.4292548958,
				"z": -1.744783839,
				"element": "C" 
			},
			{
				"x": -0.6399833105,
				"y": 0.1378225758,
				"z": -1.5453625551,
				"element": "C" 
			},
			{
				"x": -1.9629341746,
				"y": 0.0032645908,
				"z": -1.0887864353,
				"element": "C" 
			},
			{
				"x": -2.71248435,
				"y": 1.1260658512,
				"z": -0.7776168592,
				"element": "C" 
			},
			{
				"x": -4.35327201,
				"y": 0.9457612577,
				"z": -0.1753201334,
				"element": "Cl" 
			},
			{
				"x": -2.1745494394,
				"y": 2.407557933,
				"z": -0.9463398277,
				"element": "C" 
			},
			{
				"x": -0.8840943343,
				"y": 2.5527644485,
				"z": -1.4356888752,
				"element": "C" 
			},
			{
				"x": 0.0803701892,
				"y": -1.1186209257,
				"z": -1.9008995245,
				"element": "C" 
			},
			{
				"x": -0.4844070435,
				"y": -2.0899250973,
				"z": -2.3768883191,
				"element": "O" 
			},
			{
				"x": 1.4840738576,
				"y": -1.1349699087,
				"z": -1.7567294793,
				"element": "N" 
			},
			{
				"x": 2.2280978016,
				"y": -0.6937526093,
				"z": -0.6193689663,
				"element": "C" 
			},
			{
				"x": 3.6125859586,
				"y": -0.5578201099,
				"z": -0.7666237619,
				"element": "C" 
			},
			{
				"x": 4.4050516022,
				"y": -0.1594951366,
				"z": 0.3091135235,
				"element": "C" 
			},
			{
				"x": 6.1269978869,
				"y": -0.0209649379,
				"z": 0.0664824703,
				"element": "Cl" 
			},
			{
				"x": 3.8130759556,
				"y": 0.1315028206,
				"z": 1.5457799724,
				"element": "C" 
			},
			{
				"x": 4.7592285179,
				"y": 0.6465730255,
				"z": 2.9169649364,
				"element": "Cl" 
			},
			{
				"x": 2.4303134902,
				"y": -0.0020854215,
				"z": 1.6850913482,
				"element": "C" 
			},
			{
				"x": 1.6387647341,
				"y": -0.4242667775,
				"z": 0.6214506798,
				"element": "C" 
			},
			{
				"x": 1.5600059785,
				"y": 0.824678483,
				"z": -2.465125494,
				"element": "H" 
			},
			{
				"x": -2.3777407158,
				"y": -0.9928067545,
				"z": -0.9858136705,
				"element": "H" 
			},
			{
				"x": -2.7701738284,
				"y": 3.2809923044,
				"z": -0.7045070348,
				"element": "H" 
			},
			{
				"x": -0.4554190354,
				"y": 3.5357368012,
				"z": -1.5978130736,
				"element": "H" 
			},
			{
				"x": 1.8546566437,
				"y": -1.977180879,
				"z": -2.188233637,
				"element": "H" 
			},
			{
				"x": 4.0827757799,
				"y": -0.7585956038,
				"z": -1.7234126888,
				"element": "H" 
			},
			{
				"x": 1.9772430352,
				"y": 0.2099635679,
				"z": 2.6469937369,
				"element": "H" 
			},
			{
				"x": 0.572223438,
				"y": -0.5454862732,
				"z": 0.7650995375,
				"element": "H" 
			}
		],
		 "valence_orbital": [ 
			{
				"type": "occ",
				"energy": -0.29019,
				"method": "rhf"
			},
			{
				"type": "occ",
				"energy": -0.27724,
				"method": "rhf"
			},
			{
				"type": "occ",
				"energy": -0.2721,
				"method": "rhf"
			},
			{
				"type": "occ",
				"energy": -0.25029,
				"method": "rhf"
			},
			{
				"type": "occ",
				"energy": -0.23629,
				"method": "rhf"
			},
			{
				"type": "unocc",
				"energy": -0.06651,
				"method": "rhf"
			},
			{
				"type": "unocc",
				"energy": -0.04281,
				"method": "rhf"
			},
			{
				"type": "unocc",
				"energy": -0.03204,
				"method": "rhf"
			},
			{
				"type": "unocc",
				"energy": -0.01529,
				"method": "rhf"
			},
			{
				"type": "unocc",
				"energy": -0.00862,
				"method": "rhf"
			}
		],
		"cosmo_sigma_profile": { 
			"-0.025": 0.0,
			"-0.024": 0.0,
			"-0.023": 0.0,
			"-0.022": 0.0,
			"-0.021": 0.0,
			"-0.02": 0.0,
			"-0.019": 0.0,
			"-0.018": 0.0,
			"-0.017": 0.0,
			"-0.016": 0.0255783303442,
			"-0.015": 0.946389043817,
			"-0.014": 1.09438446719,
			"-0.013": 1.46652193536,
			"-0.012": 1.70526863796,
			"-0.011": 2.42725203074,
			"-0.01": 2.94899337313,
			"-0.009": 3.92542757021,
			"-0.008": 8.15260631949,
			"-0.007": 12.4511147517,
			"-0.006": 12.2488271568,
			"-0.005": 11.5070998778,
			"-0.004": 11.5443306547,
			"-0.003": 13.792888117,
			"-0.002": 14.9297197735,
			"-0.001": 19.6836640444,
			"0.0": 28.635153684,
			"0.001": 36.4790099849,
			"0.002": 34.2940135933,
			"0.003": 26.7143873605,
			"0.004": 27.0363820257,
			"0.005": 13.3074614635,
			"0.006": 2.79958969774,
			"0.007": 1.99620609222,
			"0.008": 3.11789191617,
			"0.009": 3.02612205761,
			"0.01": 3.78287091652,
			"0.011": 4.12788180545,
			"0.012": 3.96602504387,
			"0.013": 0.258766849321,
			"0.014": 0.0,
			"0.015": 0.0,
			"0.016": 0.0,
			"0.017": 0.0,
			"0.018": 0.0,
			"0.019": 0.0,
			"0.02": 0.0,
			"0.021": 0.0,
			"0.022": 0.0,
			"0.023": 0.0,
			"0.024": 0.0,
			"0.025": 0.0
		}
	}
}
