{
	 "smiles": "C(C(=N/NC1=CC(NN=C(/CC2=CC=CC=C2)C2=CC=CC=C2)=CC=C1)C1=CC=CC=C1)C1=CC=CC=C1", 
	 "Tm": 437.15, 
	 "num_atms": 68, 
	 "gaussian": { 
		 "optdone": 1, 
		 "sigma_profile": "yes", 
		 "theory": "DFT", 
		 "functional": "B3LYP", 
		 "basiset": "6-31G**", 
		 "properties": { 
			 "R2extent": 28709.5058, 
			 "electric_dipole_moment_norm": 2.13878208567, 
			 "electric_quadrupole_moment_norm": 17.6561012933, 
			 "total_energy": -1532.66073597, 
			 "HOMO_LUMO_gap": 0.14185, 
			 "cosmo_polarized_energy": -18.94, 
			 "cosmo_cavitation_energy": 72.22, 
			 "cosmo_dispersion_energy": -46.82, 
			 "cosmo_repulsion_energy": 3.47, 
			 "cosmo_total_nonelectrostatic_energy": 28.87, 
			 "SMD_solvation_energy": 10.13 
		},
		"coords": [
			{
				"x": 5.3519815779,
				"y": -0.5360644069,
				"z": 0.4939235595,
				"element": "C" 
			},
			{
				"x": 4.0222942044,
				"y": 0.1126750211,
				"z": 0.8431681678,
				"element": "C" 
			},
			{
				"x": 2.9327716881,
				"y": -0.1322364898,
				"z": 0.1834881478,
				"element": "N" 
			},
			{
				"x": 2.9562298609,
				"y": -1.0189769231,
				"z": -0.8287598453,
				"element": "N" 
			},
			{
				"x": 1.7805932639,
				"y": -1.3638161742,
				"z": -1.5062157796,
				"element": "C" 
			},
			{
				"x": 0.5832155873,
				"y": -0.6770497736,
				"z": -1.2868987953,
				"element": "C" 
			},
			{
				"x": -0.5664613692,
				"y": -1.0348448704,
				"z": -2.0037252192,
				"element": "C" 
			},
			{
				"x": -1.7476766208,
				"y": -0.3384568667,
				"z": -1.7265368429,
				"element": "N" 
			},
			{
				"x": -2.8453615788,
				"y": -0.5132030482,
				"z": -2.4853409967,
				"element": "N" 
			},
			{
				"x": -3.9083145271,
				"y": 0.188353207,
				"z": -2.2406250945,
				"element": "C" 
			},
			{
				"x": -3.9850529458,
				"y": 1.1800280798,
				"z": -1.0908328243,
				"element": "C" 
			},
			{
				"x": -3.1714330231,
				"y": 2.4602158782,
				"z": -1.2540262138,
				"element": "C" 
			},
			{
				"x": -2.5397312371,
				"y": 3.0388126043,
				"z": -0.1436629598,
				"element": "C" 
			},
			{
				"x": -1.8238266139,
				"y": 4.2310910775,
				"z": -0.2668395037,
				"element": "C" 
			},
			{
				"x": -1.7264297313,
				"y": 4.8633040107,
				"z": -1.5070954016,
				"element": "C" 
			},
			{
				"x": -2.3473748992,
				"y": 4.2937388314,
				"z": -2.6206018678,
				"element": "C" 
			},
			{
				"x": -3.0619720213,
				"y": 3.1018644825,
				"z": -2.4959687546,
				"element": "C" 
			},
			{
				"x": -5.0858757892,
				"y": -0.0550390447,
				"z": -3.1071511101,
				"element": "C" 
			},
			{
				"x": -6.1289869085,
				"y": 0.8824688105,
				"z": -3.212026248,
				"element": "C" 
			},
			{
				"x": -7.2265192564,
				"y": 0.6479067619,
				"z": -4.0423109601,
				"element": "C" 
			},
			{
				"x": -7.3095499299,
				"y": -0.5292748784,
				"z": -4.7840296058,
				"element": "C" 
			},
			{
				"x": -6.2782619776,
				"y": -1.4701176245,
				"z": -4.6914306047,
				"element": "C" 
			},
			{
				"x": -5.1827952284,
				"y": -1.2374978724,
				"z": -3.8676212474,
				"element": "C" 
			},
			{
				"x": -0.5255906764,
				"y": -2.0766408717,
				"z": -2.9433164153,
				"element": "C" 
			},
			{
				"x": 0.6784451546,
				"y": -2.7467335247,
				"z": -3.1471445868,
				"element": "C" 
			},
			{
				"x": 1.8319969608,
				"y": -2.4083780728,
				"z": -2.4436059229,
				"element": "C" 
			},
			{
				"x": 3.9341199689,
				"y": 1.1082962102,
				"z": 1.9372471614,
				"element": "C" 
			},
			{
				"x": 2.8739486845,
				"y": 2.0355698659,
				"z": 1.9784929855,
				"element": "C" 
			},
			{
				"x": 2.7776048085,
				"y": 2.9656707565,
				"z": 3.007511181,
				"element": "C" 
			},
			{
				"x": 3.7343372664,
				"y": 2.9978837583,
				"z": 4.0276322613,
				"element": "C" 
			},
			{
				"x": 4.7871395221,
				"y": 2.0845571737,
				"z": 4.0035526959,
				"element": "C" 
			},
			{
				"x": 4.8878880846,
				"y": 1.1517609033,
				"z": 2.9699313231,
				"element": "C" 
			},
			{
				"x": 5.4771814976,
				"y": -2.0232331672,
				"z": 0.8109344983,
				"element": "C" 
			},
			{
				"x": 6.2047926726,
				"y": -2.8653200766,
				"z": -0.0425040459,
				"element": "C" 
			},
			{
				"x": 6.3642845491,
				"y": -4.2205539069,
				"z": 0.2524807616,
				"element": "C" 
			},
			{
				"x": 5.7940805383,
				"y": -4.7562705762,
				"z": 1.4080977578,
				"element": "C" 
			},
			{
				"x": 5.0632105353,
				"y": -3.9283796125,
				"z": 2.2626320051,
				"element": "C" 
			},
			{
				"x": 4.904398091,
				"y": -2.5742418283,
				"z": 1.966053323,
				"element": "C" 
			},
			{
				"x": 6.1598513012,
				"y": 0.0109751031,
				"z": 0.9890161634,
				"element": "H" 
			},
			{
				"x": 5.5219576641,
				"y": -0.3909014392,
				"z": -0.5827591097,
				"element": "H" 
			},
			{
				"x": 3.729138998,
				"y": -1.6724389266,
				"z": -0.9028785085,
				"element": "H" 
			},
			{
				"x": 0.5588979803,
				"y": 0.1222592818,
				"z": -0.5552118463,
				"element": "H" 
			},
			{
				"x": -1.6610113418,
				"y": 0.495293798,
				"z": -1.1544243414,
				"element": "H" 
			},
			{
				"x": -3.6480959003,
				"y": 0.6632511766,
				"z": -0.1806655281,
				"element": "H" 
			},
			{
				"x": -5.0325603349,
				"y": 1.4354623939,
				"z": -0.9053052477,
				"element": "H" 
			},
			{
				"x": -2.614165794,
				"y": 2.5531467117,
				"z": 0.8270387196,
				"element": "H" 
			},
			{
				"x": -1.3411207198,
				"y": 4.6627890209,
				"z": 0.6054755674,
				"element": "H" 
			},
			{
				"x": -1.1671597329,
				"y": 5.7889774777,
				"z": -1.6066391752,
				"element": "H" 
			},
			{
				"x": -2.2718105782,
				"y": 4.7755654365,
				"z": -3.5913214019,
				"element": "H" 
			},
			{
				"x": -3.5322122309,
				"y": 2.6604755059,
				"z": -3.3701131902,
				"element": "H" 
			},
			{
				"x": -6.0809838565,
				"y": 1.8175219153,
				"z": -2.6624134456,
				"element": "H" 
			},
			{
				"x": -8.0153741025,
				"y": 1.3920130605,
				"z": -4.1088652126,
				"element": "H" 
			},
			{
				"x": -8.1657917075,
				"y": -0.7145892112,
				"z": -5.4260471985,
				"element": "H" 
			},
			{
				"x": -6.3331140218,
				"y": -2.3934989258,
				"z": -5.2616309938,
				"element": "H" 
			},
			{
				"x": -4.3862240953,
				"y": -1.9688820497,
				"z": -3.7923767161,
				"element": "H" 
			},
			{
				"x": -1.4201289622,
				"y": -2.3372518525,
				"z": -3.4929179269,
				"element": "H" 
			},
			{
				"x": 0.7186077565,
				"y": -3.5543011191,
				"z": -3.8729383542,
				"element": "H" 
			},
			{
				"x": 2.7628675597,
				"y": -2.9419246076,
				"z": -2.6157400075,
				"element": "H" 
			},
			{
				"x": 2.1364801044,
				"y": 2.0156640266,
				"z": 1.1840875129,
				"element": "H" 
			},
			{
				"x": 1.9554410432,
				"y": 3.6762601833,
				"z": 3.0124785979,
				"element": "H" 
			},
			{
				"x": 3.6586782557,
				"y": 3.7275614742,
				"z": 4.8285588321,
				"element": "H" 
			},
			{
				"x": 5.534356884,
				"y": 2.0918796883,
				"z": 4.7921910267,
				"element": "H" 
			},
			{
				"x": 5.7063267419,
				"y": 0.4385654086,
				"z": 2.9876527955,
				"element": "H" 
			},
			{
				"x": 6.6552611411,
				"y": -2.4536188693,
				"z": -0.9432120216,
				"element": "H" 
			},
			{
				"x": 6.9311948728,
				"y": -4.8561613977,
				"z": -0.4219538535,
				"element": "H" 
			},
			{
				"x": 5.9136323868,
				"y": -5.8108542049,
				"z": 1.6385321678,
				"element": "H" 
			},
			{
				"x": 4.6106124551,
				"y": -4.3380101947,
				"z": 3.1612351714,
				"element": "H" 
			},
			{
				"x": 4.3245480507,
				"y": -1.9403966875,
				"z": 2.6309725418,
				"element": "H" 
			}
		],
		 "valence_orbital": [ 
			{
				"type": "occ",
				"energy": -0.24372,
				"method": "rhf"
			},
			{
				"type": "occ",
				"energy": -0.23978,
				"method": "rhf"
			},
			{
				"type": "occ",
				"energy": -0.23933,
				"method": "rhf"
			},
			{
				"type": "occ",
				"energy": -0.19009,
				"method": "rhf"
			},
			{
				"type": "occ",
				"energy": -0.17822,
				"method": "rhf"
			},
			{
				"type": "unocc",
				"energy": -0.03637,
				"method": "rhf"
			},
			{
				"type": "unocc",
				"energy": -0.03205,
				"method": "rhf"
			},
			{
				"type": "unocc",
				"energy": -0.00968,
				"method": "rhf"
			},
			{
				"type": "unocc",
				"energy": -0.0093,
				"method": "rhf"
			},
			{
				"type": "unocc",
				"energy": -0.00742,
				"method": "rhf"
			}
		],
		"cosmo_sigma_profile": { 
			"-0.025": 0.0,
			"-0.024": 0.0,
			"-0.023": 0.0,
			"-0.022": 0.0,
			"-0.021": 0.0,
			"-0.02": 0.0,
			"-0.019": 0.0,
			"-0.018": 0.0,
			"-0.017": 0.0,
			"-0.016": 0.0,
			"-0.015": 0.0,
			"-0.014": 0.0,
			"-0.013": 0.0,
			"-0.012": 0.0,
			"-0.011": 0.24207986997,
			"-0.01": 2.06998076175,
			"-0.009": 3.45913473339,
			"-0.008": 3.67561752481,
			"-0.007": 5.76192344542,
			"-0.006": 24.5852186803,
			"-0.005": 49.1259237647,
			"-0.004": 54.3382412463,
			"-0.003": 55.7796945439,
			"-0.002": 44.1590958597,
			"-0.001": 36.9734348106,
			"0.0": 32.3103896069,
			"0.001": 34.5828948903,
			"0.002": 34.3244478284,
			"0.003": 43.4291581497,
			"0.004": 47.1200872781,
			"0.005": 55.9436653615,
			"0.006": 40.0101596709,
			"0.007": 6.4826275332,
			"0.008": 2.06770197798,
			"0.009": 1.58962713896,
			"0.01": 0.276018445302,
			"0.011": 0.0,
			"0.012": 0.0,
			"0.013": 0.0,
			"0.014": 0.0,
			"0.015": 0.0,
			"0.016": 0.0,
			"0.017": 0.0,
			"0.018": 0.0,
			"0.019": 0.0,
			"0.02": 0.0,
			"0.021": 0.0,
			"0.022": 0.0,
			"0.023": 0.0,
			"0.024": 0.0,
			"0.025": 0.0
		}
	}
}
