{
	 "smiles": "CC1=C(CO)SC(=N1)C1=CC=C(C=C1)C(F)(F)F", 
	 "Tm": 393.15, 
	 "num_atms": 28, 
	 "gaussian": { 
		 "optdone": 1, 
		 "sigma_profile": "yes", 
		 "theory": "DFT", 
		 "functional": "B3LYP", 
		 "basiset": "6-31G**", 
		 "properties": { 
			 "R2extent": 8653.44, 
			 "electric_dipole_moment_norm": 2.41214592842, 
			 "electric_quadrupole_moment_norm": 18.5513475492, 
			 "total_energy": -1290.99101988, 
			 "HOMO_LUMO_gap": 0.15882, 
			 "cosmo_polarized_energy": -9.8, 
			 "cosmo_cavitation_energy": 35.34, 
			 "cosmo_dispersion_energy": -25.67, 
			 "cosmo_repulsion_energy": 1.88, 
			 "cosmo_total_nonelectrostatic_energy": 11.55, 
			 "SMD_solvation_energy": 5.64 
		},
		"coords": [
			{
				"x": 2.7511280411,
				"y": 0.3506559463,
				"z": 2.3218278854,
				"element": "C" 
			},
			{
				"x": 1.9992084931,
				"y": 0.0752118338,
				"z": 1.0510508928,
				"element": "C" 
			},
			{
				"x": 2.5361487119,
				"y": 0.0712243065,
				"z": -0.2174809452,
				"element": "C" 
			},
			{
				"x": 3.9615597384,
				"y": 0.3173684653,
				"z": -0.6447386733,
				"element": "C" 
			},
			{
				"x": 4.9076448176,
				"y": -0.4897066483,
				"z": 0.0477652642,
				"element": "O" 
			},
			{
				"x": 1.2842933925,
				"y": -0.2892415765,
				"z": -1.3774356408,
				"element": "S" 
			},
			{
				"x": 0.1222599451,
				"y": -0.3994463611,
				"z": -0.0583980791,
				"element": "C" 
			},
			{
				"x": 0.6525940419,
				"y": -0.18984823,
				"z": 1.1186334631,
				"element": "N" 
			},
			{
				"x": -1.3001297251,
				"y": -0.6978361116,
				"z": -0.2713054169,
				"element": "C" 
			},
			{
				"x": -1.8402324336,
				"y": -0.9005538434,
				"z": -1.5515486394,
				"element": "C" 
			},
			{
				"x": -3.1928742294,
				"y": -1.1813675862,
				"z": -1.7146180783,
				"element": "C" 
			},
			{
				"x": -4.0287843462,
				"y": -1.2621959815,
				"z": -0.5980857049,
				"element": "C" 
			},
			{
				"x": -3.5028607572,
				"y": -1.0601083863,
				"z": 0.6823455449,
				"element": "C" 
			},
			{
				"x": -2.1518680662,
				"y": -0.7800629092,
				"z": 0.8452173559,
				"element": "C" 
			},
			{
				"x": -5.479324194,
				"y": -1.6228468485,
				"z": -0.7663380261,
				"element": "C" 
			},
			{
				"x": -5.673732049,
				"y": -2.9601134925,
				"z": -0.6815218733,
				"element": "F" 
			},
			{
				"x": -6.25202293,
				"y": -1.0548395687,
				"z": 0.1858614854,
				"element": "F" 
			},
			{
				"x": -5.9598852235,
				"y": -1.2328388496,
				"z": -1.9679361422,
				"element": "F" 
			},
			{
				"x": 2.4867872378,
				"y": 1.3368145202,
				"z": 2.7211662415,
				"element": "H" 
			},
			{
				"x": 3.8282934459,
				"y": 0.3097274583,
				"z": 2.1560077112,
				"element": "H" 
			},
			{
				"x": 2.4812842901,
				"y": -0.3873701405,
				"z": 3.0833431493,
				"element": "H" 
			},
			{
				"x": 4.0494396539,
				"y": 0.1918951522,
				"z": -1.734065796,
				"element": "H" 
			},
			{
				"x": 4.249661977,
				"y": 1.3504019709,
				"z": -0.4211510576,
				"element": "H" 
			},
			{
				"x": 4.6305047957,
				"y": -1.4110342051,
				"z": -0.0470713248,
				"element": "H" 
			},
			{
				"x": -1.2049202695,
				"y": -0.8353864339,
				"z": -2.4301125785,
				"element": "H" 
			},
			{
				"x": -3.6027282346,
				"y": -1.3289743926,
				"z": -2.7076778287,
				"element": "H" 
			},
			{
				"x": -4.1551716994,
				"y": -1.1143214957,
				"z": 1.5473469532,
				"element": "H" 
			},
			{
				"x": -1.7317744241,
				"y": -0.6179065924,
				"z": 1.8311198585,
				"element": "H" 
			}
		],
		 "valence_orbital": [ 
			{
				"type": "occ",
				"energy": -0.29065,
				"method": "rhf"
			},
			{
				"type": "occ",
				"energy": -0.28276,
				"method": "rhf"
			},
			{
				"type": "occ",
				"energy": -0.27553,
				"method": "rhf"
			},
			{
				"type": "occ",
				"energy": -0.2707,
				"method": "rhf"
			},
			{
				"type": "occ",
				"energy": -0.22737,
				"method": "rhf"
			},
			{
				"type": "unocc",
				"energy": -0.06855,
				"method": "rhf"
			},
			{
				"type": "unocc",
				"energy": -0.02072,
				"method": "rhf"
			},
			{
				"type": "unocc",
				"energy": 0.00148,
				"method": "rhf"
			},
			{
				"type": "unocc",
				"energy": 0.00508,
				"method": "rhf"
			},
			{
				"type": "unocc",
				"energy": 0.04175,
				"method": "rhf"
			}
		],
		"cosmo_sigma_profile": { 
			"-0.025": 0.0,
			"-0.024": 0.0,
			"-0.023": 0.0,
			"-0.022": 0.0,
			"-0.021": 0.0,
			"-0.02": 0.0,
			"-0.019": 0.0,
			"-0.018": 0.0,
			"-0.017": 0.0,
			"-0.016": 0.415838988226,
			"-0.015": 1.00896828786,
			"-0.014": 0.884500094682,
			"-0.013": 0.785700116019,
			"-0.012": 0.735428209,
			"-0.011": 0.880600545737,
			"-0.01": 0.973455997125,
			"-0.009": 1.06579861626,
			"-0.008": 1.43963345965,
			"-0.007": 6.27239727668,
			"-0.006": 13.5605403678,
			"-0.005": 14.6406558874,
			"-0.004": 15.7449131085,
			"-0.003": 15.2302009612,
			"-0.002": 18.9813965049,
			"-0.001": 21.9174473968,
			"0.0": 27.1173821359,
			"0.001": 29.9745036192,
			"0.002": 42.1083031954,
			"0.003": 42.2506196476,
			"0.004": 6.02649161998,
			"0.005": 4.22210229146,
			"0.006": 2.8777683222,
			"0.007": 2.69171251731,
			"0.008": 2.48434965093,
			"0.009": 1.288697578,
			"0.01": 2.58341878156,
			"0.011": 2.57288971284,
			"0.012": 1.684842477,
			"0.013": 1.37250153896,
			"0.014": 0.841440573752,
			"0.015": 0.0,
			"0.016": 0.0,
			"0.017": 0.0,
			"0.018": 0.0,
			"0.019": 0.0,
			"0.02": 0.0,
			"0.021": 0.0,
			"0.022": 0.0,
			"0.023": 0.0,
			"0.024": 0.0,
			"0.025": 0.0
		}
	}
}
