{
	 "smiles": "CC1=CC=C(C=C1)C1=CC=CC=C1C#N", 
	 "Tm": 324.15, 
	 "num_atms": 26, 
	 "gaussian": { 
		 "optdone": 1, 
		 "sigma_profile": "yes", 
		 "theory": "DFT", 
		 "functional": "B3LYP", 
		 "basiset": "6-31G**", 
		 "properties": { 
			 "R2extent": 4381.1739, 
			 "electric_dipole_moment_norm": 4.09671614955, 
			 "electric_quadrupole_moment_norm": 21.6231049755, 
			 "total_energy": -594.868566512, 
			 "HOMO_LUMO_gap": 0.17975, 
			 "cosmo_polarized_energy": -10.06, 
			 "cosmo_cavitation_energy": 30.8, 
			 "cosmo_dispersion_energy": -21.61, 
			 "cosmo_repulsion_energy": 1.69, 
			 "cosmo_total_nonelectrostatic_energy": 10.87, 
			 "SMD_solvation_energy": 6.23 
		},
		"coords": [
			{
				"x": 0.3131105587,
				"y": 2.5872102801,
				"z": 2.1009139804,
				"element": "C" 
			},
			{
				"x": -0.0478601389,
				"y": 1.376919446,
				"z": 1.2733869198,
				"element": "C" 
			},
			{
				"x": 0.8385561505,
				"y": 0.8644046969,
				"z": 0.3172500448,
				"element": "C" 
			},
			{
				"x": 0.5216077345,
				"y": -0.2657453618,
				"z": -0.4325227744,
				"element": "C" 
			},
			{
				"x": -0.7031392275,
				"y": -0.927435655,
				"z": -0.2506046838,
				"element": "C" 
			},
			{
				"x": -1.5928044926,
				"y": -0.4160938892,
				"z": 0.7088257924,
				"element": "C" 
			},
			{
				"x": -1.2707008358,
				"y": 0.7166043482,
				"z": 1.4520698164,
				"element": "C" 
			},
			{
				"x": -1.0564113188,
				"y": -2.151133758,
				"z": -1.0149619339,
				"element": "C" 
			},
			{
				"x": -1.5993186843,
				"y": -3.2572373188,
				"z": -0.3415035034,
				"element": "C" 
			},
			{
				"x": -1.9469421659,
				"y": -4.4275279499,
				"z": -1.0125931958,
				"element": "C" 
			},
			{
				"x": -1.7581616018,
				"y": -4.5294257894,
				"z": -2.3924770507,
				"element": "C" 
			},
			{
				"x": -1.2266352576,
				"y": -3.4508877223,
				"z": -3.0902321448,
				"element": "C" 
			},
			{
				"x": -0.8790329441,
				"y": -2.2657130296,
				"z": -2.4167747906,
				"element": "C" 
			},
			{
				"x": -0.3805126992,
				"y": -1.1792699776,
				"z": -3.2119519334,
				"element": "C" 
			},
			{
				"x": 0.0147083751,
				"y": -0.3321878313,
				"z": -3.9050182873,
				"element": "N" 
			},
			{
				"x": 0.9727237446,
				"y": 3.2653442521,
				"z": 1.5514163195,
				"element": "H" 
			},
			{
				"x": 0.8381070242,
				"y": 2.2960608881,
				"z": 3.0196096195,
				"element": "H" 
			},
			{
				"x": -0.5775547388,
				"y": 3.1478592841,
				"z": 2.40001357,
				"element": "H" 
			},
			{
				"x": 1.7945788489,
				"y": 1.3561584794,
				"z": 0.1564055641,
				"element": "H" 
			},
			{
				"x": 1.2375247519,
				"y": -0.6408775866,
				"z": -1.1560830276,
				"element": "H" 
			},
			{
				"x": -2.5574119812,
				"y": -0.8946629552,
				"z": 0.8520708542,
				"element": "H" 
			},
			{
				"x": -1.9850402375,
				"y": 1.0997284778,
				"z": 2.1766836003,
				"element": "H" 
			},
			{
				"x": -1.7259393695,
				"y": -3.1970225098,
				"z": 0.7347861643,
				"element": "H" 
			},
			{
				"x": -2.3569098163,
				"y": -5.2646933288,
				"z": -0.4552171021,
				"element": "H" 
			},
			{
				"x": -2.023309523,
				"y": -5.4398951689,
				"z": -2.9204524681,
				"element": "H" 
			},
			{
				"x": -1.0829321554,
				"y": -3.5045803206,
				"z": -4.1643393499,
				"element": "H" 
			}
		],
		 "valence_orbital": [ 
			{
				"type": "occ",
				"energy": -0.32139,
				"method": "rhf"
			},
			{
				"type": "occ",
				"energy": -0.27981,
				"method": "rhf"
			},
			{
				"type": "occ",
				"energy": -0.2636,
				"method": "rhf"
			},
			{
				"type": "occ",
				"energy": -0.2533,
				"method": "rhf"
			},
			{
				"type": "occ",
				"energy": -0.23227,
				"method": "rhf"
			},
			{
				"type": "unocc",
				"energy": -0.05252,
				"method": "rhf"
			},
			{
				"type": "unocc",
				"energy": -0.03095,
				"method": "rhf"
			},
			{
				"type": "unocc",
				"energy": -0.00636,
				"method": "rhf"
			},
			{
				"type": "unocc",
				"energy": 0.01247,
				"method": "rhf"
			},
			{
				"type": "unocc",
				"energy": 0.04405,
				"method": "rhf"
			}
		],
		"cosmo_sigma_profile": { 
			"-0.025": 0.0,
			"-0.024": 0.0,
			"-0.023": 0.0,
			"-0.022": 0.0,
			"-0.021": 0.0,
			"-0.02": 0.0,
			"-0.019": 0.0,
			"-0.018": 0.0,
			"-0.017": 0.0,
			"-0.016": 0.0,
			"-0.015": 0.0,
			"-0.014": 0.0,
			"-0.013": 0.0,
			"-0.012": 0.0,
			"-0.011": 0.0,
			"-0.01": 0.0,
			"-0.009": 0.0,
			"-0.008": 1.10908005574,
			"-0.007": 6.14414522032,
			"-0.006": 12.3732770322,
			"-0.005": 20.1359410382,
			"-0.004": 23.3205404603,
			"-0.003": 18.9696235468,
			"-0.002": 19.1098073523,
			"-0.001": 20.4619022418,
			"0.0": 23.5065864015,
			"0.001": 18.5765259155,
			"0.002": 19.0568705798,
			"0.003": 18.5456891929,
			"0.004": 9.96672504945,
			"0.005": 12.4424716041,
			"0.006": 4.19397343722,
			"0.007": 2.84413603547,
			"0.008": 3.10214610941,
			"0.009": 3.10360246173,
			"0.01": 3.30652331579,
			"0.011": 2.68240368783,
			"0.012": 2.58118829306,
			"0.013": 1.87346324115,
			"0.014": 0.200706260413,
			"0.015": 0.0,
			"0.016": 0.0,
			"0.017": 0.0,
			"0.018": 0.0,
			"0.019": 0.0,
			"0.02": 0.0,
			"0.021": 0.0,
			"0.022": 0.0,
			"0.023": 0.0,
			"0.024": 0.0,
			"0.025": 0.0
		}
	}
}
