{
	 "smiles": "COC1=CC2=C(C=C1)N(CC=C)C1=C2CCC2=C1C=CC(OC)=C2", 
	 "Tm": 365.65, 
	 "num_atms": 45, 
	 "gaussian": { 
		 "optdone": 1, 
		 "sigma_profile": "yes", 
		 "theory": "DFT", 
		 "functional": "B3LYP", 
		 "basiset": "6-31G**", 
		 "properties": { 
			 "R2extent": 10347.7482, 
			 "electric_dipole_moment_norm": 2.34353192852, 
			 "electric_quadrupole_moment_norm": 16.6845243561, 
			 "total_energy": -1018.06367686, 
			 "HOMO_LUMO_gap": 0.15161, 
			 "cosmo_polarized_energy": -11.95, 
			 "cosmo_cavitation_energy": 46.58, 
			 "cosmo_dispersion_energy": -32.85, 
			 "cosmo_repulsion_energy": 2.45, 
			 "cosmo_total_nonelectrostatic_energy": 16.18, 
			 "SMD_solvation_energy": 8.52 
		},
		"coords": [
			{
				"x": -0.1767574091,
				"y": -6.4540208105,
				"z": 1.9348553943,
				"element": "C" 
			},
			{
				"x": 0.5561707746,
				"y": -6.0292441401,
				"z": 0.8019160115,
				"element": "O" 
			},
			{
				"x": 0.5524887657,
				"y": -4.6900776405,
				"z": 0.5007368835,
				"element": "C" 
			},
			{
				"x": -0.1226616842,
				"y": -3.7184276175,
				"z": 1.2325065226,
				"element": "C" 
			},
			{
				"x": -0.0380342742,
				"y": -2.3763595425,
				"z": 0.8074024223,
				"element": "C" 
			},
			{
				"x": 0.7343611902,
				"y": -2.0442355277,
				"z": -0.3370660465,
				"element": "C" 
			},
			{
				"x": 1.4071544653,
				"y": -3.0287400635,
				"z": -1.0711967482,
				"element": "C" 
			},
			{
				"x": 1.3088268856,
				"y": -4.3450038064,
				"z": -0.6444117353,
				"element": "C" 
			},
			{
				"x": 0.6578156434,
				"y": -0.6709493593,
				"z": -0.5403815264,
				"element": "N" 
			},
			{
				"x": 1.1339695966,
				"y": -0.0256481559,
				"z": -1.7592235115,
				"element": "C" 
			},
			{
				"x": 2.5867813739,
				"y": 0.3862572075,
				"z": -1.7020211179,
				"element": "C" 
			},
			{
				"x": 3.0684029519,
				"y": 1.5204412674,
				"z": -2.2104703745,
				"element": "C" 
			},
			{
				"x": -0.1587101171,
				"y": -0.1355907245,
				"z": 0.4587087655,
				"element": "C" 
			},
			{
				"x": -0.6041990144,
				"y": -1.154774716,
				"z": 1.2827689736,
				"element": "C" 
			},
			{
				"x": -1.5201046999,
				"y": -0.8679248064,
				"z": 2.4364568984,
				"element": "C" 
			},
			{
				"x": -2.4208343587,
				"y": 0.3257250796,
				"z": 2.0677173717,
				"element": "C" 
			},
			{
				"x": -1.6243677817,
				"y": 1.503778467,
				"z": 1.5386002863,
				"element": "C" 
			},
			{
				"x": -0.4983126752,
				"y": 1.2660700203,
				"z": 0.6990259361,
				"element": "C" 
			},
			{
				"x": 0.233487639,
				"y": 2.3698544219,
				"z": 0.2423711607,
				"element": "C" 
			},
			{
				"x": -0.1446832174,
				"y": 3.6804074234,
				"z": 0.5490541447,
				"element": "C" 
			},
			{
				"x": -1.2682995538,
				"y": 3.9033301937,
				"z": 1.347583989,
				"element": "C" 
			},
			{
				"x": -1.7359854905,
				"y": 5.1327603403,
				"z": 1.7147260049,
				"element": "O" 
			},
			{
				"x": -1.0356097487,
				"y": 6.2776952152,
				"z": 1.2576156446,
				"element": "C" 
			},
			{
				"x": -1.9906640966,
				"y": 2.8061314957,
				"z": 1.8444352101,
				"element": "C" 
			},
			{
				"x": -0.0432882987,
				"y": -7.5357291962,
				"z": 1.9966268227,
				"element": "H" 
			},
			{
				"x": -1.2475630265,
				"y": -6.2288870522,
				"z": 1.8359669778,
				"element": "H" 
			},
			{
				"x": 0.1968821197,
				"y": -5.9919939451,
				"z": 2.8589341775,
				"element": "H" 
			},
			{
				"x": -0.7057899623,
				"y": -3.9725489938,
				"z": 2.1097512656,
				"element": "H" 
			},
			{
				"x": 2.001829436,
				"y": -2.7845422002,
				"z": -1.9463150261,
				"element": "H" 
			},
			{
				"x": 1.8158160599,
				"y": -5.1429417036,
				"z": -1.1762988818,
				"element": "H" 
			},
			{
				"x": 0.9899625948,
				"y": -0.7418234779,
				"z": -2.5794052319,
				"element": "H" 
			},
			{
				"x": 0.496014448,
				"y": 0.8334163305,
				"z": -1.9802915929,
				"element": "H" 
			},
			{
				"x": 3.2580671626,
				"y": -0.3283477424,
				"z": -1.2278965719,
				"element": "H" 
			},
			{
				"x": 2.4214298084,
				"y": 2.2537017601,
				"z": -2.6875921332,
				"element": "H" 
			},
			{
				"x": 4.127771611,
				"y": 1.7556955393,
				"z": -2.1770584155,
				"element": "H" 
			},
			{
				"x": -2.1402789244,
				"y": -1.7404838822,
				"z": 2.6711210249,
				"element": "H" 
			},
			{
				"x": -0.9486904657,
				"y": -0.6367684764,
				"z": 3.3486192175,
				"element": "H" 
			},
			{
				"x": -3.0258485617,
				"y": 0.6400650203,
				"z": 2.9244397005,
				"element": "H" 
			},
			{
				"x": -3.1210125994,
				"y": -0.0036312626,
				"z": 1.2857166973,
				"element": "H" 
			},
			{
				"x": 1.1424696035,
				"y": 2.2205073162,
				"z": -0.3283182619,
				"element": "H" 
			},
			{
				"x": 0.4528960358,
				"y": 4.5039089176,
				"z": 0.1765312811,
				"element": "H" 
			},
			{
				"x": -1.0243247088,
				"y": 6.3355997118,
				"z": 0.1612854385,
				"element": "H" 
			},
			{
				"x": -1.5724146625,
				"y": 7.1400024761,
				"z": 1.6563838228,
				"element": "H" 
			},
			{
				"x": -0.0015859393,
				"y": 6.2950550525,
				"z": 1.6261663251,
				"element": "H" 
			},
			{
				"x": -2.8474768951,
				"y": 3.0046915869,
				"z": 2.4817228045,
				"element": "H" 
			}
		],
		 "valence_orbital": [ 
			{
				"type": "occ",
				"energy": -0.26028,
				"method": "rhf"
			},
			{
				"type": "occ",
				"energy": -0.24109,
				"method": "rhf"
			},
			{
				"type": "occ",
				"energy": -0.23128,
				"method": "rhf"
			},
			{
				"type": "occ",
				"energy": -0.18804,
				"method": "rhf"
			},
			{
				"type": "occ",
				"energy": -0.1748,
				"method": "rhf"
			},
			{
				"type": "unocc",
				"energy": -0.02319,
				"method": "rhf"
			},
			{
				"type": "unocc",
				"energy": 0.00018,
				"method": "rhf"
			},
			{
				"type": "unocc",
				"energy": 0.00648,
				"method": "rhf"
			},
			{
				"type": "unocc",
				"energy": 0.02789,
				"method": "rhf"
			},
			{
				"type": "unocc",
				"energy": 0.0458,
				"method": "rhf"
			}
		],
		"cosmo_sigma_profile": { 
			"-0.025": 0.0,
			"-0.024": 0.0,
			"-0.023": 0.0,
			"-0.022": 0.0,
			"-0.021": 0.0,
			"-0.02": 0.0,
			"-0.019": 0.0,
			"-0.018": 0.0,
			"-0.017": 0.0,
			"-0.016": 0.0,
			"-0.015": 0.0,
			"-0.014": 0.0,
			"-0.013": 0.0,
			"-0.012": 0.0,
			"-0.011": 0.0,
			"-0.01": 0.0,
			"-0.009": 0.0,
			"-0.008": 0.0,
			"-0.007": 0.876664769151,
			"-0.006": 12.8783028074,
			"-0.005": 33.2885405435,
			"-0.004": 38.844241446,
			"-0.003": 45.9938029856,
			"-0.002": 33.5919822594,
			"-0.001": 28.3984060767,
			"0.0": 26.547962186,
			"0.001": 19.0338783302,
			"0.002": 18.4873382233,
			"0.003": 20.6913889248,
			"0.004": 23.7017160555,
			"0.005": 28.1505934352,
			"0.006": 21.3658636813,
			"0.007": 7.36857949236,
			"0.008": 1.83715680725,
			"0.009": 3.3983431615,
			"0.01": 3.20430851738,
			"0.011": 2.00587575818,
			"0.012": 0.113348704192,
			"0.013": 0.0,
			"0.014": 0.0,
			"0.015": 0.0,
			"0.016": 0.0,
			"0.017": 0.0,
			"0.018": 0.0,
			"0.019": 0.0,
			"0.02": 0.0,
			"0.021": 0.0,
			"0.022": 0.0,
			"0.023": 0.0,
			"0.024": 0.0,
			"0.025": 0.0
		}
	}
}
