{
	 "smiles": "OC(=O)C1CC2(C1)CCCC2", 
	 "Tm": 303.15, 
	 "num_atms": 25, 
	 "gaussian": { 
		 "optdone": 1, 
		 "sigma_profile": "yes", 
		 "theory": "DFT", 
		 "functional": "B3LYP", 
		 "basiset": "6-31G**", 
		 "properties": { 
			 "R2extent": 2527.8949, 
			 "electric_dipole_moment_norm": 4.09575261704, 
			 "electric_quadrupole_moment_norm": 14.9607219685, 
			 "total_energy": -501.833372839, 
			 "HOMO_LUMO_gap": 0.27548, 
			 "cosmo_polarized_energy": -12.6, 
			 "cosmo_cavitation_energy": 26.05, 
			 "cosmo_dispersion_energy": -18.85, 
			 "cosmo_repulsion_energy": 1.52, 
			 "cosmo_total_nonelectrostatic_energy": 8.73, 
			 "SMD_solvation_energy": 4.61 
		},
		"coords": [
			{
				"x": 0.4973433088,
				"y": 3.2414215905,
				"z": 1.4954483924,
				"element": "O" 
			},
			{
				"x": 0.7253686238,
				"y": 2.0674526595,
				"z": 2.1505753311,
				"element": "C" 
			},
			{
				"x": 1.6818499497,
				"y": 1.9650858883,
				"z": 2.8788111647,
				"element": "O" 
			},
			{
				"x": -0.2802061194,
				"y": 0.9691164104,
				"z": 1.8523441535,
				"element": "C" 
			},
			{
				"x": -0.0832759731,
				"y": 0.3120074629,
				"z": 0.4424764388,
				"element": "C" 
			},
			{
				"x": 0.5250912193,
				"y": -0.9499256825,
				"z": 1.1409567062,
				"element": "C" 
			},
			{
				"x": 0.0406913531,
				"y": -0.3933506378,
				"z": 2.5101095128,
				"element": "C" 
			},
			{
				"x": 0.0191469056,
				"y": -2.319399279,
				"z": 0.6646113307,
				"element": "C" 
			},
			{
				"x": 0.9343241508,
				"y": -2.7077107532,
				"z": -0.52700504,
				"element": "C" 
			},
			{
				"x": 2.1957912826,
				"y": -1.8004168855,
				"z": -0.3998058825,
				"element": "C" 
			},
			{
				"x": 2.0464081425,
				"y": -1.08546457,
				"z": 0.9579609717,
				"element": "C" 
			},
			{
				"x": -0.294566048,
				"y": 3.1614849537,
				"z": 0.9445526134,
				"element": "H" 
			},
			{
				"x": -1.2879411807,
				"y": 1.362373455,
				"z": 2.0348541436,
				"element": "H" 
			},
			{
				"x": 0.5647835132,
				"y": 0.8478840746,
				"z": -0.2596797825,
				"element": "H" 
			},
			{
				"x": -1.0380599215,
				"y": 0.1086670656,
				"z": -0.0522411426,
				"element": "H" 
			},
			{
				"x": -0.8569347297,
				"y": -0.8964984224,
				"z": 2.8820630975,
				"element": "H" 
			},
			{
				"x": 0.7882092061,
				"y": -0.3477893875,
				"z": 3.3058794968,
				"element": "H" 
			},
			{
				"x": -1.0453479156,
				"y": -2.3098039214,
				"z": 0.4046651292,
				"element": "H" 
			},
			{
				"x": 0.1394336353,
				"y": -3.0394592289,
				"z": 1.4844753008,
				"element": "H" 
			},
			{
				"x": 0.4301678643,
				"y": -2.5368132705,
				"z": -1.4836730215,
				"element": "H" 
			},
			{
				"x": 1.191173718,
				"y": -3.7710129155,
				"z": -0.4975836558,
				"element": "H" 
			},
			{
				"x": 2.2133804613,
				"y": -1.0644955523,
				"z": -1.2117732835,
				"element": "H" 
			},
			{
				"x": 3.1305079462,
				"y": -2.3646175594,
				"z": -0.4702621319,
				"element": "H" 
			},
			{
				"x": 2.5756895158,
				"y": -0.1293431951,
				"z": 1.012901102,
				"element": "H" 
			},
			{
				"x": 2.4402710915,
				"y": -1.7154922996,
				"z": 1.7665390552,
				"element": "H" 
			}
		],
		 "valence_orbital": [ 
			{
				"type": "occ",
				"energy": -0.31251,
				"method": "rhf"
			},
			{
				"type": "occ",
				"energy": -0.30789,
				"method": "rhf"
			},
			{
				"type": "occ",
				"energy": -0.30116,
				"method": "rhf"
			},
			{
				"type": "occ",
				"energy": -0.29715,
				"method": "rhf"
			},
			{
				"type": "occ",
				"energy": -0.26639,
				"method": "rhf"
			},
			{
				"type": "unocc",
				"energy": 0.00909,
				"method": "rhf"
			},
			{
				"type": "unocc",
				"energy": 0.05495,
				"method": "rhf"
			},
			{
				"type": "unocc",
				"energy": 0.07468,
				"method": "rhf"
			},
			{
				"type": "unocc",
				"energy": 0.08501,
				"method": "rhf"
			},
			{
				"type": "unocc",
				"energy": 0.09491,
				"method": "rhf"
			}
		],
		"cosmo_sigma_profile": { 
			"-0.025": 0.0,
			"-0.024": 0.0,
			"-0.023": 0.0,
			"-0.022": 0.0,
			"-0.021": 0.0,
			"-0.02": 0.0,
			"-0.019": 0.172296166749,
			"-0.018": 0.62279301499,
			"-0.017": 1.07568094824,
			"-0.016": 0.828708237947,
			"-0.015": 1.20879607087,
			"-0.014": 0.689262398514,
			"-0.013": 0.465278072657,
			"-0.012": 1.1819571532,
			"-0.011": 1.63231674616,
			"-0.01": 0.941660284848,
			"-0.009": 1.10433064437,
			"-0.008": 1.25352554773,
			"-0.007": 1.8976740752,
			"-0.006": 2.65546735999,
			"-0.005": 3.61127507344,
			"-0.004": 8.16886348816,
			"-0.003": 16.6154509464,
			"-0.002": 28.5526921888,
			"-0.001": 29.8606011879,
			"0.0": 29.829044675,
			"0.001": 21.3989852345,
			"0.002": 11.7467116251,
			"0.003": 2.13115054885,
			"0.004": 2.13662124479,
			"0.005": 3.23203042141,
			"0.006": 2.58576966254,
			"0.007": 2.76531855067,
			"0.008": 2.43696543932,
			"0.009": 3.76028136088,
			"0.01": 3.48262090418,
			"0.011": 5.66749992933,
			"0.012": 5.27729633152,
			"0.013": 2.31479576235,
			"0.014": 0.241822779361,
			"0.015": 0.0,
			"0.016": 0.0,
			"0.017": 0.0,
			"0.018": 0.0,
			"0.019": 0.0,
			"0.02": 0.0,
			"0.021": 0.0,
			"0.022": 0.0,
			"0.023": 0.0,
			"0.024": 0.0,
			"0.025": 0.0
		}
	}
}
