{
	 "smiles": "OC(=O)C1(O)CC2=C(C1)C=CC=C2", 
	 "Tm": 450.15, 
	 "num_atms": 23, 
	 "gaussian": { 
		 "optdone": 1, 
		 "sigma_profile": "yes", 
		 "theory": "DFT", 
		 "functional": "B3LYP", 
		 "basiset": "6-31G**", 
		 "properties": { 
			 "R2extent": 2887.7974, 
			 "electric_dipole_moment_norm": 1.45706170425, 
			 "electric_quadrupole_moment_norm": 8.52237350273, 
			 "total_energy": -612.772169709, 
			 "HOMO_LUMO_gap": 0.23138, 
			 "cosmo_polarized_energy": -13.4, 
			 "cosmo_cavitation_energy": 26.38, 
			 "cosmo_dispersion_energy": -19.34, 
			 "cosmo_repulsion_energy": 1.54, 
			 "cosmo_total_nonelectrostatic_energy": 8.58, 
			 "SMD_solvation_energy": 5.33 
		},
		"coords": [
			{
				"x": 3.1850768224,
				"y": -1.0229329928,
				"z": -2.900795413,
				"element": "O" 
			},
			{
				"x": 1.8773305082,
				"y": -1.1558316455,
				"z": -2.6201749737,
				"element": "C" 
			},
			{
				"x": 1.053463247,
				"y": -1.4839808894,
				"z": -3.4499215953,
				"element": "O" 
			},
			{
				"x": 1.5119883535,
				"y": -0.8599341827,
				"z": -1.1691725708,
				"element": "C" 
			},
			{
				"x": 2.6862182696,
				"y": -0.5053782036,
				"z": -0.459344811,
				"element": "O" 
			},
			{
				"x": 0.804914265,
				"y": -2.0835191098,
				"z": -0.5086585494,
				"element": "C" 
			},
			{
				"x": -0.1111777788,
				"y": -1.4349608673,
				"z": 0.5070642153,
				"element": "C" 
			},
			{
				"x": -0.3203511876,
				"y": -0.0863587007,
				"z": 0.1795385073,
				"element": "C" 
			},
			{
				"x": 0.4398643929,
				"y": 0.2696506925,
				"z": -1.0801427003,
				"element": "C" 
			},
			{
				"x": -1.1459949312,
				"y": 0.7129476529,
				"z": 0.9679096741,
				"element": "C" 
			},
			{
				"x": -1.7634524294,
				"y": 0.1510850115,
				"z": 2.0901345658,
				"element": "C" 
			},
			{
				"x": -1.5550738527,
				"y": -1.1924225662,
				"z": 2.4164256929,
				"element": "C" 
			},
			{
				"x": -0.7260767132,
				"y": -1.994598289,
				"z": 1.6254670928,
				"element": "C" 
			},
			{
				"x": 3.270891725,
				"y": -1.2391333457,
				"z": -3.8452683846,
				"element": "H" 
			},
			{
				"x": 2.4183493686,
				"y": -0.3252610627,
				"z": 0.4527790149,
				"element": "H" 
			},
			{
				"x": 1.5466321543,
				"y": -2.7655896297,
				"z": -0.0813390969,
				"element": "H" 
			},
			{
				"x": 0.22650204,
				"y": -2.6341025187,
				"z": -1.259989637,
				"element": "H" 
			},
			{
				"x": 0.923521367,
				"y": 1.251232304,
				"z": -1.0568486899,
				"element": "H" 
			},
			{
				"x": -0.218247007,
				"y": 0.2331969919,
				"z": -1.9563591219,
				"element": "H" 
			},
			{
				"x": -1.307377685,
				"y": 1.7587234662,
				"z": 0.7194574578,
				"element": "H" 
			},
			{
				"x": -2.4048999842,
				"y": 0.7647746141,
				"z": 2.7161795699,
				"element": "H" 
			},
			{
				"x": -2.0358088845,
				"y": -1.6149468938,
				"z": 3.2941331923,
				"element": "H" 
			},
			{
				"x": -0.5634920597,
				"y": -3.0376598356,
				"z": 1.8843265606,
				"element": "H" 
			}
		],
		 "valence_orbital": [ 
			{
				"type": "occ",
				"energy": -0.31754,
				"method": "rhf"
			},
			{
				"type": "occ",
				"energy": -0.27682,
				"method": "rhf"
			},
			{
				"type": "occ",
				"energy": -0.27441,
				"method": "rhf"
			},
			{
				"type": "occ",
				"energy": -0.25085,
				"method": "rhf"
			},
			{
				"type": "occ",
				"energy": -0.24161,
				"method": "rhf"
			},
			{
				"type": "unocc",
				"energy": -0.01023,
				"method": "rhf"
			},
			{
				"type": "unocc",
				"energy": -0.0073,
				"method": "rhf"
			},
			{
				"type": "unocc",
				"energy": 0.00926,
				"method": "rhf"
			},
			{
				"type": "unocc",
				"energy": 0.07379,
				"method": "rhf"
			},
			{
				"type": "unocc",
				"energy": 0.09323,
				"method": "rhf"
			}
		],
		"cosmo_sigma_profile": { 
			"-0.025": 0.0,
			"-0.024": 0.0,
			"-0.023": 0.0,
			"-0.022": 0.0,
			"-0.021": 0.0,
			"-0.02": 0.0,
			"-0.019": 0.185596020905,
			"-0.018": 0.864927115866,
			"-0.017": 1.16972087851,
			"-0.016": 0.579925663159,
			"-0.015": 1.37540336344,
			"-0.014": 1.18786565472,
			"-0.013": 1.48908161899,
			"-0.012": 1.30407918115,
			"-0.011": 2.20843170748,
			"-0.01": 0.605437509649,
			"-0.009": 1.42582005673,
			"-0.008": 1.62334651021,
			"-0.007": 2.36841581355,
			"-0.006": 5.15845725756,
			"-0.005": 13.4314006647,
			"-0.004": 21.50995347,
			"-0.003": 23.321351966,
			"-0.002": 20.3791226287,
			"-0.001": 12.770749629,
			"0.0": 9.82395395585,
			"0.001": 9.40655733738,
			"0.002": 9.62707101165,
			"0.003": 9.76292904524,
			"0.004": 9.87988959716,
			"0.005": 10.3059017979,
			"0.006": 9.10166082612,
			"0.007": 2.83979708843,
			"0.008": 2.79286445059,
			"0.009": 2.83958646236,
			"0.01": 3.42851452918,
			"0.011": 5.19997893156,
			"0.012": 5.48635167689,
			"0.013": 1.61606779949,
			"0.014": 2.01360420249,
			"0.015": 1.42475707856,
			"0.016": 0.0525652717817,
			"0.017": 0.0,
			"0.018": 0.0,
			"0.019": 0.0,
			"0.02": 0.0,
			"0.021": 0.0,
			"0.022": 0.0,
			"0.023": 0.0,
			"0.024": 0.0,
			"0.025": 0.0
		}
	}
}
