{
	 "smiles": "CS(=O)(=O)NC1=C(Br)C=CC=C1", 
	 "Tm": 353.15, 
	 "num_atms": 20, 
	 "gaussian": { 
		 "optdone": 1, 
		 "sigma_profile": "yes", 
		 "theory": "DFT", 
		 "functional": "B3LYP", 
		 "basiset": "6-31G**", 
		 "properties": { 
			 "R2extent": 3630.0405, 
			 "electric_dipole_moment_norm": 4.69235747786, 
			 "electric_quadrupole_moment_norm": 13.2818013925, 
			 "total_energy": -3446.29191645, 
			 "HOMO_LUMO_gap": 0.21625, 
			 "cosmo_polarized_energy": -13.59, 
			 "cosmo_cavitation_energy": 27.37, 
			 "cosmo_dispersion_energy": -20.59, 
			 "cosmo_repulsion_energy": 1.58, 
			 "cosmo_total_nonelectrostatic_energy": 8.36, 
			 "SMD_solvation_energy": 3.19 
		},
		"coords": [
			{
				"x": 1.9878446678,
				"y": 0.0932407862,
				"z": -2.169016956,
				"element": "C" 
			},
			{
				"x": 2.6311221304,
				"y": 0.1422786606,
				"z": -0.4826560226,
				"element": "S" 
			},
			{
				"x": 3.7378373841,
				"y": 1.0942144698,
				"z": -0.430509511,
				"element": "O" 
			},
			{
				"x": 2.7761040766,
				"y": -1.2401291626,
				"z": -0.0307649707,
				"element": "O" 
			},
			{
				"x": 1.4067349488,
				"y": 0.8779736788,
				"z": 0.4335135319,
				"element": "N" 
			},
			{
				"x": 0.085771864,
				"y": 0.3865526697,
				"z": 0.5235327205,
				"element": "C" 
			},
			{
				"x": -1.0183595152,
				"y": 1.2426236607,
				"z": 0.358809463,
				"element": "C" 
			},
			{
				"x": -0.7404287631,
				"y": 3.0961489825,
				"z": -0.0504054123,
				"element": "Br" 
			},
			{
				"x": -2.3248660739,
				"y": 0.7810127717,
				"z": 0.4968237841,
				"element": "C" 
			},
			{
				"x": -2.5554163259,
				"y": -0.5647814304,
				"z": 0.7776555933,
				"element": "C" 
			},
			{
				"x": -1.4725839213,
				"y": -1.4312213698,
				"z": 0.9358153619,
				"element": "C" 
			},
			{
				"x": -0.1663655435,
				"y": -0.9620622363,
				"z": 0.8267388726,
				"element": "C" 
			},
			{
				"x": 2.737785473,
				"y": -0.4131574699,
				"z": -2.7790254436,
				"element": "H" 
			},
			{
				"x": 1.8349018911,
				"y": 1.1150001628,
				"z": -2.5182674364,
				"element": "H" 
			},
			{
				"x": 1.0534967445,
				"y": -0.4698255063,
				"z": -2.1739671623,
				"element": "H" 
			},
			{
				"x": 1.4874464178,
				"y": 1.8895764816,
				"z": 0.3773591716,
				"element": "H" 
			},
			{
				"x": -3.1503216279,
				"y": 1.4728936346,
				"z": 0.3742818827,
				"element": "H" 
			},
			{
				"x": -3.5737866692,
				"y": -0.9265475855,
				"z": 0.8769759426,
				"element": "H" 
			},
			{
				"x": -1.6413313448,
				"y": -2.4786378161,
				"z": 1.1659811973,
				"element": "H" 
			},
			{
				"x": 0.6782141866,
				"y": -1.6234533821,
				"z": 0.9778253935,
				"element": "H" 
			}
		],
		 "valence_orbital": [ 
			{
				"type": "occ",
				"energy": -0.31416,
				"method": "rhf"
			},
			{
				"type": "occ",
				"energy": -0.31114,
				"method": "rhf"
			},
			{
				"type": "occ",
				"energy": -0.30623,
				"method": "rhf"
			},
			{
				"type": "occ",
				"energy": -0.26233,
				"method": "rhf"
			},
			{
				"type": "occ",
				"energy": -0.24264,
				"method": "rhf"
			},
			{
				"type": "unocc",
				"energy": -0.02639,
				"method": "rhf"
			},
			{
				"type": "unocc",
				"energy": -0.02561,
				"method": "rhf"
			},
			{
				"type": "unocc",
				"energy": -0.01151,
				"method": "rhf"
			},
			{
				"type": "unocc",
				"energy": 0.06056,
				"method": "rhf"
			},
			{
				"type": "unocc",
				"energy": 0.06768,
				"method": "rhf"
			}
		],
		"cosmo_sigma_profile": { 
			"-0.025": 0.0,
			"-0.024": 0.0,
			"-0.023": 0.0,
			"-0.022": 0.0,
			"-0.021": 0.0,
			"-0.02": 0.0,
			"-0.019": 0.0,
			"-0.018": 0.0,
			"-0.017": 0.0,
			"-0.016": 0.0,
			"-0.015": 0.0,
			"-0.014": 0.0,
			"-0.013": 0.0,
			"-0.012": 0.103581409749,
			"-0.011": 0.894189188506,
			"-0.01": 1.76497539745,
			"-0.009": 4.55553878533,
			"-0.008": 6.74400598607,
			"-0.007": 9.68957508902,
			"-0.006": 15.0756673286,
			"-0.005": 17.0931891533,
			"-0.004": 15.6166378341,
			"-0.003": 12.4086798236,
			"-0.002": 10.9783453882,
			"-0.001": 10.2677766241,
			"0.0": 12.4668785421,
			"0.001": 15.4315096013,
			"0.002": 17.4234571717,
			"0.003": 19.7728561502,
			"0.004": 15.063246651,
			"0.005": 3.99334215406,
			"0.006": 3.54752039883,
			"0.007": 3.79029095956,
			"0.008": 2.94018102871,
			"0.009": 3.69069074377,
			"0.01": 8.54908828425,
			"0.011": 9.18391524284,
			"0.012": 1.23648401363,
			"0.013": 0.0,
			"0.014": 0.0,
			"0.015": 0.0,
			"0.016": 0.0,
			"0.017": 0.0,
			"0.018": 0.0,
			"0.019": 0.0,
			"0.02": 0.0,
			"0.021": 0.0,
			"0.022": 0.0,
			"0.023": 0.0,
			"0.024": 0.0,
			"0.025": 0.0
		}
	}
}
