{
	 "smiles": "OC(=O)CCCNS(=O)(=O)C1=CC2=C(OCCO2)C=C1", 
	 "Tm": 394.15, 
	 "num_atms": 35, 
	 "gaussian": { 
		 "optdone": 1, 
		 "sigma_profile": "yes", 
		 "theory": "DFT", 
		 "functional": "B3LYP", 
		 "basiset": "6-31G**", 
		 "properties": { 
			 "R2extent": 8545.7008, 
			 "electric_dipole_moment_norm": 6.53571778001, 
			 "electric_quadrupole_moment_norm": 27.8316032174, 
			 "total_energy": -1370.52820135, 
			 "HOMO_LUMO_gap": 0.2016, 
			 "cosmo_polarized_energy": -25.98, 
			 "cosmo_cavitation_energy": 40.57, 
			 "cosmo_dispersion_energy": -29.05, 
			 "cosmo_repulsion_energy": 2.24, 
			 "cosmo_total_nonelectrostatic_energy": 13.75, 
			 "SMD_solvation_energy": 6.64 
		},
		"coords": [
			{
				"x": 3.0535185063,
				"y": 5.6255600513,
				"z": -0.1323754539,
				"element": "O" 
			},
			{
				"x": 1.8820327827,
				"y": 5.0013270049,
				"z": 0.1379751524,
				"element": "C" 
			},
			{
				"x": 1.5483023526,
				"y": 4.6947353248,
				"z": 1.2621349597,
				"element": "O" 
			},
			{
				"x": 1.0993696915,
				"y": 4.7043471983,
				"z": -1.1229023904,
				"element": "C" 
			},
			{
				"x": 1.5824002113,
				"y": 3.4045362742,
				"z": -1.8018419876,
				"element": "C" 
			},
			{
				"x": 1.3786079791,
				"y": 2.1631151789,
				"z": -0.9265370121,
				"element": "C" 
			},
			{
				"x": 1.8329965014,
				"y": 0.9696608671,
				"z": -1.6470523212,
				"element": "N" 
			},
			{
				"x": 2.1867728487,
				"y": -0.4365202775,
				"z": -0.7904272923,
				"element": "S" 
			},
			{
				"x": 3.0976452596,
				"y": -0.0425561972,
				"z": 0.2852073017,
				"element": "O" 
			},
			{
				"x": 2.5468252238,
				"y": -1.4171752326,
				"z": -1.8161257671,
				"element": "O" 
			},
			{
				"x": 0.6608742207,
				"y": -0.9858718882,
				"z": -0.0233890064,
				"element": "C" 
			},
			{
				"x": -0.1709884944,
				"y": -1.8598468458,
				"z": -0.7253572437,
				"element": "C" 
			},
			{
				"x": -1.3732118495,
				"y": -2.2661610339,
				"z": -0.1521947112,
				"element": "C" 
			},
			{
				"x": -1.742966896,
				"y": -1.7836279343,
				"z": 1.1193537798,
				"element": "C" 
			},
			{
				"x": -2.9215899167,
				"y": -2.1432152778,
				"z": 1.7121129733,
				"element": "O" 
			},
			{
				"x": -3.8593688592,
				"y": -2.7705987872,
				"z": 0.8330430966,
				"element": "C" 
			},
			{
				"x": -3.1538800007,
				"y": -3.787984854,
				"z": -0.0475371588,
				"element": "C" 
			},
			{
				"x": -2.1681610536,
				"y": -3.1374860759,
				"z": -0.8517295384,
				"element": "O" 
			},
			{
				"x": -0.8881406637,
				"y": -0.9265815362,
				"z": 1.8162147385,
				"element": "C" 
			},
			{
				"x": 0.3194310892,
				"y": -0.5250420422,
				"z": 1.2523977675,
				"element": "C" 
			},
			{
				"x": 3.510527675,
				"y": 5.728610249,
				"z": 0.7197053309,
				"element": "H" 
			},
			{
				"x": 0.0464985433,
				"y": 4.6185167536,
				"z": -0.8406612201,
				"element": "H" 
			},
			{
				"x": 1.2102907156,
				"y": 5.5386603765,
				"z": -1.8212041017,
				"element": "H" 
			},
			{
				"x": 1.0284092846,
				"y": 3.2870105282,
				"z": -2.7417493171,
				"element": "H" 
			},
			{
				"x": 2.6413187456,
				"y": 3.4890189597,
				"z": -2.0653091175,
				"element": "H" 
			},
			{
				"x": 0.3249758931,
				"y": 2.086444088,
				"z": -0.6163318559,
				"element": "H" 
			},
			{
				"x": 1.9808298149,
				"y": 2.2382494333,
				"z": -0.0181208335,
				"element": "H" 
			},
			{
				"x": 1.3032307592,
				"y": 0.7409547934,
				"z": -2.4838631782,
				"element": "H" 
			},
			{
				"x": 0.1183293729,
				"y": -2.2540517229,
				"z": -1.693069137,
				"element": "H" 
			},
			{
				"x": -4.6090703432,
				"y": -3.2451488736,
				"z": 1.4706641463,
				"element": "H" 
			},
			{
				"x": -4.3481975373,
				"y": -2.009809983,
				"z": 0.210123346,
				"element": "H" 
			},
			{
				"x": -3.851376329,
				"y": -4.2662191623,
				"z": -0.7391791816,
				"element": "H" 
			},
			{
				"x": -2.6788463094,
				"y": -4.5591244717,
				"z": 0.5735901251,
				"element": "H" 
			},
			{
				"x": -1.1913104422,
				"y": -0.586969623,
				"z": 2.8010548889,
				"element": "H" 
			},
			{
				"x": 0.9982212237,
				"y": 0.121144738,
				"z": 1.7964802191,
				"element": "H" 
			}
		],
		 "valence_orbital": [ 
			{
				"type": "occ",
				"energy": -0.29415,
				"method": "rhf"
			},
			{
				"type": "occ",
				"energy": -0.27819,
				"method": "rhf"
			},
			{
				"type": "occ",
				"energy": -0.27588,
				"method": "rhf"
			},
			{
				"type": "occ",
				"energy": -0.25134,
				"method": "rhf"
			},
			{
				"type": "occ",
				"energy": -0.22895,
				"method": "rhf"
			},
			{
				"type": "unocc",
				"energy": -0.02735,
				"method": "rhf"
			},
			{
				"type": "unocc",
				"energy": -0.01184,
				"method": "rhf"
			},
			{
				"type": "unocc",
				"energy": 0.00091,
				"method": "rhf"
			},
			{
				"type": "unocc",
				"energy": 0.0601,
				"method": "rhf"
			},
			{
				"type": "unocc",
				"energy": 0.07071,
				"method": "rhf"
			}
		],
		"cosmo_sigma_profile": { 
			"-0.025": 0.0,
			"-0.024": 0.0,
			"-0.023": 0.0,
			"-0.022": 0.0,
			"-0.021": 0.0,
			"-0.02": 0.0,
			"-0.019": 0.033525693221,
			"-0.018": 0.64212699436,
			"-0.017": 1.13442756096,
			"-0.016": 0.788185537986,
			"-0.015": 1.22077018153,
			"-0.014": 1.80689145172,
			"-0.013": 1.43704958673,
			"-0.012": 2.31823493253,
			"-0.011": 1.7009163402,
			"-0.01": 2.2508574702,
			"-0.009": 1.36359795511,
			"-0.008": 4.06365299931,
			"-0.007": 15.1256121143,
			"-0.006": 24.2841342913,
			"-0.005": 25.8147869639,
			"-0.004": 26.8835516138,
			"-0.003": 22.1218745235,
			"-0.002": 19.563946766,
			"-0.001": 14.6092461723,
			"0.0": 14.7378915151,
			"0.001": 16.9257238732,
			"0.002": 19.3877168513,
			"0.003": 14.3615052391,
			"0.004": 9.37538407491,
			"0.005": 8.31146533774,
			"0.006": 8.42477010879,
			"0.007": 8.59696224219,
			"0.008": 10.0671135939,
			"0.009": 10.1136840137,
			"0.01": 9.25913621799,
			"0.011": 12.7137292436,
			"0.012": 9.80580018249,
			"0.013": 1.11695490129,
			"0.014": 0.0,
			"0.015": 0.0,
			"0.016": 0.0,
			"0.017": 0.0,
			"0.018": 0.0,
			"0.019": 0.0,
			"0.02": 0.0,
			"0.021": 0.0,
			"0.022": 0.0,
			"0.023": 0.0,
			"0.024": 0.0,
			"0.025": 0.0
		}
	}
}
