{
	 "smiles": "CC1=NC2=C(N=NC3=CC=NC=C3)C(N)=NN2C(C)=C1", 
	 "Tm": 501.15, 
	 "num_atms": 33, 
	 "gaussian": { 
		 "optdone": 1, 
		 "sigma_profile": "yes", 
		 "theory": "DFT", 
		 "functional": "B3LYP", 
		 "basiset": "6-31G**", 
		 "properties": { 
			 "R2extent": 7304.2672, 
			 "electric_dipole_moment_norm": 6.99346162641, 
			 "electric_quadrupole_moment_norm": 23.7079737742, 
			 "total_energy": -886.429117756, 
			 "HOMO_LUMO_gap": 0.13236, 
			 "cosmo_polarized_energy": -20.39, 
			 "cosmo_cavitation_energy": 38.63, 
			 "cosmo_dispersion_energy": -27.79, 
			 "cosmo_repulsion_energy": 2.14, 
			 "cosmo_total_nonelectrostatic_energy": 12.99, 
			 "SMD_solvation_energy": 2.03 
		},
		"coords": [
			{
				"x": 0.7057431999,
				"y": -0.2052235546,
				"z": 4.5844814,
				"element": "C" 
			},
			{
				"x": 1.2335674964,
				"y": -0.3755170384,
				"z": 3.1845234616,
				"element": "C" 
			},
			{
				"x": 0.4160246587,
				"y": -0.0591179253,
				"z": 2.1824822317,
				"element": "N" 
			},
			{
				"x": 0.8787007711,
				"y": -0.2076384082,
				"z": 0.9364879352,
				"element": "C" 
			},
			{
				"x": 0.3196939216,
				"y": 0.0141976985,
				"z": -0.3474918719,
				"element": "C" 
			},
			{
				"x": -0.8969093504,
				"y": 0.4372261259,
				"z": -0.8059005417,
				"element": "N" 
			},
			{
				"x": -1.7730147999,
				"y": 0.7356485883,
				"z": 0.0680709877,
				"element": "N" 
			},
			{
				"x": -3.0027989683,
				"y": 1.1670294268,
				"z": -0.4831130193,
				"element": "C" 
			},
			{
				"x": -3.2729206231,
				"y": 1.3763717952,
				"z": -1.8455276939,
				"element": "C" 
			},
			{
				"x": -4.5424063059,
				"y": 1.8110977942,
				"z": -2.2101789299,
				"element": "C" 
			},
			{
				"x": -5.541014298,
				"y": 2.0481454359,
				"z": -1.3436616368,
				"element": "N" 
			},
			{
				"x": -5.270084816,
				"y": 1.847610103,
				"z": -0.0472918847,
				"element": "C" 
			},
			{
				"x": -4.0342135399,
				"y": 1.4162182679,
				"z": 0.4310233696,
				"element": "C" 
			},
			{
				"x": 1.3605452495,
				"y": -0.3492215161,
				"z": -1.2611007484,
				"element": "C" 
			},
			{
				"x": 1.2750526198,
				"y": -0.2500836654,
				"z": -2.6159300957,
				"element": "N" 
			},
			{
				"x": 2.4747890975,
				"y": -0.7716190842,
				"z": -0.6554047158,
				"element": "N" 
			},
			{
				"x": 2.1721263556,
				"y": -0.6792510044,
				"z": 0.6783691594,
				"element": "N" 
			},
			{
				"x": 3.027817011,
				"y": -1.0085967219,
				"z": 1.6794530962,
				"element": "C" 
			},
			{
				"x": 4.3873919498,
				"y": -1.5004837203,
				"z": 1.3023409075,
				"element": "C" 
			},
			{
				"x": 2.5499107127,
				"y": -0.8538197029,
				"z": 2.9663227783,
				"element": "C" 
			},
			{
				"x": 0.7190093822,
				"y": -1.1570605065,
				"z": 5.1278769809,
				"element": "H" 
			},
			{
				"x": -0.3180298724,
				"y": 0.168303437,
				"z": 4.5470481177,
				"element": "H" 
			},
			{
				"x": 1.3222800222,
				"y": 0.5002622908,
				"z": 5.1533705229,
				"element": "H" 
			},
			{
				"x": -2.5021356465,
				"y": 1.2044003767,
				"z": -2.586987769,
				"element": "H" 
			},
			{
				"x": -4.775545289,
				"y": 1.9819881868,
				"z": -3.2603269279,
				"element": "H" 
			},
			{
				"x": -6.0848350991,
				"y": 2.0438732901,
				"z": 0.648015237,
				"element": "H" 
			},
			{
				"x": -3.8512979651,
				"y": 1.2674488224,
				"z": 1.4899641993,
				"element": "H" 
			},
			{
				"x": 1.9348852078,
				"y": -0.7829106917,
				"z": -3.1613816008,
				"element": "H" 
			},
			{
				"x": 0.3414322424,
				"y": -0.1512044707,
				"z": -2.9855664288,
				"element": "H" 
			},
			{
				"x": 4.9716470209,
				"y": -1.7258223748,
				"z": 2.1958960706,
				"element": "H" 
			},
			{
				"x": 4.3101330523,
				"y": -2.3979676298,
				"z": 0.6803890463,
				"element": "H" 
			},
			{
				"x": 4.9115915143,
				"y": -0.7503524629,
				"z": 0.7017557648,
				"element": "H" 
			},
			{
				"x": 3.193565088,
				"y": -1.1020311615,
				"z": 3.8023925979,
				"element": "H" 
			}
		],
		 "valence_orbital": [ 
			{
				"type": "occ",
				"energy": -0.24912,
				"method": "rhf"
			},
			{
				"type": "occ",
				"energy": -0.24196,
				"method": "rhf"
			},
			{
				"type": "occ",
				"energy": -0.23102,
				"method": "rhf"
			},
			{
				"type": "occ",
				"energy": -0.2165,
				"method": "rhf"
			},
			{
				"type": "occ",
				"energy": -0.20633,
				"method": "rhf"
			},
			{
				"type": "unocc",
				"energy": -0.07397,
				"method": "rhf"
			},
			{
				"type": "unocc",
				"energy": -0.04652,
				"method": "rhf"
			},
			{
				"type": "unocc",
				"energy": -0.00645,
				"method": "rhf"
			},
			{
				"type": "unocc",
				"energy": 0.00402,
				"method": "rhf"
			},
			{
				"type": "unocc",
				"energy": 0.03237,
				"method": "rhf"
			}
		],
		"cosmo_sigma_profile": { 
			"-0.025": 0.0,
			"-0.024": 0.0,
			"-0.023": 0.0,
			"-0.022": 0.0,
			"-0.021": 0.0,
			"-0.02": 0.0,
			"-0.019": 0.0,
			"-0.018": 0.0,
			"-0.017": 0.0,
			"-0.016": 0.0,
			"-0.015": 0.0422168278562,
			"-0.014": 0.865383797535,
			"-0.013": 1.67650196015,
			"-0.012": 1.87834469744,
			"-0.011": 2.47493480242,
			"-0.01": 1.8935913044,
			"-0.009": 1.84303212344,
			"-0.008": 3.5569203175,
			"-0.007": 6.13026683802,
			"-0.006": 16.1638591942,
			"-0.005": 22.8212312185,
			"-0.004": 24.8816961137,
			"-0.003": 24.2335974697,
			"-0.002": 26.9476092872,
			"-0.001": 24.3937470785,
			"0.0": 18.4985713294,
			"0.001": 18.6162579035,
			"0.002": 29.3942217421,
			"0.003": 23.283211856,
			"0.004": 9.76915010891,
			"0.005": 8.64609341501,
			"0.006": 5.49484535853,
			"0.007": 4.52584499896,
			"0.008": 5.31875858488,
			"0.009": 5.70210488885,
			"0.01": 3.8803590584,
			"0.011": 2.33990457091,
			"0.012": 2.82647003823,
			"0.013": 3.20560934139,
			"0.014": 1.73947076533,
			"0.015": 1.69145364596,
			"0.016": 1.78136157763,
			"0.017": 1.56769466315,
			"0.018": 0.802227035979,
			"0.019": 0.403502873217,
			"0.02": 0.0,
			"0.021": 0.0,
			"0.022": 0.0,
			"0.023": 0.0,
			"0.024": 0.0,
			"0.025": 0.0
		}
	}
}
