{
	 "smiles": "OC(=O)C1=C(OCC2=CC=CS2)C=CC=C1", 
	 "Tm": 361.15, 
	 "num_atms": 26, 
	 "gaussian": { 
		 "optdone": 1, 
		 "sigma_profile": "yes", 
		 "theory": "DFT", 
		 "functional": "B3LYP", 
		 "basiset": "6-31G**", 
		 "properties": { 
			 "R2extent": 4983.628, 
			 "electric_dipole_moment_norm": 3.44453705598, 
			 "electric_quadrupole_moment_norm": 19.4346312039, 
			 "total_energy": -1087.13608187, 
			 "HOMO_LUMO_gap": 0.18633, 
			 "cosmo_polarized_energy": -15.94, 
			 "cosmo_cavitation_energy": 32.36, 
			 "cosmo_dispersion_energy": -23.66, 
			 "cosmo_repulsion_energy": 1.8, 
			 "cosmo_total_nonelectrostatic_energy": 10.5, 
			 "SMD_solvation_energy": 6.51 
		},
		"coords": [
			{
				"x": -2.6633849073,
				"y": 1.2930607006,
				"z": 3.4476668052,
				"element": "O" 
			},
			{
				"x": -2.3528056163,
				"y": 1.3411628466,
				"z": 2.1209701677,
				"element": "C" 
			},
			{
				"x": -2.0551456472,
				"y": 2.4000108713,
				"z": 1.6177553414,
				"element": "O" 
			},
			{
				"x": -2.4703722345,
				"y": 0.0453222667,
				"z": 1.381734274,
				"element": "C" 
			},
			{
				"x": -1.6332035761,
				"y": -0.3124211471,
				"z": 0.2989172446,
				"element": "C" 
			},
			{
				"x": -0.5219862768,
				"y": 0.3461842182,
				"z": -0.1197283755,
				"element": "O" 
			},
			{
				"x": 0.3563177943,
				"y": 1.0228886177,
				"z": 0.8035633674,
				"element": "C" 
			},
			{
				"x": 1.7516823575,
				"y": 0.9656421332,
				"z": 0.2758268904,
				"element": "C" 
			},
			{
				"x": 2.5569007228,
				"y": 2.0230140938,
				"z": -0.0581689086,
				"element": "C" 
			},
			{
				"x": 3.8561213067,
				"y": 1.6294957743,
				"z": -0.5006352584,
				"element": "C" 
			},
			{
				"x": 4.0204249173,
				"y": 0.2720856868,
				"z": -0.5034880273,
				"element": "C" 
			},
			{
				"x": 2.5915577707,
				"y": -0.5482922869,
				"z": 0.0375850209,
				"element": "S" 
			},
			{
				"x": -1.9373263484,
				"y": -1.4615287594,
				"z": -0.451028269,
				"element": "C" 
			},
			{
				"x": -3.0362893172,
				"y": -2.2513990235,
				"z": -0.144313241,
				"element": "C" 
			},
			{
				"x": -3.8595402497,
				"y": -1.9217820059,
				"z": 0.937901476,
				"element": "C" 
			},
			{
				"x": -3.5691304952,
				"y": -0.7878077572,
				"z": 1.6832835525,
				"element": "C" 
			},
			{
				"x": -2.7441800557,
				"y": 0.3704192674,
				"z": 3.728373412,
				"element": "H" 
			},
			{
				"x": 0.2767101218,
				"y": 0.5371204842,
				"z": 1.7856359528,
				"element": "H" 
			},
			{
				"x": 0.0464898754,
				"y": 2.0637292074,
				"z": 0.9150623833,
				"element": "H" 
			},
			{
				"x": 2.2260968369,
				"y": 3.0536764563,
				"z": 0.0122445036,
				"element": "H" 
			},
			{
				"x": 4.6277885759,
				"y": 2.325749812,
				"z": -0.808406783,
				"element": "H" 
			},
			{
				"x": 4.8894197479,
				"y": -0.2977796521,
				"z": -0.802384398,
				"element": "H" 
			},
			{
				"x": -1.2716401364,
				"y": -1.7119736185,
				"z": -1.2700671414,
				"element": "H" 
			},
			{
				"x": -3.2457400996,
				"y": -3.1333233634,
				"z": -0.7425502477,
				"element": "H" 
			},
			{
				"x": -4.7232035075,
				"y": -2.5309427191,
				"z": 1.1835438457,
				"element": "H" 
			},
			{
				"x": -4.2407615592,
				"y": -0.4966121034,
				"z": 2.4867064124,
				"element": "H" 
			}
		],
		 "valence_orbital": [ 
			{
				"type": "occ",
				"energy": -0.27995,
				"method": "rhf"
			},
			{
				"type": "occ",
				"energy": -0.26619,
				"method": "rhf"
			},
			{
				"type": "occ",
				"energy": -0.25195,
				"method": "rhf"
			},
			{
				"type": "occ",
				"energy": -0.24124,
				"method": "rhf"
			},
			{
				"type": "occ",
				"energy": -0.23125,
				"method": "rhf"
			},
			{
				"type": "unocc",
				"energy": -0.04492,
				"method": "rhf"
			},
			{
				"type": "unocc",
				"energy": -0.01909,
				"method": "rhf"
			},
			{
				"type": "unocc",
				"energy": -0.01357,
				"method": "rhf"
			},
			{
				"type": "unocc",
				"energy": 0.02994,
				"method": "rhf"
			},
			{
				"type": "unocc",
				"energy": 0.03447,
				"method": "rhf"
			}
		],
		"cosmo_sigma_profile": { 
			"-0.025": 0.0,
			"-0.024": 0.0,
			"-0.023": 0.0,
			"-0.022": 0.0,
			"-0.021": 0.0,
			"-0.02": 0.0,
			"-0.019": 0.068891057291,
			"-0.018": 0.873968174285,
			"-0.017": 0.97212539042,
			"-0.016": 0.69808931809,
			"-0.015": 0.902190762347,
			"-0.014": 0.796846667518,
			"-0.013": 1.19757676717,
			"-0.012": 0.890232194838,
			"-0.011": 0.926421826784,
			"-0.01": 1.305824749,
			"-0.009": 1.27272809235,
			"-0.008": 5.0218423461,
			"-0.007": 10.6614153743,
			"-0.006": 18.8105199001,
			"-0.005": 17.8082966437,
			"-0.004": 17.2269221293,
			"-0.003": 13.6659911264,
			"-0.002": 14.1946403702,
			"-0.001": 12.3066396892,
			"0.0": 12.5497633294,
			"0.001": 15.9993094454,
			"0.002": 20.876696654,
			"0.003": 20.5041506742,
			"0.004": 22.645809128,
			"0.005": 14.4595705848,
			"0.006": 5.7621803725,
			"0.007": 4.89777949085,
			"0.008": 5.11325453463,
			"0.009": 4.59699457364,
			"0.01": 5.59485264732,
			"0.011": 4.98412106553,
			"0.012": 3.19404376498,
			"0.013": 0.888344038309,
			"0.014": 0.0,
			"0.015": 0.0,
			"0.016": 0.0,
			"0.017": 0.0,
			"0.018": 0.0,
			"0.019": 0.0,
			"0.02": 0.0,
			"0.021": 0.0,
			"0.022": 0.0,
			"0.023": 0.0,
			"0.024": 0.0,
			"0.025": 0.0
		}
	}
}
