{
	 "smiles": "CCCCCCCCC1=CC=C(NC(=O)OC2=CC=C(OC)C=C2)C=C1", 
	 "Tm": 406.15, 
	 "num_atms": 55, 
	 "gaussian": { 
		 "optdone": 1, 
		 "sigma_profile": "yes", 
		 "theory": "DFT", 
		 "functional": "B3LYP", 
		 "basiset": "6-31G**", 
		 "properties": { 
			 "R2extent": 15911.0634, 
			 "electric_dipole_moment_norm": 5.52404188797, 
			 "electric_quadrupole_moment_norm": 43.3067025792, 
			 "total_energy": -1136.27288062, 
			 "HOMO_LUMO_gap": 0.1899, 
			 "cosmo_polarized_energy": -15.58, 
			 "cosmo_cavitation_energy": 57.21, 
			 "cosmo_dispersion_energy": -37.0, 
			 "cosmo_repulsion_energy": 2.9, 
			 "cosmo_total_nonelectrostatic_energy": 23.11, 
			 "SMD_solvation_energy": 10.35 
		},
		"coords": [
			{
				"x": -0.6676801196,
				"y": 3.9671076369,
				"z": -0.4722312587,
				"element": "C" 
			},
			{
				"x": -1.4485374326,
				"y": 2.8319527491,
				"z": -1.1452242111,
				"element": "C" 
			},
			{
				"x": -1.4002518224,
				"y": 2.8559038347,
				"z": -2.6836647591,
				"element": "C" 
			},
			{
				"x": -0.0103337614,
				"y": 2.6646441697,
				"z": -3.3161062067,
				"element": "C" 
			},
			{
				"x": 0.6296646252,
				"y": 1.2956940815,
				"z": -3.0451282677,
				"element": "C" 
			},
			{
				"x": 1.9804074715,
				"y": 1.1240590512,
				"z": -3.7562064223,
				"element": "C" 
			},
			{
				"x": 2.6449511384,
				"y": -0.258375166,
				"z": -3.624763128,
				"element": "C" 
			},
			{
				"x": 3.3022381532,
				"y": -0.5813372171,
				"z": -2.2623125148,
				"element": "C" 
			},
			{
				"x": 2.3630544863,
				"y": -0.874519951,
				"z": -1.1089719315,
				"element": "C" 
			},
			{
				"x": 1.5179864454,
				"y": -1.9928000727,
				"z": -1.1287581702,
				"element": "C" 
			},
			{
				"x": 0.6534089475,
				"y": -2.2936019606,
				"z": -0.0783374722,
				"element": "C" 
			},
			{
				"x": 0.620702337,
				"y": -1.4576198194,
				"z": 1.0475824675,
				"element": "C" 
			},
			{
				"x": -0.217012931,
				"y": -1.6778487373,
				"z": 2.1643813645,
				"element": "N" 
			},
			{
				"x": -1.1237489441,
				"y": -2.6899908234,
				"z": 2.3407775854,
				"element": "C" 
			},
			{
				"x": -1.3708082831,
				"y": -3.5853134272,
				"z": 1.5661129993,
				"element": "O" 
			},
			{
				"x": -1.8061989372,
				"y": -2.6485290542,
				"z": 3.5438634136,
				"element": "O" 
			},
			{
				"x": -1.5856305108,
				"y": -1.6534591845,
				"z": 4.4922044689,
				"element": "C" 
			},
			{
				"x": -0.6590154495,
				"y": -1.8612455041,
				"z": 5.5107854079,
				"element": "C" 
			},
			{
				"x": -0.4877754137,
				"y": -0.899775289,
				"z": 6.5110269036,
				"element": "C" 
			},
			{
				"x": -1.253219299,
				"y": 0.2733061314,
				"z": 6.4868317632,
				"element": "C" 
			},
			{
				"x": -1.1687225517,
				"y": 1.2736065656,
				"z": 7.4081755403,
				"element": "O" 
			},
			{
				"x": -0.2566575748,
				"y": 1.1223860309,
				"z": 8.4857413008,
				"element": "C" 
			},
			{
				"x": -2.1878385279,
				"y": 0.4731543774,
				"z": 5.4574856033,
				"element": "C" 
			},
			{
				"x": -2.3557387727,
				"y": -0.4849072258,
				"z": 4.4658502479,
				"element": "C" 
			},
			{
				"x": 1.4645138545,
				"y": -0.3390147002,
				"z": 1.0904767381,
				"element": "C" 
			},
			{
				"x": 2.3210342063,
				"y": -0.0589421187,
				"z": 0.0284162833,
				"element": "C" 
			},
			{
				"x": 0.4053992853,
				"y": 3.9052441121,
				"z": -0.681573221,
				"element": "H" 
			},
			{
				"x": -1.0153099247,
				"y": 4.9471323119,
				"z": -0.8201735755,
				"element": "H" 
			},
			{
				"x": -0.7901248795,
				"y": 3.939442821,
				"z": 0.6158534173,
				"element": "H" 
			},
			{
				"x": -1.0810452048,
				"y": 1.8668778274,
				"z": -0.774690145,
				"element": "H" 
			},
			{
				"x": -2.4997497001,
				"y": 2.8909062916,
				"z": -0.8345491789,
				"element": "H" 
			},
			{
				"x": -1.8164936225,
				"y": 3.8116881827,
				"z": -3.0314991015,
				"element": "H" 
			},
			{
				"x": -2.0712405229,
				"y": 2.0756452918,
				"z": -3.0683933815,
				"element": "H" 
			},
			{
				"x": 0.6682820143,
				"y": 3.4576503603,
				"z": -2.9728574701,
				"element": "H" 
			},
			{
				"x": -0.102644065,
				"y": 2.8048892583,
				"z": -4.4021060395,
				"element": "H" 
			},
			{
				"x": 0.7562943291,
				"y": 1.1489712211,
				"z": -1.9683333414,
				"element": "H" 
			},
			{
				"x": -0.0561126925,
				"y": 0.5036184861,
				"z": -3.3792274584,
				"element": "H" 
			},
			{
				"x": 1.8340453383,
				"y": 1.3285142028,
				"z": -4.8261001485,
				"element": "H" 
			},
			{
				"x": 2.6812420274,
				"y": 1.8940689034,
				"z": -3.4009802655,
				"element": "H" 
			},
			{
				"x": 3.4320495451,
				"y": -0.3299932365,
				"z": -4.3864094162,
				"element": "H" 
			},
			{
				"x": 1.9150925932,
				"y": -1.040570452,
				"z": -3.8732351318,
				"element": "H" 
			},
			{
				"x": 3.9664425424,
				"y": 0.2471214841,
				"z": -1.9850787513,
				"element": "H" 
			},
			{
				"x": 3.953879292,
				"y": -1.4536606124,
				"z": -2.4077023344,
				"element": "H" 
			},
			{
				"x": 1.5332660123,
				"y": -2.6574612295,
				"z": -1.9893755058,
				"element": "H" 
			},
			{
				"x": 0.0109020839,
				"y": -3.1619883473,
				"z": -0.1162357111,
				"element": "H" 
			},
			{
				"x": -0.1332865728,
				"y": -1.0054706605,
				"z": 2.9139612826,
				"element": "H" 
			},
			{
				"x": -0.0826797869,
				"y": -2.7807202125,
				"z": 5.5253961248,
				"element": "H" 
			},
			{
				"x": 0.2345577847,
				"y": -1.0799532809,
				"z": 7.297841058,
				"element": "H" 
			},
			{
				"x": 0.7791048481,
				"y": 1.04265198,
				"z": 8.1312980495,
				"element": "H" 
			},
			{
				"x": -0.3587026935,
				"y": 2.0218187772,
				"z": 9.0943658799,
				"element": "H" 
			},
			{
				"x": -0.4959785468,
				"y": 0.2433507509,
				"z": 9.0976163976,
				"element": "H" 
			},
			{
				"x": -2.7751745538,
				"y": 1.3851901885,
				"z": 5.4615253578,
				"element": "H" 
			},
			{
				"x": -3.0859800117,
				"y": -0.3459088157,
				"z": 3.6751740525,
				"element": "H" 
			},
			{
				"x": 1.4530508567,
				"y": 0.3141286667,
				"z": 1.9605643383,
				"element": "H" 
			},
			{
				"x": 2.967422891,
				"y": 0.813281352,
				"z": 0.0874164738,
				"element": "H" 
			}
		],
		 "valence_orbital": [ 
			{
				"type": "occ",
				"energy": -0.2765,
				"method": "rhf"
			},
			{
				"type": "occ",
				"energy": -0.27148,
				"method": "rhf"
			},
			{
				"type": "occ",
				"energy": -0.24818,
				"method": "rhf"
			},
			{
				"type": "occ",
				"energy": -0.23039,
				"method": "rhf"
			},
			{
				"type": "occ",
				"energy": -0.21261,
				"method": "rhf"
			},
			{
				"type": "unocc",
				"energy": -0.02271,
				"method": "rhf"
			},
			{
				"type": "unocc",
				"energy": -0.00551,
				"method": "rhf"
			},
			{
				"type": "unocc",
				"energy": -0.00216,
				"method": "rhf"
			},
			{
				"type": "unocc",
				"energy": 0.00081,
				"method": "rhf"
			},
			{
				"type": "unocc",
				"energy": 0.0632,
				"method": "rhf"
			}
		],
		"cosmo_sigma_profile": { 
			"-0.025": 0.0,
			"-0.024": 0.0,
			"-0.023": 0.0,
			"-0.022": 0.0,
			"-0.021": 0.0,
			"-0.02": 0.0,
			"-0.019": 0.0,
			"-0.018": 0.0,
			"-0.017": 0.0,
			"-0.016": 0.0,
			"-0.015": 0.0,
			"-0.014": 0.0616161145811,
			"-0.013": 0.624192333724,
			"-0.012": 0.922142307809,
			"-0.011": 0.721856323551,
			"-0.01": 1.67919518672,
			"-0.009": 0.677312471621,
			"-0.008": 1.81002456704,
			"-0.007": 7.90616321632,
			"-0.006": 15.5764600166,
			"-0.005": 24.2186945565,
			"-0.004": 24.7239702285,
			"-0.003": 30.6312266742,
			"-0.002": 40.24785644,
			"-0.001": 53.3778918718,
			"0.0": 59.9333206644,
			"0.001": 58.4874357844,
			"0.002": 37.1710259119,
			"0.003": 26.4585846473,
			"0.004": 17.2903828695,
			"0.005": 12.6309342316,
			"0.006": 7.36250255022,
			"0.007": 2.99325249298,
			"0.008": 4.22769558859,
			"0.009": 3.78647645813,
			"0.01": 5.00623201916,
			"0.011": 3.41192374017,
			"0.012": 4.16295156071,
			"0.013": 2.66714212143,
			"0.014": 0.426810600422,
			"0.015": 0.0,
			"0.016": 0.0,
			"0.017": 0.0,
			"0.018": 0.0,
			"0.019": 0.0,
			"0.02": 0.0,
			"0.021": 0.0,
			"0.022": 0.0,
			"0.023": 0.0,
			"0.024": 0.0,
			"0.025": 0.0
		}
	}
}
