{
	 "smiles": "OC(=O)CCC1=NC(=NO1)C1=CC=CS1", 
	 "Tm": 382.15, 
	 "num_atms": 23, 
	 "gaussian": { 
		 "optdone": 1, 
		 "sigma_profile": "yes", 
		 "theory": "DFT", 
		 "functional": "B3LYP", 
		 "basiset": "6-31G**", 
		 "properties": { 
			 "R2extent": 4385.8372, 
			 "electric_dipole_moment_norm": 2.47411557935, 
			 "electric_quadrupole_moment_norm": 16.4625765152, 
			 "total_energy": -1081.10995575, 
			 "HOMO_LUMO_gap": 0.18077, 
			 "cosmo_polarized_energy": -15.29, 
			 "cosmo_cavitation_energy": 30.56, 
			 "cosmo_dispersion_energy": -22.36, 
			 "cosmo_repulsion_energy": 1.74, 
			 "cosmo_total_nonelectrostatic_energy": 9.94, 
			 "SMD_solvation_energy": 4.86 
		},
		"coords": [
			{
				"x": 0.539835952,
				"y": -3.6008211511,
				"z": 0.8269776564,
				"element": "O" 
			},
			{
				"x": 0.4944508162,
				"y": -2.8562990149,
				"z": -0.2998051717,
				"element": "C" 
			},
			{
				"x": 1.485879006,
				"y": -2.4352432163,
				"z": -0.8537799313,
				"element": "O" 
			},
			{
				"x": -0.9305968259,
				"y": -2.6518735962,
				"z": -0.7722743886,
				"element": "C" 
			},
			{
				"x": -1.0108592219,
				"y": -1.6652952695,
				"z": -1.9374366401,
				"element": "C" 
			},
			{
				"x": -0.7263188468,
				"y": -0.2618862492,
				"z": -1.5099953418,
				"element": "C" 
			},
			{
				"x": -0.7785946466,
				"y": 0.2444857468,
				"z": -0.3139847216,
				"element": "N" 
			},
			{
				"x": -0.4565621461,
				"y": 1.5706420689,
				"z": -0.5383534186,
				"element": "C" 
			},
			{
				"x": -0.2238684782,
				"y": 1.8688210484,
				"z": -1.7993829135,
				"element": "N" 
			},
			{
				"x": -0.4035714861,
				"y": 0.6356218771,
				"z": -2.4536411803,
				"element": "O" 
			},
			{
				"x": -0.3841781061,
				"y": 2.5492069399,
				"z": 0.5311423084,
				"element": "C" 
			},
			{
				"x": -0.0730320247,
				"y": 3.887119099,
				"z": 0.4453831126,
				"element": "C" 
			},
			{
				"x": -0.100545725,
				"y": 4.5413941398,
				"z": 1.7073557763,
				"element": "C" 
			},
			{
				"x": -0.4313906524,
				"y": 3.6942309654,
				"z": 2.7334311574,
				"element": "C" 
			},
			{
				"x": -0.7154368777,
				"y": 2.0804545395,
				"z": 2.1793070854,
				"element": "S" 
			},
			{
				"x": 1.4800112876,
				"y": -3.6906700717,
				"z": 1.057168244,
				"element": "H" 
			},
			{
				"x": -1.5327141368,
				"y": -2.3140238243,
				"z": 0.0757645326,
				"element": "H" 
			},
			{
				"x": -1.3269381979,
				"y": -3.6285056601,
				"z": -1.0730785558,
				"element": "H" 
			},
			{
				"x": -0.3004867431,
				"y": -1.9383143318,
				"z": -2.7224941244,
				"element": "H" 
			},
			{
				"x": -2.0132031502,
				"y": -1.6955773642,
				"z": -2.381747531,
				"element": "H" 
			},
			{
				"x": 0.1653056118,
				"y": 4.3701733002,
				"z": -0.4946813483,
				"element": "H" 
			},
			{
				"x": 0.1161470045,
				"y": 5.5940965655,
				"z": 1.8470311956,
				"element": "H" 
			},
			{
				"x": -0.5242324127,
				"y": 3.9250634588,
				"z": 3.7857941983,
				"element": "H" 
			}
		],
		 "valence_orbital": [ 
			{
				"type": "occ",
				"energy": -0.29752,
				"method": "rhf"
			},
			{
				"type": "occ",
				"energy": -0.2944,
				"method": "rhf"
			},
			{
				"type": "occ",
				"energy": -0.28364,
				"method": "rhf"
			},
			{
				"type": "occ",
				"energy": -0.25688,
				"method": "rhf"
			},
			{
				"type": "occ",
				"energy": -0.22936,
				"method": "rhf"
			},
			{
				"type": "unocc",
				"energy": -0.04859,
				"method": "rhf"
			},
			{
				"type": "unocc",
				"energy": -0.0072,
				"method": "rhf"
			},
			{
				"type": "unocc",
				"energy": 0.00393,
				"method": "rhf"
			},
			{
				"type": "unocc",
				"energy": 0.02904,
				"method": "rhf"
			},
			{
				"type": "unocc",
				"energy": 0.04486,
				"method": "rhf"
			}
		],
		"cosmo_sigma_profile": { 
			"-0.025": 0.0,
			"-0.024": 0.0,
			"-0.023": 0.0,
			"-0.022": 0.0,
			"-0.021": 0.0,
			"-0.02": 0.0,
			"-0.019": 0.0784312151072,
			"-0.018": 0.735624926123,
			"-0.017": 1.11469527168,
			"-0.016": 0.804716072142,
			"-0.015": 0.737942983141,
			"-0.014": 0.877070139705,
			"-0.013": 0.403379976081,
			"-0.012": 0.352713828567,
			"-0.011": 1.01304949607,
			"-0.01": 1.0799551642,
			"-0.009": 2.45155220575,
			"-0.008": 6.39136124866,
			"-0.007": 13.8702534883,
			"-0.006": 15.9459122421,
			"-0.005": 15.0788882579,
			"-0.004": 15.6948639878,
			"-0.003": 10.8734331738,
			"-0.002": 10.9373503597,
			"-0.001": 11.6271412644,
			"0.0": 13.5133839163,
			"0.001": 15.7037805982,
			"0.002": 21.6535743644,
			"0.003": 22.553984587,
			"0.004": 14.1957224099,
			"0.005": 8.87769156743,
			"0.006": 8.88365483473,
			"0.007": 7.19170535136,
			"0.008": 4.98692616781,
			"0.009": 5.99288206234,
			"0.01": 4.08782852336,
			"0.011": 4.94903420289,
			"0.012": 3.54147545372,
			"0.013": 0.482857316288,
			"0.014": 0.0,
			"0.015": 0.0,
			"0.016": 0.0,
			"0.017": 0.0,
			"0.018": 0.0,
			"0.019": 0.0,
			"0.02": 0.0,
			"0.021": 0.0,
			"0.022": 0.0,
			"0.023": 0.0,
			"0.024": 0.0,
			"0.025": 0.0
		}
	}
}
