{
	 "smiles": "NC1=CN(N=C1)C1=CC(=CC=C1)C(F)(F)F", 
	 "Tm": 356.15, 
	 "num_atms": 24, 
	 "gaussian": { 
		 "optdone": 1, 
		 "sigma_profile": "yes", 
		 "theory": "DFT", 
		 "functional": "B3LYP", 
		 "basiset": "6-31G**", 
		 "properties": { 
			 "R2extent": 5325.5517, 
			 "electric_dipole_moment_norm": 2.98380899355, 
			 "electric_quadrupole_moment_norm": 23.7550161726, 
			 "total_energy": -849.639908122, 
			 "HOMO_LUMO_gap": 0.16917, 
			 "cosmo_polarized_energy": -11.83, 
			 "cosmo_cavitation_energy": 30.16, 
			 "cosmo_dispersion_energy": -21.71, 
			 "cosmo_repulsion_energy": 1.62, 
			 "cosmo_total_nonelectrostatic_energy": 10.07, 
			 "SMD_solvation_energy": 6.05 
		},
		"coords": [
			{
				"x": -0.6068196846,
				"y": 4.6283320024,
				"z": 1.7180702939,
				"element": "N" 
			},
			{
				"x": -0.6354406079,
				"y": 3.2886451257,
				"z": 1.3140000129,
				"element": "C" 
			},
			{
				"x": 0.3429791734,
				"y": 2.5599693078,
				"z": 0.6670418919,
				"element": "C" 
			},
			{
				"x": -0.1278436902,
				"y": 1.2681871134,
				"z": 0.5599688406,
				"element": "N" 
			},
			{
				"x": -1.3610041195,
				"y": 1.1375944493,
				"z": 1.0992502116,
				"element": "N" 
			},
			{
				"x": -1.6702801237,
				"y": 2.3443393513,
				"z": 1.5576326628,
				"element": "C" 
			},
			{
				"x": 0.5073865665,
				"y": 0.1532751707,
				"z": -0.0291784618,
				"element": "C" 
			},
			{
				"x": 1.8663138975,
				"y": 0.1998307452,
				"z": -0.357455785,
				"element": "C" 
			},
			{
				"x": 2.4715196438,
				"y": -0.9105235146,
				"z": -0.9476379926,
				"element": "C" 
			},
			{
				"x": 1.7431234709,
				"y": -2.0734017064,
				"z": -1.2032860625,
				"element": "C" 
			},
			{
				"x": 0.3911662531,
				"y": -2.1127945926,
				"z": -0.8596040911,
				"element": "C" 
			},
			{
				"x": -0.2318500724,
				"y": -1.0114485217,
				"z": -0.2806841908,
				"element": "C" 
			},
			{
				"x": 3.9172794288,
				"y": -0.8278172404,
				"z": -1.3586692013,
				"element": "C" 
			},
			{
				"x": 4.6162633756,
				"y": 0.0333850974,
				"z": -0.5843459761,
				"element": "F" 
			},
			{
				"x": 4.5310057346,
				"y": -2.0288203416,
				"z": -1.286684646,
				"element": "F" 
			},
			{
				"x": 4.0474025076,
				"y": -0.3972900362,
				"z": -2.6359240307,
				"element": "F" 
			},
			{
				"x": -1.5236520303,
				"y": 5.0570221681,
				"z": 1.7389538972,
				"element": "H" 
			},
			{
				"x": 0.029025104,
				"y": 5.2022372277,
				"z": 1.1788557042,
				"element": "H" 
			},
			{
				"x": 1.2989577269,
				"y": 2.8619863759,
				"z": 0.2712429869,
				"element": "H" 
			},
			{
				"x": -2.6188994287,
				"y": 2.5076395417,
				"z": 2.0525459549,
				"element": "H" 
			},
			{
				"x": 2.4653913957,
				"y": 1.0744699542,
				"z": -0.1381424302,
				"element": "H" 
			},
			{
				"x": 2.2290245424,
				"y": -2.9323948214,
				"z": -1.6517287449,
				"element": "H" 
			},
			{
				"x": -0.186895894,
				"y": -3.0125270985,
				"z": -1.0467093983,
				"element": "H" 
			},
			{
				"x": -1.2800531696,
				"y": -1.0311957572,
				"z": -0.0109114456,
				"element": "H" 
			}
		],
		 "valence_orbital": [ 
			{
				"type": "occ",
				"energy": -0.29372,
				"method": "rhf"
			},
			{
				"type": "occ",
				"energy": -0.2866,
				"method": "rhf"
			},
			{
				"type": "occ",
				"energy": -0.2696,
				"method": "rhf"
			},
			{
				"type": "occ",
				"energy": -0.24105,
				"method": "rhf"
			},
			{
				"type": "occ",
				"energy": -0.20254,
				"method": "rhf"
			},
			{
				"type": "unocc",
				"energy": -0.03337,
				"method": "rhf"
			},
			{
				"type": "unocc",
				"energy": -0.02505,
				"method": "rhf"
			},
			{
				"type": "unocc",
				"energy": 0.03197,
				"method": "rhf"
			},
			{
				"type": "unocc",
				"energy": 0.06515,
				"method": "rhf"
			},
			{
				"type": "unocc",
				"energy": 0.08708,
				"method": "rhf"
			}
		],
		"cosmo_sigma_profile": { 
			"-0.025": 0.0,
			"-0.024": 0.0,
			"-0.023": 0.0,
			"-0.022": 0.0,
			"-0.021": 0.0,
			"-0.02": 0.0,
			"-0.019": 0.0,
			"-0.018": 0.0,
			"-0.017": 0.0,
			"-0.016": 0.0,
			"-0.015": 0.0,
			"-0.014": 0.0,
			"-0.013": 0.324011801775,
			"-0.012": 2.59548629104,
			"-0.011": 3.1595452628,
			"-0.01": 4.9313812695,
			"-0.009": 5.31070032246,
			"-0.008": 5.39999872502,
			"-0.007": 9.29494236326,
			"-0.006": 9.52410586098,
			"-0.005": 12.1095110937,
			"-0.004": 10.0969124424,
			"-0.003": 8.09513161279,
			"-0.002": 10.076062969,
			"-0.001": 11.4081778308,
			"0.0": 14.5002813618,
			"0.001": 21.5288480467,
			"0.002": 32.7845478466,
			"0.003": 42.1943337858,
			"0.004": 12.7301439785,
			"0.005": 5.45536719944,
			"0.006": 4.01887363193,
			"0.007": 3.15562658726,
			"0.008": 2.42371023707,
			"0.009": 1.6834079217,
			"0.01": 2.75157063401,
			"0.011": 1.65944976717,
			"0.012": 2.16418800377,
			"0.013": 1.28432923944,
			"0.014": 0.552980846267,
			"0.015": 0.820556302737,
			"0.016": 0.223357419326,
			"0.017": 0.0,
			"0.018": 0.0,
			"0.019": 0.0,
			"0.02": 0.0,
			"0.021": 0.0,
			"0.022": 0.0,
			"0.023": 0.0,
			"0.024": 0.0,
			"0.025": 0.0
		}
	}
}
