{
	 "smiles": "CC(C)CC1=CC=CC=C1", 
	 "Tm": 222.15, 
	 "num_atms": 24, 
	 "gaussian": { 
		 "optdone": 1, 
		 "sigma_profile": "yes", 
		 "theory": "DFT", 
		 "functional": "B3LYP", 
		 "basiset": "6-31G**", 
		 "properties": { 
			 "R2extent": 1876.3318, 
			 "electric_dipole_moment_norm": 0.262637487804, 
			 "electric_quadrupole_moment_norm": 4.61773657434, 
			 "total_energy": -389.519065621, 
			 "HOMO_LUMO_gap": 0.23921, 
			 "cosmo_polarized_energy": -2.99, 
			 "cosmo_cavitation_energy": 25.56, 
			 "cosmo_dispersion_energy": -18.25, 
			 "cosmo_repulsion_energy": 1.48, 
			 "cosmo_total_nonelectrostatic_energy": 8.79, 
			 "SMD_solvation_energy": 4.17 
		},
		"coords": [
			{
				"x": 2.4814527986,
				"y": 2.0141713064,
				"z": -0.2539456173,
				"element": "C" 
			},
			{
				"x": 1.4885410157,
				"y": 1.6866348608,
				"z": 0.8699575922,
				"element": "C" 
			},
			{
				"x": 0.3705147568,
				"y": 2.7359295592,
				"z": 0.9419135152,
				"element": "C" 
			},
			{
				"x": 0.9378606405,
				"y": 0.2347957789,
				"z": 0.7739703768,
				"element": "C" 
			},
			{
				"x": 0.1245672365,
				"y": -0.0884577256,
				"z": -0.4633908569,
				"element": "C" 
			},
			{
				"x": -1.2659009079,
				"y": 0.0980990049,
				"z": -0.4842145604,
				"element": "C" 
			},
			{
				"x": -2.0160684575,
				"y": -0.1885040148,
				"z": -1.6257537351,
				"element": "C" 
			},
			{
				"x": -1.3880468223,
				"y": -0.6743623542,
				"z": -2.773840046,
				"element": "C" 
			},
			{
				"x": -0.0066425625,
				"y": -0.8749749794,
				"z": -2.7672181642,
				"element": "C" 
			},
			{
				"x": 0.7382482454,
				"y": -0.5865446274,
				"z": -1.6226800833,
				"element": "C" 
			},
			{
				"x": 2.9107647549,
				"y": 3.012111771,
				"z": -0.1132135861,
				"element": "H" 
			},
			{
				"x": 3.3094434507,
				"y": 1.2964765428,
				"z": -0.2796876179,
				"element": "H" 
			},
			{
				"x": 1.9933810582,
				"y": 1.9970565845,
				"z": -1.2340965643,
				"element": "H" 
			},
			{
				"x": 2.0405290952,
				"y": 1.726559567,
				"z": 1.8201718324,
				"element": "H" 
			},
			{
				"x": 0.7881684866,
				"y": 3.7376915716,
				"z": 1.0903420785,
				"element": "H" 
			},
			{
				"x": -0.3154933941,
				"y": 2.5350769852,
				"z": 1.7727983186,
				"element": "H" 
			},
			{
				"x": -0.2184304601,
				"y": 2.7543301785,
				"z": 0.0188872502,
				"element": "H" 
			},
			{
				"x": 1.7892227598,
				"y": -0.4548782916,
				"z": 0.8320015131,
				"element": "H" 
			},
			{
				"x": 0.324573928,
				"y": 0.0456574245,
				"z": 1.6638772588,
				"element": "H" 
			},
			{
				"x": -1.7666742951,
				"y": 0.4645027968,
				"z": 0.4084647123,
				"element": "H" 
			},
			{
				"x": -3.0922219917,
				"y": -0.0382448738,
				"z": -1.6156219059,
				"element": "H" 
			},
			{
				"x": -1.9704231152,
				"y": -0.9020793677,
				"z": -3.6620904156,
				"element": "H" 
			},
			{
				"x": 0.4918124759,
				"y": -1.2626004359,
				"z": -3.6515681228,
				"element": "H" 
			},
			{
				"x": 1.8118213033,
				"y": -0.7578472618,
				"z": -1.6243631723,
				"element": "H" 
			}
		],
		 "valence_orbital": [ 
			{
				"type": "occ",
				"energy": -0.32495,
				"method": "rhf"
			},
			{
				"type": "occ",
				"energy": -0.32228,
				"method": "rhf"
			},
			{
				"type": "occ",
				"energy": -0.30986,
				"method": "rhf"
			},
			{
				"type": "occ",
				"energy": -0.24421,
				"method": "rhf"
			},
			{
				"type": "occ",
				"energy": -0.2358,
				"method": "rhf"
			},
			{
				"type": "unocc",
				"energy": 0.00341,
				"method": "rhf"
			},
			{
				"type": "unocc",
				"energy": 0.00348,
				"method": "rhf"
			},
			{
				"type": "unocc",
				"energy": 0.08198,
				"method": "rhf"
			},
			{
				"type": "unocc",
				"energy": 0.10635,
				"method": "rhf"
			},
			{
				"type": "unocc",
				"energy": 0.12505,
				"method": "rhf"
			}
		],
		"cosmo_sigma_profile": { 
			"-0.025": 0.0,
			"-0.024": 0.0,
			"-0.023": 0.0,
			"-0.022": 0.0,
			"-0.021": 0.0,
			"-0.02": 0.0,
			"-0.019": 0.0,
			"-0.018": 0.0,
			"-0.017": 0.0,
			"-0.016": 0.0,
			"-0.015": 0.0,
			"-0.014": 0.0,
			"-0.013": 0.0,
			"-0.012": 0.0,
			"-0.011": 0.0,
			"-0.01": 0.0,
			"-0.009": 0.0,
			"-0.008": 0.0,
			"-0.007": 0.0,
			"-0.006": 0.92635840227,
			"-0.005": 6.88484974908,
			"-0.004": 10.3622672856,
			"-0.003": 20.7626624131,
			"-0.002": 29.2321631937,
			"-0.001": 26.6882488378,
			"0.0": 25.7754800671,
			"0.001": 25.8644993264,
			"0.002": 18.1828746589,
			"0.003": 8.41677509592,
			"0.004": 7.39228135746,
			"0.005": 7.70002671964,
			"0.006": 7.2226445515,
			"0.007": 4.30850830323,
			"0.008": 0.0582023582985,
			"0.009": 0.0,
			"0.01": 0.0,
			"0.011": 0.0,
			"0.012": 0.0,
			"0.013": 0.0,
			"0.014": 0.0,
			"0.015": 0.0,
			"0.016": 0.0,
			"0.017": 0.0,
			"0.018": 0.0,
			"0.019": 0.0,
			"0.02": 0.0,
			"0.021": 0.0,
			"0.022": 0.0,
			"0.023": 0.0,
			"0.024": 0.0,
			"0.025": 0.0
		}
	}
}
