{
	 "smiles": "CC1=CC=CC(C)=C1OP(=O)(OC1=C(C)C=CC=C1C)OC1=C(C)C=CC=C1C", 
	 "Tm": 411.15, 
	 "num_atms": 56, 
	 "gaussian": { 
		 "optdone": 1, 
		 "sigma_profile": "yes", 
		 "theory": "DFT", 
		 "functional": "B3LYP", 
		 "basiset": "6-31G**", 
		 "properties": { 
			 "R2extent": 11270.6526, 
			 "electric_dipole_moment_norm": 1.73560893349, 
			 "electric_quadrupole_moment_norm": 12.0703154006, 
			 "total_energy": -1573.1855236, 
			 "HOMO_LUMO_gap": 0.22491, 
			 "cosmo_polarized_energy": -11.35, 
			 "cosmo_cavitation_energy": 56.98, 
			 "cosmo_dispersion_energy": -35.91, 
			 "cosmo_repulsion_energy": 2.63, 
			 "cosmo_total_nonelectrostatic_energy": 23.7, 
			 "SMD_solvation_energy": 10.61 
		},
		"coords": [
			{
				"x": -1.2985742224,
				"y": 4.2203545944,
				"z": -1.2368420797,
				"element": "C" 
			},
			{
				"x": -2.2023103345,
				"y": 3.6100634904,
				"z": -0.1946662577,
				"element": "C" 
			},
			{
				"x": -3.5199404159,
				"y": 4.0571876276,
				"z": -0.0279701025,
				"element": "C" 
			},
			{
				"x": -4.3427707373,
				"y": 3.5341900781,
				"z": 0.9671434109,
				"element": "C" 
			},
			{
				"x": -3.8510027358,
				"y": 2.5613423744,
				"z": 1.8358589227,
				"element": "C" 
			},
			{
				"x": -2.5429091188,
				"y": 2.0789534413,
				"z": 1.7107662221,
				"element": "C" 
			},
			{
				"x": -1.9843095451,
				"y": 1.061549043,
				"z": 2.6751328465,
				"element": "C" 
			},
			{
				"x": -1.7611023004,
				"y": 2.5965929864,
				"z": 0.6675578308,
				"element": "C" 
			},
			{
				"x": -0.4275055286,
				"y": 2.1580252264,
				"z": 0.5937058499,
				"element": "O" 
			},
			{
				"x": 0.190586673,
				"y": 1.1219348959,
				"z": -0.4760310601,
				"element": "P" 
			},
			{
				"x": -0.1696803215,
				"y": 1.2892211282,
				"z": -1.8997916063,
				"element": "O" 
			},
			{
				"x": -0.1680348492,
				"y": -0.3397186405,
				"z": 0.1385009778,
				"element": "O" 
			},
			{
				"x": -0.6095773761,
				"y": -1.4651656333,
				"z": -0.6029675786,
				"element": "C" 
			},
			{
				"x": 0.2135152506,
				"y": -2.6017087679,
				"z": -0.5616358972,
				"element": "C" 
			},
			{
				"x": 1.5228221231,
				"y": -2.6180659537,
				"z": 0.1842405453,
				"element": "C" 
			},
			{
				"x": -0.2258979951,
				"y": -3.7501690307,
				"z": -1.2310219002,
				"element": "C" 
			},
			{
				"x": -1.4432967326,
				"y": -3.7704996712,
				"z": -1.9046267271,
				"element": "C" 
			},
			{
				"x": -2.252514137,
				"y": -2.638760929,
				"z": -1.8916110256,
				"element": "C" 
			},
			{
				"x": -1.8661226221,
				"y": -1.4642063079,
				"z": -1.2315304679,
				"element": "C" 
			},
			{
				"x": -2.8035822776,
				"y": -0.2839796342,
				"z": -1.2120792416,
				"element": "C" 
			},
			{
				"x": 1.7142948477,
				"y": 1.4355587796,
				"z": -0.0646486232,
				"element": "O" 
			},
			{
				"x": 2.8599812479,
				"y": 0.6328404966,
				"z": -0.1090445459,
				"element": "C" 
			},
			{
				"x": 3.3725359846,
				"y": 0.217239241,
				"z": 1.1280489468,
				"element": "C" 
			},
			{
				"x": 2.6535652791,
				"y": 0.5522707446,
				"z": 2.4101525558,
				"element": "C" 
			},
			{
				"x": 4.5645742925,
				"y": -0.5145469954,
				"z": 1.1203672013,
				"element": "C" 
			},
			{
				"x": 5.2174953252,
				"y": -0.8058851507,
				"z": -0.0768503928,
				"element": "C" 
			},
			{
				"x": 4.6926313485,
				"y": -0.3502856701,
				"z": -1.2847204315,
				"element": "C" 
			},
			{
				"x": 3.5049714661,
				"y": 0.3938758468,
				"z": -1.3302628287,
				"element": "C" 
			},
			{
				"x": 2.9714650538,
				"y": 0.9337553555,
				"z": -2.633853336,
				"element": "C" 
			},
			{
				"x": -1.062934393,
				"y": 3.5075504453,
				"z": -2.0316882142,
				"element": "H" 
			},
			{
				"x": -1.7705228194,
				"y": 5.1007115117,
				"z": -1.6804325447,
				"element": "H" 
			},
			{
				"x": -0.3455338227,
				"y": 4.5294429273,
				"z": -0.7939733125,
				"element": "H" 
			},
			{
				"x": -3.8925827289,
				"y": 4.8369048141,
				"z": -0.6866606323,
				"element": "H" 
			},
			{
				"x": -5.360197935,
				"y": 3.8976648181,
				"z": 1.0777081172,
				"element": "H" 
			},
			{
				"x": -4.4805188906,
				"y": 2.1712261643,
				"z": 2.6309932539,
				"element": "H" 
			},
			{
				"x": -2.724074315,
				"y": 0.8120008357,
				"z": 3.4399228118,
				"element": "H" 
			},
			{
				"x": -1.6868215357,
				"y": 0.1389524843,
				"z": 2.168333163,
				"element": "H" 
			},
			{
				"x": -1.0899871551,
				"y": 1.4476697373,
				"z": 3.176298634,
				"element": "H" 
			},
			{
				"x": 2.3030392309,
				"y": -2.0655440414,
				"z": -0.3474471858,
				"element": "H" 
			},
			{
				"x": 1.4270440082,
				"y": -2.1645942399,
				"z": 1.1740864512,
				"element": "H" 
			},
			{
				"x": 1.8713871868,
				"y": -3.6464176602,
				"z": 0.3108352209,
				"element": "H" 
			},
			{
				"x": 0.4016024577,
				"y": -4.6370257003,
				"z": -1.2100691749,
				"element": "H" 
			},
			{
				"x": -1.7690726201,
				"y": -4.6691832321,
				"z": -2.4200696865,
				"element": "H" 
			},
			{
				"x": -3.2172194562,
				"y": -2.6558835733,
				"z": -2.3911900495,
				"element": "H" 
			},
			{
				"x": -3.797127277,
				"y": -0.5895741914,
				"z": -1.5496915048,
				"element": "H" 
			},
			{
				"x": -2.9092804006,
				"y": 0.1368476304,
				"z": -0.2085614755,
				"element": "H" 
			},
			{
				"x": -2.4467966949,
				"y": 0.5159942057,
				"z": -1.8660398683,
				"element": "H" 
			},
			{
				"x": 3.2274569894,
				"y": 0.211216237,
				"z": 3.2754643333,
				"element": "H" 
			},
			{
				"x": 1.6649239975,
				"y": 0.0816405745,
				"z": 2.448593017,
				"element": "H" 
			},
			{
				"x": 2.4915559977,
				"y": 1.6309055033,
				"z": 2.5030998503,
				"element": "H" 
			},
			{
				"x": 4.9806245949,
				"y": -0.8531017755,
				"z": 2.0653382485,
				"element": "H" 
			},
			{
				"x": 6.1416713981,
				"y": -1.3761974748,
				"z": -0.0674090878,
				"element": "H" 
			},
			{
				"x": 5.2132386595,
				"y": -0.5574467437,
				"z": -2.215688247,
				"element": "H" 
			},
			{
				"x": 2.8066904568,
				"y": 2.0143372932,
				"z": -2.5717206744,
				"element": "H" 
			},
			{
				"x": 3.6801664508,
				"y": 0.7388749745,
				"z": -3.4425783555,
				"element": "H" 
			},
			{
				"x": 2.0071609734,
				"y": 0.4944655104,
				"z": -2.9033742945,
				"element": "H" 
			}
		],
		 "valence_orbital": [ 
			{
				"type": "occ",
				"energy": -0.24209,
				"method": "rhf"
			},
			{
				"type": "occ",
				"energy": -0.23987,
				"method": "rhf"
			},
			{
				"type": "occ",
				"energy": -0.2356,
				"method": "rhf"
			},
			{
				"type": "occ",
				"energy": -0.23522,
				"method": "rhf"
			},
			{
				"type": "occ",
				"energy": -0.23328,
				"method": "rhf"
			},
			{
				"type": "unocc",
				"energy": -0.00837,
				"method": "rhf"
			},
			{
				"type": "unocc",
				"energy": -0.00147,
				"method": "rhf"
			},
			{
				"type": "unocc",
				"energy": -0.00083,
				"method": "rhf"
			},
			{
				"type": "unocc",
				"energy": 0.00067,
				"method": "rhf"
			},
			{
				"type": "unocc",
				"energy": 0.0039,
				"method": "rhf"
			}
		],
		"cosmo_sigma_profile": { 
			"-0.025": 0.0,
			"-0.024": 0.0,
			"-0.023": 0.0,
			"-0.022": 0.0,
			"-0.021": 0.0,
			"-0.02": 0.0,
			"-0.019": 0.0,
			"-0.018": 0.0,
			"-0.017": 0.0,
			"-0.016": 0.0,
			"-0.015": 0.0,
			"-0.014": 0.0,
			"-0.013": 0.0,
			"-0.012": 0.0,
			"-0.011": 0.0,
			"-0.01": 0.0,
			"-0.009": 0.0,
			"-0.008": 0.159346179949,
			"-0.007": 0.745311043436,
			"-0.006": 10.3533095063,
			"-0.005": 30.3378385309,
			"-0.004": 36.2043979263,
			"-0.003": 37.4305951435,
			"-0.002": 41.9535504451,
			"-0.001": 47.7280265592,
			"0.0": 61.0957187456,
			"0.001": 43.3555708324,
			"0.002": 36.5403387536,
			"0.003": 31.043142628,
			"0.004": 25.9856726508,
			"0.005": 22.1934210484,
			"0.006": 7.74753039974,
			"0.007": 4.60526164261,
			"0.008": 3.58676847706,
			"0.009": 2.0402427699,
			"0.01": 1.70105367802,
			"0.011": 1.58418421843,
			"0.012": 1.62494383101,
			"0.013": 0.623717079745,
			"0.014": 0.0,
			"0.015": 0.0,
			"0.016": 0.0,
			"0.017": 0.0,
			"0.018": 0.0,
			"0.019": 0.0,
			"0.02": 0.0,
			"0.021": 0.0,
			"0.022": 0.0,
			"0.023": 0.0,
			"0.024": 0.0,
			"0.025": 0.0
		}
	}
}
