{
	 "smiles": "CCCC(=O)OC1=CNC2=C1C(Cl)=C(Br)C=C2", 
	 "Tm": 365.15, 
	 "num_atms": 28, 
	 "gaussian": { 
		 "optdone": 1, 
		 "sigma_profile": "yes", 
		 "theory": "DFT", 
		 "functional": "B3LYP", 
		 "basiset": "6-31G**", 
		 "properties": { 
			 "R2extent": 8553.7076, 
			 "electric_dipole_moment_norm": 3.00779671687, 
			 "electric_quadrupole_moment_norm": 24.7736258905, 
			 "total_energy": -3700.71316898, 
			 "HOMO_LUMO_gap": 0.17831, 
			 "cosmo_polarized_energy": -12.5, 
			 "cosmo_cavitation_energy": 36.32, 
			 "cosmo_dispersion_energy": -26.31, 
			 "cosmo_repulsion_energy": 2.05, 
			 "cosmo_total_nonelectrostatic_energy": 12.06, 
			 "SMD_solvation_energy": 5.67 
		},
		"coords": [
			{
				"x": -1.0509291581,
				"y": -2.3065780494,
				"z": 4.0652257783,
				"element": "C" 
			},
			{
				"x": -1.0374263932,
				"y": -1.3473907715,
				"z": 2.8718934423,
				"element": "C" 
			},
			{
				"x": -1.9729819539,
				"y": -1.8171180998,
				"z": 1.7392292674,
				"element": "C" 
			},
			{
				"x": -1.9936687256,
				"y": -0.8683796566,
				"z": 0.5628824354,
				"element": "C" 
			},
			{
				"x": -2.9334628615,
				"y": -0.1916635283,
				"z": 0.2100188625,
				"element": "O" 
			},
			{
				"x": -0.7774670699,
				"y": -0.8638790686,
				"z": -0.0558218046,
				"element": "O" 
			},
			{
				"x": -0.5195300773,
				"y": -0.06208619,
				"z": -1.1455131711,
				"element": "C" 
			},
			{
				"x": -1.3393588337,
				"y": 0.8186305563,
				"z": -1.8115317478,
				"element": "C" 
			},
			{
				"x": -0.615066895,
				"y": 1.3845359915,
				"z": -2.8440032396,
				"element": "N" 
			},
			{
				"x": 0.6631502777,
				"y": 0.8810860675,
				"z": -2.856375782,
				"element": "C" 
			},
			{
				"x": 0.7692658642,
				"y": -0.0501395,
				"z": -1.784334517,
				"element": "C" 
			},
			{
				"x": 2.0002388001,
				"y": -0.70963134,
				"z": -1.5836003539,
				"element": "C" 
			},
			{
				"x": 2.1709493723,
				"y": -1.8585552465,
				"z": -0.2801620578,
				"element": "Cl" 
			},
			{
				"x": 3.0624496767,
				"y": -0.4262703924,
				"z": -2.4395520606,
				"element": "C" 
			},
			{
				"x": 4.7586519747,
				"y": -1.2729278688,
				"z": -2.2376472783,
				"element": "Br" 
			},
			{
				"x": 2.926274137,
				"y": 0.5010371981,
				"z": -3.49309526,
				"element": "C" 
			},
			{
				"x": 1.7307072915,
				"y": 1.1632382443,
				"z": -3.7135909456,
				"element": "C" 
			},
			{
				"x": -0.3830303902,
				"y": -1.9551433018,
				"z": 4.8578263246,
				"element": "H" 
			},
			{
				"x": -2.0558553435,
				"y": -2.3986990127,
				"z": 4.4921672612,
				"element": "H" 
			},
			{
				"x": -0.7207826228,
				"y": -3.3093112965,
				"z": 3.7715791797,
				"element": "H" 
			},
			{
				"x": -1.3443708944,
				"y": -0.3459735647,
				"z": 3.1981973736,
				"element": "H" 
			},
			{
				"x": -0.0206211683,
				"y": -1.2530551615,
				"z": 2.4767858295,
				"element": "H" 
			},
			{
				"x": -3.0019968734,
				"y": -1.9029848793,
				"z": 2.0978317041,
				"element": "H" 
			},
			{
				"x": -1.6477029574,
				"y": -2.802890901,
				"z": 1.3859017166,
				"element": "H" 
			},
			{
				"x": -2.3662688983,
				"y": 1.075435464,
				"z": -1.6245451567,
				"element": "H" 
			},
			{
				"x": -0.9784243376,
				"y": 2.0635679771,
				"z": -3.4922446117,
				"element": "H" 
			},
			{
				"x": 3.7806842785,
				"y": 0.6879747909,
				"z": -4.1322652499,
				"element": "H" 
			},
			{
				"x": 1.6315737815,
				"y": 1.8762715396,
				"z": -4.5260559386,
				"element": "H" 
			}
		],
		 "valence_orbital": [ 
			{
				"type": "occ",
				"energy": -0.27824,
				"method": "rhf"
			},
			{
				"type": "occ",
				"energy": -0.27517,
				"method": "rhf"
			},
			{
				"type": "occ",
				"energy": -0.27133,
				"method": "rhf"
			},
			{
				"type": "occ",
				"energy": -0.2304,
				"method": "rhf"
			},
			{
				"type": "occ",
				"energy": -0.20951,
				"method": "rhf"
			},
			{
				"type": "unocc",
				"energy": -0.0312,
				"method": "rhf"
			},
			{
				"type": "unocc",
				"energy": -0.0038,
				"method": "rhf"
			},
			{
				"type": "unocc",
				"energy": -0.00245,
				"method": "rhf"
			},
			{
				"type": "unocc",
				"energy": 0.00478,
				"method": "rhf"
			},
			{
				"type": "unocc",
				"energy": 0.05356,
				"method": "rhf"
			}
		],
		"cosmo_sigma_profile": { 
			"-0.025": 0.0,
			"-0.024": 0.0,
			"-0.023": 0.0,
			"-0.022": 0.0,
			"-0.021": 0.0,
			"-0.02": 0.0,
			"-0.019": 0.0,
			"-0.018": 0.0,
			"-0.017": 0.374333553696,
			"-0.016": 1.75208688848,
			"-0.015": 1.62015357627,
			"-0.014": 1.10354829701,
			"-0.013": 1.36505774971,
			"-0.012": 1.21158738695,
			"-0.011": 1.67789200587,
			"-0.01": 1.06694998927,
			"-0.009": 1.96395857187,
			"-0.008": 3.39669503703,
			"-0.007": 5.54422138593,
			"-0.006": 5.77484684587,
			"-0.005": 9.44382196033,
			"-0.004": 14.8053080726,
			"-0.003": 21.8171283417,
			"-0.002": 23.414071842,
			"-0.001": 24.3442888485,
			"0.0": 23.3594874683,
			"0.001": 28.4400036497,
			"0.002": 39.3334929261,
			"0.003": 29.6791225469,
			"0.004": 22.094091868,
			"0.005": 14.7462793253,
			"0.006": 4.86340837174,
			"0.007": 1.58110800254,
			"0.008": 1.43637718995,
			"0.009": 2.16999893656,
			"0.01": 2.11621685446,
			"0.011": 2.28704716467,
			"0.012": 1.68058844657,
			"0.013": 0.18094690118,
			"0.014": 0.0,
			"0.015": 0.0,
			"0.016": 0.0,
			"0.017": 0.0,
			"0.018": 0.0,
			"0.019": 0.0,
			"0.02": 0.0,
			"0.021": 0.0,
			"0.022": 0.0,
			"0.023": 0.0,
			"0.024": 0.0,
			"0.025": 0.0
		}
	}
}
