{
	 "smiles": "COC1=CC(OC)=NC(NC(=O)NS(=O)(=O)NC2=C(C=CC=C2)C(=O)N(C)C)=N1", 
	 "Tm": 430.15, 
	 "num_atms": 49, 
	 "gaussian": { 
		 "optdone": 1, 
		 "sigma_profile": "yes", 
		 "theory": "DFT", 
		 "functional": "B3LYP", 
		 "basiset": "6-31G**", 
		 "properties": { 
			 "R2extent": 12596.6777, 
			 "electric_dipole_moment_norm": 8.93258359099, 
			 "electric_quadrupole_moment_norm": 34.7441686335, 
			 "total_energy": -1799.75416825, 
			 "HOMO_LUMO_gap": 0.18596, 
			 "cosmo_polarized_energy": -31.34, 
			 "cosmo_cavitation_energy": 54.24, 
			 "cosmo_dispersion_energy": -35.27, 
			 "cosmo_repulsion_energy": 2.59, 
			 "cosmo_total_nonelectrostatic_energy": 21.57, 
			 "SMD_solvation_energy": 9.86 
		},
		"coords": [
			{
				"x": -4.2584002626,
				"y": -0.3368081963,
				"z": 5.3002589612,
				"element": "C" 
			},
			{
				"x": -3.1243277658,
				"y": 0.5284612577,
				"z": 5.1567841539,
				"element": "O" 
			},
			{
				"x": -2.588868781,
				"y": 0.6548402932,
				"z": 3.9327753839,
				"element": "C" 
			},
			{
				"x": -1.4883199989,
				"y": 1.5073839113,
				"z": 3.7975989497,
				"element": "C" 
			},
			{
				"x": -0.9838375119,
				"y": 1.6168840352,
				"z": 2.5039712927,
				"element": "C" 
			},
			{
				"x": 0.053622928,
				"y": 2.4492040252,
				"z": 2.2999582634,
				"element": "O" 
			},
			{
				"x": 0.4245682603,
				"y": 2.718785393,
				"z": 0.938745404,
				"element": "C" 
			},
			{
				"x": -1.4879330568,
				"y": 0.9478260559,
				"z": 1.4613713853,
				"element": "N" 
			},
			{
				"x": -2.5290893587,
				"y": 0.1568985844,
				"z": 1.7257198149,
				"element": "C" 
			},
			{
				"x": -3.1017071237,
				"y": -0.564040994,
				"z": 0.6899814693,
				"element": "N" 
			},
			{
				"x": -2.7456269328,
				"y": -0.7628697863,
				"z": -0.6493526191,
				"element": "C" 
			},
			{
				"x": -3.5081356239,
				"y": -1.339382855,
				"z": -1.4015628989,
				"element": "O" 
			},
			{
				"x": -1.5016061967,
				"y": -0.271486759,
				"z": -1.0254463061,
				"element": "N" 
			},
			{
				"x": -0.8709549213,
				"y": -0.759477758,
				"z": -2.525847731,
				"element": "S" 
			},
			{
				"x": -1.6145438081,
				"y": -0.0806155261,
				"z": -3.5806085146,
				"element": "O" 
			},
			{
				"x": -0.6232218522,
				"y": -2.1925915072,
				"z": -2.5623617102,
				"element": "O" 
			},
			{
				"x": 0.6424247682,
				"y": 0.0704789051,
				"z": -2.3983000432,
				"element": "N" 
			},
			{
				"x": 1.8314212801,
				"y": -0.7250699817,
				"z": -2.5438015554,
				"element": "C" 
			},
			{
				"x": 2.5749601614,
				"y": -1.1140784745,
				"z": -1.4128817441,
				"element": "C" 
			},
			{
				"x": 3.7219133164,
				"y": -1.9007147661,
				"z": -1.5968024113,
				"element": "C" 
			},
			{
				"x": 4.1487356951,
				"y": -2.2697953573,
				"z": -2.8703840359,
				"element": "C" 
			},
			{
				"x": 3.4329831366,
				"y": -1.8422453966,
				"z": -3.9890023116,
				"element": "C" 
			},
			{
				"x": 2.2798009341,
				"y": -1.0792321727,
				"z": -3.8212737717,
				"element": "C" 
			},
			{
				"x": 2.11195696,
				"y": -0.7785010093,
				"z": -0.0205801458,
				"element": "C" 
			},
			{
				"x": 0.9479105594,
				"y": -0.9971290123,
				"z": 0.3263853478,
				"element": "O" 
			},
			{
				"x": 3.0392521294,
				"y": -0.2966960283,
				"z": 0.8683741124,
				"element": "N" 
			},
			{
				"x": 2.6400274807,
				"y": -0.1576570194,
				"z": 2.2668220623,
				"element": "C" 
			},
			{
				"x": 4.2898064402,
				"y": 0.3612004983,
				"z": 0.5100020111,
				"element": "C" 
			},
			{
				"x": -3.1235478577,
				"y": -0.023319396,
				"z": 2.9142326717,
				"element": "N" 
			},
			{
				"x": -4.0084699536,
				"y": -1.3620196492,
				"z": 5.015092251,
				"element": "H" 
			},
			{
				"x": -5.094210291,
				"y": 0.0061056355,
				"z": 4.6847527217,
				"element": "H" 
			},
			{
				"x": -4.5214313242,
				"y": -0.2896150891,
				"z": 6.3573856694,
				"element": "H" 
			},
			{
				"x": -1.0787980183,
				"y": 2.0600430105,
				"z": 4.6311453672,
				"element": "H" 
			},
			{
				"x": -0.4144358395,
				"y": 3.1525450276,
				"z": 0.3878596046,
				"element": "H" 
			},
			{
				"x": 1.2425209293,
				"y": 3.4375193344,
				"z": 1.0053486968,
				"element": "H" 
			},
			{
				"x": 0.7490806638,
				"y": 1.8108697338,
				"z": 0.427634061,
				"element": "H" 
			},
			{
				"x": -3.9574065578,
				"y": -1.0453019382,
				"z": 0.9325609893,
				"element": "H" 
			},
			{
				"x": -0.7876232699,
				"y": -0.1275288999,
				"z": -0.3080042302,
				"element": "H" 
			},
			{
				"x": 0.5849674418,
				"y": 0.7991408138,
				"z": -3.10660438,
				"element": "H" 
			},
			{
				"x": 4.2777828011,
				"y": -2.2311876256,
				"z": -0.7247662808,
				"element": "H" 
			},
			{
				"x": 5.0341755377,
				"y": -2.8869534027,
				"z": -2.987688294,
				"element": "H" 
			},
			{
				"x": 3.75807199,
				"y": -2.1166718403,
				"z": -4.9878242743,
				"element": "H" 
			},
			{
				"x": 1.7011050486,
				"y": -0.766981921,
				"z": -4.6859610201,
				"element": "H" 
			},
			{
				"x": 2.2853898241,
				"y": 0.8564577185,
				"z": 2.489624573,
				"element": "H" 
			},
			{
				"x": 1.8334187442,
				"y": -0.8576661211,
				"z": 2.4776625461,
				"element": "H" 
			},
			{
				"x": 3.5009864347,
				"y": -0.3776433826,
				"z": 2.9061513029,
				"element": "H" 
			},
			{
				"x": 4.4252452057,
				"y": 0.3751935943,
				"z": -0.569400533,
				"element": "H" 
			},
			{
				"x": 4.2796493454,
				"y": 1.3976309477,
				"z": 0.8713528429,
				"element": "H" 
			},
			{
				"x": 5.1481182902,
				"y": -0.1469869093,
				"z": 0.9666029018,
				"element": "H" 
			}
		],
		 "valence_orbital": [ 
			{
				"type": "occ",
				"energy": -0.26749,
				"method": "rhf"
			},
			{
				"type": "occ",
				"energy": -0.26136,
				"method": "rhf"
			},
			{
				"type": "occ",
				"energy": -0.25409,
				"method": "rhf"
			},
			{
				"type": "occ",
				"energy": -0.25108,
				"method": "rhf"
			},
			{
				"type": "occ",
				"energy": -0.23165,
				"method": "rhf"
			},
			{
				"type": "unocc",
				"energy": -0.04569,
				"method": "rhf"
			},
			{
				"type": "unocc",
				"energy": -0.03,
				"method": "rhf"
			},
			{
				"type": "unocc",
				"energy": -0.01984,
				"method": "rhf"
			},
			{
				"type": "unocc",
				"energy": -0.00922,
				"method": "rhf"
			},
			{
				"type": "unocc",
				"energy": 0.02581,
				"method": "rhf"
			}
		],
		"cosmo_sigma_profile": { 
			"-0.025": 0.0,
			"-0.024": 0.0,
			"-0.023": 0.0,
			"-0.022": 0.0,
			"-0.021": 0.0,
			"-0.02": 0.0,
			"-0.019": 0.0,
			"-0.018": 0.0,
			"-0.017": 0.0,
			"-0.016": 0.0952613274849,
			"-0.015": 1.38929476914,
			"-0.014": 1.56909687342,
			"-0.013": 1.78805710588,
			"-0.012": 2.19226769593,
			"-0.011": 1.85023966867,
			"-0.01": 1.90963707907,
			"-0.009": 2.06866417979,
			"-0.008": 3.32493066637,
			"-0.007": 9.77808354203,
			"-0.006": 19.2344131037,
			"-0.005": 33.2545014033,
			"-0.004": 36.4977364959,
			"-0.003": 45.9692719206,
			"-0.002": 42.6616663171,
			"-0.001": 29.4192543682,
			"0.0": 27.8790860747,
			"0.001": 25.7941096634,
			"0.002": 23.7634725771,
			"0.003": 18.1923428892,
			"0.004": 13.4837676879,
			"0.005": 10.9263405995,
			"0.006": 10.3755761778,
			"0.007": 11.7155841483,
			"0.008": 10.7805523557,
			"0.009": 16.0947302283,
			"0.01": 15.3264312072,
			"0.011": 8.95093765941,
			"0.012": 5.68328151866,
			"0.013": 0.147223789253,
			"0.014": 0.0,
			"0.015": 0.0,
			"0.016": 0.0,
			"0.017": 0.0,
			"0.018": 0.0,
			"0.019": 0.0,
			"0.02": 0.0,
			"0.021": 0.0,
			"0.022": 0.0,
			"0.023": 0.0,
			"0.024": 0.0,
			"0.025": 0.0
		}
	}
}
