{
	 "smiles": "NC1(CC2=C(C1)C=CC=C2)C(O)=O", 
	 "Tm": 528.15, 
	 "num_atms": 24, 
	 "gaussian": { 
		 "optdone": 1, 
		 "sigma_profile": "yes", 
		 "theory": "DFT", 
		 "functional": "B3LYP", 
		 "basiset": "6-31G**", 
		 "properties": { 
			 "R2extent": 3376.8778, 
			 "electric_dipole_moment_norm": 1.55137552836, 
			 "electric_quadrupole_moment_norm": 9.72249829056, 
			 "total_energy": -592.907506964, 
			 "HOMO_LUMO_gap": 0.2293, 
			 "cosmo_polarized_energy": -12.98, 
			 "cosmo_cavitation_energy": 26.84, 
			 "cosmo_dispersion_energy": -19.55, 
			 "cosmo_repulsion_energy": 1.56, 
			 "cosmo_total_nonelectrostatic_energy": 8.84, 
			 "SMD_solvation_energy": 4.46 
		},
		"coords": [
			{
				"x": 0.2751900103,
				"y": -1.7284410663,
				"z": -2.8727061864,
				"element": "N" 
			},
			{
				"x": -0.7309612936,
				"y": -1.1547366939,
				"z": -1.9874936167,
				"element": "C" 
			},
			{
				"x": -1.3880377589,
				"y": 0.2056514841,
				"z": -2.4552571095,
				"element": "C" 
			},
			{
				"x": -1.6188721037,
				"y": 0.9744280417,
				"z": -1.1766534842,
				"element": "C" 
			},
			{
				"x": -0.9016301237,
				"y": 0.3979561043,
				"z": -0.1193536901,
				"element": "C" 
			},
			{
				"x": -0.1315052142,
				"y": -0.8125253985,
				"z": -0.5899205094,
				"element": "C" 
			},
			{
				"x": -0.9488708161,
				"y": 0.9628013082,
				"z": 1.1534412767,
				"element": "C" 
			},
			{
				"x": -1.7220161168,
				"y": 2.1092283056,
				"z": 1.3623982189,
				"element": "C" 
			},
			{
				"x": -2.438294906,
				"y": 2.6827618936,
				"z": 0.3077753569,
				"element": "C" 
			},
			{
				"x": -2.389378013,
				"y": 2.1171061685,
				"z": -0.9702522175,
				"element": "C" 
			},
			{
				"x": -1.8603946862,
				"y": -2.1877445554,
				"z": -1.9152859999,
				"element": "C" 
			},
			{
				"x": -2.544407491,
				"y": -2.1628647326,
				"z": -0.7530943526,
				"element": "O" 
			},
			{
				"x": -2.1597989135,
				"y": -2.9264912495,
				"z": -2.8302957098,
				"element": "O" 
			},
			{
				"x": -0.1836111396,
				"y": -2.1542399497,
				"z": -3.6740049584,
				"element": "H" 
			},
			{
				"x": 0.8990220288,
				"y": -1.0010046195,
				"z": -3.2105072849,
				"element": "H" 
			},
			{
				"x": -0.6680330797,
				"y": 0.7256586071,
				"z": -3.1034905481,
				"element": "H" 
			},
			{
				"x": -2.2921832237,
				"y": 0.0548100446,
				"z": -3.0557848763,
				"element": "H" 
			},
			{
				"x": -0.1802351146,
				"y": -1.6598171928,
				"z": 0.0991050562,
				"element": "H" 
			},
			{
				"x": 0.9324516911,
				"y": -0.5757715682,
				"z": -0.7247518582,
				"element": "H" 
			},
			{
				"x": -0.3987681707,
				"y": 0.5162908188,
				"z": 1.9778942485,
				"element": "H" 
			},
			{
				"x": -1.7710083632,
				"y": 2.5537467388,
				"z": 2.3525207717,
				"element": "H" 
			},
			{
				"x": -3.0403525452,
				"y": 3.5699588951,
				"z": 0.4828761675,
				"element": "H" 
			},
			{
				"x": -2.9502580185,
				"y": 2.5628868863,
				"z": -1.7879874758,
				"element": "H" 
			},
			{
				"x": -3.2608466384,
				"y": -2.8134482702,
				"z": -0.8476712186,
				"element": "H" 
			}
		],
		 "valence_orbital": [ 
			{
				"type": "occ",
				"energy": -0.32002,
				"method": "rhf"
			},
			{
				"type": "occ",
				"energy": -0.27865,
				"method": "rhf"
			},
			{
				"type": "occ",
				"energy": -0.24449,
				"method": "rhf"
			},
			{
				"type": "occ",
				"energy": -0.23662,
				"method": "rhf"
			},
			{
				"type": "occ",
				"energy": -0.23273,
				"method": "rhf"
			},
			{
				"type": "unocc",
				"energy": -0.00343,
				"method": "rhf"
			},
			{
				"type": "unocc",
				"energy": 6e-05,
				"method": "rhf"
			},
			{
				"type": "unocc",
				"energy": 0.01302,
				"method": "rhf"
			},
			{
				"type": "unocc",
				"energy": 0.07214,
				"method": "rhf"
			},
			{
				"type": "unocc",
				"energy": 0.08777,
				"method": "rhf"
			}
		],
		"cosmo_sigma_profile": { 
			"-0.025": 0.0,
			"-0.024": 0.0,
			"-0.023": 0.0,
			"-0.022": 0.0,
			"-0.021": 0.0,
			"-0.02": 0.0,
			"-0.019": 0.160177632094,
			"-0.018": 0.78912769991,
			"-0.017": 0.885552109879,
			"-0.016": 1.42662644298,
			"-0.015": 0.594954278662,
			"-0.014": 0.194376508213,
			"-0.013": 0.259707592486,
			"-0.012": 1.14727786689,
			"-0.011": 1.20298028246,
			"-0.01": 2.0696030781,
			"-0.009": 2.86305663791,
			"-0.008": 3.13146464308,
			"-0.007": 4.19409981019,
			"-0.006": 5.61919185559,
			"-0.005": 14.9896056825,
			"-0.004": 19.116548975,
			"-0.003": 21.4987867279,
			"-0.002": 18.3668972639,
			"-0.001": 14.8735952424,
			"0.0": 10.9245072644,
			"0.001": 8.88825814672,
			"0.002": 9.10587081943,
			"0.003": 9.01827596396,
			"0.004": 9.63280049463,
			"0.005": 10.1638868889,
			"0.006": 10.2264625597,
			"0.007": 7.21791629374,
			"0.008": 4.62200372657,
			"0.009": 4.34885115486,
			"0.01": 2.49044084638,
			"0.011": 5.54334003254,
			"0.012": 2.55082135165,
			"0.013": 0.704998798233,
			"0.014": 0.608162743513,
			"0.015": 0.420379617846,
			"0.016": 0.248165833695,
			"0.017": 0.856427308174,
			"0.018": 0.496655841928,
			"0.019": 0.019156703968,
			"0.02": 0.0,
			"0.021": 0.0,
			"0.022": 0.0,
			"0.023": 0.0,
			"0.024": 0.0,
			"0.025": 0.0
		}
	}
}
