{
	 "smiles": "NC1=CC=CC=C1S", 
	 "Tm": 299.15, 
	 "num_atms": 15, 
	 "gaussian": { 
		 "optdone": 1, 
		 "sigma_profile": "yes", 
		 "theory": "DFT", 
		 "functional": "B3LYP", 
		 "basiset": "6-31G**", 
		 "properties": { 
			 "R2extent": 1327.1089, 
			 "electric_dipole_moment_norm": 1.76251278861, 
			 "electric_quadrupole_moment_norm": 6.83515232237, 
			 "total_energy": -685.797585993, 
			 "HOMO_LUMO_gap": 0.19853, 
			 "cosmo_polarized_energy": -7.59, 
			 "cosmo_cavitation_energy": 19.96, 
			 "cosmo_dispersion_energy": -15.64, 
			 "cosmo_repulsion_energy": 1.25, 
			 "cosmo_total_nonelectrostatic_energy": 5.57, 
			 "SMD_solvation_energy": 3.0 
		},
		"coords": [
			{
				"x": 2.0255664608,
				"y": 0.1070061152,
				"z": -1.6980534816,
				"element": "N" 
			},
			{
				"x": 1.0665395967,
				"y": 0.0160416174,
				"z": -0.6970100708,
				"element": "C" 
			},
			{
				"x": 0.5001604465,
				"y": -1.2254454149,
				"z": -0.3525496688,
				"element": "C" 
			},
			{
				"x": -0.4281408634,
				"y": -1.3282700099,
				"z": 0.6778827666,
				"element": "C" 
			},
			{
				"x": -0.819099698,
				"y": -0.1974655645,
				"z": 1.3991108152,
				"element": "C" 
			},
			{
				"x": -0.256574266,
				"y": 1.0369838597,
				"z": 1.0787880259,
				"element": "C" 
			},
			{
				"x": 0.6782193469,
				"y": 1.1558076072,
				"z": 0.0458465884,
				"element": "C" 
			},
			{
				"x": 1.3062022608,
				"y": 2.7849672768,
				"z": -0.3831963241,
				"element": "S" 
			},
			{
				"x": 2.0923093334,
				"y": 1.021921039,
				"z": -2.1286821751,
				"element": "H" 
			},
			{
				"x": 2.0137592964,
				"y": -0.6465924681,
				"z": -2.3713221325,
				"element": "H" 
			},
			{
				"x": 0.7971341835,
				"y": -2.1110134398,
				"z": -0.9093970247,
				"element": "H" 
			},
			{
				"x": -0.8514524604,
				"y": -2.3001327646,
				"z": 0.9160632283,
				"element": "H" 
			},
			{
				"x": -1.5438361234,
				"y": -0.2756954138,
				"z": 2.203026435,
				"element": "H" 
			},
			{
				"x": -0.5364675294,
				"y": 1.9285247637,
				"z": 1.6312386646,
				"element": "H" 
			},
			{
				"x": 2.6041800156,
				"y": 2.5766627966,
				"z": -0.0652456463,
				"element": "H" 
			}
		],
		 "valence_orbital": [ 
			{
				"type": "occ",
				"energy": -0.33033,
				"method": "rhf"
			},
			{
				"type": "occ",
				"energy": -0.31169,
				"method": "rhf"
			},
			{
				"type": "occ",
				"energy": -0.26492,
				"method": "rhf"
			},
			{
				"type": "occ",
				"energy": -0.23788,
				"method": "rhf"
			},
			{
				"type": "occ",
				"energy": -0.20543,
				"method": "rhf"
			},
			{
				"type": "unocc",
				"energy": -0.0069,
				"method": "rhf"
			},
			{
				"type": "unocc",
				"energy": 0.01069,
				"method": "rhf"
			},
			{
				"type": "unocc",
				"energy": 0.04031,
				"method": "rhf"
			},
			{
				"type": "unocc",
				"energy": 0.06851,
				"method": "rhf"
			},
			{
				"type": "unocc",
				"energy": 0.08815,
				"method": "rhf"
			}
		],
		"cosmo_sigma_profile": { 
			"-0.025": 0.0,
			"-0.024": 0.0,
			"-0.023": 0.0,
			"-0.022": 0.0,
			"-0.021": 0.0,
			"-0.02": 0.0,
			"-0.019": 0.0,
			"-0.018": 0.0,
			"-0.017": 0.0,
			"-0.016": 0.0,
			"-0.015": 0.0,
			"-0.014": 0.0,
			"-0.013": 0.450751426324,
			"-0.012": 1.17064751098,
			"-0.011": 1.53016229688,
			"-0.01": 3.10553864966,
			"-0.009": 4.34706666101,
			"-0.008": 3.52769223806,
			"-0.007": 4.11595051325,
			"-0.006": 5.92410957348,
			"-0.005": 10.2727895501,
			"-0.004": 10.6098984396,
			"-0.003": 10.8177972602,
			"-0.002": 9.42354466396,
			"-0.001": 7.88536643631,
			"0.0": 9.11263640723,
			"0.001": 8.76938754098,
			"0.002": 10.3477950063,
			"0.003": 10.3275024658,
			"0.004": 13.0079984858,
			"0.005": 11.8857762175,
			"0.006": 12.7545428088,
			"0.007": 4.97903057778,
			"0.008": 2.37486982301,
			"0.009": 1.33258934153,
			"0.01": 0.864337182076,
			"0.011": 0.649358684938,
			"0.012": 0.624505905297,
			"0.013": 0.50314249635,
			"0.014": 0.34968882321,
			"0.015": 0.0296438334601,
			"0.016": 0.0,
			"0.017": 0.0,
			"0.018": 0.0,
			"0.019": 0.0,
			"0.02": 0.0,
			"0.021": 0.0,
			"0.022": 0.0,
			"0.023": 0.0,
			"0.024": 0.0,
			"0.025": 0.0
		}
	}
}
