{
	 "smiles": "BrC1=CN(CC#N)N=C1", 
	 "Tm": 334.15, 
	 "num_atms": 13, 
	 "gaussian": { 
		 "optdone": 1, 
		 "sigma_profile": "yes", 
		 "theory": "DFT", 
		 "functional": "B3LYP", 
		 "basiset": "6-31G**", 
		 "properties": { 
			 "R2extent": 2849.1023, 
			 "electric_dipole_moment_norm": 3.01276890916, 
			 "electric_quadrupole_moment_norm": 11.1025204864, 
			 "total_energy": -2928.53870099, 
			 "HOMO_LUMO_gap": 0.2324, 
			 "cosmo_polarized_energy": -12.61, 
			 "cosmo_cavitation_energy": 21.43, 
			 "cosmo_dispersion_energy": -15.51, 
			 "cosmo_repulsion_energy": 1.29, 
			 "cosmo_total_nonelectrostatic_energy": 7.22, 
			 "SMD_solvation_energy": 3.58 
		},
		"coords": [
			{
				"x": 3.8150149566,
				"y": 0.364132008,
				"z": 0.2433914536,
				"element": "Br" 
			},
			{
				"x": 1.9676402479,
				"y": 0.0134750499,
				"z": 0.185555585,
				"element": "C" 
			},
			{
				"x": 0.9918166544,
				"y": 0.81255246,
				"z": -0.37302884,
				"element": "C" 
			},
			{
				"x": -0.1805723058,
				"y": 0.1434342708,
				"z": -0.1862736456,
				"element": "N" 
			},
			{
				"x": -1.5209519331,
				"y": 0.5618979868,
				"z": -0.5531995188,
				"element": "C" 
			},
			{
				"x": -2.0323046748,
				"y": 1.6621571842,
				"z": 0.2818503762,
				"element": "C" 
			},
			{
				"x": -2.4370084287,
				"y": 2.5413351434,
				"z": 0.9206423848,
				"element": "N" 
			},
			{
				"x": -0.0170349693,
				"y": -1.0316034211,
				"z": 0.4668985568,
				"element": "N" 
			},
			{
				"x": 1.2904225861,
				"y": -1.1181106803,
				"z": 0.6915675689,
				"element": "C" 
			},
			{
				"x": 1.0481957432,
				"y": 1.7715535765,
				"z": -0.8649534507,
				"element": "H" 
			},
			{
				"x": -1.546118287,
				"y": 0.8719555885,
				"z": -1.6035955486,
				"element": "H" 
			},
			{
				"x": -2.1618089058,
				"y": -0.3155186003,
				"z": -0.4380084805,
				"element": "H" 
			},
			{
				"x": 1.7068093165,
				"y": -1.9772605664,
				"z": 1.1975535589,
				"element": "H" 
			}
		],
		 "valence_orbital": [ 
			{
				"type": "occ",
				"energy": -0.3365,
				"method": "rhf"
			},
			{
				"type": "occ",
				"energy": -0.32373,
				"method": "rhf"
			},
			{
				"type": "occ",
				"energy": -0.29367,
				"method": "rhf"
			},
			{
				"type": "occ",
				"energy": -0.27998,
				"method": "rhf"
			},
			{
				"type": "occ",
				"energy": -0.25053,
				"method": "rhf"
			},
			{
				"type": "unocc",
				"energy": -0.01813,
				"method": "rhf"
			},
			{
				"type": "unocc",
				"energy": -0.00255,
				"method": "rhf"
			},
			{
				"type": "unocc",
				"energy": 0.01279,
				"method": "rhf"
			},
			{
				"type": "unocc",
				"energy": 0.01682,
				"method": "rhf"
			},
			{
				"type": "unocc",
				"energy": 0.04525,
				"method": "rhf"
			}
		],
		"cosmo_sigma_profile": { 
			"-0.025": 0.0,
			"-0.024": 0.0,
			"-0.023": 0.0,
			"-0.022": 0.0,
			"-0.021": 0.0,
			"-0.02": 0.0,
			"-0.019": 0.0,
			"-0.018": 0.0,
			"-0.017": 0.0,
			"-0.016": 0.0,
			"-0.015": 0.0,
			"-0.014": 0.0,
			"-0.013": 0.0100653317273,
			"-0.012": 1.73388030998,
			"-0.011": 7.80147341355,
			"-0.01": 6.85406181038,
			"-0.009": 5.02359740743,
			"-0.008": 7.52382018402,
			"-0.007": 5.24283653412,
			"-0.006": 4.57722367484,
			"-0.005": 5.35351879131,
			"-0.004": 6.6469157307,
			"-0.003": 6.33419312155,
			"-0.002": 8.23877527865,
			"-0.001": 9.16865480093,
			"0.0": 10.5242426221,
			"0.001": 10.7051887357,
			"0.002": 16.9379382348,
			"0.003": 13.1984530939,
			"0.004": 16.1569085611,
			"0.005": 5.67354169748,
			"0.006": 4.26232676421,
			"0.007": 5.3917920623,
			"0.008": 4.29848944403,
			"0.009": 4.34975747236,
			"0.01": 3.57211926061,
			"0.011": 3.06574294647,
			"0.012": 2.98576492303,
			"0.013": 1.24849850122,
			"0.014": 0.233552785514,
			"0.015": 0.0,
			"0.016": 0.0,
			"0.017": 0.0,
			"0.018": 0.0,
			"0.019": 0.0,
			"0.02": 0.0,
			"0.021": 0.0,
			"0.022": 0.0,
			"0.023": 0.0,
			"0.024": 0.0,
			"0.025": 0.0
		}
	}
}
