{
	 "smiles": "CC(=O)C1=C(C)ON=C1C1=C(Cl)C=CC=C1Cl", 
	 "Tm": 346.15, 
	 "num_atms": 26, 
	 "gaussian": { 
		 "optdone": 1, 
		 "sigma_profile": "yes", 
		 "theory": "DFT", 
		 "functional": "B3LYP", 
		 "basiset": "6-31G**", 
		 "properties": { 
			 "R2extent": 4586.9199, 
			 "electric_dipole_moment_norm": 2.59036755114, 
			 "electric_quadrupole_moment_norm": 22.7193344167, 
			 "total_energy": -1588.23563308, 
			 "HOMO_LUMO_gap": 0.19908, 
			 "cosmo_polarized_energy": -15.06, 
			 "cosmo_cavitation_energy": 34.67, 
			 "cosmo_dispersion_energy": -23.58, 
			 "cosmo_repulsion_energy": 1.84, 
			 "cosmo_total_nonelectrostatic_energy": 12.93, 
			 "SMD_solvation_energy": 5.87 
		},
		"coords": [
			{
				"x": 3.222986905,
				"y": 0.3763804837,
				"z": -0.6922823563,
				"element": "C" 
			},
			{
				"x": 1.7911989168,
				"y": 0.3916259249,
				"z": -0.1859222006,
				"element": "C" 
			},
			{
				"x": 1.5507632557,
				"y": 0.4096900904,
				"z": 1.0119925534,
				"element": "O" 
			},
			{
				"x": 0.6870059348,
				"y": 0.3844000889,
				"z": -1.1689481103,
				"element": "C" 
			},
			{
				"x": 0.6983035973,
				"y": 0.3658148557,
				"z": -2.5459350247,
				"element": "C" 
			},
			{
				"x": 1.7511071219,
				"y": 0.3458764368,
				"z": -3.6038049933,
				"element": "C" 
			},
			{
				"x": -0.5653690203,
				"y": 0.3665972209,
				"z": -3.0012101132,
				"element": "O" 
			},
			{
				"x": -1.4647167089,
				"y": 0.3858961249,
				"z": -1.9263563325,
				"element": "N" 
			},
			{
				"x": -0.7168984558,
				"y": 0.3963464195,
				"z": -0.8508597196,
				"element": "C" 
			},
			{
				"x": -1.3695729312,
				"y": 0.4175599651,
				"z": 0.4825317503,
				"element": "C" 
			},
			{
				"x": -1.6954248217,
				"y": 1.6245028249,
				"z": 1.1200402386,
				"element": "C" 
			},
			{
				"x": -1.2902672644,
				"y": 3.1502836051,
				"z": 0.3536782033,
				"element": "Cl" 
			},
			{
				"x": -2.327986309,
				"y": 1.657238902,
				"z": 2.3606824431,
				"element": "C" 
			},
			{
				"x": -2.6497198044,
				"y": 0.4576292372,
				"z": 2.9916692183,
				"element": "C" 
			},
			{
				"x": -2.3411079945,
				"y": -0.7616373413,
				"z": 2.3926149062,
				"element": "C" 
			},
			{
				"x": -1.7084124454,
				"y": -0.7685268386,
				"z": 1.1516284414,
				"element": "C" 
			},
			{
				"x": -1.3200109933,
				"y": -2.3183316103,
				"z": 0.4258608016,
				"element": "Cl" 
			},
			{
				"x": 3.4281817686,
				"y": 1.2499633753,
				"z": -1.3208111441,
				"element": "H" 
			},
			{
				"x": 3.4180422123,
				"y": -0.516726195,
				"z": -1.2961209994,
				"element": "H" 
			},
			{
				"x": 3.8944676689,
				"y": 0.3845262678,
				"z": 0.1668195347,
				"element": "H" 
			},
			{
				"x": 1.2737327993,
				"y": 0.3350758092,
				"z": -4.5853898221,
				"element": "H" 
			},
			{
				"x": 2.3869996824,
				"y": -0.5401316016,
				"z": -3.5164218986,
				"element": "H" 
			},
			{
				"x": 2.3963405782,
				"y": 1.22716566,
				"z": -3.540440199,
				"element": "H" 
			},
			{
				"x": -2.5610787791,
				"y": 2.6112604457,
				"z": 2.8187812996,
				"element": "H" 
			},
			{
				"x": -3.1427858704,
				"y": 0.4730689699,
				"z": 3.9586039742,
				"element": "H" 
			},
			{
				"x": -2.5844790428,
				"y": -1.7006491211,
				"z": 2.8756995488,
				"element": "H" 
			}
		],
		 "valence_orbital": [ 
			{
				"type": "occ",
				"energy": -0.29776,
				"method": "rhf"
			},
			{
				"type": "occ",
				"energy": -0.26945,
				"method": "rhf"
			},
			{
				"type": "occ",
				"energy": -0.26904,
				"method": "rhf"
			},
			{
				"type": "occ",
				"energy": -0.24893,
				"method": "rhf"
			},
			{
				"type": "occ",
				"energy": -0.24783,
				"method": "rhf"
			},
			{
				"type": "unocc",
				"energy": -0.04875,
				"method": "rhf"
			},
			{
				"type": "unocc",
				"energy": -0.02754,
				"method": "rhf"
			},
			{
				"type": "unocc",
				"energy": -0.02272,
				"method": "rhf"
			},
			{
				"type": "unocc",
				"energy": -0.01352,
				"method": "rhf"
			},
			{
				"type": "unocc",
				"energy": 0.00822,
				"method": "rhf"
			}
		],
		"cosmo_sigma_profile": { 
			"-0.025": 0.0,
			"-0.024": 0.0,
			"-0.023": 0.0,
			"-0.022": 0.0,
			"-0.021": 0.0,
			"-0.02": 0.0,
			"-0.019": 0.0,
			"-0.018": 0.0,
			"-0.017": 0.0,
			"-0.016": 0.0,
			"-0.015": 0.0,
			"-0.014": 0.0,
			"-0.013": 0.0,
			"-0.012": 0.0,
			"-0.011": 0.0,
			"-0.01": 0.0,
			"-0.009": 0.509475974409,
			"-0.008": 9.00471779693,
			"-0.007": 15.0906882421,
			"-0.006": 16.3882441395,
			"-0.005": 15.3232236958,
			"-0.004": 17.628909917,
			"-0.003": 19.7787992308,
			"-0.002": 19.6430081486,
			"-0.001": 17.353744392,
			"0.0": 19.3419165787,
			"0.001": 24.8981132997,
			"0.002": 24.1510220596,
			"0.003": 24.6715701236,
			"0.004": 18.9577893127,
			"0.005": 7.06868580847,
			"0.006": 6.59356999775,
			"0.007": 5.14972896118,
			"0.008": 4.0409004884,
			"0.009": 4.01110908923,
			"0.01": 2.90265824379,
			"0.011": 3.60754104889,
			"0.012": 3.62755539739,
			"0.013": 2.28569966205,
			"0.014": 0.0643856542606,
			"0.015": 0.0,
			"0.016": 0.0,
			"0.017": 0.0,
			"0.018": 0.0,
			"0.019": 0.0,
			"0.02": 0.0,
			"0.021": 0.0,
			"0.022": 0.0,
			"0.023": 0.0,
			"0.024": 0.0,
			"0.025": 0.0
		}
	}
}
