{
	 "smiles": "COC(=O)CCCOC1=C2C=CC=CC2=C(N)C=C1", 
	 "Tm": 343.15, 
	 "num_atms": 36, 
	 "gaussian": { 
		 "optdone": 1, 
		 "sigma_profile": "yes", 
		 "theory": "DFT", 
		 "functional": "B3LYP", 
		 "basiset": "6-31G**", 
		 "properties": { 
			 "R2extent": 7713.3246, 
			 "electric_dipole_moment_norm": 0.429174999272, 
			 "electric_quadrupole_moment_norm": 17.2787295439, 
			 "total_energy": -862.283458409, 
			 "HOMO_LUMO_gap": 0.154, 
			 "cosmo_polarized_energy": -14.64, 
			 "cosmo_cavitation_energy": 39.39, 
			 "cosmo_dispersion_energy": -28.08, 
			 "cosmo_repulsion_energy": 2.18, 
			 "cosmo_total_nonelectrostatic_energy": 13.49, 
			 "SMD_solvation_energy": 7.76 
		},
		"coords": [
			{
				"x": 2.5874903184,
				"y": -3.8533855732,
				"z": -2.4855585065,
				"element": "C" 
			},
			{
				"x": 2.6856548821,
				"y": -2.690438643,
				"z": -1.6468886616,
				"element": "O" 
			},
			{
				"x": 1.9680712204,
				"y": -1.6205867339,
				"z": -2.0526006243,
				"element": "C" 
			},
			{
				"x": 1.2831816237,
				"y": -1.6181668398,
				"z": -3.0549595555,
				"element": "O" 
			},
			{
				"x": 2.1529254883,
				"y": -0.4527639911,
				"z": -1.1026356157,
				"element": "C" 
			},
			{
				"x": 1.2748229801,
				"y": 0.752820835,
				"z": -1.4507341731,
				"element": "C" 
			},
			{
				"x": -0.206110095,
				"y": 0.5337835887,
				"z": -1.1645152249,
				"element": "C" 
			},
			{
				"x": -0.3559615369,
				"y": 0.3486182721,
				"z": 0.2418914964,
				"element": "O" 
			},
			{
				"x": -1.6088142869,
				"y": 0.0991806297,
				"z": 0.7374313784,
				"element": "C" 
			},
			{
				"x": -1.6859284695,
				"y": -0.0569118333,
				"z": 2.1595003782,
				"element": "C" 
			},
			{
				"x": -0.5341913988,
				"y": 0.0481549614,
				"z": 2.9808784167,
				"element": "C" 
			},
			{
				"x": -0.616139624,
				"y": -0.1345402036,
				"z": 4.3447142349,
				"element": "C" 
			},
			{
				"x": -1.8560563017,
				"y": -0.4458712976,
				"z": 4.9447170283,
				"element": "C" 
			},
			{
				"x": -2.9934618968,
				"y": -0.5462132528,
				"z": 4.1718049873,
				"element": "C" 
			},
			{
				"x": -2.9517419578,
				"y": -0.3377316267,
				"z": 2.768042701,
				"element": "C" 
			},
			{
				"x": -4.1313798644,
				"y": -0.4056389838,
				"z": 1.9511133505,
				"element": "C" 
			},
			{
				"x": -5.3745444589,
				"y": -0.6891667303,
				"z": 2.5509424919,
				"element": "N" 
			},
			{
				"x": -4.0041225976,
				"y": -0.2442635116,
				"z": 0.5865815998,
				"element": "C" 
			},
			{
				"x": -2.7505062504,
				"y": -0.0071086823,
				"z": -0.0269696388,
				"element": "C" 
			},
			{
				"x": 2.9428393897,
				"y": -3.6325831847,
				"z": -3.4953218361,
				"element": "H" 
			},
			{
				"x": 3.2163999753,
				"y": -4.609371911,
				"z": -2.0155715131,
				"element": "H" 
			},
			{
				"x": 1.5523898407,
				"y": -4.1989541495,
				"z": -2.5449931594,
				"element": "H" 
			},
			{
				"x": 1.9525894734,
				"y": -0.8007054467,
				"z": -0.0840922013,
				"element": "H" 
			},
			{
				"x": 3.2150698222,
				"y": -0.1800661601,
				"z": -1.124721275,
				"element": "H" 
			},
			{
				"x": 1.6174177324,
				"y": 1.6227289754,
				"z": -0.8800642385,
				"element": "H" 
			},
			{
				"x": 1.3821674828,
				"y": 0.9905335672,
				"z": -2.5139409186,
				"element": "H" 
			},
			{
				"x": -0.5746644576,
				"y": -0.3454964601,
				"z": -1.7070180641,
				"element": "H" 
			},
			{
				"x": -0.7908727661,
				"y": 1.40605128,
				"z": -1.4895906564,
				"element": "H" 
			},
			{
				"x": 0.4153473697,
				"y": 0.2752739219,
				"z": 2.5103916257,
				"element": "H" 
			},
			{
				"x": 0.2760005943,
				"y": -0.0500718083,
				"z": 4.9587679833,
				"element": "H" 
			},
			{
				"x": -1.9120255792,
				"y": -0.6152807255,
				"z": 6.016307151,
				"element": "H" 
			},
			{
				"x": -3.9337848548,
				"y": -0.8220872124,
				"z": 4.6380340497,
				"element": "H" 
			},
			{
				"x": -6.1491043519,
				"y": -0.5771866252,
				"z": 1.9082400273,
				"element": "H" 
			},
			{
				"x": -5.5511659414,
				"y": -0.1501515879,
				"z": 3.3907621191,
				"element": "H" 
			},
			{
				"x": -4.8898483755,
				"y": -0.2929515241,
				"z": -0.0426023862,
				"element": "H" 
			},
			{
				"x": -2.7141431284,
				"y": 0.1059486671,
				"z": -1.1035427704,
				"element": "H" 
			}
		],
		 "valence_orbital": [ 
			{
				"type": "occ",
				"energy": -0.27259,
				"method": "rhf"
			},
			{
				"type": "occ",
				"energy": -0.26804,
				"method": "rhf"
			},
			{
				"type": "occ",
				"energy": -0.24476,
				"method": "rhf"
			},
			{
				"type": "occ",
				"energy": -0.23482,
				"method": "rhf"
			},
			{
				"type": "occ",
				"energy": -0.17529,
				"method": "rhf"
			},
			{
				"type": "unocc",
				"energy": -0.02129,
				"method": "rhf"
			},
			{
				"type": "unocc",
				"energy": -0.00114,
				"method": "rhf"
			},
			{
				"type": "unocc",
				"energy": 0.01273,
				"method": "rhf"
			},
			{
				"type": "unocc",
				"energy": 0.05916,
				"method": "rhf"
			},
			{
				"type": "unocc",
				"energy": 0.08332,
				"method": "rhf"
			}
		],
		"cosmo_sigma_profile": { 
			"-0.025": 0.0,
			"-0.024": 0.0,
			"-0.023": 0.0,
			"-0.022": 0.0,
			"-0.021": 0.0,
			"-0.02": 0.0,
			"-0.019": 0.0,
			"-0.018": 0.0,
			"-0.017": 0.0,
			"-0.016": 0.0,
			"-0.015": 0.0,
			"-0.014": 0.0,
			"-0.013": 0.0,
			"-0.012": 1.02153204326,
			"-0.011": 3.06016331206,
			"-0.01": 2.69290516789,
			"-0.009": 2.87285520402,
			"-0.008": 3.69554522126,
			"-0.007": 3.76716002854,
			"-0.006": 12.6516133251,
			"-0.005": 22.445251487,
			"-0.004": 32.051044059,
			"-0.003": 37.2058783144,
			"-0.002": 25.8861289876,
			"-0.001": 18.0206425943,
			"0.0": 14.0854433411,
			"0.001": 12.2857653993,
			"0.002": 14.7864987999,
			"0.003": 15.1005940708,
			"0.004": 22.7867468503,
			"0.005": 25.4461584533,
			"0.006": 16.5932164916,
			"0.007": 5.54736438586,
			"0.008": 3.63432652659,
			"0.009": 3.39361855512,
			"0.01": 2.20752927888,
			"0.011": 3.43555835709,
			"0.012": 4.51945830077,
			"0.013": 0.895648080809,
			"0.014": 0.638632689174,
			"0.015": 0.673901367472,
			"0.016": 0.188303690578,
			"0.017": 0.0,
			"0.018": 0.0,
			"0.019": 0.0,
			"0.02": 0.0,
			"0.021": 0.0,
			"0.022": 0.0,
			"0.023": 0.0,
			"0.024": 0.0,
			"0.025": 0.0
		}
	}
}
