{
	 "smiles": "ClC1=CC=C(NCC2=CC=CC=C2)C=C1", 
	 "Tm": 321.15, 
	 "num_atms": 27, 
	 "gaussian": { 
		 "optdone": 1, 
		 "sigma_profile": "yes", 
		 "theory": "DFT", 
		 "functional": "B3LYP", 
		 "basiset": "6-31G**", 
		 "properties": { 
			 "R2extent": 5157.6254, 
			 "electric_dipole_moment_norm": 3.72038657938, 
			 "electric_quadrupole_moment_norm": 13.2464293649, 
			 "total_energy": -1017.56208035, 
			 "HOMO_LUMO_gap": 0.19047, 
			 "cosmo_polarized_energy": -9.4, 
			 "cosmo_cavitation_energy": 32.46, 
			 "cosmo_dispersion_energy": -23.47, 
			 "cosmo_repulsion_energy": 1.85, 
			 "cosmo_total_nonelectrostatic_energy": 10.85, 
			 "SMD_solvation_energy": 4.67 
		},
		"coords": [
			{
				"x": 3.8453961326,
				"y": -2.7888492867,
				"z": -0.4369577779,
				"element": "Cl" 
			},
			{
				"x": 2.4177370393,
				"y": -1.8298677282,
				"z": -0.0535535875,
				"element": "C" 
			},
			{
				"x": 2.1930907872,
				"y": -1.4175390722,
				"z": 1.2604373838,
				"element": "C" 
			},
			{
				"x": 1.0646126309,
				"y": -0.6630132492,
				"z": 1.5594676832,
				"element": "C" 
			},
			{
				"x": 0.1400899339,
				"y": -0.3055742676,
				"z": 0.5584528006,
				"element": "C" 
			},
			{
				"x": -0.9675324318,
				"y": 0.4716809981,
				"z": 0.8936354072,
				"element": "N" 
			},
			{
				"x": -2.1428974367,
				"y": 0.5519921311,
				"z": 0.0392273494,
				"element": "C" 
			},
			{
				"x": -2.0362760362,
				"y": 1.5587617199,
				"z": -1.0996382314,
				"element": "C" 
			},
			{
				"x": -1.2422603263,
				"y": 2.7050146458,
				"z": -0.9861763284,
				"element": "C" 
			},
			{
				"x": -1.199992521,
				"y": 3.6418380496,
				"z": -2.0197069155,
				"element": "C" 
			},
			{
				"x": -1.9534514607,
				"y": 3.4462803389,
				"z": -3.1789626086,
				"element": "C" 
			},
			{
				"x": -2.7465978813,
				"y": 2.3038538947,
				"z": -3.300820807,
				"element": "C" 
			},
			{
				"x": -2.7834182482,
				"y": 1.3657031416,
				"z": -2.2681719779,
				"element": "C" 
			},
			{
				"x": 0.388671156,
				"y": -0.7289487635,
				"z": -0.7597627297,
				"element": "C" 
			},
			{
				"x": 1.5206054728,
				"y": -1.4862177708,
				"z": -1.0608348729,
				"element": "C" 
			},
			{
				"x": 2.8935785152,
				"y": -1.6878301331,
				"z": 2.0431805153,
				"element": "H" 
			},
			{
				"x": 0.893243712,
				"y": -0.3439667826,
				"z": 2.5849680122,
				"element": "H" 
			},
			{
				"x": -1.1682403791,
				"y": 0.4878931112,
				"z": 1.8823441019,
				"element": "H" 
			},
			{
				"x": -2.9814438699,
				"y": 0.8416396641,
				"z": 0.684185883,
				"element": "H" 
			},
			{
				"x": -2.4013392327,
				"y": -0.4346546861,
				"z": -0.3766931981,
				"element": "H" 
			},
			{
				"x": -0.6498778375,
				"y": 2.8471293262,
				"z": -0.0876099959,
				"element": "H" 
			},
			{
				"x": -0.5749965871,
				"y": 4.5250510563,
				"z": -1.9204100842,
				"element": "H" 
			},
			{
				"x": -1.9182058116,
				"y": 4.1751303893,
				"z": -3.9835762025,
				"element": "H" 
			},
			{
				"x": -3.3305429209,
				"y": 2.1385289007,
				"z": -4.2019474895,
				"element": "H" 
			},
			{
				"x": -3.3977805242,
				"y": 0.4735648177,
				"z": -2.3715588325,
				"element": "H" 
			},
			{
				"x": -0.2882563396,
				"y": -0.4527766927,
				"z": -1.5596191037,
				"element": "H" 
			},
			{
				"x": 1.702584465,
				"y": -1.8054237524,
				"z": -2.0813983933,
				"element": "H" 
			}
		],
		 "valence_orbital": [ 
			{
				"type": "occ",
				"energy": -0.28268,
				"method": "rhf"
			},
			{
				"type": "occ",
				"energy": -0.25558,
				"method": "rhf"
			},
			{
				"type": "occ",
				"energy": -0.25086,
				"method": "rhf"
			},
			{
				"type": "occ",
				"energy": -0.24382,
				"method": "rhf"
			},
			{
				"type": "occ",
				"energy": -0.19985,
				"method": "rhf"
			},
			{
				"type": "unocc",
				"energy": -0.00938,
				"method": "rhf"
			},
			{
				"type": "unocc",
				"energy": -0.00361,
				"method": "rhf"
			},
			{
				"type": "unocc",
				"energy": -0.00029,
				"method": "rhf"
			},
			{
				"type": "unocc",
				"energy": 0.01066,
				"method": "rhf"
			},
			{
				"type": "unocc",
				"energy": 0.03988,
				"method": "rhf"
			}
		],
		"cosmo_sigma_profile": { 
			"-0.025": 0.0,
			"-0.024": 0.0,
			"-0.023": 0.0,
			"-0.022": 0.0,
			"-0.021": 0.0,
			"-0.02": 0.0,
			"-0.019": 0.0,
			"-0.018": 0.0,
			"-0.017": 0.0,
			"-0.016": 0.0,
			"-0.015": 0.0,
			"-0.014": 0.0260665762991,
			"-0.013": 0.975691198239,
			"-0.012": 1.70483364935,
			"-0.011": 1.52705306863,
			"-0.01": 1.22426163755,
			"-0.009": 1.87212469541,
			"-0.008": 1.58415876818,
			"-0.007": 4.43590230447,
			"-0.006": 9.51063250008,
			"-0.005": 17.7620222382,
			"-0.004": 21.9402046563,
			"-0.003": 22.1016062657,
			"-0.002": 17.5493099851,
			"-0.001": 15.6268926261,
			"0.0": 15.2102389113,
			"0.001": 16.3024198281,
			"0.002": 16.8194318142,
			"0.003": 22.9005013096,
			"0.004": 25.2148558037,
			"0.005": 31.2658539448,
			"0.006": 14.2966487418,
			"0.007": 1.50981717383,
			"0.008": 0.0,
			"0.009": 0.0,
			"0.01": 0.0,
			"0.011": 0.0,
			"0.012": 0.0,
			"0.013": 0.0,
			"0.014": 0.0,
			"0.015": 0.0,
			"0.016": 0.0,
			"0.017": 0.0,
			"0.018": 0.0,
			"0.019": 0.0,
			"0.02": 0.0,
			"0.021": 0.0,
			"0.022": 0.0,
			"0.023": 0.0,
			"0.024": 0.0,
			"0.025": 0.0
		}
	}
}
