{
	 "smiles": "CC1N(CCNC1=O)C(=O)C1=CC=CS1", 
	 "Tm": 403.15, 
	 "num_atms": 27, 
	 "gaussian": { 
		 "optdone": 1, 
		 "sigma_profile": "yes", 
		 "theory": "DFT", 
		 "functional": "B3LYP", 
		 "basiset": "6-31G**", 
		 "properties": { 
			 "R2extent": 3927.7493, 
			 "electric_dipole_moment_norm": 5.98044402198, 
			 "electric_quadrupole_moment_norm": 10.7100131204, 
			 "total_energy": -1046.44154979, 
			 "HOMO_LUMO_gap": 0.18901, 
			 "cosmo_polarized_energy": -18.32, 
			 "cosmo_cavitation_energy": 31.15, 
			 "cosmo_dispersion_energy": -23.05, 
			 "cosmo_repulsion_energy": 1.75, 
			 "cosmo_total_nonelectrostatic_energy": 9.86, 
			 "SMD_solvation_energy": 5.48 
		},
		"coords": [
			{
				"x": -0.767142027,
				"y": 2.2444014615,
				"z": -2.7313849624,
				"element": "C" 
			},
			{
				"x": 0.3691024774,
				"y": 1.8863698145,
				"z": -1.7583300697,
				"element": "C" 
			},
			{
				"x": -0.0025117942,
				"y": 0.8425417458,
				"z": -0.7881453958,
				"element": "N" 
			},
			{
				"x": -0.7045698245,
				"y": 1.3373462459,
				"z": 0.3890649009,
				"element": "C" 
			},
			{
				"x": 0.2271288894,
				"y": 2.2465439444,
				"z": 1.1829652583,
				"element": "C" 
			},
			{
				"x": 0.7878744819,
				"y": 3.2478981995,
				"z": 0.2864898977,
				"element": "N" 
			},
			{
				"x": 0.9066341072,
				"y": 3.1505689559,
				"z": -1.0731658026,
				"element": "C" 
			},
			{
				"x": 1.4048524972,
				"y": 4.045496327,
				"z": -1.7433788087,
				"element": "O" 
			},
			{
				"x": 0.0743587797,
				"y": -0.4661375721,
				"z": -1.2152586469,
				"element": "C" 
			},
			{
				"x": 0.3467762276,
				"y": -0.7364820086,
				"z": -2.3840953095,
				"element": "O" 
			},
			{
				"x": -0.1356909062,
				"y": -1.5874328646,
				"z": -0.2507374241,
				"element": "C" 
			},
			{
				"x": -0.5896886995,
				"y": -2.8252956205,
				"z": -0.6403841946,
				"element": "C" 
			},
			{
				"x": -0.5852324858,
				"y": -3.7901531984,
				"z": 0.4047813117,
				"element": "C" 
			},
			{
				"x": -0.0989770472,
				"y": -3.2896355175,
				"z": 1.5828291147,
				"element": "C" 
			},
			{
				"x": 0.348086564,
				"y": -1.6242551059,
				"z": 1.4339076662,
				"element": "S" 
			},
			{
				"x": -0.4286518594,
				"y": 3.0393239106,
				"z": -3.3992000034,
				"element": "H" 
			},
			{
				"x": -1.6570988747,
				"y": 2.5990284246,
				"z": -2.2002537198,
				"element": "H" 
			},
			{
				"x": -1.0289543592,
				"y": 1.3625132066,
				"z": -3.3186380253,
				"element": "H" 
			},
			{
				"x": 1.1991586274,
				"y": 1.4871255358,
				"z": -2.3458170344,
				"element": "H" 
			},
			{
				"x": -1.0523076657,
				"y": 0.5099644035,
				"z": 1.0040329698,
				"element": "H" 
			},
			{
				"x": -1.5886551896,
				"y": 1.9090597802,
				"z": 0.0724404446,
				"element": "H" 
			},
			{
				"x": 1.0189125236,
				"y": 1.6468217987,
				"z": 1.6542407702,
				"element": "H" 
			},
			{
				"x": -0.3330335687,
				"y": 2.7486264178,
				"z": 1.9804198357,
				"element": "H" 
			},
			{
				"x": 1.2083689022,
				"y": 4.0821080569,
				"z": 0.6749275297,
				"element": "H" 
			},
			{
				"x": -0.8970710342,
				"y": -3.0194738316,
				"z": -1.6605341898,
				"element": "H" 
			},
			{
				"x": -0.9194965181,
				"y": -4.814163813,
				"z": 0.2849455015,
				"element": "H" 
			},
			{
				"x": 0.0286277764,
				"y": -3.7981086972,
				"z": 2.5287783858,
				"element": "H" 
			}
		],
		 "valence_orbital": [ 
			{
				"type": "occ",
				"energy": -0.26647,
				"method": "rhf"
			},
			{
				"type": "occ",
				"energy": -0.26206,
				"method": "rhf"
			},
			{
				"type": "occ",
				"energy": -0.25401,
				"method": "rhf"
			},
			{
				"type": "occ",
				"energy": -0.24168,
				"method": "rhf"
			},
			{
				"type": "occ",
				"energy": -0.23661,
				"method": "rhf"
			},
			{
				"type": "unocc",
				"energy": -0.0476,
				"method": "rhf"
			},
			{
				"type": "unocc",
				"energy": 0.01261,
				"method": "rhf"
			},
			{
				"type": "unocc",
				"energy": 0.02504,
				"method": "rhf"
			},
			{
				"type": "unocc",
				"energy": 0.02845,
				"method": "rhf"
			},
			{
				"type": "unocc",
				"energy": 0.06219,
				"method": "rhf"
			}
		],
		"cosmo_sigma_profile": { 
			"-0.025": 0.0,
			"-0.024": 0.0,
			"-0.023": 0.0,
			"-0.022": 0.0,
			"-0.021": 0.0,
			"-0.02": 0.0,
			"-0.019": 0.0,
			"-0.018": 0.0,
			"-0.017": 0.0,
			"-0.016": 0.0,
			"-0.015": 0.0,
			"-0.014": 0.778661353049,
			"-0.013": 1.50036075556,
			"-0.012": 0.925018412952,
			"-0.011": 0.947283523342,
			"-0.01": 1.03097140726,
			"-0.009": 2.89111238893,
			"-0.008": 3.51508102709,
			"-0.007": 6.96751291894,
			"-0.006": 15.0059698164,
			"-0.005": 19.1439983684,
			"-0.004": 22.9415122727,
			"-0.003": 20.6372725521,
			"-0.002": 19.0879160178,
			"-0.001": 17.8624525199,
			"0.0": 19.0071715842,
			"0.001": 15.8359572767,
			"0.002": 13.8692651967,
			"0.003": 13.9803845529,
			"0.004": 11.4700684506,
			"0.005": 3.53963607235,
			"0.006": 3.94223593931,
			"0.007": 3.77257743254,
			"0.008": 2.17545228512,
			"0.009": 2.71407457217,
			"0.01": 2.88943049566,
			"0.011": 3.09998448832,
			"0.012": 3.66509005941,
			"0.013": 7.20837027713,
			"0.014": 7.335417041,
			"0.015": 1.04795751456,
			"0.016": 0.0,
			"0.017": 0.0,
			"0.018": 0.0,
			"0.019": 0.0,
			"0.02": 0.0,
			"0.021": 0.0,
			"0.022": 0.0,
			"0.023": 0.0,
			"0.024": 0.0,
			"0.025": 0.0
		}
	}
}
