{
	 "smiles": "COC(=O)C(=O)CC(=O)C1=CC=C(C=C1)N1CCOCC1", 
	 "Tm": 438.15, 
	 "num_atms": 38, 
	 "gaussian": { 
		 "optdone": 1, 
		 "sigma_profile": "yes", 
		 "theory": "DFT", 
		 "functional": "B3LYP", 
		 "basiset": "6-31G**", 
		 "properties": { 
			 "R2extent": 12484.209, 
			 "electric_dipole_moment_norm": 4.79597801183, 
			 "electric_quadrupole_moment_norm": 25.698833549, 
			 "total_energy": -1012.67927872, 
			 "HOMO_LUMO_gap": 0.14949, 
			 "cosmo_polarized_energy": -20.64, 
			 "cosmo_cavitation_energy": 41.86, 
			 "cosmo_dispersion_energy": -29.99, 
			 "cosmo_repulsion_energy": 2.3, 
			 "cosmo_total_nonelectrostatic_energy": 14.16, 
			 "SMD_solvation_energy": 8.59 
		},
		"coords": [
			{
				"x": -2.5173794589,
				"y": -6.6054377992,
				"z": 3.920267452,
				"element": "C" 
			},
			{
				"x": -2.0101969623,
				"y": -5.3743976506,
				"z": 4.4647823053,
				"element": "O" 
			},
			{
				"x": -1.2081065682,
				"y": -4.6831886018,
				"z": 3.6535108519,
				"element": "C" 
			},
			{
				"x": -0.864832754,
				"y": -5.0270825176,
				"z": 2.5410108458,
				"element": "O" 
			},
			{
				"x": -0.7024387096,
				"y": -3.3847111052,
				"z": 4.3085515796,
				"element": "C" 
			},
			{
				"x": -0.6764475769,
				"y": -3.2505015116,
				"z": 5.5103303526,
				"element": "O" 
			},
			{
				"x": -0.1909376169,
				"y": -2.3467921019,
				"z": 3.3271869965,
				"element": "C" 
			},
			{
				"x": -1.3598384394,
				"y": -1.7811125234,
				"z": 2.5106164238,
				"element": "C" 
			},
			{
				"x": -2.494576942,
				"y": -2.1942671977,
				"z": 2.7310039759,
				"element": "O" 
			},
			{
				"x": -1.0845160149,
				"y": -0.7468739573,
				"z": 1.4928969241,
				"element": "C" 
			},
			{
				"x": 0.2014309682,
				"y": -0.2572868698,
				"z": 1.209894737,
				"element": "C" 
			},
			{
				"x": 0.4100925057,
				"y": 0.7147540435,
				"z": 0.2429820426,
				"element": "C" 
			},
			{
				"x": -0.6751534716,
				"y": 1.2525180223,
				"z": -0.4924546546,
				"element": "C" 
			},
			{
				"x": -1.9736083167,
				"y": 0.7587860418,
				"z": -0.2021681553,
				"element": "C" 
			},
			{
				"x": -2.1624578679,
				"y": -0.2138706905,
				"z": 0.7624117792,
				"element": "C" 
			},
			{
				"x": -0.4773428562,
				"y": 2.2203425347,
				"z": -1.4530593666,
				"element": "N" 
			},
			{
				"x": -1.5229022144,
				"y": 2.5913667974,
				"z": -2.4056410658,
				"element": "C" 
			},
			{
				"x": -0.8885242274,
				"y": 3.1097307621,
				"z": -3.6950256997,
				"element": "C" 
			},
			{
				"x": -0.0479389033,
				"y": 4.240833142,
				"z": -3.4969121409,
				"element": "O" 
			},
			{
				"x": 0.557238926,
				"y": 4.3032720339,
				"z": -2.2109788366,
				"element": "C" 
			},
			{
				"x": 0.7938029229,
				"y": 2.9301098895,
				"z": -1.5849707643,
				"element": "C" 
			},
			{
				"x": -3.0820883309,
				"y": -6.4118221514,
				"z": 3.0050026044,
				"element": "H" 
			},
			{
				"x": -1.696113601,
				"y": -7.2899354875,
				"z": 3.6934337748,
				"element": "H" 
			},
			{
				"x": -3.1638508304,
				"y": -7.0221250913,
				"z": 4.6916314528,
				"element": "H" 
			},
			{
				"x": 0.5347729116,
				"y": -2.8108424742,
				"z": 2.6495788092,
				"element": "H" 
			},
			{
				"x": 0.3084093505,
				"y": -1.5538844302,
				"z": 3.8915822849,
				"element": "H" 
			},
			{
				"x": 1.0645626381,
				"y": -0.646328624,
				"z": 1.74150131,
				"element": "H" 
			},
			{
				"x": 1.4232284999,
				"y": 1.0372532524,
				"z": 0.0354131159,
				"element": "H" 
			},
			{
				"x": -2.837670866,
				"y": 1.1626749563,
				"z": -0.7162623404,
				"element": "H" 
			},
			{
				"x": -3.1593337691,
				"y": -0.5805327087,
				"z": 0.9844608208,
				"element": "H" 
			},
			{
				"x": -2.1224154109,
				"y": 1.7095595487,
				"z": -2.6536449507,
				"element": "H" 
			},
			{
				"x": -2.2058292806,
				"y": 3.3478181591,
				"z": -1.9889863357,
				"element": "H" 
			},
			{
				"x": -0.3182200676,
				"y": 2.293322903,
				"z": -4.1644773603,
				"element": "H" 
			},
			{
				"x": -1.6742728388,
				"y": 3.4129668461,
				"z": -4.394630318,
				"element": "H" 
			},
			{
				"x": 1.5141007982,
				"y": 4.8212341054,
				"z": -2.3326438096,
				"element": "H" 
			},
			{
				"x": -0.0644465682,
				"y": 4.9033881823,
				"z": -1.5285684032,
				"element": "H" 
			},
			{
				"x": 1.5199507987,
				"y": 2.3607246242,
				"z": -2.1859224703,
				"element": "H" 
			},
			{
				"x": 1.2343501447,
				"y": 3.0798376493,
				"z": -0.5936037672,
				"element": "H" 
			}
		],
		 "valence_orbital": [ 
			{
				"type": "occ",
				"energy": -0.26428,
				"method": "rhf"
			},
			{
				"type": "occ",
				"energy": -0.2615,
				"method": "rhf"
			},
			{
				"type": "occ",
				"energy": -0.25428,
				"method": "rhf"
			},
			{
				"type": "occ",
				"energy": -0.24127,
				"method": "rhf"
			},
			{
				"type": "occ",
				"energy": -0.20829,
				"method": "rhf"
			},
			{
				"type": "unocc",
				"energy": -0.0588,
				"method": "rhf"
			},
			{
				"type": "unocc",
				"energy": -0.04793,
				"method": "rhf"
			},
			{
				"type": "unocc",
				"energy": -0.01015,
				"method": "rhf"
			},
			{
				"type": "unocc",
				"energy": 0.04815,
				"method": "rhf"
			},
			{
				"type": "unocc",
				"energy": 0.06009,
				"method": "rhf"
			}
		],
		"cosmo_sigma_profile": { 
			"-0.025": 0.0,
			"-0.024": 0.0,
			"-0.023": 0.0,
			"-0.022": 0.0,
			"-0.021": 0.0,
			"-0.02": 0.0,
			"-0.019": 0.0,
			"-0.018": 0.0,
			"-0.017": 0.0,
			"-0.016": 0.0,
			"-0.015": 0.0,
			"-0.014": 0.0,
			"-0.013": 0.0,
			"-0.012": 0.0,
			"-0.011": 0.0,
			"-0.01": 0.0,
			"-0.009": 0.0,
			"-0.008": 2.17603131357,
			"-0.007": 14.0785541327,
			"-0.006": 26.6914002278,
			"-0.005": 35.233103338,
			"-0.004": 47.5879765371,
			"-0.003": 26.9210206314,
			"-0.002": 16.921723632,
			"-0.001": 13.6765974166,
			"0.0": 12.5344157357,
			"0.001": 14.0125856504,
			"0.002": 14.5549356929,
			"0.003": 15.6097596041,
			"0.004": 17.2658672552,
			"0.005": 15.5629827619,
			"0.006": 7.48054868765,
			"0.007": 7.25761364337,
			"0.008": 7.64866419324,
			"0.009": 9.06413121984,
			"0.01": 10.607375657,
			"0.011": 9.21766701543,
			"0.012": 4.65295286875,
			"0.013": 1.95671952356,
			"0.014": 0.324509406779,
			"0.015": 0.0,
			"0.016": 0.0,
			"0.017": 0.0,
			"0.018": 0.0,
			"0.019": 0.0,
			"0.02": 0.0,
			"0.021": 0.0,
			"0.022": 0.0,
			"0.023": 0.0,
			"0.024": 0.0,
			"0.025": 0.0
		}
	}
}
