{
	 "smiles": "CC(=O)C1=C(O)C=CC=C1O", 
	 "Tm": 430.65, 
	 "num_atms": 19, 
	 "gaussian": { 
		 "optdone": 1, 
		 "sigma_profile": "yes", 
		 "theory": "DFT", 
		 "functional": "B3LYP", 
		 "basiset": "6-31G**", 
		 "properties": { 
			 "R2extent": 2944.8278, 
			 "electric_dipole_moment_norm": 4.50105701586, 
			 "electric_quadrupole_moment_norm": 12.7509181987, 
			 "total_energy": -535.352668761, 
			 "HOMO_LUMO_gap": 0.16392, 
			 "cosmo_polarized_energy": -11.25, 
			 "cosmo_cavitation_energy": 22.43, 
			 "cosmo_dispersion_energy": -17.22, 
			 "cosmo_repulsion_energy": 1.36, 
			 "cosmo_total_nonelectrostatic_energy": 6.57, 
			 "SMD_solvation_energy": 5.13 
		},
		"coords": [
			{
				"x": -1.2693397231,
				"y": -0.9998131146,
				"z": 3.6994095155,
				"element": "C" 
			},
			{
				"x": -1.9822570722,
				"y": -0.6500203378,
				"z": 2.413360845,
				"element": "C" 
			},
			{
				"x": -2.9746544341,
				"y": -1.3390331477,
				"z": 2.1064345631,
				"element": "O" 
			},
			{
				"x": -1.5511859381,
				"y": 0.4512782122,
				"z": 1.5347862065,
				"element": "C" 
			},
			{
				"x": -2.3009214421,
				"y": 0.6968640002,
				"z": 0.336311517,
				"element": "C" 
			},
			{
				"x": -3.3619168891,
				"y": -0.0416290889,
				"z": 0.011798355,
				"element": "O" 
			},
			{
				"x": -1.9389122951,
				"y": 1.7321291194,
				"z": -0.5415541114,
				"element": "C" 
			},
			{
				"x": -0.844336225,
				"y": 2.5274502967,
				"z": -0.2493950658,
				"element": "C" 
			},
			{
				"x": -0.0876136442,
				"y": 2.3200782816,
				"z": 0.9083268637,
				"element": "C" 
			},
			{
				"x": -0.4360590321,
				"y": 1.2979187917,
				"z": 1.7865567411,
				"element": "C" 
			},
			{
				"x": 0.2963474012,
				"y": 1.0877393589,
				"z": 2.9187833831,
				"element": "O" 
			},
			{
				"x": -1.2605061992,
				"y": -0.1499322585,
				"z": 4.3869960156,
				"element": "H" 
			},
			{
				"x": -0.2229873264,
				"y": -1.2548271625,
				"z": 3.5126044724,
				"element": "H" 
			},
			{
				"x": -1.79111601,
				"y": -1.8453989434,
				"z": 4.1491816622,
				"element": "H" 
			},
			{
				"x": -3.4608465751,
				"y": -0.7169146527,
				"z": 0.745999313,
				"element": "H" 
			},
			{
				"x": -2.5362575065,
				"y": 1.8784463633,
				"z": -1.4338875486,
				"element": "H" 
			},
			{
				"x": -0.5645114431,
				"y": 3.3276982225,
				"z": -0.9286350421,
				"element": "H" 
			},
			{
				"x": 0.7705496844,
				"y": 2.9504502431,
				"z": 1.1281335653,
				"element": "H" 
			},
			{
				"x": 1.0106246698,
				"y": 1.7379158165,
				"z": 2.9475887494,
				"element": "H" 
			}
		],
		 "valence_orbital": [ 
			{
				"type": "occ",
				"energy": -0.35451,
				"method": "rhf"
			},
			{
				"type": "occ",
				"energy": -0.31982,
				"method": "rhf"
			},
			{
				"type": "occ",
				"energy": -0.25918,
				"method": "rhf"
			},
			{
				"type": "occ",
				"energy": -0.25002,
				"method": "rhf"
			},
			{
				"type": "occ",
				"energy": -0.21914,
				"method": "rhf"
			},
			{
				"type": "unocc",
				"energy": -0.05522,
				"method": "rhf"
			},
			{
				"type": "unocc",
				"energy": 0.0131,
				"method": "rhf"
			},
			{
				"type": "unocc",
				"energy": 0.03469,
				"method": "rhf"
			},
			{
				"type": "unocc",
				"energy": 0.05487,
				"method": "rhf"
			},
			{
				"type": "unocc",
				"energy": 0.09279,
				"method": "rhf"
			}
		],
		"cosmo_sigma_profile": { 
			"-0.025": 0.0,
			"-0.024": 0.0,
			"-0.023": 0.0,
			"-0.022": 0.0,
			"-0.021": 0.0,
			"-0.02": 0.0,
			"-0.019": 0.20815089581,
			"-0.018": 1.00148151632,
			"-0.017": 1.14624139191,
			"-0.016": 1.14093750014,
			"-0.015": 1.09218420863,
			"-0.014": 0.771291504063,
			"-0.013": 0.263709125363,
			"-0.012": 0.59751787842,
			"-0.011": 2.21955705212,
			"-0.01": 0.907086724243,
			"-0.009": 0.812420889607,
			"-0.008": 1.24100120376,
			"-0.007": 2.71505838862,
			"-0.006": 5.29018641698,
			"-0.005": 9.92223380859,
			"-0.004": 12.3304891819,
			"-0.003": 11.1521922931,
			"-0.002": 13.5808655679,
			"-0.001": 16.648065246,
			"0.0": 12.7727351926,
			"0.001": 10.1024380393,
			"0.002": 14.8719877673,
			"0.003": 14.3538412437,
			"0.004": 12.6682854913,
			"0.005": 9.75159765719,
			"0.006": 3.44268380295,
			"0.007": 1.98171701859,
			"0.008": 3.26290103731,
			"0.009": 2.7367813467,
			"0.01": 3.79335349112,
			"0.011": 2.88946182316,
			"0.012": 2.52521448969,
			"0.013": 0.481513874702,
			"0.014": 0.0,
			"0.015": 0.0,
			"0.016": 0.0,
			"0.017": 0.0,
			"0.018": 0.0,
			"0.019": 0.0,
			"0.02": 0.0,
			"0.021": 0.0,
			"0.022": 0.0,
			"0.023": 0.0,
			"0.024": 0.0,
			"0.025": 0.0
		}
	}
}
