{
	 "smiles": "CS(=O)(=O)NC1=CC(OCCN)=CC=C1", 
	 "Tm": 408.15, 
	 "num_atms": 29, 
	 "gaussian": { 
		 "optdone": 1, 
		 "sigma_profile": "yes", 
		 "theory": "DFT", 
		 "functional": "B3LYP", 
		 "basiset": "6-31G**", 
		 "properties": { 
			 "R2extent": 4992.3373, 
			 "electric_dipole_moment_norm": 4.49954247563, 
			 "electric_quadrupole_moment_norm": 10.7046384642, 
			 "total_energy": -1084.6772813, 
			 "HOMO_LUMO_gap": 0.20566, 
			 "cosmo_polarized_energy": -20.85, 
			 "cosmo_cavitation_energy": 33.72, 
			 "cosmo_dispersion_energy": -24.06, 
			 "cosmo_repulsion_energy": 1.88, 
			 "cosmo_total_nonelectrostatic_energy": 11.54, 
			 "SMD_solvation_energy": 4.23 
		},
		"coords": [
			{
				"x": -1.6311827014,
				"y": 1.7073949468,
				"z": 1.8886732422,
				"element": "C" 
			},
			{
				"x": -1.5626270163,
				"y": 0.2244917449,
				"z": 0.8601105115,
				"element": "S" 
			},
			{
				"x": -2.8616100101,
				"y": -0.4445865731,
				"z": 0.9133571569,
				"element": "O" 
			},
			{
				"x": -0.3218337409,
				"y": -0.4738847195,
				"z": 1.1970587739,
				"element": "O" 
			},
			{
				"x": -1.4445039519,
				"y": 0.7881188919,
				"z": -0.7303601981,
				"element": "N" 
			},
			{
				"x": -0.4378025451,
				"y": 1.6844541442,
				"z": -1.1851972928,
				"element": "C" 
			},
			{
				"x": 0.9095333599,
				"y": 1.4357564257,
				"z": -0.8845592718,
				"element": "C" 
			},
			{
				"x": 1.8902904885,
				"y": 2.3157743927,
				"z": -1.3550576073,
				"element": "C" 
			},
			{
				"x": 3.2227877864,
				"y": 2.1898636497,
				"z": -1.0984643869,
				"element": "O" 
			},
			{
				"x": 3.7011119954,
				"y": 1.0988255705,
				"z": -0.3054208112,
				"element": "C" 
			},
			{
				"x": 3.9008159722,
				"y": -0.1890528707,
				"z": -1.1201743978,
				"element": "C" 
			},
			{
				"x": 4.4429164417,
				"y": -1.3071849137,
				"z": -0.353520288,
				"element": "N" 
			},
			{
				"x": 1.5304889365,
				"y": 3.4154204694,
				"z": -2.150943749,
				"element": "C" 
			},
			{
				"x": 0.192663978,
				"y": 3.6313925424,
				"z": -2.456889204,
				"element": "C" 
			},
			{
				"x": -0.8045430867,
				"y": 2.7838632285,
				"z": -1.9679896573,
				"element": "C" 
			},
			{
				"x": -1.6345184517,
				"y": 1.3727172458,
				"z": 2.9273021391,
				"element": "H" 
			},
			{
				"x": -2.5464122018,
				"y": 2.2549956939,
				"z": 1.6607829014,
				"element": "H" 
			},
			{
				"x": -0.7478554314,
				"y": 2.3153478865,
				"z": 1.6881735931,
				"element": "H" 
			},
			{
				"x": -2.3721260742,
				"y": 0.9359067828,
				"z": -1.1131813046,
				"element": "H" 
			},
			{
				"x": 1.1574962042,
				"y": 0.5542522668,
				"z": -0.3112376417,
				"element": "H" 
			},
			{
				"x": 4.6655104225,
				"y": 1.4409199079,
				"z": 0.0850993576,
				"element": "H" 
			},
			{
				"x": 3.04033251,
				"y": 0.9228767959,
				"z": 0.5537139685,
				"element": "H" 
			},
			{
				"x": 4.5755138166,
				"y": 0.0304460284,
				"z": -1.9553665407,
				"element": "H" 
			},
			{
				"x": 2.949280501,
				"y": -0.5020797737,
				"z": -1.5624006957,
				"element": "H" 
			},
			{
				"x": 5.3256487459,
				"y": -1.051416394,
				"z": 0.0825372554,
				"element": "H" 
			},
			{
				"x": 3.806954354,
				"y": -1.5705538334,
				"z": 0.3952613757,
				"element": "H" 
			},
			{
				"x": 2.3117608399,
				"y": 4.0745510194,
				"z": -2.5128895766,
				"element": "H" 
			},
			{
				"x": -0.0847139163,
				"y": 4.4810665429,
				"z": -3.0738627645,
				"element": "H" 
			},
			{
				"x": -1.8502772248,
				"y": 2.9700229008,
				"z": -2.1958548871,
				"element": "H" 
			}
		],
		 "valence_orbital": [ 
			{
				"type": "occ",
				"energy": -0.31019,
				"method": "rhf"
			},
			{
				"type": "occ",
				"energy": -0.30388,
				"method": "rhf"
			},
			{
				"type": "occ",
				"energy": -0.24868,
				"method": "rhf"
			},
			{
				"type": "occ",
				"energy": -0.23867,
				"method": "rhf"
			},
			{
				"type": "occ",
				"energy": -0.21885,
				"method": "rhf"
			},
			{
				"type": "unocc",
				"energy": -0.01319,
				"method": "rhf"
			},
			{
				"type": "unocc",
				"energy": 0.0008,
				"method": "rhf"
			},
			{
				"type": "unocc",
				"energy": 0.05793,
				"method": "rhf"
			},
			{
				"type": "unocc",
				"energy": 0.0623,
				"method": "rhf"
			},
			{
				"type": "unocc",
				"energy": 0.07391,
				"method": "rhf"
			}
		],
		"cosmo_sigma_profile": { 
			"-0.025": 0.0,
			"-0.024": 0.0,
			"-0.023": 0.0,
			"-0.022": 0.0,
			"-0.021": 0.0,
			"-0.02": 0.0,
			"-0.019": 0.0,
			"-0.018": 0.0,
			"-0.017": 0.0,
			"-0.016": 0.243176860357,
			"-0.015": 1.08397361492,
			"-0.014": 1.26357595061,
			"-0.013": 0.715427102417,
			"-0.012": 1.53942214265,
			"-0.011": 1.48500190836,
			"-0.01": 3.33021174853,
			"-0.009": 7.77949138431,
			"-0.008": 9.30412730439,
			"-0.007": 11.4942991818,
			"-0.006": 14.9893061137,
			"-0.005": 18.4088793572,
			"-0.004": 23.0506577562,
			"-0.003": 18.6940399448,
			"-0.002": 14.6623933606,
			"-0.001": 12.1978020099,
			"0.0": 10.7201929307,
			"0.001": 9.53816863353,
			"0.002": 11.2466463387,
			"0.003": 12.8628112225,
			"0.004": 15.4497498133,
			"0.005": 13.5262033745,
			"0.006": 7.58474072464,
			"0.007": 5.38891421823,
			"0.008": 5.52566234808,
			"0.009": 5.77849183351,
			"0.01": 8.68371154231,
			"0.011": 11.5453056788,
			"0.012": 3.70861615514,
			"0.013": 0.47615101233,
			"0.014": 0.42123877568,
			"0.015": 0.797201044317,
			"0.016": 0.614170416059,
			"0.017": 0.727370981964,
			"0.018": 0.614397253128,
			"0.019": 0.506546521518,
			"0.02": 0.116133008408,
			"0.021": 0.0,
			"0.022": 0.0,
			"0.023": 0.0,
			"0.024": 0.0,
			"0.025": 0.0
		}
	}
}
