{
	 "smiles": "OC(=O)CCOC1=C(Br)C=CC=C1", 
	 "Tm": 385.15, 
	 "num_atms": 22, 
	 "gaussian": { 
		 "optdone": 1, 
		 "sigma_profile": "yes", 
		 "theory": "DFT", 
		 "functional": "B3LYP", 
		 "basiset": "6-31G**", 
		 "properties": { 
			 "R2extent": 4629.5968, 
			 "electric_dipole_moment_norm": 6.07865095807, 
			 "electric_quadrupole_moment_norm": 22.0749853502, 
			 "total_energy": -3145.45921806, 
			 "HOMO_LUMO_gap": 0.21542, 
			 "cosmo_polarized_energy": -14.71, 
			 "cosmo_cavitation_energy": 28.37, 
			 "cosmo_dispersion_energy": -20.84, 
			 "cosmo_repulsion_energy": 1.64, 
			 "cosmo_total_nonelectrostatic_energy": 9.17, 
			 "SMD_solvation_energy": 5.04 
		},
		"coords": [
			{
				"x": -1.1734068024,
				"y": -1.410648321,
				"z": -3.2745731179,
				"element": "O" 
			},
			{
				"x": -1.2220490369,
				"y": -2.5988918082,
				"z": -2.6383896048,
				"element": "C" 
			},
			{
				"x": -1.6952105383,
				"y": -3.5738399267,
				"z": -3.1702557155,
				"element": "O" 
			},
			{
				"x": -0.6159858299,
				"y": -2.6389710573,
				"z": -1.2322182916,
				"element": "C" 
			},
			{
				"x": -1.0527206437,
				"y": -1.5155128343,
				"z": -0.295729662,
				"element": "C" 
			},
			{
				"x": -0.5300409102,
				"y": -0.2898281952,
				"z": -0.8242148498,
				"element": "O" 
			},
			{
				"x": -0.796176114,
				"y": 0.8888149618,
				"z": -0.1852145043,
				"element": "C" 
			},
			{
				"x": -0.3460724337,
				"y": 2.0670547402,
				"z": -0.8048232996,
				"element": "C" 
			},
			{
				"x": 0.5641754373,
				"y": 1.9607800637,
				"z": -2.4776836842,
				"element": "Br" 
			},
			{
				"x": -0.5622942514,
				"y": 3.3078032091,
				"z": -0.2162795188,
				"element": "C" 
			},
			{
				"x": -1.2373408949,
				"y": 3.3935464238,
				"z": 1.0035698888,
				"element": "C" 
			},
			{
				"x": -1.6909950716,
				"y": 2.2312529312,
				"z": 1.6220021751,
				"element": "C" 
			},
			{
				"x": -1.4747074196,
				"y": 0.9827154164,
				"z": 1.0342637219,
				"element": "C" 
			},
			{
				"x": -0.7804831321,
				"y": -0.7281301464,
				"z": -2.6999076763,
				"element": "H" 
			},
			{
				"x": -0.8888703294,
				"y": -3.6016887872,
				"z": -0.7956422398,
				"element": "H" 
			},
			{
				"x": 0.4770993123,
				"y": -2.6118609502,
				"z": -1.3236129468,
				"element": "H" 
			},
			{
				"x": -0.6489711613,
				"y": -1.6871576866,
				"z": 0.709344874,
				"element": "H" 
			},
			{
				"x": -2.146492973,
				"y": -1.4539478605,
				"z": -0.2255935009,
				"element": "H" 
			},
			{
				"x": -0.2046830903,
				"y": 4.2005450377,
				"z": -0.7167823984,
				"element": "H" 
			},
			{
				"x": -1.4050634414,
				"y": 4.363952439,
				"z": 1.4590715391,
				"element": "H" 
			},
			{
				"x": -2.2192106244,
				"y": 2.2854415848,
				"z": 2.5688524142,
				"element": "H" 
			},
			{
				"x": -1.8346000509,
				"y": 0.0884707657,
				"z": 1.5287163978,
				"element": "H" 
			}
		],
		 "valence_orbital": [ 
			{
				"type": "occ",
				"energy": -0.30431,
				"method": "rhf"
			},
			{
				"type": "occ",
				"energy": -0.2977,
				"method": "rhf"
			},
			{
				"type": "occ",
				"energy": -0.26463,
				"method": "rhf"
			},
			{
				"type": "occ",
				"energy": -0.26201,
				"method": "rhf"
			},
			{
				"type": "occ",
				"energy": -0.24349,
				"method": "rhf"
			},
			{
				"type": "unocc",
				"energy": -0.02807,
				"method": "rhf"
			},
			{
				"type": "unocc",
				"energy": -0.01498,
				"method": "rhf"
			},
			{
				"type": "unocc",
				"energy": -0.00471,
				"method": "rhf"
			},
			{
				"type": "unocc",
				"energy": 0.01353,
				"method": "rhf"
			},
			{
				"type": "unocc",
				"energy": 0.08208,
				"method": "rhf"
			}
		],
		"cosmo_sigma_profile": { 
			"-0.025": 0.0,
			"-0.024": 0.0,
			"-0.023": 0.0,
			"-0.022": 0.0,
			"-0.021": 0.0,
			"-0.02": 0.0,
			"-0.019": 0.0,
			"-0.018": 0.0,
			"-0.017": 0.0,
			"-0.016": 0.0,
			"-0.015": 0.0,
			"-0.014": 0.0,
			"-0.013": 0.0,
			"-0.012": 0.0,
			"-0.011": 0.0,
			"-0.01": 0.0,
			"-0.009": 0.0438540481181,
			"-0.008": 5.02905068645,
			"-0.007": 17.8041423125,
			"-0.006": 21.6493378715,
			"-0.005": 18.4505048663,
			"-0.004": 15.3699430395,
			"-0.003": 13.0460804277,
			"-0.002": 11.4065653678,
			"-0.001": 10.8769034534,
			"0.0": 10.7284523718,
			"0.001": 13.7531501559,
			"0.002": 16.5084587085,
			"0.003": 18.8292542359,
			"0.004": 18.5487284934,
			"0.005": 7.30155143464,
			"0.006": 3.19405249812,
			"0.007": 2.39376735714,
			"0.008": 1.95328858871,
			"0.009": 3.55405745552,
			"0.01": 3.85687097725,
			"0.011": 5.74014371547,
			"0.012": 6.00484486397,
			"0.013": 3.17670546062,
			"0.014": 0.340878253789,
			"0.015": 0.0,
			"0.016": 0.0,
			"0.017": 0.0,
			"0.018": 0.0,
			"0.019": 0.0,
			"0.02": 0.0,
			"0.021": 0.0,
			"0.022": 0.0,
			"0.023": 0.0,
			"0.024": 0.0,
			"0.025": 0.0
		}
	}
}
