{
	 "smiles": "CC(C)N=C1C=C2N(C3=CC=C(Cl)C=C3)C3=CC=CC=C3N=C2C=C1NC1=CC=C(Cl)C=C1", 
	 "Tm": 484.15, 
	 "num_atms": 55, 
	 "gaussian": { 
		 "optdone": 1, 
		 "sigma_profile": "yes", 
		 "theory": "DFT", 
		 "functional": "B3LYP", 
		 "basiset": "6-31G**", 
		 "properties": { 
			 "R2extent": 23238.9361, 
			 "electric_dipole_moment_norm": 5.03819780874, 
			 "electric_quadrupole_moment_norm": 21.5057969838, 
			 "total_energy": -2181.52605904, 
			 "HOMO_LUMO_gap": 0.10517, 
			 "cosmo_polarized_energy": -14.01, 
			 "cosmo_cavitation_energy": 61.55, 
			 "cosmo_dispersion_energy": -41.72, 
			 "cosmo_repulsion_energy": 3.15, 
			 "cosmo_total_nonelectrostatic_energy": 22.97, 
			 "SMD_solvation_energy": 6.21 
		},
		"coords": [
			{
				"x": -2.1862926304,
				"y": 0.417190765,
				"z": -2.7853821157,
				"element": "C" 
			},
			{
				"x": -1.7123209964,
				"y": -1.0380360716,
				"z": -2.6054749203,
				"element": "C" 
			},
			{
				"x": -0.3756446412,
				"y": -1.3252372364,
				"z": -3.3167076645,
				"element": "C" 
			},
			{
				"x": -1.7450592467,
				"y": -1.4920547261,
				"z": -1.2151590565,
				"element": "N" 
			},
			{
				"x": -1.0044245033,
				"y": -1.0277956933,
				"z": -0.255756668,
				"element": "C" 
			},
			{
				"x": -0.002487812,
				"y": 0.0115096155,
				"z": -0.296875541,
				"element": "C" 
			},
			{
				"x": 0.7268382742,
				"y": 0.3681978296,
				"z": 0.8077144222,
				"element": "C" 
			},
			{
				"x": 1.6950270226,
				"y": 1.3672988068,
				"z": 0.7873963306,
				"element": "N" 
			},
			{
				"x": 1.9411057583,
				"y": 2.0743486536,
				"z": -0.4411885864,
				"element": "C" 
			},
			{
				"x": 1.2081781944,
				"y": 3.22537034,
				"z": -0.7398951044,
				"element": "C" 
			},
			{
				"x": 1.4405555131,
				"y": 3.9124627178,
				"z": -1.931127657,
				"element": "C" 
			},
			{
				"x": 2.4089758248,
				"y": 3.4340809858,
				"z": -2.8148545753,
				"element": "C" 
			},
			{
				"x": 2.7062064559,
				"y": 4.2946248932,
				"z": -4.3139184471,
				"element": "Cl" 
			},
			{
				"x": 3.1456396737,
				"y": 2.2840089356,
				"z": -2.5279536354,
				"element": "C" 
			},
			{
				"x": 2.9061788138,
				"y": 1.6031041289,
				"z": -1.3345848301,
				"element": "C" 
			},
			{
				"x": 2.4398525613,
				"y": 1.6872931765,
				"z": 1.9287143882,
				"element": "C" 
			},
			{
				"x": 3.4248849913,
				"y": 2.6882087857,
				"z": 1.9298362832,
				"element": "C" 
			},
			{
				"x": 4.1342871079,
				"y": 2.9596612196,
				"z": 3.0945335043,
				"element": "C" 
			},
			{
				"x": 3.8790525234,
				"y": 2.2449883281,
				"z": 4.2748814383,
				"element": "C" 
			},
			{
				"x": 2.9071112615,
				"y": 1.2577616793,
				"z": 4.2799065321,
				"element": "C" 
			},
			{
				"x": 2.1689001682,
				"y": 0.9575456014,
				"z": 3.116969254,
				"element": "C" 
			},
			{
				"x": 1.2118852627,
				"y": -0.0260667741,
				"z": 3.1785999074,
				"element": "N" 
			},
			{
				"x": 0.5204317336,
				"y": -0.3113306783,
				"z": 2.0975623884,
				"element": "C" 
			},
			{
				"x": -0.4784152165,
				"y": -1.3325567518,
				"z": 2.164829557,
				"element": "C" 
			},
			{
				"x": -1.236224058,
				"y": -1.6826577683,
				"z": 1.0788319997,
				"element": "C" 
			},
			{
				"x": -2.2076101855,
				"y": -2.640345013,
				"z": 1.0273877582,
				"element": "N" 
			},
			{
				"x": -2.8243110669,
				"y": -3.3961756135,
				"z": 2.0257792659,
				"element": "C" 
			},
			{
				"x": -3.4071274148,
				"y": -4.6216769203,
				"z": 1.6514357884,
				"element": "C" 
			},
			{
				"x": -4.0752648308,
				"y": -5.4127161466,
				"z": 2.5789118855,
				"element": "C" 
			},
			{
				"x": -4.1640179764,
				"y": -4.9876798891,
				"z": 3.904982926,
				"element": "C" 
			},
			{
				"x": -4.9936398754,
				"y": -5.9909220105,
				"z": 5.0881564378,
				"element": "Cl" 
			},
			{
				"x": -3.6054292864,
				"y": -3.7732832456,
				"z": 4.2966673848,
				"element": "C" 
			},
			{
				"x": -2.9447450959,
				"y": -2.9773619735,
				"z": 3.3622449161,
				"element": "C" 
			},
			{
				"x": -3.1425240764,
				"y": 0.5687216156,
				"z": -2.2757346443,
				"element": "H" 
			},
			{
				"x": -2.3295111954,
				"y": 0.6329288365,
				"z": -3.8496442297,
				"element": "H" 
			},
			{
				"x": -1.4747823155,
				"y": 1.1468575957,
				"z": -2.389602648,
				"element": "H" 
			},
			{
				"x": -2.4609388851,
				"y": -1.6608363754,
				"z": -3.1129110599,
				"element": "H" 
			},
			{
				"x": -0.0862912166,
				"y": -2.3702547437,
				"z": -3.1701953068,
				"element": "H" 
			},
			{
				"x": 0.4414682326,
				"y": -0.6961039132,
				"z": -2.9539233961,
				"element": "H" 
			},
			{
				"x": -0.481632324,
				"y": -1.1491043395,
				"z": -4.3925782248,
				"element": "H" 
			},
			{
				"x": 0.1748195049,
				"y": 0.5145298073,
				"z": -1.2339292141,
				"element": "H" 
			},
			{
				"x": 0.4593982594,
				"y": 3.5803169224,
				"z": -0.0392707693,
				"element": "H" 
			},
			{
				"x": 0.8791676296,
				"y": 4.8081581592,
				"z": -2.1715970264,
				"element": "H" 
			},
			{
				"x": 3.8940010473,
				"y": 1.9284501577,
				"z": -3.2270904068,
				"element": "H" 
			},
			{
				"x": 3.4677158869,
				"y": 0.706597442,
				"z": -1.0926788838,
				"element": "H" 
			},
			{
				"x": 3.6326474314,
				"y": 3.2480046509,
				"z": 1.0257933569,
				"element": "H" 
			},
			{
				"x": 4.8935750507,
				"y": 3.7358366444,
				"z": 3.0818946525,
				"element": "H" 
			},
			{
				"x": 4.4395886185,
				"y": 2.4654248112,
				"z": 5.1778738574,
				"element": "H" 
			},
			{
				"x": 2.6778343694,
				"y": 0.6830745232,
				"z": 5.1712773078,
				"element": "H" 
			},
			{
				"x": -0.5775202014,
				"y": -1.8257023278,
				"z": 3.121750145,
				"element": "H" 
			},
			{
				"x": -2.5168442319,
				"y": -2.7595314027,
				"z": 0.058316725,
				"element": "H" 
			},
			{
				"x": -3.3238443191,
				"y": -4.9559448443,
				"z": 0.6210713604,
				"element": "H" 
			},
			{
				"x": -4.5169647112,
				"y": -6.3564317267,
				"z": 2.2784190575,
				"element": "H" 
			},
			{
				"x": -3.6961733355,
				"y": -3.4406087437,
				"z": 5.3249161944,
				"element": "H" 
			},
			{
				"x": -2.5581855228,
				"y": -2.0148426993,
				"z": 3.6707795868,
				"element": "H" 
			}
		],
		 "valence_orbital": [ 
			{
				"type": "occ",
				"energy": -0.26004,
				"method": "rhf"
			},
			{
				"type": "occ",
				"energy": -0.24328,
				"method": "rhf"
			},
			{
				"type": "occ",
				"energy": -0.23679,
				"method": "rhf"
			},
			{
				"type": "occ",
				"energy": -0.19879,
				"method": "rhf"
			},
			{
				"type": "occ",
				"energy": -0.18623,
				"method": "rhf"
			},
			{
				"type": "unocc",
				"energy": -0.08106,
				"method": "rhf"
			},
			{
				"type": "unocc",
				"energy": -0.04103,
				"method": "rhf"
			},
			{
				"type": "unocc",
				"energy": -0.03985,
				"method": "rhf"
			},
			{
				"type": "unocc",
				"energy": -0.0165,
				"method": "rhf"
			},
			{
				"type": "unocc",
				"energy": -0.01154,
				"method": "rhf"
			}
		],
		"cosmo_sigma_profile": { 
			"-0.025": 0.0,
			"-0.024": 0.0,
			"-0.023": 0.0,
			"-0.022": 0.0,
			"-0.021": 0.0,
			"-0.02": 0.0,
			"-0.019": 0.0,
			"-0.018": 0.0,
			"-0.017": 0.0,
			"-0.016": 0.0,
			"-0.015": 0.0,
			"-0.014": 0.0,
			"-0.013": 0.0,
			"-0.012": 0.0,
			"-0.011": 0.0,
			"-0.01": 0.360421651872,
			"-0.009": 1.00781120699,
			"-0.008": 6.65824622157,
			"-0.007": 15.2149459551,
			"-0.006": 22.4169977972,
			"-0.005": 23.3093627375,
			"-0.004": 25.164613143,
			"-0.003": 34.4566913255,
			"-0.002": 38.236768499,
			"-0.001": 44.2093190723,
			"0.0": 47.5702551077,
			"0.001": 57.6013866746,
			"0.002": 49.1316434856,
			"0.003": 46.9407527122,
			"0.004": 44.9853822799,
			"0.005": 23.0458765208,
			"0.006": 4.05293696796,
			"0.007": 3.74687575069,
			"0.008": 3.47607697629,
			"0.009": 2.14035705217,
			"0.01": 0.519172000286,
			"0.011": 0.693202059706,
			"0.012": 0.965012499092,
			"0.013": 0.735185510632,
			"0.014": 0.831651667182,
			"0.015": 0.539347928906,
			"0.016": 0.0146328904816,
			"0.017": 0.0,
			"0.018": 0.0,
			"0.019": 0.0,
			"0.02": 0.0,
			"0.021": 0.0,
			"0.022": 0.0,
			"0.023": 0.0,
			"0.024": 0.0,
			"0.025": 0.0
		}
	}
}
