{
	 "smiles": "OC(=O)C1=NN(C=CC1=O)C1=CC(F)=CC=C1", 
	 "Tm": 493.15, 
	 "num_atms": 24, 
	 "gaussian": { 
		 "optdone": 1, 
		 "sigma_profile": "yes", 
		 "theory": "DFT", 
		 "functional": "B3LYP", 
		 "basiset": "6-31G**", 
		 "properties": { 
			 "R2extent": 4962.4413, 
			 "electric_dipole_moment_norm": 4.57663028221, 
			 "electric_quadrupole_moment_norm": 10.7809048317, 
			 "total_energy": -858.359380769, 
			 "HOMO_LUMO_gap": 0.16468, 
			 "cosmo_polarized_energy": -21.06, 
			 "cosmo_cavitation_energy": 30.87, 
			 "cosmo_dispersion_energy": -22.14, 
			 "cosmo_repulsion_energy": 1.69, 
			 "cosmo_total_nonelectrostatic_energy": 10.42, 
			 "SMD_solvation_energy": 7.55 
		},
		"coords": [
			{
				"x": -0.4512738288,
				"y": 1.3697811634,
				"z": 4.1322450251,
				"element": "O" 
			},
			{
				"x": -0.4005148853,
				"y": 1.8389968807,
				"z": 2.8726654205,
				"element": "C" 
			},
			{
				"x": 0.0993699984,
				"y": 2.8972240008,
				"z": 2.5657197599,
				"element": "O" 
			},
			{
				"x": -1.0105062364,
				"y": 0.8698332249,
				"z": 1.8915339862,
				"element": "C" 
			},
			{
				"x": -0.323446727,
				"y": 0.741160443,
				"z": 0.7909592531,
				"element": "N" 
			},
			{
				"x": -0.7653871266,
				"y": -0.0965567447,
				"z": -0.161316603,
				"element": "N" 
			},
			{
				"x": -1.8984159347,
				"y": -0.8600331008,
				"z": 0.0097941215,
				"element": "C" 
			},
			{
				"x": -2.6659467054,
				"y": -0.7415227531,
				"z": 1.1205645473,
				"element": "C" 
			},
			{
				"x": -2.3112124039,
				"y": 0.2031644876,
				"z": 2.1706092635,
				"element": "C" 
			},
			{
				"x": -2.9971043858,
				"y": 0.4379718616,
				"z": 3.1617250667,
				"element": "O" 
			},
			{
				"x": 0.0431859139,
				"y": -0.1769228852,
				"z": -1.3425583857,
				"element": "C" 
			},
			{
				"x": -0.5533386541,
				"y": -0.4713367754,
				"z": -2.5726651029,
				"element": "C" 
			},
			{
				"x": 0.262756574,
				"y": -0.5625780559,
				"z": -3.694374975,
				"element": "C" 
			},
			{
				"x": -0.3138164987,
				"y": -0.845294569,
				"z": -4.8780558295,
				"element": "F" 
			},
			{
				"x": 1.6351657597,
				"y": -0.3555624287,
				"z": -3.6395858447,
				"element": "C" 
			},
			{
				"x": 2.2022928266,
				"y": -0.0430481635,
				"z": -2.4028734691,
				"element": "C" 
			},
			{
				"x": 1.4213063688,
				"y": 0.04522415,
				"z": -1.2521866738,
				"element": "C" 
			},
			{
				"x": -0.0608065615,
				"y": 2.0598034137,
				"z": 4.6952056781,
				"element": "H" 
			},
			{
				"x": -2.1100387483,
				"y": -1.5666458161,
				"z": -0.7826624269,
				"element": "H" 
			},
			{
				"x": -3.5517154785,
				"y": -1.35301504,
				"z": 1.246825377,
				"element": "H" 
			},
			{
				"x": -1.6232536688,
				"y": -0.5930985011,
				"z": -2.6896637429,
				"element": "H" 
			},
			{
				"x": 2.2284654361,
				"y": -0.4320458612,
				"z": -4.5435110219,
				"element": "H" 
			},
			{
				"x": 3.2718738566,
				"y": 0.1272029182,
				"z": -2.3327637945,
				"element": "H" 
			},
			{
				"x": 1.8591611097,
				"y": 0.2901981509,
				"z": -0.293429629,
				"element": "H" 
			}
		],
		 "valence_orbital": [ 
			{
				"type": "occ",
				"energy": -0.29194,
				"method": "rhf"
			},
			{
				"type": "occ",
				"energy": -0.28125,
				"method": "rhf"
			},
			{
				"type": "occ",
				"energy": -0.27016,
				"method": "rhf"
			},
			{
				"type": "occ",
				"energy": -0.2423,
				"method": "rhf"
			},
			{
				"type": "occ",
				"energy": -0.23585,
				"method": "rhf"
			},
			{
				"type": "unocc",
				"energy": -0.07117,
				"method": "rhf"
			},
			{
				"type": "unocc",
				"energy": -0.0557,
				"method": "rhf"
			},
			{
				"type": "unocc",
				"energy": -0.02607,
				"method": "rhf"
			},
			{
				"type": "unocc",
				"energy": -0.01091,
				"method": "rhf"
			},
			{
				"type": "unocc",
				"energy": 0.01997,
				"method": "rhf"
			}
		],
		"cosmo_sigma_profile": { 
			"-0.025": 0.0,
			"-0.024": 0.0,
			"-0.023": 0.0,
			"-0.022": 0.0,
			"-0.021": 0.0,
			"-0.02": 0.0,
			"-0.019": 0.575551702656,
			"-0.018": 1.04478078751,
			"-0.017": 0.966834935329,
			"-0.016": 0.57459780946,
			"-0.015": 0.636797694821,
			"-0.014": 1.0101289131,
			"-0.013": 0.737603738754,
			"-0.012": 1.37158628675,
			"-0.011": 3.28625746351,
			"-0.01": 3.32608874039,
			"-0.009": 3.93150905231,
			"-0.008": 7.90690653006,
			"-0.007": 10.8260054222,
			"-0.006": 11.3939146594,
			"-0.005": 12.9234608953,
			"-0.004": 14.0017172431,
			"-0.003": 15.7068910723,
			"-0.002": 13.6731353449,
			"-0.001": 16.4526200576,
			"0.0": 20.183928642,
			"0.001": 17.3062820895,
			"0.002": 14.6610425298,
			"0.003": 14.6815893022,
			"0.004": 13.0718783828,
			"0.005": 3.39406763078,
			"0.006": 3.84560641095,
			"0.007": 4.99591354072,
			"0.008": 2.86998742862,
			"0.009": 4.42971635954,
			"0.01": 6.22221231285,
			"0.011": 7.56540176578,
			"0.012": 4.96778005345,
			"0.013": 5.93617354178,
			"0.014": 4.03865636704,
			"0.015": 0.663728730907,
			"0.016": 0.0,
			"0.017": 0.0,
			"0.018": 0.0,
			"0.019": 0.0,
			"0.02": 0.0,
			"0.021": 0.0,
			"0.022": 0.0,
			"0.023": 0.0,
			"0.024": 0.0,
			"0.025": 0.0
		}
	}
}
