{
	 "smiles": "CC(C)N(C(C)C)C(Cl)=O", 
	 "Tm": 330.65, 
	 "num_atms": 24, 
	 "gaussian": { 
		 "optdone": 1, 
		 "sigma_profile": "yes", 
		 "theory": "DFT", 
		 "functional": "B3LYP", 
		 "basiset": "6-31G**", 
		 "properties": { 
			 "R2extent": 2593.4873, 
			 "electric_dipole_moment_norm": 4.52952438121, 
			 "electric_quadrupole_moment_norm": 10.8561252208, 
			 "total_energy": -865.375229384, 
			 "HOMO_LUMO_gap": 0.27203, 
			 "cosmo_polarized_energy": -7.56, 
			 "cosmo_cavitation_energy": 26.47, 
			 "cosmo_dispersion_energy": -18.81, 
			 "cosmo_repulsion_energy": 1.51, 
			 "cosmo_total_nonelectrostatic_energy": 9.17, 
			 "SMD_solvation_energy": 5.39 
		},
		"coords": [
			{
				"x": -0.4824446016,
				"y": -0.1197164008,
				"z": 2.1925293242,
				"element": "C" 
			},
			{
				"x": 0.2126167579,
				"y": -1.3893808041,
				"z": 1.6821438998,
				"element": "C" 
			},
			{
				"x": -0.4655216127,
				"y": -2.6767440535,
				"z": 2.1770989875,
				"element": "C" 
			},
			{
				"x": 0.445092228,
				"y": -1.3856197335,
				"z": 0.2115477831,
				"element": "N" 
			},
			{
				"x": -0.6003890278,
				"y": -1.009779559,
				"z": -0.7994900235,
				"element": "C" 
			},
			{
				"x": -1.9825098894,
				"y": -1.6052112812,
				"z": -0.5142764133,
				"element": "C" 
			},
			{
				"x": -0.6426138096,
				"y": 0.5039174781,
				"z": -1.0552559691,
				"element": "C" 
			},
			{
				"x": 1.6496571507,
				"y": -1.6609270047,
				"z": -0.3552906352,
				"element": "C" 
			},
			{
				"x": 2.9538476165,
				"y": -2.2683423876,
				"z": 0.7999639973,
				"element": "Cl" 
			},
			{
				"x": 1.9463599738,
				"y": -1.5792217407,
				"z": -1.5189756859,
				"element": "O" 
			},
			{
				"x": -0.4892018681,
				"y": -0.1473211712,
				"z": 3.2867696502,
				"element": "H" 
			},
			{
				"x": -1.5207584222,
				"y": -0.0316376734,
				"z": 1.8646178521,
				"element": "H" 
			},
			{
				"x": 0.0583055005,
				"y": 0.7786896688,
				"z": 1.883889269,
				"element": "H" 
			},
			{
				"x": 1.2100121915,
				"y": -1.3771910984,
				"z": 2.1168073996,
				"element": "H" 
			},
			{
				"x": 0.0595500264,
				"y": -3.5567248761,
				"z": 1.7958636116,
				"element": "H" 
			},
			{
				"x": -0.4251071663,
				"y": -2.7083028941,
				"z": 3.271027762,
				"element": "H" 
			},
			{
				"x": -1.5149344629,
				"y": -2.7423197125,
				"z": 1.8823241218,
				"element": "H" 
			},
			{
				"x": -0.2434605888,
				"y": -1.4724861235,
				"z": -1.7204663356,
				"element": "H" 
			},
			{
				"x": -2.6281286597,
				"y": -1.3865642949,
				"z": -1.370882176,
				"element": "H" 
			},
			{
				"x": -1.9349733134,
				"y": -2.6914154378,
				"z": -0.4033952333,
				"element": "H" 
			},
			{
				"x": -2.4662825483,
				"y": -1.1834151707,
				"z": 0.3698271738,
				"element": "H" 
			},
			{
				"x": -1.0454818224,
				"y": 1.0630401574,
				"z": -0.2075142496,
				"element": "H" 
			},
			{
				"x": -1.279167487,
				"y": 0.7075646404,
				"z": -1.9229182592,
				"element": "H" 
			},
			{
				"x": 0.359033835,
				"y": 0.8790094732,
				"z": -1.2808458514,
				"element": "H" 
			}
		],
		 "valence_orbital": [ 
			{
				"type": "occ",
				"energy": -0.33995,
				"method": "rhf"
			},
			{
				"type": "occ",
				"energy": -0.31353,
				"method": "rhf"
			},
			{
				"type": "occ",
				"energy": -0.30805,
				"method": "rhf"
			},
			{
				"type": "occ",
				"energy": -0.27636,
				"method": "rhf"
			},
			{
				"type": "occ",
				"energy": -0.2579,
				"method": "rhf"
			},
			{
				"type": "unocc",
				"energy": 0.01413,
				"method": "rhf"
			},
			{
				"type": "unocc",
				"energy": 0.02195,
				"method": "rhf"
			},
			{
				"type": "unocc",
				"energy": 0.06661,
				"method": "rhf"
			},
			{
				"type": "unocc",
				"energy": 0.10203,
				"method": "rhf"
			},
			{
				"type": "unocc",
				"energy": 0.11239,
				"method": "rhf"
			}
		],
		"cosmo_sigma_profile": { 
			"-0.025": 0.0,
			"-0.024": 0.0,
			"-0.023": 0.0,
			"-0.022": 0.0,
			"-0.021": 0.0,
			"-0.02": 0.0,
			"-0.019": 0.0,
			"-0.018": 0.0,
			"-0.017": 0.0,
			"-0.016": 0.0,
			"-0.015": 0.0,
			"-0.014": 0.0,
			"-0.013": 0.0,
			"-0.012": 0.0,
			"-0.011": 0.0,
			"-0.01": 0.0,
			"-0.009": 0.0,
			"-0.008": 0.0,
			"-0.007": 0.0,
			"-0.006": 0.392235297469,
			"-0.005": 4.39357490202,
			"-0.004": 22.6437459236,
			"-0.003": 29.4488803689,
			"-0.002": 30.0153019199,
			"-0.001": 28.9682230418,
			"0.0": 29.5324672022,
			"0.001": 15.1392299428,
			"0.002": 7.28221743025,
			"0.003": 6.29740525759,
			"0.004": 6.35631674748,
			"0.005": 7.47338915012,
			"0.006": 4.58164042427,
			"0.007": 2.54358386579,
			"0.008": 2.01668875865,
			"0.009": 2.06614724399,
			"0.01": 2.9908748987,
			"0.011": 4.86784248437,
			"0.012": 1.49041831413,
			"0.013": 0.0,
			"0.014": 0.0,
			"0.015": 0.0,
			"0.016": 0.0,
			"0.017": 0.0,
			"0.018": 0.0,
			"0.019": 0.0,
			"0.02": 0.0,
			"0.021": 0.0,
			"0.022": 0.0,
			"0.023": 0.0,
			"0.024": 0.0,
			"0.025": 0.0
		}
	}
}
