{
	 "smiles": "ClC1=CC=C(C=C1)N1C(=O)C2ON=C(C2C1=O)C(=O)C1=CC=CC=C1", 
	 "Tm": 410.15, 
	 "num_atms": 36, 
	 "gaussian": { 
		 "optdone": 1, 
		 "sigma_profile": "yes", 
		 "theory": "DFT", 
		 "functional": "B3LYP", 
		 "basiset": "6-31G**", 
		 "properties": { 
			 "R2extent": 13995.7726, 
			 "electric_dipole_moment_norm": 1.96791067633, 
			 "electric_quadrupole_moment_norm": 17.2327408566, 
			 "total_energy": -1563.0859788, 
			 "HOMO_LUMO_gap": 0.15858, 
			 "cosmo_polarized_energy": -18.51, 
			 "cosmo_cavitation_energy": 43.96, 
			 "cosmo_dispersion_energy": -31.33, 
			 "cosmo_repulsion_energy": 2.35, 
			 "cosmo_total_nonelectrostatic_energy": 14.99, 
			 "SMD_solvation_energy": 8.51 
		},
		"coords": [
			{
				"x": 1.5054971319,
				"y": -4.5815698837,
				"z": 6.83887523,
				"element": "Cl" 
			},
			{
				"x": 1.3374474128,
				"y": -4.064353716,
				"z": 5.1702960696,
				"element": "C" 
			},
			{
				"x": 2.47686344,
				"y": -3.751048083,
				"z": 4.4304124769,
				"element": "C" 
			},
			{
				"x": 2.3435811848,
				"y": -3.3451358401,
				"z": 3.1044830769,
				"element": "C" 
			},
			{
				"x": 1.0717751489,
				"y": -3.2461293357,
				"z": 2.5306705048,
				"element": "C" 
			},
			{
				"x": -0.066615502,
				"y": -3.558153076,
				"z": 3.2813458244,
				"element": "C" 
			},
			{
				"x": 0.0664468932,
				"y": -3.973056986,
				"z": 4.604330549,
				"element": "C" 
			},
			{
				"x": 0.9307257135,
				"y": -2.8253361759,
				"z": 1.1689468777,
				"element": "N" 
			},
			{
				"x": 0.0226773083,
				"y": -3.4089167993,
				"z": 0.2682725082,
				"element": "C" 
			},
			{
				"x": -0.7195702258,
				"y": -4.333185915,
				"z": 0.5012515834,
				"element": "O" 
			},
			{
				"x": 0.1294807656,
				"y": -2.652590617,
				"z": -1.0591824676,
				"element": "C" 
			},
			{
				"x": -1.0881868521,
				"y": -1.8654107258,
				"z": -1.2577649194,
				"element": "O" 
			},
			{
				"x": -0.7741708005,
				"y": -0.5202845249,
				"z": -1.2868991462,
				"element": "N" 
			},
			{
				"x": 0.4851702131,
				"y": -0.3407124735,
				"z": -1.1014565283,
				"element": "C" 
			},
			{
				"x": 1.2429129364,
				"y": -1.6320907605,
				"z": -0.8718769162,
				"element": "C" 
			},
			{
				"x": 1.6922091476,
				"y": -1.7880224471,
				"z": 0.5911565216,
				"element": "C" 
			},
			{
				"x": 2.5422212012,
				"y": -1.1427636495,
				"z": 1.1544694455,
				"element": "O" 
			},
			{
				"x": 1.1994895035,
				"y": 0.9684885418,
				"z": -1.2591026761,
				"element": "C" 
			},
			{
				"x": 2.3868974654,
				"y": 0.8917336714,
				"z": -1.5555832629,
				"element": "O" 
			},
			{
				"x": 0.5104215381,
				"y": 2.2766106795,
				"z": -1.0889951447,
				"element": "C" 
			},
			{
				"x": 1.2471723975,
				"y": 3.4272424079,
				"z": -1.4234435299,
				"element": "C" 
			},
			{
				"x": 0.6855614064,
				"y": 4.6899862461,
				"z": -1.2752268225,
				"element": "C" 
			},
			{
				"x": -0.6173778974,
				"y": 4.8208591369,
				"z": -0.7835069866,
				"element": "C" 
			},
			{
				"x": -1.3530811075,
				"y": 3.684729722,
				"z": -0.4422902587,
				"element": "C" 
			},
			{
				"x": -0.795918485,
				"y": 2.4153479829,
				"z": -0.5916245577,
				"element": "C" 
			},
			{
				"x": 3.4587769841,
				"y": -3.8257599585,
				"z": 4.8834873493,
				"element": "H" 
			},
			{
				"x": 3.2239035604,
				"y": -3.0925514822,
				"z": 2.5279866694,
				"element": "H" 
			},
			{
				"x": -1.0500022567,
				"y": -3.4925104183,
				"z": 2.8339316765,
				"element": "H" 
			},
			{
				"x": -0.8108416045,
				"y": -4.2203399189,
				"z": 5.1910332569,
				"element": "H" 
			},
			{
				"x": 0.2188280454,
				"y": -3.3485684254,
				"z": -1.8955809284,
				"element": "H" 
			},
			{
				"x": 2.1126508656,
				"y": -1.7090017189,
				"z": -1.5275221836,
				"element": "H" 
			},
			{
				"x": 2.2575928346,
				"y": 3.3012275996,
				"z": -1.7966562966,
				"element": "H" 
			},
			{
				"x": 1.2597007981,
				"y": 5.5730320279,
				"z": -1.5393636402,
				"element": "H" 
			},
			{
				"x": -1.0564981674,
				"y": 5.8074172987,
				"z": -0.6651514864,
				"element": "H" 
			},
			{
				"x": -2.3631648889,
				"y": 3.7856240348,
				"z": -0.0569150428,
				"element": "H" 
			},
			{
				"x": -1.3754761087,
				"y": 1.5389935816,
				"z": -0.3309068251,
				"element": "H" 
			}
		],
		 "valence_orbital": [ 
			{
				"type": "occ",
				"energy": -0.274,
				"method": "rhf"
			},
			{
				"type": "occ",
				"energy": -0.27019,
				"method": "rhf"
			},
			{
				"type": "occ",
				"energy": -0.26641,
				"method": "rhf"
			},
			{
				"type": "occ",
				"energy": -0.26488,
				"method": "rhf"
			},
			{
				"type": "occ",
				"energy": -0.24949,
				"method": "rhf"
			},
			{
				"type": "unocc",
				"energy": -0.09091,
				"method": "rhf"
			},
			{
				"type": "unocc",
				"energy": -0.05419,
				"method": "rhf"
			},
			{
				"type": "unocc",
				"energy": -0.04378,
				"method": "rhf"
			},
			{
				"type": "unocc",
				"energy": -0.02759,
				"method": "rhf"
			},
			{
				"type": "unocc",
				"energy": -0.02412,
				"method": "rhf"
			}
		],
		"cosmo_sigma_profile": { 
			"-0.025": 0.0,
			"-0.024": 0.0,
			"-0.023": 0.0,
			"-0.022": 0.0,
			"-0.021": 0.0,
			"-0.02": 0.0,
			"-0.019": 0.0,
			"-0.018": 0.0,
			"-0.017": 0.0,
			"-0.016": 0.0,
			"-0.015": 0.0,
			"-0.014": 0.0,
			"-0.013": 0.103578879401,
			"-0.012": 0.915523442046,
			"-0.011": 2.68783653611,
			"-0.01": 8.32146680977,
			"-0.009": 6.14051677488,
			"-0.008": 6.47003489435,
			"-0.007": 15.9343089706,
			"-0.006": 20.9212115008,
			"-0.005": 22.618268473,
			"-0.004": 19.1697325078,
			"-0.003": 18.8633427156,
			"-0.002": 18.3184153253,
			"-0.001": 16.4399762835,
			"0.0": 22.4308094282,
			"0.001": 28.3474011316,
			"0.002": 32.5899532476,
			"0.003": 30.8492089801,
			"0.004": 23.167662933,
			"0.005": 10.4578377467,
			"0.006": 8.21005482383,
			"0.007": 9.07387976171,
			"0.008": 9.82306626933,
			"0.009": 9.15138058613,
			"0.01": 11.9371057605,
			"0.011": 4.2114729029,
			"0.012": 0.0,
			"0.013": 0.0,
			"0.014": 0.0,
			"0.015": 0.0,
			"0.016": 0.0,
			"0.017": 0.0,
			"0.018": 0.0,
			"0.019": 0.0,
			"0.02": 0.0,
			"0.021": 0.0,
			"0.022": 0.0,
			"0.023": 0.0,
			"0.024": 0.0,
			"0.025": 0.0
		}
	}
}
