{
	 "smiles": "ClC1=C(C=CC=N1)C(=O)N1CCCC1", 
	 "Tm": 351.15, 
	 "num_atms": 25, 
	 "gaussian": { 
		 "optdone": 1, 
		 "sigma_profile": "yes", 
		 "theory": "DFT", 
		 "functional": "B3LYP", 
		 "basiset": "6-31G**", 
		 "properties": { 
			 "R2extent": 3274.8343, 
			 "electric_dipole_moment_norm": 4.45378353538, 
			 "electric_quadrupole_moment_norm": 15.7399285303, 
			 "total_energy": -1032.61927969, 
			 "HOMO_LUMO_gap": 0.19978, 
			 "cosmo_polarized_energy": -13.16, 
			 "cosmo_cavitation_energy": 29.64, 
			 "cosmo_dispersion_energy": -21.35, 
			 "cosmo_repulsion_energy": 1.7, 
			 "cosmo_total_nonelectrostatic_energy": 9.99, 
			 "SMD_solvation_energy": 3.03 
		},
		"coords": [
			{
				"x": 2.6195405696,
				"y": -0.0101410968,
				"z": 0.8247640316,
				"element": "Cl" 
			},
			{
				"x": 1.8228325034,
				"y": 0.4822142504,
				"z": -0.6743220227,
				"element": "C" 
			},
			{
				"x": 0.4206513923,
				"y": 0.4834170485,
				"z": -0.743047054,
				"element": "C" 
			},
			{
				"x": -0.1342512482,
				"y": 0.9542730586,
				"z": -1.9376672529,
				"element": "C" 
			},
			{
				"x": 0.6955943625,
				"y": 1.3412847203,
				"z": -2.9873857628,
				"element": "C" 
			},
			{
				"x": 2.0735598348,
				"y": 1.2644325319,
				"z": -2.7980238604,
				"element": "C" 
			},
			{
				"x": 2.6298444752,
				"y": 0.8498295452,
				"z": -1.6521744572,
				"element": "N" 
			},
			{
				"x": -0.5093148097,
				"y": 0.15365718,
				"z": 0.4048562864,
				"element": "C" 
			},
			{
				"x": -1.1608215684,
				"y": 1.051790902,
				"z": 0.9342442189,
				"element": "O" 
			},
			{
				"x": -0.6215757469,
				"y": -1.1492698569,
				"z": 0.7689706808,
				"element": "N" 
			},
			{
				"x": -0.0066172973,
				"y": -2.3165824297,
				"z": 0.1149378694,
				"element": "C" 
			},
			{
				"x": -0.334190561,
				"y": -3.4663956648,
				"z": 1.0796664516,
				"element": "C" 
			},
			{
				"x": -1.6858278147,
				"y": -3.0500212419,
				"z": 1.6842268244,
				"element": "C" 
			},
			{
				"x": -1.5483867483,
				"y": -1.5298763487,
				"z": 1.8480657634,
				"element": "C" 
			},
			{
				"x": -1.2144596947,
				"y": 1.0187877303,
				"z": -2.026593499,
				"element": "H" 
			},
			{
				"x": 0.2857457449,
				"y": 1.7009783045,
				"z": -3.9251703265,
				"element": "H" 
			},
			{
				"x": 2.7660333782,
				"y": 1.5526235803,
				"z": -3.5856136504,
				"element": "H" 
			},
			{
				"x": 1.0684196281,
				"y": -2.17940489,
				"z": -0.0178793461,
				"element": "H" 
			},
			{
				"x": -0.4564113439,
				"y": -2.4887258626,
				"z": -0.8727786557,
				"element": "H" 
			},
			{
				"x": -0.3624918754,
				"y": -4.4351928356,
				"z": 0.5740210908,
				"element": "H" 
			},
			{
				"x": 0.4296300521,
				"y": -3.5178410936,
				"z": 1.8635213973,
				"element": "H" 
			},
			{
				"x": -1.9071644032,
				"y": -3.5521567236,
				"z": 2.6295468863,
				"element": "H" 
			},
			{
				"x": -2.4980367906,
				"y": -3.2812554274,
				"z": 0.9854114885,
				"element": "H" 
			},
			{
				"x": -2.4889012374,
				"y": -0.9831318421,
				"z": 1.7436376567,
				"element": "H" 
			},
			{
				"x": -1.1187008013,
				"y": -1.2584935383,
				"z": 2.8206852417,
				"element": "H" 
			}
		],
		 "valence_orbital": [ 
			{
				"type": "occ",
				"energy": -0.30306,
				"method": "rhf"
			},
			{
				"type": "occ",
				"energy": -0.28189,
				"method": "rhf"
			},
			{
				"type": "occ",
				"energy": -0.26627,
				"method": "rhf"
			},
			{
				"type": "occ",
				"energy": -0.2442,
				"method": "rhf"
			},
			{
				"type": "occ",
				"energy": -0.24065,
				"method": "rhf"
			},
			{
				"type": "unocc",
				"energy": -0.04087,
				"method": "rhf"
			},
			{
				"type": "unocc",
				"energy": -0.03117,
				"method": "rhf"
			},
			{
				"type": "unocc",
				"energy": 0.01865,
				"method": "rhf"
			},
			{
				"type": "unocc",
				"energy": 0.03561,
				"method": "rhf"
			},
			{
				"type": "unocc",
				"energy": 0.07713,
				"method": "rhf"
			}
		],
		"cosmo_sigma_profile": { 
			"-0.025": 0.0,
			"-0.024": 0.0,
			"-0.023": 0.0,
			"-0.022": 0.0,
			"-0.021": 0.0,
			"-0.02": 0.0,
			"-0.019": 0.0,
			"-0.018": 0.0,
			"-0.017": 0.0,
			"-0.016": 0.0,
			"-0.015": 0.0,
			"-0.014": 0.0,
			"-0.013": 0.0,
			"-0.012": 0.0,
			"-0.011": 0.0,
			"-0.01": 0.0,
			"-0.009": 0.419960246441,
			"-0.008": 4.51795480967,
			"-0.007": 7.11614166689,
			"-0.006": 6.93427962334,
			"-0.005": 9.62803264076,
			"-0.004": 24.4225459619,
			"-0.003": 30.8446295851,
			"-0.002": 28.0951944731,
			"-0.001": 23.7561535925,
			"0.0": 20.4301404196,
			"0.001": 15.4947596976,
			"0.002": 9.57244734864,
			"0.003": 11.4434084335,
			"0.004": 8.44441381322,
			"0.005": 5.06671658647,
			"0.006": 4.20955527505,
			"0.007": 2.667651364,
			"0.008": 3.09715903154,
			"0.009": 2.78126236279,
			"0.01": 2.38289765095,
			"0.011": 2.56016959175,
			"0.012": 2.85345948814,
			"0.013": 5.17476540813,
			"0.014": 4.85848735853,
			"0.015": 0.464038272475,
			"0.016": 0.0,
			"0.017": 0.0,
			"0.018": 0.0,
			"0.019": 0.0,
			"0.02": 0.0,
			"0.021": 0.0,
			"0.022": 0.0,
			"0.023": 0.0,
			"0.024": 0.0,
			"0.025": 0.0
		}
	}
}
