{
	 "smiles": "OC(=O)C1=CN(N=C1C1=CC=C(Cl)C=C1)C1=CC=CC=C1", 
	 "Tm": 520.15, 
	 "num_atms": 32, 
	 "gaussian": { 
		 "optdone": 1, 
		 "sigma_profile": "yes", 
		 "theory": "DFT", 
		 "functional": "B3LYP", 
		 "basiset": "6-31G**", 
		 "properties": { 
			 "R2extent": 9966.5609, 
			 "electric_dipole_moment_norm": 3.10420866083, 
			 "electric_quadrupole_moment_norm": 16.6849666356, 
			 "total_energy": -1336.48089846, 
			 "HOMO_LUMO_gap": 0.18102, 
			 "cosmo_polarized_energy": -13.75, 
			 "cosmo_cavitation_energy": 39.47, 
			 "cosmo_dispersion_energy": -28.54, 
			 "cosmo_repulsion_energy": 2.17, 
			 "cosmo_total_nonelectrostatic_energy": 13.1, 
			 "SMD_solvation_energy": 7.01 
		},
		"coords": [
			{
				"x": 2.4736160234,
				"y": -1.7016474143,
				"z": 0.9696649435,
				"element": "O" 
			},
			{
				"x": 2.2628116248,
				"y": -0.3874050582,
				"z": 0.7158453828,
				"element": "C" 
			},
			{
				"x": 3.1859524635,
				"y": 0.3942931619,
				"z": 0.5729214304,
				"element": "O" 
			},
			{
				"x": 0.8487516547,
				"y": 0.0025694858,
				"z": 0.6536047071,
				"element": "C" 
			},
			{
				"x": 0.5021635412,
				"y": 1.33849222,
				"z": 0.5249955346,
				"element": "C" 
			},
			{
				"x": -0.8460507642,
				"y": 1.4129424853,
				"z": 0.5790575948,
				"element": "N" 
			},
			{
				"x": -1.4139379858,
				"y": 0.1850296481,
				"z": 0.7224745653,
				"element": "N" 
			},
			{
				"x": -0.4062347098,
				"y": -0.6873640528,
				"z": 0.7709751641,
				"element": "C" 
			},
			{
				"x": -0.7415366969,
				"y": -2.1172897398,
				"z": 0.9339392856,
				"element": "C" 
			},
			{
				"x": -0.0350245417,
				"y": -3.1356100826,
				"z": 0.2776101503,
				"element": "C" 
			},
			{
				"x": -0.4122479043,
				"y": -4.470139152,
				"z": 0.4134123036,
				"element": "C" 
			},
			{
				"x": -1.5089660064,
				"y": -4.7919729786,
				"z": 1.2112104808,
				"element": "C" 
			},
			{
				"x": -1.9852626537,
				"y": -6.4751296464,
				"z": 1.3899867076,
				"element": "Cl" 
			},
			{
				"x": -2.2350300495,
				"y": -3.7993179813,
				"z": 1.8687303445,
				"element": "C" 
			},
			{
				"x": -1.8488457697,
				"y": -2.4697198641,
				"z": 1.7236242074,
				"element": "C" 
			},
			{
				"x": -1.6696201707,
				"y": 2.5699903686,
				"z": 0.4778719065,
				"element": "C" 
			},
			{
				"x": -3.0056558972,
				"y": 2.4257957799,
				"z": 0.0909366306,
				"element": "C" 
			},
			{
				"x": -3.8106664883,
				"y": 3.5580675925,
				"z": -0.0163142717,
				"element": "C" 
			},
			{
				"x": -3.2929154268,
				"y": 4.8271093021,
				"z": 0.2516898305,
				"element": "C" 
			},
			{
				"x": -1.9591215754,
				"y": 4.9587873847,
				"z": 0.6414157076,
				"element": "C" 
			},
			{
				"x": -1.1442279131,
				"y": 3.8341876671,
				"z": 0.7643921221,
				"element": "C" 
			},
			{
				"x": 3.4392018981,
				"y": -1.807044285,
				"z": 1.0044691388,
				"element": "H" 
			},
			{
				"x": 1.1427697293,
				"y": 2.1956999627,
				"z": 0.3937794297,
				"element": "H" 
			},
			{
				"x": 0.8144005295,
				"y": -2.8879666897,
				"z": -0.3461554256,
				"element": "H" 
			},
			{
				"x": 0.1351055263,
				"y": -5.252900993,
				"z": -0.0998421319,
				"element": "H" 
			},
			{
				"x": -3.0859963558,
				"y": -4.0649117049,
				"z": 2.4860767272,
				"element": "H" 
			},
			{
				"x": -2.4071620533,
				"y": -1.687528433,
				"z": 2.2261676677,
				"element": "H" 
			},
			{
				"x": -3.3900859517,
				"y": 1.4349459539,
				"z": -0.1165181352,
				"element": "H" 
			},
			{
				"x": -4.8478087066,
				"y": 3.4453812958,
				"z": -0.3175648859,
				"element": "H" 
			},
			{
				"x": -3.9244930273,
				"y": 5.7055617596,
				"z": 0.1626182554,
				"element": "H" 
			},
			{
				"x": -1.5490640089,
				"y": 5.9390284515,
				"z": 0.8647045578,
				"element": "H" 
			},
			{
				"x": -0.1184183334,
				"y": 3.9428655564,
				"z": 1.099720074,
				"element": "H" 
			}
		],
		 "valence_orbital": [ 
			{
				"type": "occ",
				"energy": -0.27126,
				"method": "rhf"
			},
			{
				"type": "occ",
				"energy": -0.26716,
				"method": "rhf"
			},
			{
				"type": "occ",
				"energy": -0.26034,
				"method": "rhf"
			},
			{
				"type": "occ",
				"energy": -0.2515,
				"method": "rhf"
			},
			{
				"type": "occ",
				"energy": -0.22698,
				"method": "rhf"
			},
			{
				"type": "unocc",
				"energy": -0.04596,
				"method": "rhf"
			},
			{
				"type": "unocc",
				"energy": -0.03891,
				"method": "rhf"
			},
			{
				"type": "unocc",
				"energy": -0.01753,
				"method": "rhf"
			},
			{
				"type": "unocc",
				"energy": -0.00999,
				"method": "rhf"
			},
			{
				"type": "unocc",
				"energy": 0.00387,
				"method": "rhf"
			}
		],
		"cosmo_sigma_profile": { 
			"-0.025": 0.0,
			"-0.024": 0.0,
			"-0.023": 0.0,
			"-0.022": 0.0,
			"-0.021": 0.0,
			"-0.02": 0.0,
			"-0.019": 0.0559419434668,
			"-0.018": 0.635222948585,
			"-0.017": 0.935575741908,
			"-0.016": 1.02887823488,
			"-0.015": 0.783652703337,
			"-0.014": 0.625799159984,
			"-0.013": 0.491320411318,
			"-0.012": 0.262908129868,
			"-0.011": 1.75574884631,
			"-0.01": 2.86375422864,
			"-0.009": 2.69994102313,
			"-0.008": 3.04886557273,
			"-0.007": 7.36516122884,
			"-0.006": 17.397614309,
			"-0.005": 19.7605446917,
			"-0.004": 17.856384799,
			"-0.003": 16.5697824587,
			"-0.002": 19.2576875924,
			"-0.001": 20.7086216921,
			"0.0": 26.2159220508,
			"0.001": 29.4603163424,
			"0.002": 28.2714445669,
			"0.003": 32.4958372434,
			"0.004": 29.1426923136,
			"0.005": 14.3184039601,
			"0.006": 5.32453288876,
			"0.007": 3.26792069667,
			"0.008": 4.18576929611,
			"0.009": 3.24090938331,
			"0.01": 2.08755948251,
			"0.011": 2.80492964207,
			"0.012": 5.11932853988,
			"0.013": 0.314228866654,
			"0.014": 0.0,
			"0.015": 0.0,
			"0.016": 0.0,
			"0.017": 0.0,
			"0.018": 0.0,
			"0.019": 0.0,
			"0.02": 0.0,
			"0.021": 0.0,
			"0.022": 0.0,
			"0.023": 0.0,
			"0.024": 0.0,
			"0.0": 0.0
		}
	}
}
