{
	 "smiles": "CCOC1=CC=CC2=CC=CC=C12", 
	 "Tm": 278.65, 
	 "num_atms": 25, 
	 "gaussian": { 
		 "optdone": 1, 
		 "sigma_profile": "yes", 
		 "theory": "DFT", 
		 "functional": "B3LYP", 
		 "basiset": "6-31G**", 
		 "properties": { 
			 "R2extent": 3052.7757, 
			 "electric_dipole_moment_norm": 1.54724373646, 
			 "electric_quadrupole_moment_norm": 10.8641276953, 
			 "total_energy": -539.742282231, 
			 "HOMO_LUMO_gap": 0.17092, 
			 "cosmo_polarized_energy": -6.04, 
			 "cosmo_cavitation_energy": 27.91, 
			 "cosmo_dispersion_energy": -20.69, 
			 "cosmo_repulsion_energy": 1.63, 
			 "cosmo_total_nonelectrostatic_energy": 8.85, 
			 "SMD_solvation_energy": 4.85 
		},
		"coords": [
			{
				"x": 3.9698247446,
				"y": -0.773085444,
				"z": 1.1116066909,
				"element": "C" 
			},
			{
				"x": 2.7549239946,
				"y": -0.2555445559,
				"z": 1.861665373,
				"element": "C" 
			},
			{
				"x": 1.7887826745,
				"y": 0.1464412151,
				"z": 0.8925560098,
				"element": "O" 
			},
			{
				"x": 0.5969076375,
				"y": 0.6521898128,
				"z": 1.3214581074,
				"element": "C" 
			},
			{
				"x": 0.2442139652,
				"y": 0.8087710636,
				"z": 2.6484249888,
				"element": "C" 
			},
			{
				"x": -1.0233332109,
				"y": 1.3458597283,
				"z": 2.9853853256,
				"element": "C" 
			},
			{
				"x": -1.9198796876,
				"y": 1.7187607134,
				"z": 2.0141812112,
				"element": "C" 
			},
			{
				"x": -1.5859030589,
				"y": 1.5698312139,
				"z": 0.6391328539,
				"element": "C" 
			},
			{
				"x": -2.4821911376,
				"y": 1.942269421,
				"z": -0.3983507012,
				"element": "C" 
			},
			{
				"x": -2.138853433,
				"y": 1.7897065746,
				"z": -1.7234190321,
				"element": "C" 
			},
			{
				"x": -0.8770668738,
				"y": 1.2549845505,
				"z": -2.0745888594,
				"element": "C" 
			},
			{
				"x": 0.0181689355,
				"y": 0.882650083,
				"z": -1.0948810831,
				"element": "C" 
			},
			{
				"x": -0.3110813284,
				"y": 1.0295427343,
				"z": 0.277192505,
				"element": "C" 
			},
			{
				"x": 4.7401313928,
				"y": -1.0939390619,
				"z": 1.8195960799,
				"element": "H" 
			},
			{
				"x": 3.700287081,
				"y": -1.6259545977,
				"z": 0.4823689202,
				"element": "H" 
			},
			{
				"x": 4.3902388766,
				"y": 0.008239656,
				"z": 0.4722658635,
				"element": "H" 
			},
			{
				"x": 3.0211075937,
				"y": 0.5998340974,
				"z": 2.4985693521,
				"element": "H" 
			},
			{
				"x": 2.330421229,
				"y": -1.0362224815,
				"z": 2.5085972369,
				"element": "H" 
			},
			{
				"x": 0.9243912328,
				"y": 0.5261858008,
				"z": 3.4424728191,
				"element": "H" 
			},
			{
				"x": -1.2781013964,
				"y": 1.4594990172,
				"z": 4.0353368827,
				"element": "H" 
			},
			{
				"x": -2.8895871804,
				"y": 2.1297183365,
				"z": 2.2803436558,
				"element": "H" 
			},
			{
				"x": -3.4508750026,
				"y": 2.3528199238,
				"z": -0.1247652214,
				"element": "H" 
			},
			{
				"x": -2.8370897458,
				"y": 2.0800090231,
				"z": -2.5034792162,
				"element": "H" 
			},
			{
				"x": -0.6145197977,
				"y": 1.1381106935,
				"z": -3.1221358435,
				"element": "H" 
			},
			{
				"x": 0.9866824954,
				"y": 0.4722224822,
				"z": -1.3562339189,
				"element": "H" 
			}
		],
		 "valence_orbital": [ 
			{
				"type": "occ",
				"energy": -0.31803,
				"method": "rhf"
			},
			{
				"type": "occ",
				"energy": -0.30874,
				"method": "rhf"
			},
			{
				"type": "occ",
				"energy": -0.25582,
				"method": "rhf"
			},
			{
				"type": "occ",
				"energy": -0.23716,
				"method": "rhf"
			},
			{
				"type": "occ",
				"energy": -0.1969,
				"method": "rhf"
			},
			{
				"type": "unocc",
				"energy": -0.02598,
				"method": "rhf"
			},
			{
				"type": "unocc",
				"energy": -0.00262,
				"method": "rhf"
			},
			{
				"type": "unocc",
				"energy": 0.04709,
				"method": "rhf"
			},
			{
				"type": "unocc",
				"energy": 0.09568,
				"method": "rhf"
			},
			{
				"type": "unocc",
				"energy": 0.10388,
				"method": "rhf"
			}
		],
		"cosmo_sigma_profile": { 
			"-0.025": 0.0,
			"-0.024": 0.0,
			"-0.023": 0.0,
			"-0.022": 0.0,
			"-0.021": 0.0,
			"-0.02": 0.0,
			"-0.019": 0.0,
			"-0.018": 0.0,
			"-0.017": 0.0,
			"-0.016": 0.0,
			"-0.015": 0.0,
			"-0.014": 0.0,
			"-0.013": 0.0,
			"-0.012": 0.0,
			"-0.011": 0.0,
			"-0.01": 0.0,
			"-0.009": 0.0,
			"-0.008": 0.0,
			"-0.007": 0.0560884566293,
			"-0.006": 5.68211349939,
			"-0.005": 19.2993477576,
			"-0.004": 23.7944583097,
			"-0.003": 26.154844261,
			"-0.002": 19.1576691773,
			"-0.001": 15.9366473675,
			"0.0": 16.4279912619,
			"0.001": 11.7552531675,
			"0.002": 11.6594831154,
			"0.003": 15.1305010904,
			"0.004": 21.8452248091,
			"0.005": 21.9304314382,
			"0.006": 11.1175529915,
			"0.007": 1.68482354349,
			"0.008": 0.462779394417,
			"0.009": 0.0,
			"0.01": 0.0,
			"0.011": 0.0,
			"0.012": 0.0,
			"0.013": 0.0,
			"0.014": 0.0,
			"0.015": 0.0,
			"0.016": 0.0,
			"0.017": 0.0,
			"0.018": 0.0,
			"0.019": 0.0,
			"0.02": 0.0,
			"0.021": 0.0,
			"0.022": 0.0,
			"0.023": 0.0,
			"0.024": 0.0,
			"0.025": 0.0
		}
	}
}
