{
	 "smiles": "NC1=CC(=NN1CCO)C1=CC=CS1", 
	 "Tm": 429.15, 
	 "num_atms": 25, 
	 "gaussian": { 
		 "optdone": 1, 
		 "sigma_profile": "yes", 
		 "theory": "DFT", 
		 "functional": "B3LYP", 
		 "basiset": "6-31G**", 
		 "properties": { 
			 "R2extent": 4419.1296, 
			 "electric_dipole_moment_norm": 2.87750478714, 
			 "electric_quadrupole_moment_norm": 11.1629877931, 
			 "total_energy": -987.208229331, 
			 "HOMO_LUMO_gap": 0.17484, 
			 "cosmo_polarized_energy": -17.68, 
			 "cosmo_cavitation_energy": 30.95, 
			 "cosmo_dispersion_energy": -22.98, 
			 "cosmo_repulsion_energy": 1.79, 
			 "cosmo_total_nonelectrostatic_energy": 9.77, 
			 "SMD_solvation_energy": 4.21 
		},
		"coords": [
			{
				"x": 1.1085428122,
				"y": -3.016272257,
				"z": -0.9426654145,
				"element": "N" 
			},
			{
				"x": 0.6771291858,
				"y": -1.690573122,
				"z": -0.8314577549,
				"element": "C" 
			},
			{
				"x": 0.5966103219,
				"y": -0.6708250984,
				"z": -1.7628300458,
				"element": "C" 
			},
			{
				"x": 0.1855902984,
				"y": 0.4666831303,
				"z": -1.0169786997,
				"element": "C" 
			},
			{
				"x": 0.0181568862,
				"y": 0.1712201092,
				"z": 0.2756195944,
				"element": "N" 
			},
			{
				"x": 0.3205158377,
				"y": -1.1544821514,
				"z": 0.3727740613,
				"element": "N" 
			},
			{
				"x": 0.3722550391,
				"y": -1.7750207786,
				"z": 1.6824329818,
				"element": "C" 
			},
			{
				"x": 1.754414634,
				"y": -1.649334499,
				"z": 2.3248902618,
				"element": "C" 
			},
			{
				"x": 1.669570507,
				"y": -2.2973253521,
				"z": 3.5858395375,
				"element": "O" 
			},
			{
				"x": -0.072841063,
				"y": 1.8193733142,
				"z": -1.4949117463,
				"element": "C" 
			},
			{
				"x": -0.5537375535,
				"y": 2.8939485393,
				"z": -0.783857398,
				"element": "C" 
			},
			{
				"x": -0.6827678367,
				"y": 4.0768875616,
				"z": -1.5671689494,
				"element": "C" 
			},
			{
				"x": -0.3015855531,
				"y": 3.8998563141,
				"z": -2.8693333537,
				"element": "C" 
			},
			{
				"x": 0.2274878346,
				"y": 2.2724521285,
				"z": -3.1587892695,
				"element": "S" 
			},
			{
				"x": 1.2644536371,
				"y": -3.2771721261,
				"z": -1.9082242408,
				"element": "H" 
			},
			{
				"x": 0.483423036,
				"y": -3.6870135947,
				"z": -0.5076525596,
				"element": "H" 
			},
			{
				"x": 0.7831206425,
				"y": -0.7438401341,
				"z": -2.8241195655,
				"element": "H" 
			},
			{
				"x": -0.3747515073,
				"y": -1.2835355682,
				"z": 2.3084513017,
				"element": "H" 
			},
			{
				"x": 0.1034712827,
				"y": -2.8330838046,
				"z": 1.6053506656,
				"element": "H" 
			},
			{
				"x": 2.0025327786,
				"y": -0.5822031249,
				"z": 2.4188632653,
				"element": "H" 
			},
			{
				"x": 2.5036232001,
				"y": -2.1186246858,
				"z": 1.6697317276,
				"element": "H" 
			},
			{
				"x": 2.5190937261,
				"y": -2.2016889502,
				"z": 4.0324489565,
				"element": "H" 
			},
			{
				"x": -0.803864464,
				"y": 2.8194161283,
				"z": 0.2673148359,
				"element": "H" 
			},
			{
				"x": -1.0464482237,
				"y": 5.0210692978,
				"z": -1.1771797492,
				"element": "H" 
			},
			{
				"x": -0.2974954587,
				"y": 4.6198887238,
				"z": -3.6755484423,
				"element": "H" 
			}
		],
		 "valence_orbital": [ 
			{
				"type": "occ",
				"energy": -0.27346,
				"method": "rhf"
			},
			{
				"type": "occ",
				"energy": -0.26607,
				"method": "rhf"
			},
			{
				"type": "occ",
				"energy": -0.24058,
				"method": "rhf"
			},
			{
				"type": "occ",
				"energy": -0.21552,
				"method": "rhf"
			},
			{
				"type": "occ",
				"energy": -0.19325,
				"method": "rhf"
			},
			{
				"type": "unocc",
				"energy": -0.01841,
				"method": "rhf"
			},
			{
				"type": "unocc",
				"energy": 0.03841,
				"method": "rhf"
			},
			{
				"type": "unocc",
				"energy": 0.03991,
				"method": "rhf"
			},
			{
				"type": "unocc",
				"energy": 0.05865,
				"method": "rhf"
			},
			{
				"type": "unocc",
				"energy": 0.07056,
				"method": "rhf"
			}
		],
		"cosmo_sigma_profile": { 
			"-0.025": 0.0,
			"-0.024": 0.0,
			"-0.023": 0.0,
			"-0.022": 0.0,
			"-0.021": 0.0,
			"-0.02": 0.0,
			"-0.019": 0.0,
			"-0.018": 0.0,
			"-0.017": 0.0993564679789,
			"-0.016": 0.81396391892,
			"-0.015": 1.16252768635,
			"-0.014": 1.34822829031,
			"-0.013": 2.96580856767,
			"-0.012": 5.06815959115,
			"-0.011": 3.92749939819,
			"-0.01": 3.27491134609,
			"-0.009": 4.08957792553,
			"-0.008": 6.13097536738,
			"-0.007": 6.21346573574,
			"-0.006": 10.1357656501,
			"-0.005": 11.4468336746,
			"-0.004": 14.0173231602,
			"-0.003": 15.7080676591,
			"-0.002": 13.7321540785,
			"-0.001": 13.2332408405,
			"0.0": 12.3659081267,
			"0.001": 11.9751554678,
			"0.002": 13.1597875398,
			"0.003": 16.1992353434,
			"0.004": 19.8546449793,
			"0.005": 21.7679746515,
			"0.006": 12.3442518482,
			"0.007": 5.01862278273,
			"0.008": 3.80495295648,
			"0.009": 3.14822413038,
			"0.01": 3.13165338394,
			"0.011": 2.91287876253,
			"0.012": 3.29063215766,
			"0.013": 3.58576248886,
			"0.014": 1.37021934337,
			"0.015": 0.153415242085,
			"0.016": 0.0,
			"0.017": 0.0,
			"0.018": 0.0,
			"0.019": 0.0,
			"0.02": 0.0,
			"0.021": 0.0,
			"0.022": 0.0,
			"0.023": 0.0,
			"0.024": 0.0,
			"0.025": 0.0
		}
	}
}
