{
	 "smiles": "COC(=O)C1(CC2=CC=CC=C2C(=O)O1)C(=O)OC", 
	 "Tm": 386.15, 
	 "num_atms": 31, 
	 "gaussian": { 
		 "optdone": 1, 
		 "sigma_profile": "yes", 
		 "theory": "DFT", 
		 "functional": "B3LYP", 
		 "basiset": "6-31G**", 
		 "properties": { 
			 "R2extent": 5059.4016, 
			 "electric_dipole_moment_norm": 2.86100577769, 
			 "electric_quadrupole_moment_norm": 26.8253227162, 
			 "total_energy": -953.974050864, 
			 "HOMO_LUMO_gap": 0.20713, 
			 "cosmo_polarized_energy": -16.35, 
			 "cosmo_cavitation_energy": 35.93, 
			 "cosmo_dispersion_energy": -24.38, 
			 "cosmo_repulsion_energy": 1.91, 
			 "cosmo_total_nonelectrostatic_energy": 13.46, 
			 "SMD_solvation_energy": 9.82 
		},
		"coords": [
			{
				"x": 0.0618464109,
				"y": -2.785755566,
				"z": -0.2322973778,
				"element": "C" 
			},
			{
				"x": 0.0184546956,
				"y": -1.3601964277,
				"z": -0.0262550164,
				"element": "O" 
			},
			{
				"x": -0.126863048,
				"y": -0.6273988161,
				"z": -1.132168896,
				"element": "C" 
			},
			{
				"x": -0.2114290511,
				"y": -1.068492794,
				"z": -2.2582147486,
				"element": "O" 
			},
			{
				"x": -0.1636282659,
				"y": 0.8906057613,
				"z": -0.8570736942,
				"element": "C" 
			},
			{
				"x": 0.9721243508,
				"y": 1.5810028043,
				"z": -1.6150052141,
				"element": "C" 
			},
			{
				"x": 2.2901006383,
				"y": 1.2762282748,
				"z": -0.9505853486,
				"element": "C" 
			},
			{
				"x": 3.4933709635,
				"y": 1.2174664517,
				"z": -1.6589966207,
				"element": "C" 
			},
			{
				"x": 4.6918628701,
				"y": 0.9599598067,
				"z": -0.9929894423,
				"element": "C" 
			},
			{
				"x": 4.7039208339,
				"y": 0.7586490958,
				"z": 0.3913950281,
				"element": "C" 
			},
			{
				"x": 3.5123631218,
				"y": 0.8149271812,
				"z": 1.1069470525,
				"element": "C" 
			},
			{
				"x": 2.3073715473,
				"y": 1.067518066,
				"z": 0.4384658804,
				"element": "C" 
			},
			{
				"x": 1.0555254087,
				"y": 1.1488611219,
				"z": 1.2373526078,
				"element": "C" 
			},
			{
				"x": 1.0173786104,
				"y": 1.210718783,
				"z": 2.4427861924,
				"element": "O" 
			},
			{
				"x": -0.1315492115,
				"y": 1.1922680538,
				"z": 0.5450354848,
				"element": "O" 
			},
			{
				"x": -1.5338100898,
				"y": 1.4330777437,
				"z": -1.3280873884,
				"element": "C" 
			},
			{
				"x": -1.6763709421,
				"y": 2.418172277,
				"z": -2.0135613483,
				"element": "O" 
			},
			{
				"x": -2.5283411725,
				"y": 0.6778355093,
				"z": -0.847850443,
				"element": "O" 
			},
			{
				"x": -3.8597131786,
				"y": 1.1183420549,
				"z": -1.1793059739,
				"element": "C" 
			},
			{
				"x": 0.1801500654,
				"y": -3.2186994896,
				"z": 0.7599247404,
				"element": "H" 
			},
			{
				"x": 0.9039934121,
				"y": -3.0512596644,
				"z": -0.8754287255,
				"element": "H" 
			},
			{
				"x": -0.8653472941,
				"y": -3.1277984573,
				"z": -0.6972654389,
				"element": "H" 
			},
			{
				"x": 0.9566848576,
				"y": 1.2446399928,
				"z": -2.6542188786,
				"element": "H" 
			},
			{
				"x": 0.7677167983,
				"y": 2.6574075539,
				"z": -1.6193511593,
				"element": "H" 
			},
			{
				"x": 3.4893285053,
				"y": 1.3717964812,
				"z": -2.7345668971,
				"element": "H" 
			},
			{
				"x": 5.6198356546,
				"y": 0.9135358972,
				"z": -1.5557436317,
				"element": "H" 
			},
			{
				"x": 5.6393919378,
				"y": 0.5604206197,
				"z": 0.9055424343,
				"element": "H" 
			},
			{
				"x": 3.487028807,
				"y": 0.670503342,
				"z": 2.1817504299,
				"element": "H" 
			},
			{
				"x": -4.0353574805,
				"y": 2.1208548658,
				"z": -0.7829640628,
				"element": "H" 
			},
			{
				"x": -4.5295003376,
				"y": 0.3971725896,
				"z": -0.7130316101,
				"element": "H" 
			},
			{
				"x": -3.9959394178,
				"y": 1.1304368876,
				"z": -2.263037934,
				"element": "H" 
			}
		],
		 "valence_orbital": [ 
			{
				"type": "occ",
				"energy": -0.2994,
				"method": "rhf"
			},
			{
				"type": "occ",
				"energy": -0.27584,
				"method": "rhf"
			},
			{
				"type": "occ",
				"energy": -0.2733,
				"method": "rhf"
			},
			{
				"type": "occ",
				"energy": -0.26447,
				"method": "rhf"
			},
			{
				"type": "occ",
				"energy": -0.26024,
				"method": "rhf"
			},
			{
				"type": "unocc",
				"energy": -0.05311,
				"method": "rhf"
			},
			{
				"type": "unocc",
				"energy": -0.02413,
				"method": "rhf"
			},
			{
				"type": "unocc",
				"energy": -0.01125,
				"method": "rhf"
			},
			{
				"type": "unocc",
				"energy": -0.00028,
				"method": "rhf"
			},
			{
				"type": "unocc",
				"energy": 0.051,
				"method": "rhf"
			}
		],
		"cosmo_sigma_profile": { 
			"-0.025": 0.0,
			"-0.024": 0.0,
			"-0.023": 0.0,
			"-0.022": 0.0,
			"-0.021": 0.0,
			"-0.02": 0.0,
			"-0.019": 0.0,
			"-0.018": 0.0,
			"-0.017": 0.0,
			"-0.016": 0.0,
			"-0.015": 0.0,
			"-0.014": 0.0,
			"-0.013": 0.0,
			"-0.012": 0.0,
			"-0.011": 0.0,
			"-0.01": 0.0,
			"-0.009": 0.0,
			"-0.008": 0.506480357004,
			"-0.007": 15.8794163426,
			"-0.006": 26.5464740971,
			"-0.005": 27.9273284882,
			"-0.004": 30.6553704635,
			"-0.003": 19.2802068386,
			"-0.002": 15.5687708707,
			"-0.001": 14.1721219972,
			"0.0": 16.196129774,
			"0.001": 16.5212092495,
			"0.002": 17.8589107595,
			"0.003": 17.0785505756,
			"0.004": 8.99861874739,
			"0.005": 7.45940346502,
			"0.006": 6.12081683822,
			"0.007": 6.23756260864,
			"0.008": 7.43513242563,
			"0.009": 8.27547282843,
			"0.01": 10.2579918643,
			"0.011": 10.0398530103,
			"0.012": 2.58617752405,
			"0.013": 0.491493065597,
			"0.014": 0.0,
			"0.015": 0.0,
			"0.016": 0.0,
			"0.017": 0.0,
			"0.018": 0.0,
			"0.019": 0.0,
			"0.02": 0.0,
			"0.021": 0.0,
			"0.022": 0.0,
			"0.023": 0.0,
			"0.024": 0.0,
			"0.025": 0.0
		}
	}
}
