{
	 "smiles": "CC1=NN(CCO)C(=C1C(O)=O)C(F)(F)F", 
	 "Tm": 425.15, 
	 "num_atms": 25, 
	 "gaussian": { 
		 "optdone": 1, 
		 "sigma_profile": "yes", 
		 "theory": "DFT", 
		 "functional": "B3LYP", 
		 "basiset": "6-31G**", 
		 "properties": { 
			 "R2extent": 4034.549, 
			 "electric_dipole_moment_norm": 5.74400156337, 
			 "electric_quadrupole_moment_norm": 17.7376091861, 
			 "total_energy": -944.957507251, 
			 "HOMO_LUMO_gap": 0.2184, 
			 "cosmo_polarized_energy": -15.89, 
			 "cosmo_cavitation_energy": 29.75, 
			 "cosmo_dispersion_energy": -21.18, 
			 "cosmo_repulsion_energy": 1.61, 
			 "cosmo_total_nonelectrostatic_energy": 10.18, 
			 "SMD_solvation_energy": 6.19 
		},
		"coords": [
			{
				"x": -1.5457562834,
				"y": -1.6137842133,
				"z": -1.9598160951,
				"element": "C" 
			},
			{
				"x": -1.0599024336,
				"y": -0.4933015266,
				"z": -1.096493992,
				"element": "C" 
			},
			{
				"x": -1.7820769344,
				"y": -0.0855219541,
				"z": -0.0574222549,
				"element": "N" 
			},
			{
				"x": -1.0860251643,
				"y": 0.9201600937,
				"z": 0.5228512321,
				"element": "N" 
			},
			{
				"x": -1.7779050949,
				"y": 1.6605722387,
				"z": 1.5792814163,
				"element": "C" 
			},
			{
				"x": -2.6396946605,
				"y": 2.7809574494,
				"z": 1.0042958646,
				"element": "C" 
			},
			{
				"x": -1.7767051042,
				"y": 3.7234973948,
				"z": 0.3899250004,
				"element": "O" 
			},
			{
				"x": 0.0781650938,
				"y": 1.1682209276,
				"z": -0.1362021871,
				"element": "C" 
			},
			{
				"x": 0.1441541366,
				"y": 0.2608695666,
				"z": -1.2006744503,
				"element": "C" 
			},
			{
				"x": 1.1284663391,
				"y": 0.0557275082,
				"z": -2.2965570988,
				"element": "C" 
			},
			{
				"x": 2.3823504747,
				"y": 0.5363961422,
				"z": -2.1485771605,
				"element": "O" 
			},
			{
				"x": 0.8258604815,
				"y": -0.5329967046,
				"z": -3.3123172273,
				"element": "O" 
			},
			{
				"x": 1.0553408936,
				"y": 2.2461930185,
				"z": 0.227157037,
				"element": "C" 
			},
			{
				"x": 1.1530410672,
				"y": 3.1812734057,
				"z": -0.7276410989,
				"element": "F" 
			},
			{
				"x": 0.7981627636,
				"y": 2.8532742292,
				"z": 1.3925565941,
				"element": "F" 
			},
			{
				"x": 2.3163815006,
				"y": 1.7041936936,
				"z": 0.3619631424,
				"element": "F" 
			},
			{
				"x": -1.7171181233,
				"y": -1.268112774,
				"z": -2.9821340706,
				"element": "H" 
			},
			{
				"x": -2.4732733965,
				"y": -2.0139221731,
				"z": -1.5448923091,
				"element": "H" 
			},
			{
				"x": -0.8023367899,
				"y": -2.4131401688,
				"z": -2.0253923362,
				"element": "H" 
			},
			{
				"x": -2.4100745305,
				"y": 0.9321480767,
				"z": 2.0899841816,
				"element": "H" 
			},
			{
				"x": -1.0493812485,
				"y": 2.059961998,
				"z": 2.2814161572,
				"element": "H" 
			},
			{
				"x": -3.349962341,
				"y": 2.345516495,
				"z": 0.2882385043,
				"element": "H" 
			},
			{
				"x": -3.2159128356,
				"y": 3.2298813971,
				"z": 1.8288691611,
				"element": "H" 
			},
			{
				"x": -2.2906438206,
				"y": 4.2675367879,
				"z": -0.2181020588,
				"element": "H" 
			},
			{
				"x": 2.5394460102,
				"y": 0.8659990916,
				"z": -1.2514159518,
				"element": "H" 
			}
		],
		 "valence_orbital": [ 
			{
				"type": "occ",
				"energy": -0.30748,
				"method": "rhf"
			},
			{
				"type": "occ",
				"energy": -0.29672,
				"method": "rhf"
			},
			{
				"type": "occ",
				"energy": -0.2751,
				"method": "rhf"
			},
			{
				"type": "occ",
				"energy": -0.2696,
				"method": "rhf"
			},
			{
				"type": "occ",
				"energy": -0.26136,
				"method": "rhf"
			},
			{
				"type": "unocc",
				"energy": -0.04296,
				"method": "rhf"
			},
			{
				"type": "unocc",
				"energy": 0.00618,
				"method": "rhf"
			},
			{
				"type": "unocc",
				"energy": 0.05567,
				"method": "rhf"
			},
			{
				"type": "unocc",
				"energy": 0.08203,
				"method": "rhf"
			},
			{
				"type": "unocc",
				"energy": 0.08539,
				"method": "rhf"
			}
		],
		"cosmo_sigma_profile": { 
			"-0.025": 0.0,
			"-0.024": 0.0,
			"-0.023": 0.0,
			"-0.022": 0.0,
			"-0.021": 0.0,
			"-0.02": 0.0,
			"-0.019": 0.0,
			"-0.018": 0.0,
			"-0.017": 0.198637325964,
			"-0.016": 0.960938576945,
			"-0.015": 1.26277647813,
			"-0.014": 1.14382452287,
			"-0.013": 1.04649605362,
			"-0.012": 0.687505873807,
			"-0.011": 1.86133647716,
			"-0.01": 1.76050685763,
			"-0.009": 1.98805498397,
			"-0.008": 3.47764348688,
			"-0.007": 6.72047878664,
			"-0.006": 9.34989963944,
			"-0.005": 15.9208345361,
			"-0.004": 18.5408554118,
			"-0.003": 16.2840802098,
			"-0.002": 16.0247094601,
			"-0.001": 18.335939968,
			"0.0": 22.2571011054,
			"0.001": 21.9663012635,
			"0.002": 14.7922288183,
			"0.003": 7.16503474108,
			"0.004": 6.91455461002,
			"0.005": 7.02111444264,
			"0.006": 5.37450002252,
			"0.007": 4.7396861643,
			"0.008": 4.7303029445,
			"0.009": 5.40608165545,
			"0.01": 5.67491145047,
			"0.011": 6.17470809631,
			"0.012": 5.26398503852,
			"0.013": 2.75866300085,
			"0.014": 0.388075599165,
			"0.015": 0.0,
			"0.016": 0.0,
			"0.017": 0.0,
			"0.018": 0.0,
			"0.019": 0.0,
			"0.02": 0.0,
			"0.021": 0.0,
			"0.022": 0.0,
			"0.023": 0.0,
			"0.024": 0.0,
			"0.025": 0.0
		}
	}
}
