{
	 "smiles": "CN(C(=S)OC1=CC=C2C=CC=CC2=C1)C1=CC=CC(C)=C1", 
	 "Tm": 384.15, 
	 "num_atms": 39, 
	 "gaussian": { 
		 "optdone": 1, 
		 "sigma_profile": "yes", 
		 "theory": "DFT", 
		 "functional": "B3LYP", 
		 "basiset": "6-31G**", 
		 "properties": { 
			 "R2extent": 9065.2777, 
			 "electric_dipole_moment_norm": 3.96591769077, 
			 "electric_quadrupole_moment_norm": 16.5612904038, 
			 "total_energy": -1262.44375596, 
			 "HOMO_LUMO_gap": 0.16924, 
			 "cosmo_polarized_energy": -13.64, 
			 "cosmo_cavitation_energy": 44.81, 
			 "cosmo_dispersion_energy": -30.87, 
			 "cosmo_repulsion_energy": 2.34, 
			 "cosmo_total_nonelectrostatic_energy": 16.28, 
			 "SMD_solvation_energy": 6.98 
		},
		"coords": [
			{
				"x": -0.6756683918,
				"y": 3.8660513611,
				"z": -1.5965275822,
				"element": "C" 
			},
			{
				"x": -0.1872295294,
				"y": 2.5169626475,
				"z": -1.2885153836,
				"element": "N" 
			},
			{
				"x": -0.5956044856,
				"y": 1.9101464424,
				"z": -0.1433174805,
				"element": "C" 
			},
			{
				"x": -1.5916758557,
				"y": 2.6025399119,
				"z": 0.9985709861,
				"element": "S" 
			},
			{
				"x": -0.0939977608,
				"y": 0.6463098108,
				"z": -0.0799432653,
				"element": "O" 
			},
			{
				"x": -0.3097441135,
				"y": -0.1620400314,
				"z": 1.0372628939,
				"element": "C" 
			},
			{
				"x": 0.3876374105,
				"y": 0.1020050423,
				"z": 2.2386078542,
				"element": "C" 
			},
			{
				"x": 0.2573918841,
				"y": -0.7685722253,
				"z": 3.29400538,
				"element": "C" 
			},
			{
				"x": -0.560828341,
				"y": -1.9276711444,
				"z": 3.196401856,
				"element": "C" 
			},
			{
				"x": -0.7107150747,
				"y": -2.8432075201,
				"z": 4.2718504806,
				"element": "C" 
			},
			{
				"x": -1.5080630782,
				"y": -3.9586230076,
				"z": 4.1435639915,
				"element": "C" 
			},
			{
				"x": -2.1930280726,
				"y": -4.209825776,
				"z": 2.9295045528,
				"element": "C" 
			},
			{
				"x": -2.0681376053,
				"y": -3.3426217287,
				"z": 1.867124506,
				"element": "C" 
			},
			{
				"x": -1.2542640804,
				"y": -2.1824534736,
				"z": 1.9680266224,
				"element": "C" 
			},
			{
				"x": -1.10583703,
				"y": -1.2689428564,
				"z": 0.8901657394,
				"element": "C" 
			},
			{
				"x": 0.6845593977,
				"y": 1.8775260598,
				"z": -2.2417153284,
				"element": "C" 
			},
			{
				"x": 0.2023612628,
				"y": 1.5735303054,
				"z": -3.5172325386,
				"element": "C" 
			},
			{
				"x": 1.0653766541,
				"y": 1.0092965099,
				"z": -4.4568865685,
				"element": "C" 
			},
			{
				"x": 2.3928225912,
				"y": 0.7426780949,
				"z": -4.1239296824,
				"element": "C" 
			},
			{
				"x": 2.8856948739,
				"y": 1.0374537546,
				"z": -2.8448704975,
				"element": "C" 
			},
			{
				"x": 4.3156777923,
				"y": 0.7226487798,
				"z": -2.4724724312,
				"element": "C" 
			},
			{
				"x": 2.0176333691,
				"y": 1.6169753548,
				"z": -1.9134547375,
				"element": "C" 
			},
			{
				"x": -0.221538185,
				"y": 4.1819817292,
				"z": -2.5356594004,
				"element": "H" 
			},
			{
				"x": -0.3977154083,
				"y": 4.5605339473,
				"z": -0.7992198787,
				"element": "H" 
			},
			{
				"x": -1.7658131547,
				"y": 3.8767767617,
				"z": -1.685111394,
				"element": "H" 
			},
			{
				"x": 1.0087813893,
				"y": 0.9874771392,
				"z": 2.309989207,
				"element": "H" 
			},
			{
				"x": 0.785411418,
				"y": -0.5763982964,
				"z": 4.2240850788,
				"element": "H" 
			},
			{
				"x": -0.1841093261,
				"y": -2.6466778961,
				"z": 5.2023197879,
				"element": "H" 
			},
			{
				"x": -1.6153477535,
				"y": -4.6502760963,
				"z": 4.9740815627,
				"element": "H" 
			},
			{
				"x": -2.8201819959,
				"y": -5.0921299305,
				"z": 2.8397967179,
				"element": "H" 
			},
			{
				"x": -2.594154901,
				"y": -3.5334702031,
				"z": 0.9353490779,
				"element": "H" 
			},
			{
				"x": -1.6169233997,
				"y": -1.4434888245,
				"z": -0.0511617458,
				"element": "H" 
			},
			{
				"x": -0.8354510057,
				"y": 1.7738997064,
				"z": -3.764711482,
				"element": "H" 
			},
			{
				"x": 0.6980922495,
				"y": 0.7739814615,
				"z": -5.4515705188,
				"element": "H" 
			},
			{
				"x": 3.0563728377,
				"y": 0.3025883054,
				"z": -4.8638638616,
				"element": "H" 
			},
			{
				"x": 4.682158072,
				"y": 1.3900823971,
				"z": -1.6871217104,
				"element": "H" 
			},
			{
				"x": 4.9829219866,
				"y": 0.8138613188,
				"z": -3.334807909,
				"element": "H" 
			},
			{
				"x": 4.4070256525,
				"y": -0.3039812193,
				"z": -2.0966884436,
				"element": "H" 
			},
			{
				"x": 2.3757097076,
				"y": 1.8694733876,
				"z": -0.9200244553,
				"element": "H" 
			}
		],
		 "valence_orbital": [ 
			{
				"type": "occ",
				"energy": -0.25183,
				"method": "rhf"
			},
			{
				"type": "occ",
				"energy": -0.23781,
				"method": "rhf"
			},
			{
				"type": "occ",
				"energy": -0.22137,
				"method": "rhf"
			},
			{
				"type": "occ",
				"energy": -0.21342,
				"method": "rhf"
			},
			{
				"type": "occ",
				"energy": -0.2071,
				"method": "rhf"
			},
			{
				"type": "unocc",
				"energy": -0.03786,
				"method": "rhf"
			},
			{
				"type": "unocc",
				"energy": -0.02218,
				"method": "rhf"
			},
			{
				"type": "unocc",
				"energy": -0.01048,
				"method": "rhf"
			},
			{
				"type": "unocc",
				"energy": -0.00594,
				"method": "rhf"
			},
			{
				"type": "unocc",
				"energy": 0.00244,
				"method": "rhf"
			}
		],
		"cosmo_sigma_profile": { 
			"-0.025": 0.0,
			"-0.024": 0.0,
			"-0.023": 0.0,
			"-0.022": 0.0,
			"-0.021": 0.0,
			"-0.02": 0.0,
			"-0.019": 0.0,
			"-0.018": 0.0,
			"-0.017": 0.0,
			"-0.016": 0.0,
			"-0.015": 0.0,
			"-0.014": 0.0,
			"-0.013": 0.0,
			"-0.012": 0.0,
			"-0.011": 0.0,
			"-0.01": 0.0,
			"-0.009": 0.0,
			"-0.008": 0.00399714940965,
			"-0.007": 4.46815881862,
			"-0.006": 22.0598180882,
			"-0.005": 29.9152633242,
			"-0.004": 38.0160228966,
			"-0.003": 33.0152097909,
			"-0.002": 28.96254673,
			"-0.001": 25.0240517645,
			"0.0": 24.7368516054,
			"0.001": 18.4187981668,
			"0.002": 21.1671737984,
			"0.003": 29.9122703103,
			"0.004": 28.7901171785,
			"0.005": 20.595877538,
			"0.006": 7.72176482154,
			"0.007": 6.93123805169,
			"0.008": 6.82462221685,
			"0.009": 8.52407870982,
			"0.01": 3.753288894,
			"0.011": 1.43853918798,
			"0.012": 0.0294143883624,
			"0.013": 0.0,
			"0.014": 0.0,
			"0.015": 0.0,
			"0.016": 0.0,
			"0.017": 0.0,
			"0.018": 0.0,
			"0.019": 0.0,
			"0.02": 0.0,
			"0.021": 0.0,
			"0.022": 0.0,
			"0.023": 0.0,
			"0.024": 0.0,
			"0.025": 0.0
		}
	}
}
