{
	 "smiles": "COCC1=NC(=CS1)C(O)=O", 
	 "Tm": 380.15, 
	 "num_atms": 18, 
	 "gaussian": { 
		 "optdone": 1, 
		 "sigma_profile": "yes", 
		 "theory": "DFT", 
		 "functional": "B3LYP", 
		 "basiset": "6-31G**", 
		 "properties": { 
			 "R2extent": 2809.3776, 
			 "electric_dipole_moment_norm": 4.99148329257, 
			 "electric_quadrupole_moment_norm": 23.8439811726, 
			 "total_energy": -911.438592427, 
			 "HOMO_LUMO_gap": 0.20656, 
			 "cosmo_polarized_energy": -19.29, 
			 "cosmo_cavitation_energy": 24.6, 
			 "cosmo_dispersion_energy": -18.43, 
			 "cosmo_repulsion_energy": 1.46, 
			 "cosmo_total_nonelectrostatic_energy": 7.63, 
			 "SMD_solvation_energy": 4.39 
		},
		"coords": [
			{
				"x": -2.2668950019,
				"y": 0.5330368004,
				"z": -1.8191621457,
				"element": "C" 
			},
			{
				"x": -1.4038606572,
				"y": 1.6404969932,
				"z": -2.0397094598,
				"element": "O" 
			},
			{
				"x": -0.0400775319,
				"y": 1.2863745779,
				"z": -2.1200159757,
				"element": "C" 
			},
			{
				"x": 0.5872962499,
				"y": 1.0565481255,
				"z": -0.7657277525,
				"element": "C" 
			},
			{
				"x": 1.5721246274,
				"y": 0.2471802485,
				"z": -0.5310845933,
				"element": "N" 
			},
			{
				"x": 1.9583313534,
				"y": 0.2986991228,
				"z": 0.7914103886,
				"element": "C" 
			},
			{
				"x": 1.2459028156,
				"y": 1.1729977949,
				"z": 1.5754647179,
				"element": "C" 
			},
			{
				"x": 0.037603433,
				"y": 1.9776376083,
				"z": 0.6394743688,
				"element": "S" 
			},
			{
				"x": 3.1203030154,
				"y": -0.5308868027,
				"z": 1.241694422,
				"element": "C" 
			},
			{
				"x": 3.1400050689,
				"y": -0.8327238198,
				"z": 2.5710044489,
				"element": "O" 
			},
			{
				"x": 4.0059116681,
				"y": -0.8956053812,
				"z": 0.5132476001,
				"element": "O" 
			},
			{
				"x": -3.2846209841,
				"y": 0.92732815,
				"z": -1.7930960043,
				"element": "H" 
			},
			{
				"x": -2.1858005409,
				"y": -0.2014297875,
				"z": -2.6331546764,
				"element": "H" 
			},
			{
				"x": -2.0566745718,
				"y": 0.0270797775,
				"z": -0.8666746225,
				"element": "H" 
			},
			{
				"x": 0.4656017282,
				"y": 2.1251368614,
				"z": -2.6123348842,
				"element": "H" 
			},
			{
				"x": 0.1285569552,
				"y": 0.3863891007,
				"z": -2.7282110821,
				"element": "H" 
			},
			{
				"x": 1.3849553638,
				"y": 1.4110493731,
				"z": 2.6214462186,
				"element": "H" 
			},
			{
				"x": 2.277237009,
				"y": -0.642908743,
				"z": 2.9654290317,
				"element": "H" 
			}
		],
		 "valence_orbital": [ 
			{
				"type": "occ",
				"energy": -0.30539,
				"method": "rhf"
			},
			{
				"type": "occ",
				"energy": -0.29733,
				"method": "rhf"
			},
			{
				"type": "occ",
				"energy": -0.28245,
				"method": "rhf"
			},
			{
				"type": "occ",
				"energy": -0.27489,
				"method": "rhf"
			},
			{
				"type": "occ",
				"energy": -0.26571,
				"method": "rhf"
			},
			{
				"type": "unocc",
				"energy": -0.05915,
				"method": "rhf"
			},
			{
				"type": "unocc",
				"energy": -0.01787,
				"method": "rhf"
			},
			{
				"type": "unocc",
				"energy": 0.00356,
				"method": "rhf"
			},
			{
				"type": "unocc",
				"energy": 0.04753,
				"method": "rhf"
			},
			{
				"type": "unocc",
				"energy": 0.07706,
				"method": "rhf"
			}
		],
		"cosmo_sigma_profile": { 
			"-0.025": 0.0,
			"-0.024": 0.0,
			"-0.023": 0.0,
			"-0.022": 0.0,
			"-0.021": 0.0,
			"-0.02": 0.0,
			"-0.019": 0.341166474175,
			"-0.018": 1.15214858152,
			"-0.017": 1.34214300928,
			"-0.016": 1.05680223806,
			"-0.015": 0.723479749092,
			"-0.014": 1.06118665721,
			"-0.013": 1.31400644646,
			"-0.012": 2.21984994181,
			"-0.011": 1.79394550643,
			"-0.01": 2.44297526348,
			"-0.009": 2.06502908348,
			"-0.008": 2.31672684541,
			"-0.007": 5.92766378075,
			"-0.006": 9.11597222441,
			"-0.005": 11.1409362632,
			"-0.004": 15.3860046079,
			"-0.003": 17.3949211491,
			"-0.002": 14.8440374478,
			"-0.001": 12.7934719614,
			"0.0": 15.9206586787,
			"0.001": 13.5486132093,
			"0.002": 6.2297577264,
			"0.003": 4.80556344053,
			"0.004": 4.5302852956,
			"0.005": 3.86304110517,
			"0.006": 3.76693117436,
			"0.007": 4.57759068563,
			"0.008": 4.06012339968,
			"0.009": 5.57473124458,
			"0.01": 7.77621279603,
			"0.011": 7.48959735453,
			"0.012": 6.2401080095,
			"0.013": 3.21514574969,
			"0.014": 1.65288643887,
			"0.015": 0.45920552649,
			"0.016": 0.0,
			"0.017": 0.0,
			"0.018": 0.0,
			"0.019": 0.0,
			"0.02": 0.0,
			"0.021": 0.0,
			"0.022": 0.0,
			"0.023": 0.0,
			"0.024": 0.0,
			"0.025": 0.0
		}
	}
}
