{
	 "smiles": "ClC1=NC=C(C=C1)S(=O)(=O)N1CCOCC1", 
	 "Tm": 417.15, 
	 "num_atms": 27, 
	 "gaussian": { 
		 "optdone": 1, 
		 "sigma_profile": "yes", 
		 "theory": "DFT", 
		 "functional": "B3LYP", 
		 "basiset": "6-31G**", 
		 "properties": { 
			 "R2extent": 5776.335, 
			 "electric_dipole_moment_norm": 3.41774662899, 
			 "electric_quadrupole_moment_norm": 16.5390037684, 
			 "total_energy": -1543.04197916, 
			 "HOMO_LUMO_gap": 0.18451, 
			 "cosmo_polarized_energy": -16.69, 
			 "cosmo_cavitation_energy": 33.3, 
			 "cosmo_dispersion_energy": -24.06, 
			 "cosmo_repulsion_energy": 1.83, 
			 "cosmo_total_nonelectrostatic_energy": 11.07, 
			 "SMD_solvation_energy": 2.24 
		},
		"coords": [
			{
				"x": 4.1543129206,
				"y": 3.016386919,
				"z": 2.4268560513,
				"element": "Cl" 
			},
			{
				"x": 2.6309396157,
				"y": 2.1446484669,
				"z": 2.4077139764,
				"element": "C" 
			},
			{
				"x": 1.5918925845,
				"y": 2.7772676357,
				"z": 1.8889519713,
				"element": "N" 
			},
			{
				"x": 0.4230138936,
				"y": 2.1247202982,
				"z": 1.8574361917,
				"element": "C" 
			},
			{
				"x": 0.2766397748,
				"y": 0.81987768,
				"z": 2.3317355871,
				"element": "C" 
			},
			{
				"x": 1.3801039714,
				"y": 0.175839004,
				"z": 2.8998117337,
				"element": "C" 
			},
			{
				"x": 2.5941709438,
				"y": 0.8509552172,
				"z": 2.9418190697,
				"element": "C" 
			},
			{
				"x": -1.3120349622,
				"y": -0.0203499007,
				"z": 2.2175703128,
				"element": "S" 
			},
			{
				"x": -1.2802458482,
				"y": -1.0794024512,
				"z": 3.2280600534,
				"element": "O" 
			},
			{
				"x": -2.328225254,
				"y": 1.0321629049,
				"z": 2.1936924789,
				"element": "O" 
			},
			{
				"x": -1.3842769527,
				"y": -0.7801188462,
				"z": 0.7398364751,
				"element": "N" 
			},
			{
				"x": -0.7554747499,
				"y": -2.0880374126,
				"z": 0.5101946409,
				"element": "C" 
			},
			{
				"x": 0.3683195764,
				"y": -1.9608564242,
				"z": -0.5206310696,
				"element": "C" 
			},
			{
				"x": -0.0997780517,
				"y": -1.3438043374,
				"z": -1.7128151935,
				"element": "O" 
			},
			{
				"x": -0.5889852987,
				"y": -0.031121906,
				"z": -1.4654636168,
				"element": "C" 
			},
			{
				"x": -1.7621412851,
				"y": -0.058300945,
				"z": -0.4834652893,
				"element": "C" 
			},
			{
				"x": -0.4292422879,
				"y": 2.6679670908,
				"z": 1.4593695662,
				"element": "H" 
			},
			{
				"x": 1.2751521125,
				"y": -0.8194093912,
				"z": 3.3184544932,
				"element": "H" 
			},
			{
				"x": 3.4805142193,
				"y": 0.4050818442,
				"z": 3.3766389441,
				"element": "H" 
			},
			{
				"x": -1.526617033,
				"y": -2.7698938312,
				"z": 0.1285581549,
				"element": "H" 
			},
			{
				"x": -0.3971288741,
				"y": -2.4899380519,
				"z": 1.4594027659,
				"element": "H" 
			},
			{
				"x": 0.7397841059,
				"y": -2.9494424775,
				"z": -0.8062968799,
				"element": "H" 
			},
			{
				"x": 1.2047138044,
				"y": -1.3815218826,
				"z": -0.0954819017,
				"element": "H" 
			},
			{
				"x": -0.9076812349,
				"y": 0.3698715517,
				"z": -2.4319989634,
				"element": "H" 
			},
			{
				"x": 0.2183669999,
				"y": 0.6073602955,
				"z": -1.070703226,
				"element": "H" 
			},
			{
				"x": -2.6087026946,
				"y": -0.5887213411,
				"z": -0.9385805926,
				"element": "H" 
			},
			{
				"x": -2.1007899957,
				"y": 0.9457802907,
				"z": -0.2226657341,
				"element": "H" 
			}
		],
		 "valence_orbital": [ 
			{
				"type": "occ",
				"energy": -0.31574,
				"method": "rhf"
			},
			{
				"type": "occ",
				"energy": -0.30052,
				"method": "rhf"
			},
			{
				"type": "occ",
				"energy": -0.2909,
				"method": "rhf"
			},
			{
				"type": "occ",
				"energy": -0.28281,
				"method": "rhf"
			},
			{
				"type": "occ",
				"energy": -0.24802,
				"method": "rhf"
			},
			{
				"type": "unocc",
				"energy": -0.06351,
				"method": "rhf"
			},
			{
				"type": "unocc",
				"energy": -0.05685,
				"method": "rhf"
			},
			{
				"type": "unocc",
				"energy": 0.01865,
				"method": "rhf"
			},
			{
				"type": "unocc",
				"energy": 0.04444,
				"method": "rhf"
			},
			{
				"type": "unocc",
				"energy": 0.06454,
				"method": "rhf"
			}
		],
		"cosmo_sigma_profile": { 
			"-0.025": 0.0,
			"-0.024": 0.0,
			"-0.023": 0.0,
			"-0.022": 0.0,
			"-0.021": 0.0,
			"-0.02": 0.0,
			"-0.019": 0.0,
			"-0.018": 0.0,
			"-0.017": 0.0,
			"-0.016": 0.0,
			"-0.015": 0.0,
			"-0.014": 0.0,
			"-0.013": 0.0,
			"-0.012": 0.0,
			"-0.011": 0.0,
			"-0.01": 0.0145111765816,
			"-0.009": 2.95455189991,
			"-0.008": 6.28888457178,
			"-0.007": 8.872682284,
			"-0.006": 17.1932263494,
			"-0.005": 25.1940953881,
			"-0.004": 25.4088812203,
			"-0.003": 23.6181447835,
			"-0.002": 21.9449498482,
			"-0.001": 19.0646705933,
			"0.0": 12.1869874644,
			"0.001": 10.3801258589,
			"0.002": 11.3224441471,
			"0.003": 14.5220387967,
			"0.004": 13.2475361379,
			"0.005": 8.33683761532,
			"0.006": 4.97142298315,
			"0.007": 5.36422463277,
			"0.008": 6.50010305939,
			"0.009": 6.20451993456,
			"0.01": 8.22038138576,
			"0.011": 9.92306711314,
			"0.012": 2.90004297094,
			"0.013": 2.44868881097,
			"0.014": 0.115052067908,
			"0.015": 0.0,
			"0.016": 0.0,
			"0.017": 0.0,
			"0.018": 0.0,
			"0.019": 0.0,
			"0.02": 0.0,
			"0.021": 0.0,
			"0.022": 0.0,
			"0.023": 0.0,
			"0.024": 0.0,
			"0.025": 0.0
		}
	}
}
