{
	 "smiles": "NC1=CC(=C(N)C=C1)S(O)(=O)=O", 
	 "Tm": 572.15, 
	 "num_atms": 20, 
	 "gaussian": { 
		 "optdone": 1, 
		 "sigma_profile": "yes", 
		 "theory": "DFT", 
		 "functional": "B3LYP", 
		 "basiset": "6-31G**", 
		 "properties": { 
			 "R2extent": 3189.6633, 
			 "electric_dipole_moment_norm": 5.01456445766, 
			 "electric_quadrupole_moment_norm": 16.1239594201, 
			 "total_energy": -966.758143166, 
			 "HOMO_LUMO_gap": 0.1577, 
			 "cosmo_polarized_energy": -19.96, 
			 "cosmo_cavitation_energy": 25.22, 
			 "cosmo_dispersion_energy": -19.6, 
			 "cosmo_repulsion_energy": 1.52, 
			 "cosmo_total_nonelectrostatic_energy": 7.15, 
			 "SMD_solvation_energy": 3.29 
		},
		"coords": [
			{
				"x": -1.1162667926,
				"y": -3.9622692312,
				"z": -0.4607993438,
				"element": "N" 
			},
			{
				"x": -0.9976887079,
				"y": -2.6540697951,
				"z": 0.0324615861,
				"element": "C" 
			},
			{
				"x": -1.6911400056,
				"y": -1.5907705176,
				"z": -0.5460838163,
				"element": "C" 
			},
			{
				"x": -1.503177964,
				"y": -0.2785412615,
				"z": -0.0899835885,
				"element": "C" 
			},
			{
				"x": -0.6116201303,
				"y": 0.0366595795,
				"z": 0.9601278956,
				"element": "C" 
			},
			{
				"x": -0.4381067283,
				"y": 1.3169134181,
				"z": 1.4592293861,
				"element": "N" 
			},
			{
				"x": 0.0692339434,
				"y": -1.0568876389,
				"z": 1.5331459043,
				"element": "C" 
			},
			{
				"x": -0.1151425887,
				"y": -2.3562801429,
				"z": 1.0878925379,
				"element": "C" 
			},
			{
				"x": -2.4564886638,
				"y": 0.988241748,
				"z": -0.8892458172,
				"element": "S" 
			},
			{
				"x": -3.6159921774,
				"y": 1.3557220741,
				"z": 0.2204252303,
				"element": "O" 
			},
			{
				"x": -1.6474346245,
				"y": 2.2009003569,
				"z": -1.0007645054,
				"element": "O" 
			},
			{
				"x": -3.1507146797,
				"y": 0.4263671394,
				"z": -2.0476335883,
				"element": "O" 
			},
			{
				"x": -1.9713397194,
				"y": -4.1394207685,
				"z": -0.971168305,
				"element": "H" 
			},
			{
				"x": -0.952377991,
				"y": -4.6838429172,
				"z": 0.2289043508,
				"element": "H" 
			},
			{
				"x": -2.3729681099,
				"y": -1.7589346228,
				"z": -1.3731826901,
				"element": "H" 
			},
			{
				"x": 0.3990823311,
				"y": 1.4500196592,
				"z": 2.0074861228,
				"element": "H" 
			},
			{
				"x": -0.6257661832,
				"y": 2.071813123,
				"z": 0.8103736681,
				"element": "H" 
			},
			{
				"x": 0.7616412374,
				"y": -0.8667726036,
				"z": 2.349285471,
				"element": "H" 
			},
			{
				"x": 0.4464643963,
				"y": -3.1608825464,
				"z": 1.5562977382,
				"element": "H" 
			},
			{
				"x": -4.4244968419,
				"y": 0.8948349476,
				"z": -0.0583682365,
				"element": "H" 
			}
		],
		 "valence_orbital": [ 
			{
				"type": "occ",
				"energy": -0.31947,
				"method": "rhf"
			},
			{
				"type": "occ",
				"energy": -0.30853,
				"method": "rhf"
			},
			{
				"type": "occ",
				"energy": -0.27842,
				"method": "rhf"
			},
			{
				"type": "occ",
				"energy": -0.26662,
				"method": "rhf"
			},
			{
				"type": "occ",
				"energy": -0.19175,
				"method": "rhf"
			},
			{
				"type": "unocc",
				"energy": -0.03405,
				"method": "rhf"
			},
			{
				"type": "unocc",
				"energy": 0.01004,
				"method": "rhf"
			},
			{
				"type": "unocc",
				"energy": 0.0469,
				"method": "rhf"
			},
			{
				"type": "unocc",
				"energy": 0.0699,
				"method": "rhf"
			},
			{
				"type": "unocc",
				"energy": 0.08184,
				"method": "rhf"
			}
		],
		"cosmo_sigma_profile": { 
			"-0.025": 0.0,
			"-0.024": 0.0,
			"-0.023": 0.0,
			"-0.022": 0.0,
			"-0.021": 0.0,
			"-0.02": 0.376777589622,
			"-0.019": 1.07807528327,
			"-0.018": 0.873061076433,
			"-0.017": 0.453044234519,
			"-0.016": 1.16312728787,
			"-0.015": 0.596124264295,
			"-0.014": 0.506559506516,
			"-0.013": 1.99200387948,
			"-0.012": 5.51246471065,
			"-0.011": 4.9584824059,
			"-0.01": 6.09739983848,
			"-0.009": 6.27983219435,
			"-0.008": 6.92172389663,
			"-0.007": 6.85443587555,
			"-0.006": 7.7971032561,
			"-0.005": 8.50969888409,
			"-0.004": 7.51988553887,
			"-0.003": 5.48237140763,
			"-0.002": 7.00078890087,
			"-0.001": 7.99322593619,
			"0.0": 7.77481506973,
			"0.001": 9.87432538888,
			"0.002": 9.39164699108,
			"0.003": 10.8171913797,
			"0.004": 15.6915521607,
			"0.005": 9.74375630245,
			"0.006": 6.50551753231,
			"0.007": 7.44326935285,
			"0.008": 7.1440854404,
			"0.009": 9.43555398464,
			"0.01": 10.0880966485,
			"0.011": 4.62766812587,
			"0.012": 1.56519233204,
			"0.013": 1.00506920446,
			"0.014": 0.51697229798,
			"0.015": 0.503213988996,
			"0.016": 0.0939858821005,
			"0.017": 0.0,
			"0.018": 0.0,
			"0.019": 0.0,
			"0.02": 0.0,
			"0.021": 0.0,
			"0.022": 0.0,
			"0.023": 0.0,
			"0.024": 0.0,
			"0.025": 0.0
		}
	}
}
