{
	 "smiles": "FC(F)(F)C(=O)CC(=O)C1=CC=NC=C1", 
	 "Tm": 529.15, 
	 "num_atms": 21, 
	 "gaussian": { 
		 "optdone": 1, 
		 "sigma_profile": "yes", 
		 "theory": "DFT", 
		 "functional": "B3LYP", 
		 "basiset": "6-31G**", 
		 "properties": { 
			 "R2extent": 4474.9895, 
			 "electric_dipole_moment_norm": 2.98334682865, 
			 "electric_quadrupole_moment_norm": 14.7688458889, 
			 "total_energy": -851.266585071, 
			 "HOMO_LUMO_gap": 0.18149, 
			 "cosmo_polarized_energy": -13.33, 
			 "cosmo_cavitation_energy": 28.29, 
			 "cosmo_dispersion_energy": -19.56, 
			 "cosmo_repulsion_energy": 1.47, 
			 "cosmo_total_nonelectrostatic_energy": 10.19, 
			 "SMD_solvation_energy": 5.79 
		},
		"coords": [
			{
				"x": -1.6341698419,
				"y": 3.1189725937,
				"z": -0.7622056638,
				"element": "F" 
			},
			{
				"x": -2.8992611259,
				"y": 2.7959976243,
				"z": -0.4306695101,
				"element": "C" 
			},
			{
				"x": -3.4425552734,
				"y": 3.8016986279,
				"z": 0.2492784274,
				"element": "F" 
			},
			{
				"x": -3.5901662773,
				"y": 2.6259596125,
				"z": -1.5841329115,
				"element": "F" 
			},
			{
				"x": -2.9544168423,
				"y": 1.4645926924,
				"z": 0.3571201356,
				"element": "C" 
			},
			{
				"x": -3.7105878704,
				"y": 1.3437337817,
				"z": 1.2871764833,
				"element": "O" 
			},
			{
				"x": -2.0593310741,
				"y": 0.3576904066,
				"z": -0.1692069468,
				"element": "C" 
			},
			{
				"x": -0.6452400089,
				"y": 0.4796950337,
				"z": 0.4138558463,
				"element": "C" 
			},
			{
				"x": -0.3922243299,
				"y": 1.3308570549,
				"z": 1.2466681832,
				"element": "O" 
			},
			{
				"x": 0.4023065729,
				"y": -0.4852632281,
				"z": -0.0558997107,
				"element": "C" 
			},
			{
				"x": 1.6988597505,
				"y": -0.3638055812,
				"z": 0.4596678713,
				"element": "C" 
			},
			{
				"x": 2.6762092936,
				"y": -1.2580673315,
				"z": 0.0300105786,
				"element": "C" 
			},
			{
				"x": 2.4484670962,
				"y": -2.2397409091,
				"z": -0.854564394,
				"element": "N" 
			},
			{
				"x": 1.207523641,
				"y": -2.3512166497,
				"z": -1.3406243,
				"element": "C" 
			},
			{
				"x": 0.1551699351,
				"y": -1.5074563402,
				"z": -0.9794146947,
				"element": "C" 
			},
			{
				"x": -2.4924075582,
				"y": -0.6011174657,
				"z": 0.1350354983,
				"element": "H" 
			},
			{
				"x": -2.0165986702,
				"y": 0.3808547777,
				"z": -1.2640254363,
				"element": "H" 
			},
			{
				"x": 1.9183149645,
				"y": 0.4178225861,
				"z": 1.178301151,
				"element": "H" 
			},
			{
				"x": 3.6920215016,
				"y": -1.1853410619,
				"z": 0.412966954,
				"element": "H" 
			},
			{
				"x": 1.0416692544,
				"y": -3.1544328597,
				"z": -2.0558769741,
				"element": "H" 
			},
			{
				"x": -0.8261831371,
				"y": -1.6605333644,
				"z": -1.415860587,
				"element": "H" 
			}
		],
		 "valence_orbital": [ 
			{
				"type": "occ",
				"energy": -0.30881,
				"method": "rhf"
			},
			{
				"type": "occ",
				"energy": -0.29288,
				"method": "rhf"
			},
			{
				"type": "occ",
				"energy": -0.28518,
				"method": "rhf"
			},
			{
				"type": "occ",
				"energy": -0.28475,
				"method": "rhf"
			},
			{
				"type": "occ",
				"energy": -0.27387,
				"method": "rhf"
			},
			{
				"type": "unocc",
				"energy": -0.09238,
				"method": "rhf"
			},
			{
				"type": "unocc",
				"energy": -0.06494,
				"method": "rhf"
			},
			{
				"type": "unocc",
				"energy": -0.03354,
				"method": "rhf"
			},
			{
				"type": "unocc",
				"energy": 0.00686,
				"method": "rhf"
			},
			{
				"type": "unocc",
				"energy": 0.07618,
				"method": "rhf"
			}
		],
		"cosmo_sigma_profile": { 
			"-0.025": 0.0,
			"-0.024": 0.0,
			"-0.023": 0.0,
			"-0.022": 0.0,
			"-0.021": 0.0,
			"-0.02": 0.0,
			"-0.019": 0.0,
			"-0.018": 0.0,
			"-0.017": 0.0,
			"-0.016": 0.0,
			"-0.015": 0.0,
			"-0.014": 0.0,
			"-0.013": 0.0,
			"-0.012": 0.0,
			"-0.011": 0.0,
			"-0.01": 2.73926391938,
			"-0.009": 9.02681956502,
			"-0.008": 6.70349241511,
			"-0.007": 12.2304057998,
			"-0.006": 11.96897842,
			"-0.005": 9.7845861082,
			"-0.004": 8.34354027132,
			"-0.003": 10.0333415683,
			"-0.002": 10.2148786275,
			"-0.001": 12.7745472228,
			"0.0": 22.2736832818,
			"0.001": 27.7841248164,
			"0.002": 28.8278966432,
			"0.003": 8.88602843366,
			"0.004": 6.7202130418,
			"0.005": 5.10209532187,
			"0.006": 5.17370182469,
			"0.007": 5.61208562348,
			"0.008": 6.10150553715,
			"0.009": 8.02397798641,
			"0.01": 4.43527881827,
			"0.011": 0.830084328702,
			"0.012": 0.904451386791,
			"0.013": 0.917750083042,
			"0.014": 1.03423024895,
			"0.015": 0.618844669544,
			"0.016": 0.469347670849,
			"0.017": 0.0,
			"0.018": 0.0,
			"0.019": 0.0,
			"0.02": 0.0,
			"0.021": 0.0,
			"0.022": 0.0,
			"0.023": 0.0,
			"0.024": 0.0,
			"0.0": 0.0
		}
	}
}
