{
	 "smiles": "O=CC1=CC=C(C=C1)N1C=CC=N1", 
	 "Tm": 355.65, 
	 "num_atms": 21, 
	 "gaussian": { 
		 "optdone": 1, 
		 "sigma_profile": "yes", 
		 "theory": "DFT", 
		 "functional": "B3LYP", 
		 "basiset": "6-31G**", 
		 "properties": { 
			 "R2extent": 4632.113, 
			 "electric_dipole_moment_norm": 3.19983544264, 
			 "electric_quadrupole_moment_norm": 19.9753111185, 
			 "total_energy": -570.579678524, 
			 "HOMO_LUMO_gap": 0.1675, 
			 "cosmo_polarized_energy": -11.11, 
			 "cosmo_cavitation_energy": 25.95, 
			 "cosmo_dispersion_energy": -19.14, 
			 "cosmo_repulsion_energy": 1.47, 
			 "cosmo_total_nonelectrostatic_energy": 8.27, 
			 "SMD_solvation_energy": 5.42 
		},
		"coords": [
			{
				"x": -2.0149302394,
				"y": -4.8019166753,
				"z": -4.1416083382,
				"element": "O" 
			},
			{
				"x": -1.0222304475,
				"y": -4.5430903002,
				"z": -3.4861063306,
				"element": "C" 
			},
			{
				"x": -0.976657196,
				"y": -3.5652592114,
				"z": -2.3807685378,
				"element": "C" 
			},
			{
				"x": 0.2171379237,
				"y": -3.3352855739,
				"z": -1.6837276401,
				"element": "C" 
			},
			{
				"x": 0.2718392031,
				"y": -2.4177341696,
				"z": -0.6421341516,
				"element": "C" 
			},
			{
				"x": -0.8862115007,
				"y": -1.7118376847,
				"z": -0.2842352452,
				"element": "C" 
			},
			{
				"x": -2.0897745874,
				"y": -1.9339953399,
				"z": -0.9761674873,
				"element": "C" 
			},
			{
				"x": -2.1284989122,
				"y": -2.8532051523,
				"z": -2.0136953394,
				"element": "C" 
			},
			{
				"x": -0.8255029491,
				"y": -0.7788720184,
				"z": 0.7766724627,
				"element": "N" 
			},
			{
				"x": -1.8270836623,
				"y": 0.0095801576,
				"z": 1.2838340632,
				"element": "C" 
			},
			{
				"x": -1.2802072304,
				"y": 0.7472780635,
				"z": 2.3070636624,
				"element": "C" 
			},
			{
				"x": 0.0754915948,
				"y": 0.3386509415,
				"z": 2.3536679257,
				"element": "C" 
			},
			{
				"x": 0.3492557176,
				"y": -0.5771572425,
				"z": 1.4354838901,
				"element": "N" 
			},
			{
				"x": -0.0532009024,
				"y": -5.0504554197,
				"z": -3.6936314681,
				"element": "H" 
			},
			{
				"x": 1.1143442082,
				"y": -3.8832633082,
				"z": -1.9622534751,
				"element": "H" 
			},
			{
				"x": 1.1867335311,
				"y": -2.2304816796,
				"z": -0.0956955319,
				"element": "H" 
			},
			{
				"x": -2.9910570703,
				"y": -1.3948158875,
				"z": -0.708906943,
				"element": "H" 
			},
			{
				"x": -3.0478226184,
				"y": -3.0387705642,
				"z": -2.5598800018,
				"element": "H" 
			},
			{
				"x": -2.8305371685,
				"y": -0.0101771019,
				"z": 0.8907715257,
				"element": "H" 
			},
			{
				"x": -1.7826226149,
				"y": 1.4727899996,
				"z": 2.9287418548,
				"element": "H" 
			},
			{
				"x": 0.858434921,
				"y": 0.6767181671,
				"z": 3.0194751055,
				"element": "H" 
			}
		],
		 "valence_orbital": [ 
			{
				"type": "occ",
				"energy": -0.3004,
				"method": "rhf"
			},
			{
				"type": "occ",
				"energy": -0.27398,
				"method": "rhf"
			},
			{
				"type": "occ",
				"energy": -0.26194,
				"method": "rhf"
			},
			{
				"type": "occ",
				"energy": -0.25458,
				"method": "rhf"
			},
			{
				"type": "occ",
				"energy": -0.23666,
				"method": "rhf"
			},
			{
				"type": "unocc",
				"energy": -0.06916,
				"method": "rhf"
			},
			{
				"type": "unocc",
				"energy": -0.02105,
				"method": "rhf"
			},
			{
				"type": "unocc",
				"energy": -0.00362,
				"method": "rhf"
			},
			{
				"type": "unocc",
				"energy": 0.05721,
				"method": "rhf"
			},
			{
				"type": "unocc",
				"energy": 0.06121,
				"method": "rhf"
			}
		],
		"cosmo_sigma_profile": { 
			"-0.025": 0.0,
			"-0.024": 0.0,
			"-0.023": 0.0,
			"-0.022": 0.0,
			"-0.021": 0.0,
			"-0.02": 0.0,
			"-0.019": 0.0,
			"-0.018": 0.0,
			"-0.017": 0.0,
			"-0.016": 0.0,
			"-0.015": 0.0,
			"-0.014": 0.0,
			"-0.013": 0.0,
			"-0.012": 0.184534550756,
			"-0.011": 1.65385410872,
			"-0.01": 1.75278157978,
			"-0.009": 2.02190302614,
			"-0.008": 4.86539064165,
			"-0.007": 11.0594236959,
			"-0.006": 12.7215020665,
			"-0.005": 13.9451183735,
			"-0.004": 12.8843081882,
			"-0.003": 11.1973584933,
			"-0.002": 12.2013229295,
			"-0.001": 11.2576538634,
			"0.0": 14.4568318692,
			"0.001": 17.8377738763,
			"0.002": 21.7859827405,
			"0.003": 17.1229778459,
			"0.004": 9.84538727805,
			"0.005": 4.79671691564,
			"0.006": 3.52559594445,
			"0.007": 3.44284377708,
			"0.008": 3.63459556111,
			"0.009": 2.73817996407,
			"0.01": 3.99689698345,
			"0.011": 5.67195641016,
			"0.012": 3.96910316892,
			"0.013": 1.06648406161,
			"0.014": 0.0011548430753,
			"0.015": 0.0,
			"0.016": 0.0,
			"0.017": 0.0,
			"0.018": 0.0,
			"0.019": 0.0,
			"0.02": 0.0,
			"0.021": 0.0,
			"0.022": 0.0,
			"0.023": 0.0,
			"0.024": 0.0,
			"0.025": 0.0
		}
	}
}
