{
	 "smiles": "COC1=CC(OC)=C(Cl)C=C1N=C=O", 
	 "Tm": 366.15, 
	 "num_atms": 22, 
	 "gaussian": { 
		 "optdone": 1, 
		 "sigma_profile": "yes", 
		 "theory": "DFT", 
		 "functional": "B3LYP", 
		 "basiset": "6-31G**", 
		 "properties": { 
			 "R2extent": 4480.8832, 
			 "electric_dipole_moment_norm": 5.12701156816, 
			 "electric_quadrupole_moment_norm": 12.2206350715, 
			 "total_energy": -1088.36573287, 
			 "HOMO_LUMO_gap": 0.19343, 
			 "cosmo_polarized_energy": -10.4, 
			 "cosmo_cavitation_energy": 29.32, 
			 "cosmo_dispersion_energy": -20.94, 
			 "cosmo_repulsion_energy": 1.66, 
			 "cosmo_total_nonelectrostatic_energy": 10.04, 
			 "SMD_solvation_energy": 8.39 
		},
		"coords": [
			{
				"x": 1.9079492307,
				"y": -0.1136306149,
				"z": -0.9780625748,
				"element": "C" 
			},
			{
				"x": 0.9723113748,
				"y": 0.2789041341,
				"z": 0.0161479184,
				"element": "O" 
			},
			{
				"x": -0.1910347734,
				"y": -0.4156215033,
				"z": 0.1399753832,
				"element": "C" 
			},
			{
				"x": -0.5507601864,
				"y": -1.5100954026,
				"z": -0.6496813131,
				"element": "C" 
			},
			{
				"x": -1.7753922894,
				"y": -2.1650379248,
				"z": -0.4475308472,
				"element": "C" 
			},
			{
				"x": -2.1939304424,
				"y": -3.2326920058,
				"z": -1.1725535396,
				"element": "O" 
			},
			{
				"x": -1.3545165267,
				"y": -3.7306710622,
				"z": -2.2024752635,
				"element": "C" 
			},
			{
				"x": -2.6342209134,
				"y": -1.7010580492,
				"z": 0.5631426539,
				"element": "C" 
			},
			{
				"x": -4.1677952253,
				"y": -2.4987735855,
				"z": 0.8373574673,
				"element": "Cl" 
			},
			{
				"x": -2.2761470761,
				"y": -0.6118267943,
				"z": 1.3489300823,
				"element": "C" 
			},
			{
				"x": -1.0598524986,
				"y": 0.0426137531,
				"z": 1.1519245285,
				"element": "C" 
			},
			{
				"x": -0.7292672988,
				"y": 1.1318776894,
				"z": 1.9560669232,
				"element": "N" 
			},
			{
				"x": 0.2092894996,
				"y": 1.8979915962,
				"z": 2.0500994335,
				"element": "C" 
			},
			{
				"x": 1.0270868373,
				"y": 2.7152134182,
				"z": 2.2728056449,
				"element": "O" 
			},
			{
				"x": 2.261612133,
				"y": -1.1386836575,
				"z": -0.811768394,
				"element": "H" 
			},
			{
				"x": 1.4786393062,
				"y": -0.0347223515,
				"z": -1.9845109659,
				"element": "H" 
			},
			{
				"x": 2.7468214984,
				"y": 0.5770361026,
				"z": -0.8880014507,
				"element": "H" 
			},
			{
				"x": 0.1194178062,
				"y": -1.8563707281,
				"z": -1.4235273821,
				"element": "H" 
			},
			{
				"x": -1.8894763767,
				"y": -4.5745145836,
				"z": -2.6395638761,
				"element": "H" 
			},
			{
				"x": -0.3921295011,
				"y": -4.0796301233,
				"z": -1.8066882523,
				"element": "H" 
			},
			{
				"x": -1.1754910382,
				"y": -2.9758374266,
				"z": -2.978863833,
				"element": "H" 
			},
			{
				"x": -2.9429135396,
				"y": -0.2591708804,
				"z": 2.1264776574,
				"element": "H" 
			}
		],
		 "valence_orbital": [ 
			{
				"type": "occ",
				"energy": -0.30842,
				"method": "rhf"
			},
			{
				"type": "occ",
				"energy": -0.30432,
				"method": "rhf"
			},
			{
				"type": "occ",
				"energy": -0.28869,
				"method": "rhf"
			},
			{
				"type": "occ",
				"energy": -0.24756,
				"method": "rhf"
			},
			{
				"type": "occ",
				"energy": -0.20841,
				"method": "rhf"
			},
			{
				"type": "unocc",
				"energy": -0.01498,
				"method": "rhf"
			},
			{
				"type": "unocc",
				"energy": -0.00813,
				"method": "rhf"
			},
			{
				"type": "unocc",
				"energy": 0.02037,
				"method": "rhf"
			},
			{
				"type": "unocc",
				"energy": 0.03463,
				"method": "rhf"
			},
			{
				"type": "unocc",
				"energy": 0.07685,
				"method": "rhf"
			}
		],
		"cosmo_sigma_profile": { 
			"-0.025": 0.0,
			"-0.024": 0.0,
			"-0.023": 0.0,
			"-0.022": 0.0,
			"-0.021": 0.0,
			"-0.02": 0.0,
			"-0.019": 0.0,
			"-0.018": 0.0,
			"-0.017": 0.0,
			"-0.016": 0.0,
			"-0.015": 0.0,
			"-0.014": 0.0,
			"-0.013": 0.0,
			"-0.012": 0.0,
			"-0.011": 0.0,
			"-0.01": 0.0,
			"-0.009": 0.0,
			"-0.008": 2.11399483583,
			"-0.007": 7.32869086077,
			"-0.006": 18.4072768099,
			"-0.005": 17.7409222826,
			"-0.004": 18.4322849387,
			"-0.003": 15.7293744474,
			"-0.002": 15.3076540794,
			"-0.001": 12.8222825375,
			"0.0": 15.2590613628,
			"0.001": 17.8158519038,
			"0.002": 26.4810484168,
			"0.003": 17.4102025824,
			"0.004": 15.3865910656,
			"0.005": 12.0349149098,
			"0.006": 7.55273772328,
			"0.007": 7.76384419381,
			"0.008": 6.16762723713,
			"0.009": 2.02980351748,
			"0.01": 1.65505837658,
			"0.011": 0.246943603534,
			"0.012": 0.0,
			"0.013": 0.0,
			"0.014": 0.0,
			"0.015": 0.0,
			"0.016": 0.0,
			"0.017": 0.0,
			"0.018": 0.0,
			"0.019": 0.0,
			"0.02": 0.0,
			"0.021": 0.0,
			"0.022": 0.0,
			"0.023": 0.0,
			"0.024": 0.0,
			"0.025": 0.0
		}
	}
}
