{
	 "smiles": "CN(C)S(=O)(=O)C1=CC(C(O)=O)=C(Cl)C=C1", 
	 "Tm": 455.15, 
	 "num_atms": 26, 
	 "gaussian": { 
		 "optdone": 1, 
		 "sigma_profile": "yes", 
		 "theory": "DFT", 
		 "functional": "B3LYP", 
		 "basiset": "6-31G**", 
		 "properties": { 
			 "R2extent": 5151.9906, 
			 "electric_dipole_moment_norm": 5.64749347764, 
			 "electric_quadrupole_moment_norm": 22.6394801946, 
			 "total_energy": -1562.93706102, 
			 "HOMO_LUMO_gap": 0.18104, 
			 "cosmo_polarized_energy": -18.76, 
			 "cosmo_cavitation_energy": 33.0, 
			 "cosmo_dispersion_energy": -24.1, 
			 "cosmo_repulsion_energy": 1.82, 
			 "cosmo_total_nonelectrostatic_energy": 10.73, 
			 "SMD_solvation_energy": 5.35 
		},
		"coords": [
			{
				"x": -2.452415108,
				"y": 0.1296840787,
				"z": -1.5986950146,
				"element": "C" 
			},
			{
				"x": -1.9168081207,
				"y": 1.4244969837,
				"z": -1.1567429943,
				"element": "N" 
			},
			{
				"x": -2.7100630095,
				"y": 2.580627108,
				"z": -1.6049670261,
				"element": "C" 
			},
			{
				"x": -1.4837189195,
				"y": 1.4644623297,
				"z": 0.4875403298,
				"element": "S" 
			},
			{
				"x": -1.2055079594,
				"y": 2.8676167484,
				"z": 0.8080824973,
				"element": "O" 
			},
			{
				"x": -2.4061950336,
				"y": 0.6690047389,
				"z": 1.3061991334,
				"element": "O" 
			},
			{
				"x": 0.0892036994,
				"y": 0.5895516227,
				"z": 0.4503520108,
				"element": "C" 
			},
			{
				"x": 0.1611805778,
				"y": -0.7208309531,
				"z": 0.8984443451,
				"element": "C" 
			},
			{
				"x": 1.3824184816,
				"y": -1.4200449001,
				"z": 0.9104342686,
				"element": "C" 
			},
			{
				"x": 1.2717908009,
				"y": -2.850467248,
				"z": 1.4113362189,
				"element": "C" 
			},
			{
				"x": 2.3836247481,
				"y": -3.5134208943,
				"z": 1.7700075779,
				"element": "O" 
			},
			{
				"x": 0.189684289,
				"y": -3.38085024,
				"z": 1.5102399027,
				"element": "O" 
			},
			{
				"x": 2.5156010445,
				"y": -0.7289005285,
				"z": 0.4507869208,
				"element": "C" 
			},
			{
				"x": 4.1193930673,
				"y": -1.4699310037,
				"z": 0.3813255849,
				"element": "Cl" 
			},
			{
				"x": 2.4456363126,
				"y": 0.5940073234,
				"z": 0.0025063766,
				"element": "C" 
			},
			{
				"x": 1.2289253171,
				"y": 1.2629034189,
				"z": 0.0038986516,
				"element": "C" 
			},
			{
				"x": -2.512475581,
				"y": 0.1492928132,
				"z": -2.6901150865,
				"element": "H" 
			},
			{
				"x": -3.4460320625,
				"y": -0.0821039204,
				"z": -1.1839768789,
				"element": "H" 
			},
			{
				"x": -1.7726983329,
				"y": -0.6765572254,
				"z": -1.3140514897,
				"element": "H" 
			},
			{
				"x": -2.6877572998,
				"y": 2.5906633656,
				"z": -2.6983164443,
				"element": "H" 
			},
			{
				"x": -2.2587205389,
				"y": 3.4986799882,
				"z": -1.2311952455,
				"element": "H" 
			},
			{
				"x": -3.7565071544,
				"y": 2.5308666768,
				"z": -1.2730024984,
				"element": "H" 
			},
			{
				"x": -0.7233202731,
				"y": -1.2348153156,
				"z": 1.2567854189,
				"element": "H" 
			},
			{
				"x": 3.18380468,
				"y": -2.982222044,
				"z": 1.6301135058,
				"element": "H" 
			},
			{
				"x": 3.3471624718,
				"y": 1.0880720875,
				"z": -0.3411408295,
				"element": "H" 
			},
			{
				"x": 1.163193903,
				"y": 2.2941149893,
				"z": -0.3246492353,
				"element": "H" 
			}
		],
		 "valence_orbital": [ 
			{
				"type": "occ",
				"energy": -0.31041,
				"method": "rhf"
			},
			{
				"type": "occ",
				"energy": -0.29853,
				"method": "rhf"
			},
			{
				"type": "occ",
				"energy": -0.29322,
				"method": "rhf"
			},
			{
				"type": "occ",
				"energy": -0.28663,
				"method": "rhf"
			},
			{
				"type": "occ",
				"energy": -0.26105,
				"method": "rhf"
			},
			{
				"type": "unocc",
				"energy": -0.08001,
				"method": "rhf"
			},
			{
				"type": "unocc",
				"energy": -0.05714,
				"method": "rhf"
			},
			{
				"type": "unocc",
				"energy": -0.01346,
				"method": "rhf"
			},
			{
				"type": "unocc",
				"energy": 0.0188,
				"method": "rhf"
			},
			{
				"type": "unocc",
				"energy": 0.05385,
				"method": "rhf"
			}
		],
		"cosmo_sigma_profile": { 
			"-0.025": 0.0,
			"-0.024": 0.0,
			"-0.023": 0.0,
			"-0.022": 0.0,
			"-0.021": 0.0,
			"-0.02": 0.0,
			"-0.019": 0.0,
			"-0.018": 0.0,
			"-0.017": 0.0,
			"-0.016": 0.0,
			"-0.015": 0.0,
			"-0.014": 0.169379515143,
			"-0.013": 0.896121089875,
			"-0.012": 1.5036592088,
			"-0.011": 1.07488857356,
			"-0.01": 1.25738514908,
			"-0.009": 4.25220799293,
			"-0.008": 5.84459929913,
			"-0.007": 6.27593933598,
			"-0.006": 11.3906450956,
			"-0.005": 18.8853511044,
			"-0.004": 23.2607098965,
			"-0.003": 27.3104877496,
			"-0.002": 31.6816210294,
			"-0.001": 20.4577420824,
			"0.0": 15.7257112884,
			"0.001": 12.1035592346,
			"0.002": 11.3367079726,
			"0.003": 6.95402760626,
			"0.004": 6.07124245725,
			"0.005": 5.28719397735,
			"0.006": 5.0896217585,
			"0.007": 6.30992862143,
			"0.008": 7.21685022371,
			"0.009": 7.7055374846,
			"0.01": 12.0695583975,
			"0.011": 11.75682123,
			"0.012": 3.55253719333,
			"0.013": 0.331750684201,
			"0.014": 0.0,
			"0.015": 0.0,
			"0.016": 0.0,
			"0.017": 0.0,
			"0.018": 0.0,
			"0.019": 0.0,
			"0.02": 0.0,
			"0.021": 0.0,
			"0.022": 0.0,
			"0.023": 0.0,
			"0.024": 0.0,
			"0.025": 0.0
		}
	}
}
