{
	 "smiles": "CN1C(=O)C(C2=NNC(=O)C2=C/C2=C(O)C=CC3=CC=CC=C23)=C(O)C2=CC=CC=C12", 
	 "Tm": 558.15, 
	 "num_atms": 48, 
	 "gaussian": { 
		 "optdone": 1, 
		 "sigma_profile": "yes", 
		 "theory": "DFT", 
		 "functional": "B3LYP", 
		 "basiset": "6-31G**", 
		 "properties": { 
			 "R2extent": 14046.7919, 
			 "electric_dipole_moment_norm": 7.70227080412, 
			 "electric_quadrupole_moment_norm": 25.4053829763, 
			 "total_energy": -1389.95468821, 
			 "HOMO_LUMO_gap": 0.12008, 
			 "cosmo_polarized_energy": -29.0, 
			 "cosmo_cavitation_energy": 51.52, 
			 "cosmo_dispersion_energy": -36.19, 
			 "cosmo_repulsion_energy": 2.65, 
			 "cosmo_total_nonelectrostatic_energy": 17.99, 
			 "SMD_solvation_energy": 8.5 
		},
		"coords": [
			{
				"x": -2.8570836651,
				"y": -3.21605745,
				"z": 0.5236108033,
				"element": "C" 
			},
			{
				"x": -1.6874138192,
				"y": -3.1431586687,
				"z": -0.3522564338,
				"element": "N" 
			},
			{
				"x": -1.5792384066,
				"y": -1.9950451974,
				"z": -1.1711441103,
				"element": "C" 
			},
			{
				"x": -2.4366142931,
				"y": -1.1158053011,
				"z": -1.1255468871,
				"element": "O" 
			},
			{
				"x": -0.4012940349,
				"y": -1.9137252122,
				"z": -2.0332631485,
				"element": "C" 
			},
			{
				"x": -0.2730837658,
				"y": -0.7206714076,
				"z": -2.895190676,
				"element": "C" 
			},
			{
				"x": -0.2162028427,
				"y": -0.8434131914,
				"z": -4.1954144573,
				"element": "N" 
			},
			{
				"x": -0.0712222951,
				"y": 0.4386274218,
				"z": -4.6883699962,
				"element": "N" 
			},
			{
				"x": -0.0406625939,
				"y": 1.4124169938,
				"z": -3.7354816519,
				"element": "C" 
			},
			{
				"x": 0.1009426642,
				"y": 2.6337520255,
				"z": -3.9661344465,
				"element": "O" 
			},
			{
				"x": -0.1643723612,
				"y": 0.6754374297,
				"z": -2.471432096,
				"element": "C" 
			},
			{
				"x": -0.0227091116,
				"y": 1.0860853276,
				"z": -1.1681702655,
				"element": "C" 
			},
			{
				"x": 0.0532574712,
				"y": 2.3487962745,
				"z": -0.4872416706,
				"element": "C" 
			},
			{
				"x": -0.5975980739,
				"y": 3.5334837125,
				"z": -0.9286761244,
				"element": "C" 
			},
			{
				"x": -1.1717994173,
				"y": 3.6926209439,
				"z": -2.1080569443,
				"element": "O" 
			},
			{
				"x": -0.7640617719,
				"y": 4.6301216632,
				"z": -0.0277268115,
				"element": "C" 
			},
			{
				"x": -0.2588938579,
				"y": 4.5989420409,
				"z": 1.2383741911,
				"element": "C" 
			},
			{
				"x": 0.4836194089,
				"y": 3.474889888,
				"z": 1.7089519324,
				"element": "C" 
			},
			{
				"x": 1.0536055768,
				"y": 3.4707911532,
				"z": 3.0038500044,
				"element": "C" 
			},
			{
				"x": 1.7927381187,
				"y": 2.3955087463,
				"z": 3.453050826,
				"element": "C" 
			},
			{
				"x": 1.9940812947,
				"y": 1.2962888088,
				"z": 2.5969785529,
				"element": "C" 
			},
			{
				"x": 1.4493604964,
				"y": 1.2802292911,
				"z": 1.3250398799,
				"element": "C" 
			},
			{
				"x": 0.6544805307,
				"y": 2.3511705454,
				"z": 0.844231487,
				"element": "C" 
			},
			{
				"x": 0.5324557694,
				"y": -2.9158263933,
				"z": -2.0451429129,
				"element": "C" 
			},
			{
				"x": 1.6270890072,
				"y": -2.7783733449,
				"z": -2.8277710094,
				"element": "O" 
			},
			{
				"x": 0.3610125219,
				"y": -4.1062300826,
				"z": -1.2343518183,
				"element": "C" 
			},
			{
				"x": 1.2603154901,
				"y": -5.1886425538,
				"z": -1.273365764,
				"element": "C" 
			},
			{
				"x": 1.0863724563,
				"y": -6.3070434324,
				"z": -0.473920758,
				"element": "C" 
			},
			{
				"x": -0.0160702933,
				"y": -6.3619714412,
				"z": 0.387718207,
				"element": "C" 
			},
			{
				"x": -0.9326968316,
				"y": -5.3214183669,
				"z": 0.4357732675,
				"element": "C" 
			},
			{
				"x": -0.7698126022,
				"y": -4.1795822785,
				"z": -0.3765491157,
				"element": "C" 
			},
			{
				"x": -2.5511081359,
				"y": -3.2809388435,
				"z": 1.5724287435,
				"element": "H" 
			},
			{
				"x": -3.475248167,
				"y": -4.0839975153,
				"z": 0.273654525,
				"element": "H" 
			},
			{
				"x": -3.4282219784,
				"y": -2.3041471665,
				"z": 0.364709425,
				"element": "H" 
			},
			{
				"x": -0.0172526471,
				"y": 0.5891350373,
				"z": -5.683553426,
				"element": "H" 
			},
			{
				"x": 0.030908613,
				"y": 0.2438933877,
				"z": -0.482580822,
				"element": "H" 
			},
			{
				"x": -0.6448096096,
				"y": 3.2665139124,
				"z": -2.8784385569,
				"element": "H" 
			},
			{
				"x": -1.3138051312,
				"y": 5.4855355754,
				"z": -0.4051258145,
				"element": "H" 
			},
			{
				"x": -0.4002243589,
				"y": 5.4464416473,
				"z": 1.9045325167,
				"element": "H" 
			},
			{
				"x": 0.9018349136,
				"y": 4.339641428,
				"z": 3.63939554,
				"element": "H" 
			},
			{
				"x": 2.2281893461,
				"y": 2.4019546406,
				"z": 4.4476038295,
				"element": "H" 
			},
			{
				"x": 2.5976699798,
				"y": 0.4565096746,
				"z": 2.9297823126,
				"element": "H" 
			},
			{
				"x": 1.6700367677,
				"y": 0.4387371055,
				"z": 0.6776739637,
				"element": "H" 
			},
			{
				"x": 2.2819926906,
				"y": -3.4500782746,
				"z": -2.600739497,
				"element": "H" 
			},
			{
				"x": 2.1024248172,
				"y": -5.1766294828,
				"z": -1.9615095797,
				"element": "H" 
			},
			{
				"x": 1.7909340715,
				"y": -7.1303866159,
				"z": -0.5231802395,
				"element": "H" 
			},
			{
				"x": -0.1666320988,
				"y": -7.2300990704,
				"z": 1.0223993202,
				"element": "H" 
			},
			{
				"x": -1.7816898417,
				"y": -5.3945833839,
				"z": 1.1024757061,
				"element": "H" 
			}
		],
		 "valence_orbital": [ 
			{
				"type": "occ",
				"energy": -0.24926,
				"method": "rhf"
			},
			{
				"type": "occ",
				"energy": -0.23388,
				"method": "rhf"
			},
			{
				"type": "occ",
				"energy": -0.22934,
				"method": "rhf"
			},
			{
				"type": "occ",
				"energy": -0.22051,
				"method": "rhf"
			},
			{
				"type": "occ",
				"energy": -0.20315,
				"method": "rhf"
			},
			{
				"type": "unocc",
				"energy": -0.08307,
				"method": "rhf"
			},
			{
				"type": "unocc",
				"energy": -0.06098,
				"method": "rhf"
			},
			{
				"type": "unocc",
				"energy": -0.02859,
				"method": "rhf"
			},
			{
				"type": "unocc",
				"energy": -0.01927,
				"method": "rhf"
			},
			{
				"type": "unocc",
				"energy": -0.00325,
				"method": "rhf"
			}
		],
		"cosmo_sigma_profile": { 
			"-0.025": 0.0,
			"-0.024": 0.0,
			"-0.023": 0.0,
			"-0.022": 0.0,
			"-0.021": 0.0,
			"-0.02": 0.0,
			"-0.019": 0.531683579736,
			"-0.018": 0.741015304736,
			"-0.017": 1.25656188209,
			"-0.016": 2.6301647401,
			"-0.015": 2.00547822378,
			"-0.014": 1.9278995164,
			"-0.013": 1.40267005778,
			"-0.012": 1.88105930834,
			"-0.011": 2.40320375781,
			"-0.01": 2.12017307193,
			"-0.009": 1.19204740569,
			"-0.008": 2.86567103542,
			"-0.007": 13.7006416285,
			"-0.006": 27.94640058,
			"-0.005": 26.99384257,
			"-0.004": 25.3488288197,
			"-0.003": 23.4350309007,
			"-0.002": 25.7326151643,
			"-0.001": 27.3849138362,
			"0.0": 29.7183718498,
			"0.001": 34.285185166,
			"0.002": 34.0527755633,
			"0.003": 32.0849965297,
			"0.004": 24.5857597381,
			"0.005": 12.7574120247,
			"0.006": 6.50306188825,
			"0.007": 5.52870430172,
			"0.008": 7.69645903582,
			"0.009": 6.27105435577,
			"0.01": 7.02240351435,
			"0.011": 6.78479342305,
			"0.012": 6.7491787505,
			"0.013": 5.65345302294,
			"0.014": 3.41001555281,
			"0.015": 0.400207439034,
			"0.016": 0.0,
			"0.017": 0.0,
			"0.018": 0.0,
			"0.019": 0.0,
			"0.02": 0.0,
			"0.021": 0.0,
			"0.022": 0.0,
			"0.023": 0.0,
			"0.024": 0.0,
			"0.025": 0.0
		}
	}
}
