{
	 "smiles": "CC(C)(C)C(=O)C(OC1=CC=C(Cl)C=C1)N1C=NC=N1", 
	 "Tm": 355.45, 
	 "num_atms": 36, 
	 "gaussian": { 
		 "optdone": 1, 
		 "sigma_profile": "yes", 
		 "theory": "DFT", 
		 "functional": "B3LYP", 
		 "basiset": "6-31G**", 
		 "properties": { 
			 "R2extent": 7312.0486, 
			 "electric_dipole_moment_norm": 4.39036650179, 
			 "electric_quadrupole_moment_norm": 10.9519826292, 
			 "total_energy": -1317.99382621, 
			 "HOMO_LUMO_gap": 0.18482, 
			 "cosmo_polarized_energy": -13.49, 
			 "cosmo_cavitation_energy": 40.86, 
			 "cosmo_dispersion_energy": -27.18, 
			 "cosmo_repulsion_energy": 2.07, 
			 "cosmo_total_nonelectrostatic_energy": 15.75, 
			 "SMD_solvation_energy": 4.74 
		},
		"coords": [
			{
				"x": -0.5172242432,
				"y": 2.2307891458,
				"z": 3.294232575,
				"element": "C" 
			},
			{
				"x": -0.9376978355,
				"y": 1.956333125,
				"z": 1.8420349053,
				"element": "C" 
			},
			{
				"x": -0.8675587204,
				"y": 3.2688005129,
				"z": 1.0205432989,
				"element": "C" 
			},
			{
				"x": -2.3773967828,
				"y": 1.3917079579,
				"z": 1.8073693669,
				"element": "C" 
			},
			{
				"x": 0.041533184,
				"y": 0.9539994995,
				"z": 1.2170330773,
				"element": "C" 
			},
			{
				"x": 1.0229457525,
				"y": 0.5367700738,
				"z": 1.8035245184,
				"element": "O" 
			},
			{
				"x": -0.2785055813,
				"y": 0.4218828036,
				"z": -0.2006668362,
				"element": "C" 
			},
			{
				"x": -0.8920026697,
				"y": -0.8701138757,
				"z": -0.0696658419,
				"element": "O" 
			},
			{
				"x": -0.1125788424,
				"y": -1.9806470576,
				"z": 0.224200043,
				"element": "C" 
			},
			{
				"x": -0.10045944,
				"y": -2.491122577,
				"z": 1.5235361114,
				"element": "C" 
			},
			{
				"x": 0.596776359,
				"y": -3.6653991629,
				"z": 1.8026882409,
				"element": "C" 
			},
			{
				"x": 1.2798883265,
				"y": -4.3147371021,
				"z": 0.7741299888,
				"element": "C" 
			},
			{
				"x": 2.1613277788,
				"y": -5.794431103,
				"z": 1.1238618923,
				"element": "Cl" 
			},
			{
				"x": 1.2689710712,
				"y": -3.8143596457,
				"z": -0.5277184771,
				"element": "C" 
			},
			{
				"x": 0.564122472,
				"y": -2.6431471395,
				"z": -0.8034261648,
				"element": "C" 
			},
			{
				"x": 0.8707295856,
				"y": 0.4557770147,
				"z": -1.0748277631,
				"element": "N" 
			},
			{
				"x": 2.1970300269,
				"y": 0.2226785076,
				"z": -0.8532998759,
				"element": "C" 
			},
			{
				"x": 2.8645040399,
				"y": 0.277218685,
				"z": -1.9886546899,
				"element": "N" 
			},
			{
				"x": 1.8845971052,
				"y": 0.5371432425,
				"z": -2.9045434193,
				"element": "C" 
			},
			{
				"x": 0.6629710985,
				"y": 0.6488128297,
				"z": -2.4142859872,
				"element": "N" 
			},
			{
				"x": -1.1979988471,
				"y": 2.9587993083,
				"z": 3.7463429895,
				"element": "H" 
			},
			{
				"x": 0.4996001415,
				"y": 2.6277803494,
				"z": 3.3451005198,
				"element": "H" 
			},
			{
				"x": -0.5430997898,
				"y": 1.3164296127,
				"z": 3.8932631623,
				"element": "H" 
			},
			{
				"x": 0.1431154144,
				"y": 3.6890214161,
				"z": 1.0274760416,
				"element": "H" 
			},
			{
				"x": -1.5418666408,
				"y": 4.0080218262,
				"z": 1.4648248605,
				"element": "H" 
			},
			{
				"x": -1.1734082328,
				"y": 3.1323258408,
				"z": -0.0214799632,
				"element": "H" 
			},
			{
				"x": -2.7280692456,
				"y": 1.184485937,
				"z": 0.7926357966,
				"element": "H" 
			},
			{
				"x": -2.4560420195,
				"y": 0.4650368947,
				"z": 2.3836722968,
				"element": "H" 
			},
			{
				"x": -3.0602449025,
				"y": 2.1237107262,
				"z": 2.2508506499,
				"element": "H" 
			},
			{
				"x": -1.0404644484,
				"y": 1.0185493687,
				"z": -0.6972591828,
				"element": "H" 
			},
			{
				"x": -0.6391798949,
				"y": -1.9723965674,
				"z": 2.3085093569,
				"element": "H" 
			},
			{
				"x": 0.611867969,
				"y": -4.0722656062,
				"z": 2.8074946872,
				"element": "H" 
			},
			{
				"x": 1.7983798914,
				"y": -4.336507628,
				"z": -1.3166492102,
				"element": "H" 
			},
			{
				"x": 0.5219466613,
				"y": -2.2474934522,
				"z": -1.8124121997,
				"element": "H" 
			},
			{
				"x": 2.5944246363,
				"y": 0.0337751147,
				"z": 0.1311495095,
				"element": "H" 
			},
			{
				"x": 2.0814666227,
				"y": 0.6536711243,
				"z": -3.9616842773,
				"element": "H" 
			}
		],
		 "valence_orbital": [ 
			{
				"type": "occ",
				"energy": -0.28167,
				"method": "rhf"
			},
			{
				"type": "occ",
				"energy": -0.27859,
				"method": "rhf"
			},
			{
				"type": "occ",
				"energy": -0.26883,
				"method": "rhf"
			},
			{
				"type": "occ",
				"energy": -0.26494,
				"method": "rhf"
			},
			{
				"type": "occ",
				"energy": -0.24102,
				"method": "rhf"
			},
			{
				"type": "unocc",
				"energy": -0.0562,
				"method": "rhf"
			},
			{
				"type": "unocc",
				"energy": -0.0198,
				"method": "rhf"
			},
			{
				"type": "unocc",
				"energy": -0.01423,
				"method": "rhf"
			},
			{
				"type": "unocc",
				"energy": -0.00368,
				"method": "rhf"
			},
			{
				"type": "unocc",
				"energy": 0.02691,
				"method": "rhf"
			}
		],
		"cosmo_sigma_profile": { 
			"-0.025": 0.0,
			"-0.024": 0.0,
			"-0.023": 0.0,
			"-0.022": 0.0,
			"-0.021": 0.0,
			"-0.02": 0.0,
			"-0.019": 0.0,
			"-0.018": 0.0,
			"-0.017": 0.0,
			"-0.016": 0.0,
			"-0.015": 0.0,
			"-0.014": 0.0,
			"-0.013": 0.0,
			"-0.012": 0.0,
			"-0.011": 0.0,
			"-0.01": 0.580865226799,
			"-0.009": 4.07316957072,
			"-0.008": 5.70064813416,
			"-0.007": 9.12042645483,
			"-0.006": 15.0379559377,
			"-0.005": 15.173636823,
			"-0.004": 26.5257748373,
			"-0.003": 27.3585372182,
			"-0.002": 25.4113916348,
			"-0.001": 29.5612532708,
			"0.0": 31.2829188958,
			"0.001": 28.2145234047,
			"0.002": 24.8416828498,
			"0.003": 20.0345056017,
			"0.004": 17.9165863462,
			"0.005": 11.4481826041,
			"0.006": 5.03076717435,
			"0.007": 5.07344486879,
			"0.008": 4.82364167102,
			"0.009": 5.33223155117,
			"0.01": 3.06621925526,
			"0.011": 3.64693806368,
			"0.012": 1.96801247623,
			"0.013": 1.66736411254,
			"0.014": 1.48253878275,
			"0.015": 1.14297188666,
			"0.016": 0.693290312225,
			"0.017": 0.0353682498269,
			"0.018": 0.0,
			"0.019": 0.0,
			"0.02": 0.0,
			"0.021": 0.0,
			"0.022": 0.0,
			"0.023": 0.0,
			"0.024": 0.0,
			"0.025": 0.0
		}
	}
}
