{
	 "smiles": "OC1=CC(NC(=O)C2=CC=CS2)=CC=C1", 
	 "Tm": 428.15, 
	 "num_atms": 24, 
	 "gaussian": { 
		 "optdone": 1, 
		 "sigma_profile": "yes", 
		 "theory": "DFT", 
		 "functional": "B3LYP", 
		 "basiset": "6-31G**", 
		 "properties": { 
			 "R2extent": 4832.2851, 
			 "electric_dipole_moment_norm": 5.02926899758, 
			 "electric_quadrupole_moment_norm": 21.0551993111, 
			 "total_energy": -1027.9719428, 
			 "HOMO_LUMO_gap": 0.17527, 
			 "cosmo_polarized_energy": -16.56, 
			 "cosmo_cavitation_energy": 30.35, 
			 "cosmo_dispersion_energy": -22.22, 
			 "cosmo_repulsion_energy": 1.7, 
			 "cosmo_total_nonelectrostatic_energy": 9.83, 
			 "SMD_solvation_energy": 6.06 
		},
		"coords": [
			{
				"x": -0.5445554582,
				"y": -0.7867761896,
				"z": 2.7181480822,
				"element": "O" 
			},
			{
				"x": 0.0353713093,
				"y": 0.4249865917,
				"z": 2.4749051295,
				"element": "C" 
			},
			{
				"x": 1.1096982848,
				"y": 0.441540326,
				"z": 1.5808131934,
				"element": "C" 
			},
			{
				"x": 1.7392447143,
				"y": 1.6526866251,
				"z": 1.2778404579,
				"element": "C" 
			},
			{
				"x": 2.8545803563,
				"y": 1.717060057,
				"z": 0.4049158843,
				"element": "N" 
			},
			{
				"x": 3.1965242768,
				"y": 0.9751494356,
				"z": -0.7152353539,
				"element": "C" 
			},
			{
				"x": 4.3748956825,
				"y": 0.8996147183,
				"z": -1.0542999136,
				"element": "O" 
			},
			{
				"x": 2.1318655668,
				"y": 0.3569597965,
				"z": -1.5354198885,
				"element": "C" 
			},
			{
				"x": 0.7835387871,
				"y": 0.6178393204,
				"z": -1.6493817967,
				"element": "C" 
			},
			{
				"x": 0.1536307781,
				"y": -0.1497277183,
				"z": -2.6664123932,
				"element": "C" 
			},
			{
				"x": 1.0320672757,
				"y": -0.9816879914,
				"z": -3.3140601085,
				"element": "C" 
			},
			{
				"x": 2.6415616918,
				"y": -0.8280005302,
				"z": -2.7126415149,
				"element": "S" 
			},
			{
				"x": 1.3153866626,
				"y": 2.8392551866,
				"z": 1.8968126901,
				"element": "C" 
			},
			{
				"x": 0.2610502235,
				"y": 2.8017614925,
				"z": 2.8059973986,
				"element": "C" 
			},
			{
				"x": -0.3923786388,
				"y": 1.6041733745,
				"z": 3.0960862122,
				"element": "C" 
			},
			{
				"x": -1.2421785533,
				"y": -0.6780425644,
				"z": 3.3772799332,
				"element": "H" 
			},
			{
				"x": 1.4407968877,
				"y": -0.4908188893,
				"z": 1.1402912046,
				"element": "H" 
			},
			{
				"x": 3.658596049,
				"y": 2.2271759255,
				"z": 0.7508388485,
				"element": "H" 
			},
			{
				"x": 0.2635499649,
				"y": 1.3382186339,
				"z": -1.0311205513,
				"element": "H" 
			},
			{
				"x": -0.901783536,
				"y": -0.0864842259,
				"z": -2.9051893133,
				"element": "H" 
			},
			{
				"x": 0.8188631899,
				"y": -1.6755782183,
				"z": -4.1160545285,
				"element": "H" 
			},
			{
				"x": 1.8068706304,
				"y": 3.776017279,
				"z": 1.6539524371,
				"element": "H" 
			},
			{
				"x": -0.0660221846,
				"y": 3.7188317574,
				"z": 3.2869940676,
				"element": "H" 
			},
			{
				"x": -1.2223739605,
				"y": 1.5833458075,
				"z": 3.7984398233,
				"element": "H" 
			}
		],
		 "valence_orbital": [ 
			{
				"type": "occ",
				"energy": -0.26105,
				"method": "rhf"
			},
			{
				"type": "occ",
				"energy": -0.25693,
				"method": "rhf"
			},
			{
				"type": "occ",
				"energy": -0.24133,
				"method": "rhf"
			},
			{
				"type": "occ",
				"energy": -0.23366,
				"method": "rhf"
			},
			{
				"type": "occ",
				"energy": -0.22451,
				"method": "rhf"
			},
			{
				"type": "unocc",
				"energy": -0.04924,
				"method": "rhf"
			},
			{
				"type": "unocc",
				"energy": -0.00912,
				"method": "rhf"
			},
			{
				"type": "unocc",
				"energy": 0.00266,
				"method": "rhf"
			},
			{
				"type": "unocc",
				"energy": 0.03476,
				"method": "rhf"
			},
			{
				"type": "unocc",
				"energy": 0.04081,
				"method": "rhf"
			}
		],
		"cosmo_sigma_profile": { 
			"-0.025": 0.0,
			"-0.024": 0.0,
			"-0.023": 0.0,
			"-0.022": 0.0,
			"-0.021": 0.0,
			"-0.02": 0.0,
			"-0.019": 0.0,
			"-0.018": 0.599805386586,
			"-0.017": 0.936277522008,
			"-0.016": 0.932309679306,
			"-0.015": 1.52483399729,
			"-0.014": 2.13880770595,
			"-0.013": 1.20014408744,
			"-0.012": 1.71623769968,
			"-0.011": 2.20254655185,
			"-0.01": 2.34683441804,
			"-0.009": 3.54808998475,
			"-0.008": 3.98917148476,
			"-0.007": 6.67342326624,
			"-0.006": 13.5356047847,
			"-0.005": 13.7918753478,
			"-0.004": 14.9193053936,
			"-0.003": 11.9194156228,
			"-0.002": 12.5466828188,
			"-0.001": 11.9483639908,
			"0.0": 13.4581607437,
			"0.001": 17.6015210874,
			"0.002": 21.9589563825,
			"0.003": 24.7188945272,
			"0.004": 19.4219790343,
			"0.005": 11.9009254799,
			"0.006": 3.21184527677,
			"0.007": 3.12565093525,
			"0.008": 3.43177561684,
			"0.009": 2.84144582238,
			"0.01": 3.58593702829,
			"0.011": 3.17848024056,
			"0.012": 3.75239942275,
			"0.013": 5.67474523401,
			"0.014": 0.818005840698,
			"0.015": 0.0,
			"0.016": 0.0,
			"0.017": 0.0,
			"0.018": 0.0,
			"0.019": 0.0,
			"0.02": 0.0,
			"0.021": 0.0,
			"0.022": 0.0,
			"0.023": 0.0,
			"0.024": 0.0,
			"0.025": 0.0
		}
	}
}
