{
	 "smiles": "NC1=C(SCCCO)C=CN=C1", 
	 "Tm": 345.15, 
	 "num_atms": 24, 
	 "gaussian": { 
		 "optdone": 1, 
		 "sigma_profile": "yes", 
		 "theory": "DFT", 
		 "functional": "B3LYP", 
		 "basiset": "6-31G**", 
		 "properties": { 
			 "R2extent": 3162.7248, 
			 "electric_dipole_moment_norm": 2.33757524157, 
			 "electric_quadrupole_moment_norm": 12.2827824914, 
			 "total_energy": -894.986607459, 
			 "HOMO_LUMO_gap": 0.18652, 
			 "cosmo_polarized_energy": -15.0, 
			 "cosmo_cavitation_energy": 28.94, 
			 "cosmo_dispersion_energy": -20.99, 
			 "cosmo_repulsion_energy": 1.68, 
			 "cosmo_total_nonelectrostatic_energy": 9.62, 
			 "SMD_solvation_energy": 3.0 
		},
		"coords": [
			{
				"x": 2.7550323649,
				"y": 0.5291921167,
				"z": -0.6403820384,
				"element": "N" 
			},
			{
				"x": 2.2481649974,
				"y": -0.7619707359,
				"z": -0.5906297516,
				"element": "C" 
			},
			{
				"x": 1.0879565958,
				"y": -1.0794604389,
				"z": 0.1509353889,
				"element": "C" 
			},
			{
				"x": 0.270803063,
				"y": 0.1546982685,
				"z": 1.1594998153,
				"element": "S" 
			},
			{
				"x": -0.5130594496,
				"y": 1.2184916171,
				"z": -0.1360594824,
				"element": "C" 
			},
			{
				"x": -1.6829589063,
				"y": 0.5580037962,
				"z": -0.8643017085,
				"element": "C" 
			},
			{
				"x": -2.2878837453,
				"y": 1.4709143325,
				"z": -1.9377438259,
				"element": "C" 
			},
			{
				"x": -3.4066471994,
				"y": 0.8834520361,
				"z": -2.5851914016,
				"element": "O" 
			},
			{
				"x": 0.628056735,
				"y": -2.3992096061,
				"z": 0.126032746,
				"element": "C" 
			},
			{
				"x": 1.3083201239,
				"y": -3.3518934357,
				"z": -0.6305716309,
				"element": "C" 
			},
			{
				"x": 2.3989766518,
				"y": -3.0600451172,
				"z": -1.3525913075,
				"element": "N" 
			},
			{
				"x": 2.8447462482,
				"y": -1.8067414007,
				"z": -1.3256271482,
				"element": "C" 
			},
			{
				"x": 3.7228703985,
				"y": 0.5980686135,
				"z": -0.9250341029,
				"element": "H" 
			},
			{
				"x": 2.542138476,
				"y": 1.0855981857,
				"z": 0.1802766038,
				"element": "H" 
			},
			{
				"x": -0.8434191233,
				"y": 2.105233369,
				"z": 0.4156765384,
				"element": "H" 
			},
			{
				"x": 0.2674753945,
				"y": 1.5342558249,
				"z": -0.834928874,
				"element": "H" 
			},
			{
				"x": -2.4658802253,
				"y": 0.2809220152,
				"z": -0.1502840544,
				"element": "H" 
			},
			{
				"x": -1.3365962385,
				"y": -0.3706194926,
				"z": -1.3370980743,
				"element": "H" 
			},
			{
				"x": -1.5109052472,
				"y": 1.7645290572,
				"z": -2.6631583339,
				"element": "H" 
			},
			{
				"x": -2.6629615186,
				"y": 2.3933698369,
				"z": -1.4803377697,
				"element": "H" 
			},
			{
				"x": -3.0980287748,
				"y": 0.0928412831,
				"z": -3.0466616845,
				"element": "H" 
			},
			{
				"x": -0.2546497255,
				"y": -2.6712875973,
				"z": 0.6954756296,
				"element": "H" 
			},
			{
				"x": 0.9642867012,
				"y": -4.3831740462,
				"z": -0.6618045795,
				"element": "H" 
			},
			{
				"x": 3.7380624036,
				"y": -1.5940684819,
				"z": -1.9146909538,
				"element": "H" 
			}
		],
		 "valence_orbital": [ 
			{
				"type": "occ",
				"energy": -0.27852,
				"method": "rhf"
			},
			{
				"type": "occ",
				"energy": -0.27129,
				"method": "rhf"
			},
			{
				"type": "occ",
				"energy": -0.25404,
				"method": "rhf"
			},
			{
				"type": "occ",
				"energy": -0.23872,
				"method": "rhf"
			},
			{
				"type": "occ",
				"energy": -0.21947,
				"method": "rhf"
			},
			{
				"type": "unocc",
				"energy": -0.03295,
				"method": "rhf"
			},
			{
				"type": "unocc",
				"energy": -0.00143,
				"method": "rhf"
			},
			{
				"type": "unocc",
				"energy": 0.03991,
				"method": "rhf"
			},
			{
				"type": "unocc",
				"energy": 0.06461,
				"method": "rhf"
			},
			{
				"type": "unocc",
				"energy": 0.07462,
				"method": "rhf"
			}
		],
		"cosmo_sigma_profile": { 
			"-0.025": 0.0,
			"-0.024": 0.0,
			"-0.023": 0.0,
			"-0.022": 0.0,
			"-0.021": 0.0,
			"-0.02": 0.0,
			"-0.019": 0.0,
			"-0.018": 0.0,
			"-0.017": 0.0,
			"-0.016": 0.0218399508871,
			"-0.015": 0.989539460971,
			"-0.014": 1.21832088386,
			"-0.013": 1.72531244612,
			"-0.012": 2.65726109917,
			"-0.011": 2.99777757526,
			"-0.01": 3.43545179059,
			"-0.009": 3.93507294248,
			"-0.008": 3.57390890123,
			"-0.007": 4.02262100854,
			"-0.006": 8.9932192175,
			"-0.005": 12.2667851834,
			"-0.004": 17.1258026763,
			"-0.003": 19.5361229322,
			"-0.002": 17.5117368049,
			"-0.001": 13.3274770715,
			"0.0": 15.6582910285,
			"0.001": 15.2807120837,
			"0.002": 15.7914534264,
			"0.003": 12.9009785759,
			"0.004": 10.1454960403,
			"0.005": 8.54889075552,
			"0.006": 6.49177568268,
			"0.007": 5.49169013634,
			"0.008": 4.43375120222,
			"0.009": 4.22195859777,
			"0.01": 3.05664498455,
			"0.011": 2.22246128222,
			"0.012": 2.31391306368,
			"0.013": 3.12778183305,
			"0.014": 2.93720027367,
			"0.015": 1.82326061836,
			"0.016": 1.11647379572,
			"0.017": 0.439704188739,
			"0.018": 0.00568179983051,
			"0.019": 0.0,
			"0.02": 0.0,
			"0.021": 0.0,
			"0.022": 0.0,
			"0.023": 0.0,
			"0.024": 0.0,
			"0.025": 0.0
		}
	}
}
