{
	 "smiles": "CC1=CC(=CC(C)=C1C)C(C)(C)C", 
	 "Tm": 305.15, 
	 "num_atms": 33, 
	 "gaussian": { 
		 "optdone": 1, 
		 "sigma_profile": "yes", 
		 "theory": "DFT", 
		 "functional": "B3LYP", 
		 "basiset": "6-31G**", 
		 "properties": { 
			 "R2extent": 3553.0671, 
			 "electric_dipole_moment_norm": 0.417598383618, 
			 "electric_quadrupole_moment_norm": 3.3058107402, 
			 "total_energy": -507.471985901, 
			 "HOMO_LUMO_gap": 0.22801, 
			 "cosmo_polarized_energy": -3.42, 
			 "cosmo_cavitation_energy": 32.76, 
			 "cosmo_dispersion_energy": -23.03, 
			 "cosmo_repulsion_energy": 1.82, 
			 "cosmo_total_nonelectrostatic_energy": 11.55, 
			 "SMD_solvation_energy": 5.71 
		},
		"coords": [
			{
				"x": 1.9328811523,
				"y": 1.2870280398,
				"z": -0.3958014711,
				"element": "C" 
			},
			{
				"x": 0.8706585225,
				"y": 0.2499036259,
				"z": -0.1015017048,
				"element": "C" 
			},
			{
				"x": 0.889815147,
				"y": -0.960082277,
				"z": -0.8091335081,
				"element": "C" 
			},
			{
				"x": -0.0499210286,
				"y": -1.9700764149,
				"z": -0.5873002661,
				"element": "C" 
			},
			{
				"x": -1.0238034359,
				"y": -1.7248254747,
				"z": 0.3905109355,
				"element": "C" 
			},
			{
				"x": -1.0765989334,
				"y": -0.532261931,
				"z": 1.1162047387,
				"element": "C" 
			},
			{
				"x": -2.1557401946,
				"y": -0.3524375658,
				"z": 2.1616945841,
				"element": "C" 
			},
			{
				"x": -0.1234170712,
				"y": 0.4782833408,
				"z": 0.8680615555,
				"element": "C" 
			},
			{
				"x": -0.1538935809,
				"y": 1.7729908492,
				"z": 1.65065533,
				"element": "C" 
			},
			{
				"x": -0.0470098589,
				"y": -3.3045579672,
				"z": -1.3559159809,
				"element": "C" 
			},
			{
				"x": 1.0935814829,
				"y": -3.3841928947,
				"z": -2.3883855472,
				"element": "C" 
			},
			{
				"x": 0.1253743362,
				"y": -4.4746957537,
				"z": -0.3583187781,
				"element": "C" 
			},
			{
				"x": -1.3886002483,
				"y": -3.4690736303,
				"z": -2.1091167806,
				"element": "C" 
			},
			{
				"x": 1.5025211882,
				"y": 2.2142682124,
				"z": -0.7942455638,
				"element": "H" 
			},
			{
				"x": 2.4979750407,
				"y": 1.5611739239,
				"z": 0.5027595334,
				"element": "H" 
			},
			{
				"x": 2.6470274604,
				"y": 0.9138948736,
				"z": -1.1347548757,
				"element": "H" 
			},
			{
				"x": 1.670210099,
				"y": -1.0982698079,
				"z": -1.5496755525,
				"element": "H" 
			},
			{
				"x": -1.7725950331,
				"y": -2.483318202,
				"z": 0.6039950801,
				"element": "H" 
			},
			{
				"x": -2.8307698254,
				"y": 0.47693152,
				"z": 1.9165362285,
				"element": "H" 
			},
			{
				"x": -2.7656700577,
				"y": -1.2554040134,
				"z": 2.2508638365,
				"element": "H" 
			},
			{
				"x": -1.7355561541,
				"y": -0.1366241152,
				"z": 3.1510046142,
				"element": "H" 
			},
			{
				"x": 0.4472288509,
				"y": 1.7041129093,
				"z": 2.5681238116,
				"element": "H" 
			},
			{
				"x": 0.2458174295,
				"y": 2.6090270268,
				"z": 1.0715632263,
				"element": "H" 
			},
			{
				"x": -1.1681851278,
				"y": 2.0419290282,
				"z": 1.9555198452,
				"element": "H" 
			},
			{
				"x": 1.0532337487,
				"y": -4.3462769017,
				"z": -2.9098443553,
				"element": "H" 
			},
			{
				"x": 2.0779354497,
				"y": -3.3067047892,
				"z": -1.9150629364,
				"element": "H" 
			},
			{
				"x": 1.0146869897,
				"y": -2.5956129934,
				"z": -3.1439736688,
				"element": "H" 
			},
			{
				"x": 0.12227123,
				"y": -5.4340561563,
				"z": -0.8886755909,
				"element": "H" 
			},
			{
				"x": 1.0727742651,
				"y": -4.389227224,
				"z": 0.1841136901,
				"element": "H" 
			},
			{
				"x": -0.6804258906,
				"y": -4.5003966557,
				"z": 0.3811676338,
				"element": "H" 
			},
			{
				"x": -2.2423498605,
				"y": -3.4630782286,
				"z": -1.4250816858,
				"element": "H" 
			},
			{
				"x": -1.5337941327,
				"y": -2.6579061591,
				"z": -2.8302475431,
				"element": "H" 
			},
			{
				"x": -1.4065619591,
				"y": -4.4184641942,
				"z": -2.6568388342,
				"element": "H" 
			}
		],
		 "valence_orbital": [ 
			{
				"type": "occ",
				"energy": -0.31394,
				"method": "rhf"
			},
			{
				"type": "occ",
				"energy": -0.30743,
				"method": "rhf"
			},
			{
				"type": "occ",
				"energy": -0.304,
				"method": "rhf"
			},
			{
				"type": "occ",
				"energy": -0.22556,
				"method": "rhf"
			},
			{
				"type": "occ",
				"energy": -0.21835,
				"method": "rhf"
			},
			{
				"type": "unocc",
				"energy": 0.00966,
				"method": "rhf"
			},
			{
				"type": "unocc",
				"energy": 0.01549,
				"method": "rhf"
			},
			{
				"type": "unocc",
				"energy": 0.08683,
				"method": "rhf"
			},
			{
				"type": "unocc",
				"energy": 0.09503,
				"method": "rhf"
			},
			{
				"type": "unocc",
				"energy": 0.11878,
				"method": "rhf"
			}
		],
		"cosmo_sigma_profile": { 
			"-0.025": 0.0,
			"-0.024": 0.0,
			"-0.023": 0.0,
			"-0.022": 0.0,
			"-0.021": 0.0,
			"-0.02": 0.0,
			"-0.019": 0.0,
			"-0.018": 0.0,
			"-0.017": 0.0,
			"-0.016": 0.0,
			"-0.015": 0.0,
			"-0.014": 0.0,
			"-0.013": 0.0,
			"-0.012": 0.0,
			"-0.011": 0.0,
			"-0.01": 0.0,
			"-0.009": 0.0,
			"-0.008": 0.0,
			"-0.007": 0.0,
			"-0.006": 0.0,
			"-0.005": 0.176126601758,
			"-0.004": 13.254700585,
			"-0.003": 29.5564046948,
			"-0.002": 39.9463131662,
			"-0.001": 39.769293394,
			"0.0": 36.803027688,
			"0.001": 37.7369389998,
			"0.002": 22.8780459217,
			"0.003": 6.81160275857,
			"0.004": 6.73232697037,
			"0.005": 6.25706056728,
			"0.006": 5.44235740398,
			"0.007": 5.97741891484,
			"0.008": 2.84421620761,
			"0.009": 0.00849872109121,
			"0.01": 0.0,
			"0.011": 0.0,
			"0.012": 0.0,
			"0.013": 0.0,
			"0.014": 0.0,
			"0.015": 0.0,
			"0.016": 0.0,
			"0.017": 0.0,
			"0.018": 0.0,
			"0.019": 0.0,
			"0.02": 0.0,
			"0.021": 0.0,
			"0.022": 0.0,
			"0.023": 0.0,
			"0.024": 0.0,
			"0.025": 0.0
		}
	}
}
