{
	 "smiles": "O[C@H]1CC[C@H](O)C#CCCCCC#C1", 
	 "Tm": 427.65, 
	 "num_atms": 30, 
	 "gaussian": { 
		 "optdone": 1, 
		 "sigma_profile": "yes", 
		 "theory": "DFT", 
		 "functional": "B3LYP", 
		 "basiset": "6-31G**", 
		 "properties": { 
			 "R2extent": 3485.9947, 
			 "electric_dipole_moment_norm": 1.50841807865, 
			 "electric_quadrupole_moment_norm": 18.4639185779, 
			 "total_energy": -617.221101981, 
			 "HOMO_LUMO_gap": 0.2778, 
			 "cosmo_polarized_energy": -15.54, 
			 "cosmo_cavitation_energy": 33.01, 
			 "cosmo_dispersion_energy": -22.42, 
			 "cosmo_repulsion_energy": 1.8, 
			 "cosmo_total_nonelectrostatic_energy": 12.39, 
			 "SMD_solvation_energy": 4.89 
		},
		"coords": [
			{
				"x": -1.9374393069,
				"y": -2.5163283643,
				"z": 1.423375485,
				"element": "O" 
			},
			{
				"x": -1.3399601038,
				"y": -2.0949704803,
				"z": 0.1943347728,
				"element": "C" 
			},
			{
				"x": -1.930657409,
				"y": -0.7460756155,
				"z": -0.2829630527,
				"element": "C" 
			},
			{
				"x": -1.6061874572,
				"y": -0.412676431,
				"z": -1.7509031106,
				"element": "C" 
			},
			{
				"x": -1.3935242657,
				"y": 1.0970079984,
				"z": -2.0161300334,
				"element": "C" 
			},
			{
				"x": -1.5632294235,
				"y": 1.4087872915,
				"z": -3.4009566324,
				"element": "O" 
			},
			{
				"x": -0.0655987525,
				"y": 1.5151592877,
				"z": -1.5365915492,
				"element": "C" 
			},
			{
				"x": 1.0927145465,
				"y": 1.7417760403,
				"z": -1.2625125241,
				"element": "C" 
			},
			{
				"x": 2.5229957042,
				"y": 1.8866850816,
				"z": -0.981601845,
				"element": "C" 
			},
			{
				"x": 3.1629934997,
				"y": 0.5389690442,
				"z": -0.5650849775,
				"element": "C" 
			},
			{
				"x": 2.8730783211,
				"y": 0.1418089609,
				"z": 0.8974269421,
				"element": "C" 
			},
			{
				"x": 2.6221524259,
				"y": -1.3741339953,
				"z": 1.0919446272,
				"element": "C" 
			},
			{
				"x": 1.2655209159,
				"y": -1.7553060704,
				"z": 0.6920963531,
				"element": "C" 
			},
			{
				"x": 0.101437692,
				"y": -1.9610181787,
				"z": 0.433867383,
				"element": "C" 
			},
			{
				"x": -2.8799229247,
				"y": -2.6442396077,
				"z": 1.2497331594,
				"element": "H" 
			},
			{
				"x": -1.5134598143,
				"y": -2.8544502255,
				"z": -0.5878612974,
				"element": "H" 
			},
			{
				"x": -1.5558427096,
				"y": 0.0327047968,
				"z": 0.3893390186,
				"element": "H" 
			},
			{
				"x": -3.019685427,
				"y": -0.78478267,
				"z": -0.1486108515,
				"element": "H" 
			},
			{
				"x": -0.6990326064,
				"y": -0.9413408616,
				"z": -2.0680688198,
				"element": "H" 
			},
			{
				"x": -2.4200355645,
				"y": -0.7404502639,
				"z": -2.4063798489,
				"element": "H" 
			},
			{
				"x": -2.1830284813,
				"y": 1.6637149628,
				"z": -1.5069476097,
				"element": "H" 
			},
			{
				"x": -0.7744450682,
				"y": 1.0900605471,
				"z": -3.8606401549,
				"element": "H" 
			},
			{
				"x": 2.691778639,
				"y": 2.6423703396,
				"z": -0.2028024427,
				"element": "H" 
			},
			{
				"x": 3.0193280588,
				"y": 2.2671347204,
				"z": -1.8840551429,
				"element": "H" 
			},
			{
				"x": 4.2463233353,
				"y": 0.5965372896,
				"z": -0.7238540123,
				"element": "H" 
			},
			{
				"x": 2.7868626723,
				"y": -0.2336678288,
				"z": -1.2443663575,
				"element": "H" 
			},
			{
				"x": 1.9893674002,
				"y": 0.6753482427,
				"z": 1.2630403834,
				"element": "H" 
			},
			{
				"x": 3.7114839458,
				"y": 0.447894043,
				"z": 1.534166229,
				"element": "H" 
			},
			{
				"x": 3.3727808981,
				"y": -1.9556680207,
				"z": 0.5398861072,
				"element": "H" 
			},
			{
				"x": 2.75433126,
				"y": -1.6352500329,
				"z": 2.1499198016,
				"element": "H" 
			}
		],
		 "valence_orbital": [ 
			{
				"type": "occ",
				"energy": -0.2718,
				"method": "rhf"
			},
			{
				"type": "occ",
				"energy": -0.25466,
				"method": "rhf"
			},
			{
				"type": "occ",
				"energy": -0.25413,
				"method": "rhf"
			},
			{
				"type": "occ",
				"energy": -0.24785,
				"method": "rhf"
			},
			{
				"type": "occ",
				"energy": -0.24258,
				"method": "rhf"
			},
			{
				"type": "unocc",
				"energy": 0.03522,
				"method": "rhf"
			},
			{
				"type": "unocc",
				"energy": 0.0368,
				"method": "rhf"
			},
			{
				"type": "unocc",
				"energy": 0.05055,
				"method": "rhf"
			},
			{
				"type": "unocc",
				"energy": 0.0601,
				"method": "rhf"
			},
			{
				"type": "unocc",
				"energy": 0.09087,
				"method": "rhf"
			}
		],
		"cosmo_sigma_profile": { 
			"-0.025": 0.0,
			"-0.024": 0.0,
			"-0.023": 0.0,
			"-0.022": 0.0,
			"-0.021": 0.0,
			"-0.02": 0.0,
			"-0.019": 0.0,
			"-0.018": 0.0,
			"-0.017": 0.0,
			"-0.016": 0.312008047476,
			"-0.015": 1.6541082014,
			"-0.014": 1.77930489492,
			"-0.013": 2.03710156539,
			"-0.012": 1.55737177689,
			"-0.011": 1.7403828885,
			"-0.01": 2.06797975632,
			"-0.009": 1.83570329015,
			"-0.008": 1.45441823293,
			"-0.007": 2.47626083423,
			"-0.006": 5.09067934761,
			"-0.005": 15.3288648019,
			"-0.004": 19.8959937202,
			"-0.003": 34.715158136,
			"-0.002": 32.4037560234,
			"-0.001": 22.4791312999,
			"0.0": 15.7601665624,
			"0.001": 8.54976188057,
			"0.002": 8.69248348529,
			"0.003": 8.49427155783,
			"0.004": 11.9539207331,
			"0.005": 14.0076773123,
			"0.006": 8.75627639236,
			"0.007": 9.51628674744,
			"0.008": 4.51708041999,
			"0.009": 3.48417112964,
			"0.01": 2.59353266428,
			"0.011": 3.05199302444,
			"0.012": 3.50902283684,
			"0.013": 4.1056668511,
			"0.014": 4.03851476439,
			"0.015": 0.340206401765,
			"0.016": 0.0,
			"0.017": 0.0,
			"0.018": 0.0,
			"0.019": 0.0,
			"0.02": 0.0,
			"0.021": 0.0,
			"0.022": 0.0,
			"0.023": 0.0,
			"0.024": 0.0,
			"0.025": 0.0
		}
	}
}
