{
	 "smiles": "COC(=O)C1(CCCC1)S(=O)(=O)C1=CC=CC=C1", 
	 "Tm": 329.65, 
	 "num_atms": 34, 
	 "gaussian": { 
		 "optdone": 1, 
		 "sigma_profile": "yes", 
		 "theory": "DFT", 
		 "functional": "B3LYP", 
		 "basiset": "6-31G**", 
		 "properties": { 
			 "R2extent": 4556.2071, 
			 "electric_dipole_moment_norm": 5.84275716593, 
			 "electric_quadrupole_moment_norm": 14.0913525635, 
			 "total_energy": -1204.05194721, 
			 "HOMO_LUMO_gap": 0.2246, 
			 "cosmo_polarized_energy": -16.22, 
			 "cosmo_cavitation_energy": 36.55, 
			 "cosmo_dispersion_energy": -25.48, 
			 "cosmo_repulsion_energy": 1.92, 
			 "cosmo_total_nonelectrostatic_energy": 12.99, 
			 "SMD_solvation_energy": 6.35 
		},
		"coords": [
			{
				"x": 1.0210872387,
				"y": -0.2176858059,
				"z": -2.9838801022,
				"element": "C" 
			},
			{
				"x": 0.4420972464,
				"y": -0.2391019622,
				"z": -1.6665085125,
				"element": "O" 
			},
			{
				"x": -0.8950460973,
				"y": -0.4168938107,
				"z": -1.6242841832,
				"element": "C" 
			},
			{
				"x": -1.5766277806,
				"y": -0.5805836685,
				"z": -2.610131458,
				"element": "O" 
			},
			{
				"x": -1.4018204142,
				"y": -0.4378963643,
				"z": -0.1814887361,
				"element": "C" 
			},
			{
				"x": -2.9193470781,
				"y": -0.78721695,
				"z": -0.1108871112,
				"element": "C" 
			},
			{
				"x": -2.9759355869,
				"y": -2.1867985172,
				"z": 0.5320051888,
				"element": "C" 
			},
			{
				"x": -1.7850073694,
				"y": -2.1898586681,
				"z": 1.5000606316,
				"element": "C" 
			},
			{
				"x": -0.6724699515,
				"y": -1.5142251745,
				"z": 0.6829779229,
				"element": "C" 
			},
			{
				"x": -1.216907937,
				"y": 1.2814227839,
				"z": 0.5574574003,
				"element": "S" 
			},
			{
				"x": -1.6880683644,
				"y": 2.2291063033,
				"z": -0.4672236655,
				"element": "O" 
			},
			{
				"x": -1.8563142896,
				"y": 1.215946064,
				"z": 1.8855746173,
				"element": "O" 
			},
			{
				"x": 0.5277267676,
				"y": 1.6326193546,
				"z": 0.8593918456,
				"element": "C" 
			},
			{
				"x": 1.0825413043,
				"y": 1.3089284347,
				"z": 2.0997017221,
				"element": "C" 
			},
			{
				"x": 2.4137633667,
				"y": 1.6423439627,
				"z": 2.3535078882,
				"element": "C" 
			},
			{
				"x": 3.1666485162,
				"y": 2.3047654152,
				"z": 1.3817196859,
				"element": "C" 
			},
			{
				"x": 2.5904419684,
				"y": 2.6470053318,
				"z": 0.1553740572,
				"element": "C" 
			},
			{
				"x": 1.26343866,
				"y": 2.3129769535,
				"z": -0.1126352644,
				"element": "C" 
			},
			{
				"x": 0.8720662681,
				"y": -1.1791157677,
				"z": -3.4811772148,
				"element": "H" 
			},
			{
				"x": 2.0826224214,
				"y": -0.0236275247,
				"z": -2.8330149382,
				"element": "H" 
			},
			{
				"x": 0.5644908177,
				"y": 0.5684103199,
				"z": -3.5895677279,
				"element": "H" 
			},
			{
				"x": -3.3605366112,
				"y": -0.739732181,
				"z": -1.1062731705,
				"element": "H" 
			},
			{
				"x": -3.4381921336,
				"y": -0.0721356572,
				"z": 0.5317943041,
				"element": "H" 
			},
			{
				"x": -2.8392823261,
				"y": -2.9607912893,
				"z": -0.2337168652,
				"element": "H" 
			},
			{
				"x": -3.9347420696,
				"y": -2.3759646108,
				"z": 1.0235584683,
				"element": "H" 
			},
			{
				"x": -2.0194015724,
				"y": -1.5836497994,
				"z": 2.3814589302,
				"element": "H" 
			},
			{
				"x": -1.4995132866,
				"y": -3.190093142,
				"z": 1.8406799178,
				"element": "H" 
			},
			{
				"x": -0.2069873133,
				"y": -2.2408393957,
				"z": 0.0082218005,
				"element": "H" 
			},
			{
				"x": 0.1362554851,
				"y": -1.0978811314,
				"z": 1.2872427448,
				"element": "H" 
			},
			{
				"x": 0.4686245288,
				"y": 0.8343143777,
				"z": 2.8570912122,
				"element": "H" 
			},
			{
				"x": 2.8564410228,
				"y": 1.3971475053,
				"z": 3.3141353396,
				"element": "H" 
			},
			{
				"x": 4.2003712854,
				"y": 2.5684563743,
				"z": 1.5855320495,
				"element": "H" 
			},
			{
				"x": 3.171815656,
				"y": 3.1831748995,
				"z": -0.5887401234,
				"element": "H" 
			},
			{
				"x": 0.7900676278,
				"y": 2.5921733402,
				"z": -1.0466566538,
				"element": "H" 
			}
		],
		 "valence_orbital": [ 
			{
				"type": "occ",
				"energy": -0.29879,
				"method": "rhf"
			},
			{
				"type": "occ",
				"energy": -0.28779,
				"method": "rhf"
			},
			{
				"type": "occ",
				"energy": -0.27743,
				"method": "rhf"
			},
			{
				"type": "occ",
				"energy": -0.27081,
				"method": "rhf"
			},
			{
				"type": "occ",
				"energy": -0.26831,
				"method": "rhf"
			},
			{
				"type": "unocc",
				"energy": -0.04371,
				"method": "rhf"
			},
			{
				"type": "unocc",
				"energy": -0.02244,
				"method": "rhf"
			},
			{
				"type": "unocc",
				"energy": -0.01317,
				"method": "rhf"
			},
			{
				"type": "unocc",
				"energy": 0.05201,
				"method": "rhf"
			},
			{
				"type": "unocc",
				"energy": 0.0717,
				"method": "rhf"
			}
		],
		"cosmo_sigma_profile": { 
			"-0.025": 0.0,
			"-0.024": 0.0,
			"-0.023": 0.0,
			"-0.022": 0.0,
			"-0.021": 0.0,
			"-0.02": 0.0,
			"-0.019": 0.0,
			"-0.018": 0.0,
			"-0.017": 0.0,
			"-0.016": 0.0,
			"-0.015": 0.0,
			"-0.014": 0.0,
			"-0.013": 0.0,
			"-0.012": 0.0,
			"-0.011": 0.0,
			"-0.01": 0.0,
			"-0.009": 0.0,
			"-0.008": 0.203366026897,
			"-0.007": 9.07075728024,
			"-0.006": 19.4179592108,
			"-0.005": 22.3279370495,
			"-0.004": 26.3866673724,
			"-0.003": 29.4887084858,
			"-0.002": 28.0015062411,
			"-0.001": 26.009531115,
			"0.0": 22.0008169354,
			"0.001": 14.6350991831,
			"0.002": 14.8113208036,
			"0.003": 16.9734063237,
			"0.004": 8.39487596672,
			"0.005": 5.89546702414,
			"0.006": 5.89326785601,
			"0.007": 5.4637855924,
			"0.008": 5.16122920996,
			"0.009": 5.03959129911,
			"0.01": 8.24351238192,
			"0.011": 11.1764675289,
			"0.012": 4.14521736966,
			"0.013": 0.0115234916336,
			"0.014": 0.0,
			"0.015": 0.0,
			"0.016": 0.0,
			"0.017": 0.0,
			"0.018": 0.0,
			"0.019": 0.0,
			"0.02": 0.0,
			"0.021": 0.0,
			"0.022": 0.0,
			"0.023": 0.0,
			"0.024": 0.0,
			"0.025": 0.0
		}
	}
}
