{
	 "smiles": "CC1=C(N)C=NC(Br)=C1", 
	 "Tm": 328.15, 
	 "num_atms": 16, 
	 "gaussian": { 
		 "optdone": 1, 
		 "sigma_profile": "yes", 
		 "theory": "DFT", 
		 "functional": "B3LYP", 
		 "basiset": "6-31G**", 
		 "properties": { 
			 "R2extent": 3204.3177, 
			 "electric_dipole_moment_norm": 5.27769372075, 
			 "electric_quadrupole_moment_norm": 10.5118614022, 
			 "total_energy": -2913.76907859, 
			 "HOMO_LUMO_gap": 0.18996, 
			 "cosmo_polarized_energy": -12.37, 
			 "cosmo_cavitation_energy": 22.05, 
			 "cosmo_dispersion_energy": -16.96, 
			 "cosmo_repulsion_energy": 1.39, 
			 "cosmo_total_nonelectrostatic_energy": 6.48, 
			 "SMD_solvation_energy": 1.22 
		},
		"coords": [
			{
				"x": 2.0891657701,
				"y": 0.8256857143,
				"z": 0.9725905873,
				"element": "C" 
			},
			{
				"x": 1.2088904968,
				"y": -0.1319762594,
				"z": 0.2141232943,
				"element": "C" 
			},
			{
				"x": 0.0639443531,
				"y": -0.6956366388,
				"z": 0.8240325884,
				"element": "C" 
			},
			{
				"x": -0.3074443318,
				"y": -0.3457951511,
				"z": 2.121159609,
				"element": "N" 
			},
			{
				"x": -0.7223875015,
				"y": -1.5686614559,
				"z": 0.0582636499,
				"element": "C" 
			},
			{
				"x": -0.4559412735,
				"y": -1.8961886891,
				"z": -1.2101154958,
				"element": "N" 
			},
			{
				"x": 0.6159512448,
				"y": -1.3654442242,
				"z": -1.7601622442,
				"element": "C" 
			},
			{
				"x": 1.0025761107,
				"y": -1.8475121694,
				"z": -3.5852867095,
				"element": "Br" 
			},
			{
				"x": 1.4799139488,
				"y": -0.4858290008,
				"z": -1.1058525629,
				"element": "C" 
			},
			{
				"x": 2.8866304121,
				"y": 1.2180156338,
				"z": 0.3377615276,
				"element": "H" 
			},
			{
				"x": 2.5652906379,
				"y": 0.3409574356,
				"z": 1.8361113978,
				"element": "H" 
			},
			{
				"x": 1.507881729,
				"y": 1.6721311374,
				"z": 1.3574143227,
				"element": "H" 
			},
			{
				"x": 0.4507467194,
				"y": -0.1287388075,
				"z": 2.7530263523,
				"element": "H" 
			},
			{
				"x": -0.987883907,
				"y": -0.9596050492,
				"z": 2.548486174,
				"element": "H" 
			},
			{
				"x": -1.6131448699,
				"y": -2.0197021459,
				"z": 0.4949970135,
				"element": "H" 
			},
			{
				"x": 2.3453104609,
				"y": -0.0817003297,
				"z": -1.6187495045,
				"element": "H" 
			}
		],
		 "valence_orbital": [ 
			{
				"type": "occ",
				"energy": -0.28745,
				"method": "rhf"
			},
			{
				"type": "occ",
				"energy": -0.27512,
				"method": "rhf"
			},
			{
				"type": "occ",
				"energy": -0.27294,
				"method": "rhf"
			},
			{
				"type": "occ",
				"energy": -0.26236,
				"method": "rhf"
			},
			{
				"type": "occ",
				"energy": -0.21459,
				"method": "rhf"
			},
			{
				"type": "unocc",
				"energy": -0.02463,
				"method": "rhf"
			},
			{
				"type": "unocc",
				"energy": -0.00285,
				"method": "rhf"
			},
			{
				"type": "unocc",
				"energy": 0.02099,
				"method": "rhf"
			},
			{
				"type": "unocc",
				"energy": 0.06062,
				"method": "rhf"
			},
			{
				"type": "unocc",
				"energy": 0.09966,
				"method": "rhf"
			}
		],
		"cosmo_sigma_profile": { 
			"-0.025": 0.0,
			"-0.024": 0.0,
			"-0.023": 0.0,
			"-0.022": 0.0,
			"-0.021": 0.0,
			"-0.02": 0.0,
			"-0.019": 0.0,
			"-0.018": 0.0,
			"-0.017": 0.0,
			"-0.016": 0.0,
			"-0.015": 0.0,
			"-0.014": 0.0,
			"-0.013": 1.33619016076,
			"-0.012": 3.02134392737,
			"-0.011": 2.99909538488,
			"-0.01": 3.62047172461,
			"-0.009": 3.15865869122,
			"-0.008": 3.02332942004,
			"-0.007": 4.95944361553,
			"-0.006": 6.84262910409,
			"-0.005": 8.99612972701,
			"-0.004": 9.55741931304,
			"-0.003": 9.65128508528,
			"-0.002": 10.3471635516,
			"-0.001": 12.5353810813,
			"0.0": 10.5627571184,
			"0.001": 11.8303060437,
			"0.002": 19.6006544609,
			"0.003": 10.3055807223,
			"0.004": 10.5597147328,
			"0.005": 12.6315856064,
			"0.006": 6.52669420674,
			"0.007": 3.21589094362,
			"0.008": 2.62270406248,
			"0.009": 2.44703802862,
			"0.01": 1.98396115292,
			"0.011": 1.47318272131,
			"0.012": 1.20177166877,
			"0.013": 2.12320346916,
			"0.014": 0.754408424446,
			"0.015": 0.752975573424,
			"0.016": 0.0276702692932,
			"0.017": 0.0,
			"0.018": 0.0,
			"0.019": 0.0,
			"0.02": 0.0,
			"0.021": 0.0,
			"0.022": 0.0,
			"0.023": 0.0,
			"0.024": 0.0,
			"0.025": 0.0
		}
	}
}
