{
	 "smiles": "CCN1CC2(COC)C3C(OC)C4C1C3(C1CC3(O)C(O)C1C4(O)C(O)C3OC)C(CC2O)OC", 
	 "Tm": 405.15, 
	 "num_atms": 76, 
	 "gaussian": { 
		 "optdone": 1, 
		 "sigma_profile": "yes", 
		 "theory": "DFT", 
		 "functional": "B3LYP", 
		 "basiset": "6-31G**", 
		 "properties": { 
			 "R2extent": 14601.5735, 
			 "electric_dipole_moment_norm": 1.41654416098, 
			 "electric_quadrupole_moment_norm": 16.1931124618, 
			 "total_energy": -1709.00214075, 
			 "HOMO_LUMO_gap": 0.2476, 
			 "cosmo_polarized_energy": -26.7, 
			 "cosmo_cavitation_energy": 62.25, 
			 "cosmo_dispersion_energy": -41.19, 
			 "cosmo_repulsion_energy": 3.0, 
			 "cosmo_total_nonelectrostatic_energy": 24.07, 
			 "SMD_solvation_energy": 11.02 
		},
		"coords": [
			{
				"x": 3.806954989,
				"y": -0.5675384273,
				"z": -3.3215906364,
				"element": "C" 
			},
			{
				"x": 3.1257257154,
				"y": -1.1195574993,
				"z": -2.0664367011,
				"element": "C" 
			},
			{
				"x": 1.9356033221,
				"y": -0.3640105419,
				"z": -1.6712435753,
				"element": "N" 
			},
			{
				"x": 2.2584924885,
				"y": 0.9837116288,
				"z": -1.1904346834,
				"element": "C" 
			},
			{
				"x": 1.0441392514,
				"y": 1.7288752084,
				"z": -0.5819972398,
				"element": "C" 
			},
			{
				"x": 1.5492372316,
				"y": 2.9148790602,
				"z": 0.2554304782,
				"element": "C" 
			},
			{
				"x": 2.4094002382,
				"y": 3.7105507658,
				"z": -0.5477030081,
				"element": "O" 
			},
			{
				"x": 2.8538569919,
				"y": 4.8735689728,
				"z": 0.1141275233,
				"element": "C" 
			},
			{
				"x": 0.2407827546,
				"y": 0.7337474657,
				"z": 0.3122211232,
				"element": "C" 
			},
			{
				"x": 1.1907736263,
				"y": -0.0358437963,
				"z": 1.2885052432,
				"element": "C" 
			},
			{
				"x": 0.6979658175,
				"y": -0.1064648928,
				"z": 2.6105266076,
				"element": "O" 
			},
			{
				"x": 0.8586523423,
				"y": 1.0609120683,
				"z": 3.3875881907,
				"element": "C" 
			},
			{
				"x": 1.4245445786,
				"y": -1.4399448185,
				"z": 0.628398186,
				"element": "C" 
			},
			{
				"x": 1.0017925938,
				"y": -1.1472336079,
				"z": -0.8546344111,
				"element": "C" 
			},
			{
				"x": -0.3410648766,
				"y": -0.3978261638,
				"z": -0.5837661165,
				"element": "C" 
			},
			{
				"x": -1.3183822962,
				"y": -1.4217780694,
				"z": 0.1280696934,
				"element": "C" 
			},
			{
				"x": -1.9967763451,
				"y": -1.1270688542,
				"z": 1.5092449334,
				"element": "C" 
			},
			{
				"x": -2.0404735441,
				"y": -2.4945292939,
				"z": 2.2525468389,
				"element": "C" 
			},
			{
				"x": -3.3298004677,
				"y": -2.6422979293,
				"z": 2.8595340857,
				"element": "O" 
			},
			{
				"x": -1.7978123723,
				"y": -3.5112608178,
				"z": 1.1178854585,
				"element": "C" 
			},
			{
				"x": -1.3982948898,
				"y": -4.8244625958,
				"z": 1.4916685386,
				"element": "O" 
			},
			{
				"x": -0.6949476717,
				"y": -2.8128954591,
				"z": 0.3462096768,
				"element": "C" 
			},
			{
				"x": 0.6497884622,
				"y": -2.714206165,
				"z": 1.123852573,
				"element": "C" 
			},
			{
				"x": 1.4902862522,
				"y": -3.7975935049,
				"z": 0.6836315298,
				"element": "O" 
			},
			{
				"x": 0.5122342154,
				"y": -2.8415330274,
				"z": 2.7118335934,
				"element": "C" 
			},
			{
				"x": 0.9743552576,
				"y": -4.1201804463,
				"z": 3.1532714977,
				"element": "O" 
			},
			{
				"x": -0.9182115154,
				"y": -2.6866595599,
				"z": 3.3030673385,
				"element": "C" 
			},
			{
				"x": -0.8881182616,
				"y": -1.6675436774,
				"z": 4.2950673693,
				"element": "O" 
			},
			{
				"x": -1.8238322746,
				"y": -1.8006960768,
				"z": 5.3486965806,
				"element": "C" 
			},
			{
				"x": -1.0918965541,
				"y": 0.1216798684,
				"z": -1.8359922121,
				"element": "C" 
			},
			{
				"x": -0.371425017,
				"y": 1.2085586053,
				"z": -2.634355497,
				"element": "C" 
			},
			{
				"x": 0.1344013532,
				"y": 2.3118251021,
				"z": -1.7046304078,
				"element": "C" 
			},
			{
				"x": -0.9486882726,
				"y": 3.0591946196,
				"z": -1.1505688468,
				"element": "O" 
			},
			{
				"x": -2.3532077563,
				"y": 0.6501275721,
				"z": -1.3430945104,
				"element": "O" 
			},
			{
				"x": -3.42146353,
				"y": 0.5935982016,
				"z": -2.273443857,
				"element": "C" 
			},
			{
				"x": 4.2222165813,
				"y": 0.4320154463,
				"z": -3.1635925567,
				"element": "H" 
			},
			{
				"x": 4.634284663,
				"y": -1.2220343225,
				"z": -3.6150943144,
				"element": "H" 
			},
			{
				"x": 3.0975641103,
				"y": -0.5144983872,
				"z": -4.1535509909,
				"element": "H" 
			},
			{
				"x": 3.867807972,
				"y": -1.1707240775,
				"z": -1.2461363008,
				"element": "H" 
			},
			{
				"x": 2.812298622,
				"y": -2.1514290863,
				"z": -2.2593556159,
				"element": "H" 
			},
			{
				"x": 2.6529767494,
				"y": 1.5731613969,
				"z": -2.0230387205,
				"element": "H" 
			},
			{
				"x": 3.0734324491,
				"y": 0.9546098989,
				"z": -0.4427724547,
				"element": "H" 
			},
			{
				"x": 0.6835755383,
				"y": 3.5045085746,
				"z": 0.5896950104,
				"element": "H" 
			},
			{
				"x": 2.0975439321,
				"y": 2.5706929176,
				"z": 1.1467382134,
				"element": "H" 
			},
			{
				"x": 3.4336872261,
				"y": 4.6336162423,
				"z": 1.0204159663,
				"element": "H" 
			},
			{
				"x": 3.4980338593,
				"y": 5.4190195596,
				"z": -0.5803080591,
				"element": "H" 
			},
			{
				"x": 2.0145212297,
				"y": 5.5235482653,
				"z": 0.4065012948,
				"element": "H" 
			},
			{
				"x": -0.5282877561,
				"y": 1.2791194556,
				"z": 0.8657807107,
				"element": "H" 
			},
			{
				"x": 2.1684446118,
				"y": 0.4611114657,
				"z": 1.3297297468,
				"element": "H" 
			},
			{
				"x": 0.3046651665,
				"y": 1.9181518481,
				"z": 2.9781095429,
				"element": "H" 
			},
			{
				"x": 0.464032973,
				"y": 0.8231426681,
				"z": 4.3768442388,
				"element": "H" 
			},
			{
				"x": 1.9195121655,
				"y": 1.3431005615,
				"z": 3.4749484522,
				"element": "H" 
			},
			{
				"x": 2.4827784993,
				"y": -1.7064683378,
				"z": 0.7023258579,
				"element": "H" 
			},
			{
				"x": 0.8585209953,
				"y": -2.0805764567,
				"z": -1.4006866115,
				"element": "H" 
			},
			{
				"x": -2.1408490606,
				"y": -1.5701752562,
				"z": -0.5756787292,
				"element": "H" 
			},
			{
				"x": -1.4614792962,
				"y": -0.4005700906,
				"z": 2.1165736846,
				"element": "H" 
			},
			{
				"x": -3.018428805,
				"y": -0.7661678374,
				"z": 1.3713547817,
				"element": "H" 
			},
			{
				"x": -3.2837494895,
				"y": -3.3776589957,
				"z": 3.4856854814,
				"element": "H" 
			},
			{
				"x": -2.7113510894,
				"y": -3.5541821151,
				"z": 0.5044838531,
				"element": "H" 
			},
			{
				"x": -2.1258007142,
				"y": -5.2545263481,
				"z": 1.9584479963,
				"element": "H" 
			},
			{
				"x": -0.4923762125,
				"y": -3.3314814857,
				"z": -0.5940487349,
				"element": "H" 
			},
			{
				"x": 0.9824065578,
				"y": -4.6016226136,
				"z": 0.8798370763,
				"element": "H" 
			},
			{
				"x": 1.1201740146,
				"y": -2.0651186995,
				"z": 3.1709378647,
				"element": "H" 
			},
			{
				"x": 1.8480798897,
				"y": -4.2322702172,
				"z": 2.7522398673,
				"element": "H" 
			},
			{
				"x": -1.1145135826,
				"y": -3.6521945485,
				"z": 3.7974860928,
				"element": "H" 
			},
			{
				"x": -1.8169897826,
				"y": -2.8211360919,
				"z": 5.766502139,
				"element": "H" 
			},
			{
				"x": -2.8451433683,
				"y": -1.5550118132,
				"z": 5.0358392426,
				"element": "H" 
			},
			{
				"x": -1.5143265113,
				"y": -1.1077426978,
				"z": 6.1365828865,
				"element": "H" 
			},
			{
				"x": -1.3139217573,
				"y": -0.7402981714,
				"z": -2.4844312209,
				"element": "H" 
			},
			{
				"x": -1.054728662,
				"y": 1.6435921005,
				"z": -3.3732464101,
				"element": "H" 
			},
			{
				"x": 0.4624082811,
				"y": 0.7557817311,
				"z": -3.1731368208,
				"element": "H" 
			},
			{
				"x": 0.7361504051,
				"y": 3.0312851987,
				"z": -2.2693067156,
				"element": "H" 
			},
			{
				"x": -1.6674326591,
				"y": 2.4249087107,
				"z": -0.9910677799,
				"element": "H" 
			},
			{
				"x": -4.2998876732,
				"y": 1.0130363005,
				"z": -1.7773113686,
				"element": "H" 
			},
			{
				"x": -3.2192448904,
				"y": 1.175912249,
				"z": -3.1826946979,
				"element": "H" 
			},
			{
				"x": -3.6376970189,
				"y": -0.4447308557,
				"z": -2.564187255,
				"element": "H" 
			}
		],
		 "valence_orbital": [ 
			{
				"type": "occ",
				"energy": -0.24637,
				"method": "rhf"
			},
			{
				"type": "occ",
				"energy": -0.24342,
				"method": "rhf"
			},
			{
				"type": "occ",
				"energy": -0.2352,
				"method": "rhf"
			},
			{
				"type": "occ",
				"energy": -0.22785,
				"method": "rhf"
			},
			{
				"type": "occ",
				"energy": -0.20021,
				"method": "rhf"
			},
			{
				"type": "unocc",
				"energy": 0.04739,
				"method": "rhf"
			},
			{
				"type": "unocc",
				"energy": 0.06178,
				"method": "rhf"
			},
			{
				"type": "unocc",
				"energy": 0.07278,
				"method": "rhf"
			},
			{
				"type": "unocc",
				"energy": 0.07521,
				"method": "rhf"
			},
			{
				"type": "unocc",
				"energy": 0.0856,
				"method": "rhf"
			}
		],
		"cosmo_sigma_profile": { 
			"-0.025": 0.0,
			"-0.024": 0.0,
			"-0.023": 0.0,
			"-0.022": 0.0,
			"-0.021": 0.0,
			"-0.02": 0.0,
			"-0.019": 0.0,
			"-0.018": 0.0,
			"-0.017": 0.0,
			"-0.016": 0.45185199118,
			"-0.015": 2.20852959184,
			"-0.014": 2.7826537241,
			"-0.013": 2.21097803883,
			"-0.012": 2.76718332095,
			"-0.011": 2.58509150798,
			"-0.01": 3.06902112707,
			"-0.009": 1.82696495529,
			"-0.008": 2.03736347463,
			"-0.007": 4.60715716973,
			"-0.006": 4.17358312849,
			"-0.005": 13.0108908526,
			"-0.004": 45.7437962997,
			"-0.003": 64.8364870658,
			"-0.002": 72.7793065473,
			"-0.001": 55.3879743528,
			"0.0": 35.5677183497,
			"0.001": 29.1947712746,
			"0.002": 18.3205779536,
			"0.003": 12.1287078933,
			"0.004": 12.6645997511,
			"0.005": 10.9474021629,
			"0.006": 13.1696254108,
			"0.007": 12.4660255721,
			"0.008": 10.7705612715,
			"0.009": 8.81179646301,
			"0.01": 7.99299472136,
			"0.011": 5.69419211802,
			"0.012": 6.74820708641,
			"0.013": 4.60898285746,
			"0.014": 4.58185879688,
			"0.015": 2.56989664855,
			"0.016": 0.624508575426,
			"0.017": 0.0,
			"0.018": 0.0,
			"0.019": 0.0,
			"0.02": 0.0,
			"0.021": 0.0,
			"0.022": 0.0,
			"0.023": 0.0,
			"0.024": 0.0,
			"0.025": 0.0
		}
	}
}
