{
	 "smiles": "FC(F)(F)C1=CC=CC(Cl)=N1", 
	 "Tm": 307.15, 
	 "num_atms": 14, 
	 "gaussian": { 
		 "optdone": 1, 
		 "sigma_profile": "yes", 
		 "theory": "DFT", 
		 "functional": "B3LYP", 
		 "basiset": "6-31G**", 
		 "properties": { 
			 "R2extent": 3370.1703, 
			 "electric_dipole_moment_norm": 4.22510701403, 
			 "electric_quadrupole_moment_norm": 6.54436072967, 
			 "total_energy": -1044.91010713, 
			 "HOMO_LUMO_gap": 0.21784, 
			 "cosmo_polarized_energy": -7.12, 
			 "cosmo_cavitation_energy": 22.14, 
			 "cosmo_dispersion_energy": -16.1, 
			 "cosmo_repulsion_energy": 1.25, 
			 "cosmo_total_nonelectrostatic_energy": 7.3, 
			 "SMD_solvation_energy": 3.57 
		},
		"coords": [
			{
				"x": 0.1286534122,
				"y": -3.1821653562,
				"z": -2.6301481954,
				"element": "F" 
			},
			{
				"x": 0.7652264727,
				"y": -3.2371526755,
				"z": -1.4380885177,
				"element": "C" 
			},
			{
				"x": 0.2586470701,
				"y": -4.2767568038,
				"z": -0.7520075372,
				"element": "F" 
			},
			{
				"x": 2.0621780487,
				"y": -3.4977311949,
				"z": -1.6791141802,
				"element": "F" 
			},
			{
				"x": 0.5987237035,
				"y": -1.939013441,
				"z": -0.6712517858,
				"element": "C" 
			},
			{
				"x": -0.1309095089,
				"y": -0.8756143189,
				"z": -1.1914732535,
				"element": "C" 
			},
			{
				"x": -0.232636992,
				"y": 0.2826938213,
				"z": -0.4149298792,
				"element": "C" 
			},
			{
				"x": 0.3883794167,
				"y": 0.3284176643,
				"z": 0.8273679708,
				"element": "C" 
			},
			{
				"x": 1.093191216,
				"y": -0.8117583055,
				"z": 1.2350818787,
				"element": "C" 
			},
			{
				"x": 1.8920378368,
				"y": -0.792366475,
				"z": 2.8002329936,
				"element": "Cl" 
			},
			{
				"x": 1.2042796311,
				"y": -1.9146932509,
				"z": 0.5232797317,
				"element": "N" 
			},
			{
				"x": -0.5995566528,
				"y": -0.951861028,
				"z": -2.1642812768,
				"element": "H" 
			},
			{
				"x": -0.7913279151,
				"y": 1.1402003613,
				"z": -0.7769522169,
				"element": "H" 
			},
			{
				"x": 0.3375142611,
				"y": 1.203201003,
				"z": 1.4641842679,
				"element": "H" 
			}
		],
		 "valence_orbital": [ 
			{
				"type": "occ",
				"energy": -0.35391,
				"method": "rhf"
			},
			{
				"type": "occ",
				"energy": -0.32554,
				"method": "rhf"
			},
			{
				"type": "occ",
				"energy": -0.31706,
				"method": "rhf"
			},
			{
				"type": "occ",
				"energy": -0.29624,
				"method": "rhf"
			},
			{
				"type": "occ",
				"energy": -0.27802,
				"method": "rhf"
			},
			{
				"type": "unocc",
				"energy": -0.06018,
				"method": "rhf"
			},
			{
				"type": "unocc",
				"energy": -0.04469,
				"method": "rhf"
			},
			{
				"type": "unocc",
				"energy": 0.02273,
				"method": "rhf"
			},
			{
				"type": "unocc",
				"energy": 0.08708,
				"method": "rhf"
			},
			{
				"type": "unocc",
				"energy": 0.10027,
				"method": "rhf"
			}
		],
		"cosmo_sigma_profile": { 
			"-0.025": 0.0,
			"-0.024": 0.0,
			"-0.023": 0.0,
			"-0.022": 0.0,
			"-0.021": 0.0,
			"-0.02": 0.0,
			"-0.019": 0.0,
			"-0.018": 0.0,
			"-0.017": 0.0,
			"-0.016": 0.0,
			"-0.015": 0.0,
			"-0.014": 0.0,
			"-0.013": 0.0,
			"-0.012": 0.0,
			"-0.011": 0.0,
			"-0.01": 0.0,
			"-0.009": 3.34288653645,
			"-0.008": 7.32698805877,
			"-0.007": 6.18045525705,
			"-0.006": 4.61116780358,
			"-0.005": 5.41293707691,
			"-0.004": 6.91379317565,
			"-0.003": 8.67464381927,
			"-0.002": 14.9657229713,
			"-0.001": 17.0112498576,
			"0.0": 16.700995613,
			"0.001": 11.5455623487,
			"0.002": 27.9115479086,
			"0.003": 25.4151996523,
			"0.004": 11.7419955063,
			"0.005": 4.65046253049,
			"0.006": 2.43146326375,
			"0.007": 1.88535279319,
			"0.008": 1.52991691939,
			"0.009": 0.974371227955,
			"0.01": 0.769799905694,
			"0.011": 1.03580935698,
			"0.012": 0.306777604091,
			"0.013": 0.0,
			"0.014": 0.0,
			"0.015": 0.0,
			"0.016": 0.0,
			"0.017": 0.0,
			"0.018": 0.0,
			"0.019": 0.0,
			"0.02": 0.0,
			"0.021": 0.0,
			"0.022": 0.0,
			"0.023": 0.0,
			"0.024": 0.0,
			"0.025": 0.0
		}
	}
}
