{
	 "smiles": "CCC1=C(Br)C=NC(O)=C1", 
	 "Tm": 383.15, 
	 "num_atms": 18, 
	 "gaussian": { 
		 "optdone": 1, 
		 "sigma_profile": "yes", 
		 "theory": "DFT", 
		 "functional": "B3LYP", 
		 "basiset": "6-31G**", 
		 "properties": { 
			 "R2extent": 2486.888, 
			 "electric_dipole_moment_norm": 3.75562262481, 
			 "electric_quadrupole_moment_norm": 10.257506736, 
			 "total_energy": -2972.94932928, 
			 "HOMO_LUMO_gap": 0.20178, 
			 "cosmo_polarized_energy": -12.02, 
			 "cosmo_cavitation_energy": 23.84, 
			 "cosmo_dispersion_energy": -17.92, 
			 "cosmo_repulsion_energy": 1.45, 
			 "cosmo_total_nonelectrostatic_energy": 7.37, 
			 "SMD_solvation_energy": 2.01 
		},
		"coords": [
			{
				"x": -1.6748617636,
				"y": -1.847488565,
				"z": -1.2276945973,
				"element": "C" 
			},
			{
				"x": -0.8265629681,
				"y": -0.5630350592,
				"z": -1.27713283,
				"element": "C" 
			},
			{
				"x": 0.130438994,
				"y": -0.4518972845,
				"z": -0.1141319836,
				"element": "C" 
			},
			{
				"x": -0.2381268948,
				"y": 0.0277608763,
				"z": 1.1526946195,
				"element": "C" 
			},
			{
				"x": -2.0133581748,
				"y": 0.6407283128,
				"z": 1.521227713,
				"element": "Br" 
			},
			{
				"x": 0.7007270297,
				"y": 0.0743793812,
				"z": 2.1809886817,
				"element": "C" 
			},
			{
				"x": 1.9667245966,
				"y": -0.3228708829,
				"z": 2.0378682322,
				"element": "N" 
			},
			{
				"x": 2.3317197838,
				"y": -0.7815148785,
				"z": 0.844461162,
				"element": "C" 
			},
			{
				"x": 3.6301655759,
				"y": -1.1684190911,
				"z": 0.7632840835,
				"element": "O" 
			},
			{
				"x": 1.4585944976,
				"y": -0.8615214685,
				"z": -0.2505314867,
				"element": "C" 
			},
			{
				"x": -2.2853904882,
				"y": -1.8783751738,
				"z": -0.3212499305,
				"element": "H" 
			},
			{
				"x": -2.3457344062,
				"y": -1.8938725875,
				"z": -2.0911053968,
				"element": "H" 
			},
			{
				"x": -1.0397149058,
				"y": -2.7387830916,
				"z": -1.2407975862,
				"element": "H" 
			},
			{
				"x": -0.2516299173,
				"y": -0.5402142197,
				"z": -2.209346218,
				"element": "H" 
			},
			{
				"x": -1.4887982413,
				"y": 0.3083769462,
				"z": -1.2857455614,
				"element": "H" 
			},
			{
				"x": 0.4148787439,
				"y": 0.4507166516,
				"z": 3.1600281089,
				"element": "H" 
			},
			{
				"x": 3.8128430807,
				"y": -1.4859673298,
				"z": -0.130509997,
				"element": "H" 
			},
			{
				"x": 1.8066854578,
				"y": -1.2382025358,
				"z": -1.2099070131,
				"element": "H" 
			}
		],
		 "valence_orbital": [ 
			{
				"type": "occ",
				"energy": -0.3094,
				"method": "rhf"
			},
			{
				"type": "occ",
				"energy": -0.296,
				"method": "rhf"
			},
			{
				"type": "occ",
				"energy": -0.28224,
				"method": "rhf"
			},
			{
				"type": "occ",
				"energy": -0.26765,
				"method": "rhf"
			},
			{
				"type": "occ",
				"energy": -0.23328,
				"method": "rhf"
			},
			{
				"type": "unocc",
				"energy": -0.0315,
				"method": "rhf"
			},
			{
				"type": "unocc",
				"energy": -0.00857,
				"method": "rhf"
			},
			{
				"type": "unocc",
				"energy": 0.00508,
				"method": "rhf"
			},
			{
				"type": "unocc",
				"energy": 0.06361,
				"method": "rhf"
			},
			{
				"type": "unocc",
				"energy": 0.09457,
				"method": "rhf"
			}
		],
		"cosmo_sigma_profile": { 
			"-0.025": 0.0,
			"-0.024": 0.0,
			"-0.023": 0.0,
			"-0.022": 0.0,
			"-0.021": 0.0,
			"-0.02": 0.0,
			"-0.019": 0.362130690746,
			"-0.018": 1.20036661615,
			"-0.017": 1.05505276024,
			"-0.016": 1.2967425499,
			"-0.015": 1.0029195003,
			"-0.014": 0.856053035439,
			"-0.013": 1.07247292528,
			"-0.012": 0.9637464886,
			"-0.011": 0.920430808636,
			"-0.01": 1.00445675129,
			"-0.009": 1.42653939895,
			"-0.008": 1.78148869534,
			"-0.007": 3.34118773099,
			"-0.006": 4.75597528253,
			"-0.005": 5.00733951798,
			"-0.004": 8.44549771127,
			"-0.003": 12.967741935,
			"-0.002": 17.3115558222,
			"-0.001": 19.4717717082,
			"0.0": 22.3152253455,
			"0.001": 24.7613626134,
			"0.002": 14.5908476605,
			"0.003": 10.975910682,
			"0.004": 9.18542142357,
			"0.005": 4.75797491907,
			"0.006": 2.0988401121,
			"0.007": 2.20153748122,
			"0.008": 2.53759502465,
			"0.009": 1.8279754759,
			"0.01": 2.35045657315,
			"0.011": 3.10589196468,
			"0.012": 2.69994134345,
			"0.013": 1.9159978882,
			"0.014": 1.12483557304,
			"0.015": 1.24250770519,
			"0.016": 0.373792217536,
			"0.017": 0.0,
			"0.018": 0.0,
			"0.019": 0.0,
			"0.02": 0.0,
			"0.021": 0.0,
			"0.022": 0.0,
			"0.023": 0.0,
			"0.024": 0.0,
			"0.025": 0.0
		}
	}
}
