{
	 "smiles": "CCCCC(CC)COC(=O)C(C)=C", 
	 "Tm": 223.15, 
	 "num_atms": 36, 
	 "gaussian": { 
		 "optdone": 1, 
		 "sigma_profile": "yes", 
		 "theory": "DFT", 
		 "functional": "B3LYP", 
		 "basiset": "6-31G**", 
		 "properties": { 
			 "R2extent": 4481.9841, 
			 "electric_dipole_moment_norm": 2.0172746169, 
			 "electric_quadrupole_moment_norm": 9.69512909661, 
			 "total_energy": -620.999697443, 
			 "HOMO_LUMO_gap": 0.22813, 
			 "cosmo_polarized_energy": -6.51, 
			 "cosmo_cavitation_energy": 37.35, 
			 "cosmo_dispersion_energy": -24.69, 
			 "cosmo_repulsion_energy": 2.0, 
			 "cosmo_total_nonelectrostatic_energy": 14.65, 
			 "SMD_solvation_energy": 7.66 
		},
		"coords": [
			{
				"x": -0.6035135797,
				"y": 2.082270056,
				"z": -3.5477479948,
				"element": "C" 
			},
			{
				"x": -0.8182403553,
				"y": 1.2228592737,
				"z": -2.2979825367,
				"element": "C" 
			},
			{
				"x": -0.2269966074,
				"y": 1.8574248571,
				"z": -1.0286155222,
				"element": "C" 
			},
			{
				"x": -0.438103139,
				"y": 1.0437530376,
				"z": 0.2699678918,
				"element": "C" 
			},
			{
				"x": 0.696329856,
				"y": 0.081458672,
				"z": 0.700602388,
				"element": "C" 
			},
			{
				"x": 1.9870107706,
				"y": 0.8395770913,
				"z": 1.0857748665,
				"element": "C" 
			},
			{
				"x": 3.0198314767,
				"y": 0.008656173,
				"z": 1.8589161507,
				"element": "C" 
			},
			{
				"x": 1.0032002708,
				"y": -1.0049144338,
				"z": -0.3279502024,
				"element": "C" 
			},
			{
				"x": -0.2036930024,
				"y": -1.7629689761,
				"z": -0.5678950909,
				"element": "O" 
			},
			{
				"x": -0.0713744251,
				"y": -2.8439886685,
				"z": -1.3728673228,
				"element": "C" 
			},
			{
				"x": 0.9846024069,
				"y": -3.1684537059,
				"z": -1.8803395896,
				"element": "O" 
			},
			{
				"x": -1.3746441856,
				"y": -3.5654625247,
				"z": -1.5439914957,
				"element": "C" 
			},
			{
				"x": -2.6018899988,
				"y": -3.0352893639,
				"z": -0.8495096106,
				"element": "C" 
			},
			{
				"x": -1.3669227857,
				"y": -4.6574278819,
				"z": -2.3179969706,
				"element": "C" 
			},
			{
				"x": -1.0530493568,
				"y": 3.0750282501,
				"z": -3.4286190567,
				"element": "H" 
			},
			{
				"x": 0.4638041995,
				"y": 2.2270959091,
				"z": -3.7513557471,
				"element": "H" 
			},
			{
				"x": -1.0495504409,
				"y": 1.6193302432,
				"z": -4.4340593802,
				"element": "H" 
			},
			{
				"x": -0.3909175614,
				"y": 0.2272066664,
				"z": -2.4622959763,
				"element": "H" 
			},
			{
				"x": -1.8942556643,
				"y": 1.0637053188,
				"z": -2.1434183123,
				"element": "H" 
			},
			{
				"x": -0.6899497222,
				"y": 2.8449474223,
				"z": -0.9022537847,
				"element": "H" 
			},
			{
				"x": 0.8411591246,
				"y": 2.0583089759,
				"z": -1.1865965661,
				"element": "H" 
			},
			{
				"x": -0.5902768775,
				"y": 1.7389423814,
				"z": 1.1051150679,
				"element": "H" 
			},
			{
				"x": -1.3686053573,
				"y": 0.4707028433,
				"z": 0.1836157632,
				"element": "H" 
			},
			{
				"x": 0.3389345162,
				"y": -0.4320398501,
				"z": 1.6054530533,
				"element": "H" 
			},
			{
				"x": 2.4583018547,
				"y": 1.2567941586,
				"z": 0.1862165643,
				"element": "H" 
			},
			{
				"x": 1.698502162,
				"y": 1.7018598659,
				"z": 1.699872596,
				"element": "H" 
			},
			{
				"x": 3.4277366729,
				"y": -0.8124827583,
				"z": 1.2611336555,
				"element": "H" 
			},
			{
				"x": 2.579491967,
				"y": -0.4264597903,
				"z": 2.7634140505,
				"element": "H" 
			},
			{
				"x": 3.8642870791,
				"y": 0.6324537933,
				"z": 2.1692915796,
				"element": "H" 
			},
			{
				"x": 1.7760821786,
				"y": -1.6933820944,
				"z": 0.0228960977,
				"element": "H" 
			},
			{
				"x": 1.3522036176,
				"y": -0.5830044678,
				"z": -1.27682041,
				"element": "H" 
			},
			{
				"x": -3.4684403334,
				"y": -3.6669479228,
				"z": -1.0612193446,
				"element": "H" 
			},
			{
				"x": -2.8286834893,
				"y": -2.0137086675,
				"z": -1.172374901,
				"element": "H" 
			},
			{
				"x": -2.4566955374,
				"y": -2.9943332518,
				"z": 0.2350363877,
				"element": "H" 
			},
			{
				"x": -0.4484960139,
				"y": -4.9874272626,
				"z": -2.7912635786,
				"element": "H" 
			},
			{
				"x": -2.2693797202,
				"y": -5.2357833686,
				"z": -2.4909327188,
				"element": "H" 
			}
		],
		 "valence_orbital": [ 
			{
				"type": "occ",
				"energy": -0.30931,
				"method": "rhf"
			},
			{
				"type": "occ",
				"energy": -0.30806,
				"method": "rhf"
			},
			{
				"type": "occ",
				"energy": -0.29465,
				"method": "rhf"
			},
			{
				"type": "occ",
				"energy": -0.26666,
				"method": "rhf"
			},
			{
				"type": "occ",
				"energy": -0.26365,
				"method": "rhf"
			},
			{
				"type": "unocc",
				"energy": -0.03552,
				"method": "rhf"
			},
			{
				"type": "unocc",
				"energy": 0.07606,
				"method": "rhf"
			},
			{
				"type": "unocc",
				"energy": 0.08055,
				"method": "rhf"
			},
			{
				"type": "unocc",
				"energy": 0.091,
				"method": "rhf"
			},
			{
				"type": "unocc",
				"energy": 0.09618,
				"method": "rhf"
			}
		],
		"cosmo_sigma_profile": { 
			"-0.025": 0.0,
			"-0.024": 0.0,
			"-0.023": 0.0,
			"-0.022": 0.0,
			"-0.021": 0.0,
			"-0.02": 0.0,
			"-0.019": 0.0,
			"-0.018": 0.0,
			"-0.017": 0.0,
			"-0.016": 0.0,
			"-0.015": 0.0,
			"-0.014": 0.0,
			"-0.013": 0.0,
			"-0.012": 0.0,
			"-0.011": 0.0,
			"-0.01": 0.0,
			"-0.009": 0.0,
			"-0.008": 0.0,
			"-0.007": 0.372354805762,
			"-0.006": 2.46605756075,
			"-0.005": 5.27806623108,
			"-0.004": 15.371905335,
			"-0.003": 25.2276582577,
			"-0.002": 46.3831732606,
			"-0.001": 48.3117781296,
			"0.0": 48.4608709666,
			"0.001": 41.1452107435,
			"0.002": 20.0376227323,
			"0.003": 8.32225379193,
			"0.004": 6.85250368631,
			"0.005": 3.75143173365,
			"0.006": 2.81920213118,
			"0.007": 1.58765642,
			"0.008": 0.92095475347,
			"0.009": 1.81219194563,
			"0.01": 1.80562752616,
			"0.011": 2.16459674728,
			"0.012": 4.8063715307,
			"0.013": 1.45883005189,
			"0.014": 0.0,
			"0.015": 0.0,
			"0.016": 0.0,
			"0.017": 0.0,
			"0.018": 0.0,
			"0.019": 0.0,
			"0.02": 0.0,
			"0.021": 0.0,
			"0.022": 0.0,
			"0.023": 0.0,
			"0.024": 0.0,
			"0.025": 0.0
		}
	}
}
