{
	 "smiles": "OC(=O)CCCNC(=O)OCC1=CC=CC=C1", 
	 "Tm": 335.15, 
	 "num_atms": 32, 
	 "gaussian": { 
		 "optdone": 1, 
		 "sigma_profile": "yes", 
		 "theory": "DFT", 
		 "functional": "B3LYP", 
		 "basiset": "6-31G**", 
		 "properties": { 
			 "R2extent": 5935.2651, 
			 "electric_dipole_moment_norm": 7.48891519581, 
			 "electric_quadrupole_moment_norm": 39.2718795281, 
			 "total_energy": -822.006651894, 
			 "HOMO_LUMO_gap": 0.22575, 
			 "cosmo_polarized_energy": -19.13, 
			 "cosmo_cavitation_energy": 35.49, 
			 "cosmo_dispersion_energy": -25.28, 
			 "cosmo_repulsion_energy": 2.0, 
			 "cosmo_total_nonelectrostatic_energy": 12.2, 
			 "SMD_solvation_energy": 6.88 
		},
		"coords": [
			{
				"x": -4.0199320519,
				"y": -0.0443396717,
				"z": 0.3125357819,
				"element": "O" 
			},
			{
				"x": -4.7369196472,
				"y": 0.4401832953,
				"z": -0.717299533,
				"element": "C" 
			},
			{
				"x": -5.9277084267,
				"y": 0.2348933917,
				"z": -0.7800261145,
				"element": "O" 
			},
			{
				"x": -4.0337990258,
				"y": 1.2316024513,
				"z": -1.8326115808,
				"element": "C" 
			},
			{
				"x": -2.5597746719,
				"y": 1.6012440356,
				"z": -1.6501968212,
				"element": "C" 
			},
			{
				"x": -2.3254581759,
				"y": 2.6141446149,
				"z": -0.5098112492,
				"element": "C" 
			},
			{
				"x": -0.9820634474,
				"y": 2.5364787237,
				"z": 0.0521942077,
				"element": "N" 
			},
			{
				"x": -0.6100283894,
				"y": 1.4492631272,
				"z": 0.7682545054,
				"element": "C" 
			},
			{
				"x": -1.3480246378,
				"y": 0.4869810472,
				"z": 0.9879126696,
				"element": "O" 
			},
			{
				"x": 0.6566171209,
				"y": 1.5592425005,
				"z": 1.2150093365,
				"element": "O" 
			},
			{
				"x": 1.1904234193,
				"y": 0.4150238834,
				"z": 1.9440850926,
				"element": "C" 
			},
			{
				"x": 1.8616715389,
				"y": -0.572875735,
				"z": 1.0237261326,
				"element": "C" 
			},
			{
				"x": 3.216380948,
				"y": -0.4276717889,
				"z": 0.6984452038,
				"element": "C" 
			},
			{
				"x": 3.8407162579,
				"y": -1.3307435345,
				"z": -0.162244841,
				"element": "C" 
			},
			{
				"x": 3.1133411374,
				"y": -2.3914534311,
				"z": -0.7062158502,
				"element": "C" 
			},
			{
				"x": 1.7623962518,
				"y": -2.5446970461,
				"z": -0.3867849501,
				"element": "C" 
			},
			{
				"x": 1.1387052966,
				"y": -1.6403980043,
				"z": 0.4734006723,
				"element": "C" 
			},
			{
				"x": -3.0689937888,
				"y": 0.1935126745,
				"z": 0.3371788349,
				"element": "H" 
			},
			{
				"x": -4.6496056636,
				"y": 2.1232034454,
				"z": -1.9967679275,
				"element": "H" 
			},
			{
				"x": -4.1538989037,
				"y": 0.6263969559,
				"z": -2.7384115154,
				"element": "H" 
			},
			{
				"x": -2.1677851125,
				"y": 2.0102244645,
				"z": -2.5880390577,
				"element": "H" 
			},
			{
				"x": -1.9771970244,
				"y": 0.6974659332,
				"z": -1.447539708,
				"element": "H" 
			},
			{
				"x": -3.0446023183,
				"y": 2.4441988386,
				"z": 0.2987513432,
				"element": "H" 
			},
			{
				"x": -2.4808299917,
				"y": 3.6374232132,
				"z": -0.8615320344,
				"element": "H" 
			},
			{
				"x": -0.2986846206,
				"y": 3.2598410309,
				"z": -0.1082394606,
				"element": "H" 
			},
			{
				"x": 0.3761185166,
				"y": -0.0469731654,
				"z": 2.5040626532,
				"element": "H" 
			},
			{
				"x": 1.9074851159,
				"y": 0.859601288,
				"z": 2.6369162837,
				"element": "H" 
			},
			{
				"x": 3.7847937362,
				"y": 0.395256403,
				"z": 1.1253312677,
				"element": "H" 
			},
			{
				"x": 4.8927950082,
				"y": -1.2101359823,
				"z": -0.4040986526,
				"element": "H" 
			},
			{
				"x": 3.5986838322,
				"y": -3.0982730914,
				"z": -1.373216391,
				"element": "H" 
			},
			{
				"x": 1.1947084604,
				"y": -3.3710989893,
				"z": -0.8047477935,
				"element": "H" 
			},
			{
				"x": 0.0867692573,
				"y": -1.750020878,
				"z": 0.7183794956,
				"element": "H" 
			}
		],
		 "valence_orbital": [ 
			{
				"type": "occ",
				"energy": -0.28478,
				"method": "rhf"
			},
			{
				"type": "occ",
				"energy": -0.2759,
				"method": "rhf"
			},
			{
				"type": "occ",
				"energy": -0.25859,
				"method": "rhf"
			},
			{
				"type": "occ",
				"energy": -0.2571,
				"method": "rhf"
			},
			{
				"type": "occ",
				"energy": -0.24521,
				"method": "rhf"
			},
			{
				"type": "unocc",
				"energy": -0.01946,
				"method": "rhf"
			},
			{
				"type": "unocc",
				"energy": -0.00969,
				"method": "rhf"
			},
			{
				"type": "unocc",
				"energy": 0.02807,
				"method": "rhf"
			},
			{
				"type": "unocc",
				"energy": 0.03363,
				"method": "rhf"
			},
			{
				"type": "unocc",
				"energy": 0.06462,
				"method": "rhf"
			}
		],
		"cosmo_sigma_profile": { 
			"-0.025": 0.0,
			"-0.024": 0.0,
			"-0.023": 0.0,
			"-0.022": 0.0,
			"-0.021": 0.0,
			"-0.02": 0.0,
			"-0.019": 0.0,
			"-0.018": 0.0,
			"-0.017": 0.0,
			"-0.016": 0.0,
			"-0.015": 0.691903221538,
			"-0.014": 1.41082124758,
			"-0.013": 0.938512280472,
			"-0.012": 1.03388909947,
			"-0.011": 1.0917850737,
			"-0.01": 1.11274804741,
			"-0.009": 0.944234233336,
			"-0.008": 1.52452189172,
			"-0.007": 4.0558948112,
			"-0.006": 19.2174747198,
			"-0.005": 28.1456102994,
			"-0.004": 28.3129894525,
			"-0.003": 26.2319767178,
			"-0.002": 21.6076792759,
			"-0.001": 16.3833237079,
			"0.0": 14.0691836077,
			"0.001": 14.4190433486,
			"0.002": 12.6278122173,
			"0.003": 13.728069538,
			"0.004": 13.6285173786,
			"0.005": 16.4757748718,
			"0.006": 9.35771326747,
			"0.007": 4.15603878964,
			"0.008": 3.82992560779,
			"0.009": 3.53194898461,
			"0.01": 4.24497980151,
			"0.011": 3.25561385624,
			"0.012": 6.05562821686,
			"0.013": 6.05270826118,
			"0.014": 2.51158261434,
			"0.015": 0.210009188619,
			"0.016": 0.0,
			"0.017": 0.0,
			"0.018": 0.0,
			"0.019": 0.0,
			"0.02": 0.0,
			"0.021": 0.0,
			"0.022": 0.0,
			"0.023": 0.0,
			"0.024": 0.0,
			"0.025": 0.0
		}
	}
}
