{
	 "smiles": "ClC(=O)C1=CC=C(C=C1)C#N", 
	 "Tm": 342.15, 
	 "num_atms": 15, 
	 "gaussian": { 
		 "optdone": 1, 
		 "sigma_profile": "yes", 
		 "theory": "DFT", 
		 "functional": "B3LYP", 
		 "basiset": "6-31G**", 
		 "properties": { 
			 "R2extent": 3382.5064, 
			 "electric_dipole_moment_norm": 0.561482279329, 
			 "electric_quadrupole_moment_norm": 22.0056224502, 
			 "total_energy": -897.417093403, 
			 "HOMO_LUMO_gap": 0.18431, 
			 "cosmo_polarized_energy": -9.91, 
			 "cosmo_cavitation_energy": 23.25, 
			 "cosmo_dispersion_energy": -16.61, 
			 "cosmo_repulsion_energy": 1.33, 
			 "cosmo_total_nonelectrostatic_energy": 7.97, 
			 "SMD_solvation_energy": 6.08 
		},
		"coords": [
			{
				"x": -1.9540892053,
				"y": -3.912108713,
				"z": -1.2272732358,
				"element": "Cl" 
			},
			{
				"x": -0.2101389553,
				"y": -3.4795098554,
				"z": -1.527970474,
				"element": "C" 
			},
			{
				"x": 0.4736027195,
				"y": -4.225043418,
				"z": -2.1622938259,
				"element": "O" 
			},
			{
				"x": 0.2371057912,
				"y": -2.1888140529,
				"z": -0.9392579882,
				"element": "C" 
			},
			{
				"x": 1.5808302039,
				"y": -1.8394333544,
				"z": -1.1614171677,
				"element": "C" 
			},
			{
				"x": 2.088914577,
				"y": -0.653432838,
				"z": -0.6508130537,
				"element": "C" 
			},
			{
				"x": 1.2526118607,
				"y": 0.1996211599,
				"z": 0.0913906658,
				"element": "C" 
			},
			{
				"x": -0.0902526072,
				"y": -0.1474635789,
				"z": 0.3145752018,
				"element": "C" 
			},
			{
				"x": -0.5941246916,
				"y": -1.3371090788,
				"z": -0.199369198,
				"element": "C" 
			},
			{
				"x": 1.771660623,
				"y": 1.4271940545,
				"z": 0.6219690853,
				"element": "C" 
			},
			{
				"x": 2.1929285963,
				"y": 2.42221587,
				"z": 1.0518472599,
				"element": "N" 
			},
			{
				"x": 2.2095541939,
				"y": -2.5100911102,
				"z": -1.7359510174,
				"element": "H" 
			},
			{
				"x": 3.1244429193,
				"y": -0.3788690086,
				"z": -0.8190013415,
				"element": "H" 
			},
			{
				"x": -0.7281218841,
				"y": 0.516013405,
				"z": 0.8879026081,
				"element": "H" 
			},
			{
				"x": -1.6291241411,
				"y": -1.6053694811,
				"z": -0.0277375186,
				"element": "H" 
			}
		],
		 "valence_orbital": [ 
			{
				"type": "occ",
				"energy": -0.33594,
				"method": "rhf"
			},
			{
				"type": "occ",
				"energy": -0.33526,
				"method": "rhf"
			},
			{
				"type": "occ",
				"energy": -0.30998,
				"method": "rhf"
			},
			{
				"type": "occ",
				"energy": -0.30061,
				"method": "rhf"
			},
			{
				"type": "occ",
				"energy": -0.29283,
				"method": "rhf"
			},
			{
				"type": "unocc",
				"energy": -0.10852,
				"method": "rhf"
			},
			{
				"type": "unocc",
				"energy": -0.04803,
				"method": "rhf"
			},
			{
				"type": "unocc",
				"energy": -0.0198,
				"method": "rhf"
			},
			{
				"type": "unocc",
				"energy": 0.00517,
				"method": "rhf"
			},
			{
				"type": "unocc",
				"energy": 0.0176,
				"method": "rhf"
			}
		],
		"cosmo_sigma_profile": { 
			"-0.025": 0.0,
			"-0.024": 0.0,
			"-0.023": 0.0,
			"-0.022": 0.0,
			"-0.021": 0.0,
			"-0.02": 0.0,
			"-0.019": 0.0,
			"-0.018": 0.0,
			"-0.017": 0.0,
			"-0.016": 0.0,
			"-0.015": 0.0,
			"-0.014": 0.0,
			"-0.013": 0.0,
			"-0.012": 0.0,
			"-0.011": 0.0,
			"-0.01": 0.0980822137465,
			"-0.009": 3.51162331894,
			"-0.008": 8.84894714444,
			"-0.007": 8.64878883727,
			"-0.006": 6.66441948104,
			"-0.005": 8.29508569724,
			"-0.004": 11.9115240175,
			"-0.003": 14.6076947952,
			"-0.002": 15.9556741659,
			"-0.001": 20.0138382096,
			"0.0": 18.5243302417,
			"0.001": 9.18257471294,
			"0.002": 7.91947477036,
			"0.003": 9.81955191794,
			"0.004": 9.96242710457,
			"0.005": 7.14798048247,
			"0.006": 4.43633451774,
			"0.007": 6.23915083709,
			"0.008": 7.4546615793,
			"0.009": 4.74176058156,
			"0.01": 2.71961544263,
			"0.011": 2.71877644798,
			"0.012": 1.80592598602,
			"0.013": 0.355290232827,
			"0.014": 0.0,
			"0.015": 0.0,
			"0.016": 0.0,
			"0.017": 0.0,
			"0.018": 0.0,
			"0.019": 0.0,
			"0.02": 0.0,
			"0.021": 0.0,
			"0.022": 0.0,
			"0.023": 0.0,
			"0.024": 0.0,
			"0.025": 0.0
		}
	}
}
