{
	 "smiles": "CC1CC1C(N)=O", 
	 "Tm": 367.15, 
	 "num_atms": 16, 
	 "gaussian": { 
		 "optdone": 1, 
		 "sigma_profile": "yes", 
		 "theory": "DFT", 
		 "functional": "B3LYP", 
		 "basiset": "6-31G**", 
		 "properties": { 
			 "R2extent": 999.1178, 
			 "electric_dipole_moment_norm": 3.53395218558, 
			 "electric_quadrupole_moment_norm": 5.03992570283, 
			 "total_energy": -325.920283232, 
			 "HOMO_LUMO_gap": 0.26301, 
			 "cosmo_polarized_energy": -12.02, 
			 "cosmo_cavitation_energy": 18.79, 
			 "cosmo_dispersion_energy": -13.91, 
			 "cosmo_repulsion_energy": 1.21, 
			 "cosmo_total_nonelectrostatic_energy": 6.1, 
			 "SMD_solvation_energy": 3.93 
		},
		"coords": [
			{
				"x": -2.7712181813,
				"y": 1.1452252361,
				"z": -0.5341416505,
				"element": "C" 
			},
			{
				"x": -1.7992532971,
				"y": 0.7345418209,
				"z": -1.620008259,
				"element": "C" 
			},
			{
				"x": -1.566204445,
				"y": -0.7150010182,
				"z": -1.9481692309,
				"element": "C" 
			},
			{
				"x": -0.4556264323,
				"y": 0.0851114615,
				"z": -1.2987519496,
				"element": "C" 
			},
			{
				"x": 0.0244819888,
				"y": -0.0744880788,
				"z": 0.1190164668,
				"element": "C" 
			},
			{
				"x": -0.5525440514,
				"y": -1.0758958294,
				"z": 0.8675297473,
				"element": "N" 
			},
			{
				"x": 0.8648005612,
				"y": 0.6793454438,
				"z": 0.5896022925,
				"element": "O" 
			},
			{
				"x": -2.7636723214,
				"y": 0.4372889805,
				"z": 0.2994276128,
				"element": "H" 
			},
			{
				"x": -2.5169606091,
				"y": 2.132413205,
				"z": -0.1337568782,
				"element": "H" 
			},
			{
				"x": -3.7920581306,
				"y": 1.1941323764,
				"z": -0.9295377171,
				"element": "H" 
			},
			{
				"x": -1.7604185493,
				"y": 1.4210205591,
				"z": -2.4634904185,
				"element": "H" 
			},
			{
				"x": -1.4321832124,
				"y": -1.0144453359,
				"z": -2.9834466649,
				"element": "H" 
			},
			{
				"x": -2.1068114677,
				"y": -1.4451323331,
				"z": -1.3505147628,
				"element": "H" 
			},
			{
				"x": 0.3632087037,
				"y": 0.3972311359,
				"z": -1.9398671884,
				"element": "H" 
			},
			{
				"x": -0.1352167905,
				"y": -1.2334916966,
				"z": 1.7740369336,
				"element": "H" 
			},
			{
				"x": -0.9705237656,
				"y": -1.8715559272,
				"z": 0.4118716669,
				"element": "H" 
			}
		],
		 "valence_orbital": [ 
			{
				"type": "occ",
				"energy": -0.35511,
				"method": "rhf"
			},
			{
				"type": "occ",
				"energy": -0.30588,
				"method": "rhf"
			},
			{
				"type": "occ",
				"energy": -0.28527,
				"method": "rhf"
			},
			{
				"type": "occ",
				"energy": -0.26447,
				"method": "rhf"
			},
			{
				"type": "occ",
				"energy": -0.23903,
				"method": "rhf"
			},
			{
				"type": "unocc",
				"energy": 0.02398,
				"method": "rhf"
			},
			{
				"type": "unocc",
				"energy": 0.07222,
				"method": "rhf"
			},
			{
				"type": "unocc",
				"energy": 0.09187,
				"method": "rhf"
			},
			{
				"type": "unocc",
				"energy": 0.12689,
				"method": "rhf"
			},
			{
				"type": "unocc",
				"energy": 0.1306,
				"method": "rhf"
			}
		],
		"cosmo_sigma_profile": { 
			"-0.025": 0.0,
			"-0.024": 0.0,
			"-0.023": 0.0,
			"-0.022": 0.0,
			"-0.021": 0.0,
			"-0.02": 0.0,
			"-0.019": 0.0,
			"-0.018": 0.0,
			"-0.017": 0.0,
			"-0.016": 0.0,
			"-0.015": 0.0,
			"-0.014": 0.433339680546,
			"-0.013": 2.20143570435,
			"-0.012": 2.15299636606,
			"-0.011": 2.13395061044,
			"-0.01": 2.95985536949,
			"-0.009": 2.46957748501,
			"-0.008": 1.93189945601,
			"-0.007": 2.09978639675,
			"-0.006": 3.06171809794,
			"-0.005": 6.95188015648,
			"-0.004": 10.9930996402,
			"-0.003": 11.9242670474,
			"-0.002": 12.2786823451,
			"-0.001": 15.3611415208,
			"0.0": 14.5556272909,
			"0.001": 13.2682204844,
			"0.002": 7.0620649632,
			"0.003": 5.35581835538,
			"0.004": 3.76474110638,
			"0.005": 3.04060124642,
			"0.006": 2.24638717735,
			"0.007": 1.42742731647,
			"0.008": 1.29885002138,
			"0.009": 1.66432339778,
			"0.01": 0.849592337705,
			"0.011": 1.44936657616,
			"0.012": 1.49052459898,
			"0.013": 3.31581894363,
			"0.014": 5.99313913383,
			"0.015": 2.88176694056,
			"0.016": 0.208938031921,
			"0.017": 0.0,
			"0.018": 0.0,
			"0.019": 0.0,
			"0.02": 0.0,
			"0.021": 0.0,
			"0.022": 0.0,
			"0.023": 0.0,
			"0.024": 0.0,
			"0.025": 0.0
		}
	}
}
