{
	 "smiles": "CN(C)S(=O)(=O)N1C(=NC(Cl)=C1C1=CC=C(C)C=C1)C#N", 
	 "Tm": 426.15, 
	 "num_atms": 34, 
	 "gaussian": { 
		 "optdone": 1, 
		 "sigma_profile": "yes", 
		 "theory": "DFT", 
		 "functional": "B3LYP", 
		 "basiset": "6-31G**", 
		 "properties": { 
			 "R2extent": 8607.0752, 
			 "electric_dipole_moment_norm": 9.43537179925, 
			 "electric_quadrupole_moment_norm": 30.7706890639, 
			 "total_energy": -1730.93302434, 
			 "HOMO_LUMO_gap": 0.17794, 
			 "cosmo_polarized_energy": -18.03, 
			 "cosmo_cavitation_energy": 41.71, 
			 "cosmo_dispersion_energy": -27.59, 
			 "cosmo_repulsion_energy": 2.09, 
			 "cosmo_total_nonelectrostatic_energy": 16.21, 
			 "SMD_solvation_energy": 6.12 
		},
		"coords": [
			{
				"x": 0.3296756987,
				"y": 1.7486333013,
				"z": 2.3604410723,
				"element": "C" 
			},
			{
				"x": -0.0413244865,
				"y": 0.4972497218,
				"z": 1.6881646933,
				"element": "N" 
			},
			{
				"x": 1.0559074656,
				"y": -0.3435788125,
				"z": 1.1910353632,
				"element": "C" 
			},
			{
				"x": -1.451038384,
				"y": -0.2130027398,
				"z": 2.1622925872,
				"element": "S" 
			},
			{
				"x": -1.7964729089,
				"y": 0.1337669085,
				"z": 3.5294980062,
				"element": "O" 
			},
			{
				"x": -1.4844534492,
				"y": -1.5785829145,
				"z": 1.6677516039,
				"element": "O" 
			},
			{
				"x": -2.624091459,
				"y": 0.7079889172,
				"z": 1.2104026464,
				"element": "N" 
			},
			{
				"x": -3.6946942327,
				"y": 1.4521343313,
				"z": 1.7018517716,
				"element": "C" 
			},
			{
				"x": -4.3269903613,
				"y": 2.0833160628,
				"z": 0.7297684902,
				"element": "N" 
			},
			{
				"x": -3.663329068,
				"y": 1.753888278,
				"z": -0.4039999606,
				"element": "C" 
			},
			{
				"x": -4.1758508215,
				"y": 2.3585991806,
				"z": -1.941266824,
				"element": "Cl" 
			},
			{
				"x": -2.6011212625,
				"y": 0.8981807662,
				"z": -0.1765989681,
				"element": "C" 
			},
			{
				"x": -1.6450878638,
				"y": 0.306229988,
				"z": -1.1309512399,
				"element": "C" 
			},
			{
				"x": -1.5864311792,
				"y": -1.0781525506,
				"z": -1.3568062141,
				"element": "C" 
			},
			{
				"x": -0.7120756946,
				"y": -1.5988868518,
				"z": -2.308642418,
				"element": "C" 
			},
			{
				"x": 0.1178493477,
				"y": -0.7647062804,
				"z": -3.0704808754,
				"element": "C" 
			},
			{
				"x": 1.0328747811,
				"y": -1.3346394539,
				"z": -4.1275363309,
				"element": "C" 
			},
			{
				"x": 0.0485589728,
				"y": 0.6169096057,
				"z": -2.844168227,
				"element": "C" 
			},
			{
				"x": -0.8206926308,
				"y": 1.1480348213,
				"z": -1.8941303626,
				"element": "C" 
			},
			{
				"x": -4.1075914541,
				"y": 1.542480507,
				"z": 3.0616312811,
				"element": "C" 
			},
			{
				"x": -4.5231143534,
				"y": 1.6810126164,
				"z": 4.1385280436,
				"element": "N" 
			},
			{
				"x": 0.8408928881,
				"y": 1.5665195319,
				"z": 3.3127757123,
				"element": "H" 
			},
			{
				"x": -0.5568020759,
				"y": 2.3553245591,
				"z": 2.5495955986,
				"element": "H" 
			},
			{
				"x": 0.9917901119,
				"y": 2.3040501017,
				"z": 1.6913406734,
				"element": "H" 
			},
			{
				"x": 0.6505192174,
				"y": -1.2138118855,
				"z": 0.6797276465,
				"element": "H" 
			},
			{
				"x": 1.7142178573,
				"y": -0.6693782006,
				"z": 2.0058725894,
				"element": "H" 
			},
			{
				"x": 1.6309068163,
				"y": 0.2477322376,
				"z": 0.473626277,
				"element": "H" 
			},
			{
				"x": -2.222040353,
				"y": -1.7441371693,
				"z": -0.7848010775,
				"element": "H" 
			},
			{
				"x": -0.6823554038,
				"y": -2.6735603917,
				"z": -2.4691267945,
				"element": "H" 
			},
			{
				"x": 1.3699696017,
				"y": -2.341957379,
				"z": -3.8658993171,
				"element": "H" 
			},
			{
				"x": 1.9161139252,
				"y": -0.7062590795,
				"z": -4.2753457602,
				"element": "H" 
			},
			{
				"x": 0.5184485909,
				"y": -1.4049741832,
				"z": -5.0939908644,
				"element": "H" 
			},
			{
				"x": 0.6807563656,
				"y": 1.2866229679,
				"z": -3.4216584525,
				"element": "H" 
			},
			{
				"x": -0.8627241977,
				"y": 2.2215534878,
				"z": -1.7380003695,
				"element": "H" 
			}
		],
		 "valence_orbital": [ 
			{
				"type": "occ",
				"energy": -0.30826,
				"method": "rhf"
			},
			{
				"type": "occ",
				"energy": -0.28472,
				"method": "rhf"
			},
			{
				"type": "occ",
				"energy": -0.2705,
				"method": "rhf"
			},
			{
				"type": "occ",
				"energy": -0.26964,
				"method": "rhf"
			},
			{
				"type": "occ",
				"energy": -0.24024,
				"method": "rhf"
			},
			{
				"type": "unocc",
				"energy": -0.0623,
				"method": "rhf"
			},
			{
				"type": "unocc",
				"energy": -0.02737,
				"method": "rhf"
			},
			{
				"type": "unocc",
				"energy": -0.02137,
				"method": "rhf"
			},
			{
				"type": "unocc",
				"energy": -0.00167,
				"method": "rhf"
			},
			{
				"type": "unocc",
				"energy": 0.01408,
				"method": "rhf"
			}
		],
		"cosmo_sigma_profile": { 
			"-0.025": 0.0,
			"-0.024": 0.0,
			"-0.023": 0.0,
			"-0.022": 0.0,
			"-0.021": 0.0,
			"-0.02": 0.0,
			"-0.019": 0.0,
			"-0.018": 0.0,
			"-0.017": 0.0,
			"-0.016": 0.0,
			"-0.015": 0.0,
			"-0.014": 0.0,
			"-0.013": 0.0,
			"-0.012": 0.0,
			"-0.011": 0.04398844275,
			"-0.01": 0.396860187632,
			"-0.009": 1.08026600559,
			"-0.008": 2.15741277075,
			"-0.007": 7.75311329645,
			"-0.006": 19.4146947631,
			"-0.005": 27.6209970291,
			"-0.004": 34.1231956223,
			"-0.003": 32.2767784374,
			"-0.002": 21.6786256206,
			"-0.001": 25.7593943496,
			"0.0": 22.5812000114,
			"0.001": 22.4038941075,
			"0.002": 23.2305820189,
			"0.003": 21.7159678589,
			"0.004": 18.1481390062,
			"0.005": 7.79988271048,
			"0.006": 7.18976670477,
			"0.007": 9.091850542,
			"0.008": 13.7261438253,
			"0.009": 8.57934201667,
			"0.01": 3.49874523291,
			"0.011": 3.54504721748,
			"0.012": 1.9602365952,
			"0.013": 0.455181425927,
			"0.014": 0.0,
			"0.015": 0.0,
			"0.016": 0.0,
			"0.017": 0.0,
			"0.018": 0.0,
			"0.019": 0.0,
			"0.02": 0.0,
			"0.021": 0.0,
			"0.022": 0.0,
			"0.023": 0.0,
			"0.024": 0.0,
			"0.025": 0.0
		}
	}
}
