{
	 "smiles": "CC1(C)C(=O)NC2=C1C=C(C=C2)S(Cl)(=O)=O", 
	 "Tm": 473.15, 
	 "num_atms": 26, 
	 "gaussian": { 
		 "optdone": 1, 
		 "sigma_profile": "yes", 
		 "theory": "DFT", 
		 "functional": "B3LYP", 
		 "basiset": "6-31G**", 
		 "properties": { 
			 "R2extent": 7136.7102, 
			 "electric_dipole_moment_norm": 4.37360128613, 
			 "electric_quadrupole_moment_norm": 32.2147983602, 
			 "total_energy": -1525.85912263, 
			 "HOMO_LUMO_gap": 0.16461, 
			 "cosmo_polarized_energy": -17.12, 
			 "cosmo_cavitation_energy": 33.4, 
			 "cosmo_dispersion_energy": -23.86, 
			 "cosmo_repulsion_energy": 1.83, 
			 "cosmo_total_nonelectrostatic_energy": 11.37, 
			 "SMD_solvation_energy": 4.9 
		},
		"coords": [
			{
				"x": 1.0343805892,
				"y": -0.5629187292,
				"z": 1.1882325839,
				"element": "C" 
			},
			{
				"x": 0.5810124383,
				"y": -1.3884171659,
				"z": -0.0336028611,
				"element": "C" 
			},
			{
				"x": -0.8078958124,
				"y": -2.0115895949,
				"z": 0.2171151132,
				"element": "C" 
			},
			{
				"x": 1.6034813234,
				"y": -2.5250226805,
				"z": -0.2791270463,
				"element": "C" 
			},
			{
				"x": 1.9082154496,
				"y": -3.4184151673,
				"z": 0.4818684369,
				"element": "O" 
			},
			{
				"x": 2.1273644263,
				"y": -2.3418332841,
				"z": -1.5572630704,
				"element": "N" 
			},
			{
				"x": 1.5889679837,
				"y": -1.2316093689,
				"z": -2.1948383005,
				"element": "C" 
			},
			{
				"x": 0.6562822112,
				"y": -0.6122512226,
				"z": -1.3354737444,
				"element": "C" 
			},
			{
				"x": -0.0152735794,
				"y": 0.5196625207,
				"z": -1.7558900762,
				"element": "C" 
			},
			{
				"x": 0.2647596263,
				"y": 1.0084461327,
				"z": -3.0429323213,
				"element": "C" 
			},
			{
				"x": 1.1887221585,
				"y": 0.3996144076,
				"z": -3.8950684292,
				"element": "C" 
			},
			{
				"x": 1.865466743,
				"y": -0.7448244171,
				"z": -3.4716480536,
				"element": "C" 
			},
			{
				"x": -0.5914773169,
				"y": 2.4579429852,
				"z": -3.6074048208,
				"element": "S" 
			},
			{
				"x": 0.6976615523,
				"y": 4.0269108171,
				"z": -2.9210181133,
				"element": "Cl" 
			},
			{
				"x": -0.5474744366,
				"y": 2.5178447745,
				"z": -5.0635925535,
				"element": "O" 
			},
			{
				"x": -1.8325669028,
				"y": 2.6121250579,
				"z": -2.8573264465,
				"element": "O" 
			},
			{
				"x": 2.0099649256,
				"y": -0.0980640268,
				"z": 1.0186979498,
				"element": "H" 
			},
			{
				"x": 1.1095932276,
				"y": -1.2148306504,
				"z": 2.0628926961,
				"element": "H" 
			},
			{
				"x": 0.3107929221,
				"y": 0.2296671894,
				"z": 1.4017185516,
				"element": "H" 
			},
			{
				"x": -1.5447385404,
				"y": -1.2289826828,
				"z": 0.4218449932,
				"element": "H" 
			},
			{
				"x": -0.7581107646,
				"y": -2.6817346881,
				"z": 1.0797340097,
				"element": "H" 
			},
			{
				"x": -1.1517461615,
				"y": -2.5864837389,
				"z": -0.6476995625,
				"element": "H" 
			},
			{
				"x": 2.8198418326,
				"y": -2.9658597167,
				"z": -1.9467090694,
				"element": "H" 
			},
			{
				"x": -0.7464413199,
				"y": 1.0202414578,
				"z": -1.1302028825,
				"element": "H" 
			},
			{
				"x": 1.3652811472,
				"y": 0.8124925935,
				"z": -4.8817564095,
				"element": "H" 
			},
			{
				"x": 2.5802362774,
				"y": -1.2364108019,
				"z": -4.1233505736,
				"element": "H" 
			}
		],
		 "valence_orbital": [ 
			{
				"type": "occ",
				"energy": -0.32261,
				"method": "rhf"
			},
			{
				"type": "occ",
				"energy": -0.31019,
				"method": "rhf"
			},
			{
				"type": "occ",
				"energy": -0.28964,
				"method": "rhf"
			},
			{
				"type": "occ",
				"energy": -0.27803,
				"method": "rhf"
			},
			{
				"type": "occ",
				"energy": -0.2529,
				"method": "rhf"
			},
			{
				"type": "unocc",
				"energy": -0.08829,
				"method": "rhf"
			},
			{
				"type": "unocc",
				"energy": -0.04558,
				"method": "rhf"
			},
			{
				"type": "unocc",
				"energy": -0.04094,
				"method": "rhf"
			},
			{
				"type": "unocc",
				"energy": 0.00249,
				"method": "rhf"
			},
			{
				"type": "unocc",
				"energy": 0.05539,
				"method": "rhf"
			}
		],
		"cosmo_sigma_profile": { 
			"-0.025": 0.0,
			"-0.024": 0.0,
			"-0.023": 0.0,
			"-0.022": 0.0,
			"-0.021": 0.0,
			"-0.02": 0.0,
			"-0.019": 0.0,
			"-0.018": 0.0,
			"-0.017": 0.287968927873,
			"-0.016": 1.50815123873,
			"-0.015": 1.78610722935,
			"-0.014": 1.09995062813,
			"-0.013": 0.752798643136,
			"-0.012": 1.42516166752,
			"-0.011": 1.14716103316,
			"-0.01": 1.52677632166,
			"-0.009": 1.79482897668,
			"-0.008": 5.62304295783,
			"-0.007": 7.51035812532,
			"-0.006": 8.67181521653,
			"-0.005": 14.0559411269,
			"-0.004": 17.1172371623,
			"-0.003": 17.313000361,
			"-0.002": 20.5361601751,
			"-0.001": 29.1233734556,
			"0.0": 26.5759994481,
			"0.001": 20.8765153368,
			"0.002": 12.967390847,
			"0.003": 12.1462814561,
			"0.004": 16.8275419231,
			"0.005": 5.80668266558,
			"0.006": 4.07769424632,
			"0.007": 6.96164385583,
			"0.008": 10.6502816707,
			"0.009": 8.12097339929,
			"0.01": 1.77554192453,
			"0.011": 2.45187126227,
			"0.012": 5.4632734938,
			"0.013": 2.25963477746,
			"0.014": 0.00451322033003,
			"0.015": 0.0,
			"0.016": 0.0,
			"0.017": 0.0,
			"0.018": 0.0,
			"0.019": 0.0,
			"0.02": 0.0,
			"0.021": 0.0,
			"0.022": 0.0,
			"0.023": 0.0,
			"0.024": 0.0,
			"0.025": 0.0
		}
	}
}
