{
	 "smiles": "CN(C)C", 
	 "Tm": 156.15, 
	 "num_atms": 13, 
	 "gaussian": { 
		 "optdone": 1, 
		 "sigma_profile": "yes", 
		 "theory": "DFT", 
		 "functional": "B3LYP", 
		 "basiset": "6-31G**", 
		 "properties": { 
			 "R2extent": 581.6163, 
			 "electric_dipole_moment_norm": 0.575487984236, 
			 "electric_quadrupole_moment_norm": 2.68563783858, 
			 "total_energy": -174.482825154, 
			 "HOMO_LUMO_gap": 0.29125, 
			 "cosmo_polarized_energy": -2.38, 
			 "cosmo_cavitation_energy": 14.9, 
			 "cosmo_dispersion_energy": -11.16, 
			 "cosmo_repulsion_energy": 1.0, 
			 "cosmo_total_nonelectrostatic_energy": 4.74, 
			 "SMD_solvation_energy": 0.41 
		},
		"coords": [
			{
				"x": -0.1378960427,
				"y": -0.3774094104,
				"z": 0.2716539312,
				"element": "C" 
			},
			{
				"x": -0.0247839079,
				"y": 0.1757902605,
				"z": 1.613021352,
				"element": "N" 
			},
			{
				"x": 1.1359530735,
				"y": 1.0449864899,
				"z": 1.7365723747,
				"element": "C" 
			},
			{
				"x": -1.246943777,
				"y": 0.8558254922,
				"z": 2.0154895564,
				"element": "C" 
			},
			{
				"x": 0.7719851969,
				"y": -0.932938736,
				"z": 0.0218382132,
				"element": "H" 
			},
			{
				"x": -0.9827282413,
				"y": -1.0725373618,
				"z": 0.2273619679,
				"element": "H" 
			},
			{
				"x": -0.2908072926,
				"y": 0.3936924113,
				"z": -0.5101108935,
				"element": "H" 
			},
			{
				"x": 2.0445914831,
				"y": 0.4880043117,
				"z": 1.4854674159,
				"element": "H" 
			},
			{
				"x": 1.0901077598,
				"y": 1.935466476,
				"z": 1.07771399,
				"element": "H" 
			},
			{
				"x": 1.2278595997,
				"y": 1.3961047323,
				"z": 2.7696153824,
				"element": "H" 
			},
			{
				"x": -2.0908674615,
				"y": 0.1597063555,
				"z": 1.9694715889,
				"element": "H" 
			},
			{
				"x": -1.4926370494,
				"y": 1.7304271091,
				"z": 1.3800176254,
				"element": "H" 
			},
			{
				"x": -1.1528333406,
				"y": 1.2070818695,
				"z": 3.0482874955,
				"element": "H" 
			}
		],
		 "valence_orbital": [ 
			{
				"type": "occ",
				"energy": -0.38736,
				"method": "rhf"
			},
			{
				"type": "occ",
				"energy": -0.36437,
				"method": "rhf"
			},
			{
				"type": "occ",
				"energy": -0.35566,
				"method": "rhf"
			},
			{
				"type": "occ",
				"energy": -0.35566,
				"method": "rhf"
			},
			{
				"type": "occ",
				"energy": -0.20702,
				"method": "rhf"
			},
			{
				"type": "unocc",
				"energy": 0.08423,
				"method": "rhf"
			},
			{
				"type": "unocc",
				"energy": 0.14617,
				"method": "rhf"
			},
			{
				"type": "unocc",
				"energy": 0.14617,
				"method": "rhf"
			},
			{
				"type": "unocc",
				"energy": 0.15786,
				"method": "rhf"
			},
			{
				"type": "unocc",
				"energy": 0.15786,
				"method": "rhf"
			}
		],
		"cosmo_sigma_profile": { 
			"-0.025": 0.0,
			"-0.024": 0.0,
			"-0.023": 0.0,
			"-0.022": 0.0,
			"-0.021": 0.0,
			"-0.02": 0.0,
			"-0.019": 0.0,
			"-0.018": 0.0,
			"-0.017": 0.0,
			"-0.016": 0.0,
			"-0.015": 0.0,
			"-0.014": 0.0,
			"-0.013": 0.0,
			"-0.012": 0.0,
			"-0.011": 0.0,
			"-0.01": 0.0,
			"-0.009": 0.0,
			"-0.008": 0.0,
			"-0.007": 0.0,
			"-0.006": 0.0,
			"-0.005": 0.0,
			"-0.004": 4.89858077136,
			"-0.003": 16.0603824957,
			"-0.002": 14.0884154816,
			"-0.001": 23.1782125416,
			"0.0": 30.1955998479,
			"0.001": 12.5460553732,
			"0.002": 2.4461212245,
			"0.003": 1.13535688191,
			"0.004": 0.99852251273,
			"0.005": 1.14947510836,
			"0.006": 1.07808127189,
			"0.007": 1.03041135213,
			"0.008": 0.537732824762,
			"0.009": 0.885727841458,
			"0.01": 0.811667327934,
			"0.011": 0.470520116804,
			"0.012": 0.526491990279,
			"0.013": 0.874211393872,
			"0.014": 0.330110538225,
			"0.015": 0.561770294976,
			"0.016": 0.522612804542,
			"0.017": 0.394414605907,
			"0.018": 0.13423205838,
			"0.019": 0.0,
			"0.02": 0.0,
			"0.021": 0.0,
			"0.022": 0.0,
			"0.023": 0.0,
			"0.024": 0.0,
			"0.025": 0.0
		}
	}
}
