{
	 "smiles": "CC1=CC(=NN1)[N+]([O-])=O", 
	 "Tm": 427.15, 
	 "num_atms": 14, 
	 "gaussian": { 
		 "optdone": 1, 
		 "sigma_profile": "yes", 
		 "theory": "DFT", 
		 "functional": "B3LYP", 
		 "basiset": "6-31G**", 
		 "properties": { 
			 "R2extent": 1793.2139, 
			 "electric_dipole_moment_norm": 7.09936188823, 
			 "electric_quadrupole_moment_norm": 13.8054295076, 
			 "total_energy": -470.016046981, 
			 "HOMO_LUMO_gap": 0.1942, 
			 "cosmo_polarized_energy": -16.11, 
			 "cosmo_cavitation_energy": 19.4, 
			 "cosmo_dispersion_energy": -14.42, 
			 "cosmo_repulsion_energy": 1.21, 
			 "cosmo_total_nonelectrostatic_energy": 6.19, 
			 "SMD_solvation_energy": 5.19 
		},
		"coords": [
			{
				"x": 1.0145204602,
				"y": 1.9623689809,
				"z": -1.0243639414,
				"element": "C" 
			},
			{
				"x": 0.4565616661,
				"y": 1.084253965,
				"z": 0.0487067141,
				"element": "C" 
			},
			{
				"x": -0.0079864679,
				"y": 1.3601655722,
				"z": 1.3203165895,
				"element": "C" 
			},
			{
				"x": -0.3955613263,
				"y": 0.1001125287,
				"z": 1.8214119696,
				"element": "C" 
			},
			{
				"x": -0.2034378598,
				"y": -0.895345267,
				"z": 0.9646961591,
				"element": "N" 
			},
			{
				"x": 0.3141133526,
				"y": -0.2702872228,
				"z": -0.1017625126,
				"element": "N" 
			},
			{
				"x": -0.9559667264,
				"y": -0.1581349692,
				"z": 3.1332878234,
				"element": "N" 
			},
			{
				"x": -1.2462383311,
				"y": -1.3117544511,
				"z": 3.4296628378,
				"element": "O" 
			},
			{
				"x": -1.0972041507,
				"y": 0.830237476,
				"z": 3.8589933693,
				"element": "O" 
			},
			{
				"x": 0.4088083553,
				"y": 1.9202807293,
				"z": -1.9365672398,
				"element": "H" 
			},
			{
				"x": 2.0390232575,
				"y": 1.6767687337,
				"z": -1.2881773974,
				"element": "H" 
			},
			{
				"x": 1.03365485,
				"y": 2.9991124681,
				"z": -0.6831068708,
				"element": "H" 
			},
			{
				"x": -0.0647318761,
				"y": 2.3127932285,
				"z": 1.8208355484,
				"element": "H" 
			},
			{
				"x": 0.5536447968,
				"y": -0.8238717725,
				"z": -0.9119330492,
				"element": "H" 
			}
		],
		 "valence_orbital": [ 
			{
				"type": "occ",
				"energy": -0.30078,
				"method": "rhf"
			},
			{
				"type": "occ",
				"energy": -0.29934,
				"method": "rhf"
			},
			{
				"type": "occ",
				"energy": -0.28984,
				"method": "rhf"
			},
			{
				"type": "occ",
				"energy": -0.28284,
				"method": "rhf"
			},
			{
				"type": "occ",
				"energy": -0.26994,
				"method": "rhf"
			},
			{
				"type": "unocc",
				"energy": -0.07574,
				"method": "rhf"
			},
			{
				"type": "unocc",
				"energy": -0.00197,
				"method": "rhf"
			},
			{
				"type": "unocc",
				"energy": 0.05388,
				"method": "rhf"
			},
			{
				"type": "unocc",
				"energy": 0.07254,
				"method": "rhf"
			},
			{
				"type": "unocc",
				"energy": 0.09515,
				"method": "rhf"
			}
		],
		"cosmo_sigma_profile": { 
			"-0.025": 0.0,
			"-0.024": 0.0,
			"-0.023": 0.0,
			"-0.022": 0.0,
			"-0.021": 0.0,
			"-0.02": 0.0,
			"-0.019": 0.0,
			"-0.018": 0.832313817425,
			"-0.017": 1.60271861973,
			"-0.016": 1.28824211809,
			"-0.015": 1.07389652212,
			"-0.014": 1.04916624499,
			"-0.013": 1.11264051219,
			"-0.012": 1.28535157283,
			"-0.011": 0.615761105733,
			"-0.01": 1.14359346789,
			"-0.009": 1.29215184576,
			"-0.008": 2.80704347546,
			"-0.007": 3.62231870186,
			"-0.006": 10.3887122821,
			"-0.005": 10.3249184864,
			"-0.004": 8.54721557061,
			"-0.003": 10.606551775,
			"-0.002": 10.5385991017,
			"-0.001": 11.0553346632,
			"0.0": 9.79787263447,
			"0.001": 8.44541955016,
			"0.002": 6.51284578646,
			"0.003": 3.8185126648,
			"0.004": 3.7776600556,
			"0.005": 2.89704037864,
			"0.006": 4.05261634542,
			"0.007": 8.14026579635,
			"0.008": 11.2127572431,
			"0.009": 6.69048984789,
			"0.01": 4.30020528052,
			"0.011": 1.68600986325,
			"0.012": 1.58107432543,
			"0.013": 1.74672534535,
			"0.014": 1.02723799333,
			"0.015": 0.067672853153,
			"0.016": 0.0,
			"0.017": 0.0,
			"0.018": 0.0,
			"0.019": 0.0,
			"0.02": 0.0,
			"0.021": 0.0,
			"0.022": 0.0,
			"0.023": 0.0,
			"0.024": 0.0,
			"0.025": 0.0
		}
	}
}
