{
	 "smiles": "C(NC1=NC=CC=C1)C1CCCCC1", 
	 "Tm": 365.15, 
	 "num_atms": 32, 
	 "gaussian": { 
		 "optdone": 1, 
		 "sigma_profile": "yes", 
		 "theory": "DFT", 
		 "functional": "B3LYP", 
		 "basiset": "6-31G**", 
		 "properties": { 
			 "R2extent": 4988.3246, 
			 "electric_dipole_moment_norm": 1.71073039372, 
			 "electric_quadrupole_moment_norm": 7.54278461909, 
			 "total_energy": -577.654324079, 
			 "HOMO_LUMO_gap": 0.1895, 
			 "cosmo_polarized_energy": -7.68, 
			 "cosmo_cavitation_energy": 32.67, 
			 "cosmo_dispersion_energy": -23.6, 
			 "cosmo_repulsion_energy": 1.88, 
			 "cosmo_total_nonelectrostatic_energy": 10.94, 
			 "SMD_solvation_energy": 3.15 
		},
		"coords": [
			{
				"x": -1.6200243599,
				"y": 0.4697182138,
				"z": -1.7460293261,
				"element": "C" 
			},
			{
				"x": -0.65513531,
				"y": 1.4073859284,
				"z": -2.3016631912,
				"element": "N" 
			},
			{
				"x": -0.6636564994,
				"y": 2.7546381757,
				"z": -2.0208564685,
				"element": "C" 
			},
			{
				"x": -1.7134909906,
				"y": 3.2388808267,
				"z": -1.3363931102,
				"element": "N" 
			},
			{
				"x": -1.7503906025,
				"y": 4.5566594357,
				"z": -1.0963886858,
				"element": "C" 
			},
			{
				"x": -0.769766802,
				"y": 5.4562046905,
				"z": -1.498489485,
				"element": "C" 
			},
			{
				"x": 0.3264727189,
				"y": 4.9413264859,
				"z": -2.2044567809,
				"element": "C" 
			},
			{
				"x": 0.3903325449,
				"y": 3.585498082,
				"z": -2.4738828238,
				"element": "C" 
			},
			{
				"x": -1.352708106,
				"y": 0.0326342973,
				"z": -0.2925514767,
				"element": "C" 
			},
			{
				"x": -0.0020251629,
				"y": -0.6876878735,
				"z": -0.1322252228,
				"element": "C" 
			},
			{
				"x": 0.2374716925,
				"y": -1.1506190821,
				"z": 1.3134831792,
				"element": "C" 
			},
			{
				"x": -0.9133624286,
				"y": -2.033263959,
				"z": 1.8193176394,
				"element": "C" 
			},
			{
				"x": -2.2675912193,
				"y": -1.3247604772,
				"z": 1.6653004843,
				"element": "C" 
			},
			{
				"x": -2.499512462,
				"y": -0.8577346585,
				"z": 0.2197001251,
				"element": "C" 
			},
			{
				"x": -2.6050085933,
				"y": 0.9400768277,
				"z": -1.8037054893,
				"element": "H" 
			},
			{
				"x": -1.6339844217,
				"y": -0.4122424594,
				"z": -2.3995348755,
				"element": "H" 
			},
			{
				"x": 0.2086823432,
				"y": 1.0303889184,
				"z": -2.6583509495,
				"element": "H" 
			},
			{
				"x": -2.6207539755,
				"y": 4.9060674309,
				"z": -0.5420438755,
				"element": "H" 
			},
			{
				"x": -0.8546489418,
				"y": 6.5124956572,
				"z": -1.2682482128,
				"element": "H" 
			},
			{
				"x": 1.1238172191,
				"y": 5.5981422735,
				"z": -2.5419615651,
				"element": "H" 
			},
			{
				"x": 1.2246472301,
				"y": 3.1603941599,
				"z": -3.0253064745,
				"element": "H" 
			},
			{
				"x": -1.3323647642,
				"y": 0.9464501967,
				"z": 0.3178640486,
				"element": "H" 
			},
			{
				"x": 0.016982614,
				"y": -1.5645040324,
				"z": -0.7989199919,
				"element": "H" 
			},
			{
				"x": 0.8155748684,
				"y": -0.0305678771,
				"z": -0.453735863,
				"element": "H" 
			},
			{
				"x": 0.3282786347,
				"y": -0.2682963793,
				"z": 1.9626833886,
				"element": "H" 
			},
			{
				"x": 1.1906522029,
				"y": -1.6886211075,
				"z": 1.385082104,
				"element": "H" 
			},
			{
				"x": -0.9285852858,
				"y": -2.9705881485,
				"z": 1.2444531633,
				"element": "H" 
			},
			{
				"x": -0.7468354752,
				"y": -2.3133347701,
				"z": 2.8665477183,
				"element": "H" 
			},
			{
				"x": -2.2963074854,
				"y": -0.4524140365,
				"z": 2.3333414669,
				"element": "H" 
			},
			{
				"x": -3.0822021022,
				"y": -1.9867266149,
				"z": 1.983362427,
				"element": "H" 
			},
			{
				"x": -3.4516912103,
				"y": -0.3174880657,
				"z": 0.1453866633,
				"element": "H" 
			},
			{
				"x": -2.5896658703,
				"y": -1.7393120587,
				"z": -0.4337785401,
				"element": "H" 
			}
		],
		 "valence_orbital": [ 
			{
				"type": "occ",
				"energy": -0.29119,
				"method": "rhf"
			},
			{
				"type": "occ",
				"energy": -0.28482,
				"method": "rhf"
			},
			{
				"type": "occ",
				"energy": -0.27079,
				"method": "rhf"
			},
			{
				"type": "occ",
				"energy": -0.24609,
				"method": "rhf"
			},
			{
				"type": "occ",
				"energy": -0.19717,
				"method": "rhf"
			},
			{
				"type": "unocc",
				"energy": -0.00767,
				"method": "rhf"
			},
			{
				"type": "unocc",
				"energy": 0.01834,
				"method": "rhf"
			},
			{
				"type": "unocc",
				"energy": 0.07935,
				"method": "rhf"
			},
			{
				"type": "unocc",
				"energy": 0.09522,
				"method": "rhf"
			},
			{
				"type": "unocc",
				"energy": 0.10761,
				"method": "rhf"
			}
		],
		"cosmo_sigma_profile": { 
			"-0.025": 0.0,
			"-0.024": 0.0,
			"-0.023": 0.0,
			"-0.022": 0.0,
			"-0.021": 0.0,
			"-0.02": 0.0,
			"-0.019": 0.0,
			"-0.018": 0.0,
			"-0.017": 0.0,
			"-0.016": 0.0,
			"-0.015": 0.0,
			"-0.014": 0.0,
			"-0.013": 0.29373217802,
			"-0.012": 1.34077461626,
			"-0.011": 0.988653887925,
			"-0.01": 1.80327132219,
			"-0.009": 1.20689911038,
			"-0.008": 1.74255334082,
			"-0.007": 1.98142936939,
			"-0.006": 5.73780923687,
			"-0.005": 8.78232877146,
			"-0.004": 11.0931177248,
			"-0.003": 13.7027162947,
			"-0.002": 28.2174506365,
			"-0.001": 38.2928038008,
			"0.0": 38.8390117358,
			"0.001": 33.2023547828,
			"0.002": 15.634980226,
			"0.003": 9.84235103352,
			"0.004": 11.8557195395,
			"0.005": 12.9344483895,
			"0.006": 5.07980237743,
			"0.007": 2.99315954705,
			"0.008": 1.96773135515,
			"0.009": 1.93139848887,
			"0.01": 1.16512284953,
			"0.011": 0.647662962688,
			"0.012": 1.14543167714,
			"0.013": 1.14520146147,
			"0.014": 0.614415932112,
			"0.015": 0.033913804171,
			"0.016": 0.0,
			"0.017": 0.0,
			"0.018": 0.0,
			"0.019": 0.0,
			"0.02": 0.0,
			"0.021": 0.0,
			"0.022": 0.0,
			"0.023": 0.0,
			"0.024": 0.0,
			"0.025": 0.0
		}
	}
}
