{
	 "smiles": "FC1=CC=C(C=C1)C(=O)CCCN1CCC2(CC1)N(CNC2=O)C1=CC=CC=C1", 
	 "Tm": 463.15, 
	 "num_atms": 55, 
	 "gaussian": { 
		 "optdone": 1, 
		 "sigma_profile": "yes", 
		 "theory": "DFT", 
		 "functional": "B3LYP", 
		 "basiset": "6-31G**", 
		 "properties": { 
			 "R2extent": 20044.312, 
			 "electric_dipole_moment_norm": 3.97214429119, 
			 "electric_quadrupole_moment_norm": 18.9639022672, 
			 "total_energy": -1306.63973441, 
			 "HOMO_LUMO_gap": 0.1417, 
			 "cosmo_polarized_energy": -21.82, 
			 "cosmo_cavitation_energy": 55.89, 
			 "cosmo_dispersion_energy": -37.86, 
			 "cosmo_repulsion_energy": 2.82, 
			 "cosmo_total_nonelectrostatic_energy": 20.85, 
			 "SMD_solvation_energy": 6.94 
		},
		"coords": [
			{
				"x": -1.4549700774,
				"y": 8.0948009305,
				"z": 2.0130937141,
				"element": "F" 
			},
			{
				"x": -0.615307048,
				"y": 7.1127744565,
				"z": 2.390732968,
				"element": "C" 
			},
			{
				"x": 0.4463574341,
				"y": 6.7787955576,
				"z": 1.5568815262,
				"element": "C" 
			},
			{
				"x": 1.311878069,
				"y": 5.7610567253,
				"z": 1.9539717599,
				"element": "C" 
			},
			{
				"x": 1.1187018651,
				"y": 5.084464578,
				"z": 3.1693287044,
				"element": "C" 
			},
			{
				"x": 0.0341227133,
				"y": 5.4527633882,
				"z": 3.9845089794,
				"element": "C" 
			},
			{
				"x": -0.8380936528,
				"y": 6.4649634424,
				"z": 3.6038643137,
				"element": "C" 
			},
			{
				"x": 2.0163585549,
				"y": 3.9848549851,
				"z": 3.6564551123,
				"element": "C" 
			},
			{
				"x": 1.8233642342,
				"y": 3.4769199545,
				"z": 4.7533141493,
				"element": "O" 
			},
			{
				"x": 3.1478501047,
				"y": 3.4838632021,
				"z": 2.7670387789,
				"element": "C" 
			},
			{
				"x": 2.6722356185,
				"y": 2.5086748686,
				"z": 1.6643936817,
				"element": "C" 
			},
			{
				"x": 2.1144335894,
				"y": 1.1926878903,
				"z": 2.2231945327,
				"element": "C" 
			},
			{
				"x": 1.7842232,
				"y": 0.2326146581,
				"z": 1.1754380358,
				"element": "N" 
			},
			{
				"x": 1.8284250802,
				"y": -1.1538438255,
				"z": 1.6634125765,
				"element": "C" 
			},
			{
				"x": 0.9696852126,
				"y": -2.1156871171,
				"z": 0.8189053691,
				"element": "C" 
			},
			{
				"x": 0.9777622044,
				"y": -1.7808633116,
				"z": -0.6769728014,
				"element": "C" 
			},
			{
				"x": 0.5805736142,
				"y": -0.2764810056,
				"z": -0.8800912456,
				"element": "C" 
			},
			{
				"x": 0.5638258756,
				"y": 0.5153715569,
				"z": 0.4347164977,
				"element": "C" 
			},
			{
				"x": 0.0580425694,
				"y": -2.6433686582,
				"z": -1.5023804798,
				"element": "N" 
			},
			{
				"x": 0.6887515118,
				"y": -2.7085443727,
				"z": -2.8203359657,
				"element": "C" 
			},
			{
				"x": 2.1187257774,
				"y": -2.6358944376,
				"z": -2.5355054742,
				"element": "N" 
			},
			{
				"x": 2.3649201145,
				"y": -2.0371772601,
				"z": -1.3241501288,
				"element": "C" 
			},
			{
				"x": 3.4625949237,
				"y": -1.7575331568,
				"z": -0.8756423761,
				"element": "O" 
			},
			{
				"x": -0.363683162,
				"y": -3.9059351997,
				"z": -0.9599913195,
				"element": "C" 
			},
			{
				"x": -1.5620171355,
				"y": -3.9388446273,
				"z": -0.2331202992,
				"element": "C" 
			},
			{
				"x": -2.0343336845,
				"y": -5.1344738213,
				"z": 0.3077514629,
				"element": "C" 
			},
			{
				"x": -1.3275713079,
				"y": -6.3225071267,
				"z": 0.1107932074,
				"element": "C" 
			},
			{
				"x": -0.1403065966,
				"y": -6.3016538273,
				"z": -0.6232846473,
				"element": "C" 
			},
			{
				"x": 0.3457703952,
				"y": -5.1031060805,
				"z": -1.1481516103,
				"element": "C" 
			},
			{
				"x": 0.5821083729,
				"y": 7.3124693082,
				"z": 0.6226427793,
				"element": "H" 
			},
			{
				"x": 2.1416139271,
				"y": 5.5019730461,
				"z": 1.3054584323,
				"element": "H" 
			},
			{
				"x": -0.099973183,
				"y": 4.9231850048,
				"z": 4.9215436812,
				"element": "H" 
			},
			{
				"x": -1.6791849708,
				"y": 6.760490214,
				"z": 4.221722115,
				"element": "H" 
			},
			{
				"x": 3.8578656447,
				"y": 2.9767634973,
				"z": 3.4270570391,
				"element": "H" 
			},
			{
				"x": 3.6710779963,
				"y": 4.3273289101,
				"z": 2.303394583,
				"element": "H" 
			},
			{
				"x": 1.9244479916,
				"y": 3.0058394377,
				"z": 1.0354487286,
				"element": "H" 
			},
			{
				"x": 3.5191703051,
				"y": 2.268339225,
				"z": 1.012919076,
				"element": "H" 
			},
			{
				"x": 1.2557018682,
				"y": 1.3885159999,
				"z": 2.8934217349,
				"element": "H" 
			},
			{
				"x": 2.8888194054,
				"y": 0.738389069,
				"z": 2.8524330934,
				"element": "H" 
			},
			{
				"x": 2.8713819699,
				"y": -1.4836312082,
				"z": 1.6566680912,
				"element": "H" 
			},
			{
				"x": 1.4601569677,
				"y": -1.2231584546,
				"z": 2.7037432328,
				"element": "H" 
			},
			{
				"x": 1.3138303545,
				"y": -3.1395264082,
				"z": 0.987804439,
				"element": "H" 
			},
			{
				"x": -0.0681791,
				"y": -2.0796325855,
				"z": 1.164036206,
				"element": "H" 
			},
			{
				"x": -0.4101791397,
				"y": -0.2530864798,
				"z": -1.344401329,
				"element": "H" 
			},
			{
				"x": 1.2852996542,
				"y": 0.2099508011,
				"z": -1.562981103,
				"element": "H" 
			},
			{
				"x": -0.3538062045,
				"y": 0.2934545444,
				"z": 1.0166913735,
				"element": "H" 
			},
			{
				"x": 0.5209029424,
				"y": 1.5831647408,
				"z": 0.2006230537,
				"element": "H" 
			},
			{
				"x": 0.4187218141,
				"y": -3.6328610962,
				"z": -3.3359310616,
				"element": "H" 
			},
			{
				"x": 0.3623131636,
				"y": -1.8582585897,
				"z": -3.438941865,
				"element": "H" 
			},
			{
				"x": 2.8404799782,
				"y": -2.6613078207,
				"z": -3.2422016324,
				"element": "H" 
			},
			{
				"x": -2.1223140363,
				"y": -3.0163113947,
				"z": -0.117232686,
				"element": "H" 
			},
			{
				"x": -2.9651103492,
				"y": -5.1403207022,
				"z": 0.8680058955,
				"element": "H" 
			},
			{
				"x": -1.7002339932,
				"y": -7.2561664842,
				"z": 0.5216216954,
				"element": "H" 
			},
			{
				"x": 0.4193930997,
				"y": -7.2198595353,
				"z": -0.7789193979,
				"element": "H" 
			},
			{
				"x": 1.2856755236,
				"y": -5.092535405,
				"z": -1.691895197,
				"element": "H" 
			}
		],
		 "valence_orbital": [ 
			{
				"type": "occ",
				"energy": -0.25203,
				"method": "rhf"
			},
			{
				"type": "occ",
				"energy": -0.24528,
				"method": "rhf"
			},
			{
				"type": "occ",
				"energy": -0.24454,
				"method": "rhf"
			},
			{
				"type": "occ",
				"energy": -0.21201,
				"method": "rhf"
			},
			{
				"type": "occ",
				"energy": -0.19675,
				"method": "rhf"
			},
			{
				"type": "unocc",
				"energy": -0.05505,
				"method": "rhf"
			},
			{
				"type": "unocc",
				"energy": -0.02021,
				"method": "rhf"
			},
			{
				"type": "unocc",
				"energy": -0.0067,
				"method": "rhf"
			},
			{
				"type": "unocc",
				"energy": -0.00358,
				"method": "rhf"
			},
			{
				"type": "unocc",
				"energy": 0.03024,
				"method": "rhf"
			}
		],
		"cosmo_sigma_profile": { 
			"-0.025": 0.0,
			"-0.024": 0.0,
			"-0.023": 0.0,
			"-0.022": 0.0,
			"-0.021": 0.0,
			"-0.02": 0.0,
			"-0.019": 0.0,
			"-0.018": 0.0,
			"-0.017": 0.0,
			"-0.016": 0.0,
			"-0.015": 0.146536959207,
			"-0.014": 1.33765112796,
			"-0.013": 1.22018258824,
			"-0.012": 1.53594509288,
			"-0.011": 1.0592499966,
			"-0.01": 0.432567470706,
			"-0.009": 1.06448527546,
			"-0.008": 4.04992936106,
			"-0.007": 8.14026374005,
			"-0.006": 14.6954300606,
			"-0.005": 26.7653687774,
			"-0.004": 35.9221063542,
			"-0.003": 45.8370245319,
			"-0.002": 48.0706510376,
			"-0.001": 48.6117745407,
			"0.0": 36.3228611757,
			"0.001": 27.9078079832,
			"0.002": 26.8357215059,
			"0.003": 24.4169916806,
			"0.004": 22.9077106721,
			"0.005": 12.9535023475,
			"0.006": 9.87900049498,
			"0.007": 4.65586386516,
			"0.008": 3.92404980222,
			"0.009": 3.26917356555,
			"0.01": 4.20739832081,
			"0.011": 4.09741887464,
			"0.012": 5.47326727112,
			"0.013": 6.4865750687,
			"0.014": 4.92287233932,
			"0.015": 1.39919088749,
			"0.016": 0.912253732312,
			"0.017": 0.68404723027,
			"0.018": 0.146931207909,
			"0.019": 0.0,
			"0.02": 0.0,
			"0.021": 0.0,
			"0.022": 0.0,
			"0.023": 0.0,
			"0.024": 0.0,
			"0.025": 0.0
		}
	}
}
