{
	 "smiles": "OC(=O)CNS(=O)(=O)C1=CC=C(Cl)C=C1", 
	 "Tm": 451.15, 
	 "num_atms": 23, 
	 "gaussian": { 
		 "optdone": 1, 
		 "sigma_profile": "yes", 
		 "theory": "DFT", 
		 "functional": "B3LYP", 
		 "basiset": "6-31G**", 
		 "properties": { 
			 "R2extent": 5970.4124, 
			 "electric_dipole_moment_norm": 5.13276296063, 
			 "electric_quadrupole_moment_norm": 16.2850640033, 
			 "total_energy": -1523.63010325, 
			 "HOMO_LUMO_gap": 0.21325, 
			 "cosmo_polarized_energy": -22.5, 
			 "cosmo_cavitation_energy": 31.59, 
			 "cosmo_dispersion_energy": -23.28, 
			 "cosmo_repulsion_energy": 1.8, 
			 "cosmo_total_nonelectrostatic_energy": 10.11, 
			 "SMD_solvation_energy": 5.02 
		},
		"coords": [
			{
				"x": -3.2789439575,
				"y": -1.9424456369,
				"z": -1.9306401293,
				"element": "O" 
			},
			{
				"x": -2.9779302338,
				"y": -0.6542239769,
				"z": -1.6639892988,
				"element": "C" 
			},
			{
				"x": -3.7826345408,
				"y": 0.2248834636,
				"z": -1.845462454,
				"element": "O" 
			},
			{
				"x": -1.5673698282,
				"y": -0.4028300761,
				"z": -1.1333929322,
				"element": "C" 
			},
			{
				"x": -1.4503923502,
				"y": 0.9963935501,
				"z": -0.7500104952,
				"element": "N" 
			},
			{
				"x": -0.0177372708,
				"y": 1.81932815,
				"z": -1.1017639998,
				"element": "S" 
			},
			{
				"x": -0.4206528424,
				"y": 3.2092569317,
				"z": -1.3191322055,
				"element": "O" 
			},
			{
				"x": 0.7513607002,
				"y": 1.0631248761,
				"z": -2.099282345,
				"element": "O" 
			},
			{
				"x": 0.8929591223,
				"y": 1.7279557573,
				"z": 0.4397454458,
				"element": "C" 
			},
			{
				"x": 2.0018587996,
				"y": 0.8877031378,
				"z": 0.5329871149,
				"element": "C" 
			},
			{
				"x": 2.7156877514,
				"y": 0.8245967009,
				"z": 1.7300522498,
				"element": "C" 
			},
			{
				"x": 2.3043127675,
				"y": 1.60764714,
				"z": 2.8085073723,
				"element": "C" 
			},
			{
				"x": 3.1965377244,
				"y": 1.5294969019,
				"z": 4.3147113435,
				"element": "Cl" 
			},
			{
				"x": 1.199405555,
				"y": 2.4586360119,
				"z": 2.7139517971,
				"element": "C" 
			},
			{
				"x": 0.4901579764,
				"y": 2.520057695,
				"z": 1.5180069895,
				"element": "C" 
			},
			{
				"x": -2.5274564155,
				"y": -2.5223621164,
				"z": -1.7381921051,
				"element": "H" 
			},
			{
				"x": -0.8455064865,
				"y": -0.6668412893,
				"z": -1.9191544966,
				"element": "H" 
			},
			{
				"x": -1.3841637877,
				"y": -1.0622068667,
				"z": -0.2734314215,
				"element": "H" 
			},
			{
				"x": -2.2476824757,
				"y": 1.5412747019,
				"z": -1.085593881,
				"element": "H" 
			},
			{
				"x": 2.3074244739,
				"y": 0.3035753413,
				"z": -0.3278191652,
				"element": "H" 
			},
			{
				"x": 3.5832071984,
				"y": 0.1813002436,
				"z": 1.8239823458,
				"element": "H" 
			},
			{
				"x": 0.9062764746,
				"y": 3.0649337114,
				"z": 3.5634385773,
				"element": "H" 
			},
			{
				"x": -0.3615183545,
				"y": 3.1841456479,
				"z": 1.4185816932,
				"element": "H" 
			}
		],
		 "valence_orbital": [ 
			{
				"type": "occ",
				"energy": -0.31596,
				"method": "rhf"
			},
			{
				"type": "occ",
				"energy": -0.30312,
				"method": "rhf"
			},
			{
				"type": "occ",
				"energy": -0.29488,
				"method": "rhf"
			},
			{
				"type": "occ",
				"energy": -0.28773,
				"method": "rhf"
			},
			{
				"type": "occ",
				"energy": -0.26648,
				"method": "rhf"
			},
			{
				"type": "unocc",
				"energy": -0.05323,
				"method": "rhf"
			},
			{
				"type": "unocc",
				"energy": -0.03737,
				"method": "rhf"
			},
			{
				"type": "unocc",
				"energy": -0.01423,
				"method": "rhf"
			},
			{
				"type": "unocc",
				"energy": 0.01231,
				"method": "rhf"
			},
			{
				"type": "unocc",
				"energy": 0.03075,
				"method": "rhf"
			}
		],
		"cosmo_sigma_profile": { 
			"-0.025": 0.0,
			"-0.024": 0.0,
			"-0.023": 0.0,
			"-0.022": 0.0,
			"-0.021": 0.0456535619629,
			"-0.02": 1.10292267063,
			"-0.019": 1.41306235798,
			"-0.018": 1.43506423293,
			"-0.017": 1.18471165197,
			"-0.016": 1.26239954374,
			"-0.015": 1.07145226877,
			"-0.014": 0.855675446294,
			"-0.013": 1.24065233284,
			"-0.012": 1.64199908156,
			"-0.011": 1.01850518773,
			"-0.01": 2.2971906121,
			"-0.009": 3.82559563468,
			"-0.008": 10.0939910726,
			"-0.007": 12.7491961889,
			"-0.006": 11.6977100619,
			"-0.005": 9.54227868498,
			"-0.004": 10.862556542,
			"-0.003": 11.5444826137,
			"-0.002": 12.4647059405,
			"-0.001": 14.2285658575,
			"0.0": 19.5916102771,
			"0.001": 24.0928449015,
			"0.002": 14.940056067,
			"0.003": 12.5761313547,
			"0.004": 15.1569021292,
			"0.005": 5.46893862216,
			"0.006": 4.61732599869,
			"0.007": 6.65511604866,
			"0.008": 6.8479087776,
			"0.009": 9.28338426232,
			"0.01": 12.7243830882,
			"0.011": 9.61524785378,
			"0.012": 2.00361733517,
			"0.013": 0.0142833128287,
			"0.014": 0.0,
			"0.015": 0.0,
			"0.016": 0.0,
			"0.017": 0.0,
			"0.018": 0.0,
			"0.019": 0.0,
			"0.02": 0.0,
			"0.021": 0.0,
			"0.022": 0.0,
			"0.023": 0.0,
			"0.024": 0.0,
			"0.025": 0.0
		}
	}
}
