{
	 "smiles": "NC(=O)C1=CC=CC=N1", 
	 "Tm": 379.15, 
	 "num_atms": 15, 
	 "gaussian": { 
		 "optdone": 1, 
		 "sigma_profile": "yes", 
		 "theory": "DFT", 
		 "functional": "B3LYP", 
		 "basiset": "6-31G**", 
		 "properties": { 
			 "R2extent": 1913.7169, 
			 "electric_dipole_moment_norm": 3.12848411535, 
			 "electric_quadrupole_moment_norm": 17.9874159445, 
			 "total_energy": -416.999933555, 
			 "HOMO_LUMO_gap": 0.19535, 
			 "cosmo_polarized_energy": -11.21, 
			 "cosmo_cavitation_energy": 19.44, 
			 "cosmo_dispersion_energy": -14.75, 
			 "cosmo_repulsion_energy": 1.22, 
			 "cosmo_total_nonelectrostatic_energy": 5.9, 
			 "SMD_solvation_energy": 3.42 
		},
		"coords": [
			{
				"x": -1.3544102191,
				"y": 1.881620488,
				"z": 1.7552727537,
				"element": "N" 
			},
			{
				"x": -2.1574748473,
				"y": 0.8516838653,
				"z": 1.3891124452,
				"element": "C" 
			},
			{
				"x": -3.3729574582,
				"y": 0.9342303153,
				"z": 1.2453294117,
				"element": "O" 
			},
			{
				"x": -1.4209369023,
				"y": -0.4503547509,
				"z": 1.1633763965,
				"element": "C" 
			},
			{
				"x": -2.1494727701,
				"y": -1.5791869293,
				"z": 0.7825990778,
				"element": "C" 
			},
			{
				"x": -1.4601298279,
				"y": -2.7720844871,
				"z": 0.5777021632,
				"element": "C" 
			},
			{
				"x": -0.0771881688,
				"y": -2.7888165673,
				"z": 0.7607118355,
				"element": "C" 
			},
			{
				"x": 0.5598061112,
				"y": -1.6058903013,
				"z": 1.1426323133,
				"element": "C" 
			},
			{
				"x": -0.0901448497,
				"y": -0.454876684,
				"z": 1.3423740266,
				"element": "N" 
			},
			{
				"x": -0.362240017,
				"y": 1.7221756603,
				"z": 1.8497066989,
				"element": "H" 
			},
			{
				"x": -1.7650910181,
				"y": 2.7850798383,
				"z": 1.9255953396,
				"element": "H" 
			},
			{
				"x": -3.2225203376,
				"y": -1.4899781164,
				"z": 0.6596698212,
				"element": "H" 
			},
			{
				"x": -1.9900644086,
				"y": -3.6725528908,
				"z": 0.2808788274,
				"element": "H" 
			},
			{
				"x": 0.5005377749,
				"y": -3.6955484898,
				"z": 0.612252632,
				"element": "H" 
			},
			{
				"x": 1.6372869385,
				"y": -1.5835009505,
				"z": 1.2940862573,
				"element": "H" 
			}
		],
		 "valence_orbital": [ 
			{
				"type": "occ",
				"energy": -0.29751,
				"method": "rhf"
			},
			{
				"type": "occ",
				"energy": -0.28093,
				"method": "rhf"
			},
			{
				"type": "occ",
				"energy": -0.26928,
				"method": "rhf"
			},
			{
				"type": "occ",
				"energy": -0.26018,
				"method": "rhf"
			},
			{
				"type": "occ",
				"energy": -0.24443,
				"method": "rhf"
			},
			{
				"type": "unocc",
				"energy": -0.04908,
				"method": "rhf"
			},
			{
				"type": "unocc",
				"energy": -0.0274,
				"method": "rhf"
			},
			{
				"type": "unocc",
				"energy": 0.06499,
				"method": "rhf"
			},
			{
				"type": "unocc",
				"energy": 0.08872,
				"method": "rhf"
			},
			{
				"type": "unocc",
				"energy": 0.10751,
				"method": "rhf"
			}
		],
		"cosmo_sigma_profile": { 
			"-0.025": 0.0,
			"-0.024": 0.0,
			"-0.023": 0.0,
			"-0.022": 0.0,
			"-0.021": 0.0,
			"-0.02": 0.0,
			"-0.019": 0.0,
			"-0.018": 0.0,
			"-0.017": 0.0,
			"-0.016": 0.0,
			"-0.015": 0.0352632374207,
			"-0.014": 1.03933432335,
			"-0.013": 1.03345341323,
			"-0.012": 1.43025662099,
			"-0.011": 1.69445613239,
			"-0.01": 2.5433709828,
			"-0.009": 1.77912610634,
			"-0.008": 2.45500056554,
			"-0.007": 7.96084915141,
			"-0.006": 10.1930159247,
			"-0.005": 10.2250411958,
			"-0.004": 7.07753261082,
			"-0.003": 5.88735349836,
			"-0.002": 7.05586354333,
			"-0.001": 8.72043467721,
			"0.0": 12.2450444804,
			"0.001": 18.682739763,
			"0.002": 16.2864775831,
			"0.003": 6.52196618378,
			"0.004": 4.74590449066,
			"0.005": 3.89855224342,
			"0.006": 2.63337284598,
			"0.007": 2.78034283996,
			"0.008": 3.0758685833,
			"0.009": 1.86187264515,
			"0.01": 1.50891011835,
			"0.011": 1.48575972618,
			"0.012": 1.84934517156,
			"0.013": 4.3384961712,
			"0.014": 4.06710296618,
			"0.015": 0.638157530087,
			"0.016": 0.0,
			"0.017": 0.0,
			"0.018": 0.0,
			"0.019": 0.0,
			"0.02": 0.0,
			"0.021": 0.0,
			"0.022": 0.0,
			"0.023": 0.0,
			"0.024": 0.0,
			"0.025": 0.0
		}
	}
}
