{
	 "smiles": "NC1=C(CC2=CC=CC=C2)C=CC=C1", 
	 "Tm": 329.15, 
	 "num_atms": 27, 
	 "gaussian": { 
		 "optdone": 1, 
		 "sigma_profile": "yes", 
		 "theory": "DFT", 
		 "functional": "B3LYP", 
		 "basiset": "6-31G**", 
		 "properties": { 
			 "R2extent": 3453.4556, 
			 "electric_dipole_moment_norm": 1.58844726069, 
			 "electric_quadrupole_moment_norm": 6.25023302206, 
			 "total_energy": -557.97935018, 
			 "HOMO_LUMO_gap": 0.19319, 
			 "cosmo_polarized_energy": -9.53, 
			 "cosmo_cavitation_energy": 29.91, 
			 "cosmo_dispersion_energy": -21.45, 
			 "cosmo_repulsion_energy": 1.69, 
			 "cosmo_total_nonelectrostatic_energy": 10.15, 
			 "SMD_solvation_energy": 4.7 
		},
		"coords": [
			{
				"x": 2.1282558671,
				"y": 1.5903125109,
				"z": -1.6070501797,
				"element": "N" 
			},
			{
				"x": 2.0441732041,
				"y": 1.3110745249,
				"z": -0.2468319258,
				"element": "C" 
			},
			{
				"x": 1.5975650104,
				"y": 0.0501738279,
				"z": 0.2195739513,
				"element": "C" 
			},
			{
				"x": 1.2949668237,
				"y": -1.0790483837,
				"z": -0.7453036668,
				"element": "C" 
			},
			{
				"x": 0.0902517532,
				"y": -0.8839881839,
				"z": -1.6607849073,
				"element": "C" 
			},
			{
				"x": 0.1207750087,
				"y": -1.3594403134,
				"z": -2.9783666837,
				"element": "C" 
			},
			{
				"x": -0.9895613847,
				"y": -1.2304813217,
				"z": -3.8154495295,
				"element": "C" 
			},
			{
				"x": -2.1519200039,
				"y": -0.6195087458,
				"z": -3.3441432029,
				"element": "C" 
			},
			{
				"x": -2.1929269434,
				"y": -0.1397431951,
				"z": -2.0329574173,
				"element": "C" 
			},
			{
				"x": -1.0817860893,
				"y": -0.2699190098,
				"z": -1.1999206027,
				"element": "C" 
			},
			{
				"x": 1.4753740556,
				"y": -0.1473794962,
				"z": 1.5990117044,
				"element": "C" 
			},
			{
				"x": 1.7858388651,
				"y": 0.8503605211,
				"z": 2.5234872859,
				"element": "C" 
			},
			{
				"x": 2.2368670622,
				"y": 2.0848373463,
				"z": 2.0543199859,
				"element": "C" 
			},
			{
				"x": 2.364044119,
				"y": 2.3123015314,
				"z": 0.6874422332,
				"element": "C" 
			},
			{
				"x": 2.1036087872,
				"y": 0.8124195326,
				"z": -2.2475652679,
				"element": "H" 
			},
			{
				"x": 2.7757013525,
				"y": 2.3163125639,
				"z": -1.8750447853,
				"element": "H" 
			},
			{
				"x": 2.176115315,
				"y": -1.2813982337,
				"z": -1.3724719264,
				"element": "H" 
			},
			{
				"x": 1.1441624527,
				"y": -1.9948541369,
				"z": -0.1594181816,
				"element": "H" 
			},
			{
				"x": 1.0222179678,
				"y": -1.8414998197,
				"z": -3.3519974142,
				"element": "H" 
			},
			{
				"x": -0.9440338632,
				"y": -1.6049241824,
				"z": -4.834516351,
				"element": "H" 
			},
			{
				"x": -3.0168783736,
				"y": -0.5145221317,
				"z": -3.9928443873,
				"element": "H" 
			},
			{
				"x": -3.0922668888,
				"y": 0.3415282919,
				"z": -1.6584270434,
				"element": "H" 
			},
			{
				"x": -1.1154805621,
				"y": 0.116049146,
				"z": -0.1851989251,
				"element": "H" 
			},
			{
				"x": 1.1365496692,
				"y": -1.1188334914,
				"z": 1.9525071534,
				"element": "H" 
			},
			{
				"x": 1.6827958044,
				"y": 0.6643837191,
				"z": 3.5878809226,
				"element": "H" 
			},
			{
				"x": 2.4911480122,
				"y": 2.8774598998,
				"z": 2.752776314,
				"element": "H" 
			},
			{
				"x": 2.7071429789,
				"y": 3.2789272296,
				"z": 0.3254928472,
				"element": "H" 
			}
		],
		 "valence_orbital": [ 
			{
				"type": "occ",
				"energy": -0.30106,
				"method": "rhf"
			},
			{
				"type": "occ",
				"energy": -0.24516,
				"method": "rhf"
			},
			{
				"type": "occ",
				"energy": -0.24041,
				"method": "rhf"
			},
			{
				"type": "occ",
				"energy": -0.23295,
				"method": "rhf"
			},
			{
				"type": "occ",
				"energy": -0.19359,
				"method": "rhf"
			},
			{
				"type": "unocc",
				"energy": -0.0004,
				"method": "rhf"
			},
			{
				"type": "unocc",
				"energy": 0.00223,
				"method": "rhf"
			},
			{
				"type": "unocc",
				"energy": 0.01322,
				"method": "rhf"
			},
			{
				"type": "unocc",
				"energy": 0.02351,
				"method": "rhf"
			},
			{
				"type": "unocc",
				"energy": 0.08484,
				"method": "rhf"
			}
		],
		"cosmo_sigma_profile": { 
			"-0.025": 0.0,
			"-0.024": 0.0,
			"-0.023": 0.0,
			"-0.022": 0.0,
			"-0.021": 0.0,
			"-0.02": 0.0,
			"-0.019": 0.0,
			"-0.018": 0.0,
			"-0.017": 0.0,
			"-0.016": 0.0,
			"-0.015": 0.0,
			"-0.014": 0.0,
			"-0.013": 0.164631336953,
			"-0.012": 1.30888595575,
			"-0.011": 1.31942089566,
			"-0.01": 1.93257568196,
			"-0.009": 3.41619942904,
			"-0.008": 2.8344425167,
			"-0.007": 2.82095632895,
			"-0.006": 5.38361593131,
			"-0.005": 19.9668209409,
			"-0.004": 21.4070163295,
			"-0.003": 21.6320874722,
			"-0.002": 19.1140323302,
			"-0.001": 18.207661719,
			"0.0": 14.2963034509,
			"0.001": 14.0899562632,
			"0.002": 13.0461426371,
			"0.003": 12.9312147387,
			"0.004": 13.8513194732,
			"0.005": 14.3278394152,
			"0.006": 14.9316459894,
			"0.007": 11.4253150082,
			"0.008": 5.25634171121,
			"0.009": 1.0493538797,
			"0.01": 0.9199107599,
			"0.011": 0.815496507458,
			"0.012": 0.522576784527,
			"0.013": 0.492732642951,
			"0.014": 0.241650308219,
			"0.015": 0.0,
			"0.016": 0.0,
			"0.017": 0.0,
			"0.018": 0.0,
			"0.019": 0.0,
			"0.02": 0.0,
			"0.021": 0.0,
			"0.022": 0.0,
			"0.023": 0.0,
			"0.024": 0.0,
			"0.025": 0.0
		}
	}
}
