{
	 "smiles": "CCOC1=CC=C(C=C1)C1=NN=C2SC(NN12)C1=CC=C(OC)C=C1", 
	 "Tm": 472.15, 
	 "num_atms": 43, 
	 "gaussian": { 
		 "optdone": 1, 
		 "sigma_profile": "yes", 
		 "theory": "DFT", 
		 "functional": "B3LYP", 
		 "basiset": "6-31G**", 
		 "properties": { 
			 "R2extent": 15741.1736, 
			 "electric_dipole_moment_norm": 9.84248133552, 
			 "electric_quadrupole_moment_norm": 43.6844361867, 
			 "total_energy": -1464.32270991, 
			 "HOMO_LUMO_gap": 0.16574, 
			 "cosmo_polarized_energy": -23.75, 
			 "cosmo_cavitation_energy": 48.49, 
			 "cosmo_dispersion_energy": -35.4, 
			 "cosmo_repulsion_energy": 2.62, 
			 "cosmo_total_nonelectrostatic_energy": 15.71, 
			 "SMD_solvation_energy": 6.11 
		},
		"coords": [
			{
				"x": -0.6897410054,
				"y": -5.5542458557,
				"z": 1.0274534654,
				"element": "C" 
			},
			{
				"x": 0.1562184833,
				"y": -5.3212131642,
				"z": 2.2751444569,
				"element": "C" 
			},
			{
				"x": 1.5253012633,
				"y": -5.0467663158,
				"z": 1.9661827316,
				"element": "O" 
			},
			{
				"x": 1.9025858393,
				"y": -3.7930495786,
				"z": 1.5866757122,
				"element": "C" 
			},
			{
				"x": 3.2669400502,
				"y": -3.6423351067,
				"z": 1.2818568245,
				"element": "C" 
			},
			{
				"x": 3.7699064702,
				"y": -2.4112585418,
				"z": 0.8992288336,
				"element": "C" 
			},
			{
				"x": 2.9267599181,
				"y": -1.285523437,
				"z": 0.8070857041,
				"element": "C" 
			},
			{
				"x": 1.5688769544,
				"y": -1.4421192193,
				"z": 1.1128944471,
				"element": "C" 
			},
			{
				"x": 1.0548023297,
				"y": -2.6819488717,
				"z": 1.4977512241,
				"element": "C" 
			},
			{
				"x": 3.5121943033,
				"y": -0.0066497166,
				"z": 0.4068595755,
				"element": "C" 
			},
			{
				"x": 4.804437432,
				"y": 0.2207111264,
				"z": 0.2341230232,
				"element": "N" 
			},
			{
				"x": 4.9988448057,
				"y": 1.5486710133,
				"z": -0.126997505,
				"element": "N" 
			},
			{
				"x": 3.810186766,
				"y": 2.0856701705,
				"z": -0.1846175475,
				"element": "C" 
			},
			{
				"x": 3.1252265341,
				"y": 3.6677893448,
				"z": -0.5421939843,
				"element": "S" 
			},
			{
				"x": 1.5171696945,
				"y": 3.0302319664,
				"z": 0.2911743134,
				"element": "C" 
			},
			{
				"x": 1.4926343288,
				"y": 1.5755835681,
				"z": 0.0868596665,
				"element": "N" 
			},
			{
				"x": 2.8406151911,
				"y": 1.1690484045,
				"z": 0.1412968078,
				"element": "N" 
			},
			{
				"x": 0.2722162443,
				"y": 3.7038189247,
				"z": -0.206709216,
				"element": "C" 
			},
			{
				"x": -0.0249454397,
				"y": 3.7916319611,
				"z": -1.5785813634,
				"element": "C" 
			},
			{
				"x": -1.2035934399,
				"y": 4.377144304,
				"z": -2.014593215,
				"element": "C" 
			},
			{
				"x": -2.1189928398,
				"y": 4.9003881155,
				"z": -1.0856308782,
				"element": "C" 
			},
			{
				"x": -3.2407794905,
				"y": 5.4563614417,
				"z": -1.614413769,
				"element": "O" 
			},
			{
				"x": -4.201324848,
				"y": 6.0173955033,
				"z": -0.7297878784,
				"element": "C" 
			},
			{
				"x": -1.8327304125,
				"y": 4.8284896201,
				"z": 0.28341793,
				"element": "C" 
			},
			{
				"x": -0.6437108051,
				"y": 4.2317922786,
				"z": 0.706573517,
				"element": "C" 
			},
			{
				"x": -0.2686141667,
				"y": -6.3693119678,
				"z": 0.4321499117,
				"element": "H" 
			},
			{
				"x": -0.7373759322,
				"y": -4.6618669153,
				"z": 0.3976033417,
				"element": "H" 
			},
			{
				"x": -1.7113079177,
				"y": -5.8272844176,
				"z": 1.3127585455,
				"element": "H" 
			},
			{
				"x": -0.2597423574,
				"y": -4.5234878231,
				"z": 2.9034294136,
				"element": "H" 
			},
			{
				"x": 0.1923646527,
				"y": -6.2296798717,
				"z": 2.8829599637,
				"element": "H" 
			},
			{
				"x": 3.9105823623,
				"y": -4.512613572,
				"z": 1.3569374697,
				"element": "H" 
			},
			{
				"x": 4.8227042465,
				"y": -2.292938681,
				"z": 0.6674682084,
				"element": "H" 
			},
			{
				"x": 0.9012938501,
				"y": -0.5887569696,
				"z": 1.0596778404,
				"element": "H" 
			},
			{
				"x": -0.0017126363,
				"y": -2.7630935243,
				"z": 1.7232645429,
				"element": "H" 
			},
			{
				"x": 1.6633462905,
				"y": 3.2116291421,
				"z": 1.3578802665,
				"element": "H" 
			},
			{
				"x": 1.1477362221,
				"y": 1.3776460884,
				"z": -0.8563584609,
				"element": "H" 
			},
			{
				"x": 0.6862512676,
				"y": 3.4184553405,
				"z": -2.3103017625,
				"element": "H" 
			},
			{
				"x": -1.437778333,
				"y": 4.4542001758,
				"z": -3.0710048324,
				"element": "H" 
			},
			{
				"x": -4.6106476468,
				"y": 5.2620208987,
				"z": -0.0473600214,
				"element": "H" 
			},
			{
				"x": -5.0023236491,
				"y": 6.4019902337,
				"z": -1.3621941174,
				"element": "H" 
			},
			{
				"x": -3.7761975287,
				"y": 6.8414975344,
				"z": -0.1434386803,
				"element": "H" 
			},
			{
				"x": -2.5181136,
				"y": 5.229098301,
				"z": 1.0203014353,
				"element": "H" 
			},
			{
				"x": -0.4320634512,
				"y": 4.1763780921,
				"z": 1.7710740593,
				"element": "H" 
			}
		],
		 "valence_orbital": [ 
			{
				"type": "occ",
				"energy": -0.25267,
				"method": "rhf"
			},
			{
				"type": "occ",
				"energy": -0.24446,
				"method": "rhf"
			},
			{
				"type": "occ",
				"energy": -0.2402,
				"method": "rhf"
			},
			{
				"type": "occ",
				"energy": -0.23811,
				"method": "rhf"
			},
			{
				"type": "occ",
				"energy": -0.19933,
				"method": "rhf"
			},
			{
				"type": "unocc",
				"energy": -0.03359,
				"method": "rhf"
			},
			{
				"type": "unocc",
				"energy": -0.02496,
				"method": "rhf"
			},
			{
				"type": "unocc",
				"energy": -0.01834,
				"method": "rhf"
			},
			{
				"type": "unocc",
				"energy": -0.00252,
				"method": "rhf"
			},
			{
				"type": "unocc",
				"energy": 0.00422,
				"method": "rhf"
			}
		],
		"cosmo_sigma_profile": { 
			"-0.025": 0.0,
			"-0.024": 0.0,
			"-0.023": 0.0,
			"-0.022": 0.0,
			"-0.021": 0.0,
			"-0.02": 0.0,
			"-0.019": 0.0,
			"-0.018": 0.0,
			"-0.017": 0.0,
			"-0.016": 0.0,
			"-0.015": 0.170981950624,
			"-0.014": 1.04283414289,
			"-0.013": 1.34939916382,
			"-0.012": 1.72580743383,
			"-0.011": 1.55437659149,
			"-0.01": 1.26545322513,
			"-0.009": 2.39609470666,
			"-0.008": 5.19843924029,
			"-0.007": 10.0328188255,
			"-0.006": 20.9660626682,
			"-0.005": 28.0491191723,
			"-0.004": 34.3505315304,
			"-0.003": 31.8833324293,
			"-0.002": 26.6469400243,
			"-0.001": 24.4242274425,
			"0.0": 27.8149105178,
			"0.001": 24.7239233746,
			"0.002": 26.8941690978,
			"0.003": 31.0676668256,
			"0.004": 31.4881175445,
			"0.005": 13.3846856213,
			"0.006": 7.3577829022,
			"0.007": 4.78028431461,
			"0.008": 5.19785785524,
			"0.009": 4.43564124551,
			"0.01": 4.02656906925,
			"0.011": 2.95928775817,
			"0.012": 2.8750882688,
			"0.013": 2.76414355816,
			"0.014": 3.80803260774,
			"0.015": 2.70589634606,
			"0.016": 1.66735948498,
			"0.017": 0.227576883572,
			"0.018": 0.0,
			"0.019": 0.0,
			"0.02": 0.0,
			"0.021": 0.0,
			"0.022": 0.0,
			"0.023": 0.0,
			"0.024": 0.0,
			"0.025": 0.0
		}
	}
}
