{
	 "smiles": "CC1=CC=CC(NC(=O)C(F)(F)F)=C1C(O)=O", 
	 "Tm": 441.15, 
	 "num_atms": 25, 
	 "gaussian": { 
		 "optdone": 1, 
		 "sigma_profile": "yes", 
		 "theory": "DFT", 
		 "functional": "B3LYP", 
		 "basiset": "6-31G**", 
		 "properties": { 
			 "R2extent": 5195.0917, 
			 "electric_dipole_moment_norm": 3.64476405135, 
			 "electric_quadrupole_moment_norm": 15.2581452346, 
			 "total_energy": -965.852602397, 
			 "HOMO_LUMO_gap": 0.18339, 
			 "cosmo_polarized_energy": -12.75, 
			 "cosmo_cavitation_energy": 30.74, 
			 "cosmo_dispersion_energy": -21.69, 
			 "cosmo_repulsion_energy": 1.63, 
			 "cosmo_total_nonelectrostatic_energy": 10.68, 
			 "SMD_solvation_energy": 8.12 
		},
		"coords": [
			{
				"x": -0.6994533171,
				"y": -1.8489043422,
				"z": 1.5633461306,
				"element": "C" 
			},
			{
				"x": -0.465756642,
				"y": -0.3978224116,
				"z": 1.2093377495,
				"element": "C" 
			},
			{
				"x": -1.2248252716,
				"y": 0.5782397926,
				"z": 1.8621816494,
				"element": "C" 
			},
			{
				"x": -1.0553224049,
				"y": 1.9312877733,
				"z": 1.5826598028,
				"element": "C" 
			},
			{
				"x": -0.1169294181,
				"y": 2.3436763789,
				"z": 0.6448225697,
				"element": "C" 
			},
			{
				"x": 0.649665592,
				"y": 1.3965831304,
				"z": -0.0406517671,
				"element": "C" 
			},
			{
				"x": 1.6092861008,
				"y": 1.818078728,
				"z": -0.9947233496,
				"element": "N" 
			},
			{
				"x": 1.5896120992,
				"y": 2.7483528464,
				"z": -2.0010704715,
				"element": "C" 
			},
			{
				"x": 2.5683793435,
				"y": 2.9732497293,
				"z": -2.689131634,
				"element": "O" 
			},
			{
				"x": 0.2825068769,
				"y": 3.5245581932,
				"z": -2.3084855787,
				"element": "C" 
			},
			{
				"x": 0.1479423618,
				"y": 4.5816643049,
				"z": -1.47153748,
				"element": "F" 
			},
			{
				"x": 0.3276533665,
				"y": 3.995582818,
				"z": -3.5539441851,
				"element": "F" 
			},
			{
				"x": -0.8172952574,
				"y": 2.7556063725,
				"z": -2.1903894836,
				"element": "F" 
			},
			{
				"x": 0.4942396151,
				"y": 0.0151579342,
				"z": 0.2516372518,
				"element": "C" 
			},
			{
				"x": 1.2929814711,
				"y": -1.0385707549,
				"z": -0.439948486,
				"element": "C" 
			},
			{
				"x": 2.5838748093,
				"y": -0.6680549452,
				"z": -0.6937440397,
				"element": "O" 
			},
			{
				"x": 0.8989572819,
				"y": -2.1449842863,
				"z": -0.7395794192,
				"element": "O" 
			},
			{
				"x": -1.1634106135,
				"y": -2.3876396127,
				"z": 0.7333471308,
				"element": "H" 
			},
			{
				"x": -1.3526630589,
				"y": -1.91873391,
				"z": 2.4365886364,
				"element": "H" 
			},
			{
				"x": 0.2325910999,
				"y": -2.375344874,
				"z": 1.7870760872,
				"element": "H" 
			},
			{
				"x": -1.9525900248,
				"y": 0.2672299721,
				"z": 2.6053971417,
				"element": "H" 
			},
			{
				"x": -1.6451465655,
				"y": 2.6742063704,
				"z": 2.1111557622,
				"element": "H" 
			},
			{
				"x": 0.0325414966,
				"y": 3.3962294603,
				"z": 0.446253585,
				"element": "H" 
			},
			{
				"x": 2.4614222865,
				"y": 1.2676300524,
				"z": -1.0260427294,
				"element": "H" 
			},
			{
				"x": 2.9907387725,
				"y": -1.4149787199,
				"z": -1.1650548734,
				"element": "H" 
			}
		],
		 "valence_orbital": [ 
			{
				"type": "occ",
				"energy": -0.31363,
				"method": "rhf"
			},
			{
				"type": "occ",
				"energy": -0.29617,
				"method": "rhf"
			},
			{
				"type": "occ",
				"energy": -0.28249,
				"method": "rhf"
			},
			{
				"type": "occ",
				"energy": -0.26825,
				"method": "rhf"
			},
			{
				"type": "occ",
				"energy": -0.24585,
				"method": "rhf"
			},
			{
				"type": "unocc",
				"energy": -0.06246,
				"method": "rhf"
			},
			{
				"type": "unocc",
				"energy": -0.03317,
				"method": "rhf"
			},
			{
				"type": "unocc",
				"energy": -0.00164,
				"method": "rhf"
			},
			{
				"type": "unocc",
				"energy": 0.02605,
				"method": "rhf"
			},
			{
				"type": "unocc",
				"energy": 0.06225,
				"method": "rhf"
			}
		],
		"cosmo_sigma_profile": { 
			"-0.025": 0.0,
			"-0.024": 0.0,
			"-0.023": 0.0,
			"-0.022": 0.0,
			"-0.021": 0.0,
			"-0.02": 0.0,
			"-0.019": 0.415187956334,
			"-0.018": 0.856272770489,
			"-0.017": 1.06720779969,
			"-0.016": 1.06729324349,
			"-0.015": 0.456476417101,
			"-0.014": 0.770672667755,
			"-0.013": 0.230348967161,
			"-0.012": 0.841263033365,
			"-0.011": 1.23641792818,
			"-0.01": 0.383141307413,
			"-0.009": 1.0335404927,
			"-0.008": 1.66478474325,
			"-0.007": 5.27338845597,
			"-0.006": 10.3561563495,
			"-0.005": 15.1388909711,
			"-0.004": 17.7266715704,
			"-0.003": 16.1854209566,
			"-0.002": 15.0972011903,
			"-0.001": 18.5564218362,
			"0.0": 22.4232083165,
			"0.001": 24.7563145609,
			"0.002": 34.7440785103,
			"0.003": 15.6002050829,
			"0.004": 5.85234047539,
			"0.005": 3.05365447046,
			"0.006": 4.35833071358,
			"0.007": 3.21605005235,
			"0.008": 2.68447262242,
			"0.009": 3.75132068323,
			"0.01": 5.49123241411,
			"0.011": 9.1331627604,
			"0.012": 2.56676385041,
			"0.013": 0.0,
			"0.014": 0.0,
			"0.015": 0.0,
			"0.016": 0.0,
			"0.017": 0.0,
			"0.018": 0.0,
			"0.019": 0.0,
			"0.02": 0.0,
			"0.021": 0.0,
			"0.022": 0.0,
			"0.023": 0.0,
			"0.024": 0.0,
			"0.025": 0.0
		}
	}
}
