{
	 "smiles": "CC1=NN(C(N)=C1)C1=NC=C(C=C1)C(F)(F)F", 
	 "Tm": 393.15, 
	 "num_atms": 26, 
	 "gaussian": { 
		 "optdone": 1, 
		 "sigma_profile": "yes", 
		 "theory": "DFT", 
		 "functional": "B3LYP", 
		 "basiset": "6-31G**", 
		 "properties": { 
			 "R2extent": 7078.6964, 
			 "electric_dipole_moment_norm": 4.74528038055, 
			 "electric_quadrupole_moment_norm": 6.34246659904, 
			 "total_energy": -904.997699066, 
			 "HOMO_LUMO_gap": 0.1669, 
			 "cosmo_polarized_energy": -17.23, 
			 "cosmo_cavitation_energy": 32.19, 
			 "cosmo_dispersion_energy": -23.13, 
			 "cosmo_repulsion_energy": 1.74, 
			 "cosmo_total_nonelectrostatic_energy": 10.8, 
			 "SMD_solvation_energy": 4.81 
		},
		"coords": [
			{
				"x": -3.7545765075,
				"y": 0.1815211491,
				"z": 0.8686941306,
				"element": "C" 
			},
			{
				"x": -2.2699264259,
				"y": 0.3537670343,
				"z": 0.9632766871,
				"element": "C" 
			},
			{
				"x": -1.4632103008,
				"y": -0.638413814,
				"z": 0.6268361753,
				"element": "N" 
			},
			{
				"x": -0.19158844,
				"y": -0.1547073313,
				"z": 0.8525390713,
				"element": "N" 
			},
			{
				"x": -0.2214675436,
				"y": 1.1513962925,
				"z": 1.3007961861,
				"element": "C" 
			},
			{
				"x": 0.9336926585,
				"y": 1.8698309288,
				"z": 1.6203113819,
				"element": "N" 
			},
			{
				"x": -1.5490048046,
				"y": 1.5067516529,
				"z": 1.3870318385,
				"element": "C" 
			},
			{
				"x": 0.9224382856,
				"y": -0.9876519746,
				"z": 0.6148467952,
				"element": "C" 
			},
			{
				"x": 0.8030554981,
				"y": -1.8630406793,
				"z": -0.3864711765,
				"element": "N" 
			},
			{
				"x": 1.8282984151,
				"y": -2.6819381439,
				"z": -0.6228865542,
				"element": "C" 
			},
			{
				"x": 3.0219602081,
				"y": -2.6566827349,
				"z": 0.1021254244,
				"element": "C" 
			},
			{
				"x": 3.1359047911,
				"y": -1.7353713483,
				"z": 1.1463951069,
				"element": "C" 
			},
			{
				"x": 2.0707279622,
				"y": -0.8892330093,
				"z": 1.4213045956,
				"element": "C" 
			},
			{
				"x": 4.1320525712,
				"y": -3.6230790367,
				"z": -0.1913314897,
				"element": "C" 
			},
			{
				"x": 4.069966282,
				"y": -4.0925603932,
				"z": -1.4553970177,
				"element": "F" 
			},
			{
				"x": 4.0957236151,
				"y": -4.6949963215,
				"z": 0.6332521231,
				"element": "F" 
			},
			{
				"x": 5.3453049261,
				"y": -3.0468160873,
				"z": -0.0260593976,
				"element": "F" 
			},
			{
				"x": -4.1976418002,
				"y": 0.9189464947,
				"z": 0.1898105318,
				"element": "H" 
			},
			{
				"x": -3.986700355,
				"y": -0.8177589856,
				"z": 0.4948858989,
				"element": "H" 
			},
			{
				"x": -4.2330870299,
				"y": 0.3090236435,
				"z": 1.8462430401,
				"element": "H" 
			},
			{
				"x": 1.6720892472,
				"y": 1.7855572244,
				"z": 0.9290325421,
				"element": "H" 
			},
			{
				"x": 0.7244772483,
				"y": 2.8474261064,
				"z": 1.7813941344,
				"element": "H" 
			},
			{
				"x": -1.9431892955,
				"y": 2.4658823819,
				"z": 1.6906810963,
				"element": "H" 
			},
			{
				"x": 1.7021169494,
				"y": -3.3838181376,
				"z": -1.4433114898,
				"element": "H" 
			},
			{
				"x": 4.0413167736,
				"y": -1.690863589,
				"z": 1.7430163587,
				"element": "H" 
			},
			{
				"x": 2.1094670716,
				"y": -0.1833713222,
				"z": 2.2415840069,
				"element": "H" 
			}
		],
		 "valence_orbital": [ 
			{
				"type": "occ",
				"energy": -0.29273,
				"method": "rhf"
			},
			{
				"type": "occ",
				"energy": -0.28491,
				"method": "rhf"
			},
			{
				"type": "occ",
				"energy": -0.26671,
				"method": "rhf"
			},
			{
				"type": "occ",
				"energy": -0.23509,
				"method": "rhf"
			},
			{
				"type": "occ",
				"energy": -0.2148,
				"method": "rhf"
			},
			{
				"type": "unocc",
				"energy": -0.0479,
				"method": "rhf"
			},
			{
				"type": "unocc",
				"energy": -0.03629,
				"method": "rhf"
			},
			{
				"type": "unocc",
				"energy": 0.03588,
				"method": "rhf"
			},
			{
				"type": "unocc",
				"energy": 0.06536,
				"method": "rhf"
			},
			{
				"type": "unocc",
				"energy": 0.07702,
				"method": "rhf"
			}
		],
		"cosmo_sigma_profile": { 
			"-0.025": 0.0,
			"-0.024": 0.0,
			"-0.023": 0.0,
			"-0.022": 0.0,
			"-0.021": 0.0,
			"-0.02": 0.0,
			"-0.019": 0.0,
			"-0.018": 0.0,
			"-0.017": 0.0,
			"-0.016": 0.0,
			"-0.015": 0.0,
			"-0.014": 0.59609419813,
			"-0.013": 2.92493562717,
			"-0.012": 2.37123005029,
			"-0.011": 3.35453494162,
			"-0.01": 3.53675815159,
			"-0.009": 3.0199922423,
			"-0.008": 4.64075620714,
			"-0.007": 8.75961268955,
			"-0.006": 8.02895023673,
			"-0.005": 8.80688181298,
			"-0.004": 14.628169777,
			"-0.003": 14.0948728401,
			"-0.002": 18.0400502244,
			"-0.001": 25.9672511305,
			"0.0": 23.3333427301,
			"0.001": 18.2872665797,
			"0.002": 24.8213011229,
			"0.003": 29.4114704626,
			"0.004": 7.7689015019,
			"0.005": 7.63153517725,
			"0.006": 4.55386645675,
			"0.007": 2.94326077084,
			"0.008": 3.0378634171,
			"0.009": 2.15739023681,
			"0.01": 1.8762719396,
			"0.011": 2.27412085572,
			"0.012": 1.82898507448,
			"0.013": 1.27337213769,
			"0.014": 1.79763532263,
			"0.015": 0.924055488564,
			"0.016": 1.61550177941,
			"0.017": 1.08798471268,
			"0.018": 1.28095037405,
			"0.019": 0.894818081005,
			"0.02": 0.162598790787,
			"0.021": 0.0,
			"0.022": 0.0,
			"0.023": 0.0,
			"0.024": 0.0,
			"0.025": 0.0
		}
	}
}
