{
	 "smiles": "N#CC1=C(C=CC=C1)N1CCOCC1", 
	 "Tm": 322.15, 
	 "num_atms": 26, 
	 "gaussian": { 
		 "optdone": 1, 
		 "sigma_profile": "yes", 
		 "theory": "DFT", 
		 "functional": "B3LYP", 
		 "basiset": "6-31G**", 
		 "properties": { 
			 "R2extent": 2991.357, 
			 "electric_dipole_moment_norm": 4.32484453593, 
			 "electric_quadrupole_moment_norm": 10.2598285512, 
			 "total_energy": -611.084182885, 
			 "HOMO_LUMO_gap": 0.16823, 
			 "cosmo_polarized_energy": -12.02, 
			 "cosmo_cavitation_energy": 28.71, 
			 "cosmo_dispersion_energy": -20.84, 
			 "cosmo_repulsion_energy": 1.62, 
			 "cosmo_total_nonelectrostatic_energy": 9.49, 
			 "SMD_solvation_energy": 4.78 
		},
		"coords": [
			{
				"x": -0.0278545439,
				"y": -1.8555786627,
				"z": -3.0668184869,
				"element": "N" 
			},
			{
				"x": 0.4905848851,
				"y": -1.1785444471,
				"z": -2.2730205788,
				"element": "C" 
			},
			{
				"x": 1.150254784,
				"y": -0.3078446362,
				"z": -1.3489428022,
				"element": "C" 
			},
			{
				"x": 0.6044422135,
				"y": 0.0136063796,
				"z": -0.0685567934,
				"element": "C" 
			},
			{
				"x": 1.2699311229,
				"y": 1.0181702429,
				"z": 0.6724618148,
				"element": "C" 
			},
			{
				"x": 2.4222532196,
				"y": 1.6322245925,
				"z": 0.1984477129,
				"element": "C" 
			},
			{
				"x": 2.9757241053,
				"y": 1.2769091272,
				"z": -1.0354732301,
				"element": "C" 
			},
			{
				"x": 2.33168671,
				"y": 0.3139726182,
				"z": -1.798115084,
				"element": "C" 
			},
			{
				"x": -0.5356044266,
				"y": -0.5917516554,
				"z": 0.4305191501,
				"element": "N" 
			},
			{
				"x": -1.2386675032,
				"y": 0.001394567,
				"z": 1.568315534,
				"element": "C" 
			},
			{
				"x": -2.6135251054,
				"y": -0.6451800033,
				"z": 1.7105299128,
				"element": "C" 
			},
			{
				"x": -2.5414960226,
				"y": -2.0431018667,
				"z": 1.9673318734,
				"element": "O" 
			},
			{
				"x": -1.385731059,
				"y": -2.6732717886,
				"z": 1.423221217,
				"element": "C" 
			},
			{
				"x": -0.8776865662,
				"y": -1.9970086517,
				"z": 0.1509015872,
				"element": "C" 
			},
			{
				"x": 0.8939572056,
				"y": 1.2974286468,
				"z": 1.6486582407,
				"element": "H" 
			},
			{
				"x": 2.90402589,
				"y": 2.3885115722,
				"z": 0.8119223741,
				"element": "H" 
			},
			{
				"x": 3.881175397,
				"y": 1.7512582596,
				"z": -1.3980806543,
				"element": "H" 
			},
			{
				"x": 2.7146502369,
				"y": 0.0367143303,
				"z": -2.7750414079,
				"element": "H" 
			},
			{
				"x": -0.6818493309,
				"y": -0.1180199693,
				"z": 2.5123261891,
				"element": "H" 
			},
			{
				"x": -1.3661360033,
				"y": 1.0761283438,
				"z": 1.3965739536,
				"element": "H" 
			},
			{
				"x": -3.1974708091,
				"y": -0.4541164071,
				"z": 0.7972311561,
				"element": "H" 
			},
			{
				"x": -3.1479869324,
				"y": -0.1914282067,
				"z": 2.5515488532,
				"element": "H" 
			},
			{
				"x": -0.5788721578,
				"y": -2.6963071324,
				"z": 2.1723968248,
				"element": "H" 
			},
			{
				"x": -1.6623281665,
				"y": -3.7086846055,
				"z": 1.1995915305,
				"element": "H" 
			},
			{
				"x": -1.62965468,
				"y": -2.0778264583,
				"z": -0.6425002558,
				"element": "H" 
			},
			{
				"x": 0.0127775369,
				"y": -2.529454189,
				"z": -0.1926286309,
				"element": "H" 
			}
		],
		 "valence_orbital": [ 
			{
				"type": "occ",
				"energy": -0.31079,
				"method": "rhf"
			},
			{
				"type": "occ",
				"energy": -0.29867,
				"method": "rhf"
			},
			{
				"type": "occ",
				"energy": -0.2602,
				"method": "rhf"
			},
			{
				"type": "occ",
				"energy": -0.25765,
				"method": "rhf"
			},
			{
				"type": "occ",
				"energy": -0.20961,
				"method": "rhf"
			},
			{
				"type": "unocc",
				"energy": -0.04138,
				"method": "rhf"
			},
			{
				"type": "unocc",
				"energy": -0.00584,
				"method": "rhf"
			},
			{
				"type": "unocc",
				"energy": 0.0387,
				"method": "rhf"
			},
			{
				"type": "unocc",
				"energy": 0.07575,
				"method": "rhf"
			},
			{
				"type": "unocc",
				"energy": 0.0815,
				"method": "rhf"
			}
		],
		"cosmo_sigma_profile": { 
			"-0.025": 0.0,
			"-0.024": 0.0,
			"-0.023": 0.0,
			"-0.022": 0.0,
			"-0.021": 0.0,
			"-0.02": 0.0,
			"-0.019": 0.0,
			"-0.018": 0.0,
			"-0.017": 0.0,
			"-0.016": 0.0,
			"-0.015": 0.0,
			"-0.014": 0.0,
			"-0.013": 0.0,
			"-0.012": 0.0,
			"-0.011": 0.0,
			"-0.01": 0.0,
			"-0.009": 0.0,
			"-0.008": 0.167668595235,
			"-0.007": 3.41661435705,
			"-0.006": 15.7019000317,
			"-0.005": 26.7330738659,
			"-0.004": 31.6849325309,
			"-0.003": 21.4464543655,
			"-0.002": 13.875852735,
			"-0.001": 11.9609688149,
			"0.0": 11.8327107273,
			"0.001": 14.0485696708,
			"0.002": 12.3365656185,
			"0.003": 13.0669687553,
			"0.004": 12.8694314847,
			"0.005": 6.83346631981,
			"0.006": 2.76264711543,
			"0.007": 3.70221838442,
			"0.008": 3.96693804106,
			"0.009": 3.54427969911,
			"0.01": 4.34509738175,
			"0.011": 3.9423901895,
			"0.012": 4.4106147819,
			"0.013": 3.92647551027,
			"0.014": 1.4248054172,
			"0.015": 0.0,
			"0.016": 0.0,
			"0.017": 0.0,
			"0.018": 0.0,
			"0.019": 0.0,
			"0.02": 0.0,
			"0.021": 0.0,
			"0.022": 0.0,
			"0.023": 0.0,
			"0.024": 0.0,
			"0.025": 0.0
		}
	}
}
