{
	 "smiles": "COC1=CC(=CC=C1)C(=O)CC#N", 
	 "Tm": 358.15, 
	 "num_atms": 22, 
	 "gaussian": { 
		 "optdone": 1, 
		 "sigma_profile": "yes", 
		 "theory": "DFT", 
		 "functional": "B3LYP", 
		 "basiset": "6-31G**", 
		 "properties": { 
			 "R2extent": 4707.4105, 
			 "electric_dipole_moment_norm": 6.61285798653, 
			 "electric_quadrupole_moment_norm": 26.9266498219, 
			 "total_energy": -591.650679501, 
			 "HOMO_LUMO_gap": 0.16816, 
			 "cosmo_polarized_energy": -18.02, 
			 "cosmo_cavitation_energy": 27.7, 
			 "cosmo_dispersion_energy": -19.37, 
			 "cosmo_repulsion_energy": 1.53, 
			 "cosmo_total_nonelectrostatic_energy": 9.86, 
			 "SMD_solvation_energy": 7.54 
		},
		"coords": [
			{
				"x": 1.5008779643,
				"y": 0.2637583466,
				"z": 3.1175292932,
				"element": "C" 
			},
			{
				"x": 2.6302358532,
				"y": 0.6644207992,
				"z": 2.3566331834,
				"element": "O" 
			},
			{
				"x": 2.8171013142,
				"y": 0.1099919724,
				"z": 1.1263937396,
				"element": "C" 
			},
			{
				"x": 1.9705248593,
				"y": -0.8382271847,
				"z": 0.5445428204,
				"element": "C" 
			},
			{
				"x": 2.2627716335,
				"y": -1.3437344775,
				"z": -0.7363340298,
				"element": "C" 
			},
			{
				"x": 3.3971802422,
				"y": -0.8986859739,
				"z": -1.4253168301,
				"element": "C" 
			},
			{
				"x": 4.2354053883,
				"y": 0.0475648465,
				"z": -0.836054733,
				"element": "C" 
			},
			{
				"x": 3.953045108,
				"y": 0.5514445971,
				"z": 0.428928405,
				"element": "C" 
			},
			{
				"x": 1.3992405965,
				"y": -2.3580793518,
				"z": -1.4139778792,
				"element": "C" 
			},
			{
				"x": 1.655844857,
				"y": -2.7920061836,
				"z": -2.5202519504,
				"element": "O" 
			},
			{
				"x": 0.1467761977,
				"y": -2.8493132405,
				"z": -0.6542302006,
				"element": "C" 
			},
			{
				"x": -0.6265886244,
				"y": -3.8364490149,
				"z": -1.4031379186,
				"element": "C" 
			},
			{
				"x": -1.2673695078,
				"y": -4.6218985658,
				"z": -1.9659856382,
				"element": "N" 
			},
			{
				"x": 0.5608378771,
				"y": 0.5039085006,
				"z": 2.6040075194,
				"element": "H" 
			},
			{
				"x": 1.5251032788,
				"y": -0.8102579251,
				"z": 3.3432624467,
				"element": "H" 
			},
			{
				"x": 1.5521155009,
				"y": 0.8261974427,
				"z": 4.0505541482,
				"element": "H" 
			},
			{
				"x": 1.0949229721,
				"y": -1.1788347655,
				"z": 1.0816424811,
				"element": "H" 
			},
			{
				"x": 3.5994747343,
				"y": -1.303728221,
				"z": -2.4100168782,
				"element": "H" 
			},
			{
				"x": 5.1166431239,
				"y": 0.3963142319,
				"z": -1.3659343151,
				"element": "H" 
			},
			{
				"x": 4.5936046245,
				"y": 1.2879196055,
				"z": 0.9029692014,
				"element": "H" 
			},
			{
				"x": 0.4492332802,
				"y": -3.2846492826,
				"z": 0.3061762452,
				"element": "H" 
			},
			{
				"x": -0.4972812738,
				"y": -1.9930561557,
				"z": -0.4188991104,
				"element": "H" 
			}
		],
		 "valence_orbital": [ 
			{
				"type": "occ",
				"energy": -0.3281,
				"method": "rhf"
			},
			{
				"type": "occ",
				"energy": -0.32599,
				"method": "rhf"
			},
			{
				"type": "occ",
				"energy": -0.27647,
				"method": "rhf"
			},
			{
				"type": "occ",
				"energy": -0.27153,
				"method": "rhf"
			},
			{
				"type": "occ",
				"energy": -0.24176,
				"method": "rhf"
			},
			{
				"type": "unocc",
				"energy": -0.0736,
				"method": "rhf"
			},
			{
				"type": "unocc",
				"energy": -0.01226,
				"method": "rhf"
			},
			{
				"type": "unocc",
				"energy": 0.02281,
				"method": "rhf"
			},
			{
				"type": "unocc",
				"energy": 0.03034,
				"method": "rhf"
			},
			{
				"type": "unocc",
				"energy": 0.04137,
				"method": "rhf"
			}
		],
		"cosmo_sigma_profile": { 
			"-0.025": 0.0,
			"-0.024": 0.0,
			"-0.023": 0.0,
			"-0.022": 0.0,
			"-0.021": 0.0,
			"-0.02": 0.0,
			"-0.019": 0.0,
			"-0.018": 0.0,
			"-0.017": 0.0,
			"-0.016": 0.0,
			"-0.015": 0.0,
			"-0.014": 0.0,
			"-0.013": 0.0,
			"-0.012": 0.0,
			"-0.011": 1.32046819731,
			"-0.01": 8.802741491,
			"-0.009": 6.68408404024,
			"-0.008": 4.84159078817,
			"-0.007": 7.31547178938,
			"-0.006": 15.0937757253,
			"-0.005": 15.945625665,
			"-0.004": 16.7811058386,
			"-0.003": 14.3367660863,
			"-0.002": 8.98906478189,
			"-0.001": 9.35964006054,
			"0.0": 10.0896556941,
			"0.001": 10.8906946078,
			"0.002": 15.720686394,
			"0.003": 16.6925213487,
			"0.004": 9.8229877582,
			"0.005": 4.84698046936,
			"0.006": 4.78137188459,
			"0.007": 6.22111287576,
			"0.008": 7.92855403715,
			"0.009": 7.99548779804,
			"0.01": 7.76012864319,
			"0.011": 6.13261133218,
			"0.012": 2.56773527984,
			"0.013": 1.42432677891,
			"0.014": 0.0618512323637,
			"0.015": 0.0,
			"0.016": 0.0,
			"0.017": 0.0,
			"0.018": 0.0,
			"0.019": 0.0,
			"0.02": 0.0,
			"0.021": 0.0,
			"0.022": 0.0,
			"0.023": 0.0,
			"0.024": 0.0,
			"0.025": 0.0
		}
	}
}
