{
	 "smiles": "CC(C)(C)N(NC(=O)C1=CC=CC=C1)C(=O)C1=CC=C(C=C1)C(F)(F)F", 
	 "Tm": 501.15, 
	 "num_atms": 45, 
	 "gaussian": { 
		 "optdone": 1, 
		 "sigma_profile": "yes", 
		 "theory": "DFT", 
		 "functional": "B3LYP", 
		 "basiset": "6-31G**", 
		 "properties": { 
			 "R2extent": 13328.602, 
			 "electric_dipole_moment_norm": 3.95916507486, 
			 "electric_quadrupole_moment_norm": 11.3671690996, 
			 "total_energy": -1294.95110825, 
			 "HOMO_LUMO_gap": 0.19373, 
			 "cosmo_polarized_energy": -14.96, 
			 "cosmo_cavitation_energy": 49.75, 
			 "cosmo_dispersion_energy": -32.42, 
			 "cosmo_repulsion_energy": 2.37, 
			 "cosmo_total_nonelectrostatic_energy": 19.7, 
			 "SMD_solvation_energy": 11.03 
		},
		"coords": [
			{
				"x": 2.4265458387,
				"y": 1.0830084568,
				"z": -1.6370333842,
				"element": "C" 
			},
			{
				"x": 1.3412451197,
				"y": -0.0128126005,
				"z": -1.590898513,
				"element": "C" 
			},
			{
				"x": 2.0229397148,
				"y": -1.3692627077,
				"z": -1.3628540708,
				"element": "C" 
			},
			{
				"x": 0.5683777083,
				"y": -0.0601126726,
				"z": -2.9189801125,
				"element": "C" 
			},
			{
				"x": 0.3543800814,
				"y": 0.3320176168,
				"z": -0.49510512,
				"element": "N" 
			},
			{
				"x": -0.2474969784,
				"y": 1.5880752106,
				"z": -0.6965243473,
				"element": "N" 
			},
			{
				"x": -1.626707027,
				"y": 1.5731417525,
				"z": -0.930591713,
				"element": "C" 
			},
			{
				"x": -2.2413853944,
				"y": 0.549729265,
				"z": -1.1868557409,
				"element": "O" 
			},
			{
				"x": -2.2842652333,
				"y": 2.9202299143,
				"z": -0.889228681,
				"element": "C" 
			},
			{
				"x": -1.5777637705,
				"y": 4.1282953062,
				"z": -0.9878063855,
				"element": "C" 
			},
			{
				"x": -2.2589555801,
				"y": 5.3445973157,
				"z": -0.9404053536,
				"element": "C" 
			},
			{
				"x": -3.6473873009,
				"y": 5.3643604497,
				"z": -0.795142685,
				"element": "C" 
			},
			{
				"x": -4.3570441449,
				"y": 4.1635410993,
				"z": -0.7077037198,
				"element": "C" 
			},
			{
				"x": -3.6800012124,
				"y": 2.9480318305,
				"z": -0.7604108438,
				"element": "C" 
			},
			{
				"x": 0.5084105688,
				"y": 0.0528524188,
				"z": 0.8728079251,
				"element": "C" 
			},
			{
				"x": 0.4185331535,
				"y": 0.9413280378,
				"z": 1.7143073901,
				"element": "O" 
			},
			{
				"x": 0.6023313374,
				"y": -1.3774379308,
				"z": 1.301059027,
				"element": "C" 
			},
			{
				"x": 1.4152461383,
				"y": -1.7203339265,
				"z": 2.3887594876,
				"element": "C" 
			},
			{
				"x": 1.4259524753,
				"y": -3.0265418067,
				"z": 2.8673294388,
				"element": "C" 
			},
			{
				"x": 0.5926051437,
				"y": -3.9871150281,
				"z": 2.2838269218,
				"element": "C" 
			},
			{
				"x": -0.2526404195,
				"y": -3.6400052298,
				"z": 1.226685672,
				"element": "C" 
			},
			{
				"x": -0.2454942205,
				"y": -2.3372797749,
				"z": 0.7322776276,
				"element": "C" 
			},
			{
				"x": 0.6404767802,
				"y": -5.4117386667,
				"z": 2.7696304539,
				"element": "C" 
			},
			{
				"x": -0.5382127398,
				"y": -6.0459811872,
				"z": 2.5896974332,
				"element": "F" 
			},
			{
				"x": 0.9478191612,
				"y": -5.4855941813,
				"z": 4.0831136485,
				"element": "F" 
			},
			{
				"x": 1.5783849206,
				"y": -6.1281513399,
				"z": 2.1061692564,
				"element": "F" 
			},
			{
				"x": 3.1288805559,
				"y": 0.8804941678,
				"z": -2.4516986456,
				"element": "H" 
			},
			{
				"x": 2.9939598184,
				"y": 1.1141125838,
				"z": -0.7005947456,
				"element": "H" 
			},
			{
				"x": 1.985140729,
				"y": 2.0672916945,
				"z": -1.8105727364,
				"element": "H" 
			},
			{
				"x": 2.5965175859,
				"y": -1.4038688102,
				"z": -0.4336159087,
				"element": "H" 
			},
			{
				"x": 1.3116887283,
				"y": -2.1963816095,
				"z": -1.3609243366,
				"element": "H" 
			},
			{
				"x": 2.7230506825,
				"y": -1.5300621486,
				"z": -2.1879632104,
				"element": "H" 
			},
			{
				"x": -0.2420913935,
				"y": -0.7908658695,
				"z": -2.8688886417,
				"element": "H" 
			},
			{
				"x": 1.2485835091,
				"y": -0.3397172461,
				"z": -3.7296019567,
				"element": "H" 
			},
			{
				"x": 0.1357111422,
				"y": 0.9126073661,
				"z": -3.1619072361,
				"element": "H" 
			},
			{
				"x": 0.0708089988,
				"y": 2.274853819,
				"z": -0.0180391556,
				"element": "H" 
			},
			{
				"x": -0.5018305624,
				"y": 4.1245343588,
				"z": -1.1314616195,
				"element": "H" 
			},
			{
				"x": -1.7063273307,
				"y": 6.2757241707,
				"z": -1.0242528001,
				"element": "H" 
			},
			{
				"x": -4.1756311848,
				"y": 6.3127314511,
				"z": -0.7566320337,
				"element": "H" 
			},
			{
				"x": -5.4376661044,
				"y": 4.1765863966,
				"z": -0.6001351385,
				"element": "H" 
			},
			{
				"x": -4.2099956712,
				"y": 2.0033892722,
				"z": -0.7036065474,
				"element": "H" 
			},
			{
				"x": 2.0287034686,
				"y": -0.955952586,
				"z": 2.8541722229,
				"element": "H" 
			},
			{
				"x": 2.0616992862,
				"y": -3.3001553565,
				"z": 3.7022871782,
				"element": "H" 
			},
			{
				"x": -0.9204381582,
				"y": -4.3824172749,
				"z": 0.8035828563,
				"element": "H" 
			},
			{
				"x": -0.9141582201,
				"y": -2.0409460004,
				"z": -0.0696711562,
				"element": "H" 
			}
		],
		 "valence_orbital": [ 
			{
				"type": "occ",
				"energy": -0.26803,
				"method": "rhf"
			},
			{
				"type": "occ",
				"energy": -0.26257,
				"method": "rhf"
			},
			{
				"type": "occ",
				"energy": -0.26221,
				"method": "rhf"
			},
			{
				"type": "occ",
				"energy": -0.25536,
				"method": "rhf"
			},
			{
				"type": "occ",
				"energy": -0.25106,
				"method": "rhf"
			},
			{
				"type": "unocc",
				"energy": -0.05733,
				"method": "rhf"
			},
			{
				"type": "unocc",
				"energy": -0.04404,
				"method": "rhf"
			},
			{
				"type": "unocc",
				"energy": -0.02286,
				"method": "rhf"
			},
			{
				"type": "unocc",
				"energy": -0.01183,
				"method": "rhf"
			},
			{
				"type": "unocc",
				"energy": 0.01269,
				"method": "rhf"
			}
		],
		"cosmo_sigma_profile": { 
			"-0.025": 0.0,
			"-0.024": 0.0,
			"-0.023": 0.0,
			"-0.022": 0.0,
			"-0.021": 0.0,
			"-0.02": 0.0,
			"-0.019": 0.0,
			"-0.018": 0.0,
			"-0.017": 0.0,
			"-0.016": 0.0,
			"-0.015": 0.0,
			"-0.014": 0.0,
			"-0.013": 0.0,
			"-0.012": 0.140682623767,
			"-0.011": 0.796445112318,
			"-0.01": 0.703234645719,
			"-0.009": 1.00787853291,
			"-0.008": 2.68168939647,
			"-0.007": 7.66934916364,
			"-0.006": 17.9319731367,
			"-0.005": 21.9671256226,
			"-0.004": 30.0692397284,
			"-0.003": 31.3523650492,
			"-0.002": 31.6209554534,
			"-0.001": 33.7017141838,
			"0.0": 46.006454729,
			"0.001": 36.5364846761,
			"0.002": 38.7129326924,
			"0.003": 38.5117122728,
			"0.004": 17.892799948,
			"0.005": 6.50845496903,
			"0.006": 4.09239806363,
			"0.007": 4.17503506014,
			"0.008": 3.89832755772,
			"0.009": 3.03809318236,
			"0.01": 3.88856019973,
			"0.011": 4.31022644634,
			"0.012": 5.42818318206,
			"0.013": 2.41546909742,
			"0.014": 0.0416083923122,
			"0.015": 0.0,
			"0.016": 0.0,
			"0.017": 0.0,
			"0.018": 0.0,
			"0.019": 0.0,
			"0.02": 0.0,
			"0.021": 0.0,
			"0.022": 0.0,
			"0.023": 0.0,
			"0.024": 0.0,
			"0.025": 0.0
		}
	}
}
