{
	 "smiles": "CC(C)N(C)C(=O)C1CCN(CC1)C(=O)CCl", 
	 "Tm": 384.15, 
	 "num_atms": 38, 
	 "gaussian": { 
		 "optdone": 1, 
		 "sigma_profile": "yes", 
		 "theory": "DFT", 
		 "functional": "B3LYP", 
		 "basiset": "6-31G**", 
		 "properties": { 
			 "R2extent": 6698.9713, 
			 "electric_dipole_moment_norm": 6.47428620467, 
			 "electric_quadrupole_moment_norm": 16.2191803156, 
			 "total_energy": -1190.10296769, 
			 "HOMO_LUMO_gap": 0.22371, 
			 "cosmo_polarized_energy": -17.64, 
			 "cosmo_cavitation_energy": 39.16, 
			 "cosmo_dispersion_energy": -27.2, 
			 "cosmo_repulsion_energy": 2.11, 
			 "cosmo_total_nonelectrostatic_energy": 14.08, 
			 "SMD_solvation_energy": 6.61 
		},
		"coords": [
			{
				"x": 2.1295667276,
				"y": 0.1802293134,
				"z": -2.7031939888,
				"element": "C" 
			},
			{
				"x": 1.2148244691,
				"y": 1.4097623206,
				"z": -2.8286107141,
				"element": "C" 
			},
			{
				"x": -0.1112992908,
				"y": 1.1207963626,
				"z": -3.5517020708,
				"element": "C" 
			},
			{
				"x": 1.0487521014,
				"y": 2.1697557362,
				"z": -1.5650836033,
				"element": "N" 
			},
			{
				"x": 1.581246737,
				"y": 3.5340349036,
				"z": -1.5964859233,
				"element": "C" 
			},
			{
				"x": 0.4182034511,
				"y": 1.7715861313,
				"z": -0.4088989441,
				"element": "C" 
			},
			{
				"x": 0.3059539128,
				"y": 2.5308588715,
				"z": 0.5566452434,
				"element": "O" 
			},
			{
				"x": -0.1192224756,
				"y": 0.3432260058,
				"z": -0.2688566311,
				"element": "C" 
			},
			{
				"x": 0.7660005532,
				"y": -0.438606519,
				"z": 0.7513153662,
				"element": "C" 
			},
			{
				"x": 0.2193360649,
				"y": -0.3551067152,
				"z": 2.1754864508,
				"element": "C" 
			},
			{
				"x": -1.1279478044,
				"y": -0.9506378507,
				"z": 2.2387983584,
				"element": "N" 
			},
			{
				"x": -1.9605529835,
				"y": -0.8575076523,
				"z": 1.0312399951,
				"element": "C" 
			},
			{
				"x": -1.5848376759,
				"y": 0.3908409024,
				"z": 0.2294784216,
				"element": "C" 
			},
			{
				"x": -1.4833957482,
				"y": -1.5872033387,
				"z": 3.3915352103,
				"element": "C" 
			},
			{
				"x": -0.7615598615,
				"y": -1.6233610356,
				"z": 4.3850696495,
				"element": "O" 
			},
			{
				"x": -2.8577547712,
				"y": -2.2583043092,
				"z": 3.462763253,
				"element": "C" 
			},
			{
				"x": -3.0106253955,
				"y": -3.708492847,
				"z": 2.3721889294,
				"element": "Cl" 
			},
			{
				"x": 3.0636777074,
				"y": 0.4477535802,
				"z": -2.2003939358,
				"element": "H" 
			},
			{
				"x": 1.6699362722,
				"y": -0.6414610834,
				"z": -2.148996152,
				"element": "H" 
			},
			{
				"x": 2.3774237593,
				"y": -0.1959138806,
				"z": -3.7012977837,
				"element": "H" 
			},
			{
				"x": 1.7545806423,
				"y": 2.1123741403,
				"z": -3.4713944537,
				"element": "H" 
			},
			{
				"x": -0.7042897282,
				"y": 2.0356084069,
				"z": -3.6439811276,
				"element": "H" 
			},
			{
				"x": -0.7217746147,
				"y": 0.3726406274,
				"z": -3.0393019752,
				"element": "H" 
			},
			{
				"x": 0.091318695,
				"y": 0.7439949846,
				"z": -4.5597233103,
				"element": "H" 
			},
			{
				"x": 1.408319898,
				"y": 3.9947556974,
				"z": -0.6264682776,
				"element": "H" 
			},
			{
				"x": 1.0819925109,
				"y": 4.1269968406,
				"z": -2.3726295385,
				"element": "H" 
			},
			{
				"x": 2.6568227491,
				"y": 3.5202947332,
				"z": -1.8085816127,
				"element": "H" 
			},
			{
				"x": -0.0903152037,
				"y": -0.1901836386,
				"z": -1.21723331,
				"element": "H" 
			},
			{
				"x": 0.8150100175,
				"y": -1.4917227599,
				"z": 0.4504032101,
				"element": "H" 
			},
			{
				"x": 1.7931297931,
				"y": -0.0609559962,
				"z": 0.7419855021,
				"element": "H" 
			},
			{
				"x": 0.1890976509,
				"y": 0.6913772185,
				"z": 2.4994933736,
				"element": "H" 
			},
			{
				"x": 0.8482376699,
				"y": -0.9031190313,
				"z": 2.8786133193,
				"element": "H" 
			},
			{
				"x": -3.014229884,
				"y": -0.8001546715,
				"z": 1.3152785397,
				"element": "H" 
			},
			{
				"x": -1.8501021446,
				"y": -1.7596994695,
				"z": 0.4140214493,
				"element": "H" 
			},
			{
				"x": -1.7108509281,
				"y": 1.2752677059,
				"z": 0.8598905785,
				"element": "H" 
			},
			{
				"x": -2.2714624634,
				"y": 0.4904558546,
				"z": -0.6185839653,
				"element": "H" 
			},
			{
				"x": -2.9773272398,
				"y": -2.6195152106,
				"z": 4.4811096383,
				"element": "H" 
			},
			{
				"x": -3.6770831696,
				"y": -1.5843643279,
				"z": 3.2053008291,
				"element": "H" 
			}
		],
		 "valence_orbital": [ 
			{
				"type": "occ",
				"energy": -0.29867,
				"method": "rhf"
			},
			{
				"type": "occ",
				"energy": -0.2485,
				"method": "rhf"
			},
			{
				"type": "occ",
				"energy": -0.24531,
				"method": "rhf"
			},
			{
				"type": "occ",
				"energy": -0.24294,
				"method": "rhf"
			},
			{
				"type": "occ",
				"energy": -0.23385,
				"method": "rhf"
			},
			{
				"type": "unocc",
				"energy": -0.01014,
				"method": "rhf"
			},
			{
				"type": "unocc",
				"energy": 0.02042,
				"method": "rhf"
			},
			{
				"type": "unocc",
				"energy": 0.05436,
				"method": "rhf"
			},
			{
				"type": "unocc",
				"energy": 0.06184,
				"method": "rhf"
			},
			{
				"type": "unocc",
				"energy": 0.08024,
				"method": "rhf"
			}
		],
		"cosmo_sigma_profile": { 
			"-0.025": 0.0,
			"-0.024": 0.0,
			"-0.023": 0.0,
			"-0.022": 0.0,
			"-0.021": 0.0,
			"-0.02": 0.0,
			"-0.019": 0.0,
			"-0.018": 0.0,
			"-0.017": 0.0,
			"-0.016": 0.0,
			"-0.015": 0.0,
			"-0.014": 0.0,
			"-0.013": 0.0,
			"-0.012": 0.0,
			"-0.011": 0.0,
			"-0.01": 0.81866447887,
			"-0.009": 3.07956531565,
			"-0.008": 2.99941829838,
			"-0.007": 4.00128639255,
			"-0.006": 5.94933539175,
			"-0.005": 15.7193284346,
			"-0.004": 38.7417576011,
			"-0.003": 39.1482352728,
			"-0.002": 35.4336396401,
			"-0.001": 33.6131759462,
			"0.0": 27.7249882467,
			"0.001": 19.8509323108,
			"0.002": 10.5495500283,
			"0.003": 7.79744117302,
			"0.004": 10.2244270571,
			"0.005": 9.4309070432,
			"0.006": 9.4061284794,
			"0.007": 3.65587240268,
			"0.008": 2.94999793303,
			"0.009": 1.9351334716,
			"0.01": 3.51414430308,
			"0.011": 2.35294889388,
			"0.012": 3.78042484199,
			"0.013": 6.35641145712,
			"0.014": 7.12496777052,
			"0.015": 1.01308644258,
			"0.016": 0.0,
			"0.017": 0.0,
			"0.018": 0.0,
			"0.019": 0.0,
			"0.02": 0.0,
			"0.021": 0.0,
			"0.022": 0.0,
			"0.023": 0.0,
			"0.024": 0.0,
			"0.025": 0.0
		}
	}
}
