{
	 "smiles": "CC(OC1=C(Cl)C=C(Cl)C=C1)C(O)=O", 
	 "Tm": 395.15, 
	 "num_atms": 22, 
	 "gaussian": { 
		 "optdone": 1, 
		 "sigma_profile": "yes", 
		 "theory": "DFT", 
		 "functional": "B3LYP", 
		 "basiset": "6-31G**", 
		 "properties": { 
			 "R2extent": 6377.5292, 
			 "electric_dipole_moment_norm": 4.3235611225, 
			 "electric_quadrupole_moment_norm": 7.35891002935, 
			 "total_energy": -1493.83391942, 
			 "HOMO_LUMO_gap": 0.203, 
			 "cosmo_polarized_energy": -15.01, 
			 "cosmo_cavitation_energy": 30.58, 
			 "cosmo_dispersion_energy": -21.96, 
			 "cosmo_repulsion_energy": 1.76, 
			 "cosmo_total_nonelectrostatic_energy": 10.38, 
			 "SMD_solvation_energy": 6.29 
		},
		"coords": [
			{
				"x": 1.1395093659,
				"y": -1.1857974189,
				"z": 0.145187598,
				"element": "C" 
			},
			{
				"x": -0.3653277866,
				"y": -0.9851283943,
				"z": 0.3665786794,
				"element": "C" 
			},
			{
				"x": -0.6307228829,
				"y": -0.3226176748,
				"z": 1.594659918,
				"element": "O" 
			},
			{
				"x": -0.5449689791,
				"y": 1.0308600328,
				"z": 1.6723141917,
				"element": "C" 
			},
			{
				"x": -0.8060213643,
				"y": 1.6023393344,
				"z": 2.9348659176,
				"element": "C" 
			},
			{
				"x": -1.194806505,
				"y": 0.5675620269,
				"z": 4.2865204364,
				"element": "Cl" 
			},
			{
				"x": -0.7627832028,
				"y": 2.9795021698,
				"z": 3.1246666585,
				"element": "C" 
			},
			{
				"x": -0.4536546204,
				"y": 3.8091671935,
				"z": 2.0465815894,
				"element": "C" 
			},
			{
				"x": -0.3971806414,
				"y": 5.5480616895,
				"z": 2.2872524532,
				"element": "Cl" 
			},
			{
				"x": -0.1880261148,
				"y": 3.2726185885,
				"z": 0.7919559126,
				"element": "C" 
			},
			{
				"x": -0.2322135779,
				"y": 1.8889979877,
				"z": 0.6104663485,
				"element": "C" 
			},
			{
				"x": -1.0888318409,
				"y": -2.3298817069,
				"z": 0.4413452349,
				"element": "C" 
			},
			{
				"x": -1.047809537,
				"y": -2.9328935081,
				"z": -0.7730714577,
				"element": "O" 
			},
			{
				"x": -1.6113314218,
				"y": -2.814912536,
				"z": 1.4115953183,
				"element": "O" 
			},
			{
				"x": 1.317259622,
				"y": -1.7209773266,
				"z": -0.790322337,
				"element": "H" 
			},
			{
				"x": 1.5607228664,
				"y": -1.7628528954,
				"z": 0.9728232346,
				"element": "H" 
			},
			{
				"x": 1.6516427287,
				"y": -0.2215999132,
				"z": 0.1031328949,
				"element": "H" 
			},
			{
				"x": -0.8073935666,
				"y": -0.4359555713,
				"z": -0.474529822,
				"element": "H" 
			},
			{
				"x": -0.9694679809,
				"y": 3.394774128,
				"z": 4.1034116049,
				"element": "H" 
			},
			{
				"x": 0.0554823404,
				"y": 3.9226534156,
				"z": -0.0406053444,
				"element": "H" 
			},
			{
				"x": -0.0151421432,
				"y": 1.4898972347,
				"z": -0.3727846558,
				"element": "H" 
			},
			{
				"x": -1.4985347577,
				"y": -3.7877168561,
				"z": -0.668544374,
				"element": "H" 
			}
		],
		 "valence_orbital": [ 
			{
				"type": "occ",
				"energy": -0.31221,
				"method": "rhf"
			},
			{
				"type": "occ",
				"energy": -0.30956,
				"method": "rhf"
			},
			{
				"type": "occ",
				"energy": -0.28797,
				"method": "rhf"
			},
			{
				"type": "occ",
				"energy": -0.26235,
				"method": "rhf"
			},
			{
				"type": "occ",
				"energy": -0.23016,
				"method": "rhf"
			},
			{
				"type": "unocc",
				"energy": -0.02716,
				"method": "rhf"
			},
			{
				"type": "unocc",
				"energy": -0.01324,
				"method": "rhf"
			},
			{
				"type": "unocc",
				"energy": -0.00486,
				"method": "rhf"
			},
			{
				"type": "unocc",
				"energy": 0.00968,
				"method": "rhf"
			},
			{
				"type": "unocc",
				"energy": 0.05153,
				"method": "rhf"
			}
		],
		"cosmo_sigma_profile": { 
			"-0.025": 0.0,
			"-0.024": 0.0,
			"-0.023": 0.0,
			"-0.022": 0.0,
			"-0.021": 0.0,
			"-0.02": 0.0,
			"-0.019": 0.479159814145,
			"-0.018": 0.800084542697,
			"-0.017": 1.28114354134,
			"-0.016": 0.805525998677,
			"-0.015": 0.497827552543,
			"-0.014": 0.302419279593,
			"-0.013": 0.407369514856,
			"-0.012": 1.40194792353,
			"-0.011": 1.17313036725,
			"-0.01": 1.72282309314,
			"-0.009": 3.15779858296,
			"-0.008": 7.30753205418,
			"-0.007": 7.72826135205,
			"-0.006": 8.77246257016,
			"-0.005": 12.2461782756,
			"-0.004": 12.2460399934,
			"-0.003": 13.1494673096,
			"-0.002": 16.3412619164,
			"-0.001": 18.1395526832,
			"0.0": 17.3624466328,
			"0.001": 23.5677018216,
			"0.002": 24.6943504697,
			"0.003": 16.6323598983,
			"0.004": 19.4928980242,
			"0.005": 11.2150313462,
			"0.006": 3.98715990016,
			"0.007": 3.23435014552,
			"0.008": 3.53570589361,
			"0.009": 2.67836314517,
			"0.01": 3.95812743078,
			"0.011": 5.71265199693,
			"0.012": 2.61208606886,
			"0.013": 1.71211425789,
			"0.014": 0.163942729999,
			"0.015": 0.0,
			"0.016": 0.0,
			"0.017": 0.0,
			"0.018": 0.0,
			"0.019": 0.0,
			"0.02": 0.0,
			"0.021": 0.0,
			"0.022": 0.0,
			"0.023": 0.0,
			"0.024": 0.0,
			"0.025": 0.0
		}
	}
}
