{
	 "smiles": "COC1=CC=CC(C=C[N+]([O-])=O)=C1OC", 
	 "Tm": 357.15, 
	 "num_atms": 26, 
	 "gaussian": { 
		 "optdone": 1, 
		 "sigma_profile": "yes", 
		 "theory": "DFT", 
		 "functional": "B3LYP", 
		 "basiset": "6-31G**", 
		 "properties": { 
			 "R2extent": 4384.5307, 
			 "electric_dipole_moment_norm": 6.04316839828, 
			 "electric_quadrupole_moment_norm": 24.1846604934, 
			 "total_energy": -743.189960364, 
			 "HOMO_LUMO_gap": 0.15544, 
			 "cosmo_polarized_energy": -12.02, 
			 "cosmo_cavitation_energy": 31.08, 
			 "cosmo_dispersion_energy": -21.8, 
			 "cosmo_repulsion_energy": 1.72, 
			 "cosmo_total_nonelectrostatic_energy": 11.01, 
			 "SMD_solvation_energy": 9.59 
		},
		"coords": [
			{
				"x": 2.9816274685,
				"y": -0.5594890724,
				"z": 1.2187749837,
				"element": "C" 
			},
			{
				"x": 1.9941678503,
				"y": 0.0991040109,
				"z": 2.0252516563,
				"element": "O" 
			},
			{
				"x": 0.9368972068,
				"y": 0.6337584396,
				"z": 1.3274774147,
				"element": "C" 
			},
			{
				"x": 0.8111632194,
				"y": 2.0191949033,
				"z": 1.2484782405,
				"element": "C" 
			},
			{
				"x": -0.2663127373,
				"y": 2.591850193,
				"z": 0.565134216,
				"element": "C" 
			},
			{
				"x": -1.2113501577,
				"y": 1.7812015721,
				"z": -0.0474653678,
				"element": "C" 
			},
			{
				"x": -1.1213932704,
				"y": 0.3763215185,
				"z": 0.0308988277,
				"element": "C" 
			},
			{
				"x": -2.0964710094,
				"y": -0.5200032544,
				"z": -0.5798066089,
				"element": "C" 
			},
			{
				"x": -3.212386623,
				"y": -0.1608513573,
				"z": -1.2306032512,
				"element": "C" 
			},
			{
				"x": -4.0940035463,
				"y": -1.1689159472,
				"z": -1.7896513838,
				"element": "N" 
			},
			{
				"x": -3.8149384147,
				"y": -2.3621955318,
				"z": -1.6536968708,
				"element": "O" 
			},
			{
				"x": -5.0918421829,
				"y": -0.7396830375,
				"z": -2.3776123856,
				"element": "O" 
			},
			{
				"x": -0.0362985407,
				"y": -0.1942116566,
				"z": 0.735231245,
				"element": "C" 
			},
			{
				"x": 0.0789306249,
				"y": -1.5600652454,
				"z": 0.7950431718,
				"element": "O" 
			},
			{
				"x": -0.1146498632,
				"y": -2.1396445276,
				"z": 2.0972019553,
				"element": "C" 
			},
			{
				"x": 2.5499570548,
				"y": -1.4000712796,
				"z": 0.6672950161,
				"element": "H" 
			},
			{
				"x": 3.7443909114,
				"y": -0.9229108923,
				"z": 1.9097415195,
				"element": "H" 
			},
			{
				"x": 3.437357045,
				"y": 0.1464334606,
				"z": 0.5137924426,
				"element": "H" 
			},
			{
				"x": 1.5702961203,
				"y": 2.6312010799,
				"z": 1.7249730167,
				"element": "H" 
			},
			{
				"x": -0.3538019079,
				"y": 3.6718638769,
				"z": 0.5027416357,
				"element": "H" 
			},
			{
				"x": -2.0338273834,
				"y": 2.2350372612,
				"z": -0.5902702819,
				"element": "H" 
			},
			{
				"x": -1.8972005806,
				"y": -1.5835429627,
				"z": -0.4991394232,
				"element": "H" 
			},
			{
				"x": -3.5836197391,
				"y": 0.8370619261,
				"z": -1.4146183265,
				"element": "H" 
			},
			{
				"x": -1.1318521838,
				"y": -1.9437927321,
				"z": 2.455889792,
				"element": "H" 
			},
			{
				"x": 0.6126941637,
				"y": -1.7484285959,
				"z": 2.8133686053,
				"element": "H" 
			},
			{
				"x": 0.0244664753,
				"y": -3.2144221492,
				"z": 1.9710701607,
				"element": "H" 
			}
		],
		 "valence_orbital": [ 
			{
				"type": "occ",
				"energy": -0.29577,
				"method": "rhf"
			},
			{
				"type": "occ",
				"energy": -0.28125,
				"method": "rhf"
			},
			{
				"type": "occ",
				"energy": -0.27726,
				"method": "rhf"
			},
			{
				"type": "occ",
				"energy": -0.2505,
				"method": "rhf"
			},
			{
				"type": "occ",
				"energy": -0.24825,
				"method": "rhf"
			},
			{
				"type": "unocc",
				"energy": -0.09281,
				"method": "rhf"
			},
			{
				"type": "unocc",
				"energy": -0.02153,
				"method": "rhf"
			},
			{
				"type": "unocc",
				"energy": -0.01677,
				"method": "rhf"
			},
			{
				"type": "unocc",
				"energy": 0.04867,
				"method": "rhf"
			},
			{
				"type": "unocc",
				"energy": 0.06786,
				"method": "rhf"
			}
		],
		"cosmo_sigma_profile": { 
			"-0.025": 0.0,
			"-0.024": 0.0,
			"-0.023": 0.0,
			"-0.022": 0.0,
			"-0.021": 0.0,
			"-0.02": 0.0,
			"-0.019": 0.0,
			"-0.018": 0.0,
			"-0.017": 0.0,
			"-0.016": 0.0,
			"-0.015": 0.0,
			"-0.014": 0.0,
			"-0.013": 0.0,
			"-0.012": 0.0,
			"-0.011": 0.456597610881,
			"-0.01": 1.85824748615,
			"-0.009": 1.29048142455,
			"-0.008": 2.4410853243,
			"-0.007": 4.43782787681,
			"-0.006": 10.1133284316,
			"-0.005": 16.849294766,
			"-0.004": 23.0744461444,
			"-0.003": 27.8114572068,
			"-0.002": 24.3823253457,
			"-0.001": 20.8775026191,
			"0.0": 19.057887544,
			"0.001": 16.6506574661,
			"0.002": 14.3587787246,
			"0.003": 11.9849555742,
			"0.004": 7.04174088913,
			"0.005": 5.70539582131,
			"0.006": 4.28694208479,
			"0.007": 5.18301403524,
			"0.008": 10.8299879813,
			"0.009": 9.97078257798,
			"0.01": 6.10321039522,
			"0.011": 2.96310303856,
			"0.012": 0.271530782357,
			"0.013": 0.0,
			"0.014": 0.0,
			"0.015": 0.0,
			"0.016": 0.0,
			"0.017": 0.0,
			"0.018": 0.0,
			"0.019": 0.0,
			"0.02": 0.0,
			"0.021": 0.0,
			"0.022": 0.0,
			"0.023": 0.0,
			"0.024": 0.0,
			"0.025": 0.0
		}
	}
}
