{
	 "smiles": "O=C1NCCNC1C1=CC=CS1", 
	 "Tm": 385.15, 
	 "num_atms": 22, 
	 "gaussian": { 
		 "optdone": 1, 
		 "sigma_profile": "yes", 
		 "theory": "DFT", 
		 "functional": "B3LYP", 
		 "basiset": "6-31G**", 
		 "properties": { 
			 "R2extent": 2892.0037, 
			 "electric_dipole_moment_norm": 3.77964432586, 
			 "electric_quadrupole_moment_norm": 16.6224946347, 
			 "total_energy": -893.779562966, 
			 "HOMO_LUMO_gap": 0.21056, 
			 "cosmo_polarized_energy": -14.82, 
			 "cosmo_cavitation_energy": 25.86, 
			 "cosmo_dispersion_energy": -19.92, 
			 "cosmo_repulsion_energy": 1.55, 
			 "cosmo_total_nonelectrostatic_energy": 7.49, 
			 "SMD_solvation_energy": 2.59 
		},
		"coords": [
			{
				"x": 2.7886724615,
				"y": 2.0679361448,
				"z": 0.4107120735,
				"element": "O" 
			},
			{
				"x": 1.7784960215,
				"y": 1.6483491432,
				"z": 0.9639513133,
				"element": "C" 
			},
			{
				"x": 0.6623915294,
				"y": 2.4214978409,
				"z": 1.111657617,
				"element": "N" 
			},
			{
				"x": -0.5516585327,
				"y": 2.0786239618,
				"z": 1.8460486149,
				"element": "C" 
			},
			{
				"x": -0.6663574384,
				"y": 0.5583369862,
				"z": 1.9660736381,
				"element": "C" 
			},
			{
				"x": 0.5777790974,
				"y": -0.0583482104,
				"z": 2.4231631558,
				"element": "N" 
			},
			{
				"x": 1.7025314392,
				"y": 0.208294513,
				"z": 1.5146444273,
				"element": "C" 
			},
			{
				"x": 1.7088815226,
				"y": -0.7906734867,
				"z": 0.3724147301,
				"element": "C" 
			},
			{
				"x": 2.2929190976,
				"y": -0.7030769363,
				"z": -0.8637311711,
				"element": "C" 
			},
			{
				"x": 2.1419995815,
				"y": -1.8938200333,
				"z": -1.6391021379,
				"element": "C" 
			},
			{
				"x": 1.4501160246,
				"y": -2.8706503329,
				"z": -0.9791282741,
				"element": "C" 
			},
			{
				"x": 0.9659148733,
				"y": -2.3574502658,
				"z": 0.6069875691,
				"element": "S" 
			},
			{
				"x": 0.7824564621,
				"y": 3.370093087,
				"z": 0.7789676406,
				"element": "H" 
			},
			{
				"x": -1.4205843643,
				"y": 2.489070625,
				"z": 1.3173825921,
				"element": "H" 
			},
			{
				"x": -0.5359610841,
				"y": 2.5347174854,
				"z": 2.8486995877,
				"element": "H" 
			},
			{
				"x": -0.9159117321,
				"y": 0.1265016593,
				"z": 0.9909784437,
				"element": "H" 
			},
			{
				"x": -1.4737286192,
				"y": 0.298414139,
				"z": 2.657592678,
				"element": "H" 
			},
			{
				"x": 0.8070661606,
				"y": 0.2695022873,
				"z": 3.3576550542,
				"element": "H" 
			},
			{
				"x": 2.6264355291,
				"y": 0.0789904409,
				"z": 2.0924119453,
				"element": "H" 
			},
			{
				"x": 2.8223233072,
				"y": 0.1832911324,
				"z": -1.1906336715,
				"element": "H" 
			},
			{
				"x": 2.5310599425,
				"y": -2.0098923934,
				"z": -2.6447354015,
				"element": "H" 
			},
			{
				"x": 1.1836587208,
				"y": -3.8579077874,
				"z": -1.3313104247,
				"element": "H" 
			}
		],
		 "valence_orbital": [ 
			{
				"type": "occ",
				"energy": -0.27659,
				"method": "rhf"
			},
			{
				"type": "occ",
				"energy": -0.25482,
				"method": "rhf"
			},
			{
				"type": "occ",
				"energy": -0.23891,
				"method": "rhf"
			},
			{
				"type": "occ",
				"energy": -0.22998,
				"method": "rhf"
			},
			{
				"type": "occ",
				"energy": -0.21429,
				"method": "rhf"
			},
			{
				"type": "unocc",
				"energy": -0.00373,
				"method": "rhf"
			},
			{
				"type": "unocc",
				"energy": 0.02043,
				"method": "rhf"
			},
			{
				"type": "unocc",
				"energy": 0.05062,
				"method": "rhf"
			},
			{
				"type": "unocc",
				"energy": 0.06296,
				"method": "rhf"
			},
			{
				"type": "unocc",
				"energy": 0.07577,
				"method": "rhf"
			}
		],
		"cosmo_sigma_profile": { 
			"-0.025": 0.0,
			"-0.024": 0.0,
			"-0.023": 0.0,
			"-0.022": 0.0,
			"-0.021": 0.0,
			"-0.02": 0.0,
			"-0.019": 0.0,
			"-0.018": 0.0,
			"-0.017": 0.0,
			"-0.016": 0.0,
			"-0.015": 0.0,
			"-0.014": 0.529512850886,
			"-0.013": 1.03037508059,
			"-0.012": 1.96195207188,
			"-0.011": 2.54647410818,
			"-0.01": 2.76328045217,
			"-0.009": 3.37821188735,
			"-0.008": 4.35728863631,
			"-0.007": 6.48446002523,
			"-0.006": 9.85327907827,
			"-0.005": 16.2720173978,
			"-0.004": 17.5622989072,
			"-0.003": 16.3290703632,
			"-0.002": 12.6456163913,
			"-0.001": 9.40720523434,
			"0.0": 9.27250994471,
			"0.001": 9.28080938454,
			"0.002": 10.4973778259,
			"0.003": 10.4564508456,
			"0.004": 14.1759770665,
			"0.005": 15.341788279,
			"0.006": 8.88200845598,
			"0.007": 3.60958956857,
			"0.008": 2.08824842823,
			"0.009": 2.11823947706,
			"0.01": 1.68359417179,
			"0.011": 2.50508205609,
			"0.012": 2.27248097499,
			"0.013": 3.15642941072,
			"0.014": 4.78061012569,
			"0.015": 1.03532300591,
			"0.016": 0.0,
			"0.017": 0.0,
			"0.018": 0.0,
			"0.019": 0.0,
			"0.02": 0.0,
			"0.021": 0.0,
			"0.022": 0.0,
			"0.023": 0.0,
			"0.024": 0.0,
			"0.025": 0.0
		}
	}
}
