{
	 "smiles": "CN1C=C(C=N1)[N+]([O-])=O", 
	 "Tm": 365.15, 
	 "num_atms": 14, 
	 "gaussian": { 
		 "optdone": 1, 
		 "sigma_profile": "yes", 
		 "theory": "DFT", 
		 "functional": "B3LYP", 
		 "basiset": "6-31G**", 
		 "properties": { 
			 "R2extent": 1408.8825, 
			 "electric_dipole_moment_norm": 5.43499137902, 
			 "electric_quadrupole_moment_norm": 9.29471533453, 
			 "total_energy": -470.011069066, 
			 "HOMO_LUMO_gap": 0.20254, 
			 "cosmo_polarized_energy": -12.37, 
			 "cosmo_cavitation_energy": 19.39, 
			 "cosmo_dispersion_energy": -14.26, 
			 "cosmo_repulsion_energy": 1.17, 
			 "cosmo_total_nonelectrostatic_energy": 6.3, 
			 "SMD_solvation_energy": 5.58 
		},
		"coords": [
			{
				"x": 1.2169167659,
				"y": 0.5255509438,
				"z": 2.0002848761,
				"element": "C" 
			},
			{
				"x": 0.2198364335,
				"y": -0.0220325318,
				"z": 1.094976384,
				"element": "N" 
			},
			{
				"x": 0.2339101336,
				"y": -0.0239735079,
				"z": -0.2526454879,
				"element": "C" 
			},
			{
				"x": -0.9368425468,
				"y": -0.6620815535,
				"z": -0.632555169,
				"element": "C" 
			},
			{
				"x": -1.5966425412,
				"y": -1.0116139965,
				"z": 0.5647564828,
				"element": "C" 
			},
			{
				"x": -0.886985034,
				"y": -0.6190694766,
				"z": 1.6148466176,
				"element": "N" 
			},
			{
				"x": -1.3656188716,
				"y": -0.9043596926,
				"z": -1.9738848458,
				"element": "N" 
			},
			{
				"x": -2.4403082624,
				"y": -1.4890779521,
				"z": -2.1265988485,
				"element": "O" 
			},
			{
				"x": -0.6306215475,
				"y": -0.5121269461,
				"z": -2.8854205102,
				"element": "O" 
			},
			{
				"x": 0.7621730886,
				"y": 1.2957363213,
				"z": 2.6273002629,
				"element": "H" 
			},
			{
				"x": 2.0266833744,
				"y": 0.9610196199,
				"z": 1.4137533267,
				"element": "H" 
			},
			{
				"x": 1.6113180014,
				"y": -0.2685321729,
				"z": 2.6382558794,
				"element": "H" 
			},
			{
				"x": 1.0282961834,
				"y": 0.4029725445,
				"z": -0.8443690197,
				"element": "H" 
			},
			{
				"x": -2.5405151772,
				"y": -1.5230115996,
				"z": 0.6815000514,
				"element": "H" 
			}
		],
		 "valence_orbital": [ 
			{
				"type": "occ",
				"energy": -0.3034,
				"method": "rhf"
			},
			{
				"type": "occ",
				"energy": -0.29871,
				"method": "rhf"
			},
			{
				"type": "occ",
				"energy": -0.28597,
				"method": "rhf"
			},
			{
				"type": "occ",
				"energy": -0.2841,
				"method": "rhf"
			},
			{
				"type": "occ",
				"energy": -0.27895,
				"method": "rhf"
			},
			{
				"type": "unocc",
				"energy": -0.07641,
				"method": "rhf"
			},
			{
				"type": "unocc",
				"energy": -0.00989,
				"method": "rhf"
			},
			{
				"type": "unocc",
				"energy": 0.07155,
				"method": "rhf"
			},
			{
				"type": "unocc",
				"energy": 0.07267,
				"method": "rhf"
			},
			{
				"type": "unocc",
				"energy": 0.09947,
				"method": "rhf"
			}
		],
		"cosmo_sigma_profile": { 
			"-0.025": 0.0,
			"-0.024": 0.0,
			"-0.023": 0.0,
			"-0.022": 0.0,
			"-0.021": 0.0,
			"-0.02": 0.0,
			"-0.019": 0.0,
			"-0.018": 0.0,
			"-0.017": 0.0,
			"-0.016": 0.0,
			"-0.015": 0.0,
			"-0.014": 0.0,
			"-0.013": 0.0,
			"-0.012": 0.545862276148,
			"-0.011": 2.59423996021,
			"-0.01": 2.3078647436,
			"-0.009": 3.29049778424,
			"-0.008": 4.22782061938,
			"-0.007": 8.8230528696,
			"-0.006": 8.51967654286,
			"-0.005": 10.0430375152,
			"-0.004": 14.3922521308,
			"-0.003": 10.3051347262,
			"-0.002": 8.19079108456,
			"-0.001": 11.2872992367,
			"0.0": 9.3604706743,
			"0.001": 5.4999196131,
			"0.002": 4.34620727593,
			"0.003": 4.4912964898,
			"0.004": 2.70092186617,
			"0.005": 5.47283695682,
			"0.006": 4.31953728805,
			"0.007": 6.09626621013,
			"0.008": 12.0810179289,
			"0.009": 6.64124346945,
			"0.01": 4.68323440039,
			"0.011": 2.65621852936,
			"0.012": 0.855539731175,
			"0.013": 0.898068898012,
			"0.014": 0.728063345295,
			"0.015": 0.0235475066575,
			"0.016": 0.0,
			"0.017": 0.0,
			"0.018": 0.0,
			"0.019": 0.0,
			"0.02": 0.0,
			"0.021": 0.0,
			"0.022": 0.0,
			"0.023": 0.0,
			"0.024": 0.0,
			"0.025": 0.0
		}
	}
}
