{
	 "smiles": "C1CN=C(NC2=NC=CS2)N1", 
	 "Tm": 514.15, 
	 "num_atms": 19, 
	 "gaussian": { 
		 "optdone": 1, 
		 "sigma_profile": "yes", 
		 "theory": "DFT", 
		 "functional": "B3LYP", 
		 "basiset": "6-31G**", 
		 "properties": { 
			 "R2extent": 3016.6312, 
			 "electric_dipole_moment_norm": 2.12142470524, 
			 "electric_quadrupole_moment_norm": 9.36612652328, 
			 "total_energy": -850.637113257, 
			 "HOMO_LUMO_gap": 0.17974, 
			 "cosmo_polarized_energy": -10.82, 
			 "cosmo_cavitation_energy": 24.1, 
			 "cosmo_dispersion_energy": -19.24, 
			 "cosmo_repulsion_energy": 1.5, 
			 "cosmo_total_nonelectrostatic_energy": 6.37, 
			 "SMD_solvation_energy": -1.54 
		},
		"coords": [
			{
				"x": 0.7154788447,
				"y": 1.1227700914,
				"z": -2.2108443696,
				"element": "C" 
			},
			{
				"x": -0.4788483906,
				"y": 1.6697946287,
				"z": -3.044761944,
				"element": "C" 
			},
			{
				"x": -1.6816155093,
				"y": 1.023915632,
				"z": -2.4927801143,
				"element": "N" 
			},
			{
				"x": -1.2978663969,
				"y": 0.521424118,
				"z": -1.3723149224,
				"element": "C" 
			},
			{
				"x": -2.2073023359,
				"y": -0.1191614416,
				"z": -0.5322292141,
				"element": "N" 
			},
			{
				"x": -1.9198468073,
				"y": -0.9125651157,
				"z": 0.5495885931,
				"element": "C" 
			},
			{
				"x": -0.7201778871,
				"y": -1.2061935688,
				"z": 0.9757096397,
				"element": "N" 
			},
			{
				"x": -0.7863617511,
				"y": -2.0152560365,
				"z": 2.0914450784,
				"element": "C" 
			},
			{
				"x": -2.0275196049,
				"y": -2.3552042417,
				"z": 2.5266584793,
				"element": "C" 
			},
			{
				"x": -3.2352446751,
				"y": -1.6167588209,
				"z": 1.4997446106,
				"element": "S" 
			},
			{
				"x": 0.0193651177,
				"y": 0.6889387684,
				"z": -0.9933714544,
				"element": "N" 
			},
			{
				"x": 1.2067062344,
				"y": 0.277173953,
				"z": -2.7151432891,
				"element": "H" 
			},
			{
				"x": 1.4728014606,
				"y": 1.8807750569,
				"z": -1.9916183744,
				"element": "H" 
			},
			{
				"x": -0.3750112881,
				"y": 1.457644189,
				"z": -4.1134316568,
				"element": "H" 
			},
			{
				"x": -0.5633044091,
				"y": 2.7605294471,
				"z": -2.9347166598,
				"element": "H" 
			},
			{
				"x": -3.1555533653,
				"y": -0.0845083196,
				"z": -0.8779793595,
				"element": "H" 
			},
			{
				"x": 0.1379389204,
				"y": -2.3399066166,
				"z": 2.5545591694,
				"element": "H" 
			},
			{
				"x": -2.3129689182,
				"y": -2.978165194,
				"z": 3.3609903755,
				"element": "H" 
			},
			{
				"x": 0.413230761,
				"y": -0.002446529,
				"z": -0.3637045876,
				"element": "H" 
			}
		],
		 "valence_orbital": [ 
			{
				"type": "occ",
				"energy": -0.29033,
				"method": "rhf"
			},
			{
				"type": "occ",
				"energy": -0.28791,
				"method": "rhf"
			},
			{
				"type": "occ",
				"energy": -0.25973,
				"method": "rhf"
			},
			{
				"type": "occ",
				"energy": -0.22899,
				"method": "rhf"
			},
			{
				"type": "occ",
				"energy": -0.20061,
				"method": "rhf"
			},
			{
				"type": "unocc",
				"energy": -0.02087,
				"method": "rhf"
			},
			{
				"type": "unocc",
				"energy": -0.00176,
				"method": "rhf"
			},
			{
				"type": "unocc",
				"energy": 0.0409,
				"method": "rhf"
			},
			{
				"type": "unocc",
				"energy": 0.08131,
				"method": "rhf"
			},
			{
				"type": "unocc",
				"energy": 0.08442,
				"method": "rhf"
			}
		],
		"cosmo_sigma_profile": { 
			"-0.025": 0.0,
			"-0.024": 0.0,
			"-0.023": 0.0,
			"-0.022": 0.0,
			"-0.021": 0.0,
			"-0.02": 0.0,
			"-0.019": 0.0,
			"-0.018": 0.0,
			"-0.017": 0.0344610291191,
			"-0.016": 0.841489197559,
			"-0.015": 1.21510298533,
			"-0.014": 0.890361334601,
			"-0.013": 0.667756736472,
			"-0.012": 1.39343578963,
			"-0.011": 0.750195721256,
			"-0.01": 0.616016449481,
			"-0.009": 2.89005913857,
			"-0.008": 4.194530551,
			"-0.007": 5.64553578243,
			"-0.006": 5.58959117749,
			"-0.005": 6.4277009617,
			"-0.004": 13.0765917661,
			"-0.003": 18.4770443202,
			"-0.002": 18.4926161612,
			"-0.001": 14.9774647943,
			"0.0": 14.2506992339,
			"0.001": 12.2814403355,
			"0.002": 15.4969857301,
			"0.003": 13.9406508997,
			"0.004": 11.9321504166,
			"0.005": 5.89685173586,
			"0.006": 5.74296332556,
			"0.007": 3.60237008425,
			"0.008": 2.69382337061,
			"0.009": 1.66109659573,
			"0.01": 1.63156200482,
			"0.011": 1.78009997151,
			"0.012": 1.01924397324,
			"0.013": 1.11425098985,
			"0.014": 1.42466293315,
			"0.015": 0.723211629772,
			"0.016": 0.878922004863,
			"0.017": 1.12529793315,
			"0.018": 1.05672785527,
			"0.019": 0.0887332251416,
			"0.02": 0.0,
			"0.021": 0.0,
			"0.022": 0.0,
			"0.023": 0.0,
			"0.024": 0.0,
			"0.025": 0.0
		}
	}
}
