{
	 "smiles": "OCCOC1=CC=C(C=C1)C#N", 
	 "Tm": 359.15, 
	 "num_atms": 21, 
	 "gaussian": { 
		 "optdone": 1, 
		 "sigma_profile": "yes", 
		 "theory": "DFT", 
		 "functional": "B3LYP", 
		 "basiset": "6-31G**", 
		 "properties": { 
			 "R2extent": 3177.9316, 
			 "electric_dipole_moment_norm": 4.44619575143, 
			 "electric_quadrupole_moment_norm": 31.4040873665, 
			 "total_energy": -553.546694975, 
			 "HOMO_LUMO_gap": 0.2003, 
			 "cosmo_polarized_energy": -14.28, 
			 "cosmo_cavitation_energy": 26.41, 
			 "cosmo_dispersion_energy": -18.82, 
			 "cosmo_repulsion_energy": 1.52, 
			 "cosmo_total_nonelectrostatic_energy": 9.12, 
			 "SMD_solvation_energy": 6.19 
		},
		"coords": [
			{
				"x": -0.5624733501,
				"y": 2.7109142712,
				"z": -2.5105143407,
				"element": "O" 
			},
			{
				"x": -0.9448293906,
				"y": 1.4261291997,
				"z": -2.9585390443,
				"element": "C" 
			},
			{
				"x": -1.2884543116,
				"y": 0.5010347771,
				"z": -1.8019894988,
				"element": "C" 
			},
			{
				"x": -0.0847322322,
				"y": 0.3549835852,
				"z": -1.038207422,
				"element": "O" 
			},
			{
				"x": -0.1021820706,
				"y": -0.377935829,
				"z": 0.1063445438,
				"element": "C" 
			},
			{
				"x": -1.2317941342,
				"y": -1.042970194,
				"z": 0.6034215593,
				"element": "C" 
			},
			{
				"x": -1.1371861867,
				"y": -1.7707555937,
				"z": 1.7871578421,
				"element": "C" 
			},
			{
				"x": 0.0758825263,
				"y": -1.8462859679,
				"z": 2.487076547,
				"element": "C" 
			},
			{
				"x": 1.2058295412,
				"y": -1.1755794294,
				"z": 1.9788343417,
				"element": "C" 
			},
			{
				"x": 1.1163098371,
				"y": -0.4505136011,
				"z": 0.802365449,
				"element": "C" 
			},
			{
				"x": 0.1650940086,
				"y": -2.5969288548,
				"z": 3.7030327173,
				"element": "C" 
			},
			{
				"x": 0.2384640595,
				"y": -3.2071038796,
				"z": 4.6913859997,
				"element": "N" 
			},
			{
				"x": 0.1852715304,
				"y": 2.5834497304,
				"z": -1.9107081511,
				"element": "H" 
			},
			{
				"x": -1.8320265195,
				"y": 1.5562033582,
				"z": -3.5866326465,
				"element": "H" 
			},
			{
				"x": -0.1624185159,
				"y": 0.9552525838,
				"z": -3.5742559694,
				"element": "H" 
			},
			{
				"x": -1.6303383729,
				"y": -0.4773749382,
				"z": -2.1662788946,
				"element": "H" 
			},
			{
				"x": -2.0732100074,
				"y": 0.9496011018,
				"z": -1.1799027541,
				"element": "H" 
			},
			{
				"x": -2.1793235847,
				"y": -1.0012169493,
				"z": 0.0808889589,
				"element": "H" 
			},
			{
				"x": -2.0104154061,
				"y": -2.2857743379,
				"z": 2.1735100887,
				"element": "H" 
			},
			{
				"x": 2.1474442059,
				"y": -1.2303042107,
				"z": 2.5147089663,
				"element": "H" 
			},
			{
				"x": 1.9773883736,
				"y": 0.0702751781,
				"z": 0.3975017076,
				"element": "H" 
			}
		],
		 "valence_orbital": [ 
			{
				"type": "occ",
				"energy": -0.32648,
				"method": "rhf"
			},
			{
				"type": "occ",
				"energy": -0.32298,
				"method": "rhf"
			},
			{
				"type": "occ",
				"energy": -0.28254,
				"method": "rhf"
			},
			{
				"type": "occ",
				"energy": -0.27987,
				"method": "rhf"
			},
			{
				"type": "occ",
				"energy": -0.2432,
				"method": "rhf"
			},
			{
				"type": "unocc",
				"energy": -0.0429,
				"method": "rhf"
			},
			{
				"type": "unocc",
				"energy": -0.02768,
				"method": "rhf"
			},
			{
				"type": "unocc",
				"energy": 0.03947,
				"method": "rhf"
			},
			{
				"type": "unocc",
				"energy": 0.06923,
				"method": "rhf"
			},
			{
				"type": "unocc",
				"energy": 0.07806,
				"method": "rhf"
			}
		],
		"cosmo_sigma_profile": { 
			"-0.025": 0.0,
			"-0.024": 0.0,
			"-0.023": 0.0,
			"-0.022": 0.0,
			"-0.021": 0.0,
			"-0.02": 0.0,
			"-0.019": 0.0,
			"-0.018": 0.0,
			"-0.017": 0.0,
			"-0.016": 0.0,
			"-0.015": 0.0,
			"-0.014": 0.246278817777,
			"-0.013": 0.794096797984,
			"-0.012": 0.534880741959,
			"-0.011": 0.682156266525,
			"-0.01": 0.647008042768,
			"-0.009": 0.739747292516,
			"-0.008": 4.10018280795,
			"-0.007": 11.0743605276,
			"-0.006": 19.3348284723,
			"-0.005": 18.5284430872,
			"-0.004": 14.6648579719,
			"-0.003": 12.4062435617,
			"-0.002": 12.1546559385,
			"-0.001": 12.3392161476,
			"0.0": 13.0224789186,
			"0.001": 14.8698737585,
			"0.002": 17.0746373646,
			"0.003": 12.8025432924,
			"0.004": 3.12476927638,
			"0.005": 4.09782016417,
			"0.006": 5.38408647046,
			"0.007": 3.64219942711,
			"0.008": 3.91041906977,
			"0.009": 5.13072727667,
			"0.01": 4.28407977548,
			"0.011": 4.12042056288,
			"0.012": 4.76995726997,
			"0.013": 3.57770580499,
			"0.014": 2.79068355854,
			"0.015": 0.206513976169,
			"0.016": 0.0,
			"0.017": 0.0,
			"0.018": 0.0,
			"0.019": 0.0,
			"0.02": 0.0,
			"0.021": 0.0,
			"0.022": 0.0,
			"0.023": 0.0,
			"0.024": 0.0,
			"0.025": 0.0
		}
	}
}
