{
	 "smiles": "CC1=NN=C(C)C(=C1)C(O)=O", 
	 "Tm": 406.15, 
	 "num_atms": 19, 
	 "gaussian": { 
		 "optdone": 1, 
		 "sigma_profile": "yes", 
		 "theory": "DFT", 
		 "functional": "B3LYP", 
		 "basiset": "6-31G**", 
		 "properties": { 
			 "R2extent": 2249.6111, 
			 "electric_dipole_moment_norm": 3.8871638517, 
			 "electric_quadrupole_moment_norm": 14.9819353182, 
			 "total_energy": -531.491105744, 
			 "HOMO_LUMO_gap": 0.15889, 
			 "cosmo_polarized_energy": -18.91, 
			 "cosmo_cavitation_energy": 23.49, 
			 "cosmo_dispersion_energy": -17.27, 
			 "cosmo_repulsion_energy": 1.4, 
			 "cosmo_total_nonelectrostatic_energy": 7.61, 
			 "SMD_solvation_energy": 3.64 
		},
		"coords": [
			{
				"x": 0.9643723203,
				"y": 2.235030076,
				"z": 0.8003262531,
				"element": "C" 
			},
			{
				"x": 0.3796772537,
				"y": 0.8837095952,
				"z": 0.4878734703,
				"element": "C" 
			},
			{
				"x": 0.580269441,
				"y": 0.4143486837,
				"z": -0.7488754253,
				"element": "N" 
			},
			{
				"x": 0.0826328674,
				"y": -0.7666508783,
				"z": -1.1139916421,
				"element": "N" 
			},
			{
				"x": -0.6385477001,
				"y": -1.5133133657,
				"z": -0.2665737864,
				"element": "C" 
			},
			{
				"x": -1.1549230305,
				"y": -2.8100883339,
				"z": -0.8266933795,
				"element": "C" 
			},
			{
				"x": -0.8680707236,
				"y": -1.0851844967,
				"z": 1.0645062952,
				"element": "C" 
			},
			{
				"x": -0.3430523175,
				"y": 0.1434370298,
				"z": 1.4355823265,
				"element": "C" 
			},
			{
				"x": -1.6929315747,
				"y": -1.8968426121,
				"z": 2.0245248077,
				"element": "C" 
			},
			{
				"x": -1.3218478014,
				"y": -1.8248600694,
				"z": 3.3299739343,
				"element": "O" 
			},
			{
				"x": -2.6440360783,
				"y": -2.5632639674,
				"z": 1.6981643025,
				"element": "O" 
			},
			{
				"x": 0.1810243886,
				"y": 2.9509165019,
				"z": 1.0733435402,
				"element": "H" 
			},
			{
				"x": 1.6661131622,
				"y": 2.1813744535,
				"z": 1.6401938747,
				"element": "H" 
			},
			{
				"x": 1.493271948,
				"y": 2.6107411548,
				"z": -0.0767175846,
				"element": "H" 
			},
			{
				"x": -2.2473536739,
				"y": -2.8073749874,
				"z": -0.8645141991,
				"element": "H" 
			},
			{
				"x": -0.7499529276,
				"y": -2.9397804802,
				"z": -1.8310315416,
				"element": "H" 
			},
			{
				"x": -0.8684177013,
				"y": -3.6621783678,
				"z": -0.2024732932,
				"element": "H" 
			},
			{
				"x": -0.509798346,
				"y": 0.5531567431,
				"z": 2.4293901141,
				"element": "H" 
			},
			{
				"x": -0.4654295064,
				"y": -1.3819766789,
				"z": 3.4125919332,
				"element": "H" 
			}
		],
		 "valence_orbital": [ 
			{
				"type": "occ",
				"energy": -0.31964,
				"method": "rhf"
			},
			{
				"type": "occ",
				"energy": -0.31714,
				"method": "rhf"
			},
			{
				"type": "occ",
				"energy": -0.29281,
				"method": "rhf"
			},
			{
				"type": "occ",
				"energy": -0.28336,
				"method": "rhf"
			},
			{
				"type": "occ",
				"energy": -0.24001,
				"method": "rhf"
			},
			{
				"type": "unocc",
				"energy": -0.08112,
				"method": "rhf"
			},
			{
				"type": "unocc",
				"energy": -0.04367,
				"method": "rhf"
			},
			{
				"type": "unocc",
				"energy": 0.01585,
				"method": "rhf"
			},
			{
				"type": "unocc",
				"energy": 0.05287,
				"method": "rhf"
			},
			{
				"type": "unocc",
				"energy": 0.09835,
				"method": "rhf"
			}
		],
		"cosmo_sigma_profile": { 
			"-0.025": 0.0,
			"-0.024": 0.0,
			"-0.023": 0.0,
			"-0.022": 0.0,
			"-0.021": 0.0,
			"-0.02": 0.0210747797624,
			"-0.019": 1.03645938366,
			"-0.018": 0.945247172159,
			"-0.017": 0.994511164977,
			"-0.016": 1.18379654579,
			"-0.015": 0.887489640913,
			"-0.014": 1.35473975395,
			"-0.013": 1.34779565615,
			"-0.012": 1.28648403393,
			"-0.011": 0.986707485763,
			"-0.01": 1.46240451292,
			"-0.009": 2.69245987083,
			"-0.008": 3.4471201443,
			"-0.007": 4.26047943465,
			"-0.006": 7.12407271955,
			"-0.005": 11.836738562,
			"-0.004": 13.1164718954,
			"-0.003": 15.5604272548,
			"-0.002": 19.8961654227,
			"-0.001": 18.964255099,
			"0.0": 10.4183837223,
			"0.001": 6.24907077978,
			"0.002": 4.89421326592,
			"0.003": 3.93130745476,
			"0.004": 4.57751878406,
			"0.005": 4.88793397988,
			"0.006": 4.04950903328,
			"0.007": 4.84450762241,
			"0.008": 4.90939743891,
			"0.009": 6.60514800579,
			"0.01": 6.40637034842,
			"0.011": 5.56639297395,
			"0.012": 3.80668133782,
			"0.013": 2.58991745589,
			"0.014": 2.10848198781,
			"0.015": 2.0001936944,
			"0.016": 0.653373438398,
			"0.017": 0.0,
			"0.018": 0.0,
			"0.019": 0.0,
			"0.02": 0.0,
			"0.021": 0.0,
			"0.022": 0.0,
			"0.023": 0.0,
			"0.024": 0.0,
			"0.025": 0.0
		}
	}
}
