{
	 "smiles": "CCCCCCCCCCOC(=O)CCCCC(=O)OCCCCCCCC", 
	 "Tm": 223.15, 
	 "num_atms": 74, 
	 "gaussian": { 
		 "optdone": 1, 
		 "sigma_profile": "yes", 
		 "theory": "DFT", 
		 "functional": "B3LYP", 
		 "basiset": "6-31G**", 
		 "properties": { 
			 "R2extent": 19434.6816, 
			 "electric_dipole_moment_norm": 3.85183100875, 
			 "electric_quadrupole_moment_norm": 28.3259338993, 
			 "total_energy": -1243.25711092, 
			 "HOMO_LUMO_gap": 0.2727, 
			 "cosmo_polarized_energy": -12.68, 
			 "cosmo_cavitation_energy": 72.78, 
			 "cosmo_dispersion_energy": -43.13, 
			 "cosmo_repulsion_energy": 3.42, 
			 "cosmo_total_nonelectrostatic_energy": 33.06, 
			 "SMD_solvation_energy": 11.55 
		},
		"coords": [
			{
				"x": -2.3463174946,
				"y": -4.9695022225,
				"z": 5.5232935894,
				"element": "C" 
			},
			{
				"x": -2.0948685394,
				"y": -3.5223741809,
				"z": 5.0823382014,
				"element": "C" 
			},
			{
				"x": -1.1703148897,
				"y": -3.3753890825,
				"z": 3.8612717258,
				"element": "C" 
			},
			{
				"x": 0.2814510664,
				"y": -3.8139378772,
				"z": 4.1068172546,
				"element": "C" 
			},
			{
				"x": 1.2098843051,
				"y": -3.676740096,
				"z": 2.8866037006,
				"element": "C" 
			},
			{
				"x": 1.4944407029,
				"y": -2.2291247536,
				"z": 2.4571169423,
				"element": "C" 
			},
			{
				"x": 2.4128746732,
				"y": -2.0881446031,
				"z": 1.2301876053,
				"element": "C" 
			},
			{
				"x": 3.8645746121,
				"y": -2.5328078654,
				"z": 1.4693597856,
				"element": "C" 
			},
			{
				"x": 4.7984769722,
				"y": -2.4240204655,
				"z": 0.2499335946,
				"element": "C" 
			},
			{
				"x": 5.2257929345,
				"y": -1.018933462,
				"z": -0.1540653402,
				"element": "C" 
			},
			{
				"x": 4.1007258823,
				"y": -0.3241152047,
				"z": -0.7409403844,
				"element": "O" 
			},
			{
				"x": 4.3528119485,
				"y": 0.9215952159,
				"z": -1.2122336518,
				"element": "C" 
			},
			{
				"x": 5.4442864314,
				"y": 1.4453511031,
				"z": -1.1561660979,
				"element": "O" 
			},
			{
				"x": 3.1019751108,
				"y": 1.5509717191,
				"z": -1.7947563755,
				"element": "C" 
			},
			{
				"x": 2.4954848737,
				"y": 0.7318714071,
				"z": -2.9517356191,
				"element": "C" 
			},
			{
				"x": 1.1223739051,
				"y": 1.2224945246,
				"z": -3.4376675317,
				"element": "C" 
			},
			{
				"x": 1.1031064373,
				"y": 2.6197070313,
				"z": -4.0860610844,
				"element": "C" 
			},
			{
				"x": 1.2642207482,
				"y": 3.8020232442,
				"z": -3.1477695966,
				"element": "C" 
			},
			{
				"x": 2.0078632185,
				"y": 4.7414709049,
				"z": -3.3349832261,
				"element": "O" 
			},
			{
				"x": 0.4423649933,
				"y": 3.7083594485,
				"z": -2.0750751161,
				"element": "O" 
			},
			{
				"x": 0.4981185869,
				"y": 4.8168008576,
				"z": -1.1429924176,
				"element": "C" 
			},
			{
				"x": -0.3866713687,
				"y": 4.5146442682,
				"z": 0.0588541792,
				"element": "C" 
			},
			{
				"x": -1.9065619045,
				"y": 4.5764900043,
				"z": -0.1808288725,
				"element": "C" 
			},
			{
				"x": -2.5171670675,
				"y": 3.473804903,
				"z": -1.0668826564,
				"element": "C" 
			},
			{
				"x": -2.3382642725,
				"y": 2.0298362056,
				"z": -0.5650081381,
				"element": "C" 
			},
			{
				"x": -2.9945996873,
				"y": 1.7350291387,
				"z": 0.7920115157,
				"element": "C" 
			},
			{
				"x": -2.8364934976,
				"y": 0.2821149567,
				"z": 1.2735405802,
				"element": "C" 
			},
			{
				"x": -3.5707273051,
				"y": -0.7583698514,
				"z": 0.4192363331,
				"element": "C" 
			},
			{
				"x": -2.7697515081,
				"y": -5.5627928771,
				"z": 4.7042087772,
				"element": "H" 
			},
			{
				"x": -1.4263852809,
				"y": -5.4655154706,
				"z": 5.8491169772,
				"element": "H" 
			},
			{
				"x": -3.0520240906,
				"y": -5.0087828307,
				"z": 6.3597424465,
				"element": "H" 
			},
			{
				"x": -3.0584904556,
				"y": -3.0510523786,
				"z": 4.8499114746,
				"element": "H" 
			},
			{
				"x": -1.6750620591,
				"y": -2.9520077642,
				"z": 5.9225352978,
				"element": "H" 
			},
			{
				"x": -1.1866448918,
				"y": -2.3263293949,
				"z": 3.5407102537,
				"element": "H" 
			},
			{
				"x": -1.5843893406,
				"y": -3.9559859783,
				"z": 3.0235189707,
				"element": "H" 
			},
			{
				"x": 0.2921588042,
				"y": -4.8618100632,
				"z": 4.4312035013,
				"element": "H" 
			},
			{
				"x": 0.6965720929,
				"y": -3.2338128518,
				"z": 4.9441616084,
				"element": "H" 
			},
			{
				"x": 2.1566286139,
				"y": -4.1806431729,
				"z": 3.1175741679,
				"element": "H" 
			},
			{
				"x": 0.7747421309,
				"y": -4.224997947,
				"z": 2.0380516057,
				"element": "H" 
			},
			{
				"x": 0.5463089639,
				"y": -1.7248478626,
				"z": 2.2325814629,
				"element": "H" 
			},
			{
				"x": 1.9335163867,
				"y": -1.6818217008,
				"z": 3.3044358038,
				"element": "H" 
			},
			{
				"x": 1.9933584478,
				"y": -2.6686414134,
				"z": 0.3955856006,
				"element": "H" 
			},
			{
				"x": 2.4084268915,
				"y": -1.0448306089,
				"z": 0.9001403913,
				"element": "H" 
			},
			{
				"x": 4.2911137678,
				"y": -1.9499450096,
				"z": 2.2989755716,
				"element": "H" 
			},
			{
				"x": 3.8736214101,
				"y": -3.577906909,
				"z": 1.8019412874,
				"element": "H" 
			},
			{
				"x": 4.3469127133,
				"y": -2.9209424387,
				"z": -0.6185694203,
				"element": "H" 
			},
			{
				"x": 5.7240031315,
				"y": -2.9724881038,
				"z": 0.4689771341,
				"element": "H" 
			},
			{
				"x": 5.5865230616,
				"y": -0.4423080792,
				"z": 0.705397573,
				"element": "H" 
			},
			{
				"x": 6.0354787577,
				"y": -1.0473908002,
				"z": -0.8900608864,
				"element": "H" 
			},
			{
				"x": 3.3780228586,
				"y": 2.5579657455,
				"z": -2.1141728995,
				"element": "H" 
			},
			{
				"x": 2.3623460648,
				"y": 1.639179613,
				"z": -0.9889799455,
				"element": "H" 
			},
			{
				"x": 2.3933287262,
				"y": -0.3072621806,
				"z": -2.6226987214,
				"element": "H" 
			},
			{
				"x": 3.2005013084,
				"y": 0.7256339214,
				"z": -3.7935971778,
				"element": "H" 
			},
			{
				"x": 0.4049485508,
				"y": 1.2010796282,
				"z": -2.6098686152,
				"element": "H" 
			},
			{
				"x": 0.7555348087,
				"y": 0.5072019575,
				"z": -4.1833910779,
				"element": "H" 
			},
			{
				"x": 1.8821828771,
				"y": 2.7146663836,
				"z": -4.8476391472,
				"element": "H" 
			},
			{
				"x": 0.1382940146,
				"y": 2.7575069305,
				"z": -4.5916839302,
				"element": "H" 
			},
			{
				"x": 1.540558469,
				"y": 4.9606951696,
				"z": -0.8430779031,
				"element": "H" 
			},
			{
				"x": 0.1793699675,
				"y": 5.7273173046,
				"z": -1.6630557199,
				"element": "H" 
			},
			{
				"x": -0.0952663652,
				"y": 3.5444157362,
				"z": 0.4790366532,
				"element": "H" 
			},
			{
				"x": -0.130308554,
				"y": 5.26144433,
				"z": 0.8216882596,
				"element": "H" 
			},
			{
				"x": -2.4024741629,
				"y": 4.5702101886,
				"z": 0.7976389678,
				"element": "H" 
			},
			{
				"x": -2.1470362893,
				"y": 5.5517681308,
				"z": -0.6260700874,
				"element": "H" 
			},
			{
				"x": -2.0938701769,
				"y": 3.5467126908,
				"z": -2.0740949118,
				"element": "H" 
			},
			{
				"x": -3.5917253713,
				"y": 3.6802496708,
				"z": -1.1679926834,
				"element": "H" 
			},
			{
				"x": -2.7562702367,
				"y": 1.3574974693,
				"z": -1.324530361,
				"element": "H" 
			},
			{
				"x": -1.2684038767,
				"y": 1.7875337422,
				"z": -0.509592831,
				"element": "H" 
			},
			{
				"x": -4.0650920209,
				"y": 1.9826874184,
				"z": 0.7379328795,
				"element": "H" 
			},
			{
				"x": -2.5695914533,
				"y": 2.3989455771,
				"z": 1.5555316766,
				"element": "H" 
			},
			{
				"x": -1.7670355542,
				"y": 0.0313734686,
				"z": 1.3151848614,
				"element": "H" 
			},
			{
				"x": -3.2024654984,
				"y": 0.213739584,
				"z": 2.30605695,
				"element": "H" 
			},
			{
				"x": -3.1883643961,
				"y": -0.7919338391,
				"z": -0.6060281245,
				"element": "H" 
			},
			{
				"x": -3.4600125499,
				"y": -1.762315246,
				"z": 0.8422210377,
				"element": "H" 
			},
			{
				"x": -4.6432300621,
				"y": -0.537265008,
				"z": 0.3652443529,
				"element": "H" 
			}
		],
		 "valence_orbital": [ 
			{
				"type": "occ",
				"energy": -0.29726,
				"method": "rhf"
			},
			{
				"type": "occ",
				"energy": -0.29544,
				"method": "rhf"
			},
			{
				"type": "occ",
				"energy": -0.2911,
				"method": "rhf"
			},
			{
				"type": "occ",
				"energy": -0.26622,
				"method": "rhf"
			},
			{
				"type": "occ",
				"energy": -0.26175,
				"method": "rhf"
			},
			{
				"type": "unocc",
				"energy": 0.01095,
				"method": "rhf"
			},
			{
				"type": "unocc",
				"energy": 0.0139,
				"method": "rhf"
			},
			{
				"type": "unocc",
				"energy": 0.06167,
				"method": "rhf"
			},
			{
				"type": "unocc",
				"energy": 0.07379,
				"method": "rhf"
			},
			{
				"type": "unocc",
				"energy": 0.08455,
				"method": "rhf"
			}
		],
		"cosmo_sigma_profile": { 
			"-0.025": 0.0,
			"-0.024": 0.0,
			"-0.023": 0.0,
			"-0.022": 0.0,
			"-0.021": 0.0,
			"-0.02": 0.0,
			"-0.019": 0.0,
			"-0.018": 0.0,
			"-0.017": 0.0,
			"-0.016": 0.0,
			"-0.015": 0.0,
			"-0.014": 0.0,
			"-0.013": 0.0,
			"-0.012": 0.0,
			"-0.011": 0.0,
			"-0.01": 0.0,
			"-0.009": 0.0,
			"-0.008": 0.0,
			"-0.007": 0.0678238863086,
			"-0.006": 2.25719939924,
			"-0.005": 10.3445393386,
			"-0.004": 28.8137873204,
			"-0.003": 47.6308661146,
			"-0.002": 82.0790412837,
			"-0.001": 100.949812231,
			"0.0": 105.477820403,
			"0.001": 92.023739521,
			"0.002": 34.8805800626,
			"0.003": 8.25332642388,
			"0.004": 6.16920678277,
			"0.005": 5.04001754909,
			"0.006": 4.12319496141,
			"0.007": 3.60282462303,
			"0.008": 2.52203794137,
			"0.009": 2.45430522849,
			"0.01": 3.77250026485,
			"0.011": 4.51679173745,
			"0.012": 9.66908923701,
			"0.013": 4.30143905783,
			"0.014": 0.251559292637,
			"0.015": 0.0,
			"0.016": 0.0,
			"0.017": 0.0,
			"0.018": 0.0,
			"0.019": 0.0,
			"0.02": 0.0,
			"0.021": 0.0,
			"0.022": 0.0,
			"0.023": 0.0,
			"0.024": 0.0,
			"0.025": 0.0
		}
	}
}
