{
	 "smiles": "ClC1=CN=C(C=C1)N1CCNCC1", 
	 "Tm": 338.15, 
	 "num_atms": 25, 
	 "gaussian": { 
		 "optdone": 1, 
		 "sigma_profile": "yes", 
		 "theory": "DFT", 
		 "functional": "B3LYP", 
		 "basiset": "6-31G**", 
		 "properties": { 
			 "R2extent": 4144.0625, 
			 "electric_dipole_moment_norm": 3.62012647983, 
			 "electric_quadrupole_moment_norm": 8.28542951995, 
			 "total_energy": -974.627310512, 
			 "HOMO_LUMO_gap": 0.17767, 
			 "cosmo_polarized_energy": -8.54, 
			 "cosmo_cavitation_energy": 28.56, 
			 "cosmo_dispersion_energy": -21.88, 
			 "cosmo_repulsion_energy": 1.73, 
			 "cosmo_total_nonelectrostatic_energy": 8.42, 
			 "SMD_solvation_energy": 0.17 
		},
		"coords": [
			{
				"x": 2.6163218711,
				"y": 4.063116487,
				"z": 1.5870654162,
				"element": "Cl" 
			},
			{
				"x": 1.8698044624,
				"y": 2.5540935427,
				"z": 1.0890023368,
				"element": "C" 
			},
			{
				"x": 2.2427069968,
				"y": 1.3505596357,
				"z": 1.6797446056,
				"element": "C" 
			},
			{
				"x": 1.7088578415,
				"y": 0.1787061463,
				"z": 1.3386092868,
				"element": "N" 
			},
			{
				"x": 0.7669059535,
				"y": 0.129959661,
				"z": 0.3759722027,
				"element": "C" 
			},
			{
				"x": 0.3126548009,
				"y": 1.3171991032,
				"z": -0.2521230513,
				"element": "C" 
			},
			{
				"x": 0.8779842421,
				"y": 2.530977027,
				"z": 0.1080256177,
				"element": "C" 
			},
			{
				"x": 0.3006812685,
				"y": -1.1292362099,
				"z": 0.031018838,
				"element": "N" 
			},
			{
				"x": -0.833782611,
				"y": -1.2955995046,
				"z": -0.873752548,
				"element": "C" 
			},
			{
				"x": -0.7741909629,
				"y": -2.6608235097,
				"z": -1.5650690263,
				"element": "C" 
			},
			{
				"x": -0.696276884,
				"y": -3.7179799438,
				"z": -0.5622058188,
				"element": "N" 
			},
			{
				"x": 0.5261206479,
				"y": -3.5738779909,
				"z": 0.2284574307,
				"element": "C" 
			},
			{
				"x": 0.4898939499,
				"y": -2.2414795052,
				"z": 0.9715896396,
				"element": "C" 
			},
			{
				"x": 3.0001684911,
				"y": 1.3346434831,
				"z": 2.4607630445,
				"element": "H" 
			},
			{
				"x": -0.4739175865,
				"y": 1.3057052172,
				"z": -0.99489741,
				"element": "H" 
			},
			{
				"x": 0.5459084424,
				"y": 3.4522451121,
				"z": -0.3592536194,
				"element": "H" 
			},
			{
				"x": -1.7884032795,
				"y": -1.2021819142,
				"z": -0.3302911396,
				"element": "H" 
			},
			{
				"x": -0.804382326,
				"y": -0.5256986535,
				"z": -1.6464897242,
				"element": "H" 
			},
			{
				"x": 0.0897125335,
				"y": -2.6597999558,
				"z": -2.2567025105,
				"element": "H" 
			},
			{
				"x": -1.6827248336,
				"y": -2.7936046192,
				"z": -2.1625044332,
				"element": "H" 
			},
			{
				"x": -0.7183009623,
				"y": -4.6279819832,
				"z": -1.0135526688,
				"element": "H" 
			},
			{
				"x": 1.4425508303,
				"y": -3.6119320442,
				"z": -0.3898619751,
				"element": "H" 
			},
			{
				"x": 0.5792140184,
				"y": -4.3872897829,
				"z": 0.9599644261,
				"element": "H" 
			},
			{
				"x": -0.336524306,
				"y": -2.2598700153,
				"z": 1.700092628,
				"element": "H" 
			},
			{
				"x": 1.4187174016,
				"y": -2.0722497829,
				"z": 1.5130984523,
				"element": "H" 
			}
		],
		 "valence_orbital": [ 
			{
				"type": "occ",
				"energy": -0.28403,
				"method": "rhf"
			},
			{
				"type": "occ",
				"energy": -0.28109,
				"method": "rhf"
			},
			{
				"type": "occ",
				"energy": -0.25667,
				"method": "rhf"
			},
			{
				"type": "occ",
				"energy": -0.2316,
				"method": "rhf"
			},
			{
				"type": "occ",
				"energy": -0.20091,
				"method": "rhf"
			},
			{
				"type": "unocc",
				"energy": -0.02324,
				"method": "rhf"
			},
			{
				"type": "unocc",
				"energy": 0.00187,
				"method": "rhf"
			},
			{
				"type": "unocc",
				"energy": 0.03659,
				"method": "rhf"
			},
			{
				"type": "unocc",
				"energy": 0.07832,
				"method": "rhf"
			},
			{
				"type": "unocc",
				"energy": 0.10298,
				"method": "rhf"
			}
		],
		"cosmo_sigma_profile": { 
			"-0.025": 0.0,
			"-0.024": 0.0,
			"-0.023": 0.0,
			"-0.022": 0.0,
			"-0.021": 0.0,
			"-0.02": 0.0,
			"-0.019": 0.0,
			"-0.018": 0.0,
			"-0.017": 0.0,
			"-0.016": 0.0,
			"-0.015": 0.0,
			"-0.014": 0.0,
			"-0.013": 0.0,
			"-0.012": 0.0,
			"-0.011": 0.199558331862,
			"-0.01": 1.13251975092,
			"-0.009": 1.70178887524,
			"-0.008": 3.8303451413,
			"-0.007": 6.15066036459,
			"-0.006": 7.41865656216,
			"-0.005": 9.00900870946,
			"-0.004": 15.1902383089,
			"-0.003": 20.7070716159,
			"-0.002": 28.7043709545,
			"-0.001": 23.2430206941,
			"0.0": 15.0460660716,
			"0.001": 13.5812087412,
			"0.002": 20.1928244345,
			"0.003": 17.0301477126,
			"0.004": 12.8749439575,
			"0.005": 12.828937761,
			"0.006": 3.81246754933,
			"0.007": 3.78244361072,
			"0.008": 2.19290382323,
			"0.009": 1.70237233622,
			"0.01": 1.97084745556,
			"0.011": 1.99498527333,
			"0.012": 0.818576134414,
			"0.013": 0.514127309286,
			"0.014": 0.461293886028,
			"0.015": 0.449233676573,
			"0.016": 0.353903687364,
			"0.017": 0.667981639265,
			"0.018": 0.132857698254,
			"0.019": 0.0,
			"0.02": 0.0,
			"0.021": 0.0,
			"0.022": 0.0,
			"0.023": 0.0,
			"0.024": 0.0,
			"0.025": 0.0
		}
	}
}
