{
	 "smiles": "FC(F)(F)COC(=O)NCCCN1CCCC1", 
	 "Tm": 310.15, 
	 "num_atms": 34, 
	 "gaussian": { 
		 "optdone": 1, 
		 "sigma_profile": "yes", 
		 "theory": "DFT", 
		 "functional": "B3LYP", 
		 "basiset": "6-31G**", 
		 "properties": { 
			 "R2extent": 6909.5353, 
			 "electric_dipole_moment_norm": 2.8781561893, 
			 "electric_quadrupole_moment_norm": 12.1531376163, 
			 "total_energy": -950.797575686, 
			 "HOMO_LUMO_gap": 0.23876, 
			 "cosmo_polarized_energy": -10.64, 
			 "cosmo_cavitation_energy": 37.39, 
			 "cosmo_dispersion_energy": -25.36, 
			 "cosmo_repulsion_energy": 1.96, 
			 "cosmo_total_nonelectrostatic_energy": 13.99, 
			 "SMD_solvation_energy": 5.33 
		},
		"coords": [
			{
				"x": 1.2470934251,
				"y": -0.353539572,
				"z": -3.88968918,
				"element": "F" 
			},
			{
				"x": 1.8952589231,
				"y": -1.5322207865,
				"z": -3.8002529174,
				"element": "C" 
			},
			{
				"x": 1.0126512324,
				"y": -2.443666303,
				"z": -3.3428725787,
				"element": "F" 
			},
			{
				"x": 2.2716053005,
				"y": -1.8941985041,
				"z": -5.043815569,
				"element": "F" 
			},
			{
				"x": 3.1132968164,
				"y": -1.4412138805,
				"z": -2.8975809998,
				"element": "C" 
			},
			{
				"x": 2.6874956442,
				"y": -1.1021084114,
				"z": -1.5874775452,
				"element": "O" 
			},
			{
				"x": 2.7407773399,
				"y": -2.1204976226,
				"z": -0.6595470027,
				"element": "C" 
			},
			{
				"x": 3.2966943028,
				"y": -3.1851126485,
				"z": -0.8491597416,
				"element": "O" 
			},
			{
				"x": 2.1269107998,
				"y": -1.7439239843,
				"z": 0.4926724527,
				"element": "N" 
			},
			{
				"x": 1.2395004347,
				"y": -0.5895737749,
				"z": 0.6487367701,
				"element": "C" 
			},
			{
				"x": -0.1537813251,
				"y": -0.8040957019,
				"z": 0.0398819497,
				"element": "C" 
			},
			{
				"x": -1.0881167056,
				"y": 0.427632267,
				"z": 0.0841188947,
				"element": "C" 
			},
			{
				"x": -1.5038309703,
				"y": 0.9297944601,
				"z": 1.3790773209,
				"element": "N" 
			},
			{
				"x": -0.6787286943,
				"y": 1.9101543657,
				"z": 2.0913327318,
				"element": "C" 
			},
			{
				"x": -1.1602729364,
				"y": 1.8301036668,
				"z": 3.5623836484,
				"element": "C" 
			},
			{
				"x": -2.4347994296,
				"y": 0.9630721749,
				"z": 3.5089164462,
				"element": "C" 
			},
			{
				"x": -2.1530232354,
				"y": 0.0350140159,
				"z": 2.3229980267,
				"element": "C" 
			},
			{
				"x": 3.7680357353,
				"y": -0.6487752241,
				"z": -3.2672596286,
				"element": "H" 
			},
			{
				"x": 3.6360402008,
				"y": -2.3996342314,
				"z": -2.8957935321,
				"element": "H" 
			},
			{
				"x": 2.0780087727,
				"y": -2.4884180184,
				"z": 1.1725016592,
				"element": "H" 
			},
			{
				"x": 1.7242836492,
				"y": 0.2771219995,
				"z": 0.1918914636,
				"element": "H" 
			},
			{
				"x": 1.169409996,
				"y": -0.3913196084,
				"z": 1.7218877238,
				"element": "H" 
			},
			{
				"x": -0.0303843262,
				"y": -1.0913892375,
				"z": -1.0110845252,
				"element": "H" 
			},
			{
				"x": -0.636583222,
				"y": -1.6542462151,
				"z": 0.5388297121,
				"element": "H" 
			},
			{
				"x": -0.6176662586,
				"y": 1.2571298391,
				"z": -0.4594216875,
				"element": "H" 
			},
			{
				"x": -1.9895223577,
				"y": 0.1642501934,
				"z": -0.4884272473,
				"element": "H" 
			},
			{
				"x": -0.8292715198,
				"y": 2.9100460658,
				"z": 1.6594454332,
				"element": "H" 
			},
			{
				"x": 0.4026855229,
				"y": 1.7055624041,
				"z": 2.0342203144,
				"element": "H" 
			},
			{
				"x": -0.4002560515,
				"y": 1.3361056664,
				"z": 4.1777529753,
				"element": "H" 
			},
			{
				"x": -1.336290874,
				"y": 2.8169508639,
				"z": 3.9991555201,
				"element": "H" 
			},
			{
				"x": -3.3109062058,
				"y": 1.5813479128,
				"z": 3.2878296059,
				"element": "H" 
			},
			{
				"x": -2.623110327,
				"y": 0.4241533136,
				"z": 4.4420900128,
				"element": "H" 
			},
			{
				"x": -1.5210456288,
				"y": -0.8161332371,
				"z": 2.6493645476,
				"element": "H" 
			},
			{
				"x": -3.0633580276,
				"y": -0.3925722474,
				"z": 1.8830949458,
				"element": "H" 
			}
		],
		 "valence_orbital": [ 
			{
				"type": "occ",
				"energy": -0.32545,
				"method": "rhf"
			},
			{
				"type": "occ",
				"energy": -0.30765,
				"method": "rhf"
			},
			{
				"type": "occ",
				"energy": -0.28272,
				"method": "rhf"
			},
			{
				"type": "occ",
				"energy": -0.26031,
				"method": "rhf"
			},
			{
				"type": "occ",
				"energy": -0.19532,
				"method": "rhf"
			},
			{
				"type": "unocc",
				"energy": 0.04344,
				"method": "rhf"
			},
			{
				"type": "unocc",
				"energy": 0.06226,
				"method": "rhf"
			},
			{
				"type": "unocc",
				"energy": 0.08078,
				"method": "rhf"
			},
			{
				"type": "unocc",
				"energy": 0.09513,
				"method": "rhf"
			},
			{
				"type": "unocc",
				"energy": 0.10518,
				"method": "rhf"
			}
		],
		"cosmo_sigma_profile": { 
			"-0.025": 0.0,
			"-0.024": 0.0,
			"-0.023": 0.0,
			"-0.022": 0.0,
			"-0.021": 0.0,
			"-0.02": 0.0,
			"-0.019": 0.0,
			"-0.018": 0.0,
			"-0.017": 0.0,
			"-0.016": 0.0,
			"-0.015": 0.0952006545571,
			"-0.014": 1.11906566177,
			"-0.013": 1.22179925638,
			"-0.012": 1.0032924928,
			"-0.011": 1.0130542347,
			"-0.01": 0.982236076653,
			"-0.009": 3.22074136322,
			"-0.008": 4.01243438672,
			"-0.007": 4.19476667537,
			"-0.006": 5.51000078134,
			"-0.005": 5.45383228509,
			"-0.004": 9.64824596083,
			"-0.003": 23.7813242037,
			"-0.002": 33.6156156656,
			"-0.001": 43.5491331362,
			"0.0": 38.7093196707,
			"0.001": 27.0710637085,
			"0.002": 26.9676787944,
			"0.003": 28.6429515965,
			"0.004": 5.72353091891,
			"0.005": 3.827575483,
			"0.006": 2.87873462769,
			"0.007": 1.95180121566,
			"0.008": 2.04189512907,
			"0.009": 1.68210885834,
			"0.01": 2.37564568266,
			"0.011": 2.19418259152,
			"0.012": 4.38524896539,
			"0.013": 4.24315434615,
			"0.014": 0.546931136787,
			"0.015": 0.119647827675,
			"0.016": 0.0,
			"0.017": 0.0,
			"0.018": 0.0,
			"0.019": 0.0,
			"0.02": 0.0,
			"0.021": 0.0,
			"0.022": 0.0,
			"0.023": 0.0,
			"0.024": 0.0,
			"0.025": 0.0
		}
	}
}
