{
	 "smiles": "CC1=CC=CC=C1P(C1=CC=CC=C1C)C1=CC=CC=C1C", 
	 "Tm": 398.15, 
	 "num_atms": 43, 
	 "gaussian": { 
		 "optdone": 1, 
		 "sigma_profile": "yes", 
		 "theory": "DFT", 
		 "functional": "B3LYP", 
		 "basiset": "6-31G**", 
		 "properties": { 
			 "R2extent": 6829.3549, 
			 "electric_dipole_moment_norm": 1.2075739025, 
			 "electric_quadrupole_moment_norm": 6.9919824914, 
			 "total_energy": -1154.24778665, 
			 "HOMO_LUMO_gap": 0.18036, 
			 "cosmo_polarized_energy": -7.48, 
			 "cosmo_cavitation_energy": 44.23, 
			 "cosmo_dispersion_energy": -30.33, 
			 "cosmo_repulsion_energy": 2.33, 
			 "cosmo_total_nonelectrostatic_energy": 16.22, 
			 "SMD_solvation_energy": 7.56 
		},
		"coords": [
			{
				"x": -0.1216184676,
				"y": 3.8678652258,
				"z": -0.1622352795,
				"element": "C" 
			},
			{
				"x": 1.1598288526,
				"y": 3.0676890455,
				"z": -0.2415511342,
				"element": "C" 
			},
			{
				"x": 2.3028847305,
				"y": 3.6855828826,
				"z": -0.769199531,
				"element": "C" 
			},
			{
				"x": 3.5154569627,
				"y": 3.0103218674,
				"z": -0.8889263816,
				"element": "C" 
			},
			{
				"x": 3.6028439029,
				"y": 1.6819382778,
				"z": -0.4772160265,
				"element": "C" 
			},
			{
				"x": 2.4763061223,
				"y": 1.0484540944,
				"z": 0.0464455974,
				"element": "C" 
			},
			{
				"x": 1.2459759925,
				"y": 1.715310885,
				"z": 0.1774998157,
				"element": "C" 
			},
			{
				"x": -0.3047109704,
				"y": 0.9312705467,
				"z": 0.860197461,
				"element": "P" 
			},
			{
				"x": 0.2662057197,
				"y": -0.4460819201,
				"z": 1.9656400592,
				"element": "C" 
			},
			{
				"x": 1.4401335289,
				"y": -0.2587806249,
				"z": 2.7208996754,
				"element": "C" 
			},
			{
				"x": 1.8393821815,
				"y": -1.1661566405,
				"z": 3.7006319261,
				"element": "C" 
			},
			{
				"x": 1.0577936887,
				"y": -2.2893986777,
				"z": 3.9596646464,
				"element": "C" 
			},
			{
				"x": -0.1317076191,
				"y": -2.4641158339,
				"z": 3.2555717751,
				"element": "C" 
			},
			{
				"x": -0.5603264395,
				"y": -1.5583094311,
				"z": 2.2747657269,
				"element": "C" 
			},
			{
				"x": -1.9045329577,
				"y": -1.7973246749,
				"z": 1.6240539586,
				"element": "C" 
			},
			{
				"x": -1.0660909813,
				"y": 0.2110551105,
				"z": -0.6865589497,
				"element": "C" 
			},
			{
				"x": -2.2917148682,
				"y": 0.8193537822,
				"z": -1.0145612071,
				"element": "C" 
			},
			{
				"x": -3.0122883783,
				"y": 0.4661860614,
				"z": -2.1552520789,
				"element": "C" 
			},
			{
				"x": -2.5129539062,
				"y": -0.5286146697,
				"z": -2.9916456833,
				"element": "C" 
			},
			{
				"x": -1.3048378648,
				"y": -1.1496373367,
				"z": -2.6761265472,
				"element": "C" 
			},
			{
				"x": -0.558416798,
				"y": -0.7990984582,
				"z": -1.5412963312,
				"element": "C" 
			},
			{
				"x": 0.7478256458,
				"y": -1.5174220895,
				"z": -1.2998369098,
				"element": "C" 
			},
			{
				"x": -0.8678977572,
				"y": 3.5008507308,
				"z": -0.8764122825,
				"element": "H" 
			},
			{
				"x": -0.5778599133,
				"y": 3.8064680598,
				"z": 0.830289127,
				"element": "H" 
			},
			{
				"x": 0.0672027619,
				"y": 4.9200089705,
				"z": -0.3929727125,
				"element": "H" 
			},
			{
				"x": 2.2342586173,
				"y": 4.7225846055,
				"z": -1.0883245168,
				"element": "H" 
			},
			{
				"x": 4.3838154397,
				"y": 3.5196980532,
				"z": -1.2973328184,
				"element": "H" 
			},
			{
				"x": 4.5391623733,
				"y": 1.13742856,
				"z": -0.5619603754,
				"element": "H" 
			},
			{
				"x": 2.5628417453,
				"y": 0.0185246317,
				"z": 0.371160351,
				"element": "H" 
			},
			{
				"x": 2.0531246271,
				"y": 0.6186522741,
				"z": 2.5483201978,
				"element": "H" 
			},
			{
				"x": 2.7555587327,
				"y": -0.9889831881,
				"z": 4.2569157792,
				"element": "H" 
			},
			{
				"x": 1.3559882859,
				"y": -3.0106655737,
				"z": 4.7151271845,
				"element": "H" 
			},
			{
				"x": -0.7628962602,
				"y": -3.3211080196,
				"z": 3.4781287348,
				"element": "H" 
			},
			{
				"x": -2.5200381489,
				"y": -0.891387545,
				"z": 1.6233664997,
				"element": "H" 
			},
			{
				"x": -1.8143686788,
				"y": -2.1156333596,
				"z": 0.5811344014,
				"element": "H" 
			},
			{
				"x": -2.4536338201,
				"y": -2.5731343343,
				"z": 2.1647320104,
				"element": "H" 
			},
			{
				"x": -2.6892690237,
				"y": 1.5799641454,
				"z": -0.348099069,
				"element": "H" 
			},
			{
				"x": -3.955276517,
				"y": 0.9569688751,
				"z": -2.3781595773,
				"element": "H" 
			},
			{
				"x": -3.05949563,
				"y": -0.8274637197,
				"z": -3.8818285126,
				"element": "H" 
			},
			{
				"x": -0.9222567286,
				"y": -1.9315023506,
				"z": -3.3279169447,
				"element": "H" 
			},
			{
				"x": 1.597755714,
				"y": -0.8896293379,
				"z": -1.5876202142,
				"element": "H" 
			},
			{
				"x": 0.8836447297,
				"y": -1.7852304705,
				"z": -0.2492671865,
				"element": "H" 
			},
			{
				"x": 0.7978013739,
				"y": -2.4338984293,
				"z": -1.8945446577,
				"element": "H" 
			}
		],
		 "valence_orbital": [ 
			{
				"type": "occ",
				"energy": -0.24471,
				"method": "rhf"
			},
			{
				"type": "occ",
				"energy": -0.24309,
				"method": "rhf"
			},
			{
				"type": "occ",
				"energy": -0.23807,
				"method": "rhf"
			},
			{
				"type": "occ",
				"energy": -0.23459,
				"method": "rhf"
			},
			{
				"type": "occ",
				"energy": -0.20329,
				"method": "rhf"
			},
			{
				"type": "unocc",
				"energy": -0.02293,
				"method": "rhf"
			},
			{
				"type": "unocc",
				"energy": -0.00984,
				"method": "rhf"
			},
			{
				"type": "unocc",
				"energy": -0.00719,
				"method": "rhf"
			},
			{
				"type": "unocc",
				"energy": 0.00023,
				"method": "rhf"
			},
			{
				"type": "unocc",
				"energy": 0.00136,
				"method": "rhf"
			}
		],
		"cosmo_sigma_profile": { 
			"-0.025": 0.0,
			"-0.024": 0.0,
			"-0.023": 0.0,
			"-0.022": 0.0,
			"-0.021": 0.0,
			"-0.02": 0.0,
			"-0.019": 0.0,
			"-0.018": 0.0,
			"-0.017": 0.0,
			"-0.016": 0.0,
			"-0.015": 0.0,
			"-0.014": 0.0,
			"-0.013": 0.0,
			"-0.012": 0.0,
			"-0.011": 0.0,
			"-0.01": 0.0,
			"-0.009": 0.0,
			"-0.008": 0.0,
			"-0.007": 0.0,
			"-0.006": 6.16831065524,
			"-0.005": 22.7274141843,
			"-0.004": 31.5220089539,
			"-0.003": 34.1870262851,
			"-0.002": 35.7736884704,
			"-0.001": 36.5321207831,
			"0.0": 41.7862518376,
			"0.001": 30.5441422266,
			"0.002": 23.065901733,
			"0.003": 21.4782275873,
			"0.004": 23.5525903805,
			"0.005": 23.6796777805,
			"0.006": 14.8359995985,
			"0.007": 1.42293451509,
			"0.008": 1.09589889812,
			"0.009": 0.316103822505,
			"0.01": 0.712214229393,
			"0.011": 0.503392618438,
			"0.012": 0.459511137655,
			"0.013": 0.212212891741,
			"0.014": 0.0,
			"0.015": 0.0,
			"0.016": 0.0,
			"0.017": 0.0,
			"0.018": 0.0,
			"0.019": 0.0,
			"0.02": 0.0,
			"0.021": 0.0,
			"0.022": 0.0,
			"0.023": 0.0,
			"0.024": 0.0,
			"0.025": 0.0
		}
	}
}
