{
	 "smiles": "IC1=CC=CC=C1I", 
	 "Tm": 300.15, 
	 "num_atms": 12, 
	 "gaussian": { 
		 "optdone": 1, 
		 "sigma_profile": "no", 
		 "theory": "DFT", 
		 "functional": "B3LYP", 
		 "basiset": "6-31G**", 
		 "properties": { 
			 "R2extent": 1096.9447, 
			 "electric_dipole_moment_norm": 2.27850509326, 
			 "electric_quadrupole_moment_norm": 6.68420121929, 
			 "total_energy": -253.812341436, 
			 "HOMO_LUMO_gap": 0.18032, 
			 "cosmo_polarized_energy": -293756.9, 
			 "cosmo_cavitation_energy": 22.04, 
			 "cosmo_dispersion_energy": -19.12, 
			 "cosmo_repulsion_energy": 1.49, 
			 "cosmo_total_nonelectrostatic_energy": 4.4, 
			 "SMD_solvation_energy": 2.14 
		},
		"coords": [
			{
				"x": 0.3735444758,
				"y": 0.2303579491,
				"z": -2.6054581845,
				"element": "I" 
			},
			{
				"x": 0.2072761626,
				"y": 0.3803040226,
				"z": -0.499638625,
				"element": "C" 
			},
			{
				"x": -0.9044148985,
				"y": 1.0719317504,
				"z": -0.0007772723,
				"element": "C" 
			},
			{
				"x": -1.0891646805,
				"y": 1.216471036,
				"z": 1.3723618418,
				"element": "C" 
			},
			{
				"x": -0.1630928332,
				"y": 0.6702644679,
				"z": 2.2605317207,
				"element": "C" 
			},
			{
				"x": 0.944986064,
				"y": -0.0189195278,
				"z": 1.7729562001,
				"element": "C" 
			},
			{
				"x": 1.1383964955,
				"y": -0.168961757,
				"z": 0.3934050972,
				"element": "C" 
			},
			{
				"x": 2.8609941409,
				"y": -1.2373248863,
				"z": -0.2196304993,
				"element": "I" 
			},
			{
				"x": -1.6237051664,
				"y": 1.4961405849,
				"z": -0.6918874117,
				"element": "H" 
			},
			{
				"x": -1.9563701656,
				"y": 1.7555032537,
				"z": 1.7410137451,
				"element": "H" 
			},
			{
				"x": -0.2968858659,
				"y": 0.7767392803,
				"z": 3.3325690815,
				"element": "H" 
			},
			{
				"x": 1.6653362714,
				"y": -0.4438061738,
				"z": 2.4625543066,
				"element": "H" 
			}
		],
		 "valence_orbital": [ 
			{
				"type": "occ",
				"energy": -0.29967,
				"method": "rhf"
			},
			{
				"type": "occ",
				"energy": -0.28943,
				"method": "rhf"
			},
			{
				"type": "occ",
				"energy": -0.25509,
				"method": "rhf"
			},
			{
				"type": "occ",
				"energy": -0.25302,
				"method": "rhf"
			},
			{
				"type": "occ",
				"energy": -0.24381,
				"method": "rhf"
			},
			{
				"type": "unocc",
				"energy": -0.06349,
				"method": "rhf"
			},
			{
				"type": "unocc",
				"energy": -0.02984,
				"method": "rhf"
			},
			{
				"type": "unocc",
				"energy": -0.02693,
				"method": "rhf"
			},
			{
				"type": "unocc",
				"energy": -0.02106,
				"method": "rhf"
			},
			{
				"type": "unocc",
				"energy": 0.02734,
				"method": "rhf"
			}
		],
		"cosmo_sigma_profile": { 
			"0.0": 0.0,
			"0.0": 0.0,
			"0.0": 0.0,
			"0.0": 0.0,
			"0.0": 0.0,
			"0.0": 0.0,
			"0.0": 0.0,
			"0.0": 0.0,
			"0.0": 0.0,
			"0.0": 0.0,
			"0.0": 0.0,
			"0.0": 0.0,
			"0.0": 0.0,
			"0.0": 0.0,
			"0.0": 0.0,
			"0.0": 0.0,
			"0.0": 0.0,
			"0.0": 0.0,
			"0.0": 0.0,
			"0.0": 0.0,
			"0.0": 0.0,
			"0.0": 0.0,
			"0.0": 0.0,
			"0.0": 0.0,
			"0.0": 0.0,
			"0.0": 0.0,
			"0.0": 0.0,
			"0.0": 0.0,
			"0.0": 0.0,
			"0.0": 0.0,
			"0.0": 0.0,
			"0.0": 0.0,
			"0.0": 0.0,
			"0.0": 0.0,
			"0.0": 0.0,
			"0.0": 0.0,
			"0.0": 0.0,
			"0.0": 0.0,
			"0.0": 0.0,
			"0.0": 0.0,
			"0.0": 0.0,
			"0.0": 0.0,
			"0.0": 0.0,
			"0.0": 0.0,
			"0.0": 0.0,
			"0.0": 0.0,
			"0.0": 0.0,
			"0.0": 0.0,
			"0.0": 0.0,
			"0.0": 0.0,
			"0.0": 0.0
		}
	}
}
