{
	 "smiles": "CC(=O)OC1CCC2C3CCC4CC(=O)CCC4(C)C3CCC12C", 
	 "Tm": 419.15, 
	 "num_atms": 56, 
	 "gaussian": { 
		 "optdone": 1, 
		 "sigma_profile": "yes", 
		 "theory": "DFT", 
		 "functional": "B3LYP", 
		 "basiset": "6-31G**", 
		 "properties": { 
			 "R2extent": 10563.7794, 
			 "electric_dipole_moment_norm": 2.54727610792, 
			 "electric_quadrupole_moment_norm": 34.4460195774, 
			 "total_energy": -1045.23445402, 
			 "HOMO_LUMO_gap": 0.22299, 
			 "cosmo_polarized_energy": -13.57, 
			 "cosmo_cavitation_energy": 49.26, 
			 "cosmo_dispersion_energy": -33.79, 
			 "cosmo_repulsion_energy": 2.51, 
			 "cosmo_total_nonelectrostatic_energy": 17.98, 
			 "SMD_solvation_energy": 8.47 
		},
		"coords": [
			{
				"x": 6.4854494927,
				"y": -0.1022714998,
				"z": -1.4318304721,
				"element": "C" 
			},
			{
				"x": 5.5332751838,
				"y": 0.2597210064,
				"z": -0.3156993649,
				"element": "C" 
			},
			{
				"x": 5.8587326539,
				"y": 0.5890089425,
				"z": 0.8042741691,
				"element": "O" 
			},
			{
				"x": 4.2484268704,
				"y": 0.1702078289,
				"z": -0.7343961278,
				"element": "O" 
			},
			{
				"x": 3.2237674517,
				"y": 0.5150749286,
				"z": 0.2257524954,
				"element": "C" 
			},
			{
				"x": 2.881532343,
				"y": -0.6340305618,
				"z": 1.1895183713,
				"element": "C" 
			},
			{
				"x": 1.3752344918,
				"y": -0.446782968,
				"z": 1.516519919,
				"element": "C" 
			},
			{
				"x": 0.9003535409,
				"y": 0.7790742317,
				"z": 0.6800594881,
				"element": "C" 
			},
			{
				"x": -0.5754501309,
				"y": 0.7817993883,
				"z": 0.2261238732,
				"element": "C" 
			},
			{
				"x": -1.576819417,
				"y": 0.7270363326,
				"z": 1.4153688378,
				"element": "C" 
			},
			{
				"x": -2.3620637842,
				"y": -0.5865953637,
				"z": 1.4503607339,
				"element": "C" 
			},
			{
				"x": -3.1650226871,
				"y": -0.8366656881,
				"z": 0.1556943066,
				"element": "C" 
			},
			{
				"x": -3.6722815111,
				"y": -2.2950058452,
				"z": 0.14944819,
				"element": "C" 
			},
			{
				"x": -4.5313845288,
				"y": -2.6218418119,
				"z": -1.0581359689,
				"element": "C" 
			},
			{
				"x": -5.5369822749,
				"y": -3.3027705439,
				"z": -0.9930191549,
				"element": "O" 
			},
			{
				"x": -4.0323980973,
				"y": -2.0228321415,
				"z": -2.3671544954,
				"element": "C" 
			},
			{
				"x": -2.5887105789,
				"y": -1.5143121568,
				"z": -2.2636400694,
				"element": "C" 
			},
			{
				"x": -2.3785349022,
				"y": -0.433942454,
				"z": -1.1638830911,
				"element": "C" 
			},
			{
				"x": -2.9398061267,
				"y": 0.9066768153,
				"z": -1.6899615141,
				"element": "C" 
			},
			{
				"x": -0.8564286955,
				"y": -0.3186433657,
				"z": -0.8281289654,
				"element": "C" 
			},
			{
				"x": 0.084988069,
				"y": -0.1082492033,
				"z": -2.0300803641,
				"element": "C" 
			},
			{
				"x": 1.5603279911,
				"y": -0.1522780133,
				"z": -1.595862346,
				"element": "C" 
			},
			{
				"x": 1.9124746356,
				"y": 0.8838775597,
				"z": -0.4985857248,
				"element": "C" 
			},
			{
				"x": 2.0024681351,
				"y": 2.2964029915,
				"z": -1.0953663376,
				"element": "C" 
			},
			{
				"x": 7.5109689671,
				"y": -0.0341023509,
				"z": -1.070430423,
				"element": "H" 
			},
			{
				"x": 6.3432534923,
				"y": 0.5731020911,
				"z": -2.2807425852,
				"element": "H" 
			},
			{
				"x": 6.2805883349,
				"y": -1.1169394737,
				"z": -1.7858091006,
				"element": "H" 
			},
			{
				"x": 3.5832399872,
				"y": 1.3790932705,
				"z": 0.7939973853,
				"element": "H" 
			},
			{
				"x": 3.5234580016,
				"y": -0.6074485189,
				"z": 2.0726311103,
				"element": "H" 
			},
			{
				"x": 3.0640349397,
				"y": -1.5903911792,
				"z": 0.6888722796,
				"element": "H" 
			},
			{
				"x": 0.816973392,
				"y": -1.3502492137,
				"z": 1.2543635058,
				"element": "H" 
			},
			{
				"x": 1.208519941,
				"y": -0.2798709721,
				"z": 2.5844297788,
				"element": "H" 
			},
			{
				"x": 1.0417488683,
				"y": 1.672528414,
				"z": 1.3061535782,
				"element": "H" 
			},
			{
				"x": -0.722836298,
				"y": 1.7430440983,
				"z": -0.2830684297,
				"element": "H" 
			},
			{
				"x": -1.0491325351,
				"y": 0.8685035469,
				"z": 2.3656720453,
				"element": "H" 
			},
			{
				"x": -2.2871341103,
				"y": 1.5601237521,
				"z": 1.3430461177,
				"element": "H" 
			},
			{
				"x": -1.6699574972,
				"y": -1.422088846,
				"z": 1.6186673908,
				"element": "H" 
			},
			{
				"x": -3.0512583177,
				"y": -0.5942271998,
				"z": 2.3032890402,
				"element": "H" 
			},
			{
				"x": -4.0541503815,
				"y": -0.1926354795,
				"z": 0.2019355781,
				"element": "H" 
			},
			{
				"x": -4.2406793164,
				"y": -2.5242662155,
				"z": 1.0556706192,
				"element": "H" 
			},
			{
				"x": -2.8098805921,
				"y": -2.979407995,
				"z": 0.134090331,
				"element": "H" 
			},
			{
				"x": -4.1445639524,
				"y": -2.7753674873,
				"z": -3.1550606279,
				"element": "H" 
			},
			{
				"x": -4.7202307624,
				"y": -1.2090255954,
				"z": -2.6341978722,
				"element": "H" 
			},
			{
				"x": -2.277133924,
				"y": -1.1140211064,
				"z": -3.2339777251,
				"element": "H" 
			},
			{
				"x": -1.9295909834,
				"y": -2.370238652,
				"z": -2.0655766556,
				"element": "H" 
			},
			{
				"x": -3.9898014683,
				"y": 0.8007661226,
				"z": -1.9825436043,
				"element": "H" 
			},
			{
				"x": -2.3900181411,
				"y": 1.2575829323,
				"z": -2.5694441601,
				"element": "H" 
			},
			{
				"x": -2.9014969131,
				"y": 1.6954529459,
				"z": -0.9334892797,
				"element": "H" 
			},
			{
				"x": -0.5786914785,
				"y": -1.2908489992,
				"z": -0.3933981431,
				"element": "H" 
			},
			{
				"x": -0.1359871499,
				"y": 0.8499332031,
				"z": -2.5174040633,
				"element": "H" 
			},
			{
				"x": -0.0736465886,
				"y": -0.8815706073,
				"z": -2.7888263413,
				"element": "H" 
			},
			{
				"x": 1.7793983535,
				"y": -1.1640019196,
				"z": -1.2322485459,
				"element": "H" 
			},
			{
				"x": 2.2142629256,
				"y": 0.0017023767,
				"z": -2.4608466088,
				"element": "H" 
			},
			{
				"x": 2.1951055245,
				"y": 3.0403928627,
				"z": -0.313904069,
				"element": "H" 
			},
			{
				"x": 2.8218146644,
				"y": 2.3511477343,
				"z": -1.8203919518,
				"element": "H" 
			},
			{
				"x": 1.0842748934,
				"y": 2.5903700525,
				"z": -1.6124349615,
				"element": "H" 
			}
		],
		 "valence_orbital": [ 
			{
				"type": "occ",
				"energy": -0.29124,
				"method": "rhf"
			},
			{
				"type": "occ",
				"energy": -0.28254,
				"method": "rhf"
			},
			{
				"type": "occ",
				"energy": -0.27789,
				"method": "rhf"
			},
			{
				"type": "occ",
				"energy": -0.26797,
				"method": "rhf"
			},
			{
				"type": "occ",
				"energy": -0.23293,
				"method": "rhf"
			},
			{
				"type": "unocc",
				"energy": -0.00994,
				"method": "rhf"
			},
			{
				"type": "unocc",
				"energy": 0.01354,
				"method": "rhf"
			},
			{
				"type": "unocc",
				"energy": 0.06364,
				"method": "rhf"
			},
			{
				"type": "unocc",
				"energy": 0.06594,
				"method": "rhf"
			},
			{
				"type": "unocc",
				"energy": 0.07657,
				"method": "rhf"
			}
		],
		"cosmo_sigma_profile": { 
			"-0.025": 0.0,
			"-0.024": 0.0,
			"-0.023": 0.0,
			"-0.022": 0.0,
			"-0.021": 0.0,
			"-0.02": 0.0,
			"-0.019": 0.0,
			"-0.018": 0.0,
			"-0.017": 0.0,
			"-0.016": 0.0,
			"-0.015": 0.0,
			"-0.014": 0.0,
			"-0.013": 0.0,
			"-0.012": 0.0,
			"-0.011": 0.0,
			"-0.01": 0.0,
			"-0.009": 0.0,
			"-0.008": 0.0,
			"-0.007": 0.502014221714,
			"-0.006": 5.53784115472,
			"-0.005": 14.8481537683,
			"-0.004": 21.4336068568,
			"-0.003": 43.2169688857,
			"-0.002": 70.817226454,
			"-0.001": 66.7674478138,
			"0.0": 46.7154840924,
			"0.001": 36.3279208821,
			"0.002": 16.3355552277,
			"0.003": 6.14440422676,
			"0.004": 4.21934041914,
			"0.005": 4.25166014729,
			"0.006": 5.92835905439,
			"0.007": 3.74943452192,
			"0.008": 3.29124950509,
			"0.009": 3.22993706331,
			"0.01": 3.79395419629,
			"0.011": 5.07639498997,
			"0.012": 8.19026724247,
			"0.013": 6.16341575622,
			"0.014": 1.73046526305,
			"0.015": 0.0,
			"0.016": 0.0,
			"0.017": 0.0,
			"0.018": 0.0,
			"0.019": 0.0,
			"0.02": 0.0,
			"0.021": 0.0,
			"0.022": 0.0,
			"0.023": 0.0,
			"0.024": 0.0,
			"0.025": 0.0
		}
	}
}
