{
	 "smiles": "CC(Cl)C(=O)NC1=C(Cl)C=CC(Cl)=C1", 
	 "Tm": 397.15, 
	 "num_atms": 22, 
	 "gaussian": { 
		 "optdone": 1, 
		 "sigma_profile": "yes", 
		 "theory": "DFT", 
		 "functional": "B3LYP", 
		 "basiset": "6-31G**", 
		 "properties": { 
			 "R2extent": 4784.9704, 
			 "electric_dipole_moment_norm": 2.82201724658, 
			 "electric_quadrupole_moment_norm": 13.2065001889, 
			 "total_energy": -1858.34611693, 
			 "HOMO_LUMO_gap": 0.20367, 
			 "cosmo_polarized_energy": -12.01, 
			 "cosmo_cavitation_energy": 31.76, 
			 "cosmo_dispersion_energy": -22.2, 
			 "cosmo_repulsion_energy": 1.78, 
			 "cosmo_total_nonelectrostatic_energy": 11.33, 
			 "SMD_solvation_energy": 5.23 
		},
		"coords": [
			{
				"x": -1.5964535438,
				"y": -1.4420997182,
				"z": 1.8847794166,
				"element": "C" 
			},
			{
				"x": -0.5568611181,
				"y": -0.9341955505,
				"z": 0.9025736005,
				"element": "C" 
			},
			{
				"x": 1.0937551526,
				"y": -0.8541784112,
				"z": 1.7011264837,
				"element": "Cl" 
			},
			{
				"x": -0.4214246631,
				"y": -1.862747203,
				"z": -0.3142058376,
				"element": "C" 
			},
			{
				"x": -0.8124958568,
				"y": -3.0161421605,
				"z": -0.2763139311,
				"element": "O" 
			},
			{
				"x": 0.1880792587,
				"y": -1.3731959862,
				"z": -1.4574013506,
				"element": "N" 
			},
			{
				"x": 0.7418392529,
				"y": -0.1032562454,
				"z": -1.7243547712,
				"element": "C" 
			},
			{
				"x": 2.0818277516,
				"y": 0.0253993031,
				"z": -2.1331011444,
				"element": "C" 
			},
			{
				"x": 3.0897745072,
				"y": -1.3989149196,
				"z": -2.2785196652,
				"element": "Cl" 
			},
			{
				"x": 2.6220792557,
				"y": 1.2740774663,
				"z": -2.4334570604,
				"element": "C" 
			},
			{
				"x": 1.8424237998,
				"y": 2.4236728366,
				"z": -2.3238705599,
				"element": "C" 
			},
			{
				"x": 0.5089583435,
				"y": 2.2985970648,
				"z": -1.9378119228,
				"element": "C" 
			},
			{
				"x": -0.501283264,
				"y": 3.7280125036,
				"z": -1.8316998524,
				"element": "Cl" 
			},
			{
				"x": -0.0486740498,
				"y": 1.0529302622,
				"z": -1.6635269136,
				"element": "C" 
			},
			{
				"x": -1.3778796311,
				"y": -2.4702523972,
				"z": 2.1749033916,
				"element": "H" 
			},
			{
				"x": -1.6245158622,
				"y": -0.8047172067,
				"z": 2.7708472174,
				"element": "H" 
			},
			{
				"x": -2.5820939822,
				"y": -1.4272531249,
				"z": 1.4074334333,
				"element": "H" 
			},
			{
				"x": -0.7588780818,
				"y": 0.0940836721,
				"z": 0.6078564636,
				"element": "H" 
			},
			{
				"x": 0.4364006381,
				"y": -2.1213861062,
				"z": -2.0951841541,
				"element": "H" 
			},
			{
				"x": 3.6592038056,
				"y": 1.3447414625,
				"z": -2.7413133578,
				"element": "H" 
			},
			{
				"x": 2.2622301952,
				"y": 3.3983213632,
				"z": -2.5433541247,
				"element": "H" 
			},
			{
				"x": -1.103511908,
				"y": 0.968503095,
				"z": -1.4311053607,
				"element": "H" 
			}
		],
		 "valence_orbital": [ 
			{
				"type": "occ",
				"energy": -0.31289,
				"method": "rhf"
			},
			{
				"type": "occ",
				"energy": -0.3031,
				"method": "rhf"
			},
			{
				"type": "occ",
				"energy": -0.2735,
				"method": "rhf"
			},
			{
				"type": "occ",
				"energy": -0.26806,
				"method": "rhf"
			},
			{
				"type": "occ",
				"energy": -0.25139,
				"method": "rhf"
			},
			{
				"type": "unocc",
				"energy": -0.04772,
				"method": "rhf"
			},
			{
				"type": "unocc",
				"energy": -0.03997,
				"method": "rhf"
			},
			{
				"type": "unocc",
				"energy": -0.02314,
				"method": "rhf"
			},
			{
				"type": "unocc",
				"energy": 0.00283,
				"method": "rhf"
			},
			{
				"type": "unocc",
				"energy": 0.02417,
				"method": "rhf"
			}
		],
		"cosmo_sigma_profile": { 
			"-0.025": 0.0,
			"-0.024": 0.0,
			"-0.023": 0.0,
			"-0.022": 0.0,
			"-0.021": 0.0,
			"-0.02": 0.0,
			"-0.019": 0.0,
			"-0.018": 0.0,
			"-0.017": 0.0,
			"-0.016": 0.0,
			"-0.015": 0.00685004969603,
			"-0.014": 0.680935314891,
			"-0.013": 0.685737450973,
			"-0.012": 0.970360234837,
			"-0.011": 2.12450356401,
			"-0.01": 2.75798221908,
			"-0.009": 3.53069401362,
			"-0.008": 7.59095362367,
			"-0.007": 8.61058921857,
			"-0.006": 8.456781555,
			"-0.005": 10.0245110058,
			"-0.004": 12.0681453348,
			"-0.003": 13.915391465,
			"-0.002": 15.2980714903,
			"-0.001": 20.6271538571,
			"0.0": 25.1129074412,
			"0.001": 28.5239031247,
			"0.002": 24.0250352481,
			"0.003": 21.0655232847,
			"0.004": 23.6498765377,
			"0.005": 10.3373139569,
			"0.006": 5.25221442775,
			"0.007": 0.964516818912,
			"0.008": 1.47012105905,
			"0.009": 1.93651423324,
			"0.01": 1.67588958852,
			"0.011": 3.09918680407,
			"0.012": 4.88426866677,
			"0.013": 0.84951421099,
			"0.014": 0.0,
			"0.015": 0.0,
			"0.016": 0.0,
			"0.017": 0.0,
			"0.018": 0.0,
			"0.019": 0.0,
			"0.02": 0.0,
			"0.021": 0.0,
			"0.022": 0.0,
			"0.023": 0.0,
			"0.024": 0.0,
			"0.025": 0.0
		}
	}
}
