{
	 "smiles": "CC(=O)CCC1=CC=C(CCC(C)=O)C=C1", 
	 "Tm": 328.65, 
	 "num_atms": 34, 
	 "gaussian": { 
		 "optdone": 1, 
		 "sigma_profile": "yes", 
		 "theory": "DFT", 
		 "functional": "B3LYP", 
		 "basiset": "6-31G**", 
		 "properties": { 
			 "R2extent": 5458.1797, 
			 "electric_dipole_moment_norm": 1.94084851032, 
			 "electric_quadrupole_moment_norm": 25.0513421654, 
			 "total_energy": -694.796281276, 
			 "HOMO_LUMO_gap": 0.21629, 
			 "cosmo_polarized_energy": -15.26, 
			 "cosmo_cavitation_energy": 36.93, 
			 "cosmo_dispersion_energy": -24.93, 
			 "cosmo_repulsion_energy": 1.98, 
			 "cosmo_total_nonelectrostatic_energy": 13.98, 
			 "SMD_solvation_energy": 7.19 
		},
		"coords": [
			{
				"x": 4.0118444267,
				"y": 0.52069787,
				"z": 2.7284821991,
				"element": "C" 
			},
			{
				"x": 2.7485803444,
				"y": 0.0027503427,
				"z": 3.3939864541,
				"element": "C" 
			},
			{
				"x": 2.6229424598,
				"y": -1.1704797859,
				"z": 3.6926903891,
				"element": "O" 
			},
			{
				"x": 1.6427613723,
				"y": 1.0126240019,
				"z": 3.6936501979,
				"element": "C" 
			},
			{
				"x": 1.2398272838,
				"y": 1.9267989733,
				"z": 2.5223213025,
				"element": "C" 
			},
			{
				"x": 0.7402669699,
				"y": 1.2339033571,
				"z": 1.2646908364,
				"element": "C" 
			},
			{
				"x": 0.710821886,
				"y": 1.9481263079,
				"z": 0.0559598009,
				"element": "C" 
			},
			{
				"x": 0.2244910867,
				"y": 1.3737188119,
				"z": -1.1139918025,
				"element": "C" 
			},
			{
				"x": -0.2515028436,
				"y": 0.0534085123,
				"z": -1.125708327,
				"element": "C" 
			},
			{
				"x": -0.7726919281,
				"y": -0.5841626455,
				"z": -2.3994580481,
				"element": "C" 
			},
			{
				"x": -1.9496986013,
				"y": 0.1677970717,
				"z": -3.0606868185,
				"element": "C" 
			},
			{
				"x": -3.207797798,
				"y": 0.3211303216,
				"z": -2.2082511589,
				"element": "C" 
			},
			{
				"x": -3.7349288919,
				"y": -0.9126598502,
				"z": -1.4954341764,
				"element": "C" 
			},
			{
				"x": -3.7781357816,
				"y": 1.392352412,
				"z": -2.1258954547,
				"element": "O" 
			},
			{
				"x": -0.2111676099,
				"y": -0.6614065437,
				"z": 0.0752659178,
				"element": "C" 
			},
			{
				"x": 0.2744955588,
				"y": -0.0852814971,
				"z": 1.2528362351,
				"element": "C" 
			},
			{
				"x": 3.8010342385,
				"y": 0.763755648,
				"z": 1.6803099792,
				"element": "H" 
			},
			{
				"x": 4.7833227328,
				"y": -0.2496196944,
				"z": 2.764277497,
				"element": "H" 
			},
			{
				"x": 4.3723265435,
				"y": 1.4377743425,
				"z": 3.2074428723,
				"element": "H" 
			},
			{
				"x": 0.7871607272,
				"y": 0.4526651493,
				"z": 4.0807029616,
				"element": "H" 
			},
			{
				"x": 2.0007295547,
				"y": 1.6519413182,
				"z": 4.5130827215,
				"element": "H" 
			},
			{
				"x": 0.4581574306,
				"y": 2.6073616929,
				"z": 2.8864856895,
				"element": "H" 
			},
			{
				"x": 2.0836584496,
				"y": 2.5749031691,
				"z": 2.2556343595,
				"element": "H" 
			},
			{
				"x": 1.0742497791,
				"y": 2.9733121775,
				"z": 0.0343954621,
				"element": "H" 
			},
			{
				"x": 0.220292599,
				"y": 1.9583892072,
				"z": -2.0304385959,
				"element": "H" 
			},
			{
				"x": 0.0372792315,
				"y": -0.6434747624,
				"z": -3.1380213463,
				"element": "H" 
			},
			{
				"x": -1.0643106609,
				"y": -1.619348617,
				"z": -2.1909944829,
				"element": "H" 
			},
			{
				"x": -1.6536745506,
				"y": 1.1733362648,
				"z": -3.3715413721,
				"element": "H" 
			},
			{
				"x": -2.239890786,
				"y": -0.3777062189,
				"z": -3.9707052846,
				"element": "H" 
			},
			{
				"x": -3.7265305795,
				"y": -1.7923250605,
				"z": -2.1484776656,
				"element": "H" 
			},
			{
				"x": -3.0943109689,
				"y": -1.1394916063,
				"z": -0.6352221953,
				"element": "H" 
			},
			{
				"x": -4.7474512919,
				"y": -0.719398219,
				"z": -1.1383301942,
				"element": "H" 
			},
			{
				"x": -0.5541076819,
				"y": -1.6934402974,
				"z": 0.0948957701,
				"element": "H" 
			},
			{
				"x": 0.2980572994,
				"y": -0.6851521535,
				"z": 2.1566462775,
				"element": "H" 
			}
		],
		 "valence_orbital": [ 
			{
				"type": "occ",
				"energy": -0.32762,
				"method": "rhf"
			},
			{
				"type": "occ",
				"energy": -0.2523,
				"method": "rhf"
			},
			{
				"type": "occ",
				"energy": -0.24608,
				"method": "rhf"
			},
			{
				"type": "occ",
				"energy": -0.24119,
				"method": "rhf"
			},
			{
				"type": "occ",
				"energy": -0.23459,
				"method": "rhf"
			},
			{
				"type": "unocc",
				"energy": -0.0183,
				"method": "rhf"
			},
			{
				"type": "unocc",
				"energy": -0.01081,
				"method": "rhf"
			},
			{
				"type": "unocc",
				"energy": -0.00477,
				"method": "rhf"
			},
			{
				"type": "unocc",
				"energy": 0.00019,
				"method": "rhf"
			},
			{
				"type": "unocc",
				"energy": 0.07847,
				"method": "rhf"
			}
		],
		"cosmo_sigma_profile": { 
			"-0.025": 0.0,
			"-0.024": 0.0,
			"-0.023": 0.0,
			"-0.022": 0.0,
			"-0.021": 0.0,
			"-0.02": 0.0,
			"-0.019": 0.0,
			"-0.018": 0.0,
			"-0.017": 0.0,
			"-0.016": 0.0,
			"-0.015": 0.0,
			"-0.014": 0.0,
			"-0.013": 0.0,
			"-0.012": 0.0,
			"-0.011": 0.0,
			"-0.01": 0.0,
			"-0.009": 0.0,
			"-0.008": 0.0,
			"-0.007": 0.381563499001,
			"-0.006": 11.3425029766,
			"-0.005": 28.0562167007,
			"-0.004": 40.923088404,
			"-0.003": 35.9893197331,
			"-0.002": 32.8310538891,
			"-0.001": 29.1593389238,
			"0.0": 15.4082992312,
			"0.001": 11.450092429,
			"0.002": 10.1094198604,
			"0.003": 11.5625398637,
			"0.004": 9.13080694807,
			"0.005": 9.26974073997,
			"0.006": 9.96916318027,
			"0.007": 2.8933150346,
			"0.008": 3.22760534758,
			"0.009": 3.19991815495,
			"0.01": 3.73938503224,
			"0.011": 5.18306712304,
			"0.012": 8.94585152477,
			"0.013": 5.97808557443,
			"0.014": 0.873580063517,
			"0.015": 0.0,
			"0.016": 0.0,
			"0.017": 0.0,
			"0.018": 0.0,
			"0.019": 0.0,
			"0.02": 0.0,
			"0.021": 0.0,
			"0.022": 0.0,
			"0.023": 0.0,
			"0.024": 0.0,
			"0.025": 0.0
		}
	}
}
