{
	 "smiles": "FC1=C2C(=O)OC(=O)C2=C(F)C=C1", 
	 "Tm": 492.15, 
	 "num_atms": 15, 
	 "gaussian": { 
		 "optdone": 1, 
		 "sigma_profile": "yes", 
		 "theory": "DFT", 
		 "functional": "B3LYP", 
		 "basiset": "6-31G**", 
		 "properties": { 
			 "R2extent": 2652.861, 
			 "electric_dipole_moment_norm": 5.55080172227, 
			 "electric_quadrupole_moment_norm": 12.5149616212, 
			 "total_energy": -731.398345024, 
			 "HOMO_LUMO_gap": 0.17441, 
			 "cosmo_polarized_energy": -11.99, 
			 "cosmo_cavitation_energy": 22.28, 
			 "cosmo_dispersion_energy": -16.13, 
			 "cosmo_repulsion_energy": 1.21, 
			 "cosmo_total_nonelectrostatic_energy": 7.36, 
			 "SMD_solvation_energy": 6.75 
		},
		"coords": [
			{
				"x": -1.9021536659,
				"y": -3.3696670373,
				"z": 1.6646153041,
				"element": "F" 
			},
			{
				"x": -1.2776571738,
				"y": -2.5572214469,
				"z": 0.8092208333,
				"element": "C" 
			},
			{
				"x": -1.360842204,
				"y": -1.1784461672,
				"z": 0.9360516804,
				"element": "C" 
			},
			{
				"x": -2.0670257335,
				"y": -0.3192967716,
				"z": 1.9188601361,
				"element": "C" 
			},
			{
				"x": -2.7504783107,
				"y": -0.6035275945,
				"z": 2.8595178616,
				"element": "O" 
			},
			{
				"x": -1.7998237965,
				"y": 1.0055363318,
				"z": 1.5603706958,
				"element": "O" 
			},
			{
				"x": -0.9798171194,
				"y": 1.0621244509,
				"z": 0.4292388837,
				"element": "C" 
			},
			{
				"x": -0.624529006,
				"y": 2.0980493787,
				"z": -0.0538377732,
				"element": "O" 
			},
			{
				"x": -0.7015771819,
				"y": -0.3407847118,
				"z": 0.032770604,
				"element": "C" 
			},
			{
				"x": 0.0472448919,
				"y": -0.8738241399,
				"z": -1.0060565367,
				"element": "C" 
			},
			{
				"x": 0.6823501072,
				"y": -0.0858846096,
				"z": -1.8764371262,
				"element": "F" 
			},
			{
				"x": 0.1343582293,
				"y": -2.2626886514,
				"z": -1.1382662245,
				"element": "C" 
			},
			{
				"x": -0.5242410298,
				"y": -3.0994928307,
				"z": -0.2359161881,
				"element": "C" 
			},
			{
				"x": 0.720528394,
				"y": -2.6766631856,
				"z": -1.9513858768,
				"element": "H" 
			},
			{
				"x": -0.460936401,
				"y": -4.1778130148,
				"z": -0.3326462734,
				"element": "H" 
			}
		],
		 "valence_orbital": [ 
			{
				"type": "occ",
				"energy": -0.34153,
				"method": "rhf"
			},
			{
				"type": "occ",
				"energy": -0.32475,
				"method": "rhf"
			},
			{
				"type": "occ",
				"energy": -0.31423,
				"method": "rhf"
			},
			{
				"type": "occ",
				"energy": -0.29716,
				"method": "rhf"
			},
			{
				"type": "occ",
				"energy": -0.28424,
				"method": "rhf"
			},
			{
				"type": "unocc",
				"energy": -0.10983,
				"method": "rhf"
			},
			{
				"type": "unocc",
				"energy": -0.0602,
				"method": "rhf"
			},
			{
				"type": "unocc",
				"energy": 0.0019,
				"method": "rhf"
			},
			{
				"type": "unocc",
				"energy": 0.04775,
				"method": "rhf"
			},
			{
				"type": "unocc",
				"energy": 0.05658,
				"method": "rhf"
			}
		],
		"cosmo_sigma_profile": { 
			"-0.025": 0.0,
			"-0.024": 0.0,
			"-0.023": 0.0,
			"-0.022": 0.0,
			"-0.021": 0.0,
			"-0.02": 0.0,
			"-0.019": 0.0,
			"-0.018": 0.0,
			"-0.017": 0.0,
			"-0.016": 0.0,
			"-0.015": 0.0,
			"-0.014": 0.0,
			"-0.013": 0.0,
			"-0.012": 0.0,
			"-0.011": 0.0493348069769,
			"-0.01": 4.03676238131,
			"-0.009": 5.81303708985,
			"-0.008": 6.49830297027,
			"-0.007": 6.14613452377,
			"-0.006": 7.24102072275,
			"-0.005": 8.68808122877,
			"-0.004": 15.0249728686,
			"-0.003": 17.0643890831,
			"-0.002": 11.0877099241,
			"-0.001": 10.272113934,
			"0.0": 6.37008373368,
			"0.001": 6.72622620206,
			"0.002": 14.8108980011,
			"0.003": 12.9786047549,
			"0.004": 6.47820418468,
			"0.005": 5.3410920698,
			"0.006": 8.1820585998,
			"0.007": 7.00331898642,
			"0.008": 7.57453379833,
			"0.009": 10.7624990618,
			"0.01": 3.56117337425,
			"0.011": 0.0706879776121,
			"0.012": 0.0,
			"0.013": 0.0,
			"0.014": 0.0,
			"0.015": 0.0,
			"0.016": 0.0,
			"0.017": 0.0,
			"0.018": 0.0,
			"0.019": 0.0,
			"0.02": 0.0,
			"0.021": 0.0,
			"0.022": 0.0,
			"0.023": 0.0,
			"0.024": 0.0,
			"0.025": 0.0
		}
	}
}
