{
	 "smiles": "CC1=NOC(=C1C(O)=O)C(F)(F)F", 
	 "Tm": 414.15, 
	 "num_atms": 17, 
	 "gaussian": { 
		 "optdone": 1, 
		 "sigma_profile": "yes", 
		 "theory": "DFT", 
		 "functional": "B3LYP", 
		 "basiset": "6-31G**", 
		 "properties": { 
			 "R2extent": 2931.2623, 
			 "electric_dipole_moment_norm": 4.47458294258, 
			 "electric_quadrupole_moment_norm": 19.7571885105, 
			 "total_energy": -810.939219257, 
			 "HOMO_LUMO_gap": 0.21947, 
			 "cosmo_polarized_energy": -15.61, 
			 "cosmo_cavitation_energy": 23.66, 
			 "cosmo_dispersion_energy": -16.97, 
			 "cosmo_repulsion_energy": 1.28, 
			 "cosmo_total_nonelectrostatic_energy": 7.98, 
			 "SMD_solvation_energy": 6.31 
		},
		"coords": [
			{
				"x": -1.4568787116,
				"y": -0.0857450296,
				"z": 3.0267048619,
				"element": "C" 
			},
			{
				"x": -0.7125290906,
				"y": 0.1254494124,
				"z": 1.7423364412,
				"element": "C" 
			},
			{
				"x": -1.2359119053,
				"y": -0.3248420817,
				"z": 0.624935993,
				"element": "N" 
			},
			{
				"x": -0.3306852866,
				"y": 0.0065736786,
				"z": -0.385928149,
				"element": "O" 
			},
			{
				"x": 0.7158654035,
				"y": 0.6359795563,
				"z": 0.1513953277,
				"element": "C" 
			},
			{
				"x": 0.557041886,
				"y": 0.759621052,
				"z": 1.5070209185,
				"element": "C" 
			},
			{
				"x": 1.544152183,
				"y": 1.3694733589,
				"z": 2.4358477241,
				"element": "C" 
			},
			{
				"x": 1.1155450545,
				"y": 1.6305645731,
				"z": 3.6971229141,
				"element": "O" 
			},
			{
				"x": 2.6798623488,
				"y": 1.615867974,
				"z": 2.1133902938,
				"element": "O" 
			},
			{
				"x": 1.810699014,
				"y": 1.056136805,
				"z": -0.8045324889,
				"element": "C" 
			},
			{
				"x": 2.9235288677,
				"y": 0.3386501146,
				"z": -0.6009030249,
				"element": "F" 
			},
			{
				"x": 1.40968824,
				"y": 0.8604007842,
				"z": -2.0717732218,
				"element": "F" 
			},
			{
				"x": 2.1009105946,
				"y": 2.355295218,
				"z": -0.6503510924,
				"element": "F" 
			},
			{
				"x": -2.3198039881,
				"y": -0.7284182216,
				"z": 2.8438811345,
				"element": "H" 
			},
			{
				"x": -0.8231189452,
				"y": -0.5623322927,
				"z": 3.7813081231,
				"element": "H" 
			},
			{
				"x": -1.8368715714,
				"y": 0.8605730165,
				"z": 3.4330481231,
				"element": "H" 
			},
			{
				"x": 0.1652059066,
				"y": 1.481152082,
				"z": 3.789596122,
				"element": "H" 
			}
		],
		 "valence_orbital": [ 
			{
				"type": "occ",
				"energy": -0.34634,
				"method": "rhf"
			},
			{
				"type": "occ",
				"energy": -0.34065,
				"method": "rhf"
			},
			{
				"type": "occ",
				"energy": -0.32661,
				"method": "rhf"
			},
			{
				"type": "occ",
				"energy": -0.30363,
				"method": "rhf"
			},
			{
				"type": "occ",
				"energy": -0.29245,
				"method": "rhf"
			},
			{
				"type": "unocc",
				"energy": -0.07298,
				"method": "rhf"
			},
			{
				"type": "unocc",
				"energy": -0.03037,
				"method": "rhf"
			},
			{
				"type": "unocc",
				"energy": 0.03195,
				"method": "rhf"
			},
			{
				"type": "unocc",
				"energy": 0.06616,
				"method": "rhf"
			},
			{
				"type": "unocc",
				"energy": 0.07183,
				"method": "rhf"
			}
		],
		"cosmo_sigma_profile": { 
			"-0.025": 0.0,
			"-0.024": 0.0,
			"-0.023": 0.0,
			"-0.022": 0.0,
			"-0.021": 0.0,
			"-0.02": 0.0,
			"-0.019": 0.0,
			"-0.018": 0.385741960939,
			"-0.017": 1.40332327035,
			"-0.016": 1.37129261284,
			"-0.015": 0.855319033238,
			"-0.014": 0.829365840138,
			"-0.013": 1.04650809319,
			"-0.012": 1.55338056433,
			"-0.011": 1.61162330738,
			"-0.01": 1.58882990136,
			"-0.009": 2.98128315056,
			"-0.008": 4.53764164094,
			"-0.007": 5.85314390841,
			"-0.006": 8.73175220443,
			"-0.005": 9.81367007752,
			"-0.004": 12.1683271881,
			"-0.003": 12.4069876019,
			"-0.002": 8.64097033737,
			"-0.001": 7.62997425007,
			"0.0": 8.48601486624,
			"0.001": 20.0122198466,
			"0.002": 22.0477723047,
			"0.003": 7.30100034219,
			"0.004": 6.20238438469,
			"0.005": 7.5221365908,
			"0.006": 5.72853077155,
			"0.007": 4.62731187628,
			"0.008": 5.85307154986,
			"0.009": 6.47629194772,
			"0.01": 5.56271033979,
			"0.011": 4.32579377147,
			"0.012": 2.5375670909,
			"0.013": 0.147422824181,
			"0.014": 0.0,
			"0.015": 0.0,
			"0.016": 0.0,
			"0.017": 0.0,
			"0.018": 0.0,
			"0.019": 0.0,
			"0.02": 0.0,
			"0.021": 0.0,
			"0.022": 0.0,
			"0.023": 0.0,
			"0.024": 0.0,
			"0.025": 0.0
		}
	}
}
