{
	 "smiles": "BrC1=CC=C(C=C1)C(=O)NCC#N", 
	 "Tm": 444.15, 
	 "num_atms": 20, 
	 "gaussian": { 
		 "optdone": 1, 
		 "sigma_profile": "yes", 
		 "theory": "DFT", 
		 "functional": "B3LYP", 
		 "basiset": "6-31G**", 
		 "properties": { 
			 "R2extent": 6581.471, 
			 "electric_dipole_moment_norm": 3.04594302146, 
			 "electric_quadrupole_moment_norm": 15.0372730553, 
			 "total_energy": -3103.29075305, 
			 "HOMO_LUMO_gap": 0.19942, 
			 "cosmo_polarized_energy": -16.95, 
			 "cosmo_cavitation_energy": 28.18, 
			 "cosmo_dispersion_energy": -20.14, 
			 "cosmo_repulsion_energy": 1.61, 
			 "cosmo_total_nonelectrostatic_energy": 9.65, 
			 "SMD_solvation_energy": 5.29 
		},
		"coords": [
			{
				"x": 2.9649614153,
				"y": -3.9008371739,
				"z": -1.8080571719,
				"element": "Br" 
			},
			{
				"x": 2.2956113232,
				"y": -2.7878553374,
				"z": -0.4108170137,
				"element": "C" 
			},
			{
				"x": 2.8626472651,
				"y": -2.8706765705,
				"z": 0.8623308841,
				"element": "C" 
			},
			{
				"x": 2.3722713372,
				"y": -2.0532421901,
				"z": 1.8757525673,
				"element": "C" 
			},
			{
				"x": 1.3046468777,
				"y": -1.1759055522,
				"z": 1.6365083518,
				"element": "C" 
			},
			{
				"x": 0.7607163536,
				"y": -1.0975351282,
				"z": 0.3463048636,
				"element": "C" 
			},
			{
				"x": 1.2558595089,
				"y": -1.9000666968,
				"z": -0.6819021826,
				"element": "C" 
			},
			{
				"x": 0.8809987765,
				"y": -0.2879029625,
				"z": 2.7691127048,
				"element": "C" 
			},
			{
				"x": 1.6919948105,
				"y": 0.1515947895,
				"z": 3.5727419408,
				"element": "O" 
			},
			{
				"x": -0.4568775636,
				"y": 0.0538792206,
				"z": 2.883737417,
				"element": "N" 
			},
			{
				"x": -1.6063030096,
				"y": -0.6798034675,
				"z": 2.3851620975,
				"element": "C" 
			},
			{
				"x": -2.3563028365,
				"y": 0.0493329161,
				"z": 1.3415734659,
				"element": "C" 
			},
			{
				"x": -2.9364997302,
				"y": 0.6280430306,
				"z": 0.5201078936,
				"element": "N" 
			},
			{
				"x": 3.6792529398,
				"y": -3.5577971035,
				"z": 1.0516722345,
				"element": "H" 
			},
			{
				"x": 2.8158908804,
				"y": -2.0787211942,
				"z": 2.8653935079,
				"element": "H" 
			},
			{
				"x": -0.0291523816,
				"y": -0.3879125973,
				"z": 0.1203331026,
				"element": "H" 
			},
			{
				"x": 0.8427855273,
				"y": -1.8302646628,
				"z": -1.68148333,
				"element": "H" 
			},
			{
				"x": -0.6204183079,
				"y": 0.6874171944,
				"z": 3.6561827047,
				"element": "H" 
			},
			{
				"x": -1.283068352,
				"y": -1.6384493232,
				"z": 1.9712831598,
				"element": "H" 
			},
			{
				"x": -2.2968148341,
				"y": -0.903897191,
				"z": 3.2069628024,
				"element": "H" 
			}
		],
		 "valence_orbital": [ 
			{
				"type": "occ",
				"energy": -0.29842,
				"method": "rhf"
			},
			{
				"type": "occ",
				"energy": -0.28631,
				"method": "rhf"
			},
			{
				"type": "occ",
				"energy": -0.28087,
				"method": "rhf"
			},
			{
				"type": "occ",
				"energy": -0.27231,
				"method": "rhf"
			},
			{
				"type": "occ",
				"energy": -0.25502,
				"method": "rhf"
			},
			{
				"type": "unocc",
				"energy": -0.0556,
				"method": "rhf"
			},
			{
				"type": "unocc",
				"energy": -0.03092,
				"method": "rhf"
			},
			{
				"type": "unocc",
				"energy": -0.00449,
				"method": "rhf"
			},
			{
				"type": "unocc",
				"energy": 0.00707,
				"method": "rhf"
			},
			{
				"type": "unocc",
				"energy": 0.0175,
				"method": "rhf"
			}
		],
		"cosmo_sigma_profile": { 
			"-0.025": 0.0,
			"-0.024": 0.0,
			"-0.023": 0.0,
			"-0.022": 0.0,
			"-0.021": 0.0,
			"-0.02": 0.0,
			"-0.019": 0.0,
			"-0.018": 0.0,
			"-0.017": 0.0,
			"-0.016": 0.0098933452908,
			"-0.015": 1.27371470227,
			"-0.014": 1.44374015697,
			"-0.013": 1.2597823604,
			"-0.012": 1.61108597598,
			"-0.011": 2.33503615565,
			"-0.01": 5.84654202019,
			"-0.009": 4.68519872296,
			"-0.008": 6.75080733123,
			"-0.007": 10.0158115166,
			"-0.006": 11.1924172819,
			"-0.005": 11.9843559984,
			"-0.004": 10.7532001108,
			"-0.003": 11.5750415689,
			"-0.002": 10.7591032254,
			"-0.001": 11.6393150807,
			"0.0": 14.151302611,
			"0.001": 19.7662405359,
			"0.002": 21.2538089421,
			"0.003": 14.3398171567,
			"0.004": 14.5563235673,
			"0.005": 5.56957033403,
			"0.006": 3.42965533067,
			"0.007": 4.46580194084,
			"0.008": 4.87321991148,
			"0.009": 4.54423971552,
			"0.01": 4.25315935664,
			"0.011": 3.96647297818,
			"0.012": 6.1054913473,
			"0.013": 5.46547240147,
			"0.014": 0.497920210242,
			"0.015": 0.0,
			"0.016": 0.0,
			"0.017": 0.0,
			"0.018": 0.0,
			"0.019": 0.0,
			"0.02": 0.0,
			"0.021": 0.0,
			"0.022": 0.0,
			"0.023": 0.0,
			"0.024": 0.0,
			"0.025": 0.0
		}
	}
}
