{
	 "smiles": "NC1=CC(=NO1)C1=CC(Cl)=CC(Cl)=C1", 
	 "Tm": 406.15, 
	 "num_atms": 20, 
	 "gaussian": { 
		 "optdone": 1, 
		 "sigma_profile": "yes", 
		 "theory": "DFT", 
		 "functional": "B3LYP", 
		 "basiset": "6-31G**", 
		 "properties": { 
			 "R2extent": 5345.574, 
			 "electric_dipole_moment_norm": 4.94568550254, 
			 "electric_quadrupole_moment_norm": 15.2414309522, 
			 "total_energy": -1451.63949256, 
			 "HOMO_LUMO_gap": 0.17794, 
			 "cosmo_polarized_energy": -13.63, 
			 "cosmo_cavitation_energy": 29.09, 
			 "cosmo_dispersion_energy": -21.84, 
			 "cosmo_repulsion_energy": 1.72, 
			 "cosmo_total_nonelectrostatic_energy": 8.98, 
			 "SMD_solvation_energy": 4.49 
		},
		"coords": [
			{
				"x": -1.694103138,
				"y": -3.5290945345,
				"z": 0.0599455426,
				"element": "N" 
			},
			{
				"x": -1.4674162871,
				"y": -2.1775657746,
				"z": 0.0218615109,
				"element": "C" 
			},
			{
				"x": -0.3335732251,
				"y": -1.4103210554,
				"z": -0.0404234365,
				"element": "C" 
			},
			{
				"x": -0.840966694,
				"y": -0.0812965973,
				"z": -0.1276083741,
				"element": "C" 
			},
			{
				"x": -2.1610605041,
				"y": -0.0482712162,
				"z": -0.1173507445,
				"element": "N" 
			},
			{
				"x": -2.561191878,
				"y": -1.3955708858,
				"z": -0.0194336128,
				"element": "O" 
			},
			{
				"x": -0.0850626261,
				"y": 1.1826828427,
				"z": -0.220560467,
				"element": "C" 
			},
			{
				"x": 1.3150583462,
				"y": 1.1713842531,
				"z": -0.2638908151,
				"element": "C" 
			},
			{
				"x": 2.0074069582,
				"y": 2.3768724031,
				"z": -0.3509465897,
				"element": "C" 
			},
			{
				"x": 3.7628753373,
				"y": 2.3539642342,
				"z": -0.4042950981,
				"element": "Cl" 
			},
			{
				"x": 1.3470271463,
				"y": 3.6021576243,
				"z": -0.3972974432,
				"element": "C" 
			},
			{
				"x": -0.0486127854,
				"y": 3.5895665929,
				"z": -0.3535789994,
				"element": "C" 
			},
			{
				"x": -0.9063723722,
				"y": 5.1201900246,
				"z": -0.4102947474,
				"element": "Cl" 
			},
			{
				"x": -0.7720886012,
				"y": 2.4064692801,
				"z": -0.2660715031,
				"element": "C" 
			},
			{
				"x": -0.945010613,
				"y": -4.0870130681,
				"z": 0.4424173094,
				"element": "H" 
			},
			{
				"x": -2.6122208587,
				"y": -3.7971451087,
				"z": 0.3876330245,
				"element": "H" 
			},
			{
				"x": 0.6898390743,
				"y": -1.7480967997,
				"z": -0.031528841,
				"element": "H" 
			},
			{
				"x": 1.8672994569,
				"y": 0.2403515244,
				"z": -0.2327663813,
				"element": "H" 
			},
			{
				"x": 1.8965193743,
				"y": 4.5325479428,
				"z": -0.4650174399,
				"element": "H" 
			},
			{
				"x": -1.8543461106,
				"y": 2.418288318,
				"z": -0.2330928943,
				"element": "H" 
			}
		],
		 "valence_orbital": [ 
			{
				"type": "occ",
				"energy": -0.30708,
				"method": "rhf"
			},
			{
				"type": "occ",
				"energy": -0.30114,
				"method": "rhf"
			},
			{
				"type": "occ",
				"energy": -0.25377,
				"method": "rhf"
			},
			{
				"type": "occ",
				"energy": -0.25282,
				"method": "rhf"
			},
			{
				"type": "occ",
				"energy": -0.22807,
				"method": "rhf"
			},
			{
				"type": "unocc",
				"energy": -0.05013,
				"method": "rhf"
			},
			{
				"type": "unocc",
				"energy": -0.02467,
				"method": "rhf"
			},
			{
				"type": "unocc",
				"energy": 0.00598,
				"method": "rhf"
			},
			{
				"type": "unocc",
				"energy": 0.01966,
				"method": "rhf"
			},
			{
				"type": "unocc",
				"energy": 0.04745,
				"method": "rhf"
			}
		],
		"cosmo_sigma_profile": { 
			"-0.025": 0.0,
			"-0.024": 0.0,
			"-0.023": 0.0,
			"-0.022": 0.0,
			"-0.021": 0.0,
			"-0.02": 0.0,
			"-0.019": 0.0,
			"-0.018": 0.0,
			"-0.017": 0.0,
			"-0.016": 0.0,
			"-0.015": 1.34696159942,
			"-0.014": 2.93882617506,
			"-0.013": 2.35654534796,
			"-0.012": 2.89612432851,
			"-0.011": 2.5182607426,
			"-0.01": 2.8435478279,
			"-0.009": 4.33801167688,
			"-0.008": 7.01251181893,
			"-0.007": 6.10635530872,
			"-0.006": 5.63991001175,
			"-0.005": 6.41421494606,
			"-0.004": 6.97600971108,
			"-0.003": 6.96371089853,
			"-0.002": 12.6073202385,
			"-0.001": 12.7340816284,
			"0.0": 23.3094040524,
			"0.001": 35.9796895073,
			"0.002": 22.0962577515,
			"0.003": 21.8799477431,
			"0.004": 23.0087199767,
			"0.005": 6.16384563563,
			"0.006": 3.16244379053,
			"0.007": 2.95394186272,
			"0.008": 6.37694825804,
			"0.009": 3.10273008014,
			"0.01": 1.35574161278,
			"0.011": 2.80681009968,
			"0.012": 1.38154483145,
			"0.013": 1.08705949278,
			"0.014": 0.300280905879,
			"0.015": 0.0,
			"0.016": 0.0,
			"0.017": 0.0,
			"0.018": 0.0,
			"0.019": 0.0,
			"0.02": 0.0,
			"0.021": 0.0,
			"0.022": 0.0,
			"0.023": 0.0,
			"0.024": 0.0,
			"0.025": 0.0
		}
	}
}
