{
	 "smiles": "CC(C)(C)OC(=O)N1CC(F)(F)C[C@H]1C(O)=O", 
	 "Tm": 395.15, 
	 "num_atms": 32, 
	 "gaussian": { 
		 "optdone": 1, 
		 "sigma_profile": "yes", 
		 "theory": "DFT", 
		 "functional": "B3LYP", 
		 "basiset": "6-31G**", 
		 "properties": { 
			 "R2extent": 5555.6621, 
			 "electric_dipole_moment_norm": 1.18744388499, 
			 "electric_quadrupole_moment_norm": 12.5717376754, 
			 "total_energy": -945.481453167, 
			 "HOMO_LUMO_gap": 0.25168, 
			 "cosmo_polarized_energy": -14.99, 
			 "cosmo_cavitation_energy": 35.34, 
			 "cosmo_dispersion_energy": -23.73, 
			 "cosmo_repulsion_energy": 1.83, 
			 "cosmo_total_nonelectrostatic_energy": 13.44, 
			 "SMD_solvation_energy": 8.0 
		},
		"coords": [
			{
				"x": 2.2046527082,
				"y": 0.7020560568,
				"z": -1.6307673151,
				"element": "C" 
			},
			{
				"x": 0.7783525906,
				"y": 1.0501015326,
				"z": -1.1982915662,
				"element": "C" 
			},
			{
				"x": -0.1741478415,
				"y": 1.0398184382,
				"z": -2.3982443747,
				"element": "C" 
			},
			{
				"x": 0.7466481221,
				"y": 2.3804197905,
				"z": -0.4393916196,
				"element": "C" 
			},
			{
				"x": 0.4437950911,
				"y": -0.0568142652,
				"z": -0.2830465138,
				"element": "O" 
			},
			{
				"x": -0.7565587954,
				"y": -0.1067462383,
				"z": 0.3325271959,
				"element": "C" 
			},
			{
				"x": -1.6810134234,
				"y": 0.6819814577,
				"z": 0.2106622981,
				"element": "O" 
			},
			{
				"x": -0.8319470309,
				"y": -1.2228360175,
				"z": 1.1265653555,
				"element": "N" 
			},
			{
				"x": 0.2714753042,
				"y": -2.1376884284,
				"z": 1.415117612,
				"element": "C" 
			},
			{
				"x": -0.3178549928,
				"y": -3.0583387726,
				"z": 2.4941634547,
				"element": "C" 
			},
			{
				"x": 0.0656510485,
				"y": -4.356446402,
				"z": 2.3202032195,
				"element": "F" 
			},
			{
				"x": 0.1349667023,
				"y": -2.6745096302,
				"z": 3.7331509076,
				"element": "F" 
			},
			{
				"x": -1.831909951,
				"y": -2.8796524001,
				"z": 2.4337164378,
				"element": "C" 
			},
			{
				"x": -1.9745585065,
				"y": -1.4064061476,
				"z": 2.005028988,
				"element": "C" 
			},
			{
				"x": -1.9209020232,
				"y": -0.4455122405,
				"z": 3.2003424742,
				"element": "C" 
			},
			{
				"x": -3.0497116881,
				"y": -0.5483119096,
				"z": 3.9394009776,
				"element": "O" 
			},
			{
				"x": -1.0107102035,
				"y": 0.3001515066,
				"z": 3.4673431325,
				"element": "O" 
			},
			{
				"x": 2.2314023158,
				"y": -0.2709716215,
				"z": -2.1300434538,
				"element": "H" 
			},
			{
				"x": 2.5801253874,
				"y": 1.4584343112,
				"z": -2.3262227726,
				"element": "H" 
			},
			{
				"x": 2.8727081832,
				"y": 0.6652506371,
				"z": -0.7654377144,
				"element": "H" 
			},
			{
				"x": -0.1569553828,
				"y": 0.0616817848,
				"z": -2.889594691,
				"element": "H" 
			},
			{
				"x": -1.195118029,
				"y": 1.2633085527,
				"z": -2.0880553328,
				"element": "H" 
			},
			{
				"x": 0.1470059468,
				"y": 1.7909282831,
				"z": -3.1271850568,
				"element": "H" 
			},
			{
				"x": -0.2648350416,
				"y": 2.619656508,
				"z": -0.1107286948,
				"element": "H" 
			},
			{
				"x": 1.1066730245,
				"y": 3.1822945669,
				"z": -1.0921874417,
				"element": "H" 
			},
			{
				"x": 1.4010635742,
				"y": 2.3338689642,
				"z": 0.4364891822,
				"element": "H" 
			},
			{
				"x": 0.5531420946,
				"y": -2.7199356715,
				"z": 0.5327354848,
				"element": "H" 
			},
			{
				"x": 1.1548358515,
				"y": -1.620557949,
				"z": 1.7992536376,
				"element": "H" 
			},
			{
				"x": -2.2351869511,
				"y": -3.533409677,
				"z": 1.656224178,
				"element": "H" 
			},
			{
				"x": -2.3055250088,
				"y": -3.113587393,
				"z": 3.3876940752,
				"element": "H" 
			},
			{
				"x": -2.908101619,
				"y": -1.2152514411,
				"z": 1.4709226439,
				"element": "H" 
			},
			{
				"x": -2.9537614564,
				"y": 0.0762238146,
				"z": 4.6780552921,
				"element": "H" 
			}
		],
		 "valence_orbital": [ 
			{
				"type": "occ",
				"energy": -0.32542,
				"method": "rhf"
			},
			{
				"type": "occ",
				"energy": -0.29124,
				"method": "rhf"
			},
			{
				"type": "occ",
				"energy": -0.28495,
				"method": "rhf"
			},
			{
				"type": "occ",
				"energy": -0.26755,
				"method": "rhf"
			},
			{
				"type": "occ",
				"energy": -0.25054,
				"method": "rhf"
			},
			{
				"type": "unocc",
				"energy": 0.00114,
				"method": "rhf"
			},
			{
				"type": "unocc",
				"energy": 0.04066,
				"method": "rhf"
			},
			{
				"type": "unocc",
				"energy": 0.07146,
				"method": "rhf"
			},
			{
				"type": "unocc",
				"energy": 0.08097,
				"method": "rhf"
			},
			{
				"type": "unocc",
				"energy": 0.09197,
				"method": "rhf"
			}
		],
		"cosmo_sigma_profile": { 
			"-0.025": 0.0,
			"-0.024": 0.0,
			"-0.023": 0.0,
			"-0.022": 0.0,
			"-0.021": 0.0,
			"-0.02": 0.0,
			"-0.019": 0.441335897696,
			"-0.018": 0.959337677003,
			"-0.017": 0.970957466364,
			"-0.016": 0.903750480395,
			"-0.015": 0.464894528045,
			"-0.014": 0.702087111436,
			"-0.013": 0.53949345132,
			"-0.012": 0.831316839086,
			"-0.011": 0.948212485975,
			"-0.01": 0.435567283358,
			"-0.009": 0.547525120812,
			"-0.008": 3.41047574167,
			"-0.007": 9.58117486068,
			"-0.006": 10.1599070162,
			"-0.005": 10.2506465625,
			"-0.004": 21.9884553089,
			"-0.003": 24.0160619545,
			"-0.002": 21.0842895069,
			"-0.001": 24.1958900601,
			"0.0": 29.4353394884,
			"0.001": 22.0667648468,
			"0.002": 10.4540082613,
			"0.003": 12.3095615648,
			"0.004": 22.7728065136,
			"0.005": 11.8745483669,
			"0.006": 4.9472021911,
			"0.007": 6.01844043642,
			"0.008": 4.63225506896,
			"0.009": 4.03369257893,
			"0.01": 4.42120825587,
			"0.011": 6.1094293835,
			"0.012": 2.43117763333,
			"0.013": 2.19538788639,
			"0.014": 0.0,
			"0.015": 0.0,
			"0.016": 0.0,
			"0.017": 0.0,
			"0.018": 0.0,
			"0.019": 0.0,
			"0.02": 0.0,
			"0.021": 0.0,
			"0.022": 0.0,
			"0.023": 0.0,
			"0.024": 0.0,
			"0.025": 0.0
		}
	}
}
