{
	 "smiles": "COCC(C)N1C(C)=CC(C(=O)CCl)=C1C", 
	 "Tm": 514.15, 
	 "num_atms": 34, 
	 "gaussian": { 
		 "optdone": 1, 
		 "sigma_profile": "yes", 
		 "theory": "DFT", 
		 "functional": "B3LYP", 
		 "basiset": "6-31G**", 
		 "properties": { 
			 "R2extent": 6103.0999, 
			 "electric_dipole_moment_norm": 8.82128634667, 
			 "electric_quadrupole_moment_norm": 29.3426863702, 
			 "total_energy": -1133.50235804, 
			 "HOMO_LUMO_gap": 0.18329, 
			 "cosmo_polarized_energy": -17.54, 
			 "cosmo_cavitation_energy": 37.1, 
			 "cosmo_dispersion_energy": -25.82, 
			 "cosmo_repulsion_energy": 2.04, 
			 "cosmo_total_nonelectrostatic_energy": 13.32, 
			 "SMD_solvation_energy": 7.16 
		},
		"coords": [
			{
				"x": 0.9308496118,
				"y": 1.5100486027,
				"z": 3.3251908716,
				"element": "C" 
			},
			{
				"x": 0.8248845957,
				"y": 1.4087646623,
				"z": 1.9178622007,
				"element": "O" 
			},
			{
				"x": -0.498252913,
				"y": 1.5733856944,
				"z": 1.4518936479,
				"element": "C" 
			},
			{
				"x": -0.5801090821,
				"y": 1.4343095428,
				"z": -0.0762245218,
				"element": "C" 
			},
			{
				"x": 0.4189782743,
				"y": 2.3288909043,
				"z": -0.8227256271,
				"element": "C" 
			},
			{
				"x": -0.6035545644,
				"y": 0.0337899389,
				"z": -0.5448121658,
				"element": "N" 
			},
			{
				"x": -1.801415181,
				"y": -0.5899336591,
				"z": -0.9272428551,
				"element": "C" 
			},
			{
				"x": -3.1400183832,
				"y": 0.0793987451,
				"z": -0.8830865361,
				"element": "C" 
			},
			{
				"x": -1.5004721711,
				"y": -1.8593618814,
				"z": -1.3288337738,
				"element": "C" 
			},
			{
				"x": -0.0887879687,
				"y": -2.0453224501,
				"z": -1.2051949616,
				"element": "C" 
			},
			{
				"x": 0.524475971,
				"y": -3.322852064,
				"z": -1.6094263007,
				"element": "C" 
			},
			{
				"x": -0.1641346454,
				"y": -4.2513058789,
				"z": -2.0015584967,
				"element": "O" 
			},
			{
				"x": 2.0542125036,
				"y": -3.4604818683,
				"z": -1.5388385662,
				"element": "C" 
			},
			{
				"x": 2.6591576336,
				"y": -4.9949374823,
				"z": -2.2468098309,
				"element": "Cl" 
			},
			{
				"x": 0.4483610461,
				"y": -0.8524297864,
				"z": -0.7050825255,
				"element": "C" 
			},
			{
				"x": 1.8664462764,
				"y": -0.4957568865,
				"z": -0.3685234572,
				"element": "C" 
			},
			{
				"x": 0.598445165,
				"y": 2.4958383344,
				"z": 3.6849274205,
				"element": "H" 
			},
			{
				"x": 1.9838765665,
				"y": 1.3755240848,
				"z": 3.5811001667,
				"element": "H" 
			},
			{
				"x": 0.3366579237,
				"y": 0.7359113972,
				"z": 3.8334763773,
				"element": "H" 
			},
			{
				"x": -0.8669973601,
				"y": 2.5780576557,
				"z": 1.7229038186,
				"element": "H" 
			},
			{
				"x": -1.1706704413,
				"y": 0.8365598011,
				"z": 1.9195810779,
				"element": "H" 
			},
			{
				"x": -1.5748469045,
				"y": 1.8114493134,
				"z": -0.3238392184,
				"element": "H" 
			},
			{
				"x": 0.2101368766,
				"y": 3.3763165617,
				"z": -0.5825473615,
				"element": "H" 
			},
			{
				"x": 0.3100038944,
				"y": 2.198344073,
				"z": -1.9026691166,
				"element": "H" 
			},
			{
				"x": 1.4523867155,
				"y": 2.1279685229,
				"z": -0.5443877841,
				"element": "H" 
			},
			{
				"x": -3.8954442144,
				"y": -0.636536474,
				"z": -1.2151033019,
				"element": "H" 
			},
			{
				"x": -3.4253412821,
				"y": 0.4095984787,
				"z": 0.1239364571,
				"element": "H" 
			},
			{
				"x": -3.2077303858,
				"y": 0.951447727,
				"z": -1.5467688352,
				"element": "H" 
			},
			{
				"x": -2.1908840512,
				"y": -2.607299683,
				"z": -1.6888595323,
				"element": "H" 
			},
			{
				"x": 2.3820861915,
				"y": -3.4399699177,
				"z": -0.4963832969,
				"element": "H" 
			},
			{
				"x": 2.5426378663,
				"y": -2.6410224434,
				"z": -2.0688957765,
				"element": "H" 
			},
			{
				"x": 2.424467823,
				"y": -1.3827156089,
				"z": -0.0679548199,
				"element": "H" 
			},
			{
				"x": 2.396932646,
				"y": -0.0521559382,
				"z": -1.2216052761,
				"element": "H" 
			},
			{
				"x": 1.9072619674,
				"y": 0.204077982,
				"z": 0.4655018997,
				"element": "H" 
			}
		],
		 "valence_orbital": [ 
			{
				"type": "occ",
				"energy": -0.28217,
				"method": "rhf"
			},
			{
				"type": "occ",
				"energy": -0.27885,
				"method": "rhf"
			},
			{
				"type": "occ",
				"energy": -0.23856,
				"method": "rhf"
			},
			{
				"type": "occ",
				"energy": -0.23774,
				"method": "rhf"
			},
			{
				"type": "occ",
				"energy": -0.20659,
				"method": "rhf"
			},
			{
				"type": "unocc",
				"energy": -0.0233,
				"method": "rhf"
			},
			{
				"type": "unocc",
				"energy": 0.03801,
				"method": "rhf"
			},
			{
				"type": "unocc",
				"energy": 0.04009,
				"method": "rhf"
			},
			{
				"type": "unocc",
				"energy": 0.05895,
				"method": "rhf"
			},
			{
				"type": "unocc",
				"energy": 0.08365,
				"method": "rhf"
			}
		],
		"cosmo_sigma_profile": { 
			"-0.025": 0.0,
			"-0.024": 0.0,
			"-0.023": 0.0,
			"-0.022": 0.0,
			"-0.021": 0.0,
			"-0.02": 0.0,
			"-0.019": 0.0,
			"-0.018": 0.0,
			"-0.017": 0.0,
			"-0.016": 0.0,
			"-0.015": 0.0,
			"-0.014": 0.0,
			"-0.013": 0.0,
			"-0.012": 0.0,
			"-0.011": 0.0,
			"-0.01": 0.166270060112,
			"-0.009": 2.58047466985,
			"-0.008": 3.78859523804,
			"-0.007": 5.08879668367,
			"-0.006": 10.5266355084,
			"-0.005": 19.6512945907,
			"-0.004": 35.8345418779,
			"-0.003": 33.3700937668,
			"-0.002": 29.826137585,
			"-0.001": 23.3004222648,
			"0.0": 22.1955734108,
			"0.001": 12.9612779108,
			"0.002": 11.4842370681,
			"0.003": 10.7217125448,
			"0.004": 11.968973555,
			"0.005": 13.1515745709,
			"0.006": 16.3789845575,
			"0.007": 8.90412122949,
			"0.008": 3.54153248022,
			"0.009": 3.19397435,
			"0.01": 2.01914945625,
			"0.011": 2.89878564779,
			"0.012": 4.16645805567,
			"0.013": 3.77511219654,
			"0.014": 1.78219019535,
			"0.015": 0.269916075364,
			"0.016": 0.0,
			"0.017": 0.0,
			"0.018": 0.0,
			"0.019": 0.0,
			"0.02": 0.0,
			"0.021": 0.0,
			"0.022": 0.0,
			"0.023": 0.0,
			"0.024": 0.0,
			"0.025": 0.0
		}
	}
}
