{
	 "smiles": "COC1=C(OC)C=C(CC#N)C(Br)=C1", 
	 "Tm": 361.15, 
	 "num_atms": 24, 
	 "gaussian": { 
		 "optdone": 1, 
		 "sigma_profile": "yes", 
		 "theory": "DFT", 
		 "functional": "B3LYP", 
		 "basiset": "6-31G**", 
		 "properties": { 
			 "R2extent": 4907.8667, 
			 "electric_dipole_moment_norm": 5.09972580145, 
			 "electric_quadrupole_moment_norm": 17.0474318119, 
			 "total_energy": -3163.64110679, 
			 "HOMO_LUMO_gap": 0.21384, 
			 "cosmo_polarized_energy": -12.3, 
			 "cosmo_cavitation_energy": 31.19, 
			 "cosmo_dispersion_energy": -21.79, 
			 "cosmo_repulsion_energy": 1.74, 
			 "cosmo_total_nonelectrostatic_energy": 11.15, 
			 "SMD_solvation_energy": 7.18 
		},
		"coords": [
			{
				"x": -0.0569058829,
				"y": -2.1347210952,
				"z": 2.3000107017,
				"element": "C" 
			},
			{
				"x": -0.375814911,
				"y": -0.7800583401,
				"z": 1.9473649992,
				"element": "O" 
			},
			{
				"x": -0.3018828748,
				"y": -0.4939792342,
				"z": 0.6075883432,
				"element": "C" 
			},
			{
				"x": 0.9245835007,
				"y": -0.472775401,
				"z": -0.0843191569,
				"element": "C" 
			},
			{
				"x": 2.1100829644,
				"y": -0.789738063,
				"z": 0.5322738323,
				"element": "O" 
			},
			{
				"x": 2.5618666517,
				"y": 0.1678513534,
				"z": 1.5025644468,
				"element": "C" 
			},
			{
				"x": 0.9341702206,
				"y": -0.1658197568,
				"z": -1.4434313435,
				"element": "C" 
			},
			{
				"x": -0.2371233887,
				"y": 0.1438019959,
				"z": -2.1447939264,
				"element": "C" 
			},
			{
				"x": -0.1581030683,
				"y": 0.4771214675,
				"z": -3.625475636,
				"element": "C" 
			},
			{
				"x": -0.0709696461,
				"y": 1.9215691967,
				"z": -3.8831115634,
				"element": "C" 
			},
			{
				"x": 0.0136063669,
				"y": 3.0614164513,
				"z": -4.0836947859,
				"element": "N" 
			},
			{
				"x": -1.4396871517,
				"y": 0.1473298188,
				"z": -1.4277146104,
				"element": "C" 
			},
			{
				"x": -3.0927568154,
				"y": 0.5783728597,
				"z": -2.2901625952,
				"element": "Br" 
			},
			{
				"x": -1.4770162595,
				"y": -0.1746692618,
				"z": -0.0724466719,
				"element": "C" 
			},
			{
				"x": -0.7678242276,
				"y": -2.8298885442,
				"z": 1.8372992886,
				"element": "H" 
			},
			{
				"x": -0.1485456951,
				"y": -2.1937084468,
				"z": 3.3858907648,
				"element": "H" 
			},
			{
				"x": 0.9611513798,
				"y": -2.3960576198,
				"z": 1.9971202516,
				"element": "H" 
			},
			{
				"x": 1.8336298345,
				"y": 0.2904616991,
				"z": 2.3097167641,
				"element": "H" 
			},
			{
				"x": 2.7491504535,
				"y": 1.1380987215,
				"z": 1.0272485766,
				"element": "H" 
			},
			{
				"x": 3.4975325866,
				"y": -0.2258746833,
				"z": 1.9033914956,
				"element": "H" 
			},
			{
				"x": 1.8924793755,
				"y": -0.1658886779,
				"z": -1.9541801318,
				"element": "H" 
			},
			{
				"x": -1.0342427028,
				"y": 0.089115384,
				"z": -4.154825387,
				"element": "H" 
			},
			{
				"x": 0.7254393427,
				"y": 0.0013739867,
				"z": -4.0640495861,
				"element": "H" 
			},
			{
				"x": -2.413220053,
				"y": -0.1854338106,
				"z": 0.4725359302,
				"element": "H" 
			}
		],
		 "valence_orbital": [ 
			{
				"type": "occ",
				"energy": -0.30236,
				"method": "rhf"
			},
			{
				"type": "occ",
				"energy": -0.29677,
				"method": "rhf"
			},
			{
				"type": "occ",
				"energy": -0.28028,
				"method": "rhf"
			},
			{
				"type": "occ",
				"energy": -0.26048,
				"method": "rhf"
			},
			{
				"type": "occ",
				"energy": -0.24022,
				"method": "rhf"
			},
			{
				"type": "unocc",
				"energy": -0.02638,
				"method": "rhf"
			},
			{
				"type": "unocc",
				"energy": -0.02368,
				"method": "rhf"
			},
			{
				"type": "unocc",
				"energy": -0.00501,
				"method": "rhf"
			},
			{
				"type": "unocc",
				"energy": 0.0417,
				"method": "rhf"
			},
			{
				"type": "unocc",
				"energy": 0.04541,
				"method": "rhf"
			}
		],
		"cosmo_sigma_profile": { 
			"-0.025": 0.0,
			"-0.024": 0.0,
			"-0.023": 0.0,
			"-0.022": 0.0,
			"-0.021": 0.0,
			"-0.02": 0.0,
			"-0.019": 0.0,
			"-0.018": 0.0,
			"-0.017": 0.0,
			"-0.016": 0.0,
			"-0.015": 0.0,
			"-0.014": 0.0,
			"-0.013": 0.0,
			"-0.012": 0.0,
			"-0.011": 0.0,
			"-0.01": 1.10591373302,
			"-0.009": 3.95203161521,
			"-0.008": 5.60132436594,
			"-0.007": 6.75064418352,
			"-0.006": 10.774373203,
			"-0.005": 14.7880444223,
			"-0.004": 19.5192174494,
			"-0.003": 26.0666083322,
			"-0.002": 21.0056630044,
			"-0.001": 17.6884017455,
			"0.0": 16.3696131757,
			"0.001": 22.3455879379,
			"0.002": 21.8145280031,
			"0.003": 12.0475647518,
			"0.004": 13.5381178739,
			"0.005": 4.81838508647,
			"0.006": 5.31075009849,
			"0.007": 4.22187229994,
			"0.008": 4.80482347703,
			"0.009": 5.8995275811,
			"0.01": 4.82815749996,
			"0.011": 4.65141297636,
			"0.012": 2.80187285261,
			"0.013": 1.80564217067,
			"0.014": 0.104490503407,
			"0.015": 0.0,
			"0.016": 0.0,
			"0.017": 0.0,
			"0.018": 0.0,
			"0.019": 0.0,
			"0.02": 0.0,
			"0.021": 0.0,
			"0.022": 0.0,
			"0.023": 0.0,
			"0.024": 0.0,
			"0.025": 0.0
		}
	}
}
