{
	 "smiles": "COC(=O)C1=CC2=C(NC=N2)C=C1", 
	 "Tm": 414.15, 
	 "num_atms": 21, 
	 "gaussian": { 
		 "optdone": 1, 
		 "sigma_profile": "yes", 
		 "theory": "DFT", 
		 "functional": "B3LYP", 
		 "basiset": "6-31G**", 
		 "properties": { 
			 "R2extent": 3440.417, 
			 "electric_dipole_moment_norm": 3.52090972477, 
			 "electric_quadrupole_moment_norm": 28.7028689138, 
			 "total_energy": -607.748943494, 
			 "HOMO_LUMO_gap": 0.19883, 
			 "cosmo_polarized_energy": -16.87, 
			 "cosmo_cavitation_energy": 25.8, 
			 "cosmo_dispersion_energy": -19.37, 
			 "cosmo_repulsion_energy": 1.52, 
			 "cosmo_total_nonelectrostatic_energy": 7.95, 
			 "SMD_solvation_energy": 4.25 
		},
		"coords": [
			{
				"x": -0.0307477225,
				"y": 2.9717253557,
				"z": 1.4249429582,
				"element": "C" 
			},
			{
				"x": 0.1864078839,
				"y": 1.754553365,
				"z": 0.6980218212,
				"element": "O" 
			},
			{
				"x": 0.0665800715,
				"y": 1.8580294145,
				"z": -0.6472871049,
				"element": "C" 
			},
			{
				"x": -0.2053787927,
				"y": 2.9049107764,
				"z": -1.2054123475,
				"element": "O" 
			},
			{
				"x": 0.303233368,
				"y": 0.5645844819,
				"z": -1.3434229785,
				"element": "C" 
			},
			{
				"x": 0.6129899144,
				"y": -0.6050326432,
				"z": -0.6440033075,
				"element": "C" 
			},
			{
				"x": 0.8191658661,
				"y": -1.7737693378,
				"z": -1.38067712,
				"element": "C" 
			},
			{
				"x": 0.711660157,
				"y": -1.7477681146,
				"z": -2.7940644119,
				"element": "C" 
			},
			{
				"x": 0.97169882,
				"y": -3.0465642546,
				"z": -3.1834823417,
				"element": "N" 
			},
			{
				"x": 1.2145370099,
				"y": -3.767811238,
				"z": -2.0317431893,
				"element": "C" 
			},
			{
				"x": 1.1350103487,
				"y": -3.0549771039,
				"z": -0.940670565,
				"element": "N" 
			},
			{
				"x": 0.4022359371,
				"y": -0.5828487222,
				"z": -3.5035599561,
				"element": "C" 
			},
			{
				"x": 0.2008545113,
				"y": 0.5678990343,
				"z": -2.755695071,
				"element": "C" 
			},
			{
				"x": 0.6898147087,
				"y": 3.7363178815,
				"z": 1.123057317,
				"element": "H" 
			},
			{
				"x": -1.0397419107,
				"y": 3.3532145465,
				"z": 1.2478949807,
				"element": "H" 
			},
			{
				"x": 0.102070254,
				"y": 2.7145315404,
				"z": 2.4758887466,
				"element": "H" 
			},
			{
				"x": 0.6916813672,
				"y": -0.6090352244,
				"z": 0.4361097377,
				"element": "H" 
			},
			{
				"x": 0.9830254915,
				"y": -3.4038057341,
				"z": -4.1261788831,
				"element": "H" 
			},
			{
				"x": 1.4460505298,
				"y": -4.8247028713,
				"z": -2.0719454497,
				"element": "H" 
			},
			{
				"x": 0.3218064972,
				"y": -0.5714832536,
				"z": -4.5861882553,
				"element": "H" 
			},
			{
				"x": -0.0422543105,
				"y": 1.5069321016,
				"z": -3.2401845801,
				"element": "H" 
			}
		],
		 "valence_orbital": [ 
			{
				"type": "occ",
				"energy": -0.29413,
				"method": "rhf"
			},
			{
				"type": "occ",
				"energy": -0.27904,
				"method": "rhf"
			},
			{
				"type": "occ",
				"energy": -0.26592,
				"method": "rhf"
			},
			{
				"type": "occ",
				"energy": -0.23833,
				"method": "rhf"
			},
			{
				"type": "occ",
				"energy": -0.23395,
				"method": "rhf"
			},
			{
				"type": "unocc",
				"energy": -0.03512,
				"method": "rhf"
			},
			{
				"type": "unocc",
				"energy": -0.01548,
				"method": "rhf"
			},
			{
				"type": "unocc",
				"energy": 0.04514,
				"method": "rhf"
			},
			{
				"type": "unocc",
				"energy": 0.06761,
				"method": "rhf"
			},
			{
				"type": "unocc",
				"energy": 0.07802,
				"method": "rhf"
			}
		],
		"cosmo_sigma_profile": { 
			"-0.025": 0.0,
			"-0.024": 0.0,
			"-0.023": 0.0,
			"-0.022": 0.0,
			"-0.021": 0.0,
			"-0.02": 0.0,
			"-0.019": 0.0,
			"-0.018": 0.0676012633124,
			"-0.017": 1.34887242966,
			"-0.016": 1.8956528016,
			"-0.015": 1.25121390884,
			"-0.014": 1.32199925156,
			"-0.013": 1.19366812325,
			"-0.012": 1.58952168712,
			"-0.011": 1.41605597771,
			"-0.01": 2.8021349208,
			"-0.009": 3.61848147309,
			"-0.008": 2.94130604513,
			"-0.007": 5.65941847169,
			"-0.006": 8.18075659494,
			"-0.005": 11.5070776069,
			"-0.004": 13.3257971868,
			"-0.003": 14.9954522013,
			"-0.002": 12.2206020036,
			"-0.001": 8.49400026245,
			"0.0": 13.3732673594,
			"0.001": 15.6131412807,
			"0.002": 16.5730127056,
			"0.003": 17.6584110926,
			"0.004": 12.0608178602,
			"0.005": 6.27710734496,
			"0.006": 4.9094552646,
			"0.007": 2.85030881151,
			"0.008": 3.28277457549,
			"0.009": 2.68681204281,
			"0.01": 2.24931394999,
			"0.011": 3.82980287475,
			"0.012": 6.00947139459,
			"0.013": 1.80504584947,
			"0.014": 1.29969436831,
			"0.015": 0.676776487349,
			"0.016": 1.30185321653,
			"0.017": 0.724970009599,
			"0.018": 0.0423996467786,
			"0.019": 0.0,
			"0.02": 0.0,
			"0.021": 0.0,
			"0.022": 0.0,
			"0.023": 0.0,
			"0.024": 0.0,
			"0.025": 0.0
		}
	}
}
