{
	 "smiles": "ClS(=O)(=O)CC1=CC=CC=C1", 
	 "Tm": 365.15, 
	 "num_atms": 18, 
	 "gaussian": { 
		 "optdone": 1, 
		 "sigma_profile": "yes", 
		 "theory": "DFT", 
		 "functional": "B3LYP", 
		 "basiset": "6-31G**", 
		 "properties": { 
			 "R2extent": 3922.7344, 
			 "electric_dipole_moment_norm": 4.80440977749, 
			 "electric_quadrupole_moment_norm": 20.5554773126, 
			 "total_energy": -1279.72925704, 
			 "HOMO_LUMO_gap": 0.18298, 
			 "cosmo_polarized_energy": -11.41, 
			 "cosmo_cavitation_energy": 25.41, 
			 "cosmo_dispersion_energy": -18.85, 
			 "cosmo_repulsion_energy": 1.47, 
			 "cosmo_total_nonelectrostatic_energy": 8.03, 
			 "SMD_solvation_energy": 2.88 
		},
		"coords": [
			{
				"x": -0.5920261644,
				"y": -0.4164418978,
				"z": -4.276191768,
				"element": "Cl" 
			},
			{
				"x": 1.1612195456,
				"y": 0.3730993223,
				"z": -3.3470203299,
				"element": "S" 
			},
			{
				"x": 1.4875168727,
				"y": 1.6146759593,
				"z": -4.0398099704,
				"element": "O" 
			},
			{
				"x": 2.121984009,
				"y": -0.7183218446,
				"z": -3.2419897157,
				"element": "O" 
			},
			{
				"x": 0.5073638192,
				"y": 0.8087933568,
				"z": -1.6765563196,
				"element": "C" 
			},
			{
				"x": 0.0626482438,
				"y": -0.35215176,
				"z": -0.8436555103,
				"element": "C" 
			},
			{
				"x": 1.0048930505,
				"y": -1.179432864,
				"z": -0.2150758173,
				"element": "C" 
			},
			{
				"x": 0.5847728011,
				"y": -2.2515008303,
				"z": 0.5691984418,
				"element": "C" 
			},
			{
				"x": -0.7787124591,
				"y": -2.50688072,
				"z": 0.7348888842,
				"element": "C" 
			},
			{
				"x": -1.7220057448,
				"y": -1.6884891497,
				"z": 0.1113496154,
				"element": "C" 
			},
			{
				"x": -1.3032731575,
				"y": -0.6177075314,
				"z": -0.6775386403,
				"element": "C" 
			},
			{
				"x": -0.2842213879,
				"y": 1.5324648244,
				"z": -1.8791843713,
				"element": "H" 
			},
			{
				"x": 1.3681409037,
				"y": 1.3359764373,
				"z": -1.2512849805,
				"element": "H" 
			},
			{
				"x": 2.065081212,
				"y": -0.9876645972,
				"z": -0.3502142975,
				"element": "H" 
			},
			{
				"x": 1.3210672327,
				"y": -2.8870969042,
				"z": 1.0515912017,
				"element": "H" 
			},
			{
				"x": -1.1043457507,
				"y": -3.3411599934,
				"z": 1.3491813162,
				"element": "H" 
			},
			{
				"x": -2.7826906364,
				"y": -1.883138699,
				"z": 0.2374726928,
				"element": "H" 
			},
			{
				"x": -2.0379123894,
				"y": 0.0165768913,
				"z": -1.1655604312,
				"element": "H" 
			}
		],
		 "valence_orbital": [ 
			{
				"type": "occ",
				"energy": -0.33535,
				"method": "rhf"
			},
			{
				"type": "occ",
				"energy": -0.33009,
				"method": "rhf"
			},
			{
				"type": "occ",
				"energy": -0.31308,
				"method": "rhf"
			},
			{
				"type": "occ",
				"energy": -0.26943,
				"method": "rhf"
			},
			{
				"type": "occ",
				"energy": -0.26723,
				"method": "rhf"
			},
			{
				"type": "unocc",
				"energy": -0.08425,
				"method": "rhf"
			},
			{
				"type": "unocc",
				"energy": -0.03099,
				"method": "rhf"
			},
			{
				"type": "unocc",
				"energy": -0.02073,
				"method": "rhf"
			},
			{
				"type": "unocc",
				"energy": 0.05053,
				"method": "rhf"
			},
			{
				"type": "unocc",
				"energy": 0.06676,
				"method": "rhf"
			}
		],
		"cosmo_sigma_profile": { 
			"-0.025": 0.0,
			"-0.024": 0.0,
			"-0.023": 0.0,
			"-0.022": 0.0,
			"-0.021": 0.0,
			"-0.02": 0.0,
			"-0.019": 0.0,
			"-0.018": 0.0,
			"-0.017": 0.0,
			"-0.016": 0.0,
			"-0.015": 0.0,
			"-0.014": 0.0,
			"-0.013": 0.0383678803304,
			"-0.012": 1.03682927227,
			"-0.011": 2.09568896748,
			"-0.01": 4.48590053649,
			"-0.009": 4.53555503701,
			"-0.008": 3.94003531862,
			"-0.007": 6.41218655509,
			"-0.006": 13.6927705958,
			"-0.005": 12.1330386707,
			"-0.004": 12.9181118018,
			"-0.003": 8.87341947297,
			"-0.002": 8.43605179192,
			"-0.001": 10.7243274598,
			"0.0": 10.1693750702,
			"0.001": 13.2869477958,
			"0.002": 14.9173117681,
			"0.003": 20.7458567304,
			"0.004": 22.8748326269,
			"0.005": 7.57866109533,
			"0.006": 3.70814834538,
			"0.007": 4.11277735716,
			"0.008": 10.5436165157,
			"0.009": 7.84989566544,
			"0.01": 0.542079906384,
			"0.011": 0.0,
			"0.012": 0.0,
			"0.013": 0.0,
			"0.014": 0.0,
			"0.015": 0.0,
			"0.016": 0.0,
			"0.017": 0.0,
			"0.018": 0.0,
			"0.019": 0.0,
			"0.02": 0.0,
			"0.021": 0.0,
			"0.022": 0.0,
			"0.023": 0.0,
			"0.024": 0.0,
			"0.025": 0.0
		}
	}
}
