{
	 "smiles": "OC(=O)CC1=CC(=O)N(N1)C1CCS(=O)(=O)C1", 
	 "Tm": 442.15, 
	 "num_atms": 29, 
	 "gaussian": { 
		 "optdone": 1, 
		 "sigma_profile": "yes", 
		 "theory": "DFT", 
		 "functional": "B3LYP", 
		 "basiset": "6-31G**", 
		 "properties": { 
			 "R2extent": 6314.5485, 
			 "electric_dipole_moment_norm": 4.53468775, 
			 "electric_quadrupole_moment_norm": 46.2410248961, 
			 "total_energy": -1233.91216416, 
			 "HOMO_LUMO_gap": 0.20416, 
			 "cosmo_polarized_energy": -37.04, 
			 "cosmo_cavitation_energy": 34.05, 
			 "cosmo_dispersion_energy": -24.78, 
			 "cosmo_repulsion_energy": 1.86, 
			 "cosmo_total_nonelectrostatic_energy": 11.13, 
			 "SMD_solvation_energy": 6.15 
		},
		"coords": [
			{
				"x": 0.4347221966,
				"y": 4.0870196652,
				"z": 1.6724582942,
				"element": "O" 
			},
			{
				"x": 0.5656494773,
				"y": 4.7161172183,
				"z": 0.4888515503,
				"element": "C" 
			},
			{
				"x": 0.5201443719,
				"y": 5.9152800997,
				"z": 0.3969046668,
				"element": "O" 
			},
			{
				"x": 0.8399808077,
				"y": 3.8271251945,
				"z": -0.7474349055,
				"element": "C" 
			},
			{
				"x": 0.292921431,
				"y": 2.4386428782,
				"z": -0.680197404,
				"element": "C" 
			},
			{
				"x": -0.7026227198,
				"y": 1.8341828595,
				"z": -1.3595809613,
				"element": "C" 
			},
			{
				"x": -0.846874319,
				"y": 0.4698046239,
				"z": -0.8468253544,
				"element": "C" 
			},
			{
				"x": -1.6898901832,
				"y": -0.3835542402,
				"z": -1.0698546969,
				"element": "O" 
			},
			{
				"x": 0.2231354212,
				"y": 0.299587491,
				"z": 0.0715983725,
				"element": "N" 
			},
			{
				"x": 0.8120928775,
				"y": 1.5721969335,
				"z": 0.3118474337,
				"element": "N" 
			},
			{
				"x": 0.0572824563,
				"y": -0.5944622427,
				"z": 1.2241260624,
				"element": "C" 
			},
			{
				"x": 1.2855481148,
				"y": -0.5730549543,
				"z": 2.1619958522,
				"element": "C" 
			},
			{
				"x": 1.0896272862,
				"y": -1.7252123593,
				"z": 3.1461350646,
				"element": "C" 
			},
			{
				"x": 0.5324757329,
				"y": -3.1169934725,
				"z": 2.0917139719,
				"element": "S" 
			},
			{
				"x": -0.5526602389,
				"y": -3.8540437882,
				"z": 2.7530577244,
				"element": "O" 
			},
			{
				"x": 1.7253537196,
				"y": -3.8150269977,
				"z": 1.5856999847,
				"element": "O" 
			},
			{
				"x": -0.1302001569,
				"y": -2.0469680317,
				"z": 0.745962974,
				"element": "C" 
			},
			{
				"x": 0.4609209005,
				"y": 3.117784136,
				"z": 1.5530568836,
				"element": "H" 
			},
			{
				"x": 1.9326031797,
				"y": 3.8027583257,
				"z": -0.8704592852,
				"element": "H" 
			},
			{
				"x": 0.4386304485,
				"y": 4.3535944322,
				"z": -1.613694106,
				"element": "H" 
			},
			{
				"x": -1.3476937375,
				"y": 2.2689603208,
				"z": -2.1082652283,
				"element": "H" 
			},
			{
				"x": 1.8304144579,
				"y": 1.5023982192,
				"z": 0.2861170956,
				"element": "H" 
			},
			{
				"x": -0.8278125794,
				"y": -0.2902640336,
				"z": 1.8021873099,
				"element": "H" 
			},
			{
				"x": 2.1988305651,
				"y": -0.739333049,
				"z": 1.578129942,
				"element": "H" 
			},
			{
				"x": 1.3768782246,
				"y": 0.3830790518,
				"z": 2.683534528,
				"element": "H" 
			},
			{
				"x": 0.2974880136,
				"y": -1.5260184811,
				"z": 3.8723319908,
				"element": "H" 
			},
			{
				"x": 1.9991950726,
				"y": -2.0400512895,
				"z": 3.6589806116,
				"element": "H" 
			},
			{
				"x": 0.4746765921,
				"y": -2.2535357578,
				"z": -0.1385073666,
				"element": "H" 
			},
			{
				"x": -1.1677174129,
				"y": -2.3129127518,
				"z": 0.556528995,
				"element": "H" 
			}
		],
		 "valence_orbital": [ 
			{
				"type": "occ",
				"energy": -0.30202,
				"method": "rhf"
			},
			{
				"type": "occ",
				"energy": -0.29492,
				"method": "rhf"
			},
			{
				"type": "occ",
				"energy": -0.28608,
				"method": "rhf"
			},
			{
				"type": "occ",
				"energy": -0.27348,
				"method": "rhf"
			},
			{
				"type": "occ",
				"energy": -0.26394,
				"method": "rhf"
			},
			{
				"type": "unocc",
				"energy": -0.05978,
				"method": "rhf"
			},
			{
				"type": "unocc",
				"energy": -0.00782,
				"method": "rhf"
			},
			{
				"type": "unocc",
				"energy": 0.01436,
				"method": "rhf"
			},
			{
				"type": "unocc",
				"energy": 0.04064,
				"method": "rhf"
			},
			{
				"type": "unocc",
				"energy": 0.04887,
				"method": "rhf"
			}
		],
		"cosmo_sigma_profile": { 
			"-0.025": 0.0,
			"-0.024": 0.0,
			"-0.023": 0.0,
			"-0.022": 0.0,
			"-0.021": 0.0,
			"-0.02": 0.0,
			"-0.019": 0.0,
			"-0.018": 0.0,
			"-0.017": 0.233836744581,
			"-0.016": 2.23510703215,
			"-0.015": 2.06200633569,
			"-0.014": 1.63748749124,
			"-0.013": 1.89534992888,
			"-0.012": 1.82295022036,
			"-0.011": 2.03606562583,
			"-0.01": 4.30520924009,
			"-0.009": 7.73949551928,
			"-0.008": 15.3488713308,
			"-0.007": 21.7787733789,
			"-0.006": 24.2496226865,
			"-0.005": 20.0139348562,
			"-0.004": 15.4941726321,
			"-0.003": 10.2876895901,
			"-0.002": 8.1774152284,
			"-0.001": 8.07925415896,
			"0.0": 7.657461367,
			"0.001": 9.61963275574,
			"0.002": 8.2406876468,
			"0.003": 5.65578709006,
			"0.004": 5.66224259242,
			"0.005": 5.9886415327,
			"0.006": 4.62634296348,
			"0.007": 4.77026282425,
			"0.008": 7.26795735414,
			"0.009": 8.07917621938,
			"0.01": 10.2445397312,
			"0.011": 17.9558503264,
			"0.012": 17.5124432731,
			"0.013": 6.02850881772,
			"0.014": 2.26154133349,
			"0.015": 0.193477148183,
			"0.016": 0.0,
			"0.017": 0.0,
			"0.018": 0.0,
			"0.019": 0.0,
			"0.02": 0.0,
			"0.021": 0.0,
			"0.022": 0.0,
			"0.023": 0.0,
			"0.024": 0.0,
			"0.025": 0.0
		}
	}
}
