{
	 "smiles": "CCOC(=O)C1=C(N)SC2=C1CCN(CC)C2", 
	 "Tm": 358.15, 
	 "num_atms": 35, 
	 "gaussian": { 
		 "optdone": 1, 
		 "sigma_profile": "yes", 
		 "theory": "DFT", 
		 "functional": "B3LYP", 
		 "basiset": "6-31G**", 
		 "properties": { 
			 "R2extent": 5976.1127, 
			 "electric_dipole_moment_norm": 2.66583443972, 
			 "electric_quadrupole_moment_norm": 18.5317400451, 
			 "total_energy": -1126.27423516, 
			 "HOMO_LUMO_gap": 0.17273, 
			 "cosmo_polarized_energy": -12.32, 
			 "cosmo_cavitation_energy": 37.48, 
			 "cosmo_dispersion_energy": -27.82, 
			 "cosmo_repulsion_energy": 2.14, 
			 "cosmo_total_nonelectrostatic_energy": 11.81, 
			 "SMD_solvation_energy": 3.83 
		},
		"coords": [
			{
				"x": -4.5930765099,
				"y": 3.2302420325,
				"z": -0.2808093043,
				"element": "C" 
			},
			{
				"x": -3.4025250787,
				"y": 3.618862196,
				"z": 0.5832108683,
				"element": "C" 
			},
			{
				"x": -2.172316705,
				"y": 3.0508896222,
				"z": 0.0766066256,
				"element": "O" 
			},
			{
				"x": -1.8876938685,
				"y": 1.7635367621,
				"z": 0.4723015344,
				"element": "C" 
			},
			{
				"x": -2.6261322465,
				"y": 1.1511067112,
				"z": 1.225319426,
				"element": "O" 
			},
			{
				"x": -0.639835236,
				"y": 1.2569976216,
				"z": -0.0946526975,
				"element": "C" 
			},
			{
				"x": 0.1865817532,
				"y": 1.9508585407,
				"z": -0.9765288008,
				"element": "C" 
			},
			{
				"x": 0.0034218195,
				"y": 3.1768126999,
				"z": -1.5566962124,
				"element": "N" 
			},
			{
				"x": 1.5921936383,
				"y": 1.0012846856,
				"z": -1.4146442265,
				"element": "S" 
			},
			{
				"x": 1.069068517,
				"y": -0.3303431823,
				"z": -0.3879942901,
				"element": "C" 
			},
			{
				"x": -0.1055950137,
				"y": -0.0558753575,
				"z": 0.2324397798,
				"element": "C" 
			},
			{
				"x": -0.7090149936,
				"y": -1.0811414538,
				"z": 1.1569829329,
				"element": "C" 
			},
			{
				"x": 0.3358942351,
				"y": -2.136451212,
				"z": 1.5373406937,
				"element": "C" 
			},
			{
				"x": 1.0394423162,
				"y": -2.6454780664,
				"z": 0.3556439939,
				"element": "N" 
			},
			{
				"x": 1.818734615,
				"y": -3.8470652546,
				"z": 0.6561097916,
				"element": "C" 
			},
			{
				"x": 2.3366541209,
				"y": -4.5660789652,
				"z": -0.5909684888,
				"element": "C" 
			},
			{
				"x": 1.8627533053,
				"y": -1.598119945,
				"z": -0.2537380283,
				"element": "C" 
			},
			{
				"x": -5.4962616864,
				"y": 3.7322314524,
				"z": 0.0824991726,
				"element": "H" 
			},
			{
				"x": -4.4329387935,
				"y": 3.5228196992,
				"z": -1.3229480652,
				"element": "H" 
			},
			{
				"x": -4.7583336217,
				"y": 2.1513250561,
				"z": -0.237412769,
				"element": "H" 
			},
			{
				"x": -3.5418294592,
				"y": 3.2894136998,
				"z": 1.6149322927,
				"element": "H" 
			},
			{
				"x": -3.2319144464,
				"y": 4.6986869953,
				"z": 0.5677163122,
				"element": "H" 
			},
			{
				"x": 0.8218552082,
				"y": 3.6741950584,
				"z": -1.8731470589,
				"element": "H" 
			},
			{
				"x": -0.7306717947,
				"y": 3.7319611432,
				"z": -1.1377036754,
				"element": "H" 
			},
			{
				"x": -1.1049104666,
				"y": -0.6012981808,
				"z": 2.0556911916,
				"element": "H" 
			},
			{
				"x": -1.5658920501,
				"y": -1.560176358,
				"z": 0.6673225002,
				"element": "H" 
			},
			{
				"x": 1.0422127842,
				"y": -1.707039913,
				"z": 2.2763297375,
				"element": "H" 
			},
			{
				"x": -0.1614654036,
				"y": -2.9804894082,
				"z": 2.0263187405,
				"element": "H" 
			},
			{
				"x": 1.1578269221,
				"y": -4.5287555771,
				"z": 1.2036141701,
				"element": "H" 
			},
			{
				"x": 2.6685968812,
				"y": -3.6225451755,
				"z": 1.3333468479,
				"element": "H" 
			},
			{
				"x": 2.7914774584,
				"y": -5.5212861324,
				"z": -0.309526738,
				"element": "H" 
			},
			{
				"x": 1.514500712,
				"y": -4.7647855921,
				"z": -1.2852297198,
				"element": "H" 
			},
			{
				"x": 3.099697687,
				"y": -3.9880089863,
				"z": -1.1210399808,
				"element": "H" 
			},
			{
				"x": 2.7832084283,
				"y": -1.4091704707,
				"z": 0.3417460044,
				"element": "H" 
			},
			{
				"x": 2.1976869721,
				"y": -1.9377147453,
				"z": -1.24073256,
				"element": "H" 
			}
		],
		 "valence_orbital": [ 
			{
				"type": "occ",
				"energy": -0.29131,
				"method": "rhf"
			},
			{
				"type": "occ",
				"energy": -0.26315,
				"method": "rhf"
			},
			{
				"type": "occ",
				"energy": -0.24324,
				"method": "rhf"
			},
			{
				"type": "occ",
				"energy": -0.20917,
				"method": "rhf"
			},
			{
				"type": "occ",
				"energy": -0.19066,
				"method": "rhf"
			},
			{
				"type": "unocc",
				"energy": -0.01793,
				"method": "rhf"
			},
			{
				"type": "unocc",
				"energy": 0.01264,
				"method": "rhf"
			},
			{
				"type": "unocc",
				"energy": 0.02652,
				"method": "rhf"
			},
			{
				"type": "unocc",
				"energy": 0.08266,
				"method": "rhf"
			},
			{
				"type": "unocc",
				"energy": 0.09093,
				"method": "rhf"
			}
		],
		"cosmo_sigma_profile": { 
			"-0.025": 0.0,
			"-0.024": 0.0,
			"-0.023": 0.0,
			"-0.022": 0.0,
			"-0.021": 0.0,
			"-0.02": 0.0,
			"-0.019": 0.0,
			"-0.018": 0.0,
			"-0.017": 0.0,
			"-0.016": 0.0,
			"-0.015": 0.320832200728,
			"-0.014": 1.44137539658,
			"-0.013": 1.31681671945,
			"-0.012": 0.920655940679,
			"-0.011": 1.74121272315,
			"-0.01": 2.53762029564,
			"-0.009": 2.25005003843,
			"-0.008": 1.48900653724,
			"-0.007": 1.40966425271,
			"-0.006": 2.7121607321,
			"-0.005": 7.79128778123,
			"-0.004": 19.5808253319,
			"-0.003": 29.5740496254,
			"-0.002": 36.4334390181,
			"-0.001": 39.3969970298,
			"0.0": 35.5587529467,
			"0.001": 26.8154327684,
			"0.002": 15.2989435853,
			"0.003": 17.3307851489,
			"0.004": 14.7576490509,
			"0.005": 9.22913427641,
			"0.006": 4.27466234936,
			"0.007": 4.37609779913,
			"0.008": 3.82088460972,
			"0.009": 2.88433249273,
			"0.01": 2.38055747512,
			"0.011": 2.96980756854,
			"0.012": 2.77209887059,
			"0.013": 3.08452121986,
			"0.014": 0.258217782937,
			"0.015": 0.525564823209,
			"0.016": 0.198793225904,
			"0.017": 0.0,
			"0.018": 0.0,
			"0.019": 0.0,
			"0.02": 0.0,
			"0.021": 0.0,
			"0.022": 0.0,
			"0.023": 0.0,
			"0.024": 0.0,
			"0.025": 0.0
		}
	}
}
