{
	 "smiles": "CC1=C2C=CC=CC2=NC(CCl)=N1", 
	 "Tm": 334.15, 
	 "num_atms": 22, 
	 "gaussian": { 
		 "optdone": 1, 
		 "sigma_profile": "yes", 
		 "theory": "DFT", 
		 "functional": "B3LYP", 
		 "basiset": "6-31G**", 
		 "properties": { 
			 "R2extent": 3255.3994, 
			 "electric_dipole_moment_norm": 4.48160983799, 
			 "electric_quadrupole_moment_norm": 7.81499776647, 
			 "total_energy": -956.204351459, 
			 "HOMO_LUMO_gap": 0.17785, 
			 "cosmo_polarized_energy": -10.02, 
			 "cosmo_cavitation_energy": 27.74, 
			 "cosmo_dispersion_energy": -20.53, 
			 "cosmo_repulsion_energy": 1.63, 
			 "cosmo_total_nonelectrostatic_energy": 8.84, 
			 "SMD_solvation_energy": 1.41 
		},
		"coords": [
			{
				"x": 1.8218714066,
				"y": 0.0172560759,
				"z": -2.0161694151,
				"element": "C" 
			},
			{
				"x": 0.9292705963,
				"y": 0.4653087442,
				"z": -0.8891398956,
				"element": "C" 
			},
			{
				"x": 0.4743828773,
				"y": -0.4451366986,
				"z": 0.1195723862,
				"element": "C" 
			},
			{
				"x": 0.7995001258,
				"y": -1.8243147682,
				"z": 0.1629591559,
				"element": "C" 
			},
			{
				"x": 0.3181415435,
				"y": -2.6179235901,
				"z": 1.1826916528,
				"element": "C" 
			},
			{
				"x": -0.5030958175,
				"y": -2.0653414909,
				"z": 2.1953397566,
				"element": "C" 
			},
			{
				"x": -0.8347974343,
				"y": -0.728215958,
				"z": 2.178415819,
				"element": "C" 
			},
			{
				"x": -0.3541626892,
				"y": 0.1084224546,
				"z": 1.1394693735,
				"element": "C" 
			},
			{
				"x": -0.6989639509,
				"y": 1.4300976373,
				"z": 1.1387858396,
				"element": "N" 
			},
			{
				"x": -0.2249145249,
				"y": 2.1580406963,
				"z": 0.1514917955,
				"element": "C" 
			},
			{
				"x": -0.6021959826,
				"y": 3.6138264307,
				"z": 0.1276611771,
				"element": "C" 
			},
			{
				"x": -1.9346925692,
				"y": 3.9264681445,
				"z": -1.0793899019,
				"element": "Cl" 
			},
			{
				"x": 0.5838272293,
				"y": 1.7389437316,
				"z": -0.864058466,
				"element": "N" 
			},
			{
				"x": 1.3375515434,
				"y": -0.7599308512,
				"z": -2.6180506869,
				"element": "H" 
			},
			{
				"x": 2.0461535388,
				"y": 0.8710259751,
				"z": -2.6559280064,
				"element": "H" 
			},
			{
				"x": 2.7605761567,
				"y": -0.4024330419,
				"z": -1.6373138138,
				"element": "H" 
			},
			{
				"x": 1.4284951422,
				"y": -2.254210144,
				"z": -0.6097724237,
				"element": "H" 
			},
			{
				"x": 0.5683244433,
				"y": -3.6741529889,
				"z": 1.2124322272,
				"element": "H" 
			},
			{
				"x": -0.8734274121,
				"y": -2.7057261687,
				"z": 2.9906148861,
				"element": "H" 
			},
			{
				"x": -1.4636072132,
				"y": -0.2806900306,
				"z": 2.9407967276,
				"element": "H" 
			},
			{
				"x": 0.2383775217,
				"y": 4.2303554139,
				"z": -0.1888492559,
				"element": "H" 
			},
			{
				"x": -0.982314531,
				"y": 3.9237304271,
				"z": 1.0988410684,
				"element": "H" 
			}
		],
		 "valence_orbital": [ 
			{
				"type": "occ",
				"energy": -0.28931,
				"method": "rhf"
			},
			{
				"type": "occ",
				"energy": -0.28629,
				"method": "rhf"
			},
			{
				"type": "occ",
				"energy": -0.27215,
				"method": "rhf"
			},
			{
				"type": "occ",
				"energy": -0.25177,
				"method": "rhf"
			},
			{
				"type": "occ",
				"energy": -0.24738,
				"method": "rhf"
			},
			{
				"type": "unocc",
				"energy": -0.06953,
				"method": "rhf"
			},
			{
				"type": "unocc",
				"energy": -0.04177,
				"method": "rhf"
			},
			{
				"type": "unocc",
				"energy": 0.00785,
				"method": "rhf"
			},
			{
				"type": "unocc",
				"energy": 0.03244,
				"method": "rhf"
			},
			{
				"type": "unocc",
				"energy": 0.08116,
				"method": "rhf"
			}
		],
		"cosmo_sigma_profile": { 
			"-0.025": 0.0,
			"-0.024": 0.0,
			"-0.023": 0.0,
			"-0.022": 0.0,
			"-0.021": 0.0,
			"-0.02": 0.0,
			"-0.019": 0.0,
			"-0.018": 0.0,
			"-0.017": 0.0,
			"-0.016": 0.0,
			"-0.015": 0.0,
			"-0.014": 0.0,
			"-0.013": 0.0,
			"-0.012": 0.0,
			"-0.011": 0.0,
			"-0.01": 0.0,
			"-0.009": 0.0,
			"-0.008": 1.71424669731,
			"-0.007": 7.77079946472,
			"-0.006": 16.906381761,
			"-0.005": 19.5151966439,
			"-0.004": 15.9305443338,
			"-0.003": 14.1245303885,
			"-0.002": 15.9500450265,
			"-0.001": 18.1216453985,
			"0.0": 14.8375720789,
			"0.001": 16.1053852249,
			"0.002": 17.9852079199,
			"0.003": 16.6225513929,
			"0.004": 9.81691803074,
			"0.005": 8.47411003664,
			"0.006": 13.2098928938,
			"0.007": 5.94063416273,
			"0.008": 2.38492580509,
			"0.009": 2.2242734669,
			"0.01": 1.0617057068,
			"0.011": 1.64225147927,
			"0.012": 1.92321175991,
			"0.013": 1.48882637051,
			"0.014": 0.534730223658,
			"0.015": 0.0,
			"0.016": 0.0,
			"0.017": 0.0,
			"0.018": 0.0,
			"0.019": 0.0,
			"0.02": 0.0,
			"0.021": 0.0,
			"0.022": 0.0,
			"0.023": 0.0,
			"0.024": 0.0,
			"0.025": 0.0
		}
	}
}
