{
	 "smiles": "CCCSP(=S)(OCC)OC1=CC=C(SC)C=C1", 
	 "Tm": 258.15, 
	 "num_atms": 37, 
	 "gaussian": { 
		 "optdone": 1, 
		 "sigma_profile": "yes", 
		 "theory": "DFT", 
		 "functional": "B3LYP", 
		 "basiset": "6-31G**", 
		 "properties": { 
			 "R2extent": 8668.2339, 
			 "electric_dipole_moment_norm": 3.12941809447, 
			 "electric_quadrupole_moment_norm": 18.2001179392, 
			 "total_energy": -2155.160689, 
			 "HOMO_LUMO_gap": 0.19841, 
			 "cosmo_polarized_energy": -11.77, 
			 "cosmo_cavitation_energy": 46.4, 
			 "cosmo_dispersion_energy": -31.43, 
			 "cosmo_repulsion_energy": 2.38, 
			 "cosmo_total_nonelectrostatic_energy": 17.35, 
			 "SMD_solvation_energy": 7.14 
		},
		"coords": [
			{
				"x": 4.3320076331,
				"y": 0.5646873751,
				"z": 0.211636744,
				"element": "C" 
			},
			{
				"x": 3.7246008383,
				"y": 1.888293927,
				"z": -0.2583076674,
				"element": "C" 
			},
			{
				"x": 2.8404126414,
				"y": 1.7728653843,
				"z": -1.5016974684,
				"element": "C" 
			},
			{
				"x": 1.3154597757,
				"y": 0.7386391611,
				"z": -1.2919340624,
				"element": "S" 
			},
			{
				"x": 0.0473923646,
				"y": 2.117115443,
				"z": -0.3154942612,
				"element": "P" 
			},
			{
				"x": 0.14788897,
				"y": 3.9945236808,
				"z": -0.7944394751,
				"element": "S" 
			},
			{
				"x": 0.3266506987,
				"y": 1.7727275356,
				"z": 1.2532558242,
				"element": "O" 
			},
			{
				"x": -0.340825301,
				"y": 2.5419754367,
				"z": 2.2952822152,
				"element": "C" 
			},
			{
				"x": 0.1945441353,
				"y": 2.0660416672,
				"z": 3.6318336939,
				"element": "C" 
			},
			{
				"x": -1.4516683643,
				"y": 1.5199515616,
				"z": -0.6094416677,
				"element": "O" 
			},
			{
				"x": -1.8471964002,
				"y": 0.1833407126,
				"z": -0.6217756624,
				"element": "C" 
			},
			{
				"x": -1.4544331041,
				"y": -0.7329621815,
				"z": 0.3556241698,
				"element": "C" 
			},
			{
				"x": -1.9434545479,
				"y": -2.0384436273,
				"z": 0.2932546095,
				"element": "C" 
			},
			{
				"x": -2.822602329,
				"y": -2.430393126,
				"z": -0.7239044825,
				"element": "C" 
			},
			{
				"x": -3.4746104294,
				"y": -4.1028018159,
				"z": -0.7662886584,
				"element": "S" 
			},
			{
				"x": -2.2527925943,
				"y": -4.9158374022,
				"z": -1.8683827842,
				"element": "C" 
			},
			{
				"x": -3.2177891528,
				"y": -1.4873312361,
				"z": -1.6836200051,
				"element": "C" 
			},
			{
				"x": -2.7280991438,
				"y": -0.1844162477,
				"z": -1.6399455899,
				"element": "C" 
			},
			{
				"x": 4.9721918176,
				"y": 0.718665219,
				"z": 1.085825634,
				"element": "H" 
			},
			{
				"x": 4.9451878868,
				"y": 0.1085125255,
				"z": -0.574248629,
				"element": "H" 
			},
			{
				"x": 3.552454863,
				"y": -0.1516264446,
				"z": 0.487891153,
				"element": "H" 
			},
			{
				"x": 4.5273288539,
				"y": 2.5962556972,
				"z": -0.5060202219,
				"element": "H" 
			},
			{
				"x": 3.1487193228,
				"y": 2.3483409587,
				"z": 0.5522775884,
				"element": "H" 
			},
			{
				"x": 3.3673076141,
				"y": 1.2674526105,
				"z": -2.3177474662,
				"element": "H" 
			},
			{
				"x": 2.5181225419,
				"y": 2.7529206837,
				"z": -1.8618078403,
				"element": "H" 
			},
			{
				"x": -0.1351670562,
				"y": 3.603788852,
				"z": 2.130416654,
				"element": "H" 
			},
			{
				"x": -1.4210942404,
				"y": 2.3792739651,
				"z": 2.2117169212,
				"element": "H" 
			},
			{
				"x": 1.2750398695,
				"y": 2.2221563243,
				"z": 3.6937482097,
				"element": "H" 
			},
			{
				"x": -0.2832095446,
				"y": 2.629157084,
				"z": 4.4398675402,
				"element": "H" 
			},
			{
				"x": -0.0117970354,
				"y": 1.00291626,
				"z": 3.7849655356,
				"element": "H" 
			},
			{
				"x": -0.778035175,
				"y": -0.4317749709,
				"z": 1.1464483523,
				"element": "H" 
			},
			{
				"x": -1.6463166278,
				"y": -2.7592428134,
				"z": 1.0483095016,
				"element": "H" 
			},
			{
				"x": -2.2478214269,
				"y": -4.4521634956,
				"z": -2.8570668574,
				"element": "H" 
			},
			{
				"x": -1.2509847094,
				"y": -4.8806926384,
				"z": -1.4352202054,
				"element": "H" 
			},
			{
				"x": -2.5670431889,
				"y": -5.95808783,
				"z": -1.9628440129,
				"element": "H" 
			},
			{
				"x": -3.9120936333,
				"y": -1.7777956751,
				"z": -2.4655836981,
				"element": "H" 
			},
			{
				"x": -3.0206758221,
				"y": 0.5562674401,
				"z": -2.3761836306,
				"element": "H" 
			}
		],
		 "valence_orbital": [ 
			{
				"type": "occ",
				"energy": -0.26382,
				"method": "rhf"
			},
			{
				"type": "occ",
				"energy": -0.24833,
				"method": "rhf"
			},
			{
				"type": "occ",
				"energy": -0.24493,
				"method": "rhf"
			},
			{
				"type": "occ",
				"energy": -0.23948,
				"method": "rhf"
			},
			{
				"type": "occ",
				"energy": -0.22857,
				"method": "rhf"
			},
			{
				"type": "unocc",
				"energy": -0.03016,
				"method": "rhf"
			},
			{
				"type": "unocc",
				"energy": -0.01896,
				"method": "rhf"
			},
			{
				"type": "unocc",
				"energy": -0.00845,
				"method": "rhf"
			},
			{
				"type": "unocc",
				"energy": 0.02091,
				"method": "rhf"
			},
			{
				"type": "unocc",
				"energy": 0.04198,
				"method": "rhf"
			}
		],
		"cosmo_sigma_profile": { 
			"-0.025": 0.0,
			"-0.024": 0.0,
			"-0.023": 0.0,
			"-0.022": 0.0,
			"-0.021": 0.0,
			"-0.02": 0.0,
			"-0.019": 0.0,
			"-0.018": 0.0,
			"-0.017": 0.0,
			"-0.016": 0.0,
			"-0.015": 0.0,
			"-0.014": 0.0,
			"-0.013": 0.0,
			"-0.012": 0.0,
			"-0.011": 0.0,
			"-0.01": 0.0,
			"-0.009": 0.0,
			"-0.008": 0.110903670189,
			"-0.007": 4.54244386488,
			"-0.006": 12.7513013688,
			"-0.005": 22.1385441678,
			"-0.004": 34.8319733062,
			"-0.003": 37.675220495,
			"-0.002": 35.8803136574,
			"-0.001": 37.0581108779,
			"0.0": 33.8530139779,
			"0.001": 30.4534446611,
			"0.002": 26.8188164972,
			"0.003": 27.1864609443,
			"0.004": 13.6381590209,
			"0.005": 13.6321852561,
			"0.006": 11.5926324698,
			"0.007": 11.1420295133,
			"0.008": 9.03704771516,
			"0.009": 6.68720575819,
			"0.01": 1.55615815803,
			"0.011": 0.0739676760085,
			"0.012": 0.0,
			"0.013": 0.0,
			"0.014": 0.0,
			"0.015": 0.0,
			"0.016": 0.0,
			"0.017": 0.0,
			"0.018": 0.0,
			"0.019": 0.0,
			"0.02": 0.0,
			"0.021": 0.0,
			"0.022": 0.0,
			"0.023": 0.0,
			"0.024": 0.0,
			"0.025": 0.0
		}
	}
}
