{
	 "smiles": "CC1=CS(=O)(=O)C2=C1C=C(Cl)C=C2", 
	 "Tm": 443.15, 
	 "num_atms": 20, 
	 "gaussian": { 
		 "optdone": 1, 
		 "sigma_profile": "yes", 
		 "theory": "DFT", 
		 "functional": "B3LYP", 
		 "basiset": "6-31G**", 
		 "properties": { 
			 "R2extent": 3552.3183, 
			 "electric_dipole_moment_norm": 4.52479215545, 
			 "electric_quadrupole_moment_norm": 17.5626345629, 
			 "total_energy": -1355.91814228, 
			 "HOMO_LUMO_gap": 0.17605, 
			 "cosmo_polarized_energy": -15.29, 
			 "cosmo_cavitation_energy": 27.47, 
			 "cosmo_dispersion_energy": -20.75, 
			 "cosmo_repulsion_energy": 1.59, 
			 "cosmo_total_nonelectrostatic_energy": 8.31, 
			 "SMD_solvation_energy": 3.77 
		},
		"coords": [
			{
				"x": -2.1867269431,
				"y": 2.3652665587,
				"z": 1.194234946,
				"element": "C" 
			},
			{
				"x": -1.7544657467,
				"y": 1.071622903,
				"z": 0.57279999,
				"element": "C" 
			},
			{
				"x": -2.3564512542,
				"y": 0.4656168343,
				"z": -0.4626766728,
				"element": "C" 
			},
			{
				"x": -1.5502000835,
				"y": -1.0633763198,
				"z": -0.9240431731,
				"element": "S" 
			},
			{
				"x": -0.929072947,
				"y": -0.9425117474,
				"z": -2.2510596685,
				"element": "O" 
			},
			{
				"x": -2.4196085758,
				"y": -2.2145060461,
				"z": -0.6405093269,
				"element": "O" 
			},
			{
				"x": -0.3200175968,
				"y": -0.8614738246,
				"z": 0.3738038149,
				"element": "C" 
			},
			{
				"x": -0.5715868567,
				"y": 0.3237732607,
				"z": 1.0767533947,
				"element": "C" 
			},
			{
				"x": 0.2655358972,
				"y": 0.6798569593,
				"z": 2.1322436531,
				"element": "C" 
			},
			{
				"x": 1.3324419251,
				"y": -0.1692675112,
				"z": 2.4488282603,
				"element": "C" 
			},
			{
				"x": 2.3929747868,
				"y": 0.2677242323,
				"z": 3.7747631014,
				"element": "Cl" 
			},
			{
				"x": 1.5762977543,
				"y": -1.3484764734,
				"z": 1.7435394502,
				"element": "C" 
			},
			{
				"x": 0.7328095011,
				"y": -1.7033367903,
				"z": 0.6831500624,
				"element": "C" 
			},
			{
				"x": -1.3854980285,
				"y": 3.1111647711,
				"z": 1.1350504785,
				"element": "H" 
			},
			{
				"x": -2.4220928391,
				"y": 2.2263893848,
				"z": 2.2559096931,
				"element": "H" 
			},
			{
				"x": -3.0700339639,
				"y": 2.7699983111,
				"z": 0.6967950793,
				"element": "H" 
			},
			{
				"x": -3.2289515484,
				"y": 0.7867376701,
				"z": -1.0164348724,
				"element": "H" 
			},
			{
				"x": 0.1071596335,
				"y": 1.5879361098,
				"z": 2.7026072367,
				"element": "H" 
			},
			{
				"x": 2.413021949,
				"y": -1.979969652,
				"z": 2.0190265475,
				"element": "H" 
			},
			{
				"x": 0.9067649367,
				"y": -2.6164686305,
				"z": 0.1232180054,
				"element": "H" 
			}
		],
		 "valence_orbital": [ 
			{
				"type": "occ",
				"energy": -0.31516,
				"method": "rhf"
			},
			{
				"type": "occ",
				"energy": -0.30382,
				"method": "rhf"
			},
			{
				"type": "occ",
				"energy": -0.29615,
				"method": "rhf"
			},
			{
				"type": "occ",
				"energy": -0.27416,
				"method": "rhf"
			},
			{
				"type": "occ",
				"energy": -0.25653,
				"method": "rhf"
			},
			{
				"type": "unocc",
				"energy": -0.08048,
				"method": "rhf"
			},
			{
				"type": "unocc",
				"energy": -0.04593,
				"method": "rhf"
			},
			{
				"type": "unocc",
				"energy": 0.00813,
				"method": "rhf"
			},
			{
				"type": "unocc",
				"energy": 0.01024,
				"method": "rhf"
			},
			{
				"type": "unocc",
				"energy": 0.05431,
				"method": "rhf"
			}
		],
		"cosmo_sigma_profile": { 
			"-0.025": 0.0,
			"-0.024": 0.0,
			"-0.023": 0.0,
			"-0.022": 0.0,
			"-0.021": 0.0,
			"-0.02": 0.0,
			"-0.019": 0.0,
			"-0.018": 0.0,
			"-0.017": 0.0,
			"-0.016": 0.0,
			"-0.015": 0.0,
			"-0.014": 0.0,
			"-0.013": 0.0,
			"-0.012": 0.0,
			"-0.011": 0.281160300111,
			"-0.01": 2.50117546008,
			"-0.009": 4.82393519508,
			"-0.008": 8.47870025469,
			"-0.007": 10.6026209251,
			"-0.006": 14.0615058655,
			"-0.005": 11.8020171444,
			"-0.004": 11.4860882362,
			"-0.003": 12.3016605224,
			"-0.002": 17.841288217,
			"-0.001": 18.1341563295,
			"0.0": 22.1919535721,
			"0.001": 18.3905845665,
			"0.002": 9.60416284822,
			"0.003": 10.143718841,
			"0.004": 11.4191857396,
			"0.005": 3.15647132229,
			"0.006": 1.28607432098,
			"0.007": 1.91962099503,
			"0.008": 2.69648360809,
			"0.009": 4.03069146502,
			"0.01": 7.63201296374,
			"0.011": 14.7417438491,
			"0.012": 3.58305633545,
			"0.013": 0.0,
			"0.014": 0.0,
			"0.015": 0.0,
			"0.016": 0.0,
			"0.017": 0.0,
			"0.018": 0.0,
			"0.019": 0.0,
			"0.02": 0.0,
			"0.021": 0.0,
			"0.022": 0.0,
			"0.023": 0.0,
			"0.024": 0.0,
			"0.025": 0.0
		}
	}
}
