{
	 "smiles": "CCOC(=O)C1=CC2=CC=CC=C2C=C1O", 
	 "Tm": 353.65, 
	 "num_atms": 28, 
	 "gaussian": { 
		 "optdone": 1, 
		 "sigma_profile": "yes", 
		 "theory": "DFT", 
		 "functional": "B3LYP", 
		 "basiset": "6-31G**", 
		 "properties": { 
			 "R2extent": 4494.189, 
			 "electric_dipole_moment_norm": 2.98961323418, 
			 "electric_quadrupole_moment_norm": 16.9808253518, 
			 "total_energy": -728.3263272, 
			 "HOMO_LUMO_gap": 0.14218, 
			 "cosmo_polarized_energy": -8.14, 
			 "cosmo_cavitation_energy": 31.67, 
			 "cosmo_dispersion_energy": -23.56, 
			 "cosmo_repulsion_energy": 1.81, 
			 "cosmo_total_nonelectrostatic_energy": 9.93, 
			 "SMD_solvation_energy": 6.39 
		},
		"coords": [
			{
				"x": 4.8550937081,
				"y": 0.3618628684,
				"z": -1.4228075104,
				"element": "C" 
			},
			{
				"x": 4.3437691119,
				"y": 1.0990100947,
				"z": -0.1948316315,
				"element": "C" 
			},
			{
				"x": 3.0321730189,
				"y": 0.6208162897,
				"z": 0.1990451352,
				"element": "O" 
			},
			{
				"x": 1.9711003941,
				"y": 1.1714466928,
				"z": -0.4117105126,
				"element": "C" 
			},
			{
				"x": 2.0864827851,
				"y": 2.0522453611,
				"z": -1.2672932162,
				"element": "O" 
			},
			{
				"x": 0.6734789325,
				"y": 0.6328114899,
				"z": 0.0356171557,
				"element": "C" 
			},
			{
				"x": 0.5950052987,
				"y": -0.3613584408,
				"z": 1.0012660546,
				"element": "C" 
			},
			{
				"x": -0.6427324794,
				"y": -0.8808151926,
				"z": 1.431341869,
				"element": "C" 
			},
			{
				"x": -0.7333767767,
				"y": -1.9003742762,
				"z": 2.4210911916,
				"element": "C" 
			},
			{
				"x": -1.9552604867,
				"y": -2.3862833159,
				"z": 2.8195510948,
				"element": "C" 
			},
			{
				"x": -3.145684937,
				"y": -1.8702470955,
				"z": 2.24169672,
				"element": "C" 
			},
			{
				"x": -3.0948316817,
				"y": -0.885407322,
				"z": 1.2832937827,
				"element": "C" 
			},
			{
				"x": -1.8464017218,
				"y": -0.357475737,
				"z": 0.8454689802,
				"element": "C" 
			},
			{
				"x": -1.7578176986,
				"y": 0.6536048343,
				"z": -0.1361902596,
				"element": "C" 
			},
			{
				"x": -0.5345089537,
				"y": 1.1539168443,
				"z": -0.5486012529,
				"element": "C" 
			},
			{
				"x": -0.5122144806,
				"y": 2.1175286777,
				"z": -1.4878343364,
				"element": "O" 
			},
			{
				"x": 4.2285965414,
				"y": 0.5778408887,
				"z": -2.2914537144,
				"element": "H" 
			},
			{
				"x": 5.8766773622,
				"y": 0.685684484,
				"z": -1.6476571131,
				"element": "H" 
			},
			{
				"x": 4.8669381765,
				"y": -0.7186064604,
				"z": -1.2527063691,
				"element": "H" 
			},
			{
				"x": 4.9693698818,
				"y": 0.9062427731,
				"z": 0.6795450706,
				"element": "H" 
			},
			{
				"x": 4.2871191613,
				"y": 2.1750879908,
				"z": -0.3718398014,
				"element": "H" 
			},
			{
				"x": 1.5127558352,
				"y": -0.7459788503,
				"z": 1.4332043611,
				"element": "H" 
			},
			{
				"x": 0.1848142128,
				"y": -2.287159132,
				"z": 2.8560182591,
				"element": "H" 
			},
			{
				"x": -2.0170660996,
				"y": -3.1637782091,
				"z": 3.5749103883,
				"element": "H" 
			},
			{
				"x": -4.1069351969,
				"y": -2.2611091619,
				"z": 2.563578084,
				"element": "H" 
			},
			{
				"x": -4.0093926642,
				"y": -0.495013766,
				"z": 0.8452747399,
				"element": "H" 
			},
			{
				"x": -2.6576147545,
				"y": 1.0589783268,
				"z": -0.5878966031,
				"element": "H" 
			},
			{
				"x": 0.432563511,
				"y": 2.3442293436,
				"z": -1.6497805659,
				"element": "H" 
			}
		],
		 "valence_orbital": [ 
			{
				"type": "occ",
				"energy": -0.30782,
				"method": "rhf"
			},
			{
				"type": "occ",
				"energy": -0.28677,
				"method": "rhf"
			},
			{
				"type": "occ",
				"energy": -0.28201,
				"method": "rhf"
			},
			{
				"type": "occ",
				"energy": -0.24009,
				"method": "rhf"
			},
			{
				"type": "occ",
				"energy": -0.20503,
				"method": "rhf"
			},
			{
				"type": "unocc",
				"energy": -0.06285,
				"method": "rhf"
			},
			{
				"type": "unocc",
				"energy": -0.01616,
				"method": "rhf"
			},
			{
				"type": "unocc",
				"energy": 0.02151,
				"method": "rhf"
			},
			{
				"type": "unocc",
				"energy": 0.043,
				"method": "rhf"
			},
			{
				"type": "unocc",
				"energy": 0.09636,
				"method": "rhf"
			}
		],
		"cosmo_sigma_profile": { 
			"-0.025": 0.0,
			"-0.024": 0.0,
			"-0.023": 0.0,
			"-0.022": 0.0,
			"-0.021": 0.0,
			"-0.02": 0.0,
			"-0.019": 0.0,
			"-0.018": 0.0,
			"-0.017": 0.0,
			"-0.016": 0.0,
			"-0.015": 0.0,
			"-0.014": 0.0,
			"-0.013": 0.0,
			"-0.012": 0.0,
			"-0.011": 0.0,
			"-0.01": 0.0,
			"-0.009": 0.0,
			"-0.008": 0.0,
			"-0.007": 2.45637704833,
			"-0.006": 14.4282848483,
			"-0.005": 16.8273205519,
			"-0.004": 23.6496393066,
			"-0.003": 24.5544445639,
			"-0.002": 21.9382129041,
			"-0.001": 19.5581362553,
			"0.0": 21.1111838185,
			"0.001": 16.2874006432,
			"0.002": 18.4141913374,
			"0.003": 24.4565031768,
			"0.004": 19.5370665512,
			"0.005": 11.8374371497,
			"0.006": 2.94759042713,
			"0.007": 2.51020021262,
			"0.008": 3.29200580669,
			"0.009": 2.408823055,
			"0.01": 3.19659176483,
			"0.011": 2.59012503607,
			"0.012": 0.892175271394,
			"0.013": 0.0,
			"0.014": 0.0,
			"0.015": 0.0,
			"0.016": 0.0,
			"0.017": 0.0,
			"0.018": 0.0,
			"0.019": 0.0,
			"0.02": 0.0,
			"0.021": 0.0,
			"0.022": 0.0,
			"0.023": 0.0,
			"0.024": 0.0,
			"0.025": 0.0
		}
	}
}
