{
	 "smiles": "NNC1=C(C=C(C=C1[N+]([O-])=O)C(F)(F)F)[N+]([O-])=O", 
	 "Tm": 403.15, 
	 "num_atms": 23, 
	 "gaussian": { 
		 "optdone": 1, 
		 "sigma_profile": "yes", 
		 "theory": "DFT", 
		 "functional": "B3LYP", 
		 "basiset": "6-31G**", 
		 "properties": { 
			 "R2extent": 5022.5326, 
			 "electric_dipole_moment_norm": 2.68243749042, 
			 "electric_quadrupole_moment_norm": 17.2158524488, 
			 "total_energy": -1088.93836653, 
			 "HOMO_LUMO_gap": 0.13584, 
			 "cosmo_polarized_energy": -15.25, 
			 "cosmo_cavitation_energy": 30.39, 
			 "cosmo_dispersion_energy": -21.72, 
			 "cosmo_repulsion_energy": 1.62, 
			 "cosmo_total_nonelectrostatic_energy": 10.29, 
			 "SMD_solvation_energy": 11.08 
		},
		"coords": [
			{
				"x": 3.4773677913,
				"y": -1.2727415587,
				"z": -0.3737109381,
				"element": "N" 
			},
			{
				"x": 2.2041365166,
				"y": -1.2287201136,
				"z": 0.2192992762,
				"element": "N" 
			},
			{
				"x": 1.2497268394,
				"y": -0.3946433864,
				"z": -0.2355613729,
				"element": "C" 
			},
			{
				"x": 1.5432926099,
				"y": 0.7519202359,
				"z": -1.0375066139,
				"element": "C" 
			},
			{
				"x": 0.557187889,
				"y": 1.4930495419,
				"z": -1.6640269339,
				"element": "C" 
			},
			{
				"x": -0.7937799745,
				"y": 1.2036845169,
				"z": -1.4496125095,
				"element": "C" 
			},
			{
				"x": -1.1323110125,
				"y": 0.1776911322,
				"z": -0.5810312623,
				"element": "C" 
			},
			{
				"x": -0.1463833269,
				"y": -0.6046632733,
				"z": 0.0206734575,
				"element": "C" 
			},
			{
				"x": -0.616131253,
				"y": -1.6763120396,
				"z": 0.8858201595,
				"element": "N" 
			},
			{
				"x": 0.2249426496,
				"y": -2.4056101532,
				"z": 1.4461116098,
				"element": "O" 
			},
			{
				"x": -1.8259567659,
				"y": -1.8214133652,
				"z": 1.0346686262,
				"element": "O" 
			},
			{
				"x": -1.8555013904,
				"y": 1.996454414,
				"z": -2.1605736088,
				"element": "C" 
			},
			{
				"x": -2.0696971413,
				"y": 1.530658084,
				"z": -3.4111580686,
				"element": "F" 
			},
			{
				"x": -1.5014962869,
				"y": 3.2944221335,
				"z": -2.2811497999,
				"element": "F" 
			},
			{
				"x": -3.0347221731,
				"y": 1.9458242162,
				"z": -1.5080501779,
				"element": "F" 
			},
			{
				"x": 2.8941625766,
				"y": 1.3265201955,
				"z": -1.0967472595,
				"element": "N" 
			},
			{
				"x": 3.5395215094,
				"y": 1.3576881461,
				"z": -0.0455213184,
				"element": "O" 
			},
			{
				"x": 3.2500952003,
				"y": 1.8332984094,
				"z": -2.1561097107,
				"element": "O" 
			},
			{
				"x": 4.1427527874,
				"y": -0.7588860204,
				"z": 0.2033124075,
				"element": "H" 
			},
			{
				"x": 3.7559704068,
				"y": -2.2478548798,
				"z": -0.435439964,
				"element": "H" 
			},
			{
				"x": 1.8852060055,
				"y": -1.9577490483,
				"z": 0.8514058067,
				"element": "H" 
			},
			{
				"x": 0.8574839928,
				"y": 2.3329160258,
				"z": -2.279338932,
				"element": "H" 
			},
			{
				"x": -2.1662674499,
				"y": -0.0490332127,
				"z": -0.3567528732,
				"element": "H" 
			}
		],
		 "valence_orbital": [ 
			{
				"type": "occ",
				"energy": -0.3216,
				"method": "rhf"
			},
			{
				"type": "occ",
				"energy": -0.31771,
				"method": "rhf"
			},
			{
				"type": "occ",
				"energy": -0.30251,
				"method": "rhf"
			},
			{
				"type": "occ",
				"energy": -0.29302,
				"method": "rhf"
			},
			{
				"type": "occ",
				"energy": -0.25131,
				"method": "rhf"
			},
			{
				"type": "unocc",
				"energy": -0.11547,
				"method": "rhf"
			},
			{
				"type": "unocc",
				"energy": -0.09151,
				"method": "rhf"
			},
			{
				"type": "unocc",
				"energy": -0.04376,
				"method": "rhf"
			},
			{
				"type": "unocc",
				"energy": -0.02338,
				"method": "rhf"
			},
			{
				"type": "unocc",
				"energy": 0.05407,
				"method": "rhf"
			}
		],
		"cosmo_sigma_profile": { 
			"-0.025": 0.0,
			"-0.024": 0.0,
			"-0.023": 0.0,
			"-0.022": 0.0,
			"-0.021": 0.0,
			"-0.02": 0.0,
			"-0.019": 0.0,
			"-0.018": 0.0,
			"-0.017": 0.0,
			"-0.016": 0.0068113127777,
			"-0.015": 0.964981423411,
			"-0.014": 2.48227410263,
			"-0.013": 2.39974926362,
			"-0.012": 2.18088938863,
			"-0.011": 3.89512507588,
			"-0.01": 2.84087432448,
			"-0.009": 2.78302298236,
			"-0.008": 5.1365868075,
			"-0.007": 8.24688657846,
			"-0.006": 9.29363983579,
			"-0.005": 10.0165915384,
			"-0.004": 12.1543860613,
			"-0.003": 16.2305989046,
			"-0.002": 17.8475702508,
			"-0.001": 13.3432896515,
			"0.0": 11.2460594376,
			"0.001": 12.4058708207,
			"0.002": 29.1164917232,
			"0.003": 21.1650859736,
			"0.004": 7.27742003239,
			"0.005": 6.49773411691,
			"0.006": 8.81785286526,
			"0.007": 15.5719536697,
			"0.008": 10.8282102492,
			"0.009": 7.90961171793,
			"0.01": 3.18653785889,
			"0.011": 0.216289169411,
			"0.012": 0.0,
			"0.013": 0.0,
			"0.014": 0.0,
			"0.015": 0.0,
			"0.016": 0.0,
			"0.017": 0.0,
			"0.018": 0.0,
			"0.019": 0.0,
			"0.02": 0.0,
			"0.021": 0.0,
			"0.022": 0.0,
			"0.023": 0.0,
			"0.024": 0.0,
			"0.025": 0.0
		}
	}
}
