{
	 "smiles": "CCS(Cl)(=O)=O", 
	 "Tm": 203.15, 
	 "num_atms": 11, 
	 "gaussian": { 
		 "optdone": 1, 
		 "sigma_profile": "yes", 
		 "theory": "DFT", 
		 "functional": "B3LYP", 
		 "basiset": "6-31G**", 
		 "properties": { 
			 "R2extent": 1923.7138, 
			 "electric_dipole_moment_norm": 4.35567748691, 
			 "electric_quadrupole_moment_norm": 8.76596893789, 
			 "total_energy": -1087.9950449, 
			 "HOMO_LUMO_gap": 0.23303, 
			 "cosmo_polarized_energy": -9.63, 
			 "cosmo_cavitation_energy": 17.74, 
			 "cosmo_dispersion_energy": -13.91, 
			 "cosmo_repulsion_energy": 1.15, 
			 "cosmo_total_nonelectrostatic_energy": 4.97, 
			 "SMD_solvation_energy": 1.96 
		},
		"coords": [
			{
				"x": -0.4096650704,
				"y": -0.2061879668,
				"z": -1.0510067832,
				"element": "C" 
			},
			{
				"x": 0.2425867922,
				"y": -0.5823997229,
				"z": 0.2708325642,
				"element": "C" 
			},
			{
				"x": 1.0767611071,
				"y": -2.2015913968,
				"z": 0.2341217417,
				"element": "S" 
			},
			{
				"x": -0.6161054617,
				"y": -3.4981878892,
				"z": 0.0549205056,
				"element": "Cl" 
			},
			{
				"x": 1.6665708102,
				"y": -2.4574862061,
				"z": 1.5418548431,
				"element": "O" 
			},
			{
				"x": 1.8438130604,
				"y": -2.3343115046,
				"z": -0.9985375319,
				"element": "O" 
			},
			{
				"x": -1.2173539988,
				"y": -0.8953178675,
				"z": -1.3076459653,
				"element": "H" 
			},
			{
				"x": 0.32189869,
				"y": -0.2020671837,
				"z": -1.861544029,
				"element": "H" 
			},
			{
				"x": -0.8334646971,
				"y": 0.7982431509,
				"z": -0.9588498511,
				"element": "H" 
			},
			{
				"x": -0.45725345,
				"y": -0.6412868482,
				"z": 1.1072468252,
				"element": "H" 
			},
			{
				"x": 1.059712218,
				"y": 0.093693435,
				"z": 0.5446076808,
				"element": "H" 
			}
		],
		 "valence_orbital": [ 
			{
				"type": "occ",
				"energy": -0.36614,
				"method": "rhf"
			},
			{
				"type": "occ",
				"energy": -0.34321,
				"method": "rhf"
			},
			{
				"type": "occ",
				"energy": -0.33842,
				"method": "rhf"
			},
			{
				"type": "occ",
				"energy": -0.33018,
				"method": "rhf"
			},
			{
				"type": "occ",
				"energy": -0.31732,
				"method": "rhf"
			},
			{
				"type": "unocc",
				"energy": -0.08429,
				"method": "rhf"
			},
			{
				"type": "unocc",
				"energy": 0.03959,
				"method": "rhf"
			},
			{
				"type": "unocc",
				"energy": 0.0621,
				"method": "rhf"
			},
			{
				"type": "unocc",
				"energy": 0.0666,
				"method": "rhf"
			},
			{
				"type": "unocc",
				"energy": 0.09079,
				"method": "rhf"
			}
		],
		"cosmo_sigma_profile": { 
			"-0.025": 0.0,
			"-0.024": 0.0,
			"-0.023": 0.0,
			"-0.022": 0.0,
			"-0.021": 0.0,
			"-0.02": 0.0,
			"-0.019": 0.0,
			"-0.018": 0.0,
			"-0.017": 0.0,
			"-0.016": 0.0,
			"-0.015": 0.0,
			"-0.014": 0.0,
			"-0.013": 0.0,
			"-0.012": 0.433499811454,
			"-0.011": 1.40456275428,
			"-0.01": 3.15231809774,
			"-0.009": 4.04651531211,
			"-0.008": 4.17167143329,
			"-0.007": 4.82775290368,
			"-0.006": 8.02060885557,
			"-0.005": 7.92806259007,
			"-0.004": 7.63887813995,
			"-0.003": 9.04972252104,
			"-0.002": 10.2734906468,
			"-0.001": 9.24786041396,
			"0.0": 6.51077208986,
			"0.001": 5.39457296382,
			"0.002": 8.98963827337,
			"0.003": 10.8345979858,
			"0.004": 11.2991599609,
			"0.005": 3.0039338985,
			"0.006": 2.87336998725,
			"0.007": 4.49378822082,
			"0.008": 10.8037956027,
			"0.009": 8.05598836969,
			"0.01": 0.499017379368,
			"0.011": 0.0,
			"0.012": 0.0,
			"0.013": 0.0,
			"0.014": 0.0,
			"0.015": 0.0,
			"0.016": 0.0,
			"0.017": 0.0,
			"0.018": 0.0,
			"0.019": 0.0,
			"0.02": 0.0,
			"0.021": 0.0,
			"0.022": 0.0,
			"0.023": 0.0,
			"0.024": 0.0,
			"0.025": 0.0
		}
	}
}
