{
	 "smiles": "CCOC1=CC=C(C=O)C=C1OCC", 
	 "Tm": 295.15, 
	 "num_atms": 28, 
	 "gaussian": { 
		 "optdone": 1, 
		 "sigma_profile": "yes", 
		 "theory": "DFT", 
		 "functional": "B3LYP", 
		 "basiset": "6-31G**", 
		 "properties": { 
			 "R2extent": 4532.8112, 
			 "electric_dipole_moment_norm": 4.30246207305, 
			 "electric_quadrupole_moment_norm": 21.6803537081, 
			 "total_energy": -653.25707135, 
			 "HOMO_LUMO_gap": 0.18174, 
			 "cosmo_polarized_energy": -9.29, 
			 "cosmo_cavitation_energy": 31.93, 
			 "cosmo_dispersion_energy": -22.06, 
			 "cosmo_repulsion_energy": 1.77, 
			 "cosmo_total_nonelectrostatic_energy": 11.64, 
			 "SMD_solvation_energy": 7.17 
		},
		"coords": [
			{
				"x": 1.761058169,
				"y": -0.8186110499,
				"z": -2.9137585856,
				"element": "C" 
			},
			{
				"x": 0.5893434423,
				"y": -0.2918355263,
				"z": -2.106718712,
				"element": "C" 
			},
			{
				"x": 0.8584038799,
				"y": 1.0953455414,
				"z": -1.8015983322,
				"element": "O" 
			},
			{
				"x": -0.1023284773,
				"y": 1.7459981834,
				"z": -1.0733117904,
				"element": "C" 
			},
			{
				"x": -0.7990011199,
				"y": 2.8008999681,
				"z": -1.6781027654,
				"element": "C" 
			},
			{
				"x": -1.7651066852,
				"y": 3.5066890323,
				"z": -0.9729718058,
				"element": "C" 
			},
			{
				"x": -2.0543031011,
				"y": 3.1574064481,
				"z": 0.3547545964,
				"element": "C" 
			},
			{
				"x": -3.0896745195,
				"y": 3.8884012641,
				"z": 1.1142452702,
				"element": "C" 
			},
			{
				"x": -3.747985863,
				"y": 4.8136645545,
				"z": 0.6759222643,
				"element": "O" 
			},
			{
				"x": -1.3468787255,
				"y": 2.1151138314,
				"z": 0.9684149751,
				"element": "C" 
			},
			{
				"x": -0.3670797336,
				"y": 1.4117417654,
				"z": 0.2721498456,
				"element": "C" 
			},
			{
				"x": 0.2964916666,
				"y": 0.3835753501,
				"z": 0.9006729447,
				"element": "O" 
			},
			{
				"x": 1.6769696133,
				"y": 0.6556124555,
				"z": 1.2230370268,
				"element": "C" 
			},
			{
				"x": 2.2374618118,
				"y": -0.5675469513,
				"z": 1.9246060143,
				"element": "C" 
			},
			{
				"x": 1.5862763976,
				"y": -1.8636191387,
				"z": -3.1882553328,
				"element": "H" 
			},
			{
				"x": 1.8935144534,
				"y": -0.2365328043,
				"z": -3.8301693314,
				"element": "H" 
			},
			{
				"x": 2.6881884056,
				"y": -0.7645111463,
				"z": -2.3355884347,
				"element": "H" 
			},
			{
				"x": 0.4544033092,
				"y": -0.8541731563,
				"z": -1.1772777311,
				"element": "H" 
			},
			{
				"x": -0.3434692387,
				"y": -0.3497753056,
				"z": -2.6836516833,
				"element": "H" 
			},
			{
				"x": -0.5610957264,
				"y": 3.0400961302,
				"z": -2.7097565044,
				"element": "H" 
			},
			{
				"x": -2.3174013173,
				"y": 4.3214846384,
				"z": -1.4294505579,
				"element": "H" 
			},
			{
				"x": -3.2387296324,
				"y": 3.52660902,
				"z": 2.1566858766,
				"element": "H" 
			},
			{
				"x": -1.5477758277,
				"y": 1.8379222652,
				"z": 2.0001494895,
				"element": "H" 
			},
			{
				"x": 1.7220982087,
				"y": 1.5383543706,
				"z": 1.8755406521,
				"element": "H" 
			},
			{
				"x": 2.2316969957,
				"y": 0.8807248122,
				"z": 0.3050665104,
				"element": "H" 
			},
			{
				"x": 1.6660551233,
				"y": -0.7896449977,
				"z": 2.830372614,
				"element": "H" 
			},
			{
				"x": 2.1987687741,
				"y": -1.4440241742,
				"z": 1.2710702423,
				"element": "H" 
			},
			{
				"x": 3.2806997171,
				"y": -0.3932653801,
				"z": 2.2060232449,
				"element": "H" 
			}
		],
		 "valence_orbital": [ 
			{
				"type": "occ",
				"energy": -0.30404,
				"method": "rhf"
			},
			{
				"type": "occ",
				"energy": -0.27298,
				"method": "rhf"
			},
			{
				"type": "occ",
				"energy": -0.25712,
				"method": "rhf"
			},
			{
				"type": "occ",
				"energy": -0.24981,
				"method": "rhf"
			},
			{
				"type": "occ",
				"energy": -0.23936,
				"method": "rhf"
			},
			{
				"type": "unocc",
				"energy": -0.05762,
				"method": "rhf"
			},
			{
				"type": "unocc",
				"energy": -0.01038,
				"method": "rhf"
			},
			{
				"type": "unocc",
				"energy": 0.04327,
				"method": "rhf"
			},
			{
				"type": "unocc",
				"energy": 0.07532,
				"method": "rhf"
			},
			{
				"type": "unocc",
				"energy": 0.09427,
				"method": "rhf"
			}
		],
		"cosmo_sigma_profile": { 
			"-0.025": 0.0,
			"-0.024": 0.0,
			"-0.023": 0.0,
			"-0.022": 0.0,
			"-0.021": 0.0,
			"-0.02": 0.0,
			"-0.019": 0.0,
			"-0.018": 0.0,
			"-0.017": 0.0,
			"-0.016": 0.0,
			"-0.015": 0.0,
			"-0.014": 0.0,
			"-0.013": 0.0,
			"-0.012": 0.0,
			"-0.011": 0.0,
			"-0.01": 0.0,
			"-0.009": 0.0,
			"-0.008": 1.02777033809,
			"-0.007": 4.855688144,
			"-0.006": 7.65648296424,
			"-0.005": 8.86067943075,
			"-0.004": 21.5360954076,
			"-0.003": 33.0973281065,
			"-0.002": 32.5862105396,
			"-0.001": 27.2468773975,
			"0.0": 26.2106604316,
			"0.001": 19.9921803579,
			"0.002": 16.4390932446,
			"0.003": 13.0036794621,
			"0.004": 5.36896117782,
			"0.005": 5.04407245364,
			"0.006": 3.7413416072,
			"0.007": 3.42454718691,
			"0.008": 3.92367990065,
			"0.009": 3.89854548138,
			"0.01": 4.07929227876,
			"0.011": 5.33738560337,
			"0.012": 3.67994945671,
			"0.013": 1.17615920805,
			"0.014": 0.0196543330844,
			"0.015": 0.0,
			"0.016": 0.0,
			"0.017": 0.0,
			"0.018": 0.0,
			"0.019": 0.0,
			"0.02": 0.0,
			"0.021": 0.0,
			"0.022": 0.0,
			"0.023": 0.0,
			"0.024": 0.0,
			"0.025": 0.0
		}
	}
}
