{
	 "smiles": "OC(=O)C1CCCN(C1)C(=O)C1=CC2=C(NN=C2)C=C1", 
	 "Tm": 513.15, 
	 "num_atms": 35, 
	 "gaussian": { 
		 "optdone": 1, 
		 "sigma_profile": "yes", 
		 "theory": "DFT", 
		 "functional": "B3LYP", 
		 "basiset": "6-31G**", 
		 "properties": { 
			 "R2extent": 7022.57, 
			 "electric_dipole_moment_norm": 3.84311917328, 
			 "electric_quadrupole_moment_norm": 34.7589662595, 
			 "total_energy": -932.472833212, 
			 "HOMO_LUMO_gap": 0.18901, 
			 "cosmo_polarized_energy": -22.58, 
			 "cosmo_cavitation_energy": 37.33, 
			 "cosmo_dispersion_energy": -26.63, 
			 "cosmo_repulsion_energy": 2.03, 
			 "cosmo_total_nonelectrostatic_energy": 12.73, 
			 "SMD_solvation_energy": 5.69 
		},
		"coords": [
			{
				"x": -4.01464311,
				"y": -0.7063877487,
				"z": 1.6024667392,
				"element": "O" 
			},
			{
				"x": -4.1508071899,
				"y": 0.3868905448,
				"z": 2.3942270378,
				"element": "C" 
			},
			{
				"x": -4.5080449894,
				"y": 0.3056785431,
				"z": 3.5480618625,
				"element": "O" 
			},
			{
				"x": -3.8105029473,
				"y": 1.6970109226,
				"z": 1.6998875645,
				"element": "C" 
			},
			{
				"x": -4.1897335894,
				"y": 1.7915392893,
				"z": 0.2044166097,
				"element": "C" 
			},
			{
				"x": -3.1984876085,
				"y": 1.0786220836,
				"z": -0.7289918081,
				"element": "C" 
			},
			{
				"x": -1.7435359085,
				"y": 1.4720544264,
				"z": -0.4281743863,
				"element": "C" 
			},
			{
				"x": -1.4319708477,
				"y": 1.2853194465,
				"z": 0.9940614498,
				"element": "N" 
			},
			{
				"x": -2.309143059,
				"y": 2.0385328382,
				"z": 1.88754043,
				"element": "C" 
			},
			{
				"x": -0.7694617908,
				"y": 0.1906159657,
				"z": 1.5196420914,
				"element": "C" 
			},
			{
				"x": -0.970651228,
				"y": -0.1938594703,
				"z": 2.6707106988,
				"element": "O" 
			},
			{
				"x": 0.2707638028,
				"y": -0.4923468256,
				"z": 0.6767236921,
				"element": "C" 
			},
			{
				"x": 1.1829582303,
				"y": 0.2116541297,
				"z": -0.1034940997,
				"element": "C" 
			},
			{
				"x": 2.1959568555,
				"y": -0.4989979462,
				"z": -0.7694078123,
				"element": "C" 
			},
			{
				"x": 2.2652286764,
				"y": -1.909917583,
				"z": -0.6383696225,
				"element": "C" 
			},
			{
				"x": 3.3331115034,
				"y": -2.2964889901,
				"z": -1.3966537632,
				"element": "N" 
			},
			{
				"x": 3.9585987258,
				"y": -1.2481302159,
				"z": -1.9995422228,
				"element": "N" 
			},
			{
				"x": 3.2893674916,
				"y": -0.171119923,
				"z": -1.6313479653,
				"element": "C" 
			},
			{
				"x": 1.3589165152,
				"y": -2.6298685954,
				"z": 0.1592162305,
				"element": "C" 
			},
			{
				"x": 0.3839067585,
				"y": -1.9023477326,
				"z": 0.8156987302,
				"element": "C" 
			},
			{
				"x": -4.1953222721,
				"y": -1.4693430709,
				"z": 2.177587667,
				"element": "H" 
			},
			{
				"x": -4.3758796581,
				"y": 2.4460507846,
				"z": 2.2635173951,
				"element": "H" 
			},
			{
				"x": -5.2037199512,
				"y": 1.4107617685,
				"z": 0.0429331769,
				"element": "H" 
			},
			{
				"x": -4.2143415627,
				"y": 2.8592757663,
				"z": -0.053067892,
				"element": "H" 
			},
			{
				"x": -3.300383636,
				"y": -0.0045503575,
				"z": -0.6207609389,
				"element": "H" 
			},
			{
				"x": -3.4275172177,
				"y": 1.3285578818,
				"z": -1.7719552998,
				"element": "H" 
			},
			{
				"x": -1.57670343,
				"y": 2.5292212763,
				"z": -0.6814759153,
				"element": "H" 
			},
			{
				"x": -1.0606440002,
				"y": 0.8768812593,
				"z": -1.0319655606,
				"element": "H" 
			},
			{
				"x": -2.1787188794,
				"y": 3.1054460931,
				"z": 1.6622795792,
				"element": "H" 
			},
			{
				"x": -1.9969741805,
				"y": 1.8527939195,
				"z": 2.9146280908,
				"element": "H" 
			},
			{
				"x": 1.1280871941,
				"y": 1.2936111249,
				"z": -0.1756033245,
				"element": "H" 
			},
			{
				"x": 3.697125864,
				"y": -3.2249687187,
				"z": -1.5379867435,
				"element": "H" 
			},
			{
				"x": 3.5991584572,
				"y": 0.8020064807,
				"z": -1.9884114554,
				"element": "H" 
			},
			{
				"x": 1.4259752132,
				"y": -3.70778739,
				"z": 0.2689181579,
				"element": "H" 
			},
			{
				"x": -0.3202682311,
				"y": -2.401309977,
				"z": 1.4724916067,
				"element": "H" 
			}
		],
		 "valence_orbital": [ 
			{
				"type": "occ",
				"energy": -0.26718,
				"method": "rhf"
			},
			{
				"type": "occ",
				"energy": -0.26025,
				"method": "rhf"
			},
			{
				"type": "occ",
				"energy": -0.24311,
				"method": "rhf"
			},
			{
				"type": "occ",
				"energy": -0.23459,
				"method": "rhf"
			},
			{
				"type": "occ",
				"energy": -0.22888,
				"method": "rhf"
			},
			{
				"type": "unocc",
				"energy": -0.03987,
				"method": "rhf"
			},
			{
				"type": "unocc",
				"energy": -0.01541,
				"method": "rhf"
			},
			{
				"type": "unocc",
				"energy": 0.01294,
				"method": "rhf"
			},
			{
				"type": "unocc",
				"energy": 0.04658,
				"method": "rhf"
			},
			{
				"type": "unocc",
				"energy": 0.05823,
				"method": "rhf"
			}
		],
		"cosmo_sigma_profile": { 
			"-0.025": 0.0,
			"-0.024": 0.0,
			"-0.023": 0.0,
			"-0.022": 0.0,
			"-0.021": 0.0,
			"-0.02": 0.0,
			"-0.019": 0.0,
			"-0.018": 0.384066772286,
			"-0.017": 1.21510700619,
			"-0.016": 2.73481004427,
			"-0.015": 2.01329739663,
			"-0.014": 1.93697798561,
			"-0.013": 1.73788396634,
			"-0.012": 1.50909136322,
			"-0.011": 1.85847386293,
			"-0.01": 2.08207718795,
			"-0.009": 1.03935757491,
			"-0.008": 3.14897798709,
			"-0.007": 6.41010730155,
			"-0.006": 10.8079437573,
			"-0.005": 20.1313431184,
			"-0.004": 25.6253604157,
			"-0.003": 26.9095870824,
			"-0.002": 25.8398880176,
			"-0.001": 18.4297513862,
			"0.0": 17.4728734132,
			"0.001": 14.032148669,
			"0.002": 18.6632770622,
			"0.003": 19.4899276888,
			"0.004": 13.5481394109,
			"0.005": 8.68509908648,
			"0.006": 4.84788421321,
			"0.007": 5.80216784711,
			"0.008": 4.82431919123,
			"0.009": 4.60338490676,
			"0.01": 4.82790562217,
			"0.011": 6.00351705774,
			"0.012": 8.44895603682,
			"0.013": 5.19757220645,
			"0.014": 3.6336257172,
			"0.015": 1.18841468545,
			"0.016": 0.0378679837223,
			"0.017": 0.0,
			"0.018": 0.0,
			"0.019": 0.0,
			"0.02": 0.0,
			"0.021": 0.0,
			"0.022": 0.0,
			"0.023": 0.0,
			"0.024": 0.0,
			"0.025": 0.0
		}
	}
}
