{
	 "smiles": "CN(C)C=C(C#N)C(=O)NCC1=CC=C(C)C=C1", 
	 "Tm": 409.15, 
	 "num_atms": 35, 
	 "gaussian": { 
		 "optdone": 1, 
		 "sigma_profile": "yes", 
		 "theory": "DFT", 
		 "functional": "B3LYP", 
		 "basiset": "6-31G**", 
		 "properties": { 
			 "R2extent": 7489.3788, 
			 "electric_dipole_moment_norm": 4.02583871883, 
			 "electric_quadrupole_moment_norm": 34.9538436936, 
			 "total_energy": -783.215739811, 
			 "HOMO_LUMO_gap": 0.18994, 
			 "cosmo_polarized_energy": -17.7, 
			 "cosmo_cavitation_energy": 39.49, 
			 "cosmo_dispersion_energy": -27.39, 
			 "cosmo_repulsion_energy": 2.14, 
			 "cosmo_total_nonelectrostatic_energy": 14.23, 
			 "SMD_solvation_energy": 7.93 
		},
		"coords": [
			{
				"x": 1.3337930623,
				"y": -3.9977884874,
				"z": -2.3848805612,
				"element": "C" 
			},
			{
				"x": 0.5876099603,
				"y": -3.8216819294,
				"z": -1.1438772068,
				"element": "N" 
			},
			{
				"x": 0.782438004,
				"y": -4.880517929,
				"z": -0.1597740628,
				"element": "C" 
			},
			{
				"x": -0.1437418296,
				"y": -2.7402536914,
				"z": -0.8256113222,
				"element": "C" 
			},
			{
				"x": -0.430249846,
				"y": -1.5741100011,
				"z": -1.4999523787,
				"element": "C" 
			},
			{
				"x": 0.0464072489,
				"y": -1.2066106101,
				"z": -2.7833207529,
				"element": "C" 
			},
			{
				"x": 0.3994004482,
				"y": -0.8331393979,
				"z": -3.8331827987,
				"element": "N" 
			},
			{
				"x": -1.3341991541,
				"y": -0.6279293851,
				"z": -0.7653873043,
				"element": "C" 
			},
			{
				"x": -1.7833414324,
				"y": -0.8995182045,
				"z": 0.3524489964,
				"element": "O" 
			},
			{
				"x": -1.6319455138,
				"y": 0.5335325742,
				"z": -1.4147588249,
				"element": "N" 
			},
			{
				"x": -2.4560070352,
				"y": 1.572862205,
				"z": -0.8036704752,
				"element": "C" 
			},
			{
				"x": -1.6562401884,
				"y": 2.6891027441,
				"z": -0.157400564,
				"element": "C" 
			},
			{
				"x": -0.9169268669,
				"y": 2.4465602297,
				"z": 1.0108887337,
				"element": "C" 
			},
			{
				"x": -0.1759374953,
				"y": 3.4644495664,
				"z": 1.6030736197,
				"element": "C" 
			},
			{
				"x": -0.1462260426,
				"y": 4.7572567396,
				"z": 1.0548599458,
				"element": "C" 
			},
			{
				"x": 0.6710871477,
				"y": 5.8508646437,
				"z": 1.7020644121,
				"element": "C" 
			},
			{
				"x": -0.8880610493,
				"y": 4.9937478596,
				"z": -0.1062094905,
				"element": "C" 
			},
			{
				"x": -1.6320139164,
				"y": 3.9733523108,
				"z": -0.7051246125,
				"element": "C" 
			},
			{
				"x": 1.1701877052,
				"y": -5.0129573556,
				"z": -2.7620786848,
				"element": "H" 
			},
			{
				"x": 1.0102253499,
				"y": -3.2877057173,
				"z": -3.1414612733,
				"element": "H" 
			},
			{
				"x": 2.4094422593,
				"y": -3.8634034958,
				"z": -2.2127592679,
				"element": "H" 
			},
			{
				"x": 1.8367792957,
				"y": -4.9451776112,
				"z": 0.1383421511,
				"element": "H" 
			},
			{
				"x": 0.4853642559,
				"y": -5.8487774526,
				"z": -0.5793883765,
				"element": "H" 
			},
			{
				"x": 0.1801928793,
				"y": -4.6825935164,
				"z": 0.7275828569,
				"element": "H" 
			},
			{
				"x": -0.6184943415,
				"y": -2.7829858773,
				"z": 0.1521422903,
				"element": "H" 
			},
			{
				"x": -1.146880148,
				"y": 0.7482918877,
				"z": -2.2749522128,
				"element": "H" 
			},
			{
				"x": -3.0753371013,
				"y": 1.0674826383,
				"z": -0.058857185,
				"element": "H" 
			},
			{
				"x": -3.1177776914,
				"y": 1.984413989,
				"z": -1.5733879268,
				"element": "H" 
			},
			{
				"x": -0.9341198835,
				"y": 1.4524893637,
				"z": 1.4493958391,
				"element": "H" 
			},
			{
				"x": 0.3865221561,
				"y": 3.2576448089,
				"z": 2.5110059462,
				"element": "H" 
			},
			{
				"x": 1.7457142821,
				"y": 5.6471826212,
				"z": 1.6202480048,
				"element": "H" 
			},
			{
				"x": 0.4431790317,
				"y": 5.9422658965,
				"z": 2.7699604893,
				"element": "H" 
			},
			{
				"x": 0.4822851573,
				"y": 6.8213790909,
				"z": 1.2346394544,
				"element": "H" 
			},
			{
				"x": -0.8859523709,
				"y": 5.9866263327,
				"z": -0.5496205063,
				"element": "H" 
			},
			{
				"x": -2.2023763371,
				"y": 4.18464516,
				"z": -1.6071969516,
				"element": "H" 
			}
		],
		 "valence_orbital": [ 
			{
				"type": "occ",
				"energy": -0.25489,
				"method": "rhf"
			},
			{
				"type": "occ",
				"energy": -0.24543,
				"method": "rhf"
			},
			{
				"type": "occ",
				"energy": -0.24105,
				"method": "rhf"
			},
			{
				"type": "occ",
				"energy": -0.2275,
				"method": "rhf"
			},
			{
				"type": "occ",
				"energy": -0.21765,
				"method": "rhf"
			},
			{
				"type": "unocc",
				"energy": -0.02771,
				"method": "rhf"
			},
			{
				"type": "unocc",
				"energy": 0.00429,
				"method": "rhf"
			},
			{
				"type": "unocc",
				"energy": 0.00621,
				"method": "rhf"
			},
			{
				"type": "unocc",
				"energy": 0.02938,
				"method": "rhf"
			},
			{
				"type": "unocc",
				"energy": 0.04216,
				"method": "rhf"
			}
		],
		"cosmo_sigma_profile": { 
			"-0.025": 0.0,
			"-0.024": 0.0,
			"-0.023": 0.0,
			"-0.022": 0.0,
			"-0.021": 0.0,
			"-0.02": 0.0,
			"-0.019": 0.0,
			"-0.018": 0.0,
			"-0.017": 0.0,
			"-0.016": 0.0,
			"-0.015": 0.0,
			"-0.014": 0.0,
			"-0.013": 0.00206755221229,
			"-0.012": 0.505889383309,
			"-0.011": 0.949090178234,
			"-0.01": 0.915461008805,
			"-0.009": 2.44902416499,
			"-0.008": 2.51018921309,
			"-0.007": 5.26989277164,
			"-0.006": 16.3760761745,
			"-0.005": 23.9178017649,
			"-0.004": 31.800259978,
			"-0.003": 39.044177429,
			"-0.002": 26.2463052053,
			"-0.001": 20.5893045663,
			"0.0": 22.0689420969,
			"0.001": 20.9690710174,
			"0.002": 17.8597990179,
			"0.003": 13.324620499,
			"0.004": 11.6032179783,
			"0.005": 11.0001834008,
			"0.006": 12.2097621799,
			"0.007": 5.37566713883,
			"0.008": 2.35158493021,
			"0.009": 4.43397637798,
			"0.01": 4.11167380952,
			"0.011": 3.39267326429,
			"0.012": 4.56856359907,
			"0.013": 5.28096883431,
			"0.014": 4.64802820379,
			"0.015": 0.0408443166447,
			"0.016": 0.0,
			"0.017": 0.0,
			"0.018": 0.0,
			"0.019": 0.0,
			"0.02": 0.0,
			"0.021": 0.0,
			"0.022": 0.0,
			"0.023": 0.0,
			"0.024": 0.0,
			"0.025": 0.0
		}
	}
}
