{
	 "smiles": "CC(=O)NC(=C)C(=O)CCC(N)=O", 
	 "Tm": 403.15, 
	 "num_atms": 25, 
	 "gaussian": { 
		 "optdone": 1, 
		 "sigma_profile": "yes", 
		 "theory": "DFT", 
		 "functional": "B3LYP", 
		 "basiset": "6-31G**", 
		 "properties": { 
			 "R2extent": 3617.0718, 
			 "electric_dipole_moment_norm": 3.91154370038, 
			 "electric_quadrupole_moment_norm": 25.0430921068, 
			 "total_energy": -647.2757145, 
			 "HOMO_LUMO_gap": 0.16981, 
			 "cosmo_polarized_energy": -20.86, 
			 "cosmo_cavitation_energy": 29.53, 
			 "cosmo_dispersion_energy": -20.88, 
			 "cosmo_repulsion_energy": 1.68, 
			 "cosmo_total_nonelectrostatic_energy": 10.33, 
			 "SMD_solvation_energy": 7.57 
		},
		"coords": [
			{
				"x": -3.6927433727,
				"y": -0.5608121004,
				"z": 2.1196743569,
				"element": "C" 
			},
			{
				"x": -3.3479744753,
				"y": 0.3367536959,
				"z": 0.9509964664,
				"element": "C" 
			},
			{
				"x": -4.2067125165,
				"y": 0.826800493,
				"z": 0.2342188026,
				"element": "O" 
			},
			{
				"x": -2.0141580282,
				"y": 0.6143324909,
				"z": 0.6816005094,
				"element": "N" 
			},
			{
				"x": -0.7977891529,
				"y": 0.2496490856,
				"z": 1.253054633,
				"element": "C" 
			},
			{
				"x": -0.5558670941,
				"y": -0.5261666555,
				"z": 2.3280528268,
				"element": "C" 
			},
			{
				"x": 0.3467708377,
				"y": 0.8707361531,
				"z": 0.4819183517,
				"element": "C" 
			},
			{
				"x": 0.0968461365,
				"y": 1.5634277363,
				"z": -0.495668299,
				"element": "O" 
			},
			{
				"x": 1.7820413071,
				"y": 0.6410928446,
				"z": 0.9277614495,
				"element": "C" 
			},
			{
				"x": 2.7818878605,
				"y": 1.3174700839,
				"z": -0.0086285464,
				"element": "C" 
			},
			{
				"x": 2.8779469823,
				"y": 0.5620075516,
				"z": -1.3362754513,
				"element": "C" 
			},
			{
				"x": 3.1091642833,
				"y": 1.3357123284,
				"z": -2.4393439804,
				"element": "N" 
			},
			{
				"x": 2.8222628079,
				"y": -0.6591176064,
				"z": -1.385436477,
				"element": "O" 
			},
			{
				"x": -3.2442792363,
				"y": -1.5529015028,
				"z": 2.0049520018,
				"element": "H" 
			},
			{
				"x": -4.7776147512,
				"y": -0.6569347299,
				"z": 2.1516238032,
				"element": "H" 
			},
			{
				"x": -3.3398872114,
				"y": -0.1358246631,
				"z": 3.0650105589,
				"element": "H" 
			},
			{
				"x": -1.8948259888,
				"y": 1.2140960731,
				"z": -0.1317611923,
				"element": "H" 
			},
			{
				"x": 0.463735681,
				"y": -0.7144379398,
				"z": 2.6332490777,
				"element": "H" 
			},
			{
				"x": -1.327951708,
				"y": -0.9947389162,
				"z": 2.9190520575,
				"element": "H" 
			},
			{
				"x": 1.9844765663,
				"y": -0.4352883719,
				"z": 0.9357089501,
				"element": "H" 
			},
			{
				"x": 1.8984277365,
				"y": 1.0035725797,
				"z": 1.9554824066,
				"element": "H" 
			},
			{
				"x": 2.5212947433,
				"y": 2.3678256511,
				"z": -0.1643737476,
				"element": "H" 
			},
			{
				"x": 3.7777128658,
				"y": 1.2875838764,
				"z": 0.4491132075,
				"element": "H" 
			},
			{
				"x": 3.0783038848,
				"y": 0.8634082422,
				"z": -3.3318975347,
				"element": "H" 
			},
			{
				"x": 2.8750318425,
				"y": 2.3162536001,
				"z": -2.4283842309,
				"element": "H" 
			}
		],
		 "valence_orbital": [ 
			{
				"type": "occ",
				"energy": -0.2795,
				"method": "rhf"
			},
			{
				"type": "occ",
				"energy": -0.27278,
				"method": "rhf"
			},
			{
				"type": "occ",
				"energy": -0.25582,
				"method": "rhf"
			},
			{
				"type": "occ",
				"energy": -0.25216,
				"method": "rhf"
			},
			{
				"type": "occ",
				"energy": -0.23746,
				"method": "rhf"
			},
			{
				"type": "unocc",
				"energy": -0.06765,
				"method": "rhf"
			},
			{
				"type": "unocc",
				"energy": 0.00974,
				"method": "rhf"
			},
			{
				"type": "unocc",
				"energy": 0.02338,
				"method": "rhf"
			},
			{
				"type": "unocc",
				"energy": 0.07257,
				"method": "rhf"
			},
			{
				"type": "unocc",
				"energy": 0.07797,
				"method": "rhf"
			}
		],
		"cosmo_sigma_profile": { 
			"-0.025": 0.0,
			"-0.024": 0.0,
			"-0.023": 0.0,
			"-0.022": 0.0,
			"-0.021": 0.0,
			"-0.02": 0.0,
			"-0.019": 0.0,
			"-0.018": 0.0,
			"-0.017": 0.0,
			"-0.016": 0.0,
			"-0.015": 0.105682299756,
			"-0.014": 1.27687699795,
			"-0.013": 2.26405454357,
			"-0.012": 2.35516651001,
			"-0.011": 2.32368737769,
			"-0.01": 2.23611115689,
			"-0.009": 2.3646133048,
			"-0.008": 2.96222744232,
			"-0.007": 10.361601844,
			"-0.006": 18.2534742091,
			"-0.005": 17.9967969448,
			"-0.004": 17.8451698301,
			"-0.003": 19.713397099,
			"-0.002": 18.9171403924,
			"-0.001": 14.9999778967,
			"0.0": 10.0928949559,
			"0.001": 11.3714586074,
			"0.002": 8.16879591923,
			"0.003": 8.31241703869,
			"0.004": 5.87244049434,
			"0.005": 5.60990138655,
			"0.006": 4.89357229695,
			"0.007": 5.26375024991,
			"0.008": 4.87206264939,
			"0.009": 3.71166817431,
			"0.01": 5.14353136571,
			"0.011": 3.95446460401,
			"0.012": 4.49499212891,
			"0.013": 9.12082872432,
			"0.014": 7.06986369222,
			"0.015": 0.796201410959,
			"0.016": 0.0,
			"0.017": 0.0,
			"0.018": 0.0,
			"0.019": 0.0,
			"0.02": 0.0,
			"0.021": 0.0,
			"0.022": 0.0,
			"0.023": 0.0,
			"0.024": 0.0,
			"0.025": 0.0
		}
	}
}
