{
	 "smiles": "CSC1=CC=C(C=C1)S(Cl)(=O)=O", 
	 "Tm": 320.15, 
	 "num_atms": 19, 
	 "gaussian": { 
		 "optdone": 1, 
		 "sigma_profile": "yes", 
		 "theory": "DFT", 
		 "functional": "B3LYP", 
		 "basiset": "6-31G**", 
		 "properties": { 
			 "R2extent": 5389.3568, 
			 "electric_dipole_moment_norm": 6.41496952604, 
			 "electric_quadrupole_moment_norm": 11.309648724, 
			 "total_energy": -1677.91068047, 
			 "HOMO_LUMO_gap": 0.15415, 
			 "cosmo_polarized_energy": -11.2, 
			 "cosmo_cavitation_energy": 28.22, 
			 "cosmo_dispersion_energy": -21.67, 
			 "cosmo_repulsion_energy": 1.63, 
			 "cosmo_total_nonelectrostatic_energy": 8.18, 
			 "SMD_solvation_energy": 3.52 
		},
		"coords": [
			{
				"x": -3.7935572544,
				"y": 1.4660452204,
				"z": -2.0348578864,
				"element": "C" 
			},
			{
				"x": -2.7920992892,
				"y": 0.4252148908,
				"z": -3.1447399721,
				"element": "S" 
			},
			{
				"x": -1.7014544549,
				"y": -0.4385463682,
				"z": -2.0483614572,
				"element": "C" 
			},
			{
				"x": -1.6865763384,
				"y": -0.2756420219,
				"z": -0.6534761259,
				"element": "C" 
			},
			{
				"x": -0.7918570751,
				"y": -1.0001026932,
				"z": 0.1299572354,
				"element": "C" 
			},
			{
				"x": 0.0911049607,
				"y": -1.8838013105,
				"z": -0.4890365964,
				"element": "C" 
			},
			{
				"x": 0.0965847655,
				"y": -2.064136754,
				"z": -1.8760130178,
				"element": "C" 
			},
			{
				"x": -0.7985074209,
				"y": -1.3390318707,
				"z": -2.6485391779,
				"element": "C" 
			},
			{
				"x": 1.2426719956,
				"y": -2.7973289459,
				"z": 0.5095574967,
				"element": "S" 
			},
			{
				"x": 0.1342116168,
				"y": -4.5805415639,
				"z": 0.9317907573,
				"element": "Cl" 
			},
			{
				"x": 2.3721710346,
				"y": -3.217154718,
				"z": -0.3110753291,
				"element": "O" 
			},
			{
				"x": 1.4158990372,
				"y": -2.1245515827,
				"z": 1.7914919398,
				"element": "O" 
			},
			{
				"x": -4.3756782612,
				"y": 0.8619688773,
				"z": -1.3355085179,
				"element": "H" 
			},
			{
				"x": -3.1760499531,
				"y": 2.1880454091,
				"z": -1.4960350848,
				"element": "H" 
			},
			{
				"x": -4.4795809197,
				"y": 2.0076716781,
				"z": -2.6890244982,
				"element": "H" 
			},
			{
				"x": -2.3645059266,
				"y": 0.4148394121,
				"z": -0.1669350838,
				"element": "H" 
			},
			{
				"x": -0.7708830357,
				"y": -0.8734036657,
				"z": 1.2066697315,
				"element": "H" 
			},
			{
				"x": 0.798131893,
				"y": -2.7516502775,
				"z": -2.3349929905,
				"element": "H" 
			},
			{
				"x": -0.7997253741,
				"y": -1.4654937156,
				"z": -3.7269714228,
				"element": "H" 
			}
		],
		 "valence_orbital": [ 
			{
				"type": "occ",
				"energy": -0.33037,
				"method": "rhf"
			},
			{
				"type": "occ",
				"energy": -0.3131,
				"method": "rhf"
			},
			{
				"type": "occ",
				"energy": -0.30887,
				"method": "rhf"
			},
			{
				"type": "occ",
				"energy": -0.28983,
				"method": "rhf"
			},
			{
				"type": "occ",
				"energy": -0.24153,
				"method": "rhf"
			},
			{
				"type": "unocc",
				"energy": -0.08738,
				"method": "rhf"
			},
			{
				"type": "unocc",
				"energy": -0.04146,
				"method": "rhf"
			},
			{
				"type": "unocc",
				"energy": -0.03799,
				"method": "rhf"
			},
			{
				"type": "unocc",
				"energy": 0.01208,
				"method": "rhf"
			},
			{
				"type": "unocc",
				"energy": 0.04731,
				"method": "rhf"
			}
		],
		"cosmo_sigma_profile": { 
			"-0.025": 0.0,
			"-0.024": 0.0,
			"-0.023": 0.0,
			"-0.022": 0.0,
			"-0.021": 0.0,
			"-0.02": 0.0,
			"-0.019": 0.0,
			"-0.018": 0.0,
			"-0.017": 0.0,
			"-0.016": 0.0,
			"-0.015": 0.0,
			"-0.014": 0.0,
			"-0.013": 0.0,
			"-0.012": 0.0,
			"-0.011": 0.0,
			"-0.01": 0.0,
			"-0.009": 0.447595371323,
			"-0.008": 7.16053295654,
			"-0.007": 14.3976031172,
			"-0.006": 15.6659267976,
			"-0.005": 12.4969803584,
			"-0.004": 11.2825727341,
			"-0.003": 12.96679109,
			"-0.002": 14.8379255154,
			"-0.001": 14.3504053695,
			"0.0": 13.6079260334,
			"0.001": 24.4799505661,
			"0.002": 20.016102278,
			"0.003": 14.5191474509,
			"0.004": 17.2022187909,
			"0.005": 6.44948584193,
			"0.006": 6.70018071239,
			"0.007": 8.16229974884,
			"0.008": 9.66960876516,
			"0.009": 6.28491567193,
			"0.01": 0.128879075307,
			"0.011": 0.0,
			"0.012": 0.0,
			"0.013": 0.0,
			"0.014": 0.0,
			"0.015": 0.0,
			"0.016": 0.0,
			"0.017": 0.0,
			"0.018": 0.0,
			"0.019": 0.0,
			"0.02": 0.0,
			"0.021": 0.0,
			"0.022": 0.0,
			"0.023": 0.0,
			"0.024": 0.0,
			"0.025": 0.0
		}
	}
}
