{
	 "smiles": "CCCCCCCCCCOC(=O)C1=C(C=CC=C1)C(=O)OCCCCCCCCCC", 
	 "Tm": 277.15, 
	 "num_atms": 78, 
	 "gaussian": { 
		 "optdone": 1, 
		 "sigma_profile": "yes", 
		 "theory": "DFT", 
		 "functional": "B3LYP", 
		 "basiset": "6-31G**", 
		 "properties": { 
			 "R2extent": 18683.9943, 
			 "electric_dipole_moment_norm": 3.36022662033, 
			 "electric_quadrupole_moment_norm": 22.314081807, 
			 "total_energy": -1395.67043467, 
			 "HOMO_LUMO_gap": 0.20122, 
			 "cosmo_polarized_energy": -12.46, 
			 "cosmo_cavitation_energy": 76.17, 
			 "cosmo_dispersion_energy": -42.57, 
			 "cosmo_repulsion_energy": 3.24, 
			 "cosmo_total_nonelectrostatic_energy": 36.83, 
			 "SMD_solvation_energy": 11.24 
		},
		"coords": [
			{
				"x": 2.4339491005,
				"y": -3.375086241,
				"z": 1.430681604,
				"element": "C" 
			},
			{
				"x": 2.4689698698,
				"y": -4.2780699563,
				"z": 0.192280512,
				"element": "C" 
			},
			{
				"x": 1.1063900747,
				"y": -4.8711853577,
				"z": -0.2019954506,
				"element": "C" 
			},
			{
				"x": 0.0700263223,
				"y": -3.8445437598,
				"z": -0.682120987,
				"element": "C" 
			},
			{
				"x": -1.2369179098,
				"y": -4.5020502036,
				"z": -1.1530271685,
				"element": "C" 
			},
			{
				"x": -2.2994564155,
				"y": -3.5501159099,
				"z": -1.7426637385,
				"element": "C" 
			},
			{
				"x": -3.2951146683,
				"y": -2.9252326026,
				"z": -0.7455241659,
				"element": "C" 
			},
			{
				"x": -2.7551130473,
				"y": -1.9060219633,
				"z": 0.2726738874,
				"element": "C" 
			},
			{
				"x": -2.1285184612,
				"y": -0.6555796678,
				"z": -0.3611141034,
				"element": "C" 
			},
			{
				"x": -1.8750933285,
				"y": 0.4794367947,
				"z": 0.6183615859,
				"element": "C" 
			},
			{
				"x": -0.90570176,
				"y": 0.0366519183,
				"z": 1.6005355329,
				"element": "O" 
			},
			{
				"x": -0.6430083103,
				"y": 0.9142401361,
				"z": 2.5936973151,
				"element": "C" 
			},
			{
				"x": -1.1379372537,
				"y": 2.0236296113,
				"z": 2.6510976241,
				"element": "O" 
			},
			{
				"x": 0.277616581,
				"y": 0.3535517222,
				"z": 3.6263994699,
				"element": "C" 
			},
			{
				"x": 0.9640798481,
				"y": 1.212767994,
				"z": 4.507387491,
				"element": "C" 
			},
			{
				"x": 1.6910354346,
				"y": 0.6658990016,
				"z": 5.5696187738,
				"element": "C" 
			},
			{
				"x": 1.7747605373,
				"y": -0.7153281036,
				"z": 5.7416204233,
				"element": "C" 
			},
			{
				"x": 1.1169907094,
				"y": -1.5677023287,
				"z": 4.8546800228,
				"element": "C" 
			},
			{
				"x": 0.3672485463,
				"y": -1.0332110854,
				"z": 3.8087482907,
				"element": "C" 
			},
			{
				"x": 0.9958931178,
				"y": 2.7134411876,
				"z": 4.3955387404,
				"element": "C" 
			},
			{
				"x": 0.7277801168,
				"y": 3.447516931,
				"z": 5.322962031,
				"element": "O" 
			},
			{
				"x": 1.4890280915,
				"y": 3.1229642908,
				"z": 3.2089095058,
				"element": "O" 
			},
			{
				"x": 1.6569389515,
				"y": 4.5555756598,
				"z": 3.0362316045,
				"element": "C" 
			},
			{
				"x": 0.451671971,
				"y": 5.1929929688,
				"z": 2.3506350182,
				"element": "C" 
			},
			{
				"x": 0.161610789,
				"y": 4.6947731486,
				"z": 0.9259385793,
				"element": "C" 
			},
			{
				"x": 1.2556831284,
				"y": 5.0187773424,
				"z": -0.1020721357,
				"element": "C" 
			},
			{
				"x": 0.9158113928,
				"y": 4.5624248629,
				"z": -1.5342023517,
				"element": "C" 
			},
			{
				"x": 0.909860338,
				"y": 3.0324339387,
				"z": -1.7830732903,
				"element": "C" 
			},
			{
				"x": 2.189984018,
				"y": 2.4673388673,
				"z": -2.4341815237,
				"element": "C" 
			},
			{
				"x": 3.4828373276,
				"y": 2.4550915145,
				"z": -1.5873757124,
				"element": "C" 
			},
			{
				"x": 3.7295387635,
				"y": 1.1822150069,
				"z": -0.7562813814,
				"element": "C" 
			},
			{
				"x": 2.709277953,
				"y": 0.8772439818,
				"z": 0.3470456587,
				"element": "C" 
			},
			{
				"x": 1.8125629528,
				"y": -2.487541466,
				"z": 1.2757268986,
				"element": "H" 
			},
			{
				"x": 3.4383228408,
				"y": -3.0276692758,
				"z": 1.6947341505,
				"element": "H" 
			},
			{
				"x": 2.0330804658,
				"y": -3.9139735588,
				"z": 2.2978830694,
				"element": "H" 
			},
			{
				"x": 3.170381395,
				"y": -5.1026961107,
				"z": 0.3732573855,
				"element": "H" 
			},
			{
				"x": 2.877158366,
				"y": -3.7153417249,
				"z": -0.6585478811,
				"element": "H" 
			},
			{
				"x": 0.6952679722,
				"y": -5.4300848082,
				"z": 0.6515423716,
				"element": "H" 
			},
			{
				"x": 1.2608969578,
				"y": -5.6109364332,
				"z": -0.9995988681,
				"element": "H" 
			},
			{
				"x": -0.133768806,
				"y": -3.1207288379,
				"z": 0.1149407983,
				"element": "H" 
			},
			{
				"x": 0.4983439677,
				"y": -3.2674451982,
				"z": -1.5148375657,
				"element": "H" 
			},
			{
				"x": -1.6801953379,
				"y": -5.0741564628,
				"z": -0.3250194195,
				"element": "H" 
			},
			{
				"x": -0.9765920927,
				"y": -5.2458052585,
				"z": -1.9182421116,
				"element": "H" 
			},
			{
				"x": -2.8978700837,
				"y": -4.1153870988,
				"z": -2.4682178066,
				"element": "H" 
			},
			{
				"x": -1.8019698487,
				"y": -2.7636837479,
				"z": -2.3263540477,
				"element": "H" 
			},
			{
				"x": -3.78596136,
				"y": -3.7386683635,
				"z": -0.1940843964,
				"element": "H" 
			},
			{
				"x": -4.0905091268,
				"y": -2.4355751865,
				"z": -1.3249965827,
				"element": "H" 
			},
			{
				"x": -2.0301726081,
				"y": -2.3798810832,
				"z": 0.9435851477,
				"element": "H" 
			},
			{
				"x": -3.5924276105,
				"y": -1.5922202134,
				"z": 0.9115085411,
				"element": "H" 
			},
			{
				"x": -2.8020291878,
				"y": -0.2602260628,
				"z": -1.1342530031,
				"element": "H" 
			},
			{
				"x": -1.1898612441,
				"y": -0.9069845522,
				"z": -0.8680110915,
				"element": "H" 
			},
			{
				"x": -2.789588353,
				"y": 0.7773449107,
				"z": 1.1421897729,
				"element": "H" 
			},
			{
				"x": -1.4785101558,
				"y": 1.3656657595,
				"z": 0.1136167837,
				"element": "H" 
			},
			{
				"x": 2.1943514413,
				"y": 1.3376819155,
				"z": 6.2571090206,
				"element": "H" 
			},
			{
				"x": 2.3497606521,
				"y": -1.1223313399,
				"z": 6.5680814743,
				"element": "H" 
			},
			{
				"x": 1.1740012088,
				"y": -2.644188095,
				"z": 4.9839551404,
				"element": "H" 
			},
			{
				"x": -0.1736323562,
				"y": -1.6857090761,
				"z": 3.1338599692,
				"element": "H" 
			},
			{
				"x": 2.5662421071,
				"y": 4.651749159,
				"z": 2.4382455604,
				"element": "H" 
			},
			{
				"x": 1.8209656865,
				"y": 5.0037555802,
				"z": 4.0181164963,
				"element": "H" 
			},
			{
				"x": -0.426747335,
				"y": 5.02719262,
				"z": 2.983092515,
				"element": "H" 
			},
			{
				"x": 0.6305746787,
				"y": 6.2778755091,
				"z": 2.3370224035,
				"element": "H" 
			},
			{
				"x": -0.7798253994,
				"y": 5.1505813793,
				"z": 0.5906031768,
				"element": "H" 
			},
			{
				"x": -0.0241751102,
				"y": 3.6174251984,
				"z": 0.9683942624,
				"element": "H" 
			},
			{
				"x": 1.4208058726,
				"y": 6.1056193884,
				"z": -0.1111609081,
				"element": "H" 
			},
			{
				"x": 2.2076400776,
				"y": 4.5719211045,
				"z": 0.2088084978,
				"element": "H" 
			},
			{
				"x": 1.6167951508,
				"y": 5.0332080229,
				"z": -2.2363366235,
				"element": "H" 
			},
			{
				"x": -0.0720058055,
				"y": 4.9701229155,
				"z": -1.7872587514,
				"element": "H" 
			},
			{
				"x": 0.0758504263,
				"y": 2.7926333732,
				"z": -2.4550704546,
				"element": "H" 
			},
			{
				"x": 0.6960715072,
				"y": 2.5047878652,
				"z": -0.8471600855,
				"element": "H" 
			},
			{
				"x": 1.9893099653,
				"y": 1.442218883,
				"z": -2.7767658032,
				"element": "H" 
			},
			{
				"x": 2.3738397218,
				"y": 3.0497148401,
				"z": -3.347209466,
				"element": "H" 
			},
			{
				"x": 3.5140943669,
				"y": 3.3338789062,
				"z": -0.9315673735,
				"element": "H" 
			},
			{
				"x": 4.3379065362,
				"y": 2.5672531269,
				"z": -2.2664979563,
				"element": "H" 
			},
			{
				"x": 4.7257374359,
				"y": 1.2624074386,
				"z": -0.3010694656,
				"element": "H" 
			},
			{
				"x": 3.783112184,
				"y": 0.324182798,
				"z": -1.4413675446,
				"element": "H" 
			},
			{
				"x": 2.601040859,
				"y": 1.7112984252,
				"z": 1.0489065553,
				"element": "H" 
			},
			{
				"x": 3.0199770302,
				"y": 0.0011150067,
				"z": 0.926526042,
				"element": "H" 
			},
			{
				"x": 1.7174281671,
				"y": 0.6557601285,
				"z": -0.059790489,
				"element": "H" 
			}
		],
		 "valence_orbital": [ 
			{
				"type": "occ",
				"energy": -0.28588,
				"method": "rhf"
			},
			{
				"type": "occ",
				"energy": -0.28047,
				"method": "rhf"
			},
			{
				"type": "occ",
				"energy": -0.27575,
				"method": "rhf"
			},
			{
				"type": "occ",
				"energy": -0.26426,
				"method": "rhf"
			},
			{
				"type": "occ",
				"energy": -0.25425,
				"method": "rhf"
			},
			{
				"type": "unocc",
				"energy": -0.05303,
				"method": "rhf"
			},
			{
				"type": "unocc",
				"energy": -0.02307,
				"method": "rhf"
			},
			{
				"type": "unocc",
				"energy": 0.03015,
				"method": "rhf"
			},
			{
				"type": "unocc",
				"energy": 0.04779,
				"method": "rhf"
			},
			{
				"type": "unocc",
				"energy": 0.056,
				"method": "rhf"
			}
		],
		"cosmo_sigma_profile": { 
			"-0.025": 0.0,
			"-0.024": 0.0,
			"-0.023": 0.0,
			"-0.022": 0.0,
			"-0.021": 0.0,
			"-0.02": 0.0,
			"-0.019": 0.0,
			"-0.018": 0.0,
			"-0.017": 0.0,
			"-0.016": 0.0,
			"-0.015": 0.0,
			"-0.014": 0.0,
			"-0.013": 0.0,
			"-0.012": 0.0,
			"-0.011": 0.0,
			"-0.01": 0.0,
			"-0.009": 0.0,
			"-0.008": 0.0599197384401,
			"-0.007": 4.52409748577,
			"-0.006": 7.55771563837,
			"-0.005": 13.2363894463,
			"-0.004": 21.2251848843,
			"-0.003": 33.8418252917,
			"-0.002": 73.0910290156,
			"-0.001": 108.974108912,
			"0.0": 119.140711828,
			"0.001": 94.1506957435,
			"0.002": 51.4035368613,
			"0.003": 19.9862189775,
			"0.004": 7.58511443947,
			"0.005": 6.05029771677,
			"0.006": 4.84933233415,
			"0.007": 4.0348787946,
			"0.008": 3.34470131739,
			"0.009": 3.55041615944,
			"0.01": 3.25224428045,
			"0.011": 5.42876151423,
			"0.012": 3.98001432557,
			"0.013": 0.417120894378,
			"0.014": 0.0,
			"0.015": 0.0,
			"0.016": 0.0,
			"0.017": 0.0,
			"0.018": 0.0,
			"0.019": 0.0,
			"0.02": 0.0,
			"0.021": 0.0,
			"0.022": 0.0,
			"0.023": 0.0,
			"0.024": 0.0,
			"0.025": 0.0
		}
	}
}
