{
	 "smiles": "CC(C)(C)NC(=O)C1=C(N)C=CC=C1", 
	 "Tm": 397.15, 
	 "num_atms": 30, 
	 "gaussian": { 
		 "optdone": 1, 
		 "sigma_profile": "yes", 
		 "theory": "DFT", 
		 "functional": "B3LYP", 
		 "basiset": "6-31G**", 
		 "properties": { 
			 "R2extent": 4191.1613, 
			 "electric_dipole_moment_norm": 2.04539842085, 
			 "electric_quadrupole_moment_norm": 13.5742457356, 
			 "total_energy": -613.569823308, 
			 "HOMO_LUMO_gap": 0.17412, 
			 "cosmo_polarized_energy": -11.29, 
			 "cosmo_cavitation_energy": 31.13, 
			 "cosmo_dispersion_energy": -22.01, 
			 "cosmo_repulsion_energy": 1.72, 
			 "cosmo_total_nonelectrostatic_energy": 10.84, 
			 "SMD_solvation_energy": 5.44 
		},
		"coords": [
			{
				"x": 1.7267839236,
				"y": 0.8658339156,
				"z": -1.0778631403,
				"element": "C" 
			},
			{
				"x": 2.1717407135,
				"y": 0.2855138371,
				"z": 0.2748930155,
				"element": "C" 
			},
			{
				"x": 3.6123751764,
				"y": 0.7571398672,
				"z": 0.5627876896,
				"element": "C" 
			},
			{
				"x": 1.2518147146,
				"y": 0.7822007557,
				"z": 1.4068846579,
				"element": "C" 
			},
			{
				"x": 2.2390525583,
				"y": -1.2089327714,
				"z": 0.2671226994,
				"element": "N" 
			},
			{
				"x": 1.7919592786,
				"y": -2.1543165394,
				"z": -0.6342420695,
				"element": "C" 
			},
			{
				"x": 2.4970379097,
				"y": -3.1499810348,
				"z": -0.8497369769,
				"element": "O" 
			},
			{
				"x": 0.4475988758,
				"y": -2.0197345427,
				"z": -1.2674670632,
				"element": "C" 
			},
			{
				"x": 0.2527976435,
				"y": -2.4663867135,
				"z": -2.6037847975,
				"element": "C" 
			},
			{
				"x": 1.3071324701,
				"y": -2.9495203718,
				"z": -3.3550728381,
				"element": "N" 
			},
			{
				"x": -1.0332667646,
				"y": -2.3443731342,
				"z": -3.1666628156,
				"element": "C" 
			},
			{
				"x": -2.101507816,
				"y": -1.8588421312,
				"z": -2.4228697465,
				"element": "C" 
			},
			{
				"x": -1.9267601717,
				"y": -1.4804385559,
				"z": -1.0876676256,
				"element": "C" 
			},
			{
				"x": -0.6544495481,
				"y": -1.5644875365,
				"z": -0.5299869197,
				"element": "C" 
			},
			{
				"x": 2.3500192341,
				"y": 0.4838558706,
				"z": -1.8924916289,
				"element": "H" 
			},
			{
				"x": 1.8333312565,
				"y": 1.9551122857,
				"z": -1.0497979509,
				"element": "H" 
			},
			{
				"x": 0.6858950558,
				"y": 0.6357126149,
				"z": -1.3065724446,
				"element": "H" 
			},
			{
				"x": 4.2949154823,
				"y": 0.4332052989,
				"z": -0.229387268,
				"element": "H" 
			},
			{
				"x": 3.9742665352,
				"y": 0.3571842688,
				"z": 1.5173884752,
				"element": "H" 
			},
			{
				"x": 3.6519974742,
				"y": 1.8484994208,
				"z": 0.6245997193,
				"element": "H" 
			},
			{
				"x": 1.3162583279,
				"y": 1.871658589,
				"z": 1.4995909837,
				"element": "H" 
			},
			{
				"x": 0.2074511045,
				"y": 0.5266337004,
				"z": 1.2156114114,
				"element": "H" 
			},
			{
				"x": 1.5439930583,
				"y": 0.3396458294,
				"z": 2.3643149225,
				"element": "H" 
			},
			{
				"x": 3.1065117765,
				"y": -1.5559238756,
				"z": 0.6624846108,
				"element": "H" 
			},
			{
				"x": 1.0500735012,
				"y": -3.4699351984,
				"z": -4.180919475,
				"element": "H" 
			},
			{
				"x": 2.0444638781,
				"y": -3.3682798324,
				"z": -2.798695375,
				"element": "H" 
			},
			{
				"x": -1.1845129059,
				"y": -2.656360911,
				"z": -4.1973221841,
				"element": "H" 
			},
			{
				"x": -3.0834325954,
				"y": -1.7930661377,
				"z": -2.8837902823,
				"element": "H" 
			},
			{
				"x": -2.7665871016,
				"y": -1.1341238654,
				"z": -0.4941548985,
				"element": "H" 
			},
			{
				"x": -0.5025530455,
				"y": -1.3018931021,
				"z": 0.5110073148,
				"element": "H" 
			}
		],
		 "valence_orbital": [ 
			{
				"type": "occ",
				"energy": -0.30549,
				"method": "rhf"
			},
			{
				"type": "occ",
				"energy": -0.25678,
				"method": "rhf"
			},
			{
				"type": "occ",
				"energy": -0.24885,
				"method": "rhf"
			},
			{
				"type": "occ",
				"energy": -0.2357,
				"method": "rhf"
			},
			{
				"type": "occ",
				"energy": -0.19905,
				"method": "rhf"
			},
			{
				"type": "unocc",
				"energy": -0.02493,
				"method": "rhf"
			},
			{
				"type": "unocc",
				"energy": 0.01355,
				"method": "rhf"
			},
			{
				"type": "unocc",
				"energy": 0.0524,
				"method": "rhf"
			},
			{
				"type": "unocc",
				"energy": 0.07384,
				"method": "rhf"
			},
			{
				"type": "unocc",
				"energy": 0.09906,
				"method": "rhf"
			}
		],
		"cosmo_sigma_profile": { 
			"-0.025": 0.0,
			"-0.024": 0.0,
			"-0.023": 0.0,
			"-0.022": 0.0,
			"-0.021": 0.0,
			"-0.02": 0.0,
			"-0.019": 0.0,
			"-0.018": 0.0,
			"-0.017": 0.0,
			"-0.016": 0.0,
			"-0.015": 0.0,
			"-0.014": 0.0,
			"-0.013": 0.249466379577,
			"-0.012": 1.39657378785,
			"-0.011": 1.73523150694,
			"-0.01": 2.45352423159,
			"-0.009": 2.96265473871,
			"-0.008": 2.59818319705,
			"-0.007": 3.73444512299,
			"-0.006": 5.6479238784,
			"-0.005": 11.5740325137,
			"-0.004": 17.78760248,
			"-0.003": 27.1631471471,
			"-0.002": 21.3975107997,
			"-0.001": 24.3055981671,
			"0.0": 26.0226305144,
			"0.001": 22.3170420797,
			"0.002": 10.6751457544,
			"0.003": 10.3394880808,
			"0.004": 10.9706413838,
			"0.005": 12.4172368197,
			"0.006": 8.65379559294,
			"0.007": 2.67044222145,
			"0.008": 1.71977175662,
			"0.009": 1.71345885141,
			"0.01": 2.12448843787,
			"0.011": 2.44995502732,
			"0.012": 2.46632864191,
			"0.013": 3.84631806634,
			"0.014": 2.48673147743,
			"0.015": 0.150183490256,
			"0.016": 0.0,
			"0.017": 0.0,
			"0.018": 0.0,
			"0.019": 0.0,
			"0.02": 0.0,
			"0.021": 0.0,
			"0.022": 0.0,
			"0.023": 0.0,
			"0.024": 0.0,
			"0.025": 0.0
		}
	}
}
