{
	 "smiles": "CCC1C2=C(OC(=O)C1(C)C)C1=C(CC2)C=C(OC)C=C1", 
	 "Tm": 415.15, 
	 "num_atms": 43, 
	 "gaussian": { 
		 "optdone": 1, 
		 "sigma_profile": "yes", 
		 "theory": "DFT", 
		 "functional": "B3LYP", 
		 "basiset": "6-31G**", 
		 "properties": { 
			 "R2extent": 7997.2317, 
			 "electric_dipole_moment_norm": 3.08982607439, 
			 "electric_quadrupole_moment_norm": 19.0021237105, 
			 "total_energy": -924.852918315, 
			 "HOMO_LUMO_gap": 0.16967, 
			 "cosmo_polarized_energy": -11.78, 
			 "cosmo_cavitation_energy": 41.87, 
			 "cosmo_dispersion_energy": -29.77, 
			 "cosmo_repulsion_energy": 2.23, 
			 "cosmo_total_nonelectrostatic_energy": 14.33, 
			 "SMD_solvation_energy": 8.11 
		},
		"coords": [
			{
				"x": -0.7174442071,
				"y": 0.901828392,
				"z": -3.4621364005,
				"element": "C" 
			},
			{
				"x": -1.7317006542,
				"y": 0.5913455832,
				"z": -2.3499240973,
				"element": "C" 
			},
			{
				"x": -1.2640806007,
				"y": 0.6483366487,
				"z": -0.8746147061,
				"element": "C" 
			},
			{
				"x": -0.2435933328,
				"y": -0.4069236069,
				"z": -0.4806832516,
				"element": "C" 
			},
			{
				"x": 0.3869584883,
				"y": -0.27796704,
				"z": 0.7023745081,
				"element": "C" 
			},
			{
				"x": 0.1464105316,
				"y": 0.7888008074,
				"z": 1.5640488076,
				"element": "O" 
			},
			{
				"x": -0.5560772154,
				"y": 1.8985212277,
				"z": 1.1692194811,
				"element": "C" 
			},
			{
				"x": -0.8544097904,
				"y": 2.7076092898,
				"z": 2.0121451619,
				"element": "O" 
			},
			{
				"x": -0.815728742,
				"y": 2.0482995245,
				"z": -0.3350728169,
				"element": "C" 
			},
			{
				"x": 0.5222831476,
				"y": 2.5736369963,
				"z": -0.9227575103,
				"element": "C" 
			},
			{
				"x": -1.9140979667,
				"y": 3.1041080202,
				"z": -0.5320937448,
				"element": "C" 
			},
			{
				"x": 1.2986806799,
				"y": -1.274053076,
				"z": 1.2717149626,
				"element": "C" 
			},
			{
				"x": 1.7564538638,
				"y": -2.316792797,
				"z": 0.4330228397,
				"element": "C" 
			},
			{
				"x": 1.3619813594,
				"y": -2.282076553,
				"z": -1.0264773313,
				"element": "C" 
			},
			{
				"x": -0.0458894697,
				"y": -1.7060478531,
				"z": -1.2381717128,
				"element": "C" 
			},
			{
				"x": 2.5974979128,
				"y": -3.2922334909,
				"z": 0.9480597058,
				"element": "C" 
			},
			{
				"x": 3.0042109859,
				"y": -3.2556002038,
				"z": 2.2923166883,
				"element": "C" 
			},
			{
				"x": 3.8273464654,
				"y": -4.2704017745,
				"z": 2.6842190191,
				"element": "O" 
			},
			{
				"x": 4.2751964699,
				"y": -4.2895929547,
				"z": 4.0305557402,
				"element": "C" 
			},
			{
				"x": 2.5620452678,
				"y": -2.2204999166,
				"z": 3.1232912413,
				"element": "C" 
			},
			{
				"x": 1.7133305253,
				"y": -1.2397015694,
				"z": 2.6066211064,
				"element": "C" 
			},
			{
				"x": 0.2481444985,
				"y": 0.4149738421,
				"z": -3.2939136405,
				"element": "H" 
			},
			{
				"x": -0.5299565101,
				"y": 1.973556946,
				"z": -3.562274467,
				"element": "H" 
			},
			{
				"x": -1.1010660965,
				"y": 0.5529237894,
				"z": -4.4267179016,
				"element": "H" 
			},
			{
				"x": -2.5946399436,
				"y": 1.2567105385,
				"z": -2.4604559477,
				"element": "H" 
			},
			{
				"x": -2.1309555532,
				"y": -0.4171479364,
				"z": -2.5107640311,
				"element": "H" 
			},
			{
				"x": -2.1818710706,
				"y": 0.4170932752,
				"z": -0.3028957176,
				"element": "H" 
			},
			{
				"x": 0.8613907873,
				"y": 3.4396846737,
				"z": -0.3458302676,
				"element": "H" 
			},
			{
				"x": 1.3074249444,
				"y": 1.8143434983,
				"z": -0.8972216292,
				"element": "H" 
			},
			{
				"x": 0.3925266593,
				"y": 2.8984917358,
				"z": -1.9560366735,
				"element": "H" 
			},
			{
				"x": -2.0400313313,
				"y": 3.3352060002,
				"z": -1.5936041348,
				"element": "H" 
			},
			{
				"x": -2.8747040585,
				"y": 2.7571110978,
				"z": -0.1376945292,
				"element": "H" 
			},
			{
				"x": -1.6556764064,
				"y": 4.0244083601,
				"z": -0.0051468748,
				"element": "H" 
			},
			{
				"x": 2.0821545047,
				"y": -1.6461348352,
				"z": -1.5640135751,
				"element": "H" 
			},
			{
				"x": 1.4360955962,
				"y": -3.2809989765,
				"z": -1.4685730368,
				"element": "H" 
			},
			{
				"x": -0.7989233591,
				"y": -2.4377869862,
				"z": -0.9023203157,
				"element": "H" 
			},
			{
				"x": -0.2156032736,
				"y": -1.5705795329,
				"z": -2.3089010384,
				"element": "H" 
			},
			{
				"x": 2.9619163579,
				"y": -4.1017943514,
				"z": 0.3224911794,
				"element": "H" 
			},
			{
				"x": 4.9107868474,
				"y": -5.171499521,
				"z": 4.1242902195,
				"element": "H" 
			},
			{
				"x": 3.4375361548,
				"y": -4.371924342,
				"z": 4.7349999081,
				"element": "H" 
			},
			{
				"x": 4.8615465657,
				"y": -3.3946040052,
				"z": 4.2752825235,
				"element": "H" 
			},
			{
				"x": 2.8625086379,
				"y": -2.1686012676,
				"z": 4.1627811407,
				"element": "H" 
			},
			{
				"x": 1.3634223301,
				"y": -0.4399276567,
				"z": 3.2494611189,
				"element": "H" 
			}
		],
		 "valence_orbital": [ 
			{
				"type": "occ",
				"energy": -0.31033,
				"method": "rhf"
			},
			{
				"type": "occ",
				"energy": -0.26161,
				"method": "rhf"
			},
			{
				"type": "occ",
				"energy": -0.25042,
				"method": "rhf"
			},
			{
				"type": "occ",
				"energy": -0.24235,
				"method": "rhf"
			},
			{
				"type": "occ",
				"energy": -0.19563,
				"method": "rhf"
			},
			{
				"type": "unocc",
				"energy": -0.02596,
				"method": "rhf"
			},
			{
				"type": "unocc",
				"energy": -0.0012,
				"method": "rhf"
			},
			{
				"type": "unocc",
				"energy": 0.01288,
				"method": "rhf"
			},
			{
				"type": "unocc",
				"energy": 0.05886,
				"method": "rhf"
			},
			{
				"type": "unocc",
				"energy": 0.07606,
				"method": "rhf"
			}
		],
		"cosmo_sigma_profile": { 
			"-0.025": 0.0,
			"-0.024": 0.0,
			"-0.023": 0.0,
			"-0.022": 0.0,
			"-0.021": 0.0,
			"-0.02": 0.0,
			"-0.019": 0.0,
			"-0.018": 0.0,
			"-0.017": 0.0,
			"-0.016": 0.0,
			"-0.015": 0.0,
			"-0.014": 0.0,
			"-0.013": 0.0,
			"-0.012": 0.0,
			"-0.011": 0.0,
			"-0.01": 0.0,
			"-0.009": 0.0,
			"-0.008": 0.0,
			"-0.007": 0.269047853046,
			"-0.006": 6.54690178991,
			"-0.005": 18.4411388406,
			"-0.004": 28.2031397774,
			"-0.003": 46.8890234033,
			"-0.002": 44.6026588541,
			"-0.001": 37.0450052527,
			"0.0": 34.6002819077,
			"0.001": 23.3987786837,
			"0.002": 13.0413640093,
			"0.003": 14.6908407962,
			"0.004": 13.8887486076,
			"0.005": 14.1822611502,
			"0.006": 6.2899854557,
			"0.007": 3.82860477585,
			"0.008": 4.18399595827,
			"0.009": 2.65206736561,
			"0.01": 4.44530425115,
			"0.011": 5.14295218844,
			"0.012": 4.26457750988,
			"0.013": 1.3632897362,
			"0.014": 0.0188596561794,
			"0.015": 0.0,
			"0.016": 0.0,
			"0.017": 0.0,
			"0.018": 0.0,
			"0.019": 0.0,
			"0.02": 0.0,
			"0.021": 0.0,
			"0.022": 0.0,
			"0.023": 0.0,
			"0.024": 0.0,
			"0.025": 0.0
		}
	}
}
