{
	 "smiles": "CN1C(C)=CC2=C1C=CC=C2", 
	 "Tm": 329.65, 
	 "num_atms": 22, 
	 "gaussian": { 
		 "optdone": 1, 
		 "sigma_profile": "yes", 
		 "theory": "DFT", 
		 "functional": "B3LYP", 
		 "basiset": "6-31G**", 
		 "properties": { 
			 "R2extent": 2322.3798, 
			 "electric_dipole_moment_norm": 2.71606529377, 
			 "electric_quadrupole_moment_norm": 6.88203956324, 
			 "total_energy": -442.456227318, 
			 "HOMO_LUMO_gap": 0.19032, 
			 "cosmo_polarized_energy": -6.74, 
			 "cosmo_cavitation_energy": 24.6, 
			 "cosmo_dispersion_energy": -18.24, 
			 "cosmo_repulsion_energy": 1.44, 
			 "cosmo_total_nonelectrostatic_energy": 7.81, 
			 "SMD_solvation_energy": 4.01 
		},
		"coords": [
			{
				"x": -0.2465031574,
				"y": 1.8232204986,
				"z": -1.2126590915,
				"element": "C" 
			},
			{
				"x": -0.6236218861,
				"y": 0.6265438242,
				"z": -0.4888561395,
				"element": "N" 
			},
			{
				"x": 0.017857689,
				"y": -0.6109498026,
				"z": -0.512952098,
				"element": "C" 
			},
			{
				"x": 1.2405032297,
				"y": -0.8578719731,
				"z": -1.3376862027,
				"element": "C" 
			},
			{
				"x": -0.6528964079,
				"y": -1.4817917738,
				"z": 0.3107325303,
				"element": "C" 
			},
			{
				"x": -1.7632348393,
				"y": -0.7772490934,
				"z": 0.882623311,
				"element": "C" 
			},
			{
				"x": -1.7150907067,
				"y": 0.5448737271,
				"z": 0.3588741515,
				"element": "C" 
			},
			{
				"x": -2.6568618613,
				"y": 1.5195997752,
				"z": 0.7049049219,
				"element": "C" 
			},
			{
				"x": -3.6639778752,
				"y": 1.1546176721,
				"z": 1.5941177091,
				"element": "C" 
			},
			{
				"x": -3.7306501383,
				"y": -0.1488315652,
				"z": 2.1248831524,
				"element": "C" 
			},
			{
				"x": -2.7921311069,
				"y": -1.1141981761,
				"z": 1.7777818864,
				"element": "C" 
			},
			{
				"x": 0.6450568997,
				"y": 1.6283873925,
				"z": -1.8087490057,
				"element": "H" 
			},
			{
				"x": -0.0265137014,
				"y": 2.6463022815,
				"z": -0.5227413715,
				"element": "H" 
			},
			{
				"x": -1.0490125854,
				"y": 2.1429856933,
				"z": -1.8876148804,
				"element": "H" 
			},
			{
				"x": 1.0589843949,
				"y": -0.7069417047,
				"z": -2.4093270903,
				"element": "H" 
			},
			{
				"x": 2.0757825092,
				"y": -0.2061379456,
				"z": -1.0518690664,
				"element": "H" 
			},
			{
				"x": 1.5666131898,
				"y": -1.8911952978,
				"z": -1.2007275545,
				"element": "H" 
			},
			{
				"x": -0.3766008456,
				"y": -2.5126956694,
				"z": 0.4840661585,
				"element": "H" 
			},
			{
				"x": -2.6098912719,
				"y": 2.5256811256,
				"z": 0.2985837757,
				"element": "H" 
			},
			{
				"x": -4.4110409381,
				"y": 1.8882327218,
				"z": 1.883212905,
				"element": "H" 
			},
			{
				"x": -4.5299094425,
				"y": -0.4000372505,
				"z": 2.8163787046,
				"element": "H" 
			},
			{
				"x": -2.8521611483,
				"y": -2.1168444596,
				"z": 2.1926232941,
				"element": "H" 
			}
		],
		 "valence_orbital": [ 
			{
				"type": "occ",
				"energy": -0.3231,
				"method": "rhf"
			},
			{
				"type": "occ",
				"energy": -0.31168,
				"method": "rhf"
			},
			{
				"type": "occ",
				"energy": -0.26187,
				"method": "rhf"
			},
			{
				"type": "occ",
				"energy": -0.20737,
				"method": "rhf"
			},
			{
				"type": "occ",
				"energy": -0.19008,
				"method": "rhf"
			},
			{
				"type": "unocc",
				"energy": 0.00024,
				"method": "rhf"
			},
			{
				"type": "unocc",
				"energy": 0.03494,
				"method": "rhf"
			},
			{
				"type": "unocc",
				"energy": 0.07914,
				"method": "rhf"
			},
			{
				"type": "unocc",
				"energy": 0.0852,
				"method": "rhf"
			},
			{
				"type": "unocc",
				"energy": 0.10961,
				"method": "rhf"
			}
		],
		"cosmo_sigma_profile": { 
			"-0.025": 0.0,
			"-0.024": 0.0,
			"-0.023": 0.0,
			"-0.022": 0.0,
			"-0.021": 0.0,
			"-0.02": 0.0,
			"-0.019": 0.0,
			"-0.018": 0.0,
			"-0.017": 0.0,
			"-0.016": 0.0,
			"-0.015": 0.0,
			"-0.014": 0.0,
			"-0.013": 0.0,
			"-0.012": 0.0,
			"-0.011": 0.0,
			"-0.01": 0.0,
			"-0.009": 0.0,
			"-0.008": 0.0,
			"-0.007": 0.0,
			"-0.006": 2.45793009243,
			"-0.005": 19.478636315,
			"-0.004": 24.122300057,
			"-0.003": 25.0626705884,
			"-0.002": 21.1983625542,
			"-0.001": 16.4576806742,
			"0.0": 13.0376634613,
			"0.001": 8.09185412856,
			"0.002": 7.73803880516,
			"0.003": 7.90501008388,
			"0.004": 9.55052225842,
			"0.005": 9.77116073129,
			"0.006": 11.8134453319,
			"0.007": 13.439151263,
			"0.008": 5.30646197026,
			"0.009": 0.0002537260577,
			"0.01": 0.0,
			"0.011": 0.0,
			"0.012": 0.0,
			"0.013": 0.0,
			"0.014": 0.0,
			"0.015": 0.0,
			"0.016": 0.0,
			"0.017": 0.0,
			"0.018": 0.0,
			"0.019": 0.0,
			"0.02": 0.0,
			"0.021": 0.0,
			"0.022": 0.0,
			"0.023": 0.0,
			"0.024": 0.0,
			"0.025": 0.0
		}
	}
}
