{
	 "smiles": "ON=C1CCCCCCC1", 
	 "Tm": 310.15, 
	 "num_atms": 25, 
	 "gaussian": { 
		 "optdone": 1, 
		 "sigma_profile": "yes", 
		 "theory": "DFT", 
		 "functional": "B3LYP", 
		 "basiset": "6-31G**", 
		 "properties": { 
			 "R2extent": 1859.2097, 
			 "electric_dipole_moment_norm": 0.788228830988, 
			 "electric_quadrupole_moment_norm": 2.77254448296, 
			 "total_energy": -443.818728008, 
			 "HOMO_LUMO_gap": 0.25041, 
			 "cosmo_polarized_energy": -6.54, 
			 "cosmo_cavitation_energy": 24.91, 
			 "cosmo_dispersion_energy": -18.75, 
			 "cosmo_repulsion_energy": 1.53, 
			 "cosmo_total_nonelectrostatic_energy": 7.7, 
			 "SMD_solvation_energy": 3.22 
		},
		"coords": [
			{
				"x": 2.0902052908,
				"y": -1.6561619278,
				"z": -1.7127932065,
				"element": "O" 
			},
			{
				"x": 2.3748449481,
				"y": -0.3632991951,
				"z": -1.2124656093,
				"element": "N" 
			},
			{
				"x": 1.3607768426,
				"y": 0.1424786347,
				"z": -0.6072522762,
				"element": "C" 
			},
			{
				"x": 1.5979847334,
				"y": 1.5114546753,
				"z": -0.0120446193,
				"element": "C" 
			},
			{
				"x": 2.0396390453,
				"y": 1.4746332311,
				"z": 1.465989149,
				"element": "C" 
			},
			{
				"x": 1.1379853838,
				"y": 0.6761229505,
				"z": 2.4201190614,
				"element": "C" 
			},
			{
				"x": -0.3514985251,
				"y": 1.0911078502,
				"z": 2.4266981946,
				"element": "C" 
			},
			{
				"x": -1.306615474,
				"y": 0.1940689764,
				"z": 1.6181007581,
				"element": "C" 
			},
			{
				"x": -1.1768477823,
				"y": 0.1680006503,
				"z": 0.0834895991,
				"element": "C" 
			},
			{
				"x": 0.0310975798,
				"y": -0.579544961,
				"z": -0.5118732072,
				"element": "C" 
			},
			{
				"x": 2.9170633665,
				"y": -1.8790479476,
				"z": -2.1592654154,
				"element": "H" 
			},
			{
				"x": 0.6926732532,
				"y": 2.1187189319,
				"z": -0.1154336385,
				"element": "H" 
			},
			{
				"x": 2.3814797166,
				"y": 2.0040381485,
				"z": -0.5953298852,
				"element": "H" 
			},
			{
				"x": 3.0530916044,
				"y": 1.0579437505,
				"z": 1.5079333234,
				"element": "H" 
			},
			{
				"x": 2.1115978733,
				"y": 2.5105801171,
				"z": 1.8239301414,
				"element": "H" 
			},
			{
				"x": 1.2182137908,
				"y": -0.3949794289,
				"z": 2.1931660713,
				"element": "H" 
			},
			{
				"x": 1.5494878015,
				"y": 0.7914244692,
				"z": 3.4300974706,
				"element": "H" 
			},
			{
				"x": -0.4503445888,
				"y": 2.1328208738,
				"z": 2.089956663,
				"element": "H" 
			},
			{
				"x": -0.7129556553,
				"y": 1.0847813831,
				"z": 3.4622209717,
				"element": "H" 
			},
			{
				"x": -2.3323666847,
				"y": 0.5077216876,
				"z": 1.8526192296,
				"element": "H" 
			},
			{
				"x": -1.2177785749,
				"y": -0.8363297758,
				"z": 1.9919932274,
				"element": "H" 
			},
			{
				"x": -1.2312176312,
				"y": 1.1895413112,
				"z": -0.3145443556,
				"element": "H" 
			},
			{
				"x": -2.0723923707,
				"y": -0.3367827943,
				"z": -0.2994745049,
				"element": "H" 
			},
			{
				"x": 0.1884469553,
				"y": -1.5234859608,
				"z": 0.0283662299,
				"element": "H" 
			},
			{
				"x": -0.2119708985,
				"y": -0.8971056502,
				"z": -1.5340033725,
				"element": "H" 
			}
		],
		 "valence_orbital": [ 
			{
				"type": "occ",
				"energy": -0.31568,
				"method": "rhf"
			},
			{
				"type": "occ",
				"energy": -0.31084,
				"method": "rhf"
			},
			{
				"type": "occ",
				"energy": -0.30439,
				"method": "rhf"
			},
			{
				"type": "occ",
				"energy": -0.25705,
				"method": "rhf"
			},
			{
				"type": "occ",
				"energy": -0.23509,
				"method": "rhf"
			},
			{
				"type": "unocc",
				"energy": 0.01532,
				"method": "rhf"
			},
			{
				"type": "unocc",
				"energy": 0.08265,
				"method": "rhf"
			},
			{
				"type": "unocc",
				"energy": 0.08482,
				"method": "rhf"
			},
			{
				"type": "unocc",
				"energy": 0.10306,
				"method": "rhf"
			},
			{
				"type": "unocc",
				"energy": 0.11803,
				"method": "rhf"
			}
		],
		"cosmo_sigma_profile": { 
			"-0.025": 0.0,
			"-0.024": 0.0,
			"-0.023": 0.0,
			"-0.022": 0.0,
			"-0.021": 0.0,
			"-0.02": 0.0,
			"-0.019": 0.0,
			"-0.018": 0.0,
			"-0.017": 0.158974671323,
			"-0.016": 1.21752112818,
			"-0.015": 0.737386380617,
			"-0.014": 0.738176378624,
			"-0.013": 0.699381698259,
			"-0.012": 0.917977375188,
			"-0.011": 0.57488865132,
			"-0.01": 0.422972520659,
			"-0.009": 0.755250225743,
			"-0.008": 0.659164156691,
			"-0.007": 0.839016675491,
			"-0.006": 0.466301903146,
			"-0.005": 0.726914872587,
			"-0.004": 5.20507900644,
			"-0.003": 15.9741956643,
			"-0.002": 34.067412231,
			"-0.001": 35.9615053888,
			"0.0": 33.2434676828,
			"0.001": 20.2511163814,
			"0.002": 4.94489154059,
			"0.003": 3.33054784049,
			"0.004": 3.96776174285,
			"0.005": 3.24891402313,
			"0.006": 3.13513813268,
			"0.007": 3.77437481543,
			"0.008": 3.27943132299,
			"0.009": 4.07258013672,
			"0.01": 3.2260059098,
			"0.011": 2.24772486538,
			"0.012": 0.652569451697,
			"0.013": 0.575256757617,
			"0.014": 1.15583960995,
			"0.015": 0.169390904134,
			"0.016": 0.0,
			"0.017": 0.0,
			"0.018": 0.0,
			"0.019": 0.0,
			"0.02": 0.0,
			"0.021": 0.0,
			"0.022": 0.0,
			"0.023": 0.0,
			"0.024": 0.0,
			"0.025": 0.0
		}
	}
}
