{
	 "smiles": "OC(=O)C1=CNC=C1C1=CC2=C(OCCO2)C(Cl)=C1", 
	 "Tm": 483.15, 
	 "num_atms": 29, 
	 "gaussian": { 
		 "optdone": 1, 
		 "sigma_profile": "yes", 
		 "theory": "DFT", 
		 "functional": "B3LYP", 
		 "basiset": "6-31G**", 
		 "properties": { 
			 "R2extent": 7486.865, 
			 "electric_dipole_moment_norm": 3.27810314969, 
			 "electric_quadrupole_moment_norm": 39.5318926612, 
			 "total_energy": -1317.24025049, 
			 "HOMO_LUMO_gap": 0.17932, 
			 "cosmo_polarized_energy": -20.97, 
			 "cosmo_cavitation_energy": 35.18, 
			 "cosmo_dispersion_energy": -26.16, 
			 "cosmo_repulsion_energy": 2.02, 
			 "cosmo_total_nonelectrostatic_energy": 11.05, 
			 "SMD_solvation_energy": 7.21 
		},
		"coords": [
			{
				"x": -2.5942022703,
				"y": 3.0307944819,
				"z": 3.8299773349,
				"element": "O" 
			},
			{
				"x": -1.9162230375,
				"y": 2.5876934593,
				"z": 2.7292766147,
				"element": "C" 
			},
			{
				"x": -0.7519490285,
				"y": 2.8922992452,
				"z": 2.5475555249,
				"element": "O" 
			},
			{
				"x": -2.7583101845,
				"y": 1.7497950868,
				"z": 1.8731768589,
				"element": "C" 
			},
			{
				"x": -4.0716168638,
				"y": 1.428523922,
				"z": 2.1862214414,
				"element": "C" 
			},
			{
				"x": -4.5762480319,
				"y": 0.6832866209,
				"z": 1.1675074755,
				"element": "N" 
			},
			{
				"x": -3.6186187597,
				"y": 0.5131746478,
				"z": 0.1919167395,
				"element": "C" 
			},
			{
				"x": -2.4636863326,
				"y": 1.1626557676,
				"z": 0.5830455561,
				"element": "C" 
			},
			{
				"x": -1.2382268827,
				"y": 1.194319451,
				"z": -0.2418131491,
				"element": "C" 
			},
			{
				"x": 0.0417509788,
				"y": 1.0588652984,
				"z": 0.30986485,
				"element": "C" 
			},
			{
				"x": 1.1665486842,
				"y": 1.0248807242,
				"z": -0.5091415486,
				"element": "C" 
			},
			{
				"x": 1.0500092933,
				"y": 1.1348344039,
				"z": -1.907089006,
				"element": "C" 
			},
			{
				"x": 2.1380881551,
				"y": 1.1265334007,
				"z": -2.7351646422,
				"element": "O" 
			},
			{
				"x": 3.3769826922,
				"y": 1.3547699194,
				"z": -2.0613464028,
				"element": "C" 
			},
			{
				"x": 3.4437588305,
				"y": 0.5113357603,
				"z": -0.7995440612,
				"element": "C" 
			},
			{
				"x": 2.3939948698,
				"y": 0.8809923451,
				"z": 0.0919305592,
				"element": "O" 
			},
			{
				"x": -0.2332075615,
				"y": 1.259022425,
				"z": -2.4512380469,
				"element": "C" 
			},
			{
				"x": -0.4081951169,
				"y": 1.4008506468,
				"z": -4.1909269294,
				"element": "Cl" 
			},
			{
				"x": -1.3616942763,
				"y": 1.2892624453,
				"z": -1.6395590804,
				"element": "C" 
			},
			{
				"x": -1.9504947055,
				"y": 3.5629066301,
				"z": 4.3249816634,
				"element": "H" 
			},
			{
				"x": -4.6562697399,
				"y": 1.6922874479,
				"z": 3.0532176953,
				"element": "H" 
			},
			{
				"x": -5.5067801854,
				"y": 0.2975047463,
				"z": 1.1378131375,
				"element": "H" 
			},
			{
				"x": -3.8148682671,
				"y": -0.079520285,
				"z": -0.6884511388,
				"element": "H" 
			},
			{
				"x": 0.1860252289,
				"y": 0.9923707506,
				"z": 1.3795514347,
				"element": "H" 
			},
			{
				"x": 4.1647833598,
				"y": 1.0831868894,
				"z": -2.7681329996,
				"element": "H" 
			},
			{
				"x": 3.4717022143,
				"y": 2.41890973,
				"z": -1.8071787256,
				"element": "H" 
			},
			{
				"x": 3.3608212906,
				"y": -0.55353698,
				"z": -1.0579579347,
				"element": "H" 
			},
			{
				"x": 4.3803648885,
				"y": 0.6749573067,
				"z": -0.2604609051,
				"element": "H" 
			},
			{
				"x": -2.3352392424,
				"y": 1.4185437121,
				"z": -2.0973323158,
				"element": "H" 
			}
		],
		 "valence_orbital": [ 
			{
				"type": "occ",
				"energy": -0.26577,
				"method": "rhf"
			},
			{
				"type": "occ",
				"energy": -0.25921,
				"method": "rhf"
			},
			{
				"type": "occ",
				"energy": -0.23534,
				"method": "rhf"
			},
			{
				"type": "occ",
				"energy": -0.21899,
				"method": "rhf"
			},
			{
				"type": "occ",
				"energy": -0.2006,
				"method": "rhf"
			},
			{
				"type": "unocc",
				"energy": -0.02128,
				"method": "rhf"
			},
			{
				"type": "unocc",
				"energy": 0.00034,
				"method": "rhf"
			},
			{
				"type": "unocc",
				"energy": 0.00633,
				"method": "rhf"
			},
			{
				"type": "unocc",
				"energy": 0.0371,
				"method": "rhf"
			},
			{
				"type": "unocc",
				"energy": 0.0529,
				"method": "rhf"
			}
		],
		"cosmo_sigma_profile": { 
			"-0.025": 0.0,
			"-0.024": 0.0,
			"-0.023": 0.0,
			"-0.022": 0.0,
			"-0.021": 0.0,
			"-0.02": 0.0,
			"-0.019": 0.0,
			"-0.018": 0.0911265602012,
			"-0.017": 1.5767935863,
			"-0.016": 2.97075856043,
			"-0.015": 2.38988626571,
			"-0.014": 1.76650882474,
			"-0.013": 1.53499588972,
			"-0.012": 1.68980216477,
			"-0.011": 2.00402792585,
			"-0.01": 2.46259260049,
			"-0.009": 3.43897784369,
			"-0.008": 6.14315913286,
			"-0.007": 12.1268707545,
			"-0.006": 16.948333291,
			"-0.005": 16.0507401745,
			"-0.004": 14.130274219,
			"-0.003": 9.15313052314,
			"-0.002": 10.5092941961,
			"-0.001": 14.0403287098,
			"0.0": 13.4375017088,
			"0.001": 16.8683840518,
			"0.002": 21.1803574952,
			"0.003": 27.7574926768,
			"0.004": 27.5634412212,
			"0.005": 18.044918449,
			"0.006": 7.1524890934,
			"0.007": 5.83460254552,
			"0.008": 8.06296194317,
			"0.009": 5.0562132104,
			"0.01": 5.25093757264,
			"0.011": 2.64130644318,
			"0.012": 3.93893787991,
			"0.013": 1.63495403902,
			"0.014": 0.0,
			"0.015": 0.0,
			"0.016": 0.0,
			"0.017": 0.0,
			"0.018": 0.0,
			"0.019": 0.0,
			"0.02": 0.0,
			"0.021": 0.0,
			"0.022": 0.0,
			"0.023": 0.0,
			"0.024": 0.0,
			"0.025": 0.0
		}
	}
}
