{
	 "smiles": "NC1=CC=C(C=C1)S(=O)(=O)C1=CC=C(C=C1)[N+]([O-])=O", 
	 "Tm": 443.15, 
	 "num_atms": 29, 
	 "gaussian": { 
		 "optdone": 1, 
		 "sigma_profile": "yes", 
		 "theory": "DFT", 
		 "functional": "B3LYP", 
		 "basiset": "6-31G**", 
		 "properties": { 
			 "R2extent": 7035.9562, 
			 "electric_dipole_moment_norm": 7.47012249966, 
			 "electric_quadrupole_moment_norm": 38.6210685905, 
			 "total_energy": -1271.7239194, 
			 "HOMO_LUMO_gap": 0.12904, 
			 "cosmo_polarized_energy": -21.98, 
			 "cosmo_cavitation_energy": 36.27, 
			 "cosmo_dispersion_energy": -26.19, 
			 "cosmo_repulsion_energy": 1.96, 
			 "cosmo_total_nonelectrostatic_energy": 12.05, 
			 "SMD_solvation_energy": 7.77 
		},
		"coords": [
			{
				"x": 4.2532756126,
				"y": 2.4798168626,
				"z": 0.5586012562,
				"element": "N" 
			},
			{
				"x": 3.1116255212,
				"y": 1.7221447078,
				"z": 0.7191581661,
				"element": "C" 
			},
			{
				"x": 3.1959666179,
				"y": 0.3242340692,
				"z": 0.8900880331,
				"element": "C" 
			},
			{
				"x": 2.0518193683,
				"y": -0.4321857341,
				"z": 1.0971561411,
				"element": "C" 
			},
			{
				"x": 0.8009928785,
				"y": 0.1939800821,
				"z": 1.1353235833,
				"element": "C" 
			},
			{
				"x": 0.6992102876,
				"y": 1.5808022356,
				"z": 0.978803348,
				"element": "C" 
			},
			{
				"x": 1.8431457499,
				"y": 2.3375257639,
				"z": 0.7717175435,
				"element": "C" 
			},
			{
				"x": -0.6694046728,
				"y": -0.7785602699,
				"z": 1.3979152077,
				"element": "S" 
			},
			{
				"x": -0.2747915595,
				"y": -2.0280964567,
				"z": 2.0680112601,
				"element": "O" 
			},
			{
				"x": -1.7094437899,
				"y": 0.1076826049,
				"z": 1.9447418318,
				"element": "O" 
			},
			{
				"x": -1.2176478115,
				"y": -1.2426688736,
				"z": -0.2662513695,
				"element": "C" 
			},
			{
				"x": -0.7525703289,
				"y": -2.4328708154,
				"z": -0.8304212183,
				"element": "C" 
			},
			{
				"x": -1.172190382,
				"y": -2.7919857589,
				"z": -2.1087317065,
				"element": "C" 
			},
			{
				"x": -2.0512948891,
				"y": -1.9471518589,
				"z": -2.7842186154,
				"element": "C" 
			},
			{
				"x": -2.5351923171,
				"y": -0.7659739733,
				"z": -2.2243270764,
				"element": "C" 
			},
			{
				"x": -2.1120080609,
				"y": -0.4122275762,
				"z": -0.9456999575,
				"element": "C" 
			},
			{
				"x": -2.492983129,
				"y": -2.3216786252,
				"z": -4.1408636007,
				"element": "N" 
			},
			{
				"x": -2.0540423963,
				"y": -3.3690480103,
				"z": -4.6126251301,
				"element": "O" 
			},
			{
				"x": -3.2698856943,
				"y": -1.5613751506,
				"z": -4.7158197122,
				"element": "O" 
			},
			{
				"x": 5.0923899786,
				"y": 2.0043722576,
				"z": 0.2632405915,
				"element": "H" 
			},
			{
				"x": 4.1485005894,
				"y": 3.409152503,
				"z": 0.1807715541,
				"element": "H" 
			},
			{
				"x": 4.1689736651,
				"y": -0.1592242062,
				"z": 0.8720915056,
				"element": "H" 
			},
			{
				"x": 2.1222275325,
				"y": -1.5035571699,
				"z": 1.2515542321,
				"element": "H" 
			},
			{
				"x": -0.2720548423,
				"y": 2.0596556481,
				"z": 1.0419689234,
				"element": "H" 
			},
			{
				"x": 1.7666743753,
				"y": 3.4158958999,
				"z": 0.6618702276,
				"element": "H" 
			},
			{
				"x": -0.0895218811,
				"y": -3.0754050952,
				"z": -0.2620834956,
				"element": "H" 
			},
			{
				"x": -0.8398745074,
				"y": -3.7063910599,
				"z": -2.5836937756,
				"element": "H" 
			},
			{
				"x": -3.2295182044,
				"y": -0.1542517304,
				"z": -2.7863451327,
				"element": "H" 
			},
			{
				"x": -2.4850777102,
				"y": 0.4851897298,
				"z": -0.4651326145,
				"element": "H" 
			}
		],
		 "valence_orbital": [ 
			{
				"type": "occ",
				"energy": -0.2986,
				"method": "rhf"
			},
			{
				"type": "occ",
				"energy": -0.28987,
				"method": "rhf"
			},
			{
				"type": "occ",
				"energy": -0.28891,
				"method": "rhf"
			},
			{
				"type": "occ",
				"energy": -0.27588,
				"method": "rhf"
			},
			{
				"type": "occ",
				"energy": -0.23111,
				"method": "rhf"
			},
			{
				"type": "unocc",
				"energy": -0.10207,
				"method": "rhf"
			},
			{
				"type": "unocc",
				"energy": -0.0409,
				"method": "rhf"
			},
			{
				"type": "unocc",
				"energy": -0.03732,
				"method": "rhf"
			},
			{
				"type": "unocc",
				"energy": -0.02301,
				"method": "rhf"
			},
			{
				"type": "unocc",
				"energy": -0.00952,
				"method": "rhf"
			}
		],
		"cosmo_sigma_profile": { 
			"-0.025": 0.0,
			"-0.024": 0.0,
			"-0.023": 0.0,
			"-0.022": 0.0,
			"-0.021": 0.0,
			"-0.02": 0.0,
			"-0.019": 0.0,
			"-0.018": 0.0,
			"-0.017": 0.0,
			"-0.016": 0.0,
			"-0.015": 0.0,
			"-0.014": 0.797763287954,
			"-0.013": 2.9621174101,
			"-0.012": 3.00376360566,
			"-0.011": 2.94895763201,
			"-0.01": 3.45381377706,
			"-0.009": 3.94345538883,
			"-0.008": 10.0288548778,
			"-0.007": 12.8602999177,
			"-0.006": 15.9036059324,
			"-0.005": 18.0753298244,
			"-0.004": 13.6788863837,
			"-0.003": 15.5202870204,
			"-0.002": 17.6247526295,
			"-0.001": 20.9613245655,
			"0.0": 23.8101230721,
			"0.001": 13.0888105947,
			"0.002": 13.6851042185,
			"0.003": 16.5990898729,
			"0.004": 16.1163953048,
			"0.005": 6.74200572803,
			"0.006": 8.90198200961,
			"0.007": 12.9536924067,
			"0.008": 9.30464387736,
			"0.009": 7.36578326852,
			"0.01": 7.61971628944,
			"0.011": 8.0576292188,
			"0.012": 5.26344073085,
			"0.013": 0.00319057681377,
			"0.014": 0.0,
			"0.015": 0.0,
			"0.016": 0.0,
			"0.017": 0.0,
			"0.018": 0.0,
			"0.019": 0.0,
			"0.02": 0.0,
			"0.021": 0.0,
			"0.022": 0.0,
			"0.023": 0.0,
			"0.024": 0.0,
			"0.025": 0.0
		}
	}
}
