{
	 "smiles": "OC(=O)C1=CC(=CC=C1)C1=CSC=C1", 
	 "Tm": 451.15, 
	 "num_atms": 22, 
	 "gaussian": { 
		 "optdone": 1, 
		 "sigma_profile": "yes", 
		 "theory": "DFT", 
		 "functional": "B3LYP", 
		 "basiset": "6-31G**", 
		 "properties": { 
			 "R2extent": 5164.4255, 
			 "electric_dipole_moment_norm": 4.67395985755, 
			 "electric_quadrupole_moment_norm": 17.4851673444, 
			 "total_energy": -972.625003507, 
			 "HOMO_LUMO_gap": 0.18011, 
			 "cosmo_polarized_energy": -15.37, 
			 "cosmo_cavitation_energy": 28.5, 
			 "cosmo_dispersion_energy": -21.39, 
			 "cosmo_repulsion_energy": 1.61, 
			 "cosmo_total_nonelectrostatic_energy": 8.72, 
			 "SMD_solvation_energy": 6.0 
		},
		"coords": [
			{
				"x": 0.9354848598,
				"y": -0.5258113208,
				"z": -2.7029859332,
				"element": "O" 
			},
			{
				"x": -0.1461450907,
				"y": -1.3123000621,
				"z": -2.4519772923,
				"element": "C" 
			},
			{
				"x": -0.9517376239,
				"y": -1.5267446373,
				"z": -3.3266913715,
				"element": "O" 
			},
			{
				"x": -0.2637898103,
				"y": -1.8770781325,
				"z": -1.0666771344,
				"element": "C" 
			},
			{
				"x": 0.3813359618,
				"y": -1.3101549325,
				"z": 0.0394349167,
				"element": "C" 
			},
			{
				"x": 0.2346246744,
				"y": -1.8537339699,
				"z": 1.3256471943,
				"element": "C" 
			},
			{
				"x": -0.5751321408,
				"y": -2.9928715861,
				"z": 1.4721344699,
				"element": "C" 
			},
			{
				"x": -1.2356680628,
				"y": -3.550211005,
				"z": 0.3777389892,
				"element": "C" 
			},
			{
				"x": -1.0907027905,
				"y": -2.9936988847,
				"z": -0.8903256209,
				"element": "C" 
			},
			{
				"x": 0.9046211961,
				"y": -1.2353389608,
				"z": 2.4885495725,
				"element": "C" 
			},
			{
				"x": 0.3902105857,
				"y": -1.2241351353,
				"z": 3.7653121007,
				"element": "C" 
			},
			{
				"x": 1.4258039246,
				"y": -0.4089269825,
				"z": 4.8842152484,
				"element": "S" 
			},
			{
				"x": 2.5819339717,
				"y": -0.0710617169,
				"z": 3.6370957356,
				"element": "C" 
			},
			{
				"x": 2.1744751606,
				"y": -0.5621593017,
				"z": 2.4307011835,
				"element": "C" 
			},
			{
				"x": 1.562951236,
				"y": -0.5810762213,
				"z": -1.9692237127,
				"element": "H" 
			},
			{
				"x": 0.9581526514,
				"y": -0.3951825645,
				"z": -0.0711363086,
				"element": "H" 
			},
			{
				"x": -0.6734096678,
				"y": -3.4512319694,
				"z": 2.4515296496,
				"element": "H" 
			},
			{
				"x": -1.8596443899,
				"y": -4.4281449871,
				"z": 0.516032112,
				"element": "H" 
			},
			{
				"x": -1.599906612,
				"y": -3.4055037854,
				"z": -1.7545371221,
				"element": "H" 
			},
			{
				"x": -0.5604699983,
				"y": -1.615503021,
				"z": 4.099147767,
				"element": "H" 
			},
			{
				"x": 3.4975702269,
				"y": 0.4533539254,
				"z": 3.8718635286,
				"element": "H" 
			},
			{
				"x": 2.7699417379,
				"y": -0.4814847484,
				"z": 1.5285520277,
				"element": "H" 
			}
		],
		 "valence_orbital": [ 
			{
				"type": "occ",
				"energy": -0.29277,
				"method": "rhf"
			},
			{
				"type": "occ",
				"energy": -0.27685,
				"method": "rhf"
			},
			{
				"type": "occ",
				"energy": -0.26861,
				"method": "rhf"
			},
			{
				"type": "occ",
				"energy": -0.25626,
				"method": "rhf"
			},
			{
				"type": "occ",
				"energy": -0.23429,
				"method": "rhf"
			},
			{
				"type": "unocc",
				"energy": -0.05418,
				"method": "rhf"
			},
			{
				"type": "unocc",
				"energy": -0.04018,
				"method": "rhf"
			},
			{
				"type": "unocc",
				"energy": -0.01338,
				"method": "rhf"
			},
			{
				"type": "unocc",
				"energy": 0.02128,
				"method": "rhf"
			},
			{
				"type": "unocc",
				"energy": 0.03858,
				"method": "rhf"
			}
		],
		"cosmo_sigma_profile": { 
			"-0.025": 0.0,
			"-0.024": 0.0,
			"-0.023": 0.0,
			"-0.022": 0.0,
			"-0.021": 0.0,
			"-0.02": 0.0,
			"-0.019": 0.0740709830714,
			"-0.018": 0.68675143821,
			"-0.017": 0.781958983853,
			"-0.016": 1.3129321546,
			"-0.015": 0.998530217423,
			"-0.014": 0.652508968815,
			"-0.013": 0.84289846334,
			"-0.012": 1.73899499984,
			"-0.011": 1.08683944856,
			"-0.01": 1.06846389207,
			"-0.009": 2.37782152226,
			"-0.008": 6.36439957655,
			"-0.007": 8.85008722486,
			"-0.006": 12.8298806262,
			"-0.005": 13.7392219162,
			"-0.004": 12.1922219492,
			"-0.003": 11.5900812555,
			"-0.002": 12.9383995064,
			"-0.001": 10.4636766354,
			"0.0": 13.7062237587,
			"0.001": 15.5968395682,
			"0.002": 21.2700636777,
			"0.003": 25.1024782584,
			"0.004": 19.9703191435,
			"0.005": 7.19963657255,
			"0.006": 3.53838604809,
			"0.007": 2.33164771866,
			"0.008": 2.509566823,
			"0.009": 3.23398582058,
			"0.01": 4.90623158349,
			"0.011": 5.26033109814,
			"0.012": 4.82591664601,
			"0.013": 1.60599369238,
			"0.014": 0.0538991072827,
			"0.015": 0.0,
			"0.016": 0.0,
			"0.017": 0.0,
			"0.018": 0.0,
			"0.019": 0.0,
			"0.02": 0.0,
			"0.021": 0.0,
			"0.022": 0.0,
			"0.023": 0.0,
			"0.024": 0.0,
			"0.025": 0.0
		}
	}
}
