{
	 "smiles": "SC1=NC2=C(C=CC=C2)N1C1=CC=CC=C1", 
	 "Tm": 415.15, 
	 "num_atms": 26, 
	 "gaussian": { 
		 "optdone": 1, 
		 "sigma_profile": "yes", 
		 "theory": "DFT", 
		 "functional": "B3LYP", 
		 "basiset": "6-31G**", 
		 "properties": { 
			 "R2extent": 4150.5976, 
			 "electric_dipole_moment_norm": 3.03458886507, 
			 "electric_quadrupole_moment_norm": 7.37232218639, 
			 "total_energy": -1009.10612378, 
			 "HOMO_LUMO_gap": 0.18513, 
			 "cosmo_polarized_energy": -9.63, 
			 "cosmo_cavitation_energy": 31.69, 
			 "cosmo_dispersion_energy": -23.28, 
			 "cosmo_repulsion_energy": 1.76, 
			 "cosmo_total_nonelectrostatic_energy": 10.17, 
			 "SMD_solvation_energy": 2.99 
		},
		"coords": [
			{
				"x": -0.2777025778,
				"y": 0.4130986114,
				"z": -2.7007019975,
				"element": "S" 
			},
			{
				"x": -0.8565321574,
				"y": -0.1843287336,
				"z": -1.1370098163,
				"element": "C" 
			},
			{
				"x": -1.5848062528,
				"y": -1.2573776945,
				"z": -0.9721108173,
				"element": "N" 
			},
			{
				"x": -1.7639780011,
				"y": -1.3551666841,
				"z": 0.4027344983,
				"element": "C" 
			},
			{
				"x": -1.107436411,
				"y": -0.2927939016,
				"z": 1.0638018862,
				"element": "C" 
			},
			{
				"x": -1.1385744154,
				"y": -0.1352278591,
				"z": 2.4490769872,
				"element": "C" 
			},
			{
				"x": -1.8465931758,
				"y": -1.0948085409,
				"z": 3.1721337153,
				"element": "C" 
			},
			{
				"x": -2.5005993294,
				"y": -2.1642515029,
				"z": 2.5312709553,
				"element": "C" 
			},
			{
				"x": -2.4705739415,
				"y": -2.3071561289,
				"z": 1.1463830875,
				"element": "C" 
			},
			{
				"x": -0.5238042047,
				"y": 0.4663899299,
				"z": 0.0440430057,
				"element": "N" 
			},
			{
				"x": 0.2763214596,
				"y": 1.6361220526,
				"z": 0.2057291547,
				"element": "C" 
			},
			{
				"x": -0.1150008361,
				"y": 2.8418108682,
				"z": -0.3863715353,
				"element": "C" 
			},
			{
				"x": 0.6792431105,
				"y": 3.9778009281,
				"z": -0.2266238767,
				"element": "C" 
			},
			{
				"x": 1.8451104091,
				"y": 3.9197063197,
				"z": 0.538777122,
				"element": "C" 
			},
			{
				"x": 2.2235365249,
				"y": 2.7171156108,
				"z": 1.1403001239,
				"element": "C" 
			},
			{
				"x": 1.4471027264,
				"y": 1.5716126344,
				"z": 0.9703013836,
				"element": "C" 
			},
			{
				"x": -0.8107445156,
				"y": -0.6339550388,
				"z": -3.3574580009,
				"element": "H" 
			},
			{
				"x": -0.6391283944,
				"y": 0.6924006703,
				"z": 2.9417469236,
				"element": "H" 
			},
			{
				"x": -1.8950559767,
				"y": -1.0126761062,
				"z": 4.2538915941,
				"element": "H" 
			},
			{
				"x": -3.0408897699,
				"y": -2.8898837848,
				"z": 3.1320665584,
				"element": "H" 
			},
			{
				"x": -2.9773962479,
				"y": -3.1250552165,
				"z": 0.6448131389,
				"element": "H" 
			},
			{
				"x": -1.035891375,
				"y": 2.884541185,
				"z": -0.9584061638,
				"element": "H" 
			},
			{
				"x": 0.3772581675,
				"y": 4.9115404668,
				"z": -0.6912116085,
				"element": "H" 
			},
			{
				"x": 2.4562583345,
				"y": 4.807935665,
				"z": 0.6674197442,
				"element": "H" 
			},
			{
				"x": 3.1313022872,
				"y": 2.6662410316,
				"z": 1.7340076636,
				"element": "H" 
			},
			{
				"x": 1.742174563,
				"y": 0.6271652179,
				"z": 1.4156962742,
				"element": "H" 
			}
		],
		 "valence_orbital": [ 
			{
				"type": "occ",
				"energy": -0.27923,
				"method": "rhf"
			},
			{
				"type": "occ",
				"energy": -0.26835,
				"method": "rhf"
			},
			{
				"type": "occ",
				"energy": -0.26159,
				"method": "rhf"
			},
			{
				"type": "occ",
				"energy": -0.22198,
				"method": "rhf"
			},
			{
				"type": "occ",
				"energy": -0.21148,
				"method": "rhf"
			},
			{
				"type": "unocc",
				"energy": -0.02635,
				"method": "rhf"
			},
			{
				"type": "unocc",
				"energy": -0.0218,
				"method": "rhf"
			},
			{
				"type": "unocc",
				"energy": -0.01039,
				"method": "rhf"
			},
			{
				"type": "unocc",
				"energy": 0.01862,
				"method": "rhf"
			},
			{
				"type": "unocc",
				"energy": 0.02437,
				"method": "rhf"
			}
		],
		"cosmo_sigma_profile": { 
			"-0.025": 0.0,
			"-0.024": 0.0,
			"-0.023": 0.0,
			"-0.022": 0.0,
			"-0.021": 0.0,
			"-0.02": 0.0,
			"-0.019": 0.0,
			"-0.018": 0.0,
			"-0.017": 0.0,
			"-0.016": 0.0,
			"-0.015": 0.0,
			"-0.014": 0.0,
			"-0.013": 0.0,
			"-0.012": 0.727447405084,
			"-0.011": 1.65457406729,
			"-0.01": 0.957967949819,
			"-0.009": 1.15139186681,
			"-0.008": 1.60994347249,
			"-0.007": 4.33165011619,
			"-0.006": 15.3467879595,
			"-0.005": 20.4662953335,
			"-0.004": 21.6794441359,
			"-0.003": 19.665610208,
			"-0.002": 14.7950939353,
			"-0.001": 16.8070396696,
			"0.0": 18.15721069,
			"0.001": 16.1683589527,
			"0.002": 22.9677940205,
			"0.003": 22.4392298818,
			"0.004": 22.0778248172,
			"0.005": 14.1420427506,
			"0.006": 10.5249362399,
			"0.007": 2.66189826943,
			"0.008": 1.42009379051,
			"0.009": 1.25058230371,
			"0.01": 0.826752352498,
			"0.011": 1.52036537402,
			"0.012": 0.734523447798,
			"0.013": 0.896342341409,
			"0.014": 0.886310377707,
			"0.015": 1.01825735405,
			"0.016": 0.511941021682,
			"0.017": 0.0,
			"0.018": 0.0,
			"0.019": 0.0,
			"0.02": 0.0,
			"0.021": 0.0,
			"0.022": 0.0,
			"0.023": 0.0,
			"0.024": 0.0,
			"0.025": 0.0
		}
	}
}
