{
	 "smiles": "COC(=O)C1=CC(I)=CC=C1O", 
	 "Tm": 350.15, 
	 "num_atms": 19, 
	 "gaussian": { 
		 "optdone": 1, 
		 "sigma_profile": "no", 
		 "theory": "DFT", 
		 "functional": "B3LYP", 
		 "basiset": "6-31G**", 
		 "properties": { 
			 "R2extent": 2721.4749, 
			 "electric_dipole_moment_norm": 1.94970858335, 
			 "electric_quadrupole_moment_norm": 12.2901871113, 
			 "total_energy": -546.145456711, 
			 "HOMO_LUMO_gap": 0.16571, 
			 "cosmo_polarized_energy": -99218.38, 
			 "cosmo_cavitation_energy": 26.64, 
			 "cosmo_dispersion_energy": -21.35, 
			 "cosmo_repulsion_energy": 1.67, 
			 "cosmo_total_nonelectrostatic_energy": 6.96, 
			 "SMD_solvation_energy": 5.51 
		},
		"coords": [
			{
				"x": -3.1258728653,
				"y": -1.3169561848,
				"z": -1.5616355469,
				"element": "C" 
			},
			{
				"x": -2.5077466272,
				"y": -0.8479089258,
				"z": -0.3493090539,
				"element": "O" 
			},
			{
				"x": -1.2052214118,
				"y": -0.543418606,
				"z": -0.4363940892,
				"element": "C" 
			},
			{
				"x": -0.5751097033,
				"y": -0.6579072154,
				"z": -1.4902572248,
				"element": "O" 
			},
			{
				"x": -0.609255149,
				"y": -0.0674432248,
				"z": 0.8223883699,
				"element": "C" 
			},
			{
				"x": -1.3698948665,
				"y": 0.0468550438,
				"z": 2.0018540941,
				"element": "C" 
			},
			{
				"x": -0.7768369013,
				"y": 0.4987322242,
				"z": 3.1694308009,
				"element": "C" 
			},
			{
				"x": -1.924944728,
				"y": 0.6695634157,
				"z": 4.9433039241,
				"element": "I" 
			},
			{
				"x": 0.5842769047,
				"y": 0.8453678262,
				"z": 3.185111847,
				"element": "C" 
			},
			{
				"x": 1.3434329524,
				"y": 0.7370048419,
				"z": 2.0301709878,
				"element": "C" 
			},
			{
				"x": 0.7658440726,
				"y": 0.2811785024,
				"z": 0.8326425818,
				"element": "C" 
			},
			{
				"x": 1.5471766394,
				"y": 0.1964211069,
				"z": -0.2523433662,
				"element": "O" 
			},
			{
				"x": -3.0595923738,
				"y": -0.5569399382,
				"z": -2.3434262197,
				"element": "H" 
			},
			{
				"x": -2.639333174,
				"y": -2.2307586573,
				"z": -1.9101367732,
				"element": "H" 
			},
			{
				"x": -4.1655370598,
				"y": -1.5102892291,
				"z": -1.3001191584,
				"element": "H" 
			},
			{
				"x": -2.417624467,
				"y": -0.2240766791,
				"z": 1.973694762,
				"element": "H" 
			},
			{
				"x": 1.0471828096,
				"y": 1.1990400886,
				"z": 4.0999282272,
				"element": "H" 
			},
			{
				"x": 2.3955840069,
				"y": 1.0005371548,
				"z": 2.0254220336,
				"element": "H" 
			},
			{
				"x": 0.9816719415,
				"y": -0.137401544,
				"z": -0.990626196,
				"element": "H" 
			}
		],
		 "valence_orbital": [ 
			{
				"type": "occ",
				"energy": -0.29677,
				"method": "rhf"
			},
			{
				"type": "occ",
				"energy": -0.28192,
				"method": "rhf"
			},
			{
				"type": "occ",
				"energy": -0.27515,
				"method": "rhf"
			},
			{
				"type": "occ",
				"energy": -0.27023,
				"method": "rhf"
			},
			{
				"type": "occ",
				"energy": -0.22664,
				"method": "rhf"
			},
			{
				"type": "unocc",
				"energy": -0.06093,
				"method": "rhf"
			},
			{
				"type": "unocc",
				"energy": -0.04025,
				"method": "rhf"
			},
			{
				"type": "unocc",
				"energy": -0.01115,
				"method": "rhf"
			},
			{
				"type": "unocc",
				"energy": 0.0361,
				"method": "rhf"
			},
			{
				"type": "unocc",
				"energy": 0.04204,
				"method": "rhf"
			}
		],
		"cosmo_sigma_profile": { 
			"0.0": 0.0,
			"0.0": 0.0,
			"0.0": 0.0,
			"0.0": 0.0,
			"0.0": 0.0,
			"0.0": 0.0,
			"0.0": 0.0,
			"0.0": 0.0,
			"0.0": 0.0,
			"0.0": 0.0,
			"0.0": 0.0,
			"0.0": 0.0,
			"0.0": 0.0,
			"0.0": 0.0,
			"0.0": 0.0,
			"0.0": 0.0,
			"0.0": 0.0,
			"0.0": 0.0,
			"0.0": 0.0,
			"0.0": 0.0,
			"0.0": 0.0,
			"0.0": 0.0,
			"0.0": 0.0,
			"0.0": 0.0,
			"0.0": 0.0,
			"0.0": 0.0,
			"0.0": 0.0,
			"0.0": 0.0,
			"0.0": 0.0,
			"0.0": 0.0,
			"0.0": 0.0,
			"0.0": 0.0,
			"0.0": 0.0,
			"0.0": 0.0,
			"0.0": 0.0,
			"0.0": 0.0,
			"0.0": 0.0,
			"0.0": 0.0,
			"0.0": 0.0,
			"0.0": 0.0,
			"0.0": 0.0,
			"0.0": 0.0,
			"0.0": 0.0,
			"0.0": 0.0,
			"0.0": 0.0,
			"0.0": 0.0,
			"0.0": 0.0,
			"0.0": 0.0,
			"0.0": 0.0,
			"0.0": 0.0,
			"0.0": 0.0
		}
	}
}
