{
	 "smiles": "CC1=NC2=NN=CN2C(C)=C1", 
	 "Tm": 439.15, 
	 "num_atms": 19, 
	 "gaussian": { 
		 "optdone": 1, 
		 "sigma_profile": "yes", 
		 "theory": "DFT", 
		 "functional": "B3LYP", 
		 "basiset": "6-31G**", 
		 "properties": { 
			 "R2extent": 3222.1443, 
			 "electric_dipole_moment_norm": 7.64127627821, 
			 "electric_quadrupole_moment_norm": 36.6370988922, 
			 "total_energy": -490.54695867, 
			 "HOMO_LUMO_gap": 0.17058, 
			 "cosmo_polarized_energy": -21.56, 
			 "cosmo_cavitation_energy": 23.03, 
			 "cosmo_dispersion_energy": -17.15, 
			 "cosmo_repulsion_energy": 1.35, 
			 "cosmo_total_nonelectrostatic_energy": 7.23, 
			 "SMD_solvation_energy": 1.1 
		},
		"coords": [
			{
				"x": -1.234925479,
				"y": -3.8033604885,
				"z": 0.9725181059,
				"element": "C" 
			},
			{
				"x": -1.5450112643,
				"y": -2.3317364305,
				"z": 1.085821967,
				"element": "C" 
			},
			{
				"x": -2.8135464289,
				"y": -1.9799833307,
				"z": 1.0539769931,
				"element": "N" 
			},
			{
				"x": -3.0952825511,
				"y": -0.6653612681,
				"z": 1.1549343009,
				"element": "C" 
			},
			{
				"x": -4.2808737125,
				"y": -0.0725979125,
				"z": 1.1483784326,
				"element": "N" 
			},
			{
				"x": -4.0627352981,
				"y": 1.2700232237,
				"z": 1.276337694,
				"element": "N" 
			},
			{
				"x": -2.7688493997,
				"y": 1.4959989788,
				"z": 1.3599314952,
				"element": "C" 
			},
			{
				"x": -2.082201263,
				"y": 0.3087956428,
				"z": 1.2900113834,
				"element": "N" 
			},
			{
				"x": -0.7510707272,
				"y": -0.0405659948,
				"z": 1.3251663578,
				"element": "C" 
			},
			{
				"x": 0.2611221961,
				"y": 1.0515294036,
				"z": 1.4704451021,
				"element": "C" 
			},
			{
				"x": -0.4804115582,
				"y": -1.3772325264,
				"z": 1.2217904596,
				"element": "C" 
			},
			{
				"x": -1.6347926178,
				"y": -4.1999964391,
				"z": 0.0342013576,
				"element": "H" 
			},
			{
				"x": -0.1607511511,
				"y": -3.9997570761,
				"z": 1.0076529358,
				"element": "H" 
			},
			{
				"x": -1.7199949437,
				"y": -4.3528146403,
				"z": 1.7852098944,
				"element": "H" 
			},
			{
				"x": -2.3008490752,
				"y": 2.462448479,
				"z": 1.4674771485,
				"element": "H" 
			},
			{
				"x": 0.1019657349,
				"y": 1.611624077,
				"z": 2.3994886752,
				"element": "H" 
			},
			{
				"x": 1.2707253707,
				"y": 0.638078113,
				"z": 1.4840514993,
				"element": "H" 
			},
			{
				"x": 0.1885692498,
				"y": 1.7652247035,
				"z": 0.6412671733,
				"element": "H" 
			},
			{
				"x": 0.5498129181,
				"y": -1.7125165143,
				"z": 1.2433390245,
				"element": "H" 
			}
		],
		 "valence_orbital": [ 
			{
				"type": "occ",
				"energy": -0.31211,
				"method": "rhf"
			},
			{
				"type": "occ",
				"energy": -0.28188,
				"method": "rhf"
			},
			{
				"type": "occ",
				"energy": -0.27696,
				"method": "rhf"
			},
			{
				"type": "occ",
				"energy": -0.24711,
				"method": "rhf"
			},
			{
				"type": "occ",
				"energy": -0.23373,
				"method": "rhf"
			},
			{
				"type": "unocc",
				"energy": -0.06315,
				"method": "rhf"
			},
			{
				"type": "unocc",
				"energy": -0.00989,
				"method": "rhf"
			},
			{
				"type": "unocc",
				"energy": 0.04944,
				"method": "rhf"
			},
			{
				"type": "unocc",
				"energy": 0.074,
				"method": "rhf"
			},
			{
				"type": "unocc",
				"energy": 0.08789,
				"method": "rhf"
			}
		],
		"cosmo_sigma_profile": { 
			"-0.025": 0.0,
			"-0.024": 0.0,
			"-0.023": 0.0,
			"-0.022": 0.0,
			"-0.021": 0.0,
			"-0.02": 0.0,
			"-0.019": 0.0,
			"-0.018": 0.0,
			"-0.017": 0.0,
			"-0.016": 0.0,
			"-0.015": 0.0,
			"-0.014": 0.0,
			"-0.013": 0.0,
			"-0.012": 0.0,
			"-0.011": 0.357033111334,
			"-0.01": 1.84356121973,
			"-0.009": 2.66706029285,
			"-0.008": 7.40127009877,
			"-0.007": 11.5187462708,
			"-0.006": 11.1743230245,
			"-0.005": 13.2426788625,
			"-0.004": 18.1456978902,
			"-0.003": 18.3799918164,
			"-0.002": 19.8118250104,
			"-0.001": 16.2818068654,
			"0.0": 7.3022123171,
			"0.001": 5.18784350214,
			"0.002": 3.37598228017,
			"0.003": 2.97175701907,
			"0.004": 2.693303048,
			"0.005": 2.67028149583,
			"0.006": 2.36933081596,
			"0.007": 2.49349780353,
			"0.008": 3.34097429439,
			"0.009": 2.7005781087,
			"0.01": 3.18528267321,
			"0.011": 3.60815494987,
			"0.012": 4.11514289566,
			"0.013": 5.03750392147,
			"0.014": 5.0206878363,
			"0.015": 3.56973788877,
			"0.016": 2.69096059382,
			"0.017": 1.07893550593,
			"0.018": 0.0304723532273,
			"0.019": 0.0,
			"0.02": 0.0,
			"0.021": 0.0,
			"0.022": 0.0,
			"0.023": 0.0,
			"0.024": 0.0,
			"0.025": 0.0
		}
	}
}
