{
	 "smiles": "[O-][N+](=O)C1=C(Cl)C=CC(=C1)S(=O)(=O)C(F)F", 
	 "Tm": 345.15, 
	 "num_atms": 20, 
	 "gaussian": { 
		 "optdone": 1, 
		 "sigma_profile": "yes", 
		 "theory": "DFT", 
		 "functional": "B3LYP", 
		 "basiset": "6-31G**", 
		 "properties": { 
			 "R2extent": 5965.7152, 
			 "electric_dipole_moment_norm": 3.96783863205, 
			 "electric_quadrupole_moment_norm": 18.4490445609, 
			 "total_energy": -1682.64934214, 
			 "HOMO_LUMO_gap": 0.1873, 
			 "cosmo_polarized_energy": -16.63, 
			 "cosmo_cavitation_energy": 30.27, 
			 "cosmo_dispersion_energy": -21.8, 
			 "cosmo_repulsion_energy": 1.62, 
			 "cosmo_total_nonelectrostatic_energy": 10.09, 
			 "SMD_solvation_energy": 7.43 
		},
		"coords": [
			{
				"x": -0.2366922238,
				"y": -4.5601253178,
				"z": -2.0038467882,
				"element": "O" 
			},
			{
				"x": -0.9697088675,
				"y": -3.6640661875,
				"z": -1.6048147801,
				"element": "N" 
			},
			{
				"x": -2.1831769638,
				"y": -3.5927558301,
				"z": -1.7908081746,
				"element": "O" 
			},
			{
				"x": -0.3681177306,
				"y": -2.5832581114,
				"z": -0.7977485572,
				"element": "C" 
			},
			{
				"x": 0.9404045895,
				"y": -2.1119808868,
				"z": -0.9937650985,
				"element": "C" 
			},
			{
				"x": 1.9806577826,
				"y": -2.6761737923,
				"z": -2.2624432366,
				"element": "Cl" 
			},
			{
				"x": 1.4292913319,
				"y": -1.0977944716,
				"z": -0.1593015089,
				"element": "C" 
			},
			{
				"x": 0.6393791328,
				"y": -0.5682546264,
				"z": 0.8540393869,
				"element": "C" 
			},
			{
				"x": -0.6642678651,
				"y": -1.0440060162,
				"z": 1.0202728625,
				"element": "C" 
			},
			{
				"x": -1.1775443125,
				"y": -2.0409328938,
				"z": 0.1998927991,
				"element": "C" 
			},
			{
				"x": -1.6992702917,
				"y": -0.372709194,
				"z": 2.327337569,
				"element": "S" 
			},
			{
				"x": -2.8157283018,
				"y": -1.2983873644,
				"z": 2.5501035012,
				"element": "O" 
			},
			{
				"x": -0.8252590855,
				"y": 0.0972151463,
				"z": 3.4051307018,
				"element": "O" 
			},
			{
				"x": -2.4408101591,
				"y": 1.1378795916,
				"z": 1.5069302566,
				"element": "C" 
			},
			{
				"x": -1.4326678284,
				"y": 1.8755295572,
				"z": 0.9933699144,
				"element": "F" 
			},
			{
				"x": -3.0695968979,
				"y": 1.8332797347,
				"z": 2.4663272735,
				"element": "F" 
			},
			{
				"x": 2.4379616818,
				"y": -0.7340304804,
				"z": -0.3175670309,
				"element": "H" 
			},
			{
				"x": 1.0279780309,
				"y": 0.1979969946,
				"z": 1.5154858078,
				"element": "H" 
			},
			{
				"x": -2.1846297887,
				"y": -2.4178218193,
				"z": 0.3338942167,
				"element": "H" 
			},
			{
				"x": -3.1396022331,
				"y": 0.8310959679,
				"z": 0.7211108855,
				"element": "H" 
			}
		],
		 "valence_orbital": [ 
			{
				"type": "occ",
				"energy": -0.33079,
				"method": "rhf"
			},
			{
				"type": "occ",
				"energy": -0.32285,
				"method": "rhf"
			},
			{
				"type": "occ",
				"energy": -0.31338,
				"method": "rhf"
			},
			{
				"type": "occ",
				"energy": -0.3046,
				"method": "rhf"
			},
			{
				"type": "occ",
				"energy": -0.30028,
				"method": "rhf"
			},
			{
				"type": "unocc",
				"energy": -0.11298,
				"method": "rhf"
			},
			{
				"type": "unocc",
				"energy": -0.08243,
				"method": "rhf"
			},
			{
				"type": "unocc",
				"energy": -0.0465,
				"method": "rhf"
			},
			{
				"type": "unocc",
				"energy": -0.01054,
				"method": "rhf"
			},
			{
				"type": "unocc",
				"energy": 0.0256,
				"method": "rhf"
			}
		],
		"cosmo_sigma_profile": { 
			"-0.025": 0.0,
			"-0.024": 0.0,
			"-0.023": 0.0,
			"-0.022": 0.0,
			"-0.021": 0.0,
			"-0.02": 0.0,
			"-0.019": 0.0,
			"-0.018": 0.0,
			"-0.017": 0.0,
			"-0.016": 0.0,
			"-0.015": 0.0056623980678,
			"-0.014": 0.545827197588,
			"-0.013": 2.58006113906,
			"-0.012": 3.16093541153,
			"-0.011": 1.72215165872,
			"-0.01": 3.66249217369,
			"-0.009": 7.97172077148,
			"-0.008": 7.27511397316,
			"-0.007": 6.13403378699,
			"-0.006": 7.85554273612,
			"-0.005": 9.25180091315,
			"-0.004": 13.6936043993,
			"-0.003": 19.5997286816,
			"-0.002": 15.6589681583,
			"-0.001": 15.0490907846,
			"0.0": 13.5810007691,
			"0.001": 19.1485447164,
			"0.002": 26.2563787633,
			"0.003": 9.13604392822,
			"0.004": 6.88274468438,
			"0.005": 7.19665362313,
			"0.006": 9.68631247755,
			"0.007": 12.8136676469,
			"0.008": 8.68846272223,
			"0.009": 10.6131268696,
			"0.01": 7.33242692495,
			"0.011": 0.875762065709,
			"0.012": 0.0,
			"0.013": 0.0,
			"0.014": 0.0,
			"0.015": 0.0,
			"0.016": 0.0,
			"0.017": 0.0,
			"0.018": 0.0,
			"0.019": 0.0,
			"0.02": 0.0,
			"0.021": 0.0,
			"0.022": 0.0,
			"0.023": 0.0,
			"0.024": 0.0,
			"0.025": 0.0
		}
	}
}
