{
	 "smiles": "NCCC1=CC=C(C=C1)S(N)(=O)=O", 
	 "Tm": 424.15, 
	 "num_atms": 25, 
	 "gaussian": { 
		 "optdone": 1, 
		 "sigma_profile": "yes", 
		 "theory": "DFT", 
		 "functional": "B3LYP", 
		 "basiset": "6-31G**", 
		 "properties": { 
			 "R2extent": 3776.0598, 
			 "electric_dipole_moment_norm": 7.78526124803, 
			 "electric_quadrupole_moment_norm": 18.1648223396, 
			 "total_energy": -970.151870397, 
			 "HOMO_LUMO_gap": 0.21357, 
			 "cosmo_polarized_energy": -21.05, 
			 "cosmo_cavitation_energy": 29.76, 
			 "cosmo_dispersion_energy": -22.22, 
			 "cosmo_repulsion_energy": 1.75, 
			 "cosmo_total_nonelectrostatic_energy": 9.29, 
			 "SMD_solvation_energy": 4.03 
		},
		"coords": [
			{
				"x": 0.3669010376,
				"y": -0.2610055015,
				"z": 4.5570632819,
				"element": "N" 
			},
			{
				"x": 0.2409838142,
				"y": 1.1042007115,
				"z": 4.0375309053,
				"element": "C" 
			},
			{
				"x": 1.0911186611,
				"y": 1.3014897275,
				"z": 2.7647159365,
				"element": "C" 
			},
			{
				"x": 0.5410875051,
				"y": 0.6316953261,
				"z": 1.5227153905,
				"element": "C" 
			},
			{
				"x": 0.1152077557,
				"y": 1.4080082204,
				"z": 0.4351081407,
				"element": "C" 
			},
			{
				"x": -0.4026163999,
				"y": 0.8194459892,
				"z": -0.7181179608,
				"element": "C" 
			},
			{
				"x": -0.4951567956,
				"y": -0.5712057011,
				"z": -0.7850922572,
				"element": "C" 
			},
			{
				"x": -0.0922142056,
				"y": -1.3687127074,
				"z": 0.2895955116,
				"element": "C" 
			},
			{
				"x": 0.4265536968,
				"y": -0.766170103,
				"z": 1.4333868656,
				"element": "C" 
			},
			{
				"x": -1.1235367028,
				"y": -1.3451499752,
				"z": -2.2793432815,
				"element": "S" 
			},
			{
				"x": 0.2096878976,
				"y": -1.6528783468,
				"z": -3.2649037394,
				"element": "N" 
			},
			{
				"x": -1.9147542801,
				"y": -0.3455798596,
				"z": -2.9958843749,
				"element": "O" 
			},
			{
				"x": -1.6466823355,
				"y": -2.6601413615,
				"z": -1.9117689063,
				"element": "O" 
			},
			{
				"x": 1.2643131623,
				"y": -0.3732032621,
				"z": 5.023343893,
				"element": "H" 
			},
			{
				"x": -0.3474524193,
				"y": -0.44126706,
				"z": 5.2569219589,
				"element": "H" 
			},
			{
				"x": -0.8127504764,
				"y": 1.2789642083,
				"z": 3.7935008967,
				"element": "H" 
			},
			{
				"x": 0.5298535679,
				"y": 1.8812127103,
				"z": 4.7659533113,
				"element": "H" 
			},
			{
				"x": 2.106484119,
				"y": 0.9345558787,
				"z": 2.9698654818,
				"element": "H" 
			},
			{
				"x": 1.1867631453,
				"y": 2.3769470355,
				"z": 2.5775719127,
				"element": "H" 
			},
			{
				"x": 0.1835278534,
				"y": 2.4914495349,
				"z": 0.4925277417,
				"element": "H" 
			},
			{
				"x": -0.7519034564,
				"y": 1.4251523892,
				"z": -1.5476375706,
				"element": "H" 
			},
			{
				"x": -0.2073714464,
				"y": -2.4462397465,
				"z": 0.2330686109,
				"element": "H" 
			},
			{
				"x": 0.7151454645,
				"y": -1.371283817,
				"z": 2.2854221277,
				"element": "H" 
			},
			{
				"x": 0.8491319076,
				"y": -2.3244815115,
				"z": -2.8511438545,
				"element": "H" 
			},
			{
				"x": 0.6757789297,
				"y": -0.8010027785,
				"z": -3.5619000216,
				"element": "H" 
			}
		],
		 "valence_orbital": [ 
			{
				"type": "occ",
				"energy": -0.29615,
				"method": "rhf"
			},
			{
				"type": "occ",
				"energy": -0.29471,
				"method": "rhf"
			},
			{
				"type": "occ",
				"energy": -0.26476,
				"method": "rhf"
			},
			{
				"type": "occ",
				"energy": -0.25575,
				"method": "rhf"
			},
			{
				"type": "occ",
				"energy": -0.24551,
				"method": "rhf"
			},
			{
				"type": "unocc",
				"energy": -0.03194,
				"method": "rhf"
			},
			{
				"type": "unocc",
				"energy": -0.01506,
				"method": "rhf"
			},
			{
				"type": "unocc",
				"energy": 0.05745,
				"method": "rhf"
			},
			{
				"type": "unocc",
				"energy": 0.06847,
				"method": "rhf"
			},
			{
				"type": "unocc",
				"energy": 0.08632,
				"method": "rhf"
			}
		],
		"cosmo_sigma_profile": { 
			"-0.025": 0.0,
			"-0.024": 0.0,
			"-0.023": 0.0,
			"-0.022": 0.0,
			"-0.021": 0.0,
			"-0.02": 0.0,
			"-0.019": 0.0,
			"-0.018": 0.0,
			"-0.017": 0.0,
			"-0.016": 0.0248192318391,
			"-0.015": 1.71926349922,
			"-0.014": 3.21183221656,
			"-0.013": 1.81127287867,
			"-0.012": 2.78151711036,
			"-0.011": 2.78520132814,
			"-0.01": 4.13698605214,
			"-0.009": 4.55871409831,
			"-0.008": 4.6954430892,
			"-0.007": 6.11640465418,
			"-0.006": 9.94998617701,
			"-0.005": 12.7320264211,
			"-0.004": 14.5258962806,
			"-0.003": 16.1176483649,
			"-0.002": 19.0442268364,
			"-0.001": 19.1075587298,
			"0.0": 12.3792677591,
			"0.001": 9.2107319943,
			"0.002": 10.9693026065,
			"0.003": 12.9538752483,
			"0.004": 11.3531874422,
			"0.005": 5.09469309089,
			"0.006": 5.07145196386,
			"0.007": 4.841255946,
			"0.008": 6.0255333458,
			"0.009": 5.23431878254,
			"0.01": 7.45607059985,
			"0.011": 11.4753664043,
			"0.012": 8.13776761203,
			"0.013": 0.761382908088,
			"0.014": 0.0,
			"0.015": 0.0,
			"0.016": 0.0,
			"0.017": 0.0,
			"0.018": 0.0,
			"0.019": 0.0,
			"0.02": 0.0,
			"0.021": 0.0,
			"0.022": 0.0,
			"0.023": 0.0,
			"0.024": 0.0,
			"0.025": 0.0
		}
	}
}
