{
	 "smiles": "CCS(=O)(=O)C1=CC=C(F)C=C1", 
	 "Tm": 314.15, 
	 "num_atms": 21, 
	 "gaussian": { 
		 "optdone": 1, 
		 "sigma_profile": "yes", 
		 "theory": "DFT", 
		 "functional": "B3LYP", 
		 "basiset": "6-31G**", 
		 "properties": { 
			 "R2extent": 3201.1835, 
			 "electric_dipole_moment_norm": 4.34807121722, 
			 "electric_quadrupole_moment_norm": 18.3511568848, 
			 "total_energy": -958.685807178, 
			 "HOMO_LUMO_gap": 0.23056, 
			 "cosmo_polarized_energy": -13.49, 
			 "cosmo_cavitation_energy": 26.49, 
			 "cosmo_dispersion_energy": -19.37, 
			 "cosmo_repulsion_energy": 1.47, 
			 "cosmo_total_nonelectrostatic_energy": 8.6, 
			 "SMD_solvation_energy": 4.47 
		},
		"coords": [
			{
				"x": -0.1128482408,
				"y": -1.1472133784,
				"z": 3.0432577508,
				"element": "C" 
			},
			{
				"x": 0.8879413267,
				"y": -0.0101850489,
				"z": 3.2108450763,
				"element": "C" 
			},
			{
				"x": 1.7166735426,
				"y": 0.4790020078,
				"z": 1.6618705782,
				"element": "S" 
			},
			{
				"x": 2.1519562783,
				"y": -0.7504049684,
				"z": 0.9765912206,
				"element": "O" 
			},
			{
				"x": 2.6742616424,
				"y": 1.5408417402,
				"z": 2.0130928989,
				"element": "O" 
			},
			{
				"x": 0.4184871282,
				"y": 1.2251477257,
				"z": 0.663471511,
				"element": "C" 
			},
			{
				"x": -0.2521553726,
				"y": 0.4474998591,
				"z": -0.284133986,
				"element": "C" 
			},
			{
				"x": -1.2526699224,
				"y": 1.027095002,
				"z": -1.0625075332,
				"element": "C" 
			},
			{
				"x": -1.5509555544,
				"y": 2.3731829568,
				"z": -0.8712396211,
				"element": "C" 
			},
			{
				"x": -2.5162388772,
				"y": 2.934923809,
				"z": -1.6198922685,
				"element": "F" 
			},
			{
				"x": -0.8813288397,
				"y": 3.1633280828,
				"z": 0.0600188088,
				"element": "C" 
			},
			{
				"x": 0.1189426334,
				"y": 2.5799434059,
				"z": 0.8341118085,
				"element": "C" 
			},
			{
				"x": -0.9493130451,
				"y": -0.8555559326,
				"z": 2.4015830001,
				"element": "H" 
			},
			{
				"x": 0.3709397982,
				"y": -2.0243568695,
				"z": 2.6075237147,
				"element": "H" 
			},
			{
				"x": -0.5201895552,
				"y": -1.4246684618,
				"z": 4.0201005045,
				"element": "H" 
			},
			{
				"x": 0.4384852334,
				"y": 0.9011298365,
				"z": 3.6152690574,
				"element": "H" 
			},
			{
				"x": 1.7256240071,
				"y": -0.290998325,
				"z": 3.8573357259,
				"element": "H" 
			},
			{
				"x": 0.0276915098,
				"y": -0.5915005091,
				"z": -0.4192830843,
				"element": "H" 
			},
			{
				"x": -1.7925007792,
				"y": 0.4598497802,
				"z": -1.8125991018,
				"element": "H" 
			},
			{
				"x": -1.1400150614,
				"y": 4.2118605484,
				"z": 0.1573672247,
				"element": "H" 
			},
			{
				"x": 0.6821121478,
				"y": 3.1714787394,
				"z": 1.5481167145,
				"element": "H" 
			}
		],
		 "valence_orbital": [ 
			{
				"type": "occ",
				"energy": -0.31249,
				"method": "rhf"
			},
			{
				"type": "occ",
				"energy": -0.29679,
				"method": "rhf"
			},
			{
				"type": "occ",
				"energy": -0.28577,
				"method": "rhf"
			},
			{
				"type": "occ",
				"energy": -0.28395,
				"method": "rhf"
			},
			{
				"type": "occ",
				"energy": -0.27075,
				"method": "rhf"
			},
			{
				"type": "unocc",
				"energy": -0.04019,
				"method": "rhf"
			},
			{
				"type": "unocc",
				"energy": -0.03444,
				"method": "rhf"
			},
			{
				"type": "unocc",
				"energy": 0.05812,
				"method": "rhf"
			},
			{
				"type": "unocc",
				"energy": 0.07762,
				"method": "rhf"
			},
			{
				"type": "unocc",
				"energy": 0.08408,
				"method": "rhf"
			}
		],
		"cosmo_sigma_profile": { 
			"-0.025": 0.0,
			"-0.024": 0.0,
			"-0.023": 0.0,
			"-0.022": 0.0,
			"-0.021": 0.0,
			"-0.02": 0.0,
			"-0.019": 0.0,
			"-0.018": 0.0,
			"-0.017": 0.0,
			"-0.016": 0.0,
			"-0.015": 0.0,
			"-0.014": 0.0,
			"-0.013": 0.0,
			"-0.012": 0.0,
			"-0.011": 0.0,
			"-0.01": 0.0,
			"-0.009": 0.646660692962,
			"-0.008": 8.3339365503,
			"-0.007": 11.6818632537,
			"-0.006": 11.910289985,
			"-0.005": 11.8393458332,
			"-0.004": 16.4865498801,
			"-0.003": 16.4210389575,
			"-0.002": 14.8923902781,
			"-0.001": 20.1925959485,
			"0.0": 16.0370866319,
			"0.001": 16.3644173212,
			"0.002": 12.1206840628,
			"0.003": 9.77491410132,
			"0.004": 9.53944644085,
			"0.005": 2.35036326148,
			"0.006": 1.9169069528,
			"0.007": 2.04609878648,
			"0.008": 3.10802179558,
			"0.009": 3.8792364076,
			"0.01": 3.79154507848,
			"0.011": 8.2600732051,
			"0.012": 8.29232331742,
			"0.013": 1.29707785268,
			"0.014": 0.0,
			"0.015": 0.0,
			"0.016": 0.0,
			"0.017": 0.0,
			"0.018": 0.0,
			"0.019": 0.0,
			"0.02": 0.0,
			"0.021": 0.0,
			"0.022": 0.0,
			"0.023": 0.0,
			"0.024": 0.0,
			"0.025": 0.0
		}
	}
}
