{
	 "smiles": "CCCCCCCCCCCCCCCCCCOP1OCC2(CO1)COP(OCCCCCCCCCCCCCCCCCC)OC2", 
	 "Tm": 314.65, 
	 "num_atms": 131, 
	 "gaussian": { 
		 "optdone": 1, 
		 "sigma_profile": "yes", 
		 "theory": "DFT", 
		 "functional": "B3LYP", 
		 "basiset": "6-31G**", 
		 "properties": { 
			 "R2extent": 80550.33, 
			 "electric_dipole_moment_norm": 2.93516624401, 
			 "electric_quadrupole_moment_norm": 11.7530819996, 
			 "total_energy": -2745.99064512, 
			 "HOMO_LUMO_gap": 0.25878, 
			 "cosmo_polarized_energy": -16.73, 
			 "cosmo_cavitation_energy": 124.94, 
			 "cosmo_dispersion_energy": -80.15, 
			 "cosmo_repulsion_energy": 6.64, 
			 "cosmo_total_nonelectrostatic_energy": 51.42, 
			 "SMD_solvation_energy": 17.15 
		},
		"coords": [
			{
				"x": -2.1321556576,
				"y": 11.2459881962,
				"z": -3.3683567479,
				"element": "C" 
			},
			{
				"x": -3.2056035187,
				"y": 10.1643603542,
				"z": -3.1991675517,
				"element": "C" 
			},
			{
				"x": -2.6922819648,
				"y": 8.8527272534,
				"z": -2.5783945644,
				"element": "C" 
			},
			{
				"x": -1.6260110957,
				"y": 8.0963782945,
				"z": -3.3907167921,
				"element": "C" 
			},
			{
				"x": -2.1119583287,
				"y": 7.5939138562,
				"z": -4.7589704101,
				"element": "C" 
			},
			{
				"x": -1.1083285102,
				"y": 6.6933996599,
				"z": -5.4994044728,
				"element": "C" 
			},
			{
				"x": 0.1808095771,
				"y": 7.4047976307,
				"z": -5.9381530243,
				"element": "C" 
			},
			{
				"x": 1.1060265363,
				"y": 6.5505604635,
				"z": -6.8236893425,
				"element": "C" 
			},
			{
				"x": 1.6848144213,
				"y": 5.2800960236,
				"z": -6.1738737534,
				"element": "C" 
			},
			{
				"x": 2.6103175512,
				"y": 5.5444359601,
				"z": -4.9766593866,
				"element": "C" 
			},
			{
				"x": 3.2042712093,
				"y": 4.2772766642,
				"z": -4.3368203134,
				"element": "C" 
			},
			{
				"x": 4.1901904563,
				"y": 3.511637957,
				"z": -5.2332061685,
				"element": "C" 
			},
			{
				"x": 4.9019360211,
				"y": 2.3370571996,
				"z": -4.5411944081,
				"element": "C" 
			},
			{
				"x": 3.982588741,
				"y": 1.1749069626,
				"z": -4.1375664327,
				"element": "C" 
			},
			{
				"x": 4.7500220301,
				"y": -0.0132730488,
				"z": -3.5406085584,
				"element": "C" 
			},
			{
				"x": 3.8783659154,
				"y": -1.2361259618,
				"z": -3.1992438722,
				"element": "C" 
			},
			{
				"x": 2.8162168288,
				"y": -1.0275648598,
				"z": -2.1056903928,
				"element": "C" 
			},
			{
				"x": 3.4076658367,
				"y": -0.7269658183,
				"z": -0.7333629136,
				"element": "C" 
			},
			{
				"x": 2.3467963959,
				"y": -0.7173589785,
				"z": 0.2435468905,
				"element": "O" 
			},
			{
				"x": 2.2679244688,
				"y": 0.4912725418,
				"z": 1.3381417663,
				"element": "P" 
			},
			{
				"x": 0.5992721667,
				"y": 0.5832847595,
				"z": 1.3808580978,
				"element": "O" 
			},
			{
				"x": 0.0478098826,
				"y": 1.1069415815,
				"z": 2.5937368883,
				"element": "C" 
			},
			{
				"x": 0.3911217461,
				"y": 0.2269692385,
				"z": 3.8117949343,
				"element": "C" 
			},
			{
				"x": 1.926484477,
				"y": 0.1203636162,
				"z": 3.9181191558,
				"element": "C" 
			},
			{
				"x": 2.4987186566,
				"y": -0.4195592231,
				"z": 2.7198411002,
				"element": "O" 
			},
			{
				"x": -0.2444556662,
				"y": -1.1710747212,
				"z": 3.6380761933,
				"element": "C" 
			},
			{
				"x": -0.0836568255,
				"y": -1.9870380356,
				"z": 4.8105912614,
				"element": "O" 
			},
			{
				"x": -0.8358241995,
				"y": -1.3811470284,
				"z": 6.1841101081,
				"element": "P" 
			},
			{
				"x": -0.0497514923,
				"y": -2.2055461474,
				"z": 7.3312870527,
				"element": "O" 
			},
			{
				"x": 1.3935154221,
				"y": -2.3452655253,
				"z": 7.4146306412,
				"element": "C" 
			},
			{
				"x": 1.7281166733,
				"y": -3.7645680196,
				"z": 7.8523472829,
				"element": "C" 
			},
			{
				"x": 1.2909127011,
				"y": -4.8305808425,
				"z": 6.8405028218,
				"element": "C" 
			},
			{
				"x": 1.6985385944,
				"y": -6.2529978045,
				"z": 7.2455275267,
				"element": "C" 
			},
			{
				"x": 1.1316770747,
				"y": -7.3839976182,
				"z": 6.3673032234,
				"element": "C" 
			},
			{
				"x": 1.5734535208,
				"y": -7.3730277962,
				"z": 4.885846096,
				"element": "C" 
			},
			{
				"x": 0.6839913077,
				"y": -6.5685387636,
				"z": 3.9166968234,
				"element": "C" 
			},
			{
				"x": -0.6770847574,
				"y": -7.2217449641,
				"z": 3.6299368831,
				"element": "C" 
			},
			{
				"x": -1.5853369926,
				"y": -6.4085326677,
				"z": 2.6900973505,
				"element": "C" 
			},
			{
				"x": -2.1659310214,
				"y": -5.1321827373,
				"z": 3.3200246507,
				"element": "C" 
			},
			{
				"x": -3.0337821668,
				"y": -4.2881208557,
				"z": 2.370837456,
				"element": "C" 
			},
			{
				"x": -4.3417281413,
				"y": -4.9542899446,
				"z": 1.9188806497,
				"element": "C" 
			},
			{
				"x": -5.2066599994,
				"y": -4.0380656263,
				"z": 1.0416455954,
				"element": "C" 
			},
			{
				"x": -6.5721932412,
				"y": -4.6271781469,
				"z": 0.6447270818,
				"element": "C" 
			},
			{
				"x": -6.5341365782,
				"y": -5.8986168392,
				"z": -0.2223868694,
				"element": "C" 
			},
			{
				"x": -5.8897568589,
				"y": -5.7040557758,
				"z": -1.6031467229,
				"element": "C" 
			},
			{
				"x": -5.9958759622,
				"y": -6.9256658219,
				"z": -2.5316276875,
				"element": "C" 
			},
			{
				"x": -5.2164755514,
				"y": -8.1566110126,
				"z": -2.0529917702,
				"element": "C" 
			},
			{
				"x": 0.0025236075,
				"y": 0.0798422681,
				"z": 6.2430893013,
				"element": "O" 
			},
			{
				"x": -0.1810964804,
				"y": 0.8928153719,
				"z": 5.0793096383,
				"element": "C" 
			},
			{
				"x": -1.6478883556,
				"y": 11.4750042375,
				"z": -2.4116532193,
				"element": "H" 
			},
			{
				"x": -2.5662296574,
				"y": 12.1756572725,
				"z": -3.7510754062,
				"element": "H" 
			},
			{
				"x": -1.3485426329,
				"y": 10.9389795239,
				"z": -4.0689372404,
				"element": "H" 
			},
			{
				"x": -4.007492298,
				"y": 10.5555115722,
				"z": -2.5598252019,
				"element": "H" 
			},
			{
				"x": -3.673341627,
				"y": 9.9589910712,
				"z": -4.1704538695,
				"element": "H" 
			},
			{
				"x": -2.283522795,
				"y": 9.0739587657,
				"z": -1.5826241974,
				"element": "H" 
			},
			{
				"x": -3.548112203,
				"y": 8.1836958207,
				"z": -2.4127780147,
				"element": "H" 
			},
			{
				"x": -1.2907446454,
				"y": 7.2326988743,
				"z": -2.799439694,
				"element": "H" 
			},
			{
				"x": -0.7409917706,
				"y": 8.7318437289,
				"z": -3.5177015938,
				"element": "H" 
			},
			{
				"x": -3.0470644532,
				"y": 7.0348739573,
				"z": -4.6145733836,
				"element": "H" 
			},
			{
				"x": -2.3660964636,
				"y": 8.4469860599,
				"z": -5.4027053642,
				"element": "H" 
			},
			{
				"x": -1.5988223858,
				"y": 6.2768781958,
				"z": -6.3903251525,
				"element": "H" 
			},
			{
				"x": -0.8632163147,
				"y": 5.8344528911,
				"z": -4.8600038696,
				"element": "H" 
			},
			{
				"x": 0.7325757238,
				"y": 7.7566670874,
				"z": -5.0579918845,
				"element": "H" 
			},
			{
				"x": -0.0922507165,
				"y": 8.3092764719,
				"z": -6.4996735456,
				"element": "H" 
			},
			{
				"x": 0.5532941572,
				"y": 6.2595605561,
				"z": -7.7276279386,
				"element": "H" 
			},
			{
				"x": 1.9394354709,
				"y": 7.1779827815,
				"z": -7.1687918309,
				"element": "H" 
			},
			{
				"x": 0.8687131024,
				"y": 4.6159166957,
				"z": -5.8580260288,
				"element": "H" 
			},
			{
				"x": 2.2358600851,
				"y": 4.7285153105,
				"z": -6.9455972292,
				"element": "H" 
			},
			{
				"x": 3.4286767249,
				"y": 6.2082687685,
				"z": -5.292378686,
				"element": "H" 
			},
			{
				"x": 2.0572658268,
				"y": 6.0933300464,
				"z": -4.204165773,
				"element": "H" 
			},
			{
				"x": 3.7239412684,
				"y": 4.5615046457,
				"z": -3.4110694708,
				"element": "H" 
			},
			{
				"x": 2.3828372873,
				"y": 3.6153140227,
				"z": -4.0314373273,
				"element": "H" 
			},
			{
				"x": 3.67297499,
				"y": 3.1363134826,
				"z": -6.1261309853,
				"element": "H" 
			},
			{
				"x": 4.9504973609,
				"y": 4.216553875,
				"z": -5.5973819742,
				"element": "H" 
			},
			{
				"x": 5.679913124,
				"y": 1.9513779579,
				"z": -5.214261393,
				"element": "H" 
			},
			{
				"x": 5.429992968,
				"y": 2.7073130622,
				"z": -3.6504126021,
				"element": "H" 
			},
			{
				"x": 3.2323124835,
				"y": 1.5307008516,
				"z": -3.4209510757,
				"element": "H" 
			},
			{
				"x": 3.4222272534,
				"y": 0.8339116529,
				"z": -5.0205892399,
				"element": "H" 
			},
			{
				"x": 5.299945466,
				"y": 0.3203171784,
				"z": -2.6496346772,
				"element": "H" 
			},
			{
				"x": 5.5188114016,
				"y": -0.3313968729,
				"z": -4.2575947812,
				"element": "H" 
			},
			{
				"x": 4.5339833185,
				"y": -2.0654498354,
				"z": -2.9003399606,
				"element": "H" 
			},
			{
				"x": 3.3693779815,
				"y": -1.5709105127,
				"z": -4.1122962618,
				"element": "H" 
			},
			{
				"x": 2.1260167798,
				"y": -0.2208570964,
				"z": -2.3782687921,
				"element": "H" 
			},
			{
				"x": 2.208184639,
				"y": -1.9350931006,
				"z": -2.0151676214,
				"element": "H" 
			},
			{
				"x": 4.1236453164,
				"y": -1.5055226138,
				"z": -0.4425038022,
				"element": "H" 
			},
			{
				"x": 3.9367353955,
				"y": 0.2344852357,
				"z": -0.7245478288,
				"element": "H" 
			},
			{
				"x": -1.0349743742,
				"y": 1.1609876299,
				"z": 2.4396376761,
				"element": "H" 
			},
			{
				"x": 0.4080935375,
				"y": 2.133958509,
				"z": 2.77032021,
				"element": "H" 
			},
			{
				"x": 2.2141835652,
				"y": -0.5466125854,
				"z": 4.7313365572,
				"element": "H" 
			},
			{
				"x": 2.3473501286,
				"y": 1.1159198517,
				"z": 4.1332414072,
				"element": "H" 
			},
			{
				"x": 0.230303358,
				"y": -1.7051553418,
				"z": 2.8147412028,
				"element": "H" 
			},
			{
				"x": -1.3138724456,
				"y": -1.0582548509,
				"z": 3.4008028068,
				"element": "H" 
			},
			{
				"x": 1.7518430039,
				"y": -1.6074780739,
				"z": 8.1393141945,
				"element": "H" 
			},
			{
				"x": 1.8379816381,
				"y": -2.1281352109,
				"z": 6.4396915789,
				"element": "H" 
			},
			{
				"x": 1.2648357963,
				"y": -3.9571614172,
				"z": 8.8284963757,
				"element": "H" 
			},
			{
				"x": 2.8154463714,
				"y": -3.81312882,
				"z": 8.0066329703,
				"element": "H" 
			},
			{
				"x": 0.20222152,
				"y": -4.7776152934,
				"z": 6.7219349212,
				"element": "H" 
			},
			{
				"x": 1.7186658514,
				"y": -4.581389238,
				"z": 5.8616629267,
				"element": "H" 
			},
			{
				"x": 2.796142059,
				"y": -6.3244406953,
				"z": 7.255738973,
				"element": "H" 
			},
			{
				"x": 1.3767580724,
				"y": -6.4305524634,
				"z": 8.2814744576,
				"element": "H" 
			},
			{
				"x": 1.4412918354,
				"y": -8.3352979628,
				"z": 6.8181644618,
				"element": "H" 
			},
			{
				"x": 0.0353504835,
				"y": -7.3719390636,
				"z": 6.42961701,
				"element": "H" 
			},
			{
				"x": 1.6179811601,
				"y": -8.4083214711,
				"z": 4.5211913965,
				"element": "H" 
			},
			{
				"x": 2.6038012319,
				"y": -6.9957363012,
				"z": 4.8281142345,
				"element": "H" 
			},
			{
				"x": 0.5365454662,
				"y": -5.5536018007,
				"z": 4.2988413826,
				"element": "H" 
			},
			{
				"x": 1.2182830809,
				"y": -6.4563061035,
				"z": 2.9630073328,
				"element": "H" 
			},
			{
				"x": -1.2148088494,
				"y": -7.4037071851,
				"z": 4.570696151,
				"element": "H" 
			},
			{
				"x": -0.5007040262,
				"y": -8.212510927,
				"z": 3.1886100975,
				"element": "H" 
			},
			{
				"x": -2.4076823076,
				"y": -7.0540445895,
				"z": 2.3574008835,
				"element": "H" 
			},
			{
				"x": -1.0228875216,
				"y": -6.1423075857,
				"z": 1.7828649043,
				"element": "H" 
			},
			{
				"x": -1.3519947372,
				"y": -4.4995576769,
				"z": 3.6941667414,
				"element": "H" 
			},
			{
				"x": -2.7623054394,
				"y": -5.4093171008,
				"z": 4.2018382218,
				"element": "H" 
			},
			{
				"x": -2.4415833743,
				"y": -4.0156348333,
				"z": 1.485023397,
				"element": "H" 
			},
			{
				"x": -3.279704811,
				"y": -3.3412203276,
				"z": 2.8715286183,
				"element": "H" 
			},
			{
				"x": -4.9184403254,
				"y": -5.2553099153,
				"z": 2.8061015581,
				"element": "H" 
			},
			{
				"x": -4.1158621453,
				"y": -5.8794766017,
				"z": 1.3749554096,
				"element": "H" 
			},
			{
				"x": -5.3826456625,
				"y": -3.0975030946,
				"z": 1.5817293388,
				"element": "H" 
			},
			{
				"x": -4.6425452013,
				"y": -3.7608687168,
				"z": 0.1409480946,
				"element": "H" 
			},
			{
				"x": -7.1444199028,
				"y": -3.8559835081,
				"z": 0.1105109071,
				"element": "H" 
			},
			{
				"x": -7.139530492,
				"y": -4.8441289113,
				"z": 1.5603269266,
				"element": "H" 
			},
			{
				"x": -7.5660864366,
				"y": -6.2494174902,
				"z": -0.3639193341,
				"element": "H" 
			},
			{
				"x": -6.0192612141,
				"y": -6.6998245026,
				"z": 0.3216551371,
				"element": "H" 
			},
			{
				"x": -6.3664091641,
				"y": -4.8444527492,
				"z": -2.0949476732,
				"element": "H" 
			},
			{
				"x": -4.8302715565,
				"y": -5.4375744332,
				"z": -1.4880125619,
				"element": "H" 
			},
			{
				"x": -7.0546920235,
				"y": -7.1909337764,
				"z": -2.6587049655,
				"element": "H" 
			},
			{
				"x": -5.6336260555,
				"y": -6.6417652765,
				"z": -3.5281707239,
				"element": "H" 
			},
			{
				"x": -5.594788421,
				"y": -8.5340571151,
				"z": -1.0975017504,
				"element": "H" 
			},
			{
				"x": -5.2860487392,
				"y": -8.974087152,
				"z": -2.7783852472,
				"element": "H" 
			},
			{
				"x": -4.153828798,
				"y": -7.9221674006,
				"z": -1.9185178983,
				"element": "H" 
			},
			{
				"x": -1.2518618521,
				"y": 1.1076398017,
				"z": 4.9272643054,
				"element": "H" 
			},
			{
				"x": 0.3180591013,
				"y": 1.8466288798,
				"z": 5.281839988,
				"element": "H" 
			}
		],
		 "valence_orbital": [ 
			{
				"type": "occ",
				"energy": -0.28675,
				"method": "rhf"
			},
			{
				"type": "occ",
				"energy": -0.27648,
				"method": "rhf"
			},
			{
				"type": "occ",
				"energy": -0.2739,
				"method": "rhf"
			},
			{
				"type": "occ",
				"energy": -0.24398,
				"method": "rhf"
			},
			{
				"type": "occ",
				"energy": -0.24023,
				"method": "rhf"
			},
			{
				"type": "unocc",
				"energy": 0.01855,
				"method": "rhf"
			},
			{
				"type": "unocc",
				"energy": 0.02574,
				"method": "rhf"
			},
			{
				"type": "unocc",
				"energy": 0.02726,
				"method": "rhf"
			},
			{
				"type": "unocc",
				"energy": 0.03951,
				"method": "rhf"
			},
			{
				"type": "unocc",
				"energy": 0.07205,
				"method": "rhf"
			}
		],
		"cosmo_sigma_profile": { 
			"-0.025": 0.0,
			"-0.024": 0.0,
			"-0.023": 0.0,
			"-0.022": 0.0,
			"-0.021": 0.0,
			"-0.02": 0.0,
			"-0.019": 0.0,
			"-0.018": 0.0,
			"-0.017": 0.0,
			"-0.016": 0.0,
			"-0.015": 0.0,
			"-0.014": 0.0,
			"-0.013": 0.0,
			"-0.012": 0.0,
			"-0.011": 0.0,
			"-0.01": 0.0,
			"-0.009": 0.466810439826,
			"-0.008": 4.25141684278,
			"-0.007": 7.50355870965,
			"-0.006": 13.6227322699,
			"-0.005": 17.0896745787,
			"-0.004": 24.9523826938,
			"-0.003": 39.9908574279,
			"-0.002": 105.421341826,
			"-0.001": 191.982131139,
			"0.0": 211.513961033,
			"0.001": 182.232839568,
			"0.002": 77.5396681919,
			"0.003": 16.1082011396,
			"0.004": 12.1275684291,
			"0.005": 11.6194543518,
			"0.006": 9.7018390941,
			"0.007": 7.30974555587,
			"0.008": 5.69977354345,
			"0.009": 4.57800656987,
			"0.01": 6.08832912472,
			"0.011": 5.95674082361,
			"0.012": 4.74977245677,
			"0.013": 0.917197072253,
			"0.014": 0.0,
			"0.015": 0.0,
			"0.016": 0.0,
			"0.017": 0.0,
			"0.018": 0.0,
			"0.019": 0.0,
			"0.02": 0.0,
			"0.021": 0.0,
			"0.022": 0.0,
			"0.023": 0.0,
			"0.024": 0.0,
			"0.025": 0.0
		}
	}
}
