{
	 "smiles": "CCOC(=O)C1=C(N)SC(C(=O)N(C)C)=C1C", 
	 "Tm": 393.15, 
	 "num_atms": 33, 
	 "gaussian": { 
		 "optdone": 1, 
		 "sigma_profile": "yes", 
		 "theory": "DFT", 
		 "functional": "B3LYP", 
		 "basiset": "6-31G**", 
		 "properties": { 
			 "R2extent": 6400.6658, 
			 "electric_dipole_moment_norm": 3.4108162117, 
			 "electric_quadrupole_moment_norm": 17.9278419226, 
			 "total_energy": -1162.20407974, 
			 "HOMO_LUMO_gap": 0.17817, 
			 "cosmo_polarized_energy": -15.6, 
			 "cosmo_cavitation_energy": 36.96, 
			 "cosmo_dispersion_energy": -26.62, 
			 "cosmo_repulsion_energy": 2.04, 
			 "cosmo_total_nonelectrostatic_energy": 12.38, 
			 "SMD_solvation_energy": 7.81 
		},
		"coords": [
			{
				"x": 3.277609648,
				"y": -3.1550904729,
				"z": -1.5881004063,
				"element": "C" 
			},
			{
				"x": 2.7841230765,
				"y": -2.2366924667,
				"z": -2.6904055922,
				"element": "C" 
			},
			{
				"x": 1.7094346666,
				"y": -1.4407457734,
				"z": -2.143434071,
				"element": "O" 
			},
			{
				"x": 1.1423772138,
				"y": -0.5525793568,
				"z": -2.9927226109,
				"element": "C" 
			},
			{
				"x": 1.5364889122,
				"y": -0.4388761546,
				"z": -4.1550564658,
				"element": "O" 
			},
			{
				"x": 0.0597896719,
				"y": 0.2350039599,
				"z": -2.4121404062,
				"element": "C" 
			},
			{
				"x": -0.5740245843,
				"y": 1.2028496196,
				"z": -3.2089473383,
				"element": "C" 
			},
			{
				"x": -0.2507071846,
				"y": 1.5409417035,
				"z": -4.4764001212,
				"element": "N" 
			},
			{
				"x": -1.8594416217,
				"y": 2.003332978,
				"z": -2.3559351584,
				"element": "S" 
			},
			{
				"x": -1.5088293814,
				"y": 1.0826716794,
				"z": -0.8850404223,
				"element": "C" 
			},
			{
				"x": -2.4676509236,
				"y": 1.3208230099,
				"z": 0.2252656298,
				"element": "C" 
			},
			{
				"x": -3.6567126582,
				"y": 1.5269966716,
				"z": -0.0241477409,
				"element": "O" 
			},
			{
				"x": -1.9959590262,
				"y": 1.2953316245,
				"z": 1.5251659007,
				"element": "N" 
			},
			{
				"x": -0.6371761552,
				"y": 1.6634389396,
				"z": 1.90192571,
				"element": "C" 
			},
			{
				"x": -2.9840132077,
				"y": 1.4238518813,
				"z": 2.5894976687,
				"element": "C" 
			},
			{
				"x": -0.504177279,
				"y": 0.1653558395,
				"z": -1.079090592,
				"element": "C" 
			},
			{
				"x": -0.1044807058,
				"y": -0.8582349291,
				"z": -0.0479655945,
				"element": "C" 
			},
			{
				"x": 4.0973915513,
				"y": -3.7758720502,
				"z": -1.9629503124,
				"element": "H" 
			},
			{
				"x": 2.4785125515,
				"y": -3.8160734816,
				"z": -1.2400439697,
				"element": "H" 
			},
			{
				"x": 3.6459611446,
				"y": -2.5799164543,
				"z": -0.7336188155,
				"element": "H" 
			},
			{
				"x": 2.4092550773,
				"y": -2.7959920148,
				"z": -3.5532961907,
				"element": "H" 
			},
			{
				"x": 3.5723319415,
				"y": -1.568803904,
				"z": -3.0516798384,
				"element": "H" 
			},
			{
				"x": 0.4434811448,
				"y": 0.9434497066,
				"z": -4.9172989971,
				"element": "H" 
			},
			{
				"x": -0.871876327,
				"y": 2.1063520377,
				"z": -5.0312156789,
				"element": "H" 
			},
			{
				"x": -0.006875868,
				"y": 1.7408367906,
				"z": 1.0180109002,
				"element": "H" 
			},
			{
				"x": -0.2026579259,
				"y": 0.9230930722,
				"z": 2.5839568546,
				"element": "H" 
			},
			{
				"x": -0.6375616123,
				"y": 2.6367722097,
				"z": 2.4124833007,
				"element": "H" 
			},
			{
				"x": -3.9340202919,
				"y": 1.0165805912,
				"z": 2.2477295321,
				"element": "H" 
			},
			{
				"x": -2.6370136637,
				"y": 0.876162575,
				"z": 3.4718802884,
				"element": "H" 
			},
			{
				"x": -3.1408848963,
				"y": 2.4748359956,
				"z": 2.8708609346,
				"element": "H" 
			},
			{
				"x": -0.7837394651,
				"y": -0.8338702612,
				"z": 0.8044777787,
				"element": "H" 
			},
			{
				"x": 0.918281131,
				"y": -0.6951821614,
				"z": 0.3070506298,
				"element": "H" 
			},
			{
				"x": -0.123034953,
				"y": -1.8596514047,
				"z": -0.484014806,
				"element": "H" 
			}
		],
		 "valence_orbital": [ 
			{
				"type": "occ",
				"energy": -0.275,
				"method": "rhf"
			},
			{
				"type": "occ",
				"energy": -0.25495,
				"method": "rhf"
			},
			{
				"type": "occ",
				"energy": -0.24527,
				"method": "rhf"
			},
			{
				"type": "occ",
				"energy": -0.23263,
				"method": "rhf"
			},
			{
				"type": "occ",
				"energy": -0.19938,
				"method": "rhf"
			},
			{
				"type": "unocc",
				"energy": -0.02121,
				"method": "rhf"
			},
			{
				"type": "unocc",
				"energy": -0.01636,
				"method": "rhf"
			},
			{
				"type": "unocc",
				"energy": 0.01798,
				"method": "rhf"
			},
			{
				"type": "unocc",
				"energy": 0.05959,
				"method": "rhf"
			},
			{
				"type": "unocc",
				"energy": 0.08502,
				"method": "rhf"
			}
		],
		"cosmo_sigma_profile": { 
			"-0.025": 0.0,
			"-0.024": 0.0,
			"-0.023": 0.0,
			"-0.022": 0.0,
			"-0.021": 0.0,
			"-0.02": 0.0,
			"-0.019": 0.0,
			"-0.018": 0.0,
			"-0.017": 0.0,
			"-0.016": 0.0490821568281,
			"-0.015": 0.999961225637,
			"-0.014": 1.77798520599,
			"-0.013": 1.28773536322,
			"-0.012": 1.25248974549,
			"-0.011": 1.333904869,
			"-0.01": 1.90146737918,
			"-0.009": 1.78281946841,
			"-0.008": 1.62923482391,
			"-0.007": 1.86431442167,
			"-0.006": 1.38741518026,
			"-0.005": 10.9442746022,
			"-0.004": 29.9290421276,
			"-0.003": 32.3555745004,
			"-0.002": 38.4589308339,
			"-0.001": 29.7802211814,
			"0.0": 25.5833002871,
			"0.001": 23.1448022182,
			"0.002": 21.2591064526,
			"0.003": 15.2512643305,
			"0.004": 10.1125727187,
			"0.005": 6.01355746226,
			"0.006": 5.50786811426,
			"0.007": 3.37544261238,
			"0.008": 3.18149073555,
			"0.009": 3.31570685361,
			"0.01": 3.17227091567,
			"0.011": 3.5289334054,
			"0.012": 4.11711259477,
			"0.013": 3.64845955044,
			"0.014": 4.7946331219,
			"0.015": 0.500139957739,
			"0.016": 0.0,
			"0.017": 0.0,
			"0.018": 0.0,
			"0.019": 0.0,
			"0.02": 0.0,
			"0.021": 0.0,
			"0.022": 0.0,
			"0.023": 0.0,
			"0.024": 0.0,
			"0.025": 0.0
		}
	}
}
