{
	 "smiles": "OC(=O)C1CC2CCCCC2N1C(=O)C1=CC=C(F)C=C1", 
	 "Tm": 421.15, 
	 "num_atms": 39, 
	 "gaussian": { 
		 "optdone": 1, 
		 "sigma_profile": "yes", 
		 "theory": "DFT", 
		 "functional": "B3LYP", 
		 "basiset": "6-31G**", 
		 "properties": { 
			 "R2extent": 7514.4143, 
			 "electric_dipole_moment_norm": 2.83501586768, 
			 "electric_quadrupole_moment_norm": 15.283545466, 
			 "total_energy": -1000.84880161, 
			 "HOMO_LUMO_gap": 0.21082, 
			 "cosmo_polarized_energy": -16.74, 
			 "cosmo_cavitation_energy": 40.52, 
			 "cosmo_dispersion_energy": -27.61, 
			 "cosmo_repulsion_energy": 2.09, 
			 "cosmo_total_nonelectrostatic_energy": 14.99, 
			 "SMD_solvation_energy": 7.66 
		},
		"coords": [
			{
				"x": 1.7041741769,
				"y": -2.2747152641,
				"z": 1.2045663133,
				"element": "O" 
			},
			{
				"x": 0.4341588247,
				"y": -2.1224251881,
				"z": 1.641169509,
				"element": "C" 
			},
			{
				"x": -0.0690837483,
				"y": -2.8393364491,
				"z": 2.4766725512,
				"element": "O" 
			},
			{
				"x": -0.2904974897,
				"y": -0.9224709946,
				"z": 1.0267092306,
				"element": "C" 
			},
			{
				"x": -0.1736092434,
				"y": 0.3072092404,
				"z": 1.9644683984,
				"element": "C" 
			},
			{
				"x": 1.0857969836,
				"y": 1.0218856788,
				"z": 1.446311953,
				"element": "C" 
			},
			{
				"x": 1.3184753297,
				"y": 2.4618707408,
				"z": 1.9371910319,
				"element": "C" 
			},
			{
				"x": 0.4470104823,
				"y": 3.5134268512,
				"z": 1.2341949046,
				"element": "C" 
			},
			{
				"x": 0.5724110612,
				"y": 3.3921739309,
				"z": -0.2905889141,
				"element": "C" 
			},
			{
				"x": 0.1266023114,
				"y": 1.999073218,
				"z": -0.7522871011,
				"element": "C" 
			},
			{
				"x": 0.9468291215,
				"y": 0.8767416533,
				"z": -0.0855192074,
				"element": "C" 
			},
			{
				"x": 0.2678665661,
				"y": -0.4311754954,
				"z": -0.2387427458,
				"element": "N" 
			},
			{
				"x": 0.5002251337,
				"y": -1.1714022553,
				"z": -1.3750189944,
				"element": "C" 
			},
			{
				"x": 1.2553226142,
				"y": -0.7689731448,
				"z": -2.2576027388,
				"element": "O" 
			},
			{
				"x": -0.2057721765,
				"y": -2.4912462591,
				"z": -1.5305950836,
				"element": "C" 
			},
			{
				"x": 0.540322846,
				"y": -3.5731080081,
				"z": -2.0212874399,
				"element": "C" 
			},
			{
				"x": -0.061204567,
				"y": -4.8055733585,
				"z": -2.2572798327,
				"element": "C" 
			},
			{
				"x": -1.4278339221,
				"y": -4.9357457033,
				"z": -2.0263109268,
				"element": "C" 
			},
			{
				"x": -2.0186274929,
				"y": -6.1242867941,
				"z": -2.260133122,
				"element": "F" 
			},
			{
				"x": -2.2039737766,
				"y": -3.875583933,
				"z": -1.573511807,
				"element": "C" 
			},
			{
				"x": -1.5822872922,
				"y": -2.652131644,
				"z": -1.323129299,
				"element": "C" 
			},
			{
				"x": 2.0593722064,
				"y": -3.0475623666,
				"z": 1.6759547686,
				"element": "H" 
			},
			{
				"x": -1.3313741089,
				"y": -1.2366419821,
				"z": 0.9356982409,
				"element": "H" 
			},
			{
				"x": -1.0645135882,
				"y": 0.9325287065,
				"z": 1.8463769152,
				"element": "H" 
			},
			{
				"x": -0.1123754908,
				"y": 0.0116785797,
				"z": 3.0150121877,
				"element": "H" 
			},
			{
				"x": 1.9471350892,
				"y": 0.4161303023,
				"z": 1.7538031916,
				"element": "H" 
			},
			{
				"x": 2.371793219,
				"y": 2.7158638534,
				"z": 1.7581367185,
				"element": "H" 
			},
			{
				"x": 1.177088733,
				"y": 2.5041376566,
				"z": 3.0244296564,
				"element": "H" 
			},
			{
				"x": 0.7425744024,
				"y": 4.514254142,
				"z": 1.5699258975,
				"element": "H" 
			},
			{
				"x": -0.6067666205,
				"y": 3.3907021791,
				"z": 1.520520738,
				"element": "H" 
			},
			{
				"x": 1.6156151269,
				"y": 3.5708064238,
				"z": -0.5879590591,
				"element": "H" 
			},
			{
				"x": -0.0288027754,
				"y": 4.1606617397,
				"z": -0.7897318248,
				"element": "H" 
			},
			{
				"x": -0.9342077307,
				"y": 1.8647831034,
				"z": -0.5023061274,
				"element": "H" 
			},
			{
				"x": 0.2097306945,
				"y": 1.889239457,
				"z": -1.8380969505,
				"element": "H" 
			},
			{
				"x": 1.9243796091,
				"y": 0.8160244627,
				"z": -0.5713353203,
				"element": "H" 
			},
			{
				"x": 1.5965461361,
				"y": -3.4297754935,
				"z": -2.2223195744,
				"element": "H" 
			},
			{
				"x": 0.50302721,
				"y": -5.6560165238,
				"z": -2.6243781994,
				"element": "H" 
			},
			{
				"x": -3.2698784701,
				"y": -4.0137274568,
				"z": -1.4295574866,
				"element": "H" 
			},
			{
				"x": -2.1854493847,
				"y": -1.8109936052,
				"z": -0.9962504512,
				"element": "H" 
			}
		],
		 "valence_orbital": [ 
			{
				"type": "occ",
				"energy": -0.29063,
				"method": "rhf"
			},
			{
				"type": "occ",
				"energy": -0.26716,
				"method": "rhf"
			},
			{
				"type": "occ",
				"energy": -0.25933,
				"method": "rhf"
			},
			{
				"type": "occ",
				"energy": -0.23914,
				"method": "rhf"
			},
			{
				"type": "occ",
				"energy": -0.23848,
				"method": "rhf"
			},
			{
				"type": "unocc",
				"energy": -0.02766,
				"method": "rhf"
			},
			{
				"type": "unocc",
				"energy": -0.01714,
				"method": "rhf"
			},
			{
				"type": "unocc",
				"energy": -0.00212,
				"method": "rhf"
			},
			{
				"type": "unocc",
				"energy": 0.04448,
				"method": "rhf"
			},
			{
				"type": "unocc",
				"energy": 0.06179,
				"method": "rhf"
			}
		],
		"cosmo_sigma_profile": { 
			"-0.025": 0.0,
			"-0.024": 0.0,
			"-0.023": 0.0,
			"-0.022": 0.0,
			"-0.021": 0.0,
			"-0.02": 0.0,
			"-0.019": 0.171832308828,
			"-0.018": 0.89727534876,
			"-0.017": 1.07778479099,
			"-0.016": 0.71896089003,
			"-0.015": 0.736137197792,
			"-0.014": 0.67948359935,
			"-0.013": 0.520520518716,
			"-0.012": 0.686707349073,
			"-0.011": 0.881619627134,
			"-0.01": 0.901019763334,
			"-0.009": 0.994724282714,
			"-0.008": 3.8349777719,
			"-0.007": 8.79463387224,
			"-0.006": 8.33868034332,
			"-0.005": 14.0336464685,
			"-0.004": 16.7029768859,
			"-0.003": 28.9007590363,
			"-0.002": 36.2551156567,
			"-0.001": 33.3621228794,
			"0.0": 35.4009551428,
			"0.001": 30.2652989604,
			"0.002": 17.6565549862,
			"0.003": 15.587482051,
			"0.004": 16.1238189355,
			"0.005": 6.30136226557,
			"0.006": 5.42508264309,
			"0.007": 3.62207399374,
			"0.008": 2.97617448787,
			"0.009": 3.59198679617,
			"0.01": 3.51474216759,
			"0.011": 6.11277962856,
			"0.012": 5.34332974464,
			"0.013": 4.14405643229,
			"0.014": 2.90602484356,
			"0.015": 0.340034587108,
			"0.016": 0.0,
			"0.017": 0.0,
			"0.018": 0.0,
			"0.019": 0.0,
			"0.02": 0.0,
			"0.021": 0.0,
			"0.022": 0.0,
			"0.023": 0.0,
			"0.024": 0.0,
			"0.025": 0.0
		}
	}
}
