{
	 "smiles": "CC(C)CN1CC(CC1=O)C(O)=O", 
	 "Tm": 357.15, 
	 "num_atms": 28, 
	 "gaussian": { 
		 "optdone": 1, 
		 "sigma_profile": "yes", 
		 "theory": "DFT", 
		 "functional": "B3LYP", 
		 "basiset": "6-31G**", 
		 "properties": { 
			 "R2extent": 3321.5795, 
			 "electric_dipole_moment_norm": 2.43750610461, 
			 "electric_quadrupole_moment_norm": 20.3900848532, 
			 "total_energy": -632.457951323, 
			 "HOMO_LUMO_gap": 0.24033, 
			 "cosmo_polarized_energy": -20.1, 
			 "cosmo_cavitation_energy": 30.48, 
			 "cosmo_dispersion_energy": -21.23, 
			 "cosmo_repulsion_energy": 1.71, 
			 "cosmo_total_nonelectrostatic_energy": 10.96, 
			 "SMD_solvation_energy": 6.76 
		},
		"coords": [
			{
				"x": 3.4415756564,
				"y": -0.2729028862,
				"z": -1.7757529432,
				"element": "C" 
			},
			{
				"x": 2.2986980318,
				"y": -0.0551368539,
				"z": -0.7739515202,
				"element": "C" 
			},
			{
				"x": 2.4443044207,
				"y": 1.2827560355,
				"z": -0.0382903435,
				"element": "C" 
			},
			{
				"x": 0.9469279994,
				"y": -0.1570555957,
				"z": -1.5085991921,
				"element": "C" 
			},
			{
				"x": -0.2184766967,
				"y": -0.0694912748,
				"z": -0.6414628359,
				"element": "N" 
			},
			{
				"x": -0.6629304704,
				"y": -1.1812720757,
				"z": 0.1905973258,
				"element": "C" 
			},
			{
				"x": -1.7941745116,
				"y": -0.5633256892,
				"z": 1.0372429117,
				"element": "C" 
			},
			{
				"x": -2.3165905442,
				"y": 0.6019214705,
				"z": 0.1652968359,
				"element": "C" 
			},
			{
				"x": -1.1282800637,
				"y": 0.9524203432,
				"z": -0.7385025705,
				"element": "C" 
			},
			{
				"x": -1.0254328228,
				"y": 1.9468926792,
				"z": -1.4377636759,
				"element": "O" 
			},
			{
				"x": -2.8518017561,
				"y": -1.5793075665,
				"z": 1.4463488998,
				"element": "C" 
			},
			{
				"x": -3.8931467165,
				"y": -1.0734684116,
				"z": 2.1582217519,
				"element": "O" 
			},
			{
				"x": -2.8112629123,
				"y": -2.7556982442,
				"z": 1.1856397779,
				"element": "O" 
			},
			{
				"x": 3.3582732342,
				"y": -1.2422847695,
				"z": -2.2796328922,
				"element": "H" 
			},
			{
				"x": 3.4389957774,
				"y": 0.5064111762,
				"z": -2.5472188099,
				"element": "H" 
			},
			{
				"x": 4.4140364027,
				"y": -0.2393026989,
				"z": -1.2744641635,
				"element": "H" 
			},
			{
				"x": 2.3451787946,
				"y": -0.8649693931,
				"z": -0.0306297226,
				"element": "H" 
			},
			{
				"x": 1.6365570692,
				"y": 1.4321584379,
				"z": 0.6844689773,
				"element": "H" 
			},
			{
				"x": 2.4152221772,
				"y": 2.1211102086,
				"z": -0.7435980939,
				"element": "H" 
			},
			{
				"x": 3.3948160033,
				"y": 1.3294251646,
				"z": 0.5035064566,
				"element": "H" 
			},
			{
				"x": 0.9005539209,
				"y": -1.1036232235,
				"z": -2.0656546846,
				"element": "H" 
			},
			{
				"x": 0.8521786151,
				"y": 0.6621677752,
				"z": -2.2284956706,
				"element": "H" 
			},
			{
				"x": 0.1504868802,
				"y": -1.5640995964,
				"z": 0.8142093455,
				"element": "H" 
			},
			{
				"x": -1.04203613,
				"y": -2.0173812972,
				"z": -0.4113548873,
				"element": "H" 
			},
			{
				"x": -1.3642343782,
				"y": -0.1451856951,
				"z": 1.9573098964,
				"element": "H" 
			},
			{
				"x": -3.1492395151,
				"y": 0.2937412398,
				"z": -0.478623056,
				"element": "H" 
			},
			{
				"x": -2.6375951464,
				"y": 1.4852988416,
				"z": 0.7230380938,
				"element": "H" 
			},
			{
				"x": -3.7890033188,
				"y": -0.118598101,
				"z": 2.2783147891,
				"element": "H" 
			}
		],
		 "valence_orbital": [ 
			{
				"type": "occ",
				"energy": -0.33144,
				"method": "rhf"
			},
			{
				"type": "occ",
				"energy": -0.32747,
				"method": "rhf"
			},
			{
				"type": "occ",
				"energy": -0.2864,
				"method": "rhf"
			},
			{
				"type": "occ",
				"energy": -0.25416,
				"method": "rhf"
			},
			{
				"type": "occ",
				"energy": -0.2443,
				"method": "rhf"
			},
			{
				"type": "unocc",
				"energy": -0.00397,
				"method": "rhf"
			},
			{
				"type": "unocc",
				"energy": 0.01812,
				"method": "rhf"
			},
			{
				"type": "unocc",
				"energy": 0.04305,
				"method": "rhf"
			},
			{
				"type": "unocc",
				"energy": 0.06723,
				"method": "rhf"
			},
			{
				"type": "unocc",
				"energy": 0.09518,
				"method": "rhf"
			}
		],
		"cosmo_sigma_profile": { 
			"-0.025": 0.0,
			"-0.024": 0.0,
			"-0.023": 0.0,
			"-0.022": 0.0,
			"-0.021": 0.0,
			"-0.02": 0.0,
			"-0.019": 0.336728516333,
			"-0.018": 1.06183237205,
			"-0.017": 1.46538011818,
			"-0.016": 0.740162523751,
			"-0.015": 1.56132518509,
			"-0.014": 0.537067187964,
			"-0.013": 0.987963703601,
			"-0.012": 1.2645150903,
			"-0.011": 1.44018573077,
			"-0.01": 1.45723085786,
			"-0.009": 1.7197322707,
			"-0.008": 4.0519349516,
			"-0.007": 9.21320759965,
			"-0.006": 8.73438671995,
			"-0.005": 10.5268748795,
			"-0.004": 15.8342021018,
			"-0.003": 22.9189663014,
			"-0.002": 24.9911244547,
			"-0.001": 23.3575838077,
			"0.0": 18.1551036507,
			"0.001": 17.7927695466,
			"0.002": 9.84515312784,
			"0.003": 3.7834000631,
			"0.004": 4.16343565691,
			"0.005": 4.02892274663,
			"0.006": 3.45602071447,
			"0.007": 4.66676881084,
			"0.008": 4.32300750618,
			"0.009": 4.73198798885,
			"0.01": 6.56900514259,
			"0.011": 7.21516444938,
			"0.012": 5.57449150305,
			"0.013": 4.31619526437,
			"0.014": 5.37936077306,
			"0.015": 0.919547182705,
			"0.016": 0.0,
			"0.017": 0.0,
			"0.018": 0.0,
			"0.019": 0.0,
			"0.02": 0.0,
			"0.021": 0.0,
			"0.022": 0.0,
			"0.023": 0.0,
			"0.024": 0.0,
			"0.025": 0.0
		}
	}
}
