{
	 "smiles": "CC1=C(C)N(C2CCCCC2)C(S)=N1", 
	 "Tm": 492.15, 
	 "num_atms": 32, 
	 "gaussian": { 
		 "optdone": 1, 
		 "sigma_profile": "yes", 
		 "theory": "DFT", 
		 "functional": "B3LYP", 
		 "basiset": "6-31G**", 
		 "properties": { 
			 "R2extent": 3889.5059, 
			 "electric_dipole_moment_norm": 3.01721690636, 
			 "electric_quadrupole_moment_norm": 6.87232942895, 
			 "total_energy": -937.718980588, 
			 "HOMO_LUMO_gap": 0.20927, 
			 "cosmo_polarized_energy": -8.49, 
			 "cosmo_cavitation_energy": 32.65, 
			 "cosmo_dispersion_energy": -24.1, 
			 "cosmo_repulsion_energy": 1.86, 
			 "cosmo_total_nonelectrostatic_energy": 10.41, 
			 "SMD_solvation_energy": 3.15 
		},
		"coords": [
			{
				"x": -1.1455055736,
				"y": 3.9732152461,
				"z": -2.6482916325,
				"element": "C" 
			},
			{
				"x": -1.0646658738,
				"y": 2.899932436,
				"z": -1.6022728375,
				"element": "C" 
			},
			{
				"x": -0.1079052266,
				"y": 1.9315307274,
				"z": -1.4283768263,
				"element": "C" 
			},
			{
				"x": 1.1270230671,
				"y": 1.6651136118,
				"z": -2.227083468,
				"element": "C" 
			},
			{
				"x": -0.5045961024,
				"y": 1.1827718879,
				"z": -0.3037993742,
				"element": "N" 
			},
			{
				"x": 0.3003732605,
				"y": 0.0367218229,
				"z": 0.1883131822,
				"element": "C" 
			},
			{
				"x": -0.3805707147,
				"y": -1.3503982235,
				"z": 0.0464210688,
				"element": "C" 
			},
			{
				"x": -1.1256289219,
				"y": -1.870832652,
				"z": 1.2860326724,
				"element": "C" 
			},
			{
				"x": -0.2656039488,
				"y": -1.7543196904,
				"z": 2.5527278848,
				"element": "C" 
			},
			{
				"x": 0.1849786073,
				"y": -0.3050257707,
				"z": 2.7857079845,
				"element": "C" 
			},
			{
				"x": 0.9580853717,
				"y": 0.2479901533,
				"z": 1.5778302026,
				"element": "C" 
			},
			{
				"x": -1.6800260372,
				"y": 1.764181832,
				"z": 0.1152690256,
				"element": "C" 
			},
			{
				"x": -2.6804945247,
				"y": 1.2682140902,
				"z": 1.5028264365,
				"element": "S" 
			},
			{
				"x": -2.0384220782,
				"y": 2.7844859379,
				"z": -0.6340085477,
				"element": "N" 
			},
			{
				"x": -1.1981065104,
				"y": 3.5619260274,
				"z": -3.6633674271,
				"element": "H" 
			},
			{
				"x": -2.0477184138,
				"y": 4.5650731116,
				"z": -2.4791126488,
				"element": "H" 
			},
			{
				"x": -0.2857525444,
				"y": 4.6529144911,
				"z": -2.6144734088,
				"element": "H" 
			},
			{
				"x": 2.0502024175,
				"y": 1.7634131603,
				"z": -1.6411562533,
				"element": "H" 
			},
			{
				"x": 1.1822270645,
				"y": 2.3967227384,
				"z": -3.0371223323,
				"element": "H" 
			},
			{
				"x": 1.1353770715,
				"y": 0.6701329532,
				"z": -2.690958781,
				"element": "H" 
			},
			{
				"x": 1.1262532454,
				"y": 0.0252307592,
				"z": -0.5217341808,
				"element": "H" 
			},
			{
				"x": 0.4250209332,
				"y": -2.0620652272,
				"z": -0.1806937285,
				"element": "H" 
			},
			{
				"x": -1.0369906338,
				"y": -1.3381522763,
				"z": -0.8300757038,
				"element": "H" 
			},
			{
				"x": -1.4055121759,
				"y": -2.9168497137,
				"z": 1.1122579292,
				"element": "H" 
			},
			{
				"x": -2.0622386062,
				"y": -1.3225227327,
				"z": 1.4267882301,
				"element": "H" 
			},
			{
				"x": -0.8229093567,
				"y": -2.1208812175,
				"z": 3.4224498847,
				"element": "H" 
			},
			{
				"x": 0.6194052159,
				"y": -2.4004330929,
				"z": 2.4538777213,
				"element": "H" 
			},
			{
				"x": 0.829917332,
				"y": -0.2457519613,
				"z": 3.6707083127,
				"element": "H" 
			},
			{
				"x": -0.6872199008,
				"y": 0.3204124989,
				"z": 2.9997440376,
				"element": "H" 
			},
			{
				"x": 1.1825210618,
				"y": 1.3118553772,
				"z": 1.7086194378,
				"element": "H" 
			},
			{
				"x": 1.9263796489,
				"y": -0.269505184,
				"z": 1.5372038551,
				"element": "H" 
			},
			{
				"x": -3.5647971533,
				"y": 2.2516988794,
				"z": 1.2554492848,
				"element": "H" 
			}
		],
		 "valence_orbital": [ 
			{
				"type": "occ",
				"energy": -0.30818,
				"method": "rhf"
			},
			{
				"type": "occ",
				"energy": -0.27483,
				"method": "rhf"
			},
			{
				"type": "occ",
				"energy": -0.25741,
				"method": "rhf"
			},
			{
				"type": "occ",
				"energy": -0.25174,
				"method": "rhf"
			},
			{
				"type": "occ",
				"energy": -0.18823,
				"method": "rhf"
			},
			{
				"type": "unocc",
				"energy": 0.02104,
				"method": "rhf"
			},
			{
				"type": "unocc",
				"energy": 0.03267,
				"method": "rhf"
			},
			{
				"type": "unocc",
				"energy": 0.06537,
				"method": "rhf"
			},
			{
				"type": "unocc",
				"energy": 0.07815,
				"method": "rhf"
			},
			{
				"type": "unocc",
				"energy": 0.07976,
				"method": "rhf"
			}
		],
		"cosmo_sigma_profile": { 
			"-0.025": 0.0,
			"-0.024": 0.0,
			"-0.023": 0.0,
			"-0.022": 0.0,
			"-0.021": 0.0,
			"-0.02": 0.0,
			"-0.019": 0.0,
			"-0.018": 0.0,
			"-0.017": 0.0,
			"-0.016": 0.0,
			"-0.015": 0.0,
			"-0.014": 0.0,
			"-0.013": 0.0,
			"-0.012": 0.0,
			"-0.011": 0.340745766294,
			"-0.01": 1.28136977121,
			"-0.009": 1.26962013962,
			"-0.008": 1.14120770398,
			"-0.007": 0.676008479176,
			"-0.006": 1.86893549302,
			"-0.005": 8.57237559793,
			"-0.004": 16.1478431972,
			"-0.003": 27.9740128293,
			"-0.002": 35.5305456516,
			"-0.001": 34.4397484379,
			"0.0": 41.0346953406,
			"0.001": 28.1549273744,
			"0.002": 12.0557814993,
			"0.003": 7.77397011544,
			"0.004": 8.41059496017,
			"0.005": 7.28123976799,
			"0.006": 6.63171059912,
			"0.007": 3.57040244718,
			"0.008": 3.01354324795,
			"0.009": 1.82287411386,
			"0.01": 1.02931076493,
			"0.011": 1.200467652,
			"0.012": 1.4495470881,
			"0.013": 0.531476539535,
			"0.014": 1.24329986904,
			"0.015": 1.06733471431,
			"0.016": 0.693216924503,
			"0.017": 0.350222352376,
			"0.018": 0.0,
			"0.019": 0.0,
			"0.02": 0.0,
			"0.021": 0.0,
			"0.022": 0.0,
			"0.023": 0.0,
			"0.024": 0.0,
			"0.025": 0.0
		}
	}
}
