{
	 "smiles": "OC(=O)C1=C(F)C=C(C=C1)C1=C(OC(F)(F)F)C=CC=C1", 
	 "Tm": 424.15, 
	 "num_atms": 29, 
	 "gaussian": { 
		 "optdone": 1, 
		 "sigma_profile": "yes", 
		 "theory": "DFT", 
		 "functional": "B3LYP", 
		 "basiset": "6-31G**", 
		 "properties": { 
			 "R2extent": 7383.8597, 
			 "electric_dipole_moment_norm": 6.64301194188, 
			 "electric_quadrupole_moment_norm": 13.1610676721, 
			 "total_energy": -1163.35702423, 
			 "HOMO_LUMO_gap": 0.18526, 
			 "cosmo_polarized_energy": -12.82, 
			 "cosmo_cavitation_energy": 36.14, 
			 "cosmo_dispersion_energy": -24.97, 
			 "cosmo_repulsion_energy": 1.82, 
			 "cosmo_total_nonelectrostatic_energy": 13.0, 
			 "SMD_solvation_energy": 8.98 
		},
		"coords": [
			{
				"x": -0.9566352725,
				"y": -5.1119546073,
				"z": 0.1342491699,
				"element": "O" 
			},
			{
				"x": -0.513349927,
				"y": -4.1856858183,
				"z": 1.0085561401,
				"element": "C" 
			},
			{
				"x": -0.3256643002,
				"y": -4.4746787767,
				"z": 2.1682471836,
				"element": "O" 
			},
			{
				"x": -0.2647420823,
				"y": -2.7932310091,
				"z": 0.4916303661,
				"element": "C" 
			},
			{
				"x": -0.4634267548,
				"y": -2.3521865431,
				"z": -0.8181090983,
				"element": "C" 
			},
			{
				"x": -0.9157486006,
				"y": -3.227441374,
				"z": -1.7684751043,
				"element": "F" 
			},
			{
				"x": -0.2194650124,
				"y": -1.0529608661,
				"z": -1.2305698014,
				"element": "C" 
			},
			{
				"x": 0.2552920303,
				"y": -0.1116103697,
				"z": -0.3052281861,
				"element": "C" 
			},
			{
				"x": 0.4678626772,
				"y": -0.5271499232,
				"z": 1.0224230887,
				"element": "C" 
			},
			{
				"x": 0.2094714574,
				"y": -1.8368438338,
				"z": 1.4036562835,
				"element": "C" 
			},
			{
				"x": 0.4725630162,
				"y": 1.2928573692,
				"z": -0.7401153275,
				"element": "C" 
			},
			{
				"x": 1.6138239863,
				"y": 2.0358643459,
				"z": -0.3943229308,
				"element": "C" 
			},
			{
				"x": 2.5844916663,
				"y": 1.4571731044,
				"z": 0.4400102457,
				"element": "O" 
			},
			{
				"x": 3.7079314053,
				"y": 0.9685274409,
				"z": -0.1510576655,
				"element": "C" 
			},
			{
				"x": 3.4293450934,
				"y": 0.0680434397,
				"z": -1.1098873073,
				"element": "F" 
			},
			{
				"x": 4.4375611814,
				"y": 0.3831532884,
				"z": 0.7957136847,
				"element": "F" 
			},
			{
				"x": 4.4483937306,
				"y": 1.9402790515,
				"z": -0.7227829152,
				"element": "F" 
			},
			{
				"x": 1.7958677367,
				"y": 3.3521131682,
				"z": -0.8085313432,
				"element": "C" 
			},
			{
				"x": 0.8252452983,
				"y": 3.9652620915,
				"z": -1.5992775871,
				"element": "C" 
			},
			{
				"x": -0.3181976687,
				"y": 3.2542739698,
				"z": -1.965429986,
				"element": "C" 
			},
			{
				"x": -0.4874977629,
				"y": 1.9389919612,
				"z": -1.538633076,
				"element": "C" 
			},
			{
				"x": -1.0548433004,
				"y": -4.7263736235,
				"z": -0.7504204722,
				"element": "H" 
			},
			{
				"x": -0.3791800645,
				"y": -0.7945107269,
				"z": -2.2712335026,
				"element": "H" 
			},
			{
				"x": 0.8289396755,
				"y": 0.1833162312,
				"z": 1.7559041751,
				"element": "H" 
			},
			{
				"x": 0.3618756405,
				"y": -2.1641852132,
				"z": 2.42629053,
				"element": "H" 
			},
			{
				"x": 2.695057878,
				"y": 3.8771451946,
				"z": -0.5082568444,
				"element": "H" 
			},
			{
				"x": 0.9624536193,
				"y": 4.9925816029,
				"z": -1.9216442121,
				"element": "H" 
			},
			{
				"x": -1.0841562731,
				"y": 3.7257069619,
				"z": -2.573270496,
				"element": "H" 
			},
			{
				"x": -1.3906690732,
				"y": 1.3987234634,
				"z": -1.8049350113,
				"element": "H" 
			}
		],
		 "valence_orbital": [ 
			{
				"type": "occ",
				"energy": -0.29652,
				"method": "rhf"
			},
			{
				"type": "occ",
				"energy": -0.27623,
				"method": "rhf"
			},
			{
				"type": "occ",
				"energy": -0.2752,
				"method": "rhf"
			},
			{
				"type": "occ",
				"energy": -0.27378,
				"method": "rhf"
			},
			{
				"type": "occ",
				"energy": -0.25612,
				"method": "rhf"
			},
			{
				"type": "unocc",
				"energy": -0.07086,
				"method": "rhf"
			},
			{
				"type": "unocc",
				"energy": -0.02937,
				"method": "rhf"
			},
			{
				"type": "unocc",
				"energy": -0.02407,
				"method": "rhf"
			},
			{
				"type": "unocc",
				"energy": -0.01989,
				"method": "rhf"
			},
			{
				"type": "unocc",
				"energy": 0.04918,
				"method": "rhf"
			}
		],
		"cosmo_sigma_profile": { 
			"-0.025": 0.0,
			"-0.024": 0.0,
			"-0.023": 0.0,
			"-0.022": 0.0,
			"-0.021": 0.0,
			"-0.02": 0.0,
			"-0.019": 0.0,
			"-0.018": 0.0,
			"-0.017": 0.0,
			"-0.016": 0.0,
			"-0.015": 0.0,
			"-0.014": 0.0,
			"-0.013": 0.379192345494,
			"-0.012": 0.810890071776,
			"-0.011": 0.861166150383,
			"-0.01": 1.95068712905,
			"-0.009": 2.00125749871,
			"-0.008": 3.16764064245,
			"-0.007": 10.6881731165,
			"-0.006": 15.8126913941,
			"-0.005": 16.9122811772,
			"-0.004": 13.9946664523,
			"-0.003": 13.0310856525,
			"-0.002": 17.6176844672,
			"-0.001": 22.7017948369,
			"0.0": 28.6265071635,
			"0.001": 39.8244581033,
			"0.002": 48.912045415,
			"0.003": 18.3800688972,
			"0.004": 5.8612982083,
			"0.005": 3.35021237834,
			"0.006": 2.99322647248,
			"0.007": 1.87856614771,
			"0.008": 3.05252557328,
			"0.009": 3.29738763798,
			"0.01": 4.70853704815,
			"0.011": 5.51018007949,
			"0.012": 4.16982129449,
			"0.013": 1.19078377897,
			"0.014": 0.00706822216716,
			"0.015": 0.0,
			"0.016": 0.0,
			"0.017": 0.0,
			"0.018": 0.0,
			"0.019": 0.0,
			"0.02": 0.0,
			"0.021": 0.0,
			"0.022": 0.0,
			"0.023": 0.0,
			"0.024": 0.0,
			"0.025": 0.0
		}
	}
}
