{
	 "smiles": "CCC(C)(C)C1=CC(=C(OCCCC(O)=O)C=C1)C(C)(C)CC", 
	 "Tm": 373.15, 
	 "num_atms": 55, 
	 "gaussian": { 
		 "optdone": 1, 
		 "sigma_profile": "yes", 
		 "theory": "DFT", 
		 "functional": "B3LYP", 
		 "basiset": "6-31G**", 
		 "properties": { 
			 "R2extent": 9763.3912, 
			 "electric_dipole_moment_norm": 2.1838331667, 
			 "electric_quadrupole_moment_norm": 16.5908912166, 
			 "total_energy": -1007.12717327, 
			 "HOMO_LUMO_gap": 0.21242, 
			 "cosmo_polarized_energy": -12.02, 
			 "cosmo_cavitation_energy": 50.91, 
			 "cosmo_dispersion_energy": -33.38, 
			 "cosmo_repulsion_energy": 2.51, 
			 "cosmo_total_nonelectrostatic_energy": 20.04, 
			 "SMD_solvation_energy": 9.14 
		},
		"coords": [
			{
				"x": 2.780133278,
				"y": -2.054868524,
				"z": -2.6626656054,
				"element": "C" 
			},
			{
				"x": 1.6259860101,
				"y": -2.4495253256,
				"z": -3.5903206562,
				"element": "C" 
			},
			{
				"x": 0.2687071034,
				"y": -2.7699903902,
				"z": -2.8951893504,
				"element": "C" 
			},
			{
				"x": 0.4378558385,
				"y": -4.0061800525,
				"z": -1.9902757125,
				"element": "C" 
			},
			{
				"x": -0.7591164358,
				"y": -3.1350760531,
				"z": -3.9942177694,
				"element": "C" 
			},
			{
				"x": -0.2399269655,
				"y": -1.5377700209,
				"z": -2.1231423336,
				"element": "C" 
			},
			{
				"x": -0.5132850862,
				"y": -1.5569685884,
				"z": -0.7472894281,
				"element": "C" 
			},
			{
				"x": -0.9925289688,
				"y": -0.4616510389,
				"z": -0.0132600383,
				"element": "C" 
			},
			{
				"x": -1.1979638638,
				"y": 0.7413497985,
				"z": -0.7347674927,
				"element": "C" 
			},
			{
				"x": -1.6568383067,
				"y": 1.8473766416,
				"z": -0.0504268089,
				"element": "O" 
			},
			{
				"x": -2.0529051113,
				"y": 2.9893036578,
				"z": -0.8052005069,
				"element": "C" 
			},
			{
				"x": -2.673188333,
				"y": 4.032971047,
				"z": 0.1162915021,
				"element": "C" 
			},
			{
				"x": -1.711596432,
				"y": 4.6144767528,
				"z": 1.1632844423,
				"element": "C" 
			},
			{
				"x": -1.6544507245,
				"y": 3.7986967825,
				"z": 2.4380956933,
				"element": "C" 
			},
			{
				"x": -0.4246094723,
				"y": 3.8275921374,
				"z": 3.0011950715,
				"element": "O" 
			},
			{
				"x": -2.5922726122,
				"y": 3.2183480897,
				"z": 2.9418547268,
				"element": "O" 
			},
			{
				"x": -0.9330876563,
				"y": 0.7899066334,
				"z": -2.1083824672,
				"element": "C" 
			},
			{
				"x": -0.4636388089,
				"y": -0.3305095242,
				"z": -2.7890488755,
				"element": "C" 
			},
			{
				"x": -1.2568425878,
				"y": -0.5816937242,
				"z": 1.5069782969,
				"element": "C" 
			},
			{
				"x": -2.7177840136,
				"y": -0.1777709394,
				"z": 1.8316615764,
				"element": "C" 
			},
			{
				"x": -1.0775894444,
				"y": -2.0336525011,
				"z": 2.0019840052,
				"element": "C" 
			},
			{
				"x": -0.2186774927,
				"y": 0.3237767713,
				"z": 2.2432239899,
				"element": "C" 
			},
			{
				"x": -0.3927565286,
				"y": 0.467087564,
				"z": 3.7617295319,
				"element": "C" 
			},
			{
				"x": 3.0562631435,
				"y": -2.866805613,
				"z": -1.9823673552,
				"element": "H" 
			},
			{
				"x": 2.5203909483,
				"y": -1.1828355363,
				"z": -2.05462468,
				"element": "H" 
			},
			{
				"x": 3.6716915266,
				"y": -1.8028865504,
				"z": -3.2465470861,
				"element": "H" 
			},
			{
				"x": 1.4652785875,
				"y": -1.643972994,
				"z": -4.3173534653,
				"element": "H" 
			},
			{
				"x": 1.9172779484,
				"y": -3.3297659348,
				"z": -4.1796205429,
				"element": "H" 
			},
			{
				"x": 0.8164444147,
				"y": -4.8465404235,
				"z": -2.5820328252,
				"element": "H" 
			},
			{
				"x": -0.5170448874,
				"y": -4.3159135092,
				"z": -1.5531359065,
				"element": "H" 
			},
			{
				"x": 1.1418941209,
				"y": -3.835701542,
				"z": -1.1709873028,
				"element": "H" 
			},
			{
				"x": -0.4235278493,
				"y": -4.012409864,
				"z": -4.5595059929,
				"element": "H" 
			},
			{
				"x": -0.9010358868,
				"y": -2.3156351377,
				"z": -4.7054470388,
				"element": "H" 
			},
			{
				"x": -1.7347381457,
				"y": -3.367011649,
				"z": -3.5546356376,
				"element": "H" 
			},
			{
				"x": -0.3499503205,
				"y": -2.4813002961,
				"z": -0.2140050596,
				"element": "H" 
			},
			{
				"x": -1.1818107967,
				"y": 3.4198137618,
				"z": -1.3221089708,
				"element": "H" 
			},
			{
				"x": -2.7831856762,
				"y": 2.6935528228,
				"z": -1.5710119418,
				"element": "H" 
			},
			{
				"x": -3.5450271424,
				"y": 3.6127175117,
				"z": 0.6268728469,
				"element": "H" 
			},
			{
				"x": -3.0335612428,
				"y": 4.8425992762,
				"z": -0.5287249697,
				"element": "H" 
			},
			{
				"x": -2.0584248252,
				"y": 5.6111789816,
				"z": 1.4658660784,
				"element": "H" 
			},
			{
				"x": -0.7006684565,
				"y": 4.7431375099,
				"z": 0.7656275722,
				"element": "H" 
			},
			{
				"x": -0.4824087397,
				"y": 3.2942517026,
				"z": 3.8124067071,
				"element": "H" 
			},
			{
				"x": -1.0857934142,
				"y": 1.7062196265,
				"z": -2.6643189521,
				"element": "H" 
			},
			{
				"x": -0.2743486956,
				"y": -0.2426982629,
				"z": -3.85497139,
				"element": "H" 
			},
			{
				"x": -3.4120024508,
				"y": -0.7637425226,
				"z": 1.2192335047,
				"element": "H" 
			},
			{
				"x": -2.9475058083,
				"y": -0.3895154186,
				"z": 2.8808032441,
				"element": "H" 
			},
			{
				"x": -2.9060210834,
				"y": 0.8793150885,
				"z": 1.6535735644,
				"element": "H" 
			},
			{
				"x": -1.7498332316,
				"y": -2.723567642,
				"z": 1.4814947766,
				"element": "H" 
			},
			{
				"x": -1.3196151407,
				"y": -2.0929193052,
				"z": 3.0664167904,
				"element": "H" 
			},
			{
				"x": -0.0509838669,
				"y": -2.3948309413,
				"z": 1.879552547,
				"element": "H" 
			},
			{
				"x": -0.2402209459,
				"y": 1.3205696045,
				"z": 1.7975324501,
				"element": "H" 
			},
			{
				"x": 0.7792529406,
				"y": -0.0833700269,
				"z": 2.0334503923,
				"element": "H" 
			},
			{
				"x": -1.3372423033,
				"y": 0.959789978,
				"z": 4.0135099906,
				"element": "H" 
			},
			{
				"x": 0.4271356706,
				"y": 1.0685667685,
				"z": 4.1744899685,
				"element": "H" 
			},
			{
				"x": -0.3661017765,
				"y": -0.4944186566,
				"z": 4.2839568926,
				"element": "H" 
			}
		],
		 "valence_orbital": [ 
			{
				"type": "occ",
				"energy": -0.29511,
				"method": "rhf"
			},
			{
				"type": "occ",
				"energy": -0.29087,
				"method": "rhf"
			},
			{
				"type": "occ",
				"energy": -0.2755,
				"method": "rhf"
			},
			{
				"type": "occ",
				"energy": -0.23622,
				"method": "rhf"
			},
			{
				"type": "occ",
				"energy": -0.20649,
				"method": "rhf"
			},
			{
				"type": "unocc",
				"energy": 0.00593,
				"method": "rhf"
			},
			{
				"type": "unocc",
				"energy": 0.00815,
				"method": "rhf"
			},
			{
				"type": "unocc",
				"energy": 0.01948,
				"method": "rhf"
			},
			{
				"type": "unocc",
				"energy": 0.06674,
				"method": "rhf"
			},
			{
				"type": "unocc",
				"energy": 0.08288,
				"method": "rhf"
			}
		],
		"cosmo_sigma_profile": { 
			"-0.025": 0.0,
			"-0.024": 0.0,
			"-0.023": 0.0,
			"-0.022": 0.0,
			"-0.021": 0.0,
			"-0.02": 0.0,
			"-0.019": 0.0,
			"-0.018": 0.0,
			"-0.017": 0.0,
			"-0.016": 0.233789805266,
			"-0.015": 0.528772674618,
			"-0.014": 0.754641720218,
			"-0.013": 0.816965178779,
			"-0.012": 0.294609787653,
			"-0.011": 0.724219153667,
			"-0.01": 1.15235115458,
			"-0.009": 1.35039874975,
			"-0.008": 0.804726816128,
			"-0.007": 3.03002812744,
			"-0.006": 6.75271750992,
			"-0.005": 18.0142255121,
			"-0.004": 22.7111996034,
			"-0.003": 30.0089170753,
			"-0.002": 50.3638215793,
			"-0.001": 48.2775654639,
			"0.0": 45.3772486471,
			"0.001": 48.4800653801,
			"0.002": 39.3051148566,
			"0.003": 16.7611594732,
			"0.004": 13.9258329649,
			"0.005": 10.9297545506,
			"0.006": 11.4368428402,
			"0.007": 7.00274248724,
			"0.008": 3.87900309471,
			"0.009": 3.41509950654,
			"0.01": 2.55996483019,
			"0.011": 2.00748522886,
			"0.012": 2.97974502799,
			"0.013": 0.168082917899,
			"0.014": 0.0,
			"0.015": 0.0,
			"0.016": 0.0,
			"0.017": 0.0,
			"0.018": 0.0,
			"0.019": 0.0,
			"0.02": 0.0,
			"0.021": 0.0,
			"0.022": 0.0,
			"0.023": 0.0,
			"0.024": 0.0,
			"0.025": 0.0
		}
	}
}
