{
	 "smiles": "BrCC1=CC=C(C=C1)N1C=CC=C1", 
	 "Tm": 361.65, 
	 "num_atms": 23, 
	 "gaussian": { 
		 "optdone": 1, 
		 "sigma_profile": "yes", 
		 "theory": "DFT", 
		 "functional": "B3LYP", 
		 "basiset": "6-31G**", 
		 "properties": { 
			 "R2extent": 6873.297, 
			 "electric_dipole_moment_norm": 1.8932654357, 
			 "electric_quadrupole_moment_norm": 13.9024570818, 
			 "total_energy": -3051.34485842, 
			 "HOMO_LUMO_gap": 0.16988, 
			 "cosmo_polarized_energy": -8.88, 
			 "cosmo_cavitation_energy": 29.32, 
			 "cosmo_dispersion_energy": -21.6, 
			 "cosmo_repulsion_energy": 1.69, 
			 "cosmo_total_nonelectrostatic_energy": 9.42, 
			 "SMD_solvation_energy": 4.34 
		},
		"coords": [
			{
				"x": -2.8221694033,
				"y": 4.1780749983,
				"z": -2.9624339323,
				"element": "Br" 
			},
			{
				"x": -1.4822729612,
				"y": 4.1284371898,
				"z": -1.4614328778,
				"element": "C" 
			},
			{
				"x": -0.9793919999,
				"y": 2.7507448635,
				"z": -1.1917490067,
				"element": "C" 
			},
			{
				"x": 0.1644070114,
				"y": 2.2633927777,
				"z": -1.8388695056,
				"element": "C" 
			},
			{
				"x": 0.6412765046,
				"y": 0.9810355316,
				"z": -1.5878305852,
				"element": "C" 
			},
			{
				"x": -0.0139754962,
				"y": 0.1569692116,
				"z": -0.6622585555,
				"element": "C" 
			},
			{
				"x": -1.1551500187,
				"y": 0.6361231068,
				"z": -0.0035125374,
				"element": "C" 
			},
			{
				"x": -1.6329534186,
				"y": 1.9132577037,
				"z": -0.2771984709,
				"element": "C" 
			},
			{
				"x": 0.4723576767,
				"y": -1.1426014479,
				"z": -0.393512076,
				"element": "N" 
			},
			{
				"x": -0.3026984341,
				"y": -2.2499318062,
				"z": -0.0845844195,
				"element": "C" 
			},
			{
				"x": 0.5334469999,
				"y": -3.323368153,
				"z": 0.1057433147,
				"element": "C" 
			},
			{
				"x": 1.8705771044,
				"y": -2.8624982486,
				"z": -0.0836939936,
				"element": "C" 
			},
			{
				"x": 1.8049645305,
				"y": -1.5255627144,
				"z": -0.3933641111,
				"element": "C" 
			},
			{
				"x": -0.6979673186,
				"y": 4.8088786444,
				"z": -1.7874332546,
				"element": "H" 
			},
			{
				"x": -2.0197656833,
				"y": 4.5553267168,
				"z": -0.6167822406,
				"element": "H" 
			},
			{
				"x": 0.6779241197,
				"y": 2.8892956712,
				"z": -2.5637717704,
				"element": "H" 
			},
			{
				"x": 1.5065252762,
				"y": 0.6065665423,
				"z": -2.1239248143,
				"element": "H" 
			},
			{
				"x": -1.6474990801,
				"y": 0.0173167629,
				"z": 0.7387448407,
				"element": "H" 
			},
			{
				"x": -2.5202446791,
				"y": 2.2711530406,
				"z": 0.2381313611,
				"element": "H" 
			},
			{
				"x": -1.3795897053,
				"y": -2.1832129966,
				"z": -0.081912385,
				"element": "H" 
			},
			{
				"x": 0.2211155442,
				"y": -4.3307785248,
				"z": 0.342501881,
				"element": "H" 
			},
			{
				"x": 2.7771543493,
				"y": -3.4440162933,
				"z": 0.0082684027,
				"element": "H" 
			},
			{
				"x": 2.5852290814,
				"y": -0.7997025763,
				"z": -0.5620252638,
				"element": "H" 
			}
		],
		 "valence_orbital": [ 
			{
				"type": "occ",
				"energy": -0.2729,
				"method": "rhf"
			},
			{
				"type": "occ",
				"energy": -0.26849,
				"method": "rhf"
			},
			{
				"type": "occ",
				"energy": -0.26557,
				"method": "rhf"
			},
			{
				"type": "occ",
				"energy": -0.22262,
				"method": "rhf"
			},
			{
				"type": "occ",
				"energy": -0.21469,
				"method": "rhf"
			},
			{
				"type": "unocc",
				"energy": -0.04481,
				"method": "rhf"
			},
			{
				"type": "unocc",
				"energy": -0.019,
				"method": "rhf"
			},
			{
				"type": "unocc",
				"energy": 0.01381,
				"method": "rhf"
			},
			{
				"type": "unocc",
				"energy": 0.04967,
				"method": "rhf"
			},
			{
				"type": "unocc",
				"energy": 0.07654,
				"method": "rhf"
			}
		],
		"cosmo_sigma_profile": { 
			"-0.025": 0.0,
			"-0.024": 0.0,
			"-0.023": 0.0,
			"-0.022": 0.0,
			"-0.021": 0.0,
			"-0.02": 0.0,
			"-0.019": 0.0,
			"-0.018": 0.0,
			"-0.017": 0.0,
			"-0.016": 0.0,
			"-0.015": 0.0,
			"-0.014": 0.0,
			"-0.013": 0.0,
			"-0.012": 0.0,
			"-0.011": 0.0,
			"-0.01": 0.0,
			"-0.009": 0.0,
			"-0.008": 3.51132765161,
			"-0.007": 15.4851267869,
			"-0.006": 16.7048619369,
			"-0.005": 17.213595405,
			"-0.004": 15.8528883402,
			"-0.003": 12.9315928839,
			"-0.002": 14.0074876435,
			"-0.001": 14.0943670122,
			"0.0": 14.018127216,
			"0.001": 14.8805660116,
			"0.002": 16.4938281433,
			"0.003": 17.6272198655,
			"0.004": 19.7932714467,
			"0.005": 13.0440907523,
			"0.006": 15.8268059733,
			"0.007": 11.5244764146,
			"0.008": 4.85641194804,
			"0.009": 0.408125430424,
			"0.01": 0.0,
			"0.011": 0.0,
			"0.012": 0.0,
			"0.013": 0.0,
			"0.014": 0.0,
			"0.015": 0.0,
			"0.016": 0.0,
			"0.017": 0.0,
			"0.018": 0.0,
			"0.019": 0.0,
			"0.02": 0.0,
			"0.021": 0.0,
			"0.022": 0.0,
			"0.023": 0.0,
			"0.024": 0.0,
			"0.025": 0.0
		}
	}
}
