{
	 "smiles": "COC1=CC2=C(OC(C(C)=O)=C2C)C=C1", 
	 "Tm": 370.15, 
	 "num_atms": 27, 
	 "gaussian": { 
		 "optdone": 1, 
		 "sigma_profile": "yes", 
		 "theory": "DFT", 
		 "functional": "B3LYP", 
		 "basiset": "6-31G**", 
		 "properties": { 
			 "R2extent": 4061.06, 
			 "electric_dipole_moment_norm": 4.01185845214, 
			 "electric_quadrupole_moment_norm": 23.8512448897, 
			 "total_energy": -690.162275793, 
			 "HOMO_LUMO_gap": 0.15491, 
			 "cosmo_polarized_energy": -13.66, 
			 "cosmo_cavitation_energy": 30.84, 
			 "cosmo_dispersion_energy": -22.59, 
			 "cosmo_repulsion_energy": 1.74, 
			 "cosmo_total_nonelectrostatic_energy": 9.99, 
			 "SMD_solvation_energy": 7.07 
		},
		"coords": [
			{
				"x": -3.6949347953,
				"y": 0.0836049117,
				"z": -3.2512845301,
				"element": "C" 
			},
			{
				"x": -2.3354401522,
				"y": -0.2923249451,
				"z": -3.1114461345,
				"element": "O" 
			},
			{
				"x": -1.7342906462,
				"y": -0.1421960256,
				"z": -1.8905544904,
				"element": "C" 
			},
			{
				"x": -0.3961046188,
				"y": -0.5326045423,
				"z": -1.8288205293,
				"element": "C" 
			},
			{
				"x": 0.2792519422,
				"y": -0.404965332,
				"z": -0.6078810996,
				"element": "C" 
			},
			{
				"x": -0.4012097273,
				"y": 0.1077916962,
				"z": 0.5121898838,
				"element": "C" 
			},
			{
				"x": 0.42168715,
				"y": 0.1522685732,
				"z": 1.5928128142,
				"element": "O" 
			},
			{
				"x": 1.6439645977,
				"y": -0.3336141698,
				"z": 1.1754072773,
				"element": "C" 
			},
			{
				"x": 2.6793469803,
				"y": -0.3614250617,
				"z": 2.22873472,
				"element": "C" 
			},
			{
				"x": 4.0598698913,
				"y": -0.8806560536,
				"z": 1.8660247345,
				"element": "C" 
			},
			{
				"x": 2.425247463,
				"y": 0.0247378675,
				"z": 3.359528829,
				"element": "O" 
			},
			{
				"x": 1.6198518852,
				"y": -0.6898122625,
				"z": -0.156654307,
				"element": "C" 
			},
			{
				"x": 2.7094616883,
				"y": -1.2570635427,
				"z": -1.02055603,
				"element": "C" 
			},
			{
				"x": -1.7322713337,
				"y": 0.5011548638,
				"z": 0.4692812875,
				"element": "C" 
			},
			{
				"x": -2.3957988637,
				"y": 0.3704265836,
				"z": -0.7497554849,
				"element": "C" 
			},
			{
				"x": -4.3508235335,
				"y": -0.5032869458,
				"z": -2.5947813181,
				"element": "H" 
			},
			{
				"x": -3.9573408874,
				"y": -0.120073144,
				"z": -4.2906824582,
				"element": "H" 
			},
			{
				"x": -3.8467173205,
				"y": 1.1515812803,
				"z": -3.0463046732,
				"element": "H" 
			},
			{
				"x": 0.0800402267,
				"y": -0.9213692246,
				"z": -2.722675033,
				"element": "H" 
			},
			{
				"x": 4.0160212221,
				"y": -1.9164967078,
				"z": 1.5130204339,
				"element": "H" 
			},
			{
				"x": 4.5138127741,
				"y": -0.2827947936,
				"z": 1.0685097063,
				"element": "H" 
			},
			{
				"x": 4.6857223216,
				"y": -0.8287020261,
				"z": 2.7575826154,
				"element": "H" 
			},
			{
				"x": 2.3384492392,
				"y": -1.4214379905,
				"z": -2.0349485567,
				"element": "H" 
			},
			{
				"x": 3.5714236763,
				"y": -0.585777424,
				"z": -1.0925073457,
				"element": "H" 
			},
			{
				"x": 3.0751217827,
				"y": -2.218855822,
				"z": -0.6463486516,
				"element": "H" 
			},
			{
				"x": -2.2332390546,
				"y": 0.8932495648,
				"z": 1.347368416,
				"element": "H" 
			},
			{
				"x": -3.4347019073,
				"y": 0.6696406727,
				"z": -0.8120600758,
				"element": "H" 
			}
		],
		 "valence_orbital": [ 
			{
				"type": "occ",
				"energy": -0.31099,
				"method": "rhf"
			},
			{
				"type": "occ",
				"energy": -0.29124,
				"method": "rhf"
			},
			{
				"type": "occ",
				"energy": -0.24566,
				"method": "rhf"
			},
			{
				"type": "occ",
				"energy": -0.22655,
				"method": "rhf"
			},
			{
				"type": "occ",
				"energy": -0.21501,
				"method": "rhf"
			},
			{
				"type": "unocc",
				"energy": -0.0601,
				"method": "rhf"
			},
			{
				"type": "unocc",
				"energy": 0.00649,
				"method": "rhf"
			},
			{
				"type": "unocc",
				"energy": 0.02644,
				"method": "rhf"
			},
			{
				"type": "unocc",
				"energy": 0.06707,
				"method": "rhf"
			},
			{
				"type": "unocc",
				"energy": 0.07826,
				"method": "rhf"
			}
		],
		"cosmo_sigma_profile": { 
			"-0.025": 0.0,
			"-0.024": 0.0,
			"-0.023": 0.0,
			"-0.022": 0.0,
			"-0.021": 0.0,
			"-0.02": 0.0,
			"-0.019": 0.0,
			"-0.018": 0.0,
			"-0.017": 0.0,
			"-0.016": 0.0,
			"-0.015": 0.0,
			"-0.014": 0.0,
			"-0.013": 0.0,
			"-0.012": 0.0,
			"-0.011": 0.0,
			"-0.01": 0.0,
			"-0.009": 0.0,
			"-0.008": 0.180793148394,
			"-0.007": 7.55295781008,
			"-0.006": 18.5909228509,
			"-0.005": 23.3689894502,
			"-0.004": 21.4202318627,
			"-0.003": 22.6417116471,
			"-0.002": 20.661580132,
			"-0.001": 20.4474591068,
			"0.0": 15.0249721394,
			"0.001": 14.2540515986,
			"0.002": 13.799040078,
			"0.003": 15.8724696962,
			"0.004": 14.0520282833,
			"0.005": 4.29468963768,
			"0.006": 4.23617912026,
			"0.007": 3.845965397,
			"0.008": 2.89367351328,
			"0.009": 3.48795372718,
			"0.01": 4.56454912512,
			"0.011": 3.43909100482,
			"0.012": 5.29412128066,
			"0.013": 3.70981148651,
			"0.014": 1.68868913909,
			"0.015": 0.155630997716,
			"0.016": 0.0,
			"0.017": 0.0,
			"0.018": 0.0,
			"0.019": 0.0,
			"0.02": 0.0,
			"0.021": 0.0,
			"0.022": 0.0,
			"0.023": 0.0,
			"0.024": 0.0,
			"0.025": 0.0
		}
	}
}
