{
	 "smiles": "CC(C)(O)C(Br)(Br)Br", 
	 "Tm": 442.15, 
	 "num_atms": 15, 
	 "gaussian": { 
		 "optdone": 1, 
		 "sigma_profile": "yes", 
		 "theory": "DFT", 
		 "functional": "B3LYP", 
		 "basiset": "6-31G**", 
		 "properties": { 
			 "R2extent": 5025.2183, 
			 "electric_dipole_moment_norm": 3.19097656995, 
			 "electric_quadrupole_moment_norm": 3.65338898148, 
			 "total_energy": -7946.05909301, 
			 "HOMO_LUMO_gap": 0.20362, 
			 "cosmo_polarized_energy": -8.83, 
			 "cosmo_cavitation_energy": 23.36, 
			 "cosmo_dispersion_energy": -18.13, 
			 "cosmo_repulsion_energy": 1.46, 
			 "cosmo_total_nonelectrostatic_energy": 6.69, 
			 "SMD_solvation_energy": 1.27 
		},
		"coords": [
			{
				"x": -1.5986689127,
				"y": 0.6962872934,
				"z": -0.2686840754,
				"element": "C" 
			},
			{
				"x": -0.1270392186,
				"y": 0.6731154729,
				"z": 0.1821597056,
				"element": "C" 
			},
			{
				"x": 0.7985514475,
				"y": 0.5211958701,
				"z": -1.0383356022,
				"element": "C" 
			},
			{
				"x": 0.0872388969,
				"y": -0.3990707319,
				"z": 1.0929422044,
				"element": "O" 
			},
			{
				"x": 0.2359814371,
				"y": 1.9473120691,
				"z": 1.0232218459,
				"element": "C" 
			},
			{
				"x": 0.0082629384,
				"y": 3.5875023986,
				"z": -0.0525940749,
				"element": "Br" 
			},
			{
				"x": -0.9110941479,
				"y": 2.0989900536,
				"z": 2.6213630215,
				"element": "Br" 
			},
			{
				"x": 2.1054658279,
				"y": 1.8810032146,
				"z": 1.6503033299,
				"element": "Br" 
			},
			{
				"x": -1.8050064523,
				"y": -0.2318771153,
				"z": -0.8127371566,
				"element": "H" 
			},
			{
				"x": -1.8083833625,
				"y": 1.5314999482,
				"z": -0.939559503,
				"element": "H" 
			},
			{
				"x": -2.2680123342,
				"y": 0.7484869735,
				"z": 0.5904704793,
				"element": "H" 
			},
			{
				"x": 0.5260855569,
				"y": -0.4015007591,
				"z": -1.562215827,
				"element": "H" 
			},
			{
				"x": 1.8413455204,
				"y": 0.4468998483,
				"z": -0.7286017489,
				"element": "H" 
			},
			{
				"x": 0.689759355,
				"y": 1.3497974133,
				"z": -1.7406316425,
				"element": "H" 
			},
			{
				"x": -0.1217865518,
				"y": -1.2201419492,
				"z": 0.6290990437,
				"element": "H" 
			}
		],
		 "valence_orbital": [ 
			{
				"type": "occ",
				"energy": -0.30013,
				"method": "rhf"
			},
			{
				"type": "occ",
				"energy": -0.29055,
				"method": "rhf"
			},
			{
				"type": "occ",
				"energy": -0.27938,
				"method": "rhf"
			},
			{
				"type": "occ",
				"energy": -0.27471,
				"method": "rhf"
			},
			{
				"type": "occ",
				"energy": -0.26616,
				"method": "rhf"
			},
			{
				"type": "unocc",
				"energy": -0.06254,
				"method": "rhf"
			},
			{
				"type": "unocc",
				"energy": -0.01609,
				"method": "rhf"
			},
			{
				"type": "unocc",
				"energy": -0.01162,
				"method": "rhf"
			},
			{
				"type": "unocc",
				"energy": 0.06292,
				"method": "rhf"
			},
			{
				"type": "unocc",
				"energy": 0.11879,
				"method": "rhf"
			}
		],
		"cosmo_sigma_profile": { 
			"-0.025": 0.0,
			"-0.024": 0.0,
			"-0.023": 0.0,
			"-0.022": 0.0,
			"-0.021": 0.0,
			"-0.02": 0.0,
			"-0.019": 0.0,
			"-0.018": 0.0,
			"-0.017": 0.12199966642,
			"-0.016": 0.914190733646,
			"-0.015": 1.12087691288,
			"-0.014": 1.03138548656,
			"-0.013": 1.02433403754,
			"-0.012": 1.56760398931,
			"-0.011": 0.947834145613,
			"-0.01": 0.679893578052,
			"-0.009": 1.24177044953,
			"-0.008": 1.55374925515,
			"-0.007": 1.57923174638,
			"-0.006": 3.73546767896,
			"-0.005": 7.32311291537,
			"-0.004": 9.51504455647,
			"-0.003": 15.0505555386,
			"-0.002": 16.251081455,
			"-0.001": 20.857024006,
			"0.0": 20.5318760667,
			"0.001": 15.8255452302,
			"0.002": 13.6445404337,
			"0.003": 18.3871592061,
			"0.004": 21.9316087293,
			"0.005": 3.361699252,
			"0.006": 2.98579037152,
			"0.007": 1.46756472063,
			"0.008": 1.75826061495,
			"0.009": 2.11712378052,
			"0.01": 2.21450761752,
			"0.011": 2.19156264911,
			"0.012": 1.62316788438,
			"0.013": 0.0,
			"0.014": 0.0,
			"0.015": 0.0,
			"0.016": 0.0,
			"0.017": 0.0,
			"0.018": 0.0,
			"0.019": 0.0,
			"0.02": 0.0,
			"0.021": 0.0,
			"0.022": 0.0,
			"0.023": 0.0,
			"0.024": 0.0,
			"0.025": 0.0
		}
	}
}
