{
	 "smiles": "CCCCC(=O)C1=CC=CC=C1", 
	 "Tm": 263.95, 
	 "num_atms": 26, 
	 "gaussian": { 
		 "optdone": 1, 
		 "sigma_profile": "yes", 
		 "theory": "DFT", 
		 "functional": "B3LYP", 
		 "basiset": "6-31G**", 
		 "properties": { 
			 "R2extent": 2902.5881, 
			 "electric_dipole_moment_norm": 2.82316887557, 
			 "electric_quadrupole_moment_norm": 7.37130398437, 
			 "total_energy": -502.845670993, 
			 "HOMO_LUMO_gap": 0.18732, 
			 "cosmo_polarized_energy": -7.71, 
			 "cosmo_cavitation_energy": 28.76, 
			 "cosmo_dispersion_energy": -20.49, 
			 "cosmo_repulsion_energy": 1.66, 
			 "cosmo_total_nonelectrostatic_energy": 9.92, 
			 "SMD_solvation_energy": 5.14 
		},
		"coords": [
			{
				"x": -2.3947251969,
				"y": 3.6766536596,
				"z": -0.5629810227,
				"element": "C" 
			},
			{
				"x": -2.2583811527,
				"y": 2.1715329996,
				"z": -0.312568591,
				"element": "C" 
			},
			{
				"x": -1.1058475531,
				"y": 1.5428894774,
				"z": -1.1068778907,
				"element": "C" 
			},
			{
				"x": -0.9496547256,
				"y": 0.019106396,
				"z": -0.8867852434,
				"element": "C" 
			},
			{
				"x": -0.5708463794,
				"y": -0.3324813345,
				"z": 0.5464105393,
				"element": "C" 
			},
			{
				"x": -1.4346701385,
				"y": -0.6764986108,
				"z": 1.3423346426,
				"element": "O" 
			},
			{
				"x": 0.8605449196,
				"y": -0.2186811097,
				"z": 0.9894634825,
				"element": "C" 
			},
			{
				"x": 1.1496549896,
				"y": -0.4779344375,
				"z": 2.3395644785,
				"element": "C" 
			},
			{
				"x": 2.4546154954,
				"y": -0.3929789662,
				"z": 2.8137513756,
				"element": "C" 
			},
			{
				"x": 3.4933112241,
				"y": -0.0458903202,
				"z": 1.9438671503,
				"element": "C" 
			},
			{
				"x": 3.219095409,
				"y": 0.2142952854,
				"z": 0.6002456786,
				"element": "C" 
			},
			{
				"x": 1.9102486787,
				"y": 0.1280661169,
				"z": 0.1244397171,
				"element": "C" 
			},
			{
				"x": -1.4847053252,
				"y": 4.2126474988,
				"z": -0.2694704463,
				"element": "H" 
			},
			{
				"x": -2.5755202042,
				"y": 3.8900136922,
				"z": -1.6229896861,
				"element": "H" 
			},
			{
				"x": -3.2273447371,
				"y": 4.1005804446,
				"z": 0.0074535127,
				"element": "H" 
			},
			{
				"x": -2.1145616633,
				"y": 1.9863156674,
				"z": 0.7583125604,
				"element": "H" 
			},
			{
				"x": -3.1952291133,
				"y": 1.6653818819,
				"z": -0.5799233566,
				"element": "H" 
			},
			{
				"x": -0.1663616367,
				"y": 2.0513294325,
				"z": -0.8534391502,
				"element": "H" 
			},
			{
				"x": -1.268130716,
				"y": 1.7164502824,
				"z": -2.1786646028,
				"element": "H" 
			},
			{
				"x": -1.9026783345,
				"y": -0.4794615081,
				"z": -1.0869176518,
				"element": "H" 
			},
			{
				"x": -0.2099373728,
				"y": -0.3797697598,
				"z": -1.5893986414,
				"element": "H" 
			},
			{
				"x": 0.3265816668,
				"y": -0.7461172179,
				"z": 2.9933876948,
				"element": "H" 
			},
			{
				"x": 2.6664197771,
				"y": -0.5962450328,
				"z": 3.8595552861,
				"element": "H" 
			},
			{
				"x": 4.5130018155,
				"y": 0.0205115511,
				"z": 2.3127279568,
				"element": "H" 
			},
			{
				"x": 4.023786444,
				"y": 0.4828095278,
				"z": -0.0779904506,
				"element": "H" 
			},
			{
				"x": 1.7150338296,
				"y": 0.331674384,
				"z": -0.9231073415,
				"element": "H" 
			}
		],
		 "valence_orbital": [ 
			{
				"type": "occ",
				"energy": -0.32608,
				"method": "rhf"
			},
			{
				"type": "occ",
				"energy": -0.32322,
				"method": "rhf"
			},
			{
				"type": "occ",
				"energy": -0.26038,
				"method": "rhf"
			},
			{
				"type": "occ",
				"energy": -0.25684,
				"method": "rhf"
			},
			{
				"type": "occ",
				"energy": -0.24198,
				"method": "rhf"
			},
			{
				"type": "unocc",
				"energy": -0.05466,
				"method": "rhf"
			},
			{
				"type": "unocc",
				"energy": -0.00937,
				"method": "rhf"
			},
			{
				"type": "unocc",
				"energy": 0.03933,
				"method": "rhf"
			},
			{
				"type": "unocc",
				"energy": 0.08527,
				"method": "rhf"
			},
			{
				"type": "unocc",
				"energy": 0.10199,
				"method": "rhf"
			}
		],
		"cosmo_sigma_profile": { 
			"-0.025": 0.0,
			"-0.024": 0.0,
			"-0.023": 0.0,
			"-0.022": 0.0,
			"-0.021": 0.0,
			"-0.02": 0.0,
			"-0.019": 0.0,
			"-0.018": 0.0,
			"-0.017": 0.0,
			"-0.016": 0.0,
			"-0.015": 0.0,
			"-0.014": 0.0,
			"-0.013": 0.0,
			"-0.012": 0.0,
			"-0.011": 0.0,
			"-0.01": 0.0,
			"-0.009": 0.0,
			"-0.008": 0.02812680316,
			"-0.007": 2.46028030494,
			"-0.006": 9.40963153938,
			"-0.005": 11.4752442891,
			"-0.004": 15.0521913181,
			"-0.003": 19.7997537225,
			"-0.002": 32.1463768064,
			"-0.001": 27.3383777,
			"0.0": 23.526243974,
			"0.001": 21.3283895514,
			"0.002": 15.0224732249,
			"0.003": 12.1662310551,
			"0.004": 13.7060218292,
			"0.005": 5.79348731211,
			"0.006": 1.81156288949,
			"0.007": 1.83720235324,
			"0.008": 1.52942278865,
			"0.009": 1.86728608541,
			"0.01": 1.89125415682,
			"0.011": 1.95568102909,
			"0.012": 4.27519042928,
			"0.013": 1.72682025468,
			"0.014": 0.27857907418,
			"0.015": 0.0,
			"0.016": 0.0,
			"0.017": 0.0,
			"0.018": 0.0,
			"0.019": 0.0,
			"0.02": 0.0,
			"0.021": 0.0,
			"0.022": 0.0,
			"0.023": 0.0,
			"0.024": 0.0,
			"0.025": 0.0
		}
	}
}
