{
	 "smiles": "OC(=O)CN1C=C(C=N1)[N+]([O-])=O", 
	 "Tm": 427.15, 
	 "num_atms": 17, 
	 "gaussian": { 
		 "optdone": 1, 
		 "sigma_profile": "yes", 
		 "theory": "DFT", 
		 "functional": "B3LYP", 
		 "basiset": "6-31G**", 
		 "properties": { 
			 "R2extent": 3001.5033, 
			 "electric_dipole_moment_norm": 2.34224489112, 
			 "electric_quadrupole_moment_norm": 25.3346501067, 
			 "total_energy": -658.57164886, 
			 "HOMO_LUMO_gap": 0.18637, 
			 "cosmo_polarized_energy": -18.76, 
			 "cosmo_cavitation_energy": 23.2, 
			 "cosmo_dispersion_energy": -17.08, 
			 "cosmo_repulsion_energy": 1.37, 
			 "cosmo_total_nonelectrostatic_energy": 7.49, 
			 "SMD_solvation_energy": 7.58 
		},
		"coords": [
			{
				"x": 1.6605117648,
				"y": -0.9523026987,
				"z": -3.0114982743,
				"element": "O" 
			},
			{
				"x": 1.4748641376,
				"y": 0.3651242861,
				"z": -3.1040752855,
				"element": "C" 
			},
			{
				"x": 1.8162522384,
				"y": 1.0190845165,
				"z": -4.0580844098,
				"element": "O" 
			},
			{
				"x": 0.8683386368,
				"y": 1.078411484,
				"z": -1.8746118308,
				"element": "C" 
			},
			{
				"x": -0.0928045334,
				"y": 0.2937842966,
				"z": -1.1030530399,
				"element": "N" 
			},
			{
				"x": -1.3045248345,
				"y": 0.667045717,
				"z": -0.6495920382,
				"element": "C" 
			},
			{
				"x": -1.7859710117,
				"y": -0.419767831,
				"z": 0.0647181004,
				"element": "C" 
			},
			{
				"x": -0.7955522993,
				"y": -1.4166086213,
				"z": -0.0114114835,
				"element": "C" 
			},
			{
				"x": 0.2369356909,
				"y": -0.9721871078,
				"z": -0.7185444991,
				"element": "N" 
			},
			{
				"x": -3.0487900291,
				"y": -0.4946445339,
				"z": 0.7380863972,
				"element": "N" 
			},
			{
				"x": -3.7776796903,
				"y": 0.4976841419,
				"z": 0.6789491529,
				"element": "O" 
			},
			{
				"x": -3.3085112256,
				"y": -1.5452785998,
				"z": 1.3253605816,
				"element": "O" 
			},
			{
				"x": 1.3101398513,
				"y": -1.2879774095,
				"z": -2.1522200749,
				"element": "H" 
			},
			{
				"x": 0.3727256984,
				"y": 1.9811855326,
				"z": -2.2286354328,
				"element": "H" 
			},
			{
				"x": 1.6966461416,
				"y": 1.371160723,
				"z": -1.218684784,
				"element": "H" 
			},
			{
				"x": -1.741491594,
				"y": 1.6346783001,
				"z": -0.8409257336,
				"element": "H" 
			},
			{
				"x": -0.8073889419,
				"y": -2.4101921958,
				"z": 0.4108226544,
				"element": "H" 
			}
		],
		 "valence_orbital": [ 
			{
				"type": "occ",
				"energy": -0.32127,
				"method": "rhf"
			},
			{
				"type": "occ",
				"energy": -0.31851,
				"method": "rhf"
			},
			{
				"type": "occ",
				"energy": -0.30959,
				"method": "rhf"
			},
			{
				"type": "occ",
				"energy": -0.30576,
				"method": "rhf"
			},
			{
				"type": "occ",
				"energy": -0.28343,
				"method": "rhf"
			},
			{
				"type": "unocc",
				"energy": -0.09706,
				"method": "rhf"
			},
			{
				"type": "unocc",
				"energy": -0.04311,
				"method": "rhf"
			},
			{
				"type": "unocc",
				"energy": -0.00844,
				"method": "rhf"
			},
			{
				"type": "unocc",
				"energy": 0.04483,
				"method": "rhf"
			},
			{
				"type": "unocc",
				"energy": 0.05422,
				"method": "rhf"
			}
		],
		"cosmo_sigma_profile": { 
			"-0.025": 0.0,
			"-0.024": 0.0,
			"-0.023": 0.0,
			"-0.022": 0.0,
			"-0.021": 0.0,
			"-0.02": 0.0,
			"-0.019": 0.0,
			"-0.018": 0.0,
			"-0.017": 0.0,
			"-0.016": 0.0,
			"-0.015": 0.0,
			"-0.014": 0.0978061621179,
			"-0.013": 1.59825163559,
			"-0.012": 2.89998680781,
			"-0.011": 3.51010560439,
			"-0.01": 7.17905098462,
			"-0.009": 6.45826117565,
			"-0.008": 8.53147634555,
			"-0.007": 8.7443383024,
			"-0.006": 8.75410302015,
			"-0.005": 9.14078963264,
			"-0.004": 8.84061117178,
			"-0.003": 12.1860247766,
			"-0.002": 12.6131648546,
			"-0.001": 9.00557724033,
			"0.0": 6.03850244444,
			"0.001": 5.71869520432,
			"0.002": 3.68608976922,
			"0.003": 5.41012293494,
			"0.004": 5.09175739129,
			"0.005": 5.66450547626,
			"0.006": 5.62722334867,
			"0.007": 11.6939259137,
			"0.008": 11.9068234371,
			"0.009": 8.40446288925,
			"0.01": 7.5112610648,
			"0.011": 5.65387217194,
			"0.012": 3.84746977214,
			"0.013": 0.666114480641,
			"0.014": 0.0,
			"0.015": 0.0,
			"0.016": 0.0,
			"0.017": 0.0,
			"0.018": 0.0,
			"0.019": 0.0,
			"0.02": 0.0,
			"0.021": 0.0,
			"0.022": 0.0,
			"0.023": 0.0,
			"0.024": 0.0,
			"0.025": 0.0
		}
	}
}
