{
	 "smiles": "COC1=C(C=CC=C1)S(Cl)(=O)=O", 
	 "Tm": 390.15, 
	 "num_atms": 19, 
	 "gaussian": { 
		 "optdone": 1, 
		 "sigma_profile": "yes", 
		 "theory": "DFT", 
		 "functional": "B3LYP", 
		 "basiset": "6-31G**", 
		 "properties": { 
			 "R2extent": 3770.1407, 
			 "electric_dipole_moment_norm": 6.55610590595, 
			 "electric_quadrupole_moment_norm": 17.8182369793, 
			 "total_energy": -1354.92926154, 
			 "HOMO_LUMO_gap": 0.17352, 
			 "cosmo_polarized_energy": -12.21, 
			 "cosmo_cavitation_energy": 26.35, 
			 "cosmo_dispersion_energy": -19.67, 
			 "cosmo_repulsion_energy": 1.52, 
			 "cosmo_total_nonelectrostatic_energy": 8.2, 
			 "SMD_solvation_energy": 4.15 
		},
		"coords": [
			{
				"x": 2.0002630812,
				"y": 1.6287728903,
				"z": -1.0515313824,
				"element": "C" 
			},
			{
				"x": 0.6722775082,
				"y": 1.2927501288,
				"z": -1.4414735851,
				"element": "O" 
			},
			{
				"x": -0.1333008317,
				"y": 0.6686487878,
				"z": -0.5613770032,
				"element": "C" 
			},
			{
				"x": -1.4408735653,
				"y": 0.3550593733,
				"z": -0.9940702549,
				"element": "C" 
			},
			{
				"x": -2.3411853977,
				"y": -0.3180661812,
				"z": -0.1672030419,
				"element": "C" 
			},
			{
				"x": -1.9571482704,
				"y": -0.678669951,
				"z": 1.1225327954,
				"element": "C" 
			},
			{
				"x": -0.67126351,
				"y": -0.3665941198,
				"z": 1.5641815219,
				"element": "C" 
			},
			{
				"x": 0.2368708656,
				"y": 0.2967684894,
				"z": 0.7384062402,
				"element": "C" 
			},
			{
				"x": -2.0280288873,
				"y": 0.8473727546,
				"z": -2.6075434643,
				"element": "S" 
			},
			{
				"x": -0.854256511,
				"y": -0.3860655932,
				"z": -3.8960585093,
				"element": "Cl" 
			},
			{
				"x": -3.4016071422,
				"y": 0.3773839079,
				"z": -2.754378095,
				"element": "O" 
			},
			{
				"x": -1.6640335022,
				"y": 2.2252677048,
				"z": -2.9045373505,
				"element": "O" 
			},
			{
				"x": 2.4422722357,
				"y": 2.1211661586,
				"z": -1.9172658182,
				"element": "H" 
			},
			{
				"x": 2.0014401,
				"y": 2.317577227,
				"z": -0.1989267954,
				"element": "H" 
			},
			{
				"x": 2.5811078832,
				"y": 0.7328311304,
				"z": -0.8034569467,
				"element": "H" 
			},
			{
				"x": -3.3308968196,
				"y": -0.5446462918,
				"z": -0.5459534345,
				"element": "H" 
			},
			{
				"x": -2.6549164895,
				"y": -1.1962104828,
				"z": 1.771697523,
				"element": "H" 
			},
			{
				"x": -0.3611924123,
				"y": -0.6443951116,
				"z": 2.5672880879,
				"element": "H" 
			},
			{
				"x": 1.2309716652,
				"y": 0.5210491784,
				"z": 1.104769513,
				"element": "H" 
			}
		],
		 "valence_orbital": [ 
			{
				"type": "occ",
				"energy": -0.32366,
				"method": "rhf"
			},
			{
				"type": "occ",
				"energy": -0.32135,
				"method": "rhf"
			},
			{
				"type": "occ",
				"energy": -0.30237,
				"method": "rhf"
			},
			{
				"type": "occ",
				"energy": -0.28593,
				"method": "rhf"
			},
			{
				"type": "occ",
				"energy": -0.25273,
				"method": "rhf"
			},
			{
				"type": "unocc",
				"energy": -0.07921,
				"method": "rhf"
			},
			{
				"type": "unocc",
				"energy": -0.04064,
				"method": "rhf"
			},
			{
				"type": "unocc",
				"energy": -0.02043,
				"method": "rhf"
			},
			{
				"type": "unocc",
				"energy": 0.04992,
				"method": "rhf"
			},
			{
				"type": "unocc",
				"energy": 0.07699,
				"method": "rhf"
			}
		],
		"cosmo_sigma_profile": { 
			"-0.025": 0.0,
			"-0.024": 0.0,
			"-0.023": 0.0,
			"-0.022": 0.0,
			"-0.021": 0.0,
			"-0.02": 0.0,
			"-0.019": 0.0,
			"-0.018": 0.0,
			"-0.017": 0.0,
			"-0.016": 0.0,
			"-0.015": 0.0,
			"-0.014": 0.0,
			"-0.013": 0.0,
			"-0.012": 0.0,
			"-0.011": 0.0,
			"-0.01": 0.0,
			"-0.009": 0.0772451435701,
			"-0.008": 3.64974300398,
			"-0.007": 12.6193579402,
			"-0.006": 18.9948362038,
			"-0.005": 14.474770895,
			"-0.004": 14.5482355828,
			"-0.003": 11.7499238175,
			"-0.002": 10.2531045167,
			"-0.001": 12.3638504585,
			"0.0": 15.6721492404,
			"0.001": 15.2938106667,
			"0.002": 17.4975866821,
			"0.003": 15.4647051545,
			"0.004": 13.5135934833,
			"0.005": 5.5328972929,
			"0.006": 5.75389703974,
			"0.007": 5.19393562268,
			"0.008": 10.0233396253,
			"0.009": 8.74079172292,
			"0.01": 2.1319632037,
			"0.011": 0.197259967781,
			"0.012": 0.0,
			"0.013": 0.0,
			"0.014": 0.0,
			"0.015": 0.0,
			"0.016": 0.0,
			"0.017": 0.0,
			"0.018": 0.0,
			"0.019": 0.0,
			"0.02": 0.0,
			"0.021": 0.0,
			"0.022": 0.0,
			"0.023": 0.0,
			"0.024": 0.0,
			"0.025": 0.0
		}
	}
}
