{
	 "smiles": "OC(=O)C1=CC(Cl)=C(O)C(Cl)=C1", 
	 "Tm": 539.15, 
	 "num_atms": 16, 
	 "gaussian": { 
		 "optdone": 1, 
		 "sigma_profile": "yes", 
		 "theory": "DFT", 
		 "functional": "B3LYP", 
		 "basiset": "6-31G**", 
		 "properties": { 
			 "R2extent": 3296.5479, 
			 "electric_dipole_moment_norm": 4.56085790395, 
			 "electric_quadrupole_moment_norm": 14.4332702497, 
			 "total_energy": -1415.21275115, 
			 "HOMO_LUMO_gap": 0.19597, 
			 "cosmo_polarized_energy": -16.54, 
			 "cosmo_cavitation_energy": 24.76, 
			 "cosmo_dispersion_energy": -18.76, 
			 "cosmo_repulsion_energy": 1.5, 
			 "cosmo_total_nonelectrostatic_energy": 7.49, 
			 "SMD_solvation_energy": 5.31 
		},
		"coords": [
			{
				"x": 0.89374282,
				"y": -4.3386321371,
				"z": 0.7066698793,
				"element": "O" 
			},
			{
				"x": 1.7389277154,
				"y": -3.358647211,
				"z": 0.2890212532,
				"element": "C" 
			},
			{
				"x": 2.8982385677,
				"y": -3.6124912251,
				"z": 0.0648039747,
				"element": "O" 
			},
			{
				"x": 1.1574472722,
				"y": -1.9874420713,
				"z": 0.1267822127,
				"element": "C" 
			},
			{
				"x": -0.212508198,
				"y": -1.7514852166,
				"z": -0.0341895352,
				"element": "C" 
			},
			{
				"x": -0.6686304371,
				"y": -0.4496725494,
				"z": -0.1991545663,
				"element": "C" 
			},
			{
				"x": -2.3872513252,
				"y": -0.1380506305,
				"z": -0.415581817,
				"element": "Cl" 
			},
			{
				"x": 0.2049966697,
				"y": 0.6515717468,
				"z": -0.2105025195,
				"element": "C" 
			},
			{
				"x": -0.2049919048,
				"y": 1.9215840777,
				"z": -0.3617996766,
				"element": "O" 
			},
			{
				"x": 1.5815335552,
				"y": 0.388471639,
				"z": -0.0597701507,
				"element": "C" 
			},
			{
				"x": 2.6975293222,
				"y": 1.7281732006,
				"z": -0.0766231305,
				"element": "Cl" 
			},
			{
				"x": 2.0499365958,
				"y": -0.9072471427,
				"z": 0.0954596797,
				"element": "C" 
			},
			{
				"x": 0.0670612253,
				"y": -3.9586902667,
				"z": 1.0341223217,
				"element": "H" 
			},
			{
				"x": -0.9333841556,
				"y": -2.5613872743,
				"z": -0.0770568995,
				"element": "H" 
			},
			{
				"x": -1.1702413947,
				"y": 1.935238612,
				"z": -0.4606302105,
				"element": "H" 
			},
			{
				"x": 3.1114936718,
				"y": -1.0999935515,
				"z": 0.1948491847,
				"element": "H" 
			}
		],
		 "valence_orbital": [ 
			{
				"type": "occ",
				"energy": -0.32634,
				"method": "rhf"
			},
			{
				"type": "occ",
				"energy": -0.32468,
				"method": "rhf"
			},
			{
				"type": "occ",
				"energy": -0.28603,
				"method": "rhf"
			},
			{
				"type": "occ",
				"energy": -0.27303,
				"method": "rhf"
			},
			{
				"type": "occ",
				"energy": -0.2574,
				"method": "rhf"
			},
			{
				"type": "unocc",
				"energy": -0.06143,
				"method": "rhf"
			},
			{
				"type": "unocc",
				"energy": -0.04608,
				"method": "rhf"
			},
			{
				"type": "unocc",
				"energy": -0.01662,
				"method": "rhf"
			},
			{
				"type": "unocc",
				"energy": 0.03008,
				"method": "rhf"
			},
			{
				"type": "unocc",
				"energy": 0.03841,
				"method": "rhf"
			}
		],
		"cosmo_sigma_profile": { 
			"-0.025": 0.0,
			"-0.024": 0.0,
			"-0.023": 0.0,
			"-0.022": 0.0,
			"-0.021": 0.0,
			"-0.02": 0.260148081608,
			"-0.019": 0.737838281014,
			"-0.018": 0.939306714812,
			"-0.017": 1.57088403957,
			"-0.016": 1.6566709228,
			"-0.015": 1.07318098938,
			"-0.014": 1.81790914321,
			"-0.013": 2.57402925576,
			"-0.012": 1.73633706803,
			"-0.011": 2.1410399382,
			"-0.01": 2.72417426583,
			"-0.009": 2.64582278897,
			"-0.008": 4.1486166053,
			"-0.007": 2.99403629604,
			"-0.006": 3.6544972992,
			"-0.005": 5.54300579021,
			"-0.004": 7.96670498183,
			"-0.003": 10.1394774258,
			"-0.002": 14.3608158987,
			"-0.001": 19.2484455016,
			"0.0": 21.3548849464,
			"0.001": 15.4363293606,
			"0.002": 13.2701174536,
			"0.003": 14.9716695862,
			"0.004": 11.8536158214,
			"0.005": 4.85763262715,
			"0.006": 4.05565855711,
			"0.007": 4.318552771,
			"0.008": 4.96219678701,
			"0.009": 5.52391027715,
			"0.01": 5.30805838826,
			"0.011": 5.5217760144,
			"0.012": 3.51096737704,
			"0.013": 0.822758518717,
			"0.014": 0.0,
			"0.015": 0.0,
			"0.016": 0.0,
			"0.017": 0.0,
			"0.018": 0.0,
			"0.019": 0.0,
			"0.02": 0.0,
			"0.021": 0.0,
			"0.022": 0.0,
			"0.023": 0.0,
			"0.024": 0.0,
			"0.025": 0.0
		}
	}
}
