{
	 "smiles": "CC(C)C1(CC1)C(O)=O", 
	 "Tm": 328.15, 
	 "num_atms": 21, 
	 "gaussian": { 
		 "optdone": 1, 
		 "sigma_profile": "yes", 
		 "theory": "DFT", 
		 "functional": "B3LYP", 
		 "basiset": "6-31G**", 
		 "properties": { 
			 "R2extent": 1360.8718, 
			 "electric_dipole_moment_norm": 4.28620600182, 
			 "electric_quadrupole_moment_norm": 13.678818763, 
			 "total_energy": -424.410649584, 
			 "HOMO_LUMO_gap": 0.27488, 
			 "cosmo_polarized_energy": -12.64, 
			 "cosmo_cavitation_energy": 22.54, 
			 "cosmo_dispersion_energy": -16.41, 
			 "cosmo_repulsion_energy": 1.32, 
			 "cosmo_total_nonelectrostatic_energy": 7.45, 
			 "SMD_solvation_energy": 4.91 
		},
		"coords": [
			{
				"x": 1.9154817994,
				"y": -1.2756994784,
				"z": 0.2128138859,
				"element": "C" 
			},
			{
				"x": 1.4620353827,
				"y": 0.1892650537,
				"z": 0.1496468739,
				"element": "C" 
			},
			{
				"x": 1.8199266147,
				"y": 0.8121063138,
				"z": -1.2109753052,
				"element": "C" 
			},
			{
				"x": -0.0297617284,
				"y": 0.4074557746,
				"z": 0.4620194904,
				"element": "C" 
			},
			{
				"x": -0.8864319737,
				"y": -0.6718481574,
				"z": 1.1206585998,
				"element": "C" 
			},
			{
				"x": -1.0875568971,
				"y": -0.3506595983,
				"z": -0.3284023287,
				"element": "C" 
			},
			{
				"x": -0.3394172315,
				"y": 1.83121462,
				"z": 0.8660013397,
				"element": "C" 
			},
			{
				"x": -1.6453188388,
				"y": 2.1705418869,
				"z": 1.0662068352,
				"element": "O" 
			},
			{
				"x": 0.5106093505,
				"y": 2.6734460727,
				"z": 1.0350794406,
				"element": "O" 
			},
			{
				"x": 1.7985246218,
				"y": -1.7032616508,
				"z": 1.2132049975,
				"element": "H" 
			},
			{
				"x": 2.9767157973,
				"y": -1.3416766593,
				"z": -0.0465638922,
				"element": "H" 
			},
			{
				"x": 1.3739049324,
				"y": -1.9124797048,
				"z": -0.4976239721,
				"element": "H" 
			},
			{
				"x": 2.0105554005,
				"y": 0.7434778763,
				"z": 0.9189352474,
				"element": "H" 
			},
			{
				"x": 1.3057541942,
				"y": 0.2956975422,
				"z": -2.0303926321,
				"element": "H" 
			},
			{
				"x": 2.8967536485,
				"y": 0.7391285873,
				"z": -1.3958833389,
				"element": "H" 
			},
			{
				"x": 1.5457367662,
				"y": 1.8691241943,
				"z": -1.2416518762,
				"element": "H" 
			},
			{
				"x": -1.6285491632,
				"y": -0.3594926074,
				"z": 1.8504151274,
				"element": "H" 
			},
			{
				"x": -0.4073980213,
				"y": -1.6111452506,
				"z": 1.3703503268,
				"element": "H" 
			},
			{
				"x": -1.9821114746,
				"y": 0.1719687973,
				"z": -0.6584595851,
				"element": "H" 
			},
			{
				"x": -0.7257641855,
				"y": -1.0684181445,
				"z": -1.0579273929,
				"element": "H" 
			},
			{
				"x": -2.2370889939,
				"y": 1.4279545324,
				"z": 0.8877481585,
				"element": "H" 
			}
		],
		 "valence_orbital": [ 
			{
				"type": "occ",
				"energy": -0.33759,
				"method": "rhf"
			},
			{
				"type": "occ",
				"energy": -0.31693,
				"method": "rhf"
			},
			{
				"type": "occ",
				"energy": -0.31006,
				"method": "rhf"
			},
			{
				"type": "occ",
				"energy": -0.29324,
				"method": "rhf"
			},
			{
				"type": "occ",
				"energy": -0.26537,
				"method": "rhf"
			},
			{
				"type": "unocc",
				"energy": 0.00951,
				"method": "rhf"
			},
			{
				"type": "unocc",
				"energy": 0.04589,
				"method": "rhf"
			},
			{
				"type": "unocc",
				"energy": 0.08053,
				"method": "rhf"
			},
			{
				"type": "unocc",
				"energy": 0.10941,
				"method": "rhf"
			},
			{
				"type": "unocc",
				"energy": 0.11529,
				"method": "rhf"
			}
		],
		"cosmo_sigma_profile": { 
			"-0.025": 0.0,
			"-0.024": 0.0,
			"-0.023": 0.0,
			"-0.022": 0.0,
			"-0.021": 0.0,
			"-0.02": 0.0,
			"-0.019": 0.0223837553069,
			"-0.018": 0.471839067604,
			"-0.017": 0.529713866001,
			"-0.016": 1.11811644357,
			"-0.015": 1.25638336081,
			"-0.014": 0.593998358645,
			"-0.013": 0.789502963187,
			"-0.012": 0.934779508509,
			"-0.011": 1.42894812916,
			"-0.01": 1.24210639019,
			"-0.009": 0.697420968678,
			"-0.008": 1.72562104359,
			"-0.007": 2.62740865807,
			"-0.006": 4.41448012441,
			"-0.005": 6.91426216273,
			"-0.004": 9.60258818948,
			"-0.003": 13.9534992265,
			"-0.002": 21.2668815983,
			"-0.001": 20.3153535873,
			"0.0": 19.887038148,
			"0.001": 20.2251739005,
			"0.002": 8.71319756905,
			"0.003": 3.42987719253,
			"0.004": 3.84241808368,
			"0.005": 1.94664042688,
			"0.006": 2.36537827501,
			"0.007": 2.38392286312,
			"0.008": 2.81176178282,
			"0.009": 3.04553041457,
			"0.01": 3.83081136903,
			"0.011": 4.86054082932,
			"0.012": 5.26963923132,
			"0.013": 2.78207780886,
			"0.014": 0.468297920299,
			"0.015": 0.0,
			"0.016": 0.0,
			"0.017": 0.0,
			"0.018": 0.0,
			"0.019": 0.0,
			"0.02": 0.0,
			"0.021": 0.0,
			"0.022": 0.0,
			"0.023": 0.0,
			"0.024": 0.0,
			"0.025": 0.0
		}
	}
}
