{
	 "smiles": "OC(=O)C1=CC=CN2C(I)=CN=C12", 
	 "Tm": 511.15, 
	 "num_atms": 18, 
	 "gaussian": { 
		 "optdone": 1, 
		 "sigma_profile": "yes", 
		 "theory": "DFT", 
		 "functional": "B3LYP", 
		 "basiset": "6-31G**", 
		 "properties": { 
			 "R2extent": 2479.9213, 
			 "electric_dipole_moment_norm": 4.32726946931, 
			 "electric_quadrupole_moment_norm": 9.44051589056, 
			 "total_energy": -579.195326108, 
			 "HOMO_LUMO_gap": 0.14874, 
			 "cosmo_polarized_energy": -17.18, 
			 "cosmo_cavitation_energy": 26.26, 
			 "cosmo_dispersion_energy": -21.01, 
			 "cosmo_repulsion_energy": 1.61, 
			 "cosmo_total_nonelectrostatic_energy": 6.86, 
			 "SMD_solvation_energy": 3.88 
		},
		"coords": [
			{
				"x": -0.7759963637,
				"y": -1.3938030208,
				"z": 3.3787956601,
				"element": "O" 
			},
			{
				"x": -1.0745850102,
				"y": -0.6899103512,
				"z": 2.2498109248,
				"element": "C" 
			},
			{
				"x": -2.2111863642,
				"y": -0.3875806803,
				"z": 1.9665204785,
				"element": "O" 
			},
			{
				"x": 0.1474066316,
				"y": -0.3684510758,
				"z": 1.4608005552,
				"element": "C" 
			},
			{
				"x": 1.3985997732,
				"y": -0.7711262904,
				"z": 1.8897934082,
				"element": "C" 
			},
			{
				"x": 2.564435938,
				"y": -0.4687725253,
				"z": 1.1443197989,
				"element": "C" 
			},
			{
				"x": 2.4719151107,
				"y": 0.2338388777,
				"z": -0.0246251577,
				"element": "C" 
			},
			{
				"x": 1.2403869892,
				"y": 0.640458314,
				"z": -0.4641454824,
				"element": "N" 
			},
			{
				"x": 0.8603801561,
				"y": 1.3516329453,
				"z": -1.5895291377,
				"element": "C" 
			},
			{
				"x": 2.1922763212,
				"y": 2.0413622309,
				"z": -3.0222202189,
				"element": "I" 
			},
			{
				"x": -0.5131260425,
				"y": 1.4694673351,
				"z": -1.5124372483,
				"element": "C" 
			},
			{
				"x": -1.0095583291,
				"y": 0.869440383,
				"z": -0.3986239375,
				"element": "N" 
			},
			{
				"x": 0.0379392563,
				"y": 0.3661380082,
				"z": 0.2412703928,
				"element": "C" 
			},
			{
				"x": -1.6298709595,
				"y": -1.5500462895,
				"z": 3.8140097977,
				"element": "H" 
			},
			{
				"x": 1.4812584767,
				"y": -1.3280506777,
				"z": 2.8144730862,
				"element": "H" 
			},
			{
				"x": 3.5394905124,
				"y": -0.7898232769,
				"z": 1.4908489941,
				"element": "H" 
			},
			{
				"x": 3.3194358645,
				"y": 0.4994148596,
				"z": -0.643986177,
				"element": "H" 
			},
			{
				"x": -1.1570019608,
				"y": 1.9675112341,
				"z": -2.2245757371,
				"element": "H" 
			}
		],
		 "valence_orbital": [ 
			{
				"type": "occ",
				"energy": -0.29775,
				"method": "rhf"
			},
			{
				"type": "occ",
				"energy": -0.28581,
				"method": "rhf"
			},
			{
				"type": "occ",
				"energy": -0.26146,
				"method": "rhf"
			},
			{
				"type": "occ",
				"energy": -0.2585,
				"method": "rhf"
			},
			{
				"type": "occ",
				"energy": -0.22101,
				"method": "rhf"
			},
			{
				"type": "unocc",
				"energy": -0.07227,
				"method": "rhf"
			},
			{
				"type": "unocc",
				"energy": -0.04724,
				"method": "rhf"
			},
			{
				"type": "unocc",
				"energy": -0.0155,
				"method": "rhf"
			},
			{
				"type": "unocc",
				"energy": 0.03004,
				"method": "rhf"
			},
			{
				"type": "unocc",
				"energy": 0.03479,
				"method": "rhf"
			}
		],
		"cosmo_sigma_profile": { 
			"-0.025": 0.0,
			"-0.024": 0.0,
			"-0.023": 0.0,
			"-0.022": 0.0,
			"-0.021": 0.0,
			"-0.02": 0.0,
			"-0.019": 0.0724574057781,
			"-0.018": 0.72028852052,
			"-0.017": 1.01708204918,
			"-0.016": 0.825088016263,
			"-0.015": 0.786146546638,
			"-0.014": 0.592052026924,
			"-0.013": 0.632040503881,
			"-0.012": 0.436129852863,
			"-0.011": 1.09755765258,
			"-0.01": 0.736990716107,
			"-0.009": 2.4823505216,
			"-0.008": 7.32068592432,
			"-0.007": 11.049662975,
			"-0.006": 9.11228649937,
			"-0.005": 8.64707898085,
			"-0.004": 9.69773558104,
			"-0.003": 13.7454389964,
			"-0.002": 17.3478001852,
			"-0.001": 17.5907688888,
			"0.0": 18.9687301207,
			"0.001": 21.6940827767,
			"0.002": 16.6175570998,
			"0.003": 15.550235603,
			"0.004": 5.15973218624,
			"0.005": 4.01039606602,
			"0.006": 3.53701806345,
			"0.007": 3.64408460462,
			"0.008": 2.32904957898,
			"0.009": 1.9045505472,
			"0.01": 2.92150898503,
			"0.011": 4.02704283715,
			"0.012": 4.27856081033,
			"0.013": 1.25548765211,
			"0.014": 1.60724733126,
			"0.015": 1.64929112628,
			"0.016": 1.188627584,
			"0.017": 1.12922650597,
			"0.018": 1.13268178124,
			"0.019": 0.694904372772,
			"0.02": 0.0782966437167,
			"0.021": 0.0,
			"0.022": 0.0,
			"0.023": 0.0,
			"0.024": 0.0,
			"0.025": 0.0
		}
	}
}
