{
	 "smiles": "CN(C)C1=CC=C(C=CC(=O)C2=CC=CC=C2)C=C1", 
	 "Tm": 387.15, 
	 "num_atms": 36, 
	 "gaussian": { 
		 "optdone": 1, 
		 "sigma_profile": "yes", 
		 "theory": "DFT", 
		 "functional": "B3LYP", 
		 "basiset": "6-31G**", 
		 "properties": { 
			 "R2extent": 9905.2498, 
			 "electric_dipole_moment_norm": 6.30133481256, 
			 "electric_quadrupole_moment_norm": 31.7340110788, 
			 "total_energy": -788.017648526, 
			 "HOMO_LUMO_gap": 0.12779, 
			 "cosmo_polarized_energy": -14.6, 
			 "cosmo_cavitation_energy": 39.75, 
			 "cosmo_dispersion_energy": -28.81, 
			 "cosmo_repulsion_energy": 2.17, 
			 "cosmo_total_nonelectrostatic_energy": 13.11, 
			 "SMD_solvation_energy": 6.98 
		},
		"coords": [
			{
				"x": 6.0739846847,
				"y": 0.863333275,
				"z": 0.5728340082,
				"element": "C" 
			},
			{
				"x": 4.9925726743,
				"y": -0.1055648085,
				"z": 0.5108478469,
				"element": "N" 
			},
			{
				"x": 5.2818286664,
				"y": -1.5150861285,
				"z": 0.7151297322,
				"element": "C" 
			},
			{
				"x": 3.6871953698,
				"y": 0.3242705856,
				"z": 0.3919115286,
				"element": "C" 
			},
			{
				"x": 3.3702590698,
				"y": 1.6980311195,
				"z": 0.2606109647,
				"element": "C" 
			},
			{
				"x": 2.0536739757,
				"y": 2.1124201486,
				"z": 0.1315399732,
				"element": "C" 
			},
			{
				"x": 0.9755844137,
				"y": 1.2059032816,
				"z": 0.127530858,
				"element": "C" 
			},
			{
				"x": -0.378307112,
				"y": 1.7109808999,
				"z": -0.0118556957,
				"element": "C" 
			},
			{
				"x": -1.5390791111,
				"y": 1.0158619941,
				"z": -0.0344167398,
				"element": "C" 
			},
			{
				"x": -2.8227357585,
				"y": 1.7253200482,
				"z": -0.2041595979,
				"element": "C" 
			},
			{
				"x": -2.8672888645,
				"y": 2.9417713295,
				"z": -0.3969022695,
				"element": "O" 
			},
			{
				"x": -4.1057293776,
				"y": 0.9384484581,
				"z": -0.1578078976,
				"element": "C" 
			},
			{
				"x": -5.2766151418,
				"y": 1.583301562,
				"z": -0.5883441015,
				"element": "C" 
			},
			{
				"x": -6.5008906941,
				"y": 0.9222452637,
				"z": -0.5692014235,
				"element": "C" 
			},
			{
				"x": -6.5777558005,
				"y": -0.3949799355,
				"z": -0.1065710434,
				"element": "C" 
			},
			{
				"x": -5.4237489148,
				"y": -1.0426968609,
				"z": 0.3368219628,
				"element": "C" 
			},
			{
				"x": -4.1948429479,
				"y": -0.3821740848,
				"z": 0.3085913704,
				"element": "C" 
			},
			{
				"x": 1.2979943395,
				"y": -0.1603559327,
				"z": 0.2639756973,
				"element": "C" 
			},
			{
				"x": 2.6054378009,
				"y": -0.5948784482,
				"z": 0.3939301925,
				"element": "C" 
			},
			{
				"x": 5.9838594866,
				"y": 1.5321995396,
				"z": 1.4406098506,
				"element": "H" 
			},
			{
				"x": 6.1097174345,
				"y": 1.4853932198,
				"z": -0.3306443953,
				"element": "H" 
			},
			{
				"x": 7.0249993442,
				"y": 0.3355435812,
				"z": 0.6508751974,
				"element": "H" 
			},
			{
				"x": 4.8396648879,
				"y": -1.9004808128,
				"z": 1.6449094263,
				"element": "H" 
			},
			{
				"x": 6.3617604053,
				"y": -1.654786452,
				"z": 0.7726772162,
				"element": "H" 
			},
			{
				"x": 4.9097056835,
				"y": -2.1282214261,
				"z": -0.1156268625,
				"element": "H" 
			},
			{
				"x": 4.1551798206,
				"y": 2.4439927013,
				"z": 0.2598494634,
				"element": "H" 
			},
			{
				"x": 1.8454117832,
				"y": 3.1747738093,
				"z": 0.0314439328,
				"element": "H" 
			},
			{
				"x": -0.4778788717,
				"y": 2.7913651441,
				"z": -0.1129205726,
				"element": "H" 
			},
			{
				"x": -1.5447598161,
				"y": -0.0653407789,
				"z": 0.0468855545,
				"element": "H" 
			},
			{
				"x": -5.192755663,
				"y": 2.608556397,
				"z": -0.9325176791,
				"element": "H" 
			},
			{
				"x": -7.3973239561,
				"y": 1.4312589452,
				"z": -0.9121408558,
				"element": "H" 
			},
			{
				"x": -7.5330400247,
				"y": -0.9122518755,
				"z": -0.0887222095,
				"element": "H" 
			},
			{
				"x": -5.4796764158,
				"y": -2.0624095141,
				"z": 0.7072312659,
				"element": "H" 
			},
			{
				"x": -3.3133446226,
				"y": -0.8982276944,
				"z": 0.6737424809,
				"element": "H" 
			},
			{
				"x": 0.5049784588,
				"y": -0.9023297864,
				"z": 0.2704208786,
				"element": "H" 
			},
			{
				"x": 2.7929647933,
				"y": -1.6563867639,
				"z": 0.4984619425,
				"element": "H" 
			}
		],
		 "valence_orbital": [ 
			{
				"type": "occ",
				"energy": -0.2539,
				"method": "rhf"
			},
			{
				"type": "occ",
				"energy": -0.2483,
				"method": "rhf"
			},
			{
				"type": "occ",
				"energy": -0.24453,
				"method": "rhf"
			},
			{
				"type": "occ",
				"energy": -0.23071,
				"method": "rhf"
			},
			{
				"type": "occ",
				"energy": -0.19018,
				"method": "rhf"
			},
			{
				"type": "unocc",
				"energy": -0.06239,
				"method": "rhf"
			},
			{
				"type": "unocc",
				"energy": -0.01052,
				"method": "rhf"
			},
			{
				"type": "unocc",
				"energy": -0.00074,
				"method": "rhf"
			},
			{
				"type": "unocc",
				"energy": 0.00363,
				"method": "rhf"
			},
			{
				"type": "unocc",
				"energy": 0.04867,
				"method": "rhf"
			}
		],
		"cosmo_sigma_profile": { 
			"-0.025": 0.0,
			"-0.024": 0.0,
			"-0.023": 0.0,
			"-0.022": 0.0,
			"-0.021": 0.0,
			"-0.02": 0.0,
			"-0.019": 0.0,
			"-0.018": 0.0,
			"-0.017": 0.0,
			"-0.016": 0.0,
			"-0.015": 0.0,
			"-0.014": 0.0,
			"-0.013": 0.0,
			"-0.012": 0.0,
			"-0.011": 0.0,
			"-0.01": 0.0,
			"-0.009": 0.0233504788304,
			"-0.008": 1.98910572256,
			"-0.007": 5.24420573897,
			"-0.006": 17.2701111403,
			"-0.005": 27.0850426644,
			"-0.004": 33.9496976401,
			"-0.003": 28.1309578777,
			"-0.002": 28.8273026078,
			"-0.001": 19.6213398712,
			"0.0": 17.8476383627,
			"0.001": 18.9729098143,
			"0.002": 20.3387564351,
			"0.003": 21.4923657822,
			"0.004": 27.9843060094,
			"0.005": 24.4816935362,
			"0.006": 6.84153449064,
			"0.007": 1.77468958967,
			"0.008": 1.90361462844,
			"0.009": 1.57544651554,
			"0.01": 1.82898995097,
			"0.011": 1.62273140803,
			"0.012": 2.5908264242,
			"0.013": 4.37848279578,
			"0.014": 1.449677815,
			"0.015": 0.0,
			"0.016": 0.0,
			"0.017": 0.0,
			"0.018": 0.0,
			"0.019": 0.0,
			"0.02": 0.0,
			"0.021": 0.0,
			"0.022": 0.0,
			"0.023": 0.0,
			"0.024": 0.0,
			"0.025": 0.0
		}
	}
}
