{
	 "smiles": "FC(F)(F)C1=NN=C(NC(=O)NC2=CC=CC=C2)S1", 
	 "Tm": 423.15, 
	 "num_atms": 26, 
	 "gaussian": { 
		 "optdone": 1, 
		 "sigma_profile": "yes", 
		 "theory": "DFT", 
		 "functional": "B3LYP", 
		 "basiset": "6-31G**", 
		 "properties": { 
			 "R2extent": 8930.3448, 
			 "electric_dipole_moment_norm": 7.2657732713, 
			 "electric_quadrupole_moment_norm": 6.47019678681, 
			 "total_energy": -1377.21152049, 
			 "HOMO_LUMO_gap": 0.20057, 
			 "cosmo_polarized_energy": -15.99, 
			 "cosmo_cavitation_energy": 35.08, 
			 "cosmo_dispersion_energy": -25.53, 
			 "cosmo_repulsion_energy": 1.86, 
			 "cosmo_total_nonelectrostatic_energy": 11.41, 
			 "SMD_solvation_energy": 5.83 
		},
		"coords": [
			{
				"x": 4.674154004,
				"y": 3.826515671,
				"z": -0.6659178962,
				"element": "F" 
			},
			{
				"x": 4.2419309953,
				"y": 2.9840252253,
				"z": -1.6075224181,
				"element": "C" 
			},
			{
				"x": 4.0448951016,
				"y": 3.683322382,
				"z": -2.747624707,
				"element": "F" 
			},
			{
				"x": 5.2228707202,
				"y": 2.0893307808,
				"z": -1.8618129437,
				"element": "F" 
			},
			{
				"x": 2.9790097749,
				"y": 2.2844618607,
				"z": -1.1882541005,
				"element": "C" 
			},
			{
				"x": 2.4100265133,
				"y": 2.4859151419,
				"z": -0.0398792174,
				"element": "N" 
			},
			{
				"x": 1.2760265922,
				"y": 1.7438307451,
				"z": 0.1221079289,
				"element": "N" 
			},
			{
				"x": 1.0237090637,
				"y": 0.9944838658,
				"z": -0.9236370246,
				"element": "C" 
			},
			{
				"x": -0.0843458416,
				"y": 0.1786852616,
				"z": -0.9427669365,
				"element": "N" 
			},
			{
				"x": -0.4143627887,
				"y": -0.6547100558,
				"z": -2.0039298197,
				"element": "C" 
			},
			{
				"x": 0.2835212301,
				"y": -0.7320386218,
				"z": -3.0074975093,
				"element": "O" 
			},
			{
				"x": -1.5651827455,
				"y": -1.3959447111,
				"z": -1.8516488459,
				"element": "N" 
			},
			{
				"x": -2.4820044129,
				"y": -1.4286177512,
				"z": -0.7666695924,
				"element": "C" 
			},
			{
				"x": -3.0576888579,
				"y": -0.2513088797,
				"z": -0.2667474246,
				"element": "C" 
			},
			{
				"x": -3.9606036508,
				"y": -0.3159110903,
				"z": 0.7959234798,
				"element": "C" 
			},
			{
				"x": -4.324262311,
				"y": -1.5478265917,
				"z": 1.3407304793,
				"element": "C" 
			},
			{
				"x": -3.7740771368,
				"y": -2.7218301242,
				"z": 0.820782306,
				"element": "C" 
			},
			{
				"x": -2.8486437533,
				"y": -2.6656865294,
				"z": -0.2197406944,
				"element": "C" 
			},
			{
				"x": 2.1748007274,
				"y": 1.1258519034,
				"z": -2.234116136,
				"element": "S" 
			},
			{
				"x": -0.6324460299,
				"y": 0.1834161852,
				"z": -0.0911279843,
				"element": "H" 
			},
			{
				"x": -1.6595638787,
				"y": -2.0938086133,
				"z": -2.5769259586,
				"element": "H" 
			},
			{
				"x": -2.8220334366,
				"y": 0.7035742376,
				"z": -0.7263230535,
				"element": "H" 
			},
			{
				"x": -4.3959294239,
				"y": 0.6012583207,
				"z": 1.1808637347,
				"element": "H" 
			},
			{
				"x": -5.0353240472,
				"y": -1.594135837,
				"z": 2.1595130193,
				"element": "H" 
			},
			{
				"x": -4.0542083881,
				"y": -3.6854613344,
				"z": 1.2355434741,
				"element": "H" 
			},
			{
				"x": -2.3994680197,
				"y": -3.5753914412,
				"z": -0.6079221594,
				"element": "H" 
			}
		],
		 "valence_orbital": [ 
			{
				"type": "occ",
				"energy": -0.29895,
				"method": "rhf"
			},
			{
				"type": "occ",
				"energy": -0.28064,
				"method": "rhf"
			},
			{
				"type": "occ",
				"energy": -0.27232,
				"method": "rhf"
			},
			{
				"type": "occ",
				"energy": -0.26224,
				"method": "rhf"
			},
			{
				"type": "occ",
				"energy": -0.25006,
				"method": "rhf"
			},
			{
				"type": "unocc",
				"energy": -0.04949,
				"method": "rhf"
			},
			{
				"type": "unocc",
				"energy": -0.03342,
				"method": "rhf"
			},
			{
				"type": "unocc",
				"energy": -0.0324,
				"method": "rhf"
			},
			{
				"type": "unocc",
				"energy": 0.00748,
				"method": "rhf"
			},
			{
				"type": "unocc",
				"energy": 0.01075,
				"method": "rhf"
			}
		],
		"cosmo_sigma_profile": { 
			"-0.025": 0.0,
			"-0.024": 0.0,
			"-0.023": 0.0,
			"-0.022": 0.0,
			"-0.021": 0.0,
			"-0.02": 0.0,
			"-0.019": 0.0,
			"-0.018": 0.0,
			"-0.017": 0.0,
			"-0.016": 0.152361994355,
			"-0.015": 0.95811397033,
			"-0.014": 1.67718155663,
			"-0.013": 1.08677042535,
			"-0.012": 1.27538352393,
			"-0.011": 2.80731721668,
			"-0.01": 2.42104998372,
			"-0.009": 2.43534141297,
			"-0.008": 2.41350804648,
			"-0.007": 8.28150109253,
			"-0.006": 13.4854446213,
			"-0.005": 14.0600556067,
			"-0.004": 19.3924403873,
			"-0.003": 20.2114801046,
			"-0.002": 20.2034008986,
			"-0.001": 19.8436297772,
			"0.0": 19.107081164,
			"0.001": 24.4309763986,
			"0.002": 38.7527947067,
			"0.003": 16.6276083232,
			"0.004": 13.4885443376,
			"0.005": 7.81548214895,
			"0.006": 3.4836050455,
			"0.007": 3.75920530156,
			"0.008": 4.43727154112,
			"0.009": 4.00457726188,
			"0.01": 5.08395211931,
			"0.011": 5.12705090143,
			"0.012": 5.17446091725,
			"0.013": 2.38560248716,
			"0.014": 0.334763302912,
			"0.015": 0.0,
			"0.016": 0.0,
			"0.017": 0.0,
			"0.018": 0.0,
			"0.019": 0.0,
			"0.02": 0.0,
			"0.021": 0.0,
			"0.022": 0.0,
			"0.023": 0.0,
			"0.024": 0.0,
			"0.025": 0.0
		}
	}
}
