{
	 "smiles": "NC(=O)CF", 
	 "Tm": 381.15, 
	 "num_atms": 9, 
	 "gaussian": { 
		 "optdone": 1, 
		 "sigma_profile": "yes", 
		 "theory": "DFT", 
		 "functional": "B3LYP", 
		 "basiset": "6-31G**", 
		 "properties": { 
			 "R2extent": 596.9293, 
			 "electric_dipole_moment_norm": 2.29821062786, 
			 "electric_quadrupole_moment_norm": 9.2037740145, 
			 "total_energy": -308.443119236, 
			 "HOMO_LUMO_gap": 0.27938, 
			 "cosmo_polarized_energy": -10.55, 
			 "cosmo_cavitation_energy": 13.27, 
			 "cosmo_dispersion_energy": -9.99, 
			 "cosmo_repulsion_energy": 0.91, 
			 "cosmo_total_nonelectrostatic_energy": 4.18, 
			 "SMD_solvation_energy": 3.99 
		},
		"coords": [
			{
				"x": 0.9204665803,
				"y": 1.8359201407,
				"z": 0.6189594114,
				"element": "N" 
			},
			{
				"x": 0.0505494898,
				"y": 0.8198053187,
				"z": 0.8414084672,
				"element": "C" 
			},
			{
				"x": -1.1671470997,
				"y": 0.9142891749,
				"z": 0.8374987171,
				"element": "O" 
			},
			{
				"x": 0.7147990499,
				"y": -0.528354732,
				"z": 1.1109596158,
				"element": "C" 
			},
			{
				"x": 2.1061792042,
				"y": -0.4438478562,
				"z": 1.0746642258,
				"element": "F" 
			},
			{
				"x": 0.559451783,
				"y": 2.7583969452,
				"z": 0.4325192084,
				"element": "H" 
			},
			{
				"x": 1.9133134233,
				"y": 1.6669117252,
				"z": 0.6405437586,
				"element": "H" 
			},
			{
				"x": 0.40269471,
				"y": -0.8839163906,
				"z": 2.0982064325,
				"element": "H" 
			},
			{
				"x": 0.3790928592,
				"y": -1.2444043259,
				"z": 0.3539401631,
				"element": "H" 
			}
		],
		 "valence_orbital": [ 
			{
				"type": "occ",
				"energy": -0.40272,
				"method": "rhf"
			},
			{
				"type": "occ",
				"energy": -0.37756,
				"method": "rhf"
			},
			{
				"type": "occ",
				"energy": -0.34991,
				"method": "rhf"
			},
			{
				"type": "occ",
				"energy": -0.27351,
				"method": "rhf"
			},
			{
				"type": "occ",
				"energy": -0.25516,
				"method": "rhf"
			},
			{
				"type": "unocc",
				"energy": 0.02422,
				"method": "rhf"
			},
			{
				"type": "unocc",
				"energy": 0.07633,
				"method": "rhf"
			},
			{
				"type": "unocc",
				"energy": 0.11261,
				"method": "rhf"
			},
			{
				"type": "unocc",
				"energy": 0.12539,
				"method": "rhf"
			},
			{
				"type": "unocc",
				"energy": 0.13715,
				"method": "rhf"
			}
		],
		"cosmo_sigma_profile": { 
			"-0.025": 0.0,
			"-0.024": 0.0,
			"-0.023": 0.0,
			"-0.022": 0.0,
			"-0.021": 0.0,
			"-0.02": 0.0,
			"-0.019": 0.0,
			"-0.018": 0.0,
			"-0.017": 0.0,
			"-0.016": 0.0,
			"-0.015": 0.256743724563,
			"-0.014": 1.31213095534,
			"-0.013": 1.9459757577,
			"-0.012": 1.83444016744,
			"-0.011": 1.96037299833,
			"-0.01": 2.36749360194,
			"-0.009": 2.16111592144,
			"-0.008": 4.23303926611,
			"-0.007": 6.66325544928,
			"-0.006": 6.02305082784,
			"-0.005": 6.03861486295,
			"-0.004": 5.15150983976,
			"-0.003": 3.77601909213,
			"-0.002": 5.03215420906,
			"-0.001": 4.54913467524,
			"0.0": 3.84926365213,
			"0.001": 4.03164417935,
			"0.002": 4.96188195017,
			"0.003": 4.21263579526,
			"0.004": 5.88749165249,
			"0.005": 5.97317751822,
			"0.006": 4.13557720823,
			"0.007": 1.12765529267,
			"0.008": 1.03591032284,
			"0.009": 0.907632148478,
			"0.01": 1.26059124208,
			"0.011": 1.87519686928,
			"0.012": 1.74154882675,
			"0.013": 4.65304433511,
			"0.014": 5.02207893964,
			"0.015": 0.772664358174,
			"0.016": 0.0,
			"0.017": 0.0,
			"0.018": 0.0,
			"0.019": 0.0,
			"0.02": 0.0,
			"0.021": 0.0,
			"0.022": 0.0,
			"0.023": 0.0,
			"0.024": 0.0,
			"0.025": 0.0
		}
	}
}
