{
	 "smiles": "ClC1=CC=CC=C1C=C", 
	 "Tm": 210.15, 
	 "num_atms": 16, 
	 "gaussian": { 
		 "optdone": 1, 
		 "sigma_profile": "yes", 
		 "theory": "DFT", 
		 "functional": "B3LYP", 
		 "basiset": "6-31G**", 
		 "properties": { 
			 "R2extent": 1628.8908, 
			 "electric_dipole_moment_norm": 1.76287860331, 
			 "electric_quadrupole_moment_norm": 7.11852525949, 
			 "total_energy": -769.243144045, 
			 "HOMO_LUMO_gap": 0.1926, 
			 "cosmo_polarized_energy": -4.06, 
			 "cosmo_cavitation_energy": 21.56, 
			 "cosmo_dispersion_energy": -15.99, 
			 "cosmo_repulsion_energy": 1.29, 
			 "cosmo_total_nonelectrostatic_energy": 6.87, 
			 "SMD_solvation_energy": 4.1 
		},
		"coords": [
			{
				"x": 1.2880068494,
				"y": 0.4059311815,
				"z": -2.6115204625,
				"element": "Cl" 
			},
			{
				"x": 0.6238032524,
				"y": 0.2616953204,
				"z": -0.9825400475,
				"element": "C" 
			},
			{
				"x": 0.0943284927,
				"y": 1.4152144962,
				"z": -0.4047024883,
				"element": "C" 
			},
			{
				"x": -0.4302763147,
				"y": 1.3615552859,
				"z": 0.8848518178,
				"element": "C" 
			},
			{
				"x": -0.4257840309,
				"y": 0.1524179628,
				"z": 1.5838750543,
				"element": "C" 
			},
			{
				"x": 0.1017360445,
				"y": -0.9894997886,
				"z": 0.9915228491,
				"element": "C" 
			},
			{
				"x": 0.6535905592,
				"y": -0.9721599421,
				"z": -0.3046144978,
				"element": "C" 
			},
			{
				"x": 1.211355,
				"y": -2.1895678829,
				"z": -0.9180795693,
				"element": "C" 
			},
			{
				"x": 1.6821040711,
				"y": -3.2521075067,
				"z": -0.2542012304,
				"element": "C" 
			},
			{
				"x": 0.0997115567,
				"y": 2.3431224582,
				"z": -0.9656981871,
				"element": "H" 
			},
			{
				"x": -0.845441101,
				"y": 2.2583029884,
				"z": 1.3346201786,
				"element": "H" 
			},
			{
				"x": -0.8446096247,
				"y": 0.0971426699,
				"z": 2.584131296,
				"element": "H" 
			},
			{
				"x": 0.0717364557,
				"y": -1.9329522035,
				"z": 1.5272431307,
				"element": "H" 
			},
			{
				"x": 1.2446917869,
				"y": -2.1976132427,
				"z": -2.0039308613,
				"element": "H" 
			},
			{
				"x": 1.7237318188,
				"y": -3.2954679837,
				"z": 0.8304093446,
				"element": "H" 
			},
			{
				"x": 2.0610151839,
				"y": -4.1175138131,
				"z": -0.7879663269,
				"element": "H" 
			}
		],
		 "valence_orbital": [ 
			{
				"type": "occ",
				"energy": -0.33319,
				"method": "rhf"
			},
			{
				"type": "occ",
				"energy": -0.31084,
				"method": "rhf"
			},
			{
				"type": "occ",
				"energy": -0.30166,
				"method": "rhf"
			},
			{
				"type": "occ",
				"energy": -0.25122,
				"method": "rhf"
			},
			{
				"type": "occ",
				"energy": -0.2323,
				"method": "rhf"
			},
			{
				"type": "unocc",
				"energy": -0.0397,
				"method": "rhf"
			},
			{
				"type": "unocc",
				"energy": -0.01223,
				"method": "rhf"
			},
			{
				"type": "unocc",
				"energy": 0.03091,
				"method": "rhf"
			},
			{
				"type": "unocc",
				"energy": 0.04601,
				"method": "rhf"
			},
			{
				"type": "unocc",
				"energy": 0.10362,
				"method": "rhf"
			}
		],
		"cosmo_sigma_profile": { 
			"-0.025": 0.0,
			"-0.024": 0.0,
			"-0.023": 0.0,
			"-0.022": 0.0,
			"-0.021": 0.0,
			"-0.02": 0.0,
			"-0.019": 0.0,
			"-0.018": 0.0,
			"-0.017": 0.0,
			"-0.016": 0.0,
			"-0.015": 0.0,
			"-0.014": 0.0,
			"-0.013": 0.0,
			"-0.012": 0.0,
			"-0.011": 0.0,
			"-0.01": 0.0,
			"-0.009": 0.0,
			"-0.008": 0.0512538033312,
			"-0.007": 3.2015792363,
			"-0.006": 11.2589539132,
			"-0.005": 11.8495552686,
			"-0.004": 12.7775541345,
			"-0.003": 11.1967675652,
			"-0.002": 10.4815883869,
			"-0.001": 13.0256446931,
			"0.0": 11.5827315538,
			"0.001": 14.7475885035,
			"0.002": 20.6288707363,
			"0.003": 20.9018184247,
			"0.004": 21.9918099263,
			"0.005": 9.91324528838,
			"0.006": 1.77505078074,
			"0.007": 0.0269227451286,
			"0.008": 0.0,
			"0.009": 0.0,
			"0.01": 0.0,
			"0.011": 0.0,
			"0.012": 0.0,
			"0.013": 0.0,
			"0.014": 0.0,
			"0.015": 0.0,
			"0.016": 0.0,
			"0.017": 0.0,
			"0.018": 0.0,
			"0.019": 0.0,
			"0.02": 0.0,
			"0.021": 0.0,
			"0.022": 0.0,
			"0.023": 0.0,
			"0.024": 0.0,
			"0.025": 0.0
		}
	}
}
