{
	 "smiles": "CC(=O)NC1=CC(C)=NN1CCC#N", 
	 "Tm": 433.15, 
	 "num_atms": 26, 
	 "gaussian": { 
		 "optdone": 1, 
		 "sigma_profile": "yes", 
		 "theory": "DFT", 
		 "functional": "B3LYP", 
		 "basiset": "6-31G**", 
		 "properties": { 
			 "R2extent": 3101.7584, 
			 "electric_dipole_moment_norm": 4.4461757174, 
			 "electric_quadrupole_moment_norm": 18.5511561082, 
			 "total_energy": -644.404983835, 
			 "HOMO_LUMO_gap": 0.24282, 
			 "cosmo_polarized_energy": -18.4, 
			 "cosmo_cavitation_energy": 31.03, 
			 "cosmo_dispersion_energy": -20.71, 
			 "cosmo_repulsion_energy": 1.67, 
			 "cosmo_total_nonelectrostatic_energy": 11.99, 
			 "SMD_solvation_energy": 7.06 
		},
		"coords": [
			{
				"x": -0.2597866877,
				"y": 1.5835779003,
				"z": 2.2446101374,
				"element": "C" 
			},
			{
				"x": 1.1228061035,
				"y": 2.0878262964,
				"z": 1.8920682869,
				"element": "C" 
			},
			{
				"x": 1.6715490036,
				"y": 3.0157302097,
				"z": 2.4599878717,
				"element": "O" 
			},
			{
				"x": 1.7768612901,
				"y": 1.4582800982,
				"z": 0.8279248106,
				"element": "N" 
			},
			{
				"x": 1.4178585319,
				"y": 0.2571167419,
				"z": 0.1978018023,
				"element": "C" 
			},
			{
				"x": 1.4202546203,
				"y": -1.0549578677,
				"z": 0.6370836185,
				"element": "C" 
			},
			{
				"x": 0.9849983518,
				"y": -1.8195202198,
				"z": -0.471143879,
				"element": "C" 
			},
			{
				"x": 0.7921872203,
				"y": -3.3020736964,
				"z": -0.5670240195,
				"element": "C" 
			},
			{
				"x": 0.7443651033,
				"y": -1.0370081886,
				"z": -1.5266350627,
				"element": "N" 
			},
			{
				"x": 1.0000065788,
				"y": 0.2236759962,
				"z": -1.1097562418,
				"element": "N" 
			},
			{
				"x": 0.8494930444,
				"y": 1.3246305789,
				"z": -2.0410755458,
				"element": "C" 
			},
			{
				"x": -0.5778562665,
				"y": 1.3953030678,
				"z": -2.6210116028,
				"element": "C" 
			},
			{
				"x": -1.5815570312,
				"y": 1.7275193302,
				"z": -1.6080384162,
				"element": "C" 
			},
			{
				"x": -2.355912686,
				"y": 1.9959893805,
				"z": -0.7861742794,
				"element": "N" 
			},
			{
				"x": -0.9546325438,
				"y": 1.7313793459,
				"z": 1.4114484152,
				"element": "H" 
			},
			{
				"x": -0.6088988128,
				"y": 2.1450146544,
				"z": 3.1105775881,
				"element": "H" 
			},
			{
				"x": -0.2497902427,
				"y": 0.5150461535,
				"z": 2.4757471006,
				"element": "H" 
			},
			{
				"x": 2.7228231123,
				"y": 1.8032221666,
				"z": 0.7048175625,
				"element": "H" 
			},
			{
				"x": 1.7070450986,
				"y": -1.4023692347,
				"z": 1.6187324888,
				"element": "H" 
			},
			{
				"x": 0.4827448832,
				"y": -3.5702460806,
				"z": -1.5795447627,
				"element": "H" 
			},
			{
				"x": 1.7164337843,
				"y": -3.8414061127,
				"z": -0.3327479687,
				"element": "H" 
			},
			{
				"x": 0.0241434654,
				"y": -3.6506267235,
				"z": 0.1321987794,
				"element": "H" 
			},
			{
				"x": 1.1034027336,
				"y": 2.2429032034,
				"z": -1.5086672855,
				"element": "H" 
			},
			{
				"x": 1.5507931475,
				"y": 1.1939004583,
				"z": -2.8717188578,
				"element": "H" 
			},
			{
				"x": -0.6106423347,
				"y": 2.1497942748,
				"z": -3.4147508244,
				"element": "H" 
			},
			{
				"x": -0.8257894676,
				"y": 0.425798267,
				"z": -3.0640097157,
				"element": "H" 
			}
		],
		 "valence_orbital": [ 
			{
				"type": "occ",
				"energy": -0.30657,
				"method": "rhf"
			},
			{
				"type": "occ",
				"energy": -0.27846,
				"method": "rhf"
			},
			{
				"type": "occ",
				"energy": -0.25859,
				"method": "rhf"
			},
			{
				"type": "occ",
				"energy": -0.2535,
				"method": "rhf"
			},
			{
				"type": "occ",
				"energy": -0.24691,
				"method": "rhf"
			},
			{
				"type": "unocc",
				"energy": -0.00409,
				"method": "rhf"
			},
			{
				"type": "unocc",
				"energy": 0.01485,
				"method": "rhf"
			},
			{
				"type": "unocc",
				"energy": 0.02295,
				"method": "rhf"
			},
			{
				"type": "unocc",
				"energy": 0.03058,
				"method": "rhf"
			},
			{
				"type": "unocc",
				"energy": 0.05008,
				"method": "rhf"
			}
		],
		"cosmo_sigma_profile": { 
			"-0.025": 0.0,
			"-0.024": 0.0,
			"-0.023": 0.0,
			"-0.022": 0.0,
			"-0.021": 0.0,
			"-0.02": 0.0,
			"-0.019": 0.0,
			"-0.018": 0.0,
			"-0.017": 0.0,
			"-0.016": 0.0,
			"-0.015": 0.243934710068,
			"-0.014": 0.957801081414,
			"-0.013": 1.23334543171,
			"-0.012": 1.09133181469,
			"-0.011": 0.672370106774,
			"-0.01": 1.09235217384,
			"-0.009": 4.54738855424,
			"-0.008": 8.25970204886,
			"-0.007": 12.2206341071,
			"-0.006": 12.5848888519,
			"-0.005": 16.387201796,
			"-0.004": 18.8199488813,
			"-0.003": 15.4261059219,
			"-0.002": 19.8251557961,
			"-0.001": 20.1375983092,
			"0.0": 19.3216439054,
			"0.001": 12.6787540195,
			"0.002": 9.1695873268,
			"0.003": 10.0524967105,
			"0.004": 8.80576813371,
			"0.005": 6.15837983679,
			"0.006": 5.60296007933,
			"0.007": 5.28958300739,
			"0.008": 5.14170940812,
			"0.009": 4.95999049535,
			"0.01": 5.08683777795,
			"0.011": 4.61141843149,
			"0.012": 6.10298320769,
			"0.013": 7.39989853616,
			"0.014": 2.72206406723,
			"0.015": 0.131274610599,
			"0.016": 0.0,
			"0.017": 0.0,
			"0.018": 0.0,
			"0.019": 0.0,
			"0.02": 0.0,
			"0.021": 0.0,
			"0.022": 0.0,
			"0.023": 0.0,
			"0.024": 0.0,
			"0.025": 0.0
		}
	}
}
