{
	 "smiles": "CC1=NN=C(O1)C1=CC=C(N)C=C1", 
	 "Tm": 469.15, 
	 "num_atms": 22, 
	 "gaussian": { 
		 "optdone": 1, 
		 "sigma_profile": "yes", 
		 "theory": "DFT", 
		 "functional": "B3LYP", 
		 "basiset": "6-31G**", 
		 "properties": { 
			 "R2extent": 3303.7336, 
			 "electric_dipole_moment_norm": 4.97417972032, 
			 "electric_quadrupole_moment_norm": 25.3804042222, 
			 "total_energy": -587.848470912, 
			 "HOMO_LUMO_gap": 0.1723, 
			 "cosmo_polarized_energy": -16.5, 
			 "cosmo_cavitation_energy": 26.86, 
			 "cosmo_dispersion_energy": -20.06, 
			 "cosmo_repulsion_energy": 1.59, 
			 "cosmo_total_nonelectrostatic_energy": 8.39, 
			 "SMD_solvation_energy": 3.19 
		},
		"coords": [
			{
				"x": 1.9218233594,
				"y": -3.5825694661,
				"z": 1.9485148308,
				"element": "C" 
			},
			{
				"x": 1.9622175383,
				"y": -2.1159395128,
				"z": 1.7224160766,
				"element": "C" 
			},
			{
				"x": 2.853529103,
				"y": -1.2592812573,
				"z": 2.1068036116,
				"element": "N" 
			},
			{
				"x": 2.433045845,
				"y": -0.0104803516,
				"z": 1.6438342835,
				"element": "N" 
			},
			{
				"x": 1.3122866566,
				"y": -0.2066624992,
				"z": 1.0109287468,
				"element": "C" 
			},
			{
				"x": 0.9475295402,
				"y": -1.5278704059,
				"z": 1.0187979486,
				"element": "O" 
			},
			{
				"x": 0.4633759685,
				"y": 0.7644416017,
				"z": 0.3407059389,
				"element": "C" 
			},
			{
				"x": -0.7219313353,
				"y": 0.3855312526,
				"z": -0.3091641048,
				"element": "C" 
			},
			{
				"x": -1.5153297127,
				"y": 1.3301448084,
				"z": -0.9461836919,
				"element": "C" 
			},
			{
				"x": -1.1482450118,
				"y": 2.6889228382,
				"z": -0.9531120047,
				"element": "C" 
			},
			{
				"x": -1.9656330052,
				"y": 3.6431270033,
				"z": -1.5429542968,
				"element": "N" 
			},
			{
				"x": 0.0416898001,
				"y": 3.0667825813,
				"z": -0.2989184006,
				"element": "C" 
			},
			{
				"x": 0.8316022861,
				"y": 2.1215252902,
				"z": 0.3355308888,
				"element": "C" 
			},
			{
				"x": 1.9177585332,
				"y": -4.1274674842,
				"z": 0.9987188175,
				"element": "H" 
			},
			{
				"x": 2.8029053789,
				"y": -3.8723936783,
				"z": 2.5221068304,
				"element": "H" 
			},
			{
				"x": 1.0227879926,
				"y": -3.8706870342,
				"z": 2.5032627965,
				"element": "H" 
			},
			{
				"x": -1.0199317674,
				"y": -0.6577863415,
				"z": -0.3160199509,
				"element": "H" 
			},
			{
				"x": -2.4318820854,
				"y": 1.0208981609,
				"z": -1.4420295051,
				"element": "H" 
			},
			{
				"x": -1.5233522504,
				"y": 4.5152475975,
				"z": -1.7952474759,
				"element": "H" 
			},
			{
				"x": -2.6071451427,
				"y": 3.3086719326,
				"z": -2.2475231578,
				"element": "H" 
			},
			{
				"x": 0.3379347107,
				"y": 4.1126466314,
				"z": -0.2909999277,
				"element": "H" 
			},
			{
				"x": 1.7477635982,
				"y": 2.417898333,
				"z": 0.8354317465,
				"element": "H" 
			}
		],
		 "valence_orbital": [ 
			{
				"type": "occ",
				"energy": -0.30518,
				"method": "rhf"
			},
			{
				"type": "occ",
				"energy": -0.26654,
				"method": "rhf"
			},
			{
				"type": "occ",
				"energy": -0.26249,
				"method": "rhf"
			},
			{
				"type": "occ",
				"energy": -0.25721,
				"method": "rhf"
			},
			{
				"type": "occ",
				"energy": -0.20294,
				"method": "rhf"
			},
			{
				"type": "unocc",
				"energy": -0.03064,
				"method": "rhf"
			},
			{
				"type": "unocc",
				"energy": -0.00575,
				"method": "rhf"
			},
			{
				"type": "unocc",
				"energy": 0.02829,
				"method": "rhf"
			},
			{
				"type": "unocc",
				"energy": 0.0672,
				"method": "rhf"
			},
			{
				"type": "unocc",
				"energy": 0.0816,
				"method": "rhf"
			}
		],
		"cosmo_sigma_profile": { 
			"-0.025": 0.0,
			"-0.024": 0.0,
			"-0.023": 0.0,
			"-0.022": 0.0,
			"-0.021": 0.0,
			"-0.02": 0.0,
			"-0.019": 0.0,
			"-0.018": 0.0,
			"-0.017": 0.0,
			"-0.016": 0.0,
			"-0.015": 0.0,
			"-0.014": 0.0349782243756,
			"-0.013": 1.93453269722,
			"-0.012": 3.09861367559,
			"-0.011": 2.40867495499,
			"-0.01": 3.90032017298,
			"-0.009": 2.96232939142,
			"-0.008": 3.35360756533,
			"-0.007": 5.94404924321,
			"-0.006": 13.2728096961,
			"-0.005": 13.4555166146,
			"-0.004": 13.8469181651,
			"-0.003": 17.1660744443,
			"-0.002": 16.3930573986,
			"-0.001": 11.9068858853,
			"0.0": 11.3632896461,
			"0.001": 10.7203679439,
			"0.002": 12.3618433114,
			"0.003": 12.4749097291,
			"0.004": 15.1782176982,
			"0.005": 13.0537942145,
			"0.006": 2.52181014038,
			"0.007": 2.26079395795,
			"0.008": 3.33304884698,
			"0.009": 2.88843278504,
			"0.01": 2.60845264768,
			"0.011": 3.68174431027,
			"0.012": 4.02807393919,
			"0.013": 3.22080650767,
			"0.014": 2.4892927098,
			"0.015": 2.23675044009,
			"0.016": 0.633522838659,
			"0.017": 0.0,
			"0.018": 0.0,
			"0.019": 0.0,
			"0.02": 0.0,
			"0.021": 0.0,
			"0.022": 0.0,
			"0.023": 0.0,
			"0.024": 0.0,
			"0.025": 0.0
		}
	}
}
