{
	 "smiles": "CC(=C)C(=O)NC1=CC=C(Cl)C(Cl)=C1", 
	 "Tm": 401.15, 
	 "num_atms": 23, 
	 "gaussian": { 
		 "optdone": 1, 
		 "sigma_profile": "yes", 
		 "theory": "DFT", 
		 "functional": "B3LYP", 
		 "basiset": "6-31G**", 
		 "properties": { 
			 "R2extent": 4672.9626, 
			 "electric_dipole_moment_norm": 1.51142928713, 
			 "electric_quadrupole_moment_norm": 18.1034659596, 
			 "total_energy": -1436.83777438, 
			 "HOMO_LUMO_gap": 0.18962, 
			 "cosmo_polarized_energy": -11.44, 
			 "cosmo_cavitation_energy": 31.18, 
			 "cosmo_dispersion_energy": -21.93, 
			 "cosmo_repulsion_energy": 1.75, 
			 "cosmo_total_nonelectrostatic_energy": 11.0, 
			 "SMD_solvation_energy": 6.12 
		},
		"coords": [
			{
				"x": -0.4726238717,
				"y": -2.7956940681,
				"z": -2.3662469333,
				"element": "C" 
			},
			{
				"x": 0.2529700976,
				"y": -1.8272468829,
				"z": -1.4692492799,
				"element": "C" 
			},
			{
				"x": 0.5197926347,
				"y": -2.0646806308,
				"z": -0.1794448271,
				"element": "C" 
			},
			{
				"x": 0.8281678397,
				"y": -0.6293147625,
				"z": -2.1719269829,
				"element": "C" 
			},
			{
				"x": 1.2963735708,
				"y": -0.7334244202,
				"z": -3.2987626663,
				"element": "O" 
			},
			{
				"x": 0.9123932644,
				"y": 0.5920507053,
				"z": -1.5141838309,
				"element": "N" 
			},
			{
				"x": 0.1773283556,
				"y": 1.1401201178,
				"z": -0.4408175916,
				"element": "C" 
			},
			{
				"x": 0.7885197732,
				"y": 2.1184262212,
				"z": 0.3564638448,
				"element": "C" 
			},
			{
				"x": 0.0861461278,
				"y": 2.7229712645,
				"z": 1.3928174718,
				"element": "C" 
			},
			{
				"x": -1.231898896,
				"y": 2.3545956076,
				"z": 1.6691705929,
				"element": "C" 
			},
			{
				"x": -2.0692910222,
				"y": 3.1233634154,
				"z": 2.9939066831,
				"element": "Cl" 
			},
			{
				"x": -1.8463840004,
				"y": 1.3789648237,
				"z": 0.8723269494,
				"element": "C" 
			},
			{
				"x": -3.500178139,
				"y": 0.8896891265,
				"z": 1.1504932618,
				"element": "Cl" 
			},
			{
				"x": -1.1535054417,
				"y": 0.7889700043,
				"z": -0.1841322699,
				"element": "C" 
			},
			{
				"x": -0.7511533871,
				"y": -3.7021516345,
				"z": -1.8239119106,
				"element": "H" 
			},
			{
				"x": -1.3832907394,
				"y": -2.3471662224,
				"z": -2.7818058438,
				"element": "H" 
			},
			{
				"x": 0.1624032875,
				"y": -3.0610775173,
				"z": -3.216224441,
				"element": "H" 
			},
			{
				"x": 0.1940663055,
				"y": -2.983442228,
				"z": 0.300030301,
				"element": "H" 
			},
			{
				"x": 1.080369366,
				"y": -1.3670162473,
				"z": 0.433479966,
				"element": "H" 
			},
			{
				"x": 1.4833730398,
				"y": 1.2445564926,
				"z": -2.0390378688,
				"element": "H" 
			},
			{
				"x": 1.8201429761,
				"y": 2.3990761413,
				"z": 0.1672225676,
				"element": "H" 
			},
			{
				"x": 0.5615048946,
				"y": 3.4790951257,
				"z": 2.0075656413,
				"element": "H" 
			},
			{
				"x": -1.6619260358,
				"y": 0.060735568,
				"z": -0.8017328338,
				"element": "H" 
			}
		],
		 "valence_orbital": [ 
			{
				"type": "occ",
				"energy": -0.30039,
				"method": "rhf"
			},
			{
				"type": "occ",
				"energy": -0.27841,
				"method": "rhf"
			},
			{
				"type": "occ",
				"energy": -0.26541,
				"method": "rhf"
			},
			{
				"type": "occ",
				"energy": -0.26305,
				"method": "rhf"
			},
			{
				"type": "occ",
				"energy": -0.23624,
				"method": "rhf"
			},
			{
				"type": "unocc",
				"energy": -0.04662,
				"method": "rhf"
			},
			{
				"type": "unocc",
				"energy": -0.03238,
				"method": "rhf"
			},
			{
				"type": "unocc",
				"energy": -0.01907,
				"method": "rhf"
			},
			{
				"type": "unocc",
				"energy": -0.00173,
				"method": "rhf"
			},
			{
				"type": "unocc",
				"energy": 0.05288,
				"method": "rhf"
			}
		],
		"cosmo_sigma_profile": { 
			"-0.025": 0.0,
			"-0.024": 0.0,
			"-0.023": 0.0,
			"-0.022": 0.0,
			"-0.021": 0.0,
			"-0.02": 0.0,
			"-0.019": 0.0,
			"-0.018": 0.0,
			"-0.017": 0.0,
			"-0.016": 0.0,
			"-0.015": 0.286344951039,
			"-0.014": 1.14835121994,
			"-0.013": 1.21109174101,
			"-0.012": 0.993913363825,
			"-0.011": 1.17673419094,
			"-0.01": 1.24208696515,
			"-0.009": 1.56697031646,
			"-0.008": 4.8518888476,
			"-0.007": 6.94404456202,
			"-0.006": 8.29462401162,
			"-0.005": 12.4780517483,
			"-0.004": 13.4830967903,
			"-0.003": 15.2023430057,
			"-0.002": 17.3865877599,
			"-0.001": 22.2067858053,
			"0.0": 27.4414439894,
			"0.001": 30.0959646121,
			"0.002": 24.2057392445,
			"0.003": 17.2503694495,
			"0.004": 19.9758789793,
			"0.005": 6.601361295,
			"0.006": 2.87862235045,
			"0.007": 1.68502284657,
			"0.008": 0.877354373805,
			"0.009": 1.39381173169,
			"0.01": 1.91205862083,
			"0.011": 1.81965211123,
			"0.012": 3.61424074031,
			"0.013": 4.79534548457,
			"0.014": 0.294046064656,
			"0.015": 0.0,
			"0.016": 0.0,
			"0.017": 0.0,
			"0.018": 0.0,
			"0.019": 0.0,
			"0.02": 0.0,
			"0.021": 0.0,
			"0.022": 0.0,
			"0.023": 0.0,
			"0.024": 0.0,
			"0.025": 0.0
		}
	}
}
