{
	 "smiles": "CC1=CC(C(=O)CCl)=C(C)N1C1=C(F)C=CC=C1", 
	 "Tm": 361.15, 
	 "num_atms": 31, 
	 "gaussian": { 
		 "optdone": 1, 
		 "sigma_profile": "yes", 
		 "theory": "DFT", 
		 "functional": "B3LYP", 
		 "basiset": "6-31G**", 
		 "properties": { 
			 "R2extent": 6700.8956, 
			 "electric_dipole_moment_norm": 5.74180435926, 
			 "electric_quadrupole_moment_norm": 14.8885257548, 
			 "total_energy": -1231.33159424, 
			 "HOMO_LUMO_gap": 0.16513, 
			 "cosmo_polarized_energy": -11.52, 
			 "cosmo_cavitation_energy": 36.72, 
			 "cosmo_dispersion_energy": -25.26, 
			 "cosmo_repulsion_energy": 1.95, 
			 "cosmo_total_nonelectrostatic_energy": 13.41, 
			 "SMD_solvation_energy": 7.13 
		},
		"coords": [
			{
				"x": -0.3227255198,
				"y": -2.8539257676,
				"z": 0.7458929495,
				"element": "C" 
			},
			{
				"x": -0.07983829,
				"y": -2.0237765451,
				"z": -0.4719563899,
				"element": "C" 
			},
			{
				"x": 0.0061128865,
				"y": -2.378986649,
				"z": -1.7888184081,
				"element": "C" 
			},
			{
				"x": 0.2414192285,
				"y": -1.1916035424,
				"z": -2.5643737307,
				"element": "C" 
			},
			{
				"x": 0.4386607961,
				"y": -1.1047316922,
				"z": -4.0090805579,
				"element": "C" 
			},
			{
				"x": 0.672526905,
				"y": -0.0655932605,
				"z": -4.6202715576,
				"element": "O" 
			},
			{
				"x": 0.3980226995,
				"y": -2.4084685952,
				"z": -4.8194203483,
				"element": "C" 
			},
			{
				"x": -1.2861374667,
				"y": -3.0846644064,
				"z": -4.943554896,
				"element": "Cl" 
			},
			{
				"x": 0.2893192202,
				"y": -0.1174952176,
				"z": -1.6724683049,
				"element": "C" 
			},
			{
				"x": 0.5384457225,
				"y": 1.3357649078,
				"z": -1.9151563231,
				"element": "C" 
			},
			{
				"x": 0.0901465706,
				"y": -0.632260833,
				"z": -0.4086105131,
				"element": "N" 
			},
			{
				"x": 0.055431749,
				"y": 0.1369585618,
				"z": 0.7899658871,
				"element": "C" 
			},
			{
				"x": 1.0833675154,
				"y": 0.0255839457,
				"z": 1.731970943,
				"element": "C" 
			},
			{
				"x": 2.0968226681,
				"y": -0.8287094593,
				"z": 1.4929710898,
				"element": "F" 
			},
			{
				"x": 1.0824434363,
				"y": 0.7621235263,
				"z": 2.9098016669,
				"element": "C" 
			},
			{
				"x": 0.0304060257,
				"y": 1.645687144,
				"z": 3.1535021081,
				"element": "C" 
			},
			{
				"x": -1.0076841707,
				"y": 1.7761437013,
				"z": 2.2282359329,
				"element": "C" 
			},
			{
				"x": -0.9960142388,
				"y": 1.0205468415,
				"z": 1.0559990609,
				"element": "C" 
			},
			{
				"x": 0.536554598,
				"y": -2.8437384299,
				"z": 1.4256742644,
				"element": "H" 
			},
			{
				"x": -0.5023368454,
				"y": -3.8888474257,
				"z": 0.4461620391,
				"element": "H" 
			},
			{
				"x": -1.1971800049,
				"y": -2.5119426147,
				"z": 1.3122198953,
				"element": "H" 
			},
			{
				"x": -0.11319992,
				"y": -3.3839468883,
				"z": -2.1669375482,
				"element": "H" 
			},
			{
				"x": 1.016743031,
				"y": -3.1896042041,
				"z": -4.373846195,
				"element": "H" 
			},
			{
				"x": 0.727376481,
				"y": -2.1878227815,
				"z": -5.8329975065,
				"element": "H" 
			},
			{
				"x": 0.8504097855,
				"y": 1.4672112074,
				"z": -2.9500844333,
				"element": "H" 
			},
			{
				"x": -0.3629437285,
				"y": 1.9391575889,
				"z": -1.7530728917,
				"element": "H" 
			},
			{
				"x": 1.3131603914,
				"y": 1.725204028,
				"z": -1.2450903095,
				"element": "H" 
			},
			{
				"x": 1.9026326238,
				"y": 0.638010466,
				"z": 3.608442417,
				"element": "H" 
			},
			{
				"x": 0.0227280215,
				"y": 2.228566357,
				"z": 4.0692122135,
				"element": "H" 
			},
			{
				"x": -1.828775901,
				"y": 2.4588978073,
				"z": 2.4208631597,
				"element": "H" 
			},
			{
				"x": -1.80269427,
				"y": 1.0994622296,
				"z": 0.3344262863,
				"element": "H" 
			}
		],
		 "valence_orbital": [ 
			{
				"type": "occ",
				"energy": -0.28219,
				"method": "rhf"
			},
			{
				"type": "occ",
				"energy": -0.26784,
				"method": "rhf"
			},
			{
				"type": "occ",
				"energy": -0.24562,
				"method": "rhf"
			},
			{
				"type": "occ",
				"energy": -0.24051,
				"method": "rhf"
			},
			{
				"type": "occ",
				"energy": -0.21017,
				"method": "rhf"
			},
			{
				"type": "unocc",
				"energy": -0.04504,
				"method": "rhf"
			},
			{
				"type": "unocc",
				"energy": -0.03234,
				"method": "rhf"
			},
			{
				"type": "unocc",
				"energy": -0.02049,
				"method": "rhf"
			},
			{
				"type": "unocc",
				"energy": 0.02846,
				"method": "rhf"
			},
			{
				"type": "unocc",
				"energy": 0.04353,
				"method": "rhf"
			}
		],
		"cosmo_sigma_profile": { 
			"-0.025": 0.0,
			"-0.024": 0.0,
			"-0.023": 0.0,
			"-0.022": 0.0,
			"-0.021": 0.0,
			"-0.02": 0.0,
			"-0.019": 0.0,
			"-0.018": 0.0,
			"-0.017": 0.0,
			"-0.016": 0.0,
			"-0.015": 0.0,
			"-0.014": 0.0,
			"-0.013": 0.0,
			"-0.012": 0.0,
			"-0.011": 0.0,
			"-0.01": 0.0,
			"-0.009": 0.0598925986395,
			"-0.008": 3.55074002862,
			"-0.007": 11.0478030156,
			"-0.006": 15.2751636478,
			"-0.005": 21.5699723705,
			"-0.004": 20.1515601934,
			"-0.003": 20.947017563,
			"-0.002": 20.9612406525,
			"-0.001": 27.9773144949,
			"0.0": 23.8388614067,
			"0.001": 21.3140153894,
			"0.002": 21.0946630817,
			"0.003": 24.6111996933,
			"0.004": 20.5535410169,
			"0.005": 13.7070995243,
			"0.006": 14.0433069815,
			"0.007": 2.32830798275,
			"0.008": 0.958644023282,
			"0.009": 2.46852575232,
			"0.01": 1.71922540169,
			"0.011": 2.31621942172,
			"0.012": 2.92818626682,
			"0.013": 1.5233184337,
			"0.014": 0.0508671467679,
			"0.015": 0.0,
			"0.016": 0.0,
			"0.017": 0.0,
			"0.018": 0.0,
			"0.019": 0.0,
			"0.02": 0.0,
			"0.021": 0.0,
			"0.022": 0.0,
			"0.023": 0.0,
			"0.024": 0.0,
			"0.025": 0.0
		}
	}
}
