{
	 "smiles": "OCC1=CN=C(N1)C1=CC=CC=C1", 
	 "Tm": 428.15, 
	 "num_atms": 23, 
	 "gaussian": { 
		 "optdone": 1, 
		 "sigma_profile": "yes", 
		 "theory": "DFT", 
		 "functional": "B3LYP", 
		 "basiset": "6-31G**", 
		 "properties": { 
			 "R2extent": 3356.848, 
			 "electric_dipole_moment_norm": 4.15582781284, 
			 "electric_quadrupole_moment_norm": 14.9514598551, 
			 "total_energy": -571.810696551, 
			 "HOMO_LUMO_gap": 0.17541, 
			 "cosmo_polarized_energy": -14.87, 
			 "cosmo_cavitation_energy": 27.04, 
			 "cosmo_dispersion_energy": -20.33, 
			 "cosmo_repulsion_energy": 1.61, 
			 "cosmo_total_nonelectrostatic_energy": 8.32, 
			 "SMD_solvation_energy": 3.13 
		},
		"coords": [
			{
				"x": 1.9947042162,
				"y": 2.9481553391,
				"z": -1.7248558289,
				"element": "O" 
			},
			{
				"x": 1.7957509058,
				"y": 3.0324406445,
				"z": -0.3159648725,
				"element": "C" 
			},
			{
				"x": 0.7801837719,
				"y": 1.9944590038,
				"z": 0.056653222,
				"element": "C" 
			},
			{
				"x": 0.1961056106,
				"y": 1.6068845454,
				"z": 1.2430474464,
				"element": "C" 
			},
			{
				"x": -0.6915309459,
				"y": 0.5841149362,
				"z": 1.032388223,
				"element": "N" 
			},
			{
				"x": -0.6624974106,
				"y": 0.3354139974,
				"z": -0.2703848736,
				"element": "C" 
			},
			{
				"x": 0.2241536165,
				"y": 1.1769319401,
				"z": -0.8961590445,
				"element": "N" 
			},
			{
				"x": -1.4561616612,
				"y": -0.6864263283,
				"z": -0.9569218458,
				"element": "C" 
			},
			{
				"x": -1.3774339659,
				"y": -0.8972018078,
				"z": -2.3435891835,
				"element": "C" 
			},
			{
				"x": -2.1508177414,
				"y": -1.8811990357,
				"z": -2.9578012778,
				"element": "C" 
			},
			{
				"x": -3.0159010069,
				"y": -2.6717663113,
				"z": -2.1997577352,
				"element": "C" 
			},
			{
				"x": -3.1005392536,
				"y": -2.4687469926,
				"z": -0.8191176733,
				"element": "C" 
			},
			{
				"x": -2.3306397731,
				"y": -1.4879347293,
				"z": -0.2017928234,
				"element": "C" 
			},
			{
				"x": 2.6465292816,
				"y": 3.6103563967,
				"z": -1.9820720281,
				"element": "H" 
			},
			{
				"x": 1.438434378,
				"y": 4.0331045001,
				"z": -0.0251154152,
				"element": "H" 
			},
			{
				"x": 2.7365533944,
				"y": 2.8541374387,
				"z": 0.2287324879,
				"element": "H" 
			},
			{
				"x": 0.3685772013,
				"y": 2.0098943823,
				"z": 2.232116201,
				"element": "H" 
			},
			{
				"x": 0.4649873731,
				"y": 1.2312358447,
				"z": -1.874229772,
				"element": "H" 
			},
			{
				"x": -0.7118362232,
				"y": -0.2952454591,
				"z": -2.9568687061,
				"element": "H" 
			},
			{
				"x": -2.0761210006,
				"y": -2.029247436,
				"z": -4.0314698408,
				"element": "H" 
			},
			{
				"x": -3.6178746964,
				"y": -3.4379765033,
				"z": -2.6793898322,
				"element": "H" 
			},
			{
				"x": -3.7711008267,
				"y": -3.0791757032,
				"z": -0.2206134478,
				"element": "H" 
			},
			{
				"x": -2.3865252438,
				"y": -1.3199086622,
				"z": 0.8681666202,
				"element": "H" 
			}
		],
		 "valence_orbital": [ 
			{
				"type": "occ",
				"energy": -0.27594,
				"method": "rhf"
			},
			{
				"type": "occ",
				"energy": -0.26276,
				"method": "rhf"
			},
			{
				"type": "occ",
				"energy": -0.25842,
				"method": "rhf"
			},
			{
				"type": "occ",
				"energy": -0.24525,
				"method": "rhf"
			},
			{
				"type": "occ",
				"energy": -0.19528,
				"method": "rhf"
			},
			{
				"type": "unocc",
				"energy": -0.01987,
				"method": "rhf"
			},
			{
				"type": "unocc",
				"energy": 0.00485,
				"method": "rhf"
			},
			{
				"type": "unocc",
				"energy": 0.05159,
				"method": "rhf"
			},
			{
				"type": "unocc",
				"energy": 0.05491,
				"method": "rhf"
			},
			{
				"type": "unocc",
				"energy": 0.0837,
				"method": "rhf"
			}
		],
		"cosmo_sigma_profile": { 
			"-0.025": 0.0,
			"-0.024": 0.0,
			"-0.023": 0.0,
			"-0.022": 0.0,
			"-0.021": 0.0,
			"-0.02": 0.0,
			"-0.019": 0.0,
			"-0.018": 0.0,
			"-0.017": 0.392485771716,
			"-0.016": 1.31259540858,
			"-0.015": 0.958050364585,
			"-0.014": 1.25466099635,
			"-0.013": 2.81883897108,
			"-0.012": 1.24793774487,
			"-0.011": 1.97695933348,
			"-0.01": 1.76604788389,
			"-0.009": 2.46208876216,
			"-0.008": 1.91346000797,
			"-0.007": 2.59373024655,
			"-0.006": 9.15290320322,
			"-0.005": 19.54457005,
			"-0.004": 18.5941965518,
			"-0.003": 14.9720705192,
			"-0.002": 10.2175102351,
			"-0.001": 9.8729093565,
			"0.0": 10.8735345318,
			"0.001": 9.96433484379,
			"0.002": 14.2513565802,
			"0.003": 16.1291423629,
			"0.004": 16.476033446,
			"0.005": 15.8530040973,
			"0.006": 10.5239754005,
			"0.007": 3.66000604562,
			"0.008": 3.10718294048,
			"0.009": 3.64304467103,
			"0.01": 3.35718417746,
			"0.011": 1.48573461622,
			"0.012": 1.06644377067,
			"0.013": 1.22569510582,
			"0.014": 0.944868751591,
			"0.015": 1.02277577913,
			"0.016": 1.02445249885,
			"0.017": 0.201729589786,
			"0.018": 0.0,
			"0.019": 0.0,
			"0.02": 0.0,
			"0.021": 0.0,
			"0.022": 0.0,
			"0.023": 0.0,
			"0.024": 0.0,
			"0.025": 0.0
		}
	}
}
