{
	 "smiles": "CC1=CC=CS1", 
	 "Tm": 209.95, 
	 "num_atms": 12, 
	 "gaussian": { 
		 "optdone": 1, 
		 "sigma_profile": "yes", 
		 "theory": "DFT", 
		 "functional": "B3LYP", 
		 "basiset": "6-31G**", 
		 "properties": { 
			 "R2extent": 1376.019, 
			 "electric_dipole_moment_norm": 0.725762592037, 
			 "electric_quadrupole_moment_norm": 5.64124896455, 
			 "total_energy": -592.323828101, 
			 "HOMO_LUMO_gap": 0.21683, 
			 "cosmo_polarized_energy": -3.31, 
			 "cosmo_cavitation_energy": 16.86, 
			 "cosmo_dispersion_energy": -13.3, 
			 "cosmo_repulsion_energy": 1.08, 
			 "cosmo_total_nonelectrostatic_energy": 4.65, 
			 "SMD_solvation_energy": 3.11 
		},
		"coords": [
			{
				"x": 2.8239727466,
				"y": 2.1569745024,
				"z": 2.060488676,
				"element": "C" 
			},
			{
				"x": 1.8584157673,
				"y": 1.1680562451,
				"z": 1.477755531,
				"element": "C" 
			},
			{
				"x": 0.4959265186,
				"y": 1.2660047635,
				"z": 1.3773919374,
				"element": "C" 
			},
			{
				"x": -0.1196076034,
				"y": 0.1310313905,
				"z": 0.7620786191,
				"element": "C" 
			},
			{
				"x": 0.7833435324,
				"y": -0.8260387812,
				"z": 0.3973941417,
				"element": "C" 
			},
			{
				"x": 2.4053000648,
				"y": -0.3509772997,
				"z": 0.8025396433,
				"element": "S" 
			},
			{
				"x": 3.5555759216,
				"y": 2.5016099466,
				"z": 1.3207394231,
				"element": "H" 
			},
			{
				"x": 3.3839684956,
				"y": 1.736448611,
				"z": 2.9035831411,
				"element": "H" 
			},
			{
				"x": 2.2793929805,
				"y": 3.0325970569,
				"z": 2.4247195771,
				"element": "H" 
			},
			{
				"x": -0.0541287769,
				"y": 2.1300763246,
				"z": 1.73546353,
				"element": "H" 
			},
			{
				"x": -1.187626626,
				"y": 0.0363368727,
				"z": 0.6005847222,
				"element": "H" 
			},
			{
				"x": 0.6012669789,
				"y": -1.7776196324,
				"z": -0.0822389419,
				"element": "H" 
			}
		],
		 "valence_orbital": [ 
			{
				"type": "occ",
				"energy": -0.36067,
				"method": "rhf"
			},
			{
				"type": "occ",
				"energy": -0.35746,
				"method": "rhf"
			},
			{
				"type": "occ",
				"energy": -0.33236,
				"method": "rhf"
			},
			{
				"type": "occ",
				"energy": -0.24413,
				"method": "rhf"
			},
			{
				"type": "occ",
				"energy": -0.22176,
				"method": "rhf"
			},
			{
				"type": "unocc",
				"energy": -0.00493,
				"method": "rhf"
			},
			{
				"type": "unocc",
				"energy": 0.03564,
				"method": "rhf"
			},
			{
				"type": "unocc",
				"energy": 0.07603,
				"method": "rhf"
			},
			{
				"type": "unocc",
				"energy": 0.09529,
				"method": "rhf"
			},
			{
				"type": "unocc",
				"energy": 0.11583,
				"method": "rhf"
			}
		],
		"cosmo_sigma_profile": { 
			"-0.025": 0.0,
			"-0.024": 0.0,
			"-0.023": 0.0,
			"-0.022": 0.0,
			"-0.021": 0.0,
			"-0.02": 0.0,
			"-0.019": 0.0,
			"-0.018": 0.0,
			"-0.017": 0.0,
			"-0.016": 0.0,
			"-0.015": 0.0,
			"-0.014": 0.0,
			"-0.013": 0.0,
			"-0.012": 0.0,
			"-0.011": 0.0,
			"-0.01": 0.0,
			"-0.009": 0.0,
			"-0.008": 0.962055021787,
			"-0.007": 2.36530006028,
			"-0.006": 4.45826617107,
			"-0.005": 8.62516656097,
			"-0.004": 12.2558171109,
			"-0.003": 13.5748910598,
			"-0.002": 12.7813848023,
			"-0.001": 13.2095115123,
			"0.0": 9.68877573017,
			"0.001": 8.26740061607,
			"0.002": 8.04331986854,
			"0.003": 9.29130407774,
			"0.004": 9.25950758336,
			"0.005": 12.6331750597,
			"0.006": 9.11539866493,
			"0.007": 2.06582677013,
			"0.008": 0.0,
			"0.009": 0.0,
			"0.01": 0.0,
			"0.011": 0.0,
			"0.012": 0.0,
			"0.013": 0.0,
			"0.014": 0.0,
			"0.015": 0.0,
			"0.016": 0.0,
			"0.017": 0.0,
			"0.018": 0.0,
			"0.019": 0.0,
			"0.02": 0.0,
			"0.021": 0.0,
			"0.022": 0.0,
			"0.023": 0.0,
			"0.024": 0.0,
			"0.025": 0.0
		}
	}
}
