{
	 "smiles": "CCN1C(=CC2=C1C=CC=C2)C(O)=O", 
	 "Tm": 451.15, 
	 "num_atms": 25, 
	 "gaussian": { 
		 "optdone": 1, 
		 "sigma_profile": "yes", 
		 "theory": "DFT", 
		 "functional": "B3LYP", 
		 "basiset": "6-31G**", 
		 "properties": { 
			 "R2extent": 3689.4271, 
			 "electric_dipole_moment_norm": 2.88487177185, 
			 "electric_quadrupole_moment_norm": 13.8767530478, 
			 "total_energy": -631.025545735, 
			 "HOMO_LUMO_gap": 0.16132, 
			 "cosmo_polarized_energy": -10.62, 
			 "cosmo_cavitation_energy": 28.51, 
			 "cosmo_dispersion_energy": -20.67, 
			 "cosmo_repulsion_energy": 1.61, 
			 "cosmo_total_nonelectrostatic_energy": 9.45, 
			 "SMD_solvation_energy": 5.8 
		},
		"coords": [
			{
				"x": 0.9284062179,
				"y": -3.013882556,
				"z": -2.8970624284,
				"element": "C" 
			},
			{
				"x": 0.7368689957,
				"y": -3.2399452661,
				"z": -1.3953985083,
				"element": "C" 
			},
			{
				"x": 0.7607487466,
				"y": -1.9992288181,
				"z": -0.6181643884,
				"element": "N" 
			},
			{
				"x": 1.8614667747,
				"y": -1.3270021986,
				"z": -0.0732552874,
				"element": "C" 
			},
			{
				"x": 1.4337103404,
				"y": -0.1774058444,
				"z": 0.5623054776,
				"element": "C" 
			},
			{
				"x": 0.0230122112,
				"y": -0.1041511696,
				"z": 0.4119002466,
				"element": "C" 
			},
			{
				"x": -0.3661571776,
				"y": -1.2544432512,
				"z": -0.3354677515,
				"element": "C" 
			},
			{
				"x": -1.7103514591,
				"y": -1.4907345221,
				"z": -0.6699289926,
				"element": "C" 
			},
			{
				"x": -2.6518470975,
				"y": -0.5668242299,
				"z": -0.2406326085,
				"element": "C" 
			},
			{
				"x": -2.2833612268,
				"y": 0.577088785,
				"z": 0.5048502208,
				"element": "C" 
			},
			{
				"x": -0.9596394829,
				"y": 0.8148088201,
				"z": 0.8327457295,
				"element": "C" 
			},
			{
				"x": 3.273750802,
				"y": -1.7157127579,
				"z": -0.1396720846,
				"element": "C" 
			},
			{
				"x": 3.5281764322,
				"y": -2.8354498175,
				"z": -0.8749340693,
				"element": "O" 
			},
			{
				"x": 4.1708780599,
				"y": -1.0970761221,
				"z": 0.4008471656,
				"element": "O" 
			},
			{
				"x": 0.1645296772,
				"y": -2.3393151337,
				"z": -3.2952292707,
				"element": "H" 
			},
			{
				"x": 0.8578617072,
				"y": -3.9671072932,
				"z": -3.4314507505,
				"element": "H" 
			},
			{
				"x": 1.9124574355,
				"y": -2.5826733383,
				"z": -3.0967096892,
				"element": "H" 
			},
			{
				"x": -0.2270713046,
				"y": -3.7179553397,
				"z": -1.1984550783,
				"element": "H" 
			},
			{
				"x": 1.5109040116,
				"y": -3.9014440972,
				"z": -1.0088130541,
				"element": "H" 
			},
			{
				"x": 2.0895791111,
				"y": 0.5150263838,
				"z": 1.0688314372,
				"element": "H" 
			},
			{
				"x": -2.011516799,
				"y": -2.3578575844,
				"z": -1.2485660338,
				"element": "H" 
			},
			{
				"x": -3.6980661731,
				"y": -0.7244741182,
				"z": -0.486347635,
				"element": "H" 
			},
			{
				"x": -3.053108778,
				"y": 1.2750889647,
				"z": 0.820026475,
				"element": "H" 
			},
			{
				"x": -0.676297424,
				"y": 1.6939821973,
				"z": 1.40434102,
				"element": "H" 
			},
			{
				"x": 4.4913663993,
				"y": -2.9555116928,
				"z": -0.8263601417,
				"element": "H" 
			}
		],
		 "valence_orbital": [ 
			{
				"type": "occ",
				"energy": -0.31614,
				"method": "rhf"
			},
			{
				"type": "occ",
				"energy": -0.27931,
				"method": "rhf"
			},
			{
				"type": "occ",
				"energy": -0.27864,
				"method": "rhf"
			},
			{
				"type": "occ",
				"energy": -0.22633,
				"method": "rhf"
			},
			{
				"type": "occ",
				"energy": -0.20912,
				"method": "rhf"
			},
			{
				"type": "unocc",
				"energy": -0.0478,
				"method": "rhf"
			},
			{
				"type": "unocc",
				"energy": 0.0159,
				"method": "rhf"
			},
			{
				"type": "unocc",
				"energy": 0.03006,
				"method": "rhf"
			},
			{
				"type": "unocc",
				"energy": 0.07271,
				"method": "rhf"
			},
			{
				"type": "unocc",
				"energy": 0.09156,
				"method": "rhf"
			}
		],
		"cosmo_sigma_profile": { 
			"-0.025": 0.0,
			"-0.024": 0.0,
			"-0.023": 0.0,
			"-0.022": 0.0,
			"-0.021": 0.0,
			"-0.02": 0.0,
			"-0.019": 0.0524203671419,
			"-0.018": 0.699345469108,
			"-0.017": 0.648080271946,
			"-0.016": 0.999343042628,
			"-0.015": 0.848893927507,
			"-0.014": 0.78546974004,
			"-0.013": 0.302090005275,
			"-0.012": 0.752358590167,
			"-0.011": 1.20660571734,
			"-0.01": 0.595347395913,
			"-0.009": 0.317560415271,
			"-0.008": 0.58585318886,
			"-0.007": 3.44785848197,
			"-0.006": 7.90005910864,
			"-0.005": 11.3431449902,
			"-0.004": 17.399830639,
			"-0.003": 23.4028669646,
			"-0.002": 21.1967642464,
			"-0.001": 17.9355966899,
			"0.0": 17.8002418051,
			"0.001": 16.0238594111,
			"0.002": 12.5105096074,
			"0.003": 16.6741735507,
			"0.004": 16.0349220632,
			"0.005": 14.154321918,
			"0.006": 8.10743864973,
			"0.007": 1.47745058538,
			"0.008": 1.47878938615,
			"0.009": 1.59887417576,
			"0.01": 2.0749348463,
			"0.011": 2.90359425088,
			"0.012": 5.31862763605,
			"0.013": 0.423039752348,
			"0.014": 0.0,
			"0.015": 0.0,
			"0.016": 0.0,
			"0.017": 0.0,
			"0.018": 0.0,
			"0.019": 0.0,
			"0.02": 0.0,
			"0.021": 0.0,
			"0.022": 0.0,
			"0.023": 0.0,
			"0.024": 0.0,
			"0.025": 0.0
		}
	}
}
