{
	 "smiles": "CN(C)C(CSC(N)=O)CSC(N)=O", 
	 "Tm": 461.15, 
	 "num_atms": 29, 
	 "gaussian": { 
		 "optdone": 1, 
		 "sigma_profile": "yes", 
		 "theory": "DFT", 
		 "functional": "B3LYP", 
		 "basiset": "6-31G**", 
		 "properties": { 
			 "R2extent": 4350.7964, 
			 "electric_dipole_moment_norm": 4.44130248801, 
			 "electric_quadrupole_moment_norm": 21.8135188214, 
			 "total_energy": -1386.87814029, 
			 "HOMO_LUMO_gap": 0.21726, 
			 "cosmo_polarized_energy": -17.03, 
			 "cosmo_cavitation_energy": 32.72, 
			 "cosmo_dispersion_energy": -24.14, 
			 "cosmo_repulsion_energy": 1.83, 
			 "cosmo_total_nonelectrostatic_energy": 10.41, 
			 "SMD_solvation_energy": 5.08 
		},
		"coords": [
			{
				"x": -2.3182404048,
				"y": 0.6113693566,
				"z": -0.0245103261,
				"element": "C" 
			},
			{
				"x": -1.2810864321,
				"y": 0.4766573858,
				"z": -1.0408420347,
				"element": "N" 
			},
			{
				"x": -1.2531406906,
				"y": 1.5965366786,
				"z": -1.9640044323,
				"element": "C" 
			},
			{
				"x": 0.0397195378,
				"y": -0.0279258477,
				"z": -0.6637842355,
				"element": "C" 
			},
			{
				"x": -0.0587825112,
				"y": -1.413660909,
				"z": 0.0202602532,
				"element": "C" 
			},
			{
				"x": 0.0489195988,
				"y": -1.4892636179,
				"z": 1.848912935,
				"element": "S" 
			},
			{
				"x": 1.6892404082,
				"y": -2.2944888058,
				"z": 1.9719235769,
				"element": "C" 
			},
			{
				"x": 2.2748579417,
				"y": -2.0510022702,
				"z": 3.1855947592,
				"element": "N" 
			},
			{
				"x": 2.1512787101,
				"y": -3.0058659827,
				"z": 1.1020663642,
				"element": "O" 
			},
			{
				"x": 1.0506214971,
				"y": 0.9698411454,
				"z": -0.0087235676,
				"element": "C" 
			},
			{
				"x": 0.407099123,
				"y": 2.1246062103,
				"z": 1.2711064188,
				"element": "S" 
			},
			{
				"x": 1.4340746837,
				"y": 1.7070300948,
				"z": 2.7015462123,
				"element": "C" 
			},
			{
				"x": 1.082391566,
				"y": 2.4291492545,
				"z": 3.7984017935,
				"element": "N" 
			},
			{
				"x": 2.3454326646,
				"y": 0.8931911153,
				"z": 2.6956658489,
				"element": "O" 
			},
			{
				"x": -2.3073693444,
				"y": -0.24655682,
				"z": 0.6518986748,
				"element": "H" 
			},
			{
				"x": -2.2415512544,
				"y": 1.5211557343,
				"z": 0.5900678026,
				"element": "H" 
			},
			{
				"x": -3.2950910101,
				"y": 0.624474992,
				"z": -0.5240194815,
				"element": "H" 
			},
			{
				"x": -2.2509750699,
				"y": 1.7375812603,
				"z": -2.3945867344,
				"element": "H" 
			},
			{
				"x": -0.5600823663,
				"y": 1.3858972763,
				"z": -2.7865886805,
				"element": "H" 
			},
			{
				"x": -0.954990786,
				"y": 2.5592925083,
				"z": -1.5070730991,
				"element": "H" 
			},
			{
				"x": 0.5234885961,
				"y": -0.2468017493,
				"z": -1.6287601118,
				"element": "H" 
			},
			{
				"x": 0.7646294619,
				"y": -2.053826771,
				"z": -0.3081515801,
				"element": "H" 
			},
			{
				"x": -0.9874732671,
				"y": -1.8928093385,
				"z": -0.2938221883,
				"element": "H" 
			},
			{
				"x": 3.212677706,
				"y": -2.4286708336,
				"z": 3.2508410334,
				"element": "H" 
			},
			{
				"x": 2.1807650748,
				"y": -1.0995826663,
				"z": 3.5259371322,
				"element": "H" 
			},
			{
				"x": 1.4632288885,
				"y": 1.6151590595,
				"z": -0.7872759066,
				"element": "H" 
			},
			{
				"x": 1.8837068286,
				"y": 0.4411290074,
				"z": 0.4638778975,
				"element": "H" 
			},
			{
				"x": 0.2808651496,
				"y": 3.0393027925,
				"z": 3.8073202666,
				"element": "H" 
			},
			{
				"x": 1.5936857002,
				"y": 2.2711817399,
				"z": 4.6530214094,
				"element": "H" 
			}
		],
		 "valence_orbital": [ 
			{
				"type": "occ",
				"energy": -0.27562,
				"method": "rhf"
			},
			{
				"type": "occ",
				"energy": -0.25608,
				"method": "rhf"
			},
			{
				"type": "occ",
				"energy": -0.25356,
				"method": "rhf"
			},
			{
				"type": "occ",
				"energy": -0.22939,
				"method": "rhf"
			},
			{
				"type": "occ",
				"energy": -0.20365,
				"method": "rhf"
			},
			{
				"type": "unocc",
				"energy": 0.01361,
				"method": "rhf"
			},
			{
				"type": "unocc",
				"energy": 0.01715,
				"method": "rhf"
			},
			{
				"type": "unocc",
				"energy": 0.02091,
				"method": "rhf"
			},
			{
				"type": "unocc",
				"energy": 0.04387,
				"method": "rhf"
			},
			{
				"type": "unocc",
				"energy": 0.04637,
				"method": "rhf"
			}
		],
		"cosmo_sigma_profile": { 
			"-0.025": 0.0,
			"-0.024": 0.0,
			"-0.023": 0.0,
			"-0.022": 0.0,
			"-0.021": 0.0,
			"-0.02": 0.0,
			"-0.019": 0.0,
			"-0.018": 0.0,
			"-0.017": 0.0,
			"-0.016": 0.116070903909,
			"-0.015": 1.79774562488,
			"-0.014": 3.12456177966,
			"-0.013": 3.01649009838,
			"-0.012": 3.51445562758,
			"-0.011": 3.33104177181,
			"-0.01": 2.67698687684,
			"-0.009": 3.52589094433,
			"-0.008": 4.57985481141,
			"-0.007": 2.38943640185,
			"-0.006": 3.17292632963,
			"-0.005": 15.3009512687,
			"-0.004": 17.9796956729,
			"-0.003": 19.4010604622,
			"-0.002": 19.3652652385,
			"-0.001": 21.998959662,
			"0.0": 23.7191642146,
			"0.001": 12.9744857211,
			"0.002": 14.056250919,
			"0.003": 13.9442240745,
			"0.004": 12.9454966077,
			"0.005": 11.7467426911,
			"0.006": 9.42067735342,
			"0.007": 6.64205172593,
			"0.008": 6.48552981111,
			"0.009": 4.44497074267,
			"0.01": 4.44032115612,
			"0.011": 4.64026077501,
			"0.012": 6.92824073703,
			"0.013": 1.23144722709,
			"0.014": 0.0326385579696,
			"0.015": 0.0,
			"0.016": 0.0,
			"0.017": 0.0,
			"0.018": 0.0,
			"0.019": 0.0,
			"0.02": 0.0,
			"0.021": 0.0,
			"0.022": 0.0,
			"0.023": 0.0,
			"0.024": 0.0,
			"0.025": 0.0
		}
	}
}
