{
	 "smiles": "CCNC(=O)COC1=CC(=CC=C1)C(C)N", 
	 "Tm": 353.15, 
	 "num_atms": 34, 
	 "gaussian": { 
		 "optdone": 1, 
		 "sigma_profile": "yes", 
		 "theory": "DFT", 
		 "functional": "B3LYP", 
		 "basiset": "6-31G**", 
		 "properties": { 
			 "R2extent": 6507.0826, 
			 "electric_dipole_moment_norm": 5.56439427881, 
			 "electric_quadrupole_moment_norm": 14.8399406451, 
			 "total_energy": -728.077097683, 
			 "HOMO_LUMO_gap": 0.22292, 
			 "cosmo_polarized_energy": -17.84, 
			 "cosmo_cavitation_energy": 36.99, 
			 "cosmo_dispersion_energy": -25.71, 
			 "cosmo_repulsion_energy": 2.07, 
			 "cosmo_total_nonelectrostatic_energy": 13.34, 
			 "SMD_solvation_energy": 5.27 
		},
		"coords": [
			{
				"x": 4.5096674712,
				"y": -0.9902677942,
				"z": -1.7304694217,
				"element": "C" 
			},
			{
				"x": 3.4547370817,
				"y": -0.8974739304,
				"z": -0.6298378236,
				"element": "C" 
			},
			{
				"x": 2.2974242861,
				"y": -1.7230529792,
				"z": -0.9608391822,
				"element": "N" 
			},
			{
				"x": 1.2828237929,
				"y": -2.1222579763,
				"z": -0.1319523191,
				"element": "C" 
			},
			{
				"x": 0.2950652096,
				"y": -2.7039201624,
				"z": -0.5576226309,
				"element": "O" 
			},
			{
				"x": 1.4900858726,
				"y": -1.8140380659,
				"z": 1.362717442,
				"element": "C" 
			},
			{
				"x": 0.4268985072,
				"y": -2.276505426,
				"z": 2.1639184734,
				"element": "O" 
			},
			{
				"x": -0.676765313,
				"y": -1.4408646381,
				"z": 2.2675922222,
				"element": "C" 
			},
			{
				"x": -1.8296793493,
				"y": -1.743300045,
				"z": 1.5468416635,
				"element": "C" 
			},
			{
				"x": -2.9788090207,
				"y": -0.9541506092,
				"z": 1.6862883677,
				"element": "C" 
			},
			{
				"x": -2.9395449088,
				"y": 0.1425715279,
				"z": 2.5565901077,
				"element": "C" 
			},
			{
				"x": -1.7818618723,
				"y": 0.4424899495,
				"z": 3.2783200332,
				"element": "C" 
			},
			{
				"x": -0.642317048,
				"y": -0.3496320487,
				"z": 3.1411752641,
				"element": "C" 
			},
			{
				"x": -4.2493695178,
				"y": -1.283717343,
				"z": 0.900489781,
				"element": "C" 
			},
			{
				"x": -4.9530559885,
				"y": -2.5239354541,
				"z": 1.4694520976,
				"element": "C" 
			},
			{
				"x": -4.0572542215,
				"y": -1.472106884,
				"z": -0.5453014851,
				"element": "N" 
			},
			{
				"x": 4.1102208881,
				"y": -0.6383501601,
				"z": -2.6881819993,
				"element": "H" 
			},
			{
				"x": 4.8504623178,
				"y": -2.0218931596,
				"z": -1.8590874793,
				"element": "H" 
			},
			{
				"x": 5.3744008322,
				"y": -0.3683506845,
				"z": -1.4830251022,
				"element": "H" 
			},
			{
				"x": 3.1646845799,
				"y": 0.1542105877,
				"z": -0.4838976754,
				"element": "H" 
			},
			{
				"x": 3.8870324107,
				"y": -1.2430151661,
				"z": 0.3154851553,
				"element": "H" 
			},
			{
				"x": 2.0990791371,
				"y": -1.8836588363,
				"z": -1.9407787441,
				"element": "H" 
			},
			{
				"x": 2.3936031893,
				"y": -2.3293519328,
				"z": 1.7102654454,
				"element": "H" 
			},
			{
				"x": 1.6546147831,
				"y": -0.7347322164,
				"z": 1.4978860897,
				"element": "H" 
			},
			{
				"x": -1.7880609735,
				"y": -2.5839720932,
				"z": 0.8636676075,
				"element": "H" 
			},
			{
				"x": -3.8228805194,
				"y": 0.7666740232,
				"z": 2.6702785516,
				"element": "H" 
			},
			{
				"x": -1.7689933618,
				"y": 1.2933895785,
				"z": 3.9539957568,
				"element": "H" 
			},
			{
				"x": 0.2597453514,
				"y": -0.1434838121,
				"z": 3.7096062285,
				"element": "H" 
			},
			{
				"x": -4.9306570808,
				"y": -0.4300297865,
				"z": 1.0151519816,
				"element": "H" 
			},
			{
				"x": -5.1954836006,
				"y": -2.3876746222,
				"z": 2.5273394205,
				"element": "H" 
			},
			{
				"x": -4.3076175961,
				"y": -3.4064132127,
				"z": 1.3878534289,
				"element": "H" 
			},
			{
				"x": -5.8740216103,
				"y": -2.7193950538,
				"z": 0.9127569677,
				"element": "H" 
			},
			{
				"x": -3.5250442003,
				"y": -0.6909439068,
				"z": -0.9231186788,
				"element": "H" 
			},
			{
				"x": -3.4871295285,
				"y": -2.2996476671,
				"z": -0.7115595444,
				"element": "H" 
			}
		],
		 "valence_orbital": [ 
			{
				"type": "occ",
				"energy": -0.2565,
				"method": "rhf"
			},
			{
				"type": "occ",
				"energy": -0.25028,
				"method": "rhf"
			},
			{
				"type": "occ",
				"energy": -0.24558,
				"method": "rhf"
			},
			{
				"type": "occ",
				"energy": -0.22887,
				"method": "rhf"
			},
			{
				"type": "occ",
				"energy": -0.21979,
				"method": "rhf"
			},
			{
				"type": "unocc",
				"energy": 0.00313,
				"method": "rhf"
			},
			{
				"type": "unocc",
				"energy": 0.00943,
				"method": "rhf"
			},
			{
				"type": "unocc",
				"energy": 0.02477,
				"method": "rhf"
			},
			{
				"type": "unocc",
				"energy": 0.07337,
				"method": "rhf"
			},
			{
				"type": "unocc",
				"energy": 0.09055,
				"method": "rhf"
			}
		],
		"cosmo_sigma_profile": { 
			"-0.025": 0.0,
			"-0.024": 0.0,
			"-0.023": 0.0,
			"-0.022": 0.0,
			"-0.021": 0.0,
			"-0.02": 0.0,
			"-0.019": 0.0,
			"-0.018": 0.0,
			"-0.017": 0.0,
			"-0.016": 0.0,
			"-0.015": 0.0,
			"-0.014": 0.0,
			"-0.013": 0.472720600119,
			"-0.012": 1.00491344918,
			"-0.011": 0.547042890017,
			"-0.01": 1.57481579529,
			"-0.009": 3.00551276093,
			"-0.008": 6.32755797477,
			"-0.007": 7.28984943104,
			"-0.006": 13.0747699329,
			"-0.005": 20.1973938314,
			"-0.004": 26.3602481502,
			"-0.003": 29.6928033138,
			"-0.002": 27.5498855331,
			"-0.001": 22.9861576497,
			"0.0": 21.7946438755,
			"0.001": 18.7560193115,
			"0.002": 10.2423620838,
			"0.003": 10.3560080008,
			"0.004": 12.8358639081,
			"0.005": 13.0424807093,
			"0.006": 8.65925508431,
			"0.007": 3.02539463934,
			"0.008": 3.56818950026,
			"0.009": 4.03288881885,
			"0.01": 4.27890832095,
			"0.011": 3.18288265936,
			"0.012": 3.75670444173,
			"0.013": 4.72119742586,
			"0.014": 3.42932053326,
			"0.015": 1.43783307255,
			"0.016": 0.49289666313,
			"0.017": 0.463421459935,
			"0.018": 0.441421312987,
			"0.019": 0.733298212528,
			"0.02": 0.0864188824845,
			"0.021": 0.0,
			"0.022": 0.0,
			"0.023": 0.0,
			"0.024": 0.0,
			"0.025": 0.0
		}
	}
}
