{
	 "smiles": "CC(C)C(NC(=O)OC(C)(C)C)C#N", 
	 "Tm": 347.15, 
	 "num_atms": 32, 
	 "gaussian": { 
		 "optdone": 1, 
		 "sigma_profile": "yes", 
		 "theory": "DFT", 
		 "functional": "B3LYP", 
		 "basiset": "6-31G**", 
		 "properties": { 
			 "R2extent": 3987.7409, 
			 "electric_dipole_moment_norm": 4.46532951192, 
			 "electric_quadrupole_moment_norm": 14.9344610961, 
			 "total_energy": -651.889731091, 
			 "HOMO_LUMO_gap": 0.2947, 
			 "cosmo_polarized_energy": -14.68, 
			 "cosmo_cavitation_energy": 34.41, 
			 "cosmo_dispersion_energy": -22.93, 
			 "cosmo_repulsion_energy": 1.85, 
			 "cosmo_total_nonelectrostatic_energy": 13.33, 
			 "SMD_solvation_energy": 7.99 
		},
		"coords": [
			{
				"x": 4.1305615651,
				"y": 0.5528445007,
				"z": 1.5200264226,
				"element": "C" 
			},
			{
				"x": 2.9180986799,
				"y": 0.9595197973,
				"z": 0.6711868503,
				"element": "C" 
			},
			{
				"x": 2.7362369888,
				"y": 2.4823276362,
				"z": 0.6578871514,
				"element": "C" 
			},
			{
				"x": 1.6262567467,
				"y": 0.2702721922,
				"z": 1.1994157241,
				"element": "C" 
			},
			{
				"x": 0.4170044053,
				"y": 0.6243656794,
				"z": 0.4611627661,
				"element": "N" 
			},
			{
				"x": 0.2245755798,
				"y": 0.2338385807,
				"z": -0.8477252453,
				"element": "C" 
			},
			{
				"x": 1.1036946175,
				"y": -0.2147448363,
				"z": -1.562215611,
				"element": "O" 
			},
			{
				"x": -1.0635071768,
				"y": 0.4558299812,
				"z": -1.184536839,
				"element": "O" 
			},
			{
				"x": -1.5533321491,
				"y": 0.1619455358,
				"z": -2.5457490193,
				"element": "C" 
			},
			{
				"x": -1.4133427775,
				"y": -1.3354696761,
				"z": -2.8367957509,
				"element": "C" 
			},
			{
				"x": -3.0268084117,
				"y": 0.5667213965,
				"z": -2.4602087481,
				"element": "C" 
			},
			{
				"x": -0.8074258315,
				"y": 1.0275358289,
				"z": -3.5661214009,
				"element": "C" 
			},
			{
				"x": 1.7819871484,
				"y": -1.2020923156,
				"z": 1.2929386539,
				"element": "C" 
			},
			{
				"x": 1.887116806,
				"y": -2.3533104569,
				"z": 1.3956394368,
				"element": "N" 
			},
			{
				"x": 4.0101051953,
				"y": 0.8692619881,
				"z": 2.5639098041,
				"element": "H" 
			},
			{
				"x": 5.0354497332,
				"y": 1.0315749343,
				"z": 1.1337268492,
				"element": "H" 
			},
			{
				"x": 4.2938503445,
				"y": -0.528362309,
				"z": 1.509946439,
				"element": "H" 
			},
			{
				"x": 3.0640383905,
				"y": 0.6076709451,
				"z": -0.3538200822,
				"element": "H" 
			},
			{
				"x": 2.5839598136,
				"y": 2.872261642,
				"z": 1.6724846004,
				"element": "H" 
			},
			{
				"x": 3.6311125119,
				"y": 2.9631857152,
				"z": 0.2511149873,
				"element": "H" 
			},
			{
				"x": 1.8821750344,
				"y": 2.7837990997,
				"z": 0.0468604549,
				"element": "H" 
			},
			{
				"x": 1.463725533,
				"y": 0.6267916202,
				"z": 2.2247050623,
				"element": "H" 
			},
			{
				"x": -0.4234484347,
				"y": 0.7953477596,
				"z": 0.993637375,
				"element": "H" 
			},
			{
				"x": -1.9203068983,
				"y": -1.9224811206,
				"z": -2.0646501844,
				"element": "H" 
			},
			{
				"x": -1.8805146944,
				"y": -1.5656122212,
				"z": -3.7997870423,
				"element": "H" 
			},
			{
				"x": -0.3650759944,
				"y": -1.6325296856,
				"z": -2.8744884723,
				"element": "H" 
			},
			{
				"x": -3.5455242133,
				"y": -0.0207146081,
				"z": -1.6970938342,
				"element": "H" 
			},
			{
				"x": -3.5182277485,
				"y": 0.3949228027,
				"z": -3.4223064197,
				"element": "H" 
			},
			{
				"x": -3.1234127325,
				"y": 1.6263476508,
				"z": -2.2062063987,
				"element": "H" 
			},
			{
				"x": -1.2525758431,
				"y": 0.8901500787,
				"z": -4.5567769808,
				"element": "H" 
			},
			{
				"x": 0.2472824828,
				"y": 0.7555982536,
				"z": -3.6146651538,
				"element": "H" 
			},
			{
				"x": -0.8909286708,
				"y": 2.0863036104,
				"z": -3.3008953945,
				"element": "H" 
			}
		],
		 "valence_orbital": [ 
			{
				"type": "occ",
				"energy": -0.32804,
				"method": "rhf"
			},
			{
				"type": "occ",
				"energy": -0.31791,
				"method": "rhf"
			},
			{
				"type": "occ",
				"energy": -0.29636,
				"method": "rhf"
			},
			{
				"type": "occ",
				"energy": -0.27454,
				"method": "rhf"
			},
			{
				"type": "occ",
				"energy": -0.27152,
				"method": "rhf"
			},
			{
				"type": "unocc",
				"energy": 0.02318,
				"method": "rhf"
			},
			{
				"type": "unocc",
				"energy": 0.03245,
				"method": "rhf"
			},
			{
				"type": "unocc",
				"energy": 0.04788,
				"method": "rhf"
			},
			{
				"type": "unocc",
				"energy": 0.07537,
				"method": "rhf"
			},
			{
				"type": "unocc",
				"energy": 0.08487,
				"method": "rhf"
			}
		],
		"cosmo_sigma_profile": { 
			"-0.025": 0.0,
			"-0.024": 0.0,
			"-0.023": 0.0,
			"-0.022": 0.0,
			"-0.021": 0.0,
			"-0.02": 0.0,
			"-0.019": 0.0,
			"-0.018": 0.0,
			"-0.017": 0.0,
			"-0.016": 0.0477072546979,
			"-0.015": 1.06462932254,
			"-0.014": 1.43185700028,
			"-0.013": 1.58514468322,
			"-0.012": 1.0937900277,
			"-0.011": 1.28196455577,
			"-0.01": 2.39341571969,
			"-0.009": 2.95572881284,
			"-0.008": 2.76145335563,
			"-0.007": 2.70789990469,
			"-0.006": 2.55511474769,
			"-0.005": 3.68619559208,
			"-0.004": 18.1047604893,
			"-0.003": 27.1733918056,
			"-0.002": 31.1963265238,
			"-0.001": 34.2343897591,
			"0.0": 41.7411987866,
			"0.001": 27.781808294,
			"0.002": 8.6061228754,
			"0.003": 7.11344980522,
			"0.004": 4.72249076544,
			"0.005": 5.25685981053,
			"0.006": 6.05887235853,
			"0.007": 6.1100818081,
			"0.008": 5.47425618445,
			"0.009": 4.98590780782,
			"0.01": 5.19281125623,
			"0.011": 3.95803722795,
			"0.012": 4.75127545967,
			"0.013": 2.13860136544,
			"0.014": 0.0568938758797,
			"0.015": 0.0,
			"0.016": 0.0,
			"0.017": 0.0,
			"0.018": 0.0,
			"0.019": 0.0,
			"0.02": 0.0,
			"0.021": 0.0,
			"0.022": 0.0,
			"0.023": 0.0,
			"0.024": 0.0,
			"0.025": 0.0
		}
	}
}
