{
	 "smiles": "CC1NC2=C(NC1=O)C=CC=C2", 
	 "Tm": 404.15, 
	 "num_atms": 22, 
	 "gaussian": { 
		 "optdone": 1, 
		 "sigma_profile": "yes", 
		 "theory": "DFT", 
		 "functional": "B3LYP", 
		 "basiset": "6-31G**", 
		 "properties": { 
			 "R2extent": 2698.6352, 
			 "electric_dipole_moment_norm": 2.60519996353, 
			 "electric_quadrupole_moment_norm": 15.5929055679, 
			 "total_energy": -533.736556203, 
			 "HOMO_LUMO_gap": 0.18832, 
			 "cosmo_polarized_energy": -12.86, 
			 "cosmo_cavitation_energy": 25.0, 
			 "cosmo_dispersion_energy": -18.83, 
			 "cosmo_repulsion_energy": 1.48, 
			 "cosmo_total_nonelectrostatic_energy": 7.66, 
			 "SMD_solvation_energy": 3.82 
		},
		"coords": [
			{
				"x": -3.1154789386,
				"y": 0.0304988104,
				"z": 2.4017945107,
				"element": "C" 
			},
			{
				"x": -2.0894296974,
				"y": 0.8400111553,
				"z": 1.6158969037,
				"element": "C" 
			},
			{
				"x": -1.2988847102,
				"y": -0.0330850999,
				"z": 0.7449301665,
				"element": "N" 
			},
			{
				"x": -0.2041739003,
				"y": 0.5204555433,
				"z": 0.0797279217,
				"element": "C" 
			},
			{
				"x": 0.5254353521,
				"y": 1.523238457,
				"z": 0.7511183156,
				"element": "C" 
			},
			{
				"x": 0.0783840301,
				"y": 1.9050757211,
				"z": 2.029090823,
				"element": "N" 
			},
			{
				"x": -1.1510281198,
				"y": 1.6058150248,
				"z": 2.5609100996,
				"element": "C" 
			},
			{
				"x": -1.4846929158,
				"y": 1.9713066581,
				"z": 3.6777370751,
				"element": "O" 
			},
			{
				"x": 1.6648955842,
				"y": 2.0774591616,
				"z": 0.170805073,
				"element": "C" 
			},
			{
				"x": 2.1025860778,
				"y": 1.6334278348,
				"z": -1.0792061285,
				"element": "C" 
			},
			{
				"x": 1.3893738663,
				"y": 0.6381209243,
				"z": -1.7476634763,
				"element": "C" 
			},
			{
				"x": 0.2395682528,
				"y": 0.0905772593,
				"z": -1.1750171898,
				"element": "C" 
			},
			{
				"x": -3.8477101211,
				"y": -0.4231426866,
				"z": 1.7253046424,
				"element": "H" 
			},
			{
				"x": -2.6208215246,
				"y": -0.7640754778,
				"z": 2.9670390217,
				"element": "H" 
			},
			{
				"x": -3.6394678033,
				"y": 0.6809115716,
				"z": 3.1033992703,
				"element": "H" 
			},
			{
				"x": -2.6200569577,
				"y": 1.6182699095,
				"z": 1.032608311,
				"element": "H" 
			},
			{
				"x": -1.8670482745,
				"y": -0.6425132953,
				"z": 0.1698334739,
				"element": "H" 
			},
			{
				"x": 0.6738582743,
				"y": 2.4763278272,
				"z": 2.6148730564,
				"element": "H" 
			},
			{
				"x": 2.2107024652,
				"y": 2.852322966,
				"z": 0.7032866822,
				"element": "H" 
			},
			{
				"x": 2.9931086906,
				"y": 2.0661808236,
				"z": -1.5233775096,
				"element": "H" 
			},
			{
				"x": 1.7197829163,
				"y": 0.2885638536,
				"z": -2.7210200843,
				"element": "H" 
			},
			{
				"x": -0.3175025462,
				"y": -0.6838469419,
				"z": -1.6967709581,
				"element": "H" 
			}
		],
		 "valence_orbital": [ 
			{
				"type": "occ",
				"energy": -0.30576,
				"method": "rhf"
			},
			{
				"type": "occ",
				"energy": -0.30048,
				"method": "rhf"
			},
			{
				"type": "occ",
				"energy": -0.25709,
				"method": "rhf"
			},
			{
				"type": "occ",
				"energy": -0.23171,
				"method": "rhf"
			},
			{
				"type": "occ",
				"energy": -0.19735,
				"method": "rhf"
			},
			{
				"type": "unocc",
				"energy": -0.00903,
				"method": "rhf"
			},
			{
				"type": "unocc",
				"energy": 0.00486,
				"method": "rhf"
			},
			{
				"type": "unocc",
				"energy": 0.03694,
				"method": "rhf"
			},
			{
				"type": "unocc",
				"energy": 0.08476,
				"method": "rhf"
			},
			{
				"type": "unocc",
				"energy": 0.08926,
				"method": "rhf"
			}
		],
		"cosmo_sigma_profile": { 
			"-0.025": 0.0,
			"-0.024": 0.0,
			"-0.023": 0.0,
			"-0.022": 0.0,
			"-0.021": 0.0,
			"-0.02": 0.0,
			"-0.019": 0.0,
			"-0.018": 0.0,
			"-0.017": 0.0,
			"-0.016": 0.0,
			"-0.015": 0.452119568369,
			"-0.014": 1.14799346068,
			"-0.013": 1.74848144014,
			"-0.012": 2.46876376851,
			"-0.011": 2.43633330118,
			"-0.01": 3.12300067858,
			"-0.009": 2.68829416179,
			"-0.008": 2.938000221,
			"-0.007": 3.3031270028,
			"-0.006": 6.3215130228,
			"-0.005": 13.4276704657,
			"-0.004": 15.5343757238,
			"-0.003": 15.8597120012,
			"-0.002": 14.2130590435,
			"-0.001": 13.7419261315,
			"0.0": 13.9359590904,
			"0.001": 11.1411617342,
			"0.002": 9.33896398126,
			"0.003": 10.3171298557,
			"0.004": 9.25472643845,
			"0.005": 11.1043452682,
			"0.006": 9.51858336964,
			"0.007": 5.84265881426,
			"0.008": 1.95918150244,
			"0.009": 1.85527051823,
			"0.01": 1.48580455617,
			"0.011": 2.54852664504,
			"0.012": 2.84262993913,
			"0.013": 5.6170130362,
			"0.014": 1.77297310803,
			"0.015": 0.0,
			"0.016": 0.0,
			"0.017": 0.0,
			"0.018": 0.0,
			"0.019": 0.0,
			"0.02": 0.0,
			"0.021": 0.0,
			"0.022": 0.0,
			"0.023": 0.0,
			"0.024": 0.0,
			"0.025": 0.0
		}
	}
}
