{
	 "smiles": "CC1=NC2=C(C=C(S2)C2=CC=CC=C2)C(NN)=N1", 
	 "Tm": 437.15, 
	 "num_atms": 30, 
	 "gaussian": { 
		 "optdone": 1, 
		 "sigma_profile": "yes", 
		 "theory": "DFT", 
		 "functional": "B3LYP", 
		 "basiset": "6-31G**", 
		 "properties": { 
			 "R2extent": 6796.9094, 
			 "electric_dipole_moment_norm": 2.41188594672, 
			 "electric_quadrupole_moment_norm": 10.6268024015, 
			 "total_energy": -1119.80122351, 
			 "HOMO_LUMO_gap": 0.15671, 
			 "cosmo_polarized_energy": -13.67, 
			 "cosmo_cavitation_energy": 35.82, 
			 "cosmo_dispersion_energy": -26.84, 
			 "cosmo_repulsion_energy": 2.03, 
			 "cosmo_total_nonelectrostatic_energy": 11.0, 
			 "SMD_solvation_energy": 3.23 
		},
		"coords": [
			{
				"x": -2.4586661369,
				"y": -3.7658957667,
				"z": 3.4374704962,
				"element": "C" 
			},
			{
				"x": -1.5391704373,
				"y": -2.7631564248,
				"z": 2.7946637959,
				"element": "C" 
			},
			{
				"x": -2.0971530797,
				"y": -1.7861901876,
				"z": 2.07646095,
				"element": "N" 
			},
			{
				"x": -1.220816723,
				"y": -0.9346177052,
				"z": 1.5306810841,
				"element": "C" 
			},
			{
				"x": 0.1761795467,
				"y": -0.9998873638,
				"z": 1.653020187,
				"element": "C" 
			},
			{
				"x": 0.846748396,
				"y": 0.0512075698,
				"z": 0.9503774682,
				"element": "C" 
			},
			{
				"x": -0.0091650578,
				"y": 0.9057957501,
				"z": 0.3057570509,
				"element": "C" 
			},
			{
				"x": -1.6993696358,
				"y": 0.4319738725,
				"z": 0.5397368418,
				"element": "S" 
			},
			{
				"x": 0.3340916336,
				"y": 2.0812975124,
				"z": -0.5051384096,
				"element": "C" 
			},
			{
				"x": -0.54655044,
				"y": 3.171131603,
				"z": -0.6278989712,
				"element": "C" 
			},
			{
				"x": -0.2008980824,
				"y": 4.2852147059,
				"z": -1.3901859651,
				"element": "C" 
			},
			{
				"x": 1.0325023365,
				"y": 4.3385224801,
				"z": -2.0417719886,
				"element": "C" 
			},
			{
				"x": 1.9156801111,
				"y": 3.2618713374,
				"z": -1.9306064163,
				"element": "C" 
			},
			{
				"x": 1.5691231816,
				"y": 2.1428554344,
				"z": -1.1777922946,
				"element": "C" 
			},
			{
				"x": 0.6396167371,
				"y": -2.0819974347,
				"z": 2.4532006247,
				"element": "C" 
			},
			{
				"x": 1.9784852922,
				"y": -2.2849039022,
				"z": 2.6670436886,
				"element": "N" 
			},
			{
				"x": 2.4476029984,
				"y": -3.2230552551,
				"z": 3.6110602681,
				"element": "N" 
			},
			{
				"x": -0.2167848789,
				"y": -2.94218883,
				"z": 3.0089832134,
				"element": "N" 
			},
			{
				"x": -2.2402758393,
				"y": -4.7734262133,
				"z": 3.0675080201,
				"element": "H" 
			},
			{
				"x": -3.4980196653,
				"y": -3.5175540066,
				"z": 3.2209407039,
				"element": "H" 
			},
			{
				"x": -2.3047210686,
				"y": -3.7838066711,
				"z": 4.5215275378,
				"element": "H" 
			},
			{
				"x": 1.9218059115,
				"y": 0.1907690453,
				"z": 0.9336180866,
				"element": "H" 
			},
			{
				"x": -1.4993435216,
				"y": 3.1526523969,
				"z": -0.1067789705,
				"element": "H" 
			},
			{
				"x": -0.8952285253,
				"y": 5.116761717,
				"z": -1.4685724797,
				"element": "H" 
			},
			{
				"x": 1.30127842,
				"y": 5.2076182201,
				"z": -2.6347853038,
				"element": "H" 
			},
			{
				"x": 2.8727201587,
				"y": 3.2872211054,
				"z": -2.4438494593,
				"element": "H" 
			},
			{
				"x": 2.2474378026,
				"y": 1.2966928145,
				"z": -1.1276850086,
				"element": "H" 
			},
			{
				"x": 2.6005444721,
				"y": -1.5008709832,
				"z": 2.5389630091,
				"element": "H" 
			},
			{
				"x": 2.4047331962,
				"y": -4.141012796,
				"z": 3.1700490802,
				"element": "H" 
			},
			{
				"x": 1.7649128975,
				"y": -3.2621220245,
				"z": 4.3694031609,
				"element": "H" 
			}
		],
		 "valence_orbital": [ 
			{
				"type": "occ",
				"energy": -0.25974,
				"method": "rhf"
			},
			{
				"type": "occ",
				"energy": -0.25644,
				"method": "rhf"
			},
			{
				"type": "occ",
				"energy": -0.25098,
				"method": "rhf"
			},
			{
				"type": "occ",
				"energy": -0.24772,
				"method": "rhf"
			},
			{
				"type": "occ",
				"energy": -0.20669,
				"method": "rhf"
			},
			{
				"type": "unocc",
				"energy": -0.04998,
				"method": "rhf"
			},
			{
				"type": "unocc",
				"energy": -0.01335,
				"method": "rhf"
			},
			{
				"type": "unocc",
				"energy": -0.00929,
				"method": "rhf"
			},
			{
				"type": "unocc",
				"energy": 0.00275,
				"method": "rhf"
			},
			{
				"type": "unocc",
				"energy": 0.02489,
				"method": "rhf"
			}
		],
		"cosmo_sigma_profile": { 
			"-0.025": 0.0,
			"-0.024": 0.0,
			"-0.023": 0.0,
			"-0.022": 0.0,
			"-0.021": 0.0,
			"-0.02": 0.0,
			"-0.019": 0.0,
			"-0.018": 0.0,
			"-0.017": 0.0,
			"-0.016": 0.0,
			"-0.015": 0.0119976223901,
			"-0.014": 1.14209194561,
			"-0.013": 1.36347342634,
			"-0.012": 1.91815815627,
			"-0.011": 2.36835618512,
			"-0.01": 3.38123205711,
			"-0.009": 4.25536218463,
			"-0.008": 4.72133179063,
			"-0.007": 5.0127134411,
			"-0.006": 11.0265449567,
			"-0.005": 15.2961912852,
			"-0.004": 19.5568990137,
			"-0.003": 17.7195945883,
			"-0.002": 15.5505502708,
			"-0.001": 21.0295328492,
			"0.0": 25.8602323388,
			"0.001": 24.7099188182,
			"0.002": 29.4487806092,
			"0.003": 23.7909105575,
			"0.004": 18.946950073,
			"0.005": 16.4901512222,
			"0.006": 5.49135530403,
			"0.007": 2.50220958113,
			"0.008": 4.03613940061,
			"0.009": 1.92884994903,
			"0.01": 2.22392487584,
			"0.011": 1.7004761044,
			"0.012": 2.21871610057,
			"0.013": 1.59996218042,
			"0.014": 1.63557283316,
			"0.015": 0.80392162939,
			"0.016": 0.62057265791,
			"0.017": 0.175015136718,
			"0.018": 0.0,
			"0.019": 0.0,
			"0.02": 0.0,
			"0.021": 0.0,
			"0.022": 0.0,
			"0.023": 0.0,
			"0.024": 0.0,
			"0.025": 0.0
		}
	}
}
