{
	 "smiles": "CC(C)(C)C1=CC=C(C=C1)S(Cl)(=O)=O", 
	 "Tm": 355.15, 
	 "num_atms": 27, 
	 "gaussian": { 
		 "optdone": 1, 
		 "sigma_profile": "yes", 
		 "theory": "DFT", 
		 "functional": "B3LYP", 
		 "basiset": "6-31G**", 
		 "properties": { 
			 "R2extent": 5392.4713, 
			 "electric_dipole_moment_norm": 6.47497442852, 
			 "electric_quadrupole_moment_norm": 15.9780808097, 
			 "total_energy": -1397.67402036, 
			 "HOMO_LUMO_gap": 0.19047, 
			 "cosmo_polarized_energy": -9.11, 
			 "cosmo_cavitation_energy": 32.67, 
			 "cosmo_dispersion_energy": -23.7, 
			 "cosmo_repulsion_energy": 1.81, 
			 "cosmo_total_nonelectrostatic_energy": 10.78, 
			 "SMD_solvation_energy": 4.41 
		},
		"coords": [
			{
				"x": 1.1926668472,
				"y": -1.0485844213,
				"z": 2.5013512899,
				"element": "C" 
			},
			{
				"x": 1.5766511107,
				"y": 0.0414879411,
				"z": 1.4715472631,
				"element": "C" 
			},
			{
				"x": 3.0465968639,
				"y": -0.1747587188,
				"z": 1.0648580339,
				"element": "C" 
			},
			{
				"x": 1.4556782643,
				"y": 1.437729379,
				"z": 2.1287998723,
				"element": "C" 
			},
			{
				"x": 0.6191138143,
				"y": -0.036908378,
				"z": 0.2700216915,
				"element": "C" 
			},
			{
				"x": -0.7633997253,
				"y": 0.142598897,
				"z": 0.4681438578,
				"element": "C" 
			},
			{
				"x": -1.6690648646,
				"y": 0.083646984,
				"z": -0.5847694065,
				"element": "C" 
			},
			{
				"x": -1.1814434927,
				"y": -0.1640242898,
				"z": -1.8691132193,
				"element": "C" 
			},
			{
				"x": 0.1768986053,
				"y": -0.3495495555,
				"z": -2.1120437899,
				"element": "C" 
			},
			{
				"x": 1.0640112936,
				"y": -0.2856635809,
				"z": -1.0375793138,
				"element": "C" 
			},
			{
				"x": -2.3284260171,
				"y": -0.2620809732,
				"z": -3.2292296142,
				"element": "S" 
			},
			{
				"x": -2.4070076202,
				"y": 1.7791587068,
				"z": -3.8689348207,
				"element": "Cl" 
			},
			{
				"x": -1.7205945914,
				"y": -1.0024558521,
				"z": -4.3281542326,
				"element": "O" 
			},
			{
				"x": -3.659530154,
				"y": -0.5731979364,
				"z": -2.7225011536,
				"element": "O" 
			},
			{
				"x": 0.1700982311,
				"y": -0.9235770307,
				"z": 2.8692297806,
				"element": "H" 
			},
			{
				"x": 1.8642113369,
				"y": -1.002408444,
				"z": 3.3653782142,
				"element": "H" 
			},
			{
				"x": 1.2715242659,
				"y": -2.0489053902,
				"z": 2.0635199276,
				"element": "H" 
			},
			{
				"x": 3.6845985573,
				"y": -0.107000928,
				"z": 1.9513378613,
				"element": "H" 
			},
			{
				"x": 3.2076724622,
				"y": -1.162234777,
				"z": 0.6200437608,
				"element": "H" 
			},
			{
				"x": 3.3907646904,
				"y": 0.5840101017,
				"z": 0.3544211293,
				"element": "H" 
			},
			{
				"x": 1.7247168914,
				"y": 2.2297579078,
				"z": 1.4225271778,
				"element": "H" 
			},
			{
				"x": 2.1292212439,
				"y": 1.5072957788,
				"z": 2.9896825876,
				"element": "H" 
			},
			{
				"x": 0.4408277821,
				"y": 1.6371481317,
				"z": 2.4850176327,
				"element": "H" 
			},
			{
				"x": -1.1464154677,
				"y": 0.3302727979,
				"z": 1.4658599032,
				"element": "H" 
			},
			{
				"x": -2.7323383237,
				"y": 0.2155185496,
				"z": -0.4185964132,
				"element": "H" 
			},
			{
				"x": 0.5309893399,
				"y": -0.5494274069,
				"z": -3.1171834202,
				"element": "H" 
			},
			{
				"x": 2.1178786563,
				"y": -0.4365474926,
				"z": -1.2364345995,
				"element": "H" 
			}
		],
		 "valence_orbital": [ 
			{
				"type": "occ",
				"energy": -0.3304,
				"method": "rhf"
			},
			{
				"type": "occ",
				"energy": -0.32511,
				"method": "rhf"
			},
			{
				"type": "occ",
				"energy": -0.30824,
				"method": "rhf"
			},
			{
				"type": "occ",
				"energy": -0.28269,
				"method": "rhf"
			},
			{
				"type": "occ",
				"energy": -0.27617,
				"method": "rhf"
			},
			{
				"type": "unocc",
				"energy": -0.0857,
				"method": "rhf"
			},
			{
				"type": "unocc",
				"energy": -0.03856,
				"method": "rhf"
			},
			{
				"type": "unocc",
				"energy": -0.03262,
				"method": "rhf"
			},
			{
				"type": "unocc",
				"energy": 0.05336,
				"method": "rhf"
			},
			{
				"type": "unocc",
				"energy": 0.06821,
				"method": "rhf"
			}
		],
		"cosmo_sigma_profile": { 
			"-0.025": 0.0,
			"-0.024": 0.0,
			"-0.023": 0.0,
			"-0.022": 0.0,
			"-0.021": 0.0,
			"-0.02": 0.0,
			"-0.019": 0.0,
			"-0.018": 0.0,
			"-0.017": 0.0,
			"-0.016": 0.0,
			"-0.015": 0.0,
			"-0.014": 0.0,
			"-0.013": 0.0,
			"-0.012": 0.0,
			"-0.011": 0.0,
			"-0.01": 0.0,
			"-0.009": 0.0860353462577,
			"-0.008": 2.45120627388,
			"-0.007": 5.8239316137,
			"-0.006": 9.96594244785,
			"-0.005": 9.93048946739,
			"-0.004": 12.9326817215,
			"-0.003": 28.071011197,
			"-0.002": 24.9156682857,
			"-0.001": 25.6969518161,
			"0.0": 30.1645947798,
			"0.001": 33.4113653418,
			"0.002": 21.3014793968,
			"0.003": 14.957969277,
			"0.004": 12.5432288354,
			"0.005": 3.6313749841,
			"0.006": 3.9142482101,
			"0.007": 4.61107086001,
			"0.008": 10.0518700004,
			"0.009": 5.91394968059,
			"0.01": 0.168507556691,
			"0.011": 0.0,
			"0.012": 0.0,
			"0.013": 0.0,
			"0.014": 0.0,
			"0.015": 0.0,
			"0.016": 0.0,
			"0.017": 0.0,
			"0.018": 0.0,
			"0.019": 0.0,
			"0.02": 0.0,
			"0.021": 0.0,
			"0.022": 0.0,
			"0.023": 0.0,
			"0.024": 0.0,
			"0.025": 0.0
		}
	}
}
