{
	 "smiles": "OC(=O)C1=C(F)C(F)=C(Br)C(F)=C1F", 
	 "Tm": 416.65, 
	 "num_atms": 15, 
	 "gaussian": { 
		 "optdone": 1, 
		 "sigma_profile": "yes", 
		 "theory": "DFT", 
		 "functional": "B3LYP", 
		 "basiset": "6-31G**", 
		 "properties": { 
			 "R2extent": 9545.4358, 
			 "electric_dipole_moment_norm": 1.33029819589, 
			 "electric_quadrupole_moment_norm": 12.686143265, 
			 "total_energy": -3388.51298677, 
			 "HOMO_LUMO_gap": 0.19076, 
			 "cosmo_polarized_energy": -9.03, 
			 "cosmo_cavitation_energy": 25.15, 
			 "cosmo_dispersion_energy": -18.43, 
			 "cosmo_repulsion_energy": 1.38, 
			 "cosmo_total_nonelectrostatic_energy": 8.1, 
			 "SMD_solvation_energy": 6.38 
		},
		"coords": [
			{
				"x": 2.004968242,
				"y": 1.2432866595,
				"z": -0.597198588,
				"element": "O" 
			},
			{
				"x": 2.1809054546,
				"y": 2.2731591238,
				"z": 0.2561898475,
				"element": "C" 
			},
			{
				"x": 3.0407762461,
				"y": 3.112977684,
				"z": 0.1160656596,
				"element": "O" 
			},
			{
				"x": 1.2072164676,
				"y": 2.2460874142,
				"z": 1.3916414733,
				"element": "C" 
			},
			{
				"x": -0.0961739914,
				"y": 1.7435787574,
				"z": 1.2718548441,
				"element": "C" 
			},
			{
				"x": -0.5438043129,
				"y": 1.2474222319,
				"z": 0.1161309274,
				"element": "F" 
			},
			{
				"x": -0.987117847,
				"y": 1.7712303909,
				"z": 2.3424543819,
				"element": "C" 
			},
			{
				"x": -2.2205753348,
				"y": 1.2912741492,
				"z": 2.1674103079,
				"element": "F" 
			},
			{
				"x": -0.5962422195,
				"y": 2.2957088849,
				"z": 3.5733491041,
				"element": "C" 
			},
			{
				"x": -1.7950068429,
				"y": 2.3280561588,
				"z": 5.0235155595,
				"element": "Br" 
			},
			{
				"x": 0.6976601401,
				"y": 2.7964580298,
				"z": 3.7120233442,
				"element": "C" 
			},
			{
				"x": 1.112036172,
				"y": 3.2974774227,
				"z": 4.8775992352,
				"element": "F" 
			},
			{
				"x": 1.5806028287,
				"y": 2.7782128,
				"z": 2.6350647855,
				"element": "C" 
			},
			{
				"x": 2.8084720721,
				"y": 3.2539284311,
				"z": 2.8379303256,
				"element": "F" 
			},
			{
				"x": 2.668482925,
				"y": 1.3621418619,
				"z": -1.2982312078,
				"element": "H" 
			}
		],
		 "valence_orbital": [ 
			{
				"type": "occ",
				"energy": -0.33248,
				"method": "rhf"
			},
			{
				"type": "occ",
				"energy": -0.31558,
				"method": "rhf"
			},
			{
				"type": "occ",
				"energy": -0.29875,
				"method": "rhf"
			},
			{
				"type": "occ",
				"energy": -0.27452,
				"method": "rhf"
			},
			{
				"type": "occ",
				"energy": -0.26554,
				"method": "rhf"
			},
			{
				"type": "unocc",
				"energy": -0.07478,
				"method": "rhf"
			},
			{
				"type": "unocc",
				"energy": -0.03493,
				"method": "rhf"
			},
			{
				"type": "unocc",
				"energy": -0.02703,
				"method": "rhf"
			},
			{
				"type": "unocc",
				"energy": 0.01756,
				"method": "rhf"
			},
			{
				"type": "unocc",
				"energy": 0.06213,
				"method": "rhf"
			}
		],
		"cosmo_sigma_profile": { 
			"-0.025": 0.0,
			"-0.024": 0.0,
			"-0.023": 0.0,
			"-0.022": 0.0,
			"-0.021": 0.0,
			"-0.02": 0.0360886599811,
			"-0.019": 0.726259248685,
			"-0.018": 1.01904176367,
			"-0.017": 1.0924289665,
			"-0.016": 0.998758438848,
			"-0.015": 0.463768373043,
			"-0.014": 0.151591007186,
			"-0.013": 0.587034044824,
			"-0.012": 1.13513403269,
			"-0.011": 0.636229501386,
			"-0.01": 0.910292298058,
			"-0.009": 0.556332029734,
			"-0.008": 1.00233155045,
			"-0.007": 2.08256139478,
			"-0.006": 4.37290009459,
			"-0.005": 10.3372839164,
			"-0.004": 20.8507181235,
			"-0.003": 16.5964181579,
			"-0.002": 11.9110399913,
			"-0.001": 10.0745269013,
			"0.0": 11.5526600868,
			"0.001": 16.0185252382,
			"0.002": 39.0390677855,
			"0.003": 25.57550113,
			"0.004": 5.39757217468,
			"0.005": 3.66585306152,
			"0.006": 2.57237041609,
			"0.007": 4.19291867985,
			"0.008": 3.30382666887,
			"0.009": 2.25826966191,
			"0.01": 4.41764133341,
			"0.011": 3.72145447563,
			"0.012": 0.0850653127497,
			"0.013": 0.0,
			"0.014": 0.0,
			"0.015": 0.0,
			"0.016": 0.0,
			"0.017": 0.0,
			"0.018": 0.0,
			"0.019": 0.0,
			"0.02": 0.0,
			"0.021": 0.0,
			"0.022": 0.0,
			"0.023": 0.0,
			"0.024": 0.0,
			"0.025": 0.0
		}
	}
}
