{
	 "smiles": "CC(=O)OC1CC(C)(C)C(=C=CC(C)=CC=CC(C)=C/C=C/C=C(C)/C=C/C=C(C)C(=O)CC23OC2(C)CC(O)CC3(C)C)C(C)(O)C1", 
	 "Tm": 441.15, 
	 "num_atms": 106, 
	 "gaussian": { 
		 "optdone": 1, 
		 "sigma_profile": "yes", 
		 "theory": "DFT", 
		 "functional": "B3LYP", 
		 "basiset": "6-31G**", 
		 "properties": { 
			 "R2extent": 72863.2902, 
			 "electric_dipole_moment_norm": 4.63330140828, 
			 "electric_quadrupole_moment_norm": 54.8866545597, 
			 "total_energy": -2086.6296622, 
			 "HOMO_LUMO_gap": 0.09258, 
			 "cosmo_polarized_energy": -28.93, 
			 "cosmo_cavitation_energy": 101.09, 
			 "cosmo_dispersion_energy": -64.85, 
			 "cosmo_repulsion_energy": 4.82, 
			 "cosmo_total_nonelectrostatic_energy": 41.05, 
			 "SMD_solvation_energy": 18.02 
		},
		"coords": [
			{
				"x": 7.5216268886,
				"y": -5.6013933128,
				"z": 1.9615088914,
				"element": "C" 
			},
			{
				"x": 7.3546663002,
				"y": -6.3023108538,
				"z": 0.636328792,
				"element": "C" 
			},
			{
				"x": 7.9635379386,
				"y": -7.2891013612,
				"z": 0.2811463523,
				"element": "O" 
			},
			{
				"x": 6.4064994004,
				"y": -5.6906633223,
				"z": -0.1099191574,
				"element": "O" 
			},
			{
				"x": 6.0056584687,
				"y": -6.3593926973,
				"z": -1.3353901275,
				"element": "C" 
			},
			{
				"x": 5.2742644658,
				"y": -5.3094958088,
				"z": -2.1763773665,
				"element": "C" 
			},
			{
				"x": 3.7452384929,
				"y": -5.1412012841,
				"z": -1.8757189859,
				"element": "C" 
			},
			{
				"x": 3.3897325105,
				"y": -3.6443534609,
				"z": -1.9142229886,
				"element": "C" 
			},
			{
				"x": 2.9142187553,
				"y": -5.8542560561,
				"z": -2.9726680872,
				"element": "C" 
			},
			{
				"x": 3.4106474721,
				"y": -5.7483504477,
				"z": -0.498649769,
				"element": "C" 
			},
			{
				"x": 2.7381237013,
				"y": -5.0942127827,
				"z": 0.4141938738,
				"element": "C" 
			},
			{
				"x": 2.1149385711,
				"y": -4.458322366,
				"z": 1.3919880118,
				"element": "C" 
			},
			{
				"x": 0.6627852125,
				"y": -4.4101843699,
				"z": 1.6578798081,
				"element": "C" 
			},
			{
				"x": 0.2479925511,
				"y": -3.4945321867,
				"z": 2.7838941243,
				"element": "C" 
			},
			{
				"x": -0.2027645129,
				"y": -5.1756779921,
				"z": 0.9356855206,
				"element": "C" 
			},
			{
				"x": -1.6452090421,
				"y": -5.2746799111,
				"z": 1.0022575247,
				"element": "C" 
			},
			{
				"x": -2.5443124358,
				"y": -4.3544314815,
				"z": 1.4525093319,
				"element": "C" 
			},
			{
				"x": -3.9769010358,
				"y": -4.5655512647,
				"z": 1.5379741254,
				"element": "C" 
			},
			{
				"x": -4.5072722962,
				"y": -5.9724146068,
				"z": 1.3758306305,
				"element": "C" 
			},
			{
				"x": -4.8607723413,
				"y": -3.5564689588,
				"z": 1.8212066903,
				"element": "C" 
			},
			{
				"x": -4.6423663136,
				"y": -2.1303897852,
				"z": 1.9198868012,
				"element": "C" 
			},
			{
				"x": -3.7271682445,
				"y": -1.3851497009,
				"z": 1.2311789121,
				"element": "C" 
			},
			{
				"x": -3.4886090095,
				"y": 0.0354735155,
				"z": 1.3128704676,
				"element": "C" 
			},
			{
				"x": -3.7302177801,
				"y": 0.9120152816,
				"z": 2.3381550245,
				"element": "C" 
			},
			{
				"x": -4.2325051592,
				"y": 0.4835337888,
				"z": 3.6976717534,
				"element": "C" 
			},
			{
				"x": -3.4550615279,
				"y": 2.3335336118,
				"z": 2.1857339523,
				"element": "C" 
			},
			{
				"x": -3.3879082958,
				"y": 3.0446153668,
				"z": 1.0264537762,
				"element": "C" 
			},
			{
				"x": -3.0830021878,
				"y": 4.4479785006,
				"z": 1.0090301634,
				"element": "C" 
			},
			{
				"x": -2.987527188,
				"y": 5.2726581544,
				"z": -0.072231086,
				"element": "C" 
			},
			{
				"x": -3.1887022324,
				"y": 4.8237735427,
				"z": -1.4946717892,
				"element": "C" 
			},
			{
				"x": -2.6590710586,
				"y": 6.7000785634,
				"z": 0.2307307198,
				"element": "C" 
			},
			{
				"x": -2.5375564692,
				"y": 7.0886662846,
				"z": 1.390397458,
				"element": "O" 
			},
			{
				"x": -2.5590852688,
				"y": 7.7409114457,
				"z": -0.8964237274,
				"element": "C" 
			},
			{
				"x": -1.3561420274,
				"y": 7.7145093568,
				"z": -1.8664197351,
				"element": "C" 
			},
			{
				"x": -0.5424136221,
				"y": 6.527443574,
				"z": -1.8302053425,
				"element": "O" 
			},
			{
				"x": 0.0473800353,
				"y": 7.7704094334,
				"z": -1.3561824632,
				"element": "C" 
			},
			{
				"x": 0.391039512,
				"y": 7.8360866727,
				"z": 0.1189471623,
				"element": "C" 
			},
			{
				"x": 1.2101369029,
				"y": 8.2424095231,
				"z": -2.2297355988,
				"element": "C" 
			},
			{
				"x": 0.8346302321,
				"y": 8.9239435627,
				"z": -3.5415086914,
				"element": "C" 
			},
			{
				"x": 0.6576320808,
				"y": 10.3145882832,
				"z": -3.2467174571,
				"element": "O" 
			},
			{
				"x": -0.3998796162,
				"y": 8.2745711184,
				"z": -4.1650034402,
				"element": "C" 
			},
			{
				"x": -1.6780380458,
				"y": 8.251795524,
				"z": -3.2876141692,
				"element": "C" 
			},
			{
				"x": -2.6819111454,
				"y": 7.3299230532,
				"z": -4.0148405694,
				"element": "C" 
			},
			{
				"x": -2.2959558767,
				"y": 9.665509759,
				"z": -3.1745766927,
				"element": "C" 
			},
			{
				"x": 3.8876088117,
				"y": -7.1905725796,
				"z": -0.1683097793,
				"element": "C" 
			},
			{
				"x": 2.7507355877,
				"y": -8.209591274,
				"z": -0.370093912,
				"element": "C" 
			},
			{
				"x": 4.3187674048,
				"y": -7.2772565262,
				"z": 1.1959994064,
				"element": "O" 
			},
			{
				"x": 5.1199855235,
				"y": -7.5627930188,
				"z": -1.0155367233,
				"element": "C" 
			},
			{
				"x": 7.558676563,
				"y": -4.5171369739,
				"z": 1.830185506,
				"element": "H" 
			},
			{
				"x": 8.4238981087,
				"y": -5.9596282855,
				"z": 2.4566385565,
				"element": "H" 
			},
			{
				"x": 6.6470831064,
				"y": -5.8340486933,
				"z": 2.5775862757,
				"element": "H" 
			},
			{
				"x": 6.915007572,
				"y": -6.6941946957,
				"z": -1.8425167904,
				"element": "H" 
			},
			{
				"x": 5.7894652993,
				"y": -4.3557450003,
				"z": -2.027436591,
				"element": "H" 
			},
			{
				"x": 5.3973879774,
				"y": -5.5697983909,
				"z": -3.2341495477,
				"element": "H" 
			},
			{
				"x": 2.31756715,
				"y": -3.4833844542,
				"z": -1.7657684269,
				"element": "H" 
			},
			{
				"x": 3.6648855165,
				"y": -3.2198484764,
				"z": -2.8859742915,
				"element": "H" 
			},
			{
				"x": 3.9258742734,
				"y": -3.0925945864,
				"z": -1.1366989739,
				"element": "H" 
			},
			{
				"x": 3.1012853375,
				"y": -5.3824884412,
				"z": -3.944052219,
				"element": "H" 
			},
			{
				"x": 3.1665289628,
				"y": -6.9133124794,
				"z": -3.0708269173,
				"element": "H" 
			},
			{
				"x": 1.8430518139,
				"y": -5.778783444,
				"z": -2.7604772104,
				"element": "H" 
			},
			{
				"x": 2.7337330527,
				"y": -3.8734658602,
				"z": 2.0761116576,
				"element": "H" 
			},
			{
				"x": 1.0468920532,
				"y": -3.4105917365,
				"z": 3.5282273436,
				"element": "H" 
			},
			{
				"x": 0.0393958328,
				"y": -2.4774698834,
				"z": 2.427172106,
				"element": "H" 
			},
			{
				"x": -0.6535220125,
				"y": -3.8558842597,
				"z": 3.2854174487,
				"element": "H" 
			},
			{
				"x": 0.2564704625,
				"y": -5.848805274,
				"z": 0.2121561385,
				"element": "H" 
			},
			{
				"x": -2.0411552851,
				"y": -6.1992524151,
				"z": 0.5845272582,
				"element": "H" 
			},
			{
				"x": -2.1882081346,
				"y": -3.3847879054,
				"z": 1.7801400688,
				"element": "H" 
			},
			{
				"x": -4.3371731348,
				"y": -6.3432654448,
				"z": 0.356926238,
				"element": "H" 
			},
			{
				"x": -4.0070927214,
				"y": -6.6719924234,
				"z": 2.0550726311,
				"element": "H" 
			},
			{
				"x": -5.5827397269,
				"y": -6.0151297557,
				"z": 1.5641937858,
				"element": "H" 
			},
			{
				"x": -5.8867582201,
				"y": -3.8632082672,
				"z": 2.0239611202,
				"element": "H" 
			},
			{
				"x": -5.3594834531,
				"y": -1.6059326961,
				"z": 2.5469448721,
				"element": "H" 
			},
			{
				"x": -3.1424578679,
				"y": -1.898549971,
				"z": 0.4702955355,
				"element": "H" 
			},
			{
				"x": -2.9898597964,
				"y": 0.4498548614,
				"z": 0.4386105315,
				"element": "H" 
			},
			{
				"x": -5.3273537095,
				"y": 0.5344554636,
				"z": 3.7610142758,
				"element": "H" 
			},
			{
				"x": -3.842902499,
				"y": 1.1470370947,
				"z": 4.4770099262,
				"element": "H" 
			},
			{
				"x": -3.9384822164,
				"y": -0.5427620159,
				"z": 3.9345262778,
				"element": "H" 
			},
			{
				"x": -3.3189024704,
				"y": 2.888599417,
				"z": 3.1146227676,
				"element": "H" 
			},
			{
				"x": -3.589352543,
				"y": 2.5391909929,
				"z": 0.0856754752,
				"element": "H" 
			},
			{
				"x": -2.9052679512,
				"y": 4.9183467717,
				"z": 1.9743567881,
				"element": "H" 
			},
			{
				"x": -3.4868983878,
				"y": 3.7755363839,
				"z": -1.5523558433,
				"element": "H" 
			},
			{
				"x": -2.2662854421,
				"y": 4.9451257916,
				"z": -2.0697343541,
				"element": "H" 
			},
			{
				"x": -3.9684754863,
				"y": 5.4076482609,
				"z": -1.9968861983,
				"element": "H" 
			},
			{
				"x": -2.5912066446,
				"y": 8.7120622942,
				"z": -0.3957131321,
				"element": "H" 
			},
			{
				"x": -3.4788540799,
				"y": 7.6570175904,
				"z": -1.4856786298,
				"element": "H" 
			},
			{
				"x": -0.3740947361,
				"y": 7.4215158108,
				"z": 0.7688120833,
				"element": "H" 
			},
			{
				"x": 1.3295543839,
				"y": 7.2974711991,
				"z": 0.2961396718,
				"element": "H" 
			},
			{
				"x": 0.5531890288,
				"y": 8.8804995838,
				"z": 0.4075661315,
				"element": "H" 
			},
			{
				"x": 1.8389426764,
				"y": 8.9365887498,
				"z": -1.6640633996,
				"element": "H" 
			},
			{
				"x": 1.8202541744,
				"y": 7.3560240031,
				"z": -2.4413029977,
				"element": "H" 
			},
			{
				"x": 1.6754853401,
				"y": 8.8122910437,
				"z": -4.2452562629,
				"element": "H" 
			},
			{
				"x": 0.3541836964,
				"y": 10.7525839219,
				"z": -4.0527797138,
				"element": "H" 
			},
			{
				"x": -0.6411759805,
				"y": 8.7722713298,
				"z": -5.1147854421,
				"element": "H" 
			},
			{
				"x": -0.1302796552,
				"y": 7.2424404932,
				"z": -4.4183840379,
				"element": "H" 
			},
			{
				"x": -3.6658129472,
				"y": 7.3178390223,
				"z": -3.5367388934,
				"element": "H" 
			},
			{
				"x": -2.3117519366,
				"y": 6.3021737388,
				"z": -4.0667112123,
				"element": "H" 
			},
			{
				"x": -2.8306716846,
				"y": 7.6853997912,
				"z": -5.0406203519,
				"element": "H" 
			},
			{
				"x": -1.6423250395,
				"y": 10.3446346978,
				"z": -2.6252035992,
				"element": "H" 
			},
			{
				"x": -3.272547054,
				"y": 9.638520718,
				"z": -2.6818376685,
				"element": "H" 
			},
			{
				"x": -2.4557384138,
				"y": 10.0824864393,
				"z": -4.1760644749,
				"element": "H" 
			},
			{
				"x": 1.9289921593,
				"y": -7.989623091,
				"z": 0.3190682075,
				"element": "H" 
			},
			{
				"x": 3.1214455578,
				"y": -9.216405174,
				"z": -0.1527027152,
				"element": "H" 
			},
			{
				"x": 2.3518464551,
				"y": -8.1953294454,
				"z": -1.388339914,
				"element": "H" 
			},
			{
				"x": 3.6625628458,
				"y": -6.8070013944,
				"z": 1.7309319376,
				"element": "H" 
			},
			{
				"x": 5.6897258523,
				"y": -8.3169209299,
				"z": -0.4679724964,
				"element": "H" 
			},
			{
				"x": 4.8088498908,
				"y": -8.0146541074,
				"z": -1.9639999261,
				"element": "H" 
			}
		],
		 "valence_orbital": [ 
			{
				"type": "occ",
				"energy": -0.24683,
				"method": "rhf"
			},
			{
				"type": "occ",
				"energy": -0.23977,
				"method": "rhf"
			},
			{
				"type": "occ",
				"energy": -0.23584,
				"method": "rhf"
			},
			{
				"type": "occ",
				"energy": -0.20898,
				"method": "rhf"
			},
			{
				"type": "occ",
				"energy": -0.18035,
				"method": "rhf"
			},
			{
				"type": "unocc",
				"energy": -0.08777,
				"method": "rhf"
			},
			{
				"type": "unocc",
				"energy": -0.05699,
				"method": "rhf"
			},
			{
				"type": "unocc",
				"energy": -0.02469,
				"method": "rhf"
			},
			{
				"type": "unocc",
				"energy": 0.00857,
				"method": "rhf"
			},
			{
				"type": "unocc",
				"energy": 0.01195,
				"method": "rhf"
			}
		],
		"cosmo_sigma_profile": { 
			"-0.025": 0.0,
			"-0.024": 0.0,
			"-0.023": 0.0,
			"-0.022": 0.0,
			"-0.021": 0.0,
			"-0.02": 0.0,
			"-0.019": 0.0,
			"-0.018": 0.0,
			"-0.017": 0.0,
			"-0.016": 0.0,
			"-0.015": 0.401730969831,
			"-0.014": 0.633424139656,
			"-0.013": 1.11779997877,
			"-0.012": 0.796611925601,
			"-0.011": 1.5498550869,
			"-0.01": 1.36169457113,
			"-0.009": 1.46037002764,
			"-0.008": 1.34453280066,
			"-0.007": 4.33856489953,
			"-0.006": 16.31399441,
			"-0.005": 38.1855987319,
			"-0.004": 61.6954630667,
			"-0.003": 94.7208680914,
			"-0.002": 99.048698744,
			"-0.001": 94.3903492769,
			"0.0": 86.1781132142,
			"0.001": 70.7571483486,
			"0.002": 39.4627701134,
			"0.003": 33.8231646717,
			"0.004": 39.608973758,
			"0.005": 28.5090795163,
			"0.006": 14.1357066399,
			"0.007": 8.27360829438,
			"0.008": 8.0463346309,
			"0.009": 7.7221196236,
			"0.01": 7.94766332633,
			"0.011": 6.96973261547,
			"0.012": 9.66416431151,
			"0.013": 7.18466293436,
			"0.014": 2.55328912879,
			"0.015": 0.14075169995,
			"0.016": 0.0,
			"0.017": 0.0,
			"0.018": 0.0,
			"0.019": 0.0,
			"0.02": 0.0,
			"0.021": 0.0,
			"0.022": 0.0,
			"0.023": 0.0,
			"0.024": 0.0,
			"0.025": 0.0
		}
	}
}
