{
	 "smiles": "CC1=C(C#N)C(CC(O)=O)=NO1", 
	 "Tm": 333.15, 
	 "num_atms": 18, 
	 "gaussian": { 
		 "optdone": 1, 
		 "sigma_profile": "yes", 
		 "theory": "DFT", 
		 "functional": "B3LYP", 
		 "basiset": "6-31G**", 
		 "properties": { 
			 "R2extent": 2719.4548, 
			 "electric_dipole_moment_norm": 5.24404251127, 
			 "electric_quadrupole_moment_norm": 15.1419668039, 
			 "total_energy": -605.477020468, 
			 "HOMO_LUMO_gap": 0.21624, 
			 "cosmo_polarized_energy": -18.26, 
			 "cosmo_cavitation_energy": 24.33, 
			 "cosmo_dispersion_energy": -16.97, 
			 "cosmo_repulsion_energy": 1.37, 
			 "cosmo_total_nonelectrostatic_energy": 8.73, 
			 "SMD_solvation_energy": 6.55 
		},
		"coords": [
			{
				"x": 1.1469261886,
				"y": -0.8472833847,
				"z": 3.2345778776,
				"element": "C" 
			},
			{
				"x": 1.5030447164,
				"y": -0.8489614905,
				"z": 1.79214706,
				"element": "C" 
			},
			{
				"x": 1.6868896096,
				"y": 0.1508138334,
				"z": 0.866919049,
				"element": "C" 
			},
			{
				"x": 1.5903387877,
				"y": 1.5521983235,
				"z": 1.0286547268,
				"element": "C" 
			},
			{
				"x": 1.524830901,
				"y": 2.7152056729,
				"z": 1.0702445001,
				"element": "N" 
			},
			{
				"x": 2.013965061,
				"y": -0.5400181724,
				"z": -0.3517465298,
				"element": "C" 
			},
			{
				"x": 2.315968792,
				"y": 0.047208722,
				"z": -1.7001044736,
				"element": "C" 
			},
			{
				"x": 1.0610384068,
				"y": 0.5551768684,
				"z": -2.4383130258,
				"element": "C" 
			},
			{
				"x": 0.5168329236,
				"y": 1.7085954983,
				"z": -1.990094423,
				"element": "O" 
			},
			{
				"x": 0.5774108683,
				"y": -0.0338221463,
				"z": -3.3687118013,
				"element": "O" 
			},
			{
				"x": 2.0294312535,
				"y": -1.8354931831,
				"z": -0.1640021064,
				"element": "N" 
			},
			{
				"x": 1.7049876734,
				"y": -2.0277138301,
				"z": 1.1920029983,
				"element": "O" 
			},
			{
				"x": 1.9289659845,
				"y": -1.3370956449,
				"z": 3.8232744621,
				"element": "H" 
			},
			{
				"x": 1.0223866877,
				"y": 0.176411712,
				"z": 3.5916168902,
				"element": "H" 
			},
			{
				"x": 0.2137783346,
				"y": -1.3957488876,
				"z": 3.3979253594,
				"element": "H" 
			},
			{
				"x": 3.0369639479,
				"y": 0.8661349232,
				"z": -1.5871066514,
				"element": "H" 
			},
			{
				"x": 2.7582997433,
				"y": -0.7263018816,
				"z": -2.3276760599,
				"element": "H" 
			},
			{
				"x": 1.0149401203,
				"y": 2.1053930674,
				"z": -1.2582078524,
				"element": "H" 
			}
		],
		 "valence_orbital": [ 
			{
				"type": "occ",
				"energy": -0.33786,
				"method": "rhf"
			},
			{
				"type": "occ",
				"energy": -0.33096,
				"method": "rhf"
			},
			{
				"type": "occ",
				"energy": -0.32407,
				"method": "rhf"
			},
			{
				"type": "occ",
				"energy": -0.29216,
				"method": "rhf"
			},
			{
				"type": "occ",
				"energy": -0.27874,
				"method": "rhf"
			},
			{
				"type": "unocc",
				"energy": -0.0625,
				"method": "rhf"
			},
			{
				"type": "unocc",
				"energy": -0.03482,
				"method": "rhf"
			},
			{
				"type": "unocc",
				"energy": -0.01516,
				"method": "rhf"
			},
			{
				"type": "unocc",
				"energy": 0.00519,
				"method": "rhf"
			},
			{
				"type": "unocc",
				"energy": 0.06093,
				"method": "rhf"
			}
		],
		"cosmo_sigma_profile": { 
			"-0.025": 0.0,
			"-0.024": 0.0,
			"-0.023": 0.0,
			"-0.022": 0.0,
			"-0.021": 0.0,
			"-0.02": 0.0,
			"-0.019": 0.0,
			"-0.018": 0.00303989701204,
			"-0.017": 0.192830377775,
			"-0.016": 0.551886198789,
			"-0.015": 0.688212642073,
			"-0.014": 0.651960469571,
			"-0.013": 0.46847997025,
			"-0.012": 1.05306911867,
			"-0.011": 1.59404838407,
			"-0.01": 2.40977714058,
			"-0.009": 3.30075787356,
			"-0.008": 6.11535949296,
			"-0.007": 13.5434144051,
			"-0.006": 15.6138098915,
			"-0.005": 16.9781040659,
			"-0.004": 17.635258469,
			"-0.003": 14.3426823412,
			"-0.002": 7.09013456513,
			"-0.001": 5.03842935793,
			"0.0": 6.1607267417,
			"0.001": 4.83830259484,
			"0.002": 5.40756676657,
			"0.003": 5.3326785398,
			"0.004": 6.24571013391,
			"0.005": 6.91648093364,
			"0.006": 8.98718665556,
			"0.007": 6.55940435876,
			"0.008": 7.4652253454,
			"0.009": 7.39491016055,
			"0.01": 9.36090176472,
			"0.011": 8.81302645975,
			"0.012": 4.82281700645,
			"0.013": 0.300484376292,
			"0.014": 0.0,
			"0.015": 0.0,
			"0.016": 0.0,
			"0.017": 0.0,
			"0.018": 0.0,
			"0.019": 0.0,
			"0.02": 0.0,
			"0.021": 0.0,
			"0.022": 0.0,
			"0.023": 0.0,
			"0.024": 0.0,
			"0.025": 0.0
		}
	}
}
