{
	 "smiles": "COC(=O)C1=CC=CC(=C1)C(O)=O", 
	 "Tm": 439.15, 
	 "num_atms": 21, 
	 "gaussian": { 
		 "optdone": 1, 
		 "sigma_profile": "yes", 
		 "theory": "DFT", 
		 "functional": "B3LYP", 
		 "basiset": "6-31G**", 
		 "properties": { 
			 "R2extent": 3176.5346, 
			 "electric_dipole_moment_norm": 5.37299547366, 
			 "electric_quadrupole_moment_norm": 14.4464285704, 
			 "total_energy": -648.694082274, 
			 "HOMO_LUMO_gap": 0.20548, 
			 "cosmo_polarized_energy": -15.51, 
			 "cosmo_cavitation_energy": 26.36, 
			 "cosmo_dispersion_energy": -19.33, 
			 "cosmo_repulsion_energy": 1.53, 
			 "cosmo_total_nonelectrostatic_energy": 8.56, 
			 "SMD_solvation_energy": 7.37 
		},
		"coords": [
			{
				"x": -2.2730260778,
				"y": 0.5149950578,
				"z": 3.2299349093,
				"element": "C" 
			},
			{
				"x": -1.5774936591,
				"y": 0.880900428,
				"z": 2.0259820026,
				"element": "O" 
			},
			{
				"x": -1.303803817,
				"y": -0.1386912351,
				"z": 1.1861055133,
				"element": "C" 
			},
			{
				"x": -1.61254603,
				"y": -1.2932692004,
				"z": 1.4105863451,
				"element": "O" 
			},
			{
				"x": -0.5813871541,
				"y": 0.3094711767,
				"z": -0.0402545051,
				"element": "C" 
			},
			{
				"x": -0.2309349467,
				"y": 1.645868446,
				"z": -0.2683747597,
				"element": "C" 
			},
			{
				"x": 0.43240031,
				"y": 1.9985334771,
				"z": -1.4448396127,
				"element": "C" 
			},
			{
				"x": 0.7490002846,
				"y": 1.0257958707,
				"z": -2.389403695,
				"element": "C" 
			},
			{
				"x": 0.4187865256,
				"y": -0.3190585077,
				"z": -2.1611415767,
				"element": "C" 
			},
			{
				"x": -0.255735375,
				"y": -0.667024765,
				"z": -0.9885195339,
				"element": "C" 
			},
			{
				"x": 0.7870424802,
				"y": -1.3120719179,
				"z": -3.2262897988,
				"element": "C" 
			},
			{
				"x": 0.7736681947,
				"y": -2.6241009123,
				"z": -2.8799459788,
				"element": "O" 
			},
			{
				"x": 1.0881424033,
				"y": -0.9861876108,
				"z": -4.3506654591,
				"element": "O" 
			},
			{
				"x": -2.41137502,
				"y": 1.4440009466,
				"z": 3.7823334794,
				"element": "H" 
			},
			{
				"x": -1.6821854637,
				"y": -0.1956244217,
				"z": 3.8128737645,
				"element": "H" 
			},
			{
				"x": -3.2378294448,
				"y": 0.0608683062,
				"z": 2.9917894074,
				"element": "H" 
			},
			{
				"x": -0.4833710597,
				"y": 2.3971901531,
				"z": 0.4709048486,
				"element": "H" 
			},
			{
				"x": 0.6990597339,
				"y": 3.0353095816,
				"z": -1.6250462884,
				"element": "H" 
			},
			{
				"x": 1.2533299493,
				"y": 1.2800764616,
				"z": -3.3154082878,
				"element": "H" 
			},
			{
				"x": -0.5792081274,
				"y": -1.6828210324,
				"z": -0.7779135401,
				"element": "H" 
			},
			{
				"x": 0.6455662939,
				"y": -2.725560302,
				"z": -1.9267072341,
				"element": "H" 
			}
		],
		 "valence_orbital": [ 
			{
				"type": "occ",
				"energy": -0.31598,
				"method": "rhf"
			},
			{
				"type": "occ",
				"energy": -0.29002,
				"method": "rhf"
			},
			{
				"type": "occ",
				"energy": -0.28249,
				"method": "rhf"
			},
			{
				"type": "occ",
				"energy": -0.27962,
				"method": "rhf"
			},
			{
				"type": "occ",
				"energy": -0.27244,
				"method": "rhf"
			},
			{
				"type": "unocc",
				"energy": -0.06696,
				"method": "rhf"
			},
			{
				"type": "unocc",
				"energy": -0.05208,
				"method": "rhf"
			},
			{
				"type": "unocc",
				"energy": 0.02063,
				"method": "rhf"
			},
			{
				"type": "unocc",
				"energy": 0.05651,
				"method": "rhf"
			},
			{
				"type": "unocc",
				"energy": 0.07103,
				"method": "rhf"
			}
		],
		"cosmo_sigma_profile": { 
			"-0.025": 0.0,
			"-0.024": 0.0,
			"-0.023": 0.0,
			"-0.022": 0.0,
			"-0.021": 0.0,
			"-0.02": 0.0409971620668,
			"-0.019": 0.520917468486,
			"-0.018": 1.16193658526,
			"-0.017": 0.813633716321,
			"-0.016": 1.23437219321,
			"-0.015": 0.845646826494,
			"-0.014": 0.684540049324,
			"-0.013": 0.795119093199,
			"-0.012": 1.22840933129,
			"-0.011": 1.04557474354,
			"-0.01": 0.876199479981,
			"-0.009": 0.848155598086,
			"-0.008": 1.45155326436,
			"-0.007": 6.70156063237,
			"-0.006": 13.2030619919,
			"-0.005": 14.7409760098,
			"-0.004": 14.8469500078,
			"-0.003": 16.8801602614,
			"-0.002": 14.3363721082,
			"-0.001": 14.2336073571,
			"0.0": 14.6643976925,
			"0.001": 18.0500752944,
			"0.002": 14.4944766227,
			"0.003": 6.08319160491,
			"0.004": 5.91237406683,
			"0.005": 5.45865869715,
			"0.006": 3.21297089151,
			"0.007": 3.24062917411,
			"0.008": 5.00201112309,
			"0.009": 5.21884736342,
			"0.01": 6.58012865129,
			"0.011": 9.08947952264,
			"0.012": 6.52914731301,
			"0.013": 1.1145804177,
			"0.014": 0.00801522849185,
			"0.015": 0.0,
			"0.016": 0.0,
			"0.017": 0.0,
			"0.018": 0.0,
			"0.019": 0.0,
			"0.02": 0.0,
			"0.021": 0.0,
			"0.022": 0.0,
			"0.023": 0.0,
			"0.024": 0.0,
			"0.025": 0.0
		}
	}
}
