{
	 "smiles": "COC1=CC2=C(C=C1)C(CCC2)=NO", 
	 "Tm": 409.15, 
	 "num_atms": 27, 
	 "gaussian": { 
		 "optdone": 1, 
		 "sigma_profile": "yes", 
		 "theory": "DFT", 
		 "functional": "B3LYP", 
		 "basiset": "6-31G**", 
		 "properties": { 
			 "R2extent": 3566.434, 
			 "electric_dipole_moment_norm": 2.08607134106, 
			 "electric_quadrupole_moment_norm": 9.66631798773, 
			 "total_energy": -632.153612929, 
			 "HOMO_LUMO_gap": 0.17705, 
			 "cosmo_polarized_energy": -10.16, 
			 "cosmo_cavitation_energy": 29.38, 
			 "cosmo_dispersion_energy": -22.04, 
			 "cosmo_repulsion_energy": 1.74, 
			 "cosmo_total_nonelectrostatic_energy": 9.08, 
			 "SMD_solvation_energy": 5.27 
		},
		"coords": [
			{
				"x": -0.0637261804,
				"y": -3.9884319274,
				"z": 1.9047856039,
				"element": "C" 
			},
			{
				"x": -1.1203971829,
				"y": -3.2305072195,
				"z": 1.3382812548,
				"element": "O" 
			},
			{
				"x": -0.8946518309,
				"y": -1.9159752082,
				"z": 1.0536772043,
				"element": "C" 
			},
			{
				"x": 0.3081636498,
				"y": -1.2462633532,
				"z": 1.2861697749,
				"element": "C" 
			},
			{
				"x": 0.4456421468,
				"y": 0.1111264121,
				"z": 0.9613821913,
				"element": "C" 
			},
			{
				"x": -0.6381718452,
				"y": 0.8116924705,
				"z": 0.3998329123,
				"element": "C" 
			},
			{
				"x": -1.8475151586,
				"y": 0.1197950365,
				"z": 0.1777249486,
				"element": "C" 
			},
			{
				"x": -1.9797647851,
				"y": -1.2188104491,
				"z": 0.4941827632,
				"element": "C" 
			},
			{
				"x": -0.5010860466,
				"y": 2.2402382867,
				"z": 0.040090132,
				"element": "C" 
			},
			{
				"x": 0.7676391458,
				"y": 2.982341765,
				"z": 0.401151543,
				"element": "C" 
			},
			{
				"x": 1.5509975981,
				"y": 2.2978548971,
				"z": 1.5257203208,
				"element": "C" 
			},
			{
				"x": 1.7638061695,
				"y": 0.8140126041,
				"z": 1.2112957432,
				"element": "C" 
			},
			{
				"x": -1.4821161851,
				"y": 2.7859079253,
				"z": -0.5938424792,
				"element": "N" 
			},
			{
				"x": -1.2228159658,
				"y": 4.1382904067,
				"z": -0.8922590131,
				"element": "O" 
			},
			{
				"x": 0.8082902524,
				"y": -4.0286934561,
				"z": 1.2392859315,
				"element": "H" 
			},
			{
				"x": 0.2474431829,
				"y": -3.5861741669,
				"z": 2.877587784,
				"element": "H" 
			},
			{
				"x": -0.4561479681,
				"y": -4.9971346618,
				"z": 2.0430999946,
				"element": "H" 
			},
			{
				"x": 1.1549549879,
				"y": -1.7629352832,
				"z": 1.7243440624,
				"element": "H" 
			},
			{
				"x": -2.6817091817,
				"y": 0.6621255477,
				"z": -0.2528921842,
				"element": "H" 
			},
			{
				"x": -2.9094743897,
				"y": -1.7523092603,
				"z": 0.3257428441,
				"element": "H" 
			},
			{
				"x": 1.3919798103,
				"y": 3.0514355674,
				"z": -0.5018260178,
				"element": "H" 
			},
			{
				"x": 0.5095677598,
				"y": 4.0124011058,
				"z": 0.6617514174,
				"element": "H" 
			},
			{
				"x": 0.997641331,
				"y": 2.3904626601,
				"z": 2.468629678,
				"element": "H" 
			},
			{
				"x": 2.5129040329,
				"y": 2.8021320627,
				"z": 1.6690821464,
				"element": "H" 
			},
			{
				"x": 2.3017875626,
				"y": 0.316504033,
				"z": 2.0261026205,
				"element": "H" 
			},
			{
				"x": 2.4036158505,
				"y": 0.7228635046,
				"z": 0.3202618011,
				"element": "H" 
			},
			{
				"x": -2.0411567602,
				"y": 4.4029507004,
				"z": -1.3317629779,
				"element": "H" 
			}
		],
		 "valence_orbital": [ 
			{
				"type": "occ",
				"energy": -0.31648,
				"method": "rhf"
			},
			{
				"type": "occ",
				"energy": -0.25957,
				"method": "rhf"
			},
			{
				"type": "occ",
				"energy": -0.25872,
				"method": "rhf"
			},
			{
				"type": "occ",
				"energy": -0.24142,
				"method": "rhf"
			},
			{
				"type": "occ",
				"energy": -0.1998,
				"method": "rhf"
			},
			{
				"type": "unocc",
				"energy": -0.02275,
				"method": "rhf"
			},
			{
				"type": "unocc",
				"energy": 0.00257,
				"method": "rhf"
			},
			{
				"type": "unocc",
				"energy": 0.06312,
				"method": "rhf"
			},
			{
				"type": "unocc",
				"energy": 0.08421,
				"method": "rhf"
			},
			{
				"type": "unocc",
				"energy": 0.09484,
				"method": "rhf"
			}
		],
		"cosmo_sigma_profile": { 
			"-0.025": 0.0,
			"-0.024": 0.0,
			"-0.023": 0.0,
			"-0.022": 0.0,
			"-0.021": 0.0,
			"-0.02": 0.0,
			"-0.019": 0.0,
			"-0.018": 0.0,
			"-0.017": 0.590892979257,
			"-0.016": 1.00745838374,
			"-0.015": 0.757826694764,
			"-0.014": 0.653734247284,
			"-0.013": 1.1577408285,
			"-0.012": 0.634657792458,
			"-0.011": 0.230335409452,
			"-0.01": 0.402353748627,
			"-0.009": 0.679173723662,
			"-0.008": 0.888072247414,
			"-0.007": 0.920428804966,
			"-0.006": 6.16257213071,
			"-0.005": 14.6979865114,
			"-0.004": 21.7309256708,
			"-0.003": 27.6578452604,
			"-0.002": 23.1983492429,
			"-0.001": 22.1366403688,
			"0.0": 15.4269958099,
			"0.001": 11.0609095731,
			"0.002": 9.17264141989,
			"0.003": 10.7574370574,
			"0.004": 15.1279343661,
			"0.005": 17.1974176685,
			"0.006": 7.126608476,
			"0.007": 4.60335015428,
			"0.008": 5.27424662275,
			"0.009": 5.81008811026,
			"0.01": 4.52309075779,
			"0.011": 1.7301313693,
			"0.012": 0.0989751155154,
			"0.013": 0.0,
			"0.014": 0.0,
			"0.015": 0.0,
			"0.016": 0.0,
			"0.017": 0.0,
			"0.018": 0.0,
			"0.019": 0.0,
			"0.02": 0.0,
			"0.021": 0.0,
			"0.022": 0.0,
			"0.023": 0.0,
			"0.024": 0.0,
			"0.025": 0.0
		}
	}
}
