{
	 "smiles": "COC1=CC=C(CC(O)=O)C=C1OCC1=CC=CC=C1", 
	 "Tm": 399.15, 
	 "num_atms": 36, 
	 "gaussian": { 
		 "optdone": 1, 
		 "sigma_profile": "yes", 
		 "theory": "DFT", 
		 "functional": "B3LYP", 
		 "basiset": "6-31G**", 
		 "properties": { 
			 "R2extent": 8519.9947, 
			 "electric_dipole_moment_norm": 1.70727064345, 
			 "electric_quadrupole_moment_norm": 13.8861550582, 
			 "total_energy": -920.231495587, 
			 "HOMO_LUMO_gap": 0.20948, 
			 "cosmo_polarized_energy": -15.44, 
			 "cosmo_cavitation_energy": 41.02, 
			 "cosmo_dispersion_energy": -28.42, 
			 "cosmo_repulsion_energy": 2.2, 
			 "cosmo_total_nonelectrostatic_energy": 14.8, 
			 "SMD_solvation_energy": 8.77 
		},
		"coords": [
			{
				"x": -3.9047877351,
				"y": 0.2710693264,
				"z": 0.3387369383,
				"element": "C" 
			},
			{
				"x": -2.5533658616,
				"y": -0.1629875356,
				"z": 0.3153286197,
				"element": "O" 
			},
			{
				"x": -1.6382069332,
				"y": 0.6169214612,
				"z": -0.3341585839,
				"element": "C" 
			},
			{
				"x": -1.9302204876,
				"y": 1.8148373655,
				"z": -0.9923507808,
				"element": "C" 
			},
			{
				"x": -0.9134987622,
				"y": 2.5495343742,
				"z": -1.6080765842,
				"element": "C" 
			},
			{
				"x": 0.4101747736,
				"y": 2.1055251133,
				"z": -1.5793572332,
				"element": "C" 
			},
			{
				"x": 1.518285958,
				"y": 2.9149797097,
				"z": -2.2376979803,
				"element": "C" 
			},
			{
				"x": 1.2816091667,
				"y": 3.050794963,
				"z": -3.7302826728,
				"element": "C" 
			},
			{
				"x": 1.9589277085,
				"y": 2.118970048,
				"z": -4.4415675421,
				"element": "O" 
			},
			{
				"x": 0.5533844207,
				"y": 3.8681050016,
				"z": -4.2507617622,
				"element": "O" 
			},
			{
				"x": 0.6955909308,
				"y": 0.8959776423,
				"z": -0.9333989164,
				"element": "C" 
			},
			{
				"x": -0.3045192039,
				"y": 0.1525338345,
				"z": -0.3143677347,
				"element": "C" 
			},
			{
				"x": 0.0352991961,
				"y": -0.9879063728,
				"z": 0.3727570348,
				"element": "O" 
			},
			{
				"x": -0.3918619354,
				"y": -2.2286975576,
				"z": -0.2192911668,
				"element": "C" 
			},
			{
				"x": -0.323246663,
				"y": -3.3173192344,
				"z": 0.8219633669,
				"element": "C" 
			},
			{
				"x": 0.2531900833,
				"y": -4.5562697745,
				"z": 0.5264922847,
				"element": "C" 
			},
			{
				"x": 0.2703961348,
				"y": -5.5774260688,
				"z": 1.4796199721,
				"element": "C" 
			},
			{
				"x": -0.280120741,
				"y": -5.3616954195,
				"z": 2.7430624911,
				"element": "C" 
			},
			{
				"x": -0.8501375767,
				"y": -4.1221366119,
				"z": 3.0478848759,
				"element": "C" 
			},
			{
				"x": -0.8753138554,
				"y": -3.1073999538,
				"z": 2.0927965556,
				"element": "C" 
			},
			{
				"x": -4.4526356908,
				"y": -0.4826950615,
				"z": 0.9060297889,
				"element": "H" 
			},
			{
				"x": -4.3261595066,
				"y": 0.3398231973,
				"z": -0.6723471805,
				"element": "H" 
			},
			{
				"x": -4.0066716589,
				"y": 1.243636673,
				"z": 0.8365563778,
				"element": "H" 
			},
			{
				"x": -2.9463402024,
				"y": 2.1902259442,
				"z": -1.0232812327,
				"element": "H" 
			},
			{
				"x": -1.1578716332,
				"y": 3.4745953842,
				"z": -2.1212871353,
				"element": "H" 
			},
			{
				"x": 1.5438108895,
				"y": 3.9293774936,
				"z": -1.8275141824,
				"element": "H" 
			},
			{
				"x": 2.4868783175,
				"y": 2.4425587347,
				"z": -2.0612180401,
				"element": "H" 
			},
			{
				"x": 1.7137718948,
				"y": 2.2599988894,
				"z": -5.371971648,
				"element": "H" 
			},
			{
				"x": 1.7103819608,
				"y": 0.5121285787,
				"z": -0.886006829,
				"element": "H" 
			},
			{
				"x": 0.2534759485,
				"y": -2.4677979623,
				"z": -1.0759283207,
				"element": "H" 
			},
			{
				"x": -1.419220577,
				"y": -2.1202537097,
				"z": -0.5869864842,
				"element": "H" 
			},
			{
				"x": 0.6943021583,
				"y": -4.7235639611,
				"z": -0.4533611277,
				"element": "H" 
			},
			{
				"x": 0.7218487078,
				"y": -6.53542878,
				"z": 1.2372191607,
				"element": "H" 
			},
			{
				"x": -0.2621309162,
				"y": -6.1520445211,
				"z": 3.4882347414,
				"element": "H" 
			},
			{
				"x": -1.2762911653,
				"y": -3.9478948243,
				"z": 4.0321331321,
				"element": "H" 
			},
			{
				"x": -1.3119271443,
				"y": -2.1403763857,
				"z": 2.3213977978,
				"element": "H" 
			}
		],
		 "valence_orbital": [ 
			{
				"type": "occ",
				"energy": -0.27346,
				"method": "rhf"
			},
			{
				"type": "occ",
				"energy": -0.24528,
				"method": "rhf"
			},
			{
				"type": "occ",
				"energy": -0.24302,
				"method": "rhf"
			},
			{
				"type": "occ",
				"energy": -0.23758,
				"method": "rhf"
			},
			{
				"type": "occ",
				"energy": -0.21417,
				"method": "rhf"
			},
			{
				"type": "unocc",
				"energy": -0.00469,
				"method": "rhf"
			},
			{
				"type": "unocc",
				"energy": -0.00263,
				"method": "rhf"
			},
			{
				"type": "unocc",
				"energy": 0.00165,
				"method": "rhf"
			},
			{
				"type": "unocc",
				"energy": 0.00503,
				"method": "rhf"
			},
			{
				"type": "unocc",
				"energy": 0.0232,
				"method": "rhf"
			}
		],
		"cosmo_sigma_profile": { 
			"-0.025": 0.0,
			"-0.024": 0.0,
			"-0.023": 0.0,
			"-0.022": 0.0,
			"-0.021": 0.0,
			"-0.02": 0.0,
			"-0.019": 0.0332060599461,
			"-0.018": 0.712362213905,
			"-0.017": 1.2767548486,
			"-0.016": 0.553967860706,
			"-0.015": 0.349547741893,
			"-0.014": 1.05652769763,
			"-0.013": 0.347777352313,
			"-0.012": 0.718338782857,
			"-0.011": 1.20998590687,
			"-0.01": 0.69508144062,
			"-0.009": 0.579698521543,
			"-0.008": 0.68355593893,
			"-0.007": 2.94455128499,
			"-0.006": 18.7130396722,
			"-0.005": 28.5206073617,
			"-0.004": 32.4569310642,
			"-0.003": 31.9492563961,
			"-0.002": 22.455320973,
			"-0.001": 19.43889439,
			"0.0": 15.4244693006,
			"0.001": 16.8126219566,
			"0.002": 19.3145855099,
			"0.003": 23.0223477445,
			"0.004": 22.2327968409,
			"0.005": 22.4823666252,
			"0.006": 14.5094162764,
			"0.007": 4.63110497755,
			"0.008": 5.4727007745,
			"0.009": 4.25174894715,
			"0.01": 3.38510230071,
			"0.011": 4.47645020047,
			"0.012": 4.71235199129,
			"0.013": 0.461821662171,
			"0.014": 0.0,
			"0.015": 0.0,
			"0.016": 0.0,
			"0.017": 0.0,
			"0.018": 0.0,
			"0.019": 0.0,
			"0.02": 0.0,
			"0.021": 0.0,
			"0.022": 0.0,
			"0.023": 0.0,
			"0.024": 0.0,
			"0.025": 0.0
		}
	}
}
