{
	 "smiles": "CSC1=NN2C(=N1)N=C(C)C=C2C", 
	 "Tm": 429.15, 
	 "num_atms": 23, 
	 "gaussian": { 
		 "optdone": 1, 
		 "sigma_profile": "yes", 
		 "theory": "DFT", 
		 "functional": "B3LYP", 
		 "basiset": "6-31G**", 
		 "properties": { 
			 "R2extent": 3284.5042, 
			 "electric_dipole_moment_norm": 3.5833697409, 
			 "electric_quadrupole_moment_norm": 14.8770564726, 
			 "total_energy": -928.073080108, 
			 "HOMO_LUMO_gap": 0.16536, 
			 "cosmo_polarized_energy": -13.41, 
			 "cosmo_cavitation_energy": 28.66, 
			 "cosmo_dispersion_energy": -21.76, 
			 "cosmo_repulsion_energy": 1.68, 
			 "cosmo_total_nonelectrostatic_energy": 8.58, 
			 "SMD_solvation_energy": 1.23 
		},
		"coords": [
			{
				"x": -0.848158988,
				"y": -3.974020148,
				"z": -1.3711645987,
				"element": "C" 
			},
			{
				"x": -1.7792872739,
				"y": -2.4998160738,
				"z": -1.9171172694,
				"element": "S" 
			},
			{
				"x": -1.1198722771,
				"y": -1.3005891566,
				"z": -0.810623763,
				"element": "C" 
			},
			{
				"x": -1.5587705893,
				"y": -0.033950057,
				"z": -0.8842795681,
				"element": "N" 
			},
			{
				"x": -0.8296428481,
				"y": 0.5514915412,
				"z": 0.1017645092,
				"element": "N" 
			},
			{
				"x": 0.007093772,
				"y": -0.3910834561,
				"z": 0.7152233391,
				"element": "C" 
			},
			{
				"x": -0.183778063,
				"y": -1.5745741303,
				"z": 0.1265537583,
				"element": "N" 
			},
			{
				"x": 0.8278367658,
				"y": -0.0617931788,
				"z": 1.7194368103,
				"element": "N" 
			},
			{
				"x": 0.8168537306,
				"y": 1.2080299037,
				"z": 2.1149398602,
				"element": "C" 
			},
			{
				"x": 1.7443349922,
				"y": 1.5700387711,
				"z": 3.246524339,
				"element": "C" 
			},
			{
				"x": -0.0163184582,
				"y": 2.1921271904,
				"z": 1.5186878453,
				"element": "C" 
			},
			{
				"x": -0.8644929751,
				"y": 1.8567466992,
				"z": 0.4825551624,
				"element": "C" 
			},
			{
				"x": -1.7944998361,
				"y": 2.7741447626,
				"z": -0.2410946595,
				"element": "C" 
			},
			{
				"x": 0.2233440089,
				"y": -3.8217096788,
				"z": -1.5004025946,
				"element": "H" 
			},
			{
				"x": -1.0619122524,
				"y": -4.1986890261,
				"z": -0.3262464755,
				"element": "H" 
			},
			{
				"x": -1.1909505047,
				"y": -4.7913797099,
				"z": -2.0088190959,
				"element": "H" 
			},
			{
				"x": 1.6748403312,
				"y": 2.6279520426,
				"z": 3.5100673677,
				"element": "H" 
			},
			{
				"x": 2.7789399539,
				"y": 1.3421940725,
				"z": 2.9713991256,
				"element": "H" 
			},
			{
				"x": 1.5092884737,
				"y": 0.9698814863,
				"z": 4.1311586025,
				"element": "H" 
			},
			{
				"x": 0.0058480912,
				"y": 3.2162142254,
				"z": 1.8716375379,
				"element": "H" 
			},
			{
				"x": -1.7240535802,
				"y": 3.786153576,
				"z": 0.1607422092,
				"element": "H" 
			},
			{
				"x": -1.5598637356,
				"y": 2.7891538491,
				"z": -1.3104761778,
				"element": "H" 
			},
			{
				"x": -2.8261787378,
				"y": 2.4179764952,
				"z": -0.1536662642,
				"element": "H" 
			}
		],
		 "valence_orbital": [ 
			{
				"type": "occ",
				"energy": -0.28637,
				"method": "rhf"
			},
			{
				"type": "occ",
				"energy": -0.28087,
				"method": "rhf"
			},
			{
				"type": "occ",
				"energy": -0.27112,
				"method": "rhf"
			},
			{
				"type": "occ",
				"energy": -0.2463,
				"method": "rhf"
			},
			{
				"type": "occ",
				"energy": -0.21841,
				"method": "rhf"
			},
			{
				"type": "unocc",
				"energy": -0.05305,
				"method": "rhf"
			},
			{
				"type": "unocc",
				"energy": -0.01319,
				"method": "rhf"
			},
			{
				"type": "unocc",
				"energy": 0.03712,
				"method": "rhf"
			},
			{
				"type": "unocc",
				"energy": 0.05519,
				"method": "rhf"
			},
			{
				"type": "unocc",
				"energy": 0.08373,
				"method": "rhf"
			}
		],
		"cosmo_sigma_profile": { 
			"-0.025": 0.0,
			"-0.024": 0.0,
			"-0.023": 0.0,
			"-0.022": 0.0,
			"-0.021": 0.0,
			"-0.02": 0.0,
			"-0.019": 0.0,
			"-0.018": 0.0,
			"-0.017": 0.0,
			"-0.016": 0.0,
			"-0.015": 0.0,
			"-0.014": 0.0,
			"-0.013": 0.0,
			"-0.012": 0.0,
			"-0.011": 0.0,
			"-0.01": 0.0,
			"-0.009": 0.0,
			"-0.008": 2.80019958834,
			"-0.007": 7.47585233633,
			"-0.006": 12.9314292307,
			"-0.005": 17.2679456195,
			"-0.004": 21.3361532795,
			"-0.003": 24.0100181708,
			"-0.002": 28.6774671573,
			"-0.001": 21.3933243429,
			"0.0": 12.5802122828,
			"0.001": 10.590589731,
			"0.002": 8.06779020735,
			"0.003": 8.6683723377,
			"0.004": 10.3341611182,
			"0.005": 7.66359906601,
			"0.006": 6.97976918507,
			"0.007": 5.72589605039,
			"0.008": 5.05623938887,
			"0.009": 3.43636390191,
			"0.01": 2.90146273579,
			"0.011": 3.36051805991,
			"0.012": 3.60116533623,
			"0.013": 2.44632469433,
			"0.014": 2.2223759769,
			"0.015": 0.866930130064,
			"0.016": 0.106365619089,
			"0.017": 0.0,
			"0.018": 0.0,
			"0.019": 0.0,
			"0.02": 0.0,
			"0.021": 0.0,
			"0.022": 0.0,
			"0.023": 0.0,
			"0.024": 0.0,
			"0.025": 0.0
		}
	}
}
