{
	 "smiles": "CC1=NN(C(=O)C1=NNC1=CC(=CC=C1)C(F)(F)F)C1=CC=CC=C1", 
	 "Tm": 444.15, 
	 "num_atms": 38, 
	 "gaussian": { 
		 "optdone": 1, 
		 "sigma_profile": "yes", 
		 "theory": "DFT", 
		 "functional": "B3LYP", 
		 "basiset": "6-31G**", 
		 "properties": { 
			 "R2extent": 14114.0434, 
			 "electric_dipole_moment_norm": 1.34006385669, 
			 "electric_quadrupole_moment_norm": 15.8606693673, 
			 "total_energy": -1249.37169939, 
			 "HOMO_LUMO_gap": 0.11755, 
			 "cosmo_polarized_energy": -10.87, 
			 "cosmo_cavitation_energy": 45.04, 
			 "cosmo_dispersion_energy": -31.89, 
			 "cosmo_repulsion_energy": 2.33, 
			 "cosmo_total_nonelectrostatic_energy": 15.48, 
			 "SMD_solvation_energy": 7.89 
		},
		"coords": [
			{
				"x": 0.8669091849,
				"y": 1.9666130614,
				"z": -2.1103718082,
				"element": "C" 
			},
			{
				"x": 1.4063314682,
				"y": 1.2977746373,
				"z": -0.8901248018,
				"element": "C" 
			},
			{
				"x": 2.6589724002,
				"y": 1.3896025749,
				"z": -0.5468235609,
				"element": "N" 
			},
			{
				"x": 2.8448007088,
				"y": 0.6541847364,
				"z": 0.638079611,
				"element": "N" 
			},
			{
				"x": 1.6714289663,
				"y": 0.0704616091,
				"z": 1.0697550806,
				"element": "C" 
			},
			{
				"x": 1.4660715915,
				"y": -0.6409569136,
				"z": 2.0677009088,
				"element": "O" 
			},
			{
				"x": 0.6803108315,
				"y": 0.4844190051,
				"z": 0.0615547446,
				"element": "C" 
			},
			{
				"x": -0.593805063,
				"y": 0.1813920169,
				"z": 0.0304074615,
				"element": "N" 
			},
			{
				"x": -1.057716427,
				"y": -0.5770318616,
				"z": 1.0004231323,
				"element": "N" 
			},
			{
				"x": -2.4048138135,
				"y": -0.9547243545,
				"z": 1.0547537155,
				"element": "C" 
			},
			{
				"x": -3.3231256896,
				"y": -0.5379324888,
				"z": 0.0828629601,
				"element": "C" 
			},
			{
				"x": -4.6516829791,
				"y": -0.9404886663,
				"z": 0.1896811817,
				"element": "C" 
			},
			{
				"x": -5.079802922,
				"y": -1.7493449636,
				"z": 1.2480946927,
				"element": "C" 
			},
			{
				"x": -4.1557687982,
				"y": -2.1572274441,
				"z": 2.2088953199,
				"element": "C" 
			},
			{
				"x": -2.8220552335,
				"y": -1.76629632,
				"z": 2.11889013,
				"element": "C" 
			},
			{
				"x": -5.6336679569,
				"y": -0.5461989085,
				"z": -0.8835346066,
				"element": "C" 
			},
			{
				"x": -5.7440132707,
				"y": -1.5076987404,
				"z": -1.8288175357,
				"element": "F" 
			},
			{
				"x": -5.2658825457,
				"y": 0.5888858988,
				"z": -1.5155742454,
				"element": "F" 
			},
			{
				"x": -6.8714270864,
				"y": -0.3495028769,
				"z": -0.3784953711,
				"element": "F" 
			},
			{
				"x": 4.1395391776,
				"y": 0.6023469864,
				"z": 1.2154289379,
				"element": "C" 
			},
			{
				"x": 5.1944674147,
				"y": 1.2828745451,
				"z": 0.5906129176,
				"element": "C" 
			},
			{
				"x": 6.4694872007,
				"y": 1.2380455601,
				"z": 1.1499142169,
				"element": "C" 
			},
			{
				"x": 6.7088500707,
				"y": 0.5234883891,
				"z": 2.3250756807,
				"element": "C" 
			},
			{
				"x": 5.6525454401,
				"y": -0.150357684,
				"z": 2.9391914791,
				"element": "C" 
			},
			{
				"x": 4.3680765552,
				"y": -0.1193262047,
				"z": 2.3971828136,
				"element": "C" 
			},
			{
				"x": 0.0687791359,
				"y": 2.6693884079,
				"z": -1.8484681901,
				"element": "H" 
			},
			{
				"x": 1.6659155177,
				"y": 2.5079726318,
				"z": -2.6201356211,
				"element": "H" 
			},
			{
				"x": 0.4365042147,
				"y": 1.2317594953,
				"z": -2.7990343865,
				"element": "H" 
			},
			{
				"x": -0.3941354018,
				"y": -0.8862679662,
				"z": 1.722777043,
				"element": "H" 
			},
			{
				"x": -2.9945168413,
				"y": 0.0945547225,
				"z": -0.7312552201,
				"element": "H" 
			},
			{
				"x": -6.1203696932,
				"y": -2.0445841372,
				"z": 1.3194593802,
				"element": "H" 
			},
			{
				"x": -4.474835115,
				"y": -2.781847215,
				"z": 3.0371580735,
				"element": "H" 
			},
			{
				"x": -2.1040821944,
				"y": -2.0839745602,
				"z": 2.8699744131,
				"element": "H" 
			},
			{
				"x": 5.0025276144,
				"y": 1.8349373177,
				"z": -0.3200095671,
				"element": "H" 
			},
			{
				"x": 7.2806629871,
				"y": 1.768231432,
				"z": 0.659023959,
				"element": "H" 
			},
			{
				"x": 7.7050127704,
				"y": 0.4924441936,
				"z": 2.7559992599,
				"element": "H" 
			},
			{
				"x": 5.8228728803,
				"y": -0.7107488261,
				"z": 3.8540917884,
				"element": "H" 
			},
			{
				"x": 3.5510349008,
				"y": -0.6422670896,
				"z": 2.8748560129,
				"element": "H" 
			}
		],
		 "valence_orbital": [ 
			{
				"type": "occ",
				"energy": -0.27973,
				"method": "rhf"
			},
			{
				"type": "occ",
				"energy": -0.25965,
				"method": "rhf"
			},
			{
				"type": "occ",
				"energy": -0.24808,
				"method": "rhf"
			},
			{
				"type": "occ",
				"energy": -0.231,
				"method": "rhf"
			},
			{
				"type": "occ",
				"energy": -0.21456,
				"method": "rhf"
			},
			{
				"type": "unocc",
				"energy": -0.09701,
				"method": "rhf"
			},
			{
				"type": "unocc",
				"energy": -0.03759,
				"method": "rhf"
			},
			{
				"type": "unocc",
				"energy": -0.01261,
				"method": "rhf"
			},
			{
				"type": "unocc",
				"energy": -0.00804,
				"method": "rhf"
			},
			{
				"type": "unocc",
				"energy": 0.00231,
				"method": "rhf"
			}
		],
		"cosmo_sigma_profile": { 
			"-0.025": 0.0,
			"-0.024": 0.0,
			"-0.023": 0.0,
			"-0.022": 0.0,
			"-0.021": 0.0,
			"-0.02": 0.0,
			"-0.019": 0.0,
			"-0.018": 0.0,
			"-0.017": 0.0,
			"-0.016": 0.0,
			"-0.015": 0.0,
			"-0.014": 0.0,
			"-0.013": 0.211885347026,
			"-0.012": 0.804614595443,
			"-0.011": 1.12472640128,
			"-0.01": 1.02912805344,
			"-0.009": 1.31536755574,
			"-0.008": 2.60691728134,
			"-0.007": 6.07378817207,
			"-0.006": 12.9682215506,
			"-0.005": 21.908936487,
			"-0.004": 25.4938916486,
			"-0.003": 27.3783104948,
			"-0.002": 26.2185604573,
			"-0.001": 32.9051481698,
			"0.0": 29.0344136118,
			"0.001": 29.0546446235,
			"0.002": 44.7142822061,
			"0.003": 48.1646906277,
			"0.004": 16.0316200895,
			"0.005": 15.7990945334,
			"0.006": 6.73635965654,
			"0.007": 2.35940234369,
			"0.008": 2.64072314777,
			"0.009": 3.75966603035,
			"0.01": 3.03092170233,
			"0.011": 1.55648607993,
			"0.012": 0.0,
			"0.013": 0.0,
			"0.014": 0.0,
			"0.015": 0.0,
			"0.016": 0.0,
			"0.017": 0.0,
			"0.018": 0.0,
			"0.019": 0.0,
			"0.02": 0.0,
			"0.021": 0.0,
			"0.022": 0.0,
			"0.023": 0.0,
			"0.024": 0.0,
			"0.025": 0.0
		}
	}
}
