{
	 "smiles": "CN(C)S(=O)(=O)C1=CC(=CC=C1)C(=O)C1=CC=CC=C1", 
	 "Tm": 356.15, 
	 "num_atms": 35, 
	 "gaussian": { 
		 "optdone": 1, 
		 "sigma_profile": "yes", 
		 "theory": "DFT", 
		 "functional": "B3LYP", 
		 "basiset": "6-31G**", 
		 "properties": { 
			 "R2extent": 6667.7554, 
			 "electric_dipole_moment_norm": 5.20110791082, 
			 "electric_quadrupole_moment_norm": 27.4636528184, 
			 "total_energy": -1259.17337169, 
			 "HOMO_LUMO_gap": 0.17757, 
			 "cosmo_polarized_energy": -18.31, 
			 "cosmo_cavitation_energy": 40.0, 
			 "cosmo_dispersion_energy": -27.67, 
			 "cosmo_repulsion_energy": 2.05, 
			 "cosmo_total_nonelectrostatic_energy": 14.38, 
			 "SMD_solvation_energy": 5.64 
		},
		"coords": [
			{
				"x": -1.2997114803,
				"y": -0.3875726399,
				"z": -2.7521699256,
				"element": "C" 
			},
			{
				"x": -0.4259555561,
				"y": -1.5582163779,
				"z": -2.8338228424,
				"element": "N" 
			},
			{
				"x": -1.1139652887,
				"y": -2.8504748938,
				"z": -2.8247251211,
				"element": "C" 
			},
			{
				"x": 1.0304136574,
				"y": -1.4725367714,
				"z": -1.9805207785,
				"element": "S" 
			},
			{
				"x": 1.7637987191,
				"y": -2.6975777395,
				"z": -2.3028716307,
				"element": "O" 
			},
			{
				"x": 1.5775926221,
				"y": -0.1396145377,
				"z": -2.2386089023,
				"element": "O" 
			},
			{
				"x": 0.6127820561,
				"y": -1.5465753499,
				"z": -0.2291473924,
				"element": "C" 
			},
			{
				"x": 0.3920665416,
				"y": -0.3585881578,
				"z": 0.4722294648,
				"element": "C" 
			},
			{
				"x": 0.0548407501,
				"y": -0.4131423993,
				"z": 1.831577954,
				"element": "C" 
			},
			{
				"x": -0.0429737169,
				"y": -1.6633596203,
				"z": 2.4641367837,
				"element": "C" 
			},
			{
				"x": 0.1695780818,
				"y": -2.8406139375,
				"z": 1.7524785716,
				"element": "C" 
			},
			{
				"x": 0.5035270241,
				"y": -2.7905630446,
				"z": 0.3971116001,
				"element": "C" 
			},
			{
				"x": -0.1030821045,
				"y": 0.8146866769,
				"z": 2.6886102569,
				"element": "C" 
			},
			{
				"x": 0.1402906721,
				"y": 0.7389935853,
				"z": 3.8873515736,
				"element": "O" 
			},
			{
				"x": -0.5441635231,
				"y": 2.1160567483,
				"z": 2.0928344894,
				"element": "C" 
			},
			{
				"x": -0.1449609286,
				"y": 3.2968121805,
				"z": 2.7406100553,
				"element": "C" 
			},
			{
				"x": -0.5581518459,
				"y": 4.5367627816,
				"z": 2.2637858265,
				"element": "C" 
			},
			{
				"x": -1.398686215,
				"y": 4.6128809673,
				"z": 1.1487197798,
				"element": "C" 
			},
			{
				"x": -1.8234989493,
				"y": 3.444512902,
				"z": 0.5144039374,
				"element": "C" 
			},
			{
				"x": -1.393926319,
				"y": 2.2010128395,
				"z": 0.9788791545,
				"element": "C" 
			},
			{
				"x": -0.6992640385,
				"y": 0.5184176129,
				"z": -2.8290278816,
				"element": "H" 
			},
			{
				"x": -1.8920413007,
				"y": -0.362840199,
				"z": -1.8235797961,
				"element": "H" 
			},
			{
				"x": -1.9905528435,
				"y": -0.4195723644,
				"z": -3.5998624277,
				"element": "H" 
			},
			{
				"x": -1.8173324976,
				"y": -2.8650236005,
				"z": -3.6624080312,
				"element": "H" 
			},
			{
				"x": -1.6768546032,
				"y": -3.0274256153,
				"z": -1.8948717588,
				"element": "H" 
			},
			{
				"x": -0.3863978882,
				"y": -3.6483077408,
				"z": -2.9704452668,
				"element": "H" 
			},
			{
				"x": 0.5364149443,
				"y": 0.5898547152,
				"z": -0.0316470858,
				"element": "H" 
			},
			{
				"x": -0.2717747734,
				"y": -1.6843406971,
				"z": 3.5242958825,
				"element": "H" 
			},
			{
				"x": 0.0943391245,
				"y": -3.8005911549,
				"z": 2.2540189553,
				"element": "H" 
			},
			{
				"x": 0.7123274715,
				"y": -3.695564848,
				"z": -0.1627581644,
				"element": "H" 
			},
			{
				"x": 0.4899051502,
				"y": 3.2158459838,
				"z": 3.6165301851,
				"element": "H" 
			},
			{
				"x": -0.2316128654,
				"y": 5.444934179,
				"z": 2.7617340654,
				"element": "H" 
			},
			{
				"x": -1.7257164122,
				"y": 5.5806634898,
				"z": 0.779545326,
				"element": "H" 
			},
			{
				"x": -2.4909700487,
				"y": 3.5006261679,
				"z": -0.3404196058,
				"element": "H" 
			},
			{
				"x": -1.7435836163,
				"y": 1.2963408596,
				"z": 0.4927327495,
				"element": "H" 
			}
		],
		 "valence_orbital": [ 
			{
				"type": "occ",
				"energy": -0.27997,
				"method": "rhf"
			},
			{
				"type": "occ",
				"energy": -0.26924,
				"method": "rhf"
			},
			{
				"type": "occ",
				"energy": -0.26703,
				"method": "rhf"
			},
			{
				"type": "occ",
				"energy": -0.25899,
				"method": "rhf"
			},
			{
				"type": "occ",
				"energy": -0.25529,
				"method": "rhf"
			},
			{
				"type": "unocc",
				"energy": -0.07772,
				"method": "rhf"
			},
			{
				"type": "unocc",
				"energy": -0.04232,
				"method": "rhf"
			},
			{
				"type": "unocc",
				"energy": -0.02934,
				"method": "rhf"
			},
			{
				"type": "unocc",
				"energy": -0.01544,
				"method": "rhf"
			},
			{
				"type": "unocc",
				"energy": 0.0369,
				"method": "rhf"
			}
		],
		"cosmo_sigma_profile": { 
			"-0.025": 0.0,
			"-0.024": 0.0,
			"-0.023": 0.0,
			"-0.022": 0.0,
			"-0.021": 0.0,
			"-0.02": 0.0,
			"-0.019": 0.0,
			"-0.018": 0.0,
			"-0.017": 0.0,
			"-0.016": 0.0,
			"-0.015": 0.0,
			"-0.014": 0.0,
			"-0.013": 0.0,
			"-0.012": 0.0,
			"-0.011": 0.0,
			"-0.01": 0.0,
			"-0.009": 0.0,
			"-0.008": 1.1560505911,
			"-0.007": 7.61759272575,
			"-0.006": 19.9710174918,
			"-0.005": 30.8828261775,
			"-0.004": 37.6683465538,
			"-0.003": 32.1207369416,
			"-0.002": 27.7341609459,
			"-0.001": 16.4640750043,
			"0.0": 17.9327943333,
			"0.001": 22.4879908483,
			"0.002": 18.7856653306,
			"0.003": 14.1042372046,
			"0.004": 17.3346206147,
			"0.005": 5.82545960511,
			"0.006": 6.31764454824,
			"0.007": 5.62457403209,
			"0.008": 5.80397081654,
			"0.009": 6.7894262088,
			"0.01": 8.07085972315,
			"0.011": 11.3952515536,
			"0.012": 5.39123381463,
			"0.013": 0.0292485525372,
			"0.014": 0.0,
			"0.015": 0.0,
			"0.016": 0.0,
			"0.017": 0.0,
			"0.018": 0.0,
			"0.019": 0.0,
			"0.02": 0.0,
			"0.021": 0.0,
			"0.022": 0.0,
			"0.023": 0.0,
			"0.024": 0.0,
			"0.025": 0.0
		}
	}
}
