{
	 "smiles": "CCC(CC#N)C#N", 
	 "Tm": 232.15, 
	 "num_atms": 16, 
	 "gaussian": { 
		 "optdone": 1, 
		 "sigma_profile": "yes", 
		 "theory": "DFT", 
		 "functional": "B3LYP", 
		 "basiset": "6-31G**", 
		 "properties": { 
			 "R2extent": 1045.0759, 
			 "electric_dipole_moment_norm": 5.57120833662, 
			 "electric_quadrupole_moment_norm": 9.18545402797, 
			 "total_energy": -342.928955849, 
			 "HOMO_LUMO_gap": 0.33009, 
			 "cosmo_polarized_energy": -16.22, 
			 "cosmo_cavitation_energy": 20.77, 
			 "cosmo_dispersion_energy": -13.86, 
			 "cosmo_repulsion_energy": 1.18, 
			 "cosmo_total_nonelectrostatic_energy": 8.09, 
			 "SMD_solvation_energy": 6.11 
		},
		"coords": [
			{
				"x": -2.1715902909,
				"y": -0.8296060079,
				"z": 0.8828719217,
				"element": "C" 
			},
			{
				"x": -0.720827809,
				"y": -1.2770297277,
				"z": 1.0878454061,
				"element": "C" 
			},
			{
				"x": 0.3801246006,
				"y": -0.289576442,
				"z": 0.615089964,
				"element": "C" 
			},
			{
				"x": 0.5481922045,
				"y": -0.1705409648,
				"z": -0.9279065418,
				"element": "C" 
			},
			{
				"x": -0.5598764975,
				"y": 0.4624688193,
				"z": -1.6477924458,
				"element": "C" 
			},
			{
				"x": -1.4204839431,
				"y": 0.961904344,
				"z": -2.244689524,
				"element": "N" 
			},
			{
				"x": 0.2259860255,
				"y": 1.0345670698,
				"z": 1.2359102377,
				"element": "C" 
			},
			{
				"x": 0.1051298871,
				"y": 2.073671205,
				"z": 1.7385332601,
				"element": "N" 
			},
			{
				"x": -2.4282215897,
				"y": -0.7140003584,
				"z": -0.172267781,
				"element": "H" 
			},
			{
				"x": -2.8491509755,
				"y": -1.5735799793,
				"z": 1.3125251069,
				"element": "H" 
			},
			{
				"x": -2.3640119026,
				"y": 0.1251521096,
				"z": 1.3816174232,
				"element": "H" 
			},
			{
				"x": -0.5471360806,
				"y": -1.4615147471,
				"z": 2.153886203,
				"element": "H" 
			},
			{
				"x": -0.5386176531,
				"y": -2.2302799861,
				"z": 0.5761853785,
				"element": "H" 
			},
			{
				"x": 1.3397930034,
				"y": -0.6854327199,
				"z": 0.9720587482,
				"element": "H" 
			},
			{
				"x": 1.4567633937,
				"y": 0.4010457108,
				"z": -1.1466073818,
				"element": "H" 
			},
			{
				"x": 0.6961276274,
				"y": -1.1772483253,
				"z": -1.334859975,
				"element": "H" 
			}
		],
		 "valence_orbital": [ 
			{
				"type": "occ",
				"energy": -0.36224,
				"method": "rhf"
			},
			{
				"type": "occ",
				"energy": -0.3445,
				"method": "rhf"
			},
			{
				"type": "occ",
				"energy": -0.33586,
				"method": "rhf"
			},
			{
				"type": "occ",
				"energy": -0.33246,
				"method": "rhf"
			},
			{
				"type": "occ",
				"energy": -0.32441,
				"method": "rhf"
			},
			{
				"type": "unocc",
				"energy": 0.00568,
				"method": "rhf"
			},
			{
				"type": "unocc",
				"energy": 0.01196,
				"method": "rhf"
			},
			{
				"type": "unocc",
				"energy": 0.02659,
				"method": "rhf"
			},
			{
				"type": "unocc",
				"energy": 0.03191,
				"method": "rhf"
			},
			{
				"type": "unocc",
				"energy": 0.07325,
				"method": "rhf"
			}
		],
		"cosmo_sigma_profile": { 
			"-0.025": 0.0,
			"-0.024": 0.0,
			"-0.023": 0.0,
			"-0.022": 0.0,
			"-0.021": 0.0,
			"-0.02": 0.0,
			"-0.019": 0.0,
			"-0.018": 0.0,
			"-0.017": 0.0,
			"-0.016": 0.0,
			"-0.015": 0.0,
			"-0.014": 0.0,
			"-0.013": 0.0,
			"-0.012": 0.0,
			"-0.011": 0.0,
			"-0.01": 3.88699749103,
			"-0.009": 13.5840025834,
			"-0.008": 8.12987009748,
			"-0.007": 6.24998491342,
			"-0.006": 7.68217588759,
			"-0.005": 6.84598959429,
			"-0.004": 8.24795245668,
			"-0.003": 10.0826900445,
			"-0.002": 12.7424712471,
			"-0.001": 11.4583991213,
			"0.0": 11.2133676293,
			"0.001": 7.06341909739,
			"0.002": 3.98714010266,
			"0.003": 5.12600544569,
			"0.004": 3.31975214337,
			"0.005": 5.01753860821,
			"0.006": 3.99695137445,
			"0.007": 5.52236051746,
			"0.008": 5.79684332016,
			"0.009": 6.60991318036,
			"0.01": 5.46060709341,
			"0.011": 5.76686951574,
			"0.012": 4.41468795486,
			"0.013": 2.96456173495,
			"0.014": 0.0656938351936,
			"0.015": 0.0,
			"0.016": 0.0,
			"0.017": 0.0,
			"0.018": 0.0,
			"0.019": 0.0,
			"0.02": 0.0,
			"0.021": 0.0,
			"0.022": 0.0,
			"0.023": 0.0,
			"0.024": 0.0,
			"0.025": 0.0
		}
	}
}
