{
	 "smiles": "CCCN1C(=CC2=C1N(C)C(=O)N(C)C2=O)C(O)=O", 
	 "Tm": 412.15, 
	 "num_atms": 34, 
	 "gaussian": { 
		 "optdone": 1, 
		 "sigma_profile": "yes", 
		 "theory": "DFT", 
		 "functional": "B3LYP", 
		 "basiset": "6-31G**", 
		 "properties": { 
			 "R2extent": 5810.4864, 
			 "electric_dipole_moment_norm": 6.30031846973, 
			 "electric_quadrupole_moment_norm": 20.2906578457, 
			 "total_energy": -931.523455134, 
			 "HOMO_LUMO_gap": 0.17545, 
			 "cosmo_polarized_energy": -19.96, 
			 "cosmo_cavitation_energy": 36.5, 
			 "cosmo_dispersion_energy": -26.11, 
			 "cosmo_repulsion_energy": 1.96, 
			 "cosmo_total_nonelectrostatic_energy": 12.36, 
			 "SMD_solvation_energy": 8.5 
		},
		"coords": [
			{
				"x": -0.2226145501,
				"y": -2.6049628258,
				"z": -3.543376255,
				"element": "C" 
			},
			{
				"x": -0.6263506021,
				"y": -1.3751060366,
				"z": -2.7245656463,
				"element": "C" 
			},
			{
				"x": 0.5968632506,
				"y": -0.6710828296,
				"z": -2.1240897342,
				"element": "C" 
			},
			{
				"x": 0.2573321363,
				"y": 0.5315947075,
				"z": -1.344443268,
				"element": "N" 
			},
			{
				"x": 0.0726553269,
				"y": 1.8221875099,
				"z": -1.9092433243,
				"element": "C" 
			},
			{
				"x": -0.2499120801,
				"y": 2.7028827855,
				"z": -0.8996743651,
				"element": "C" 
			},
			{
				"x": -0.2796688706,
				"y": 1.9746303682,
				"z": 0.3026041167,
				"element": "C" 
			},
			{
				"x": 0.0292621624,
				"y": 0.6435036465,
				"z": 0.0023906006,
				"element": "C" 
			},
			{
				"x": 0.0725390012,
				"y": -0.326266489,
				"z": 0.9904872279,
				"element": "N" 
			},
			{
				"x": 0.3596186035,
				"y": -1.7479221615,
				"z": 0.7783615036,
				"element": "C" 
			},
			{
				"x": -0.1743586146,
				"y": 0.0438971835,
				"z": 2.3345136024,
				"element": "C" 
			},
			{
				"x": -0.1314270883,
				"y": -0.7860238955,
				"z": 3.232660888,
				"element": "O" 
			},
			{
				"x": -0.4710566666,
				"y": 1.3743150968,
				"z": 2.6015605515,
				"element": "N" 
			},
			{
				"x": -0.7205393206,
				"y": 1.6960458125,
				"z": 4.0113599305,
				"element": "C" 
			},
			{
				"x": -0.5537259489,
				"y": 2.4207393113,
				"z": 1.6478969991,
				"element": "C" 
			},
			{
				"x": -0.828451468,
				"y": 3.5655964711,
				"z": 1.9766352122,
				"element": "O" 
			},
			{
				"x": 0.180882634,
				"y": 2.2374632921,
				"z": -3.3060676564,
				"element": "C" 
			},
			{
				"x": 0.4535655091,
				"y": 1.2460452509,
				"z": -4.2056500292,
				"element": "O" 
			},
			{
				"x": 0.031949783,
				"y": 3.3887740638,
				"z": -3.6715431328,
				"element": "O" 
			},
			{
				"x": 0.3050478969,
				"y": -3.3441246414,
				"z": -2.9295037319,
				"element": "H" 
			},
			{
				"x": 0.4381281225,
				"y": -2.3274279227,
				"z": -4.3717187574,
				"element": "H" 
			},
			{
				"x": -1.1017250531,
				"y": -3.0964786053,
				"z": -3.9698272992,
				"element": "H" 
			},
			{
				"x": -1.3179300449,
				"y": -1.6636107693,
				"z": -1.9230218406,
				"element": "H" 
			},
			{
				"x": -1.1611419473,
				"y": -0.6623838484,
				"z": -3.3595664949,
				"element": "H" 
			},
			{
				"x": 1.2658510467,
				"y": -0.3548847538,
				"z": -2.9224625644,
				"element": "H" 
			},
			{
				"x": 1.1625601305,
				"y": -1.3468145302,
				"z": -1.4867240944,
				"element": "H" 
			},
			{
				"x": -0.4409164825,
				"y": 3.7570010858,
				"z": -1.0273068432,
				"element": "H" 
			},
			{
				"x": 1.4123706411,
				"y": -1.9095944242,
				"z": 0.5284432049,
				"element": "H" 
			},
			{
				"x": -0.2798206637,
				"y": -2.1596270284,
				"z": -0.0037020978,
				"element": "H" 
			},
			{
				"x": 0.1476239135,
				"y": -2.2492603921,
				"z": 1.7199396407,
				"element": "H" 
			},
			{
				"x": 0.1575565829,
				"y": 1.4508391943,
				"z": 4.6122354959,
				"element": "H" 
			},
			{
				"x": -1.5667717297,
				"y": 1.1153381851,
				"z": 4.3841660741,
				"element": "H" 
			},
			{
				"x": -0.9347016786,
				"y": 2.7612452338,
				"z": 4.0610625823,
				"element": "H" 
			},
			{
				"x": 0.4862060684,
				"y": 1.6966719548,
				"z": -5.0662304953,
				"element": "H" 
			}
		],
		 "valence_orbital": [ 
			{
				"type": "occ",
				"energy": -0.2827,
				"method": "rhf"
			},
			{
				"type": "occ",
				"energy": -0.26985,
				"method": "rhf"
			},
			{
				"type": "occ",
				"energy": -0.26513,
				"method": "rhf"
			},
			{
				"type": "occ",
				"energy": -0.25916,
				"method": "rhf"
			},
			{
				"type": "occ",
				"energy": -0.2174,
				"method": "rhf"
			},
			{
				"type": "unocc",
				"energy": -0.04195,
				"method": "rhf"
			},
			{
				"type": "unocc",
				"energy": -0.01348,
				"method": "rhf"
			},
			{
				"type": "unocc",
				"energy": 0.02167,
				"method": "rhf"
			},
			{
				"type": "unocc",
				"energy": 0.0585,
				"method": "rhf"
			},
			{
				"type": "unocc",
				"energy": 0.07159,
				"method": "rhf"
			}
		],
		"cosmo_sigma_profile": { 
			"-0.025": 0.0,
			"-0.024": 0.0,
			"-0.023": 0.0,
			"-0.022": 0.0,
			"-0.021": 0.0,
			"-0.02": 0.0,
			"-0.019": 0.012825494739,
			"-0.018": 0.671834170199,
			"-0.017": 0.891193257318,
			"-0.016": 0.675810953975,
			"-0.015": 0.827519867319,
			"-0.014": 0.663780842904,
			"-0.013": 0.556932050409,
			"-0.012": 0.914654732016,
			"-0.011": 0.987977395628,
			"-0.01": 0.443251928897,
			"-0.009": 1.11576650597,
			"-0.008": 3.84879788817,
			"-0.007": 6.61551896346,
			"-0.006": 10.3537849948,
			"-0.005": 15.3412777784,
			"-0.004": 24.6060930774,
			"-0.003": 35.8302704511,
			"-0.002": 33.7325852281,
			"-0.001": 24.1243410029,
			"0.0": 23.0486222968,
			"0.001": 18.4146169645,
			"0.002": 14.1258346961,
			"0.003": 11.7188796974,
			"0.004": 7.19721917789,
			"0.005": 4.31419235247,
			"0.006": 4.72972868499,
			"0.007": 4.58087362802,
			"0.008": 3.71122001027,
			"0.009": 4.0338908722,
			"0.01": 5.45339225657,
			"0.011": 6.92794761117,
			"0.012": 13.5485127106,
			"0.013": 4.93170117133,
			"0.014": 0.300474643828,
			"0.015": 0.0,
			"0.016": 0.0,
			"0.017": 0.0,
			"0.018": 0.0,
			"0.019": 0.0,
			"0.02": 0.0,
			"0.021": 0.0,
			"0.022": 0.0,
			"0.023": 0.0,
			"0.024": 0.0,
			"0.025": 0.0
		}
	}
}
