{
	 "smiles": "CC1=NN(C(=O)C1)C1=NN=C(Cl)C=C1", 
	 "Tm": 503.15, 
	 "num_atms": 21, 
	 "gaussian": { 
		 "optdone": 1, 
		 "sigma_profile": "yes", 
		 "theory": "DFT", 
		 "functional": "B3LYP", 
		 "basiset": "6-31G**", 
		 "properties": { 
			 "R2extent": 4813.6692, 
			 "electric_dipole_moment_norm": 5.26562916374, 
			 "electric_quadrupole_moment_norm": 23.8701406605, 
			 "total_energy": -1063.43039935, 
			 "HOMO_LUMO_gap": 0.18095, 
			 "cosmo_polarized_energy": -18.33, 
			 "cosmo_cavitation_energy": 28.02, 
			 "cosmo_dispersion_energy": -21.11, 
			 "cosmo_repulsion_energy": 1.67, 
			 "cosmo_total_nonelectrostatic_energy": 8.58, 
			 "SMD_solvation_energy": 2.92 
		},
		"coords": [
			{
				"x": -4.3493494048,
				"y": -1.7510496976,
				"z": 0.4382840014,
				"element": "C" 
			},
			{
				"x": -2.9201986774,
				"y": -1.3233446378,
				"z": 0.3917656408,
				"element": "C" 
			},
			{
				"x": -2.5885759608,
				"y": -0.0847235849,
				"z": 0.5020233277,
				"element": "N" 
			},
			{
				"x": -1.1870061502,
				"y": -0.0020108336,
				"z": 0.420629706,
				"element": "N" 
			},
			{
				"x": -0.5778351146,
				"y": -1.2509688922,
				"z": 0.2488329625,
				"element": "C" 
			},
			{
				"x": 0.6123069191,
				"y": -1.4834304541,
				"z": 0.147570019,
				"element": "O" 
			},
			{
				"x": -1.7399058019,
				"y": -2.2355340872,
				"z": 0.2189366122,
				"element": "C" 
			},
			{
				"x": -0.5619401664,
				"y": 1.2556954718,
				"z": 0.5141086088,
				"element": "C" 
			},
			{
				"x": -1.3779186139,
				"y": 2.3005968708,
				"z": 0.6779234286,
				"element": "N" 
			},
			{
				"x": -0.8663205425,
				"y": 3.5276333521,
				"z": 0.7755998786,
				"element": "N" 
			},
			{
				"x": 0.4427247718,
				"y": 3.6944682193,
				"z": 0.7090197403,
				"element": "C" 
			},
			{
				"x": 1.0249351153,
				"y": 5.3406325826,
				"z": 0.8468476767,
				"element": "Cl" 
			},
			{
				"x": 1.3593551254,
				"y": 2.6487301724,
				"z": 0.5385493145,
				"element": "C" 
			},
			{
				"x": 0.8425534166,
				"y": 1.3755792807,
				"z": 0.4362923116,
				"element": "C" 
			},
			{
				"x": -4.993290524,
				"y": -0.880052399,
				"z": 0.5722627689,
				"element": "H" 
			},
			{
				"x": -4.6332824495,
				"y": -2.266756107,
				"z": -0.4867270725,
				"element": "H" 
			},
			{
				"x": -4.5206560561,
				"y": -2.4526844337,
				"z": 1.2632562531,
				"element": "H" 
			},
			{
				"x": -1.7513294315,
				"y": -2.789273469,
				"z": -0.7268791642,
				"element": "H" 
			},
			{
				"x": -1.6388949077,
				"y": -2.9750311542,
				"z": 1.0215996237,
				"element": "H" 
			},
			{
				"x": 2.4251052925,
				"y": 2.8395669104,
				"z": 0.490141431,
				"element": "H" 
			},
			{
				"x": 1.4653231605,
				"y": 0.5016568901,
				"z": 0.3030629313,
				"element": "H" 
			}
		],
		 "valence_orbital": [ 
			{
				"type": "occ",
				"energy": -0.31571,
				"method": "rhf"
			},
			{
				"type": "occ",
				"energy": -0.29402,
				"method": "rhf"
			},
			{
				"type": "occ",
				"energy": -0.27844,
				"method": "rhf"
			},
			{
				"type": "occ",
				"energy": -0.24105,
				"method": "rhf"
			},
			{
				"type": "occ",
				"energy": -0.24058,
				"method": "rhf"
			},
			{
				"type": "unocc",
				"energy": -0.05963,
				"method": "rhf"
			},
			{
				"type": "unocc",
				"energy": -0.04768,
				"method": "rhf"
			},
			{
				"type": "unocc",
				"energy": -0.0339,
				"method": "rhf"
			},
			{
				"type": "unocc",
				"energy": 0.02948,
				"method": "rhf"
			},
			{
				"type": "unocc",
				"energy": 0.03296,
				"method": "rhf"
			}
		],
		"cosmo_sigma_profile": { 
			"-0.025": 0.0,
			"-0.024": 0.0,
			"-0.023": 0.0,
			"-0.022": 0.0,
			"-0.021": 0.0,
			"-0.02": 0.0,
			"-0.019": 0.0,
			"-0.018": 0.0,
			"-0.017": 0.0,
			"-0.016": 0.0,
			"-0.015": 0.0,
			"-0.014": 0.0,
			"-0.013": 0.0,
			"-0.012": 0.0,
			"-0.011": 0.00492569381101,
			"-0.01": 1.54390867562,
			"-0.009": 6.69392091065,
			"-0.008": 9.74428633842,
			"-0.007": 9.44070599971,
			"-0.006": 14.0300227973,
			"-0.005": 14.152933966,
			"-0.004": 15.5389994907,
			"-0.003": 20.3210812443,
			"-0.002": 22.3666546932,
			"-0.001": 17.4453997173,
			"0.0": 9.52258114294,
			"0.001": 9.05044870646,
			"0.002": 9.22847039269,
			"0.003": 11.9688566312,
			"0.004": 10.8088736466,
			"0.005": 5.17777332091,
			"0.006": 4.38590006924,
			"0.007": 3.04820697487,
			"0.008": 5.06693038337,
			"0.009": 4.2416904405,
			"0.01": 4.58654906602,
			"0.011": 5.55648536359,
			"0.012": 4.87720091922,
			"0.013": 2.78349482132,
			"0.014": 1.89231922361,
			"0.015": 1.40163729175,
			"0.016": 1.00057589762,
			"0.017": 0.708953164693,
			"0.018": 1.01100879548,
			"0.019": 0.254027266814,
			"0.02": 0.0,
			"0.021": 0.0,
			"0.022": 0.0,
			"0.023": 0.0,
			"0.024": 0.0,
			"0.025": 0.0
		}
	}
}
