{
	 "smiles": "COC(=O)C1=CC(=CC=C1Cl)[N+]([O-])=O", 
	 "Tm": 344.15, 
	 "num_atms": 20, 
	 "gaussian": { 
		 "optdone": 1, 
		 "sigma_profile": "yes", 
		 "theory": "DFT", 
		 "functional": "B3LYP", 
		 "basiset": "6-31G**", 
		 "properties": { 
			 "R2extent": 3977.2646, 
			 "electric_dipole_moment_norm": 1.74602354509, 
			 "electric_quadrupole_moment_norm": 23.902665125, 
			 "total_energy": -1124.2056109, 
			 "HOMO_LUMO_gap": 0.17817, 
			 "cosmo_polarized_energy": -11.11, 
			 "cosmo_cavitation_energy": 27.71, 
			 "cosmo_dispersion_energy": -20.32, 
			 "cosmo_repulsion_energy": 1.6, 
			 "cosmo_total_nonelectrostatic_energy": 8.99, 
			 "SMD_solvation_energy": 8.41 
		},
		"coords": [
			{
				"x": -1.0845938983,
				"y": -1.8873976531,
				"z": -3.5690099899,
				"element": "C" 
			},
			{
				"x": -0.6960225507,
				"y": -1.5341954401,
				"z": -2.2299425659,
				"element": "O" 
			},
			{
				"x": -1.7146526972,
				"y": -1.415086314,
				"z": -1.3493962075,
				"element": "C" 
			},
			{
				"x": -2.8732816823,
				"y": -1.6094154954,
				"z": -1.642448147,
				"element": "O" 
			},
			{
				"x": -1.209425684,
				"y": -0.9986841492,
				"z": 0.0015227696,
				"element": "C" 
			},
			{
				"x": 0.0722234767,
				"y": -0.4386924058,
				"z": 0.0981012984,
				"element": "C" 
			},
			{
				"x": 0.5570501739,
				"y": -0.007158207,
				"z": 1.3241919359,
				"element": "C" 
			},
			{
				"x": -0.1942595266,
				"y": -0.1192856731,
				"z": 2.4920621738,
				"element": "C" 
			},
			{
				"x": -1.4608601836,
				"y": -0.6814483171,
				"z": 2.4121741102,
				"element": "C" 
			},
			{
				"x": -1.9727202614,
				"y": -1.1163101443,
				"z": 1.1828021517,
				"element": "C" 
			},
			{
				"x": -3.5619532622,
				"y": -1.8276081013,
				"z": 1.2143318538,
				"element": "Cl" 
			},
			{
				"x": 1.9030054955,
				"y": 0.5833654107,
				"z": 1.3917213373,
				"element": "N" 
			},
			{
				"x": 2.5399399444,
				"y": 0.6731881213,
				"z": 0.3438306449,
				"element": "O" 
			},
			{
				"x": 2.3042976015,
				"y": 0.949778357,
				"z": 2.4954509388,
				"element": "O" 
			},
			{
				"x": -1.7514482577,
				"y": -1.1295048478,
				"z": -3.9870538286,
				"element": "H" 
			},
			{
				"x": -0.1564658771,
				"y": -1.9400688142,
				"z": -4.1370249266,
				"element": "H" 
			},
			{
				"x": -1.5971316866,
				"y": -2.8521104187,
				"z": -3.5752427363,
				"element": "H" 
			},
			{
				"x": 0.68783423,
				"y": -0.3380761662,
				"z": -0.7846668512,
				"element": "H" 
			},
			{
				"x": 0.216241046,
				"y": 0.2264064328,
				"z": 3.4324464829,
				"element": "H" 
			},
			{
				"x": -2.0687764003,
				"y": -0.7910961744,
				"z": 3.3025495556,
				"element": "H" 
			}
		],
		 "valence_orbital": [ 
			{
				"type": "occ",
				"energy": -0.31723,
				"method": "rhf"
			},
			{
				"type": "occ",
				"energy": -0.3012,
				"method": "rhf"
			},
			{
				"type": "occ",
				"energy": -0.29748,
				"method": "rhf"
			},
			{
				"type": "occ",
				"energy": -0.28404,
				"method": "rhf"
			},
			{
				"type": "occ",
				"energy": -0.28006,
				"method": "rhf"
			},
			{
				"type": "unocc",
				"energy": -0.10189,
				"method": "rhf"
			},
			{
				"type": "unocc",
				"energy": -0.07114,
				"method": "rhf"
			},
			{
				"type": "unocc",
				"energy": -0.02367,
				"method": "rhf"
			},
			{
				"type": "unocc",
				"energy": 0.01385,
				"method": "rhf"
			},
			{
				"type": "unocc",
				"energy": 0.03488,
				"method": "rhf"
			}
		],
		"cosmo_sigma_profile": { 
			"-0.025": 0.0,
			"-0.024": 0.0,
			"-0.023": 0.0,
			"-0.022": 0.0,
			"-0.021": 0.0,
			"-0.02": 0.0,
			"-0.019": 0.0,
			"-0.018": 0.0,
			"-0.017": 0.0,
			"-0.016": 0.0,
			"-0.015": 0.0,
			"-0.014": 0.0,
			"-0.013": 0.0,
			"-0.012": 0.0,
			"-0.011": 0.0,
			"-0.01": 0.0576064234365,
			"-0.009": 2.43856746505,
			"-0.008": 4.79395270157,
			"-0.007": 5.84264697445,
			"-0.006": 11.0496322813,
			"-0.005": 13.1996361863,
			"-0.004": 21.4587876258,
			"-0.003": 21.5427922493,
			"-0.002": 25.0916974456,
			"-0.001": 21.0671633871,
			"0.0": 12.1441904318,
			"0.001": 10.3924866051,
			"0.002": 10.9343008526,
			"0.003": 11.3380563845,
			"0.004": 7.21595334418,
			"0.005": 5.05771771827,
			"0.006": 7.79786792307,
			"0.007": 10.6332590686,
			"0.008": 7.23400794405,
			"0.009": 5.97397423594,
			"0.01": 3.85549544994,
			"0.011": 4.71455336555,
			"0.012": 1.08350636861,
			"0.013": 0.0,
			"0.014": 0.0,
			"0.015": 0.0,
			"0.016": 0.0,
			"0.017": 0.0,
			"0.018": 0.0,
			"0.019": 0.0,
			"0.02": 0.0,
			"0.021": 0.0,
			"0.022": 0.0,
			"0.023": 0.0,
			"0.024": 0.0,
			"0.025": 0.0
		}
	}
}
