{
	 "smiles": "CC1=CC=C(C=C1)S(=O)(=O)C1(CCCC1)C(O)=O", 
	 "Tm": 405.15, 
	 "num_atms": 34, 
	 "gaussian": { 
		 "optdone": 1, 
		 "sigma_profile": "yes", 
		 "theory": "DFT", 
		 "functional": "B3LYP", 
		 "basiset": "6-31G**", 
		 "properties": { 
			 "R2extent": 6063.6855, 
			 "electric_dipole_moment_norm": 6.10769440951, 
			 "electric_quadrupole_moment_norm": 19.8230549046, 
			 "total_energy": -1204.06745037, 
			 "HOMO_LUMO_gap": 0.22198, 
			 "cosmo_polarized_energy": -17.97, 
			 "cosmo_cavitation_energy": 36.8, 
			 "cosmo_dispersion_energy": -26.13, 
			 "cosmo_repulsion_energy": 1.98, 
			 "cosmo_total_nonelectrostatic_energy": 12.65, 
			 "SMD_solvation_energy": 6.01 
		},
		"coords": [
			{
				"x": 0.5684279141,
				"y": 5.0056281276,
				"z": -2.6754964084,
				"element": "C" 
			},
			{
				"x": 0.2540512759,
				"y": 3.5391034188,
				"z": -2.5050573531,
				"element": "C" 
			},
			{
				"x": -0.6051002335,
				"y": 3.1033022245,
				"z": -1.4859226011,
				"element": "C" 
			},
			{
				"x": -0.882606429,
				"y": 1.7495013211,
				"z": -1.3076440725,
				"element": "C" 
			},
			{
				"x": -0.2821862155,
				"y": 0.8154681521,
				"z": -2.1545123651,
				"element": "C" 
			},
			{
				"x": 0.5618673607,
				"y": 1.2220213506,
				"z": -3.1890681595,
				"element": "C" 
			},
			{
				"x": 0.8224916834,
				"y": 2.5798567802,
				"z": -3.3562211621,
				"element": "C" 
			},
			{
				"x": -0.6925833877,
				"y": -0.927369246,
				"z": -1.97890346,
				"element": "S" 
			},
			{
				"x": -2.0257691416,
				"y": -0.9826812595,
				"z": -1.3508480329,
				"element": "O" 
			},
			{
				"x": -0.4271336294,
				"y": -1.5878268023,
				"z": -3.2687364786,
				"element": "O" 
			},
			{
				"x": 0.4839057368,
				"y": -1.6908053503,
				"z": -0.737894533,
				"element": "C" 
			},
			{
				"x": -0.109084117,
				"y": -3.0308332548,
				"z": -0.2526722332,
				"element": "C" 
			},
			{
				"x": 0.552444451,
				"y": -3.2689243332,
				"z": 1.1303021286,
				"element": "C" 
			},
			{
				"x": 1.1111341146,
				"y": -1.8913993945,
				"z": 1.5923161734,
				"element": "C" 
			},
			{
				"x": 0.5966458288,
				"y": -0.8638465907,
				"z": 0.5617592273,
				"element": "C" 
			},
			{
				"x": 1.8436721238,
				"y": -1.9142620636,
				"z": -1.3976368472,
				"element": "C" 
			},
			{
				"x": 2.4671754222,
				"y": -0.7507443955,
				"z": -1.7000855244,
				"element": "O" 
			},
			{
				"x": 2.3501042587,
				"y": -2.9930819924,
				"z": -1.6016319709,
				"element": "O" 
			},
			{
				"x": 0.7839699193,
				"y": 5.2503321025,
				"z": -3.719522579,
				"element": "H" 
			},
			{
				"x": 1.4497216561,
				"y": 5.2875426547,
				"z": -2.0858016692,
				"element": "H" 
			},
			{
				"x": -0.2613980998,
				"y": 5.6348232014,
				"z": -2.3411420391,
				"element": "H" 
			},
			{
				"x": -1.0752202073,
				"y": 3.8341037075,
				"z": -0.8332274791,
				"element": "H" 
			},
			{
				"x": -1.579300896,
				"y": 1.4195134994,
				"z": -0.5451998199,
				"element": "H" 
			},
			{
				"x": 0.9853057264,
				"y": 0.4830207561,
				"z": -3.8589237852,
				"element": "H" 
			},
			{
				"x": 1.4710127855,
				"y": 2.9022033282,
				"z": -4.1666163268,
				"element": "H" 
			},
			{
				"x": -1.1896049475,
				"y": -2.9082545704,
				"z": -0.1490876279,
				"element": "H" 
			},
			{
				"x": 0.0850780491,
				"y": -3.8328232382,
				"z": -0.9649765502,
				"element": "H" 
			},
			{
				"x": -0.1765488627,
				"y": -3.6698366766,
				"z": 1.8400859056,
				"element": "H" 
			},
			{
				"x": 1.3590707555,
				"y": -4.0013177468,
				"z": 1.0467933645,
				"element": "H" 
			},
			{
				"x": 0.8009884661,
				"y": -1.6268781631,
				"z": 2.6071702075,
				"element": "H" 
			},
			{
				"x": 2.2063295123,
				"y": -1.9049257909,
				"z": 1.5899721685,
				"element": "H" 
			},
			{
				"x": 1.2370373324,
				"y": 0.0138561425,
				"z": 0.4567698874,
				"element": "H" 
			},
			{
				"x": -0.4097136205,
				"y": -0.528005265,
				"z": 0.8332272004,
				"element": "H" 
			},
			{
				"x": 3.3101154149,
				"y": -0.9974606333,
				"z": -2.1171671848,
				"element": "H" 
			}
		],
		 "valence_orbital": [ 
			{
				"type": "occ",
				"energy": -0.29883,
				"method": "rhf"
			},
			{
				"type": "occ",
				"energy": -0.28967,
				"method": "rhf"
			},
			{
				"type": "occ",
				"energy": -0.27536,
				"method": "rhf"
			},
			{
				"type": "occ",
				"energy": -0.26814,
				"method": "rhf"
			},
			{
				"type": "occ",
				"energy": -0.26245,
				"method": "rhf"
			},
			{
				"type": "unocc",
				"energy": -0.04047,
				"method": "rhf"
			},
			{
				"type": "unocc",
				"energy": -0.01958,
				"method": "rhf"
			},
			{
				"type": "unocc",
				"energy": -0.01696,
				"method": "rhf"
			},
			{
				"type": "unocc",
				"energy": 0.05819,
				"method": "rhf"
			},
			{
				"type": "unocc",
				"energy": 0.06321,
				"method": "rhf"
			}
		],
		"cosmo_sigma_profile": { 
			"-0.025": 0.0,
			"-0.024": 0.0,
			"-0.023": 0.0,
			"-0.022": 0.0,
			"-0.021": 0.0,
			"-0.02": 0.0,
			"-0.019": 0.525118042651,
			"-0.018": 0.831508964902,
			"-0.017": 1.01035971188,
			"-0.016": 0.940466194691,
			"-0.015": 0.807233762995,
			"-0.014": 0.412170359201,
			"-0.013": 0.513830005849,
			"-0.012": 0.971568377398,
			"-0.011": 0.860891576796,
			"-0.01": 0.498799957237,
			"-0.009": 0.483294873828,
			"-0.008": 0.838723014247,
			"-0.007": 3.83126670122,
			"-0.006": 9.53672758536,
			"-0.005": 17.3679218184,
			"-0.004": 24.7844547724,
			"-0.003": 30.3565075394,
			"-0.002": 32.731506625,
			"-0.001": 31.9430146176,
			"0.0": 25.7132604709,
			"0.001": 13.8094891284,
			"0.002": 13.2703716621,
			"0.003": 15.8771724622,
			"0.004": 8.57310837621,
			"0.005": 7.2827672775,
			"0.006": 5.71548835166,
			"0.007": 4.91521407256,
			"0.008": 4.25478627211,
			"0.009": 6.28272414174,
			"0.01": 9.41655585229,
			"0.011": 10.784659683,
			"0.012": 4.2427648963,
			"0.013": 0.0,
			"0.014": 0.0,
			"0.015": 0.0,
			"0.016": 0.0,
			"0.017": 0.0,
			"0.018": 0.0,
			"0.019": 0.0,
			"0.02": 0.0,
			"0.021": 0.0,
			"0.022": 0.0,
			"0.023": 0.0,
			"0.024": 0.0,
			"0.025": 0.0
		}
	}
}
