{
	 "smiles": "CC(C(O)=O)C1=CC2=C(C=C1)C1=CC(Cl)=CC=C1N2", 
	 "Tm": 471.15, 
	 "num_atms": 31, 
	 "gaussian": { 
		 "optdone": 1, 
		 "sigma_profile": "yes", 
		 "theory": "DFT", 
		 "functional": "B3LYP", 
		 "basiset": "6-31G**", 
		 "properties": { 
			 "R2extent": 8248.1466, 
			 "electric_dipole_moment_norm": 4.10312606314, 
			 "electric_quadrupole_moment_norm": 16.7236212619, 
			 "total_energy": -1244.26571895, 
			 "HOMO_LUMO_gap": 0.16866, 
			 "cosmo_polarized_energy": -16.12, 
			 "cosmo_cavitation_energy": 37.18, 
			 "cosmo_dispersion_energy": -26.85, 
			 "cosmo_repulsion_energy": 2.06, 
			 "cosmo_total_nonelectrostatic_energy": 12.39, 
			 "SMD_solvation_energy": 6.48 
		},
		"coords": [
			{
				"x": -2.5903541951,
				"y": -3.0433218273,
				"z": -1.7651613475,
				"element": "C" 
			},
			{
				"x": -1.8183246978,
				"y": -1.8347083921,
				"z": -2.3306059448,
				"element": "C" 
			},
			{
				"x": -2.745255023,
				"y": -0.7016517848,
				"z": -2.7558411817,
				"element": "C" 
			},
			{
				"x": -3.7080893147,
				"y": -0.4333086228,
				"z": -1.8331225314,
				"element": "O" 
			},
			{
				"x": -2.6592237395,
				"y": -0.0808444098,
				"z": -3.7908803227,
				"element": "O" 
			},
			{
				"x": -0.7452373117,
				"y": -1.3271729065,
				"z": -1.3674017994,
				"element": "C" 
			},
			{
				"x": -1.0931021385,
				"y": -0.7564959003,
				"z": -0.1386940511,
				"element": "C" 
			},
			{
				"x": -0.0662915814,
				"y": -0.3438132729,
				"z": 0.7106345693,
				"element": "C" 
			},
			{
				"x": 1.3041757973,
				"y": -0.4858753248,
				"z": 0.3660365909,
				"element": "C" 
			},
			{
				"x": 1.6343092543,
				"y": -1.0558148549,
				"z": -0.8679773557,
				"element": "C" 
			},
			{
				"x": 0.6138591005,
				"y": -1.4669116172,
				"z": -1.7195498954,
				"element": "C" 
			},
			{
				"x": 2.0699899578,
				"y": 0.0456009733,
				"z": 1.4757368533,
				"element": "C" 
			},
			{
				"x": 3.4402099872,
				"y": 0.1821909495,
				"z": 1.7265893636,
				"element": "C" 
			},
			{
				"x": 3.8322266666,
				"y": 0.752902152,
				"z": 2.9319325327,
				"element": "C" 
			},
			{
				"x": 5.5514391467,
				"y": 0.9377898264,
				"z": 3.2765447089,
				"element": "Cl" 
			},
			{
				"x": 2.9025998493,
				"y": 1.1894218908,
				"z": 3.8895400881,
				"element": "C" 
			},
			{
				"x": 1.5365043952,
				"y": 1.0595784511,
				"z": 3.6526121693,
				"element": "C" 
			},
			{
				"x": 1.1302309003,
				"y": 0.4876941745,
				"z": 2.4454170209,
				"element": "C" 
			},
			{
				"x": -0.1462530854,
				"y": 0.2440336242,
				"z": 1.9641298398,
				"element": "N" 
			},
			{
				"x": -3.3281407815,
				"y": -3.4106464233,
				"z": -2.4857827335,
				"element": "H" 
			},
			{
				"x": -3.1158450969,
				"y": -2.7822888585,
				"z": -0.8439406401,
				"element": "H" 
			},
			{
				"x": -1.8917119695,
				"y": -3.8551330189,
				"z": -1.5443785891,
				"element": "H" 
			},
			{
				"x": -1.3182518289,
				"y": -2.132000284,
				"z": -3.2561424242,
				"element": "H" 
			},
			{
				"x": -4.2164866159,
				"y": 0.3133593301,
				"z": -2.1927820799,
				"element": "H" 
			},
			{
				"x": -2.135075302,
				"y": -0.6288185681,
				"z": 0.1366124808,
				"element": "H" 
			},
			{
				"x": 2.6728975057,
				"y": -1.1750713094,
				"z": -1.1629321277,
				"element": "H" 
			},
			{
				"x": 0.8651845393,
				"y": -1.906620486,
				"z": -2.6803196188,
				"element": "H" 
			},
			{
				"x": 4.1822261235,
				"y": -0.1450930125,
				"z": 1.0066461386,
				"element": "H" 
			},
			{
				"x": 3.256926656,
				"y": 1.6286036227,
				"z": 4.8151704069,
				"element": "H" 
			},
			{
				"x": 0.8159679584,
				"y": 1.3965889566,
				"z": 4.3917182407,
				"element": "H" 
			},
			{
				"x": -1.0012051565,
				"y": 0.4611269228,
				"z": 2.449391639,
				"element": "H" 
			}
		],
		 "valence_orbital": [ 
			{
				"type": "occ",
				"energy": -0.28914,
				"method": "rhf"
			},
			{
				"type": "occ",
				"energy": -0.27263,
				"method": "rhf"
			},
			{
				"type": "occ",
				"energy": -0.255,
				"method": "rhf"
			},
			{
				"type": "occ",
				"energy": -0.22041,
				"method": "rhf"
			},
			{
				"type": "occ",
				"energy": -0.20907,
				"method": "rhf"
			},
			{
				"type": "unocc",
				"energy": -0.04041,
				"method": "rhf"
			},
			{
				"type": "unocc",
				"energy": -0.00561,
				"method": "rhf"
			},
			{
				"type": "unocc",
				"energy": 0.00365,
				"method": "rhf"
			},
			{
				"type": "unocc",
				"energy": 0.0217,
				"method": "rhf"
			},
			{
				"type": "unocc",
				"energy": 0.03495,
				"method": "rhf"
			}
		],
		"cosmo_sigma_profile": { 
			"-0.025": 0.0,
			"-0.024": 0.0,
			"-0.023": 0.0,
			"-0.022": 0.0,
			"-0.021": 0.0,
			"-0.02": 0.0,
			"-0.019": 0.0205673339523,
			"-0.018": 0.593350501663,
			"-0.017": 0.982621245329,
			"-0.016": 1.37222253523,
			"-0.015": 2.61892085302,
			"-0.014": 1.78295487545,
			"-0.013": 2.3378515966,
			"-0.012": 2.14264225569,
			"-0.011": 1.77878282479,
			"-0.01": 2.02924159963,
			"-0.009": 1.94550032746,
			"-0.008": 2.1549908946,
			"-0.007": 7.32105506717,
			"-0.006": 12.9847498853,
			"-0.005": 14.1021902864,
			"-0.004": 17.8695961772,
			"-0.003": 17.4633802567,
			"-0.002": 18.4190900932,
			"-0.001": 17.674911561,
			"0.0": 20.887885239,
			"0.001": 17.088484988,
			"0.002": 25.0298898784,
			"0.003": 32.4776069132,
			"0.004": 30.4278030024,
			"0.005": 23.2663816593,
			"0.006": 6.69582563531,
			"0.007": 2.42856802004,
			"0.008": 2.23591968637,
			"0.009": 1.4130817952,
			"0.01": 1.83013308116,
			"0.011": 4.23705401318,
			"0.012": 4.40157841044,
			"0.013": 0.847990354341,
			"0.014": 0.0,
			"0.015": 0.0,
			"0.016": 0.0,
			"0.017": 0.0,
			"0.018": 0.0,
			"0.019": 0.0,
			"0.02": 0.0,
			"0.021": 0.0,
			"0.022": 0.0,
			"0.023": 0.0,
			"0.024": 0.0,
			"0.025": 0.0
		}
	}
}
