{
	 "smiles": "CC(N1CCCCC1=O)C(O)=O", 
	 "Tm": 408.15, 
	 "num_atms": 25, 
	 "gaussian": { 
		 "optdone": 1, 
		 "sigma_profile": "yes", 
		 "theory": "DFT", 
		 "functional": "B3LYP", 
		 "basiset": "6-31G**", 
		 "properties": { 
			 "R2extent": 2267.2149, 
			 "electric_dipole_moment_norm": 6.79476724914, 
			 "electric_quadrupole_moment_norm": 16.3716471172, 
			 "total_energy": -593.145287683, 
			 "HOMO_LUMO_gap": 0.23839, 
			 "cosmo_polarized_energy": -15.39, 
			 "cosmo_cavitation_energy": 26.44, 
			 "cosmo_dispersion_energy": -19.28, 
			 "cosmo_repulsion_energy": 1.55, 
			 "cosmo_total_nonelectrostatic_energy": 8.71, 
			 "SMD_solvation_energy": 5.57 
		},
		"coords": [
			{
				"x": 1.1983808269,
				"y": 1.9040576243,
				"z": -0.9949078862,
				"element": "C" 
			},
			{
				"x": 0.1040573871,
				"y": 1.8748017292,
				"z": 0.0855009447,
				"element": "C" 
			},
			{
				"x": -0.5536965844,
				"y": 0.5493459303,
				"z": 0.192270415,
				"element": "N" 
			},
			{
				"x": -2.0141770481,
				"y": 0.4406297148,
				"z": 0.026292959,
				"element": "C" 
			},
			{
				"x": -2.3833682844,
				"y": -0.6247043909,
				"z": -1.0184857588,
				"element": "C" 
			},
			{
				"x": -1.5652561567,
				"y": -1.9283935376,
				"z": -0.8215773458,
				"element": "C" 
			},
			{
				"x": -0.6770814975,
				"y": -1.863872012,
				"z": 0.4361233673,
				"element": "C" 
			},
			{
				"x": 0.1350030311,
				"y": -0.5835976686,
				"z": 0.4960202402,
				"element": "C" 
			},
			{
				"x": 1.3398793399,
				"y": -0.5889811681,
				"z": 0.8015949768,
				"element": "O" 
			},
			{
				"x": 0.6278651061,
				"y": 2.4346027141,
				"z": 1.4323244261,
				"element": "C" 
			},
			{
				"x": 1.5166431998,
				"y": 1.6883595322,
				"z": 2.0903596771,
				"element": "O" 
			},
			{
				"x": 0.2711811006,
				"y": 3.5231588289,
				"z": 1.8251996113,
				"element": "O" 
			},
			{
				"x": 0.7759052165,
				"y": 1.6244279144,
				"z": -1.9646136144,
				"element": "H" 
			},
			{
				"x": 1.6007495974,
				"y": 2.9182321766,
				"z": -1.0731893732,
				"element": "H" 
			},
			{
				"x": 2.0139552904,
				"y": 1.2198140996,
				"z": -0.7589792266,
				"element": "H" 
			},
			{
				"x": -0.682665816,
				"y": 2.5739133559,
				"z": -0.1980263797,
				"element": "H" 
			},
			{
				"x": -2.4764769275,
				"y": 0.2012518926,
				"z": 0.9929147734,
				"element": "H" 
			},
			{
				"x": -2.3966103461,
				"y": 1.4186635168,
				"z": -0.270037834,
				"element": "H" 
			},
			{
				"x": -2.2036156412,
				"y": -0.2183708305,
				"z": -2.0187757412,
				"element": "H" 
			},
			{
				"x": -3.4589010661,
				"y": -0.8174558523,
				"z": -0.9448271351,
				"element": "H" 
			},
			{
				"x": -2.2253779437,
				"y": -2.7981823974,
				"z": -0.7544713629,
				"element": "H" 
			},
			{
				"x": -0.9224509867,
				"y": -2.0957724194,
				"z": -1.6914264564,
				"element": "H" 
			},
			{
				"x": 0.0271519346,
				"y": -2.6963026101,
				"z": 0.4849545519,
				"element": "H" 
			},
			{
				"x": -1.2992885656,
				"y": -1.9141864049,
				"z": 1.3404251364,
				"element": "H" 
			},
			{
				"x": 1.6407948333,
				"y": 0.816660262,
				"z": 1.626337035,
				"element": "H" 
			}
		],
		 "valence_orbital": [ 
			{
				"type": "occ",
				"energy": -0.34285,
				"method": "rhf"
			},
			{
				"type": "occ",
				"energy": -0.29294,
				"method": "rhf"
			},
			{
				"type": "occ",
				"energy": -0.2824,
				"method": "rhf"
			},
			{
				"type": "occ",
				"energy": -0.27045,
				"method": "rhf"
			},
			{
				"type": "occ",
				"energy": -0.24389,
				"method": "rhf"
			},
			{
				"type": "unocc",
				"energy": -0.0055,
				"method": "rhf"
			},
			{
				"type": "unocc",
				"energy": 0.02196,
				"method": "rhf"
			},
			{
				"type": "unocc",
				"energy": 0.05391,
				"method": "rhf"
			},
			{
				"type": "unocc",
				"energy": 0.08071,
				"method": "rhf"
			},
			{
				"type": "unocc",
				"energy": 0.09767,
				"method": "rhf"
			}
		],
		"cosmo_sigma_profile": { 
			"-0.025": 0.0,
			"-0.024": 0.0,
			"-0.023": 0.0,
			"-0.022": 0.0,
			"-0.021": 0.0,
			"-0.02": 0.0,
			"-0.019": 0.0,
			"-0.018": 0.0,
			"-0.017": 0.0,
			"-0.016": 0.0,
			"-0.015": 0.0,
			"-0.014": 0.0,
			"-0.013": 0.0,
			"-0.012": 0.0,
			"-0.011": 0.0,
			"-0.01": 0.0,
			"-0.009": 0.740011994417,
			"-0.008": 2.38432589491,
			"-0.007": 4.0047457787,
			"-0.006": 8.02977870111,
			"-0.005": 14.1431903319,
			"-0.004": 29.981840343,
			"-0.003": 34.6981308435,
			"-0.002": 23.5943654606,
			"-0.001": 19.0330470246,
			"0.0": 12.662262381,
			"0.001": 4.14611466752,
			"0.002": 2.88302626784,
			"0.003": 3.74031772326,
			"0.004": 3.99044015493,
			"0.005": 2.7661389669,
			"0.006": 3.07993186314,
			"0.007": 3.33173405723,
			"0.008": 3.54374583244,
			"0.009": 3.7741240701,
			"0.01": 4.55094444542,
			"0.011": 6.58316108326,
			"0.012": 8.16094118294,
			"0.013": 5.42343385289,
			"0.014": 1.35369364232,
			"0.015": 0.0,
			"0.016": 0.0,
			"0.017": 0.0,
			"0.018": 0.0,
			"0.019": 0.0,
			"0.02": 0.0,
			"0.021": 0.0,
			"0.022": 0.0,
			"0.023": 0.0,
			"0.024": 0.0,
			"0.025": 0.0
		}
	}
}
