{
	 "smiles": "[O-][N+](=O)C1=CC=C(OC2=CC=C(C=C2Cl)C(F)(F)F)C=C1", 
	 "Tm": 341.15, 
	 "num_atms": 28, 
	 "gaussian": { 
		 "optdone": 1, 
		 "sigma_profile": "yes", 
		 "theory": "DFT", 
		 "functional": "B3LYP", 
		 "basiset": "6-31G**", 
		 "properties": { 
			 "R2extent": 9980.4775, 
			 "electric_dipole_moment_norm": 2.92307058416, 
			 "electric_quadrupole_moment_norm": 29.6262583576, 
			 "total_energy": -1539.63312618, 
			 "HOMO_LUMO_gap": 0.16674, 
			 "cosmo_polarized_energy": -11.45, 
			 "cosmo_cavitation_energy": 37.84, 
			 "cosmo_dispersion_energy": -26.43, 
			 "cosmo_repulsion_energy": 1.96, 
			 "cosmo_total_nonelectrostatic_energy": 13.37, 
			 "SMD_solvation_energy": 9.83 
		},
		"coords": [
			{
				"x": -5.1144919954,
				"y": -2.3776565642,
				"z": -1.1051682241,
				"element": "O" 
			},
			{
				"x": -4.3172279332,
				"y": -2.6006714321,
				"z": -2.0167876553,
				"element": "N" 
			},
			{
				"x": -4.5850667717,
				"y": -3.2189854061,
				"z": -3.0473014952,
				"element": "O" 
			},
			{
				"x": -2.9503111993,
				"y": -2.0924899767,
				"z": -1.8647791532,
				"element": "C" 
			},
			{
				"x": -2.6103747059,
				"y": -1.3963793516,
				"z": -0.7059704752,
				"element": "C" 
			},
			{
				"x": -1.3157689591,
				"y": -0.9099145567,
				"z": -0.5583969339,
				"element": "C" 
			},
			{
				"x": -0.3823460654,
				"y": -1.125387257,
				"z": -1.5801622335,
				"element": "C" 
			},
			{
				"x": 0.9301704459,
				"y": -0.7264035874,
				"z": -1.5000926723,
				"element": "O" 
			},
			{
				"x": 1.3103579374,
				"y": 0.334622347,
				"z": -0.7148045237,
				"element": "C" 
			},
			{
				"x": 0.6935000368,
				"y": 1.5857531167,
				"z": -0.8153903884,
				"element": "C" 
			},
			{
				"x": 1.1607406209,
				"y": 2.6585861839,
				"z": -0.0643354575,
				"element": "C" 
			},
			{
				"x": 2.2573287267,
				"y": 2.4890083621,
				"z": 0.7857388276,
				"element": "C" 
			},
			{
				"x": 2.8849171216,
				"y": 1.247460787,
				"z": 0.8849078464,
				"element": "C" 
			},
			{
				"x": 2.4101609942,
				"y": 0.1700660683,
				"z": 0.1392180511,
				"element": "C" 
			},
			{
				"x": 3.1876980543,
				"y": -1.3856830894,
				"z": 0.2726201142,
				"element": "Cl" 
			},
			{
				"x": 2.7992301457,
				"y": 3.6669755473,
				"z": 1.5520675067,
				"element": "C" 
			},
			{
				"x": 1.8094250829,
				"y": 4.4977200335,
				"z": 1.9454975748,
				"element": "F" 
			},
			{
				"x": 3.475442685,
				"y": 3.2810899793,
				"z": 2.6545177201,
				"element": "F" 
			},
			{
				"x": 3.6504871799,
				"y": 4.3986368264,
				"z": 0.7988015023,
				"element": "F" 
			},
			{
				"x": -0.7312538006,
				"y": -1.8321121677,
				"z": -2.7378452207,
				"element": "C" 
			},
			{
				"x": -2.022557504,
				"y": -2.3205944149,
				"z": -2.8822313486,
				"element": "C" 
			},
			{
				"x": -3.3573217395,
				"y": -1.252004422,
				"z": 0.0645218627,
				"element": "H" 
			},
			{
				"x": -1.0321969168,
				"y": -0.3777375279,
				"z": 0.3419074982,
				"element": "H" 
			},
			{
				"x": -0.1489356562,
				"y": 1.7060708006,
				"z": -1.4878693195,
				"element": "H" 
			},
			{
				"x": 0.6761649402,
				"y": 3.6256277418,
				"z": -0.1388642571,
				"element": "H" 
			},
			{
				"x": 3.7310145822,
				"y": 1.1087940606,
				"z": 1.5469310144,
				"element": "H" 
			},
			{
				"x": 0.0196881571,
				"y": -1.9871884734,
				"z": -3.50436538,
				"element": "H" 
			},
			{
				"x": -2.3256734637,
				"y": -2.8685036271,
				"z": -3.7654647799,
				"element": "H" 
			}
		],
		 "valence_orbital": [ 
			{
				"type": "occ",
				"energy": -0.29537,
				"method": "rhf"
			},
			{
				"type": "occ",
				"energy": -0.2932,
				"method": "rhf"
			},
			{
				"type": "occ",
				"energy": -0.28919,
				"method": "rhf"
			},
			{
				"type": "occ",
				"energy": -0.27724,
				"method": "rhf"
			},
			{
				"type": "occ",
				"energy": -0.25849,
				"method": "rhf"
			},
			{
				"type": "unocc",
				"energy": -0.09175,
				"method": "rhf"
			},
			{
				"type": "unocc",
				"energy": -0.0508,
				"method": "rhf"
			},
			{
				"type": "unocc",
				"energy": -0.04731,
				"method": "rhf"
			},
			{
				"type": "unocc",
				"energy": -0.03567,
				"method": "rhf"
			},
			{
				"type": "unocc",
				"energy": -0.00155,
				"method": "rhf"
			}
		],
		"cosmo_sigma_profile": { 
			"-0.025": 0.0,
			"-0.024": 0.0,
			"-0.023": 0.0,
			"-0.022": 0.0,
			"-0.021": 0.0,
			"-0.02": 0.0,
			"-0.019": 0.0,
			"-0.018": 0.0,
			"-0.017": 0.0,
			"-0.016": 0.0,
			"-0.015": 0.0,
			"-0.014": 0.0,
			"-0.013": 0.0,
			"-0.012": 0.0,
			"-0.011": 0.0,
			"-0.01": 0.0,
			"-0.009": 1.28668397466,
			"-0.008": 10.1214619938,
			"-0.007": 12.8623837043,
			"-0.006": 13.4223847395,
			"-0.005": 13.5999871315,
			"-0.004": 12.0673749031,
			"-0.003": 16.647282178,
			"-0.002": 19.5167554109,
			"-0.001": 28.4706596616,
			"0.0": 37.0914784928,
			"0.001": 33.2909512015,
			"0.002": 31.4125764495,
			"0.003": 30.8364543497,
			"0.004": 11.8926311192,
			"0.005": 5.08650237586,
			"0.006": 5.62351729189,
			"0.007": 7.97681483932,
			"0.008": 8.45916686438,
			"0.009": 4.74938499159,
			"0.01": 3.00972302951,
			"0.011": 0.359992023548,
			"0.012": 0.0,
			"0.013": 0.0,
			"0.014": 0.0,
			"0.015": 0.0,
			"0.016": 0.0,
			"0.017": 0.0,
			"0.018": 0.0,
			"0.019": 0.0,
			"0.02": 0.0,
			"0.021": 0.0,
			"0.022": 0.0,
			"0.023": 0.0,
			"0.024": 0.0,
			"0.025": 0.0
		}
	}
}
