{
	 "smiles": "FC(F)(F)CN1C=CN=C1C=O", 
	 "Tm": 324.15, 
	 "num_atms": 17, 
	 "gaussian": { 
		 "optdone": 1, 
		 "sigma_profile": "yes", 
		 "theory": "DFT", 
		 "functional": "B3LYP", 
		 "basiset": "6-31G**", 
		 "properties": { 
			 "R2extent": 3121.456, 
			 "electric_dipole_moment_norm": 1.8714194105, 
			 "electric_quadrupole_moment_norm": 5.41118722925, 
			 "total_energy": -715.884430403, 
			 "HOMO_LUMO_gap": 0.18362, 
			 "cosmo_polarized_energy": -9.3, 
			 "cosmo_cavitation_energy": 23.03, 
			 "cosmo_dispersion_energy": -16.36, 
			 "cosmo_repulsion_energy": 1.23, 
			 "cosmo_total_nonelectrostatic_energy": 7.89, 
			 "SMD_solvation_energy": 4.45 
		},
		"coords": [
			{
				"x": 3.1306447932,
				"y": 1.5835268574,
				"z": 0.6227690878,
				"element": "F" 
			},
			{
				"x": 2.5021426183,
				"y": 0.4793637726,
				"z": 1.0637059314,
				"element": "C" 
			},
			{
				"x": 3.1853962142,
				"y": 0.0079563848,
				"z": 2.1279153589,
				"element": "F" 
			},
			{
				"x": 2.571557664,
				"y": -0.4554012029,
				"z": 0.0926138585,
				"element": "F" 
			},
			{
				"x": 1.0698703017,
				"y": 0.839738822,
				"z": 1.4136598846,
				"element": "C" 
			},
			{
				"x": 0.2804854211,
				"y": -0.2866992448,
				"z": 1.9083779893,
				"element": "N" 
			},
			{
				"x": 0.6584045081,
				"y": -1.5914241283,
				"z": 2.0912044615,
				"element": "C" 
			},
			{
				"x": -0.4571472894,
				"y": -2.2489627741,
				"z": 2.5777839961,
				"element": "C" 
			},
			{
				"x": -1.503935383,
				"y": -1.3922669241,
				"z": 2.6989935451,
				"element": "N" 
			},
			{
				"x": -1.0476374852,
				"y": -0.2118511892,
				"z": 2.2924909099,
				"element": "C" 
			},
			{
				"x": -1.8573745273,
				"y": 0.998428839,
				"z": 2.2615389865,
				"element": "C" 
			},
			{
				"x": -1.4600551853,
				"y": 2.0950389854,
				"z": 1.8920945923,
				"element": "O" 
			},
			{
				"x": 0.5998689154,
				"y": 1.2576694219,
				"z": 0.5215619913,
				"element": "H" 
			},
			{
				"x": 1.0954124326,
				"y": 1.6317711811,
				"z": 2.1642828977,
				"element": "H" 
			},
			{
				"x": 1.6521927853,
				"y": -1.9428965984,
				"z": 1.8710446034,
				"element": "H" 
			},
			{
				"x": -0.5386904476,
				"y": -3.2946498334,
				"z": 2.8404112308,
				"element": "H" 
			},
			{
				"x": -2.8926353362,
				"y": 0.828557631,
				"z": 2.613250675,
				"element": "H" 
			}
		],
		 "valence_orbital": [ 
			{
				"type": "occ",
				"energy": -0.39145,
				"method": "rhf"
			},
			{
				"type": "occ",
				"energy": -0.30082,
				"method": "rhf"
			},
			{
				"type": "occ",
				"energy": -0.294,
				"method": "rhf"
			},
			{
				"type": "occ",
				"energy": -0.26916,
				"method": "rhf"
			},
			{
				"type": "occ",
				"energy": -0.25225,
				"method": "rhf"
			},
			{
				"type": "unocc",
				"energy": -0.06863,
				"method": "rhf"
			},
			{
				"type": "unocc",
				"energy": 0.03264,
				"method": "rhf"
			},
			{
				"type": "unocc",
				"energy": 0.06932,
				"method": "rhf"
			},
			{
				"type": "unocc",
				"energy": 0.08131,
				"method": "rhf"
			},
			{
				"type": "unocc",
				"energy": 0.09999,
				"method": "rhf"
			}
		],
		"cosmo_sigma_profile": { 
			"-0.025": 0.0,
			"-0.024": 0.0,
			"-0.023": 0.0,
			"-0.022": 0.0,
			"-0.021": 0.0,
			"-0.02": 0.0,
			"-0.019": 0.0,
			"-0.018": 0.0,
			"-0.017": 0.0,
			"-0.016": 0.0,
			"-0.015": 0.0,
			"-0.014": 0.0,
			"-0.013": 0.0,
			"-0.012": 0.0,
			"-0.011": 0.0445022518407,
			"-0.01": 2.81713504426,
			"-0.009": 4.79869918331,
			"-0.008": 5.28970178932,
			"-0.007": 8.54535973036,
			"-0.006": 8.61060565015,
			"-0.005": 9.81558706979,
			"-0.004": 9.91341595949,
			"-0.003": 10.4462958108,
			"-0.002": 11.8394292313,
			"-0.001": 11.2349534381,
			"0.0": 12.7941320214,
			"0.001": 17.93059258,
			"0.002": 30.3840886105,
			"0.003": 9.07254498239,
			"0.004": 3.98296838167,
			"0.005": 3.5069694538,
			"0.006": 2.11832246492,
			"0.007": 2.7264300649,
			"0.008": 3.32267565547,
			"0.009": 2.57320884027,
			"0.01": 3.10293867888,
			"0.011": 3.9010805987,
			"0.012": 2.94380434296,
			"0.013": 1.1473577915,
			"0.014": 0.754585050812,
			"0.015": 0.893510988175,
			"0.016": 0.59591672393,
			"0.017": 0.0,
			"0.018": 0.0,
			"0.019": 0.0,
			"0.02": 0.0,
			"0.021": 0.0,
			"0.022": 0.0,
			"0.023": 0.0,
			"0.024": 0.0,
			"0.025": 0.0
		}
	}
}
