{
	 "smiles": "ClC1=CC=C(C=C1)C1=C(C(=NO1)C(=O)C1=CC=C(Br)C=C1)S(=O)(=O)C1=CC=CC=C1", 
	 "Tm": 418.15, 
	 "num_atms": 43, 
	 "gaussian": { 
		 "optdone": 1, 
		 "sigma_profile": "yes", 
		 "theory": "DFT", 
		 "functional": "B3LYP", 
		 "basiset": "6-31G**", 
		 "properties": { 
			 "R2extent": 23298.1097, 
			 "electric_dipole_moment_norm": 4.4938021207, 
			 "electric_quadrupole_moment_norm": 18.2749155213, 
			 "total_energy": -4631.4746749, 
			 "HOMO_LUMO_gap": 0.1575, 
			 "cosmo_polarized_energy": -18.55, 
			 "cosmo_cavitation_energy": 54.37, 
			 "cosmo_dispersion_energy": -37.78, 
			 "cosmo_repulsion_energy": 2.81, 
			 "cosmo_total_nonelectrostatic_energy": 19.4, 
			 "SMD_solvation_energy": 7.17 
		},
		"coords": [
			{
				"x": 4.3240494159,
				"y": 4.8769901554,
				"z": -2.7830826681,
				"element": "Cl" 
			},
			{
				"x": 3.430087574,
				"y": 3.6627187835,
				"z": -1.8895119953,
				"element": "C" 
			},
			{
				"x": 2.5088721489,
				"y": 4.0655615879,
				"z": -0.9216928975,
				"element": "C" 
			},
			{
				"x": 1.8036932357,
				"y": 3.0973838772,
				"z": -0.2150039341,
				"element": "C" 
			},
			{
				"x": 2.0033444591,
				"y": 1.7302089796,
				"z": -0.4759355257,
				"element": "C" 
			},
			{
				"x": 2.9433043663,
				"y": 1.3483112468,
				"z": -1.4464690288,
				"element": "C" 
			},
			{
				"x": 3.6556610156,
				"y": 2.3115144917,
				"z": -2.1538835618,
				"element": "C" 
			},
			{
				"x": 1.2719646811,
				"y": 0.7432619739,
				"z": 0.3217478464,
				"element": "C" 
			},
			{
				"x": 0.753232884,
				"y": -0.523386665,
				"z": 0.1426639786,
				"element": "C" 
			},
			{
				"x": 0.2054588101,
				"y": -0.8617012609,
				"z": 1.4269483047,
				"element": "C" 
			},
			{
				"x": 0.3581531585,
				"y": 0.1242392927,
				"z": 2.2843282399,
				"element": "N" 
			},
			{
				"x": 1.0300895348,
				"y": 1.1224392173,
				"z": 1.6022188418,
				"element": "O" 
			},
			{
				"x": -0.3604197401,
				"y": -2.1777204662,
				"z": 1.8838824918,
				"element": "C" 
			},
			{
				"x": 0.0522200686,
				"y": -3.188151861,
				"z": 1.3310295337,
				"element": "O" 
			},
			{
				"x": -1.3640211428,
				"y": -2.2471195096,
				"z": 2.9828374191,
				"element": "C" 
			},
			{
				"x": -1.6583367839,
				"y": -3.5256208437,
				"z": 3.4894216667,
				"element": "C" 
			},
			{
				"x": -2.6023237724,
				"y": -3.6956794789,
				"z": 4.4936711508,
				"element": "C" 
			},
			{
				"x": -3.2703219779,
				"y": -2.5738088448,
				"z": 4.9913412189,
				"element": "C" 
			},
			{
				"x": -4.5720089016,
				"y": -2.7958144586,
				"z": 6.3655493176,
				"element": "Br" 
			},
			{
				"x": -3.0041045416,
				"y": -1.2963094566,
				"z": 4.5006317471,
				"element": "C" 
			},
			{
				"x": -2.0501462341,
				"y": -1.135362017,
				"z": 3.4978622388,
				"element": "C" 
			},
			{
				"x": 0.7411066087,
				"y": -1.441276504,
				"z": -1.4052305505,
				"element": "S" 
			},
			{
				"x": 1.7468819627,
				"y": -2.5065620408,
				"z": -1.3409314882,
				"element": "O" 
			},
			{
				"x": 0.8143368878,
				"y": -0.4206588894,
				"z": -2.4631784784,
				"element": "O" 
			},
			{
				"x": -0.8939259927,
				"y": -2.1764760942,
				"z": -1.5041195881,
				"element": "C" 
			},
			{
				"x": -1.0258646514,
				"y": -3.559847268,
				"z": -1.3829455466,
				"element": "C" 
			},
			{
				"x": -2.2896366438,
				"y": -4.1285588765,
				"z": -1.5475437318,
				"element": "C" 
			},
			{
				"x": -3.3936858223,
				"y": -3.3191812561,
				"z": -1.8229579594,
				"element": "C" 
			},
			{
				"x": -3.2432174034,
				"y": -1.9349653515,
				"z": -1.9488645186,
				"element": "C" 
			},
			{
				"x": -1.9848794797,
				"y": -1.35405996,
				"z": -1.7994718766,
				"element": "C" 
			},
			{
				"x": 2.3477659924,
				"y": 5.1197320749,
				"z": -0.727299197,
				"element": "H" 
			},
			{
				"x": 1.0878845995,
				"y": 3.4017530935,
				"z": 0.5407040949,
				"element": "H" 
			},
			{
				"x": 3.1290100772,
				"y": 0.3011364369,
				"z": -1.6474719006,
				"element": "H" 
			},
			{
				"x": 4.3827180211,
				"y": 2.0168058681,
				"z": -2.9017130816,
				"element": "H" 
			},
			{
				"x": -1.1292682657,
				"y": -4.3787337158,
				"z": 3.0790217582,
				"element": "H" 
			},
			{
				"x": -2.8220992729,
				"y": -4.6809086908,
				"z": 4.8883300633,
				"element": "H" 
			},
			{
				"x": -3.5349921111,
				"y": -0.438726452,
				"z": 4.8971269423,
				"element": "H" 
			},
			{
				"x": -1.8375985488,
				"y": -0.1415429049,
				"z": 3.1255959117,
				"element": "H" 
			},
			{
				"x": -0.1535806679,
				"y": -4.1623191099,
				"z": -1.1610690483,
				"element": "H" 
			},
			{
				"x": -2.4100853032,
				"y": -5.2038190608,
				"z": -1.4589120735,
				"element": "H" 
			},
			{
				"x": -4.3749350748,
				"y": -3.7679804897,
				"z": -1.9468961003,
				"element": "H" 
			},
			{
				"x": -4.1019541749,
				"y": -1.310742248,
				"z": -2.1760839751,
				"element": "H" 
			},
			{
				"x": -1.8445289948,
				"y": -0.2860233048,
				"z": -1.9284440406,
				"element": "H" 
			}
		],
		 "valence_orbital": [ 
			{
				"type": "occ",
				"energy": -0.27757,
				"method": "rhf"
			},
			{
				"type": "occ",
				"energy": -0.27309,
				"method": "rhf"
			},
			{
				"type": "occ",
				"energy": -0.27245,
				"method": "rhf"
			},
			{
				"type": "occ",
				"energy": -0.25983,
				"method": "rhf"
			},
			{
				"type": "occ",
				"energy": -0.25034,
				"method": "rhf"
			},
			{
				"type": "unocc",
				"energy": -0.09284,
				"method": "rhf"
			},
			{
				"type": "unocc",
				"energy": -0.07022,
				"method": "rhf"
			},
			{
				"type": "unocc",
				"energy": -0.04377,
				"method": "rhf"
			},
			{
				"type": "unocc",
				"energy": -0.03025,
				"method": "rhf"
			},
			{
				"type": "unocc",
				"energy": -0.02569,
				"method": "rhf"
			}
		],
		"cosmo_sigma_profile": { 
			"-0.025": 0.0,
			"-0.024": 0.0,
			"-0.023": 0.0,
			"-0.022": 0.0,
			"-0.021": 0.0,
			"-0.02": 0.0,
			"-0.019": 0.0,
			"-0.018": 0.0,
			"-0.017": 0.0,
			"-0.016": 0.0,
			"-0.015": 0.0,
			"-0.014": 0.0,
			"-0.013": 0.0,
			"-0.012": 0.0,
			"-0.011": 0.0,
			"-0.01": 0.0,
			"-0.009": 0.111860610972,
			"-0.008": 7.33893743463,
			"-0.007": 21.226416877,
			"-0.006": 28.0039508099,
			"-0.005": 29.2478345656,
			"-0.004": 28.9506530242,
			"-0.003": 25.6882276044,
			"-0.002": 25.0782978329,
			"-0.001": 29.5558202854,
			"0.0": 38.1466677809,
			"0.001": 51.8411200999,
			"0.002": 44.9023682355,
			"0.003": 32.3893116809,
			"0.004": 28.1173360132,
			"0.005": 9.86183066286,
			"0.006": 6.32198875249,
			"0.007": 5.21563397412,
			"0.008": 6.99166464537,
			"0.009": 7.22152356083,
			"0.01": 9.73697177218,
			"0.011": 7.97519501287,
			"0.012": 1.25936021497,
			"0.013": 0.0,
			"0.014": 0.0,
			"0.015": 0.0,
			"0.016": 0.0,
			"0.017": 0.0,
			"0.018": 0.0,
			"0.019": 0.0,
			"0.02": 0.0,
			"0.021": 0.0,
			"0.022": 0.0,
			"0.023": 0.0,
			"0.024": 0.0,
			"0.025": 0.0
		}
	}
}
