{
	 "smiles": "CCOC(=O)C1=CC(C#N)=C(SC)S1", 
	 "Tm": 372.15, 
	 "num_atms": 23, 
	 "gaussian": { 
		 "optdone": 1, 
		 "sigma_profile": "yes", 
		 "theory": "DFT", 
		 "functional": "B3LYP", 
		 "basiset": "6-31G**", 
		 "properties": { 
			 "R2extent": 5755.2076, 
			 "electric_dipole_moment_norm": 3.44519839922, 
			 "electric_quadrupole_moment_norm": 40.7031063263, 
			 "total_energy": -1349.94071054, 
			 "HOMO_LUMO_gap": 0.16184, 
			 "cosmo_polarized_energy": -13.28, 
			 "cosmo_cavitation_energy": 32.21, 
			 "cosmo_dispersion_energy": -23.47, 
			 "cosmo_repulsion_energy": 1.8, 
			 "cosmo_total_nonelectrostatic_energy": 10.54, 
			 "SMD_solvation_energy": 7.92 
		},
		"coords": [
			{
				"x": 1.7330286201,
				"y": -1.581627036,
				"z": 2.9501191161,
				"element": "C" 
			},
			{
				"x": 2.1860449435,
				"y": -1.0161903859,
				"z": 1.6181920557,
				"element": "C" 
			},
			{
				"x": 0.9966596927,
				"y": -0.6657391376,
				"z": 0.8689507759,
				"element": "O" 
			},
			{
				"x": 1.2103108609,
				"y": -0.1420692383,
				"z": -0.3547161632,
				"element": "C" 
			},
			{
				"x": 2.3103609184,
				"y": 0.0442806034,
				"z": -0.8434162463,
				"element": "O" 
			},
			{
				"x": -0.0500153528,
				"y": 0.1805744452,
				"z": -1.0361516105,
				"element": "C" 
			},
			{
				"x": -1.3451601422,
				"y": 0.028847717,
				"z": -0.618976966,
				"element": "C" 
			},
			{
				"x": -2.2964158605,
				"y": 0.4681703765,
				"z": -1.5863934583,
				"element": "C" 
			},
			{
				"x": -3.7068558214,
				"y": 0.4169236299,
				"z": -1.3957103242,
				"element": "C" 
			},
			{
				"x": -4.8601684418,
				"y": 0.3758783096,
				"z": -1.2417211723,
				"element": "N" 
			},
			{
				"x": -1.6959943819,
				"y": 0.9574524476,
				"z": -2.7488372645,
				"element": "C" 
			},
			{
				"x": -2.5773036303,
				"y": 1.5742984038,
				"z": -4.1305547148,
				"element": "S" 
			},
			{
				"x": -1.2298030858,
				"y": 2.0368765016,
				"z": -5.270681385,
				"element": "C" 
			},
			{
				"x": 0.0358363445,
				"y": 0.8726764623,
				"z": -2.6415939798,
				"element": "S" 
			},
			{
				"x": 1.1155673936,
				"y": -2.4730782938,
				"z": 2.8078373046,
				"element": "H" 
			},
			{
				"x": 2.6058888891,
				"y": -1.8598314488,
				"z": 3.5486751191,
				"element": "H" 
			},
			{
				"x": 1.1520342192,
				"y": -0.8444982371,
				"z": 3.5116122568,
				"element": "H" 
			},
			{
				"x": 2.8019584417,
				"y": -0.1194809967,
				"z": 1.7375308075,
				"element": "H" 
			},
			{
				"x": 2.7656629791,
				"y": -1.7401455036,
				"z": 1.0371544431,
				"element": "H" 
			},
			{
				"x": -1.6149396906,
				"y": -0.3821532823,
				"z": 0.3453501005,
				"element": "H" 
			},
			{
				"x": -0.5955698921,
				"y": 2.8140311256,
				"z": -4.8387499306,
				"element": "H" 
			},
			{
				"x": -0.6323873105,
				"y": 1.1665508805,
				"z": -5.5506935702,
				"element": "H" 
			},
			{
				"x": -1.7250396927,
				"y": 2.4320526568,
				"z": -6.1595251935,
				"element": "H" 
			}
		],
		 "valence_orbital": [ 
			{
				"type": "occ",
				"energy": -0.31028,
				"method": "rhf"
			},
			{
				"type": "occ",
				"energy": -0.30969,
				"method": "rhf"
			},
			{
				"type": "occ",
				"energy": -0.28697,
				"method": "rhf"
			},
			{
				"type": "occ",
				"energy": -0.27645,
				"method": "rhf"
			},
			{
				"type": "occ",
				"energy": -0.23108,
				"method": "rhf"
			},
			{
				"type": "unocc",
				"energy": -0.06924,
				"method": "rhf"
			},
			{
				"type": "unocc",
				"energy": -0.0283,
				"method": "rhf"
			},
			{
				"type": "unocc",
				"energy": -0.01565,
				"method": "rhf"
			},
			{
				"type": "unocc",
				"energy": 0.00914,
				"method": "rhf"
			},
			{
				"type": "unocc",
				"energy": 0.04155,
				"method": "rhf"
			}
		],
		"cosmo_sigma_profile": { 
			"-0.025": 0.0,
			"-0.024": 0.0,
			"-0.023": 0.0,
			"-0.022": 0.0,
			"-0.021": 0.0,
			"-0.02": 0.0,
			"-0.019": 0.0,
			"-0.018": 0.0,
			"-0.017": 0.0,
			"-0.016": 0.0,
			"-0.015": 0.0,
			"-0.014": 0.0,
			"-0.013": 0.0,
			"-0.012": 0.0,
			"-0.011": 0.0,
			"-0.01": 0.31691425498,
			"-0.009": 2.36373927545,
			"-0.008": 4.65878326003,
			"-0.007": 7.93426495955,
			"-0.006": 10.5885814245,
			"-0.005": 15.6844437165,
			"-0.004": 23.0920962954,
			"-0.003": 23.0558982465,
			"-0.002": 22.3243114919,
			"-0.001": 28.4554655891,
			"0.0": 27.4805284751,
			"0.001": 19.2656504072,
			"0.002": 13.3407499137,
			"0.003": 9.35096504663,
			"0.004": 7.86186264609,
			"0.005": 9.37581600059,
			"0.006": 4.56319706578,
			"0.007": 4.58761577935,
			"0.008": 4.44890672133,
			"0.009": 5.32974356192,
			"0.01": 4.71578033411,
			"0.011": 6.88334821855,
			"0.012": 5.07812413739,
			"0.013": 0.948416449481,
			"0.014": 0.0,
			"0.015": 0.0,
			"0.016": 0.0,
			"0.017": 0.0,
			"0.018": 0.0,
			"0.019": 0.0,
			"0.02": 0.0,
			"0.021": 0.0,
			"0.022": 0.0,
			"0.023": 0.0,
			"0.024": 0.0,
			"0.025": 0.0
		}
	}
}
