{
	 "smiles": "OC(=O)C1=CC=C(COCC(F)(F)F)C=C1", 
	 "Tm": 423.15, 
	 "num_atms": 25, 
	 "gaussian": { 
		 "optdone": 1, 
		 "sigma_profile": "yes", 
		 "theory": "DFT", 
		 "functional": "B3LYP", 
		 "basiset": "6-31G**", 
		 "properties": { 
			 "R2extent": 6798.0568, 
			 "electric_dipole_moment_norm": 6.17600620223, 
			 "electric_quadrupole_moment_norm": 27.3278120917, 
			 "total_energy": -911.679881138, 
			 "HOMO_LUMO_gap": 0.20743, 
			 "cosmo_polarized_energy": -17.52, 
			 "cosmo_cavitation_energy": 31.43, 
			 "cosmo_dispersion_energy": -22.05, 
			 "cosmo_repulsion_energy": 1.66, 
			 "cosmo_total_nonelectrostatic_energy": 11.04, 
			 "SMD_solvation_energy": 7.58 
		},
		"coords": [
			{
				"x": -4.4116247019,
				"y": -2.3399460114,
				"z": 3.4909603689,
				"element": "O" 
			},
			{
				"x": -4.3613600702,
				"y": -1.6452483787,
				"z": 2.3211230518,
				"element": "C" 
			},
			{
				"x": -5.3711485065,
				"y": -1.1673960396,
				"z": 1.8604453845,
				"element": "O" 
			},
			{
				"x": -3.0178129737,
				"y": -1.5212147236,
				"z": 1.6685345315,
				"element": "C" 
			},
			{
				"x": -1.8111606972,
				"y": -1.6719740113,
				"z": 2.3651871997,
				"element": "C" 
			},
			{
				"x": -0.5933463973,
				"y": -1.5229856521,
				"z": 1.7035623128,
				"element": "C" 
			},
			{
				"x": -0.5590734176,
				"y": -1.2344974818,
				"z": 0.3357712429,
				"element": "C" 
			},
			{
				"x": 0.7595716197,
				"y": -1.1410422864,
				"z": -0.3942882805,
				"element": "C" 
			},
			{
				"x": 0.667126847,
				"y": -0.1277557237,
				"z": -1.397226506,
				"element": "O" 
			},
			{
				"x": 1.5613534804,
				"y": -0.249331777,
				"z": -2.4732182452,
				"element": "C" 
			},
			{
				"x": 0.9994741933,
				"y": -1.1279031997,
				"z": -3.5853725293,
				"element": "C" 
			},
			{
				"x": 1.8295963939,
				"y": -1.111121605,
				"z": -4.6490954171,
				"element": "F" 
			},
			{
				"x": -0.2105814755,
				"y": -0.700560425,
				"z": -3.9888565088,
				"element": "F" 
			},
			{
				"x": 0.8613733522,
				"y": -2.4174619078,
				"z": -3.194105439,
				"element": "F" 
			},
			{
				"x": -1.7659766202,
				"y": -1.0694565251,
				"z": -0.3582732798,
				"element": "C" 
			},
			{
				"x": -2.981155351,
				"y": -1.2004660295,
				"z": 0.3039995419,
				"element": "C" 
			},
			{
				"x": -3.5735733657,
				"y": -2.7983010565,
				"z": 3.6418145544,
				"element": "H" 
			},
			{
				"x": -1.804951434,
				"y": -1.8557202286,
				"z": 3.4370779802,
				"element": "H" 
			},
			{
				"x": 0.33539426,
				"y": -1.6207468452,
				"z": 2.2597627955,
				"element": "H" 
			},
			{
				"x": 0.9920332065,
				"y": -2.1108232861,
				"z": -0.8527279407,
				"element": "H" 
			},
			{
				"x": 1.5723543494,
				"y": -0.9009440263,
				"z": 0.3074439566,
				"element": "H" 
			},
			{
				"x": 1.7108965721,
				"y": 0.7494245858,
				"z": -2.893490235,
				"element": "H" 
			},
			{
				"x": 2.5404731574,
				"y": -0.6512040954,
				"z": -2.1799662575,
				"element": "H" 
			},
			{
				"x": -1.7363114902,
				"y": -0.8251556313,
				"z": -1.4146466031,
				"element": "H" 
			},
			{
				"x": -3.9215709309,
				"y": -1.0605676389,
				"z": -0.2181156787,
				"element": "H" 
			}
		],
		 "valence_orbital": [ 
			{
				"type": "occ",
				"energy": -0.31554,
				"method": "rhf"
			},
			{
				"type": "occ",
				"energy": -0.29321,
				"method": "rhf"
			},
			{
				"type": "occ",
				"energy": -0.27533,
				"method": "rhf"
			},
			{
				"type": "occ",
				"energy": -0.27075,
				"method": "rhf"
			},
			{
				"type": "occ",
				"energy": -0.26003,
				"method": "rhf"
			},
			{
				"type": "unocc",
				"energy": -0.0526,
				"method": "rhf"
			},
			{
				"type": "unocc",
				"energy": -0.02324,
				"method": "rhf"
			},
			{
				"type": "unocc",
				"energy": 0.04222,
				"method": "rhf"
			},
			{
				"type": "unocc",
				"energy": 0.06116,
				"method": "rhf"
			},
			{
				"type": "unocc",
				"energy": 0.07506,
				"method": "rhf"
			}
		],
		"cosmo_sigma_profile": { 
			"-0.025": 0.0,
			"-0.024": 0.0,
			"-0.023": 0.0,
			"-0.022": 0.0,
			"-0.021": 0.0,
			"-0.02": 0.0,
			"-0.019": 0.101288874038,
			"-0.018": 0.912052121036,
			"-0.017": 0.779304898355,
			"-0.016": 0.929253500069,
			"-0.015": 1.13205381793,
			"-0.014": 0.725927458318,
			"-0.013": 1.03885040289,
			"-0.012": 1.35937900918,
			"-0.011": 1.1742054564,
			"-0.01": 1.23172476891,
			"-0.009": 1.78330658535,
			"-0.008": 6.47819059117,
			"-0.007": 10.4583056618,
			"-0.006": 14.4420541024,
			"-0.005": 16.408491633,
			"-0.004": 14.0087448035,
			"-0.003": 11.8532776458,
			"-0.002": 11.0496059895,
			"-0.001": 13.8132295243,
			"0.0": 13.7040879286,
			"0.001": 16.9208788665,
			"0.002": 26.2345317649,
			"0.003": 38.121267271,
			"0.004": 7.78985370141,
			"0.005": 4.38863063493,
			"0.006": 4.11983108963,
			"0.007": 3.21237405581,
			"0.008": 4.14217132856,
			"0.009": 3.73019335077,
			"0.01": 5.5283284664,
			"0.011": 6.42881041898,
			"0.012": 4.99376259794,
			"0.013": 1.71052739743,
			"0.014": 0.0740150212902,
			"0.015": 0.0,
			"0.016": 0.0,
			"0.017": 0.0,
			"0.018": 0.0,
			"0.019": 0.0,
			"0.02": 0.0,
			"0.021": 0.0,
			"0.022": 0.0,
			"0.023": 0.0,
			"0.024": 0.0,
			"0.025": 0.0
		}
	}
}
