{
	 "smiles": "CCC(C)C(=O)NCC(O)=O", 
	 "Tm": 375.15, 
	 "num_atms": 24, 
	 "gaussian": { 
		 "optdone": 1, 
		 "sigma_profile": "yes", 
		 "theory": "DFT", 
		 "functional": "B3LYP", 
		 "basiset": "6-31G**", 
		 "properties": { 
			 "R2extent": 2371.5585, 
			 "electric_dipole_moment_norm": 3.66182842443, 
			 "electric_quadrupole_moment_norm": 6.41004421982, 
			 "total_energy": -555.044913363, 
			 "HOMO_LUMO_gap": 0.25259, 
			 "cosmo_polarized_energy": -16.33, 
			 "cosmo_cavitation_energy": 27.52, 
			 "cosmo_dispersion_energy": -19.0, 
			 "cosmo_repulsion_energy": 1.57, 
			 "cosmo_total_nonelectrostatic_energy": 10.09, 
			 "SMD_solvation_energy": 6.25 
		},
		"coords": [
			{
				"x": 0.9469700584,
				"y": 0.5830226017,
				"z": 3.1297058716,
				"element": "C" 
			},
			{
				"x": 0.0721673241,
				"y": 1.7478677538,
				"z": 2.654614304,
				"element": "C" 
			},
			{
				"x": 0.1170024036,
				"y": 1.9884374582,
				"z": 1.1308479292,
				"element": "C" 
			},
			{
				"x": -0.630249741,
				"y": 3.2753223284,
				"z": 0.7429093419,
				"element": "C" 
			},
			{
				"x": -0.5261826397,
				"y": 0.8029585404,
				"z": 0.4075452422,
				"element": "C" 
			},
			{
				"x": -1.7082108381,
				"y": 0.5154655603,
				"z": 0.5567252371,
				"element": "O" 
			},
			{
				"x": 0.2962268715,
				"y": 0.0982130291,
				"z": -0.4383952291,
				"element": "N" 
			},
			{
				"x": -0.1595042687,
				"y": -1.1020822778,
				"z": -1.0970119544,
				"element": "C" 
			},
			{
				"x": 0.3837016325,
				"y": -2.4164531986,
				"z": -0.5527799056,
				"element": "C" 
			},
			{
				"x": 1.0312692427,
				"y": -2.2822048362,
				"z": 0.6276871287,
				"element": "O" 
			},
			{
				"x": 0.2461441653,
				"y": -3.4783941481,
				"z": -1.1152215137,
				"element": "O" 
			},
			{
				"x": 2.0040108976,
				"y": 0.7592896283,
				"z": 2.8961742291,
				"element": "H" 
			},
			{
				"x": 0.8672400176,
				"y": 0.4522964217,
				"z": 4.2136350171,
				"element": "H" 
			},
			{
				"x": 0.6567565871,
				"y": -0.3610953645,
				"z": 2.6577495862,
				"element": "H" 
			},
			{
				"x": -0.9725636942,
				"y": 1.5705944296,
				"z": 2.9344244961,
				"element": "H" 
			},
			{
				"x": 0.3842387766,
				"y": 2.6718949116,
				"z": 3.157172957,
				"element": "H" 
			},
			{
				"x": 1.1682337305,
				"y": 2.0797717265,
				"z": 0.8210328728,
				"element": "H" 
			},
			{
				"x": -0.2135302229,
				"y": 4.1366232213,
				"z": 1.2744302918,
				"element": "H" 
			},
			{
				"x": -1.6889740269,
				"y": 3.1827679752,
				"z": 0.9995034694,
				"element": "H" 
			},
			{
				"x": -0.5592227583,
				"y": 3.4718384416,
				"z": -0.3318449985,
				"element": "H" 
			},
			{
				"x": 1.2844834194,
				"y": 0.2993736643,
				"z": -0.4261781814,
				"element": "H" 
			},
			{
				"x": -1.2482411989,
				"y": -1.1273558374,
				"z": -0.9812998664,
				"element": "H" 
			},
			{
				"x": 0.0585549527,
				"y": -1.0875715253,
				"z": -2.1699948935,
				"element": "H" 
			},
			{
				"x": 1.3052793089,
				"y": -3.1788805041,
				"z": 0.8852685682,
				"element": "H" 
			}
		],
		 "valence_orbital": [ 
			{
				"type": "occ",
				"energy": -0.32684,
				"method": "rhf"
			},
			{
				"type": "occ",
				"energy": -0.32517,
				"method": "rhf"
			},
			{
				"type": "occ",
				"energy": -0.29484,
				"method": "rhf"
			},
			{
				"type": "occ",
				"energy": -0.25648,
				"method": "rhf"
			},
			{
				"type": "occ",
				"energy": -0.25123,
				"method": "rhf"
			},
			{
				"type": "unocc",
				"energy": 0.00136,
				"method": "rhf"
			},
			{
				"type": "unocc",
				"energy": 0.02346,
				"method": "rhf"
			},
			{
				"type": "unocc",
				"energy": 0.05919,
				"method": "rhf"
			},
			{
				"type": "unocc",
				"energy": 0.07725,
				"method": "rhf"
			},
			{
				"type": "unocc",
				"energy": 0.10745,
				"method": "rhf"
			}
		],
		"cosmo_sigma_profile": { 
			"-0.025": 0.0,
			"-0.024": 0.0,
			"-0.023": 0.0,
			"-0.022": 0.0,
			"-0.021": 0.0,
			"-0.02": 0.0,
			"-0.019": 0.123332701308,
			"-0.018": 1.08809758046,
			"-0.017": 0.720934763006,
			"-0.016": 1.23776423287,
			"-0.015": 1.11310341651,
			"-0.014": 1.40740418256,
			"-0.013": 1.43657669379,
			"-0.012": 1.80644981213,
			"-0.011": 2.86169333344,
			"-0.01": 1.87803257857,
			"-0.009": 1.48257273748,
			"-0.008": 2.58179962392,
			"-0.007": 6.46718893036,
			"-0.006": 5.77703091699,
			"-0.005": 6.07342815395,
			"-0.004": 8.50517836849,
			"-0.003": 18.3624189363,
			"-0.002": 21.2473028672,
			"-0.001": 20.0718593695,
			"0.0": 22.2570370045,
			"0.001": 22.5381789499,
			"0.002": 10.8172458819,
			"0.003": 7.46530550085,
			"0.004": 6.97610285547,
			"0.005": 5.19430412977,
			"0.006": 3.40820632289,
			"0.007": 3.34553590936,
			"0.008": 2.79418832461,
			"0.009": 2.72667823396,
			"0.01": 3.6603643352,
			"0.011": 5.6535925399,
			"0.012": 6.06166999631,
			"0.013": 3.5197800542,
			"0.014": 3.34287123268,
			"0.015": 0.306202657746,
			"0.016": 0.0,
			"0.017": 0.0,
			"0.018": 0.0,
			"0.019": 0.0,
			"0.02": 0.0,
			"0.021": 0.0,
			"0.022": 0.0,
			"0.023": 0.0,
			"0.024": 0.0,
			"0.025": 0.0
		}
	}
}
