{
	 "smiles": "OC(=O)C1=CC(OC2CCC2)=NC=C1", 
	 "Tm": 427.15, 
	 "num_atms": 25, 
	 "gaussian": { 
		 "optdone": 1, 
		 "sigma_profile": "yes", 
		 "theory": "DFT", 
		 "functional": "B3LYP", 
		 "basiset": "6-31G**", 
		 "properties": { 
			 "R2extent": 4959.1139, 
			 "electric_dipole_moment_norm": 4.24117501407, 
			 "electric_quadrupole_moment_norm": 22.2215765523, 
			 "total_energy": -668.095705873, 
			 "HOMO_LUMO_gap": 0.17964, 
			 "cosmo_polarized_energy": -13.73, 
			 "cosmo_cavitation_energy": 29.2, 
			 "cosmo_dispersion_energy": -21.48, 
			 "cosmo_repulsion_energy": 1.72, 
			 "cosmo_total_nonelectrostatic_energy": 9.43, 
			 "SMD_solvation_energy": 5.26 
		},
		"coords": [
			{
				"x": -1.8072934839,
				"y": 0.8872730273,
				"z": 4.9941598743,
				"element": "O" 
			},
			{
				"x": -2.7149144113,
				"y": 1.4350879756,
				"z": 4.147091924,
				"element": "C" 
			},
			{
				"x": -3.6832503248,
				"y": 2.0129865031,
				"z": 4.5776777698,
				"element": "O" 
			},
			{
				"x": -2.4437861547,
				"y": 1.2787387739,
				"z": 2.6752777369,
				"element": "C" 
			},
			{
				"x": -1.1710906728,
				"y": 1.0511879009,
				"z": 2.1635528749,
				"element": "C" 
			},
			{
				"x": -1.0288882099,
				"y": 0.9368622916,
				"z": 0.7665158816,
				"element": "C" 
			},
			{
				"x": 0.2206833976,
				"y": 0.7240459712,
				"z": 0.3059014889,
				"element": "O" 
			},
			{
				"x": 0.4126384482,
				"y": 0.6454456714,
				"z": -1.112646046,
				"element": "C" 
			},
			{
				"x": 1.8893656403,
				"y": 0.5128131027,
				"z": -1.5197765404,
				"element": "C" 
			},
			{
				"x": 1.432868557,
				"y": -0.488428498,
				"z": -2.6192362167,
				"element": "C" 
			},
			{
				"x": 0.1096244725,
				"y": -0.6895398991,
				"z": -1.8275145859,
				"element": "C" 
			},
			{
				"x": -2.0454394767,
				"y": 1.0306077155,
				"z": -0.0847199356,
				"element": "N" 
			},
			{
				"x": -3.2661335,
				"y": 1.2638623027,
				"z": 0.4284542639,
				"element": "C" 
			},
			{
				"x": -3.5225640409,
				"y": 1.4022945714,
				"z": 1.7844977896,
				"element": "C" 
			},
			{
				"x": -1.1765538973,
				"y": 0.3422899397,
				"z": 4.5027729881,
				"element": "H" 
			},
			{
				"x": -0.2795613115,
				"y": 1.0005978042,
				"z": 2.7806839955,
				"element": "H" 
			},
			{
				"x": -0.0943572691,
				"y": 1.4859961886,
				"z": -1.5936378076,
				"element": "H" 
			},
			{
				"x": 2.4534524825,
				"y": 0.0079238121,
				"z": -0.7299349105,
				"element": "H" 
			},
			{
				"x": 2.4223125579,
				"y": 1.4192787375,
				"z": -1.8184024527,
				"element": "H" 
			},
			{
				"x": 2.0586075105,
				"y": -1.3681727194,
				"z": -2.7857083838,
				"element": "H" 
			},
			{
				"x": 1.2642114094,
				"y": 0.0065786724,
				"z": -3.5798942174,
				"element": "H" 
			},
			{
				"x": 0.1881179634,
				"y": -1.5240097243,
				"z": -1.1237757643,
				"element": "H" 
			},
			{
				"x": -0.8313693094,
				"y": -0.7652469343,
				"z": -2.3760174356,
				"element": "H" 
			},
			{
				"x": -4.0744681039,
				"y": 1.3407473316,
				"z": -0.2955560289,
				"element": "H" 
			},
			{
				"x": -4.517812273,
				"y": 1.5986794817,
				"z": 2.1638337381,
				"element": "H" 
			}
		],
		 "valence_orbital": [ 
			{
				"type": "occ",
				"energy": -0.31205,
				"method": "rhf"
			},
			{
				"type": "occ",
				"energy": -0.30256,
				"method": "rhf"
			},
			{
				"type": "occ",
				"energy": -0.28436,
				"method": "rhf"
			},
			{
				"type": "occ",
				"energy": -0.27633,
				"method": "rhf"
			},
			{
				"type": "occ",
				"energy": -0.24519,
				"method": "rhf"
			},
			{
				"type": "unocc",
				"energy": -0.06555,
				"method": "rhf"
			},
			{
				"type": "unocc",
				"energy": -0.01794,
				"method": "rhf"
			},
			{
				"type": "unocc",
				"energy": 0.04079,
				"method": "rhf"
			},
			{
				"type": "unocc",
				"energy": 0.06079,
				"method": "rhf"
			},
			{
				"type": "unocc",
				"energy": 0.08531,
				"method": "rhf"
			}
		],
		"cosmo_sigma_profile": { 
			"-0.025": 0.0,
			"-0.024": 0.0,
			"-0.023": 0.0,
			"-0.022": 0.0,
			"-0.021": 0.0,
			"-0.02": 0.0,
			"-0.019": 0.652395986243,
			"-0.018": 0.793921325131,
			"-0.017": 1.24294510826,
			"-0.016": 0.687027342898,
			"-0.015": 0.740774031691,
			"-0.014": 0.989539042264,
			"-0.013": 1.77155472036,
			"-0.012": 1.19187199829,
			"-0.011": 0.900589556544,
			"-0.01": 1.86459034524,
			"-0.009": 1.23086338205,
			"-0.008": 1.52806697965,
			"-0.007": 4.1399351695,
			"-0.006": 6.43146102434,
			"-0.005": 6.89785392026,
			"-0.004": 13.4160763659,
			"-0.003": 22.1918020093,
			"-0.002": 22.1897945754,
			"-0.001": 23.1516147131,
			"0.0": 26.4300961799,
			"0.001": 23.5836038542,
			"0.002": 12.9074561432,
			"0.003": 6.85021747908,
			"0.004": 6.7967623287,
			"0.005": 4.79025196697,
			"0.006": 5.49758668704,
			"0.007": 5.24279155248,
			"0.008": 5.84416508878,
			"0.009": 6.49010165824,
			"0.01": 5.53751666333,
			"0.011": 6.31427931844,
			"0.012": 3.05411609681,
			"0.013": 0.36180823641,
			"0.014": 0.0,
			"0.015": 0.0,
			"0.016": 0.0,
			"0.017": 0.0,
			"0.018": 0.0,
			"0.019": 0.0,
			"0.02": 0.0,
			"0.021": 0.0,
			"0.022": 0.0,
			"0.023": 0.0,
			"0.024": 0.0,
			"0.025": 0.0
		}
	}
}
