{
	 "smiles": "CN1N(C(=O)C(NC(=O)CCCl)=C1C)C1=CC=CC=C1", 
	 "Tm": 481.15, 
	 "num_atms": 36, 
	 "gaussian": { 
		 "optdone": 1, 
		 "sigma_profile": "yes", 
		 "theory": "DFT", 
		 "functional": "B3LYP", 
		 "basiset": "6-31G**", 
		 "properties": { 
			 "R2extent": 7991.4035, 
			 "electric_dipole_moment_norm": 7.43226791094, 
			 "electric_quadrupole_moment_norm": 22.2036649205, 
			 "total_energy": -1318.02610968, 
			 "HOMO_LUMO_gap": 0.18232, 
			 "cosmo_polarized_energy": -21.77, 
			 "cosmo_cavitation_energy": 41.23, 
			 "cosmo_dispersion_energy": -28.3, 
			 "cosmo_repulsion_energy": 2.22, 
			 "cosmo_total_nonelectrostatic_energy": 15.15, 
			 "SMD_solvation_energy": 7.78 
		},
		"coords": [
			{
				"x": -3.3469771897,
				"y": -0.3724945302,
				"z": 0.2180344623,
				"element": "C" 
			},
			{
				"x": -2.1767779379,
				"y": 0.3286141658,
				"z": 0.7656713065,
				"element": "N" 
			},
			{
				"x": -1.1724559138,
				"y": 0.6067234434,
				"z": -0.1937060639,
				"element": "N" 
			},
			{
				"x": 0.1054049382,
				"y": 0.4033109427,
				"z": 0.3764953175,
				"element": "C" 
			},
			{
				"x": 1.1727843505,
				"y": 0.6561489157,
				"z": -0.1679321066,
				"element": "O" 
			},
			{
				"x": -0.1755797555,
				"y": -0.1468339516,
				"z": 1.7023695415,
				"element": "C" 
			},
			{
				"x": 0.8053922459,
				"y": -0.4355519323,
				"z": 2.6683354559,
				"element": "N" 
			},
			{
				"x": 1.9191135031,
				"y": -1.2403564191,
				"z": 2.5088609914,
				"element": "C" 
			},
			{
				"x": 2.8082346971,
				"y": -1.2372933566,
				"z": 3.3459215686,
				"element": "O" 
			},
			{
				"x": 1.9732581648,
				"y": -2.1052686605,
				"z": 1.2544738854,
				"element": "C" 
			},
			{
				"x": 2.8580873608,
				"y": -3.3239972398,
				"z": 1.4455354974,
				"element": "C" 
			},
			{
				"x": 2.0183537917,
				"y": -4.6215311091,
				"z": 2.413735486,
				"element": "Cl" 
			},
			{
				"x": -1.5270025212,
				"y": -0.2139536737,
				"z": 1.8699243595,
				"element": "C" 
			},
			{
				"x": -2.2923448061,
				"y": -0.7610605943,
				"z": 3.0292374716,
				"element": "C" 
			},
			{
				"x": -1.4389359428,
				"y": 1.5573421839,
				"z": -1.2169710624,
				"element": "C" 
			},
			{
				"x": -0.6624259066,
				"y": 1.5269553798,
				"z": -2.3829052283,
				"element": "C" 
			},
			{
				"x": -0.9071583158,
				"y": 2.45634918,
				"z": -3.3921268299,
				"element": "C" 
			},
			{
				"x": -1.9288128723,
				"y": 3.3997339386,
				"z": -3.2617847453,
				"element": "C" 
			},
			{
				"x": -2.6992904605,
				"y": 3.421979156,
				"z": -2.0985719059,
				"element": "C" 
			},
			{
				"x": -2.4527177069,
				"y": 2.5131889351,
				"z": -1.0694324426,
				"element": "C" 
			},
			{
				"x": -3.0887036007,
				"y": -1.3746315626,
				"z": -0.1471150224,
				"element": "H" 
			},
			{
				"x": -3.7587347035,
				"y": 0.214659094,
				"z": -0.6028482181,
				"element": "H" 
			},
			{
				"x": -4.1026305229,
				"y": -0.4477016336,
				"z": 1.0011343174,
				"element": "H" 
			},
			{
				"x": 0.8891996715,
				"y": 0.1798775844,
				"z": 3.4695716489,
				"element": "H" 
			},
			{
				"x": 2.3903383878,
				"y": -1.4751452579,
				"z": 0.457895895,
				"element": "H" 
			},
			{
				"x": 0.971118273,
				"y": -2.3949808311,
				"z": 0.9265563327,
				"element": "H" 
			},
			{
				"x": 3.1188856401,
				"y": -3.7843399266,
				"z": 0.4928541366,
				"element": "H" 
			},
			{
				"x": 3.7557643572,
				"y": -3.0621504909,
				"z": 2.0041270392,
				"element": "H" 
			},
			{
				"x": -2.8830357332,
				"y": -1.6393551164,
				"z": 2.7456024334,
				"element": "H" 
			},
			{
				"x": -1.5926368947,
				"y": -1.0681047493,
				"z": 3.8084212951,
				"element": "H" 
			},
			{
				"x": -2.9796112723,
				"y": -0.0163957807,
				"z": 3.4447623276,
				"element": "H" 
			},
			{
				"x": 0.1301512485,
				"y": 0.7959504622,
				"z": -2.4761437811,
				"element": "H" 
			},
			{
				"x": -0.2980672239,
				"y": 2.4347315895,
				"z": -4.2909845557,
				"element": "H" 
			},
			{
				"x": -2.1196401162,
				"y": 4.113129927,
				"z": -4.0576561488,
				"element": "H" 
			},
			{
				"x": -3.4885707832,
				"y": 4.1587359185,
				"z": -1.9801180904,
				"element": "H" 
			},
			{
				"x": -3.0242764507,
				"y": 2.5516159996,
				"z": -0.148524568,
				"element": "H" 
			}
		],
		 "valence_orbital": [ 
			{
				"type": "occ",
				"energy": -0.26701,
				"method": "rhf"
			},
			{
				"type": "occ",
				"energy": -0.2574,
				"method": "rhf"
			},
			{
				"type": "occ",
				"energy": -0.25171,
				"method": "rhf"
			},
			{
				"type": "occ",
				"energy": -0.23383,
				"method": "rhf"
			},
			{
				"type": "occ",
				"energy": -0.22097,
				"method": "rhf"
			},
			{
				"type": "unocc",
				"energy": -0.03865,
				"method": "rhf"
			},
			{
				"type": "unocc",
				"energy": -0.01104,
				"method": "rhf"
			},
			{
				"type": "unocc",
				"energy": -0.00449,
				"method": "rhf"
			},
			{
				"type": "unocc",
				"energy": 0.02509,
				"method": "rhf"
			},
			{
				"type": "unocc",
				"energy": 0.03788,
				"method": "rhf"
			}
		],
		"cosmo_sigma_profile": { 
			"-0.025": 0.0,
			"-0.024": 0.0,
			"-0.023": 0.0,
			"-0.022": 0.0,
			"-0.021": 0.0,
			"-0.02": 0.0,
			"-0.019": 0.0,
			"-0.018": 0.0,
			"-0.017": 0.0,
			"-0.016": 0.0,
			"-0.015": 0.00751303039092,
			"-0.014": 1.08474475587,
			"-0.013": 0.708352555828,
			"-0.012": 0.992438863554,
			"-0.011": 1.02838479771,
			"-0.01": 1.12571919876,
			"-0.009": 0.876925535072,
			"-0.008": 1.12788615032,
			"-0.007": 7.14137333065,
			"-0.006": 24.7058842998,
			"-0.005": 32.7644702634,
			"-0.004": 33.1716515357,
			"-0.003": 29.3100591884,
			"-0.002": 24.668600418,
			"-0.001": 19.7929619873,
			"0.0": 16.0319420613,
			"0.001": 16.5690438726,
			"0.002": 17.4691106861,
			"0.003": 14.3834196468,
			"0.004": 15.9926042691,
			"0.005": 17.8725830066,
			"0.006": 13.6452503348,
			"0.007": 10.1986850727,
			"0.008": 3.46810976371,
			"0.009": 2.90026159823,
			"0.01": 2.65294129937,
			"0.011": 3.90883741904,
			"0.012": 4.67923660277,
			"0.013": 8.33211494656,
			"0.014": 2.81173333143,
			"0.015": 0.0,
			"0.016": 0.0,
			"0.017": 0.0,
			"0.018": 0.0,
			"0.019": 0.0,
			"0.02": 0.0,
			"0.021": 0.0,
			"0.022": 0.0,
			"0.023": 0.0,
			"0.024": 0.0,
			"0.025": 0.0
		}
	}
}
