{
	 "smiles": "CC1=C(Cl)C=CC(CO)=C1", 
	 "Tm": 316.15, 
	 "num_atms": 19, 
	 "gaussian": { 
		 "optdone": 1, 
		 "sigma_profile": "yes", 
		 "theory": "DFT", 
		 "functional": "B3LYP", 
		 "basiset": "6-31G**", 
		 "properties": { 
			 "R2extent": 2322.2376, 
			 "electric_dipole_moment_norm": 3.32476043949, 
			 "electric_quadrupole_moment_norm": 6.45983154811, 
			 "total_energy": -845.688625187, 
			 "HOMO_LUMO_gap": 0.22401, 
			 "cosmo_polarized_energy": -8.27, 
			 "cosmo_cavitation_energy": 24.05, 
			 "cosmo_dispersion_energy": -18.01, 
			 "cosmo_repulsion_energy": 1.47, 
			 "cosmo_total_nonelectrostatic_energy": 7.51, 
			 "SMD_solvation_energy": 3.98 
		},
		"coords": [
			{
				"x": 2.5326653107,
				"y": 2.3719832212,
				"z": 0.886304277,
				"element": "C" 
			},
			{
				"x": 1.5512213655,
				"y": 1.2668928912,
				"z": 0.5916065075,
				"element": "C" 
			},
			{
				"x": 0.3121773887,
				"y": 1.1713027941,
				"z": 1.2441906531,
				"element": "C" 
			},
			{
				"x": -0.134123735,
				"y": 2.3774686722,
				"z": 2.4532993943,
				"element": "Cl" 
			},
			{
				"x": -0.587009222,
				"y": 0.1434021537,
				"z": 0.9729395539,
				"element": "C" 
			},
			{
				"x": -0.2645494188,
				"y": -0.8242303204,
				"z": 0.0219156933,
				"element": "C" 
			},
			{
				"x": 0.9575241906,
				"y": -0.7644922559,
				"z": -0.6506039422,
				"element": "C" 
			},
			{
				"x": 1.3185699345,
				"y": -1.7784326921,
				"z": -1.7136102858,
				"element": "C" 
			},
			{
				"x": 0.4976656202,
				"y": -2.9280582583,
				"z": -1.576357243,
				"element": "O" 
			},
			{
				"x": 1.8441244569,
				"y": 0.2749199168,
				"z": -0.3516221021,
				"element": "C" 
			},
			{
				"x": 2.0971574292,
				"y": 3.3564263804,
				"z": 0.6838941273,
				"element": "H" 
			},
			{
				"x": 3.4325904947,
				"y": 2.26344301,
				"z": 0.2757397165,
				"element": "H" 
			},
			{
				"x": 2.8305836523,
				"y": 2.3705333955,
				"z": 1.9403167736,
				"element": "H" 
			},
			{
				"x": -1.5317963098,
				"y": 0.1034701382,
				"z": 1.5041877133,
				"element": "H" 
			},
			{
				"x": -0.9533899891,
				"y": -1.6322630808,
				"z": -0.1946563452,
				"element": "H" 
			},
			{
				"x": 1.1867210558,
				"y": -1.3183951141,
				"z": -2.7079664728,
				"element": "H" 
			},
			{
				"x": 2.3869804479,
				"y": -2.0340848699,
				"z": -1.6227835785,
				"element": "H" 
			},
			{
				"x": 0.6471318078,
				"y": -3.4954441598,
				"z": -2.3417165628,
				"element": "H" 
			},
			{
				"x": 2.8031555203,
				"y": 0.3220581779,
				"z": -0.8643778776,
				"element": "H" 
			}
		],
		 "valence_orbital": [ 
			{
				"type": "occ",
				"energy": -0.32355,
				"method": "rhf"
			},
			{
				"type": "occ",
				"energy": -0.30451,
				"method": "rhf"
			},
			{
				"type": "occ",
				"energy": -0.28011,
				"method": "rhf"
			},
			{
				"type": "occ",
				"energy": -0.24817,
				"method": "rhf"
			},
			{
				"type": "occ",
				"energy": -0.23142,
				"method": "rhf"
			},
			{
				"type": "unocc",
				"energy": -0.00741,
				"method": "rhf"
			},
			{
				"type": "unocc",
				"energy": -0.00232,
				"method": "rhf"
			},
			{
				"type": "unocc",
				"energy": 0.03861,
				"method": "rhf"
			},
			{
				"type": "unocc",
				"energy": 0.06946,
				"method": "rhf"
			},
			{
				"type": "unocc",
				"energy": 0.11061,
				"method": "rhf"
			}
		],
		"cosmo_sigma_profile": { 
			"-0.025": 0.0,
			"-0.024": 0.0,
			"-0.023": 0.0,
			"-0.022": 0.0,
			"-0.021": 0.0,
			"-0.02": 0.0,
			"-0.019": 0.0,
			"-0.018": 0.0,
			"-0.017": 0.0555737990756,
			"-0.016": 0.866166396444,
			"-0.015": 1.37946475662,
			"-0.014": 0.60748028524,
			"-0.013": 0.829509515711,
			"-0.012": 1.25831478931,
			"-0.011": 0.745445450786,
			"-0.01": 0.677050528534,
			"-0.009": 0.738341805917,
			"-0.008": 0.817682705617,
			"-0.007": 1.71414552407,
			"-0.006": 5.91672608704,
			"-0.005": 12.5485561799,
			"-0.004": 16.7432417633,
			"-0.003": 14.2186598424,
			"-0.002": 12.0438583778,
			"-0.001": 15.02892977,
			"0.0": 17.0965450863,
			"0.001": 11.830406213,
			"0.002": 13.7554159593,
			"0.003": 16.0694392686,
			"0.004": 18.536776769,
			"0.005": 16.013305212,
			"0.006": 2.79664037706,
			"0.007": 1.60787692799,
			"0.008": 1.76101333152,
			"0.009": 1.30674216357,
			"0.01": 2.0541852899,
			"0.011": 0.921533257244,
			"0.012": 1.25395487547,
			"0.013": 0.689441665747,
			"0.014": 0.442006848459,
			"0.015": 0.0,
			"0.016": 0.0,
			"0.017": 0.0,
			"0.018": 0.0,
			"0.019": 0.0,
			"0.02": 0.0,
			"0.021": 0.0,
			"0.022": 0.0,
			"0.023": 0.0,
			"0.024": 0.0,
			"0.025": 0.0
		}
	}
}
