{
	 "smiles": "FC1=CC(F)=C2C(NC(=O)C2=O)=C1", 
	 "Tm": 503.15, 
	 "num_atms": 16, 
	 "gaussian": { 
		 "optdone": 1, 
		 "sigma_profile": "yes", 
		 "theory": "DFT", 
		 "functional": "B3LYP", 
		 "basiset": "6-31G**", 
		 "properties": { 
			 "R2extent": 2742.666, 
			 "electric_dipole_moment_norm": 5.30492466016, 
			 "electric_quadrupole_moment_norm": 26.0939539877, 
			 "total_energy": -711.521834886, 
			 "HOMO_LUMO_gap": 0.1519, 
			 "cosmo_polarized_energy": -15.86, 
			 "cosmo_cavitation_energy": 23.01, 
			 "cosmo_dispersion_energy": -16.66, 
			 "cosmo_repulsion_energy": 1.26, 
			 "cosmo_total_nonelectrostatic_energy": 7.61, 
			 "SMD_solvation_energy": 6.33 
		},
		"coords": [
			{
				"x": -0.7682365171,
				"y": -0.0963380336,
				"z": 2.5361970068,
				"element": "F" 
			},
			{
				"x": -0.4890391928,
				"y": -0.1111497882,
				"z": 1.2254688983,
				"element": "C" 
			},
			{
				"x": 0.1268537829,
				"y": 1.0106172661,
				"z": 0.674883138,
				"element": "C" 
			},
			{
				"x": 0.41223676,
				"y": 0.9841074459,
				"z": -0.6878343294,
				"element": "C" 
			},
			{
				"x": 1.0017017434,
				"y": 2.0416630168,
				"z": -1.2466611781,
				"element": "F" 
			},
			{
				"x": 0.0935071495,
				"y": -0.1227488158,
				"z": -1.4701852139,
				"element": "C" 
			},
			{
				"x": -0.5315945132,
				"y": -1.2331197158,
				"z": -0.8549984524,
				"element": "C" 
			},
			{
				"x": -0.7665931708,
				"y": -2.2308383043,
				"z": -1.8017609019,
				"element": "N" 
			},
			{
				"x": -0.3291123045,
				"y": -1.8655187898,
				"z": -3.0705817376,
				"element": "C" 
			},
			{
				"x": -0.4004494137,
				"y": -2.5246901956,
				"z": -4.0801310535,
				"element": "O" 
			},
			{
				"x": 0.2713482147,
				"y": -0.4249294265,
				"z": -2.89696286,
				"element": "C" 
			},
			{
				"x": 0.7532225346,
				"y": 0.2215397221,
				"z": -3.7990525038,
				"element": "O" 
			},
			{
				"x": -0.8358678157,
				"y": -1.254302239,
				"z": 0.4982236428,
				"element": "C" 
			},
			{
				"x": 0.37284281,
				"y": 1.8687639149,
				"z": 1.2867937796,
				"element": "H" 
			},
			{
				"x": -1.2023503964,
				"y": -3.1207829238,
				"z": -1.6083450029,
				"element": "H" 
			},
			{
				"x": -1.313769671,
				"y": -2.0924731334,
				"z": 0.990546768,
				"element": "H" 
			}
		],
		 "valence_orbital": [ 
			{
				"type": "occ",
				"energy": -0.33226,
				"method": "rhf"
			},
			{
				"type": "occ",
				"energy": -0.31836,
				"method": "rhf"
			},
			{
				"type": "occ",
				"energy": -0.27922,
				"method": "rhf"
			},
			{
				"type": "occ",
				"energy": -0.25559,
				"method": "rhf"
			},
			{
				"type": "occ",
				"energy": -0.2553,
				"method": "rhf"
			},
			{
				"type": "unocc",
				"energy": -0.1034,
				"method": "rhf"
			},
			{
				"type": "unocc",
				"energy": -0.03147,
				"method": "rhf"
			},
			{
				"type": "unocc",
				"energy": -0.00255,
				"method": "rhf"
			},
			{
				"type": "unocc",
				"energy": 0.0637,
				"method": "rhf"
			},
			{
				"type": "unocc",
				"energy": 0.06656,
				"method": "rhf"
			}
		],
		"cosmo_sigma_profile": { 
			"-0.025": 0.0,
			"-0.024": 0.0,
			"-0.023": 0.0,
			"-0.022": 0.0,
			"-0.021": 0.0,
			"-0.02": 0.0,
			"-0.019": 0.0,
			"-0.018": 0.0198967652406,
			"-0.017": 1.29790278547,
			"-0.016": 1.48494977997,
			"-0.015": 1.56625155075,
			"-0.014": 1.49716355926,
			"-0.013": 0.878462049647,
			"-0.012": 1.02345457028,
			"-0.011": 1.64480263385,
			"-0.01": 1.80385000726,
			"-0.009": 4.66869118773,
			"-0.008": 4.12776677424,
			"-0.007": 5.1444246011,
			"-0.006": 6.1216650996,
			"-0.005": 5.22038866691,
			"-0.004": 7.00964934296,
			"-0.003": 9.37959603754,
			"-0.002": 21.4398410747,
			"-0.001": 20.7012061514,
			"0.0": 12.0685330718,
			"0.001": 8.92579772447,
			"0.002": 10.1909518457,
			"0.003": 17.8737885536,
			"0.004": 4.3458310526,
			"0.005": 2.61518623854,
			"0.006": 3.23221825307,
			"0.007": 3.94726773722,
			"0.008": 4.02652586042,
			"0.009": 5.67410411101,
			"0.01": 9.30031580243,
			"0.011": 7.45603624696,
			"0.012": 2.02098168995,
			"0.013": 0.0143743772501,
			"0.014": 0.0,
			"0.015": 0.0,
			"0.016": 0.0,
			"0.017": 0.0,
			"0.018": 0.0,
			"0.019": 0.0,
			"0.02": 0.0,
			"0.021": 0.0,
			"0.022": 0.0,
			"0.023": 0.0,
			"0.024": 0.0,
			"0.025": 0.0
		}
	}
}
