{
	 "smiles": "CCCCCCCCCCCCCCCCCCSSCCCCCCCCCCCCCCCCCC", 
	 "Tm": 335.15, 
	 "num_atms": 112, 
	 "gaussian": { 
		 "optdone": 1, 
		 "sigma_profile": "yes", 
		 "theory": "DFT", 
		 "functional": "B3LYP", 
		 "basiset": "6-31G**", 
		 "properties": { 
			 "R2extent": 65372.6719, 
			 "electric_dipole_moment_norm": 2.52313933226, 
			 "electric_quadrupole_moment_norm": 16.6308875334, 
			 "total_energy": -2212.92104227, 
			 "HOMO_LUMO_gap": 0.21122, 
			 "cosmo_polarized_energy": -6.63, 
			 "cosmo_cavitation_energy": 108.5, 
			 "cosmo_dispersion_energy": -71.52, 
			 "cosmo_repulsion_energy": 5.66, 
			 "cosmo_total_nonelectrostatic_energy": 42.64, 
			 "SMD_solvation_energy": 12.02 
		},
		"coords": [
			{
				"x": -6.5078802069,
				"y": 6.1647626782,
				"z": -8.1391784172,
				"element": "C" 
			},
			{
				"x": -7.1709118414,
				"y": 5.1671978601,
				"z": -7.1840016639,
				"element": "C" 
			},
			{
				"x": -6.7296374351,
				"y": 5.3394131221,
				"z": -5.7245975193,
				"element": "C" 
			},
			{
				"x": -7.3950561126,
				"y": 4.3401402075,
				"z": -4.7677795585,
				"element": "C" 
			},
			{
				"x": -7.0370411053,
				"y": 4.5282659434,
				"z": -3.2841624075,
				"element": "C" 
			},
			{
				"x": -5.5691146663,
				"y": 4.244667164,
				"z": -2.9334729148,
				"element": "C" 
			},
			{
				"x": -5.2776999639,
				"y": 4.3744749758,
				"z": -1.4313577907,
				"element": "C" 
			},
			{
				"x": -3.837089888,
				"y": 4.0279428168,
				"z": -1.0197582037,
				"element": "C" 
			},
			{
				"x": -2.7647125596,
				"y": 4.9895444617,
				"z": -1.5513575281,
				"element": "C" 
			},
			{
				"x": -1.3517653816,
				"y": 4.6570164467,
				"z": -1.053250973,
				"element": "C" 
			},
			{
				"x": -0.2796028402,
				"y": 5.616819271,
				"z": -1.5888176012,
				"element": "C" 
			},
			{
				"x": 1.1600607018,
				"y": 5.2768546906,
				"z": -1.1676822547,
				"element": "C" 
			},
			{
				"x": 1.4378803959,
				"y": 5.4535926743,
				"z": 0.334880508,
				"element": "C" 
			},
			{
				"x": 2.9067922408,
				"y": 5.2518381844,
				"z": 0.7684870124,
				"element": "C" 
			},
			{
				"x": 3.3119561741,
				"y": 3.8185454315,
				"z": 1.1663828876,
				"element": "C" 
			},
			{
				"x": 3.3076002587,
				"y": 2.7417099802,
				"z": 0.0678080068,
				"element": "C" 
			},
			{
				"x": 4.3122092733,
				"y": 2.9979958225,
				"z": -1.0655616605,
				"element": "C" 
			},
			{
				"x": 4.467807858,
				"y": 1.8364388949,
				"z": -2.0547137304,
				"element": "C" 
			},
			{
				"x": 2.9123671541,
				"y": 1.5935910575,
				"z": -3.0349779097,
				"element": "S" 
			},
			{
				"x": 3.4435936343,
				"y": 0.1134080936,
				"z": -4.3964667833,
				"element": "S" 
			},
			{
				"x": 3.0603693478,
				"y": -1.4569483486,
				"z": -3.4957615222,
				"element": "C" 
			},
			{
				"x": 3.3773503819,
				"y": -2.6482317328,
				"z": -4.4064321186,
				"element": "C" 
			},
			{
				"x": 3.0131047887,
				"y": -4.0088818577,
				"z": -3.7841077096,
				"element": "C" 
			},
			{
				"x": 3.8428950681,
				"y": -4.4003992572,
				"z": -2.5530183556,
				"element": "C" 
			},
			{
				"x": 3.5005865309,
				"y": -5.8023571087,
				"z": -2.0275930163,
				"element": "C" 
			},
			{
				"x": 4.3557528812,
				"y": -6.2757005925,
				"z": -0.8395322131,
				"element": "C" 
			},
			{
				"x": 4.1361811078,
				"y": -5.4877988524,
				"z": 0.4607642743,
				"element": "C" 
			},
			{
				"x": 5.0088442883,
				"y": -5.9514597481,
				"z": 1.6413395721,
				"element": "C" 
			},
			{
				"x": 4.7732857313,
				"y": -7.3931128636,
				"z": 2.1312956028,
				"element": "C" 
			},
			{
				"x": 3.3525044122,
				"y": -7.710088275,
				"z": 2.6303385928,
				"element": "C" 
			},
			{
				"x": 2.9051180796,
				"y": -6.8992143767,
				"z": 3.854945286,
				"element": "C" 
			},
			{
				"x": 1.5243343655,
				"y": -7.3203863898,
				"z": 4.3790716927,
				"element": "C" 
			},
			{
				"x": 1.0603695525,
				"y": -6.5819644191,
				"z": 5.6461277195,
				"element": "C" 
			},
			{
				"x": 0.7924352112,
				"y": -5.0823499846,
				"z": 5.4481256005,
				"element": "C" 
			},
			{
				"x": 0.1454160684,
				"y": -4.3864724028,
				"z": 6.6588658593,
				"element": "C" 
			},
			{
				"x": 0.9448160967,
				"y": -4.3448191375,
				"z": 7.976438794,
				"element": "C" 
			},
			{
				"x": 2.2372557699,
				"y": -3.4996284525,
				"z": 7.9679232546,
				"element": "C" 
			},
			{
				"x": 3.5086557994,
				"y": -4.236585934,
				"z": 7.5252606003,
				"element": "C" 
			},
			{
				"x": -6.7424226731,
				"y": 7.198059025,
				"z": -7.8584431877,
				"element": "H" 
			},
			{
				"x": -5.4168442018,
				"y": 6.0602972281,
				"z": -8.126702427,
				"element": "H" 
			},
			{
				"x": -6.843644762,
				"y": 6.0167195938,
				"z": -9.1709262272,
				"element": "H" 
			},
			{
				"x": -8.2629685807,
				"y": 5.2707494324,
				"z": -7.24601419,
				"element": "H" 
			},
			{
				"x": -6.9457637802,
				"y": 4.1426990277,
				"z": -7.5107720247,
				"element": "H" 
			},
			{
				"x": -5.6372022443,
				"y": 5.2424040705,
				"z": -5.6699345119,
				"element": "H" 
			},
			{
				"x": -6.9601089994,
				"y": 6.3633664004,
				"z": -5.3954071498,
				"element": "H" 
			},
			{
				"x": -7.1360987888,
				"y": 3.3166218015,
				"z": -5.0754217384,
				"element": "H" 
			},
			{
				"x": -8.4850975722,
				"y": 4.421096868,
				"z": -4.8792353916,
				"element": "H" 
			},
			{
				"x": -7.2911179475,
				"y": 5.5535374429,
				"z": -2.9780944506,
				"element": "H" 
			},
			{
				"x": -7.6756631423,
				"y": 3.8677539531,
				"z": -2.6816254492,
				"element": "H" 
			},
			{
				"x": -4.9175182642,
				"y": 4.9240520741,
				"z": -3.4956485497,
				"element": "H" 
			},
			{
				"x": -5.3091048986,
				"y": 3.2283225521,
				"z": -3.2647494137,
				"element": "H" 
			},
			{
				"x": -5.5106703702,
				"y": 5.3983481159,
				"z": -1.1045118132,
				"element": "H" 
			},
			{
				"x": -5.967810126,
				"y": 3.7192455898,
				"z": -0.8821336344,
				"element": "H" 
			},
			{
				"x": -3.7801021471,
				"y": 4.0109208824,
				"z": 0.0773498245,
				"element": "H" 
			},
			{
				"x": -3.6023004848,
				"y": 3.0055375822,
				"z": -1.3494473745,
				"element": "H" 
			},
			{
				"x": -3.0220119988,
				"y": 6.0166113939,
				"z": -1.2533466895,
				"element": "H" 
			},
			{
				"x": -2.7657748845,
				"y": 4.9832703746,
				"z": -2.6492878928,
				"element": "H" 
			},
			{
				"x": -1.3499348671,
				"y": 4.6658081679,
				"z": 0.0449098275,
				"element": "H" 
			},
			{
				"x": -1.0949651677,
				"y": 3.6297321976,
				"z": -1.349813256,
				"element": "H" 
			},
			{
				"x": -0.5177658618,
				"y": 6.6419565483,
				"z": -1.2690838716,
				"element": "H" 
			},
			{
				"x": -0.331205658,
				"y": 5.6226226565,
				"z": -2.685928931,
				"element": "H" 
			},
			{
				"x": 1.3892743396,
				"y": 4.2523138419,
				"z": -1.4857897054,
				"element": "H" 
			},
			{
				"x": 1.8494837465,
				"y": 5.9267498405,
				"z": -1.7239713754,
				"element": "H" 
			},
			{
				"x": 1.1313212965,
				"y": 6.4724141199,
				"z": 0.6092323981,
				"element": "H" 
			},
			{
				"x": 0.796363416,
				"y": 4.7828872654,
				"z": 0.9219428717,
				"element": "H" 
			},
			{
				"x": 3.5751883117,
				"y": 5.6323539818,
				"z": -0.0157922992,
				"element": "H" 
			},
			{
				"x": 3.0965066163,
				"y": 5.8851983683,
				"z": 1.6443015753,
				"element": "H" 
			},
			{
				"x": 2.6476853295,
				"y": 3.4873854648,
				"z": 1.9761826383,
				"element": "H" 
			},
			{
				"x": 4.3197314992,
				"y": 3.8581684063,
				"z": 1.6039324018,
				"element": "H" 
			},
			{
				"x": 2.2986626741,
				"y": 2.6255063676,
				"z": -0.3436897371,
				"element": "H" 
			},
			{
				"x": 3.5501334413,
				"y": 1.7769144892,
				"z": 0.5346089239,
				"element": "H" 
			},
			{
				"x": 5.3037019304,
				"y": 3.182773369,
				"z": -0.6285131875,
				"element": "H" 
			},
			{
				"x": 4.04785584,
				"y": 3.9078428297,
				"z": -1.6172124235,
				"element": "H" 
			},
			{
				"x": 4.6962615135,
				"y": 0.9058561029,
				"z": -1.5257179057,
				"element": "H" 
			},
			{
				"x": 5.2726453933,
				"y": 2.0374692597,
				"z": -2.7658569557,
				"element": "H" 
			},
			{
				"x": 2.0013799303,
				"y": -1.4440143092,
				"z": -3.2222395891,
				"element": "H" 
			},
			{
				"x": 3.6552680436,
				"y": -1.4839623188,
				"z": -2.5796285745,
				"element": "H" 
			},
			{
				"x": 2.8274660192,
				"y": -2.530585292,
				"z": -5.3482944966,
				"element": "H" 
			},
			{
				"x": 4.4441745484,
				"y": -2.6378538196,
				"z": -4.6648819412,
				"element": "H" 
			},
			{
				"x": 3.1388405065,
				"y": -4.7805377673,
				"z": -4.5552558468,
				"element": "H" 
			},
			{
				"x": 1.9455279182,
				"y": -4.0138302843,
				"z": -3.5230234232,
				"element": "H" 
			},
			{
				"x": 4.9114104094,
				"y": -4.3625132127,
				"z": -2.8111530988,
				"element": "H" 
			},
			{
				"x": 3.6945237812,
				"y": -3.6616196103,
				"z": -1.7562914555,
				"element": "H" 
			},
			{
				"x": 2.4384867637,
				"y": -5.8336017053,
				"z": -1.7444329745,
				"element": "H" 
			},
			{
				"x": 3.613495916,
				"y": -6.5210636323,
				"z": -2.8507273981,
				"element": "H" 
			},
			{
				"x": 4.139247583,
				"y": -7.3363896898,
				"z": -0.6619877254,
				"element": "H" 
			},
			{
				"x": 5.4191149908,
				"y": -6.2269010484,
				"z": -1.1165461828,
				"element": "H" 
			},
			{
				"x": 3.0738320337,
				"y": -5.5396959617,
				"z": 0.7368574752,
				"element": "H" 
			},
			{
				"x": 4.3458332086,
				"y": -4.4254555281,
				"z": 0.2840412838,
				"element": "H" 
			},
			{
				"x": 4.8627902585,
				"y": -5.2566222566,
				"z": 2.4779458625,
				"element": "H" 
			},
			{
				"x": 6.0655394991,
				"y": -5.85384357,
				"z": 1.3565225569,
				"element": "H" 
			},
			{
				"x": 5.4848357707,
				"y": -7.5986947486,
				"z": 2.9427887963,
				"element": "H" 
			},
			{
				"x": 5.0285167935,
				"y": -8.097111971,
				"z": 1.329191514,
				"element": "H" 
			},
			{
				"x": 3.3058404403,
				"y": -8.7790972518,
				"z": 2.8794038338,
				"element": "H" 
			},
			{
				"x": 2.6284024111,
				"y": -7.56450723,
				"z": 1.8169731232,
				"element": "H" 
			},
			{
				"x": 2.8946597626,
				"y": -5.831032977,
				"z": 3.6061838742,
				"element": "H" 
			},
			{
				"x": 3.6476683604,
				"y": -7.0183736346,
				"z": 4.6579124595,
				"element": "H" 
			},
			{
				"x": 0.7772754808,
				"y": -7.1790115553,
				"z": 3.584437098,
				"element": "H" 
			},
			{
				"x": 1.5423769144,
				"y": -8.3990902325,
				"z": 4.5867233933,
				"element": "H" 
			},
			{
				"x": 1.8064639929,
				"y": -6.7288951504,
				"z": 6.4383090237,
				"element": "H" 
			},
			{
				"x": 0.1374668064,
				"y": -7.0552838936,
				"z": 6.0094489228,
				"element": "H" 
			},
			{
				"x": 1.7182280595,
				"y": -4.5639252811,
				"z": 5.1723717768,
				"element": "H" 
			},
			{
				"x": 0.1180674215,
				"y": -4.9606958058,
				"z": 4.5884696529,
				"element": "H" 
			},
			{
				"x": -0.8166904769,
				"y": -4.8779258344,
				"z": 6.8615409788,
				"element": "H" 
			},
			{
				"x": -0.1006666662,
				"y": -3.3534888452,
				"z": 6.3761526134,
				"element": "H" 
			},
			{
				"x": 0.2719930801,
				"y": -3.9332596982,
				"z": 8.739661918,
				"element": "H" 
			},
			{
				"x": 1.1782879334,
				"y": -5.3643358913,
				"z": 8.3117798707,
				"element": "H" 
			},
			{
				"x": 2.4073880147,
				"y": -3.1165085826,
				"z": 8.9821873758,
				"element": "H" 
			},
			{
				"x": 2.0851334045,
				"y": -2.6121706399,
				"z": 7.3379364639,
				"element": "H" 
			},
			{
				"x": 3.6984100774,
				"y": -5.1052194793,
				"z": 8.1665494286,
				"element": "H" 
			},
			{
				"x": 3.4463114712,
				"y": -4.5970107594,
				"z": 6.4946720109,
				"element": "H" 
			},
			{
				"x": 4.384150439,
				"y": -3.5813572602,
				"z": 7.5919392915,
				"element": "H" 
			}
		],
		 "valence_orbital": [ 
			{
				"type": "occ",
				"energy": -0.29648,
				"method": "rhf"
			},
			{
				"type": "occ",
				"energy": -0.29506,
				"method": "rhf"
			},
			{
				"type": "occ",
				"energy": -0.29019,
				"method": "rhf"
			},
			{
				"type": "occ",
				"energy": -0.23301,
				"method": "rhf"
			},
			{
				"type": "occ",
				"energy": -0.22964,
				"method": "rhf"
			},
			{
				"type": "unocc",
				"energy": -0.01842,
				"method": "rhf"
			},
			{
				"type": "unocc",
				"energy": 0.04405,
				"method": "rhf"
			},
			{
				"type": "unocc",
				"energy": 0.0494,
				"method": "rhf"
			},
			{
				"type": "unocc",
				"energy": 0.07443,
				"method": "rhf"
			},
			{
				"type": "unocc",
				"energy": 0.08089,
				"method": "rhf"
			}
		],
		"cosmo_sigma_profile": { 
			"-0.025": 0.0,
			"-0.024": 0.0,
			"-0.023": 0.0,
			"-0.022": 0.0,
			"-0.021": 0.0,
			"-0.02": 0.0,
			"-0.019": 0.0,
			"-0.018": 0.0,
			"-0.017": 0.0,
			"-0.016": 0.0,
			"-0.015": 0.0,
			"-0.014": 0.0,
			"-0.013": 0.0,
			"-0.012": 0.0,
			"-0.011": 0.0,
			"-0.01": 0.0,
			"-0.009": 0.0,
			"-0.008": 0.0,
			"-0.007": 0.0,
			"-0.006": 0.0,
			"-0.005": 4.50701573875,
			"-0.004": 10.8207854937,
			"-0.003": 22.4907567008,
			"-0.002": 104.54976063,
			"-0.001": 202.41915114,
			"0.0": 209.013041001,
			"0.001": 162.554714482,
			"0.002": 71.9859652942,
			"0.003": 9.22312790432,
			"0.004": 7.42334774276,
			"0.005": 8.19125811153,
			"0.006": 6.26459997408,
			"0.007": 4.15941807553,
			"0.008": 4.7737098082,
			"0.009": 3.06941663623,
			"0.01": 0.606304173642,
			"0.011": 0.0,
			"0.012": 0.0,
			"0.013": 0.0,
			"0.014": 0.0,
			"0.015": 0.0,
			"0.016": 0.0,
			"0.017": 0.0,
			"0.018": 0.0,
			"0.019": 0.0,
			"0.02": 0.0,
			"0.021": 0.0,
			"0.022": 0.0,
			"0.023": 0.0,
			"0.024": 0.0,
			"0.025": 0.0
		}
	}
}
