{
	 "smiles": "CC(=O)NC1=C(Cl)C=C(C=C1)S(Cl)(=O)=O", 
	 "Tm": 417.15, 
	 "num_atms": 22, 
	 "gaussian": { 
		 "optdone": 1, 
		 "sigma_profile": "yes", 
		 "theory": "DFT", 
		 "functional": "B3LYP", 
		 "basiset": "6-31G**", 
		 "properties": { 
			 "R2extent": 6177.143, 
			 "electric_dipole_moment_norm": 3.19592680924, 
			 "electric_quadrupole_moment_norm": 25.3691907904, 
			 "total_energy": -1908.00949445, 
			 "HOMO_LUMO_gap": 0.16363, 
			 "cosmo_polarized_energy": -15.49, 
			 "cosmo_cavitation_energy": 32.03, 
			 "cosmo_dispersion_energy": -23.74, 
			 "cosmo_repulsion_energy": 1.83, 
			 "cosmo_total_nonelectrostatic_energy": 10.12, 
			 "SMD_solvation_energy": 4.73 
		},
		"coords": [
			{
				"x": 3.4131437882,
				"y": -0.24696456,
				"z": 0.0648850283,
				"element": "C" 
			},
			{
				"x": 3.0587014275,
				"y": 0.9386928899,
				"z": 0.9364912946,
				"element": "C" 
			},
			{
				"x": 3.8418372609,
				"y": 1.4120028644,
				"z": 1.7396528216,
				"element": "O" 
			},
			{
				"x": 1.7789867217,
				"y": 1.5040337887,
				"z": 0.8575329005,
				"element": "N" 
			},
			{
				"x": 0.6650099444,
				"y": 1.2355179339,
				"z": 0.0718797008,
				"element": "C" 
			},
			{
				"x": -0.623254335,
				"y": 1.5528118665,
				"z": 0.5720319482,
				"element": "C" 
			},
			{
				"x": -0.787487886,
				"y": 2.2566556172,
				"z": 2.1696716721,
				"element": "Cl" 
			},
			{
				"x": -1.7723844996,
				"y": 1.3252356411,
				"z": -0.1711320373,
				"element": "C" 
			},
			{
				"x": -1.6444450879,
				"y": 0.7703827141,
				"z": -1.4442176494,
				"element": "C" 
			},
			{
				"x": -0.3965998314,
				"y": 0.4638200412,
				"z": -1.9853597686,
				"element": "C" 
			},
			{
				"x": 0.7443007251,
				"y": 0.7119794291,
				"z": -1.2339411558,
				"element": "C" 
			},
			{
				"x": -3.1126317005,
				"y": 0.4746125354,
				"z": -2.4054174956,
				"element": "S" 
			},
			{
				"x": -3.5958250963,
				"y": -1.5263598892,
				"z": -1.8408836294,
				"element": "Cl" 
			},
			{
				"x": -4.1951948673,
				"y": 1.3088606838,
				"z": -1.9000367761,
				"element": "O" 
			},
			{
				"x": -2.7564017452,
				"y": 0.4193221997,
				"z": -3.8174214264,
				"element": "O" 
			},
			{
				"x": 3.7478834683,
				"y": 0.0884556412,
				"z": -0.9227099931,
				"element": "H" 
			},
			{
				"x": 2.5808870571,
				"y": -0.9418186847,
				"z": -0.0691994611,
				"element": "H" 
			},
			{
				"x": 4.2491952526,
				"y": -0.7559842473,
				"z": 0.5448239251,
				"element": "H" 
			},
			{
				"x": 1.6385958689,
				"y": 2.1688567193,
				"z": 1.6108515093,
				"element": "H" 
			},
			{
				"x": -2.7467035715,
				"y": 1.5764872702,
				"z": 0.2306628899,
				"element": "H" 
			},
			{
				"x": -0.3194734786,
				"y": 0.0673435043,
				"z": -2.9911922394,
				"element": "H" 
			},
			{
				"x": 1.7128605845,
				"y": 0.5274560414,
				"z": -1.6769720582,
				"element": "H" 
			}
		],
		 "valence_orbital": [ 
			{
				"type": "occ",
				"energy": -0.33058,
				"method": "rhf"
			},
			{
				"type": "occ",
				"energy": -0.31925,
				"method": "rhf"
			},
			{
				"type": "occ",
				"energy": -0.29405,
				"method": "rhf"
			},
			{
				"type": "occ",
				"energy": -0.2836,
				"method": "rhf"
			},
			{
				"type": "occ",
				"energy": -0.26212,
				"method": "rhf"
			},
			{
				"type": "unocc",
				"energy": -0.09849,
				"method": "rhf"
			},
			{
				"type": "unocc",
				"energy": -0.05803,
				"method": "rhf"
			},
			{
				"type": "unocc",
				"energy": -0.05565,
				"method": "rhf"
			},
			{
				"type": "unocc",
				"energy": -0.00705,
				"method": "rhf"
			},
			{
				"type": "unocc",
				"energy": -0.00091,
				"method": "rhf"
			}
		],
		"cosmo_sigma_profile": { 
			"-0.025": 0.0,
			"-0.024": 0.0,
			"-0.023": 0.0,
			"-0.022": 0.0,
			"-0.021": 0.0,
			"-0.02": 0.0,
			"-0.019": 0.0,
			"-0.018": 0.0,
			"-0.017": 0.0,
			"-0.016": 0.0,
			"-0.015": 0.0,
			"-0.014": 0.0,
			"-0.013": 0.00445431419269,
			"-0.012": 0.46841685229,
			"-0.011": 0.964070375789,
			"-0.01": 2.71665675119,
			"-0.009": 6.05799198696,
			"-0.008": 7.14671012276,
			"-0.007": 7.58068807745,
			"-0.006": 12.9893623244,
			"-0.005": 13.1648972159,
			"-0.004": 14.7253283142,
			"-0.003": 17.0563146033,
			"-0.002": 23.7751985783,
			"-0.001": 28.0585363179,
			"0.0": 21.1746064923,
			"0.001": 13.5228021738,
			"0.002": 15.0809771217,
			"0.003": 21.3214200394,
			"0.004": 11.2538771207,
			"0.005": 3.93332264167,
			"0.006": 5.37920071069,
			"0.007": 7.59902119909,
			"0.008": 10.7110059628,
			"0.009": 4.75747164144,
			"0.01": 1.55118366207,
			"0.011": 3.02865429819,
			"0.012": 5.20672488885,
			"0.013": 2.4672275663,
			"0.014": 0.247911946542,
			"0.015": 0.0,
			"0.016": 0.0,
			"0.017": 0.0,
			"0.018": 0.0,
			"0.019": 0.0,
			"0.02": 0.0,
			"0.021": 0.0,
			"0.022": 0.0,
			"0.023": 0.0,
			"0.024": 0.0,
			"0.025": 0.0
		}
	}
}
