{
	 "smiles": "BrCCN1C(=O)C2=C(C=CC=C2)S1(=O)=O", 
	 "Tm": 368.15, 
	 "num_atms": 23, 
	 "gaussian": { 
		 "optdone": 1, 
		 "sigma_profile": "yes", 
		 "theory": "DFT", 
		 "functional": "B3LYP", 
		 "basiset": "6-31G**", 
		 "properties": { 
			 "R2extent": 5355.5349, 
			 "electric_dipole_moment_norm": 3.69742592218, 
			 "electric_quadrupole_moment_norm": 22.4579842379, 
			 "total_energy": -3597.73269197, 
			 "HOMO_LUMO_gap": 0.1919, 
			 "cosmo_polarized_energy": -16.5, 
			 "cosmo_cavitation_energy": 31.03, 
			 "cosmo_dispersion_energy": -22.73, 
			 "cosmo_repulsion_energy": 1.72, 
			 "cosmo_total_nonelectrostatic_energy": 10.02, 
			 "SMD_solvation_energy": 3.71 
		},
		"coords": [
			{
				"x": -3.2109096142,
				"y": 1.6471873427,
				"z": 2.4859198955,
				"element": "Br" 
			},
			{
				"x": -2.9300007001,
				"y": 1.7958533995,
				"z": 0.5392497024,
				"element": "C" 
			},
			{
				"x": -1.4986789584,
				"y": 2.1856090637,
				"z": 0.1869484663,
				"element": "C" 
			},
			{
				"x": -0.5070261834,
				"y": 1.1725481632,
				"z": 0.5302764259,
				"element": "N" 
			},
			{
				"x": 0.5032514879,
				"y": 1.3734616736,
				"z": 1.4728872184,
				"element": "C" 
			},
			{
				"x": 0.6149530939,
				"y": 2.3671109023,
				"z": 2.1635623695,
				"element": "O" 
			},
			{
				"x": 1.4108302592,
				"y": 0.1899259796,
				"z": 1.4695276859,
				"element": "C" 
			},
			{
				"x": 1.0913640739,
				"y": -0.7670594109,
				"z": 0.5090660514,
				"element": "C" 
			},
			{
				"x": 1.8184009582,
				"y": -1.938591839,
				"z": 0.3485678204,
				"element": "C" 
			},
			{
				"x": 2.9117470228,
				"y": -2.1313279207,
				"z": 1.1999714973,
				"element": "C" 
			},
			{
				"x": 3.2484652414,
				"y": -1.1774205243,
				"z": 2.1687253058,
				"element": "C" 
			},
			{
				"x": 2.5007652679,
				"y": -0.0062871347,
				"z": 2.3126419379,
				"element": "C" 
			},
			{
				"x": -0.3376173697,
				"y": -0.2513934942,
				"z": -0.426892915,
				"element": "S" 
			},
			{
				"x": 0.0064519924,
				"y": 0.1365907457,
				"z": -1.7964028291,
				"element": "O" 
			},
			{
				"x": -1.4796966652,
				"y": -1.139940997,
				"z": -0.2082293169,
				"element": "O" 
			},
			{
				"x": -3.6228797876,
				"y": 2.5621384417,
				"z": 0.1915655299,
				"element": "H" 
			},
			{
				"x": -3.2052854032,
				"y": 0.8270292631,
				"z": 0.1259341241,
				"element": "H" 
			},
			{
				"x": -1.194260382,
				"y": 3.0914910377,
				"z": 0.7162650366,
				"element": "H" 
			},
			{
				"x": -1.4447206477,
				"y": 2.3783575066,
				"z": -0.8929342547,
				"element": "H" 
			},
			{
				"x": 1.5523266525,
				"y": -2.6739359542,
				"z": -0.4030900167,
				"element": "H" 
			},
			{
				"x": 3.5061491547,
				"y": -3.0347700792,
				"z": 1.1061690666,
				"element": "H" 
			},
			{
				"x": 4.1018035406,
				"y": -1.3529439943,
				"z": 2.8162775208,
				"element": "H" 
			},
			{
				"x": 2.7442669662,
				"y": 0.7440678292,
				"z": 3.0572936777,
				"element": "H" 
			}
		],
		 "valence_orbital": [ 
			{
				"type": "occ",
				"energy": -0.29111,
				"method": "rhf"
			},
			{
				"type": "occ",
				"energy": -0.28807,
				"method": "rhf"
			},
			{
				"type": "occ",
				"energy": -0.2836,
				"method": "rhf"
			},
			{
				"type": "occ",
				"energy": -0.27375,
				"method": "rhf"
			},
			{
				"type": "occ",
				"energy": -0.26994,
				"method": "rhf"
			},
			{
				"type": "unocc",
				"energy": -0.07804,
				"method": "rhf"
			},
			{
				"type": "unocc",
				"energy": -0.05312,
				"method": "rhf"
			},
			{
				"type": "unocc",
				"energy": 0.00011,
				"method": "rhf"
			},
			{
				"type": "unocc",
				"energy": 0.02687,
				"method": "rhf"
			},
			{
				"type": "unocc",
				"energy": 0.02912,
				"method": "rhf"
			}
		],
		"cosmo_sigma_profile": { 
			"-0.025": 0.0,
			"-0.024": 0.0,
			"-0.023": 0.0,
			"-0.022": 0.0,
			"-0.021": 0.0,
			"-0.02": 0.0,
			"-0.019": 0.0,
			"-0.018": 0.0,
			"-0.017": 0.0,
			"-0.016": 0.0,
			"-0.015": 0.0,
			"-0.014": 0.0,
			"-0.013": 0.0,
			"-0.012": 0.0,
			"-0.011": 0.0770003463992,
			"-0.01": 1.27140600989,
			"-0.009": 4.42894442628,
			"-0.008": 15.9234771881,
			"-0.007": 16.8365860447,
			"-0.006": 16.5033411801,
			"-0.005": 14.3818954698,
			"-0.004": 12.2262825578,
			"-0.003": 11.1784412014,
			"-0.002": 13.6763220901,
			"-0.001": 16.0849583573,
			"0.0": 19.7552018765,
			"0.001": 17.982203205,
			"0.002": 10.6720025075,
			"0.003": 7.58311421905,
			"0.004": 9.20390178209,
			"0.005": 12.4023185619,
			"0.006": 12.625890522,
			"0.007": 5.28403222227,
			"0.008": 6.29740343823,
			"0.009": 12.4156775834,
			"0.01": 9.93431153514,
			"0.011": 5.18714611338,
			"0.012": 0.304443124713,
			"0.013": 0.0,
			"0.014": 0.0,
			"0.015": 0.0,
			"0.016": 0.0,
			"0.017": 0.0,
			"0.018": 0.0,
			"0.019": 0.0,
			"0.02": 0.0,
			"0.021": 0.0,
			"0.022": 0.0,
			"0.023": 0.0,
			"0.024": 0.0,
			"0.025": 0.0
		}
	}
}
