{
	 "smiles": "ClC(Cl)(Cl)C(=O)NC1=CC2=NN(N=C2C=C1)C1CCCC1", 
	 "Tm": 409.15, 
	 "num_atms": 34, 
	 "gaussian": { 
		 "optdone": 1, 
		 "sigma_profile": "yes", 
		 "theory": "DFT", 
		 "functional": "B3LYP", 
		 "basiset": "6-31G**", 
		 "properties": { 
			 "R2extent": 12090.5478, 
			 "electric_dipole_moment_norm": 5.22601839836, 
			 "electric_quadrupole_moment_norm": 21.7080971386, 
			 "total_energy": -2177.98202232, 
			 "HOMO_LUMO_gap": 0.18043, 
			 "cosmo_polarized_energy": -13.05, 
			 "cosmo_cavitation_energy": 42.32, 
			 "cosmo_dispersion_energy": -30.17, 
			 "cosmo_repulsion_energy": 2.33, 
			 "cosmo_total_nonelectrostatic_energy": 14.48, 
			 "SMD_solvation_energy": 4.15 
		},
		"coords": [
			{
				"x": 1.0064490755,
				"y": 2.0108257445,
				"z": -4.1216465103,
				"element": "Cl" 
			},
			{
				"x": 2.1151606578,
				"y": 0.6374750417,
				"z": -4.5134201192,
				"element": "C" 
			},
			{
				"x": 3.4066165464,
				"y": 0.5131890978,
				"z": -3.2643344831,
				"element": "Cl" 
			},
			{
				"x": 2.8828540434,
				"y": 0.9589794015,
				"z": -6.0902187531,
				"element": "Cl" 
			},
			{
				"x": 1.2696294349,
				"y": -0.6886708461,
				"z": -4.61162472,
				"element": "C" 
			},
			{
				"x": 1.0736124399,
				"y": -1.1859083982,
				"z": -5.7021328948,
				"element": "O" 
			},
			{
				"x": 0.7545128104,
				"y": -1.2422917656,
				"z": -3.4714284157,
				"element": "N" 
			},
			{
				"x": 0.8292092449,
				"y": -0.9230362987,
				"z": -2.0717057893,
				"element": "C" 
			},
			{
				"x": 0.0013218202,
				"y": 0.0385430903,
				"z": -1.5305383615,
				"element": "C" 
			},
			{
				"x": 0.086274211,
				"y": 0.238875938,
				"z": -0.1352321428,
				"element": "C" 
			},
			{
				"x": -0.5802155592,
				"y": 1.1016568136,
				"z": 0.6672183368,
				"element": "N" 
			},
			{
				"x": -0.0966307396,
				"y": 0.8189976909,
				"z": 1.8703530178,
				"element": "N" 
			},
			{
				"x": 0.8208137461,
				"y": -0.1383596417,
				"z": 1.9593500329,
				"element": "N" 
			},
			{
				"x": 0.9617716349,
				"y": -0.5396270328,
				"z": 0.6745955087,
				"element": "C" 
			},
			{
				"x": 1.7818453554,
				"y": -1.5398894545,
				"z": 0.104105687,
				"element": "C" 
			},
			{
				"x": 1.7028637002,
				"y": -1.7131861075,
				"z": -1.2585795078,
				"element": "C" 
			},
			{
				"x": -0.5341449368,
				"y": 1.5566081709,
				"z": 3.0643424663,
				"element": "C" 
			},
			{
				"x": -2.0694632383,
				"y": 1.4336316034,
				"z": 3.2883370182,
				"element": "C" 
			},
			{
				"x": -2.549579108,
				"y": 2.8637729089,
				"z": 3.6014669439,
				"element": "C" 
			},
			{
				"x": -1.6145100368,
				"y": 3.7466388405,
				"z": 2.7598775726,
				"element": "C" 
			},
			{
				"x": -0.2408918845,
				"y": 3.0813112181,
				"z": 2.9513404376,
				"element": "C" 
			},
			{
				"x": 0.2597409538,
				"y": -2.0961741089,
				"z": -3.706165394,
				"element": "H" 
			},
			{
				"x": -0.6814051267,
				"y": 0.6101745156,
				"z": -2.1461902013,
				"element": "H" 
			},
			{
				"x": 2.4450365972,
				"y": -2.1388262427,
				"z": 0.7185163754,
				"element": "H" 
			},
			{
				"x": 2.3187711928,
				"y": -2.4573468485,
				"z": -1.7530609053,
				"element": "H" 
			},
			{
				"x": 0.0384161221,
				"y": 1.0974664147,
				"z": 3.8699711904,
				"element": "H" 
			},
			{
				"x": -2.3092181871,
				"y": 0.7103298447,
				"z": 4.0725116064,
				"element": "H" 
			},
			{
				"x": -2.5288300387,
				"y": 1.0839527156,
				"z": 2.3596410408,
				"element": "H" 
			},
			{
				"x": -2.4164330849,
				"y": 3.0873813239,
				"z": 4.6676907537,
				"element": "H" 
			},
			{
				"x": -3.6090198303,
				"y": 3.0063153756,
				"z": 3.3684758181,
				"element": "H" 
			},
			{
				"x": -1.9061020227,
				"y": 3.698479652,
				"z": 1.7047705753,
				"element": "H" 
			},
			{
				"x": -1.6202480751,
				"y": 4.7979947646,
				"z": 3.0628924437,
				"element": "H" 
			},
			{
				"x": 0.2102230778,
				"y": 3.4155525402,
				"z": 3.8923228569,
				"element": "H" 
			},
			{
				"x": 0.4695692039,
				"y": 3.299164038,
				"z": 2.1506985157,
				"element": "H" 
			}
		],
		 "valence_orbital": [ 
			{
				"type": "occ",
				"energy": -0.30428,
				"method": "rhf"
			},
			{
				"type": "occ",
				"energy": -0.28556,
				"method": "rhf"
			},
			{
				"type": "occ",
				"energy": -0.28005,
				"method": "rhf"
			},
			{
				"type": "occ",
				"energy": -0.25641,
				"method": "rhf"
			},
			{
				"type": "occ",
				"energy": -0.24064,
				"method": "rhf"
			},
			{
				"type": "unocc",
				"energy": -0.06021,
				"method": "rhf"
			},
			{
				"type": "unocc",
				"energy": -0.04313,
				"method": "rhf"
			},
			{
				"type": "unocc",
				"energy": -0.03909,
				"method": "rhf"
			},
			{
				"type": "unocc",
				"energy": -0.00158,
				"method": "rhf"
			},
			{
				"type": "unocc",
				"energy": 0.00473,
				"method": "rhf"
			}
		],
		"cosmo_sigma_profile": { 
			"-0.025": 0.0,
			"-0.024": 0.0,
			"-0.023": 0.0,
			"-0.022": 0.0,
			"-0.021": 0.0,
			"-0.02": 0.0,
			"-0.019": 0.0,
			"-0.018": 0.0,
			"-0.017": 0.0,
			"-0.016": 0.361813191502,
			"-0.015": 0.902905284667,
			"-0.014": 1.31245251093,
			"-0.013": 0.686283349941,
			"-0.012": 1.07283019737,
			"-0.011": 1.03171465879,
			"-0.01": 0.669283253928,
			"-0.009": 0.993049650712,
			"-0.008": 0.887158970744,
			"-0.007": 5.78103998624,
			"-0.006": 9.40581112641,
			"-0.005": 12.6565565232,
			"-0.004": 22.4533425768,
			"-0.003": 31.579320256,
			"-0.002": 35.8547831303,
			"-0.001": 37.2052574119,
			"0.0": 36.2229553351,
			"0.001": 31.1024783492,
			"0.002": 38.3483119869,
			"0.003": 29.8499947913,
			"0.004": 6.1736073479,
			"0.005": 5.28205833088,
			"0.006": 4.07086228949,
			"0.007": 4.16015344049,
			"0.008": 3.26627336262,
			"0.009": 4.47096791756,
			"0.01": 4.64238536541,
			"0.011": 7.50518495292,
			"0.012": 3.16709000083,
			"0.013": 0.629410856668,
			"0.014": 0.405834985491,
			"0.015": 0.0,
			"0.016": 0.0,
			"0.017": 0.0,
			"0.018": 0.0,
			"0.019": 0.0,
			"0.02": 0.0,
			"0.021": 0.0,
			"0.022": 0.0,
			"0.023": 0.0,
			"0.024": 0.0,
			"0.025": 0.0
		}
	}
}
