{
	 "smiles": "BrC1=CC2=C(C=C1)C(=O)CC2", 
	 "Tm": 400.15, 
	 "num_atms": 18, 
	 "gaussian": { 
		 "optdone": 1, 
		 "sigma_profile": "yes", 
		 "theory": "DFT", 
		 "functional": "B3LYP", 
		 "basiset": "6-31G**", 
		 "properties": { 
			 "R2extent": 4585.0572, 
			 "electric_dipole_moment_norm": 2.37195414795, 
			 "electric_quadrupole_moment_norm": 12.1316801367, 
			 "total_energy": -2993.81304061, 
			 "HOMO_LUMO_gap": 0.18405, 
			 "cosmo_polarized_energy": -8.35, 
			 "cosmo_cavitation_energy": 24.22, 
			 "cosmo_dispersion_energy": -18.49, 
			 "cosmo_repulsion_energy": 1.49, 
			 "cosmo_total_nonelectrostatic_energy": 7.22, 
			 "SMD_solvation_energy": 3.17 
		},
		"coords": [
			{
				"x": 1.686680808,
				"y": 0.8929531825,
				"z": -4.0937594502,
				"element": "Br" 
			},
			{
				"x": 1.1611663218,
				"y": 1.2191458819,
				"z": -2.2861539869,
				"element": "C" 
			},
			{
				"x": 1.9959498912,
				"y": 0.7888237626,
				"z": -1.2544578845,
				"element": "C" 
			},
			{
				"x": 1.5921399478,
				"y": 1.0377546523,
				"z": 0.0572296367,
				"element": "C" 
			},
			{
				"x": 0.3853858134,
				"y": 1.698960095,
				"z": 0.3046093668,
				"element": "C" 
			},
			{
				"x": -0.4438289187,
				"y": 2.1260611933,
				"z": -0.735914183,
				"element": "C" 
			},
			{
				"x": -0.0513213572,
				"y": 1.8832768142,
				"z": -2.0479306737,
				"element": "C" 
			},
			{
				"x": 0.170602228,
				"y": 1.8484264538,
				"z": 1.7637760074,
				"element": "C" 
			},
			{
				"x": -0.7786664346,
				"y": 2.3767515245,
				"z": 2.3104371418,
				"element": "O" 
			},
			{
				"x": 1.3792522961,
				"y": 1.2080787,
				"z": 2.468207105,
				"element": "C" 
			},
			{
				"x": 2.3069907849,
				"y": 0.6784841476,
				"z": 1.3472729741,
				"element": "C" 
			},
			{
				"x": 2.9261455742,
				"y": 0.2783876726,
				"z": -1.4799874137,
				"element": "H" 
			},
			{
				"x": -1.3753281939,
				"y": 2.6371720198,
				"z": -0.5115042543,
				"element": "H" 
			},
			{
				"x": -0.6652709441,
				"y": 2.1980089547,
				"z": -2.8837273757,
				"element": "H" 
			},
			{
				"x": 1.0242449049,
				"y": 0.417416885,
				"z": 3.1368325557,
				"element": "H" 
			},
			{
				"x": 1.8617901999,
				"y": 1.9592924515,
				"z": 3.1015213162,
				"element": "H" 
			},
			{
				"x": 3.3010379643,
				"y": 1.1381970719,
				"z": 1.3841555559,
				"element": "H" 
			},
			{
				"x": 2.463029114,
				"y": -0.4037914631,
				"z": 1.4190935625,
				"element": "H" 
			}
		],
		 "valence_orbital": [ 
			{
				"type": "occ",
				"energy": -0.31408,
				"method": "rhf"
			},
			{
				"type": "occ",
				"energy": -0.29569,
				"method": "rhf"
			},
			{
				"type": "occ",
				"energy": -0.26963,
				"method": "rhf"
			},
			{
				"type": "occ",
				"energy": -0.25255,
				"method": "rhf"
			},
			{
				"type": "occ",
				"energy": -0.24689,
				"method": "rhf"
			},
			{
				"type": "unocc",
				"energy": -0.06284,
				"method": "rhf"
			},
			{
				"type": "unocc",
				"energy": -0.02496,
				"method": "rhf"
			},
			{
				"type": "unocc",
				"energy": -0.00127,
				"method": "rhf"
			},
			{
				"type": "unocc",
				"energy": 0.03472,
				"method": "rhf"
			},
			{
				"type": "unocc",
				"energy": 0.09254,
				"method": "rhf"
			}
		],
		"cosmo_sigma_profile": { 
			"-0.025": 0.0,
			"-0.024": 0.0,
			"-0.023": 0.0,
			"-0.022": 0.0,
			"-0.021": 0.0,
			"-0.02": 0.0,
			"-0.019": 0.0,
			"-0.018": 0.0,
			"-0.017": 0.0,
			"-0.016": 0.0,
			"-0.015": 0.0,
			"-0.014": 0.0,
			"-0.013": 0.0,
			"-0.012": 0.0,
			"-0.011": 0.0,
			"-0.01": 0.0,
			"-0.009": 0.0,
			"-0.008": 0.768732976575,
			"-0.007": 4.81613372259,
			"-0.006": 9.41503211689,
			"-0.005": 18.3991476998,
			"-0.004": 20.4001205894,
			"-0.003": 16.4000592242,
			"-0.002": 14.0324613354,
			"-0.001": 13.0108252166,
			"0.0": 13.3077548225,
			"0.001": 18.1277931818,
			"0.002": 21.7297119795,
			"0.003": 11.6878188533,
			"0.004": 12.9802841059,
			"0.005": 3.07480066396,
			"0.006": 0.990110766603,
			"0.007": 2.06670473944,
			"0.008": 1.79848734943,
			"0.009": 1.73188685721,
			"0.01": 1.45665739787,
			"0.011": 3.26734477756,
			"0.012": 4.98580859607,
			"0.013": 2.36695233225,
			"0.014": 0.286522796119,
			"0.015": 0.0,
			"0.016": 0.0,
			"0.017": 0.0,
			"0.018": 0.0,
			"0.019": 0.0,
			"0.02": 0.0,
			"0.021": 0.0,
			"0.022": 0.0,
			"0.023": 0.0,
			"0.024": 0.0,
			"0.025": 0.0
		}
	}
}
