{
	 "smiles": "OC(=O)C1C2CC(C=C2)C1NC(=O)OCC1=CC=CC=C1", 
	 "Tm": 394.15, 
	 "num_atms": 38, 
	 "gaussian": { 
		 "optdone": 1, 
		 "sigma_profile": "yes", 
		 "theory": "DFT", 
		 "functional": "B3LYP", 
		 "basiset": "6-31G**", 
		 "properties": { 
			 "R2extent": 8277.9522, 
			 "electric_dipole_moment_norm": 2.26338908277, 
			 "electric_quadrupole_moment_norm": 11.0093617844, 
			 "total_energy": -975.59423948, 
			 "HOMO_LUMO_gap": 0.23227, 
			 "cosmo_polarized_energy": -15.17, 
			 "cosmo_cavitation_energy": 40.65, 
			 "cosmo_dispersion_energy": -28.98, 
			 "cosmo_repulsion_energy": 2.24, 
			 "cosmo_total_nonelectrostatic_energy": 13.9, 
			 "SMD_solvation_energy": 7.67 
		},
		"coords": [
			{
				"x": 3.2402697899,
				"y": 0.8185067937,
				"z": -0.7392948178,
				"element": "O" 
			},
			{
				"x": 3.414020702,
				"y": 0.6563211527,
				"z": 0.6062848139,
				"element": "C" 
			},
			{
				"x": 4.4331144385,
				"y": 0.1892684928,
				"z": 1.060147088,
				"element": "O" 
			},
			{
				"x": 2.2228543233,
				"y": 1.1682560625,
				"z": 1.3942154677,
				"element": "C" 
			},
			{
				"x": 2.4472216477,
				"y": 1.0031548515,
				"z": 2.9352170685,
				"element": "C" 
			},
			{
				"x": 1.9233593264,
				"y": -0.4377794095,
				"z": 3.1361916672,
				"element": "C" 
			},
			{
				"x": 0.5135347826,
				"y": -0.1058463441,
				"z": 2.6025933829,
				"element": "C" 
			},
			{
				"x": 0.1916352059,
				"y": 1.1384859759,
				"z": 3.4183883421,
				"element": "C" 
			},
			{
				"x": 1.3397690856,
				"y": 1.8004393688,
				"z": 3.6129678732,
				"element": "C" 
			},
			{
				"x": 0.847596642,
				"y": 0.4157874254,
				"z": 1.155316659,
				"element": "C" 
			},
			{
				"x": 0.9575441756,
				"y": -0.6662684613,
				"z": 0.1787897428,
				"element": "N" 
			},
			{
				"x": -0.155721153,
				"y": -1.3711787094,
				"z": -0.1907737657,
				"element": "C" 
			},
			{
				"x": -1.2303633924,
				"y": -1.3613603039,
				"z": 0.3887980559,
				"element": "O" 
			},
			{
				"x": 0.1239279937,
				"y": -2.1134616841,
				"z": -1.2967865389,
				"element": "O" 
			},
			{
				"x": -0.9588982247,
				"y": -2.9319965029,
				"z": -1.8082996098,
				"element": "C" 
			},
			{
				"x": -1.7373270448,
				"y": -2.2251627603,
				"z": -2.8915304522,
				"element": "C" 
			},
			{
				"x": -2.7572563119,
				"y": -1.3209470544,
				"z": -2.5605414153,
				"element": "C" 
			},
			{
				"x": -3.4678293396,
				"y": -0.6624313972,
				"z": -3.5638877725,
				"element": "C" 
			},
			{
				"x": -3.1706869986,
				"y": -0.9007217059,
				"z": -4.9082029042,
				"element": "C" 
			},
			{
				"x": -2.1581646323,
				"y": -1.8000378214,
				"z": -5.2461328623,
				"element": "C" 
			},
			{
				"x": -1.4460205987,
				"y": -2.4566757781,
				"z": -4.2410944952,
				"element": "C" 
			},
			{
				"x": 4.0576427005,
				"y": 0.4956895331,
				"z": -1.1568351875,
				"element": "H" 
			},
			{
				"x": 2.1076446395,
				"y": 2.2189714162,
				"z": 1.1082245276,
				"element": "H" 
			},
			{
				"x": 3.4711100868,
				"y": 1.213650923,
				"z": 3.2427369554,
				"element": "H" 
			},
			{
				"x": 2.4575805258,
				"y": -1.1823046848,
				"z": 2.5388368726,
				"element": "H" 
			},
			{
				"x": 1.9172573648,
				"y": -0.741294163,
				"z": 4.1860130888,
				"element": "H" 
			},
			{
				"x": -0.2389721534,
				"y": -0.8916321438,
				"z": 2.5929980342,
				"element": "H" 
			},
			{
				"x": -0.8088248412,
				"y": 1.4571773554,
				"z": 3.6900489244,
				"element": "H" 
			},
			{
				"x": 1.473594215,
				"y": 2.770848336,
				"z": 4.0792100453,
				"element": "H" 
			},
			{
				"x": 0.0812059656,
				"y": 1.126917372,
				"z": 0.8292929047,
				"element": "H" 
			},
			{
				"x": 1.6469136011,
				"y": -0.5617785863,
				"z": -0.5543923408,
				"element": "H" 
			},
			{
				"x": -1.6047424812,
				"y": -3.2087824545,
				"z": -0.9728734675,
				"element": "H" 
			},
			{
				"x": -0.4657715732,
				"y": -3.8235777271,
				"z": -2.2023261381,
				"element": "H" 
			},
			{
				"x": -2.9785561956,
				"y": -1.1364545446,
				"z": -1.5137011326,
				"element": "H" 
			},
			{
				"x": -4.2576613611,
				"y": 0.0342808046,
				"z": -3.2971915346,
				"element": "H" 
			},
			{
				"x": -3.7280719244,
				"y": -0.3899436604,
				"z": -5.6884156863,
				"element": "H" 
			},
			{
				"x": -1.9243526853,
				"y": -1.991598077,
				"z": -6.2896181732,
				"element": "H" 
			},
			{
				"x": -0.6584763011,
				"y": -3.1583218899,
				"z": -4.5059732196,
				"element": "H" 
			}
		],
		 "valence_orbital": [ 
			{
				"type": "occ",
				"energy": -0.27363,
				"method": "rhf"
			},
			{
				"type": "occ",
				"energy": -0.25836,
				"method": "rhf"
			},
			{
				"type": "occ",
				"energy": -0.24965,
				"method": "rhf"
			},
			{
				"type": "occ",
				"energy": -0.24682,
				"method": "rhf"
			},
			{
				"type": "occ",
				"energy": -0.24115,
				"method": "rhf"
			},
			{
				"type": "unocc",
				"energy": -0.00888,
				"method": "rhf"
			},
			{
				"type": "unocc",
				"energy": -0.00742,
				"method": "rhf"
			},
			{
				"type": "unocc",
				"energy": -0.0006,
				"method": "rhf"
			},
			{
				"type": "unocc",
				"energy": 0.01214,
				"method": "rhf"
			},
			{
				"type": "unocc",
				"energy": 0.04665,
				"method": "rhf"
			}
		],
		"cosmo_sigma_profile": { 
			"-0.025": 0.0,
			"-0.024": 0.0,
			"-0.023": 0.0,
			"-0.022": 0.0,
			"-0.021": 0.0,
			"-0.02": 0.0,
			"-0.019": 0.102300576603,
			"-0.018": 0.955600401127,
			"-0.017": 0.884605834557,
			"-0.016": 0.926076028259,
			"-0.015": 0.780007849027,
			"-0.014": 0.796424166294,
			"-0.013": 0.659968615069,
			"-0.012": 0.727237251864,
			"-0.011": 0.919240164506,
			"-0.01": 0.806787162964,
			"-0.009": 1.11510875197,
			"-0.008": 1.99821027358,
			"-0.007": 3.84690253804,
			"-0.006": 14.8941607928,
			"-0.005": 20.6878991757,
			"-0.004": 26.9110645409,
			"-0.003": 29.5597477206,
			"-0.002": 27.8275265438,
			"-0.001": 25.8820015959,
			"0.0": 24.7074898716,
			"0.001": 23.7546328706,
			"0.002": 17.5487464929,
			"0.003": 18.1868554619,
			"0.004": 18.1213810157,
			"0.005": 17.5837602386,
			"0.006": 11.596416286,
			"0.007": 5.57542660337,
			"0.008": 5.22662853622,
			"0.009": 3.92040614351,
			"0.01": 3.55998634949,
			"0.011": 6.55116075853,
			"0.012": 3.31756640297,
			"0.013": 1.75770213504,
			"0.014": 0.0,
			"0.015": 0.0,
			"0.016": 0.0,
			"0.017": 0.0,
			"0.018": 0.0,
			"0.019": 0.0,
			"0.02": 0.0,
			"0.021": 0.0,
			"0.022": 0.0,
			"0.023": 0.0,
			"0.024": 0.0,
			"0.025": 0.0
		}
	}
}
