{
	 "smiles": "CNS(=O)(=O)C1=CC=C(C=C1)C#N", 
	 "Tm": 402.15, 
	 "num_atms": 21, 
	 "gaussian": { 
		 "optdone": 1, 
		 "sigma_profile": "yes", 
		 "theory": "DFT", 
		 "functional": "B3LYP", 
		 "basiset": "6-31G**", 
		 "properties": { 
			 "R2extent": 3274.7675, 
			 "electric_dipole_moment_norm": 3.95523053563, 
			 "electric_quadrupole_moment_norm": 27.7877961769, 
			 "total_energy": -967.717907721, 
			 "HOMO_LUMO_gap": 0.19618, 
			 "cosmo_polarized_energy": -19.58, 
			 "cosmo_cavitation_energy": 27.9, 
			 "cosmo_dispersion_energy": -19.99, 
			 "cosmo_repulsion_energy": 1.54, 
			 "cosmo_total_nonelectrostatic_energy": 9.45, 
			 "SMD_solvation_energy": 5.24 
		},
		"coords": [
			{
				"x": 0.0166826036,
				"y": 2.7156067016,
				"z": 0.5873458453,
				"element": "C" 
			},
			{
				"x": -1.1130674912,
				"y": 1.8252279658,
				"z": 0.8543507466,
				"element": "N" 
			},
			{
				"x": -1.3458285744,
				"y": 0.4614916169,
				"z": -0.08553678,
				"element": "S" 
			},
			{
				"x": -1.2102432378,
				"y": 0.8857692162,
				"z": -1.4781168502,
				"element": "O" 
			},
			{
				"x": -2.5481592984,
				"y": -0.1777274864,
				"z": 0.446800253,
				"element": "O" 
			},
			{
				"x": 0.0363348715,
				"y": -0.647815821,
				"z": 0.2566293085,
				"element": "C" 
			},
			{
				"x": -0.0721137744,
				"y": -1.5704143367,
				"z": 1.3010941186,
				"element": "C" 
			},
			{
				"x": 1.0022238984,
				"y": -2.4061041129,
				"z": 1.5882321422,
				"element": "C" 
			},
			{
				"x": 2.1816271766,
				"y": -2.3155051576,
				"z": 0.8280339366,
				"element": "C" 
			},
			{
				"x": 2.2742417642,
				"y": -1.3934405684,
				"z": -0.2281239431,
				"element": "C" 
			},
			{
				"x": 1.1973627131,
				"y": -0.5591979857,
				"z": -0.515782925,
				"element": "C" 
			},
			{
				"x": 3.2920442574,
				"y": -3.1734970856,
				"z": 1.1270773823,
				"element": "C" 
			},
			{
				"x": 4.1935704754,
				"y": -3.8659238348,
				"z": 1.3724060212,
				"element": "N" 
			},
			{
				"x": 0.0169711659,
				"y": 2.965292013,
				"z": -0.474638504,
				"element": "H" 
			},
			{
				"x": -0.1353561122,
				"y": 3.6361394446,
				"z": 1.1557007604,
				"element": "H" 
			},
			{
				"x": 0.990689611,
				"y": 2.2863142442,
				"z": 0.8602524493,
				"element": "H" 
			},
			{
				"x": -1.3178024718,
				"y": 1.6354773859,
				"z": 1.830080064,
				"element": "H" 
			},
			{
				"x": -0.9981887317,
				"y": -1.6441283071,
				"z": 1.8608342564,
				"element": "H" 
			},
			{
				"x": 0.9347706266,
				"y": -3.1331879359,
				"z": 2.3902010738,
				"element": "H" 
			},
			{
				"x": 3.182338648,
				"y": -1.3426568838,
				"z": -0.8190013261,
				"element": "H" 
			},
			{
				"x": 1.2402018801,
				"y": 0.1367809278,
				"z": -1.3460380301,
				"element": "H" 
			}
		],
		 "valence_orbital": [ 
			{
				"type": "occ",
				"energy": -0.31965,
				"method": "rhf"
			},
			{
				"type": "occ",
				"energy": -0.31689,
				"method": "rhf"
			},
			{
				"type": "occ",
				"energy": -0.30137,
				"method": "rhf"
			},
			{
				"type": "occ",
				"energy": -0.29697,
				"method": "rhf"
			},
			{
				"type": "occ",
				"energy": -0.27818,
				"method": "rhf"
			},
			{
				"type": "unocc",
				"energy": -0.082,
				"method": "rhf"
			},
			{
				"type": "unocc",
				"energy": -0.04707,
				"method": "rhf"
			},
			{
				"type": "unocc",
				"energy": 0.02119,
				"method": "rhf"
			},
			{
				"type": "unocc",
				"energy": 0.03834,
				"method": "rhf"
			},
			{
				"type": "unocc",
				"energy": 0.04278,
				"method": "rhf"
			}
		],
		"cosmo_sigma_profile": { 
			"-0.025": 0.0,
			"-0.024": 0.0,
			"-0.023": 0.0,
			"-0.022": 0.0,
			"-0.021": 0.0,
			"-0.02": 0.0,
			"-0.019": 0.0,
			"-0.018": 0.0,
			"-0.017": 0.0,
			"-0.016": 0.239136927464,
			"-0.015": 1.32409663138,
			"-0.014": 0.732024918524,
			"-0.013": 1.04500432198,
			"-0.012": 1.81746348738,
			"-0.011": 1.27199505417,
			"-0.01": 1.19475977076,
			"-0.009": 4.83501257086,
			"-0.008": 10.1034609303,
			"-0.007": 10.3415296428,
			"-0.006": 10.3760676874,
			"-0.005": 12.2592210724,
			"-0.004": 17.0664678991,
			"-0.003": 19.7190400477,
			"-0.002": 16.2144011139,
			"-0.001": 12.6853930385,
			"0.0": 18.4146482502,
			"0.001": 8.4307096494,
			"0.002": 4.57730962723,
			"0.003": 4.85906103379,
			"0.004": 5.67208113783,
			"0.005": 6.52540957872,
			"0.006": 5.67575159704,
			"0.007": 7.83852254278,
			"0.008": 7.4530406814,
			"0.009": 7.56445655705,
			"0.01": 10.6778147651,
			"0.011": 10.9262706293,
			"0.012": 3.97553823896,
			"0.013": 0.549815659531,
			"0.014": 0.0,
			"0.015": 0.0,
			"0.016": 0.0,
			"0.017": 0.0,
			"0.018": 0.0,
			"0.019": 0.0,
			"0.02": 0.0,
			"0.021": 0.0,
			"0.022": 0.0,
			"0.023": 0.0,
			"0.024": 0.0,
			"0.025": 0.0
		}
	}
}
