{
	 "smiles": "CC1(C)OC(=O)C(=CC2=CC=CC=C2F)C(=O)O1", 
	 "Tm": 415.15, 
	 "num_atms": 29, 
	 "gaussian": { 
		 "optdone": 1, 
		 "sigma_profile": "yes", 
		 "theory": "DFT", 
		 "functional": "B3LYP", 
		 "basiset": "6-31G**", 
		 "properties": { 
			 "R2extent": 5567.7548, 
			 "electric_dipole_moment_norm": 3.03786096621, 
			 "electric_quadrupole_moment_norm": 22.9494478472, 
			 "total_energy": -902.750619172, 
			 "HOMO_LUMO_gap": 0.15935, 
			 "cosmo_polarized_energy": -14.89, 
			 "cosmo_cavitation_energy": 33.6, 
			 "cosmo_dispersion_energy": -23.72, 
			 "cosmo_repulsion_energy": 1.81, 
			 "cosmo_total_nonelectrostatic_energy": 11.68, 
			 "SMD_solvation_energy": 7.96 
		},
		"coords": [
			{
				"x": -0.1751445675,
				"y": 1.9742017017,
				"z": -3.8789338366,
				"element": "C" 
			},
			{
				"x": 0.0921963542,
				"y": 1.3468092443,
				"z": -2.5224046506,
				"element": "C" 
			},
			{
				"x": 0.5563263518,
				"y": 2.3523508029,
				"z": -1.4692177704,
				"element": "C" 
			},
			{
				"x": -1.1485998484,
				"y": 0.7384623198,
				"z": -2.1205532994,
				"element": "O" 
			},
			{
				"x": -1.140465389,
				"y": -0.2054266451,
				"z": -1.138917766,
				"element": "C" 
			},
			{
				"x": -2.1807693161,
				"y": -0.5442123254,
				"z": -0.6242898909,
				"element": "O" 
			},
			{
				"x": 0.2026573028,
				"y": -0.7641084999,
				"z": -0.7979877159,
				"element": "C" 
			},
			{
				"x": 0.2906651906,
				"y": -1.4793989396,
				"z": 0.3498587159,
				"element": "C" 
			},
			{
				"x": 1.4467667469,
				"y": -2.0694236361,
				"z": 1.0151114029,
				"element": "C" 
			},
			{
				"x": 1.279853444,
				"y": -3.2754903488,
				"z": 1.725849423,
				"element": "C" 
			},
			{
				"x": 2.3419422854,
				"y": -3.8828155632,
				"z": 2.3868056767,
				"element": "C" 
			},
			{
				"x": 3.5982838156,
				"y": -3.2698177891,
				"z": 2.3890976408,
				"element": "C" 
			},
			{
				"x": 3.784924273,
				"y": -2.0503616967,
				"z": 1.73816645,
				"element": "C" 
			},
			{
				"x": 2.7166055517,
				"y": -1.4711263636,
				"z": 1.0686683879,
				"element": "C" 
			},
			{
				"x": 2.9047592644,
				"y": -0.2644124228,
				"z": 0.5045503118,
				"element": "F" 
			},
			{
				"x": 1.2929818361,
				"y": -0.625273667,
				"z": -1.8018441225,
				"element": "C" 
			},
			{
				"x": 2.2487899184,
				"y": -1.3556984251,
				"z": -1.8968173587,
				"element": "O" 
			},
			{
				"x": 1.1025589063,
				"y": 0.3515998369,
				"z": -2.7378158014,
				"element": "O" 
			},
			{
				"x": 0.7385463022,
				"y": 2.4345716793,
				"z": -4.2612098962,
				"element": "H" 
			},
			{
				"x": -0.9536511597,
				"y": 2.7351908268,
				"z": -3.7900428839,
				"element": "H" 
			},
			{
				"x": -0.5064853766,
				"y": 1.2038085819,
				"z": -4.5780628421,
				"element": "H" 
			},
			{
				"x": -0.2212287397,
				"y": 3.1020123702,
				"z": -1.3039637837,
				"element": "H" 
			},
			{
				"x": 1.465736247,
				"y": 2.8505872764,
				"z": -1.8138140449,
				"element": "H" 
			},
			{
				"x": 0.7756390234,
				"y": 1.8576145367,
				"z": -0.5193820526,
				"element": "H" 
			},
			{
				"x": -0.663517744,
				"y": -1.6344858909,
				"z": 0.8525687558,
				"element": "H" 
			},
			{
				"x": 0.2989920615,
				"y": -3.7424303466,
				"z": 1.7286002496,
				"element": "H" 
			},
			{
				"x": 2.1910359234,
				"y": -4.8238336298,
				"z": 2.9055096535,
				"element": "H" 
			},
			{
				"x": 4.4314430945,
				"y": -3.7317354677,
				"z": 2.9098016451,
				"element": "H" 
			},
			{
				"x": 4.7397582479,
				"y": -1.5365575195,
				"z": 1.7443694027,
				"element": "H" 
			}
		],
		 "valence_orbital": [ 
			{
				"type": "occ",
				"energy": -0.30448,
				"method": "rhf"
			},
			{
				"type": "occ",
				"energy": -0.28722,
				"method": "rhf"
			},
			{
				"type": "occ",
				"energy": -0.27199,
				"method": "rhf"
			},
			{
				"type": "occ",
				"energy": -0.26555,
				"method": "rhf"
			},
			{
				"type": "occ",
				"energy": -0.25125,
				"method": "rhf"
			},
			{
				"type": "unocc",
				"energy": -0.0919,
				"method": "rhf"
			},
			{
				"type": "unocc",
				"energy": -0.01759,
				"method": "rhf"
			},
			{
				"type": "unocc",
				"energy": -0.00266,
				"method": "rhf"
			},
			{
				"type": "unocc",
				"energy": 0.00364,
				"method": "rhf"
			},
			{
				"type": "unocc",
				"energy": 0.07469,
				"method": "rhf"
			}
		],
		"cosmo_sigma_profile": { 
			"-0.025": 0.0,
			"-0.024": 0.0,
			"-0.023": 0.0,
			"-0.022": 0.0,
			"-0.021": 0.0,
			"-0.02": 0.0,
			"-0.019": 0.0,
			"-0.018": 0.0,
			"-0.017": 0.0,
			"-0.016": 0.0,
			"-0.015": 0.0,
			"-0.014": 0.0,
			"-0.013": 0.0,
			"-0.012": 0.0,
			"-0.011": 0.0,
			"-0.01": 0.0217981901065,
			"-0.009": 1.15555504081,
			"-0.008": 4.66254536662,
			"-0.007": 10.0145593535,
			"-0.006": 19.0461118789,
			"-0.005": 23.1125054815,
			"-0.004": 19.5072383758,
			"-0.003": 23.0728311169,
			"-0.002": 26.0276376004,
			"-0.001": 22.6518578778,
			"0.0": 14.0053988557,
			"0.001": 14.4152174768,
			"0.002": 14.7994212851,
			"0.003": 16.9642012499,
			"0.004": 8.62226049377,
			"0.005": 5.7021209466,
			"0.006": 4.29306137429,
			"0.007": 5.36780572135,
			"0.008": 6.6985990691,
			"0.009": 6.38685586414,
			"0.01": 7.15405235688,
			"0.011": 9.85366320214,
			"0.012": 4.16680522405,
			"0.013": 0.541695323832,
			"0.014": 0.0,
			"0.015": 0.0,
			"0.016": 0.0,
			"0.017": 0.0,
			"0.018": 0.0,
			"0.019": 0.0,
			"0.02": 0.0,
			"0.021": 0.0,
			"0.022": 0.0,
			"0.023": 0.0,
			"0.024": 0.0,
			"0.025": 0.0
		}
	}
}
