{
	 "smiles": "CCOC(=O)C1=C(N)C(Cl)=CC(Br)=C1", 
	 "Tm": 323.15, 
	 "num_atms": 23, 
	 "gaussian": { 
		 "optdone": 1, 
		 "sigma_profile": "yes", 
		 "theory": "DFT", 
		 "functional": "B3LYP", 
		 "basiset": "6-31G**", 
		 "properties": { 
			 "R2extent": 6018.567, 
			 "electric_dipole_moment_norm": 4.43330759704, 
			 "electric_quadrupole_moment_norm": 8.99320990136, 
			 "total_energy": -3585.20307608, 
			 "HOMO_LUMO_gap": 0.15936, 
			 "cosmo_polarized_energy": -9.21, 
			 "cosmo_cavitation_energy": 31.23, 
			 "cosmo_dispersion_energy": -23.41, 
			 "cosmo_repulsion_energy": 1.86, 
			 "cosmo_total_nonelectrostatic_energy": 9.68, 
			 "SMD_solvation_energy": 4.76 
		},
		"coords": [
			{
				"x": -2.0981283164,
				"y": 3.1436461031,
				"z": -3.0357045913,
				"element": "C" 
			},
			{
				"x": -1.0644952934,
				"y": 3.2022765159,
				"z": -1.9274169353,
				"element": "C" 
			},
			{
				"x": -1.1235697242,
				"y": 1.9466670392,
				"z": -1.2049296193,
				"element": "O" 
			},
			{
				"x": -0.2593798773,
				"y": 1.8292523298,
				"z": -0.1583051114,
				"element": "C" 
			},
			{
				"x": 0.5095002013,
				"y": 2.7235789711,
				"z": 0.1365722854,
				"element": "O" 
			},
			{
				"x": -0.3410974342,
				"y": 0.5295640269,
				"z": 0.5636891491,
				"element": "C" 
			},
			{
				"x": -1.2553110201,
				"y": -0.5254102457,
				"z": 0.2674715125,
				"element": "C" 
			},
			{
				"x": -2.2103586047,
				"y": -0.4517875228,
				"z": -0.6996131379,
				"element": "N" 
			},
			{
				"x": -1.1481702148,
				"y": -1.691579524,
				"z": 1.0723935557,
				"element": "C" 
			},
			{
				"x": -2.2381222989,
				"y": -3.0407881699,
				"z": 0.7533327541,
				"element": "Cl" 
			},
			{
				"x": -0.2275690133,
				"y": -1.8218036396,
				"z": 2.0969478229,
				"element": "C" 
			},
			{
				"x": 0.6455737579,
				"y": -0.7646537187,
				"z": 2.3651068247,
				"element": "C" 
			},
			{
				"x": 1.9166072574,
				"y": -0.9348118117,
				"z": 3.7796189032,
				"element": "Br" 
			},
			{
				"x": 0.5881708325,
				"y": 0.3906532976,
				"z": 1.6092976661,
				"element": "C" 
			},
			{
				"x": -1.8880043929,
				"y": 2.323438375,
				"z": -3.728955468,
				"element": "H" 
			},
			{
				"x": -3.1050266207,
				"y": 3.0089550197,
				"z": -2.6292016483,
				"element": "H" 
			},
			{
				"x": -2.0829224107,
				"y": 4.0793425578,
				"z": -3.6028055079,
				"element": "H" 
			},
			{
				"x": -0.0500172487,
				"y": 3.3338896337,
				"z": -2.3144873413,
				"element": "H" 
			},
			{
				"x": -1.2581622563,
				"y": 4.0172745441,
				"z": -1.2243411325,
				"element": "H" 
			},
			{
				"x": -2.1829754757,
				"y": 0.3232866928,
				"z": -1.3414493396,
				"element": "H" 
			},
			{
				"x": -2.7117426224,
				"y": -1.289036597,
				"z": -0.9464055134,
				"element": "H" 
			},
			{
				"x": -0.1919577056,
				"y": -2.7352316379,
				"z": 2.6778366705,
				"element": "H" 
			},
			{
				"x": 1.2580584811,
				"y": 1.2200777604,
				"z": 1.7979482019,
				"element": "H" 
			}
		],
		 "valence_orbital": [ 
			{
				"type": "occ",
				"energy": -0.28715,
				"method": "rhf"
			},
			{
				"type": "occ",
				"energy": -0.28574,
				"method": "rhf"
			},
			{
				"type": "occ",
				"energy": -0.28284,
				"method": "rhf"
			},
			{
				"type": "occ",
				"energy": -0.26317,
				"method": "rhf"
			},
			{
				"type": "occ",
				"energy": -0.21361,
				"method": "rhf"
			},
			{
				"type": "unocc",
				"energy": -0.05425,
				"method": "rhf"
			},
			{
				"type": "unocc",
				"energy": -0.00641,
				"method": "rhf"
			},
			{
				"type": "unocc",
				"energy": -0.00464,
				"method": "rhf"
			},
			{
				"type": "unocc",
				"energy": 0.03728,
				"method": "rhf"
			},
			{
				"type": "unocc",
				"energy": 0.0445,
				"method": "rhf"
			}
		],
		"cosmo_sigma_profile": { 
			"-0.025": 0.0,
			"-0.024": 0.0,
			"-0.023": 0.0,
			"-0.022": 0.0,
			"-0.021": 0.0,
			"-0.02": 0.0,
			"-0.019": 0.0,
			"-0.018": 0.0,
			"-0.017": 0.0,
			"-0.016": 0.0,
			"-0.015": 0.0,
			"-0.014": 0.0,
			"-0.013": 0.289904939665,
			"-0.012": 0.883181077217,
			"-0.011": 0.783638356069,
			"-0.01": 1.35138736138,
			"-0.009": 2.0524825841,
			"-0.008": 3.14203519913,
			"-0.007": 2.94005867593,
			"-0.006": 4.84934014127,
			"-0.005": 12.1489216292,
			"-0.004": 19.6339721464,
			"-0.003": 21.4712768224,
			"-0.002": 22.4203446979,
			"-0.001": 22.6847800555,
			"0.0": 24.9704620844,
			"0.001": 30.0314767655,
			"0.002": 25.8047876732,
			"0.003": 15.015051231,
			"0.004": 19.0876159629,
			"0.005": 9.54482979833,
			"0.006": 2.05458945134,
			"0.007": 1.52561710666,
			"0.008": 1.9655564267,
			"0.009": 1.81876426579,
			"0.01": 1.67553208117,
			"0.011": 2.91880030746,
			"0.012": 3.52787124536,
			"0.013": 0.0500279559728,
			"0.014": 0.0,
			"0.015": 0.0,
			"0.016": 0.0,
			"0.017": 0.0,
			"0.018": 0.0,
			"0.019": 0.0,
			"0.02": 0.0,
			"0.021": 0.0,
			"0.022": 0.0,
			"0.023": 0.0,
			"0.024": 0.0,
			"0.025": 0.0
		}
	}
}
