{
	 "smiles": "OC(=O)COC1=CC(=CC=C1)C#N", 
	 "Tm": 397.15, 
	 "num_atms": 20, 
	 "gaussian": { 
		 "optdone": 1, 
		 "sigma_profile": "yes", 
		 "theory": "DFT", 
		 "functional": "B3LYP", 
		 "basiset": "6-31G**", 
		 "properties": { 
			 "R2extent": 3187.83, 
			 "electric_dipole_moment_norm": 4.25696114265, 
			 "electric_quadrupole_moment_norm": 24.2544440128, 
			 "total_energy": -627.577935586, 
			 "HOMO_LUMO_gap": 0.19407, 
			 "cosmo_polarized_energy": -16.33, 
			 "cosmo_cavitation_energy": 26.46, 
			 "cosmo_dispersion_energy": -18.53, 
			 "cosmo_repulsion_energy": 1.49, 
			 "cosmo_total_nonelectrostatic_energy": 9.42, 
			 "SMD_solvation_energy": 7.52 
		},
		"coords": [
			{
				"x": 0.4970549921,
				"y": -1.5536358372,
				"z": -2.5447610934,
				"element": "O" 
			},
			{
				"x": 1.6695150659,
				"y": -1.5866836087,
				"z": -1.8877432201,
				"element": "C" 
			},
			{
				"x": 2.7444982987,
				"y": -1.7487156408,
				"z": -2.4194863154,
				"element": "O" 
			},
			{
				"x": 1.5051710146,
				"y": -1.4514033315,
				"z": -0.375651401,
				"element": "C" 
			},
			{
				"x": 0.3219790431,
				"y": -0.8093180042,
				"z": 0.0510743861,
				"element": "O" 
			},
			{
				"x": 0.211040521,
				"y": 0.5438917757,
				"z": -0.1160207481,
				"element": "C" 
			},
			{
				"x": -0.9743744565,
				"y": 1.1055178442,
				"z": 0.3702105112,
				"element": "C" 
			},
			{
				"x": -1.1849909593,
				"y": 2.4836725607,
				"z": 0.2581112141,
				"element": "C" 
			},
			{
				"x": -0.2152417373,
				"y": 3.3107048006,
				"z": -0.3385968871,
				"element": "C" 
			},
			{
				"x": 0.9551502654,
				"y": 2.734999192,
				"z": -0.817416959,
				"element": "C" 
			},
			{
				"x": 1.1803012454,
				"y": 1.3584338802,
				"z": -0.7138898317,
				"element": "C" 
			},
			{
				"x": -2.4024446121,
				"y": 3.0565838407,
				"z": 0.7584902812,
				"element": "C" 
			},
			{
				"x": -3.3867171756,
				"y": 3.5268531629,
				"z": 1.1619503476,
				"element": "N" 
			},
			{
				"x": 0.7060575994,
				"y": -1.6660159228,
				"z": -3.487972127,
				"element": "H" 
			},
			{
				"x": 2.4086866543,
				"y": -0.973403707,
				"z": 0.0180215807,
				"element": "H" 
			},
			{
				"x": 1.4545170375,
				"y": -2.463668166,
				"z": 0.0379453134,
				"element": "H" 
			},
			{
				"x": -1.7152160126,
				"y": 0.460990088,
				"z": 0.8287358054,
				"element": "H" 
			},
			{
				"x": -0.3893651856,
				"y": 4.3774378239,
				"z": -0.4197968147,
				"element": "H" 
			},
			{
				"x": 1.711305342,
				"y": 3.3595997039,
				"z": -1.2827256777,
				"element": "H" 
			},
			{
				"x": 2.1024730595,
				"y": 0.9432595455,
				"z": -1.1037783645,
				"element": "H" 
			}
		],
		 "valence_orbital": [ 
			{
				"type": "occ",
				"energy": -0.33564,
				"method": "rhf"
			},
			{
				"type": "occ",
				"energy": -0.33149,
				"method": "rhf"
			},
			{
				"type": "occ",
				"energy": -0.29705,
				"method": "rhf"
			},
			{
				"type": "occ",
				"energy": -0.27129,
				"method": "rhf"
			},
			{
				"type": "occ",
				"energy": -0.24778,
				"method": "rhf"
			},
			{
				"type": "unocc",
				"energy": -0.05371,
				"method": "rhf"
			},
			{
				"type": "unocc",
				"energy": -0.0208,
				"method": "rhf"
			},
			{
				"type": "unocc",
				"energy": -0.01338,
				"method": "rhf"
			},
			{
				"type": "unocc",
				"energy": 0.0367,
				"method": "rhf"
			},
			{
				"type": "unocc",
				"energy": 0.05683,
				"method": "rhf"
			}
		],
		"cosmo_sigma_profile": { 
			"-0.025": 0.0,
			"-0.024": 0.0,
			"-0.023": 0.0,
			"-0.022": 0.0,
			"-0.021": 0.0,
			"-0.02": 0.0,
			"-0.019": 0.535570989533,
			"-0.018": 1.1970539463,
			"-0.017": 0.729458611043,
			"-0.016": 0.588367866668,
			"-0.015": 1.09519330392,
			"-0.014": 0.393726234949,
			"-0.013": 1.21355310573,
			"-0.012": 0.740787341984,
			"-0.011": 0.595785500077,
			"-0.01": 1.7576625266,
			"-0.009": 3.82872448413,
			"-0.008": 9.80222667478,
			"-0.007": 12.440017729,
			"-0.006": 13.444901069,
			"-0.005": 11.4822509025,
			"-0.004": 9.07733378916,
			"-0.003": 10.4523186306,
			"-0.002": 9.02931212923,
			"-0.001": 13.1831093275,
			"0.0": 11.1759472407,
			"0.001": 13.9199697346,
			"0.002": 16.2007350747,
			"0.003": 11.9585145441,
			"0.004": 4.91418784476,
			"0.005": 5.93032901903,
			"0.006": 6.49719541092,
			"0.007": 6.11624236107,
			"0.008": 7.83640828294,
			"0.009": 6.8745908102,
			"0.01": 6.58577030396,
			"0.011": 7.54752350657,
			"0.012": 4.38957267722,
			"0.013": 1.39452122949,
			"0.014": 0.0,
			"0.015": 0.0,
			"0.016": 0.0,
			"0.017": 0.0,
			"0.018": 0.0,
			"0.019": 0.0,
			"0.02": 0.0,
			"0.021": 0.0,
			"0.022": 0.0,
			"0.023": 0.0,
			"0.024": 0.0,
			"0.025": 0.0
		}
	}
}
