{
	 "smiles": "CCCCOC1=CC=C(C=C1)C1=NN=C2SC(=NN12)C1=CC=C(Cl)C(=C1)[N+]([O-])=O", 
	 "Tm": 343.15, 
	 "num_atms": 45, 
	 "gaussian": { 
		 "optdone": 1, 
		 "sigma_profile": "yes", 
		 "theory": "DFT", 
		 "functional": "B3LYP", 
		 "basiset": "6-31G**", 
		 "properties": { 
			 "R2extent": 23112.8034, 
			 "electric_dipole_moment_norm": 1.04374423112, 
			 "electric_quadrupole_moment_norm": 50.3605431856, 
			 "total_energy": -2091.30707567, 
			 "HOMO_LUMO_gap": 0.10435, 
			 "cosmo_polarized_energy": -21.4, 
			 "cosmo_cavitation_energy": 54.3, 
			 "cosmo_dispersion_energy": -39.08, 
			 "cosmo_repulsion_energy": 2.88, 
			 "cosmo_total_nonelectrostatic_energy": 18.1, 
			 "SMD_solvation_energy": 8.15 
		},
		"coords": [
			{
				"x": -3.3126316857,
				"y": 6.2059170056,
				"z": 1.5815935581,
				"element": "C" 
			},
			{
				"x": -3.6262746107,
				"y": 5.0860321747,
				"z": 0.585174458,
				"element": "C" 
			},
			{
				"x": -2.7863104566,
				"y": 5.1747277653,
				"z": -0.6955527311,
				"element": "C" 
			},
			{
				"x": -3.0799925867,
				"y": 4.0556693254,
				"z": -1.6953938298,
				"element": "C" 
			},
			{
				"x": -2.8214075626,
				"y": 2.7492236844,
				"z": -1.1651850587,
				"element": "O" 
			},
			{
				"x": -1.5541937494,
				"y": 2.25289996,
				"z": -1.1515359507,
				"element": "C" 
			},
			{
				"x": -0.4199954364,
				"y": 2.9051298303,
				"z": -1.6608545664,
				"element": "C" 
			},
			{
				"x": 0.8214684231,
				"y": 2.2800604971,
				"z": -1.6058089855,
				"element": "C" 
			},
			{
				"x": 0.9680715566,
				"y": 1.0020466124,
				"z": -1.0441968952,
				"element": "C" 
			},
			{
				"x": -0.1734962607,
				"y": 0.3576593799,
				"z": -0.5332732644,
				"element": "C" 
			},
			{
				"x": -1.4144778766,
				"y": 0.9752900813,
				"z": -0.5866654969,
				"element": "C" 
			},
			{
				"x": 2.2995400334,
				"y": 0.4036680159,
				"z": -1.014185918,
				"element": "C" 
			},
			{
				"x": 3.4095113334,
				"y": 0.9682675447,
				"z": -1.4670307462,
				"element": "N" 
			},
			{
				"x": 4.4930266294,
				"y": 0.1207557162,
				"z": -1.2820186139,
				"element": "N" 
			},
			{
				"x": 4.0042752354,
				"y": -0.945581218,
				"z": -0.7151588756,
				"element": "C" 
			},
			{
				"x": 4.5520941175,
				"y": -2.4964104529,
				"z": -0.1181673112,
				"element": "S" 
			},
			{
				"x": 2.8507473367,
				"y": -2.8316298095,
				"z": 0.3331504431,
				"element": "C" 
			},
			{
				"x": 1.9967946178,
				"y": -1.8887088721,
				"z": 0.0645860861,
				"element": "N" 
			},
			{
				"x": 2.6425904663,
				"y": -0.8427970593,
				"z": -0.5157108298,
				"element": "N" 
			},
			{
				"x": 2.4542511949,
				"y": -4.0931059234,
				"z": 0.9697191669,
				"element": "C" 
			},
			{
				"x": 3.3728231548,
				"y": -5.1278026405,
				"z": 1.2025827487,
				"element": "C" 
			},
			{
				"x": 2.9718356686,
				"y": -6.3096925358,
				"z": 1.8138482508,
				"element": "C" 
			},
			{
				"x": 1.6400335353,
				"y": -6.50717693,
				"z": 2.1902848507,
				"element": "C" 
			},
			{
				"x": 1.2369288797,
				"y": -7.9929766959,
				"z": 2.9935898609,
				"element": "Cl" 
			},
			{
				"x": 0.7198782266,
				"y": -5.4727059011,
				"z": 1.9498252158,
				"element": "C" 
			},
			{
				"x": 1.1237230573,
				"y": -4.2785316059,
				"z": 1.3639287175,
				"element": "C" 
			},
			{
				"x": -0.7151706933,
				"y": -5.5771143772,
				"z": 2.284417123,
				"element": "N" 
			},
			{
				"x": -1.2468964996,
				"y": -6.67685117,
				"z": 2.1890528958,
				"element": "O" 
			},
			{
				"x": -1.2815725642,
				"y": -4.5342536135,
				"z": 2.6064048457,
				"element": "O" 
			},
			{
				"x": -3.9269412126,
				"y": 6.119025826,
				"z": 2.4834486058,
				"element": "H" 
			},
			{
				"x": -3.5013532318,
				"y": 7.1933857702,
				"z": 1.1446615334,
				"element": "H" 
			},
			{
				"x": -2.2619224559,
				"y": 6.1777208148,
				"z": 1.8918194175,
				"element": "H" 
			},
			{
				"x": -4.6918175294,
				"y": 5.1165050689,
				"z": 0.3191112736,
				"element": "H" 
			},
			{
				"x": -3.4569701411,
				"y": 4.1108941163,
				"z": 1.0557702132,
				"element": "H" 
			},
			{
				"x": -2.9783854367,
				"y": 6.1305892593,
				"z": -1.2028514034,
				"element": "H" 
			},
			{
				"x": -1.719769833,
				"y": 5.170691613,
				"z": -0.4385077504,
				"element": "H" 
			},
			{
				"x": -4.1469868682,
				"y": 4.0389200018,
				"z": -1.9388249015,
				"element": "H" 
			},
			{
				"x": -2.5300787176,
				"y": 4.1986976043,
				"z": -2.6335492064,
				"element": "H" 
			},
			{
				"x": -0.4901134102,
				"y": 3.8942470678,
				"z": -2.0964155934,
				"element": "H" 
			},
			{
				"x": 1.6996936118,
				"y": 2.78114932,
				"z": -1.9981702038,
				"element": "H" 
			},
			{
				"x": -0.0897933388,
				"y": -0.6293573372,
				"z": -0.0937161219,
				"element": "H" 
			},
			{
				"x": -2.3000763239,
				"y": 0.4840828092,
				"z": -0.1975708944,
				"element": "H" 
			},
			{
				"x": 4.4134190464,
				"y": -5.0191180641,
				"z": 0.9127340054,
				"element": "H" 
			},
			{
				"x": 3.691426404,
				"y": -7.0964498402,
				"z": 2.0082455581,
				"element": "H" 
			},
			{
				"x": 0.3908959525,
				"y": -3.495492818,
				"z": 1.2182963204,
				"element": "H" 
			}
		],
		 "valence_orbital": [ 
			{
				"type": "occ",
				"energy": -0.26805,
				"method": "rhf"
			},
			{
				"type": "occ",
				"energy": -0.26585,
				"method": "rhf"
			},
			{
				"type": "occ",
				"energy": -0.26492,
				"method": "rhf"
			},
			{
				"type": "occ",
				"energy": -0.2588,
				"method": "rhf"
			},
			{
				"type": "occ",
				"energy": -0.21133,
				"method": "rhf"
			},
			{
				"type": "unocc",
				"energy": -0.10698,
				"method": "rhf"
			},
			{
				"type": "unocc",
				"energy": -0.09295,
				"method": "rhf"
			},
			{
				"type": "unocc",
				"energy": -0.04252,
				"method": "rhf"
			},
			{
				"type": "unocc",
				"energy": -0.02869,
				"method": "rhf"
			},
			{
				"type": "unocc",
				"energy": -0.02637,
				"method": "rhf"
			}
		],
		"cosmo_sigma_profile": { 
			"-0.025": 0.0,
			"-0.024": 0.0,
			"-0.023": 0.0,
			"-0.022": 0.0,
			"-0.021": 0.0,
			"-0.02": 0.0,
			"-0.019": 0.0,
			"-0.018": 0.0,
			"-0.017": 0.0,
			"-0.016": 0.0,
			"-0.015": 0.0,
			"-0.014": 0.0,
			"-0.013": 0.0,
			"-0.012": 0.0,
			"-0.011": 0.256218591815,
			"-0.01": 2.20699958847,
			"-0.009": 5.33446179971,
			"-0.008": 5.8777228662,
			"-0.007": 9.14866123697,
			"-0.006": 13.9619498052,
			"-0.005": 23.5106143571,
			"-0.004": 29.450588975,
			"-0.003": 42.5891446143,
			"-0.002": 54.4253091942,
			"-0.001": 43.5358851792,
			"0.0": 38.9644644103,
			"0.001": 33.9521662059,
			"0.002": 28.443992719,
			"0.003": 24.0381390963,
			"0.004": 18.8745977248,
			"0.005": 9.6730036478,
			"0.006": 9.421682604,
			"0.007": 14.5855791939,
			"0.008": 8.97656312006,
			"0.009": 5.41449611738,
			"0.01": 2.97958553433,
			"0.011": 2.80662018929,
			"0.012": 3.15600270534,
			"0.013": 3.66479403992,
			"0.014": 2.62242912599,
			"0.015": 1.80614490596,
			"0.016": 0.262322239618,
			"0.017": 0.0,
			"0.018": 0.0,
			"0.019": 0.0,
			"0.02": 0.0,
			"0.021": 0.0,
			"0.022": 0.0,
			"0.023": 0.0,
			"0.024": 0.0,
			"0.025": 0.0
		}
	}
}
