{
	 "smiles": "CCC(C)C(=O)NC1CCC(=O)N(CCC2=CC=CC=C2)C1=O", 
	 "Tm": 381.15, 
	 "num_atms": 47, 
	 "gaussian": { 
		 "optdone": 1, 
		 "sigma_profile": "yes", 
		 "theory": "DFT", 
		 "functional": "B3LYP", 
		 "basiset": "6-31G**", 
		 "properties": { 
			 "R2extent": 12793.078, 
			 "electric_dipole_moment_norm": 1.5701093274, 
			 "electric_quadrupole_moment_norm": 6.38220095813, 
			 "total_energy": -1035.629297, 
			 "HOMO_LUMO_gap": 0.20347, 
			 "cosmo_polarized_energy": -16.41, 
			 "cosmo_cavitation_energy": 48.81, 
			 "cosmo_dispersion_energy": -33.39, 
			 "cosmo_repulsion_energy": 2.56, 
			 "cosmo_total_nonelectrostatic_energy": 17.98, 
			 "SMD_solvation_energy": 8.29 
		},
		"coords": [
			{
				"x": 2.9673590601,
				"y": 0.3943421751,
				"z": -5.8547799735,
				"element": "C" 
			},
			{
				"x": 3.5322375452,
				"y": 1.3123546046,
				"z": -4.764070879,
				"element": "C" 
			},
			{
				"x": 2.6066256166,
				"y": 1.5558260006,
				"z": -3.5550567604,
				"element": "C" 
			},
			{
				"x": 1.2320101741,
				"y": 2.1288441597,
				"z": -3.9545154067,
				"element": "C" 
			},
			{
				"x": 2.4886730339,
				"y": 0.2957219315,
				"z": -2.6820131644,
				"element": "C" 
			},
			{
				"x": 3.1170771554,
				"y": -0.737792928,
				"z": -2.8984889245,
				"element": "O" 
			},
			{
				"x": 1.6351065298,
				"y": 0.393594883,
				"z": -1.6134076309,
				"element": "N" 
			},
			{
				"x": 1.6095585955,
				"y": -0.6459288401,
				"z": -0.6054712035,
				"element": "C" 
			},
			{
				"x": 0.8583794091,
				"y": -1.9137044186,
				"z": -1.0265199112,
				"element": "C" 
			},
			{
				"x": 0.9276014509,
				"y": -2.9197704962,
				"z": 0.1210149239,
				"element": "C" 
			},
			{
				"x": 0.4757842749,
				"y": -2.3566705506,
				"z": 1.4566455474,
				"element": "C" 
			},
			{
				"x": 0.0502050438,
				"y": -3.060564136,
				"z": 2.3532712229,
				"element": "O" 
			},
			{
				"x": 0.573207337,
				"y": -0.9588769738,
				"z": 1.6376558131,
				"element": "N" 
			},
			{
				"x": 0.0886569814,
				"y": -0.4042568156,
				"z": 2.9179032793,
				"element": "C" 
			},
			{
				"x": -1.421932897,
				"y": -0.1042228514,
				"z": 2.8965795,
				"element": "C" 
			},
			{
				"x": -1.8921347189,
				"y": 0.450293348,
				"z": 4.2238151143,
				"element": "C" 
			},
			{
				"x": -1.8943572695,
				"y": 1.8311840551,
				"z": 4.4635700507,
				"element": "C" 
			},
			{
				"x": -2.2930062177,
				"y": 2.3415978904,
				"z": 5.6998479484,
				"element": "C" 
			},
			{
				"x": -2.6951440808,
				"y": 1.4755265474,
				"z": 6.7183661799,
				"element": "C" 
			},
			{
				"x": -2.6959765814,
				"y": 0.0976664436,
				"z": 6.4921571934,
				"element": "C" 
			},
			{
				"x": -2.2968810645,
				"y": -0.4090637873,
				"z": 5.2547133462,
				"element": "C" 
			},
			{
				"x": 0.9942253778,
				"y": -0.0580267793,
				"z": 0.6623413901,
				"element": "C" 
			},
			{
				"x": 0.8877563944,
				"y": 1.1497774834,
				"z": 0.8240974454,
				"element": "O" 
			},
			{
				"x": 2.7295680368,
				"y": -0.5905808812,
				"z": -5.4457802244,
				"element": "H" 
			},
			{
				"x": 2.0639121344,
				"y": 0.8082030245,
				"z": -6.315109903,
				"element": "H" 
			},
			{
				"x": 3.7041019325,
				"y": 0.2573824224,
				"z": -6.6530707186,
				"element": "H" 
			},
			{
				"x": 3.7743505398,
				"y": 2.2907960508,
				"z": -5.1986170466,
				"element": "H" 
			},
			{
				"x": 4.4705819659,
				"y": 0.8881702226,
				"z": -4.3938284947,
				"element": "H" 
			},
			{
				"x": 3.1000341375,
				"y": 2.3056184738,
				"z": -2.9170436208,
				"element": "H" 
			},
			{
				"x": 0.6302238815,
				"y": 1.3920752873,
				"z": -4.4940623682,
				"element": "H" 
			},
			{
				"x": 1.3645351836,
				"y": 2.9979850355,
				"z": -4.6069843947,
				"element": "H" 
			},
			{
				"x": 0.650876215,
				"y": 2.4579457042,
				"z": -3.0880569663,
				"element": "H" 
			},
			{
				"x": 1.3228119677,
				"y": 1.3017712828,
				"z": -1.2906886717,
				"element": "H" 
			},
			{
				"x": 2.6443894691,
				"y": -0.9415390146,
				"z": -0.366378835,
				"element": "H" 
			},
			{
				"x": -0.1816014273,
				"y": -1.6612873014,
				"z": -1.2647652071,
				"element": "H" 
			},
			{
				"x": 1.324163583,
				"y": -2.3141005814,
				"z": -1.9284791416,
				"element": "H" 
			},
			{
				"x": 1.9623359957,
				"y": -3.2655899217,
				"z": 0.254145529,
				"element": "H" 
			},
			{
				"x": 0.3239229566,
				"y": -3.8114056764,
				"z": -0.0620963177,
				"element": "H" 
			},
			{
				"x": 0.315145801,
				"y": -1.1407531141,
				"z": 3.6887354444,
				"element": "H" 
			},
			{
				"x": 0.651612839,
				"y": 0.5096864369,
				"z": 3.108012669,
				"element": "H" 
			},
			{
				"x": -1.9574804722,
				"y": -1.0305075277,
				"z": 2.6638047563,
				"element": "H" 
			},
			{
				"x": -1.6246530554,
				"y": 0.6123245417,
				"z": 2.0939533513,
				"element": "H" 
			},
			{
				"x": -1.5849553684,
				"y": 2.5101348939,
				"z": 3.6723220815,
				"element": "H" 
			},
			{
				"x": -2.2930221995,
				"y": 3.4153105899,
				"z": 5.8660247837,
				"element": "H" 
			},
			{
				"x": -3.0088809166,
				"y": 1.8714505007,
				"z": 7.680022721,
				"element": "H" 
			},
			{
				"x": -3.0111232408,
				"y": -0.5832073996,
				"z": 7.2779788644,
				"element": "H" 
			},
			{
				"x": -2.3021811091,
				"y": -1.4828339946,
				"z": 5.0823066088,
				"element": "H" 
			}
		],
		 "valence_orbital": [ 
			{
				"type": "occ",
				"energy": -0.27294,
				"method": "rhf"
			},
			{
				"type": "occ",
				"energy": -0.26153,
				"method": "rhf"
			},
			{
				"type": "occ",
				"energy": -0.24956,
				"method": "rhf"
			},
			{
				"type": "occ",
				"energy": -0.24828,
				"method": "rhf"
			},
			{
				"type": "occ",
				"energy": -0.24113,
				"method": "rhf"
			},
			{
				"type": "unocc",
				"energy": -0.03766,
				"method": "rhf"
			},
			{
				"type": "unocc",
				"energy": -0.00229,
				"method": "rhf"
			},
			{
				"type": "unocc",
				"energy": 9e-05,
				"method": "rhf"
			},
			{
				"type": "unocc",
				"energy": 0.01445,
				"method": "rhf"
			},
			{
				"type": "unocc",
				"energy": 0.02326,
				"method": "rhf"
			}
		],
		"cosmo_sigma_profile": { 
			"-0.025": 0.0,
			"-0.024": 0.0,
			"-0.023": 0.0,
			"-0.022": 0.0,
			"-0.021": 0.0,
			"-0.02": 0.0,
			"-0.019": 0.0,
			"-0.018": 0.0,
			"-0.017": 0.0,
			"-0.016": 0.0,
			"-0.015": 0.0,
			"-0.014": 0.0,
			"-0.013": 0.0,
			"-0.012": 0.0,
			"-0.011": 0.261930040081,
			"-0.01": 1.55961631326,
			"-0.009": 2.79879910725,
			"-0.008": 4.03390679204,
			"-0.007": 7.77858748541,
			"-0.006": 11.4484407158,
			"-0.005": 23.6277479074,
			"-0.004": 32.2264152306,
			"-0.003": 44.3833047073,
			"-0.002": 44.7159454225,
			"-0.001": 36.8757297043,
			"0.0": 31.2829390601,
			"0.001": 27.3467668252,
			"0.002": 21.8052655732,
			"0.003": 14.6713247744,
			"0.004": 13.0232384595,
			"0.005": 13.688933146,
			"0.006": 12.941328635,
			"0.007": 5.0875624692,
			"0.008": 4.12721324402,
			"0.009": 5.24753215299,
			"0.01": 5.63971357599,
			"0.011": 7.0327829484,
			"0.012": 5.17800482006,
			"0.013": 3.53880249915,
			"0.014": 2.34137629648,
			"0.015": 0.0778830073286,
			"0.016": 0.0,
			"0.017": 0.0,
			"0.018": 0.0,
			"0.019": 0.0,
			"0.02": 0.0,
			"0.021": 0.0,
			"0.022": 0.0,
			"0.023": 0.0,
			"0.024": 0.0,
			"0.025": 0.0
		}
	}
}
