{
	 "smiles": "CN(C)C1=CC=C(C=C1)C1(OC(=O)C2=CC(=CC=C12)N(C)C)C1=CC=C(C=C1)N(C)C", 
	 "Tm": 454.65, 
	 "num_atms": 60, 
	 "gaussian": { 
		 "optdone": 1, 
		 "sigma_profile": "yes", 
		 "theory": "DFT", 
		 "functional": "B3LYP", 
		 "basiset": "6-31G**", 
		 "properties": { 
			 "R2extent": 16810.7898, 
			 "electric_dipole_moment_norm": 6.35961331136, 
			 "electric_quadrupole_moment_norm": 38.348983944, 
			 "total_energy": -1322.94144851, 
			 "HOMO_LUMO_gap": 0.15053, 
			 "cosmo_polarized_energy": -20.85, 
			 "cosmo_cavitation_energy": 60.3, 
			 "cosmo_dispersion_energy": -41.38, 
			 "cosmo_repulsion_energy": 3.1, 
			 "cosmo_total_nonelectrostatic_energy": 22.02, 
			 "SMD_solvation_energy": 9.64 
		},
		"coords": [
			{
				"x": 1.628285616,
				"y": -4.3246307573,
				"z": 3.6152750572,
				"element": "C" 
			},
			{
				"x": 1.5766439496,
				"y": -2.9074774623,
				"z": 3.9292962423,
				"element": "N" 
			},
			{
				"x": 2.345937739,
				"y": -2.4370162149,
				"z": 5.0684973055,
				"element": "C" 
			},
			{
				"x": 1.2283876435,
				"y": -2.0042642299,
				"z": 2.9279138344,
				"element": "C" 
			},
			{
				"x": 0.6849421089,
				"y": -2.4388794263,
				"z": 1.6983369363,
				"element": "C" 
			},
			{
				"x": 0.3017920719,
				"y": -1.526182847,
				"z": 0.7203559056,
				"element": "C" 
			},
			{
				"x": 0.4542419022,
				"y": -0.1465362454,
				"z": 0.9013258702,
				"element": "C" 
			},
			{
				"x": 1.0051262301,
				"y": 0.2883464723,
				"z": 2.1108844146,
				"element": "C" 
			},
			{
				"x": 1.3842751713,
				"y": -0.6111840836,
				"z": 3.1027175915,
				"element": "C" 
			},
			{
				"x": 0.110116055,
				"y": 0.8291484443,
				"z": -0.2269842514,
				"element": "C" 
			},
			{
				"x": -0.0675933016,
				"y": 2.1699840167,
				"z": 0.3604216499,
				"element": "O" 
			},
			{
				"x": 0.8092242558,
				"y": 3.0837400708,
				"z": -0.1621356118,
				"element": "C" 
			},
			{
				"x": 0.8118707801,
				"y": 4.2472883307,
				"z": 0.1646296702,
				"element": "O" 
			},
			{
				"x": 1.6848233265,
				"y": 2.3682677133,
				"z": -1.1160926366,
				"element": "C" 
			},
			{
				"x": 2.7549648894,
				"y": 2.8798422028,
				"z": -1.8384345935,
				"element": "C" 
			},
			{
				"x": 3.4864103031,
				"y": 2.0063173748,
				"z": -2.6724861377,
				"element": "C" 
			},
			{
				"x": 3.1025847435,
				"y": 0.6368970532,
				"z": -2.6930983335,
				"element": "C" 
			},
			{
				"x": 2.0267405983,
				"y": 0.153583628,
				"z": -1.9501301025,
				"element": "C" 
			},
			{
				"x": 1.2973818614,
				"y": 1.0369766351,
				"z": -1.1581331302,
				"element": "C" 
			},
			{
				"x": 4.5431105927,
				"y": 2.4652106691,
				"z": -3.4490964009,
				"element": "N" 
			},
			{
				"x": 5.0299849391,
				"y": 3.8199630002,
				"z": -3.2468432702,
				"element": "C" 
			},
			{
				"x": 5.4223667326,
				"y": 1.5100203894,
				"z": -4.1012554135,
				"element": "C" 
			},
			{
				"x": -1.2025867796,
				"y": 0.4814337712,
				"z": -0.9266205026,
				"element": "C" 
			},
			{
				"x": -2.3587664347,
				"y": 0.2936386068,
				"z": -0.1546744088,
				"element": "C" 
			},
			{
				"x": -3.5912590639,
				"y": 0.0300577639,
				"z": -0.7352259227,
				"element": "C" 
			},
			{
				"x": -3.731934045,
				"y": -0.0562840578,
				"z": -2.1412138503,
				"element": "C" 
			},
			{
				"x": -2.5647247784,
				"y": 0.1195512728,
				"z": -2.9147853384,
				"element": "C" 
			},
			{
				"x": -1.3370505704,
				"y": 0.3930642208,
				"z": -2.3144183018,
				"element": "C" 
			},
			{
				"x": -4.9672329579,
				"y": -0.2947857646,
				"z": -2.7314260228,
				"element": "N" 
			},
			{
				"x": -6.0930443024,
				"y": -0.6836130277,
				"z": -1.8997169043,
				"element": "C" 
			},
			{
				"x": -5.0326570651,
				"y": -0.5774654415,
				"z": -4.1542608991,
				"element": "C" 
			},
			{
				"x": 0.6484336235,
				"y": -4.6907427338,
				"z": 3.2886581766,
				"element": "H" 
			},
			{
				"x": 1.8998434287,
				"y": -4.8803292593,
				"z": 4.5145576051,
				"element": "H" 
			},
			{
				"x": 2.3593709534,
				"y": -4.5673055164,
				"z": 2.8270771686,
				"element": "H" 
			},
			{
				"x": 3.3282590485,
				"y": -2.0246564509,
				"z": 4.7870023815,
				"element": "H" 
			},
			{
				"x": 1.8004782229,
				"y": -1.6610037489,
				"z": 5.6168224316,
				"element": "H" 
			},
			{
				"x": 2.5094080535,
				"y": -3.2681459913,
				"z": 5.7568275376,
				"element": "H" 
			},
			{
				"x": 0.5470788948,
				"y": -3.4948720387,
				"z": 1.5008670642,
				"element": "H" 
			},
			{
				"x": -0.1349396423,
				"y": -1.9018997205,
				"z": -0.200542893,
				"element": "H" 
			},
			{
				"x": 1.1306070395,
				"y": 1.3504256789,
				"z": 2.2897893622,
				"element": "H" 
			},
			{
				"x": 1.8017597667,
				"y": -0.2169612914,
				"z": 4.0210490753,
				"element": "H" 
			},
			{
				"x": 3.0011595823,
				"y": 3.9290232281,
				"z": -1.7361731917,
				"element": "H" 
			},
			{
				"x": 3.6613518101,
				"y": -0.0666811545,
				"z": -3.2977147063,
				"element": "H" 
			},
			{
				"x": 1.7819248588,
				"y": -0.903700199,
				"z": -1.9898847471,
				"element": "H" 
			},
			{
				"x": 5.4257674171,
				"y": 3.9877973322,
				"z": -2.2329128421,
				"element": "H" 
			},
			{
				"x": 5.8271608215,
				"y": 4.0238430981,
				"z": -3.9634636696,
				"element": "H" 
			},
			{
				"x": 4.2339813911,
				"y": 4.5517804602,
				"z": -3.4228527696,
				"element": "H" 
			},
			{
				"x": 4.8702346237,
				"y": 0.8856020319,
				"z": -4.8132365514,
				"element": "H" 
			},
			{
				"x": 5.9356441449,
				"y": 0.8422766112,
				"z": -3.3913561448,
				"element": "H" 
			},
			{
				"x": 6.1816821278,
				"y": 2.0530665046,
				"z": -4.6660313791,
				"element": "H" 
			},
			{
				"x": -2.2901364119,
				"y": 0.3560687377,
				"z": 0.927109685,
				"element": "H" 
			},
			{
				"x": -4.4489544787,
				"y": -0.1083823702,
				"z": -0.0885474117,
				"element": "H" 
			},
			{
				"x": -2.6056956544,
				"y": 0.0496402351,
				"z": -3.9947785127,
				"element": "H" 
			},
			{
				"x": -0.4712259564,
				"y": 0.5358194595,
				"z": -2.9523524428,
				"element": "H" 
			},
			{
				"x": -6.3230241021,
				"y": 0.0911482407,
				"z": -1.1595216222,
				"element": "H" 
			},
			{
				"x": -5.9230025162,
				"y": -1.6280208177,
				"z": -1.358745671,
				"element": "H" 
			},
			{
				"x": -6.9763587096,
				"y": -0.8062188509,
				"z": -2.5287039223,
				"element": "H" 
			},
			{
				"x": -4.4765049406,
				"y": -1.484907928,
				"z": -4.439214446,
				"element": "H" 
			},
			{
				"x": -4.6339592418,
				"y": 0.2585001202,
				"z": -4.740411622,
				"element": "H" 
			},
			{
				"x": -6.075806366,
				"y": -0.712275745,
				"z": -4.4450383875,
				"element": "H" 
			}
		],
		 "valence_orbital": [ 
			{
				"type": "occ",
				"energy": -0.23878,
				"method": "rhf"
			},
			{
				"type": "occ",
				"energy": -0.23458,
				"method": "rhf"
			},
			{
				"type": "occ",
				"energy": -0.19577,
				"method": "rhf"
			},
			{
				"type": "occ",
				"energy": -0.18496,
				"method": "rhf"
			},
			{
				"type": "occ",
				"energy": -0.1801,
				"method": "rhf"
			},
			{
				"type": "unocc",
				"energy": -0.02957,
				"method": "rhf"
			},
			{
				"type": "unocc",
				"energy": 0.003,
				"method": "rhf"
			},
			{
				"type": "unocc",
				"energy": 0.00535,
				"method": "rhf"
			},
			{
				"type": "unocc",
				"energy": 0.01751,
				"method": "rhf"
			},
			{
				"type": "unocc",
				"energy": 0.02097,
				"method": "rhf"
			}
		],
		"cosmo_sigma_profile": { 
			"-0.025": 0.0,
			"-0.024": 0.0,
			"-0.023": 0.0,
			"-0.022": 0.0,
			"-0.021": 0.0,
			"-0.02": 0.0,
			"-0.019": 0.0,
			"-0.018": 0.0,
			"-0.017": 0.0,
			"-0.016": 0.0,
			"-0.015": 0.0,
			"-0.014": 0.0,
			"-0.013": 0.0,
			"-0.012": 0.0,
			"-0.011": 0.0,
			"-0.01": 0.0,
			"-0.009": 0.0,
			"-0.008": 0.0,
			"-0.007": 2.63318658016,
			"-0.006": 16.5998187741,
			"-0.005": 33.9776808999,
			"-0.004": 47.8629962752,
			"-0.003": 56.9680279356,
			"-0.002": 62.9198491727,
			"-0.001": 54.4573771369,
			"0.0": 28.4788529012,
			"0.001": 22.3854746307,
			"0.002": 21.109672917,
			"0.003": 21.8907451152,
			"0.004": 28.5838304482,
			"0.005": 21.2519161785,
			"0.006": 21.4544788564,
			"0.007": 12.6354574057,
			"0.008": 3.55238463714,
			"0.009": 3.78888391779,
			"0.01": 3.12644770571,
			"0.011": 4.33655483825,
			"0.012": 5.95300360883,
			"0.013": 2.9371026437,
			"0.014": 0.287782000166,
			"0.015": 0.0,
			"0.016": 0.0,
			"0.017": 0.0,
			"0.018": 0.0,
			"0.019": 0.0,
			"0.02": 0.0,
			"0.021": 0.0,
			"0.022": 0.0,
			"0.023": 0.0,
			"0.024": 0.0,
			"0.025": 0.0
		}
	}
}
