{
	 "smiles": "CC(C)N(CCOP(C)OCCN(C(C)C)C(C)C)C(C)C", 
	 "Tm": 350.65, 
	 "num_atms": 61, 
	 "gaussian": { 
		 "optdone": 1, 
		 "sigma_profile": "yes", 
		 "theory": "DFT", 
		 "functional": "B3LYP", 
		 "basiset": "6-31G**", 
		 "properties": { 
			 "R2extent": 9914.099, 
			 "electric_dipole_moment_norm": 1.647714505, 
			 "electric_quadrupole_moment_norm": 7.1487593616, 
			 "total_energy": -1272.62593103, 
			 "HOMO_LUMO_gap": 0.22769, 
			 "cosmo_polarized_energy": -10.49, 
			 "cosmo_cavitation_energy": 58.0, 
			 "cosmo_dispersion_energy": -35.9, 
			 "cosmo_repulsion_energy": 2.81, 
			 "cosmo_total_nonelectrostatic_energy": 24.91, 
			 "SMD_solvation_energy": 8.33 
		},
		"coords": [
			{
				"x": -2.4142179792,
				"y": 3.5927999061,
				"z": 1.6734225618,
				"element": "C" 
			},
			{
				"x": -0.890406661,
				"y": 3.5090692821,
				"z": 1.8454817288,
				"element": "C" 
			},
			{
				"x": -0.6088050229,
				"y": 2.7112352569,
				"z": 3.1313340679,
				"element": "C" 
			},
			{
				"x": -0.1667366644,
				"y": 2.9089193922,
				"z": 0.6935717755,
				"element": "N" 
			},
			{
				"x": -0.7173854351,
				"y": 3.1779257954,
				"z": -0.6386156003,
				"element": "C" 
			},
			{
				"x": -1.7775622662,
				"y": 2.1849040232,
				"z": -1.1458479633,
				"element": "C" 
			},
			{
				"x": -1.3198201174,
				"y": 0.8526382941,
				"z": -1.378839564,
				"element": "O" 
			},
			{
				"x": -0.2931652931,
				"y": 0.5209014776,
				"z": -2.6760436967,
				"element": "P" 
			},
			{
				"x": -1.5052796177,
				"y": 0.5160468287,
				"z": -4.0758631127,
				"element": "C" 
			},
			{
				"x": -0.256866807,
				"y": -1.1260942716,
				"z": -2.5245107907,
				"element": "O" 
			},
			{
				"x": 0.5157354438,
				"y": -1.7356675886,
				"z": -1.4759952818,
				"element": "C" 
			},
			{
				"x": -0.4444297768,
				"y": -2.394606827,
				"z": -0.4795976109,
				"element": "C" 
			},
			{
				"x": 0.2647720483,
				"y": -3.1170877453,
				"z": 0.5865291879,
				"element": "N" 
			},
			{
				"x": 0.0363847086,
				"y": -2.5517681611,
				"z": 1.9351223305,
				"element": "C" 
			},
			{
				"x": 0.5586969387,
				"y": -1.1110505341,
				"z": 2.0205169024,
				"element": "C" 
			},
			{
				"x": -1.417771789,
				"y": -2.6540617487,
				"z": 2.4409775109,
				"element": "C" 
			},
			{
				"x": 0.1388474103,
				"y": -4.5869481588,
				"z": 0.4702777978,
				"element": "C" 
			},
			{
				"x": 0.7495023178,
				"y": -5.0742125104,
				"z": -0.8541803502,
				"element": "C" 
			},
			{
				"x": 0.8236041036,
				"y": -5.3342550318,
				"z": 1.6240365786,
				"element": "C" 
			},
			{
				"x": 1.2934961541,
				"y": 3.1885943689,
				"z": 0.7679601146,
				"element": "C" 
			},
			{
				"x": 2.1113351062,
				"y": 2.1073838813,
				"z": 0.0517243308,
				"element": "C" 
			},
			{
				"x": 1.7075857673,
				"y": 4.601851737,
				"z": 0.3024565024,
				"element": "C" 
			},
			{
				"x": -2.835828956,
				"y": 4.0993302498,
				"z": 2.5471492211,
				"element": "H" 
			},
			{
				"x": -2.7209525781,
				"y": 4.1632584374,
				"z": 0.7934859427,
				"element": "H" 
			},
			{
				"x": -2.866213435,
				"y": 2.597056147,
				"z": 1.6219989018,
				"element": "H" 
			},
			{
				"x": -0.5408459748,
				"y": 4.5473751957,
				"z": 2.0035602198,
				"element": "H" 
			},
			{
				"x": 0.4546328598,
				"y": 2.6476156833,
				"z": 3.3738098384,
				"element": "H" 
			},
			{
				"x": -0.9893620642,
				"y": 1.690474786,
				"z": 3.0262902523,
				"element": "H" 
			},
			{
				"x": -1.1084780511,
				"y": 3.1834255957,
				"z": 3.984211829,
				"element": "H" 
			},
			{
				"x": -1.1514782188,
				"y": 4.189776162,
				"z": -0.7280574252,
				"element": "H" 
			},
			{
				"x": 0.1048112328,
				"y": 3.1526412487,
				"z": -1.3574956689,
				"element": "H" 
			},
			{
				"x": -2.5955851715,
				"y": 2.083245872,
				"z": -0.4323061192,
				"element": "H" 
			},
			{
				"x": -2.2093030769,
				"y": 2.6085881798,
				"z": -2.0670179016,
				"element": "H" 
			},
			{
				"x": -2.3531371423,
				"y": -0.1324515776,
				"z": -3.837940969,
				"element": "H" 
			},
			{
				"x": -1.8627465854,
				"y": 1.5328531044,
				"z": -4.268116074,
				"element": "H" 
			},
			{
				"x": -1.0095502057,
				"y": 0.152886885,
				"z": -4.9812659173,
				"element": "H" 
			},
			{
				"x": 1.1485716931,
				"y": -1.0002651974,
				"z": -0.9653757204,
				"element": "H" 
			},
			{
				"x": 1.1736484584,
				"y": -2.4789493902,
				"z": -1.9366753546,
				"element": "H" 
			},
			{
				"x": -1.1179992875,
				"y": -3.0598130205,
				"z": -1.0360946635,
				"element": "H" 
			},
			{
				"x": -1.0826294192,
				"y": -1.6051014042,
				"z": -0.073124568,
				"element": "H" 
			},
			{
				"x": 0.6607359779,
				"y": -3.1351644212,
				"z": 2.6167446383,
				"element": "H" 
			},
			{
				"x": 1.6054635435,
				"y": -1.0715623999,
				"z": 1.7033997326,
				"element": "H" 
			},
			{
				"x": -0.0132617463,
				"y": -0.4107315598,
				"z": 1.4028995974,
				"element": "H" 
			},
			{
				"x": 0.5015164539,
				"y": -0.7540556297,
				"z": 3.0545424705,
				"element": "H" 
			},
			{
				"x": -1.4906699961,
				"y": -2.295393152,
				"z": 3.4736579295,
				"element": "H" 
			},
			{
				"x": -1.7777660041,
				"y": -3.6881181506,
				"z": 2.4224665044,
				"element": "H" 
			},
			{
				"x": -2.1015456895,
				"y": -2.0503968806,
				"z": 1.8347564148,
				"element": "H" 
			},
			{
				"x": -0.9290635306,
				"y": -4.8840923901,
				"z": 0.4683700127,
				"element": "H" 
			},
			{
				"x": 0.6381058209,
				"y": -6.1600704313,
				"z": -0.9405102228,
				"element": "H" 
			},
			{
				"x": 0.2687188499,
				"y": -4.6289150389,
				"z": -1.7285573988,
				"element": "H" 
			},
			{
				"x": 1.8171297405,
				"y": -4.8315104605,
				"z": -0.8901894605,
				"element": "H" 
			},
			{
				"x": 1.8653632763,
				"y": -5.0111521959,
				"z": 1.7288729072,
				"element": "H" 
			},
			{
				"x": 0.3200304349,
				"y": -5.1972570578,
				"z": 2.5843214945,
				"element": "H" 
			},
			{
				"x": 0.8230652557,
				"y": -6.4074370897,
				"z": 1.4100350513,
				"element": "H" 
			},
			{
				"x": 1.5542639225,
				"y": 3.120387817,
				"z": 1.8273037105,
				"element": "H" 
			},
			{
				"x": 1.8650369044,
				"y": 1.1202407673,
				"z": 0.4500350496,
				"element": "H" 
			},
			{
				"x": 3.1824066103,
				"y": 2.2854276047,
				"z": 0.1990766745,
				"element": "H" 
			},
			{
				"x": 1.9265263197,
				"y": 2.0890020259,
				"z": -1.0269807658,
				"element": "H" 
			},
			{
				"x": 1.595587296,
				"y": 4.7262694778,
				"z": -0.7796899005,
				"element": "H" 
			},
			{
				"x": 2.7604277133,
				"y": 4.783371995,
				"z": 0.5432561865,
				"element": "H" 
			},
			{
				"x": 1.1183622005,
				"y": 5.3824925472,
				"z": 0.7947361312,
				"element": "H" 
			}
		],
		 "valence_orbital": [ 
			{
				"type": "occ",
				"energy": -0.29015,
				"method": "rhf"
			},
			{
				"type": "occ",
				"energy": -0.27487,
				"method": "rhf"
			},
			{
				"type": "occ",
				"energy": -0.21265,
				"method": "rhf"
			},
			{
				"type": "occ",
				"energy": -0.19966,
				"method": "rhf"
			},
			{
				"type": "occ",
				"energy": -0.19626,
				"method": "rhf"
			},
			{
				"type": "unocc",
				"energy": 0.03143,
				"method": "rhf"
			},
			{
				"type": "unocc",
				"energy": 0.05202,
				"method": "rhf"
			},
			{
				"type": "unocc",
				"energy": 0.07738,
				"method": "rhf"
			},
			{
				"type": "unocc",
				"energy": 0.08355,
				"method": "rhf"
			},
			{
				"type": "unocc",
				"energy": 0.09344,
				"method": "rhf"
			}
		],
		"cosmo_sigma_profile": { 
			"-0.025": 0.0,
			"-0.024": 0.0,
			"-0.023": 0.0,
			"-0.022": 0.0,
			"-0.021": 0.0,
			"-0.02": 0.0,
			"-0.019": 0.0,
			"-0.018": 0.0,
			"-0.017": 0.0,
			"-0.016": 0.0,
			"-0.015": 0.0,
			"-0.014": 0.0,
			"-0.013": 0.0,
			"-0.012": 0.0,
			"-0.011": 0.0,
			"-0.01": 0.0,
			"-0.009": 0.0,
			"-0.008": 0.151002581394,
			"-0.007": 0.931510741956,
			"-0.006": 2.02448384284,
			"-0.005": 6.56273350215,
			"-0.004": 17.8618521819,
			"-0.003": 49.7644005559,
			"-0.002": 73.5586041044,
			"-0.001": 74.1129481102,
			"0.0": 65.9225921466,
			"0.001": 63.1795857316,
			"0.002": 33.0706449797,
			"0.003": 10.5612678213,
			"0.004": 6.73233216586,
			"0.005": 7.80704618343,
			"0.006": 5.47093564982,
			"0.007": 6.13324624003,
			"0.008": 5.76127209835,
			"0.009": 5.35828432994,
			"0.01": 3.40449196648,
			"0.011": 2.7517762995,
			"0.012": 1.39987514452,
			"0.013": 0.682247060728,
			"0.014": 0.143612095351,
			"0.015": 0.0,
			"0.016": 0.0,
			"0.017": 0.0,
			"0.018": 0.0,
			"0.019": 0.0,
			"0.02": 0.0,
			"0.021": 0.0,
			"0.022": 0.0,
			"0.023": 0.0,
			"0.024": 0.0,
			"0.025": 0.0
		}
	}
}
