{
	 "smiles": "C(N1CCN(CC1)C1=NC=CC=N1)C1=CC2=C(OCO2)C=C1", 
	 "Tm": 371.15, 
	 "num_atms": 40, 
	 "gaussian": { 
		 "optdone": 1, 
		 "sigma_profile": "yes", 
		 "theory": "DFT", 
		 "functional": "B3LYP", 
		 "basiset": "6-31G**", 
		 "properties": { 
			 "R2extent": 11193.5053, 
			 "electric_dipole_moment_norm": 1.21904334213, 
			 "electric_quadrupole_moment_norm": 8.53550310644, 
			 "total_energy": -989.962906338, 
			 "HOMO_LUMO_gap": 0.17568, 
			 "cosmo_polarized_energy": -12.23, 
			 "cosmo_cavitation_energy": 41.85, 
			 "cosmo_dispersion_energy": -30.67, 
			 "cosmo_repulsion_energy": 2.32, 
			 "cosmo_total_nonelectrostatic_energy": 13.5, 
			 "SMD_solvation_energy": 2.63 
		},
		"coords": [
			{
				"x": 0.3553015203,
				"y": 0.3494515437,
				"z": 1.1328257186,
				"element": "C" 
			},
			{
				"x": 0.45246571,
				"y": 0.7655019323,
				"z": -0.2671711762,
				"element": "N" 
			},
			{
				"x": 1.5914695611,
				"y": 0.2014038766,
				"z": -1.0007946019,
				"element": "C" 
			},
			{
				"x": 1.3510793304,
				"y": 0.235856487,
				"z": -2.5190152508,
				"element": "C" 
			},
			{
				"x": 0.6358992658,
				"y": 1.4395801777,
				"z": -2.9165920407,
				"element": "N" 
			},
			{
				"x": -0.6285231345,
				"y": 1.7172481184,
				"z": -2.2306071131,
				"element": "C" 
			},
			{
				"x": -0.7864981037,
				"y": 0.7745868581,
				"z": -1.0310876251,
				"element": "C" 
			},
			{
				"x": 1.0707197982,
				"y": 2.2600328151,
				"z": -3.9152347568,
				"element": "C" 
			},
			{
				"x": 0.2777343053,
				"y": 3.3167082691,
				"z": -4.2154559971,
				"element": "N" 
			},
			{
				"x": 0.715437941,
				"y": 4.1209670464,
				"z": -5.1829166709,
				"element": "C" 
			},
			{
				"x": 1.9101021059,
				"y": 3.9134909275,
				"z": -5.8708286248,
				"element": "C" 
			},
			{
				"x": 2.6392169848,
				"y": 2.7888590499,
				"z": -5.4819529875,
				"element": "C" 
			},
			{
				"x": 2.2446222232,
				"y": 1.9580393681,
				"z": -4.5208311459,
				"element": "N" 
			},
			{
				"x": 0.0285113713,
				"y": -1.116845346,
				"z": 1.3966832939,
				"element": "C" 
			},
			{
				"x": 1.0718535031,
				"y": -2.0449674381,
				"z": 1.6170430788,
				"element": "C" 
			},
			{
				"x": 0.7253238273,
				"y": -3.3680287523,
				"z": 1.806341763,
				"element": "C" 
			},
			{
				"x": -0.6002365556,
				"y": -3.7937721747,
				"z": 1.7935223189,
				"element": "C" 
			},
			{
				"x": -0.6559209155,
				"y": -5.1457806702,
				"z": 2.038607822,
				"element": "O" 
			},
			{
				"x": 0.7047782276,
				"y": -5.592421219,
				"z": 2.0527256027,
				"element": "C" 
			},
			{
				"x": 1.5517590024,
				"y": -4.437468587,
				"z": 2.0614151319,
				"element": "O" 
			},
			{
				"x": -1.6424296495,
				"y": -2.9098326047,
				"z": 1.5956337539,
				"element": "C" 
			},
			{
				"x": -1.2999588551,
				"y": -1.5601007309,
				"z": 1.3966673398,
				"element": "C" 
			},
			{
				"x": -0.4066898611,
				"y": 0.9796742503,
				"z": 1.6072346105,
				"element": "H" 
			},
			{
				"x": 1.3120147738,
				"y": 0.5952430955,
				"z": 1.6113066015,
				"element": "H" 
			},
			{
				"x": 2.4910610934,
				"y": 0.7790678605,
				"z": -0.7458407339,
				"element": "H" 
			},
			{
				"x": 1.7890603223,
				"y": -0.8487149645,
				"z": -0.7286079408,
				"element": "H" 
			},
			{
				"x": 2.2968143171,
				"y": 0.2076730792,
				"z": -3.0575370404,
				"element": "H" 
			},
			{
				"x": 0.7737198881,
				"y": -0.6493047241,
				"z": -2.8217060316,
				"element": "H" 
			},
			{
				"x": -0.6224906202,
				"y": 2.7553753349,
				"z": -1.8866824433,
				"element": "H" 
			},
			{
				"x": -1.4778867333,
				"y": 1.6089451201,
				"z": -2.9193588072,
				"element": "H" 
			},
			{
				"x": -1.1168522471,
				"y": -0.2276731721,
				"z": -1.3593474099,
				"element": "H" 
			},
			{
				"x": -1.5869041527,
				"y": 1.1687471216,
				"z": -0.3954881353,
				"element": "H" 
			},
			{
				"x": 0.0758827246,
				"y": 4.9711869973,
				"z": -5.4200014991,
				"element": "H" 
			},
			{
				"x": 2.2474725046,
				"y": 4.5770531499,
				"z": -6.6578704717,
				"element": "H" 
			},
			{
				"x": 3.5844583645,
				"y": 2.5425664375,
				"z": -5.965632506,
				"element": "H" 
			},
			{
				"x": 2.109550922,
				"y": -1.7299071074,
				"z": 1.6544995667,
				"element": "H" 
			},
			{
				"x": 0.9053519766,
				"y": -6.1881063277,
				"z": 1.1503550802,
				"element": "H" 
			},
			{
				"x": 0.8851502343,
				"y": -6.18380715,
				"z": 2.9559517028,
				"element": "H" 
			},
			{
				"x": -2.6741819345,
				"y": -3.2430406918,
				"z": 1.6043488759,
				"element": "H" 
			},
			{
				"x": -2.0980390361,
				"y": -0.8379872567,
				"z": 1.249598749,
				"element": "H" 
			}
		],
		 "valence_orbital": [ 
			{
				"type": "occ",
				"energy": -0.24717,
				"method": "rhf"
			},
			{
				"type": "occ",
				"energy": -0.23422,
				"method": "rhf"
			},
			{
				"type": "occ",
				"energy": -0.21108,
				"method": "rhf"
			},
			{
				"type": "occ",
				"energy": -0.2044,
				"method": "rhf"
			},
			{
				"type": "occ",
				"energy": -0.19824,
				"method": "rhf"
			},
			{
				"type": "unocc",
				"energy": -0.02256,
				"method": "rhf"
			},
			{
				"type": "unocc",
				"energy": -0.00277,
				"method": "rhf"
			},
			{
				"type": "unocc",
				"energy": 0.00576,
				"method": "rhf"
			},
			{
				"type": "unocc",
				"energy": 0.01134,
				"method": "rhf"
			},
			{
				"type": "unocc",
				"energy": 0.0823,
				"method": "rhf"
			}
		],
		"cosmo_sigma_profile": { 
			"-0.025": 0.0,
			"-0.024": 0.0,
			"-0.023": 0.0,
			"-0.022": 0.0,
			"-0.021": 0.0,
			"-0.02": 0.0,
			"-0.019": 0.0,
			"-0.018": 0.0,
			"-0.017": 0.0,
			"-0.016": 0.0,
			"-0.015": 0.0,
			"-0.014": 0.0,
			"-0.013": 0.0,
			"-0.012": 0.0,
			"-0.011": 0.0,
			"-0.01": 0.0,
			"-0.009": 0.0,
			"-0.008": 1.88970892213,
			"-0.007": 10.1045185171,
			"-0.006": 18.4066179378,
			"-0.005": 21.7641940206,
			"-0.004": 29.5401382137,
			"-0.003": 32.2953904256,
			"-0.002": 31.6445888059,
			"-0.001": 25.3579693092,
			"0.0": 21.0483986694,
			"0.001": 22.012647645,
			"0.002": 26.8207458747,
			"0.003": 22.1963403672,
			"0.004": 15.8023906802,
			"0.005": 14.0052800598,
			"0.006": 8.05571004128,
			"0.007": 5.13223039342,
			"0.008": 6.63747379602,
			"0.009": 6.31491060585,
			"0.01": 5.60672797149,
			"0.011": 2.91432595782,
			"0.012": 2.02036486072,
			"0.013": 1.0539158423,
			"0.014": 0.811143064901,
			"0.015": 0.103383669825,
			"0.016": 0.0,
			"0.017": 0.0,
			"0.018": 0.0,
			"0.019": 0.0,
			"0.02": 0.0,
			"0.021": 0.0,
			"0.022": 0.0,
			"0.023": 0.0,
			"0.024": 0.0,
			"0.025": 0.0
		}
	}
}
