{
	 "smiles": "FC1=C(F)C(F)=C(NC(=O)CNC(=O)CCl)C=C1", 
	 "Tm": 434.15, 
	 "num_atms": 26, 
	 "gaussian": { 
		 "optdone": 1, 
		 "sigma_profile": "yes", 
		 "theory": "DFT", 
		 "functional": "B3LYP", 
		 "basiset": "6-31G**", 
		 "properties": { 
			 "R2extent": 7119.5035, 
			 "electric_dipole_moment_norm": 5.04930995682, 
			 "electric_quadrupole_moment_norm": 18.6262166314, 
			 "total_energy": -1405.53186432, 
			 "HOMO_LUMO_gap": 0.21042, 
			 "cosmo_polarized_energy": -19.28, 
			 "cosmo_cavitation_energy": 34.84, 
			 "cosmo_dispersion_energy": -24.01, 
			 "cosmo_repulsion_energy": 1.82, 
			 "cosmo_total_nonelectrostatic_energy": 12.65, 
			 "SMD_solvation_energy": 7.65 
		},
		"coords": [
			{
				"x": -1.5072290138,
				"y": -4.268282392,
				"z": -2.3689778398,
				"element": "F" 
			},
			{
				"x": -1.0360762308,
				"y": -3.0604516991,
				"z": -2.0300168395,
				"element": "C" 
			},
			{
				"x": -0.1387329676,
				"y": -2.4277740891,
				"z": -2.8905505737,
				"element": "C" 
			},
			{
				"x": 0.2462849296,
				"y": -3.0137268972,
				"z": -4.0274777173,
				"element": "F" 
			},
			{
				"x": 0.3640117148,
				"y": -1.1800916419,
				"z": -2.5449978274,
				"element": "C" 
			},
			{
				"x": 1.2282653769,
				"y": -0.5709462604,
				"z": -3.3761700203,
				"element": "F" 
			},
			{
				"x": -0.0176136946,
				"y": -0.5324206239,
				"z": -1.3603543388,
				"element": "C" 
			},
			{
				"x": 0.5261149142,
				"y": 0.747733504,
				"z": -1.1299785698,
				"element": "N" 
			},
			{
				"x": 1.0320228476,
				"y": 1.330804494,
				"z": 0.0125768292,
				"element": "C" 
			},
			{
				"x": 1.6129857276,
				"y": 2.4039338512,
				"z": -0.0531465993,
				"element": "O" 
			},
			{
				"x": 0.8397077258,
				"y": 0.6138342167,
				"z": 1.3500336543,
				"element": "C" 
			},
			{
				"x": 1.6966958397,
				"y": 1.255698479,
				"z": 2.3195980448,
				"element": "N" 
			},
			{
				"x": 1.9163941912,
				"y": 0.9063250494,
				"z": 3.6184030506,
				"element": "C" 
			},
			{
				"x": 2.6015305802,
				"y": 1.5801609968,
				"z": 4.3738113321,
				"element": "O" 
			},
			{
				"x": 1.2409854063,
				"y": -0.3672907171,
				"z": 4.1345545839,
				"element": "C" 
			},
			{
				"x": 1.9259531356,
				"y": -1.8826424064,
				"z": 3.3966482334,
				"element": "Cl" 
			},
			{
				"x": -0.9464406989,
				"y": -1.1744052661,
				"z": -0.5321918893,
				"element": "C" 
			},
			{
				"x": -1.4384955548,
				"y": -2.4399603572,
				"z": -0.8563012029,
				"element": "C" 
			},
			{
				"x": 0.8194146802,
				"y": 1.2520352083,
				"z": -1.9591937684,
				"element": "H" 
			},
			{
				"x": -0.2228694962,
				"y": 0.6949987776,
				"z": 1.6281495672,
				"element": "H" 
			},
			{
				"x": 1.0662077029,
				"y": -0.4524094052,
				"z": 1.2437203895,
				"element": "H" 
			},
			{
				"x": 2.1250752193,
				"y": 2.1214956351,
				"z": 2.006661006,
				"element": "H" 
			},
			{
				"x": 0.1665386994,
				"y": -0.3804363489,
				"z": 3.9367707031,
				"element": "H" 
			},
			{
				"x": 1.4277083665,
				"y": -0.4227926772,
				"z": 5.2042386097,
				"element": "H" 
			},
			{
				"x": -1.3087076328,
				"y": -0.6808316451,
				"z": 0.3599642071,
				"element": "H" 
			},
			{
				"x": -2.1514317683,
				"y": -2.9445577853,
				"z": -0.2145730243,
				"element": "H" 
			}
		],
		 "valence_orbital": [ 
			{
				"type": "occ",
				"energy": -0.29587,
				"method": "rhf"
			},
			{
				"type": "occ",
				"energy": -0.2801,
				"method": "rhf"
			},
			{
				"type": "occ",
				"energy": -0.26529,
				"method": "rhf"
			},
			{
				"type": "occ",
				"energy": -0.25903,
				"method": "rhf"
			},
			{
				"type": "occ",
				"energy": -0.25355,
				"method": "rhf"
			},
			{
				"type": "unocc",
				"energy": -0.04313,
				"method": "rhf"
			},
			{
				"type": "unocc",
				"energy": -0.03844,
				"method": "rhf"
			},
			{
				"type": "unocc",
				"energy": -0.02518,
				"method": "rhf"
			},
			{
				"type": "unocc",
				"energy": -0.00126,
				"method": "rhf"
			},
			{
				"type": "unocc",
				"energy": 0.02573,
				"method": "rhf"
			}
		],
		"cosmo_sigma_profile": { 
			"-0.025": 0.0,
			"-0.024": 0.0,
			"-0.023": 0.0,
			"-0.022": 0.0,
			"-0.021": 0.0,
			"-0.02": 0.0,
			"-0.019": 0.0,
			"-0.018": 0.0,
			"-0.017": 0.0,
			"-0.016": 0.0,
			"-0.015": 0.0,
			"-0.014": 0.592607903575,
			"-0.013": 0.601555449389,
			"-0.012": 1.53569355625,
			"-0.011": 2.04130284156,
			"-0.01": 4.57866022135,
			"-0.009": 9.47817796753,
			"-0.008": 10.9755806408,
			"-0.007": 10.5590343987,
			"-0.006": 9.797505158,
			"-0.005": 10.811897024,
			"-0.004": 10.3800023566,
			"-0.003": 15.364327517,
			"-0.002": 21.3731182138,
			"-0.001": 20.4157947256,
			"0.0": 19.5593961885,
			"0.001": 21.5066002439,
			"0.002": 24.7008796401,
			"0.003": 32.7769598984,
			"0.004": 11.1217154412,
			"0.005": 9.36862281617,
			"0.006": 4.46863585926,
			"0.007": 2.35513925306,
			"0.008": 2.7558755671,
			"0.009": 2.90081482908,
			"0.01": 2.67107833024,
			"0.011": 5.46970734798,
			"0.012": 5.62022950235,
			"0.013": 6.05916253917,
			"0.014": 1.65021085239,
			"0.015": 0.0,
			"0.016": 0.0,
			"0.017": 0.0,
			"0.018": 0.0,
			"0.019": 0.0,
			"0.02": 0.0,
			"0.021": 0.0,
			"0.022": 0.0,
			"0.023": 0.0,
			"0.024": 0.0,
			"0.025": 0.0
		}
	}
}
