{
	 "smiles": "CC1=C(C(O)=O)C(=NO1)C1=CC=C(F)C=C1", 
	 "Tm": 471.15, 
	 "num_atms": 24, 
	 "gaussian": { 
		 "optdone": 1, 
		 "sigma_profile": "yes", 
		 "theory": "DFT", 
		 "functional": "B3LYP", 
		 "basiset": "6-31G**", 
		 "properties": { 
			 "R2extent": 4797.056, 
			 "electric_dipole_moment_norm": 3.85453958599, 
			 "electric_quadrupole_moment_norm": 9.94163564913, 
			 "total_energy": -804.223941444, 
			 "HOMO_LUMO_gap": 0.19374, 
			 "cosmo_polarized_energy": -11.81, 
			 "cosmo_cavitation_energy": 29.67, 
			 "cosmo_dispersion_energy": -21.65, 
			 "cosmo_repulsion_energy": 1.65, 
			 "cosmo_total_nonelectrostatic_energy": 9.67, 
			 "SMD_solvation_energy": 6.8 
		},
		"coords": [
			{
				"x": 1.8731447854,
				"y": 1.3992050523,
				"z": 2.3484181902,
				"element": "C" 
			},
			{
				"x": 1.1034101532,
				"y": 1.2675218642,
				"z": 1.0793145425,
				"element": "C" 
			},
			{
				"x": 0.9257872403,
				"y": 0.2636182753,
				"z": 0.1503704833,
				"element": "C" 
			},
			{
				"x": 1.4876199886,
				"y": -1.0878808181,
				"z": 0.223202157,
				"element": "C" 
			},
			{
				"x": 2.2020821888,
				"y": -1.2814381663,
				"z": 1.3668919993,
				"element": "O" 
			},
			{
				"x": 1.365402231,
				"y": -1.9743830702,
				"z": -0.599845752,
				"element": "O" 
			},
			{
				"x": 0.0275491252,
				"y": 0.8428399563,
				"z": -0.8252237385,
				"element": "C" 
			},
			{
				"x": -0.2786689118,
				"y": 2.0801691363,
				"z": -0.4898400745,
				"element": "N" 
			},
			{
				"x": 0.3978366587,
				"y": 2.3401958982,
				"z": 0.7095223436,
				"element": "O" 
			},
			{
				"x": -0.5942354633,
				"y": 0.3011589187,
				"z": -2.0529775441,
				"element": "C" 
			},
			{
				"x": 0.0658372782,
				"y": -0.6023940415,
				"z": -2.9001172799,
				"element": "C" 
			},
			{
				"x": -0.5371348854,
				"y": -1.0393474129,
				"z": -4.0776775995,
				"element": "C" 
			},
			{
				"x": -1.8032092491,
				"y": -0.566931408,
				"z": -4.4017632101,
				"element": "C" 
			},
			{
				"x": -2.3904032582,
				"y": -0.9934955511,
				"z": -5.5379507167,
				"element": "F" 
			},
			{
				"x": -2.4850242071,
				"y": 0.3303049854,
				"z": -3.5863810627,
				"element": "C" 
			},
			{
				"x": -1.8735850049,
				"y": 0.7622901605,
				"z": -2.4137830838,
				"element": "C" 
			},
			{
				"x": 1.500831442,
				"y": 0.6971342694,
				"z": 3.0995933619,
				"element": "H" 
			},
			{
				"x": 1.777483908,
				"y": 2.4184684347,
				"z": 2.7270264028,
				"element": "H" 
			},
			{
				"x": 2.9280575133,
				"y": 1.1649025217,
				"z": 2.1871845706,
				"element": "H" 
			},
			{
				"x": 2.5271721605,
				"y": -2.1956947714,
				"z": 1.3152709246,
				"element": "H" 
			},
			{
				"x": 1.0438847434,
				"y": -0.9777249207,
				"z": -2.6324899605,
				"element": "H" 
			},
			{
				"x": -0.0393298258,
				"y": -1.7377743319,
				"z": -4.7412680316,
				"element": "H" 
			},
			{
				"x": -3.4738555558,
				"y": 0.6722610476,
				"z": -3.8715950557,
				"element": "H" 
			},
			{
				"x": -2.3847530551,
				"y": 1.4635939717,
				"z": -1.7638818662,
				"element": "H" 
			}
		],
		 "valence_orbital": [ 
			{
				"type": "occ",
				"energy": -0.31194,
				"method": "rhf"
			},
			{
				"type": "occ",
				"energy": -0.28954,
				"method": "rhf"
			},
			{
				"type": "occ",
				"energy": -0.27256,
				"method": "rhf"
			},
			{
				"type": "occ",
				"energy": -0.25918,
				"method": "rhf"
			},
			{
				"type": "occ",
				"energy": -0.23774,
				"method": "rhf"
			},
			{
				"type": "unocc",
				"energy": -0.044,
				"method": "rhf"
			},
			{
				"type": "unocc",
				"energy": -0.0353,
				"method": "rhf"
			},
			{
				"type": "unocc",
				"energy": -0.00921,
				"method": "rhf"
			},
			{
				"type": "unocc",
				"energy": 0.02601,
				"method": "rhf"
			},
			{
				"type": "unocc",
				"energy": 0.06762,
				"method": "rhf"
			}
		],
		"cosmo_sigma_profile": { 
			"-0.025": 0.0,
			"-0.024": 0.0,
			"-0.023": 0.0,
			"-0.022": 0.0,
			"-0.021": 0.0,
			"-0.02": 0.0,
			"-0.019": 0.0587902012664,
			"-0.018": 0.717436563012,
			"-0.017": 1.28277752154,
			"-0.016": 0.620308483049,
			"-0.015": 0.171333039458,
			"-0.014": 1.03206378191,
			"-0.013": 0.59739684505,
			"-0.012": 0.722879358324,
			"-0.011": 1.16590551302,
			"-0.01": 0.767115393315,
			"-0.009": 0.310324509168,
			"-0.008": 1.61132211958,
			"-0.007": 5.81911378163,
			"-0.006": 11.4475381954,
			"-0.005": 13.8076457512,
			"-0.004": 14.3966603799,
			"-0.003": 21.4222028462,
			"-0.002": 20.6802526405,
			"-0.001": 16.4021693333,
			"0.0": 17.3783737201,
			"0.001": 15.3452893428,
			"0.002": 16.9440571464,
			"0.003": 20.2531595526,
			"0.004": 18.4929874952,
			"0.005": 8.67788756465,
			"0.006": 4.45270809106,
			"0.007": 6.0244234726,
			"0.008": 3.88133554793,
			"0.009": 3.53674257887,
			"0.01": 3.5544530344,
			"0.011": 3.87487820475,
			"0.012": 2.20175816908,
			"0.013": 0.791419193745,
			"0.014": 0.0,
			"0.015": 0.0,
			"0.016": 0.0,
			"0.017": 0.0,
			"0.018": 0.0,
			"0.019": 0.0,
			"0.02": 0.0,
			"0.021": 0.0,
			"0.022": 0.0,
			"0.023": 0.0,
			"0.024": 0.0,
			"0.025": 0.0
		}
	}
}
