{
	 "smiles": "CS(=O)(=O)C1=CC2=C(OCCN2)C=C1", 
	 "Tm": 391.15, 
	 "num_atms": 25, 
	 "gaussian": { 
		 "optdone": 1, 
		 "sigma_profile": "yes", 
		 "theory": "DFT", 
		 "functional": "B3LYP", 
		 "basiset": "6-31G**", 
		 "properties": { 
			 "R2extent": 3870.1052, 
			 "electric_dipole_moment_norm": 6.42270175394, 
			 "electric_quadrupole_moment_norm": 17.5235426107, 
			 "total_energy": -1028.12608079, 
			 "HOMO_LUMO_gap": 0.18638, 
			 "cosmo_polarized_energy": -18.9, 
			 "cosmo_cavitation_energy": 29.34, 
			 "cosmo_dispersion_energy": -22.38, 
			 "cosmo_repulsion_energy": 1.71, 
			 "cosmo_total_nonelectrostatic_energy": 8.67, 
			 "SMD_solvation_energy": 3.7 
		},
		"coords": [
			{
				"x": -0.2939866811,
				"y": -1.7186831433,
				"z": -3.2068554192,
				"element": "C" 
			},
			{
				"x": -1.1748636023,
				"y": -1.5076419424,
				"z": -1.6394667285,
				"element": "S" 
			},
			{
				"x": -1.2806819589,
				"y": -2.8390626761,
				"z": -1.018082387,
				"element": "O" 
			},
			{
				"x": -2.3755766512,
				"y": -0.7042527664,
				"z": -1.9204010618,
				"element": "O" 
			},
			{
				"x": -0.0553904824,
				"y": -0.5181843551,
				"z": -0.6491588322,
				"element": "C" 
			},
			{
				"x": 0.8452522426,
				"y": -1.1687029415,
				"z": 0.1949971288,
				"element": "C" 
			},
			{
				"x": 1.7381264184,
				"y": -0.4250377977,
				"z": 0.9725000389,
				"element": "C" 
			},
			{
				"x": 1.7063354785,
				"y": 0.9861938476,
				"z": 0.8688789917,
				"element": "C" 
			},
			{
				"x": 2.5408113083,
				"y": 1.7816014553,
				"z": 1.6071868227,
				"element": "O" 
			},
			{
				"x": 3.6527158818,
				"y": 1.1235880213,
				"z": 2.2226610197,
				"element": "C" 
			},
			{
				"x": 3.2221312478,
				"y": -0.187260398,
				"z": 2.8701930565,
				"element": "C" 
			},
			{
				"x": 2.6673665335,
				"y": -1.0319138189,
				"z": 1.8226879278,
				"element": "N" 
			},
			{
				"x": 0.7910005169,
				"y": 1.6195079056,
				"z": 0.0280644895,
				"element": "C" 
			},
			{
				"x": -0.104178403,
				"y": 0.8740898617,
				"z": -0.7359315565,
				"element": "C" 
			},
			{
				"x": 0.6477411608,
				"y": -2.2370404272,
				"z": -3.0217340555,
				"element": "H" 
			},
			{
				"x": -0.9428200556,
				"y": -2.3224613421,
				"z": -3.8447304184,
				"element": "H" 
			},
			{
				"x": -0.1225368618,
				"y": -0.7396105691,
				"z": -3.6559798434,
				"element": "H" 
			},
			{
				"x": 0.8281761946,
				"y": -2.2522225437,
				"z": 0.2653961246,
				"element": "H" 
			},
			{
				"x": 4.0403011148,
				"y": 1.8246761688,
				"z": 2.9649578472,
				"element": "H" 
			},
			{
				"x": 4.4285341733,
				"y": 0.9315233633,
				"z": 1.4706548497,
				"element": "H" 
			},
			{
				"x": 4.0916508859,
				"y": -0.6824854485,
				"z": 3.3144221521,
				"element": "H" 
			},
			{
				"x": 2.5017501484,
				"y": 0.0289367865,
				"z": 3.6754431335,
				"element": "H" 
			},
			{
				"x": 2.4182728811,
				"y": -1.9693035839,
				"z": 2.1093052071,
				"element": "H" 
			},
			{
				"x": 0.7910607147,
				"y": 2.7041220269,
				"z": -0.0016817103,
				"element": "H" 
			},
			{
				"x": -0.8379922051,
				"y": 1.3578243168,
				"z": -1.370326777,
				"element": "H" 
			}
		],
		 "valence_orbital": [ 
			{
				"type": "occ",
				"energy": -0.30102,
				"method": "rhf"
			},
			{
				"type": "occ",
				"energy": -0.28536,
				"method": "rhf"
			},
			{
				"type": "occ",
				"energy": -0.2775,
				"method": "rhf"
			},
			{
				"type": "occ",
				"energy": -0.24668,
				"method": "rhf"
			},
			{
				"type": "occ",
				"energy": -0.20954,
				"method": "rhf"
			},
			{
				"type": "unocc",
				"energy": -0.02316,
				"method": "rhf"
			},
			{
				"type": "unocc",
				"energy": -0.00584,
				"method": "rhf"
			},
			{
				"type": "unocc",
				"energy": 0.06608,
				"method": "rhf"
			},
			{
				"type": "unocc",
				"energy": 0.07504,
				"method": "rhf"
			},
			{
				"type": "unocc",
				"energy": 0.0882,
				"method": "rhf"
			}
		],
		"cosmo_sigma_profile": { 
			"-0.025": 0.0,
			"-0.024": 0.0,
			"-0.023": 0.0,
			"-0.022": 0.0,
			"-0.021": 0.0,
			"-0.02": 0.0,
			"-0.019": 0.0,
			"-0.018": 0.0,
			"-0.017": 0.0,
			"-0.016": 0.0,
			"-0.015": 0.0,
			"-0.014": 0.292557261557,
			"-0.013": 1.41397273563,
			"-0.012": 1.45592059453,
			"-0.011": 1.68017926902,
			"-0.01": 1.60107417052,
			"-0.009": 1.9733393309,
			"-0.008": 6.05787262073,
			"-0.007": 10.0975349112,
			"-0.006": 18.5858764515,
			"-0.005": 21.1248767155,
			"-0.004": 23.0411183697,
			"-0.003": 18.7599426623,
			"-0.002": 10.8428341329,
			"-0.001": 7.41039631489,
			"0.0": 9.77384100765,
			"0.001": 9.24472069657,
			"0.002": 9.87519800468,
			"0.003": 16.3141525187,
			"0.004": 11.54754641,
			"0.005": 6.17808203272,
			"0.006": 3.8744463018,
			"0.007": 4.20138805049,
			"0.008": 4.82667854707,
			"0.009": 5.49442257717,
			"0.01": 5.22095730728,
			"0.011": 8.55913518895,
			"0.012": 10.2196516305,
			"0.013": 3.00930711961,
			"0.014": 0.0,
			"0.015": 0.0,
			"0.016": 0.0,
			"0.017": 0.0,
			"0.018": 0.0,
			"0.019": 0.0,
			"0.02": 0.0,
			"0.021": 0.0,
			"0.022": 0.0,
			"0.023": 0.0,
			"0.024": 0.0,
			"0.025": 0.0
		}
	}
}
