{
	 "smiles": "BrC1CC2=C(C=CC=C2)C1=O", 
	 "Tm": 314.65, 
	 "num_atms": 18, 
	 "gaussian": { 
		 "optdone": 1, 
		 "sigma_profile": "yes", 
		 "theory": "DFT", 
		 "functional": "B3LYP", 
		 "basiset": "6-31G**", 
		 "properties": { 
			 "R2extent": 4311.2129, 
			 "electric_dipole_moment_norm": 4.34936437425, 
			 "electric_quadrupole_moment_norm": 10.6401563964, 
			 "total_energy": -2993.80842504, 
			 "HOMO_LUMO_gap": 0.17669, 
			 "cosmo_polarized_energy": -10.01, 
			 "cosmo_cavitation_energy": 24.15, 
			 "cosmo_dispersion_energy": -18.14, 
			 "cosmo_repulsion_energy": 1.46, 
			 "cosmo_total_nonelectrostatic_energy": 7.47, 
			 "SMD_solvation_energy": 3.15 
		},
		"coords": [
			{
				"x": 0.3226533402,
				"y": -3.3981782754,
				"z": -3.0409135286,
				"element": "Br" 
			},
			{
				"x": -0.1863862725,
				"y": -1.4801847707,
				"z": -3.1396882874,
				"element": "C" 
			},
			{
				"x": -1.5412532066,
				"y": -1.2089470684,
				"z": -2.4577139126,
				"element": "C" 
			},
			{
				"x": -1.1811440753,
				"y": -0.4549621102,
				"z": -1.1911501468,
				"element": "C" 
			},
			{
				"x": 0.1813538137,
				"y": -0.1412916272,
				"z": -1.1501270098,
				"element": "C" 
			},
			{
				"x": 0.7416678741,
				"y": 0.5823496986,
				"z": -0.0932007489,
				"element": "C" 
			},
			{
				"x": -0.0940162422,
				"y": 0.9854478644,
				"z": 0.9439751725,
				"element": "C" 
			},
			{
				"x": -1.4621531408,
				"y": 0.6700199027,
				"z": 0.9112783968,
				"element": "C" 
			},
			{
				"x": -2.0168645773,
				"y": -0.0464773382,
				"z": -0.1523083152,
				"element": "C" 
			},
			{
				"x": 0.8672740642,
				"y": -0.6661401313,
				"z": -2.3497512157,
				"element": "C" 
			},
			{
				"x": 2.0191309057,
				"y": -0.488609211,
				"z": -2.6874654177,
				"element": "O" 
			},
			{
				"x": -0.1531562859,
				"y": -1.2465488355,
				"z": -4.2023201821,
				"element": "H" 
			},
			{
				"x": -2.0958286402,
				"y": -2.1281160951,
				"z": -2.2540209941,
				"element": "H" 
			},
			{
				"x": -2.1734127199,
				"y": -0.5921128748,
				"z": -3.1093854964,
				"element": "H" 
			},
			{
				"x": 1.8031438087,
				"y": 0.8105255536,
				"z": -0.0973758751,
				"element": "H" 
			},
			{
				"x": 0.3077604292,
				"y": 1.5444993838,
				"z": 1.7836257331,
				"element": "H" 
			},
			{
				"x": -2.1011960559,
				"y": 0.9900140784,
				"z": 1.7295779172,
				"element": "H" 
			},
			{
				"x": -3.0782730192,
				"y": -0.2789881438,
				"z": -0.1630360892,
				"element": "H" 
			}
		],
		 "valence_orbital": [ 
			{
				"type": "occ",
				"energy": -0.28533,
				"method": "rhf"
			},
			{
				"type": "occ",
				"energy": -0.27833,
				"method": "rhf"
			},
			{
				"type": "occ",
				"energy": -0.26925,
				"method": "rhf"
			},
			{
				"type": "occ",
				"energy": -0.2632,
				"method": "rhf"
			},
			{
				"type": "occ",
				"energy": -0.25113,
				"method": "rhf"
			},
			{
				"type": "unocc",
				"energy": -0.07444,
				"method": "rhf"
			},
			{
				"type": "unocc",
				"energy": -0.02137,
				"method": "rhf"
			},
			{
				"type": "unocc",
				"energy": -0.00735,
				"method": "rhf"
			},
			{
				"type": "unocc",
				"energy": 0.04952,
				"method": "rhf"
			},
			{
				"type": "unocc",
				"energy": 0.08874,
				"method": "rhf"
			}
		],
		"cosmo_sigma_profile": { 
			"-0.025": 0.0,
			"-0.024": 0.0,
			"-0.023": 0.0,
			"-0.022": 0.0,
			"-0.021": 0.0,
			"-0.02": 0.0,
			"-0.019": 0.0,
			"-0.018": 0.0,
			"-0.017": 0.0,
			"-0.016": 0.0,
			"-0.015": 0.0,
			"-0.014": 0.0,
			"-0.013": 0.0,
			"-0.012": 0.0,
			"-0.011": 0.0,
			"-0.01": 0.0,
			"-0.009": 1.17007327338,
			"-0.008": 3.84266331773,
			"-0.007": 8.31645259291,
			"-0.006": 14.3850267883,
			"-0.005": 16.5614345874,
			"-0.004": 14.004512799,
			"-0.003": 12.9841115466,
			"-0.002": 11.9223506799,
			"-0.001": 10.8448109311,
			"0.0": 12.5428888666,
			"0.001": 13.0529161755,
			"0.002": 13.917143201,
			"0.003": 17.4892267574,
			"0.004": 11.9724669901,
			"0.005": 11.2119201814,
			"0.006": 5.58998259178,
			"0.007": 2.33709993325,
			"0.008": 1.4601358553,
			"0.009": 2.14648046289,
			"0.01": 2.80749875689,
			"0.011": 4.59352832629,
			"0.012": 3.09713071033,
			"0.013": 0.308537770885,
			"0.014": 0.0,
			"0.015": 0.0,
			"0.016": 0.0,
			"0.017": 0.0,
			"0.018": 0.0,
			"0.019": 0.0,
			"0.02": 0.0,
			"0.021": 0.0,
			"0.022": 0.0,
			"0.023": 0.0,
			"0.024": 0.0,
			"0.025": 0.0
		}
	}
}
