{
	 "smiles": "NC(=NO)C1=C(CN2CCC(O)CC2)C=CC=C1", 
	 "Tm": 411.15, 
	 "num_atms": 37, 
	 "gaussian": { 
		 "optdone": 1, 
		 "sigma_profile": "yes", 
		 "theory": "DFT", 
		 "functional": "B3LYP", 
		 "basiset": "6-31G**", 
		 "properties": { 
			 "R2extent": 6511.6465, 
			 "electric_dipole_moment_norm": 3.66985112913, 
			 "electric_quadrupole_moment_norm": 10.1698510849, 
			 "total_energy": -821.474971951, 
			 "HOMO_LUMO_gap": 0.17223, 
			 "cosmo_polarized_energy": -17.24, 
			 "cosmo_cavitation_energy": 37.64, 
			 "cosmo_dispersion_energy": -26.48, 
			 "cosmo_repulsion_energy": 2.05, 
			 "cosmo_total_nonelectrostatic_energy": 13.22, 
			 "SMD_solvation_energy": 5.43 
		},
		"coords": [
			{
				"x": 2.3092383949,
				"y": -1.8577538495,
				"z": -0.1524256886,
				"element": "N" 
			},
			{
				"x": 2.0800733706,
				"y": -3.0898872452,
				"z": 0.3868580524,
				"element": "C" 
			},
			{
				"x": 2.9946956701,
				"y": -3.9944896619,
				"z": 0.5689210055,
				"element": "N" 
			},
			{
				"x": 4.2534838574,
				"y": -3.4700698785,
				"z": 0.1325538948,
				"element": "O" 
			},
			{
				"x": 0.6873027906,
				"y": -3.4908517409,
				"z": 0.7434212356,
				"element": "C" 
			},
			{
				"x": -0.224519611,
				"y": -2.644151964,
				"z": 1.4185273313,
				"element": "C" 
			},
			{
				"x": 0.1278766253,
				"y": -1.243833662,
				"z": 1.8897455219,
				"element": "C" 
			},
			{
				"x": 0.12387973,
				"y": -0.2155075142,
				"z": 0.8321684831,
				"element": "N" 
			},
			{
				"x": -1.1858932933,
				"y": -0.0047366603,
				"z": 0.2025903922,
				"element": "C" 
			},
			{
				"x": -1.0187045956,
				"y": 0.8072440023,
				"z": -1.1000030563,
				"element": "C" 
			},
			{
				"x": 0.2053747295,
				"y": 1.7442829222,
				"z": -1.0413278494,
				"element": "C" 
			},
			{
				"x": 0.1112262809,
				"y": 2.8155752351,
				"z": -1.9720724794,
				"element": "O" 
			},
			{
				"x": 0.4076437643,
				"y": 2.2307365106,
				"z": 0.3971857534,
				"element": "C" 
			},
			{
				"x": 0.6771683895,
				"y": 1.0497003717,
				"z": 1.3537474837,
				"element": "C" 
			},
			{
				"x": -1.4971635129,
				"y": -3.1439588682,
				"z": 1.7289242956,
				"element": "C" 
			},
			{
				"x": -1.8837904245,
				"y": -4.4394472158,
				"z": 1.3891671586,
				"element": "C" 
			},
			{
				"x": -0.9796694106,
				"y": -5.2713678817,
				"z": 0.7304201331,
				"element": "C" 
			},
			{
				"x": 0.2902085333,
				"y": -4.7963727623,
				"z": 0.4132666581,
				"element": "C" 
			},
			{
				"x": 1.579630814,
				"y": -1.1483225181,
				"z": -0.0918719171,
				"element": "H" 
			},
			{
				"x": 3.2767909303,
				"y": -1.5903854355,
				"z": -0.2473361406,
				"element": "H" 
			},
			{
				"x": 4.8555864143,
				"y": -4.1796370751,
				"z": 0.3851128225,
				"element": "H" 
			},
			{
				"x": 1.1344651688,
				"y": -1.2445351601,
				"z": 2.3226630163,
				"element": "H" 
			},
			{
				"x": -0.5649736074,
				"y": -0.9613819399,
				"z": 2.7025431324,
				"element": "H" 
			},
			{
				"x": -1.6292938763,
				"y": -0.9790957278,
				"z": -0.0122510742,
				"element": "H" 
			},
			{
				"x": -1.8755677307,
				"y": 0.5097121218,
				"z": 0.8984493182,
				"element": "H" 
			},
			{
				"x": -0.9282008619,
				"y": 0.1427768919,
				"z": -1.9646474904,
				"element": "H" 
			},
			{
				"x": -1.9190178333,
				"y": 1.4153031064,
				"z": -1.2612911718,
				"element": "H" 
			},
			{
				"x": 1.0974463341,
				"y": 1.1919265805,
				"z": -1.3552251818,
				"element": "H" 
			},
			{
				"x": -0.6764103512,
				"y": 3.3302673164,
				"z": -1.7483997899,
				"element": "H" 
			},
			{
				"x": 1.2323294975,
				"y": 2.9484242192,
				"z": 0.4356984105,
				"element": "H" 
			},
			{
				"x": -0.496950012,
				"y": 2.7709007569,
				"z": 0.7104653212,
				"element": "H" 
			},
			{
				"x": 0.2595183111,
				"y": 1.2793051854,
				"z": 2.350605832,
				"element": "H" 
			},
			{
				"x": 1.7560747388,
				"y": 0.9031196681,
				"z": 1.4881854333,
				"element": "H" 
			},
			{
				"x": -2.1921965409,
				"y": -2.5014075699,
				"z": 2.2641502947,
				"element": "H" 
			},
			{
				"x": -2.8785071605,
				"y": -4.7943937516,
				"z": 1.6427722393,
				"element": "H" 
			},
			{
				"x": -1.2605071977,
				"y": -6.285415891,
				"z": 0.4609994134,
				"element": "H" 
			},
			{
				"x": 1.0066516745,
				"y": -5.4321709148,
				"z": -0.0938907938,
				"element": "H" 
			}
		],
		 "valence_orbital": [ 
			{
				"type": "occ",
				"energy": -0.2619,
				"method": "rhf"
			},
			{
				"type": "occ",
				"energy": -0.24891,
				"method": "rhf"
			},
			{
				"type": "occ",
				"energy": -0.24721,
				"method": "rhf"
			},
			{
				"type": "occ",
				"energy": -0.23196,
				"method": "rhf"
			},
			{
				"type": "occ",
				"energy": -0.19131,
				"method": "rhf"
			},
			{
				"type": "unocc",
				"energy": -0.01908,
				"method": "rhf"
			},
			{
				"type": "unocc",
				"energy": -0.00361,
				"method": "rhf"
			},
			{
				"type": "unocc",
				"energy": 0.06681,
				"method": "rhf"
			},
			{
				"type": "unocc",
				"energy": 0.07,
				"method": "rhf"
			},
			{
				"type": "unocc",
				"energy": 0.07622,
				"method": "rhf"
			}
		],
		"cosmo_sigma_profile": { 
			"-0.025": 0.0,
			"-0.024": 0.0,
			"-0.023": 0.0,
			"-0.022": 0.0,
			"-0.021": 0.0,
			"-0.02": 0.0,
			"-0.019": 0.0,
			"-0.018": 0.0,
			"-0.017": 0.0313936821448,
			"-0.016": 0.680301217247,
			"-0.015": 1.4012608682,
			"-0.014": 1.6500680554,
			"-0.013": 1.62564045546,
			"-0.012": 1.60122308437,
			"-0.011": 2.00084104891,
			"-0.01": 2.50855957259,
			"-0.009": 3.20699178106,
			"-0.008": 2.25639794573,
			"-0.007": 2.01026049804,
			"-0.006": 6.03111436093,
			"-0.005": 12.8348124159,
			"-0.004": 22.0973147609,
			"-0.003": 38.8993874847,
			"-0.002": 40.0235829358,
			"-0.001": 28.6091118525,
			"0.0": 18.9885774097,
			"0.001": 13.5019353443,
			"0.002": 12.1944934213,
			"0.003": 11.297523186,
			"0.004": 12.5523558277,
			"0.005": 12.9850102734,
			"0.006": 6.12178596099,
			"0.007": 5.76265060772,
			"0.008": 6.73219143692,
			"0.009": 5.78105559984,
			"0.01": 6.02860816806,
			"0.011": 3.31624572358,
			"0.012": 2.65679903131,
			"0.013": 2.67172243084,
			"0.014": 3.63866411417,
			"0.015": 2.01205311405,
			"0.016": 0.0915687032257,
			"0.017": 0.0,
			"0.018": 0.0,
			"0.019": 0.0,
			"0.02": 0.0,
			"0.021": 0.0,
			"0.022": 0.0,
			"0.023": 0.0,
			"0.024": 0.0,
			"0.025": 0.0
		}
	}
}
