{
	 "smiles": "OC(=O)C1=C(Cl)N=C(Cl)N=C1", 
	 "Tm": 370.15, 
	 "num_atms": 13, 
	 "gaussian": { 
		 "optdone": 1, 
		 "sigma_profile": "yes", 
		 "theory": "DFT", 
		 "functional": "B3LYP", 
		 "basiset": "6-31G**", 
		 "properties": { 
			 "R2extent": 2941.3089, 
			 "electric_dipole_moment_norm": 2.47822487478, 
			 "electric_quadrupole_moment_norm": 7.36133731804, 
			 "total_energy": -1372.06845619, 
			 "HOMO_LUMO_gap": 0.20059, 
			 "cosmo_polarized_energy": -10.66, 
			 "cosmo_cavitation_energy": 22.44, 
			 "cosmo_dispersion_energy": -17.21, 
			 "cosmo_repulsion_energy": 1.4, 
			 "cosmo_total_nonelectrostatic_energy": 6.62, 
			 "SMD_solvation_energy": 1.93 
		},
		"coords": [
			{
				"x": 1.9649116146,
				"y": 0.9704789697,
				"z": -1.6313468601,
				"element": "O" 
			},
			{
				"x": 1.5464136882,
				"y": -0.2563669841,
				"z": -1.2803458604,
				"element": "C" 
			},
			{
				"x": 1.6261307792,
				"y": -1.2155465729,
				"z": -2.0219817775,
				"element": "O" 
			},
			{
				"x": 0.9719921818,
				"y": -0.3588532653,
				"z": 0.095362239,
				"element": "C" 
			},
			{
				"x": 0.8025559201,
				"y": 0.6311506416,
				"z": 1.0836922151,
				"element": "C" 
			},
			{
				"x": 1.2689372102,
				"y": 2.2933658563,
				"z": 0.8689495165,
				"element": "Cl" 
			},
			{
				"x": 0.2669011194,
				"y": 0.3618853842,
				"z": 2.2676648805,
				"element": "N" 
			},
			{
				"x": -0.1073424704,
				"y": -0.8923290818,
				"z": 2.4859965144,
				"element": "C" 
			},
			{
				"x": -0.8068907804,
				"y": -1.2181804771,
				"z": 4.0461848443,
				"element": "Cl" 
			},
			{
				"x": -0.0109095759,
				"y": -1.9260212963,
				"z": 1.6553910705,
				"element": "N" 
			},
			{
				"x": 0.5289449092,
				"y": -1.6379829775,
				"z": 0.4719025653,
				"element": "C" 
			},
			{
				"x": 2.3087411801,
				"y": 0.885978506,
				"z": -2.5373832531,
				"element": "H" 
			},
			{
				"x": 0.629614224,
				"y": -2.4499787028,
				"z": -0.2425860944,
				"element": "H" 
			}
		],
		 "valence_orbital": [ 
			{
				"type": "occ",
				"energy": -0.33256,
				"method": "rhf"
			},
			{
				"type": "occ",
				"energy": -0.32548,
				"method": "rhf"
			},
			{
				"type": "occ",
				"energy": -0.30511,
				"method": "rhf"
			},
			{
				"type": "occ",
				"energy": -0.29635,
				"method": "rhf"
			},
			{
				"type": "occ",
				"energy": -0.29206,
				"method": "rhf"
			},
			{
				"type": "unocc",
				"energy": -0.09147,
				"method": "rhf"
			},
			{
				"type": "unocc",
				"energy": -0.07482,
				"method": "rhf"
			},
			{
				"type": "unocc",
				"energy": 0.00358,
				"method": "rhf"
			},
			{
				"type": "unocc",
				"energy": 0.01041,
				"method": "rhf"
			},
			{
				"type": "unocc",
				"energy": 0.03161,
				"method": "rhf"
			}
		],
		"cosmo_sigma_profile": { 
			"-0.025": 0.0,
			"-0.024": 0.0,
			"-0.023": 0.0,
			"-0.022": 0.0,
			"-0.021": 0.0,
			"-0.02": 0.0451569895592,
			"-0.019": 0.870379101666,
			"-0.018": 1.09230484459,
			"-0.017": 0.878290461319,
			"-0.016": 0.178947425348,
			"-0.015": 1.02384262026,
			"-0.014": 0.83223082861,
			"-0.013": 0.54356268565,
			"-0.012": 1.09941120996,
			"-0.011": 0.969442852529,
			"-0.01": 0.185177204433,
			"-0.009": 1.68161446586,
			"-0.008": 3.74557933438,
			"-0.007": 4.23441263722,
			"-0.006": 8.75117877867,
			"-0.005": 11.8671322941,
			"-0.004": 13.0317582921,
			"-0.003": 11.3641275508,
			"-0.002": 10.4358155742,
			"-0.001": 10.0607687563,
			"0.0": 11.4625476972,
			"0.001": 12.4214262911,
			"0.002": 17.0461848769,
			"0.003": 16.6463764284,
			"0.004": 10.1265593168,
			"0.005": 5.16093415141,
			"0.006": 6.00379833292,
			"0.007": 6.01338892513,
			"0.008": 4.11820224842,
			"0.009": 4.08272910607,
			"0.01": 5.59060294813,
			"0.011": 3.7869936904,
			"0.012": 0.722926569104,
			"0.013": 0.153872403418,
			"0.014": 0.0,
			"0.015": 0.0,
			"0.016": 0.0,
			"0.017": 0.0,
			"0.018": 0.0,
			"0.019": 0.0,
			"0.02": 0.0,
			"0.021": 0.0,
			"0.022": 0.0,
			"0.023": 0.0,
			"0.024": 0.0,
			"0.025": 0.0
		}
	}
}
