{
	 "smiles": "FC1=C(F)C(F)=C(OC(=O)C2=CN=C(C=C2)C2=CC=CS2)C(F)=C1F", 
	 "Tm": 413.15, 
	 "num_atms": 31, 
	 "gaussian": { 
		 "optdone": 1, 
		 "sigma_profile": "yes", 
		 "theory": "DFT", 
		 "functional": "B3LYP", 
		 "basiset": "6-31G**", 
		 "properties": { 
			 "R2extent": 15482.6197, 
			 "electric_dipole_moment_norm": 4.16477792205, 
			 "electric_quadrupole_moment_norm": 11.6258544426, 
			 "total_energy": -1715.82617007, 
			 "HOMO_LUMO_gap": 0.14865, 
			 "cosmo_polarized_energy": -9.55, 
			 "cosmo_cavitation_energy": 42.84, 
			 "cosmo_dispersion_energy": -30.07, 
			 "cosmo_repulsion_energy": 2.09, 
			 "cosmo_total_nonelectrostatic_energy": 14.86, 
			 "SMD_solvation_energy": 9.45 
		},
		"coords": [
			{
				"x": 1.6788228365,
				"y": 2.9445450979,
				"z": -6.741879567,
				"element": "F" 
			},
			{
				"x": 1.2881379793,
				"y": 2.4151832602,
				"z": -5.5799513728,
				"element": "C" 
			},
			{
				"x": 0.686386952,
				"y": 3.2218498194,
				"z": -4.6155221952,
				"element": "C" 
			},
			{
				"x": 0.5063613373,
				"y": 4.524752739,
				"z": -4.8528219113,
				"element": "F" 
			},
			{
				"x": 0.2782034514,
				"y": 2.6652093702,
				"z": -3.4058413115,
				"element": "C" 
			},
			{
				"x": -0.2882870178,
				"y": 3.4409257799,
				"z": -2.4773566106,
				"element": "F" 
			},
			{
				"x": 0.4547386283,
				"y": 1.3047205767,
				"z": -3.1577985286,
				"element": "C" 
			},
			{
				"x": -0.0093522682,
				"y": 0.7455291981,
				"z": -1.98702397,
				"element": "O" 
			},
			{
				"x": 0.8828357407,
				"y": 0.718925272,
				"z": -0.9209294216,
				"element": "C" 
			},
			{
				"x": 2.0037835053,
				"y": 1.1581201411,
				"z": -1.0056676926,
				"element": "O" 
			},
			{
				"x": 0.2748554878,
				"y": 0.1003744573,
				"z": 0.2712307386,
				"element": "C" 
			},
			{
				"x": 1.0507184981,
				"y": -0.0021361969,
				"z": 1.4380520348,
				"element": "C" 
			},
			{
				"x": 0.6150358655,
				"y": -0.5379481788,
				"z": 2.5718188692,
				"element": "N" 
			},
			{
				"x": -0.6501401982,
				"y": -1.0155027993,
				"z": 2.6128238238,
				"element": "C" 
			},
			{
				"x": -1.5019799925,
				"y": -0.9560844639,
				"z": 1.4919127367,
				"element": "C" 
			},
			{
				"x": -1.0358020301,
				"y": -0.3943501321,
				"z": 0.3137540008,
				"element": "C" 
			},
			{
				"x": -1.0672024454,
				"y": -1.5918790062,
				"z": 3.889583483,
				"element": "C" 
			},
			{
				"x": -0.3059136122,
				"y": -1.6917398946,
				"z": 5.0347078152,
				"element": "C" 
			},
			{
				"x": -0.9934530837,
				"y": -2.3029967575,
				"z": 6.1169365948,
				"element": "C" 
			},
			{
				"x": -2.2747421219,
				"y": -2.6663650213,
				"z": 5.7929736233,
				"element": "C" 
			},
			{
				"x": -2.6630279666,
				"y": -2.2660478585,
				"z": 4.1551423334,
				"element": "S" 
			},
			{
				"x": 1.0689122273,
				"y": 0.5078075568,
				"z": -4.1228472592,
				"element": "C" 
			},
			{
				"x": 1.2631431289,
				"y": -0.7922228049,
				"z": -3.8842493383,
				"element": "F" 
			},
			{
				"x": 1.4800128423,
				"y": 1.0564224082,
				"z": -5.3352104738,
				"element": "C" 
			},
			{
				"x": 2.0595657156,
				"y": 0.286653376,
				"z": -6.2614086523,
				"element": "F" 
			},
			{
				"x": 2.0707023354,
				"y": 0.3746858672,
				"z": 1.4297210704,
				"element": "H" 
			},
			{
				"x": -2.5134770314,
				"y": -1.3450145298,
				"z": 1.5464029794,
				"element": "H" 
			},
			{
				"x": -1.6707160081,
				"y": -0.3362970253,
				"z": -0.5629700853,
				"element": "H" 
			},
			{
				"x": 0.7132563654,
				"y": -1.3288261804,
				"z": 5.0693727415,
				"element": "H" 
			},
			{
				"x": -0.5576455996,
				"y": -2.467265964,
				"z": 7.0955851574,
				"element": "H" 
			},
			{
				"x": -3.0155335214,
				"y": -3.1457281064,
				"z": 6.4180603881,
				"element": "H" 
			}
		],
		 "valence_orbital": [ 
			{
				"type": "occ",
				"energy": -0.27356,
				"method": "rhf"
			},
			{
				"type": "occ",
				"energy": -0.26543,
				"method": "rhf"
			},
			{
				"type": "occ",
				"energy": -0.26501,
				"method": "rhf"
			},
			{
				"type": "occ",
				"energy": -0.26204,
				"method": "rhf"
			},
			{
				"type": "occ",
				"energy": -0.23233,
				"method": "rhf"
			},
			{
				"type": "unocc",
				"energy": -0.08368,
				"method": "rhf"
			},
			{
				"type": "unocc",
				"energy": -0.03713,
				"method": "rhf"
			},
			{
				"type": "unocc",
				"energy": -0.02919,
				"method": "rhf"
			},
			{
				"type": "unocc",
				"energy": -0.02197,
				"method": "rhf"
			},
			{
				"type": "unocc",
				"energy": -0.01987,
				"method": "rhf"
			}
		],
		"cosmo_sigma_profile": { 
			"-0.025": 0.0,
			"-0.024": 0.0,
			"-0.023": 0.0,
			"-0.022": 0.0,
			"-0.021": 0.0,
			"-0.02": 0.0,
			"-0.019": 0.0,
			"-0.018": 0.0,
			"-0.017": 0.0,
			"-0.016": 0.0,
			"-0.015": 0.0,
			"-0.014": 0.0,
			"-0.013": 0.0,
			"-0.012": 0.0,
			"-0.011": 0.0,
			"-0.01": 0.0217250402721,
			"-0.009": 1.98470489362,
			"-0.008": 4.89699841615,
			"-0.007": 8.7396122683,
			"-0.006": 10.3433975141,
			"-0.005": 13.2993548636,
			"-0.004": 27.2170923883,
			"-0.003": 24.9093364258,
			"-0.002": 26.6689730797,
			"-0.001": 28.3371587283,
			"0.0": 32.1831863286,
			"0.001": 34.007295488,
			"0.002": 64.851566436,
			"0.003": 36.2993185081,
			"0.004": 13.1594578331,
			"0.005": 4.20227673658,
			"0.006": 3.37278198611,
			"0.007": 2.60734370585,
			"0.008": 2.98954429146,
			"0.009": 3.54647767881,
			"0.01": 5.29130388733,
			"0.011": 1.77538851609,
			"0.012": 0.0,
			"0.013": 0.0,
			"0.014": 0.0,
			"0.015": 0.0,
			"0.016": 0.0,
			"0.017": 0.0,
			"0.018": 0.0,
			"0.019": 0.0,
			"0.02": 0.0,
			"0.021": 0.0,
			"0.022": 0.0,
			"0.023": 0.0,
			"0.024": 0.0,
			"0.025": 0.0
		}
	}
}
