{
	 "smiles": "CC1=C(NC2=NC=CC=C2C(O)=O)C=CC=C1Cl", 
	 "Tm": 507.15, 
	 "num_atms": 29, 
	 "gaussian": { 
		 "optdone": 1, 
		 "sigma_profile": "yes", 
		 "theory": "DFT", 
		 "functional": "B3LYP", 
		 "basiset": "6-31G**", 
		 "properties": { 
			 "R2extent": 6410.0605, 
			 "electric_dipole_moment_norm": 1.65796524089, 
			 "electric_quadrupole_moment_norm": 17.3447252988, 
			 "total_energy": -1222.18738469, 
			 "HOMO_LUMO_gap": 0.14443, 
			 "cosmo_polarized_energy": -11.51, 
			 "cosmo_cavitation_energy": 34.46, 
			 "cosmo_dispersion_energy": -25.39, 
			 "cosmo_repulsion_energy": 1.91, 
			 "cosmo_total_nonelectrostatic_energy": 10.98, 
			 "SMD_solvation_energy": 5.96 
		},
		"coords": [
			{
				"x": -1.9952801216,
				"y": 1.7352288928,
				"z": -0.569177866,
				"element": "C" 
			},
			{
				"x": -0.6161683064,
				"y": 2.318046889,
				"z": -0.3732354027,
				"element": "C" 
			},
			{
				"x": 0.5390077684,
				"y": 1.4928792056,
				"z": -0.4938706876,
				"element": "C" 
			},
			{
				"x": 0.2963218535,
				"y": 0.138584555,
				"z": -0.8003376331,
				"element": "N" 
			},
			{
				"x": 1.1403500252,
				"y": -0.929934976,
				"z": -0.9853111213,
				"element": "C" 
			},
			{
				"x": 2.4651652842,
				"y": -0.7265789069,
				"z": -0.8685094303,
				"element": "N" 
			},
			{
				"x": 3.3065777276,
				"y": -1.7437676192,
				"z": -1.0421812864,
				"element": "C" 
			},
			{
				"x": 2.9103419048,
				"y": -3.0452390144,
				"z": -1.3454473174,
				"element": "C" 
			},
			{
				"x": 1.5472510513,
				"y": -3.2735359543,
				"z": -1.469841764,
				"element": "C" 
			},
			{
				"x": 0.6233793576,
				"y": -2.2358266943,
				"z": -1.296216515,
				"element": "C" 
			},
			{
				"x": -0.793160034,
				"y": -2.6346382256,
				"z": -1.4603556644,
				"element": "C" 
			},
			{
				"x": -1.6980638901,
				"y": -1.6227555222,
				"z": -1.2908762418,
				"element": "O" 
			},
			{
				"x": -1.1743533252,
				"y": -3.7577995625,
				"z": -1.7245099801,
				"element": "O" 
			},
			{
				"x": 1.8203634592,
				"y": 2.0352107094,
				"z": -0.3115549872,
				"element": "C" 
			},
			{
				"x": 1.9664883987,
				"y": 3.386626161,
				"z": -0.0110193218,
				"element": "C" 
			},
			{
				"x": 0.8605918139,
				"y": 4.2194742242,
				"z": 0.1137555975,
				"element": "C" 
			},
			{
				"x": -0.4072814545,
				"y": 3.6686431977,
				"z": -0.0697910173,
				"element": "C" 
			},
			{
				"x": -1.7803227025,
				"y": 4.7727070625,
				"z": 0.10028728,
				"element": "Cl" 
			},
			{
				"x": -2.1129163007,
				"y": 1.3104495284,
				"z": -1.5740985805,
				"element": "H" 
			},
			{
				"x": -2.1985701395,
				"y": 0.9332741437,
				"z": 0.151654269,
				"element": "H" 
			},
			{
				"x": -2.7661534274,
				"y": 2.492878751,
				"z": -0.4420017683,
				"element": "H" 
			},
			{
				"x": -0.6781546711,
				"y": -0.1023333457,
				"z": -0.9054779133,
				"element": "H" 
			},
			{
				"x": 4.3626041018,
				"y": -1.5008383425,
				"z": -0.931516516,
				"element": "H" 
			},
			{
				"x": 3.6377687205,
				"y": -3.8378883268,
				"z": -1.476880195,
				"element": "H" 
			},
			{
				"x": 1.1543364053,
				"y": -4.2570387709,
				"z": -1.7041776412,
				"element": "H" 
			},
			{
				"x": -2.5733226622,
				"y": -2.0222840674,
				"z": -1.4254720352,
				"element": "H" 
			},
			{
				"x": 2.6791433791,
				"y": 1.3903432068,
				"z": -0.4078242013,
				"element": "H" 
			},
			{
				"x": 2.9635641532,
				"y": 3.7940876991,
				"z": 0.1276872033,
				"element": "H" 
			},
			{
				"x": 0.9658916309,
				"y": 5.2722251021,
				"z": 0.3474007374,
				"element": "H" 
			}
		],
		 "valence_orbital": [ 
			{
				"type": "occ",
				"energy": -0.29659,
				"method": "rhf"
			},
			{
				"type": "occ",
				"energy": -0.26766,
				"method": "rhf"
			},
			{
				"type": "occ",
				"energy": -0.26571,
				"method": "rhf"
			},
			{
				"type": "occ",
				"energy": -0.23959,
				"method": "rhf"
			},
			{
				"type": "occ",
				"energy": -0.20829,
				"method": "rhf"
			},
			{
				"type": "unocc",
				"energy": -0.06386,
				"method": "rhf"
			},
			{
				"type": "unocc",
				"energy": -0.02929,
				"method": "rhf"
			},
			{
				"type": "unocc",
				"energy": -0.00355,
				"method": "rhf"
			},
			{
				"type": "unocc",
				"energy": 0.02223,
				"method": "rhf"
			},
			{
				"type": "unocc",
				"energy": 0.03277,
				"method": "rhf"
			}
		],
		"cosmo_sigma_profile": { 
			"-0.025": 0.0,
			"-0.024": 0.0,
			"-0.023": 0.0,
			"-0.022": 0.0,
			"-0.021": 0.0,
			"-0.02": 0.0,
			"-0.019": 0.544478342528,
			"-0.018": 0.902801907301,
			"-0.017": 0.527888613183,
			"-0.016": 0.978329722168,
			"-0.015": 0.9385903484,
			"-0.014": 0.46169535642,
			"-0.013": 0.176871080865,
			"-0.012": 1.09384428238,
			"-0.011": 0.829790256948,
			"-0.01": 0.503575967264,
			"-0.009": 0.402897917409,
			"-0.008": 1.26415826379,
			"-0.007": 5.70198716197,
			"-0.006": 11.0716107633,
			"-0.005": 14.4630760325,
			"-0.004": 15.5238524828,
			"-0.003": 19.9754525684,
			"-0.002": 21.606972468,
			"-0.001": 24.4723065977,
			"0.0": 24.6625063983,
			"0.001": 26.2052757409,
			"0.002": 26.3750692489,
			"0.003": 23.1295840693,
			"0.004": 20.9970893831,
			"0.005": 18.0941114877,
			"0.006": 3.02980784741,
			"0.007": 3.10290795909,
			"0.008": 1.68733908714,
			"0.009": 1.94134886941,
			"0.01": 1.73695241535,
			"0.011": 4.61022003773,
			"0.012": 2.14577437934,
			"0.013": 0.0,
			"0.014": 0.0,
			"0.015": 0.0,
			"0.016": 0.0,
			"0.017": 0.0,
			"0.018": 0.0,
			"0.019": 0.0,
			"0.02": 0.0,
			"0.021": 0.0,
			"0.022": 0.0,
			"0.023": 0.0,
			"0.024": 0.0,
			"0.025": 0.0
		}
	}
}
