{
	 "smiles": "COC(=O)C1=CC=C2C(I)=CNC2=C1", 
	 "Tm": 423.15, 
	 "num_atms": 22, 
	 "gaussian": { 
		 "optdone": 1, 
		 "sigma_profile": "no", 
		 "theory": "DFT", 
		 "functional": "B3LYP", 
		 "basiset": "6-31G**", 
		 "properties": { 
			 "R2extent": 3560.8539, 
			 "electric_dipole_moment_norm": 4.62902492756, 
			 "electric_quadrupole_moment_norm": 6.72696222971, 
			 "total_energy": -602.48482102, 
			 "HOMO_LUMO_gap": 0.16782, 
			 "cosmo_polarized_energy": -98346.52, 
			 "cosmo_cavitation_energy": 29.99, 
			 "cosmo_dispersion_energy": -23.53, 
			 "cosmo_repulsion_energy": 1.81, 
			 "cosmo_total_nonelectrostatic_energy": 8.28, 
			 "SMD_solvation_energy": 5.69 
		},
		"coords": [
			{
				"x": 2.4976473007,
				"y": -2.288878361,
				"z": -3.436598893,
				"element": "C" 
			},
			{
				"x": 1.6473067709,
				"y": -1.6634569725,
				"z": -2.4651494596,
				"element": "O" 
			},
			{
				"x": 2.2680978974,
				"y": -1.2782439057,
				"z": -1.321530566,
				"element": "C" 
			},
			{
				"x": 3.4570943095,
				"y": -1.4488521396,
				"z": -1.1304234914,
				"element": "O" 
			},
			{
				"x": 1.3379180009,
				"y": -0.6375545854,
				"z": -0.3546513408,
				"element": "C" 
			},
			{
				"x": 1.8788460608,
				"y": -0.1952591204,
				"z": 0.8775452165,
				"element": "C" 
			},
			{
				"x": 1.0854969757,
				"y": 0.4115227683,
				"z": 1.8350776624,
				"element": "C" 
			},
			{
				"x": -0.284299983,
				"y": 0.5882633417,
				"z": 1.5704211958,
				"element": "C" 
			},
			{
				"x": -1.3885453565,
				"y": 1.1538780309,
				"z": 2.2889177364,
				"element": "C" 
			},
			{
				"x": -1.3290668654,
				"y": 2.0058043998,
				"z": 4.1931480678,
				"element": "I" 
			},
			{
				"x": -2.5087967983,
				"y": 1.0394690896,
				"z": 1.502236276,
				"element": "C" 
			},
			{
				"x": -2.1639033731,
				"y": 0.4268094324,
				"z": 0.3176042388,
				"element": "N" 
			},
			{
				"x": -0.8122725352,
				"y": 0.1376904437,
				"z": 0.326117255,
				"element": "C" 
			},
			{
				"x": -0.0184014636,
				"y": -0.4743698125,
				"z": -0.6427588548,
				"element": "C" 
			},
			{
				"x": 2.9516639466,
				"y": -3.1948159994,
				"z": -3.0268337804,
				"element": "H" 
			},
			{
				"x": 3.294692657,
				"y": -1.6086752243,
				"z": -3.747736302,
				"element": "H" 
			},
			{
				"x": 1.8519668912,
				"y": -2.5327992696,
				"z": -4.2805310287,
				"element": "H" 
			},
			{
				"x": 2.9386993156,
				"y": -0.3481474446,
				"z": 1.0467045948,
				"element": "H" 
			},
			{
				"x": 1.5075281125,
				"y": 0.7478056099,
				"z": 2.7770251563,
				"element": "H" 
			},
			{
				"x": -3.5245914292,
				"y": 1.3486272174,
				"z": 1.698168358,
				"element": "H" 
			},
			{
				"x": -2.800538707,
				"y": 0.2226413866,
				"z": -0.4358015593,
				"element": "H" 
			},
			{
				"x": -0.4261417273,
				"y": -0.8150588854,
				"z": -1.5876504817,
				"element": "H" 
			}
		],
		 "valence_orbital": [ 
			{
				"type": "occ",
				"energy": -0.27015,
				"method": "rhf"
			},
			{
				"type": "occ",
				"energy": -0.26964,
				"method": "rhf"
			},
			{
				"type": "occ",
				"energy": -0.26426,
				"method": "rhf"
			},
			{
				"type": "occ",
				"energy": -0.23811,
				"method": "rhf"
			},
			{
				"type": "occ",
				"energy": -0.21431,
				"method": "rhf"
			},
			{
				"type": "unocc",
				"energy": -0.04649,
				"method": "rhf"
			},
			{
				"type": "unocc",
				"energy": -0.0313,
				"method": "rhf"
			},
			{
				"type": "unocc",
				"energy": -0.00324,
				"method": "rhf"
			},
			{
				"type": "unocc",
				"energy": 0.03523,
				"method": "rhf"
			},
			{
				"type": "unocc",
				"energy": 0.04314,
				"method": "rhf"
			}
		],
		"cosmo_sigma_profile": { 
			"0.0": 0.0,
			"0.0": 0.0,
			"0.0": 0.0,
			"0.0": 0.0,
			"0.0": 0.0,
			"0.0": 0.0,
			"0.0": 0.0,
			"0.0": 0.0,
			"0.0": 0.0,
			"0.0": 0.0,
			"0.0": 0.0,
			"0.0": 0.0,
			"0.0": 0.0,
			"0.0": 0.0,
			"0.0": 0.0,
			"0.0": 0.0,
			"0.0": 0.0,
			"0.0": 0.0,
			"0.0": 0.0,
			"0.0": 0.0,
			"0.0": 0.0,
			"0.0": 0.0,
			"0.0": 0.0,
			"0.0": 0.0,
			"0.0": 0.0,
			"0.0": 0.0,
			"0.0": 0.0,
			"0.0": 0.0,
			"0.0": 0.0,
			"0.0": 0.0,
			"0.0": 0.0,
			"0.0": 0.0,
			"0.0": 0.0,
			"0.0": 0.0,
			"0.0": 0.0,
			"0.0": 0.0,
			"0.0": 0.0,
			"0.0": 0.0,
			"0.0": 0.0,
			"0.0": 0.0,
			"0.0": 0.0,
			"0.0": 0.0,
			"0.0": 0.0,
			"0.0": 0.0,
			"0.0": 0.0,
			"0.0": 0.0,
			"0.0": 0.0,
			"0.0": 0.0,
			"0.0": 0.0,
			"0.0": 0.0,
			"0.0": 0.0
		}
	}
}
