{
	 "smiles": "COC(=O)C(C1CCCCN1)C1=CC=CC=C1", 
	 "Tm": 498.15, 
	 "num_atms": 36, 
	 "gaussian": { 
		 "optdone": 1, 
		 "sigma_profile": "yes", 
		 "theory": "DFT", 
		 "functional": "B3LYP", 
		 "basiset": "6-31G**", 
		 "properties": { 
			 "R2extent": 4599.8057, 
			 "electric_dipole_moment_norm": 1.13376772312, 
			 "electric_quadrupole_moment_norm": 5.37145668604, 
			 "total_energy": -750.154706441, 
			 "HOMO_LUMO_gap": 0.20232, 
			 "cosmo_polarized_energy": -9.03, 
			 "cosmo_cavitation_energy": 36.73, 
			 "cosmo_dispersion_energy": -25.72, 
			 "cosmo_repulsion_energy": 2.03, 
			 "cosmo_total_nonelectrostatic_energy": 13.04, 
			 "SMD_solvation_energy": 4.47 
		},
		"coords": [
			{
				"x": 3.8330536776,
				"y": 0.3417865135,
				"z": 1.1976504815,
				"element": "C" 
			},
			{
				"x": 2.7561643926,
				"y": 0.61565307,
				"z": 0.2863125201,
				"element": "O" 
			},
			{
				"x": 1.5305642906,
				"y": 0.7005064565,
				"z": 0.8412387577,
				"element": "C" 
			},
			{
				"x": 1.3376718031,
				"y": 0.5781773667,
				"z": 2.0365087217,
				"element": "O" 
			},
			{
				"x": 0.4714071992,
				"y": 0.9562931027,
				"z": -0.2256613058,
				"element": "C" 
			},
			{
				"x": -0.817589774,
				"y": 1.615642441,
				"z": 0.3397401241,
				"element": "C" 
			},
			{
				"x": -1.7271502682,
				"y": 0.7177493287,
				"z": 1.2024434714,
				"element": "C" 
			},
			{
				"x": -2.973957317,
				"y": 1.504136259,
				"z": 1.6452284007,
				"element": "C" 
			},
			{
				"x": -2.5907203068,
				"y": 2.8241821425,
				"z": 2.3313244108,
				"element": "C" 
			},
			{
				"x": -1.6251359983,
				"y": 3.6316427308,
				"z": 1.4475870448,
				"element": "C" 
			},
			{
				"x": -0.4465346505,
				"y": 2.8705343944,
				"z": 1.0144987629,
				"element": "N" 
			},
			{
				"x": 0.204706189,
				"y": -0.3076130707,
				"z": -1.037508277,
				"element": "C" 
			},
			{
				"x": -0.0175209645,
				"y": -0.2075212891,
				"z": -2.4170585485,
				"element": "C" 
			},
			{
				"x": -0.2966941086,
				"y": -1.3408442841,
				"z": -3.1817204632,
				"element": "C" 
			},
			{
				"x": -0.3514484445,
				"y": -2.5975759454,
				"z": -2.5767590016,
				"element": "C" 
			},
			{
				"x": -0.1269260991,
				"y": -2.7104877271,
				"z": -1.2036407647,
				"element": "C" 
			},
			{
				"x": 0.1467345935,
				"y": -1.5748411788,
				"z": -0.4401337501,
				"element": "C" 
			},
			{
				"x": 3.679044424,
				"y": -0.6171800817,
				"z": 1.6989015566,
				"element": "H" 
			},
			{
				"x": 4.7346780991,
				"y": 0.313106209,
				"z": 0.586237289,
				"element": "H" 
			},
			{
				"x": 3.9062055615,
				"y": 1.1270207295,
				"z": 1.9541298012,
				"element": "H" 
			},
			{
				"x": 0.9143179454,
				"y": 1.696938728,
				"z": -0.89960259,
				"element": "H" 
			},
			{
				"x": -1.3983984361,
				"y": 1.906894737,
				"z": -0.5489633223,
				"element": "H" 
			},
			{
				"x": -2.0279251981,
				"y": -0.1745152715,
				"z": 0.6427047239,
				"element": "H" 
			},
			{
				"x": -1.1645688814,
				"y": 0.3795751872,
				"z": 2.0797460059,
				"element": "H" 
			},
			{
				"x": -3.591496425,
				"y": 0.8896738742,
				"z": 2.3108454779,
				"element": "H" 
			},
			{
				"x": -3.5931083416,
				"y": 1.7243569752,
				"z": 0.7631463305,
				"element": "H" 
			},
			{
				"x": -2.1005277259,
				"y": 2.6088944178,
				"z": 3.2913903052,
				"element": "H" 
			},
			{
				"x": -3.4854120109,
				"y": 3.4179249228,
				"z": 2.5587518249,
				"element": "H" 
			},
			{
				"x": -2.1527579118,
				"y": 3.9734516006,
				"z": 0.5456839275,
				"element": "H" 
			},
			{
				"x": -1.2796132413,
				"y": 4.5316140837,
				"z": 1.9692446401,
				"element": "H" 
			},
			{
				"x": 0.0969950977,
				"y": 2.6251272444,
				"z": 1.8413980293,
				"element": "H" 
			},
			{
				"x": 0.0327233619,
				"y": 0.7673557264,
				"z": -2.8959303111,
				"element": "H" 
			},
			{
				"x": -0.4644071492,
				"y": -1.2419698168,
				"z": -4.250549716,
				"element": "H" 
			},
			{
				"x": -0.5637216657,
				"y": -3.4818074129,
				"z": -3.1707752171,
				"element": "H" 
			},
			{
				"x": -0.1645255784,
				"y": -3.684406668,
				"z": -0.723653487,
				"element": "H" 
			},
			{
				"x": 0.3179738619,
				"y": -1.6738754956,
				"z": 0.6282441468,
				"element": "H" 
			}
		],
		 "valence_orbital": [ 
			{
				"type": "occ",
				"energy": -0.30368,
				"method": "rhf"
			},
			{
				"type": "occ",
				"energy": -0.271,
				"method": "rhf"
			},
			{
				"type": "occ",
				"energy": -0.25043,
				"method": "rhf"
			},
			{
				"type": "occ",
				"energy": -0.24351,
				"method": "rhf"
			},
			{
				"type": "occ",
				"energy": -0.20965,
				"method": "rhf"
			},
			{
				"type": "unocc",
				"energy": -0.00733,
				"method": "rhf"
			},
			{
				"type": "unocc",
				"energy": -0.00349,
				"method": "rhf"
			},
			{
				"type": "unocc",
				"energy": 0.0119,
				"method": "rhf"
			},
			{
				"type": "unocc",
				"energy": 0.09295,
				"method": "rhf"
			},
			{
				"type": "unocc",
				"energy": 0.09811,
				"method": "rhf"
			}
		],
		"cosmo_sigma_profile": { 
			"-0.025": 0.0,
			"-0.024": 0.0,
			"-0.023": 0.0,
			"-0.022": 0.0,
			"-0.021": 0.0,
			"-0.02": 0.0,
			"-0.019": 0.0,
			"-0.018": 0.0,
			"-0.017": 0.0,
			"-0.016": 0.0,
			"-0.015": 0.0,
			"-0.014": 0.0,
			"-0.013": 0.0,
			"-0.012": 0.0,
			"-0.011": 0.0,
			"-0.01": 0.0,
			"-0.009": 0.0,
			"-0.008": 0.0,
			"-0.007": 0.958628170821,
			"-0.006": 11.7270900721,
			"-0.005": 19.7648219058,
			"-0.004": 20.79021236,
			"-0.003": 31.8502394534,
			"-0.002": 32.4632586262,
			"-0.001": 32.5813340876,
			"0.0": 33.6970293146,
			"0.001": 24.5904473255,
			"0.002": 14.3311296186,
			"0.003": 11.3769159147,
			"0.004": 11.706688289,
			"0.005": 11.3544113805,
			"0.006": 9.86870983159,
			"0.007": 3.95746929236,
			"0.008": 3.06511375226,
			"0.009": 3.32539055823,
			"0.01": 1.98970049703,
			"0.011": 2.81138780466,
			"0.012": 2.49029911654,
			"0.013": 0.250485032644,
			"0.014": 0.121415974255,
			"0.015": 0.670983645347,
			"0.016": 0.914641987584,
			"0.017": 0.182792891783,
			"0.018": 0.373085601031,
			"0.019": 0.0,
			"0.02": 0.0,
			"0.021": 0.0,
			"0.022": 0.0,
			"0.023": 0.0,
			"0.024": 0.0,
			"0.025": 0.0
		}
	}
}
