{
	 "smiles": "ClCC(=O)NC1=C(SC2=CC=CC=C2)C=CC=C1", 
	 "Tm": 433.15, 
	 "num_atms": 30, 
	 "gaussian": { 
		 "optdone": 1, 
		 "sigma_profile": "yes", 
		 "theory": "DFT", 
		 "functional": "B3LYP", 
		 "basiset": "6-31G**", 
		 "properties": { 
			 "R2extent": 6238.1142, 
			 "electric_dipole_moment_norm": 3.56254532603, 
			 "electric_quadrupole_moment_norm": 18.4523739264, 
			 "total_energy": -1529.08429916, 
			 "HOMO_LUMO_gap": 0.18282, 
			 "cosmo_polarized_energy": -12.63, 
			 "cosmo_cavitation_energy": 37.35, 
			 "cosmo_dispersion_energy": -26.05, 
			 "cosmo_repulsion_energy": 2.0, 
			 "cosmo_total_nonelectrostatic_energy": 13.3, 
			 "SMD_solvation_energy": 6.11 
		},
		"coords": [
			{
				"x": 2.901752296,
				"y": -1.4417270889,
				"z": -3.2315669926,
				"element": "Cl" 
			},
			{
				"x": 3.3025865451,
				"y": -0.421243961,
				"z": -1.7855428293,
				"element": "C" 
			},
			{
				"x": 2.1861286545,
				"y": 0.5778696947,
				"z": -1.4893001909,
				"element": "C" 
			},
			{
				"x": 2.0957533103,
				"y": 1.615419454,
				"z": -2.1241550495,
				"element": "O" 
			},
			{
				"x": 1.3216599673,
				"y": 0.3123539224,
				"z": -0.4464854478,
				"element": "N" 
			},
			{
				"x": 1.2094055403,
				"y": -0.8026181137,
				"z": 0.4110064564,
				"element": "C" 
			},
			{
				"x": 1.0060517935,
				"y": -0.6050206572,
				"z": 1.7987349724,
				"element": "C" 
			},
			{
				"x": 1.0214853478,
				"y": 1.023061741,
				"z": 2.5465375127,
				"element": "S" 
			},
			{
				"x": -0.424681177,
				"y": 1.8206538698,
				"z": 1.8313304426,
				"element": "C" 
			},
			{
				"x": -0.3378351968,
				"y": 3.1878673952,
				"z": 1.5325095343,
				"element": "C" 
			},
			{
				"x": -1.4547366354,
				"y": 3.8660440471,
				"z": 1.0412229531,
				"element": "C" 
			},
			{
				"x": -2.6532620202,
				"y": 3.1849961485,
				"z": 0.8243955901,
				"element": "C" 
			},
			{
				"x": -2.7346899086,
				"y": 1.820056046,
				"z": 1.1104737497,
				"element": "C" 
			},
			{
				"x": -1.6312440847,
				"y": 1.1377172357,
				"z": 1.6224537739,
				"element": "C" 
			},
			{
				"x": 0.8819720473,
				"y": -1.7164607169,
				"z": 2.6409554893,
				"element": "C" 
			},
			{
				"x": 0.9704345568,
				"y": -3.014044661,
				"z": 2.1365270533,
				"element": "C" 
			},
			{
				"x": 1.1477469844,
				"y": -3.2059476739,
				"z": 0.7671318658,
				"element": "C" 
			},
			{
				"x": 1.2430186139,
				"y": -2.1111123461,
				"z": -0.0914442717,
				"element": "C" 
			},
			{
				"x": 4.186110392,
				"y": 0.1557280147,
				"z": -2.0536364993,
				"element": "H" 
			},
			{
				"x": 3.5187727289,
				"y": -1.0998320855,
				"z": -0.9620407362,
				"element": "H" 
			},
			{
				"x": 0.7373818554,
				"y": 1.1144183,
				"z": -0.2349416282,
				"element": "H" 
			},
			{
				"x": 0.6010705656,
				"y": 3.7134838442,
				"z": 1.6784022238,
				"element": "H" 
			},
			{
				"x": -1.3789813336,
				"y": 4.9250104131,
				"z": 0.812557121,
				"element": "H" 
			},
			{
				"x": -3.5168785619,
				"y": 3.7120510106,
				"z": 0.4304312806,
				"element": "H" 
			},
			{
				"x": -3.6643459871,
				"y": 1.2832419884,
				"z": 0.9445202028,
				"element": "H" 
			},
			{
				"x": -1.7034925937,
				"y": 0.0808875004,
				"z": 1.8584559551,
				"element": "H" 
			},
			{
				"x": 0.7236829441,
				"y": -1.5493913728,
				"z": 3.7015291331,
				"element": "H" 
			},
			{
				"x": 0.8827455308,
				"y": -3.8637148812,
				"z": 2.8063426038,
				"element": "H" 
			},
			{
				"x": 1.1898157809,
				"y": -4.2095381156,
				"z": 0.3547140822,
				"element": "H" 
			},
			{
				"x": 1.3318720443,
				"y": -2.2669089517,
				"z": -1.1609183505,
				"element": "H" 
			}
		],
		 "valence_orbital": [ 
			{
				"type": "occ",
				"energy": -0.26994,
				"method": "rhf"
			},
			{
				"type": "occ",
				"energy": -0.26403,
				"method": "rhf"
			},
			{
				"type": "occ",
				"energy": -0.26291,
				"method": "rhf"
			},
			{
				"type": "occ",
				"energy": -0.24173,
				"method": "rhf"
			},
			{
				"type": "occ",
				"energy": -0.22531,
				"method": "rhf"
			},
			{
				"type": "unocc",
				"energy": -0.04249,
				"method": "rhf"
			},
			{
				"type": "unocc",
				"energy": -0.02948,
				"method": "rhf"
			},
			{
				"type": "unocc",
				"energy": -0.02175,
				"method": "rhf"
			},
			{
				"type": "unocc",
				"energy": -0.01382,
				"method": "rhf"
			},
			{
				"type": "unocc",
				"energy": -0.00934,
				"method": "rhf"
			}
		],
		"cosmo_sigma_profile": { 
			"-0.025": 0.0,
			"-0.024": 0.0,
			"-0.023": 0.0,
			"-0.022": 0.0,
			"-0.021": 0.0,
			"-0.02": 0.0,
			"-0.019": 0.0,
			"-0.018": 0.0,
			"-0.017": 0.0,
			"-0.016": 0.0,
			"-0.015": 0.0,
			"-0.014": 0.0,
			"-0.013": 0.0,
			"-0.012": 0.0,
			"-0.011": 0.0,
			"-0.01": 0.00690669288634,
			"-0.009": 1.31673949344,
			"-0.008": 3.26133912771,
			"-0.007": 9.55696283668,
			"-0.006": 21.2968860278,
			"-0.005": 24.1636722967,
			"-0.004": 22.836045214,
			"-0.003": 19.4232975552,
			"-0.002": 21.6083331273,
			"-0.001": 21.3940779544,
			"0.0": 21.6085137859,
			"0.001": 23.3667534215,
			"0.002": 21.3492548823,
			"0.003": 25.3161728503,
			"0.004": 25.0620271639,
			"0.005": 16.1373083838,
			"0.006": 7.02589127139,
			"0.007": 3.19137963295,
			"0.008": 1.59350776919,
			"0.009": 1.36187993416,
			"0.01": 2.0146488488,
			"0.011": 1.97694800805,
			"0.012": 5.11337884114,
			"0.013": 3.4244428419,
			"0.014": 0.236539031501,
			"0.015": 0.0,
			"0.016": 0.0,
			"0.017": 0.0,
			"0.018": 0.0,
			"0.019": 0.0,
			"0.02": 0.0,
			"0.021": 0.0,
			"0.022": 0.0,
			"0.023": 0.0,
			"0.024": 0.0,
			"0.025": 0.0
		}
	}
}
