{
	 "smiles": "OC1=C(O)C(Cl)=CC=C1", 
	 "Tm": 321.65, 
	 "num_atms": 14, 
	 "gaussian": { 
		 "optdone": 1, 
		 "sigma_profile": "yes", 
		 "theory": "DFT", 
		 "functional": "B3LYP", 
		 "basiset": "6-31G**", 
		 "properties": { 
			 "R2extent": 2230.4228, 
			 "electric_dipole_moment_norm": 4.26566431051, 
			 "electric_quadrupole_moment_norm": 8.01784868777, 
			 "total_energy": -842.280453182, 
			 "HOMO_LUMO_gap": 0.21383, 
			 "cosmo_polarized_energy": -11.56, 
			 "cosmo_cavitation_energy": 19.89, 
			 "cosmo_dispersion_energy": -15.39, 
			 "cosmo_repulsion_energy": 1.27, 
			 "cosmo_total_nonelectrostatic_energy": 5.77, 
			 "SMD_solvation_energy": 3.86 
		},
		"coords": [
			{
				"x": -1.7524343874,
				"y": 0.8253417336,
				"z": -0.9750522668,
				"element": "O" 
			},
			{
				"x": -1.709439068,
				"y": 0.3406820265,
				"z": 0.3119441311,
				"element": "C" 
			},
			{
				"x": -1.0362002898,
				"y": -0.889025938,
				"z": 0.440844361,
				"element": "C" 
			},
			{
				"x": -0.4968125017,
				"y": -1.496763957,
				"z": -0.6445645306,
				"element": "O" 
			},
			{
				"x": -0.9406141286,
				"y": -1.4613847653,
				"z": 1.7114026541,
				"element": "C" 
			},
			{
				"x": -0.1072588938,
				"y": -2.9899119971,
				"z": 1.8908510809,
				"element": "Cl" 
			},
			{
				"x": -1.4976061609,
				"y": -0.8328139855,
				"z": 2.8287644926,
				"element": "C" 
			},
			{
				"x": -2.1589065328,
				"y": 0.3827569583,
				"z": 2.6779075896,
				"element": "C" 
			},
			{
				"x": -2.2672154828,
				"y": 0.9749676473,
				"z": 1.4156595342,
				"element": "C" 
			},
			{
				"x": -2.2251222118,
				"y": 1.6662566719,
				"z": -0.9949032946,
				"element": "H" 
			},
			{
				"x": -0.6787844447,
				"y": -0.9321000266,
				"z": -1.411132775,
				"element": "H" 
			},
			{
				"x": -1.4058326073,
				"y": -1.3035759829,
				"z": 3.8007193857,
				"element": "H" 
			},
			{
				"x": -2.5925232062,
				"y": 0.8736743203,
				"z": 3.5428505942,
				"element": "H" 
			},
			{
				"x": -2.7824500843,
				"y": 1.9243972944,
				"z": 1.2908090436,
				"element": "H" 
			}
		],
		 "valence_orbital": [ 
			{
				"type": "occ",
				"energy": -0.35103,
				"method": "rhf"
			},
			{
				"type": "occ",
				"energy": -0.31733,
				"method": "rhf"
			},
			{
				"type": "occ",
				"energy": -0.30367,
				"method": "rhf"
			},
			{
				"type": "occ",
				"energy": -0.23692,
				"method": "rhf"
			},
			{
				"type": "occ",
				"energy": -0.21859,
				"method": "rhf"
			},
			{
				"type": "unocc",
				"energy": -0.00476,
				"method": "rhf"
			},
			{
				"type": "unocc",
				"energy": 0.00696,
				"method": "rhf"
			},
			{
				"type": "unocc",
				"energy": 0.03055,
				"method": "rhf"
			},
			{
				"type": "unocc",
				"energy": 0.05288,
				"method": "rhf"
			},
			{
				"type": "unocc",
				"energy": 0.09922,
				"method": "rhf"
			}
		],
		"cosmo_sigma_profile": { 
			"-0.025": 0.0,
			"-0.024": 0.0,
			"-0.023": 0.0,
			"-0.022": 0.0,
			"-0.021": 0.0,
			"-0.02": 0.0,
			"-0.019": 0.43741020793,
			"-0.018": 1.00661261693,
			"-0.017": 1.45216741414,
			"-0.016": 0.73561177523,
			"-0.015": 1.46159892618,
			"-0.014": 1.41534656036,
			"-0.013": 1.62686978716,
			"-0.012": 1.09791049702,
			"-0.011": 2.24324057454,
			"-0.01": 1.37971596226,
			"-0.009": 2.30802386873,
			"-0.008": 1.5313732424,
			"-0.007": 2.55799710317,
			"-0.006": 7.31192300615,
			"-0.005": 7.70078418836,
			"-0.004": 6.72453439031,
			"-0.003": 5.51957933708,
			"-0.002": 6.55904012266,
			"-0.001": 6.54742432163,
			"0.0": 8.24562602474,
			"0.001": 11.2633843906,
			"0.002": 16.8800959088,
			"0.003": 15.9874301614,
			"0.004": 17.1542178075,
			"0.005": 15.6062658255,
			"0.006": 4.81964909665,
			"0.007": 3.44464160334,
			"0.008": 1.99976404754,
			"0.009": 1.50246928913,
			"0.01": 2.52047670394,
			"0.011": 1.94819039155,
			"0.012": 0.238785521044,
			"0.013": 0.0,
			"0.014": 0.0,
			"0.015": 0.0,
			"0.016": 0.0,
			"0.017": 0.0,
			"0.018": 0.0,
			"0.019": 0.0,
			"0.02": 0.0,
			"0.021": 0.0,
			"0.022": 0.0,
			"0.023": 0.0,
			"0.024": 0.0,
			"0.025": 0.0
		}
	}
}
