{
	 "smiles": "FC(F)(F)C(F)(F)Cl", 
	 "Tm": 173.75, 
	 "num_atms": 8, 
	 "gaussian": { 
		 "optdone": 1, 
		 "sigma_profile": "yes", 
		 "theory": "DFT", 
		 "functional": "B3LYP", 
		 "basiset": "6-31G**", 
		 "properties": { 
			 "R2extent": 2359.2025, 
			 "electric_dipole_moment_norm": 0.0613238126669, 
			 "electric_quadrupole_moment_norm": 0.96538742482, 
			 "total_energy": -1035.59025273, 
			 "HOMO_LUMO_gap": 0.33731, 
			 "cosmo_polarized_energy": -0.74, 
			 "cosmo_cavitation_energy": 16.54, 
			 "cosmo_dispersion_energy": -11.64, 
			 "cosmo_repulsion_energy": 0.89, 
			 "cosmo_total_nonelectrostatic_energy": 5.79, 
			 "SMD_solvation_energy": 4.66 
		},
		"coords": [
			{
				"x": -0.3032215067,
				"y": 2.0535419555,
				"z": 2.0398384467,
				"element": "F" 
			},
			{
				"x": -1.1904158377,
				"y": 1.9404044319,
				"z": 1.0471434707,
				"element": "C" 
			},
			{
				"x": -2.1363708866,
				"y": 2.8732917668,
				"z": 1.1894417814,
				"element": "F" 
			},
			{
				"x": -1.7595966687,
				"y": 0.729852988,
				"z": 1.1071628079,
				"element": "F" 
			},
			{
				"x": -0.4869716765,
				"y": 2.0890976379,
				"z": -0.3257913081,
				"element": "C" 
			},
			{
				"x": -1.405402888,
				"y": 1.9362681551,
				"z": -1.2911704812,
				"element": "F" 
			},
			{
				"x": 0.428913343,
				"y": 1.1159982461,
				"z": -0.4401437438,
				"element": "F" 
			},
			{
				"x": 0.3016661212,
				"y": 3.6784448187,
				"z": -0.4937809735,
				"element": "Cl" 
			}
		],
		 "valence_orbital": [ 
			{
				"type": "occ",
				"energy": -0.43875,
				"method": "rhf"
			},
			{
				"type": "occ",
				"energy": -0.42978,
				"method": "rhf"
			},
			{
				"type": "occ",
				"energy": -0.38451,
				"method": "rhf"
			},
			{
				"type": "occ",
				"energy": -0.35094,
				"method": "rhf"
			},
			{
				"type": "occ",
				"energy": -0.35027,
				"method": "rhf"
			},
			{
				"type": "unocc",
				"energy": -0.01296,
				"method": "rhf"
			},
			{
				"type": "unocc",
				"energy": 0.07055,
				"method": "rhf"
			},
			{
				"type": "unocc",
				"energy": 0.10194,
				"method": "rhf"
			},
			{
				"type": "unocc",
				"energy": 0.17959,
				"method": "rhf"
			},
			{
				"type": "unocc",
				"energy": 0.1842,
				"method": "rhf"
			}
		],
		"cosmo_sigma_profile": { 
			"-0.025": 0.0,
			"-0.024": 0.0,
			"-0.023": 0.0,
			"-0.022": 0.0,
			"-0.021": 0.0,
			"-0.02": 0.0,
			"-0.019": 0.0,
			"-0.018": 0.0,
			"-0.017": 0.0,
			"-0.016": 0.0,
			"-0.015": 0.0,
			"-0.014": 0.0,
			"-0.013": 0.0,
			"-0.012": 0.0,
			"-0.011": 0.0,
			"-0.01": 0.0,
			"-0.009": 0.0,
			"-0.008": 0.0,
			"-0.007": 0.0,
			"-0.006": 0.00761737855368,
			"-0.005": 0.928581965271,
			"-0.004": 3.17623649686,
			"-0.003": 7.4671898781,
			"-0.002": 11.1529637415,
			"-0.001": 17.3192402202,
			"0.0": 30.3784064696,
			"0.001": 53.2444453151,
			"0.002": 11.7268300229,
			"0.003": 0.0414622869342,
			"0.004": 0.0,
			"0.005": 0.0,
			"0.006": 0.0,
			"0.007": 0.0,
			"0.008": 0.0,
			"0.009": 0.0,
			"0.01": 0.0,
			"0.011": 0.0,
			"0.012": 0.0,
			"0.013": 0.0,
			"0.014": 0.0,
			"0.015": 0.0,
			"0.016": 0.0,
			"0.017": 0.0,
			"0.018": 0.0,
			"0.019": 0.0,
			"0.02": 0.0,
			"0.021": 0.0,
			"0.022": 0.0,
			"0.023": 0.0,
			"0.024": 0.0,
			"0.025": 0.0
		}
	}
}
