{
	 "smiles": "CS(=O)(=O)C1=CC=C(C=C1)C1=NN=C(N)O1", 
	 "Tm": 571.15, 
	 "num_atms": 25, 
	 "gaussian": { 
		 "optdone": 1, 
		 "sigma_profile": "yes", 
		 "theory": "DFT", 
		 "functional": "B3LYP", 
		 "basiset": "6-31G**", 
		 "properties": { 
			 "R2extent": 6365.6806, 
			 "electric_dipole_moment_norm": 6.947119285, 
			 "electric_quadrupole_moment_norm": 21.3862210818, 
			 "total_energy": -1136.40776728, 
			 "HOMO_LUMO_gap": 0.16456, 
			 "cosmo_polarized_energy": -25.71, 
			 "cosmo_cavitation_energy": 31.97, 
			 "cosmo_dispersion_energy": -23.9, 
			 "cosmo_repulsion_energy": 1.81, 
			 "cosmo_total_nonelectrostatic_energy": 9.88, 
			 "SMD_solvation_energy": 3.76 
		},
		"coords": [
			{
				"x": -1.1831858612,
				"y": -1.7116238966,
				"z": 4.2009983104,
				"element": "C" 
			},
			{
				"x": 0.573488486,
				"y": -1.7067616075,
				"z": 3.7673904275,
				"element": "S" 
			},
			{
				"x": 1.0892028178,
				"y": -3.0636126019,
				"z": 4.0044118686,
				"element": "O" 
			},
			{
				"x": 1.1834665744,
				"y": -0.5329296641,
				"z": 4.4112175303,
				"element": "O" 
			},
			{
				"x": 0.5691743575,
				"y": -1.4190282983,
				"z": 1.9899650514,
				"element": "C" 
			},
			{
				"x": 0.667785338,
				"y": -0.1121992691,
				"z": 1.5107374142,
				"element": "C" 
			},
			{
				"x": 0.6597103633,
				"y": 0.1114887569,
				"z": 0.1363870985,
				"element": "C" 
			},
			{
				"x": 0.5549495239,
				"y": -0.9703686742,
				"z": -0.7529001796,
				"element": "C" 
			},
			{
				"x": 0.4706868607,
				"y": -2.282941903,
				"z": -0.2535544086,
				"element": "C" 
			},
			{
				"x": 0.4813510585,
				"y": -2.5083674998,
				"z": 1.117455505,
				"element": "C" 
			},
			{
				"x": 0.5401422421,
				"y": -0.7621221678,
				"z": -2.1932050251,
				"element": "C" 
			},
			{
				"x": 0.4389513347,
				"y": -1.6384709446,
				"z": -3.1426130249,
				"element": "N" 
			},
			{
				"x": 0.4563356465,
				"y": -0.948745701,
				"z": -4.3526276318,
				"element": "N" 
			},
			{
				"x": 0.5803356522,
				"y": 0.3089994583,
				"z": -4.0321146037,
				"element": "C" 
			},
			{
				"x": 0.7187542695,
				"y": 1.3846111547,
				"z": -4.8577991479,
				"element": "N" 
			},
			{
				"x": 0.6374734561,
				"y": 0.523810968,
				"z": -2.6938389405,
				"element": "O" 
			},
			{
				"x": -1.6172607354,
				"y": -0.7417043363,
				"z": 3.9545845165,
				"element": "H" 
			},
			{
				"x": -1.2300498937,
				"y": -1.8868779181,
				"z": 5.2778739357,
				"element": "H" 
			},
			{
				"x": -1.6846427203,
				"y": -2.5173628805,
				"z": 3.6631938478,
				"element": "H" 
			},
			{
				"x": 0.7701286784,
				"y": 0.7107345099,
				"z": 2.2099965453,
				"element": "H" 
			},
			{
				"x": 0.7418257387,
				"y": 1.1212792995,
				"z": -0.250284394,
				"element": "H" 
			},
			{
				"x": 0.4064168767,
				"y": -3.1092281442,
				"z": -0.9529742701,
				"element": "H" 
			},
			{
				"x": 0.4438885513,
				"y": -3.5168172737,
				"z": 1.5156221566,
				"element": "H" 
			},
			{
				"x": 0.3866410167,
				"y": 2.2694979801,
				"z": -4.5020893218,
				"element": "H" 
			},
			{
				"x": 0.4796303676,
				"y": 1.1935406531,
				"z": -5.8204332599,
				"element": "H" 
			}
		],
		 "valence_orbital": [ 
			{
				"type": "occ",
				"energy": -0.29684,
				"method": "rhf"
			},
			{
				"type": "occ",
				"energy": -0.28745,
				"method": "rhf"
			},
			{
				"type": "occ",
				"energy": -0.28168,
				"method": "rhf"
			},
			{
				"type": "occ",
				"energy": -0.27995,
				"method": "rhf"
			},
			{
				"type": "occ",
				"energy": -0.23419,
				"method": "rhf"
			},
			{
				"type": "unocc",
				"energy": -0.06963,
				"method": "rhf"
			},
			{
				"type": "unocc",
				"energy": -0.02924,
				"method": "rhf"
			},
			{
				"type": "unocc",
				"energy": 0.01687,
				"method": "rhf"
			},
			{
				"type": "unocc",
				"energy": 0.041,
				"method": "rhf"
			},
			{
				"type": "unocc",
				"energy": 0.05681,
				"method": "rhf"
			}
		],
		"cosmo_sigma_profile": { 
			"-0.025": 0.0,
			"-0.024": 0.0,
			"-0.023": 0.0,
			"-0.022": 0.0,
			"-0.021": 0.0,
			"-0.02": 0.0,
			"-0.019": 0.0,
			"-0.018": 0.0,
			"-0.017": 0.0,
			"-0.016": 0.548707200286,
			"-0.015": 2.81233518858,
			"-0.014": 2.39953018268,
			"-0.013": 2.93722520362,
			"-0.012": 2.34254196795,
			"-0.011": 1.69604199914,
			"-0.01": 2.13996701543,
			"-0.009": 4.69134145735,
			"-0.008": 10.287433511,
			"-0.007": 13.259306734,
			"-0.006": 14.7359564758,
			"-0.005": 13.776424106,
			"-0.004": 16.6619115215,
			"-0.003": 14.7718307321,
			"-0.002": 13.6143106713,
			"-0.001": 14.3635354585,
			"0.0": 15.0633569613,
			"0.001": 20.7402253633,
			"0.002": 14.0120753979,
			"0.003": 7.38086982759,
			"0.004": 4.57552312414,
			"0.005": 4.4857566163,
			"0.006": 5.58561775017,
			"0.007": 4.17347388808,
			"0.008": 5.48923515561,
			"0.009": 5.81829703178,
			"0.01": 7.38390281085,
			"0.011": 11.5854668833,
			"0.012": 11.5624085387,
			"0.013": 3.38334652528,
			"0.014": 2.4429903277,
			"0.015": 0.99710495502,
			"0.016": 0.633629410746,
			"0.017": 0.0,
			"0.018": 0.0,
			"0.019": 0.0,
			"0.02": 0.0,
			"0.021": 0.0,
			"0.022": 0.0,
			"0.023": 0.0,
			"0.024": 0.0,
			"0.025": 0.0
		}
	}
}
