{
	 "smiles": "CC(C)(C)OC(=O)N1CCCC(COS(C)(=O)=O)C1", 
	 "Tm": 350.15, 
	 "num_atms": 42, 
	 "gaussian": { 
		 "optdone": 1, 
		 "sigma_profile": "yes", 
		 "theory": "DFT", 
		 "functional": "B3LYP", 
		 "basiset": "6-31G**", 
		 "properties": { 
			 "R2extent": 7159.2951, 
			 "electric_dipole_moment_norm": 3.87126145978, 
			 "electric_quadrupole_moment_norm": 23.6701681118, 
			 "total_energy": -1300.17254578, 
			 "HOMO_LUMO_gap": 0.27823, 
			 "cosmo_polarized_energy": -17.89, 
			 "cosmo_cavitation_energy": 43.85, 
			 "cosmo_dispersion_energy": -29.34, 
			 "cosmo_repulsion_energy": 2.25, 
			 "cosmo_total_nonelectrostatic_energy": 16.76, 
			 "SMD_solvation_energy": 6.92 
		},
		"coords": [
			{
				"x": 3.1273819912,
				"y": 1.0909288861,
				"z": -1.9384992566,
				"element": "C" 
			},
			{
				"x": 3.1818305297,
				"y": -0.2150946153,
				"z": -1.1389352287,
				"element": "C" 
			},
			{
				"x": 3.8992361291,
				"y": -1.3350154899,
				"z": -1.8999870933,
				"element": "C" 
			},
			{
				"x": 3.8306866655,
				"y": 0.0134424351,
				"z": 0.2288326982,
				"element": "C" 
			},
			{
				"x": 1.8189024748,
				"y": -0.6429493532,
				"z": -0.7778254913,
				"element": "O" 
			},
			{
				"x": 0.9147091068,
				"y": -0.969667454,
				"z": -1.7373490473,
				"element": "C" 
			},
			{
				"x": 1.1046100883,
				"y": -0.9081401212,
				"z": -2.9441008532,
				"element": "O" 
			},
			{
				"x": -0.2709606596,
				"y": -1.3800135003,
				"z": -1.1841986793,
				"element": "N" 
			},
			{
				"x": -1.4103973184,
				"y": -1.6264644075,
				"z": -2.0765297569,
				"element": "C" 
			},
			{
				"x": -2.7263464888,
				"y": -1.2418960066,
				"z": -1.3717132774,
				"element": "C" 
			},
			{
				"x": -2.5177421442,
				"y": -0.01183601,
				"z": -0.478085098,
				"element": "C" 
			},
			{
				"x": -1.5316443071,
				"y": -0.3249889924,
				"z": 0.6774309108,
				"element": "C" 
			},
			{
				"x": -0.7446221964,
				"y": 0.9052156849,
				"z": 1.1134310536,
				"element": "C" 
			},
			{
				"x": -1.7038160365,
				"y": 1.9338860157,
				"z": 1.4957883826,
				"element": "O" 
			},
			{
				"x": -1.0391571892,
				"y": 3.36950238,
				"z": 1.9322547691,
				"element": "S" 
			},
			{
				"x": -2.5873435908,
				"y": 4.2254417128,
				"z": 2.2219490455,
				"element": "C" 
			},
			{
				"x": -0.3553925265,
				"y": 3.9538200981,
				"z": 0.7794692437,
				"element": "O" 
			},
			{
				"x": -0.320376589,
				"y": 3.2026276391,
				"z": 3.1944384616,
				"element": "O" 
			},
			{
				"x": -0.5487274768,
				"y": -1.4458834488,
				"z": 0.2451224087,
				"element": "C" 
			},
			{
				"x": 2.6427690869,
				"y": 0.9372410372,
				"z": -2.9026587155,
				"element": "H" 
			},
			{
				"x": 4.1444713521,
				"y": 1.4598625978,
				"z": -2.1069275734,
				"element": "H" 
			},
			{
				"x": 2.5785523541,
				"y": 1.8568086675,
				"z": -1.3811342793,
				"element": "H" 
			},
			{
				"x": 3.8826199514,
				"y": -2.2617289905,
				"z": -1.3172571928,
				"element": "H" 
			},
			{
				"x": 4.9453115432,
				"y": -1.055490969,
				"z": -2.0622264236,
				"element": "H" 
			},
			{
				"x": 3.4278070287,
				"y": -1.5150589651,
				"z": -2.8661771611,
				"element": "H" 
			},
			{
				"x": 4.8663190378,
				"y": 0.3422719031,
				"z": 0.1018257941,
				"element": "H" 
			},
			{
				"x": 3.8312089982,
				"y": -0.909367896,
				"z": 0.8167412081,
				"element": "H" 
			},
			{
				"x": 3.2920785673,
				"y": 0.7825333289,
				"z": 0.7901342833,
				"element": "H" 
			},
			{
				"x": -1.2564836838,
				"y": -1.0208789458,
				"z": -2.9721275556,
				"element": "H" 
			},
			{
				"x": -1.4314840061,
				"y": -2.6776480141,
				"z": -2.3969914018,
				"element": "H" 
			},
			{
				"x": -3.1000441925,
				"y": -2.0786404256,
				"z": -0.7679968924,
				"element": "H" 
			},
			{
				"x": -3.4910497729,
				"y": -1.0469275513,
				"z": -2.1306545907,
				"element": "H" 
			},
			{
				"x": -2.1141119806,
				"y": 0.8058092685,
				"z": -1.0887492112,
				"element": "H" 
			},
			{
				"x": -3.4686857883,
				"y": 0.345663049,
				"z": -0.0735396257,
				"element": "H" 
			},
			{
				"x": -2.0953050775,
				"y": -0.6893187048,
				"z": 1.5460195298,
				"element": "H" 
			},
			{
				"x": -0.1237033212,
				"y": 1.2848430326,
				"z": 0.2955844395,
				"element": "H" 
			},
			{
				"x": -0.1071934978,
				"y": 0.6857171199,
				"z": 1.9762895941,
				"element": "H" 
			},
			{
				"x": -3.1541605212,
				"y": 4.248980272,
				"z": 1.2915397999,
				"element": "H" 
			},
			{
				"x": -2.3274366257,
				"y": 5.2362212034,
				"z": 2.5399376028,
				"element": "H" 
			},
			{
				"x": -3.133816804,
				"y": 3.7043115185,
				"z": 3.007704284,
				"element": "H" 
			},
			{
				"x": 0.3914125103,
				"y": -1.3923974898,
				"z": 0.7920058741,
				"element": "H" 
			},
			{
				"x": -0.9950056203,
				"y": -2.4234204988,
				"z": 0.4655650216,
				"element": "H" 
			}
		],
		 "valence_orbital": [ 
			{
				"type": "occ",
				"energy": -0.31654,
				"method": "rhf"
			},
			{
				"type": "occ",
				"energy": -0.28895,
				"method": "rhf"
			},
			{
				"type": "occ",
				"energy": -0.28428,
				"method": "rhf"
			},
			{
				"type": "occ",
				"energy": -0.25743,
				"method": "rhf"
			},
			{
				"type": "occ",
				"energy": -0.23453,
				"method": "rhf"
			},
			{
				"type": "unocc",
				"energy": 0.0437,
				"method": "rhf"
			},
			{
				"type": "unocc",
				"energy": 0.05489,
				"method": "rhf"
			},
			{
				"type": "unocc",
				"energy": 0.06254,
				"method": "rhf"
			},
			{
				"type": "unocc",
				"energy": 0.07528,
				"method": "rhf"
			},
			{
				"type": "unocc",
				"energy": 0.08546,
				"method": "rhf"
			}
		],
		"cosmo_sigma_profile": { 
			"-0.025": 0.0,
			"-0.024": 0.0,
			"-0.023": 0.0,
			"-0.022": 0.0,
			"-0.021": 0.0,
			"-0.02": 0.0,
			"-0.019": 0.0,
			"-0.018": 0.0,
			"-0.017": 0.0,
			"-0.016": 0.0,
			"-0.015": 0.0,
			"-0.014": 0.0,
			"-0.013": 0.0,
			"-0.012": 0.0,
			"-0.011": 0.0822992075155,
			"-0.01": 1.58448564498,
			"-0.009": 4.82809505212,
			"-0.008": 5.6599569165,
			"-0.007": 5.5444053529,
			"-0.006": 7.55163522711,
			"-0.005": 14.1924464114,
			"-0.004": 34.6858684519,
			"-0.003": 44.3243192091,
			"-0.002": 38.8464192487,
			"-0.001": 32.1913585482,
			"0.0": 34.0356493724,
			"0.001": 28.0705242921,
			"0.002": 13.4816069675,
			"0.003": 10.2059487388,
			"0.004": 7.52133263728,
			"0.005": 6.11770877812,
			"0.006": 6.2830160496,
			"0.007": 4.8565455031,
			"0.008": 4.4279691836,
			"0.009": 5.88296921553,
			"0.01": 11.8650357089,
			"0.011": 11.2100344995,
			"0.012": 2.53306157112,
			"0.013": 2.56074158734,
			"0.014": 2.21772441644,
			"0.015": 0.0415111784127,
			"0.016": 0.0,
			"0.017": 0.0,
			"0.018": 0.0,
			"0.019": 0.0,
			"0.02": 0.0,
			"0.021": 0.0,
			"0.022": 0.0,
			"0.023": 0.0,
			"0.024": 0.0,
			"0.025": 0.0
		}
	}
}
