{
	 "smiles": "CC1=CC2=C(N=CC(C(O)=O)=C2O)C(C)=C1", 
	 "Tm": 556.15, 
	 "num_atms": 27, 
	 "gaussian": { 
		 "optdone": 1, 
		 "sigma_profile": "yes", 
		 "theory": "DFT", 
		 "functional": "B3LYP", 
		 "basiset": "6-31G**", 
		 "properties": { 
			 "R2extent": 4547.3605, 
			 "electric_dipole_moment_norm": 7.81489688096, 
			 "electric_quadrupole_moment_norm": 24.2171096704, 
			 "total_energy": -744.362657106, 
			 "HOMO_LUMO_gap": 0.16979, 
			 "cosmo_polarized_energy": -19.47, 
			 "cosmo_cavitation_energy": 30.62, 
			 "cosmo_dispersion_energy": -22.94, 
			 "cosmo_repulsion_energy": 1.75, 
			 "cosmo_total_nonelectrostatic_energy": 9.43, 
			 "SMD_solvation_energy": 5.46 
		},
		"coords": [
			{
				"x": -0.2981490046,
				"y": 1.8316595298,
				"z": 3.9602624731,
				"element": "C" 
			},
			{
				"x": -0.2095083504,
				"y": 1.2242448618,
				"z": 2.5821575475,
				"element": "C" 
			},
			{
				"x": -1.1201675595,
				"y": 1.5318518122,
				"z": 1.5937532932,
				"element": "C" 
			},
			{
				"x": -1.0205083983,
				"y": 0.9532373912,
				"z": 0.3005962961,
				"element": "C" 
			},
			{
				"x": 0.0487968195,
				"y": 0.0523559276,
				"z": 0.0087694825,
				"element": "C" 
			},
			{
				"x": 0.2174603834,
				"y": -0.5213399845,
				"z": -1.2177378013,
				"element": "N" 
			},
			{
				"x": -0.6498130444,
				"y": -0.2244478925,
				"z": -2.1590437376,
				"element": "C" 
			},
			{
				"x": -1.7674173532,
				"y": 0.6411787775,
				"z": -2.0023376175,
				"element": "C" 
			},
			{
				"x": -2.6513358971,
				"y": 0.8257472308,
				"z": -3.2044140746,
				"element": "C" 
			},
			{
				"x": -3.7406564744,
				"y": 1.6103322894,
				"z": -3.0776383358,
				"element": "O" 
			},
			{
				"x": -2.4037893775,
				"y": 0.2868068454,
				"z": -4.2609414275,
				"element": "O" 
			},
			{
				"x": -1.9415898873,
				"y": 1.2214983262,
				"z": -0.7536096937,
				"element": "C" 
			},
			{
				"x": -3.0049803056,
				"y": 2.0589298408,
				"z": -0.5595284533,
				"element": "O" 
			},
			{
				"x": 0.9914634714,
				"y": -0.2668881058,
				"z": 1.0379055535,
				"element": "C" 
			},
			{
				"x": 2.1178545931,
				"y": -1.2198281368,
				"z": 0.7395435531,
				"element": "C" 
			},
			{
				"x": 0.8394070636,
				"y": 0.3143304449,
				"z": 2.279597954,
				"element": "C" 
			},
			{
				"x": -1.1485297454,
				"y": 2.5133337904,
				"z": 4.0475840638,
				"element": "H" 
			},
			{
				"x": -0.4085768434,
				"y": 1.0563275094,
				"z": 4.7271644756,
				"element": "H" 
			},
			{
				"x": 0.6102841689,
				"y": 2.3946060899,
				"z": 4.2034723081,
				"element": "H" 
			},
			{
				"x": -1.9058768362,
				"y": 2.2485952139,
				"z": 1.8292371474,
				"element": "H" 
			},
			{
				"x": -0.513342543,
				"y": -0.6787205663,
				"z": -3.1370691886,
				"element": "H" 
			},
			{
				"x": -3.8006284262,
				"y": 1.9669244683,
				"z": -2.1748767814,
				"element": "H" 
			},
			{
				"x": -3.106602859,
				"y": 2.2795601593,
				"z": 0.3748865044,
				"element": "H" 
			},
			{
				"x": 2.7482025317,
				"y": -1.3679290654,
				"z": 1.6202297687,
				"element": "H" 
			},
			{
				"x": 2.7384042608,
				"y": -0.8466201042,
				"z": -0.0808827954,
				"element": "H" 
			},
			{
				"x": 1.7329238982,
				"y": -2.1905069351,
				"z": 0.4124417818,
				"element": "H" 
			},
			{
				"x": 1.5548757151,
				"y": 0.0734602819,
				"z": 3.0628777039,
				"element": "H" 
			}
		],
		 "valence_orbital": [ 
			{
				"type": "occ",
				"energy": -0.28889,
				"method": "rhf"
			},
			{
				"type": "occ",
				"energy": -0.27313,
				"method": "rhf"
			},
			{
				"type": "occ",
				"energy": -0.26099,
				"method": "rhf"
			},
			{
				"type": "occ",
				"energy": -0.25738,
				"method": "rhf"
			},
			{
				"type": "occ",
				"energy": -0.23692,
				"method": "rhf"
			},
			{
				"type": "unocc",
				"energy": -0.06713,
				"method": "rhf"
			},
			{
				"type": "unocc",
				"energy": -0.04223,
				"method": "rhf"
			},
			{
				"type": "unocc",
				"energy": 0.01169,
				"method": "rhf"
			},
			{
				"type": "unocc",
				"energy": 0.02543,
				"method": "rhf"
			},
			{
				"type": "unocc",
				"energy": 0.03016,
				"method": "rhf"
			}
		],
		"cosmo_sigma_profile": { 
			"-0.025": 0.0,
			"-0.024": 0.0,
			"-0.023": 0.0,
			"-0.022": 0.0,
			"-0.021": 0.0,
			"-0.02": 0.300765577609,
			"-0.019": 1.09051315144,
			"-0.018": 1.00695414882,
			"-0.017": 1.02149226342,
			"-0.016": 1.13863751207,
			"-0.015": 0.722175247451,
			"-0.014": 0.557971007886,
			"-0.013": 1.17518836167,
			"-0.012": 0.881448758824,
			"-0.011": 1.16519869834,
			"-0.01": 1.66669044376,
			"-0.009": 1.88295416837,
			"-0.008": 2.28259568562,
			"-0.007": 2.6306599764,
			"-0.006": 7.01554897245,
			"-0.005": 11.505091416,
			"-0.004": 18.6368409248,
			"-0.003": 18.626499579,
			"-0.002": 21.1635797496,
			"-0.001": 25.4359046481,
			"0.0": 28.384821167,
			"0.001": 19.3183453599,
			"0.002": 15.3713153353,
			"0.003": 13.7765827115,
			"0.004": 6.1651200612,
			"0.005": 4.58112119843,
			"0.006": 3.55908239137,
			"0.007": 2.96510082023,
			"0.008": 4.52666905659,
			"0.009": 4.72656350914,
			"0.01": 4.39018033548,
			"0.011": 6.22637978308,
			"0.012": 6.15871286475,
			"0.013": 3.20957730187,
			"0.014": 1.02392750082,
			"0.015": 0.039096855657,
			"0.016": 0.0,
			"0.017": 0.0,
			"0.018": 0.0,
			"0.019": 0.0,
			"0.02": 0.0,
			"0.021": 0.0,
			"0.022": 0.0,
			"0.023": 0.0,
			"0.024": 0.0,
			"0.025": 0.0
		}
	}
}
