{
	 "smiles": "CCC1=C(C=CC=C1)C(O)=O", 
	 "Tm": 337.15, 
	 "num_atms": 21, 
	 "gaussian": { 
		 "optdone": 1, 
		 "sigma_profile": "yes", 
		 "theory": "DFT", 
		 "functional": "B3LYP", 
		 "basiset": "6-31G**", 
		 "properties": { 
			 "R2extent": 2151.1308, 
			 "electric_dipole_moment_norm": 1.3943853879, 
			 "electric_quadrupole_moment_norm": 5.78706738685, 
			 "total_energy": -499.457421784, 
			 "HOMO_LUMO_gap": 0.20202, 
			 "cosmo_polarized_energy": -7.69, 
			 "cosmo_cavitation_energy": 24.14, 
			 "cosmo_dispersion_energy": -18.05, 
			 "cosmo_repulsion_energy": 1.45, 
			 "cosmo_total_nonelectrostatic_energy": 7.53, 
			 "SMD_solvation_energy": 5.17 
		},
		"coords": [
			{
				"x": 0.8821850678,
				"y": -2.4841148658,
				"z": -1.1249398444,
				"element": "C" 
			},
			{
				"x": 0.7834381156,
				"y": -1.2131450406,
				"z": -0.2767280595,
				"element": "C" 
			},
			{
				"x": -0.5547178644,
				"y": -0.9562453425,
				"z": 0.3979456114,
				"element": "C" 
			},
			{
				"x": -0.7905008816,
				"y": 0.183661444,
				"z": 1.2137788055,
				"element": "C" 
			},
			{
				"x": -2.0460516343,
				"y": 0.3758002395,
				"z": 1.8155750464,
				"element": "C" 
			},
			{
				"x": -3.0802348771,
				"y": -0.5349134805,
				"z": 1.6306304683,
				"element": "C" 
			},
			{
				"x": -2.8600415349,
				"y": -1.6558204488,
				"z": 0.8328413316,
				"element": "C" 
			},
			{
				"x": -1.6172064785,
				"y": -1.8549298029,
				"z": 0.2314604219,
				"element": "C" 
			},
			{
				"x": 0.270644305,
				"y": 1.1986521132,
				"z": 1.4547974944,
				"element": "C" 
			},
			{
				"x": -0.141220074,
				"y": 2.2160795643,
				"z": 2.2604875716,
				"element": "O" 
			},
			{
				"x": 1.4048157857,
				"y": 1.183369332,
				"z": 1.0113870645,
				"element": "O" 
			},
			{
				"x": 0.168184525,
				"y": -2.4836897648,
				"z": -1.9555919687,
				"element": "H" 
			},
			{
				"x": 0.7116966587,
				"y": -3.3903917468,
				"z": -0.5338525061,
				"element": "H" 
			},
			{
				"x": 1.8851405787,
				"y": -2.5584847126,
				"z": -1.5557486791,
				"element": "H" 
			},
			{
				"x": 1.0362232583,
				"y": -0.3426122217,
				"z": -0.8913023884,
				"element": "H" 
			},
			{
				"x": 1.5641006894,
				"y": -1.2244745362,
				"z": 0.4913574736,
				"element": "H" 
			},
			{
				"x": -2.1993754886,
				"y": 1.2527333213,
				"z": 2.4324678184,
				"element": "H" 
			},
			{
				"x": -4.0437494736,
				"y": -0.3705178635,
				"z": 2.1031718565,
				"element": "H" 
			},
			{
				"x": -3.6543100486,
				"y": -2.380333661,
				"z": 0.6748662578,
				"element": "H" 
			},
			{
				"x": -1.474220732,
				"y": -2.7353968112,
				"z": -0.3837875426,
				"element": "H" 
			},
			{
				"x": 0.6287001035,
				"y": 2.8022742844,
				"z": 2.339383767,
				"element": "H" 
			}
		],
		 "valence_orbital": [ 
			{
				"type": "occ",
				"energy": -0.33752,
				"method": "rhf"
			},
			{
				"type": "occ",
				"energy": -0.31425,
				"method": "rhf"
			},
			{
				"type": "occ",
				"energy": -0.26825,
				"method": "rhf"
			},
			{
				"type": "occ",
				"energy": -0.25833,
				"method": "rhf"
			},
			{
				"type": "occ",
				"energy": -0.24801,
				"method": "rhf"
			},
			{
				"type": "unocc",
				"energy": -0.04599,
				"method": "rhf"
			},
			{
				"type": "unocc",
				"energy": -0.00257,
				"method": "rhf"
			},
			{
				"type": "unocc",
				"energy": 0.05882,
				"method": "rhf"
			},
			{
				"type": "unocc",
				"energy": 0.08201,
				"method": "rhf"
			},
			{
				"type": "unocc",
				"energy": 0.10053,
				"method": "rhf"
			}
		],
		"cosmo_sigma_profile": { 
			"-0.025": 0.0,
			"-0.024": 0.0,
			"-0.023": 0.0,
			"-0.022": 0.0,
			"-0.021": 0.0,
			"-0.02": 0.0,
			"-0.019": 0.0,
			"-0.018": 0.483543688493,
			"-0.017": 0.633884316357,
			"-0.016": 1.27320079607,
			"-0.015": 0.526964815241,
			"-0.014": 0.456543882221,
			"-0.013": 0.9459226757,
			"-0.012": 0.599652219464,
			"-0.011": 0.71183959538,
			"-0.01": 0.738506478722,
			"-0.009": 0.414764509693,
			"-0.008": 0.268654837082,
			"-0.007": 1.67029232397,
			"-0.006": 5.3034073045,
			"-0.005": 8.46830224169,
			"-0.004": 11.0040214464,
			"-0.003": 16.2924228658,
			"-0.002": 18.4601017027,
			"-0.001": 22.1032442069,
			"0.0": 18.1006688957,
			"0.001": 18.3537915331,
			"0.002": 14.0746767315,
			"0.003": 11.6105872589,
			"0.004": 13.8826190801,
			"0.005": 6.72681442628,
			"0.006": 3.54670302582,
			"0.007": 3.19953594161,
			"0.008": 1.89965363844,
			"0.009": 1.21805591005,
			"0.01": 1.92169325402,
			"0.011": 2.53696339739,
			"0.012": 3.36587054033,
			"0.013": 0.383356352433,
			"0.014": 0.0,
			"0.015": 0.0,
			"0.016": 0.0,
			"0.017": 0.0,
			"0.018": 0.0,
			"0.019": 0.0,
			"0.02": 0.0,
			"0.021": 0.0,
			"0.022": 0.0,
			"0.023": 0.0,
			"0.024": 0.0,
			"0.025": 0.0
		}
	}
}
