{
	 "smiles": "ONC(=O)CC1=C2C=CC=CC2=CC=C1", 
	 "Tm": 453.15, 
	 "num_atms": 26, 
	 "gaussian": { 
		 "optdone": 1, 
		 "sigma_profile": "yes", 
		 "theory": "DFT", 
		 "functional": "B3LYP", 
		 "basiset": "6-31G**", 
		 "properties": { 
			 "R2extent": 3601.7084, 
			 "electric_dipole_moment_norm": 2.87947412039, 
			 "electric_quadrupole_moment_norm": 9.68210637362, 
			 "total_energy": -669.068261335, 
			 "HOMO_LUMO_gap": 0.1743, 
			 "cosmo_polarized_energy": -15.58, 
			 "cosmo_cavitation_energy": 29.85, 
			 "cosmo_dispersion_energy": -21.61, 
			 "cosmo_repulsion_energy": 1.69, 
			 "cosmo_total_nonelectrostatic_energy": 9.92, 
			 "SMD_solvation_energy": 6.31 
		},
		"coords": [
			{
				"x": 0.9212434236,
				"y": 2.4328522887,
				"z": -2.6917841479,
				"element": "O" 
			},
			{
				"x": 0.1557574867,
				"y": 2.1027028773,
				"z": -1.5628811075,
				"element": "N" 
			},
			{
				"x": -0.0979871263,
				"y": 0.7644975912,
				"z": -1.4016067004,
				"element": "C" 
			},
			{
				"x": 0.5194334444,
				"y": -0.0564952584,
				"z": -2.0741508478,
				"element": "O" 
			},
			{
				"x": -1.1377323791,
				"y": 0.4175559741,
				"z": -0.3429012718,
				"element": "C" 
			},
			{
				"x": -0.7096632353,
				"y": -0.6919766738,
				"z": 0.5968254454,
				"element": "C" 
			},
			{
				"x": 0.248383419,
				"y": -0.4549706458,
				"z": 1.6363027373,
				"element": "C" 
			},
			{
				"x": 0.8798029333,
				"y": 0.8040026323,
				"z": 1.8371964064,
				"element": "C" 
			},
			{
				"x": 1.787652541,
				"y": 0.9916758392,
				"z": 2.8567472743,
				"element": "C" 
			},
			{
				"x": 2.1149580448,
				"y": -0.0699457623,
				"z": 3.7318801848,
				"element": "C" 
			},
			{
				"x": 1.5295583819,
				"y": -1.3037802698,
				"z": 3.5618813484,
				"element": "C" 
			},
			{
				"x": 0.5917579545,
				"y": -1.5331728121,
				"z": 2.5197932961,
				"element": "C" 
			},
			{
				"x": -0.0092392442,
				"y": -2.8073851433,
				"z": 2.3349023577,
				"element": "C" 
			},
			{
				"x": -0.9142556898,
				"y": -3.0122636006,
				"z": 1.3218570093,
				"element": "C" 
			},
			{
				"x": -1.2629503148,
				"y": -1.9482659101,
				"z": 0.4573102196,
				"element": "C" 
			},
			{
				"x": 1.1778638115,
				"y": 1.5350706646,
				"z": -3.0000510341,
				"element": "H" 
			},
			{
				"x": -0.5811941954,
				"y": 2.7831763201,
				"z": -1.4242203925,
				"element": "H" 
			},
			{
				"x": -1.4162127073,
				"y": 1.3192813315,
				"z": 0.2157627678,
				"element": "H" 
			},
			{
				"x": -2.0318334648,
				"y": 0.0920386011,
				"z": -0.8869084127,
				"element": "H" 
			},
			{
				"x": 0.6636343383,
				"y": 1.62635774,
				"z": 1.1638499188,
				"element": "H" 
			},
			{
				"x": 2.2602661391,
				"y": 1.9610089127,
				"z": 2.9864702679,
				"element": "H" 
			},
			{
				"x": 2.8313626951,
				"y": 0.0906280354,
				"z": 4.5322379572,
				"element": "H" 
			},
			{
				"x": 1.7793525399,
				"y": -2.1279412214,
				"z": 4.2252859369,
				"element": "H" 
			},
			{
				"x": 0.2613687102,
				"y": -3.6160796223,
				"z": 3.0087983518,
				"element": "H" 
			},
			{
				"x": -1.3702871306,
				"y": -3.9875475856,
				"z": 1.1800406868,
				"element": "H" 
			},
			{
				"x": -1.9852403756,
				"y": -2.1261243028,
				"z": -0.334838252,
				"element": "H" 
			}
		],
		 "valence_orbital": [ 
			{
				"type": "occ",
				"energy": -0.28607,
				"method": "rhf"
			},
			{
				"type": "occ",
				"energy": -0.27362,
				"method": "rhf"
			},
			{
				"type": "occ",
				"energy": -0.24413,
				"method": "rhf"
			},
			{
				"type": "occ",
				"energy": -0.24007,
				"method": "rhf"
			},
			{
				"type": "occ",
				"energy": -0.21589,
				"method": "rhf"
			},
			{
				"type": "unocc",
				"energy": -0.04159,
				"method": "rhf"
			},
			{
				"type": "unocc",
				"energy": -0.01154,
				"method": "rhf"
			},
			{
				"type": "unocc",
				"energy": 0.0053,
				"method": "rhf"
			},
			{
				"type": "unocc",
				"energy": 0.03267,
				"method": "rhf"
			},
			{
				"type": "unocc",
				"energy": 0.06631,
				"method": "rhf"
			}
		],
		"cosmo_sigma_profile": { 
			"-0.025": 0.0,
			"-0.024": 0.0,
			"-0.023": 0.0,
			"-0.022": 0.0,
			"-0.021": 0.0,
			"-0.02": 0.0,
			"-0.019": 0.0,
			"-0.018": 0.0,
			"-0.017": 0.133589977416,
			"-0.016": 1.57137730822,
			"-0.015": 1.36933934349,
			"-0.014": 1.34394088477,
			"-0.013": 2.13013117935,
			"-0.012": 1.20087460387,
			"-0.011": 1.31510201641,
			"-0.01": 2.04508506199,
			"-0.009": 2.18499852573,
			"-0.008": 2.39418036301,
			"-0.007": 6.44406611377,
			"-0.006": 15.8131313312,
			"-0.005": 16.9882147879,
			"-0.004": 18.128031987,
			"-0.003": 16.0925677457,
			"-0.002": 12.0255397313,
			"-0.001": 12.8176014514,
			"0.0": 9.97737299295,
			"0.001": 12.5676324089,
			"0.002": 13.0601594034,
			"0.003": 14.5479796139,
			"0.004": 24.2098242238,
			"0.005": 18.1983247221,
			"0.006": 5.14996222137,
			"0.007": 2.93679781802,
			"0.008": 3.98810375479,
			"0.009": 3.41605532817,
			"0.01": 4.33349823783,
			"0.011": 5.11897440319,
			"0.012": 4.1043208403,
			"0.013": 2.07507544263,
			"0.014": 0.21010223395,
			"0.015": 0.0,
			"0.016": 0.0,
			"0.017": 0.0,
			"0.018": 0.0,
			"0.019": 0.0,
			"0.02": 0.0,
			"0.021": 0.0,
			"0.022": 0.0,
			"0.023": 0.0,
			"0.024": 0.0,
			"0.025": 0.0
		}
	}
}
