{
	 "smiles": "CC(=O)N1CCN(CCN2C3=C(C(C4=CC=C(Cl)C=C4)C4=C2CC(C)(C)CC4=O)C(=O)CC(C)(C)C3)CC1", 
	 "Tm": 486.0, 
	 "num_atms": 78, 
	 "gaussian": { 
		 "optdone": 1, 
		 "sigma_profile": "yes", 
		 "theory": "DFT", 
		 "functional": "B3LYP", 
		 "basiset": "6-31G**", 
		 "properties": { 
			 "R2extent": 21868.2908, 
			 "electric_dipole_moment_norm": 10.5174497256, 
			 "electric_quadrupole_moment_norm": 44.7715116685, 
			 "total_energy": -2055.51028453, 
			 "HOMO_LUMO_gap": 0.15789, 
			 "cosmo_polarized_energy": -37.53, 
			 "cosmo_cavitation_energy": 73.95, 
			 "cosmo_dispersion_energy": -46.23, 
			 "cosmo_repulsion_energy": 3.5, 
			 "cosmo_total_nonelectrostatic_energy": 31.22, 
			 "SMD_solvation_energy": 9.83 
		},
		"coords": [
			{
				"x": 2.4083494132,
				"y": -3.5782009224,
				"z": 4.6075784084,
				"element": "C" 
			},
			{
				"x": 1.4172126962,
				"y": -4.3761701017,
				"z": 3.7724500247,
				"element": "C" 
			},
			{
				"x": 1.4501156689,
				"y": -5.6023498418,
				"z": 3.7337865769,
				"element": "O" 
			},
			{
				"x": 0.4830853045,
				"y": -3.6648519842,
				"z": 3.0561779825,
				"element": "N" 
			},
			{
				"x": 0.3477177042,
				"y": -2.2081517757,
				"z": 3.0712176652,
				"element": "C" 
			},
			{
				"x": -0.2886205514,
				"y": -1.7245439563,
				"z": 1.768107861,
				"element": "C" 
			},
			{
				"x": -1.6431668389,
				"y": -2.2654400807,
				"z": 1.5854675709,
				"element": "N" 
			},
			{
				"x": -2.1163284129,
				"y": -2.1792997306,
				"z": 0.207884999,
				"element": "C" 
			},
			{
				"x": -2.6135361148,
				"y": -0.7732915922,
				"z": -0.1926741186,
				"element": "C" 
			},
			{
				"x": -1.5569447927,
				"y": 0.1584011106,
				"z": -0.618217585,
				"element": "N" 
			},
			{
				"x": -1.3560170404,
				"y": 1.3892264321,
				"z": 0.0469865503,
				"element": "C" 
			},
			{
				"x": -0.1380672715,
				"y": 1.989875035,
				"z": -0.0968124143,
				"element": "C" 
			},
			{
				"x": 0.9132668904,
				"y": 1.0970038672,
				"z": -0.7552806999,
				"element": "C" 
			},
			{
				"x": 2.3927794288,
				"y": 1.4535273917,
				"z": -0.6311660063,
				"element": "C" 
			},
			{
				"x": 3.3549588552,
				"y": 1.0443516351,
				"z": -1.5616830104,
				"element": "C" 
			},
			{
				"x": 4.7202392369,
				"y": 1.2153077202,
				"z": -1.3231670381,
				"element": "C" 
			},
			{
				"x": 5.1400438127,
				"y": 1.7896681308,
				"z": -0.128621318,
				"element": "C" 
			},
			{
				"x": 6.8609196943,
				"y": 2.0090512513,
				"z": 0.181774962,
				"element": "Cl" 
			},
			{
				"x": 4.2111203639,
				"y": 2.1836032285,
				"z": 0.8317968809,
				"element": "C" 
			},
			{
				"x": 2.854502176,
				"y": 2.0040009586,
				"z": 0.5747907624,
				"element": "C" 
			},
			{
				"x": 0.264842129,
				"y": 0.6524355217,
				"z": -2.0678609369,
				"element": "C" 
			},
			{
				"x": -0.9344662614,
				"y": 0.0177659896,
				"z": -1.8746400104,
				"element": "C" 
			},
			{
				"x": -1.7005206891,
				"y": -0.6860484976,
				"z": -2.9715609632,
				"element": "C" 
			},
			{
				"x": -0.8717983322,
				"y": -0.8988707928,
				"z": -4.2584737334,
				"element": "C" 
			},
			{
				"x": 0.15872805,
				"y": -2.0307655121,
				"z": -4.0638090896,
				"element": "C" 
			},
			{
				"x": -1.8199430452,
				"y": -1.284917818,
				"z": -5.4072697619,
				"element": "C" 
			},
			{
				"x": -0.1680594754,
				"y": 0.4292794752,
				"z": -4.5828762505,
				"element": "C" 
			},
			{
				"x": 0.6551964645,
				"y": 1.024742269,
				"z": -3.4390705614,
				"element": "C" 
			},
			{
				"x": 1.5442315274,
				"y": 1.828518434,
				"z": -3.6927910101,
				"element": "O" 
			},
			{
				"x": 0.0099187085,
				"y": 3.4287064776,
				"z": 0.2070045716,
				"element": "C" 
			},
			{
				"x": 0.942712823,
				"y": 4.1031981641,
				"z": -0.2045353663,
				"element": "O" 
			},
			{
				"x": -1.0733002073,
				"y": 4.0437275219,
				"z": 1.0891017651,
				"element": "C" 
			},
			{
				"x": -2.4956591948,
				"y": 3.5755852819,
				"z": 0.7244178006,
				"element": "C" 
			},
			{
				"x": -3.5091019588,
				"y": 4.1250180701,
				"z": 1.7420205428,
				"element": "C" 
			},
			{
				"x": -2.8714644834,
				"y": 4.0769287916,
				"z": -0.684615252,
				"element": "C" 
			},
			{
				"x": -2.527331999,
				"y": 2.0259743142,
				"z": 0.7652843117,
				"element": "C" 
			},
			{
				"x": -1.812328887,
				"y": -3.5881036184,
				"z": 2.221930551,
				"element": "C" 
			},
			{
				"x": -0.5250342191,
				"y": -4.4108006681,
				"z": 2.2957829262,
				"element": "C" 
			},
			{
				"x": 3.0823628231,
				"y": -2.9915337219,
				"z": 3.9732648424,
				"element": "H" 
			},
			{
				"x": 3.0010535818,
				"y": -4.2900675954,
				"z": 5.1811467047,
				"element": "H" 
			},
			{
				"x": 1.9105407199,
				"y": -2.885384586,
				"z": 5.2937716278,
				"element": "H" 
			},
			{
				"x": -0.2581844396,
				"y": -1.8674878938,
				"z": 3.924939397,
				"element": "H" 
			},
			{
				"x": 1.3314741778,
				"y": -1.7430484293,
				"z": 3.1642089517,
				"element": "H" 
			},
			{
				"x": -0.3223816012,
				"y": -0.629914661,
				"z": 1.7818757808,
				"element": "H" 
			},
			{
				"x": 0.3754813899,
				"y": -2.0134960227,
				"z": 0.9324762501,
				"element": "H" 
			},
			{
				"x": -2.9798898773,
				"y": -2.8456033919,
				"z": 0.1117266319,
				"element": "H" 
			},
			{
				"x": -1.3609934059,
				"y": -2.5239438055,
				"z": -0.5241165002,
				"element": "H" 
			},
			{
				"x": -3.364509427,
				"y": -0.8709475072,
				"z": -0.9838275849,
				"element": "H" 
			},
			{
				"x": -3.113975278,
				"y": -0.3547134104,
				"z": 0.6786314511,
				"element": "H" 
			},
			{
				"x": 0.854956362,
				"y": 0.1768643744,
				"z": -0.1511720576,
				"element": "H" 
			},
			{
				"x": 3.0539952584,
				"y": 0.6018028647,
				"z": -2.4997693344,
				"element": "H" 
			},
			{
				"x": 5.4477638451,
				"y": 0.9034034908,
				"z": -2.0644405853,
				"element": "H" 
			},
			{
				"x": 4.5427701154,
				"y": 2.6240873178,
				"z": 1.7656460252,
				"element": "H" 
			},
			{
				"x": 2.1464697355,
				"y": 2.3019093335,
				"z": 1.3399462634,
				"element": "H" 
			},
			{
				"x": -2.6002669136,
				"y": -0.0965614484,
				"z": -3.2088686542,
				"element": "H" 
			},
			{
				"x": -2.0646292124,
				"y": -1.6580815107,
				"z": -2.6195649138,
				"element": "H" 
			},
			{
				"x": -0.34435336,
				"y": -2.9824762744,
				"z": -3.85760961,
				"element": "H" 
			},
			{
				"x": 0.8446546423,
				"y": -1.8262364983,
				"z": -3.2376474989,
				"element": "H" 
			},
			{
				"x": 0.7570107368,
				"y": -2.162653801,
				"z": -4.9714703033,
				"element": "H" 
			},
			{
				"x": -2.3581836923,
				"y": -2.2128144303,
				"z": -5.1808118824,
				"element": "H" 
			},
			{
				"x": -2.5625896195,
				"y": -0.5013520327,
				"z": -5.5948467172,
				"element": "H" 
			},
			{
				"x": -1.2602245493,
				"y": -1.4440620972,
				"z": -6.3349604881,
				"element": "H" 
			},
			{
				"x": 0.4990637937,
				"y": 0.3355793159,
				"z": -5.4457036498,
				"element": "H" 
			},
			{
				"x": -0.9197501308,
				"y": 1.1847013103,
				"z": -4.8555841563,
				"element": "H" 
			},
			{
				"x": -0.9790684894,
				"y": 5.1313044023,
				"z": 1.0186649205,
				"element": "H" 
			},
			{
				"x": -0.8546101376,
				"y": 3.7629372496,
				"z": 2.1304782498,
				"element": "H" 
			},
			{
				"x": -3.5182299652,
				"y": 5.2199366063,
				"z": 1.7268000928,
				"element": "H" 
			},
			{
				"x": -3.2659165846,
				"y": 3.805930723,
				"z": 2.7617336991,
				"element": "H" 
			},
			{
				"x": -4.5245901381,
				"y": 3.7808122682,
				"z": 1.5137293982,
				"element": "H" 
			},
			{
				"x": -2.1938025053,
				"y": 3.6899653462,
				"z": -1.4515490364,
				"element": "H" 
			},
			{
				"x": -3.8910182691,
				"y": 3.7722383755,
				"z": -0.9467418201,
				"element": "H" 
			},
			{
				"x": -2.8282465488,
				"y": 5.1700663492,
				"z": -0.7267551854,
				"element": "H" 
			},
			{
				"x": -3.4738966674,
				"y": 1.6879597951,
				"z": 0.3305122716,
				"element": "H" 
			},
			{
				"x": -2.5337732924,
				"y": 1.6982237002,
				"z": 1.8153919916,
				"element": "H" 
			},
			{
				"x": -2.5733511461,
				"y": -4.1541012,
				"z": 1.6772580757,
				"element": "H" 
			},
			{
				"x": -2.1961254802,
				"y": -3.4499619637,
				"z": 3.2418886848,
				"element": "H" 
			},
			{
				"x": -0.154684292,
				"y": -4.6446253795,
				"z": 1.2872385366,
				"element": "H" 
			},
			{
				"x": -0.6933033309,
				"y": -5.3642453411,
				"z": 2.8018725447,
				"element": "H" 
			}
		],
		 "valence_orbital": [ 
			{
				"type": "occ",
				"energy": -0.23994,
				"method": "rhf"
			},
			{
				"type": "occ",
				"energy": -0.23431,
				"method": "rhf"
			},
			{
				"type": "occ",
				"energy": -0.22824,
				"method": "rhf"
			},
			{
				"type": "occ",
				"energy": -0.22636,
				"method": "rhf"
			},
			{
				"type": "occ",
				"energy": -0.21108,
				"method": "rhf"
			},
			{
				"type": "unocc",
				"energy": -0.05319,
				"method": "rhf"
			},
			{
				"type": "unocc",
				"energy": -0.03555,
				"method": "rhf"
			},
			{
				"type": "unocc",
				"energy": 0.00579,
				"method": "rhf"
			},
			{
				"type": "unocc",
				"energy": 0.01019,
				"method": "rhf"
			},
			{
				"type": "unocc",
				"energy": 0.02762,
				"method": "rhf"
			}
		],
		"cosmo_sigma_profile": { 
			"-0.025": 0.0,
			"-0.024": 0.0,
			"-0.023": 0.0,
			"-0.022": 0.0,
			"-0.021": 0.0,
			"-0.02": 0.0,
			"-0.019": 0.0,
			"-0.018": 0.0,
			"-0.017": 0.0,
			"-0.016": 0.0,
			"-0.015": 0.0,
			"-0.014": 0.0,
			"-0.013": 0.0,
			"-0.012": 0.0,
			"-0.011": 0.0,
			"-0.01": 0.0,
			"-0.009": 0.0,
			"-0.008": 0.0,
			"-0.007": 2.8940785026,
			"-0.006": 19.5185141594,
			"-0.005": 43.6161583369,
			"-0.004": 65.5097279384,
			"-0.003": 89.3600923101,
			"-0.002": 63.98404436,
			"-0.001": 56.741015951,
			"0.0": 48.3277206725,
			"0.001": 39.5553139075,
			"0.002": 21.6917539641,
			"0.003": 18.6666207087,
			"0.004": 19.5774349692,
			"0.005": 20.2928492521,
			"0.006": 7.17005813702,
			"0.007": 5.46094693966,
			"0.008": 5.06046897733,
			"0.009": 5.38411802202,
			"0.01": 5.12750573698,
			"0.011": 5.96582119785,
			"0.012": 6.98911056878,
			"0.013": 11.7642540577,
			"0.014": 11.3617059128,
			"0.015": 4.15802347773,
			"0.016": 0.47160967283,
			"0.017": 0.0,
			"0.018": 0.0,
			"0.019": 0.0,
			"0.02": 0.0,
			"0.021": 0.0,
			"0.022": 0.0,
			"0.023": 0.0,
			"0.024": 0.0,
			"0.025": 0.0
		}
	}
}
