{
	 "smiles": "OC(=O)CONC(=O)C1=CC=CC=C1", 
	 "Tm": 413.15, 
	 "num_atms": 23, 
	 "gaussian": { 
		 "optdone": 1, 
		 "sigma_profile": "yes", 
		 "theory": "DFT", 
		 "functional": "B3LYP", 
		 "basiset": "6-31G**", 
		 "properties": { 
			 "R2extent": 3104.1344, 
			 "electric_dipole_moment_norm": 2.0733236578, 
			 "electric_quadrupole_moment_norm": 28.0612437691, 
			 "total_energy": -703.97761536, 
			 "HOMO_LUMO_gap": 0.20477, 
			 "cosmo_polarized_energy": -17.34, 
			 "cosmo_cavitation_energy": 28.05, 
			 "cosmo_dispersion_energy": -19.92, 
			 "cosmo_repulsion_energy": 1.58, 
			 "cosmo_total_nonelectrostatic_energy": 9.71, 
			 "SMD_solvation_energy": 7.3 
		},
		"coords": [
			{
				"x": -0.7771793031,
				"y": 0.9410145875,
				"z": 2.1770778195,
				"element": "O" 
			},
			{
				"x": 0.404106761,
				"y": 1.5767837431,
				"z": 2.2535462188,
				"element": "C" 
			},
			{
				"x": 0.9503101456,
				"y": 1.8241887285,
				"z": 3.2985452566,
				"element": "O" 
			},
			{
				"x": 1.0467298289,
				"y": 1.9366987467,
				"z": 0.9120384349,
				"element": "C" 
			},
			{
				"x": 0.0762772521,
				"y": 1.7830363881,
				"z": -0.1289045997,
				"element": "O" 
			},
			{
				"x": 0.6958159546,
				"y": 1.5366802889,
				"z": -1.3816998474,
				"element": "N" 
			},
			{
				"x": 0.0575846308,
				"y": 0.5998909798,
				"z": -2.2153033367,
				"element": "C" 
			},
			{
				"x": 0.0753940241,
				"y": 0.8034123685,
				"z": -3.4193074844,
				"element": "O" 
			},
			{
				"x": -0.5430245073,
				"y": -0.6213517549,
				"z": -1.6058457787,
				"element": "C" 
			},
			{
				"x": -1.5783712633,
				"y": -1.2408163769,
				"z": -2.3212279666,
				"element": "C" 
			},
			{
				"x": -2.1704225892,
				"y": -2.4032195032,
				"z": -1.8339037228,
				"element": "C" 
			},
			{
				"x": -1.7200367326,
				"y": -2.9690422164,
				"z": -0.6383397013,
				"element": "C" 
			},
			{
				"x": -0.671938313,
				"y": -2.3721922036,
				"z": 0.0659898667,
				"element": "C" 
			},
			{
				"x": -0.086526161,
				"y": -1.2003403939,
				"z": -0.4121207837,
				"element": "C" 
			},
			{
				"x": -1.0268732526,
				"y": 0.8594464327,
				"z": 1.238934197,
				"element": "H" 
			},
			{
				"x": 1.4150030791,
				"y": 2.9672599276,
				"z": 0.9641782842,
				"element": "H" 
			},
			{
				"x": 1.9000662278,
				"y": 1.2714898575,
				"z": 0.7390345892,
				"element": "H" 
			},
			{
				"x": 0.8041723596,
				"y": 2.4180193704,
				"z": -1.8820386204,
				"element": "H" 
			},
			{
				"x": -1.9022076419,
				"y": -0.7962211264,
				"z": -3.256222804,
				"element": "H" 
			},
			{
				"x": -2.9791265666,
				"y": -2.8708763532,
				"z": -2.3873448874,
				"element": "H" 
			},
			{
				"x": -2.1795269783,
				"y": -3.8772022866,
				"z": -0.259378397,
				"element": "H" 
			},
			{
				"x": -0.3079823596,
				"y": -2.8192176129,
				"z": 0.9859379682,
				"element": "H" 
			},
			{
				"x": 0.7468554048,
				"y": -0.7619415913,
				"z": 0.1247552953,
				"element": "H" 
			}
		],
		 "valence_orbital": [ 
			{
				"type": "occ",
				"energy": -0.29223,
				"method": "rhf"
			},
			{
				"type": "occ",
				"energy": -0.2871,
				"method": "rhf"
			},
			{
				"type": "occ",
				"energy": -0.27335,
				"method": "rhf"
			},
			{
				"type": "occ",
				"energy": -0.27234,
				"method": "rhf"
			},
			{
				"type": "occ",
				"energy": -0.26635,
				"method": "rhf"
			},
			{
				"type": "unocc",
				"energy": -0.06158,
				"method": "rhf"
			},
			{
				"type": "unocc",
				"energy": -0.02264,
				"method": "rhf"
			},
			{
				"type": "unocc",
				"energy": -0.00285,
				"method": "rhf"
			},
			{
				"type": "unocc",
				"energy": 0.02028,
				"method": "rhf"
			},
			{
				"type": "unocc",
				"energy": 0.05348,
				"method": "rhf"
			}
		],
		"cosmo_sigma_profile": { 
			"-0.025": 0.0,
			"-0.024": 0.0,
			"-0.023": 0.0,
			"-0.022": 0.0,
			"-0.021": 0.0,
			"-0.02": 0.0,
			"-0.019": 0.0,
			"-0.018": 0.0,
			"-0.017": 0.0,
			"-0.016": 0.0,
			"-0.015": 0.64201301765,
			"-0.014": 1.28616955985,
			"-0.013": 1.16800369302,
			"-0.012": 1.16086923585,
			"-0.011": 2.09087165376,
			"-0.01": 2.86078886833,
			"-0.009": 5.20120383719,
			"-0.008": 7.05798506917,
			"-0.007": 9.59343650733,
			"-0.006": 15.8768888367,
			"-0.005": 16.7136669708,
			"-0.004": 13.5612338214,
			"-0.003": 11.4303339648,
			"-0.002": 12.337896969,
			"-0.001": 10.8778749786,
			"0.0": 11.2234568663,
			"0.001": 13.4669465997,
			"0.002": 11.8598282372,
			"0.003": 15.2312528287,
			"0.004": 11.5176258427,
			"0.005": 4.02408391309,
			"0.006": 5.31999824525,
			"0.007": 4.04751896495,
			"0.008": 4.15730167822,
			"0.009": 6.19129670351,
			"0.01": 6.53386956203,
			"0.011": 8.66771327818,
			"0.012": 8.65435702892,
			"0.013": 1.25627088469,
			"0.014": 0.0,
			"0.015": 0.0,
			"0.016": 0.0,
			"0.017": 0.0,
			"0.018": 0.0,
			"0.019": 0.0,
			"0.02": 0.0,
			"0.021": 0.0,
			"0.022": 0.0,
			"0.023": 0.0,
			"0.024": 0.0,
			"0.025": 0.0
		}
	}
}
