{
	 "smiles": "CC1=CC(=C(C)C=C1Cl)S(N)(=O)=O", 
	 "Tm": 464.15, 
	 "num_atms": 23, 
	 "gaussian": { 
		 "optdone": 1, 
		 "sigma_profile": "yes", 
		 "theory": "DFT", 
		 "functional": "B3LYP", 
		 "basiset": "6-31G**", 
		 "properties": { 
			 "R2extent": 3631.1052, 
			 "electric_dipole_moment_norm": 2.97445051396, 
			 "electric_quadrupole_moment_norm": 12.3243037304, 
			 "total_energy": -1374.40451626, 
			 "HOMO_LUMO_gap": 0.21021, 
			 "cosmo_polarized_energy": -13.67, 
			 "cosmo_cavitation_energy": 29.12, 
			 "cosmo_dispersion_energy": -21.98, 
			 "cosmo_repulsion_energy": 1.69, 
			 "cosmo_total_nonelectrostatic_energy": 8.82, 
			 "SMD_solvation_energy": 4.53 
		},
		"coords": [
			{
				"x": -0.9591640656,
				"y": -0.9561154201,
				"z": -3.4056935991,
				"element": "C" 
			},
			{
				"x": -0.0920900566,
				"y": -0.6621159177,
				"z": -2.2096910831,
				"element": "C" 
			},
			{
				"x": -0.6280663224,
				"y": -0.6315854628,
				"z": -0.9176179446,
				"element": "C" 
			},
			{
				"x": 0.1615090006,
				"y": -0.3603721187,
				"z": 0.2000137979,
				"element": "C" 
			},
			{
				"x": 1.5399629857,
				"y": -0.0924737445,
				"z": 0.0888642025,
				"element": "C" 
			},
			{
				"x": 2.4351051621,
				"y": 0.2130554932,
				"z": 1.2634442381,
				"element": "C" 
			},
			{
				"x": 2.0760238133,
				"y": -0.1268328957,
				"z": -1.2019715857,
				"element": "C" 
			},
			{
				"x": 1.2807278454,
				"y": -0.4038728073,
				"z": -2.3133209069,
				"element": "C" 
			},
			{
				"x": 2.0528653172,
				"y": -0.4216785614,
				"z": -3.8932307287,
				"element": "Cl" 
			},
			{
				"x": -0.6926445841,
				"y": -0.3127560108,
				"z": 1.7802360409,
				"element": "S" 
			},
			{
				"x": 0.0509305563,
				"y": -1.5713945038,
				"z": 2.645279564,
				"element": "N" 
			},
			{
				"x": -2.095653177,
				"y": -0.6629875909,
				"z": 1.5316050095,
				"element": "O" 
			},
			{
				"x": -0.3381458162,
				"y": 0.9151549864,
				"z": 2.4988544835,
				"element": "O" 
			},
			{
				"x": -0.9446673201,
				"y": -0.1261436469,
				"z": -4.1200386011,
				"element": "H" 
			},
			{
				"x": -1.9936461699,
				"y": -1.1266488919,
				"z": -3.0991581364,
				"element": "H" 
			},
			{
				"x": -0.6081510854,
				"y": -1.8434570248,
				"z": -3.9431899448,
				"element": "H" 
			},
			{
				"x": -1.6860177289,
				"y": -0.8203543561,
				"z": -0.7719315692,
				"element": "H" 
			},
			{
				"x": 2.0783493847,
				"y": 1.0887195488,
				"z": 1.8118119922,
				"element": "H" 
			},
			{
				"x": 2.4478162144,
				"y": -0.6252427178,
				"z": 1.9672883592,
				"element": "H" 
			},
			{
				"x": 3.4574869934,
				"y": 0.3984510148,
				"z": 0.9264217196,
				"element": "H" 
			},
			{
				"x": 3.1332889986,
				"y": 0.0686224734,
				"z": -1.3456391349,
				"element": "H" 
			},
			{
				"x": 0.1602633032,
				"y": -1.2659174285,
				"z": 3.6098933161,
				"element": "H" 
			},
			{
				"x": -0.5215832488,
				"y": -2.4111544168,
				"z": 2.5954705111,
				"element": "H" 
			}
		],
		 "valence_orbital": [ 
			{
				"type": "occ",
				"energy": -0.31436,
				"method": "rhf"
			},
			{
				"type": "occ",
				"energy": -0.30769,
				"method": "rhf"
			},
			{
				"type": "occ",
				"energy": -0.29784,
				"method": "rhf"
			},
			{
				"type": "occ",
				"energy": -0.26505,
				"method": "rhf"
			},
			{
				"type": "occ",
				"energy": -0.25418,
				"method": "rhf"
			},
			{
				"type": "unocc",
				"energy": -0.04397,
				"method": "rhf"
			},
			{
				"type": "unocc",
				"energy": -0.02036,
				"method": "rhf"
			},
			{
				"type": "unocc",
				"energy": 0.02287,
				"method": "rhf"
			},
			{
				"type": "unocc",
				"energy": 0.05359,
				"method": "rhf"
			},
			{
				"type": "unocc",
				"energy": 0.07978,
				"method": "rhf"
			}
		],
		"cosmo_sigma_profile": { 
			"-0.025": 0.0,
			"-0.024": 0.0,
			"-0.023": 0.0,
			"-0.022": 0.0,
			"-0.021": 0.0,
			"-0.02": 0.0,
			"-0.019": 0.0,
			"-0.018": 0.0,
			"-0.017": 0.0,
			"-0.016": 0.00156576127026,
			"-0.015": 1.15829787268,
			"-0.014": 3.18753136679,
			"-0.013": 1.76307842508,
			"-0.012": 3.07397672363,
			"-0.011": 2.41489389316,
			"-0.01": 1.33210755164,
			"-0.009": 2.45147880048,
			"-0.008": 2.24125029905,
			"-0.007": 5.00882529813,
			"-0.006": 6.0612385237,
			"-0.005": 8.82263566102,
			"-0.004": 11.4814139108,
			"-0.003": 14.9775340164,
			"-0.002": 19.2857078098,
			"-0.001": 27.2924610761,
			"0.0": 21.9511923862,
			"0.001": 19.8581053625,
			"0.002": 20.1747057153,
			"0.003": 12.1690562034,
			"0.004": 10.0437471063,
			"0.005": 5.95316081588,
			"0.006": 3.07920774726,
			"0.007": 2.62345770333,
			"0.008": 4.70834845118,
			"0.009": 3.97889301127,
			"0.01": 6.54566512911,
			"0.011": 8.66975863332,
			"0.012": 2.87741659527,
			"0.013": 0.0,
			"0.014": 0.0,
			"0.015": 0.0,
			"0.016": 0.0,
			"0.017": 0.0,
			"0.018": 0.0,
			"0.019": 0.0,
			"0.02": 0.0,
			"0.021": 0.0,
			"0.022": 0.0,
			"0.023": 0.0,
			"0.024": 0.0,
			"0.025": 0.0
		}
	}
}
