{
	 "smiles": "NC1=C(C(O)=O)C(Br)=CC=C1Br", 
	 "Tm": 419.15, 
	 "num_atms": 17, 
	 "gaussian": { 
		 "optdone": 1, 
		 "sigma_profile": "yes", 
		 "theory": "DFT", 
		 "functional": "B3LYP", 
		 "basiset": "6-31G**", 
		 "properties": { 
			 "R2extent": 5164.9292, 
			 "electric_dipole_moment_norm": 3.16725553121, 
			 "electric_quadrupole_moment_norm": 7.27214606495, 
			 "total_energy": -5617.77858316, 
			 "HOMO_LUMO_gap": 0.16098, 
			 "cosmo_polarized_energy": -9.51, 
			 "cosmo_cavitation_energy": 25.18, 
			 "cosmo_dispersion_energy": -20.24, 
			 "cosmo_repulsion_energy": 1.58, 
			 "cosmo_total_nonelectrostatic_energy": 6.52, 
			 "SMD_solvation_energy": 3.08 
		},
		"coords": [
			{
				"x": -1.8317005398,
				"y": 2.2054481359,
				"z": 1.3343218796,
				"element": "N" 
			},
			{
				"x": -1.5532445322,
				"y": 1.4048987868,
				"z": 0.2833199549,
				"element": "C" 
			},
			{
				"x": -0.3412810881,
				"y": 0.6201826979,
				"z": 0.2185665307,
				"element": "C" 
			},
			{
				"x": 0.6230034831,
				"y": 0.7691288013,
				"z": 1.3633997627,
				"element": "C" 
			},
			{
				"x": 1.9143506127,
				"y": 0.4456795894,
				"z": 1.202636304,
				"element": "O" 
			},
			{
				"x": 0.2889397652,
				"y": 1.2251556915,
				"z": 2.4468664128,
				"element": "O" 
			},
			{
				"x": -0.1721970209,
				"y": -0.2074725333,
				"z": -0.9144586803,
				"element": "C" 
			},
			{
				"x": 1.3259300168,
				"y": -1.4104182064,
				"z": -1.1300607709,
				"element": "Br" 
			},
			{
				"x": -1.0792565444,
				"y": -0.2711611874,
				"z": -1.9599238111,
				"element": "C" 
			},
			{
				"x": -2.2250189591,
				"y": 0.5253909758,
				"z": -1.9070634356,
				"element": "C" 
			},
			{
				"x": -2.4523897866,
				"y": 1.3363739083,
				"z": -0.8168754084,
				"element": "C" 
			},
			{
				"x": -4.0508891026,
				"y": 2.3896415383,
				"z": -0.7839067693,
				"element": "Br" 
			},
			{
				"x": -2.7111886116,
				"y": 2.6957802947,
				"z": 1.3512968059,
				"element": "H" 
			},
			{
				"x": -1.2474407345,
				"y": 2.1133014989,
				"z": 2.1579259225,
				"element": "H" 
			},
			{
				"x": 2.0912433735,
				"y": 0.0495793181,
				"z": 0.3322364305,
				"element": "H" 
			},
			{
				"x": -0.9050996164,
				"y": -0.9284532343,
				"z": -2.8015331765,
				"element": "H" 
			},
			{
				"x": -2.9433607152,
				"y": 0.4971439247,
				"z": -2.7184479517,
				"element": "H" 
			}
		],
		 "valence_orbital": [ 
			{
				"type": "occ",
				"energy": -0.30949,
				"method": "rhf"
			},
			{
				"type": "occ",
				"energy": -0.30702,
				"method": "rhf"
			},
			{
				"type": "occ",
				"energy": -0.28445,
				"method": "rhf"
			},
			{
				"type": "occ",
				"energy": -0.26575,
				"method": "rhf"
			},
			{
				"type": "occ",
				"energy": -0.22382,
				"method": "rhf"
			},
			{
				"type": "unocc",
				"energy": -0.06284,
				"method": "rhf"
			},
			{
				"type": "unocc",
				"energy": -0.02796,
				"method": "rhf"
			},
			{
				"type": "unocc",
				"energy": -0.0165,
				"method": "rhf"
			},
			{
				"type": "unocc",
				"energy": -0.00772,
				"method": "rhf"
			},
			{
				"type": "unocc",
				"energy": 0.03501,
				"method": "rhf"
			}
		],
		"cosmo_sigma_profile": { 
			"-0.025": 0.0,
			"-0.024": 0.0,
			"-0.023": 0.0,
			"-0.022": 0.0,
			"-0.021": 0.0,
			"-0.02": 0.0,
			"-0.019": 0.0,
			"-0.018": 0.0,
			"-0.017": 0.0,
			"-0.016": 0.0,
			"-0.015": 0.0,
			"-0.014": 0.0,
			"-0.013": 0.0610952838188,
			"-0.012": 1.42829106907,
			"-0.011": 1.96216536167,
			"-0.01": 1.98612009443,
			"-0.009": 3.19112326324,
			"-0.008": 4.78240575979,
			"-0.007": 7.14131740915,
			"-0.006": 6.63206746652,
			"-0.005": 8.2579867506,
			"-0.004": 10.9380209682,
			"-0.003": 11.8976254481,
			"-0.002": 12.8583412903,
			"-0.001": 15.3555247812,
			"0.0": 23.8315695022,
			"0.001": 27.2966927724,
			"0.002": 22.4234873432,
			"0.003": 15.6021212466,
			"0.004": 8.28889058871,
			"0.005": 3.08968985929,
			"0.006": 3.08395090516,
			"0.007": 2.41193187031,
			"0.008": 2.51071998899,
			"0.009": 3.32537218615,
			"0.01": 3.68000883262,
			"0.011": 3.75254910701,
			"0.012": 2.25380447831,
			"0.013": 1.12431574028,
			"0.014": 0.00237001765538,
			"0.015": 0.0,
			"0.016": 0.0,
			"0.017": 0.0,
			"0.018": 0.0,
			"0.019": 0.0,
			"0.02": 0.0,
			"0.021": 0.0,
			"0.022": 0.0,
			"0.023": 0.0,
			"0.024": 0.0,
			"0.025": 0.0
		}
	}
}
