{
	 "smiles": "CN1N=C(C)C=C1NC(=O)NC1=CC(C)=NN1C", 
	 "Tm": 483.15, 
	 "num_atms": 34, 
	 "gaussian": { 
		 "optdone": 1, 
		 "sigma_profile": "yes", 
		 "theory": "DFT", 
		 "functional": "B3LYP", 
		 "basiset": "6-31G**", 
		 "properties": { 
			 "R2extent": 6597.7504, 
			 "electric_dipole_moment_norm": 3.9341744458, 
			 "electric_quadrupole_moment_norm": 12.6973862531, 
			 "total_energy": -832.539520727, 
			 "HOMO_LUMO_gap": 0.20265, 
			 "cosmo_polarized_energy": -20.24, 
			 "cosmo_cavitation_energy": 38.42, 
			 "cosmo_dispersion_energy": -26.45, 
			 "cosmo_repulsion_energy": 2.09, 
			 "cosmo_total_nonelectrostatic_energy": 14.06, 
			 "SMD_solvation_energy": 5.95 
		},
		"coords": [
			{
				"x": -3.1406160694,
				"y": 2.3859203404,
				"z": -2.4189515436,
				"element": "C" 
			},
			{
				"x": -1.8965312316,
				"y": 2.5266183846,
				"z": -1.6858549834,
				"element": "N" 
			},
			{
				"x": -0.8236689511,
				"y": 3.0930906791,
				"z": -2.2789722301,
				"element": "N" 
			},
			{
				"x": 0.1391384245,
				"y": 3.1037194418,
				"z": -1.3520713799,
				"element": "C" 
			},
			{
				"x": 1.4927056605,
				"y": 3.6602971879,
				"z": -1.6738267128,
				"element": "C" 
			},
			{
				"x": -0.3256654507,
				"y": 2.5572476894,
				"z": -0.1325722402,
				"element": "C" 
			},
			{
				"x": -1.6449272815,
				"y": 2.2008887321,
				"z": -0.3802959556,
				"element": "C" 
			},
			{
				"x": -2.6213923429,
				"y": 1.6076505911,
				"z": 0.4308703593,
				"element": "N" 
			},
			{
				"x": -2.5300933531,
				"y": 0.3751022017,
				"z": 1.0898696064,
				"element": "C" 
			},
			{
				"x": -3.3812053618,
				"y": 0.0320190852,
				"z": 1.8935723786,
				"element": "O" 
			},
			{
				"x": -1.4377883063,
				"y": -0.3838104527,
				"z": 0.72507819,
				"element": "N" 
			},
			{
				"x": -1.1646278331,
				"y": -1.6547296664,
				"z": 1.2343681639,
				"element": "C" 
			},
			{
				"x": -1.8118990967,
				"y": -2.4573723407,
				"z": 2.156302724,
				"element": "C" 
			},
			{
				"x": -1.0129911884,
				"y": -3.6271803742,
				"z": 2.2210043844,
				"element": "C" 
			},
			{
				"x": -1.2330470695,
				"y": -4.8471803139,
				"z": 3.0632946612,
				"element": "C" 
			},
			{
				"x": 0.0396410473,
				"y": -3.556083543,
				"z": 1.4083795651,
				"element": "N" 
			},
			{
				"x": -0.0628359318,
				"y": -2.3353388991,
				"z": 0.804422988,
				"element": "N" 
			},
			{
				"x": 0.9261943012,
				"y": -1.9270858068,
				"z": -0.1684641565,
				"element": "C" 
			},
			{
				"x": -2.9128391337,
				"y": 2.0548759535,
				"z": -3.4331687781,
				"element": "H" 
			},
			{
				"x": -3.7631404264,
				"y": 1.6440261343,
				"z": -1.9169056657,
				"element": "H" 
			},
			{
				"x": -3.6783297903,
				"y": 3.3385038075,
				"z": -2.4690421519,
				"element": "H" 
			},
			{
				"x": 1.7496287879,
				"y": 4.4951459984,
				"z": -1.0126616187,
				"element": "H" 
			},
			{
				"x": 1.506509546,
				"y": 4.0203032268,
				"z": -2.7048186264,
				"element": "H" 
			},
			{
				"x": 2.2766812596,
				"y": 2.9029615298,
				"z": -1.5620557,
				"element": "H" 
			},
			{
				"x": 0.2017637458,
				"y": 2.4595176023,
				"z": 0.805280047,
				"element": "H" 
			},
			{
				"x": -3.3765557253,
				"y": 2.1720140008,
				"z": 0.7981867906,
				"element": "H" 
			},
			{
				"x": -0.7748661113,
				"y": 0.0271135345,
				"z": 0.0819653823,
				"element": "H" 
			},
			{
				"x": -2.7165960513,
				"y": -2.2167115833,
				"z": 2.687671152,
				"element": "H" 
			},
			{
				"x": -2.1928640546,
				"y": -5.3236777003,
				"z": 2.8340124516,
				"element": "H" 
			},
			{
				"x": -0.4358691356,
				"y": -5.5715953365,
				"z": 2.8813479297,
				"element": "H" 
			},
			{
				"x": -1.2396115975,
				"y": -4.6004870918,
				"z": 4.1309869442,
				"element": "H" 
			},
			{
				"x": 0.4788954593,
				"y": -1.7644586847,
				"z": -1.1567675212,
				"element": "H" 
			},
			{
				"x": 1.6501047682,
				"y": -2.7380014548,
				"z": -0.2393813989,
				"element": "H" 
			},
			{
				"x": 1.4487984937,
				"y": -1.0143028726,
				"z": 0.1433969448,
				"element": "H" 
			}
		],
		 "valence_orbital": [ 
			{
				"type": "occ",
				"energy": -0.27069,
				"method": "rhf"
			},
			{
				"type": "occ",
				"energy": -0.2547,
				"method": "rhf"
			},
			{
				"type": "occ",
				"energy": -0.24752,
				"method": "rhf"
			},
			{
				"type": "occ",
				"energy": -0.22693,
				"method": "rhf"
			},
			{
				"type": "occ",
				"energy": -0.2059,
				"method": "rhf"
			},
			{
				"type": "unocc",
				"energy": -0.00325,
				"method": "rhf"
			},
			{
				"type": "unocc",
				"energy": 0.02109,
				"method": "rhf"
			},
			{
				"type": "unocc",
				"energy": 0.04423,
				"method": "rhf"
			},
			{
				"type": "unocc",
				"energy": 0.06317,
				"method": "rhf"
			},
			{
				"type": "unocc",
				"energy": 0.07354,
				"method": "rhf"
			}
		],
		"cosmo_sigma_profile": { 
			"-0.025": 0.0,
			"-0.024": 0.0,
			"-0.023": 0.0,
			"-0.022": 0.0,
			"-0.021": 0.0,
			"-0.02": 0.0,
			"-0.019": 0.0,
			"-0.018": 0.0,
			"-0.017": 0.0,
			"-0.016": 0.0288607123429,
			"-0.015": 0.901536249009,
			"-0.014": 1.19260831649,
			"-0.013": 0.699721625706,
			"-0.012": 1.35213456653,
			"-0.011": 1.66533376003,
			"-0.01": 2.4468673048,
			"-0.009": 3.18408792275,
			"-0.008": 3.12950726241,
			"-0.007": 6.12438825753,
			"-0.006": 15.3400543835,
			"-0.005": 19.5455355109,
			"-0.004": 27.8379371043,
			"-0.003": 31.1438174551,
			"-0.002": 27.7471294184,
			"-0.001": 25.6593717688,
			"0.0": 24.996835939,
			"0.001": 15.323522747,
			"0.002": 11.7259073635,
			"0.003": 10.4721541327,
			"0.004": 11.9376248029,
			"0.005": 11.5159112237,
			"0.006": 10.2202549187,
			"0.007": 6.73192529462,
			"0.008": 3.73896187369,
			"0.009": 5.50122077,
			"0.01": 3.34141667739,
			"0.011": 4.32443664023,
			"0.012": 4.68622672188,
			"0.013": 5.77725427619,
			"0.014": 2.85209209749,
			"0.015": 2.10579693301,
			"0.016": 1.17244534294,
			"0.017": 0.12853299647,
			"0.018": 0.0,
			"0.019": 0.0,
			"0.02": 0.0,
			"0.021": 0.0,
			"0.022": 0.0,
			"0.023": 0.0,
			"0.024": 0.0,
			"0.025": 0.0
		}
	}
}
