{
	 "smiles": "SC1=NN=C(O1)C1=CNC2=C1C=CC=C2", 
	 "Tm": 495.15, 
	 "num_atms": 22, 
	 "gaussian": { 
		 "optdone": 1, 
		 "sigma_profile": "yes", 
		 "theory": "DFT", 
		 "functional": "B3LYP", 
		 "basiset": "6-31G**", 
		 "properties": { 
			 "R2extent": 5151.0913, 
			 "electric_dipole_moment_norm": 4.97942890199, 
			 "electric_quadrupole_moment_norm": 21.8802308946, 
			 "total_energy": -1022.91489833, 
			 "HOMO_LUMO_gap": 0.17107, 
			 "cosmo_polarized_energy": -17.74, 
			 "cosmo_cavitation_energy": 29.13, 
			 "cosmo_dispersion_energy": -22.13, 
			 "cosmo_repulsion_energy": 1.66, 
			 "cosmo_total_nonelectrostatic_energy": 8.66, 
			 "SMD_solvation_energy": 2.73 
		},
		"coords": [
			{
				"x": -2.8974093432,
				"y": -0.9010437882,
				"z": -5.0662457251,
				"element": "S" 
			},
			{
				"x": -1.7806261213,
				"y": -0.0740052727,
				"z": -3.9891936214,
				"element": "C" 
			},
			{
				"x": -1.1534639412,
				"y": 1.030887575,
				"z": -4.2266766861,
				"element": "N" 
			},
			{
				"x": -0.3889656111,
				"y": 1.2909859089,
				"z": -3.0858774666,
				"element": "N" 
			},
			{
				"x": -0.6162531664,
				"y": 0.3204755471,
				"z": -2.2487447998,
				"element": "C" 
			},
			{
				"x": -1.5048158315,
				"y": -0.6004009297,
				"z": -2.7604906391,
				"element": "O" 
			},
			{
				"x": -0.0744136384,
				"y": 0.1170041338,
				"z": -0.9294016411,
				"element": "C" 
			},
			{
				"x": 0.8213034119,
				"y": 0.9783420042,
				"z": -0.3273191841,
				"element": "C" 
			},
			{
				"x": 1.1410569322,
				"y": 0.5051240562,
				"z": 0.9173515828,
				"element": "N" 
			},
			{
				"x": 0.4612562084,
				"y": -0.6773979057,
				"z": 1.1577625881,
				"element": "C" 
			},
			{
				"x": -0.3225494791,
				"y": -0.9579598192,
				"z": 0.0067122188,
				"element": "C" 
			},
			{
				"x": -1.1168254802,
				"y": -2.117536909,
				"z": -0.0052802301,
				"element": "C" 
			},
			{
				"x": -1.1075539293,
				"y": -2.9481030704,
				"z": 1.1083115184,
				"element": "C" 
			},
			{
				"x": -0.321527588,
				"y": -2.6492091612,
				"z": 2.2395891783,
				"element": "C" 
			},
			{
				"x": 0.4736954167,
				"y": -1.5101974498,
				"z": 2.2804340712,
				"element": "C" 
			},
			{
				"x": -3.1411527068,
				"y": -1.9134526109,
				"z": -4.2126279341,
				"element": "H" 
			},
			{
				"x": 1.2434748326,
				"y": 1.8934452223,
				"z": -0.7149864559,
				"element": "H" 
			},
			{
				"x": 1.7759829003,
				"y": 0.9534369371,
				"z": 1.5582552191,
				"element": "H" 
			},
			{
				"x": -1.7248308977,
				"y": -2.3561319966,
				"z": -0.8705867275,
				"element": "H" 
			},
			{
				"x": -1.7174051554,
				"y": -3.8466069116,
				"z": 1.1098942186,
				"element": "H" 
			},
			{
				"x": -0.3372595591,
				"y": -3.3196726073,
				"z": 3.0935031662,
				"element": "H" 
			},
			{
				"x": 1.0806827466,
				"y": -1.2766829521,
				"z": 3.1504173494,
				"element": "H" 
			}
		],
		 "valence_orbital": [ 
			{
				"type": "occ",
				"energy": -0.29185,
				"method": "rhf"
			},
			{
				"type": "occ",
				"energy": -0.27348,
				"method": "rhf"
			},
			{
				"type": "occ",
				"energy": -0.25093,
				"method": "rhf"
			},
			{
				"type": "occ",
				"energy": -0.2368,
				"method": "rhf"
			},
			{
				"type": "occ",
				"energy": -0.20686,
				"method": "rhf"
			},
			{
				"type": "unocc",
				"energy": -0.03579,
				"method": "rhf"
			},
			{
				"type": "unocc",
				"energy": -0.00762,
				"method": "rhf"
			},
			{
				"type": "unocc",
				"energy": 5e-05,
				"method": "rhf"
			},
			{
				"type": "unocc",
				"energy": 0.01563,
				"method": "rhf"
			},
			{
				"type": "unocc",
				"energy": 0.02605,
				"method": "rhf"
			}
		],
		"cosmo_sigma_profile": { 
			"-0.025": 0.0,
			"-0.024": 0.0,
			"-0.023": 0.0,
			"-0.022": 0.0,
			"-0.021": 0.0,
			"-0.02": 0.0,
			"-0.019": 0.0,
			"-0.018": 0.0,
			"-0.017": 0.426384294323,
			"-0.016": 1.79901172149,
			"-0.015": 1.91531425319,
			"-0.014": 0.869777750183,
			"-0.013": 2.952229554,
			"-0.012": 2.72947779211,
			"-0.011": 3.20347064933,
			"-0.01": 3.29724782061,
			"-0.009": 4.1789606458,
			"-0.008": 4.30596436494,
			"-0.007": 5.78775891064,
			"-0.006": 5.92634152629,
			"-0.005": 9.83063872194,
			"-0.004": 12.5717525268,
			"-0.003": 14.1019220887,
			"-0.002": 13.7030607589,
			"-0.001": 13.7492607821,
			"0.0": 17.0981917882,
			"0.001": 19.149964961,
			"0.002": 21.4669886723,
			"0.003": 18.3691651725,
			"0.004": 14.8607333784,
			"0.005": 14.0560908762,
			"0.006": 9.13357835898,
			"0.007": 2.47954578975,
			"0.008": 2.60485431066,
			"0.009": 2.34215144279,
			"0.01": 2.01403931381,
			"0.011": 3.28550673239,
			"0.012": 3.28241744407,
			"0.013": 2.85161596999,
			"0.014": 2.27052270319,
			"0.015": 1.3315775694,
			"0.016": 0.0,
			"0.017": 0.0,
			"0.018": 0.0,
			"0.019": 0.0,
			"0.02": 0.0,
			"0.021": 0.0,
			"0.022": 0.0,
			"0.023": 0.0,
			"0.024": 0.0,
			"0.025": 0.0
		}
	}
}
