{
	 "smiles": "ClS(=O)(=O)C1=C(C=CO1)C1OCCO1", 
	 "Tm": 309.65, 
	 "num_atms": 21, 
	 "gaussian": { 
		 "optdone": 1, 
		 "sigma_profile": "yes", 
		 "theory": "DFT", 
		 "functional": "B3LYP", 
		 "basiset": "6-31G**", 
		 "properties": { 
			 "R2extent": 4012.3999, 
			 "electric_dipole_moment_norm": 5.68617623452, 
			 "electric_quadrupole_moment_norm": 15.5111358814, 
			 "total_energy": -1505.3219061, 
			 "HOMO_LUMO_gap": 0.18007, 
			 "cosmo_polarized_energy": -12.26, 
			 "cosmo_cavitation_energy": 28.94, 
			 "cosmo_dispersion_energy": -21.53, 
			 "cosmo_repulsion_energy": 1.67, 
			 "cosmo_total_nonelectrostatic_energy": 9.08, 
			 "SMD_solvation_energy": 4.68 
		},
		"coords": [
			{
				"x": -0.4439668795,
				"y": 2.9001380259,
				"z": 1.8709990155,
				"element": "Cl" 
			},
			{
				"x": 1.2432707512,
				"y": 1.8080543569,
				"z": 1.1766464594,
				"element": "S" 
			},
			{
				"x": 1.1078262046,
				"y": 0.4578965382,
				"z": 1.7069721015,
				"element": "O" 
			},
			{
				"x": 2.4009494722,
				"y": 2.6484044141,
				"z": 1.4339117407,
				"element": "O" 
			},
			{
				"x": 0.9267190632,
				"y": 1.7321387745,
				"z": -0.5486782728,
				"element": "C" 
			},
			{
				"x": 0.5042215936,
				"y": 0.7175008331,
				"z": -1.3705611232,
				"element": "C" 
			},
			{
				"x": 0.4241868268,
				"y": 1.3088815572,
				"z": -2.669723318,
				"element": "C" 
			},
			{
				"x": 0.7851569726,
				"y": 2.6148255499,
				"z": -2.5272647939,
				"element": "C" 
			},
			{
				"x": 1.0954626301,
				"y": 2.89252368,
				"z": -1.2339455539,
				"element": "O" 
			},
			{
				"x": 0.2305821437,
				"y": -0.7228460328,
				"z": -1.0442196826,
				"element": "C" 
			},
			{
				"x": 1.3980479829,
				"y": -1.4846570893,
				"z": -1.2762070854,
				"element": "O" 
			},
			{
				"x": 0.9125232424,
				"y": -2.8059690537,
				"z": -1.4978219299,
				"element": "C" 
			},
			{
				"x": -0.3851122913,
				"y": -2.5647092717,
				"z": -2.2885540375,
				"element": "C" 
			},
			{
				"x": -0.7646619936,
				"y": -1.2302513449,
				"z": -1.9270951007,
				"element": "O" 
			},
			{
				"x": 0.1184248141,
				"y": 0.8055245118,
				"z": -3.5737362223,
				"element": "H" 
			},
			{
				"x": 0.8734439513,
				"y": 3.4425973589,
				"z": -3.2136903385,
				"element": "H" 
			},
			{
				"x": -0.100261644,
				"y": -0.8400667253,
				"z": -0.0025951496,
				"element": "H" 
			},
			{
				"x": 1.6736200665,
				"y": -3.3641231321,
				"z": -2.0465726509,
				"element": "H" 
			},
			{
				"x": 0.7107981573,
				"y": -3.3104161935,
				"z": -0.5416472144,
				"element": "H" 
			},
			{
				"x": -1.1813228672,
				"y": -3.2667901838,
				"z": -2.018746187,
				"element": "H" 
			},
			{
				"x": -0.2238081967,
				"y": -2.6081565734,
				"z": -3.3719706563,
				"element": "H" 
			}
		],
		 "valence_orbital": [ 
			{
				"type": "occ",
				"energy": -0.31715,
				"method": "rhf"
			},
			{
				"type": "occ",
				"energy": -0.31542,
				"method": "rhf"
			},
			{
				"type": "occ",
				"energy": -0.28845,
				"method": "rhf"
			},
			{
				"type": "occ",
				"energy": -0.2771,
				"method": "rhf"
			},
			{
				"type": "occ",
				"energy": -0.27152,
				"method": "rhf"
			},
			{
				"type": "unocc",
				"energy": -0.09145,
				"method": "rhf"
			},
			{
				"type": "unocc",
				"energy": -0.0374,
				"method": "rhf"
			},
			{
				"type": "unocc",
				"energy": 0.02073,
				"method": "rhf"
			},
			{
				"type": "unocc",
				"energy": 0.0464,
				"method": "rhf"
			},
			{
				"type": "unocc",
				"energy": 0.07018,
				"method": "rhf"
			}
		],
		"cosmo_sigma_profile": { 
			"-0.025": 0.0,
			"-0.024": 0.0,
			"-0.023": 0.0,
			"-0.022": 0.0,
			"-0.021": 0.0,
			"-0.02": 0.0,
			"-0.019": 0.0,
			"-0.018": 0.0,
			"-0.017": 0.0,
			"-0.016": 0.0,
			"-0.015": 0.0,
			"-0.014": 0.0,
			"-0.013": 0.0,
			"-0.012": 0.144118098735,
			"-0.011": 2.18585118275,
			"-0.01": 1.92260619966,
			"-0.009": 2.98332596321,
			"-0.008": 2.80702308651,
			"-0.007": 6.36071336285,
			"-0.006": 15.5079528027,
			"-0.005": 20.2983804072,
			"-0.004": 14.0721222485,
			"-0.003": 14.2181149314,
			"-0.002": 16.6184639384,
			"-0.001": 16.4951373684,
			"0.0": 14.1803824755,
			"0.001": 15.119307259,
			"0.002": 17.727138368,
			"0.003": 18.5875349032,
			"0.004": 9.85413244878,
			"0.005": 6.12640990949,
			"0.006": 7.32560511654,
			"0.007": 11.8555689045,
			"0.008": 10.699410057,
			"0.009": 3.12286536364,
			"0.01": 2.13416510507,
			"0.011": 2.78643768953,
			"0.012": 1.03018203806,
			"0.013": 0.0196312601771,
			"0.014": 0.0,
			"0.015": 0.0,
			"0.016": 0.0,
			"0.017": 0.0,
			"0.018": 0.0,
			"0.019": 0.0,
			"0.02": 0.0,
			"0.021": 0.0,
			"0.022": 0.0,
			"0.023": 0.0,
			"0.024": 0.0,
			"0.025": 0.0
		}
	}
}
