{
	 "smiles": "CC1=C(C)C(C)=C2C(=O)NSC2=N1", 
	 "Tm": 510.15, 
	 "num_atms": 23, 
	 "gaussian": { 
		 "optdone": 1, 
		 "sigma_profile": "yes", 
		 "theory": "DFT", 
		 "functional": "B3LYP", 
		 "basiset": "6-31G**", 
		 "properties": { 
			 "R2extent": 4140.1949, 
			 "electric_dipole_moment_norm": 2.14512607788, 
			 "electric_quadrupole_moment_norm": 8.68262845629, 
			 "total_energy": -931.914307141, 
			 "HOMO_LUMO_gap": 0.17081, 
			 "cosmo_polarized_energy": -11.54, 
			 "cosmo_cavitation_energy": 27.48, 
			 "cosmo_dispersion_energy": -21.03, 
			 "cosmo_repulsion_energy": 1.6, 
			 "cosmo_total_nonelectrostatic_energy": 8.05, 
			 "SMD_solvation_energy": 3.24 
		},
		"coords": [
			{
				"x": 1.5178254143,
				"y": 2.3748679227,
				"z": -1.5347151447,
				"element": "C" 
			},
			{
				"x": 0.2568678487,
				"y": 1.8434262321,
				"z": -0.8932325665,
				"element": "C" 
			},
			{
				"x": 0.1918214135,
				"y": 0.5475143637,
				"z": -0.3157276247,
				"element": "C" 
			},
			{
				"x": 1.4034543765,
				"y": -0.3606552545,
				"z": -0.3231735624,
				"element": "C" 
			},
			{
				"x": -1.0167131841,
				"y": 0.1183282095,
				"z": 0.2645918108,
				"element": "C" 
			},
			{
				"x": -1.1898582018,
				"y": -1.2366032525,
				"z": 0.9030273294,
				"element": "C" 
			},
			{
				"x": -2.0993339044,
				"y": 1.0154445115,
				"z": 0.2342847399,
				"element": "C" 
			},
			{
				"x": -3.4645433336,
				"y": 0.8230665189,
				"z": 0.7640861527,
				"element": "C" 
			},
			{
				"x": -3.9435758519,
				"y": -0.1485763029,
				"z": 1.3377578766,
				"element": "O" 
			},
			{
				"x": -4.1778083623,
				"y": 1.9829256366,
				"z": 0.4995411228,
				"element": "N" 
			},
			{
				"x": -3.360364709,
				"y": 3.2706498397,
				"z": -0.3208235672,
				"element": "S" 
			},
			{
				"x": -1.905715735,
				"y": 2.2612342965,
				"z": -0.3638748487,
				"element": "C" 
			},
			{
				"x": -0.7830846125,
				"y": 2.6938725342,
				"z": -0.9174103273,
				"element": "N" 
			},
			{
				"x": 2.3498955407,
				"y": 2.4159323681,
				"z": -0.8228306448,
				"element": "H" 
			},
			{
				"x": 1.8402698986,
				"y": 1.75053502,
				"z": -2.3755753609,
				"element": "H" 
			},
			{
				"x": 1.3256605615,
				"y": 3.3827650394,
				"z": -1.9036083496,
				"element": "H" 
			},
			{
				"x": 1.200896942,
				"y": -1.2962249001,
				"z": -0.8566072478,
				"element": "H" 
			},
			{
				"x": 2.26143279,
				"y": 0.1069564387,
				"z": -0.8050296014,
				"element": "H" 
			},
			{
				"x": 1.7090859821,
				"y": -0.6310101053,
				"z": 0.6938635563,
				"element": "H" 
			},
			{
				"x": -0.2802096325,
				"y": -1.8346294071,
				"z": 0.8613369828,
				"element": "H" 
			},
			{
				"x": -2.0003791697,
				"y": -1.7867841409,
				"z": 0.4161630642,
				"element": "H" 
			},
			{
				"x": -1.4980824974,
				"y": -1.1295344964,
				"z": 1.9471683736,
				"element": "H" 
			},
			{
				"x": -5.1448415741,
				"y": 2.074698928,
				"z": 0.7766878367,
				"element": "H" 
			}
		],
		 "valence_orbital": [ 
			{
				"type": "occ",
				"energy": -0.27852,
				"method": "rhf"
			},
			{
				"type": "occ",
				"energy": -0.27786,
				"method": "rhf"
			},
			{
				"type": "occ",
				"energy": -0.26218,
				"method": "rhf"
			},
			{
				"type": "occ",
				"energy": -0.25018,
				"method": "rhf"
			},
			{
				"type": "occ",
				"energy": -0.21607,
				"method": "rhf"
			},
			{
				"type": "unocc",
				"energy": -0.04526,
				"method": "rhf"
			},
			{
				"type": "unocc",
				"energy": -0.02383,
				"method": "rhf"
			},
			{
				"type": "unocc",
				"energy": -0.02076,
				"method": "rhf"
			},
			{
				"type": "unocc",
				"energy": 0.05416,
				"method": "rhf"
			},
			{
				"type": "unocc",
				"energy": 0.07386,
				"method": "rhf"
			}
		],
		"cosmo_sigma_profile": { 
			"-0.025": 0.0,
			"-0.024": 0.0,
			"-0.023": 0.0,
			"-0.022": 0.0,
			"-0.021": 0.0,
			"-0.02": 0.0,
			"-0.019": 0.0,
			"-0.018": 0.0,
			"-0.017": 0.234631408386,
			"-0.016": 1.33555100836,
			"-0.015": 1.31830936612,
			"-0.014": 1.21241132718,
			"-0.013": 0.844721312794,
			"-0.012": 0.919193680735,
			"-0.011": 1.25510751595,
			"-0.01": 0.801115373227,
			"-0.009": 0.824184450476,
			"-0.008": 0.746659393672,
			"-0.007": 0.984784895032,
			"-0.006": 1.15205800979,
			"-0.005": 9.01059983549,
			"-0.004": 21.2141915437,
			"-0.003": 19.1681039417,
			"-0.002": 21.5848549069,
			"-0.001": 31.828591154,
			"0.0": 27.1872883777,
			"0.001": 20.2479706732,
			"0.002": 13.1333717451,
			"0.003": 7.04270990493,
			"0.004": 6.43812557698,
			"0.005": 5.54016986742,
			"0.006": 3.12908321838,
			"0.007": 2.57381790487,
			"0.008": 2.92379041932,
			"0.009": 1.80261178218,
			"0.01": 2.42663125738,
			"0.011": 2.86185247125,
			"0.012": 2.76239282916,
			"0.013": 5.16697392159,
			"0.014": 2.79676623334,
			"0.015": 0.0795137326819,
			"0.016": 0.0,
			"0.017": 0.0,
			"0.018": 0.0,
			"0.019": 0.0,
			"0.02": 0.0,
			"0.021": 0.0,
			"0.022": 0.0,
			"0.023": 0.0,
			"0.024": 0.0,
			"0.025": 0.0
		}
	}
}
