{
	 "smiles": "CC(=O)NC1=CC=C(C=C1)C(=C/C1=CC=CC=C1NC(C)=O)C(O)=O", 
	 "Tm": 513.15, 
	 "num_atms": 43, 
	 "gaussian": { 
		 "optdone": 1, 
		 "sigma_profile": "yes", 
		 "theory": "DFT", 
		 "functional": "B3LYP", 
		 "basiset": "6-31G**", 
		 "properties": { 
			 "R2extent": 9454.9912, 
			 "electric_dipole_moment_norm": 5.62197458194, 
			 "electric_quadrupole_moment_norm": 30.7809803445, 
			 "total_energy": -1145.30518865, 
			 "HOMO_LUMO_gap": 0.15708, 
			 "cosmo_polarized_energy": -27.93, 
			 "cosmo_cavitation_energy": 47.08, 
			 "cosmo_dispersion_energy": -30.84, 
			 "cosmo_repulsion_energy": 2.35, 
			 "cosmo_total_nonelectrostatic_energy": 18.58, 
			 "SMD_solvation_energy": 10.33 
		},
		"coords": [
			{
				"x": 3.1255543312,
				"y": -3.7147023461,
				"z": -4.0018998997,
				"element": "C" 
			},
			{
				"x": 2.9486930202,
				"y": -2.4780734959,
				"z": -3.1322610005,
				"element": "C" 
			},
			{
				"x": 3.869353643,
				"y": -1.7215698341,
				"z": -2.8660372584,
				"element": "O" 
			},
			{
				"x": 1.6528111971,
				"y": -2.3032852264,
				"z": -2.6785612018,
				"element": "N" 
			},
			{
				"x": 1.1319572947,
				"y": -1.2875657797,
				"z": -1.8571514849,
				"element": "C" 
			},
			{
				"x": -0.2310629812,
				"y": -1.3552146371,
				"z": -1.5278062185,
				"element": "C" 
			},
			{
				"x": -0.8158801593,
				"y": -0.3860296624,
				"z": -0.7212170721,
				"element": "C" 
			},
			{
				"x": -0.0576773909,
				"y": 0.683982247,
				"z": -0.2084045892,
				"element": "C" 
			},
			{
				"x": 1.3044615638,
				"y": 0.7406763996,
				"z": -0.5516083506,
				"element": "C" 
			},
			{
				"x": 1.9025730816,
				"y": -0.2216535735,
				"z": -1.3596734173,
				"element": "C" 
			},
			{
				"x": -0.6750674147,
				"y": 1.7352057345,
				"z": 0.644113749,
				"element": "C" 
			},
			{
				"x": -0.1977050384,
				"y": 2.1618291908,
				"z": 1.8364377786,
				"element": "C" 
			},
			{
				"x": 0.943948989,
				"y": 1.6685565552,
				"z": 2.6313179539,
				"element": "C" 
			},
			{
				"x": 1.8457531344,
				"y": 2.6259217962,
				"z": 3.1283918238,
				"element": "C" 
			},
			{
				"x": 2.9583574433,
				"y": 2.2642211528,
				"z": 3.881101583,
				"element": "C" 
			},
			{
				"x": 3.154362494,
				"y": 0.9202122597,
				"z": 4.2017605466,
				"element": "C" 
			},
			{
				"x": 2.2398033673,
				"y": -0.0417813108,
				"z": 3.7806318542,
				"element": "C" 
			},
			{
				"x": 1.1411805421,
				"y": 0.3076967835,
				"z": 2.9812688352,
				"element": "C" 
			},
			{
				"x": 0.1718150995,
				"y": -0.6417011731,
				"z": 2.6072119916,
				"element": "N" 
			},
			{
				"x": 0.267626571,
				"y": -1.9601970096,
				"z": 2.1903229754,
				"element": "C" 
			},
			{
				"x": 1.635570336,
				"y": -2.6077130689,
				"z": 2.0942737396,
				"element": "C" 
			},
			{
				"x": -0.7532897849,
				"y": -2.5638819222,
				"z": 1.8893738557,
				"element": "O" 
			},
			{
				"x": -1.8786849485,
				"y": 2.4974970041,
				"z": 0.1271522301,
				"element": "C" 
			},
			{
				"x": -2.2184428231,
				"y": 2.2773964012,
				"z": -1.1648946881,
				"element": "O" 
			},
			{
				"x": -2.514616076,
				"y": 3.2803219854,
				"z": 0.7964062513,
				"element": "O" 
			},
			{
				"x": 2.4708469995,
				"y": -3.679080733,
				"z": -4.8795140468,
				"element": "H" 
			},
			{
				"x": 2.8887138428,
				"y": -4.626301526,
				"z": -3.4421456465,
				"element": "H" 
			},
			{
				"x": 4.1630750744,
				"y": -3.757730858,
				"z": -4.3309312659,
				"element": "H" 
			},
			{
				"x": 0.9837899242,
				"y": -3.0048993897,
				"z": -2.9638062821,
				"element": "H" 
			},
			{
				"x": -0.8363426914,
				"y": -2.1824127669,
				"z": -1.890223711,
				"element": "H" 
			},
			{
				"x": -1.8648444505,
				"y": -0.4846148699,
				"z": -0.4578906816,
				"element": "H" 
			},
			{
				"x": 1.9081967385,
				"y": 1.5629146727,
				"z": -0.1810867839,
				"element": "H" 
			},
			{
				"x": 2.9499546673,
				"y": -0.1599706702,
				"z": -1.6180870445,
				"element": "H" 
			},
			{
				"x": -0.7150707362,
				"y": 3.0274097434,
				"z": 2.2485336133,
				"element": "H" 
			},
			{
				"x": 1.6710871619,
				"y": 3.6715037932,
				"z": 2.8892377107,
				"element": "H" 
			},
			{
				"x": 3.6527581826,
				"y": 3.0224462949,
				"z": 4.2287187951,
				"element": "H" 
			},
			{
				"x": 3.9996632823,
				"y": 0.6198859232,
				"z": 4.8137756835,
				"element": "H" 
			},
			{
				"x": 2.3569510845,
				"y": -1.0679730932,
				"z": 4.1057428799,
				"element": "H" 
			},
			{
				"x": -0.7683789876,
				"y": -0.2859581236,
				"z": 2.478585219,
				"element": "H" 
			},
			{
				"x": 1.9182075173,
				"y": -3.0493572442,
				"z": 3.0557853299,
				"element": "H" 
			},
			{
				"x": 1.5559575638,
				"y": -3.4165597231,
				"z": 1.3673712109,
				"element": "H" 
			},
			{
				"x": 2.418339873,
				"y": -1.9088079336,
				"z": 1.7927574287,
				"element": "H" 
			},
			{
				"x": -1.5899005377,
				"y": 1.6560580338,
				"z": -1.5666723959,
				"element": "H" 
			}
		],
		 "valence_orbital": [ 
			{
				"type": "occ",
				"energy": -0.26716,
				"method": "rhf"
			},
			{
				"type": "occ",
				"energy": -0.25681,
				"method": "rhf"
			},
			{
				"type": "occ",
				"energy": -0.25306,
				"method": "rhf"
			},
			{
				"type": "occ",
				"energy": -0.23121,
				"method": "rhf"
			},
			{
				"type": "occ",
				"energy": -0.22485,
				"method": "rhf"
			},
			{
				"type": "unocc",
				"energy": -0.06777,
				"method": "rhf"
			},
			{
				"type": "unocc",
				"energy": -0.02731,
				"method": "rhf"
			},
			{
				"type": "unocc",
				"energy": -0.02394,
				"method": "rhf"
			},
			{
				"type": "unocc",
				"energy": -0.01727,
				"method": "rhf"
			},
			{
				"type": "unocc",
				"energy": -0.00043,
				"method": "rhf"
			}
		],
		"cosmo_sigma_profile": { 
			"-0.025": 0.0,
			"-0.024": 0.0,
			"-0.023": 0.0,
			"-0.022": 0.0,
			"-0.021": 0.0,
			"-0.02": 0.0,
			"-0.019": 0.0,
			"-0.018": 0.0,
			"-0.017": 0.0,
			"-0.016": 0.114158234331,
			"-0.015": 1.45890624511,
			"-0.014": 1.7278943618,
			"-0.013": 2.1108303755,
			"-0.012": 1.62272655433,
			"-0.011": 4.07526310655,
			"-0.01": 3.92127500113,
			"-0.009": 2.77103031222,
			"-0.008": 6.27451758155,
			"-0.007": 14.1490512418,
			"-0.006": 23.5039656994,
			"-0.005": 25.9924624446,
			"-0.004": 27.8481968842,
			"-0.003": 24.5111140826,
			"-0.002": 27.5335809797,
			"-0.001": 29.228773862,
			"0.0": 22.1824883171,
			"0.001": 26.5907885856,
			"0.002": 22.3834384073,
			"0.003": 18.141644239,
			"0.004": 15.741340895,
			"0.005": 8.90530968559,
			"0.006": 6.02240968525,
			"0.007": 6.40025862183,
			"0.008": 5.7883823931,
			"0.009": 5.29283989491,
			"0.01": 8.5935501307,
			"0.011": 8.20318473016,
			"0.012": 9.94340696854,
			"0.013": 8.53586739465,
			"0.014": 4.68537334201,
			"0.015": 0.674969732428,
			"0.016": 0.0,
			"0.017": 0.0,
			"0.018": 0.0,
			"0.019": 0.0,
			"0.02": 0.0,
			"0.021": 0.0,
			"0.022": 0.0,
			"0.023": 0.0,
			"0.024": 0.0,
			"0.025": 0.0
		}
	}
}
