{
	 "smiles": "ClC1=NNC(=O)C2=CC=CC=C12", 
	 "Tm": 547.15, 
	 "num_atms": 17, 
	 "gaussian": { 
		 "optdone": 1, 
		 "sigma_profile": "yes", 
		 "theory": "DFT", 
		 "functional": "B3LYP", 
		 "basiset": "6-31G**", 
		 "properties": { 
			 "R2extent": 2529.4096, 
			 "electric_dipole_moment_norm": 2.70159147541, 
			 "electric_quadrupole_moment_norm": 10.8707416978, 
			 "total_energy": -952.777687135, 
			 "HOMO_LUMO_gap": 0.17544, 
			 "cosmo_polarized_energy": -10.44, 
			 "cosmo_cavitation_energy": 23.31, 
			 "cosmo_dispersion_energy": -17.89, 
			 "cosmo_repulsion_energy": 1.4, 
			 "cosmo_total_nonelectrostatic_energy": 6.82, 
			 "SMD_solvation_energy": 3.6 
		},
		"coords": [
			{
				"x": -1.6396057103,
				"y": -1.7104435903,
				"z": -1.7394522784,
				"element": "Cl" 
			},
			{
				"x": -0.2013237328,
				"y": -0.7037470091,
				"z": -1.7058677629,
				"element": "C" 
			},
			{
				"x": 0.2443256848,
				"y": -0.3311380739,
				"z": -2.8549637524,
				"element": "N" 
			},
			{
				"x": 1.351661073,
				"y": 0.4459343526,
				"z": -2.8655549879,
				"element": "N" 
			},
			{
				"x": 2.0896866652,
				"y": 0.906748719,
				"z": -1.7808152038,
				"element": "C" 
			},
			{
				"x": 3.0791794434,
				"y": 1.6092255342,
				"z": -1.9452249047,
				"element": "O" 
			},
			{
				"x": 1.5519989019,
				"y": 0.4619019505,
				"z": -0.4824816439,
				"element": "C" 
			},
			{
				"x": 2.1973612003,
				"y": 0.8528492565,
				"z": 0.697749197,
				"element": "C" 
			},
			{
				"x": 1.7004877627,
				"y": 0.4402011032,
				"z": 1.925867448,
				"element": "C" 
			},
			{
				"x": 0.5531242158,
				"y": -0.3675691558,
				"z": 1.983691578,
				"element": "C" 
			},
			{
				"x": -0.0965510106,
				"y": -0.762528594,
				"z": 0.8224650698,
				"element": "C" 
			},
			{
				"x": 0.3953478771,
				"y": -0.3520266083,
				"z": -0.4301749571,
				"element": "C" 
			},
			{
				"x": 1.6710382445,
				"y": 0.7180151136,
				"z": -3.7867870786,
				"element": "H" 
			},
			{
				"x": 3.0807229281,
				"y": 1.476758292,
				"z": 0.6136832931,
				"element": "H" 
			},
			{
				"x": 2.1973283901,
				"y": 0.7407477463,
				"z": 2.8432104044,
				"element": "H" 
			},
			{
				"x": 0.1675294686,
				"y": -0.6883436204,
				"z": 2.9467910138,
				"element": "H" 
			},
			{
				"x": -0.981711402,
				"y": -1.3858854162,
				"z": 0.8706645656,
				"element": "H" 
			}
		],
		 "valence_orbital": [ 
			{
				"type": "occ",
				"energy": -0.32668,
				"method": "rhf"
			},
			{
				"type": "occ",
				"energy": -0.29398,
				"method": "rhf"
			},
			{
				"type": "occ",
				"energy": -0.27767,
				"method": "rhf"
			},
			{
				"type": "occ",
				"energy": -0.26482,
				"method": "rhf"
			},
			{
				"type": "occ",
				"energy": -0.24161,
				"method": "rhf"
			},
			{
				"type": "unocc",
				"energy": -0.06617,
				"method": "rhf"
			},
			{
				"type": "unocc",
				"energy": -0.05515,
				"method": "rhf"
			},
			{
				"type": "unocc",
				"energy": 0.01785,
				"method": "rhf"
			},
			{
				"type": "unocc",
				"energy": 0.01975,
				"method": "rhf"
			},
			{
				"type": "unocc",
				"energy": 0.05867,
				"method": "rhf"
			}
		],
		"cosmo_sigma_profile": { 
			"-0.025": 0.0,
			"-0.024": 0.0,
			"-0.023": 0.0,
			"-0.022": 0.0,
			"-0.021": 0.0,
			"-0.02": 0.0,
			"-0.019": 0.0,
			"-0.018": 0.0,
			"-0.017": 0.301041761179,
			"-0.016": 0.972317986269,
			"-0.015": 1.17979797786,
			"-0.014": 0.741097320413,
			"-0.013": 0.680822551789,
			"-0.012": 1.20558040046,
			"-0.011": 0.566292783491,
			"-0.01": 0.891012537445,
			"-0.009": 0.694173470269,
			"-0.008": 1.69732812714,
			"-0.007": 7.31799811909,
			"-0.006": 9.92239214431,
			"-0.005": 9.73606353174,
			"-0.004": 9.61804283618,
			"-0.003": 11.9061278582,
			"-0.002": 15.2128780052,
			"-0.001": 16.3315555169,
			"0.0": 16.9723923506,
			"0.001": 19.4139093338,
			"0.002": 16.9419862044,
			"0.003": 11.4312833305,
			"0.004": 8.55673730688,
			"0.005": 3.23151672768,
			"0.006": 3.28028115172,
			"0.007": 2.9678435176,
			"0.008": 1.94093647719,
			"0.009": 2.29669942924,
			"0.01": 2.42343477107,
			"0.011": 2.82915541223,
			"0.012": 3.86607273294,
			"0.013": 5.02016737724,
			"0.014": 0.319451242083,
			"0.015": 0.0,
			"0.016": 0.0,
			"0.017": 0.0,
			"0.018": 0.0,
			"0.019": 0.0,
			"0.02": 0.0,
			"0.021": 0.0,
			"0.022": 0.0,
			"0.023": 0.0,
			"0.024": 0.0,
			"0.025": 0.0
		}
	}
}
