{
	 "smiles": "CC1=CC(=CC(C)=C1O)[N+]([O-])=O", 
	 "Tm": 439.15, 
	 "num_atms": 21, 
	 "gaussian": { 
		 "optdone": 1, 
		 "sigma_profile": "yes", 
		 "theory": "DFT", 
		 "functional": "B3LYP", 
		 "basiset": "6-31G**", 
		 "properties": { 
			 "R2extent": 2368.2424, 
			 "electric_dipole_moment_norm": 5.87890382554, 
			 "electric_quadrupole_moment_norm": 15.5883951688, 
			 "total_energy": -590.612835824, 
			 "HOMO_LUMO_gap": 0.16691, 
			 "cosmo_polarized_energy": -12.74, 
			 "cosmo_cavitation_energy": 25.24, 
			 "cosmo_dispersion_energy": -18.56, 
			 "cosmo_repulsion_energy": 1.47, 
			 "cosmo_total_nonelectrostatic_energy": 8.15, 
			 "SMD_solvation_energy": 6.95 
		},
		"coords": [
			{
				"x": 0.2094965698,
				"y": -1.0170112519,
				"z": -2.5722700887,
				"element": "C" 
			},
			{
				"x": -0.0969414299,
				"y": -0.3164491282,
				"z": -1.2696835414,
				"element": "C" 
			},
			{
				"x": 0.4550761321,
				"y": 0.9255991676,
				"z": -0.9655388283,
				"element": "C" 
			},
			{
				"x": 0.1483186034,
				"y": 1.5396073825,
				"z": 0.2462759927,
				"element": "C" 
			},
			{
				"x": -0.7042076623,
				"y": 0.942922237,
				"z": 1.1757228398,
				"element": "C" 
			},
			{
				"x": -1.2718627655,
				"y": -0.2971951048,
				"z": 0.9022422351,
				"element": "C" 
			},
			{
				"x": -2.1984487562,
				"y": -0.9846970431,
				"z": 1.8711253266,
				"element": "C" 
			},
			{
				"x": -0.9574799267,
				"y": -0.9136762304,
				"z": -0.3261696891,
				"element": "C" 
			},
			{
				"x": -1.535482291,
				"y": -2.1262673001,
				"z": -0.5514944586,
				"element": "O" 
			},
			{
				"x": 0.7358932129,
				"y": 2.8432035884,
				"z": 0.550517819,
				"element": "N" 
			},
			{
				"x": 0.4486714535,
				"y": 3.3658032796,
				"z": 1.6295143857,
				"element": "O" 
			},
			{
				"x": 1.4854242318,
				"y": 3.3467045023,
				"z": -0.2895834046,
				"element": "O" 
			},
			{
				"x": 0.8888162587,
				"y": -0.4189384465,
				"z": -3.1830886382,
				"element": "H" 
			},
			{
				"x": -0.6955454573,
				"y": -1.1880545677,
				"z": -3.1709867923,
				"element": "H" 
			},
			{
				"x": 0.6928155545,
				"y": -1.9905371827,
				"z": -2.4127080049,
				"element": "H" 
			},
			{
				"x": 1.1220622052,
				"y": 1.4259415626,
				"z": -1.6571409659,
				"element": "H" 
			},
			{
				"x": -0.9139401108,
				"y": 1.4581021254,
				"z": 2.1052967104,
				"element": "H" 
			},
			{
				"x": -1.8047075149,
				"y": -1.9625998651,
				"z": 2.1684834592,
				"element": "H" 
			},
			{
				"x": -3.1788773404,
				"y": -1.1676731268,
				"z": 1.4183201065,
				"element": "H" 
			},
			{
				"x": -2.3392638405,
				"y": -0.3799679389,
				"z": 2.7698655277,
				"element": "H" 
			},
			{
				"x": -1.2615171263,
				"y": -2.4663166591,
				"z": -1.4128999906,
				"element": "H" 
			}
		],
		 "valence_orbital": [ 
			{
				"type": "occ",
				"energy": -0.29811,
				"method": "rhf"
			},
			{
				"type": "occ",
				"energy": -0.29638,
				"method": "rhf"
			},
			{
				"type": "occ",
				"energy": -0.27885,
				"method": "rhf"
			},
			{
				"type": "occ",
				"energy": -0.26301,
				"method": "rhf"
			},
			{
				"type": "occ",
				"energy": -0.24277,
				"method": "rhf"
			},
			{
				"type": "unocc",
				"energy": -0.07586,
				"method": "rhf"
			},
			{
				"type": "unocc",
				"energy": -0.01785,
				"method": "rhf"
			},
			{
				"type": "unocc",
				"energy": 0.01493,
				"method": "rhf"
			},
			{
				"type": "unocc",
				"energy": 0.04578,
				"method": "rhf"
			},
			{
				"type": "unocc",
				"energy": 0.09426,
				"method": "rhf"
			}
		],
		"cosmo_sigma_profile": { 
			"-0.025": 0.0,
			"-0.024": 0.0,
			"-0.023": 0.0,
			"-0.022": 0.0,
			"-0.021": 0.0,
			"-0.02": 0.0,
			"-0.019": 0.0,
			"-0.018": 0.0,
			"-0.017": 0.349034383049,
			"-0.016": 1.00526450027,
			"-0.015": 0.796372911061,
			"-0.014": 1.49402277707,
			"-0.013": 0.832081271446,
			"-0.012": 0.962444332146,
			"-0.011": 1.28981894913,
			"-0.01": 1.4720050857,
			"-0.009": 1.34801054617,
			"-0.008": 1.56281084309,
			"-0.007": 3.90689735055,
			"-0.006": 7.48637894912,
			"-0.005": 10.3408092915,
			"-0.004": 13.1833885099,
			"-0.003": 13.9504093967,
			"-0.002": 16.8094193999,
			"-0.001": 19.2018244151,
			"0.0": 21.4140222152,
			"0.001": 16.7601737204,
			"0.002": 15.8670881239,
			"0.003": 5.87764846474,
			"0.004": 3.89340279769,
			"0.005": 4.24476118203,
			"0.006": 4.67351036157,
			"0.007": 5.53119896323,
			"0.008": 11.6583027966,
			"0.009": 7.77897997555,
			"0.01": 4.50339796835,
			"0.011": 1.96445145557,
			"0.012": 0.0138453421071,
			"0.013": 0.0,
			"0.014": 0.0,
			"0.015": 0.0,
			"0.016": 0.0,
			"0.017": 0.0,
			"0.018": 0.0,
			"0.019": 0.0,
			"0.02": 0.0,
			"0.021": 0.0,
			"0.022": 0.0,
			"0.023": 0.0,
			"0.024": 0.0,
			"0.025": 0.0
		}
	}
}
