{
	 "smiles": "ClC1=C(Cl)C(OC2=NC=C(C=C2)C#N)=CC=C1", 
	 "Tm": 417.15, 
	 "num_atms": 23, 
	 "gaussian": { 
		 "optdone": 1, 
		 "sigma_profile": "yes", 
		 "theory": "DFT", 
		 "functional": "B3LYP", 
		 "basiset": "6-31G**", 
		 "properties": { 
			 "R2extent": 6199.7496, 
			 "electric_dipole_moment_norm": 4.38418657906, 
			 "electric_quadrupole_moment_norm": 28.7087180316, 
			 "total_energy": -1565.97113883, 
			 "HOMO_LUMO_gap": 0.20213, 
			 "cosmo_polarized_energy": -12.44, 
			 "cosmo_cavitation_energy": 33.55, 
			 "cosmo_dispersion_energy": -23.46, 
			 "cosmo_repulsion_energy": 1.83, 
			 "cosmo_total_nonelectrostatic_energy": 11.92, 
			 "SMD_solvation_energy": 5.92 
		},
		"coords": [
			{
				"x": -3.1442056951,
				"y": 3.2855613018,
				"z": -1.6021066523,
				"element": "Cl" 
			},
			{
				"x": -1.4577664372,
				"y": 2.8614718012,
				"z": -1.7583377973,
				"element": "C" 
			},
			{
				"x": -0.9910398994,
				"y": 1.604165552,
				"z": -1.3475155394,
				"element": "C" 
			},
			{
				"x": -2.0549303871,
				"y": 0.4066931692,
				"z": -0.6731973855,
				"element": "Cl" 
			},
			{
				"x": 0.3724021848,
				"y": 1.3119228987,
				"z": -1.49651111,
				"element": "C" 
			},
			{
				"x": 0.8426676916,
				"y": 0.0426410482,
				"z": -1.1893194582,
				"element": "O" 
			},
			{
				"x": 1.2406383541,
				"y": -0.232926835,
				"z": 0.0841185135,
				"element": "C" 
			},
			{
				"x": 1.2319083673,
				"y": 0.7344331857,
				"z": 0.9903170151,
				"element": "N" 
			},
			{
				"x": 1.6369531979,
				"y": 0.429528171,
				"z": 2.2257725701,
				"element": "C" 
			},
			{
				"x": 2.0689969882,
				"y": -0.8504665656,
				"z": 2.5983859782,
				"element": "C" 
			},
			{
				"x": 2.0698397388,
				"y": -1.8606985342,
				"z": 1.6138681622,
				"element": "C" 
			},
			{
				"x": 1.6491818656,
				"y": -1.553763785,
				"z": 0.3338376758,
				"element": "C" 
			},
			{
				"x": 2.495317314,
				"y": -1.1145453146,
				"z": 3.9374551978,
				"element": "C" 
			},
			{
				"x": 2.8437052388,
				"y": -1.327672811,
				"z": 5.0269091899,
				"element": "N" 
			},
			{
				"x": 1.2497468073,
				"y": 2.2407193896,
				"z": -2.0448121769,
				"element": "C" 
			},
			{
				"x": 0.7708095982,
				"y": 3.485230687,
				"z": -2.44820259,
				"element": "C" 
			},
			{
				"x": -0.5786575496,
				"y": 3.7984188657,
				"z": -2.3051337698,
				"element": "C" 
			},
			{
				"x": 1.6200923117,
				"y": 1.2349061325,
				"z": 2.9556765357,
				"element": "H" 
			},
			{
				"x": 2.3958896161,
				"y": -2.8641677038,
				"z": 1.8659294638,
				"element": "H" 
			},
			{
				"x": 1.6243203637,
				"y": -2.2893393564,
				"z": -0.4611494627,
				"element": "H" 
			},
			{
				"x": 2.2947662877,
				"y": 1.9715975668,
				"z": -2.1502224889,
				"element": "H" 
			},
			{
				"x": 1.4500066486,
				"y": 4.2151586263,
				"z": -2.8761259738,
				"element": "H" 
			},
			{
				"x": -0.9640426058,
				"y": 4.7625325098,
				"z": -2.6161358973,
				"element": "H" 
			}
		],
		 "valence_orbital": [ 
			{
				"type": "occ",
				"energy": -0.31479,
				"method": "rhf"
			},
			{
				"type": "occ",
				"energy": -0.29659,
				"method": "rhf"
			},
			{
				"type": "occ",
				"energy": -0.26513,
				"method": "rhf"
			},
			{
				"type": "occ",
				"energy": -0.26266,
				"method": "rhf"
			},
			{
				"type": "occ",
				"energy": -0.25957,
				"method": "rhf"
			},
			{
				"type": "unocc",
				"energy": -0.05744,
				"method": "rhf"
			},
			{
				"type": "unocc",
				"energy": -0.0522,
				"method": "rhf"
			},
			{
				"type": "unocc",
				"energy": -0.03233,
				"method": "rhf"
			},
			{
				"type": "unocc",
				"energy": -0.03017,
				"method": "rhf"
			},
			{
				"type": "unocc",
				"energy": -0.00776,
				"method": "rhf"
			}
		],
		"cosmo_sigma_profile": { 
			"-0.025": 0.0,
			"-0.024": 0.0,
			"-0.023": 0.0,
			"-0.022": 0.0,
			"-0.021": 0.0,
			"-0.02": 0.0,
			"-0.019": 0.0,
			"-0.018": 0.0,
			"-0.017": 0.0,
			"-0.016": 0.0,
			"-0.015": 0.0,
			"-0.014": 0.0,
			"-0.013": 0.0,
			"-0.012": 0.0,
			"-0.011": 0.0,
			"-0.01": 0.476525525907,
			"-0.009": 5.00295082185,
			"-0.008": 11.769754739,
			"-0.007": 12.8287393191,
			"-0.006": 11.6855312449,
			"-0.005": 10.5206313285,
			"-0.004": 11.4643967819,
			"-0.003": 14.9282895136,
			"-0.002": 20.4350577336,
			"-0.001": 25.0792771077,
			"0.0": 28.6556276702,
			"0.001": 22.6690657458,
			"0.002": 22.3668573937,
			"0.003": 22.0472345303,
			"0.004": 18.3360009547,
			"0.005": 8.63994753834,
			"0.006": 5.30212312965,
			"0.007": 5.03176658074,
			"0.008": 3.88348576334,
			"0.009": 4.97561427803,
			"0.01": 3.55847334411,
			"0.011": 3.71787572225,
			"0.012": 2.52615142514,
			"0.013": 1.01380313663,
			"0.014": 0.0,
			"0.015": 0.0,
			"0.016": 0.0,
			"0.017": 0.0,
			"0.018": 0.0,
			"0.019": 0.0,
			"0.02": 0.0,
			"0.021": 0.0,
			"0.022": 0.0,
			"0.023": 0.0,
			"0.024": 0.0,
			"0.025": 0.0
		}
	}
}
