{
	 "smiles": "C1SSCSSS1", 
	 "Tm": 333.65, 
	 "num_atms": 11, 
	 "gaussian": { 
		 "optdone": 1, 
		 "sigma_profile": "yes", 
		 "theory": "DFT", 
		 "functional": "B3LYP", 
		 "basiset": "6-31G**", 
		 "properties": { 
			 "R2extent": 1896.6056, 
			 "electric_dipole_moment_norm": 1.2793112053, 
			 "electric_quadrupole_moment_norm": 9.33809656782, 
			 "total_energy": -2069.55847142, 
			 "HOMO_LUMO_gap": 0.18312, 
			 "cosmo_polarized_energy": -7.36, 
			 "cosmo_cavitation_energy": 21.34, 
			 "cosmo_dispersion_energy": -18.71, 
			 "cosmo_repulsion_energy": 1.3, 
			 "cosmo_total_nonelectrostatic_energy": 3.93, 
			 "SMD_solvation_energy": 0.51 
		},
		"coords": [
			{
				"x": -0.7011702469,
				"y": 1.6364918617,
				"z": 0.0967478414,
				"element": "C" 
			},
			{
				"x": -1.5444887532,
				"y": 0.5073066375,
				"z": 1.2658674219,
				"element": "S" 
			},
			{
				"x": -0.1648729496,
				"y": 0.0331652978,
				"z": 2.7457728016,
				"element": "S" 
			},
			{
				"x": 0.4889176846,
				"y": -1.5941770208,
				"z": 2.1697924933,
				"element": "C" 
			},
			{
				"x": 1.8813917999,
				"y": -1.5886218082,
				"z": 0.9790458749,
				"element": "S" 
			},
			{
				"x": 1.0052517427,
				"y": -0.8567154176,
				"z": -0.7799089839,
				"element": "S" 
			},
			{
				"x": 0.9636916316,
				"y": 1.2162716665,
				"z": -0.593698589,
				"element": "S" 
			},
			{
				"x": -1.4313433183,
				"y": 1.7324512093,
				"z": -0.7130875177,
				"element": "H" 
			},
			{
				"x": -0.5463534859,
				"y": 2.6186655983,
				"z": 0.5515016209,
				"element": "H" 
			},
			{
				"x": -0.3394244725,
				"y": -2.1903297967,
				"z": 1.7857909968,
				"element": "H" 
			},
			{
				"x": 0.8884003676,
				"y": -2.0764082279,
				"z": 3.0688760399,
				"element": "H" 
			}
		],
		 "valence_orbital": [ 
			{
				"type": "occ",
				"energy": -0.28286,
				"method": "rhf"
			},
			{
				"type": "occ",
				"energy": -0.27274,
				"method": "rhf"
			},
			{
				"type": "occ",
				"energy": -0.26062,
				"method": "rhf"
			},
			{
				"type": "occ",
				"energy": -0.25692,
				"method": "rhf"
			},
			{
				"type": "occ",
				"energy": -0.24547,
				"method": "rhf"
			},
			{
				"type": "unocc",
				"energy": -0.06235,
				"method": "rhf"
			},
			{
				"type": "unocc",
				"energy": -0.04605,
				"method": "rhf"
			},
			{
				"type": "unocc",
				"energy": -0.03478,
				"method": "rhf"
			},
			{
				"type": "unocc",
				"energy": -5e-05,
				"method": "rhf"
			},
			{
				"type": "unocc",
				"energy": 0.00863,
				"method": "rhf"
			}
		],
		"cosmo_sigma_profile": { 
			"-0.025": 0.0,
			"-0.024": 0.0,
			"-0.023": 0.0,
			"-0.022": 0.0,
			"-0.021": 0.0,
			"-0.02": 0.0,
			"-0.019": 0.0,
			"-0.018": 0.0,
			"-0.017": 0.0,
			"-0.016": 0.0,
			"-0.015": 0.0,
			"-0.014": 0.0,
			"-0.013": 0.0,
			"-0.012": 0.0,
			"-0.011": 0.0574358983202,
			"-0.01": 2.80129862878,
			"-0.009": 6.20085687888,
			"-0.008": 8.57952141881,
			"-0.007": 6.26114747081,
			"-0.006": 8.04218959021,
			"-0.005": 8.0463374581,
			"-0.004": 6.45796097895,
			"-0.003": 6.87523344954,
			"-0.002": 6.2548667749,
			"-0.001": 10.0704045349,
			"0.0": 14.324455632,
			"0.001": 15.5709149355,
			"0.002": 15.6150518999,
			"0.003": 18.4398648791,
			"0.004": 14.9535785062,
			"0.005": 10.4067273409,
			"0.006": 11.70583751,
			"0.007": 8.34487326651,
			"0.008": 1.01114992075,
			"0.009": 0.0,
			"0.01": 0.0,
			"0.011": 0.0,
			"0.012": 0.0,
			"0.013": 0.0,
			"0.014": 0.0,
			"0.015": 0.0,
			"0.016": 0.0,
			"0.017": 0.0,
			"0.018": 0.0,
			"0.019": 0.0,
			"0.02": 0.0,
			"0.021": 0.0,
			"0.022": 0.0,
			"0.023": 0.0,
			"0.024": 0.0,
			"0.025": 0.0
		}
	}
}
