{
	 "smiles": "ClCC(Cl)Cl", 
	 "Tm": 237.15, 
	 "num_atms": 8, 
	 "gaussian": { 
		 "optdone": 1, 
		 "sigma_profile": "yes", 
		 "theory": "DFT", 
		 "functional": "B3LYP", 
		 "basiset": "6-31G**", 
		 "properties": { 
			 "R2extent": 1442.5314, 
			 "electric_dipole_moment_norm": 1.38421332893, 
			 "electric_quadrupole_moment_norm": 4.82786398938, 
			 "total_energy": -1458.59680192, 
			 "HOMO_LUMO_gap": 0.2847, 
			 "cosmo_polarized_energy": -5.76, 
			 "cosmo_cavitation_energy": 16.84, 
			 "cosmo_dispersion_energy": -13.0, 
			 "cosmo_repulsion_energy": 1.15, 
			 "cosmo_total_nonelectrostatic_energy": 4.99, 
			 "SMD_solvation_energy": 1.94 
		},
		"coords": [
			{
				"x": 0.8877505716,
				"y": 2.6708874844,
				"z": 2.4288706808,
				"element": "Cl" 
			},
			{
				"x": -0.28150451,
				"y": 1.7786113501,
				"z": 1.3860524002,
				"element": "C" 
			},
			{
				"x": 0.422927896,
				"y": 0.7552279899,
				"z": 0.5051058871,
				"element": "C" 
			},
			{
				"x": -0.7804310634,
				"y": 0.1301143666,
				"z": -0.6901405446,
				"element": "Cl" 
			},
			{
				"x": 1.1333285981,
				"y": -0.5882062207,
				"z": 1.4583127872,
				"element": "Cl" 
			},
			{
				"x": -1.012767386,
				"y": 1.2937755293,
				"z": 2.0324805758,
				"element": "H" 
			},
			{
				"x": -0.7743943675,
				"y": 2.5165290982,
				"z": 0.7526275588,
				"element": "H" 
			},
			{
				"x": 1.2335902612,
				"y": 1.2007604023,
				"z": -0.0678093453,
				"element": "H" 
			}
		],
		 "valence_orbital": [ 
			{
				"type": "occ",
				"energy": -0.335,
				"method": "rhf"
			},
			{
				"type": "occ",
				"energy": -0.32861,
				"method": "rhf"
			},
			{
				"type": "occ",
				"energy": -0.31824,
				"method": "rhf"
			},
			{
				"type": "occ",
				"energy": -0.31534,
				"method": "rhf"
			},
			{
				"type": "occ",
				"energy": -0.31123,
				"method": "rhf"
			},
			{
				"type": "unocc",
				"energy": -0.02653,
				"method": "rhf"
			},
			{
				"type": "unocc",
				"energy": -0.00705,
				"method": "rhf"
			},
			{
				"type": "unocc",
				"energy": 0.03017,
				"method": "rhf"
			},
			{
				"type": "unocc",
				"energy": 0.09771,
				"method": "rhf"
			},
			{
				"type": "unocc",
				"energy": 0.10707,
				"method": "rhf"
			}
		],
		"cosmo_sigma_profile": { 
			"-0.025": 0.0,
			"-0.024": 0.0,
			"-0.023": 0.0,
			"-0.022": 0.0,
			"-0.021": 0.0,
			"-0.02": 0.0,
			"-0.019": 0.0,
			"-0.018": 0.0,
			"-0.017": 0.0,
			"-0.016": 0.0,
			"-0.015": 0.0,
			"-0.014": 0.0,
			"-0.013": 0.0,
			"-0.012": 0.0,
			"-0.011": 1.59859648667,
			"-0.01": 2.97273963845,
			"-0.009": 5.85503683719,
			"-0.008": 5.44422812198,
			"-0.007": 5.2474013708,
			"-0.006": 4.21315544565,
			"-0.005": 4.17458455278,
			"-0.004": 3.8127770755,
			"-0.003": 4.47388474491,
			"-0.002": 6.77260190453,
			"-0.001": 8.04183985012,
			"0.0": 8.28735736669,
			"0.001": 9.63779049382,
			"0.002": 11.1175655072,
			"0.003": 14.6119739968,
			"0.004": 25.5890659734,
			"0.005": 14.693228566,
			"0.006": 3.88532842458,
			"0.007": 0.0,
			"0.008": 0.0,
			"0.009": 0.0,
			"0.01": 0.0,
			"0.011": 0.0,
			"0.012": 0.0,
			"0.013": 0.0,
			"0.014": 0.0,
			"0.015": 0.0,
			"0.016": 0.0,
			"0.017": 0.0,
			"0.018": 0.0,
			"0.019": 0.0,
			"0.02": 0.0,
			"0.021": 0.0,
			"0.022": 0.0,
			"0.023": 0.0,
			"0.024": 0.0,
			"0.025": 0.0
		}
	}
}
