{
	 "smiles": "OCC#CCO", 
	 "Tm": 329.15, 
	 "num_atms": 12, 
	 "gaussian": { 
		 "optdone": 1, 
		 "sigma_profile": "yes", 
		 "theory": "DFT", 
		 "functional": "B3LYP", 
		 "basiset": "6-31G**", 
		 "properties": { 
			 "R2extent": 1070.8913, 
			 "electric_dipole_moment_norm": 2.20880046405, 
			 "electric_quadrupole_moment_norm": 6.49895568457, 
			 "total_energy": -306.386516188, 
			 "HOMO_LUMO_gap": 0.28262, 
			 "cosmo_polarized_energy": -12.34, 
			 "cosmo_cavitation_energy": 16.96, 
			 "cosmo_dispersion_energy": -12.49, 
			 "cosmo_repulsion_energy": 1.16, 
			 "cosmo_total_nonelectrostatic_energy": 5.63, 
			 "SMD_solvation_energy": 3.71 
		},
		"coords": [
			{
				"x": 0.3633869374,
				"y": -0.4924123106,
				"z": -2.805246857,
				"element": "O" 
			},
			{
				"x": 0.5045047446,
				"y": -0.8478292002,
				"z": -1.4329303519,
				"element": "C" 
			},
			{
				"x": 0.2419075051,
				"y": 0.3156185125,
				"z": -0.5901314463,
				"element": "C" 
			},
			{
				"x": 0.0408402064,
				"y": 1.2657915569,
				"z": 0.1312315858,
				"element": "C" 
			},
			{
				"x": -0.2600175345,
				"y": 2.4318342317,
				"z": 0.9681831056,
				"element": "C" 
			},
			{
				"x": -1.6145712459,
				"y": 2.4951284651,
				"z": 1.3989183618,
				"element": "O" 
			},
			{
				"x": 0.5422473279,
				"y": -1.286188896,
				"z": -3.3261888105,
				"element": "H" 
			},
			{
				"x": -0.1940017626,
				"y": -1.6537896521,
				"z": -1.1525334451,
				"element": "H" 
			},
			{
				"x": 1.5199922509,
				"y": -1.2190214595,
				"z": -1.2156245993,
				"element": "H" 
			},
			{
				"x": 0.0341671686,
				"y": 3.344660043,
				"z": 0.424798282,
				"element": "H" 
			},
			{
				"x": 0.3427945948,
				"y": 2.4019086225,
				"z": 1.8827223422,
				"element": "H" 
			},
			{
				"x": -2.1696501926,
				"y": 2.4252000867,
				"z": 0.6110018328,
				"element": "H" 
			}
		],
		 "valence_orbital": [ 
			{
				"type": "occ",
				"energy": -0.35264,
				"method": "rhf"
			},
			{
				"type": "occ",
				"energy": -0.28995,
				"method": "rhf"
			},
			{
				"type": "occ",
				"energy": -0.28289,
				"method": "rhf"
			},
			{
				"type": "occ",
				"energy": -0.26132,
				"method": "rhf"
			},
			{
				"type": "occ",
				"energy": -0.25574,
				"method": "rhf"
			},
			{
				"type": "unocc",
				"energy": 0.02688,
				"method": "rhf"
			},
			{
				"type": "unocc",
				"energy": 0.03407,
				"method": "rhf"
			},
			{
				"type": "unocc",
				"energy": 0.09694,
				"method": "rhf"
			},
			{
				"type": "unocc",
				"energy": 0.10417,
				"method": "rhf"
			},
			{
				"type": "unocc",
				"energy": 0.12963,
				"method": "rhf"
			}
		],
		"cosmo_sigma_profile": { 
			"-0.025": 0.0,
			"-0.024": 0.0,
			"-0.023": 0.0,
			"-0.022": 0.0,
			"-0.021": 0.0,
			"-0.02": 0.0,
			"-0.019": 0.0,
			"-0.018": 0.0,
			"-0.017": 0.0591565623932,
			"-0.016": 1.33410298602,
			"-0.015": 2.37305873526,
			"-0.014": 1.4375673601,
			"-0.013": 2.07309734983,
			"-0.012": 1.6963759601,
			"-0.011": 1.66559422595,
			"-0.01": 1.76409918183,
			"-0.009": 1.82478326368,
			"-0.008": 1.65735070102,
			"-0.007": 3.24223894979,
			"-0.006": 12.1725483221,
			"-0.005": 12.0763800862,
			"-0.004": 9.93646731188,
			"-0.003": 6.16317641613,
			"-0.002": 5.33572939199,
			"-0.001": 5.01836241355,
			"0.0": 4.24593191062,
			"0.001": 3.95252714081,
			"0.002": 3.86228654876,
			"0.003": 4.55579189575,
			"0.004": 5.4759633046,
			"0.005": 6.2153607936,
			"0.006": 8.0129306773,
			"0.007": 4.37640348101,
			"0.008": 2.81244717731,
			"0.009": 3.27960178807,
			"0.01": 3.05436135174,
			"0.011": 2.60544498156,
			"0.012": 3.95468825757,
			"0.013": 4.54836632661,
			"0.014": 3.11074472514,
			"0.015": 0.00643351374666,
			"0.016": 0.0,
			"0.017": 0.0,
			"0.018": 0.0,
			"0.019": 0.0,
			"0.02": 0.0,
			"0.021": 0.0,
			"0.022": 0.0,
			"0.023": 0.0,
			"0.024": 0.0,
			"0.025": 0.0
		}
	}
}
