{
	 "smiles": "CC1=NNC(=C1)C(=O)NN", 
	 "Tm": 431.15, 
	 "num_atms": 18, 
	 "gaussian": { 
		 "optdone": 1, 
		 "sigma_profile": "yes", 
		 "theory": "DFT", 
		 "functional": "B3LYP", 
		 "basiset": "6-31G**", 
		 "properties": { 
			 "R2extent": 2312.5658, 
			 "electric_dipole_moment_norm": 4.61996403233, 
			 "electric_quadrupole_moment_norm": 25.9594074239, 
			 "total_energy": -489.546805552, 
			 "HOMO_LUMO_gap": 0.214, 
			 "cosmo_polarized_energy": -18.37, 
			 "cosmo_cavitation_energy": 22.36, 
			 "cosmo_dispersion_energy": -16.92, 
			 "cosmo_repulsion_energy": 1.42, 
			 "cosmo_total_nonelectrostatic_energy": 6.86, 
			 "SMD_solvation_energy": 4.47 
		},
		"coords": [
			{
				"x": 1.4753934569,
				"y": 0.636789608,
				"z": -3.0973690106,
				"element": "C" 
			},
			{
				"x": 1.0760481541,
				"y": 1.1140861912,
				"z": -1.7319698616,
				"element": "C" 
			},
			{
				"x": 1.6637317352,
				"y": 2.1908899321,
				"z": -1.1830917967,
				"element": "N" 
			},
			{
				"x": 1.079934512,
				"y": 2.3327221135,
				"z": 0.0136253555,
				"element": "N" 
			},
			{
				"x": 0.1312366487,
				"y": 1.3853930805,
				"z": 0.264746959,
				"element": "C" 
			},
			{
				"x": 0.1078603445,
				"y": 0.5734332415,
				"z": -0.862919649,
				"element": "C" 
			},
			{
				"x": -0.7036629383,
				"y": 1.2391353831,
				"z": 1.4743307444,
				"element": "C" 
			},
			{
				"x": -1.5264352495,
				"y": 0.3353130143,
				"z": 1.5736613628,
				"element": "O" 
			},
			{
				"x": -0.5641634581,
				"y": 2.131709941,
				"z": 2.5205330789,
				"element": "N" 
			},
			{
				"x": 0.3301449858,
				"y": 3.2113191074,
				"z": 2.5520325558,
				"element": "N" 
			},
			{
				"x": 1.3087281082,
				"y": 1.4117901175,
				"z": -3.8527249626,
				"element": "H" 
			},
			{
				"x": 0.8962646776,
				"y": -0.245472313,
				"z": -3.3812173741,
				"element": "H" 
			},
			{
				"x": 2.5375381566,
				"y": 0.3726988245,
				"z": -3.1301139732,
				"element": "H" 
			},
			{
				"x": 1.330725096,
				"y": 3.0741012042,
				"z": 0.6531178889,
				"element": "H" 
			},
			{
				"x": -0.5298099208,
				"y": -0.2842304092,
				"z": -1.0116808143,
				"element": "H" 
			},
			{
				"x": -1.1815554379,
				"y": 1.9464059906,
				"z": 3.3039349515,
				"element": "H" 
			},
			{
				"x": 0.9712091573,
				"y": 3.111173682,
				"z": 3.336213718,
				"element": "H" 
			},
			{
				"x": -0.1806880283,
				"y": 4.0851412907,
				"z": 2.6588908273,
				"element": "H" 
			}
		],
		 "valence_orbital": [ 
			{
				"type": "occ",
				"energy": -0.28461,
				"method": "rhf"
			},
			{
				"type": "occ",
				"energy": -0.26566,
				"method": "rhf"
			},
			{
				"type": "occ",
				"energy": -0.25364,
				"method": "rhf"
			},
			{
				"type": "occ",
				"energy": -0.2417,
				"method": "rhf"
			},
			{
				"type": "occ",
				"energy": -0.23692,
				"method": "rhf"
			},
			{
				"type": "unocc",
				"energy": -0.02292,
				"method": "rhf"
			},
			{
				"type": "unocc",
				"energy": 0.04678,
				"method": "rhf"
			},
			{
				"type": "unocc",
				"energy": 0.05871,
				"method": "rhf"
			},
			{
				"type": "unocc",
				"energy": 0.09322,
				"method": "rhf"
			},
			{
				"type": "unocc",
				"energy": 0.11668,
				"method": "rhf"
			}
		],
		"cosmo_sigma_profile": { 
			"-0.025": 0.0,
			"-0.024": 0.0,
			"-0.023": 0.0,
			"-0.022": 0.0,
			"-0.021": 0.0,
			"-0.02": 0.0,
			"-0.019": 0.0,
			"-0.018": 0.0,
			"-0.017": 0.0,
			"-0.016": 0.0,
			"-0.015": 0.0,
			"-0.014": 0.644177809189,
			"-0.013": 3.02223628264,
			"-0.012": 5.55440102476,
			"-0.011": 6.15051606726,
			"-0.01": 5.63104714655,
			"-0.009": 4.08509147427,
			"-0.008": 2.84532737399,
			"-0.007": 2.37893203784,
			"-0.006": 4.86428415854,
			"-0.005": 5.39833658165,
			"-0.004": 10.6402456178,
			"-0.003": 9.70969032869,
			"-0.002": 12.1702603625,
			"-0.001": 15.6278897809,
			"0.0": 12.7953667246,
			"0.001": 8.85130846644,
			"0.002": 8.61307676412,
			"0.003": 8.07359877472,
			"0.004": 10.4876270877,
			"0.005": 5.63292600038,
			"0.006": 3.16659866927,
			"0.007": 3.17035858536,
			"0.008": 3.33724716988,
			"0.009": 2.56097603055,
			"0.01": 2.15015027818,
			"0.011": 2.75029772363,
			"0.012": 3.36412225938,
			"0.013": 5.92019530362,
			"0.014": 5.11266029793,
			"0.015": 1.05857400095,
			"0.016": 0.883731260306,
			"0.017": 0.0476895353949,
			"0.018": 0.0,
			"0.019": 0.0,
			"0.02": 0.0,
			"0.021": 0.0,
			"0.022": 0.0,
			"0.023": 0.0,
			"0.024": 0.0,
			"0.025": 0.0
		}
	}
}
