{
	 "smiles": "CC12CCC3C(CC[C@@H]4C(Br)C(=O)CCC34C)C1CCC2O", 
	 "Tm": 416.15, 
	 "num_atms": 51, 
	 "gaussian": { 
		 "optdone": 1, 
		 "sigma_profile": "yes", 
		 "theory": "DFT", 
		 "functional": "B3LYP", 
		 "basiset": "6-31G**", 
		 "properties": { 
			 "R2extent": 10254.9242, 
			 "electric_dipole_moment_norm": 4.5388244954, 
			 "electric_quadrupole_moment_norm": 27.657240495, 
			 "total_energy": -3463.35834842, 
			 "HOMO_LUMO_gap": 0.22516, 
			 "cosmo_polarized_energy": -15.22, 
			 "cosmo_cavitation_energy": 45.08, 
			 "cosmo_dispersion_energy": -32.16, 
			 "cosmo_repulsion_energy": 2.36, 
			 "cosmo_total_nonelectrostatic_energy": 15.28, 
			 "SMD_solvation_energy": 5.43 
		},
		"coords": [
			{
				"x": -0.5584944481,
				"y": -3.3722005959,
				"z": 2.9950128425,
				"element": "C" 
			},
			{
				"x": -0.9956175262,
				"y": -2.1168509466,
				"z": 2.2042131253,
				"element": "C" 
			},
			{
				"x": -1.6936527944,
				"y": -2.5746829713,
				"z": 0.8927178418,
				"element": "C" 
			},
			{
				"x": -1.0464128872,
				"y": -2.0266338339,
				"z": -0.393288213,
				"element": "C" 
			},
			{
				"x": -0.9159277579,
				"y": -0.4978953757,
				"z": -0.2615339356,
				"element": "C" 
			},
			{
				"x": 0.1926263511,
				"y": -0.1882616016,
				"z": 0.7900392658,
				"element": "C" 
			},
			{
				"x": 1.5966584397,
				"y": -0.1268067172,
				"z": 0.1501731275,
				"element": "C" 
			},
			{
				"x": 1.6948602597,
				"y": 0.7441833628,
				"z": -1.102752628,
				"element": "C" 
			},
			{
				"x": 0.6670356643,
				"y": 0.2883717301,
				"z": -2.148273715,
				"element": "C" 
			},
			{
				"x": 0.7930462589,
				"y": 1.0460796219,
				"z": -3.4930515167,
				"element": "C" 
			},
			{
				"x": 2.6004884638,
				"y": 0.8601052547,
				"z": -4.2809208008,
				"element": "Br" 
			},
			{
				"x": -0.2687023849,
				"y": 0.6259566966,
				"z": -4.5202948224,
				"element": "C" 
			},
			{
				"x": -0.0179559284,
				"y": 0.2984503328,
				"z": -5.6585332775,
				"element": "O" 
			},
			{
				"x": -1.6867598672,
				"y": 0.6500836061,
				"z": -3.969322982,
				"element": "C" 
			},
			{
				"x": -1.7725385442,
				"y": -0.1395659361,
				"z": -2.6505646899,
				"element": "C" 
			},
			{
				"x": -0.7868096992,
				"y": 0.3664881357,
				"z": -1.571497149,
				"element": "C" 
			},
			{
				"x": -1.179028664,
				"y": 1.8195621608,
				"z": -1.1938807717,
				"element": "C" 
			},
			{
				"x": 0.2544812966,
				"y": -1.2092859776,
				"z": 1.9796764188,
				"element": "C" 
			},
			{
				"x": 0.4692196985,
				"y": -0.5138850308,
				"z": 3.3558592029,
				"element": "C" 
			},
			{
				"x": -0.9000727717,
				"y": -0.5601721254,
				"z": 4.0982691436,
				"element": "C" 
			},
			{
				"x": -1.8957396638,
				"y": -1.2538186645,
				"z": 3.1424480879,
				"element": "C" 
			},
			{
				"x": -2.7183303622,
				"y": -0.3077836735,
				"z": 2.4527567992,
				"element": "O" 
			},
			{
				"x": -1.4268393892,
				"y": -3.9949822482,
				"z": 3.2380638078,
				"element": "H" 
			},
			{
				"x": -0.0496818229,
				"y": -3.1320019194,
				"z": 3.9338310145,
				"element": "H" 
			},
			{
				"x": 0.1273923864,
				"y": -3.979832417,
				"z": 2.394877399,
				"element": "H" 
			},
			{
				"x": -1.7132796409,
				"y": -3.6693956221,
				"z": 0.8459596899,
				"element": "H" 
			},
			{
				"x": -2.7371538438,
				"y": -2.2420625851,
				"z": 0.9115521017,
				"element": "H" 
			},
			{
				"x": -1.6776174683,
				"y": -2.3152922456,
				"z": -1.237569087,
				"element": "H" 
			},
			{
				"x": -0.0682028241,
				"y": -2.4953869696,
				"z": -0.5650769804,
				"element": "H" 
			},
			{
				"x": -1.8715263266,
				"y": -0.1793262937,
				"z": 0.1731392397,
				"element": "H" 
			},
			{
				"x": -0.0138613294,
				"y": 0.8068756258,
				"z": 1.209482313,
				"element": "H" 
			},
			{
				"x": 2.3197507183,
				"y": 0.2106518521,
				"z": 0.9032774192,
				"element": "H" 
			},
			{
				"x": 1.9015801636,
				"y": -1.147560294,
				"z": -0.1202960492,
				"element": "H" 
			},
			{
				"x": 2.7014851855,
				"y": 0.6709028203,
				"z": -1.5223727684,
				"element": "H" 
			},
			{
				"x": 1.5390527687,
				"y": 1.8029329002,
				"z": -0.8579309529,
				"element": "H" 
			},
			{
				"x": 0.8668125396,
				"y": -0.7699323963,
				"z": -2.3702516921,
				"element": "H" 
			},
			{
				"x": 0.6914904268,
				"y": 2.1229367461,
				"z": -3.3271271934,
				"element": "H" 
			},
			{
				"x": -2.3434406311,
				"y": 0.2278660477,
				"z": -4.7341502518,
				"element": "H" 
			},
			{
				"x": -1.9881142432,
				"y": 1.6942114949,
				"z": -3.816802694,
				"element": "H" 
			},
			{
				"x": -1.5598195451,
				"y": -1.1878856521,
				"z": -2.8825577923,
				"element": "H" 
			},
			{
				"x": -2.7990323841,
				"y": -0.1065756215,
				"z": -2.2650774903,
				"element": "H" 
			},
			{
				"x": -1.0417701939,
				"y": 2.530418385,
				"z": -2.0132731013,
				"element": "H" 
			},
			{
				"x": -2.237014436,
				"y": 1.8536834491,
				"z": -0.9115064332,
				"element": "H" 
			},
			{
				"x": -0.6030846262,
				"y": 2.2008234946,
				"z": -0.3483988679,
				"element": "H" 
			},
			{
				"x": 1.106696208,
				"y": -1.8669372478,
				"z": 1.7739571224,
				"element": "H" 
			},
			{
				"x": 0.8359503539,
				"y": 0.5104784327,
				"z": 3.2312577391,
				"element": "H" 
			},
			{
				"x": 1.2316961178,
				"y": -1.0387179959,
				"z": 3.9388241042,
				"element": "H" 
			},
			{
				"x": -1.2776876305,
				"y": 0.4311866365,
				"z": 4.3690360459,
				"element": "H" 
			},
			{
				"x": -0.8139194852,
				"y": -1.1185110905,
				"z": 5.0351627259,
				"element": "H" 
			},
			{
				"x": -2.6102063449,
				"y": -1.8876354511,
				"z": 3.6787554711,
				"element": "H" 
			},
			{
				"x": -2.1687278365,
				"y": 0.4469307134,
				"z": 2.2060638067,
				"element": "H" 
			}
		],
		 "valence_orbital": [ 
			{
				"type": "occ",
				"energy": -0.28405,
				"method": "rhf"
			},
			{
				"type": "occ",
				"energy": -0.26807,
				"method": "rhf"
			},
			{
				"type": "occ",
				"energy": -0.26445,
				"method": "rhf"
			},
			{
				"type": "occ",
				"energy": -0.26182,
				"method": "rhf"
			},
			{
				"type": "occ",
				"energy": -0.24892,
				"method": "rhf"
			},
			{
				"type": "unocc",
				"energy": -0.02376,
				"method": "rhf"
			},
			{
				"type": "unocc",
				"energy": 0.00255,
				"method": "rhf"
			},
			{
				"type": "unocc",
				"energy": 0.04639,
				"method": "rhf"
			},
			{
				"type": "unocc",
				"energy": 0.06566,
				"method": "rhf"
			},
			{
				"type": "unocc",
				"energy": 0.07819,
				"method": "rhf"
			}
		],
		"cosmo_sigma_profile": { 
			"-0.025": 0.0,
			"-0.024": 0.0,
			"-0.023": 0.0,
			"-0.022": 0.0,
			"-0.021": 0.0,
			"-0.02": 0.0,
			"-0.019": 0.0,
			"-0.018": 0.0,
			"-0.017": 0.0,
			"-0.016": 0.0,
			"-0.015": 0.0,
			"-0.014": 0.0,
			"-0.013": 0.103422766672,
			"-0.012": 0.59688059445,
			"-0.011": 1.1548653033,
			"-0.01": 2.23743428052,
			"-0.009": 2.82028383924,
			"-0.008": 4.0703012647,
			"-0.007": 3.67891253924,
			"-0.006": 5.62794307882,
			"-0.005": 7.88893693465,
			"-0.004": 15.9779861262,
			"-0.003": 38.9403851348,
			"-0.002": 55.4620906474,
			"-0.001": 51.802798979,
			"0.0": 43.8333681975,
			"0.001": 35.8387398539,
			"0.002": 15.1749673132,
			"0.003": 7.20225238387,
			"0.004": 7.52427688206,
			"0.005": 7.65564585711,
			"0.006": 9.7949024738,
			"0.007": 4.21546268189,
			"0.008": 4.20233199773,
			"0.009": 2.81353311316,
			"0.01": 4.18587543157,
			"0.011": 5.73877292849,
			"0.012": 5.22616511548,
			"0.013": 2.51748253546,
			"0.014": 2.06184297156,
			"0.015": 0.833398734315,
			"0.016": 0.0,
			"0.017": 0.0,
			"0.018": 0.0,
			"0.019": 0.0,
			"0.02": 0.0,
			"0.021": 0.0,
			"0.022": 0.0,
			"0.023": 0.0,
			"0.024": 0.0,
			"0.025": 0.0
		}
	}
}
