{
	 "smiles": "CCN(CC(C)=C)C1=C(C=C(C=C1[N+]([O-])=O)C(F)(F)F)[N+]([O-])=O", 
	 "Tm": 328.65, 
	 "num_atms": 37, 
	 "gaussian": { 
		 "optdone": 1, 
		 "sigma_profile": "yes", 
		 "theory": "DFT", 
		 "functional": "B3LYP", 
		 "basiset": "6-31G**", 
		 "properties": { 
			 "R2extent": 7901.7725, 
			 "electric_dipole_moment_norm": 1.97692538554, 
			 "electric_quadrupole_moment_norm": 13.3255509012, 
			 "total_energy": -1268.25485647, 
			 "HOMO_LUMO_gap": 0.13364, 
			 "cosmo_polarized_energy": -11.41, 
			 "cosmo_cavitation_energy": 42.04, 
			 "cosmo_dispersion_energy": -27.54, 
			 "cosmo_repulsion_energy": 2.01, 
			 "cosmo_total_nonelectrostatic_energy": 16.51, 
			 "SMD_solvation_energy": 13.4 
		},
		"coords": [
			{
				"x": -3.3480291499,
				"y": 1.4262809049,
				"z": -0.5347412297,
				"element": "C" 
			},
			{
				"x": -1.8482107956,
				"y": 1.5211610182,
				"z": -0.2335140908,
				"element": "C" 
			},
			{
				"x": -1.0834984016,
				"y": 0.4054852038,
				"z": -0.8192646617,
				"element": "N" 
			},
			{
				"x": -1.1700327131,
				"y": 0.2335415534,
				"z": -2.2814729215,
				"element": "C" 
			},
			{
				"x": -0.7013811724,
				"y": 1.464577438,
				"z": -3.0379502639,
				"element": "C" 
			},
			{
				"x": 0.7471555702,
				"y": 1.8472757845,
				"z": -2.8770567375,
				"element": "C" 
			},
			{
				"x": -1.5445452138,
				"y": 2.1170395238,
				"z": -3.8446662613,
				"element": "C" 
			},
			{
				"x": -0.4345547988,
				"y": -0.5069264913,
				"z": -0.0285910478,
				"element": "C" 
			},
			{
				"x": -0.4657211207,
				"y": -1.9119318739,
				"z": -0.2769671882,
				"element": "C" 
			},
			{
				"x": 0.2616316145,
				"y": -2.841039799,
				"z": 0.4574780457,
				"element": "C" 
			},
			{
				"x": 0.9913263601,
				"y": -2.4347493414,
				"z": 1.5704311341,
				"element": "C" 
			},
			{
				"x": 1.0003676904,
				"y": -1.0850811092,
				"z": 1.9105684951,
				"element": "C" 
			},
			{
				"x": 0.3454270553,
				"y": -0.1524553442,
				"z": 1.1140806684,
				"element": "C" 
			},
			{
				"x": 0.6275412341,
				"y": 1.2490737922,
				"z": 1.4773112294,
				"element": "N" 
			},
			{
				"x": 0.6900659828,
				"y": 1.5123908817,
				"z": 2.6770883839,
				"element": "O" 
			},
			{
				"x": 0.8380410605,
				"y": 2.0571122455,
				"z": 0.5737814964,
				"element": "O" 
			},
			{
				"x": 1.7909678677,
				"y": -3.4286836888,
				"z": 2.3672934431,
				"element": "C" 
			},
			{
				"x": 1.2320152155,
				"y": -4.65647157,
				"z": 2.3287305603,
				"element": "F" 
			},
			{
				"x": 1.8915044467,
				"y": -3.056684839,
				"z": 3.6604361205,
				"element": "F" 
			},
			{
				"x": 3.0498263039,
				"y": -3.5509311903,
				"z": 1.890658043,
				"element": "F" 
			},
			{
				"x": -1.4160263133,
				"y": -2.5072760443,
				"z": -1.2343943539,
				"element": "N" 
			},
			{
				"x": -1.0326732227,
				"y": -3.4870435792,
				"z": -1.8720696838,
				"element": "O" 
			},
			{
				"x": -2.5494786681,
				"y": -2.0318720408,
				"z": -1.2897000248,
				"element": "O" 
			},
			{
				"x": -3.8729764082,
				"y": 2.2097399164,
				"z": 0.0210375237,
				"element": "H" 
			},
			{
				"x": -3.5640946949,
				"y": 1.5757316756,
				"z": -1.5950979497,
				"element": "H" 
			},
			{
				"x": -3.7470517814,
				"y": 0.4542693855,
				"z": -0.2327999776,
				"element": "H" 
			},
			{
				"x": -1.4407399295,
				"y": 2.474517052,
				"z": -0.5838006709,
				"element": "H" 
			},
			{
				"x": -1.7154524355,
				"y": 1.4904063098,
				"z": 0.848534164,
				"element": "H" 
			},
			{
				"x": -0.5161396282,
				"y": -0.6021845207,
				"z": -2.5513172184,
				"element": "H" 
			},
			{
				"x": -2.1854119582,
				"y": -0.0395384518,
				"z": -2.5828684769,
				"element": "H" 
			},
			{
				"x": 1.3996788281,
				"y": 1.0438837531,
				"z": -3.245081933,
				"element": "H" 
			},
			{
				"x": 0.9837892238,
				"y": 2.7561404908,
				"z": -3.4358358674,
				"element": "H" 
			},
			{
				"x": 1.0018000877,
				"y": 2.0051692403,
				"z": -1.8248199175,
				"element": "H" 
			},
			{
				"x": -1.2233692745,
				"y": 2.9742995737,
				"z": -4.4295612202,
				"element": "H" 
			},
			{
				"x": -2.5801657416,
				"y": 1.8089955179,
				"z": -3.9608019887,
				"element": "H" 
			},
			{
				"x": 0.1937895395,
				"y": -3.8869321825,
				"z": 0.1843465523,
				"element": "H" 
			},
			{
				"x": 1.5501253414,
				"y": -0.7313891951,
				"z": 2.7739978254,
				"element": "H" 
			}
		],
		 "valence_orbital": [ 
			{
				"type": "occ",
				"energy": -0.31666,
				"method": "rhf"
			},
			{
				"type": "occ",
				"energy": -0.30425,
				"method": "rhf"
			},
			{
				"type": "occ",
				"energy": -0.2945,
				"method": "rhf"
			},
			{
				"type": "occ",
				"energy": -0.26701,
				"method": "rhf"
			},
			{
				"type": "occ",
				"energy": -0.24032,
				"method": "rhf"
			},
			{
				"type": "unocc",
				"energy": -0.10668,
				"method": "rhf"
			},
			{
				"type": "unocc",
				"energy": -0.09863,
				"method": "rhf"
			},
			{
				"type": "unocc",
				"energy": -0.04598,
				"method": "rhf"
			},
			{
				"type": "unocc",
				"energy": -0.03517,
				"method": "rhf"
			},
			{
				"type": "unocc",
				"energy": 0.00236,
				"method": "rhf"
			}
		],
		"cosmo_sigma_profile": { 
			"-0.025": 0.0,
			"-0.024": 0.0,
			"-0.023": 0.0,
			"-0.022": 0.0,
			"-0.021": 0.0,
			"-0.02": 0.0,
			"-0.019": 0.0,
			"-0.018": 0.0,
			"-0.017": 0.0,
			"-0.016": 0.0,
			"-0.015": 0.0,
			"-0.014": 0.0,
			"-0.013": 0.0,
			"-0.012": 0.0,
			"-0.011": 0.0,
			"-0.01": 0.001523329256,
			"-0.009": 1.90343370365,
			"-0.008": 7.26938795976,
			"-0.007": 9.61928856584,
			"-0.006": 9.83758662419,
			"-0.005": 15.9490280713,
			"-0.004": 24.9196053128,
			"-0.003": 29.6775275175,
			"-0.002": 30.7111801841,
			"-0.001": 28.0047867476,
			"0.0": 29.6796446673,
			"0.001": 27.2049534692,
			"0.002": 36.0117473244,
			"0.003": 25.0627086258,
			"0.004": 9.8553285642,
			"0.005": 9.03060830285,
			"0.006": 8.57869346117,
			"0.007": 14.0395698255,
			"0.008": 9.35853031121,
			"0.009": 6.35403048017,
			"0.01": 1.22920303208,
			"0.011": 0.0,
			"0.012": 0.0,
			"0.013": 0.0,
			"0.014": 0.0,
			"0.015": 0.0,
			"0.016": 0.0,
			"0.017": 0.0,
			"0.018": 0.0,
			"0.019": 0.0,
			"0.02": 0.0,
			"0.021": 0.0,
			"0.022": 0.0,
			"0.023": 0.0,
			"0.024": 0.0,
			"0.025": 0.0
		}
	}
}
