{
	 "smiles": "OC(=O)C1=CC(=CC=C1)S(=O)(=O)NC1=CC=C(Cl)C=C1", 
	 "Tm": 524.15, 
	 "num_atms": 30, 
	 "gaussian": { 
		 "optdone": 1, 
		 "sigma_profile": "yes", 
		 "theory": "DFT", 
		 "functional": "B3LYP", 
		 "basiset": "6-31G**", 
		 "properties": { 
			 "R2extent": 10473.9001, 
			 "electric_dipole_moment_norm": 4.32928501025, 
			 "electric_quadrupole_moment_norm": 32.0314675435, 
			 "total_energy": -1715.36962031, 
			 "HOMO_LUMO_gap": 0.16572, 
			 "cosmo_polarized_energy": -25.32, 
			 "cosmo_cavitation_energy": 39.1, 
			 "cosmo_dispersion_energy": -28.17, 
			 "cosmo_repulsion_energy": 2.11, 
			 "cosmo_total_nonelectrostatic_energy": 13.04, 
			 "SMD_solvation_energy": 6.72 
		},
		"coords": [
			{
				"x": -3.9722445844,
				"y": 0.8047470031,
				"z": -3.7285639243,
				"element": "O" 
			},
			{
				"x": -4.9766632908,
				"y": 1.0115156948,
				"z": -2.8409823709,
				"element": "C" 
			},
			{
				"x": -6.1220826162,
				"y": 1.0657026485,
				"z": -3.2196044056,
				"element": "O" 
			},
			{
				"x": -4.5931541567,
				"y": 1.1671414869,
				"z": -1.3951189092,
				"element": "C" 
			},
			{
				"x": -3.3719728123,
				"y": 0.7266191133,
				"z": -0.8776207276,
				"element": "C" 
			},
			{
				"x": -3.1048756397,
				"y": 0.9024345401,
				"z": 0.4811725733,
				"element": "C" 
			},
			{
				"x": -4.0338689696,
				"y": 1.4868483501,
				"z": 1.3402576218,
				"element": "C" 
			},
			{
				"x": -5.2604327857,
				"y": 1.9098076931,
				"z": 0.8193623484,
				"element": "C" 
			},
			{
				"x": -5.5389327007,
				"y": 1.7467881446,
				"z": -0.5340550596,
				"element": "C" 
			},
			{
				"x": -1.5446614271,
				"y": 0.3110429046,
				"z": 1.1430056633,
				"element": "S" 
			},
			{
				"x": -1.1973103628,
				"y": -0.9588475071,
				"z": 0.5049732927,
				"element": "O" 
			},
			{
				"x": -1.6034439861,
				"y": 0.4320171187,
				"z": 2.6034184389,
				"element": "O" 
			},
			{
				"x": -0.4945884638,
				"y": 1.4995546813,
				"z": 0.4633761445,
				"element": "N" 
			},
			{
				"x": 0.9193584485,
				"y": 1.2690132219,
				"z": 0.5194543258,
				"element": "C" 
			},
			{
				"x": 1.7367667255,
				"y": 2.113800641,
				"z": 1.2790642833,
				"element": "C" 
			},
			{
				"x": 3.1207451118,
				"y": 1.9499644532,
				"z": 1.275948481,
				"element": "C" 
			},
			{
				"x": 3.6814598991,
				"y": 0.9150661837,
				"z": 0.5295782831,
				"element": "C" 
			},
			{
				"x": 5.4234205611,
				"y": 0.6934605775,
				"z": 0.5292061099,
				"element": "Cl" 
			},
			{
				"x": 2.8774183604,
				"y": 0.0551646289,
				"z": -0.2192516896,
				"element": "C" 
			},
			{
				"x": 1.4972048854,
				"y": 0.2399193385,
				"z": -0.2348125259,
				"element": "C" 
			},
			{
				"x": -3.1092439458,
				"y": 0.9415838937,
				"z": -3.3142346018,
				"element": "H" 
			},
			{
				"x": -2.6377287732,
				"y": 0.2124693896,
				"z": -1.4906735515,
				"element": "H" 
			},
			{
				"x": -3.7988210821,
				"y": 1.5883609568,
				"z": 2.3941628702,
				"element": "H" 
			},
			{
				"x": -5.9987446168,
				"y": 2.3589400108,
				"z": 1.4759157459,
				"element": "H" 
			},
			{
				"x": -6.4897298322,
				"y": 2.0558874117,
				"z": -0.9544839475,
				"element": "H" 
			},
			{
				"x": -0.7404780143,
				"y": 2.3942705339,
				"z": 0.8841182694,
				"element": "H" 
			},
			{
				"x": 1.2932953523,
				"y": 2.9052901078,
				"z": 1.8773932051,
				"element": "H" 
			},
			{
				"x": 3.7544725943,
				"y": 2.609952764,
				"z": 1.8574054073,
				"element": "H" 
			},
			{
				"x": 3.3283354998,
				"y": -0.7441118765,
				"z": -0.7965490455,
				"element": "H" 
			},
			{
				"x": 0.8654006222,
				"y": -0.4155041083,
				"z": -0.8208623047,
				"element": "H" 
			}
		],
		 "valence_orbital": [ 
			{
				"type": "occ",
				"energy": -0.30005,
				"method": "rhf"
			},
			{
				"type": "occ",
				"energy": -0.29501,
				"method": "rhf"
			},
			{
				"type": "occ",
				"energy": -0.28671,
				"method": "rhf"
			},
			{
				"type": "occ",
				"energy": -0.27549,
				"method": "rhf"
			},
			{
				"type": "occ",
				"energy": -0.24182,
				"method": "rhf"
			},
			{
				"type": "unocc",
				"energy": -0.0761,
				"method": "rhf"
			},
			{
				"type": "unocc",
				"energy": -0.06444,
				"method": "rhf"
			},
			{
				"type": "unocc",
				"energy": -0.02789,
				"method": "rhf"
			},
			{
				"type": "unocc",
				"energy": -0.02616,
				"method": "rhf"
			},
			{
				"type": "unocc",
				"energy": 0.01884,
				"method": "rhf"
			}
		],
		"cosmo_sigma_profile": { 
			"-0.025": 0.0,
			"-0.024": 0.0,
			"-0.023": 0.0,
			"-0.022": 0.0,
			"-0.021": 0.0,
			"-0.02": 0.311622976073,
			"-0.019": 0.906569435241,
			"-0.018": 1.02741928506,
			"-0.017": 1.16475873956,
			"-0.016": 1.56613118959,
			"-0.015": 2.10881818849,
			"-0.014": 2.87623511183,
			"-0.013": 2.4232047364,
			"-0.012": 2.39059950864,
			"-0.011": 2.45925774081,
			"-0.01": 2.45023091091,
			"-0.009": 3.17788434763,
			"-0.008": 7.14384279758,
			"-0.007": 14.2773442425,
			"-0.006": 15.0257257692,
			"-0.005": 14.405808192,
			"-0.004": 13.3291056748,
			"-0.003": 14.127675813,
			"-0.002": 16.4239314776,
			"-0.001": 19.1574927812,
			"0.0": 25.8159574793,
			"0.001": 25.5777905103,
			"0.002": 22.6929837947,
			"0.003": 24.1879175236,
			"0.004": 15.1163575736,
			"0.005": 11.8436155883,
			"0.006": 6.01852531106,
			"0.007": 6.4371466879,
			"0.008": 6.83444727484,
			"0.009": 9.25289981561,
			"0.01": 12.5305817273,
			"0.011": 10.2432893542,
			"0.012": 2.84729990536,
			"0.013": 0.632986815963,
			"0.014": 0.0,
			"0.015": 0.0,
			"0.016": 0.0,
			"0.017": 0.0,
			"0.018": 0.0,
			"0.019": 0.0,
			"0.02": 0.0,
			"0.021": 0.0,
			"0.022": 0.0,
			"0.023": 0.0,
			"0.024": 0.0,
			"0.0": 0.0
		}
	}
}
