{
	 "smiles": "CC12CCC3C(CC=C4CC(O)CCC34C)C1CCC2=O", 
	 "Tm": 421.15, 
	 "num_atms": 49, 
	 "gaussian": { 
		 "optdone": 1, 
		 "sigma_profile": "yes", 
		 "theory": "DFT", 
		 "functional": "B3LYP", 
		 "basiset": "6-31G**", 
		 "properties": { 
			 "R2extent": 6811.4519, 
			 "electric_dipole_moment_norm": 2.18795118776, 
			 "electric_quadrupole_moment_norm": 23.5441596601, 
			 "total_energy": -891.336827697, 
			 "HOMO_LUMO_gap": 0.21386, 
			 "cosmo_polarized_energy": -11.98, 
			 "cosmo_cavitation_energy": 42.34, 
			 "cosmo_dispersion_energy": -29.84, 
			 "cosmo_repulsion_energy": 2.22, 
			 "cosmo_total_nonelectrostatic_energy": 14.71, 
			 "SMD_solvation_energy": 6.19 
		},
		"coords": [
			{
				"x": -1.2595008415,
				"y": -1.0809357699,
				"z": -4.2550458254,
				"element": "C" 
			},
			{
				"x": -0.2550365652,
				"y": -0.3043055671,
				"z": -3.3818523914,
				"element": "C" 
			},
			{
				"x": 0.8551328122,
				"y": -1.2649045006,
				"z": -2.8853559596,
				"element": "C" 
			},
			{
				"x": 1.4977995071,
				"y": -0.7966099417,
				"z": -1.574977753,
				"element": "C" 
			},
			{
				"x": 0.4715281241,
				"y": -0.8666807204,
				"z": -0.4241970443,
				"element": "C" 
			},
			{
				"x": -0.9242830773,
				"y": -0.2684593506,
				"z": -0.8582978233,
				"element": "C" 
			},
			{
				"x": -1.6306454235,
				"y": 0.5623351394,
				"z": 0.2416336041,
				"element": "C" 
			},
			{
				"x": -1.3614339445,
				"y": 0.0361305084,
				"z": 1.6242577451,
				"element": "C" 
			},
			{
				"x": -0.1456911701,
				"y": -0.3966406423,
				"z": 1.983859652,
				"element": "C" 
			},
			{
				"x": 0.1622778791,
				"y": -0.9393284538,
				"z": 3.3548554636,
				"element": "C" 
			},
			{
				"x": 0.5051676952,
				"y": -2.4419873946,
				"z": 3.2553717678,
				"element": "C" 
			},
			{
				"x": -0.682785127,
				"y": -3.2185045917,
				"z": 3.121704444,
				"element": "O" 
			},
			{
				"x": 1.4936894766,
				"y": -2.7022627961,
				"z": 2.0816197007,
				"element": "C" 
			},
			{
				"x": 2.0888940723,
				"y": -1.414363601,
				"z": 1.4914110872,
				"element": "C" 
			},
			{
				"x": 1.0123083326,
				"y": -0.4066206428,
				"z": 0.9786856832,
				"element": "C" 
			},
			{
				"x": 1.6517734928,
				"y": 1.0015859825,
				"z": 0.9428290904,
				"element": "C" 
			},
			{
				"x": -0.9405509388,
				"y": 0.4780721613,
				"z": -2.2159969328,
				"element": "C" 
			},
			{
				"x": -0.3276198479,
				"y": 1.9088060918,
				"z": -2.2410005072,
				"element": "C" 
			},
			{
				"x": -0.0068303497,
				"y": 2.1701283255,
				"z": -3.7183750864,
				"element": "C" 
			},
			{
				"x": 0.3806470076,
				"y": 0.7999709723,
				"z": -4.2593396562,
				"element": "C" 
			},
			{
				"x": 1.0817333382,
				"y": 0.5879315382,
				"z": -5.2261252488,
				"element": "O" 
			},
			{
				"x": -2.0194707308,
				"y": -0.4193344657,
				"z": -4.6857279891,
				"element": "H" 
			},
			{
				"x": -0.7393836296,
				"y": -1.5789817624,
				"z": -5.078909369,
				"element": "H" 
			},
			{
				"x": -1.7752203812,
				"y": -1.842766783,
				"z": -3.6597619913,
				"element": "H" 
			},
			{
				"x": 1.600539884,
				"y": -1.3689104865,
				"z": -3.6810577598,
				"element": "H" 
			},
			{
				"x": 0.4233185973,
				"y": -2.262606051,
				"z": -2.7279505314,
				"element": "H" 
			},
			{
				"x": 2.357295092,
				"y": -1.4360070226,
				"z": -1.3486729878,
				"element": "H" 
			},
			{
				"x": 1.9004546825,
				"y": 0.2149751835,
				"z": -1.7001917289,
				"element": "H" 
			},
			{
				"x": 0.2787495516,
				"y": -1.93881845,
				"z": -0.2921383439,
				"element": "H" 
			},
			{
				"x": -1.5687123905,
				"y": -1.1433488371,
				"z": -1.0130991056,
				"element": "H" 
			},
			{
				"x": -1.3031364064,
				"y": 1.6096940923,
				"z": 0.1917191944,
				"element": "H" 
			},
			{
				"x": -2.707767588,
				"y": 0.5843809217,
				"z": 0.0378753062,
				"element": "H" 
			},
			{
				"x": -2.1677362554,
				"y": 0.0585505387,
				"z": 2.3560396321,
				"element": "H" 
			},
			{
				"x": -0.6857927965,
				"y": -0.8139802877,
				"z": 4.0350993622,
				"element": "H" 
			},
			{
				"x": 1.0141199342,
				"y": -0.4017863659,
				"z": 3.7937649616,
				"element": "H" 
			},
			{
				"x": 0.9450979617,
				"y": -2.7727402267,
				"z": 4.2021115014,
				"element": "H" 
			},
			{
				"x": -1.1888704782,
				"y": -2.8230282592,
				"z": 2.3960902504,
				"element": "H" 
			},
			{
				"x": 2.2996024076,
				"y": -3.3706349869,
				"z": 2.4038474028,
				"element": "H" 
			},
			{
				"x": 0.9432556044,
				"y": -3.254119457,
				"z": 1.3105744408,
				"element": "H" 
			},
			{
				"x": 2.6951413858,
				"y": -0.9179223855,
				"z": 2.2595451709,
				"element": "H" 
			},
			{
				"x": 2.787512936,
				"y": -1.6599743768,
				"z": 0.6855048158,
				"element": "H" 
			},
			{
				"x": 2.5579744029,
				"y": 1.0130881716,
				"z": 0.3276420876,
				"element": "H" 
			},
			{
				"x": 1.9398212765,
				"y": 1.3119459521,
				"z": 1.9529280071,
				"element": "H" 
			},
			{
				"x": 0.9661827722,
				"y": 1.7580066333,
				"z": 0.5528407985,
				"element": "H" 
			},
			{
				"x": -2.000666639,
				"y": 0.596847496,
				"z": -2.4828335964,
				"element": "H" 
			},
			{
				"x": -1.0098163975,
				"y": 2.6550799142,
				"z": -1.8251059704,
				"element": "H" 
			},
			{
				"x": 0.5926943632,
				"y": 1.9539317646,
				"z": -1.6507258771,
				"element": "H" 
			},
			{
				"x": 0.773345463,
				"y": 2.9106463126,
				"z": -3.9108794068,
				"element": "H" 
			},
			{
				"x": -0.9069070738,
				"y": 2.4951564771,
				"z": -4.2602922842,
				"element": "H" 
			}
		],
		 "valence_orbital": [ 
			{
				"type": "occ",
				"energy": -0.28804,
				"method": "rhf"
			},
			{
				"type": "occ",
				"energy": -0.28321,
				"method": "rhf"
			},
			{
				"type": "occ",
				"energy": -0.26081,
				"method": "rhf"
			},
			{
				"type": "occ",
				"energy": -0.23814,
				"method": "rhf"
			},
			{
				"type": "occ",
				"energy": -0.23201,
				"method": "rhf"
			},
			{
				"type": "unocc",
				"energy": -0.01815,
				"method": "rhf"
			},
			{
				"type": "unocc",
				"energy": 0.0155,
				"method": "rhf"
			},
			{
				"type": "unocc",
				"energy": 0.05753,
				"method": "rhf"
			},
			{
				"type": "unocc",
				"energy": 0.07863,
				"method": "rhf"
			},
			{
				"type": "unocc",
				"energy": 0.08565,
				"method": "rhf"
			}
		],
		"cosmo_sigma_profile": { 
			"-0.025": 0.0,
			"-0.024": 0.0,
			"-0.023": 0.0,
			"-0.022": 0.0,
			"-0.021": 0.0,
			"-0.02": 0.0,
			"-0.019": 0.0,
			"-0.018": 0.0,
			"-0.017": 0.0,
			"-0.016": 0.0,
			"-0.015": 0.0,
			"-0.014": 0.0,
			"-0.013": 0.0,
			"-0.012": 0.0,
			"-0.011": 0.443869162043,
			"-0.01": 0.521178721944,
			"-0.009": 0.612689070483,
			"-0.008": 0.530706176847,
			"-0.007": 1.01529754605,
			"-0.006": 3.38253849129,
			"-0.005": 8.15816096293,
			"-0.004": 15.4348366232,
			"-0.003": 46.946359167,
			"-0.002": 62.7023405758,
			"-0.001": 52.1413610348,
			"0.0": 41.2391136722,
			"0.001": 31.2476511697,
			"0.002": 11.5416778721,
			"0.003": 5.40452880199,
			"0.004": 5.56157069138,
			"0.005": 3.75433814268,
			"0.006": 4.34198815696,
			"0.007": 3.66690181559,
			"0.008": 2.47311973745,
			"0.009": 2.1920538678,
			"0.01": 3.72494566426,
			"0.011": 3.81754943974,
			"0.012": 5.87271692511,
			"0.013": 3.95113237634,
			"0.014": 2.16469320181,
			"0.015": 2.28585497864,
			"0.016": 0.0304461239786,
			"0.017": 0.0,
			"0.018": 0.0,
			"0.019": 0.0,
			"0.02": 0.0,
			"0.021": 0.0,
			"0.022": 0.0,
			"0.023": 0.0,
			"0.024": 0.0,
			"0.025": 0.0
		}
	}
}
