{
	 "smiles": "OC1=NC2=CC=CC=C2N1", 
	 "Tm": 588.15, 
	 "num_atms": 16, 
	 "gaussian": { 
		 "optdone": 1, 
		 "sigma_profile": "yes", 
		 "theory": "DFT", 
		 "functional": "B3LYP", 
		 "basiset": "6-31G**", 
		 "properties": { 
			 "R2extent": 1709.599, 
			 "electric_dipole_moment_norm": 2.24066740281, 
			 "electric_quadrupole_moment_norm": 7.09381988917, 
			 "total_energy": -455.09892639, 
			 "HOMO_LUMO_gap": 0.21025, 
			 "cosmo_polarized_energy": -12.77, 
			 "cosmo_cavitation_energy": 20.22, 
			 "cosmo_dispersion_energy": -15.66, 
			 "cosmo_repulsion_energy": 1.26, 
			 "cosmo_total_nonelectrostatic_energy": 5.82, 
			 "SMD_solvation_energy": 1.82 
		},
		"coords": [
			{
				"x": 2.4298144052,
				"y": 1.9928144498,
				"z": -1.1500132333,
				"element": "O" 
			},
			{
				"x": 1.196406398,
				"y": 1.5013988851,
				"z": -0.9560982418,
				"element": "C" 
			},
			{
				"x": 0.638743658,
				"y": 0.5254200501,
				"z": -1.6163805673,
				"element": "N" 
			},
			{
				"x": -0.6248575028,
				"y": 0.4060332605,
				"z": -1.0366449925,
				"element": "C" 
			},
			{
				"x": -1.6686431166,
				"y": -0.4739945863,
				"z": -1.3331255385,
				"element": "C" 
			},
			{
				"x": -2.8435879272,
				"y": -0.3768241177,
				"z": -0.5875083974,
				"element": "C" 
			},
			{
				"x": -2.9865074449,
				"y": 0.5753396273,
				"z": 0.4362729295,
				"element": "C" 
			},
			{
				"x": -1.9560558113,
				"y": 1.4647243099,
				"z": 0.749410102,
				"element": "C" 
			},
			{
				"x": -0.7886811106,
				"y": 1.3593583999,
				"z": -0.000162661,
				"element": "C" 
			},
			{
				"x": 0.4184624681,
				"y": 2.0567384347,
				"z": 0.0248155527,
				"element": "N" 
			},
			{
				"x": 2.8144100343,
				"y": 1.4767903224,
				"z": -1.8745594283,
				"element": "H" 
			},
			{
				"x": -1.5562778729,
				"y": -1.2084852998,
				"z": -2.1240329399,
				"element": "H" 
			},
			{
				"x": -3.6677416177,
				"y": -1.0511015842,
				"z": -0.8011862214,
				"element": "H" 
			},
			{
				"x": -3.9156666806,
				"y": 0.6222027396,
				"z": 0.996183546,
				"element": "H" 
			},
			{
				"x": -2.0664527459,
				"y": 2.2004684973,
				"z": 1.5404834676,
				"element": "H" 
			},
			{
				"x": 0.6880348668,
				"y": 2.8162166113,
				"z": 0.6294466236,
				"element": "H" 
			}
		],
		 "valence_orbital": [ 
			{
				"type": "occ",
				"energy": -0.32312,
				"method": "rhf"
			},
			{
				"type": "occ",
				"energy": -0.29938,
				"method": "rhf"
			},
			{
				"type": "occ",
				"energy": -0.27931,
				"method": "rhf"
			},
			{
				"type": "occ",
				"energy": -0.22453,
				"method": "rhf"
			},
			{
				"type": "occ",
				"energy": -0.2108,
				"method": "rhf"
			},
			{
				"type": "unocc",
				"energy": -0.00055,
				"method": "rhf"
			},
			{
				"type": "unocc",
				"energy": 0.02573,
				"method": "rhf"
			},
			{
				"type": "unocc",
				"energy": 0.06669,
				"method": "rhf"
			},
			{
				"type": "unocc",
				"energy": 0.07236,
				"method": "rhf"
			},
			{
				"type": "unocc",
				"energy": 0.08563,
				"method": "rhf"
			}
		],
		"cosmo_sigma_profile": { 
			"-0.025": 0.0,
			"-0.024": 0.0,
			"-0.023": 0.0,
			"-0.022": 0.0,
			"-0.021": 0.0,
			"-0.02": 0.0,
			"-0.019": 0.403212507368,
			"-0.018": 0.748368347676,
			"-0.017": 1.54986489181,
			"-0.016": 2.68635107717,
			"-0.015": 1.43526535349,
			"-0.014": 1.41274391374,
			"-0.013": 1.82542026998,
			"-0.012": 1.98569168682,
			"-0.011": 1.54364742299,
			"-0.01": 1.86676511462,
			"-0.009": 1.30355740649,
			"-0.008": 2.32169780911,
			"-0.007": 2.90991406613,
			"-0.006": 4.66448228096,
			"-0.005": 8.10665122186,
			"-0.004": 8.73788641559,
			"-0.003": 9.74998495995,
			"-0.002": 8.15488390861,
			"-0.001": 7.32101431952,
			"0.0": 11.5660131466,
			"0.001": 9.42457612968,
			"0.002": 9.56506326557,
			"0.003": 9.65081292569,
			"0.004": 10.5213269111,
			"0.005": 11.551984597,
			"0.006": 11.7238030798,
			"0.007": 5.75935238768,
			"0.008": 3.03604342664,
			"0.009": 2.95417628701,
			"0.01": 0.885466608673,
			"0.011": 1.41389397073,
			"0.012": 0.987695989616,
			"0.013": 0.991948826887,
			"0.014": 0.943568941668,
			"0.015": 0.754275682859,
			"0.016": 1.20169581423,
			"0.017": 0.405773948634,
			"0.018": 0.0,
			"0.019": 0.0,
			"0.02": 0.0,
			"0.021": 0.0,
			"0.022": 0.0,
			"0.023": 0.0,
			"0.024": 0.0,
			"0.025": 0.0
		}
	}
}
