{
	 "smiles": "O=C1NNC(=O)N1", 
	 "Tm": 523.15, 
	 "num_atms": 10, 
	 "gaussian": { 
		 "optdone": 1, 
		 "sigma_profile": "yes", 
		 "theory": "DFT", 
		 "functional": "B3LYP", 
		 "basiset": "6-31G**", 
		 "properties": { 
			 "R2extent": 722.5536, 
			 "electric_dipole_moment_norm": 1.73125744475, 
			 "electric_quadrupole_moment_norm": 14.7017917547, 
			 "total_energy": -392.727234025, 
			 "HOMO_LUMO_gap": 0.26044, 
			 "cosmo_polarized_energy": -17.17, 
			 "cosmo_cavitation_energy": 14.88, 
			 "cosmo_dispersion_energy": -11.58, 
			 "cosmo_repulsion_energy": 1.01, 
			 "cosmo_total_nonelectrostatic_energy": 4.31, 
			 "SMD_solvation_energy": 4.53 
		},
		"coords": [
			{
				"x": -2.0575138532,
				"y": -1.1417803267,
				"z": 1.0422574234,
				"element": "O" 
			},
			{
				"x": -1.1594269793,
				"y": -0.9013121396,
				"z": 0.2681455938,
				"element": "C" 
			},
			{
				"x": -1.2382808304,
				"y": -0.8915472083,
				"z": -1.1363641953,
				"element": "N" 
			},
			{
				"x": -0.0528892229,
				"y": -0.2717012063,
				"z": -1.6351217037,
				"element": "N" 
			},
			{
				"x": 0.8905460898,
				"y": -0.2474190464,
				"z": -0.5918982062,
				"element": "C" 
			},
			{
				"x": 2.0714198871,
				"y": -0.0029752529,
				"z": -0.6889432456,
				"element": "O" 
			},
			{
				"x": 0.1628254435,
				"y": -0.5701816498,
				"z": 0.5498596972,
				"element": "N" 
			},
			{
				"x": -2.0897555839,
				"y": -0.462092805,
				"z": -1.48539851,
				"element": "H" 
			},
			{
				"x": 0.2992377112,
				"y": -0.7082917101,
				"z": -2.4816814219,
				"element": "H" 
			},
			{
				"x": 0.5515373381,
				"y": -0.564698655,
				"z": 1.4805445682,
				"element": "H" 
			}
		],
		 "valence_orbital": [ 
			{
				"type": "occ",
				"energy": -0.3735,
				"method": "rhf"
			},
			{
				"type": "occ",
				"energy": -0.30829,
				"method": "rhf"
			},
			{
				"type": "occ",
				"energy": -0.30168,
				"method": "rhf"
			},
			{
				"type": "occ",
				"energy": -0.28112,
				"method": "rhf"
			},
			{
				"type": "occ",
				"energy": -0.26066,
				"method": "rhf"
			},
			{
				"type": "unocc",
				"energy": -0.00022,
				"method": "rhf"
			},
			{
				"type": "unocc",
				"energy": 0.03585,
				"method": "rhf"
			},
			{
				"type": "unocc",
				"energy": 0.06514,
				"method": "rhf"
			},
			{
				"type": "unocc",
				"energy": 0.0901,
				"method": "rhf"
			},
			{
				"type": "unocc",
				"energy": 0.0975,
				"method": "rhf"
			}
		],
		"cosmo_sigma_profile": { 
			"-0.025": 0.0,
			"-0.024": 0.0,
			"-0.023": 0.0,
			"-0.022": 0.0,
			"-0.021": 0.0,
			"-0.02": 0.0,
			"-0.019": 0.0,
			"-0.018": 0.265230401882,
			"-0.017": 1.26372010035,
			"-0.016": 4.20902260489,
			"-0.015": 3.28437231417,
			"-0.014": 2.6410036658,
			"-0.013": 3.21118598876,
			"-0.012": 2.84512157476,
			"-0.011": 3.11085465492,
			"-0.01": 2.92237697048,
			"-0.009": 2.77984225704,
			"-0.008": 3.36240261264,
			"-0.007": 2.2224548323,
			"-0.006": 2.41256171979,
			"-0.005": 4.02278189145,
			"-0.004": 4.96830741319,
			"-0.003": 5.30942389046,
			"-0.002": 5.10483633526,
			"-0.001": 3.37101034708,
			"0.0": 3.0803225494,
			"0.001": 2.88179140991,
			"0.002": 3.78865415185,
			"0.003": 3.29572986895,
			"0.004": 3.77997159398,
			"0.005": 4.41322260222,
			"0.006": 3.49638735166,
			"0.007": 3.0798182803,
			"0.008": 3.79655303295,
			"0.009": 3.48265817387,
			"0.01": 3.04795327069,
			"0.011": 6.1147447287,
			"0.012": 13.4452465289,
			"0.013": 3.52548738636,
			"0.014": 0.0,
			"0.015": 0.0,
			"0.016": 0.0,
			"0.017": 0.0,
			"0.018": 0.0,
			"0.019": 0.0,
			"0.02": 0.0,
			"0.021": 0.0,
			"0.022": 0.0,
			"0.023": 0.0,
			"0.024": 0.0,
			"0.025": 0.0
		}
	}
}
