{
	 "smiles": "OC(=O)C1=CC(OC(F)F)=CC=C1", 
	 "Tm": 378.15, 
	 "num_atms": 19, 
	 "gaussian": { 
		 "optdone": 1, 
		 "sigma_profile": "yes", 
		 "theory": "DFT", 
		 "functional": "B3LYP", 
		 "basiset": "6-31G**", 
		 "properties": { 
			 "R2extent": 4593.3483, 
			 "electric_dipole_moment_norm": 4.97523955303, 
			 "electric_quadrupole_moment_norm": 20.7076852601, 
			 "total_energy": -733.818313872, 
			 "HOMO_LUMO_gap": 0.20157, 
			 "cosmo_polarized_energy": -14.07, 
			 "cosmo_cavitation_energy": 24.83, 
			 "cosmo_dispersion_energy": -17.98, 
			 "cosmo_repulsion_energy": 1.39, 
			 "cosmo_total_nonelectrostatic_energy": 8.25, 
			 "SMD_solvation_energy": 6.79 
		},
		"coords": [
			{
				"x": -0.439445127,
				"y": -3.423035433,
				"z": -3.6739578819,
				"element": "O" 
			},
			{
				"x": 0.5693779523,
				"y": -2.8814549038,
				"z": -2.9414120778,
				"element": "C" 
			},
			{
				"x": 1.718490511,
				"y": -3.142724553,
				"z": -3.207360335,
				"element": "O" 
			},
			{
				"x": 0.1749403479,
				"y": -1.9651064147,
				"z": -1.8186853905,
				"element": "C" 
			},
			{
				"x": -1.0969690632,
				"y": -2.0156839427,
				"z": -1.229840147,
				"element": "C" 
			},
			{
				"x": -1.396436687,
				"y": -1.1386810584,
				"z": -0.18702414,
				"element": "C" 
			},
			{
				"x": -2.611516887,
				"y": -1.1083841493,
				"z": 0.492358766,
				"element": "O" 
			},
			{
				"x": -3.738931188,
				"y": -1.6539923499,
				"z": -0.0552148781,
				"element": "C" 
			},
			{
				"x": -3.6480376297,
				"y": -3.0123027513,
				"z": -0.1548540693,
				"element": "F" 
			},
			{
				"x": -3.9617067246,
				"y": -1.1890644366,
				"z": -1.3122243415,
				"element": "F" 
			},
			{
				"x": -0.4468775671,
				"y": -0.2273646512,
				"z": 0.2759863253,
				"element": "C" 
			},
			{
				"x": 0.8213745997,
				"y": -0.2009793874,
				"z": -0.3020325762,
				"element": "C" 
			},
			{
				"x": 1.139006993,
				"y": -1.0689575334,
				"z": -1.3443297717,
				"element": "C" 
			},
			{
				"x": -1.2800423363,
				"y": -2.9960754584,
				"z": -3.4576622527,
				"element": "H" 
			},
			{
				"x": -1.8267798927,
				"y": -2.7541150669,
				"z": -1.5359577876,
				"element": "H" 
			},
			{
				"x": -4.5794825622,
				"y": -1.3979795562,
				"z": 0.5930039923,
				"element": "H" 
			},
			{
				"x": -0.7157754509,
				"y": 0.4410893383,
				"z": 1.0868389047,
				"element": "H" 
			},
			{
				"x": 1.5613998374,
				"y": 0.5037068172,
				"z": 0.0642125369,
				"element": "H" 
			},
			{
				"x": 2.1208108746,
				"y": -1.0706945094,
				"z": -1.8036448759,
				"element": "H" 
			}
		],
		 "valence_orbital": [ 
			{
				"type": "occ",
				"energy": -0.36072,
				"method": "rhf"
			},
			{
				"type": "occ",
				"energy": -0.31819,
				"method": "rhf"
			},
			{
				"type": "occ",
				"energy": -0.28218,
				"method": "rhf"
			},
			{
				"type": "occ",
				"energy": -0.27437,
				"method": "rhf"
			},
			{
				"type": "occ",
				"energy": -0.25777,
				"method": "rhf"
			},
			{
				"type": "unocc",
				"energy": -0.0562,
				"method": "rhf"
			},
			{
				"type": "unocc",
				"energy": -0.02389,
				"method": "rhf"
			},
			{
				"type": "unocc",
				"energy": 0.0441,
				"method": "rhf"
			},
			{
				"type": "unocc",
				"energy": 0.05923,
				"method": "rhf"
			},
			{
				"type": "unocc",
				"energy": 0.08969,
				"method": "rhf"
			}
		],
		"cosmo_sigma_profile": { 
			"-0.025": 0.0,
			"-0.024": 0.0,
			"-0.023": 0.0,
			"-0.022": 0.0,
			"-0.021": 0.0,
			"-0.02": 0.0,
			"-0.019": 0.197420343778,
			"-0.018": 0.791390675811,
			"-0.017": 1.06726099853,
			"-0.016": 1.11312722818,
			"-0.015": 0.510481411474,
			"-0.014": 1.01156536665,
			"-0.013": 0.948202920497,
			"-0.012": 1.53927735435,
			"-0.011": 3.47500477934,
			"-0.01": 3.25556535697,
			"-0.009": 2.1365564016,
			"-0.008": 3.97320348897,
			"-0.007": 7.14794779751,
			"-0.006": 8.30803454035,
			"-0.005": 9.1909803907,
			"-0.004": 8.07059496011,
			"-0.003": 9.10489405148,
			"-0.002": 8.02498031512,
			"-0.001": 10.4265462445,
			"0.0": 13.5352633721,
			"0.001": 19.1870620116,
			"0.002": 22.1935029661,
			"0.003": 23.3299583373,
			"0.004": 8.66984702944,
			"0.005": 3.55412983023,
			"0.006": 3.59857109586,
			"0.007": 3.25375236378,
			"0.008": 2.69442795329,
			"0.009": 3.59043099422,
			"0.01": 4.77567146297,
			"0.011": 5.73746677049,
			"0.012": 4.13086095594,
			"0.013": 0.995000465852,
			"0.014": 0.0,
			"0.015": 0.0,
			"0.016": 0.0,
			"0.017": 0.0,
			"0.018": 0.0,
			"0.019": 0.0,
			"0.02": 0.0,
			"0.021": 0.0,
			"0.022": 0.0,
			"0.023": 0.0,
			"0.024": 0.0,
			"0.025": 0.0
		}
	}
}
