{
	 "smiles": "CC(=O)NC1=CC(F)=C(C(F)=C1)S(Cl)(=O)=O", 
	 "Tm": 407.15, 
	 "num_atms": 22, 
	 "gaussian": { 
		 "optdone": 1, 
		 "sigma_profile": "yes", 
		 "theory": "DFT", 
		 "functional": "B3LYP", 
		 "basiset": "6-31G**", 
		 "properties": { 
			 "R2extent": 7071.7657, 
			 "electric_dipole_moment_norm": 8.9884853585, 
			 "electric_quadrupole_moment_norm": 17.8405796565, 
			 "total_energy": -1646.87502868, 
			 "HOMO_LUMO_gap": 0.17833, 
			 "cosmo_polarized_energy": -19.29, 
			 "cosmo_cavitation_energy": 31.4, 
			 "cosmo_dispersion_energy": -23.25, 
			 "cosmo_repulsion_energy": 1.73, 
			 "cosmo_total_nonelectrostatic_energy": 9.88, 
			 "SMD_solvation_energy": 5.78 
		},
		"coords": [
			{
				"x": 3.5267826508,
				"y": 3.1737874046,
				"z": -0.9221722796,
				"element": "C" 
			},
			{
				"x": 2.9009248544,
				"y": 1.7931004007,
				"z": -1.014852908,
				"element": "C" 
			},
			{
				"x": 3.5548591224,
				"y": 0.7659181442,
				"z": -1.0053103851,
				"element": "O" 
			},
			{
				"x": 1.5135589634,
				"y": 1.8163708261,
				"z": -1.1379671224,
				"element": "N" 
			},
			{
				"x": 0.6346563615,
				"y": 0.7422144246,
				"z": -1.2862306642,
				"element": "C" 
			},
			{
				"x": -0.733761185,
				"y": 1.0395583842,
				"z": -1.4047867643,
				"element": "C" 
			},
			{
				"x": -1.6563157974,
				"y": 0.0186071612,
				"z": -1.5546603429,
				"element": "C" 
			},
			{
				"x": -2.9395033351,
				"y": 0.3604222596,
				"z": -1.6684116667,
				"element": "F" 
			},
			{
				"x": -1.2644196823,
				"y": -1.3306642075,
				"z": -1.5774646541,
				"element": "C" 
			},
			{
				"x": 0.1132325689,
				"y": -1.589367555,
				"z": -1.4698333918,
				"element": "C" 
			},
			{
				"x": 0.5364621642,
				"y": -2.8532357652,
				"z": -1.5286923162,
				"element": "F" 
			},
			{
				"x": 1.0633985861,
				"y": -0.5947253971,
				"z": -1.3224526608,
				"element": "C" 
			},
			{
				"x": -2.4222785997,
				"y": -2.6764760296,
				"z": -1.7195289313,
				"element": "S" 
			},
			{
				"x": -2.0112015626,
				"y": -3.3515078014,
				"z": -3.6990169512,
				"element": "Cl" 
			},
			{
				"x": -3.7803351478,
				"y": -2.1592187145,
				"z": -1.7419659936,
				"element": "O" 
			},
			{
				"x": -2.0210365564,
				"y": -3.7509891537,
				"z": -0.8254658344,
				"element": "O" 
			},
			{
				"x": 2.953418611,
				"y": 3.8502674854,
				"z": -0.2805305022,
				"element": "H" 
			},
			{
				"x": 4.5370115274,
				"y": 3.0674806909,
				"z": -0.5279436263,
				"element": "H" 
			},
			{
				"x": 3.5888043706,
				"y": 3.6217849994,
				"z": -1.9203889512,
				"element": "H" 
			},
			{
				"x": 1.0810168836,
				"y": 2.7294048948,
				"z": -1.1302635703,
				"element": "H" 
			},
			{
				"x": -1.1008634059,
				"y": 2.0601460281,
				"z": -1.3839943346,
				"element": "H" 
			},
			{
				"x": 2.109188608,
				"y": -0.8504784798,
				"z": -1.2417661486,
				"element": "H" 
			}
		],
		 "valence_orbital": [ 
			{
				"type": "occ",
				"energy": -0.32503,
				"method": "rhf"
			},
			{
				"type": "occ",
				"energy": -0.30971,
				"method": "rhf"
			},
			{
				"type": "occ",
				"energy": -0.28792,
				"method": "rhf"
			},
			{
				"type": "occ",
				"energy": -0.28039,
				"method": "rhf"
			},
			{
				"type": "occ",
				"energy": -0.26684,
				"method": "rhf"
			},
			{
				"type": "unocc",
				"energy": -0.08851,
				"method": "rhf"
			},
			{
				"type": "unocc",
				"energy": -0.05548,
				"method": "rhf"
			},
			{
				"type": "unocc",
				"energy": -0.03364,
				"method": "rhf"
			},
			{
				"type": "unocc",
				"energy": -0.00036,
				"method": "rhf"
			},
			{
				"type": "unocc",
				"energy": 0.02935,
				"method": "rhf"
			}
		],
		"cosmo_sigma_profile": { 
			"-0.025": 0.0,
			"-0.024": 0.0,
			"-0.023": 0.0,
			"-0.022": 0.0,
			"-0.021": 0.0,
			"-0.02": 0.0,
			"-0.019": 0.0,
			"-0.018": 0.0,
			"-0.017": 0.629971412901,
			"-0.016": 1.68985710036,
			"-0.015": 1.7322885166,
			"-0.014": 1.42070911623,
			"-0.013": 1.21944061218,
			"-0.012": 2.05241121851,
			"-0.011": 1.57609044035,
			"-0.01": 2.4679713778,
			"-0.009": 2.63106824306,
			"-0.008": 2.85062381245,
			"-0.007": 6.46020317925,
			"-0.006": 8.10493232943,
			"-0.005": 10.6701260205,
			"-0.004": 10.7859116988,
			"-0.003": 18.8341673244,
			"-0.002": 25.7871961701,
			"-0.001": 24.6605455542,
			"0.0": 16.1235736841,
			"0.001": 13.1503740127,
			"0.002": 21.6245334694,
			"0.003": 23.5005101315,
			"0.004": 10.5923487045,
			"0.005": 5.59496872282,
			"0.006": 5.8585936265,
			"0.007": 10.7474245742,
			"0.008": 12.3815018476,
			"0.009": 4.05267408746,
			"0.01": 2.0391691092,
			"0.011": 2.20656979158,
			"0.012": 2.37787675501,
			"0.013": 1.24048574442,
			"0.014": 0.0371077997629,
			"0.015": 0.0,
			"0.016": 0.0,
			"0.017": 0.0,
			"0.018": 0.0,
			"0.019": 0.0,
			"0.02": 0.0,
			"0.021": 0.0,
			"0.022": 0.0,
			"0.023": 0.0,
			"0.024": 0.0,
			"0.025": 0.0
		}
	}
}
