{
	 "smiles": "CCCCCCCCCCCCCCC#C", 
	 "Tm": 288.15, 
	 "num_atms": 46, 
	 "gaussian": { 
		 "optdone": 1, 
		 "sigma_profile": "yes", 
		 "theory": "DFT", 
		 "functional": "B3LYP", 
		 "basiset": "6-31G**", 
		 "properties": { 
			 "R2extent": 6646.0295, 
			 "electric_dipole_moment_norm": 0.683693922746, 
			 "electric_quadrupole_moment_norm": 5.83368328931, 
			 "total_energy": -627.748832561, 
			 "HOMO_LUMO_gap": 0.31218, 
			 "cosmo_polarized_energy": -4.0, 
			 "cosmo_cavitation_energy": 45.94, 
			 "cosmo_dispersion_energy": -29.21, 
			 "cosmo_repulsion_energy": 2.38, 
			 "cosmo_total_nonelectrostatic_energy": 19.12, 
			 "SMD_solvation_energy": 7.45 
		},
		"coords": [
			{
				"x": 2.5058808801,
				"y": 2.8555171982,
				"z": -3.5930054818,
				"element": "C" 
			},
			{
				"x": 2.5551943658,
				"y": 3.2860436612,
				"z": -2.1234001947,
				"element": "C" 
			},
			{
				"x": 1.2522285409,
				"y": 3.0024529628,
				"z": -1.3650915648,
				"element": "C" 
			},
			{
				"x": 1.2892850507,
				"y": 3.4610512172,
				"z": 0.1010190065,
				"element": "C" 
			},
			{
				"x": -0.0016631659,
				"y": 3.1891207451,
				"z": 0.9068944736,
				"element": "C" 
			},
			{
				"x": -0.0292074947,
				"y": 1.8791785232,
				"z": 1.7164213816,
				"element": "C" 
			},
			{
				"x": 0.066055478,
				"y": 0.5845927978,
				"z": 0.896194353,
				"element": "C" 
			},
			{
				"x": -0.0106545128,
				"y": -0.7035608282,
				"z": 1.736692175,
				"element": "C" 
			},
			{
				"x": -1.3448577039,
				"y": -0.9635376399,
				"z": 2.4606334371,
				"element": "C" 
			},
			{
				"x": -2.6075380499,
				"y": -1.1215825636,
				"z": 1.5904850492,
				"element": "C" 
			},
			{
				"x": -2.6480164309,
				"y": -2.3558583067,
				"z": 0.6625993247,
				"element": "C" 
			},
			{
				"x": -2.0548796197,
				"y": -2.152657696,
				"z": -0.7401115351,
				"element": "C" 
			},
			{
				"x": -2.1688885088,
				"y": -3.4028442869,
				"z": -1.6195692003,
				"element": "C" 
			},
			{
				"x": -1.5806964767,
				"y": -3.2218054682,
				"z": -3.0369911133,
				"element": "C" 
			},
			{
				"x": -0.1393244572,
				"y": -2.9643601931,
				"z": -3.0471821803,
				"element": "C" 
			},
			{
				"x": 1.051333303,
				"y": -2.7583124539,
				"z": -3.0416049604,
				"element": "C" 
			},
			{
				"x": 2.3106683518,
				"y": 1.7809080672,
				"z": -3.6849142834,
				"element": "H" 
			},
			{
				"x": 3.4501738665,
				"y": 3.067186349,
				"z": -4.1056056534,
				"element": "H" 
			},
			{
				"x": 1.7097945365,
				"y": 3.3808993341,
				"z": -4.1330681491,
				"element": "H" 
			},
			{
				"x": 3.3856640938,
				"y": 2.7727106268,
				"z": -1.6192672731,
				"element": "H" 
			},
			{
				"x": 2.7832144376,
				"y": 4.3592757995,
				"z": -2.0632432652,
				"element": "H" 
			},
			{
				"x": 1.0286101347,
				"y": 1.9299233832,
				"z": -1.4231626778,
				"element": "H" 
			},
			{
				"x": 0.4204322575,
				"y": 3.5102532678,
				"z": -1.8745668745,
				"element": "H" 
			},
			{
				"x": 2.1438879889,
				"y": 2.9933564537,
				"z": 0.6111444819,
				"element": "H" 
			},
			{
				"x": 1.4955703045,
				"y": 4.5396149163,
				"z": 0.1101475314,
				"element": "H" 
			},
			{
				"x": -0.8657195498,
				"y": 3.216182235,
				"z": 0.2277279121,
				"element": "H" 
			},
			{
				"x": -0.1565315165,
				"y": 4.013062417,
				"z": 1.6147053822,
				"element": "H" 
			},
			{
				"x": -0.9542986506,
				"y": 1.8684855752,
				"z": 2.3071035253,
				"element": "H" 
			},
			{
				"x": 0.7928861141,
				"y": 1.8967100409,
				"z": 2.4471074895,
				"element": "H" 
			},
			{
				"x": -0.7202525659,
				"y": 0.5799656086,
				"z": 0.1296191887,
				"element": "H" 
			},
			{
				"x": 1.0165473511,
				"y": 0.5723848163,
				"z": 0.3492182242,
				"element": "H" 
			},
			{
				"x": 0.2279717948,
				"y": -1.5603424662,
				"z": 1.0949600934,
				"element": "H" 
			},
			{
				"x": 0.7855286719,
				"y": -0.6735274559,
				"z": 2.4938346604,
				"element": "H" 
			},
			{
				"x": -1.5266730739,
				"y": -0.1540740823,
				"z": 3.1793390777,
				"element": "H" 
			},
			{
				"x": -1.2313940269,
				"y": -1.8730302159,
				"z": 3.066760316,
				"element": "H" 
			},
			{
				"x": -2.7758821972,
				"y": -0.2133063107,
				"z": 0.9961518253,
				"element": "H" 
			},
			{
				"x": -3.4605351935,
				"y": -1.1814985414,
				"z": 2.2782234749,
				"element": "H" 
			},
			{
				"x": -3.6940768533,
				"y": -2.6693062952,
				"z": 0.5426024607,
				"element": "H" 
			},
			{
				"x": -2.1416496662,
				"y": -3.1980410831,
				"z": 1.1560587918,
				"element": "H" 
			},
			{
				"x": -1.0017293778,
				"y": -1.8599130921,
				"z": -0.6777209853,
				"element": "H" 
			},
			{
				"x": -2.5761719777,
				"y": -1.3182088938,
				"z": -1.2314967925,
				"element": "H" 
			},
			{
				"x": -3.2239874405,
				"y": -3.6874621402,
				"z": -1.7243569165,
				"element": "H" 
			},
			{
				"x": -1.6637445269,
				"y": -4.2458246091,
				"z": -1.1317799547,
				"element": "H" 
			},
			{
				"x": -2.0977622105,
				"y": -2.3947883595,
				"z": -3.5429342125,
				"element": "H" 
			},
			{
				"x": -1.7865871511,
				"y": -4.119891034,
				"z": -3.6337103847,
				"element": "H" 
			},
			{
				"x": 2.1009948765,
				"y": -2.5776419797,
				"z": -3.0439599829,
				"element": "H" 
			}
		],
		 "valence_orbital": [ 
			{
				"type": "occ",
				"energy": -0.30201,
				"method": "rhf"
			},
			{
				"type": "occ",
				"energy": -0.29555,
				"method": "rhf"
			},
			{
				"type": "occ",
				"energy": -0.29055,
				"method": "rhf"
			},
			{
				"type": "occ",
				"energy": -0.25859,
				"method": "rhf"
			},
			{
				"type": "occ",
				"energy": -0.25732,
				"method": "rhf"
			},
			{
				"type": "unocc",
				"energy": 0.05486,
				"method": "rhf"
			},
			{
				"type": "unocc",
				"energy": 0.06099,
				"method": "rhf"
			},
			{
				"type": "unocc",
				"energy": 0.0807,
				"method": "rhf"
			},
			{
				"type": "unocc",
				"energy": 0.09602,
				"method": "rhf"
			},
			{
				"type": "unocc",
				"energy": 0.09887,
				"method": "rhf"
			}
		],
		"cosmo_sigma_profile": { 
			"-0.025": 0.0,
			"-0.024": 0.0,
			"-0.023": 0.0,
			"-0.022": 0.0,
			"-0.021": 0.0,
			"-0.02": 0.0,
			"-0.019": 0.0,
			"-0.018": 0.0,
			"-0.017": 0.0,
			"-0.016": 0.0,
			"-0.015": 0.0,
			"-0.014": 0.0,
			"-0.013": 0.0,
			"-0.012": 0.0,
			"-0.011": 0.545204978289,
			"-0.01": 1.2540827826,
			"-0.009": 1.01897146264,
			"-0.008": 0.877435277774,
			"-0.007": 1.61593089492,
			"-0.006": 1.01412614275,
			"-0.005": 4.11308838111,
			"-0.004": 6.15257806188,
			"-0.003": 12.0817921415,
			"-0.002": 42.3990834617,
			"-0.001": 78.2642186914,
			"0.0": 79.9885778543,
			"0.001": 63.4689513733,
			"0.002": 29.9827827882,
			"0.003": 5.42262787402,
			"0.004": 4.1169420943,
			"0.005": 4.79219865518,
			"0.006": 5.55877483057,
			"0.007": 6.53759491531,
			"0.008": 4.55565876037,
			"0.009": 0.0826195548894,
			"0.01": 0.0,
			"0.011": 0.0,
			"0.012": 0.0,
			"0.013": 0.0,
			"0.014": 0.0,
			"0.015": 0.0,
			"0.016": 0.0,
			"0.017": 0.0,
			"0.018": 0.0,
			"0.019": 0.0,
			"0.02": 0.0,
			"0.021": 0.0,
			"0.022": 0.0,
			"0.023": 0.0,
			"0.024": 0.0,
			"0.025": 0.0
		}
	}
}
