{
	 "smiles": "ClC1=CNC=C(Cl)C1=O", 
	 "Tm": 595.65, 
	 "num_atms": 12, 
	 "gaussian": { 
		 "optdone": 1, 
		 "sigma_profile": "yes", 
		 "theory": "DFT", 
		 "functional": "B3LYP", 
		 "basiset": "6-31G**", 
		 "properties": { 
			 "R2extent": 2320.6881, 
			 "electric_dipole_moment_norm": 7.76797554643, 
			 "electric_quadrupole_moment_norm": 12.9439560305, 
			 "total_energy": -1242.67860959, 
			 "HOMO_LUMO_gap": 0.19409, 
			 "cosmo_polarized_energy": -23.92, 
			 "cosmo_cavitation_energy": 20.33, 
			 "cosmo_dispersion_energy": -15.63, 
			 "cosmo_repulsion_energy": 1.29, 
			 "cosmo_total_nonelectrostatic_energy": 5.99, 
			 "SMD_solvation_energy": 4.15 
		},
		"coords": [
			{
				"x": 1.0037837927,
				"y": 1.4395552925,
				"z": 0.2420321762,
				"element": "Cl" 
			},
			{
				"x": 0.284764155,
				"y": -0.0896952222,
				"z": 0.651619045,
				"element": "C" 
			},
			{
				"x": -0.899032676,
				"y": -0.1141885215,
				"z": 1.3212550846,
				"element": "C" 
			},
			{
				"x": -1.4841211342,
				"y": -1.3066974611,
				"z": 1.6545149476,
				"element": "N" 
			},
			{
				"x": -0.9010857705,
				"y": -2.5018406329,
				"z": 1.3271434809,
				"element": "C" 
			},
			{
				"x": 0.2826633327,
				"y": -2.5316720551,
				"z": 0.6576407362,
				"element": "C" 
			},
			{
				"x": 0.9990522997,
				"y": -4.0641567214,
				"z": 0.255599866,
				"element": "Cl" 
			},
			{
				"x": 1.0060750324,
				"y": -1.3123125935,
				"z": 0.2459279311,
				"element": "C" 
			},
			{
				"x": 2.0711467658,
				"y": -1.3147151822,
				"z": -0.3565735729,
				"element": "O" 
			},
			{
				"x": -1.4239987801,
				"y": 0.7856312821,
				"z": 1.6164426347,
				"element": "H" 
			},
			{
				"x": -2.3618499763,
				"y": -1.3047184824,
				"z": 2.1509340661,
				"element": "H" 
			},
			{
				"x": -1.4275970411,
				"y": -3.3992897023,
				"z": 1.6267636046,
				"element": "H" 
			}
		],
		 "valence_orbital": [ 
			{
				"type": "occ",
				"energy": -0.32089,
				"method": "rhf"
			},
			{
				"type": "occ",
				"energy": -0.3119,
				"method": "rhf"
			},
			{
				"type": "occ",
				"energy": -0.27482,
				"method": "rhf"
			},
			{
				"type": "occ",
				"energy": -0.24789,
				"method": "rhf"
			},
			{
				"type": "occ",
				"energy": -0.23201,
				"method": "rhf"
			},
			{
				"type": "unocc",
				"energy": -0.03792,
				"method": "rhf"
			},
			{
				"type": "unocc",
				"energy": -0.03465,
				"method": "rhf"
			},
			{
				"type": "unocc",
				"energy": -0.00086,
				"method": "rhf"
			},
			{
				"type": "unocc",
				"energy": 0.04859,
				"method": "rhf"
			},
			{
				"type": "unocc",
				"energy": 0.05479,
				"method": "rhf"
			}
		],
		"cosmo_sigma_profile": { 
			"-0.025": 0.0,
			"-0.024": 0.0,
			"-0.023": 0.0,
			"-0.022": 0.0,
			"-0.021": 0.0,
			"-0.02": 0.0,
			"-0.019": 0.728667591887,
			"-0.018": 2.71720561005,
			"-0.017": 2.14507067241,
			"-0.016": 1.45477283773,
			"-0.015": 1.53551023074,
			"-0.014": 1.26315582839,
			"-0.013": 1.67657375391,
			"-0.012": 2.02714076343,
			"-0.011": 5.05162864358,
			"-0.01": 3.06711868452,
			"-0.009": 3.05454669768,
			"-0.008": 3.05407357996,
			"-0.007": 2.50915081875,
			"-0.006": 3.01985774201,
			"-0.005": 3.09363059983,
			"-0.004": 3.40056828222,
			"-0.003": 6.46790592607,
			"-0.002": 11.4887730633,
			"-0.001": 14.3624290863,
			"0.0": 12.9685299869,
			"0.001": 10.6233955675,
			"0.002": 9.52178968252,
			"0.003": 12.0038941804,
			"0.004": 14.5352032603,
			"0.005": 8.99666937548,
			"0.006": 2.35696105406,
			"0.007": 2.37764244738,
			"0.008": 2.83701963567,
			"0.009": 1.61288016727,
			"0.01": 1.99650142683,
			"0.011": 2.39845663252,
			"0.012": 2.4378764183,
			"0.013": 5.00245324242,
			"0.014": 5.29891606591,
			"0.015": 1.13973416077,
			"0.016": 0.0,
			"0.017": 0.0,
			"0.018": 0.0,
			"0.019": 0.0,
			"0.02": 0.0,
			"0.021": 0.0,
			"0.022": 0.0,
			"0.023": 0.0,
			"0.024": 0.0,
			"0.025": 0.0
		}
	}
}
