{
	 "smiles": "COC1=CC=C2C(=C1)N(CC(O)=O)C(C)=C2C(=O)C1=CC=C(Cl)C=C1", 
	 "Tm": 515.15, 
	 "num_atms": 41, 
	 "gaussian": { 
		 "optdone": 1, 
		 "sigma_profile": "yes", 
		 "theory": "DFT", 
		 "functional": "B3LYP", 
		 "basiset": "6-31G**", 
		 "properties": { 
			 "R2extent": 11897.0292, 
			 "electric_dipole_moment_norm": 6.14479032921, 
			 "electric_quadrupole_moment_norm": 29.7439711619, 
			 "total_energy": -1549.50819541, 
			 "HOMO_LUMO_gap": 0.14321, 
			 "cosmo_polarized_energy": -28.06, 
			 "cosmo_cavitation_energy": 47.13, 
			 "cosmo_dispersion_energy": -32.74, 
			 "cosmo_repulsion_energy": 2.48, 
			 "cosmo_total_nonelectrostatic_energy": 16.87, 
			 "SMD_solvation_energy": 9.62 
		},
		"coords": [
			{
				"x": -4.465888082,
				"y": -2.4143100861,
				"z": -1.8412929875,
				"element": "C" 
			},
			{
				"x": -3.9681290641,
				"y": -2.2044514766,
				"z": -0.5300361877,
				"element": "O" 
			},
			{
				"x": -2.7679003241,
				"y": -1.564922778,
				"z": -0.3837308145,
				"element": "C" 
			},
			{
				"x": -1.9695187433,
				"y": -1.1232224716,
				"z": -1.4579655207,
				"element": "C" 
			},
			{
				"x": -0.7569352598,
				"y": -0.4779561202,
				"z": -1.2263526716,
				"element": "C" 
			},
			{
				"x": -0.3089381077,
				"y": -0.2709740554,
				"z": 0.085628699,
				"element": "C" 
			},
			{
				"x": -1.1455280145,
				"y": -0.7088786916,
				"z": 1.1431323287,
				"element": "C" 
			},
			{
				"x": -2.3628900265,
				"y": -1.3524162151,
				"z": 0.9365427567,
				"element": "C" 
			},
			{
				"x": -0.527923078,
				"y": -0.3607022832,
				"z": 2.3408949582,
				"element": "N" 
			},
			{
				"x": -1.0851051467,
				"y": -0.6081845238,
				"z": 3.6426569856,
				"element": "C" 
			},
			{
				"x": -1.9388416741,
				"y": 0.5566794332,
				"z": 4.1766932738,
				"element": "C" 
			},
			{
				"x": -2.6439771278,
				"y": 0.2664341816,
				"z": 5.2998406441,
				"element": "O" 
			},
			{
				"x": -1.9675449437,
				"y": 1.6534220194,
				"z": 3.6898437288,
				"element": "O" 
			},
			{
				"x": 0.6410449884,
				"y": 0.333445491,
				"z": 2.0757193899,
				"element": "C" 
			},
			{
				"x": 1.4821223188,
				"y": 0.8681499922,
				"z": 3.1871595879,
				"element": "C" 
			},
			{
				"x": 0.8367585527,
				"y": 0.383400558,
				"z": 0.7014794233,
				"element": "C" 
			},
			{
				"x": 1.9908130916,
				"y": 1.0481447452,
				"z": 0.0694908375,
				"element": "C" 
			},
			{
				"x": 2.5722819717,
				"y": 1.9928363988,
				"z": 0.6069896929,
				"element": "O" 
			},
			{
				"x": 2.5134091545,
				"y": 0.5544923754,
				"z": -1.25243148,
				"element": "C" 
			},
			{
				"x": 2.4440798055,
				"y": -0.7899221982,
				"z": -1.6434185819,
				"element": "C" 
			},
			{
				"x": 3.0313049151,
				"y": -1.2183980382,
				"z": -2.8337022142,
				"element": "C" 
			},
			{
				"x": 3.6811615465,
				"y": -0.2862492502,
				"z": -3.6419035739,
				"element": "C" 
			},
			{
				"x": 4.4090256606,
				"y": -0.8145161179,
				"z": -5.1513650066,
				"element": "Cl" 
			},
			{
				"x": 3.7697456559,
				"y": 1.0577865303,
				"z": -3.2726063416,
				"element": "C" 
			},
			{
				"x": 3.1973990121,
				"y": 1.465127581,
				"z": -2.0718480927,
				"element": "C" 
			},
			{
				"x": -5.4251270342,
				"y": -2.9205614207,
				"z": -1.7211185725,
				"element": "H" 
			},
			{
				"x": -4.6233261768,
				"y": -1.4671545391,
				"z": -2.3730694691,
				"element": "H" 
			},
			{
				"x": -3.7961522064,
				"y": -3.0505694258,
				"z": -2.4344238628,
				"element": "H" 
			},
			{
				"x": -2.2956493782,
				"y": -1.2734406633,
				"z": -2.4797570693,
				"element": "H" 
			},
			{
				"x": -0.170577216,
				"y": -0.13631032,
				"z": -2.0714495463,
				"element": "H" 
			},
			{
				"x": -3.0160432452,
				"y": -1.6709565232,
				"z": 1.7414173269,
				"element": "H" 
			},
			{
				"x": -0.2807042027,
				"y": -0.7899431761,
				"z": 4.3646270123,
				"element": "H" 
			},
			{
				"x": -1.6852038064,
				"y": -1.5241342342,
				"z": 3.6035698308,
				"element": "H" 
			},
			{
				"x": -2.5332090467,
				"y": -0.6615919171,
				"z": 5.5533173692,
				"element": "H" 
			},
			{
				"x": 1.8054537921,
				"y": 0.0746392461,
				"z": 3.8736736197,
				"element": "H" 
			},
			{
				"x": 2.3575169248,
				"y": 1.3635344372,
				"z": 2.7722902281,
				"element": "H" 
			},
			{
				"x": 0.9205746205,
				"y": 1.6093543573,
				"z": 3.7676006484,
				"element": "H" 
			},
			{
				"x": 1.9396882649,
				"y": -1.5114159426,
				"z": -1.0098671409,
				"element": "H" 
			},
			{
				"x": 2.9891402372,
				"y": -2.2603936327,
				"z": -3.1308119891,
				"element": "H" 
			},
			{
				"x": 4.285025376,
				"y": 1.7645192208,
				"z": -3.9136279603,
				"element": "H" 
			},
			{
				"x": 3.2763660159,
				"y": 2.4965095336,
				"z": -1.7449892586,
				"element": "H" 
			}
		],
		 "valence_orbital": [ 
			{
				"type": "occ",
				"energy": -0.26498,
				"method": "rhf"
			},
			{
				"type": "occ",
				"energy": -0.25091,
				"method": "rhf"
			},
			{
				"type": "occ",
				"energy": -0.2393,
				"method": "rhf"
			},
			{
				"type": "occ",
				"energy": -0.22876,
				"method": "rhf"
			},
			{
				"type": "occ",
				"energy": -0.1985,
				"method": "rhf"
			},
			{
				"type": "unocc",
				"energy": -0.05529,
				"method": "rhf"
			},
			{
				"type": "unocc",
				"energy": -0.02105,
				"method": "rhf"
			},
			{
				"type": "unocc",
				"energy": -0.01277,
				"method": "rhf"
			},
			{
				"type": "unocc",
				"energy": -0.01021,
				"method": "rhf"
			},
			{
				"type": "unocc",
				"energy": 0.01511,
				"method": "rhf"
			}
		],
		"cosmo_sigma_profile": { 
			"-0.025": 0.0,
			"-0.024": 0.0,
			"-0.023": 0.0,
			"-0.022": 0.0,
			"-0.021": 0.0102323708401,
			"-0.02": 0.906575915501,
			"-0.019": 1.67001231487,
			"-0.018": 0.859820188362,
			"-0.017": 1.88763553521,
			"-0.016": 1.14871288548,
			"-0.015": 0.994313078858,
			"-0.014": 1.03273122718,
			"-0.013": 1.38605884784,
			"-0.012": 2.00061803874,
			"-0.011": 2.30663583847,
			"-0.01": 3.34070419569,
			"-0.009": 6.04307002603,
			"-0.008": 5.32701137184,
			"-0.007": 9.4924384224,
			"-0.006": 15.8871549532,
			"-0.005": 22.8384380985,
			"-0.004": 22.4771524727,
			"-0.003": 24.4593319546,
			"-0.002": 24.6476875251,
			"-0.001": 27.1005725504,
			"0.0": 23.1283697796,
			"0.001": 26.3103412177,
			"0.002": 27.698872038,
			"0.003": 23.7952935056,
			"0.004": 29.0488655667,
			"0.005": 20.0225737646,
			"0.006": 8.26730445734,
			"0.007": 6.26769366388,
			"0.008": 6.40098922917,
			"0.009": 7.8966028847,
			"0.01": 8.68279082395,
			"0.011": 7.93087339633,
			"0.012": 5.25012160976,
			"0.013": 2.26648096637,
			"0.014": 0.0688388004411,
			"0.015": 0.0,
			"0.016": 0.0,
			"0.017": 0.0,
			"0.018": 0.0,
			"0.019": 0.0,
			"0.02": 0.0,
			"0.021": 0.0,
			"0.022": 0.0,
			"0.023": 0.0,
			"0.024": 0.0,
			"0.025": 0.0
		}
	}
}
