{
	 "smiles": "NC1=CC=C(C=C1)C1(CCCCC1)C1=CC=C(N)C=C1", 
	 "Tm": 384.15, 
	 "num_atms": 42, 
	 "gaussian": { 
		 "optdone": 1, 
		 "sigma_profile": "yes", 
		 "theory": "DFT", 
		 "functional": "B3LYP", 
		 "basiset": "6-31G**", 
		 "properties": { 
			 "R2extent": 6895.692, 
			 "electric_dipole_moment_norm": 2.86986971307, 
			 "electric_quadrupole_moment_norm": 14.1776982515, 
			 "total_energy": -808.687186292, 
			 "HOMO_LUMO_gap": 0.19057, 
			 "cosmo_polarized_energy": -14.29, 
			 "cosmo_cavitation_energy": 41.02, 
			 "cosmo_dispersion_energy": -28.99, 
			 "cosmo_repulsion_energy": 2.24, 
			 "cosmo_total_nonelectrostatic_energy": 14.27, 
			 "SMD_solvation_energy": 5.97 
		},
		"coords": [
			{
				"x": -3.0372647256,
				"y": 1.6143812484,
				"z": -2.23036048,
				"element": "N" 
			},
			{
				"x": -2.0718155951,
				"y": 1.1095997274,
				"z": -1.3522663436,
				"element": "C" 
			},
			{
				"x": -1.585183504,
				"y": 1.8890985755,
				"z": -0.2881106883,
				"element": "C" 
			},
			{
				"x": -0.6682393265,
				"y": 1.3636416939,
				"z": 0.6135675034,
				"element": "C" 
			},
			{
				"x": -0.191758792,
				"y": 0.0434240849,
				"z": 0.5184737034,
				"element": "C" 
			},
			{
				"x": -0.6809891109,
				"y": -0.7181799122,
				"z": -0.5495848948,
				"element": "C" 
			},
			{
				"x": -1.5983515442,
				"y": -0.203438761,
				"z": -1.4683982481,
				"element": "C" 
			},
			{
				"x": 0.8279479887,
				"y": -0.4564961616,
				"z": 1.5694488441,
				"element": "C" 
			},
			{
				"x": 0.1611211258,
				"y": -0.4219809623,
				"z": 2.9713585446,
				"element": "C" 
			},
			{
				"x": -1.1199468181,
				"y": -1.278541679,
				"z": 3.0515524442,
				"element": "C" 
			},
			{
				"x": -1.0027879161,
				"y": -2.6122213114,
				"z": 2.2733602343,
				"element": "C" 
			},
			{
				"x": 0.4638289046,
				"y": -3.0150246568,
				"z": 2.0744281856,
				"element": "C" 
			},
			{
				"x": 1.3053873887,
				"y": -1.9354249835,
				"z": 1.3448558975,
				"element": "C" 
			},
			{
				"x": 2.0740414119,
				"y": 0.4507026778,
				"z": 1.4960043677,
				"element": "C" 
			},
			{
				"x": 2.6675774341,
				"y": 1.0472053502,
				"z": 2.6156403331,
				"element": "C" 
			},
			{
				"x": 3.8243931931,
				"y": 1.8213623686,
				"z": 2.5110150617,
				"element": "C" 
			},
			{
				"x": 4.4437986766,
				"y": 2.0242306896,
				"z": 1.2705219066,
				"element": "C" 
			},
			{
				"x": 5.6373991368,
				"y": 2.7488487966,
				"z": 1.165670428,
				"element": "N" 
			},
			{
				"x": 3.8583476256,
				"y": 1.4296840589,
				"z": 0.1394723776,
				"element": "C" 
			},
			{
				"x": 2.7018623197,
				"y": 0.6678059031,
				"z": 0.2574706102,
				"element": "C" 
			},
			{
				"x": -3.063398094,
				"y": 1.1627975998,
				"z": -3.1346761789,
				"element": "H" 
			},
			{
				"x": -3.0410308697,
				"y": 2.6214841895,
				"z": -2.3204831425,
				"element": "H" 
			},
			{
				"x": -1.9292351563,
				"y": 2.9147239025,
				"z": -0.1736965683,
				"element": "H" 
			},
			{
				"x": -0.2950110247,
				"y": 2.0066508806,
				"z": 1.4058876974,
				"element": "H" 
			},
			{
				"x": -0.3525311818,
				"y": -1.7421413373,
				"z": -0.6893781732,
				"element": "H" 
			},
			{
				"x": -1.9535532387,
				"y": -0.8325588161,
				"z": -2.2815787334,
				"element": "H" 
			},
			{
				"x": -0.0695056346,
				"y": 0.6073714916,
				"z": 3.2658301673,
				"element": "H" 
			},
			{
				"x": 0.8883900021,
				"y": -0.7945429554,
				"z": 3.7033851692,
				"element": "H" 
			},
			{
				"x": -1.9690178111,
				"y": -0.7046414965,
				"z": 2.6663679859,
				"element": "H" 
			},
			{
				"x": -1.3336627212,
				"y": -1.4751146545,
				"z": 4.1091101264,
				"element": "H" 
			},
			{
				"x": -1.4871433955,
				"y": -2.5118129824,
				"z": 1.2971521437,
				"element": "H" 
			},
			{
				"x": -1.5402428282,
				"y": -3.4085179363,
				"z": 2.8012080552,
				"element": "H" 
			},
			{
				"x": 0.9082299082,
				"y": -3.2086943325,
				"z": 3.0593434606,
				"element": "H" 
			},
			{
				"x": 0.5282739094,
				"y": -3.9633126182,
				"z": 1.5277238836,
				"element": "H" 
			},
			{
				"x": 1.3646942933,
				"y": -2.1472437755,
				"z": 0.2729705365,
				"element": "H" 
			},
			{
				"x": 2.3354383555,
				"y": -2.0025722552,
				"z": 1.7075222485,
				"element": "H" 
			},
			{
				"x": 2.2304756694,
				"y": 0.9206287734,
				"z": 3.6001198794,
				"element": "H" 
			},
			{
				"x": 4.2534855365,
				"y": 2.2697142576,
				"z": 3.4044914094,
				"element": "H" 
			},
			{
				"x": 5.8027074749,
				"y": 3.1578761896,
				"z": 0.2557588934,
				"element": "H" 
			},
			{
				"x": 5.7865415527,
				"y": 3.4234047912,
				"z": 1.9041244249,
				"element": "H" 
			},
			{
				"x": 4.3153267853,
				"y": 1.5713993919,
				"z": -0.8375605147,
				"element": "H" 
			},
			{
				"x": 2.2642005953,
				"y": 0.2412249454,
				"z": -0.6407425572,
				"element": "H" 
			}
		],
		 "valence_orbital": [ 
			{
				"type": "occ",
				"energy": -0.27774,
				"method": "rhf"
			},
			{
				"type": "occ",
				"energy": -0.23813,
				"method": "rhf"
			},
			{
				"type": "occ",
				"energy": -0.23491,
				"method": "rhf"
			},
			{
				"type": "occ",
				"energy": -0.19718,
				"method": "rhf"
			},
			{
				"type": "occ",
				"energy": -0.18446,
				"method": "rhf"
			},
			{
				"type": "unocc",
				"energy": 0.00611,
				"method": "rhf"
			},
			{
				"type": "unocc",
				"energy": 0.01317,
				"method": "rhf"
			},
			{
				"type": "unocc",
				"energy": 0.02184,
				"method": "rhf"
			},
			{
				"type": "unocc",
				"energy": 0.03234,
				"method": "rhf"
			},
			{
				"type": "unocc",
				"energy": 0.08536,
				"method": "rhf"
			}
		],
		"cosmo_sigma_profile": { 
			"-0.025": 0.0,
			"-0.024": 0.0,
			"-0.023": 0.0,
			"-0.022": 0.0,
			"-0.021": 0.0,
			"-0.02": 0.0,
			"-0.019": 0.0,
			"-0.018": 0.0,
			"-0.017": 0.0,
			"-0.016": 0.0,
			"-0.015": 0.0,
			"-0.014": 0.0,
			"-0.013": 0.0832692968389,
			"-0.012": 3.11375565868,
			"-0.011": 5.87350648892,
			"-0.01": 4.76023984297,
			"-0.009": 5.51736526934,
			"-0.008": 6.88176518171,
			"-0.007": 5.54390988164,
			"-0.006": 6.97541453384,
			"-0.005": 10.3297781911,
			"-0.004": 14.9268661687,
			"-0.003": 20.0705911898,
			"-0.002": 31.9967155246,
			"-0.001": 33.0661348426,
			"0.0": 34.4179252576,
			"0.001": 30.0722501102,
			"0.002": 20.2102992039,
			"0.003": 12.695959404,
			"0.004": 12.3743278505,
			"0.005": 13.4796570505,
			"0.006": 15.9611211219,
			"0.007": 16.6894847343,
			"0.008": 5.51416517618,
			"0.009": 1.45087009591,
			"0.01": 1.8958389131,
			"0.011": 0.816139320873,
			"0.012": 1.76604575543,
			"0.013": 1.47552653263,
			"0.014": 1.29584470447,
			"0.015": 1.11837782624,
			"0.016": 0.124956449506,
			"0.017": 0.0,
			"0.018": 0.0,
			"0.019": 0.0,
			"0.02": 0.0,
			"0.021": 0.0,
			"0.022": 0.0,
			"0.023": 0.0,
			"0.024": 0.0,
			"0.025": 0.0
		}
	}
}
