{
	 "smiles": "CC(=O)NC(N)=S", 
	 "Tm": 438.15, 
	 "num_atms": 13, 
	 "gaussian": { 
		 "optdone": 1, 
		 "sigma_profile": "yes", 
		 "theory": "DFT", 
		 "functional": "B3LYP", 
		 "basiset": "6-31G**", 
		 "properties": { 
			 "R2extent": 1746.6812, 
			 "electric_dipole_moment_norm": 3.51298418158, 
			 "electric_quadrupole_moment_norm": 10.1577688992, 
			 "total_energy": -700.872107717, 
			 "HOMO_LUMO_gap": 0.17899, 
			 "cosmo_polarized_energy": -17.94, 
			 "cosmo_cavitation_energy": 18.81, 
			 "cosmo_dispersion_energy": -14.47, 
			 "cosmo_repulsion_energy": 1.19, 
			 "cosmo_total_nonelectrostatic_energy": 5.54, 
			 "SMD_solvation_energy": 3.68 
		},
		"coords": [
			{
				"x": 3.2503770419,
				"y": -0.6084208094,
				"z": -1.7867471493,
				"element": "C" 
			},
			{
				"x": 1.9545713314,
				"y": 0.1455270882,
				"z": -1.8954103369,
				"element": "C" 
			},
			{
				"x": 1.7799812691,
				"y": 1.0716798262,
				"z": -2.6668253292,
				"element": "O" 
			},
			{
				"x": 0.8576341071,
				"y": -0.1885472859,
				"z": -1.0682803504,
				"element": "N" 
			},
			{
				"x": 0.6151699633,
				"y": -1.1725655745,
				"z": -0.1263374866,
				"element": "C" 
			},
			{
				"x": -0.5946423864,
				"y": -1.0110584794,
				"z": 0.4796416514,
				"element": "N" 
			},
			{
				"x": 1.5985408653,
				"y": -2.4684462289,
				"z": 0.2569858418,
				"element": "S" 
			},
			{
				"x": 3.9633772012,
				"y": -0.1173071293,
				"z": -2.4496331249,
				"element": "H" 
			},
			{
				"x": 3.619471461,
				"y": -0.619756006,
				"z": -0.7586252628,
				"element": "H" 
			},
			{
				"x": 3.1159409375,
				"y": -1.6537346363,
				"z": -2.074557452,
				"element": "H" 
			},
			{
				"x": 0.087699316,
				"y": 0.4363056313,
				"z": -1.2878943299,
				"element": "H" 
			},
			{
				"x": -0.8095328044,
				"y": -1.6537542533,
				"z": 1.226233108,
				"element": "H" 
			},
			{
				"x": -1.0838883031,
				"y": -0.1269221427,
				"z": 0.466850221,
				"element": "H" 
			}
		],
		 "valence_orbital": [ 
			{
				"type": "occ",
				"energy": -0.36898,
				"method": "rhf"
			},
			{
				"type": "occ",
				"energy": -0.2946,
				"method": "rhf"
			},
			{
				"type": "occ",
				"energy": -0.27536,
				"method": "rhf"
			},
			{
				"type": "occ",
				"energy": -0.23741,
				"method": "rhf"
			},
			{
				"type": "occ",
				"energy": -0.22206,
				"method": "rhf"
			},
			{
				"type": "unocc",
				"energy": -0.04307,
				"method": "rhf"
			},
			{
				"type": "unocc",
				"energy": 0.02309,
				"method": "rhf"
			},
			{
				"type": "unocc",
				"energy": 0.0435,
				"method": "rhf"
			},
			{
				"type": "unocc",
				"energy": 0.07694,
				"method": "rhf"
			},
			{
				"type": "unocc",
				"energy": 0.10598,
				"method": "rhf"
			}
		],
		"cosmo_sigma_profile": { 
			"-0.025": 0.0,
			"-0.024": 0.0,
			"-0.023": 0.0,
			"-0.022": 0.0,
			"-0.021": 0.0,
			"-0.02": 0.000298648151206,
			"-0.019": 0.515148846182,
			"-0.018": 1.53328776866,
			"-0.017": 1.21341163227,
			"-0.016": 1.79250943387,
			"-0.015": 2.83547989772,
			"-0.014": 2.7613333686,
			"-0.013": 2.42936882142,
			"-0.012": 2.58339163514,
			"-0.011": 3.06165848187,
			"-0.01": 1.31607508731,
			"-0.009": 2.30909157418,
			"-0.008": 1.94667181999,
			"-0.007": 1.69030366938,
			"-0.006": 2.59376953527,
			"-0.005": 7.94983922573,
			"-0.004": 8.19616242556,
			"-0.003": 8.57563750483,
			"-0.002": 11.6154333604,
			"-0.001": 10.1980924562,
			"0.0": 6.26575502712,
			"0.001": 4.37361671024,
			"0.002": 4.87385688585,
			"0.003": 6.08988691372,
			"0.004": 5.91290655346,
			"0.005": 6.37419122367,
			"0.006": 4.57189426387,
			"0.007": 7.25994741509,
			"0.008": 6.27979318472,
			"0.009": 6.52234507043,
			"0.01": 6.01901804095,
			"0.011": 5.78285136074,
			"0.012": 4.51266681064,
			"0.013": 1.24315064314,
			"0.014": 0.0691254336478,
			"0.015": 0.0,
			"0.016": 0.0,
			"0.017": 0.0,
			"0.018": 0.0,
			"0.019": 0.0,
			"0.02": 0.0,
			"0.021": 0.0,
			"0.022": 0.0,
			"0.023": 0.0,
			"0.024": 0.0,
			"0.025": 0.0
		}
	}
}
