{
	 "smiles": "CC1=NC2=C(S1)C=CC(=C2)[N+]([O-])=O", 
	 "Tm": 406.15, 
	 "num_atms": 19, 
	 "gaussian": { 
		 "optdone": 1, 
		 "sigma_profile": "yes", 
		 "theory": "DFT", 
		 "functional": "B3LYP", 
		 "basiset": "6-31G**", 
		 "properties": { 
			 "R2extent": 5745.9346, 
			 "electric_dipole_moment_norm": 5.7254375466, 
			 "electric_quadrupole_moment_norm": 26.4427700302, 
			 "total_energy": -966.518891881, 
			 "HOMO_LUMO_gap": 0.17225, 
			 "cosmo_polarized_energy": -10.08, 
			 "cosmo_cavitation_energy": 25.89, 
			 "cosmo_dispersion_energy": -19.78, 
			 "cosmo_repulsion_energy": 1.5, 
			 "cosmo_total_nonelectrostatic_energy": 7.61, 
			 "SMD_solvation_energy": 4.61 
		},
		"coords": [
			{
				"x": -2.1524359713,
				"y": 0.244982872,
				"z": 0.3565969394,
				"element": "C" 
			},
			{
				"x": -0.8301069842,
				"y": 0.6795073467,
				"z": -0.1912815559,
				"element": "C" 
			},
			{
				"x": -0.6347897927,
				"y": 1.768224113,
				"z": -0.8583500666,
				"element": "N" 
			},
			{
				"x": 0.6927248543,
				"y": 1.9024209785,
				"z": -1.2355501153,
				"element": "C" 
			},
			{
				"x": 1.5528938964,
				"y": 0.849694074,
				"z": -0.8279147638,
				"element": "C" 
			},
			{
				"x": 0.6250133367,
				"y": -0.3340431569,
				"z": 0.0593008956,
				"element": "S" 
			},
			{
				"x": 2.9165388755,
				"y": 0.8559960619,
				"z": -1.1401008466,
				"element": "C" 
			},
			{
				"x": 3.4234751249,
				"y": 1.9255868025,
				"z": -1.8667796958,
				"element": "C" 
			},
			{
				"x": 2.5644337439,
				"y": 2.9608686232,
				"z": -2.2647258299,
				"element": "C" 
			},
			{
				"x": 1.2081043127,
				"y": 2.9763820684,
				"z": -1.9666582906,
				"element": "C" 
			},
			{
				"x": 3.1270368036,
				"y": 4.082199942,
				"z": -3.0337057617,
				"element": "N" 
			},
			{
				"x": 4.3310599199,
				"y": 4.0517210184,
				"z": -3.2888317281,
				"element": "O" 
			},
			{
				"x": 2.3611827086,
				"y": 4.9823958002,
				"z": -3.3755635729,
				"element": "O" 
			},
			{
				"x": -2.1140073919,
				"y": 0.1396975234,
				"z": 1.4459473706,
				"element": "H" 
			},
			{
				"x": -2.4549367649,
				"y": -0.7215572252,
				"z": -0.0599811533,
				"element": "H" 
			},
			{
				"x": -2.9015944353,
				"y": 0.9947238416,
				"z": 0.0974189173,
				"element": "H" 
			},
			{
				"x": 3.56946431,
				"y": 0.0488880074,
				"z": -0.8260986391,
				"element": "H" 
			},
			{
				"x": 4.47047207,
				"y": 1.9809894459,
				"z": -2.1354246453,
				"element": "H" 
			},
			{
				"x": 0.5756713837,
				"y": 3.7925218629,
				"z": -2.2904974582,
				"element": "H" 
			}
		],
		 "valence_orbital": [ 
			{
				"type": "occ",
				"energy": -0.30663,
				"method": "rhf"
			},
			{
				"type": "occ",
				"energy": -0.29404,
				"method": "rhf"
			},
			{
				"type": "occ",
				"energy": -0.28948,
				"method": "rhf"
			},
			{
				"type": "occ",
				"energy": -0.26333,
				"method": "rhf"
			},
			{
				"type": "occ",
				"energy": -0.26004,
				"method": "rhf"
			},
			{
				"type": "unocc",
				"energy": -0.08779,
				"method": "rhf"
			},
			{
				"type": "unocc",
				"energy": -0.05443,
				"method": "rhf"
			},
			{
				"type": "unocc",
				"energy": -0.01078,
				"method": "rhf"
			},
			{
				"type": "unocc",
				"energy": -0.00878,
				"method": "rhf"
			},
			{
				"type": "unocc",
				"energy": 0.02305,
				"method": "rhf"
			}
		],
		"cosmo_sigma_profile": { 
			"-0.025": 0.0,
			"-0.024": 0.0,
			"-0.023": 0.0,
			"-0.022": 0.0,
			"-0.021": 0.0,
			"-0.02": 0.0,
			"-0.019": 0.0,
			"-0.018": 0.0,
			"-0.017": 0.0,
			"-0.016": 0.0,
			"-0.015": 0.0,
			"-0.014": 0.0,
			"-0.013": 0.0,
			"-0.012": 0.0,
			"-0.011": 0.0,
			"-0.01": 0.0,
			"-0.009": 0.837121231209,
			"-0.008": 4.06577134769,
			"-0.007": 7.38213940075,
			"-0.006": 14.2948496458,
			"-0.005": 12.2871261531,
			"-0.004": 13.0451959221,
			"-0.003": 14.558838988,
			"-0.002": 19.3333815424,
			"-0.001": 19.7921249276,
			"0.0": 23.1669758848,
			"0.001": 19.7081750563,
			"0.002": 10.8854832718,
			"0.003": 7.50515829129,
			"0.004": 4.57415041087,
			"0.005": 5.12267873593,
			"0.006": 4.55494273208,
			"0.007": 8.77318714899,
			"0.008": 8.29750129729,
			"0.009": 5.47485208621,
			"0.01": 3.79629110239,
			"0.011": 1.11007519125,
			"0.012": 0.777052639756,
			"0.013": 0.8252361036,
			"0.014": 0.510322835019,
			"0.015": 0.0418625037473,
			"0.016": 0.0,
			"0.017": 0.0,
			"0.018": 0.0,
			"0.019": 0.0,
			"0.02": 0.0,
			"0.021": 0.0,
			"0.022": 0.0,
			"0.023": 0.0,
			"0.024": 0.0,
			"0.025": 0.0
		}
	}
}
