{
	 "smiles": "OC(=O)C1=C(C2CC2)N(N=N1)C1=CC=C(F)C=C1", 
	 "Tm": 447.15, 
	 "num_atms": 28, 
	 "gaussian": { 
		 "optdone": 1, 
		 "sigma_profile": "yes", 
		 "theory": "DFT", 
		 "functional": "B3LYP", 
		 "basiset": "6-31G**", 
		 "properties": { 
			 "R2extent": 5370.9486, 
			 "electric_dipole_moment_norm": 3.43811496463, 
			 "electric_quadrupole_moment_norm": 10.6211711944, 
			 "total_energy": -877.785046316, 
			 "HOMO_LUMO_gap": 0.20855, 
			 "cosmo_polarized_energy": -16.19, 
			 "cosmo_cavitation_energy": 33.29, 
			 "cosmo_dispersion_energy": -23.66, 
			 "cosmo_repulsion_energy": 1.79, 
			 "cosmo_total_nonelectrostatic_energy": 11.42, 
			 "SMD_solvation_energy": 5.62 
		},
		"coords": [
			{
				"x": -3.0602914067,
				"y": -2.1148703486,
				"z": 3.3899141928,
				"element": "O" 
			},
			{
				"x": -1.7837197376,
				"y": -1.8632298293,
				"z": 3.038182886,
				"element": "C" 
			},
			{
				"x": -0.8393712113,
				"y": -2.2423333191,
				"z": 3.7138740543,
				"element": "O" 
			},
			{
				"x": -1.6780099657,
				"y": -1.0973794434,
				"z": 1.7909485961,
				"element": "C" 
			},
			{
				"x": -0.5360027652,
				"y": -0.6961484082,
				"z": 1.086151462,
				"element": "C" 
			},
			{
				"x": 0.9186013554,
				"y": -0.9145876783,
				"z": 1.2032939723,
				"element": "C" 
			},
			{
				"x": 1.5433378173,
				"y": -2.1636229829,
				"z": 1.8060366909,
				"element": "C" 
			},
			{
				"x": 1.6786992405,
				"y": -0.8571745074,
				"z": 2.5225950549,
				"element": "C" 
			},
			{
				"x": -1.0640712567,
				"y": 0.0104766124,
				"z": 0.0422572377,
				"element": "N" 
			},
			{
				"x": -2.4419434986,
				"y": 0.0264077286,
				"z": 0.0953038506,
				"element": "N" 
			},
			{
				"x": -2.7919230194,
				"y": -0.636712117,
				"z": 1.1403304626,
				"element": "N" 
			},
			{
				"x": -0.4202380933,
				"y": 0.6993116407,
				"z": -1.0285037544,
				"element": "C" 
			},
			{
				"x": -0.8166954007,
				"y": 0.4225995316,
				"z": -2.3405634124,
				"element": "C" 
			},
			{
				"x": -0.232333796,
				"y": 1.1116270932,
				"z": -3.4001812794,
				"element": "C" 
			},
			{
				"x": 0.7466671437,
				"y": 2.0615394541,
				"z": -3.1252671103,
				"element": "C" 
			},
			{
				"x": 1.3199657103,
				"y": 2.7219287508,
				"z": -4.148206728,
				"element": "F" 
			},
			{
				"x": 1.1485346714,
				"y": 2.3541768442,
				"z": -1.8261976356,
				"element": "C" 
			},
			{
				"x": 0.5489508119,
				"y": 1.6733532723,
				"z": -0.7681207514,
				"element": "C" 
			},
			{
				"x": -3.0051225111,
				"y": -2.6087906303,
				"z": 4.2248055672,
				"element": "H" 
			},
			{
				"x": 1.4613661001,
				"y": -0.5154309583,
				"z": 0.3534658295,
				"element": "H" 
			},
			{
				"x": 2.399095413,
				"y": -2.567392758,
				"z": 1.2736393063,
				"element": "H" 
			},
			{
				"x": 0.8813569759,
				"y": -2.893345874,
				"z": 2.253750278,
				"element": "H" 
			},
			{
				"x": 2.6312417178,
				"y": -0.3359102872,
				"z": 2.5101372309,
				"element": "H" 
			},
			{
				"x": 1.0925446794,
				"y": -0.7436187654,
				"z": 3.4263970005,
				"element": "H" 
			},
			{
				"x": -1.5846148934,
				"y": -0.3214231118,
				"z": -2.518043378,
				"element": "H" 
			},
			{
				"x": -0.520611748,
				"y": 0.9199673505,
				"z": -4.4276184498,
				"element": "H" 
			},
			{
				"x": 1.9036929602,
				"y": 3.1131722197,
				"z": -1.6556444166,
				"element": "H" 
			},
			{
				"x": 0.8214947067,
				"y": 1.9066105213,
				"z": 0.255463243,
				"element": "H" 
			}
		],
		 "valence_orbital": [ 
			{
				"type": "occ",
				"energy": -0.28359,
				"method": "rhf"
			},
			{
				"type": "occ",
				"energy": -0.2819,
				"method": "rhf"
			},
			{
				"type": "occ",
				"energy": -0.27132,
				"method": "rhf"
			},
			{
				"type": "occ",
				"energy": -0.25669,
				"method": "rhf"
			},
			{
				"type": "occ",
				"energy": -0.25136,
				"method": "rhf"
			},
			{
				"type": "unocc",
				"energy": -0.04281,
				"method": "rhf"
			},
			{
				"type": "unocc",
				"energy": -0.03461,
				"method": "rhf"
			},
			{
				"type": "unocc",
				"energy": -0.02515,
				"method": "rhf"
			},
			{
				"type": "unocc",
				"energy": 0.00086,
				"method": "rhf"
			},
			{
				"type": "unocc",
				"energy": 0.06935,
				"method": "rhf"
			}
		],
		"cosmo_sigma_profile": { 
			"-0.025": 0.0,
			"-0.024": 0.0,
			"-0.023": 0.0,
			"-0.022": 0.0,
			"-0.021": 0.0,
			"-0.02": 0.0,
			"-0.019": 0.281214347635,
			"-0.018": 0.826394242425,
			"-0.017": 0.932060871843,
			"-0.016": 0.826849393623,
			"-0.015": 0.702545410948,
			"-0.014": 0.494341689461,
			"-0.013": 0.661136100282,
			"-0.012": 0.738990172512,
			"-0.011": 0.892949497705,
			"-0.01": 0.6030515411,
			"-0.009": 0.393372850552,
			"-0.008": 6.58202899533,
			"-0.007": 9.1762601519,
			"-0.006": 12.1832522254,
			"-0.005": 15.8908907833,
			"-0.004": 15.1010351275,
			"-0.003": 20.0886485137,
			"-0.002": 19.6624754754,
			"-0.001": 23.8554022814,
			"0.0": 24.6758468879,
			"0.001": 21.4541625102,
			"0.002": 20.1962797859,
			"0.003": 12.6312278069,
			"0.004": 14.7068496901,
			"0.005": 4.47994917844,
			"0.006": 4.58437427537,
			"0.007": 4.32467497839,
			"0.008": 5.70684643911,
			"0.009": 5.08932715525,
			"0.01": 5.50975065916,
			"0.011": 5.53200933026,
			"0.012": 4.192786313,
			"0.013": 1.84116342772,
			"0.014": 1.6126767637,
			"0.015": 0.84422362509,
			"0.016": 0.0638597185167,
			"0.017": 0.0,
			"0.018": 0.0,
			"0.019": 0.0,
			"0.02": 0.0,
			"0.021": 0.0,
			"0.022": 0.0,
			"0.023": 0.0,
			"0.024": 0.0,
			"0.025": 0.0
		}
	}
}
