{
	 "smiles": "OC1=CC=C2C(CC3=C2C=CC=C3)=C1", 
	 "Tm": 441.15, 
	 "num_atms": 24, 
	 "gaussian": { 
		 "optdone": 1, 
		 "sigma_profile": "yes", 
		 "theory": "DFT", 
		 "functional": "B3LYP", 
		 "basiset": "6-31G**", 
		 "properties": { 
			 "R2extent": 3287.1757, 
			 "electric_dipole_moment_norm": 1.00008882106, 
			 "electric_quadrupole_moment_norm": 13.4784214818, 
			 "total_energy": -576.64692198, 
			 "HOMO_LUMO_gap": 0.17755, 
			 "cosmo_polarized_energy": -9.78, 
			 "cosmo_cavitation_energy": 27.48, 
			 "cosmo_dispersion_energy": -20.58, 
			 "cosmo_repulsion_energy": 1.59, 
			 "cosmo_total_nonelectrostatic_energy": 8.49, 
			 "SMD_solvation_energy": 4.24 
		},
		"coords": [
			{
				"x": -2.4115379017,
				"y": 1.3879639018,
				"z": 3.552784553,
				"element": "O" 
			},
			{
				"x": -1.4055410768,
				"y": 0.8907105445,
				"z": 2.7705787183,
				"element": "C" 
			},
			{
				"x": -0.6030032828,
				"y": -0.1855263914,
				"z": 3.175469663,
				"element": "C" 
			},
			{
				"x": 0.412963227,
				"y": -0.6612021599,
				"z": 2.3454399474,
				"element": "C" 
			},
			{
				"x": 0.6239465075,
				"y": -0.0553598898,
				"z": 1.1062464622,
				"element": "C" 
			},
			{
				"x": -0.1893952136,
				"y": 1.0278462581,
				"z": 0.7072802972,
				"element": "C" 
			},
			{
				"x": 0.2318920017,
				"y": 1.5107749739,
				"z": -0.6666109152,
				"element": "C" 
			},
			{
				"x": 1.3800179415,
				"y": 0.5823011885,
				"z": -1.0126819749,
				"element": "C" 
			},
			{
				"x": 1.5961528418,
				"y": -0.3316181553,
				"z": 0.0411440226,
				"element": "C" 
			},
			{
				"x": 2.6087254482,
				"y": -1.289435386,
				"z": -0.0535907172,
				"element": "C" 
			},
			{
				"x": 3.3991722145,
				"y": -1.3255474884,
				"z": -1.2047918839,
				"element": "C" 
			},
			{
				"x": 3.1838883472,
				"y": -0.4191846032,
				"z": -2.2484402324,
				"element": "C" 
			},
			{
				"x": 2.1696069374,
				"y": 0.5416658759,
				"z": -2.1557133472,
				"element": "C" 
			},
			{
				"x": -1.2008652818,
				"y": 1.5058044716,
				"z": 1.5270081303,
				"element": "C" 
			},
			{
				"x": -2.4503969565,
				"y": 0.8837389509,
				"z": 4.375684827,
				"element": "H" 
			},
			{
				"x": -0.7767293925,
				"y": -0.6501984692,
				"z": 4.1441110955,
				"element": "H" 
			},
			{
				"x": 1.0272579568,
				"y": -1.4957990417,
				"z": 2.671778811,
				"element": "H" 
			},
			{
				"x": -0.5883110651,
				"y": 1.440697937,
				"z": -1.3933788366,
				"element": "H" 
			},
			{
				"x": 0.5434243074,
				"y": 2.5636559433,
				"z": -0.6516132012,
				"element": "H" 
			},
			{
				"x": 2.7829921043,
				"y": -1.997365884,
				"z": 0.7523033295,
				"element": "H" 
			},
			{
				"x": 4.1898412441,
				"y": -2.0657921664,
				"z": -1.2903581856,
				"element": "H" 
			},
			{
				"x": 3.8076751073,
				"y": -0.4610614225,
				"z": -3.1366872442,
				"element": "H" 
			},
			{
				"x": 2.0059966502,
				"y": 1.2440449638,
				"z": -2.9694067686,
				"element": "H" 
			},
			{
				"x": -1.8376726661,
				"y": 2.3370860487,
				"z": 1.2401434498,
				"element": "H" 
			}
		],
		 "valence_orbital": [ 
			{
				"type": "occ",
				"energy": -0.32562,
				"method": "rhf"
			},
			{
				"type": "occ",
				"energy": -0.26125,
				"method": "rhf"
			},
			{
				"type": "occ",
				"energy": -0.24832,
				"method": "rhf"
			},
			{
				"type": "occ",
				"energy": -0.23882,
				"method": "rhf"
			},
			{
				"type": "occ",
				"energy": -0.19774,
				"method": "rhf"
			},
			{
				"type": "unocc",
				"energy": -0.02019,
				"method": "rhf"
			},
			{
				"type": "unocc",
				"energy": -0.00778,
				"method": "rhf"
			},
			{
				"type": "unocc",
				"energy": 0.01227,
				"method": "rhf"
			},
			{
				"type": "unocc",
				"energy": 0.05182,
				"method": "rhf"
			},
			{
				"type": "unocc",
				"energy": 0.07113,
				"method": "rhf"
			}
		],
		"cosmo_sigma_profile": { 
			"-0.025": 0.0,
			"-0.024": 0.0,
			"-0.023": 0.0,
			"-0.022": 0.0,
			"-0.021": 0.0,
			"-0.02": 0.0,
			"-0.019": 0.0,
			"-0.018": 0.290434104429,
			"-0.017": 0.852939465114,
			"-0.016": 1.37639272877,
			"-0.015": 0.818042989839,
			"-0.014": 1.06090359411,
			"-0.013": 1.22138257632,
			"-0.012": 0.433081393084,
			"-0.011": 0.803989658139,
			"-0.01": 1.20183093659,
			"-0.009": 2.01944531437,
			"-0.008": 0.499744757531,
			"-0.007": 1.06344251598,
			"-0.006": 7.31986520389,
			"-0.005": 18.3618632212,
			"-0.004": 17.6708794452,
			"-0.003": 19.3034622263,
			"-0.002": 17.9804064755,
			"-0.001": 11.8266910387,
			"0.0": 10.2895851356,
			"0.001": 11.8428678985,
			"0.002": 12.4884096753,
			"0.003": 15.34455318,
			"0.004": 20.05852883,
			"0.005": 20.1470396392,
			"0.006": 14.2956479462,
			"0.007": 3.90991386618,
			"0.008": 1.19269980798,
			"0.009": 1.73731001803,
			"0.01": 1.58891151936,
			"0.011": 1.88994328653,
			"0.012": 0.940734330092,
			"0.013": 0.0,
			"0.014": 0.0,
			"0.015": 0.0,
			"0.016": 0.0,
			"0.017": 0.0,
			"0.018": 0.0,
			"0.019": 0.0,
			"0.02": 0.0,
			"0.021": 0.0,
			"0.022": 0.0,
			"0.023": 0.0,
			"0.024": 0.0,
			"0.025": 0.0
		}
	}
}
