{
	 "smiles": "OC(=O)CCC1=NNC(=O)NC1=O", 
	 "Tm": 477.15, 
	 "num_atms": 20, 
	 "gaussian": { 
		 "optdone": 1, 
		 "sigma_profile": "yes", 
		 "theory": "DFT", 
		 "functional": "B3LYP", 
		 "basiset": "6-31G**", 
		 "properties": { 
			 "R2extent": 3075.6361, 
			 "electric_dipole_moment_norm": 5.65411441165, 
			 "electric_quadrupole_moment_norm": 28.0315251528, 
			 "total_energy": -698.028278636, 
			 "HOMO_LUMO_gap": 0.16085, 
			 "cosmo_polarized_energy": -23.03, 
			 "cosmo_cavitation_energy": 24.94, 
			 "cosmo_dispersion_energy": -18.75, 
			 "cosmo_repulsion_energy": 1.49, 
			 "cosmo_total_nonelectrostatic_energy": 7.68, 
			 "SMD_solvation_energy": 6.01 
		},
		"coords": [
			{
				"x": -1.6340817318,
				"y": 0.4936422347,
				"z": 3.1932680553,
				"element": "O" 
			},
			{
				"x": -1.8590335249,
				"y": 1.7666235192,
				"z": 2.8138180018,
				"element": "C" 
			},
			{
				"x": -2.4392426165,
				"y": 2.5452174782,
				"z": 3.5324278566,
				"element": "O" 
			},
			{
				"x": -1.3267778062,
				"y": 2.1454732659,
				"z": 1.4304614746,
				"element": "C" 
			},
			{
				"x": 0.2146663231,
				"y": 1.9429659348,
				"z": 1.2821150237,
				"element": "C" 
			},
			{
				"x": 0.6037807956,
				"y": 1.0689437389,
				"z": 0.124275677,
				"element": "C" 
			},
			{
				"x": 1.2860835415,
				"y": 1.568732339,
				"z": -0.8570116276,
				"element": "N" 
			},
			{
				"x": 1.6320046612,
				"y": 0.7606953683,
				"z": -1.8830777438,
				"element": "N" 
			},
			{
				"x": 1.3513690263,
				"y": -0.5906595249,
				"z": -2.0255035799,
				"element": "C" 
			},
			{
				"x": 1.7009670096,
				"y": -1.2600227241,
				"z": -2.9741069782,
				"element": "O" 
			},
			{
				"x": 0.618315389,
				"y": -1.0844247381,
				"z": -0.9446740467,
				"element": "N" 
			},
			{
				"x": 0.1999665796,
				"y": -0.3565688952,
				"z": 0.1526060682,
				"element": "C" 
			},
			{
				"x": -0.4478040312,
				"y": -0.8784093868,
				"z": 1.0572683748,
				"element": "O" 
			},
			{
				"x": -1.2124641371,
				"y": -0.0225038446,
				"z": 2.4736187441,
				"element": "H" 
			},
			{
				"x": -1.8647501791,
				"y": 1.546842097,
				"z": 0.6857121084,
				"element": "H" 
			},
			{
				"x": -1.5917773289,
				"y": 3.1889377748,
				"z": 1.2585533178,
				"element": "H" 
			},
			{
				"x": 0.71043302,
				"y": 2.9060176431,
				"z": 1.1487261183,
				"element": "H" 
			},
			{
				"x": 0.6177880196,
				"y": 1.4968577698,
				"z": 2.1987237552,
				"element": "H" 
			},
			{
				"x": 2.164731892,
				"y": 1.1963047518,
				"z": -2.6236767219,
				"element": "H" 
			},
			{
				"x": 0.3761250982,
				"y": -2.0691648016,
				"z": -0.9787238776,
				"element": "H" 
			}
		],
		 "valence_orbital": [ 
			{
				"type": "occ",
				"energy": -0.31249,
				"method": "rhf"
			},
			{
				"type": "occ",
				"energy": -0.30927,
				"method": "rhf"
			},
			{
				"type": "occ",
				"energy": -0.29972,
				"method": "rhf"
			},
			{
				"type": "occ",
				"energy": -0.28807,
				"method": "rhf"
			},
			{
				"type": "occ",
				"energy": -0.25592,
				"method": "rhf"
			},
			{
				"type": "unocc",
				"energy": -0.09507,
				"method": "rhf"
			},
			{
				"type": "unocc",
				"energy": -0.02633,
				"method": "rhf"
			},
			{
				"type": "unocc",
				"energy": 0.01851,
				"method": "rhf"
			},
			{
				"type": "unocc",
				"energy": 0.05074,
				"method": "rhf"
			},
			{
				"type": "unocc",
				"energy": 0.07204,
				"method": "rhf"
			}
		],
		"cosmo_sigma_profile": { 
			"-0.025": 0.0,
			"-0.024": 0.0,
			"-0.023": 0.0,
			"-0.022": 0.0,
			"-0.021": 0.0,
			"-0.02": 0.0,
			"-0.019": 0.0,
			"-0.018": 0.471451392033,
			"-0.017": 2.18348938653,
			"-0.016": 2.45766105354,
			"-0.015": 1.82087472696,
			"-0.014": 1.40540374289,
			"-0.013": 1.59952538735,
			"-0.012": 1.57239336355,
			"-0.011": 1.5526121181,
			"-0.01": 1.27871560007,
			"-0.009": 3.44212993872,
			"-0.008": 5.85534220842,
			"-0.007": 9.67061644251,
			"-0.006": 15.3537285945,
			"-0.005": 13.8115367291,
			"-0.004": 16.6329875587,
			"-0.003": 15.0465389164,
			"-0.002": 8.82976102013,
			"-0.001": 5.94363608139,
			"0.0": 5.91128068612,
			"0.001": 5.83834655734,
			"0.002": 6.05860725159,
			"0.003": 5.99139491089,
			"0.004": 4.93161382861,
			"0.005": 4.43428872073,
			"0.006": 5.25561127933,
			"0.007": 4.91289260907,
			"0.008": 5.67566434667,
			"0.009": 5.83898345926,
			"0.01": 7.83960490665,
			"0.011": 10.9518791445,
			"0.012": 10.9324802038,
			"0.013": 4.18758585579,
			"0.014": 0.851235180763,
			"0.015": 0.0,
			"0.016": 0.0,
			"0.017": 0.0,
			"0.018": 0.0,
			"0.019": 0.0,
			"0.02": 0.0,
			"0.021": 0.0,
			"0.022": 0.0,
			"0.023": 0.0,
			"0.024": 0.0,
			"0.025": 0.0
		}
	}
}
