{
	 "smiles": "OC1=NC2=C(O1)C=CC(Cl)=C2", 
	 "Tm": 464.15, 
	 "num_atms": 15, 
	 "gaussian": { 
		 "optdone": 1, 
		 "sigma_profile": "yes", 
		 "theory": "DFT", 
		 "functional": "B3LYP", 
		 "basiset": "6-31G**", 
		 "properties": { 
			 "R2extent": 2432.3762, 
			 "electric_dipole_moment_norm": 1.95253905723, 
			 "electric_quadrupole_moment_norm": 10.919453865, 
			 "total_energy": -934.54174215, 
			 "HOMO_LUMO_gap": 0.20842, 
			 "cosmo_polarized_energy": -9.27, 
			 "cosmo_cavitation_energy": 21.89, 
			 "cosmo_dispersion_energy": -16.93, 
			 "cosmo_repulsion_energy": 1.35, 
			 "cosmo_total_nonelectrostatic_energy": 6.31, 
			 "SMD_solvation_energy": 2.61 
		},
		"coords": [
			{
				"x": 3.1157006032,
				"y": 0.8802742322,
				"z": -0.7745012688,
				"element": "O" 
			},
			{
				"x": 1.9327777547,
				"y": 0.5765059312,
				"z": -0.2555738351,
				"element": "C" 
			},
			{
				"x": 1.6499594812,
				"y": 0.2901972411,
				"z": 0.9748340107,
				"element": "N" 
			},
			{
				"x": 0.270303726,
				"y": 0.0608188808,
				"z": 0.9333882261,
				"element": "C" 
			},
			{
				"x": -0.1826213073,
				"y": 0.2370197644,
				"z": -0.3822929833,
				"element": "C" 
			},
			{
				"x": 0.9167722769,
				"y": 0.5753831105,
				"z": -1.1547584122,
				"element": "O" 
			},
			{
				"x": -1.4985800532,
				"y": 0.0865124948,
				"z": -0.7754978282,
				"element": "C" 
			},
			{
				"x": -2.404280028,
				"y": -0.2640143123,
				"z": 0.2321975337,
				"element": "C" 
			},
			{
				"x": -1.9643244714,
				"y": -0.4432677169,
				"z": 1.5520792011,
				"element": "C" 
			},
			{
				"x": -3.1501126904,
				"y": -0.8839544621,
				"z": 2.7765785045,
				"element": "Cl" 
			},
			{
				"x": -0.6316803272,
				"y": -0.2884406604,
				"z": 1.9378670106,
				"element": "C" 
			},
			{
				"x": 3.756498095,
				"y": 0.850166557,
				"z": -0.0477878792,
				"element": "H" 
			},
			{
				"x": -1.8164291921,
				"y": 0.2300435269,
				"z": -1.8017778816,
				"element": "H" 
			},
			{
				"x": -3.4535207633,
				"y": -0.3993318211,
				"z": -0.0021144583,
				"element": "H" 
			},
			{
				"x": -0.3151631043,
				"y": -0.4321127661,
				"z": 2.96356006,
				"element": "H" 
			}
		],
		 "valence_orbital": [ 
			{
				"type": "occ",
				"energy": -0.31767,
				"method": "rhf"
			},
			{
				"type": "occ",
				"energy": -0.31373,
				"method": "rhf"
			},
			{
				"type": "occ",
				"energy": -0.30924,
				"method": "rhf"
			},
			{
				"type": "occ",
				"energy": -0.2509,
				"method": "rhf"
			},
			{
				"type": "occ",
				"energy": -0.23545,
				"method": "rhf"
			},
			{
				"type": "unocc",
				"energy": -0.02703,
				"method": "rhf"
			},
			{
				"type": "unocc",
				"energy": -0.00649,
				"method": "rhf"
			},
			{
				"type": "unocc",
				"energy": 0.0261,
				"method": "rhf"
			},
			{
				"type": "unocc",
				"energy": 0.04102,
				"method": "rhf"
			},
			{
				"type": "unocc",
				"energy": 0.05062,
				"method": "rhf"
			}
		],
		"cosmo_sigma_profile": { 
			"-0.025": 0.0,
			"-0.024": 0.0,
			"-0.023": 0.0,
			"-0.022": 0.0,
			"-0.021": 0.0745806293424,
			"-0.02": 0.862402847048,
			"-0.019": 1.00454519485,
			"-0.018": 1.25737868321,
			"-0.017": 0.661664592548,
			"-0.016": 0.378969234662,
			"-0.015": 0.612213752419,
			"-0.014": 0.951696213522,
			"-0.013": 0.98180859395,
			"-0.012": 0.491620795198,
			"-0.011": 0.456755854116,
			"-0.01": 0.566400040242,
			"-0.009": 1.76772149867,
			"-0.008": 4.06874435353,
			"-0.007": 5.68716262266,
			"-0.006": 5.3614310431,
			"-0.005": 6.87401514268,
			"-0.004": 7.6880523375,
			"-0.003": 8.56072770142,
			"-0.002": 9.32409674411,
			"-0.001": 10.5404817048,
			"0.0": 13.4755749321,
			"0.001": 16.6076235613,
			"0.002": 21.0772198337,
			"0.003": 18.1171333219,
			"0.004": 14.1505803798,
			"0.005": 10.8548484651,
			"0.006": 4.82772594082,
			"0.007": 2.90371222266,
			"0.008": 3.16773977362,
			"0.009": 0.813414607765,
			"0.01": 1.09659852002,
			"0.011": 0.914838813933,
			"0.012": 0.83125643276,
			"0.013": 0.850770036797,
			"0.014": 0.943437687565,
			"0.015": 0.287308055539,
			"0.016": 0.0,
			"0.017": 0.0,
			"0.018": 0.0,
			"0.019": 0.0,
			"0.02": 0.0,
			"0.021": 0.0,
			"0.022": 0.0,
			"0.023": 0.0,
			"0.024": 0.0,
			"0.025": 0.0
		}
	}
}
