{
	 "smiles": "OC(=O)C1=C(Br)C=CC(F)=C1", 
	 "Tm": 428.15, 
	 "num_atms": 15, 
	 "gaussian": { 
		 "optdone": 1, 
		 "sigma_profile": "yes", 
		 "theory": "DFT", 
		 "functional": "B3LYP", 
		 "basiset": "6-31G**", 
		 "properties": { 
			 "R2extent": 3359.9544, 
			 "electric_dipole_moment_norm": 4.76669859861, 
			 "electric_quadrupole_moment_norm": 11.4507168758, 
			 "total_energy": -3090.84347493, 
			 "HOMO_LUMO_gap": 0.19626, 
			 "cosmo_polarized_energy": -10.16, 
			 "cosmo_cavitation_energy": 22.37, 
			 "cosmo_dispersion_energy": -17.11, 
			 "cosmo_repulsion_energy": 1.32, 
			 "cosmo_total_nonelectrostatic_energy": 6.59, 
			 "SMD_solvation_energy": 4.57 
		},
		"coords": [
			{
				"x": -0.1719741356,
				"y": 0.4967108294,
				"z": 3.5311687245,
				"element": "O" 
			},
			{
				"x": 0.6873063381,
				"y": -0.1243535469,
				"z": 2.7111590602,
				"element": "C" 
			},
			{
				"x": 1.2954160032,
				"y": -1.0965895678,
				"z": 3.0989345385,
				"element": "O" 
			},
			{
				"x": 0.8962444361,
				"y": 0.3957361917,
				"z": 1.2936618215,
				"element": "C" 
			},
			{
				"x": 0.3034251822,
				"y": 1.4908805673,
				"z": 0.6389456656,
				"element": "C" 
			},
			{
				"x": -0.9986052866,
				"y": 2.656633642,
				"z": 1.4546848876,
				"element": "Br" 
			},
			{
				"x": 0.6259009299,
				"y": 1.8161315331,
				"z": -0.680290407,
				"element": "C" 
			},
			{
				"x": 1.5520079324,
				"y": 1.0563325584,
				"z": -1.3873083314,
				"element": "C" 
			},
			{
				"x": 2.1414368159,
				"y": -0.0272811113,
				"z": -0.7460288062,
				"element": "C" 
			},
			{
				"x": 3.0385370684,
				"y": -0.7727714927,
				"z": -1.4137769331,
				"element": "F" 
			},
			{
				"x": 1.8287900481,
				"y": -0.3580018815,
				"z": 0.560660222,
				"element": "C" 
			},
			{
				"x": -0.5988160503,
				"y": 1.2621470602,
				"z": 3.1068290473,
				"element": "H" 
			},
			{
				"x": 0.149355151,
				"y": 2.6668333018,
				"z": -1.1528969578,
				"element": "H" 
			},
			{
				"x": 1.81404042,
				"y": 1.2947480364,
				"z": -2.4120631234,
				"element": "H" 
			},
			{
				"x": 2.2967351473,
				"y": -1.20565612,
				"z": 1.0462205917,
				"element": "H" 
			}
		],
		 "valence_orbital": [ 
			{
				"type": "occ",
				"energy": -0.3257,
				"method": "rhf"
			},
			{
				"type": "occ",
				"energy": -0.31939,
				"method": "rhf"
			},
			{
				"type": "occ",
				"energy": -0.28908,
				"method": "rhf"
			},
			{
				"type": "occ",
				"energy": -0.28273,
				"method": "rhf"
			},
			{
				"type": "occ",
				"energy": -0.26599,
				"method": "rhf"
			},
			{
				"type": "unocc",
				"energy": -0.06973,
				"method": "rhf"
			},
			{
				"type": "unocc",
				"energy": -0.03498,
				"method": "rhf"
			},
			{
				"type": "unocc",
				"energy": -0.03189,
				"method": "rhf"
			},
			{
				"type": "unocc",
				"energy": 0.04242,
				"method": "rhf"
			},
			{
				"type": "unocc",
				"energy": 0.08435,
				"method": "rhf"
			}
		],
		"cosmo_sigma_profile": { 
			"-0.025": 0.0,
			"-0.024": 0.0,
			"-0.023": 0.0,
			"-0.022": 0.0,
			"-0.021": 0.0,
			"-0.02": 0.0,
			"-0.019": 0.0,
			"-0.018": 0.0,
			"-0.017": 0.0,
			"-0.016": 0.0,
			"-0.015": 0.0,
			"-0.014": 0.0,
			"-0.013": 0.0,
			"-0.012": 0.0,
			"-0.011": 0.0263188312429,
			"-0.01": 0.875252226323,
			"-0.009": 3.8063223488,
			"-0.008": 6.56138727986,
			"-0.007": 7.15358485469,
			"-0.006": 8.74171914702,
			"-0.005": 8.88592186209,
			"-0.004": 8.73118534513,
			"-0.003": 9.4293214798,
			"-0.002": 12.4325315453,
			"-0.001": 20.4891206784,
			"0.0": 26.0770694458,
			"0.001": 15.0385201366,
			"0.002": 9.34885209543,
			"0.003": 11.4818891199,
			"0.004": 7.77488089598,
			"0.005": 2.67060990744,
			"0.006": 1.7720457912,
			"0.007": 2.82695528712,
			"0.008": 2.62918003573,
			"0.009": 3.13289047908,
			"0.01": 5.01914964259,
			"0.011": 5.22183505007,
			"0.012": 3.08779475539,
			"0.013": 0.865937051951,
			"0.014": 0.0,
			"0.015": 0.0,
			"0.016": 0.0,
			"0.017": 0.0,
			"0.018": 0.0,
			"0.019": 0.0,
			"0.02": 0.0,
			"0.021": 0.0,
			"0.022": 0.0,
			"0.023": 0.0,
			"0.024": 0.0,
			"0.025": 0.0
		}
	}
}
