{
	 "smiles": "C(NC1=CC=CC=C1N1C2=C(C=CC=C2)N=C1C1=CC=CC=C1)C1=CC=CC=C1", 
	 "Tm": 433.15, 
	 "num_atms": 50, 
	 "gaussian": { 
		 "optdone": 1, 
		 "sigma_profile": "yes", 
		 "theory": "DFT", 
		 "functional": "B3LYP", 
		 "basiset": "6-31G**", 
		 "properties": { 
			 "R2extent": 11153.7199, 
			 "electric_dipole_moment_norm": 3.70044011572, 
			 "electric_quadrupole_moment_norm": 10.0304391778, 
			 "total_energy": -1167.69482783, 
			 "HOMO_LUMO_gap": 0.16963, 
			 "cosmo_polarized_energy": -14.52, 
			 "cosmo_cavitation_energy": 53.15, 
			 "cosmo_dispersion_energy": -34.88, 
			 "cosmo_repulsion_energy": 2.63, 
			 "cosmo_total_nonelectrostatic_energy": 20.9, 
			 "SMD_solvation_energy": 6.51 
		},
		"coords": [
			{
				"x": -0.6456761212,
				"y": 0.8350086603,
				"z": -0.7300396986,
				"element": "C" 
			},
			{
				"x": -1.5382753088,
				"y": -0.2119120016,
				"z": -0.1989621738,
				"element": "N" 
			},
			{
				"x": -1.4019069546,
				"y": -0.7510672755,
				"z": 1.0844204819,
				"element": "C" 
			},
			{
				"x": -2.5528483081,
				"y": -0.9013545581,
				"z": 1.8867821859,
				"element": "C" 
			},
			{
				"x": -2.4999479883,
				"y": -1.4845689546,
				"z": 3.1466724777,
				"element": "C" 
			},
			{
				"x": -1.2827364455,
				"y": -1.9349694341,
				"z": 3.6641588862,
				"element": "C" 
			},
			{
				"x": -0.1365965346,
				"y": -1.8124132471,
				"z": 2.8859742728,
				"element": "C" 
			},
			{
				"x": -0.1795304343,
				"y": -1.232649498,
				"z": 1.6128122872,
				"element": "C" 
			},
			{
				"x": 1.0222177968,
				"y": -1.2055395649,
				"z": 0.8373797787,
				"element": "N" 
			},
			{
				"x": 1.2489491571,
				"y": -2.0218639752,
				"z": -0.2696472024,
				"element": "C" 
			},
			{
				"x": 2.6082149831,
				"y": -1.8297208697,
				"z": -0.6034009644,
				"element": "C" 
			},
			{
				"x": 3.1647903007,
				"y": -2.515944495,
				"z": -1.6923609361,
				"element": "C" 
			},
			{
				"x": 2.3426055293,
				"y": -3.3782438837,
				"z": -2.4088579096,
				"element": "C" 
			},
			{
				"x": 0.9893557708,
				"y": -3.5635985462,
				"z": -2.0561568036,
				"element": "C" 
			},
			{
				"x": 0.4162988571,
				"y": -2.8904745314,
				"z": -0.9789366815,
				"element": "C" 
			},
			{
				"x": 3.1927642814,
				"y": -0.9362363641,
				"z": 0.2710822265,
				"element": "N" 
			},
			{
				"x": 2.2458851047,
				"y": -0.5825745284,
				"z": 1.1170454717,
				"element": "C" 
			},
			{
				"x": 2.4883413861,
				"y": 0.3818869669,
				"z": 2.2053356047,
				"element": "C" 
			},
			{
				"x": 3.8170968878,
				"y": 0.5439250286,
				"z": 2.6402770554,
				"element": "C" 
			},
			{
				"x": 4.1303138549,
				"y": 1.4606043546,
				"z": 3.6389078113,
				"element": "C" 
			},
			{
				"x": 3.1257926419,
				"y": 2.2376437259,
				"z": 4.2223358563,
				"element": "C" 
			},
			{
				"x": 1.807037637,
				"y": 2.0928152047,
				"z": 3.7908738347,
				"element": "C" 
			},
			{
				"x": 1.4866366277,
				"y": 1.174450111,
				"z": 2.7909001191,
				"element": "C" 
			},
			{
				"x": -1.1459439576,
				"y": 1.2915968186,
				"z": -2.0836212731,
				"element": "C" 
			},
			{
				"x": -1.5996336372,
				"y": 2.6002836592,
				"z": -2.2793867671,
				"element": "C" 
			},
			{
				"x": -2.0632974586,
				"y": 3.0142835547,
				"z": -3.5308264232,
				"element": "C" 
			},
			{
				"x": -2.0831718032,
				"y": 2.1171753207,
				"z": -4.5985392371,
				"element": "C" 
			},
			{
				"x": -1.6357202173,
				"y": 0.8060328755,
				"z": -4.4110880399,
				"element": "C" 
			},
			{
				"x": -1.1700772559,
				"y": 0.3957699445,
				"z": -3.1629325558,
				"element": "C" 
			},
			{
				"x": 0.3617598978,
				"y": 0.4272429569,
				"z": -0.8304609521,
				"element": "H" 
			},
			{
				"x": -0.5812083203,
				"y": 1.6968419703,
				"z": -0.0479456085,
				"element": "H" 
			},
			{
				"x": -2.5045801116,
				"y": 0.0222415136,
				"z": -0.3942362361,
				"element": "H" 
			},
			{
				"x": -3.5024585398,
				"y": -0.5381503528,
				"z": 1.5005138662,
				"element": "H" 
			},
			{
				"x": -3.4112694002,
				"y": -1.5759188341,
				"z": 3.7305598926,
				"element": "H" 
			},
			{
				"x": -1.2295691991,
				"y": -2.3874502559,
				"z": 4.6487722122,
				"element": "H" 
			},
			{
				"x": 0.8197749604,
				"y": -2.1757691685,
				"z": 3.2483529662,
				"element": "H" 
			},
			{
				"x": 4.2082646598,
				"y": -2.3709506513,
				"z": -1.9527878254,
				"element": "H" 
			},
			{
				"x": 2.7466912604,
				"y": -3.9237642308,
				"z": -3.2566400822,
				"element": "H" 
			},
			{
				"x": 0.3793105454,
				"y": -4.2499668776,
				"z": -2.6362561101,
				"element": "H" 
			},
			{
				"x": -0.6236883751,
				"y": -3.0309190353,
				"z": -0.7071301372,
				"element": "H" 
			},
			{
				"x": 4.5885567401,
				"y": -0.0572619649,
				"z": 2.1725598607,
				"element": "H" 
			},
			{
				"x": 5.1610774823,
				"y": 1.5686300966,
				"z": 3.9642656943,
				"element": "H" 
			},
			{
				"x": 3.3701141117,
				"y": 2.9520083916,
				"z": 5.0032949729,
				"element": "H" 
			},
			{
				"x": 1.0202090512,
				"y": 2.6996769779,
				"z": 4.2297264942,
				"element": "H" 
			},
			{
				"x": 0.4577704933,
				"y": 1.0862216551,
				"z": 2.4649608342,
				"element": "H" 
			},
			{
				"x": -1.5850852141,
				"y": 3.3019801313,
				"z": -1.4487257237,
				"element": "H" 
			},
			{
				"x": -2.4087057161,
				"y": 4.0349910655,
				"z": -3.6686912147,
				"element": "H" 
			},
			{
				"x": -2.4429073604,
				"y": 2.436391144,
				"z": -5.5725865297,
				"element": "H" 
			},
			{
				"x": -1.6450493255,
				"y": 0.1048021216,
				"z": -5.2408349817,
				"element": "H" 
			},
			{
				"x": -0.8180460311,
				"y": -0.6216211508,
				"z": -3.015813076,
				"element": "H" 
			}
		],
		 "valence_orbital": [ 
			{
				"type": "occ",
				"energy": -0.24838,
				"method": "rhf"
			},
			{
				"type": "occ",
				"energy": -0.24737,
				"method": "rhf"
			},
			{
				"type": "occ",
				"energy": -0.21927,
				"method": "rhf"
			},
			{
				"type": "occ",
				"energy": -0.21094,
				"method": "rhf"
			},
			{
				"type": "occ",
				"energy": -0.2078,
				"method": "rhf"
			},
			{
				"type": "unocc",
				"energy": -0.03817,
				"method": "rhf"
			},
			{
				"type": "unocc",
				"energy": -0.01464,
				"method": "rhf"
			},
			{
				"type": "unocc",
				"energy": -0.0105,
				"method": "rhf"
			},
			{
				"type": "unocc",
				"energy": -0.00427,
				"method": "rhf"
			},
			{
				"type": "unocc",
				"energy": -0.00143,
				"method": "rhf"
			}
		],
		"cosmo_sigma_profile": { 
			"-0.025": 0.0,
			"-0.024": 0.0,
			"-0.023": 0.0,
			"-0.022": 0.0,
			"-0.021": 0.0,
			"-0.02": 0.0,
			"-0.019": 0.0,
			"-0.018": 0.0,
			"-0.017": 0.0,
			"-0.016": 0.0,
			"-0.015": 0.0,
			"-0.014": 0.0,
			"-0.013": 0.0399391985072,
			"-0.012": 0.838651339005,
			"-0.011": 1.32265218182,
			"-0.01": 0.962472527764,
			"-0.009": 1.23136596219,
			"-0.008": 2.05708471761,
			"-0.007": 2.27890614401,
			"-0.006": 17.1217123425,
			"-0.005": 35.389076572,
			"-0.004": 43.2912740806,
			"-0.003": 39.5802866992,
			"-0.002": 31.583352297,
			"-0.001": 28.6373661247,
			"0.0": 27.3209530201,
			"0.001": 31.0338156996,
			"0.002": 30.6174314257,
			"0.003": 31.5393298726,
			"0.004": 36.8748911448,
			"0.005": 35.4666257563,
			"0.006": 16.5510195551,
			"0.007": 2.74432955247,
			"0.008": 2.40492846035,
			"0.009": 0.713613975724,
			"0.01": 1.56385938063,
			"0.011": 1.25602017823,
			"0.012": 0.969158237282,
			"0.013": 0.699606537404,
			"0.014": 1.0666963374,
			"0.015": 0.5926399293,
			"0.016": 0.491874610086,
			"0.017": 0.0,
			"0.018": 0.0,
			"0.019": 0.0,
			"0.02": 0.0,
			"0.021": 0.0,
			"0.022": 0.0,
			"0.023": 0.0,
			"0.024": 0.0,
			"0.025": 0.0
		}
	}
}
