{
	 "smiles": "FC1(F)C(F)(F)C(F)(F)C(F)(C(=O)NC2=CC=C(C=C2Cl)N(=O)=O)C(F)(F)C1(F)F", 
	 "Tm": 366.15, 
	 "num_atms": 34, 
	 "gaussian": { 
		 "optdone": 1, 
		 "sigma_profile": "yes", 
		 "theory": "DFT", 
		 "functional": "B3LYP", 
		 "basiset": "6-31G**", 
		 "properties": { 
			 "R2extent": 12258.3833, 
			 "electric_dipole_moment_norm": 1.73004697046, 
			 "electric_quadrupole_moment_norm": 24.8426171989, 
			 "total_energy": -2391.23511082, 
			 "HOMO_LUMO_gap": 0.17181, 
			 "cosmo_polarized_energy": -13.61, 
			 "cosmo_cavitation_energy": 44.34, 
			 "cosmo_dispersion_energy": -29.14, 
			 "cosmo_repulsion_energy": 1.97, 
			 "cosmo_total_nonelectrostatic_energy": 17.17, 
			 "SMD_solvation_energy": 13.3 
		},
		"coords": [
			{
				"x": 4.1998841272,
				"y": -1.4325435375,
				"z": -0.8964999184,
				"element": "F" 
			},
			{
				"x": 2.8921721302,
				"y": -1.1223663897,
				"z": -0.9882745126,
				"element": "C" 
			},
			{
				"x": 2.6494304001,
				"y": -0.0194528154,
				"z": -0.2425836918,
				"element": "F" 
			},
			{
				"x": 2.535287653,
				"y": -0.8230811684,
				"z": -2.4861961685,
				"element": "C" 
			},
			{
				"x": 3.4189913396,
				"y": -1.4652442064,
				"z": -3.2767325839,
				"element": "F" 
			},
			{
				"x": 2.6447265679,
				"y": 0.5046889454,
				"z": -2.6955819905,
				"element": "F" 
			},
			{
				"x": 1.0943702127,
				"y": -1.2914070379,
				"z": -2.8990717925,
				"element": "C" 
			},
			{
				"x": 1.171436082,
				"y": -2.5840956792,
				"z": -3.277304885,
				"element": "F" 
			},
			{
				"x": 0.6915297562,
				"y": -0.5360093974,
				"z": -3.9419162959,
				"element": "F" 
			},
			{
				"x": 0.0972291922,
				"y": -1.1416347756,
				"z": -1.7282177855,
				"element": "C" 
			},
			{
				"x": 0.2382660179,
				"y": 0.1687669482,
				"z": -1.3033716119,
				"element": "F" 
			},
			{
				"x": -1.3550527362,
				"y": -1.4512150526,
				"z": -2.168399669,
				"element": "C" 
			},
			{
				"x": -1.5487039046,
				"y": -2.2211678162,
				"z": -3.0876025025,
				"element": "O" 
			},
			{
				"x": -2.4048280837,
				"y": -0.8878803563,
				"z": -1.4768785093,
				"element": "N" 
			},
			{
				"x": -2.4940169494,
				"y": -0.0484080132,
				"z": -0.3343805802,
				"element": "C" 
			},
			{
				"x": -2.1029697884,
				"y": 1.2962697679,
				"z": -0.3831362673,
				"element": "C" 
			},
			{
				"x": -2.2591774902,
				"y": 2.1269004992,
				"z": 0.7195576958,
				"element": "C" 
			},
			{
				"x": -2.843427655,
				"y": 1.6034296815,
				"z": 1.8698202916,
				"element": "C" 
			},
			{
				"x": -3.272676826,
				"y": 0.2832228669,
				"z": 1.9513249108,
				"element": "C" 
			},
			{
				"x": -3.0938049645,
				"y": -0.5374276131,
				"z": 0.8424758876,
				"element": "C" 
			},
			{
				"x": -3.6264919735,
				"y": -2.1996661916,
				"z": 0.9251931843,
				"element": "Cl" 
			},
			{
				"x": -3.0264653743,
				"y": 2.4762109513,
				"z": 3.0438750716,
				"element": "N" 
			},
			{
				"x": -3.5562138161,
				"y": 1.9853281133,
				"z": 4.0384271715,
				"element": "O" 
			},
			{
				"x": -2.6371142077,
				"y": 3.6379741436,
				"z": 2.9487336091,
				"element": "O" 
			},
			{
				"x": 0.5148520347,
				"y": -2.0596214857,
				"z": -0.5331867039,
				"element": "C" 
			},
			{
				"x": -0.0747237097,
				"y": -3.2672895259,
				"z": -0.668809225,
				"element": "F" 
			},
			{
				"x": 0.065716516,
				"y": -1.4830358698,
				"z": 0.6051594341,
				"element": "F" 
			},
			{
				"x": 2.0614661629,
				"y": -2.2821786587,
				"z": -0.3993360732,
				"element": "C" 
			},
			{
				"x": 2.3729842865,
				"y": -2.4313130989,
				"z": 0.9029963093,
				"element": "F" 
			},
			{
				"x": 2.3984115521,
				"y": -3.4100470339,
				"z": -1.0655661549,
				"element": "F" 
			},
			{
				"x": -3.2718459489,
				"y": -1.3366013143,
				"z": -1.757958261,
				"element": "H" 
			},
			{
				"x": -1.6734932242,
				"y": 1.6806476249,
				"z": -1.2994587864,
				"element": "H" 
			},
			{
				"x": -1.9563406351,
				"y": 3.1656996556,
				"z": 0.6968998282,
				"element": "H" 
			},
			{
				"x": -3.7263067437,
				"y": -0.0861521598,
				"z": 2.8615005751,
				"element": "H" 
			}
		],
		 "valence_orbital": [ 
			{
				"type": "occ",
				"energy": -0.32442,
				"method": "rhf"
			},
			{
				"type": "occ",
				"energy": -0.30969,
				"method": "rhf"
			},
			{
				"type": "occ",
				"energy": -0.30527,
				"method": "rhf"
			},
			{
				"type": "occ",
				"energy": -0.29406,
				"method": "rhf"
			},
			{
				"type": "occ",
				"energy": -0.28255,
				"method": "rhf"
			},
			{
				"type": "unocc",
				"energy": -0.11074,
				"method": "rhf"
			},
			{
				"type": "unocc",
				"energy": -0.05731,
				"method": "rhf"
			},
			{
				"type": "unocc",
				"energy": -0.04578,
				"method": "rhf"
			},
			{
				"type": "unocc",
				"energy": -0.02755,
				"method": "rhf"
			},
			{
				"type": "unocc",
				"energy": -0.01478,
				"method": "rhf"
			}
		],
		"cosmo_sigma_profile": { 
			"-0.025": 0.0,
			"-0.024": 0.0,
			"-0.023": 0.0,
			"-0.022": 0.0,
			"-0.021": 0.0,
			"-0.02": 0.0,
			"-0.019": 0.0,
			"-0.018": 0.0,
			"-0.017": 0.0,
			"-0.016": 0.615260632902,
			"-0.015": 0.74527861998,
			"-0.014": 1.19861362753,
			"-0.013": 0.815879085491,
			"-0.012": 0.875532311383,
			"-0.011": 1.21845420445,
			"-0.01": 0.541442223922,
			"-0.009": 4.09990118132,
			"-0.008": 7.01313533659,
			"-0.007": 8.26543141262,
			"-0.006": 8.0759616154,
			"-0.005": 10.3525682371,
			"-0.004": 12.3276354124,
			"-0.003": 18.4639338112,
			"-0.002": 26.9355675294,
			"-0.001": 33.4368116406,
			"0.0": 46.5770512694,
			"0.001": 88.2836433279,
			"0.002": 29.8089117058,
			"0.003": 11.5184648777,
			"0.004": 5.16842366301,
			"0.005": 5.40468797382,
			"0.006": 6.89274501967,
			"0.007": 11.1525349735,
			"0.008": 6.76394447137,
			"0.009": 6.51545521752,
			"0.01": 4.64935287768,
			"0.011": 1.50420996715,
			"0.012": 0.000547774073948,
			"0.013": 0.0,
			"0.014": 0.0,
			"0.015": 0.0,
			"0.016": 0.0,
			"0.017": 0.0,
			"0.018": 0.0,
			"0.019": 0.0,
			"0.02": 0.0,
			"0.021": 0.0,
			"0.022": 0.0,
			"0.023": 0.0,
			"0.024": 0.0,
			"0.025": 0.0
		}
	}
}
