{
	 "smiles": "CC1=CC(=C(C=C1)S(Cl)(=O)=O)[N+]([O-])=O", 
	 "Tm": 371.15, 
	 "num_atms": 20, 
	 "gaussian": { 
		 "optdone": 1, 
		 "sigma_profile": "yes", 
		 "theory": "DFT", 
		 "functional": "B3LYP", 
		 "basiset": "6-31G**", 
		 "properties": { 
			 "R2extent": 5058.8824, 
			 "electric_dipole_moment_norm": 8.00339843192, 
			 "electric_quadrupole_moment_norm": 12.4968535512, 
			 "total_energy": -1484.20135693, 
			 "HOMO_LUMO_gap": 0.18543, 
			 "cosmo_polarized_energy": -14.68, 
			 "cosmo_cavitation_energy": 28.31, 
			 "cosmo_dispersion_energy": -21.06, 
			 "cosmo_repulsion_energy": 1.6, 
			 "cosmo_total_nonelectrostatic_energy": 8.86, 
			 "SMD_solvation_energy": 5.88 
		},
		"coords": [
			{
				"x": 0.6700284986,
				"y": 0.3492771962,
				"z": 2.8950495039,
				"element": "C" 
			},
			{
				"x": 0.1532851695,
				"y": -0.2811007306,
				"z": 1.6268330718,
				"element": "C" 
			},
			{
				"x": 1.0276802454,
				"y": -0.9332221775,
				"z": 0.7484595967,
				"element": "C" 
			},
			{
				"x": 0.5593657804,
				"y": -1.5246794635,
				"z": -0.4178071586,
				"element": "C" 
			},
			{
				"x": -0.8104908855,
				"y": -1.5252439617,
				"z": -0.7285623828,
				"element": "C" 
			},
			{
				"x": -1.6824314739,
				"y": -0.8664196574,
				"z": 0.1349418991,
				"element": "C" 
			},
			{
				"x": -1.2025384692,
				"y": -0.2449469011,
				"z": 1.2887893687,
				"element": "C" 
			},
			{
				"x": -1.4553291679,
				"y": -2.3719101834,
				"z": -2.2056479998,
				"element": "S" 
			},
			{
				"x": -3.4582178213,
				"y": -2.8266967458,
				"z": -1.5645073151,
				"element": "Cl" 
			},
			{
				"x": -1.6066601976,
				"y": -1.427132639,
				"z": -3.299212481,
				"element": "O" 
			},
			{
				"x": -0.8183387753,
				"y": -3.6709690223,
				"z": -2.3355289558,
				"element": "O" 
			},
			{
				"x": 1.5852424793,
				"y": -2.0555285322,
				"z": -1.3367031995,
				"element": "N" 
			},
			{
				"x": 2.6155474663,
				"y": -2.4954574017,
				"z": -0.8367644962,
				"element": "O" 
			},
			{
				"x": 1.3512363534,
				"y": -1.9664711136,
				"z": -2.5381004682,
				"element": "O" 
			},
			{
				"x": 1.600952417,
				"y": 0.8955839037,
				"z": 2.7167602241,
				"element": "H" 
			},
			{
				"x": -0.0588087484,
				"y": 1.0424791953,
				"z": 3.3217177791,
				"element": "H" 
			},
			{
				"x": 0.8825872789,
				"y": -0.4177152168,
				"z": 3.6490364555,
				"element": "H" 
			},
			{
				"x": 2.0927767332,
				"y": -0.9774572563,
				"z": 0.9459247132,
				"element": "H" 
			},
			{
				"x": -2.7433899646,
				"y": -0.8523250792,
				"z": -0.078740086,
				"element": "H" 
			},
			{
				"x": -1.9062969183,
				"y": 0.2661357871,
				"z": 1.938861931,
				"element": "H" 
			}
		],
		 "valence_orbital": [ 
			{
				"type": "occ",
				"energy": -0.32715,
				"method": "rhf"
			},
			{
				"type": "occ",
				"energy": -0.32153,
				"method": "rhf"
			},
			{
				"type": "occ",
				"energy": -0.3165,
				"method": "rhf"
			},
			{
				"type": "occ",
				"energy": -0.3014,
				"method": "rhf"
			},
			{
				"type": "occ",
				"energy": -0.29648,
				"method": "rhf"
			},
			{
				"type": "unocc",
				"energy": -0.11105,
				"method": "rhf"
			},
			{
				"type": "unocc",
				"energy": -0.0946,
				"method": "rhf"
			},
			{
				"type": "unocc",
				"energy": -0.06346,
				"method": "rhf"
			},
			{
				"type": "unocc",
				"energy": -0.03635,
				"method": "rhf"
			},
			{
				"type": "unocc",
				"energy": 0.02137,
				"method": "rhf"
			}
		],
		"cosmo_sigma_profile": { 
			"-0.025": 0.0,
			"-0.024": 0.0,
			"-0.023": 0.0,
			"-0.022": 0.0,
			"-0.021": 0.0,
			"-0.02": 0.0,
			"-0.019": 0.0,
			"-0.018": 0.0,
			"-0.017": 0.0,
			"-0.016": 0.0,
			"-0.015": 0.0,
			"-0.014": 0.0,
			"-0.013": 0.0,
			"-0.012": 0.0,
			"-0.011": 0.0,
			"-0.01": 0.0229543293284,
			"-0.009": 2.83042480627,
			"-0.008": 9.00598696829,
			"-0.007": 8.23091816718,
			"-0.006": 11.3641914082,
			"-0.005": 13.6665303961,
			"-0.004": 14.8625534328,
			"-0.003": 17.1277765745,
			"-0.002": 22.6728788579,
			"-0.001": 22.9063580628,
			"0.0": 14.3645471451,
			"0.001": 6.78394961643,
			"0.002": 10.678793144,
			"0.003": 12.2026709054,
			"0.004": 9.3735140236,
			"0.005": 7.26016531767,
			"0.006": 13.2733926501,
			"0.007": 17.2911844755,
			"0.008": 13.8889633417,
			"0.009": 1.89920691198,
			"0.01": 0.0,
			"0.011": 0.0,
			"0.012": 0.0,
			"0.013": 0.0,
			"0.014": 0.0,
			"0.015": 0.0,
			"0.016": 0.0,
			"0.017": 0.0,
			"0.018": 0.0,
			"0.019": 0.0,
			"0.02": 0.0,
			"0.021": 0.0,
			"0.022": 0.0,
			"0.023": 0.0,
			"0.024": 0.0,
			"0.025": 0.0
		}
	}
}
