{
	 "smiles": "COC(=O)C1=CC(Cl)=CC(I)=C1N", 
	 "Tm": 341.15, 
	 "num_atms": 20, 
	 "gaussian": { 
		 "optdone": 1, 
		 "sigma_profile": "no", 
		 "theory": "DFT", 
		 "functional": "B3LYP", 
		 "basiset": "6-31G**", 
		 "properties": { 
			 "R2extent": 4063.0513, 
			 "electric_dipole_moment_norm": 4.28415929909, 
			 "electric_quadrupole_moment_norm": 6.23161205147, 
			 "total_energy": -985.861990579, 
			 "HOMO_LUMO_gap": 0.1587, 
			 "cosmo_polarized_energy": -89643.75, 
			 "cosmo_cavitation_energy": 29.09, 
			 "cosmo_dispersion_energy": -23.14, 
			 "cosmo_repulsion_energy": 1.8, 
			 "cosmo_total_nonelectrostatic_energy": 7.76, 
			 "SMD_solvation_energy": 5.2 
		},
		"coords": [
			{
				"x": 0.7527422984,
				"y": -0.1006790456,
				"z": -3.0004983022,
				"element": "C" 
			},
			{
				"x": 0.9467918667,
				"y": -0.2103828763,
				"z": -1.5778877695,
				"element": "O" 
			},
			{
				"x": -0.038392131,
				"y": -0.875761999,
				"z": -0.9100095004,
				"element": "C" 
			},
			{
				"x": -1.0021095001,
				"y": -1.3301300728,
				"z": -1.4944143575,
				"element": "O" 
			},
			{
				"x": 0.1719299365,
				"y": -0.9796813426,
				"z": 0.560596731,
				"element": "C" 
			},
			{
				"x": -0.8756740324,
				"y": -1.6210454865,
				"z": 1.2412660488,
				"element": "C" 
			},
			{
				"x": -0.839004353,
				"y": -1.7856391918,
				"z": 2.6129456566,
				"element": "C" 
			},
			{
				"x": -2.1589740914,
				"y": -2.5876294511,
				"z": 3.4497147968,
				"element": "Cl" 
			},
			{
				"x": 0.2512522531,
				"y": -1.31059333,
				"z": 3.3467241576,
				"element": "C" 
			},
			{
				"x": 1.2944105419,
				"y": -0.6802109455,
				"z": 2.6858020128,
				"element": "C" 
			},
			{
				"x": 2.9179843974,
				"y": 0.0137821498,
				"z": 3.873209819,
				"element": "I" 
			},
			{
				"x": 1.3091603227,
				"y": -0.4889899987,
				"z": 1.2761529516,
				"element": "C" 
			},
			{
				"x": 2.3689778844,
				"y": 0.1026525592,
				"z": 0.6607180542,
				"element": "N" 
			},
			{
				"x": 0.695240064,
				"y": -1.0921685072,
				"z": -3.4543541416,
				"element": "H" 
			},
			{
				"x": -0.1685508876,
				"y": 0.4435726639,
				"z": -3.2186002723,
				"element": "H" 
			},
			{
				"x": 1.6200613951,
				"y": 0.4442139838,
				"z": -3.3728354214,
				"element": "H" 
			},
			{
				"x": -1.7134466994,
				"y": -1.9786257322,
				"z": 0.6554303311,
				"element": "H" 
			},
			{
				"x": 0.2768133429,
				"y": -1.4366142839,
				"z": 4.4221814644,
				"element": "H" 
			},
			{
				"x": 2.2903866853,
				"y": 0.3292745372,
				"z": -0.3173726027,
				"element": "H" 
			},
			{
				"x": 3.0686007065,
				"y": 0.5610563689,
				"z": 1.2219303435,
				"element": "H" 
			}
		],
		 "valence_orbital": [ 
			{
				"type": "occ",
				"energy": -0.29711,
				"method": "rhf"
			},
			{
				"type": "occ",
				"energy": -0.28889,
				"method": "rhf"
			},
			{
				"type": "occ",
				"energy": -0.28177,
				"method": "rhf"
			},
			{
				"type": "occ",
				"energy": -0.25717,
				"method": "rhf"
			},
			{
				"type": "occ",
				"energy": -0.21596,
				"method": "rhf"
			},
			{
				"type": "unocc",
				"energy": -0.05726,
				"method": "rhf"
			},
			{
				"type": "unocc",
				"energy": -0.0514,
				"method": "rhf"
			},
			{
				"type": "unocc",
				"energy": -0.00902,
				"method": "rhf"
			},
			{
				"type": "unocc",
				"energy": 0.02921,
				"method": "rhf"
			},
			{
				"type": "unocc",
				"energy": 0.037,
				"method": "rhf"
			}
		],
		"cosmo_sigma_profile": { 
			"0.0": 0.0,
			"0.0": 0.0,
			"0.0": 0.0,
			"0.0": 0.0,
			"0.0": 0.0,
			"0.0": 0.0,
			"0.0": 0.0,
			"0.0": 0.0,
			"0.0": 0.0,
			"0.0": 0.0,
			"0.0": 0.0,
			"0.0": 0.0,
			"0.0": 0.0,
			"0.0": 0.0,
			"0.0": 0.0,
			"0.0": 0.0,
			"0.0": 0.0,
			"0.0": 0.0,
			"0.0": 0.0,
			"0.0": 0.0,
			"0.0": 0.0,
			"0.0": 0.0,
			"0.0": 0.0,
			"0.0": 0.0,
			"0.0": 0.0,
			"0.0": 0.0,
			"0.0": 0.0,
			"0.0": 0.0,
			"0.0": 0.0,
			"0.0": 0.0,
			"0.0": 0.0,
			"0.0": 0.0,
			"0.0": 0.0,
			"0.0": 0.0,
			"0.0": 0.0,
			"0.0": 0.0,
			"0.0": 0.0,
			"0.0": 0.0,
			"0.0": 0.0,
			"0.0": 0.0,
			"0.0": 0.0,
			"0.0": 0.0,
			"0.0": 0.0,
			"0.0": 0.0,
			"0.0": 0.0,
			"0.0": 0.0,
			"0.0": 0.0,
			"0.0": 0.0,
			"0.0": 0.0,
			"0.0": 0.0,
			"0.0": 0.0
		}
	}
}
