{
	 "smiles": "CCCCC(N1N=NC2=C1C=CC=C2)C(N)=O", 
	 "Tm": 391.15, 
	 "num_atms": 33, 
	 "gaussian": { 
		 "optdone": 1, 
		 "sigma_profile": "yes", 
		 "theory": "DFT", 
		 "functional": "B3LYP", 
		 "basiset": "6-31G**", 
		 "properties": { 
			 "R2extent": 4661.9424, 
			 "electric_dipole_moment_norm": 2.5052947631, 
			 "electric_quadrupole_moment_norm": 15.6765184282, 
			 "total_energy": -761.143842971, 
			 "HOMO_LUMO_gap": 0.18613, 
			 "cosmo_polarized_energy": -14.86, 
			 "cosmo_cavitation_energy": 35.35, 
			 "cosmo_dispersion_energy": -24.43, 
			 "cosmo_repulsion_energy": 1.92, 
			 "cosmo_total_nonelectrostatic_energy": 12.84, 
			 "SMD_solvation_energy": 4.8 
		},
		"coords": [
			{
				"x": 1.9247544565,
				"y": 2.3147073268,
				"z": -1.1159090563,
				"element": "C" 
			},
			{
				"x": 2.1349336325,
				"y": 0.8041568821,
				"z": -0.9577000935,
				"element": "C" 
			},
			{
				"x": 1.8984827634,
				"y": 0.2838467387,
				"z": 0.473065527,
				"element": "C" 
			},
			{
				"x": 0.4403853464,
				"y": 0.3347695827,
				"z": 0.9788241648,
				"element": "C" 
			},
			{
				"x": -0.4097484463,
				"y": -0.9437374665,
				"z": 0.7699691235,
				"element": "C" 
			},
			{
				"x": -0.6305375023,
				"y": -1.2789609946,
				"z": -0.6428009681,
				"element": "N" 
			},
			{
				"x": 0.2545292668,
				"y": -2.0043192091,
				"z": -1.387963761,
				"element": "N" 
			},
			{
				"x": -0.1482888036,
				"y": -2.0689044061,
				"z": -2.6160632286,
				"element": "N" 
			},
			{
				"x": -1.3235139336,
				"y": -1.3598236637,
				"z": -2.7183549741,
				"element": "C" 
			},
			{
				"x": -1.6468363832,
				"y": -0.8394686117,
				"z": -1.4484248086,
				"element": "C" 
			},
			{
				"x": -2.7977243626,
				"y": -0.0640124264,
				"z": -1.2314140184,
				"element": "C" 
			},
			{
				"x": -3.6058547588,
				"y": 0.1587605742,
				"z": -2.3354705059,
				"element": "C" 
			},
			{
				"x": -3.292065172,
				"y": -0.3622983086,
				"z": -3.6164879878,
				"element": "C" 
			},
			{
				"x": -2.1554795908,
				"y": -1.123849494,
				"z": -3.8267296176,
				"element": "C" 
			},
			{
				"x": 0.109643633,
				"y": -2.084176005,
				"z": 1.6813202149,
				"element": "C" 
			},
			{
				"x": 0.7059795186,
				"y": -3.1526440862,
				"z": 1.1053368829,
				"element": "N" 
			},
			{
				"x": -0.030636302,
				"y": -1.9442277323,
				"z": 2.8896388493,
				"element": "O" 
			},
			{
				"x": 2.1376687542,
				"y": 2.634623174,
				"z": -2.1410868194,
				"element": "H" 
			},
			{
				"x": 0.8956499866,
				"y": 2.6160207679,
				"z": -0.8908994354,
				"element": "H" 
			},
			{
				"x": 2.5859805908,
				"y": 2.8780903052,
				"z": -0.4470904733,
				"element": "H" 
			},
			{
				"x": 3.167019417,
				"y": 0.5611337836,
				"z": -1.2398386434,
				"element": "H" 
			},
			{
				"x": 1.5000384902,
				"y": 0.2632019041,
				"z": -1.6672204362,
				"element": "H" 
			},
			{
				"x": 2.2753786908,
				"y": -0.7426627934,
				"z": 0.5517985559,
				"element": "H" 
			},
			{
				"x": 2.5155212036,
				"y": 0.8794237408,
				"z": 1.1579451708,
				"element": "H" 
			},
			{
				"x": -0.0951416921,
				"y": 1.176308212,
				"z": 0.5248180849,
				"element": "H" 
			},
			{
				"x": 0.4249608478,
				"y": 0.5003412208,
				"z": 2.0601257096,
				"element": "H" 
			},
			{
				"x": -1.4071286393,
				"y": -0.7396101823,
				"z": 1.1689889426,
				"element": "H" 
			},
			{
				"x": -3.0475908174,
				"y": 0.3420370439,
				"z": -0.2568886374,
				"element": "H" 
			},
			{
				"x": -4.5079984746,
				"y": 0.7516207836,
				"z": -2.2177253957,
				"element": "H" 
			},
			{
				"x": -3.96231567,
				"y": -0.1549795655,
				"z": -4.444812627,
				"element": "H" 
			},
			{
				"x": -1.9037456867,
				"y": -1.5289148242,
				"z": -4.8009271461,
				"element": "H" 
			},
			{
				"x": 1.068584058,
				"y": -3.8655178434,
				"z": 1.7206945155,
				"element": "H" 
			},
			{
				"x": 0.8748955793,
				"y": -3.1829344274,
				"z": 0.1064828922,
				"element": "H" 
			}
		],
		 "valence_orbital": [ 
			{
				"type": "occ",
				"energy": -0.28007,
				"method": "rhf"
			},
			{
				"type": "occ",
				"energy": -0.26895,
				"method": "rhf"
			},
			{
				"type": "occ",
				"energy": -0.2612,
				"method": "rhf"
			},
			{
				"type": "occ",
				"energy": -0.25831,
				"method": "rhf"
			},
			{
				"type": "occ",
				"energy": -0.24025,
				"method": "rhf"
			},
			{
				"type": "unocc",
				"energy": -0.05412,
				"method": "rhf"
			},
			{
				"type": "unocc",
				"energy": 0.00059,
				"method": "rhf"
			},
			{
				"type": "unocc",
				"energy": 0.02026,
				"method": "rhf"
			},
			{
				"type": "unocc",
				"energy": 0.02467,
				"method": "rhf"
			},
			{
				"type": "unocc",
				"energy": 0.07711,
				"method": "rhf"
			}
		],
		"cosmo_sigma_profile": { 
			"-0.025": 0.0,
			"-0.024": 0.0,
			"-0.023": 0.0,
			"-0.022": 0.0,
			"-0.021": 0.0,
			"-0.02": 0.0,
			"-0.019": 0.0,
			"-0.018": 0.0,
			"-0.017": 0.0,
			"-0.016": 0.0,
			"-0.015": 0.054199571609,
			"-0.014": 1.07431515377,
			"-0.013": 1.07492787419,
			"-0.012": 1.3285928111,
			"-0.011": 0.856312190747,
			"-0.01": 1.4418067858,
			"-0.009": 4.25721129718,
			"-0.008": 5.97794255581,
			"-0.007": 6.9343935001,
			"-0.006": 11.0226102486,
			"-0.005": 12.6718886308,
			"-0.004": 14.6644239152,
			"-0.003": 19.1231582402,
			"-0.002": 28.6819376888,
			"-0.001": 29.4805872181,
			"0.0": 30.0960795701,
			"0.001": 26.0327738697,
			"0.002": 19.6921557673,
			"0.003": 15.5095745042,
			"0.004": 11.2137556478,
			"0.005": 4.78323975789,
			"0.006": 2.73443067495,
			"0.007": 3.49989096965,
			"0.008": 3.26514741263,
			"0.009": 3.18093654244,
			"0.01": 1.88859642728,
			"0.011": 3.2051047425,
			"0.012": 3.11283762738,
			"0.013": 5.39028780685,
			"0.014": 5.73912524949,
			"0.015": 1.08780782493,
			"0.016": 0.0378297420324,
			"0.017": 0.0,
			"0.018": 0.0,
			"0.019": 0.0,
			"0.02": 0.0,
			"0.021": 0.0,
			"0.022": 0.0,
			"0.023": 0.0,
			"0.024": 0.0,
			"0.025": 0.0
		}
	}
}
