{
	 "smiles": "OC(=O)C1(CCCCC1)NC(=O)C1=CC=C(Br)C=C1", 
	 "Tm": 512.15, 
	 "num_atms": 35, 
	 "gaussian": { 
		 "optdone": 1, 
		 "sigma_profile": "yes", 
		 "theory": "DFT", 
		 "functional": "B3LYP", 
		 "basiset": "6-31G**", 
		 "properties": { 
			 "R2extent": 12323.5513, 
			 "electric_dipole_moment_norm": 3.69898316568, 
			 "electric_quadrupole_moment_norm": 10.7791413591, 
			 "total_energy": -3395.0000285, 
			 "HOMO_LUMO_gap": 0.19965, 
			 "cosmo_polarized_energy": -17.72, 
			 "cosmo_cavitation_energy": 39.48, 
			 "cosmo_dispersion_energy": -28.21, 
			 "cosmo_repulsion_energy": 2.18, 
			 "cosmo_total_nonelectrostatic_energy": 13.45, 
			 "SMD_solvation_energy": 6.03 
		},
		"coords": [
			{
				"x": 2.2194483169,
				"y": 1.8411952857,
				"z": -1.3729948785,
				"element": "O" 
			},
			{
				"x": 1.756135688,
				"y": 0.6925109853,
				"z": -1.9215584984,
				"element": "C" 
			},
			{
				"x": 2.2533941134,
				"y": 0.1928274655,
				"z": -2.9052150461,
				"element": "O" 
			},
			{
				"x": 0.4754221787,
				"y": 0.1915580826,
				"z": -1.2317753274,
				"element": "C" 
			},
			{
				"x": 0.2803373163,
				"y": -1.3280939979,
				"z": -1.5149435389,
				"element": "C" 
			},
			{
				"x": -0.5761430115,
				"y": -1.58078264,
				"z": -2.7616171973,
				"element": "C" 
			},
			{
				"x": -2.0088656169,
				"y": -1.0250996892,
				"z": -2.5952356139,
				"element": "C" 
			},
			{
				"x": -2.0324844159,
				"y": 0.2481243824,
				"z": -1.7150659048,
				"element": "C" 
			},
			{
				"x": -0.709072192,
				"y": 1.0138794186,
				"z": -1.82739746,
				"element": "C" 
			},
			{
				"x": 0.5190038414,
				"y": 0.4477462943,
				"z": 0.2134879697,
				"element": "N" 
			},
			{
				"x": 1.5626778043,
				"y": -0.0170733993,
				"z": 0.9763655537,
				"element": "C" 
			},
			{
				"x": 2.4452803323,
				"y": -0.7311193877,
				"z": 0.5080596137,
				"element": "O" 
			},
			{
				"x": 1.5622732819,
				"y": 0.3895894178,
				"z": 2.4219827824,
				"element": "C" 
			},
			{
				"x": 0.4180453345,
				"y": 0.8279458373,
				"z": 3.1024496328,
				"element": "C" 
			},
			{
				"x": 0.4833813519,
				"y": 1.1851230529,
				"z": 4.4486809334,
				"element": "C" 
			},
			{
				"x": 1.7057227604,
				"y": 1.0998837467,
				"z": 5.1138061828,
				"element": "C" 
			},
			{
				"x": 1.8043475221,
				"y": 1.5935524072,
				"z": 6.955452648,
				"element": "Br" 
			},
			{
				"x": 2.8551019113,
				"y": 0.652401742,
				"z": 4.4609101956,
				"element": "C" 
			},
			{
				"x": 2.7739615832,
				"y": 0.2933252194,
				"z": 3.1186454295,
				"element": "C" 
			},
			{
				"x": 2.9992948842,
				"y": 2.0890489,
				"z": -1.8974096833,
				"element": "H" 
			},
			{
				"x": 1.2570716375,
				"y": -1.8028079659,
				"z": -1.6065851214,
				"element": "H" 
			},
			{
				"x": -0.2101352561,
				"y": -1.76394676,
				"z": -0.6379371953,
				"element": "H" 
			},
			{
				"x": -0.0821226241,
				"y": -1.1204552916,
				"z": -3.6239688528,
				"element": "H" 
			},
			{
				"x": -0.6111037074,
				"y": -2.6553881682,
				"z": -2.9700770414,
				"element": "H" 
			},
			{
				"x": -2.4318893192,
				"y": -0.803923223,
				"z": -3.5821446394,
				"element": "H" 
			},
			{
				"x": -2.658310036,
				"y": -1.785101922,
				"z": -2.1455919984,
				"element": "H" 
			},
			{
				"x": -2.1967738912,
				"y": -0.0214107884,
				"z": -0.6645796064,
				"element": "H" 
			},
			{
				"x": -2.8660989463,
				"y": 0.8989561591,
				"z": -2.000062438,
				"element": "H" 
			},
			{
				"x": -0.4999959592,
				"y": 1.2210020237,
				"z": -2.8826654322,
				"element": "H" 
			},
			{
				"x": -0.7573277066,
				"y": 1.9909413504,
				"z": -1.3314551811,
				"element": "H" 
			},
			{
				"x": 0.06334744,
				"y": 1.2903388014,
				"z": 0.5344222727,
				"element": "H" 
			},
			{
				"x": -0.5430983489,
				"y": 0.8618541806,
				"z": 2.5981976437,
				"element": "H" 
			},
			{
				"x": -0.4033473027,
				"y": 1.5161338701,
				"z": 4.9768698674,
				"element": "H" 
			},
			{
				"x": 3.7949017536,
				"y": 0.5850685896,
				"z": 4.9968615805,
				"element": "H" 
			},
			{
				"x": 3.646419282,
				"y": -0.0704039796,
				"z": 2.586588349,
				"element": "H" 
			}
		],
		 "valence_orbital": [ 
			{
				"type": "occ",
				"energy": -0.28945,
				"method": "rhf"
			},
			{
				"type": "occ",
				"energy": -0.27371,
				"method": "rhf"
			},
			{
				"type": "occ",
				"energy": -0.26274,
				"method": "rhf"
			},
			{
				"type": "occ",
				"energy": -0.25249,
				"method": "rhf"
			},
			{
				"type": "occ",
				"energy": -0.24919,
				"method": "rhf"
			},
			{
				"type": "unocc",
				"energy": -0.04954,
				"method": "rhf"
			},
			{
				"type": "unocc",
				"energy": -0.02395,
				"method": "rhf"
			},
			{
				"type": "unocc",
				"energy": 0.00032,
				"method": "rhf"
			},
			{
				"type": "unocc",
				"energy": 0.01109,
				"method": "rhf"
			},
			{
				"type": "unocc",
				"energy": 0.04519,
				"method": "rhf"
			}
		],
		"cosmo_sigma_profile": { 
			"-0.025": 0.0,
			"-0.024": 0.0,
			"-0.023": 0.0,
			"-0.022": 0.0,
			"-0.021": 0.0,
			"-0.02": 0.0,
			"-0.019": 0.00970376085002,
			"-0.018": 0.824561918438,
			"-0.017": 1.08471308805,
			"-0.016": 0.662033649075,
			"-0.015": 0.796186525811,
			"-0.014": 1.19756614521,
			"-0.013": 1.53168804767,
			"-0.012": 2.13698411429,
			"-0.011": 1.87354669787,
			"-0.01": 2.58907908124,
			"-0.009": 2.01776731108,
			"-0.008": 3.71962987234,
			"-0.007": 7.10841312569,
			"-0.006": 9.29527318308,
			"-0.005": 10.8537937786,
			"-0.004": 11.7567866878,
			"-0.003": 22.0190853489,
			"-0.002": 31.5227534813,
			"-0.001": 38.1973948398,
			"0.0": 30.9659688753,
			"0.001": 28.7530538518,
			"0.002": 25.9849546178,
			"0.003": 17.9443261322,
			"0.004": 16.7190895346,
			"0.005": 6.83798822412,
			"0.006": 5.1480645717,
			"0.007": 6.05147803172,
			"0.008": 4.76953714594,
			"0.009": 3.7431137107,
			"0.01": 3.4737047973,
			"0.011": 5.53641211027,
			"0.012": 5.80989748597,
			"0.013": 2.76587592554,
			"0.014": 0.376171924766,
			"0.015": 0.0,
			"0.016": 0.0,
			"0.017": 0.0,
			"0.018": 0.0,
			"0.019": 0.0,
			"0.02": 0.0,
			"0.021": 0.0,
			"0.022": 0.0,
			"0.023": 0.0,
			"0.024": 0.0,
			"0.025": 0.0
		}
	}
}
