{
	 "smiles": "ClC(=O)C1=CSC=C1", 
	 "Tm": 325.15, 
	 "num_atms": 11, 
	 "gaussian": { 
		 "optdone": 1, 
		 "sigma_profile": "yes", 
		 "theory": "DFT", 
		 "functional": "B3LYP", 
		 "basiset": "6-31G**", 
		 "properties": { 
			 "R2extent": 1983.9529, 
			 "electric_dipole_moment_norm": 3.76242452815, 
			 "electric_quadrupole_moment_norm": 9.08462535936, 
			 "total_energy": -1125.93279412, 
			 "HOMO_LUMO_gap": 0.19161, 
			 "cosmo_polarized_energy": -6.18, 
			 "cosmo_cavitation_energy": 19.26, 
			 "cosmo_dispersion_energy": -15.04, 
			 "cosmo_repulsion_energy": 1.19, 
			 "cosmo_total_nonelectrostatic_energy": 5.41, 
			 "SMD_solvation_energy": 4.24 
		},
		"coords": [
			{
				"x": 1.9518871617,
				"y": 2.0582674731,
				"z": -2.8741160029,
				"element": "Cl" 
			},
			{
				"x": 2.1825439972,
				"y": 1.3447067014,
				"z": -1.2023405557,
				"element": "C" 
			},
			{
				"x": 3.2625245085,
				"y": 1.3817656951,
				"z": -0.6930584158,
				"element": "O" 
			},
			{
				"x": 0.9591818114,
				"y": 0.7706366116,
				"z": -0.6270089232,
				"element": "C" 
			},
			{
				"x": 1.0049399115,
				"y": 0.2018667037,
				"z": 0.6301149506,
				"element": "C" 
			},
			{
				"x": -0.5279082829,
				"y": -0.4038118854,
				"z": 1.105062069,
				"element": "S" 
			},
			{
				"x": -1.2540220844,
				"y": 0.1044831102,
				"z": -0.392967934,
				"element": "C" 
			},
			{
				"x": -0.3493183272,
				"y": 0.7108507261,
				"z": -1.2122939908,
				"element": "C" 
			},
			{
				"x": 1.8698568954,
				"y": 0.1231428843,
				"z": 1.2731275578,
				"element": "H" 
			},
			{
				"x": -2.3042880226,
				"y": -0.0777853557,
				"z": -0.5719365792,
				"element": "H" 
			},
			{
				"x": -0.5863975688,
				"y": 1.1032773355,
				"z": -2.1919821758,
				"element": "H" 
			}
		],
		 "valence_orbital": [ 
			{
				"type": "occ",
				"energy": -0.31975,
				"method": "rhf"
			},
			{
				"type": "occ",
				"energy": -0.31865,
				"method": "rhf"
			},
			{
				"type": "occ",
				"energy": -0.29528,
				"method": "rhf"
			},
			{
				"type": "occ",
				"energy": -0.2822,
				"method": "rhf"
			},
			{
				"type": "occ",
				"energy": -0.26589,
				"method": "rhf"
			},
			{
				"type": "unocc",
				"energy": -0.07428,
				"method": "rhf"
			},
			{
				"type": "unocc",
				"energy": -0.01876,
				"method": "rhf"
			},
			{
				"type": "unocc",
				"energy": -0.00142,
				"method": "rhf"
			},
			{
				"type": "unocc",
				"energy": 0.02984,
				"method": "rhf"
			},
			{
				"type": "unocc",
				"energy": 0.07987,
				"method": "rhf"
			}
		],
		"cosmo_sigma_profile": { 
			"-0.025": 0.0,
			"-0.024": 0.0,
			"-0.023": 0.0,
			"-0.022": 0.0,
			"-0.021": 0.0,
			"-0.02": 0.0,
			"-0.019": 0.0,
			"-0.018": 0.0,
			"-0.017": 0.0,
			"-0.016": 0.0,
			"-0.015": 0.0,
			"-0.014": 0.0,
			"-0.013": 0.0,
			"-0.012": 0.0,
			"-0.011": 0.0893487311934,
			"-0.01": 2.33028374783,
			"-0.009": 4.06495897958,
			"-0.008": 3.83888638811,
			"-0.007": 4.60615041044,
			"-0.006": 4.64020557132,
			"-0.005": 5.39695531697,
			"-0.004": 7.30689618873,
			"-0.003": 8.50434084185,
			"-0.002": 9.03901162803,
			"-0.001": 15.0445877741,
			"0.0": 17.9565819586,
			"0.001": 21.7666575064,
			"0.002": 14.4331141493,
			"0.003": 10.4174009826,
			"0.004": 9.90886598073,
			"0.005": 6.73498577741,
			"0.006": 3.05830429475,
			"0.007": 2.60861835374,
			"0.008": 3.87449824476,
			"0.009": 3.86895996689,
			"0.01": 0.794968359627,
			"0.011": 0.0,
			"0.012": 0.0,
			"0.013": 0.0,
			"0.014": 0.0,
			"0.015": 0.0,
			"0.016": 0.0,
			"0.017": 0.0,
			"0.018": 0.0,
			"0.019": 0.0,
			"0.02": 0.0,
			"0.021": 0.0,
			"0.022": 0.0,
			"0.023": 0.0,
			"0.024": 0.0,
			"0.025": 0.0
		}
	}
}
