{
	 "smiles": "CC1=CC2=C(C=C1)C(=O)N(CCC(O)=O)C2=O", 
	 "Tm": 437.15, 
	 "num_atms": 28, 
	 "gaussian": { 
		 "optdone": 1, 
		 "sigma_profile": "yes", 
		 "theory": "DFT", 
		 "functional": "B3LYP", 
		 "basiset": "6-31G**", 
		 "properties": { 
			 "R2extent": 5177.3151, 
			 "electric_dipole_moment_norm": 9.047072243, 
			 "electric_quadrupole_moment_norm": 15.6915283593, 
			 "total_energy": -819.609023468, 
			 "HOMO_LUMO_gap": 0.15076, 
			 "cosmo_polarized_energy": -18.16, 
			 "cosmo_cavitation_energy": 32.62, 
			 "cosmo_dispersion_energy": -23.55, 
			 "cosmo_repulsion_energy": 1.8, 
			 "cosmo_total_nonelectrostatic_energy": 10.87, 
			 "SMD_solvation_energy": 7.59 
		},
		"coords": [
			{
				"x": 2.9534504522,
				"y": 0.5027389282,
				"z": 4.4032471785,
				"element": "C" 
			},
			{
				"x": 2.0394912606,
				"y": 0.4792291427,
				"z": 3.20214446,
				"element": "C" 
			},
			{
				"x": 2.2198608321,
				"y": -0.492947249,
				"z": 2.1974871652,
				"element": "C" 
			},
			{
				"x": 1.3551228592,
				"y": -0.4909557341,
				"z": 1.1175633544,
				"element": "C" 
			},
			{
				"x": 0.321458546,
				"y": 0.443672491,
				"z": 1.0050760476,
				"element": "C" 
			},
			{
				"x": 0.1240725803,
				"y": 1.4114403396,
				"z": 1.9772280984,
				"element": "C" 
			},
			{
				"x": 0.9971693358,
				"y": 1.4128305766,
				"z": 3.0731982618,
				"element": "C" 
			},
			{
				"x": -0.4071488991,
				"y": 0.1743546462,
				"z": -0.2603548227,
				"element": "C" 
			},
			{
				"x": -1.3705824993,
				"y": 0.7729448021,
				"z": -0.7269969283,
				"element": "O" 
			},
			{
				"x": 0.2207771021,
				"y": -0.9146541903,
				"z": -0.8547474449,
				"element": "N" 
			},
			{
				"x": -0.2055811276,
				"y": -1.5329704088,
				"z": -2.1067607925,
				"element": "C" 
			},
			{
				"x": -0.0445013241,
				"y": -0.621681651,
				"z": -3.3535117933,
				"element": "C" 
			},
			{
				"x": -1.3612950433,
				"y": -0.2604469772,
				"z": -4.0500092228,
				"element": "C" 
			},
			{
				"x": -2.3135444595,
				"y": 0.290616119,
				"z": -3.27793698,
				"element": "O" 
			},
			{
				"x": -1.5430734625,
				"y": -0.4587482812,
				"z": -5.2286442949,
				"element": "O" 
			},
			{
				"x": 1.3051737402,
				"y": -1.3860458388,
				"z": -0.0751685078,
				"element": "C" 
			},
			{
				"x": 2.0097799365,
				"y": -2.3288512625,
				"z": -0.3645042032,
				"element": "O" 
			},
			{
				"x": 2.781641239,
				"y": 1.3866886697,
				"z": 5.0221458168,
				"element": "H" 
			},
			{
				"x": 4.0056041808,
				"y": 0.4990187673,
				"z": 4.0997904296,
				"element": "H" 
			},
			{
				"x": 2.7968537364,
				"y": -0.3817701001,
				"z": 5.0316934204,
				"element": "H" 
			},
			{
				"x": 3.0175571431,
				"y": -1.2270774062,
				"z": 2.2651008424,
				"element": "H" 
			},
			{
				"x": -0.6759844028,
				"y": 2.1393584131,
				"z": 1.8903732225,
				"element": "H" 
			},
			{
				"x": 0.8674669113,
				"y": 2.1600880048,
				"z": 3.8510663698,
				"element": "H" 
			},
			{
				"x": -1.2453146396,
				"y": -1.8561893923,
				"z": -1.9937110338,
				"element": "H" 
			},
			{
				"x": 0.4116421396,
				"y": -2.4271876384,
				"z": -2.206662411,
				"element": "H" 
			},
			{
				"x": 0.4643327945,
				"y": 0.3058985761,
				"z": -3.0667231069,
				"element": "H" 
			},
			{
				"x": 0.576765683,
				"y": -1.1108981432,
				"z": -4.1046710677,
				"element": "H" 
			},
			{
				"x": -1.9969946147,
				"y": 0.4589447967,
				"z": -2.3620120572,
				"element": "H" 
			}
		],
		 "valence_orbital": [ 
			{
				"type": "occ",
				"energy": -0.29308,
				"method": "rhf"
			},
			{
				"type": "occ",
				"energy": -0.29201,
				"method": "rhf"
			},
			{
				"type": "occ",
				"energy": -0.28994,
				"method": "rhf"
			},
			{
				"type": "occ",
				"energy": -0.27748,
				"method": "rhf"
			},
			{
				"type": "occ",
				"energy": -0.25111,
				"method": "rhf"
			},
			{
				"type": "unocc",
				"energy": -0.10035,
				"method": "rhf"
			},
			{
				"type": "unocc",
				"energy": -0.05714,
				"method": "rhf"
			},
			{
				"type": "unocc",
				"energy": 0.01189,
				"method": "rhf"
			},
			{
				"type": "unocc",
				"energy": 0.02284,
				"method": "rhf"
			},
			{
				"type": "unocc",
				"energy": 0.05356,
				"method": "rhf"
			}
		],
		"cosmo_sigma_profile": { 
			"-0.025": 0.0,
			"-0.024": 0.0,
			"-0.023": 0.0,
			"-0.022": 0.0,
			"-0.021": 0.0,
			"-0.02": 0.0,
			"-0.019": 0.0,
			"-0.018": 0.0,
			"-0.017": 0.0,
			"-0.016": 0.0,
			"-0.015": 0.0,
			"-0.014": 0.0,
			"-0.013": 0.0,
			"-0.012": 0.0,
			"-0.011": 0.0,
			"-0.01": 0.0,
			"-0.009": 0.048323344169,
			"-0.008": 4.26502287657,
			"-0.007": 16.590253493,
			"-0.006": 20.6990653804,
			"-0.005": 23.9921089049,
			"-0.004": 22.8969592251,
			"-0.003": 19.0097007888,
			"-0.002": 18.5129474146,
			"-0.001": 21.3393628496,
			"0.0": 17.8025708453,
			"0.001": 16.5153770291,
			"0.002": 13.1025337396,
			"0.003": 6.0508617366,
			"0.004": 4.68718217619,
			"0.005": 3.97035558043,
			"0.006": 4.46072817148,
			"0.007": 4.9445408647,
			"0.008": 5.88674196567,
			"0.009": 6.05128194286,
			"0.01": 8.41780905811,
			"0.011": 9.16785239854,
			"0.012": 7.11796905302,
			"0.013": 4.06011695475,
			"0.014": 0.92494443353,
			"0.015": 0.0,
			"0.016": 0.0,
			"0.017": 0.0,
			"0.018": 0.0,
			"0.019": 0.0,
			"0.02": 0.0,
			"0.021": 0.0,
			"0.022": 0.0,
			"0.023": 0.0,
			"0.024": 0.0,
			"0.025": 0.0
		}
	}
}
