{
	 "smiles": "CC1=CC=C(OC2=CC=C(C=C2)N(=O)=O)C=C1", 
	 "Tm": 342.15, 
	 "num_atms": 28, 
	 "gaussian": { 
		 "optdone": 1, 
		 "sigma_profile": "yes", 
		 "theory": "DFT", 
		 "functional": "B3LYP", 
		 "basiset": "6-31G**", 
		 "properties": { 
			 "R2extent": 6449.4682, 
			 "electric_dipole_moment_norm": 6.39437328673, 
			 "electric_quadrupole_moment_norm": 23.1350863521, 
			 "total_energy": -782.335947171, 
			 "HOMO_LUMO_gap": 0.17, 
			 "cosmo_polarized_energy": -9.97, 
			 "cosmo_cavitation_energy": 33.53, 
			 "cosmo_dispersion_energy": -24.02, 
			 "cosmo_repulsion_energy": 1.86, 
			 "cosmo_total_nonelectrostatic_energy": 11.37, 
			 "SMD_solvation_energy": 8.27 
		},
		"coords": [
			{
				"x": 0.6336013765,
				"y": 4.1155030826,
				"z": 4.4103282867,
				"element": "C" 
			},
			{
				"x": 0.16454443,
				"y": 3.2552862124,
				"z": 3.2603762293,
				"element": "C" 
			},
			{
				"x": 0.165943934,
				"y": 1.8569543792,
				"z": 3.3586796659,
				"element": "C" 
			},
			{
				"x": -0.2945833558,
				"y": 1.0559615523,
				"z": 2.3135046898,
				"element": "C" 
			},
			{
				"x": -0.7617796831,
				"y": 1.6611652915,
				"z": 1.1489509667,
				"element": "C" 
			},
			{
				"x": -1.2934846652,
				"y": 0.8712258228,
				"z": 0.1299045353,
				"element": "O" 
			},
			{
				"x": -0.4874932837,
				"y": 0.4169145054,
				"z": -0.8742408122,
				"element": "C" 
			},
			{
				"x": 0.884446205,
				"y": 0.6929925041,
				"z": -0.962765696,
				"element": "C" 
			},
			{
				"x": 1.6173774946,
				"y": 0.1809535286,
				"z": -2.0282229831,
				"element": "C" 
			},
			{
				"x": 0.9775962338,
				"y": -0.5980381965,
				"z": -2.9907578962,
				"element": "C" 
			},
			{
				"x": -0.3891641051,
				"y": -0.8786994747,
				"z": -2.9112292902,
				"element": "C" 
			},
			{
				"x": -1.1211831692,
				"y": -0.3693957536,
				"z": -1.8503739891,
				"element": "C" 
			},
			{
				"x": 1.753679901,
				"y": -1.1334897838,
				"z": -4.1085967038,
				"element": "N" 
			},
			{
				"x": 2.956823399,
				"y": -0.8690535658,
				"z": -4.1519987348,
				"element": "O" 
			},
			{
				"x": 1.1595165575,
				"y": -1.8186772328,
				"z": -4.9432710554,
				"element": "O" 
			},
			{
				"x": -0.775603493,
				"y": 3.0484211057,
				"z": 1.0203465161,
				"element": "C" 
			},
			{
				"x": -0.311356735,
				"y": 3.8339080363,
				"z": 2.0753796928,
				"element": "C" 
			},
			{
				"x": 1.3877123739,
				"y": 3.6013266396,
				"z": 5.0133352246,
				"element": "H" 
			},
			{
				"x": 1.0665619486,
				"y": 5.0558174943,
				"z": 4.0563832135,
				"element": "H" 
			},
			{
				"x": -0.1983900186,
				"y": 4.3715172193,
				"z": 5.0781080017,
				"element": "H" 
			},
			{
				"x": 0.5310372786,
				"y": 1.3850265122,
				"z": 4.2671690485,
				"element": "H" 
			},
			{
				"x": -0.2993830915,
				"y": -0.0262823447,
				"z": 2.3939475671,
				"element": "H" 
			},
			{
				"x": 1.3693095272,
				"y": 1.2997294233,
				"z": -0.2079208588,
				"element": "H" 
			},
			{
				"x": 2.6781529164,
				"y": 0.3759303244,
				"z": -2.1251347167,
				"element": "H" 
			},
			{
				"x": -0.8515008994,
				"y": -1.4876488408,
				"z": -3.6778605179,
				"element": "H" 
			},
			{
				"x": -2.1834366408,
				"y": -0.5646862705,
				"z": -1.7532831163,
				"element": "H" 
			},
			{
				"x": -1.1502950967,
				"y": 3.4980882565,
				"z": 0.1064751218,
				"element": "H" 
			},
			{
				"x": -0.321449339,
				"y": 4.9161495725,
				"z": 1.9750676107,
				"element": "H" 
			}
		],
		 "valence_orbital": [ 
			{
				"type": "occ",
				"energy": -0.28144,
				"method": "rhf"
			},
			{
				"type": "occ",
				"energy": -0.27761,
				"method": "rhf"
			},
			{
				"type": "occ",
				"energy": -0.26879,
				"method": "rhf"
			},
			{
				"type": "occ",
				"energy": -0.25147,
				"method": "rhf"
			},
			{
				"type": "occ",
				"energy": -0.24867,
				"method": "rhf"
			},
			{
				"type": "unocc",
				"energy": -0.07867,
				"method": "rhf"
			},
			{
				"type": "unocc",
				"energy": -0.02891,
				"method": "rhf"
			},
			{
				"type": "unocc",
				"energy": -0.01609,
				"method": "rhf"
			},
			{
				"type": "unocc",
				"energy": -0.01481,
				"method": "rhf"
			},
			{
				"type": "unocc",
				"energy": 0.01485,
				"method": "rhf"
			}
		],
		"cosmo_sigma_profile": { 
			"-0.025": 0.0,
			"-0.024": 0.0,
			"-0.023": 0.0,
			"-0.022": 0.0,
			"-0.021": 0.0,
			"-0.02": 0.0,
			"-0.019": 0.0,
			"-0.018": 0.0,
			"-0.017": 0.0,
			"-0.016": 0.0,
			"-0.015": 0.0,
			"-0.014": 0.0,
			"-0.013": 0.0,
			"-0.012": 0.0,
			"-0.011": 0.0,
			"-0.01": 0.0,
			"-0.009": 0.0,
			"-0.008": 1.69609772857,
			"-0.007": 8.19033511237,
			"-0.006": 13.1984405998,
			"-0.005": 16.1636788578,
			"-0.004": 23.133211839,
			"-0.003": 20.0537223999,
			"-0.002": 21.9645261798,
			"-0.001": 25.5799176946,
			"0.0": 26.6150718571,
			"0.001": 26.1356031592,
			"0.002": 20.2635789234,
			"0.003": 13.1549423407,
			"0.004": 12.8178919948,
			"0.005": 7.96491913106,
			"0.006": 3.79320197249,
			"0.007": 7.26657896509,
			"0.008": 10.7004779731,
			"0.009": 4.9713134044,
			"0.01": 4.01531591458,
			"0.011": 1.00084692321,
			"0.012": 0.0,
			"0.013": 0.0,
			"0.014": 0.0,
			"0.015": 0.0,
			"0.016": 0.0,
			"0.017": 0.0,
			"0.018": 0.0,
			"0.019": 0.0,
			"0.02": 0.0,
			"0.021": 0.0,
			"0.022": 0.0,
			"0.023": 0.0,
			"0.024": 0.0,
			"0.025": 0.0
		}
	}
}
