{
	 "smiles": "CN1N=C(C(Cl)=O)C2=CC=CC=C12", 
	 "Tm": 399.15, 
	 "num_atms": 20, 
	 "gaussian": { 
		 "optdone": 1, 
		 "sigma_profile": "yes", 
		 "theory": "DFT", 
		 "functional": "B3LYP", 
		 "basiset": "6-31G**", 
		 "properties": { 
			 "R2extent": 3079.9228, 
			 "electric_dipole_moment_norm": 6.18219678593, 
			 "electric_quadrupole_moment_norm": 5.0549518425, 
			 "total_energy": -992.092539492, 
			 "HOMO_LUMO_gap": 0.16855, 
			 "cosmo_polarized_energy": -10.75, 
			 "cosmo_cavitation_energy": 26.62, 
			 "cosmo_dispersion_energy": -19.62, 
			 "cosmo_repulsion_energy": 1.55, 
			 "cosmo_total_nonelectrostatic_energy": 8.55, 
			 "SMD_solvation_energy": 4.13 
		},
		"coords": [
			{
				"x": 1.6253052646,
				"y": -2.6274817207,
				"z": -0.0270964081,
				"element": "C" 
			},
			{
				"x": 0.8414952795,
				"y": -1.503203448,
				"z": 0.4508703614,
				"element": "N" 
			},
			{
				"x": 0.7003555983,
				"y": -0.4112993768,
				"z": -0.3106760002,
				"element": "N" 
			},
			{
				"x": -0.0589776992,
				"y": 0.4386261659,
				"z": 0.3801199183,
				"element": "C" 
			},
			{
				"x": -0.4456604773,
				"y": 1.7571271155,
				"z": -0.1122622135,
				"element": "C" 
			},
			{
				"x": 0.1878243673,
				"y": 2.1729457599,
				"z": -1.7604862626,
				"element": "Cl" 
			},
			{
				"x": -1.127321174,
				"y": 2.5410743698,
				"z": 0.4874609338,
				"element": "O" 
			},
			{
				"x": -0.4335601859,
				"y": -0.1170565651,
				"z": 1.6499272341,
				"element": "C" 
			},
			{
				"x": -1.1941750939,
				"y": 0.2996162549,
				"z": 2.7559362233,
				"element": "C" 
			},
			{
				"x": -1.3143426215,
				"y": -0.5739457807,
				"z": 3.8257739467,
				"element": "C" 
			},
			{
				"x": -0.6950036262,
				"y": -1.8463135659,
				"z": 3.8143743934,
				"element": "C" 
			},
			{
				"x": 0.0602069634,
				"y": -2.2793901518,
				"z": 2.7346648004,
				"element": "C" 
			},
			{
				"x": 0.1782064183,
				"y": -1.3911147782,
				"z": 1.6549846076,
				"element": "C" 
			},
			{
				"x": 2.4673057895,
				"y": -2.8214148348,
				"z": 0.6447665263,
				"element": "H" 
			},
			{
				"x": 1.0047658995,
				"y": -3.5265375965,
				"z": -0.0949580741,
				"element": "H" 
			},
			{
				"x": 1.9996011573,
				"y": -2.36656222,
				"z": -1.0158566049,
				"element": "H" 
			},
			{
				"x": -1.6652117337,
				"y": 1.2757310245,
				"z": 2.7565776677,
				"element": "H" 
			},
			{
				"x": -1.8954040359,
				"y": -0.2809783144,
				"z": 4.6947883789,
				"element": "H" 
			},
			{
				"x": -0.8152069309,
				"y": -2.4989814371,
				"z": 4.6738623298,
				"element": "H" 
			},
			{
				"x": 0.5337968408,
				"y": -3.2556409004,
				"z": 2.7291282417,
				"element": "H" 
			}
		],
		 "valence_orbital": [ 
			{
				"type": "occ",
				"energy": -0.30494,
				"method": "rhf"
			},
			{
				"type": "occ",
				"energy": -0.30238,
				"method": "rhf"
			},
			{
				"type": "occ",
				"energy": -0.28405,
				"method": "rhf"
			},
			{
				"type": "occ",
				"energy": -0.26095,
				"method": "rhf"
			},
			{
				"type": "occ",
				"energy": -0.23914,
				"method": "rhf"
			},
			{
				"type": "unocc",
				"energy": -0.07059,
				"method": "rhf"
			},
			{
				"type": "unocc",
				"energy": -0.02512,
				"method": "rhf"
			},
			{
				"type": "unocc",
				"energy": 0.00069,
				"method": "rhf"
			},
			{
				"type": "unocc",
				"energy": 0.03383,
				"method": "rhf"
			},
			{
				"type": "unocc",
				"energy": 0.07827,
				"method": "rhf"
			}
		],
		"cosmo_sigma_profile": { 
			"-0.025": 0.0,
			"-0.024": 0.0,
			"-0.023": 0.0,
			"-0.022": 0.0,
			"-0.021": 0.0,
			"-0.02": 0.0,
			"-0.019": 0.0,
			"-0.018": 0.0,
			"-0.017": 0.0,
			"-0.016": 0.0,
			"-0.015": 0.0,
			"-0.014": 0.0,
			"-0.013": 0.0,
			"-0.012": 0.0,
			"-0.011": 0.0,
			"-0.01": 0.0,
			"-0.009": 0.0,
			"-0.008": 1.26680501082,
			"-0.007": 12.4862030773,
			"-0.006": 15.1920589326,
			"-0.005": 15.5970401467,
			"-0.004": 16.7512214211,
			"-0.003": 12.4283250608,
			"-0.002": 12.8673407993,
			"-0.001": 12.7150733328,
			"0.0": 17.2486079013,
			"0.001": 15.2228809171,
			"0.002": 15.96062459,
			"0.003": 17.8490163176,
			"0.004": 18.3092830918,
			"0.005": 9.8351714825,
			"0.006": 4.83019082368,
			"0.007": 4.41399697175,
			"0.008": 4.13173071887,
			"0.009": 4.15451948633,
			"0.01": 3.15996124435,
			"0.011": 1.10557111179,
			"0.012": 0.836821155487,
			"0.013": 0.183033466064,
			"0.014": 0.0,
			"0.015": 0.0,
			"0.016": 0.0,
			"0.017": 0.0,
			"0.018": 0.0,
			"0.019": 0.0,
			"0.02": 0.0,
			"0.021": 0.0,
			"0.022": 0.0,
			"0.023": 0.0,
			"0.024": 0.0,
			"0.025": 0.0
		}
	}
}
