{
	 "smiles": "NC1=CC2=C(NC(=N2)C(F)F)C=C1", 
	 "Tm": 403.15, 
	 "num_atms": 20, 
	 "gaussian": { 
		 "optdone": 1, 
		 "sigma_profile": "yes", 
		 "theory": "DFT", 
		 "functional": "B3LYP", 
		 "basiset": "6-31G**", 
		 "properties": { 
			 "R2extent": 3299.4627, 
			 "electric_dipole_moment_norm": 2.78391164551, 
			 "electric_quadrupole_moment_norm": 10.7600270836, 
			 "total_energy": -673.007995401, 
			 "HOMO_LUMO_gap": 0.16953, 
			 "cosmo_polarized_energy": -15.12, 
			 "cosmo_cavitation_energy": 25.44, 
			 "cosmo_dispersion_energy": -18.81, 
			 "cosmo_repulsion_energy": 1.45, 
			 "cosmo_total_nonelectrostatic_energy": 8.08, 
			 "SMD_solvation_energy": 2.8 
		},
		"coords": [
			{
				"x": 2.9495146886,
				"y": -1.8537871952,
				"z": 0.5611197718,
				"element": "N" 
			},
			{
				"x": 1.8124380242,
				"y": -1.0616974469,
				"z": 0.341760738,
				"element": "C" 
			},
			{
				"x": 1.6787004192,
				"y": -0.3078476597,
				"z": -0.8266536791,
				"element": "C" 
			},
			{
				"x": 0.5542217256,
				"y": 0.5151415575,
				"z": -0.9654743976,
				"element": "C" 
			},
			{
				"x": -0.4239740696,
				"y": 0.5716678568,
				"z": 0.0564231098,
				"element": "C" 
			},
			{
				"x": -1.3768929058,
				"y": 1.4608811984,
				"z": -0.4155602748,
				"element": "N" 
			},
			{
				"x": -0.9351183306,
				"y": 1.8882549796,
				"z": -1.642233018,
				"element": "C" 
			},
			{
				"x": 0.2026760954,
				"y": 1.3533580851,
				"z": -2.0146482967,
				"element": "N" 
			},
			{
				"x": -1.7377737147,
				"y": 2.8319343362,
				"z": -2.474294162,
				"element": "C" 
			},
			{
				"x": -2.7387331734,
				"y": 2.1685742564,
				"z": -3.1321703402,
				"element": "F" 
			},
			{
				"x": -2.3471715147,
				"y": 3.7500551246,
				"z": -1.6538834101,
				"element": "F" 
			},
			{
				"x": -0.3035688666,
				"y": -0.17573984,
				"z": 1.2291938792,
				"element": "C" 
			},
			{
				"x": 0.819113375,
				"y": -0.9834892828,
				"z": 1.3542695364,
				"element": "C" 
			},
			{
				"x": 2.7946477728,
				"y": -2.6515584671,
				"z": 1.1630816365,
				"element": "H" 
			},
			{
				"x": 3.4359999895,
				"y": -2.1255630681,
				"z": -0.2828306587,
				"element": "H" 
			},
			{
				"x": 2.4253210838,
				"y": -0.3485895678,
				"z": -1.6139510798,
				"element": "H" 
			},
			{
				"x": -2.1938060903,
				"y": 1.8064052068,
				"z": 0.0636612122,
				"element": "H" 
			},
			{
				"x": -1.1155025251,
				"y": 3.3502262873,
				"z": -3.2085166921,
				"element": "H" 
			},
			{
				"x": -1.0494459491,
				"y": -0.1379261493,
				"z": 2.0171989717,
				"element": "H" 
			},
			{
				"x": 0.9506539658,
				"y": -1.5728002119,
				"z": 2.2580071536,
				"element": "H" 
			}
		],
		 "valence_orbital": [ 
			{
				"type": "occ",
				"energy": -0.30915,
				"method": "rhf"
			},
			{
				"type": "occ",
				"energy": -0.29178,
				"method": "rhf"
			},
			{
				"type": "occ",
				"energy": -0.27784,
				"method": "rhf"
			},
			{
				"type": "occ",
				"energy": -0.22905,
				"method": "rhf"
			},
			{
				"type": "occ",
				"energy": -0.19574,
				"method": "rhf"
			},
			{
				"type": "unocc",
				"energy": -0.02621,
				"method": "rhf"
			},
			{
				"type": "unocc",
				"energy": 0.02981,
				"method": "rhf"
			},
			{
				"type": "unocc",
				"energy": 0.04143,
				"method": "rhf"
			},
			{
				"type": "unocc",
				"energy": 0.07856,
				"method": "rhf"
			},
			{
				"type": "unocc",
				"energy": 0.08603,
				"method": "rhf"
			}
		],
		"cosmo_sigma_profile": { 
			"-0.025": 0.0,
			"-0.024": 0.0,
			"-0.023": 0.0,
			"-0.022": 0.0,
			"-0.021": 0.0,
			"-0.02": 0.0,
			"-0.019": 0.0,
			"-0.018": 0.0,
			"-0.017": 0.565480860701,
			"-0.016": 1.08583984865,
			"-0.015": 0.847595884714,
			"-0.014": 0.918013924324,
			"-0.013": 1.1835058624,
			"-0.012": 3.19839782048,
			"-0.011": 3.56330252136,
			"-0.01": 4.67609551362,
			"-0.009": 7.54180476834,
			"-0.008": 6.01662367106,
			"-0.007": 7.34610631312,
			"-0.006": 8.457130494,
			"-0.005": 8.24329196582,
			"-0.004": 9.35647811455,
			"-0.003": 6.75470125257,
			"-0.002": 7.00937676441,
			"-0.001": 8.96327833033,
			"0.0": 8.41670812546,
			"0.001": 10.63193274,
			"0.002": 12.5460772801,
			"0.003": 15.5037046846,
			"0.004": 25.7009493658,
			"0.005": 17.4290135825,
			"0.006": 9.31532607219,
			"0.007": 2.29614401389,
			"0.008": 3.05682665246,
			"0.009": 1.18433715974,
			"0.01": 1.72355482223,
			"0.011": 1.81603633877,
			"0.012": 1.98668446666,
			"0.013": 1.24974933377,
			"0.014": 1.6066501263,
			"0.015": 1.78803999982,
			"0.016": 0.75372170296,
			"0.017": 0.534298355307,
			"0.018": 0.0,
			"0.019": 0.0,
			"0.02": 0.0,
			"0.021": 0.0,
			"0.022": 0.0,
			"0.023": 0.0,
			"0.024": 0.0,
			"0.025": 0.0
		}
	}
}
