{
	 "smiles": "NC(=O)CC1=CC(Br)=C(S1)C1=CC=C(N)C=C1", 
	 "Tm": 463.15, 
	 "num_atms": 28, 
	 "gaussian": { 
		 "optdone": 1, 
		 "sigma_profile": "yes", 
		 "theory": "DFT", 
		 "functional": "B3LYP", 
		 "basiset": "6-31G**", 
		 "properties": { 
			 "R2extent": 7309.0495, 
			 "electric_dipole_moment_norm": 4.86884903648, 
			 "electric_quadrupole_moment_norm": 23.2664275883, 
			 "total_energy": -3618.23895659, 
			 "HOMO_LUMO_gap": 0.16046, 
			 "cosmo_polarized_energy": -18.97, 
			 "cosmo_cavitation_energy": 36.43, 
			 "cosmo_dispersion_energy": -26.73, 
			 "cosmo_repulsion_energy": 2.08, 
			 "cosmo_total_nonelectrostatic_energy": 11.78, 
			 "SMD_solvation_energy": 5.21 
		},
		"coords": [
			{
				"x": -1.2400954608,
				"y": 4.3423274126,
				"z": -0.4560865415,
				"element": "N" 
			},
			{
				"x": -0.6406660288,
				"y": 4.4728072386,
				"z": -1.6718932156,
				"element": "C" 
			},
			{
				"x": -1.025953613,
				"y": 5.2475163865,
				"z": -2.5332081945,
				"element": "O" 
			},
			{
				"x": 0.6294169135,
				"y": 3.6208716143,
				"z": -1.885643747,
				"element": "C" 
			},
			{
				"x": 0.7623677701,
				"y": 2.3710212611,
				"z": -1.0670655342,
				"element": "C" 
			},
			{
				"x": 1.452055734,
				"y": 2.1914399709,
				"z": 0.1025374431,
				"element": "C" 
			},
			{
				"x": 1.3412223382,
				"y": 0.8668506885,
				"z": 0.6209908971,
				"element": "C" 
			},
			{
				"x": 2.2892220437,
				"y": 0.3819828538,
				"z": 2.1998643005,
				"element": "Br" 
			},
			{
				"x": 0.5726797952,
				"y": 0.0077430059,
				"z": -0.1306402847,
				"element": "C" 
			},
			{
				"x": -0.0464706618,
				"y": 0.8904925465,
				"z": -1.5222063782,
				"element": "S" 
			},
			{
				"x": 0.2223655921,
				"y": -1.4074716406,
				"z": 0.0429921292,
				"element": "C" 
			},
			{
				"x": -0.1075004957,
				"y": -1.9377578029,
				"z": 1.3038283208,
				"element": "C" 
			},
			{
				"x": -0.4593439814,
				"y": -3.2722972964,
				"z": 1.4552051068,
				"element": "C" 
			},
			{
				"x": -0.5032164906,
				"y": -4.1377904958,
				"z": 0.3469150327,
				"element": "C" 
			},
			{
				"x": -0.802790614,
				"y": -5.4860217856,
				"z": 0.5053656425,
				"element": "N" 
			},
			{
				"x": -0.1821968577,
				"y": -3.6130160362,
				"z": -0.9179322513,
				"element": "C" 
			},
			{
				"x": 0.173401403,
				"y": -2.278475849,
				"z": -1.0611834374,
				"element": "C" 
			},
			{
				"x": -2.086942519,
				"y": 4.8632789784,
				"z": -0.2882541119,
				"element": "H" 
			},
			{
				"x": -0.9550564482,
				"y": 3.6302810998,
				"z": 0.1975959653,
				"element": "H" 
			},
			{
				"x": 1.4808944241,
				"y": 4.2774158659,
				"z": -1.6692099778,
				"element": "H" 
			},
			{
				"x": 0.6674098307,
				"y": 3.4105100625,
				"z": -2.9577311591,
				"element": "H" 
			},
			{
				"x": 2.0460317912,
				"y": 2.96347397,
				"z": 0.5776672632,
				"element": "H" 
			},
			{
				"x": -0.100685337,
				"y": -1.2918578282,
				"z": 2.1743111477,
				"element": "H" 
			},
			{
				"x": -0.7094766503,
				"y": -3.6535805419,
				"z": 2.442172338,
				"element": "H" 
			},
			{
				"x": -1.323188912,
				"y": -5.7285472223,
				"z": 1.3363664251,
				"element": "H" 
			},
			{
				"x": -1.1396644948,
				"y": -5.9641828394,
				"z": -0.3180934098,
				"element": "H" 
			},
			{
				"x": -0.1995995738,
				"y": -4.2632828385,
				"z": -1.7888993037,
				"element": "H" 
			},
			{
				"x": 0.4337805033,
				"y": -1.9060307786,
				"z": -2.0477644652,
				"element": "H" 
			}
		],
		 "valence_orbital": [ 
			{
				"type": "occ",
				"energy": -0.26381,
				"method": "rhf"
			},
			{
				"type": "occ",
				"energy": -0.25498,
				"method": "rhf"
			},
			{
				"type": "occ",
				"energy": -0.24713,
				"method": "rhf"
			},
			{
				"type": "occ",
				"energy": -0.23633,
				"method": "rhf"
			},
			{
				"type": "occ",
				"energy": -0.19833,
				"method": "rhf"
			},
			{
				"type": "unocc",
				"energy": -0.03787,
				"method": "rhf"
			},
			{
				"type": "unocc",
				"energy": -0.00957,
				"method": "rhf"
			},
			{
				"type": "unocc",
				"energy": -0.00205,
				"method": "rhf"
			},
			{
				"type": "unocc",
				"energy": 0.01408,
				"method": "rhf"
			},
			{
				"type": "unocc",
				"energy": 0.02989,
				"method": "rhf"
			}
		],
		"cosmo_sigma_profile": { 
			"-0.025": 0.0,
			"-0.024": 0.0,
			"-0.023": 0.0,
			"-0.022": 0.0,
			"-0.021": 0.0,
			"-0.02": 0.0,
			"-0.019": 0.0,
			"-0.018": 0.0,
			"-0.017": 0.0,
			"-0.016": 0.0,
			"-0.015": 0.0193562140537,
			"-0.014": 0.778754883019,
			"-0.013": 2.34274807559,
			"-0.012": 4.94846753456,
			"-0.011": 4.1669777399,
			"-0.01": 5.16253481719,
			"-0.009": 4.57070007662,
			"-0.008": 6.13750375591,
			"-0.007": 11.6829494547,
			"-0.006": 13.2906103907,
			"-0.005": 14.9824949258,
			"-0.004": 16.1842885729,
			"-0.003": 18.2236496877,
			"-0.002": 14.4677074375,
			"-0.001": 14.2711256233,
			"0.0": 16.6564376834,
			"0.001": 18.7895549739,
			"0.002": 25.4238217314,
			"0.003": 27.0748343193,
			"0.004": 22.1845330694,
			"0.005": 19.2457635481,
			"0.006": 10.4325783628,
			"0.007": 2.17965659437,
			"0.008": 1.79023673712,
			"0.009": 1.20104541474,
			"0.01": 2.28114055015,
			"0.011": 2.55902792255,
			"0.012": 2.48767344714,
			"0.013": 4.76824341392,
			"0.014": 5.52276419273,
			"0.015": 1.47009339881,
			"0.016": 0.0,
			"0.017": 0.0,
			"0.018": 0.0,
			"0.019": 0.0,
			"0.02": 0.0,
			"0.021": 0.0,
			"0.022": 0.0,
			"0.023": 0.0,
			"0.024": 0.0,
			"0.025": 0.0
		}
	}
}
