{
	 "smiles": "CN1N=C(C)C(C(O)=O)=C1C(F)(F)F", 
	 "Tm": 487.15, 
	 "num_atms": 21, 
	 "gaussian": { 
		 "optdone": 1, 
		 "sigma_profile": "yes", 
		 "theory": "DFT", 
		 "functional": "B3LYP", 
		 "basiset": "6-31G**", 
		 "properties": { 
			 "R2extent": 3704.0963, 
			 "electric_dipole_moment_norm": 4.90729997045, 
			 "electric_quadrupole_moment_norm": 11.3086560656, 
			 "total_energy": -830.431575449, 
			 "HOMO_LUMO_gap": 0.21537, 
			 "cosmo_polarized_energy": -12.86, 
			 "cosmo_cavitation_energy": 26.15, 
			 "cosmo_dispersion_energy": -19.0, 
			 "cosmo_repulsion_energy": 1.43, 
			 "cosmo_total_nonelectrostatic_energy": 8.58, 
			 "SMD_solvation_energy": 5.76 
		},
		"coords": [
			{
				"x": 2.8293720375,
				"y": -1.9513065025,
				"z": -0.0808831532,
				"element": "C" 
			},
			{
				"x": 1.8188449763,
				"y": -0.8989558142,
				"z": -0.1079598347,
				"element": "N" 
			},
			{
				"x": 0.5405273675,
				"y": -1.2396881696,
				"z": -0.3625529125,
				"element": "N" 
			},
			{
				"x": -0.1567126615,
				"y": -0.1069013689,
				"z": -0.3422423468,
				"element": "C" 
			},
			{
				"x": -1.6331070547,
				"y": -0.1413922139,
				"z": -0.5811365162,
				"element": "C" 
			},
			{
				"x": 0.6917211969,
				"y": 1.0126731291,
				"z": -0.0792512844,
				"element": "C" 
			},
			{
				"x": 0.1391518872,
				"y": 2.3947139916,
				"z": 0.0116461016,
				"element": "C" 
			},
			{
				"x": 0.9772682029,
				"y": 3.4510000682,
				"z": -0.0117479299,
				"element": "O" 
			},
			{
				"x": -1.0562796203,
				"y": 2.583632175,
				"z": 0.0808642961,
				"element": "O" 
			},
			{
				"x": 1.9671524364,
				"y": 0.442988377,
				"z": 0.0595527746,
				"element": "C" 
			},
			{
				"x": 3.3309071191,
				"y": 0.9607215987,
				"z": 0.3966311931,
				"element": "C" 
			},
			{
				"x": 3.3952192215,
				"y": 2.3185395791,
				"z": 0.4143142548,
				"element": "F" 
			},
			{
				"x": 3.7412835646,
				"y": 0.5407026999,
				"z": 1.6115456503,
				"element": "F" 
			},
			{
				"x": 4.2534506125,
				"y": 0.5440452769,
				"z": -0.4963123928,
				"element": "F" 
			},
			{
				"x": 3.4220597539,
				"y": -1.9459689534,
				"z": -0.9990347629,
				"element": "H" 
			},
			{
				"x": 3.4881330728,
				"y": -1.8195896652,
				"z": 0.7784041576,
				"element": "H" 
			},
			{
				"x": 2.291987278,
				"y": -2.8940651441,
				"z": 0.0047622887,
				"element": "H" 
			},
			{
				"x": -2.1795871653,
				"y": 0.2031140535,
				"z": 0.3000902223,
				"element": "H" 
			},
			{
				"x": -1.9306816815,
				"y": -1.164181519,
				"z": -0.8220319374,
				"element": "H" 
			},
			{
				"x": -1.9172616346,
				"y": 0.5259720686,
				"z": -1.3987811891,
				"element": "H" 
			},
			{
				"x": 1.9004510908,
				"y": 3.1727463332,
				"z": -0.0763766792,
				"element": "H" 
			}
		],
		 "valence_orbital": [ 
			{
				"type": "occ",
				"energy": -0.31423,
				"method": "rhf"
			},
			{
				"type": "occ",
				"energy": -0.31142,
				"method": "rhf"
			},
			{
				"type": "occ",
				"energy": -0.2828,
				"method": "rhf"
			},
			{
				"type": "occ",
				"energy": -0.27394,
				"method": "rhf"
			},
			{
				"type": "occ",
				"energy": -0.26599,
				"method": "rhf"
			},
			{
				"type": "unocc",
				"energy": -0.05062,
				"method": "rhf"
			},
			{
				"type": "unocc",
				"energy": 0.00372,
				"method": "rhf"
			},
			{
				"type": "unocc",
				"energy": 0.06818,
				"method": "rhf"
			},
			{
				"type": "unocc",
				"energy": 0.08397,
				"method": "rhf"
			},
			{
				"type": "unocc",
				"energy": 0.09653,
				"method": "rhf"
			}
		],
		"cosmo_sigma_profile": { 
			"-0.025": 0.0,
			"-0.024": 0.0,
			"-0.023": 0.0,
			"-0.022": 0.0,
			"-0.021": 0.0,
			"-0.02": 0.0,
			"-0.019": 0.0,
			"-0.018": 0.0,
			"-0.017": 0.0,
			"-0.016": 0.067578591615,
			"-0.015": 0.212984829396,
			"-0.014": 0.592486560625,
			"-0.013": 0.619998830163,
			"-0.012": 0.974269293273,
			"-0.011": 1.28569397129,
			"-0.01": 1.73798522787,
			"-0.009": 1.30833939111,
			"-0.008": 2.13254698561,
			"-0.007": 6.48522715054,
			"-0.006": 9.12787432759,
			"-0.005": 11.6388563163,
			"-0.004": 18.0996718636,
			"-0.003": 15.5758946417,
			"-0.002": 16.4787250681,
			"-0.001": 19.2072887902,
			"0.0": 22.404806688,
			"0.001": 21.2465078938,
			"0.002": 13.7810490975,
			"0.003": 5.24625227753,
			"0.004": 3.79050168446,
			"0.005": 3.86138468338,
			"0.006": 3.57948273501,
			"0.007": 3.4441792599,
			"0.008": 3.55247632799,
			"0.009": 4.38052093392,
			"0.01": 4.69138888431,
			"0.011": 5.46999330193,
			"0.012": 4.83991610309,
			"0.013": 2.87237941756,
			"0.014": 0.399800152516,
			"0.015": 0.0,
			"0.016": 0.0,
			"0.017": 0.0,
			"0.018": 0.0,
			"0.019": 0.0,
			"0.02": 0.0,
			"0.021": 0.0,
			"0.022": 0.0,
			"0.023": 0.0,
			"0.024": 0.0,
			"0.025": 0.0
		}
	}
}
