{
	 "smiles": "ON=C1C(=O)NC2=C1C=CC=C2", 
	 "Tm": 516.15, 
	 "num_atms": 18, 
	 "gaussian": { 
		 "optdone": 1, 
		 "sigma_profile": "yes", 
		 "theory": "DFT", 
		 "functional": "B3LYP", 
		 "basiset": "6-31G**", 
		 "properties": { 
			 "R2extent": 1994.8189, 
			 "electric_dipole_moment_norm": 3.43237196265, 
			 "electric_quadrupole_moment_norm": 19.1722095143, 
			 "total_energy": -568.371489998, 
			 "HOMO_LUMO_gap": 0.14879, 
			 "cosmo_polarized_energy": -15.66, 
			 "cosmo_cavitation_energy": 23.02, 
			 "cosmo_dispersion_energy": -17.36, 
			 "cosmo_repulsion_energy": 1.38, 
			 "cosmo_total_nonelectrostatic_energy": 7.04, 
			 "SMD_solvation_energy": 4.53 
		},
		"coords": [
			{
				"x": -2.0194026155,
				"y": 1.1759010397,
				"z": 1.3895884438,
				"element": "O" 
			},
			{
				"x": -0.7860569032,
				"y": 1.2122917736,
				"z": 2.0221554746,
				"element": "N" 
			},
			{
				"x": 0.144270166,
				"y": 0.7122209792,
				"z": 1.287862631,
				"element": "C" 
			},
			{
				"x": 1.5614336006,
				"y": 0.676104364,
				"z": 1.8359894466,
				"element": "C" 
			},
			{
				"x": 1.9875736674,
				"y": 1.0591363302,
				"z": 2.9051573633,
				"element": "O" 
			},
			{
				"x": 2.3071961064,
				"y": 0.0880846549,
				"z": 0.8181270797,
				"element": "N" 
			},
			{
				"x": 1.5243388832,
				"y": -0.2430898886,
				"z": -0.2909966367,
				"element": "C" 
			},
			{
				"x": 0.178793113,
				"y": 0.1232336565,
				"z": -0.0492510933,
				"element": "C" 
			},
			{
				"x": -0.7923837894,
				"y": -0.1121789213,
				"z": -1.0224872231,
				"element": "C" 
			},
			{
				"x": -0.4085586053,
				"y": -0.7113671637,
				"z": -2.2273743574,
				"element": "C" 
			},
			{
				"x": 0.9247344997,
				"y": -1.0669550632,
				"z": -2.4498379428,
				"element": "C" 
			},
			{
				"x": 1.9134071207,
				"y": -0.8379834869,
				"z": -1.4836125488,
				"element": "C" 
			},
			{
				"x": -2.6060587007,
				"y": 1.575822428,
				"z": 2.0468815,
				"element": "H" 
			},
			{
				"x": 3.2999870774,
				"y": -0.0664767411,
				"z": 0.9053249582,
				"element": "H" 
			},
			{
				"x": -1.8219552327,
				"y": 0.1674714774,
				"z": -0.8390364142,
				"element": "H" 
			},
			{
				"x": -1.1522476253,
				"y": -0.9012306907,
				"z": -2.9947012075,
				"element": "H" 
			},
			{
				"x": 1.2060357163,
				"y": -1.5312543424,
				"z": -3.3906606283,
				"element": "H" 
			},
			{
				"x": 2.9468935213,
				"y": -1.1171304053,
				"z": -1.6641288452,
				"element": "H" 
			}
		],
		 "valence_orbital": [ 
			{
				"type": "occ",
				"energy": -0.29949,
				"method": "rhf"
			},
			{
				"type": "occ",
				"energy": -0.29142,
				"method": "rhf"
			},
			{
				"type": "occ",
				"energy": -0.26224,
				"method": "rhf"
			},
			{
				"type": "occ",
				"energy": -0.25123,
				"method": "rhf"
			},
			{
				"type": "occ",
				"energy": -0.2222,
				"method": "rhf"
			},
			{
				"type": "unocc",
				"energy": -0.07341,
				"method": "rhf"
			},
			{
				"type": "unocc",
				"energy": -0.00994,
				"method": "rhf"
			},
			{
				"type": "unocc",
				"energy": 0.01984,
				"method": "rhf"
			},
			{
				"type": "unocc",
				"energy": 0.05934,
				"method": "rhf"
			},
			{
				"type": "unocc",
				"energy": 0.08721,
				"method": "rhf"
			}
		],
		"cosmo_sigma_profile": { 
			"-0.025": 0.0,
			"-0.024": 0.0,
			"-0.023": 0.0,
			"-0.022": 0.0,
			"-0.021": 0.0,
			"-0.02": 0.0,
			"-0.019": 0.22953570281,
			"-0.018": 1.24679403216,
			"-0.017": 1.34705959122,
			"-0.016": 1.79655080711,
			"-0.015": 1.9115198791,
			"-0.014": 2.07471092478,
			"-0.013": 1.62374491589,
			"-0.012": 2.30462577807,
			"-0.011": 1.72539478886,
			"-0.01": 1.546641811,
			"-0.009": 2.23518775838,
			"-0.008": 1.98342544814,
			"-0.007": 4.12384475528,
			"-0.006": 7.09973437593,
			"-0.005": 9.1596436936,
			"-0.004": 11.0970460624,
			"-0.003": 9.155875496,
			"-0.002": 9.25842450418,
			"-0.001": 10.6683035925,
			"0.0": 11.7877321522,
			"0.001": 12.9787328698,
			"0.002": 13.9834261336,
			"0.003": 15.6440024726,
			"0.004": 14.1806987711,
			"0.005": 6.93802720294,
			"0.006": 3.53675511293,
			"0.007": 2.85939989695,
			"0.008": 1.81403472907,
			"0.009": 2.095660558,
			"0.01": 2.62090610614,
			"0.011": 4.51199271038,
			"0.012": 6.43607419096,
			"0.013": 4.47959140071,
			"0.014": 0.50226318112,
			"0.015": 0.0,
			"0.016": 0.0,
			"0.017": 0.0,
			"0.018": 0.0,
			"0.019": 0.0,
			"0.02": 0.0,
			"0.021": 0.0,
			"0.022": 0.0,
			"0.023": 0.0,
			"0.024": 0.0,
			"0.025": 0.0
		}
	}
}
