{
	 "smiles": "CCOC(=O)CN1NC=C(C(=O)OCC)C1=N", 
	 "Tm": 346.15, 
	 "num_atms": 32, 
	 "gaussian": { 
		 "optdone": 1, 
		 "sigma_profile": "yes", 
		 "theory": "DFT", 
		 "functional": "B3LYP", 
		 "basiset": "6-31G**", 
		 "properties": { 
			 "R2extent": 6012.9212, 
			 "electric_dipole_moment_norm": 6.55965368674, 
			 "electric_quadrupole_moment_norm": 22.0783470473, 
			 "total_energy": -855.219451376, 
			 "HOMO_LUMO_gap": 0.17214, 
			 "cosmo_polarized_energy": -30.54, 
			 "cosmo_cavitation_energy": 37.0, 
			 "cosmo_dispersion_energy": -25.87, 
			 "cosmo_repulsion_energy": 2.09, 
			 "cosmo_total_nonelectrostatic_energy": 13.22, 
			 "SMD_solvation_energy": 6.96 
		},
		"coords": [
			{
				"x": -4.2910948909,
				"y": 1.9534686698,
				"z": -1.5130575645,
				"element": "C" 
			},
			{
				"x": -3.0224106262,
				"y": 2.7113839062,
				"z": -1.8712136187,
				"element": "C" 
			},
			{
				"x": -2.0020236789,
				"y": 1.8164087926,
				"z": -2.3871313841,
				"element": "O" 
			},
			{
				"x": -1.2196724338,
				"y": 1.2051025017,
				"z": -1.4741682212,
				"element": "C" 
			},
			{
				"x": -1.3110819041,
				"y": 1.3341482033,
				"z": -0.2769149612,
				"element": "O" 
			},
			{
				"x": -0.187757635,
				"y": 0.3318814338,
				"z": -2.1958565177,
				"element": "C" 
			},
			{
				"x": 0.6564337105,
				"y": -0.4482658937,
				"z": -1.3179682459,
				"element": "N" 
			},
			{
				"x": -0.048061289,
				"y": -1.4330285591,
				"z": -0.5650650329,
				"element": "N" 
			},
			{
				"x": 0.600460251,
				"y": -1.5392859478,
				"z": 0.6440593406,
				"element": "C" 
			},
			{
				"x": 1.5373578316,
				"y": -0.5708612064,
				"z": 0.8043046232,
				"element": "C" 
			},
			{
				"x": 2.349259267,
				"y": -0.3580929517,
				"z": 2.0115288653,
				"element": "C" 
			},
			{
				"x": 3.2342141708,
				"y": 0.4572844215,
				"z": 2.1491525306,
				"element": "O" 
			},
			{
				"x": 1.9819782746,
				"y": -1.2354407984,
				"z": 2.9927969671,
				"element": "O" 
			},
			{
				"x": 2.7252946741,
				"y": -1.1288000342,
				"z": 4.2234144027,
				"element": "C" 
			},
			{
				"x": 2.1693387967,
				"y": -2.1637908356,
				"z": 5.1840494846,
				"element": "C" 
			},
			{
				"x": 1.5812143316,
				"y": 0.2156402993,
				"z": -0.4372521151,
				"element": "C" 
			},
			{
				"x": 2.2902955083,
				"y": 1.247740561,
				"z": -0.6856183843,
				"element": "N" 
			},
			{
				"x": -5.0671443796,
				"y": 2.6590768113,
				"z": -1.1984970366,
				"element": "H" 
			},
			{
				"x": -4.6669365749,
				"y": 1.3917289579,
				"z": -2.3733662927,
				"element": "H" 
			},
			{
				"x": -4.1051466702,
				"y": 1.2604342304,
				"z": -0.6889098684,
				"element": "H" 
			},
			{
				"x": -3.1930309878,
				"y": 3.4222359805,
				"z": -2.6828654986,
				"element": "H" 
			},
			{
				"x": -2.6177203708,
				"y": 3.2386850376,
				"z": -1.0042788014,
				"element": "H" 
			},
			{
				"x": 0.4486256985,
				"y": 0.9764477416,
				"z": -2.8091914405,
				"element": "H" 
			},
			{
				"x": -0.7087380423,
				"y": -0.3283625953,
				"z": -2.8965793447,
				"element": "H" 
			},
			{
				"x": -0.1640940403,
				"y": -2.2997552717,
				"z": -1.0870443121,
				"element": "H" 
			},
			{
				"x": 0.3311732411,
				"y": -2.3318526536,
				"z": 1.3281455579,
				"element": "H" 
			},
			{
				"x": 3.788039515,
				"y": -1.2920980568,
				"z": 4.0155620164,
				"element": "H" 
			},
			{
				"x": 2.6237382805,
				"y": -0.1112640808,
				"z": 4.6143835503,
				"element": "H" 
			},
			{
				"x": 2.2791999554,
				"y": -3.1741763396,
				"z": 4.778640937,
				"element": "H" 
			},
			{
				"x": 2.7074537648,
				"y": -2.1160233641,
				"z": 6.1359983034,
				"element": "H" 
			},
			{
				"x": 1.1079916369,
				"y": -1.9850195467,
				"z": 5.3802555746,
				"element": "H" 
			},
			{
				"x": 2.1443446155,
				"y": 1.5928505869,
				"z": -1.6361135129,
				"element": "H" 
			}
		],
		 "valence_orbital": [ 
			{
				"type": "occ",
				"energy": -0.28327,
				"method": "rhf"
			},
			{
				"type": "occ",
				"energy": -0.26954,
				"method": "rhf"
			},
			{
				"type": "occ",
				"energy": -0.26138,
				"method": "rhf"
			},
			{
				"type": "occ",
				"energy": -0.24123,
				"method": "rhf"
			},
			{
				"type": "occ",
				"energy": -0.20419,
				"method": "rhf"
			},
			{
				"type": "unocc",
				"energy": -0.03205,
				"method": "rhf"
			},
			{
				"type": "unocc",
				"energy": 0.00349,
				"method": "rhf"
			},
			{
				"type": "unocc",
				"energy": 0.03005,
				"method": "rhf"
			},
			{
				"type": "unocc",
				"energy": 0.06657,
				"method": "rhf"
			},
			{
				"type": "unocc",
				"energy": 0.08509,
				"method": "rhf"
			}
		],
		"cosmo_sigma_profile": { 
			"-0.025": 0.0,
			"-0.024": 0.0,
			"-0.023": 0.0,
			"-0.022": 0.0,
			"-0.021": 0.0,
			"-0.02": 0.0,
			"-0.019": 0.0,
			"-0.018": 0.0,
			"-0.017": 0.125861462319,
			"-0.016": 1.75114529343,
			"-0.015": 1.69713705887,
			"-0.014": 1.66868978945,
			"-0.013": 1.22774751607,
			"-0.012": 2.31698007552,
			"-0.011": 4.59360197334,
			"-0.01": 5.41837563182,
			"-0.009": 5.08639092043,
			"-0.008": 6.08233251147,
			"-0.007": 5.31112780448,
			"-0.006": 7.50906671859,
			"-0.005": 13.0504929443,
			"-0.004": 27.1316024805,
			"-0.003": 28.1031674546,
			"-0.002": 26.0362004991,
			"-0.001": 21.216293773,
			"0.0": 27.2256135941,
			"0.001": 14.9334399877,
			"0.002": 8.69296975476,
			"0.003": 9.71795005848,
			"0.004": 7.55923507855,
			"0.005": 7.67478048691,
			"0.006": 7.66035031911,
			"0.007": 5.71307393289,
			"0.008": 5.82275526638,
			"0.009": 6.55643163189,
			"0.01": 6.09529121876,
			"0.011": 5.54306387772,
			"0.012": 5.85836055506,
			"0.013": 3.10877766071,
			"0.014": 1.99750555305,
			"0.015": 1.65572846079,
			"0.016": 1.68015740137,
			"0.017": 1.50319635935,
			"0.018": 1.6189574197,
			"0.019": 1.12959513065,
			"0.02": 1.39438041922,
			"0.021": 0.0562869596847,
			"0.022": 0.0,
			"0.023": 0.0,
			"0.024": 0.0,
			"0.025": 0.0
		}
	}
}
