{
	 "smiles": "NC1=NN(C=N1)C1=CC=C(C=C1)C#N", 
	 "Tm": 512.15, 
	 "num_atms": 21, 
	 "gaussian": { 
		 "optdone": 1, 
		 "sigma_profile": "yes", 
		 "theory": "DFT", 
		 "functional": "B3LYP", 
		 "basiset": "6-31G**", 
		 "properties": { 
			 "R2extent": 4098.6386, 
			 "electric_dipole_moment_norm": 4.38467615452, 
			 "electric_quadrupole_moment_norm": 27.6980631915, 
			 "total_energy": -620.907606824, 
			 "HOMO_LUMO_gap": 0.15883, 
			 "cosmo_polarized_energy": -17.55, 
			 "cosmo_cavitation_energy": 27.38, 
			 "cosmo_dispersion_energy": -19.84, 
			 "cosmo_repulsion_energy": 1.54, 
			 "cosmo_total_nonelectrostatic_energy": 9.09, 
			 "SMD_solvation_energy": 3.93 
		},
		"coords": [
			{
				"x": 0.2471329963,
				"y": -2.9177043631,
				"z": 3.0809305997,
				"element": "N" 
			},
			{
				"x": 0.2324284157,
				"y": -2.1966772663,
				"z": 1.9127402457,
				"element": "C" 
			},
			{
				"x": 0.9299892585,
				"y": -1.0828803722,
				"z": 1.736950381,
				"element": "N" 
			},
			{
				"x": 0.5538522818,
				"y": -0.703666518,
				"z": 0.4664121218,
				"element": "N" 
			},
			{
				"x": -0.3336117167,
				"y": -1.6123881717,
				"z": -0.0206803161,
				"element": "C" 
			},
			{
				"x": -0.5610996301,
				"y": -2.5675323165,
				"z": 0.8539699964,
				"element": "N" 
			},
			{
				"x": 1.0607468121,
				"y": 0.4735747522,
				"z": -0.1166528636,
				"element": "C" 
			},
			{
				"x": 1.8052338577,
				"y": 1.3614357549,
				"z": 0.673086895,
				"element": "C" 
			},
			{
				"x": 2.3071256739,
				"y": 2.5285278478,
				"z": 0.1135032174,
				"element": "C" 
			},
			{
				"x": 2.0727201653,
				"y": 2.8292569083,
				"z": -1.2393230548,
				"element": "C" 
			},
			{
				"x": 1.3291188958,
				"y": 1.9316512395,
				"z": -2.0245666041,
				"element": "C" 
			},
			{
				"x": 0.8308373003,
				"y": 0.7600971122,
				"z": -1.4709537507,
				"element": "C" 
			},
			{
				"x": 2.588985555,
				"y": 4.0348101528,
				"z": -1.8147672243,
				"element": "C" 
			},
			{
				"x": 3.0079162752,
				"y": 5.0142101461,
				"z": -2.283151955,
				"element": "N" 
			},
			{
				"x": 1.053200229,
				"y": -2.7685262668,
				"z": 3.6700824084,
				"element": "H" 
			},
			{
				"x": -0.0274056791,
				"y": -3.8833173359,
				"z": 2.9754418822,
				"element": "H" 
			},
			{
				"x": -0.7912170548,
				"y": -1.5354685515,
				"z": -0.9958103752,
				"element": "H" 
			},
			{
				"x": 1.9762810656,
				"y": 1.1177041886,
				"z": 1.7135169631,
				"element": "H" 
			},
			{
				"x": 2.882140324,
				"y": 3.2170062236,
				"z": 0.7233624593,
				"element": "H" 
			},
			{
				"x": 1.1517073375,
				"y": 2.1537833551,
				"z": -3.0712078137,
				"element": "H" 
			},
			{
				"x": 0.277317637,
				"y": 0.072103481,
				"z": -2.0995832124,
				"element": "H" 
			}
		],
		 "valence_orbital": [ 
			{
				"type": "occ",
				"energy": -0.30684,
				"method": "rhf"
			},
			{
				"type": "occ",
				"energy": -0.28907,
				"method": "rhf"
			},
			{
				"type": "occ",
				"energy": -0.28466,
				"method": "rhf"
			},
			{
				"type": "occ",
				"energy": -0.26774,
				"method": "rhf"
			},
			{
				"type": "occ",
				"energy": -0.22363,
				"method": "rhf"
			},
			{
				"type": "unocc",
				"energy": -0.0648,
				"method": "rhf"
			},
			{
				"type": "unocc",
				"energy": -0.03266,
				"method": "rhf"
			},
			{
				"type": "unocc",
				"energy": 0.00401,
				"method": "rhf"
			},
			{
				"type": "unocc",
				"energy": 0.03461,
				"method": "rhf"
			},
			{
				"type": "unocc",
				"energy": 0.05969,
				"method": "rhf"
			}
		],
		"cosmo_sigma_profile": { 
			"-0.025": 0.0,
			"-0.024": 0.0,
			"-0.023": 0.0,
			"-0.022": 0.0,
			"-0.021": 0.0,
			"-0.02": 0.0,
			"-0.019": 0.0,
			"-0.018": 0.0,
			"-0.017": 0.0,
			"-0.016": 0.0,
			"-0.015": 0.0,
			"-0.014": 0.911936166339,
			"-0.013": 2.52469077039,
			"-0.012": 3.82875438177,
			"-0.011": 4.50930178053,
			"-0.01": 4.80637714953,
			"-0.009": 4.76616710809,
			"-0.008": 8.51552534239,
			"-0.007": 9.08943331349,
			"-0.006": 10.3357582617,
			"-0.005": 9.08674479408,
			"-0.004": 8.02765545967,
			"-0.003": 10.4499281092,
			"-0.002": 11.3812060406,
			"-0.001": 16.4090653241,
			"0.0": 16.6166913708,
			"0.001": 19.6579036399,
			"0.002": 14.4978965903,
			"0.003": 6.71173513212,
			"0.004": 5.29945085603,
			"0.005": 6.11686385898,
			"0.006": 7.65807986601,
			"0.007": 6.37211509243,
			"0.008": 6.19925363439,
			"0.009": 6.23268978452,
			"0.01": 6.0874750904,
			"0.011": 5.83682386095,
			"0.012": 4.73713153641,
			"0.013": 2.73321193866,
			"0.014": 1.04016257524,
			"0.015": 0.854617957955,
			"0.016": 0.41985722495,
			"0.017": 0.0,
			"0.018": 0.0,
			"0.019": 0.0,
			"0.02": 0.0,
			"0.021": 0.0,
			"0.022": 0.0,
			"0.023": 0.0,
			"0.024": 0.0,
			"0.025": 0.0
		}
	}
}
