{
	 "smiles": "OC(=O)COC1=C(Cl)C(Cl)=CC=C1Cl", 
	 "Tm": 421.15, 
	 "num_atms": 19, 
	 "gaussian": { 
		 "optdone": 1, 
		 "sigma_profile": "yes", 
		 "theory": "DFT", 
		 "functional": "B3LYP", 
		 "basiset": "6-31G**", 
		 "properties": { 
			 "R2extent": 4798.4668, 
			 "electric_dipole_moment_norm": 5.34289141196, 
			 "electric_quadrupole_moment_norm": 7.04095685472, 
			 "total_energy": -1914.09549252, 
			 "HOMO_LUMO_gap": 0.21511, 
			 "cosmo_polarized_energy": -12.66, 
			 "cosmo_cavitation_energy": 29.53, 
			 "cosmo_dispersion_energy": -21.41, 
			 "cosmo_repulsion_energy": 1.69, 
			 "cosmo_total_nonelectrostatic_energy": 9.81, 
			 "SMD_solvation_energy": 5.84 
		},
		"coords": [
			{
				"x": 2.0942515211,
				"y": -1.6336928017,
				"z": 0.3326696804,
				"element": "O" 
			},
			{
				"x": 1.0909630349,
				"y": -1.6594782778,
				"z": 1.2225643204,
				"element": "C" 
			},
			{
				"x": 1.1397800604,
				"y": -2.272366748,
				"z": 2.2590379303,
				"element": "O" 
			},
			{
				"x": -0.1391495571,
				"y": -0.8280579839,
				"z": 0.8568825222,
				"element": "C" 
			},
			{
				"x": -0.0161668102,
				"y": -0.3725173916,
				"z": -0.5062186817,
				"element": "O" 
			},
			{
				"x": -0.6827079064,
				"y": 0.7736088264,
				"z": -0.8417076175,
				"element": "C" 
			},
			{
				"x": -0.0109697126,
				"y": 2.0096571325,
				"z": -0.8017436072,
				"element": "C" 
			},
			{
				"x": 1.6406714546,
				"y": 2.0363785107,
				"z": -0.2556959859,
				"element": "Cl" 
			},
			{
				"x": -0.6707152693,
				"y": 3.1788343631,
				"z": -1.2048979902,
				"element": "C" 
			},
			{
				"x": 0.1332792193,
				"y": 4.7242837351,
				"z": -1.1729539812,
				"element": "Cl" 
			},
			{
				"x": -1.9953556282,
				"y": 3.1154581931,
				"z": -1.640569178,
				"element": "C" 
			},
			{
				"x": -2.6647822284,
				"y": 1.8968506901,
				"z": -1.6827405245,
				"element": "C" 
			},
			{
				"x": -2.0111830391,
				"y": 0.7320275323,
				"z": -1.2856410751,
				"element": "C" 
			},
			{
				"x": -2.8450906446,
				"y": -0.8001864079,
				"z": -1.3545511429,
				"element": "Cl" 
			},
			{
				"x": 1.8215643025,
				"y": -1.0749131144,
				"z": -0.4171492154,
				"element": "H" 
			},
			{
				"x": -1.0344158777,
				"y": -1.4443178854,
				"z": 0.9748398413,
				"element": "H" 
			},
			{
				"x": -0.1963482448,
				"y": 0.0221007088,
				"z": 1.5450502507,
				"element": "H" 
			},
			{
				"x": -2.4951726306,
				"y": 4.0261288964,
				"z": -1.9494113756,
				"element": "H" 
			},
			{
				"x": -3.6918520441,
				"y": 1.8456020221,
				"z": -2.0249641701,
				"element": "H" 
			}
		],
		 "valence_orbital": [ 
			{
				"type": "occ",
				"energy": -0.32633,
				"method": "rhf"
			},
			{
				"type": "occ",
				"energy": -0.31398,
				"method": "rhf"
			},
			{
				"type": "occ",
				"energy": -0.28397,
				"method": "rhf"
			},
			{
				"type": "occ",
				"energy": -0.27543,
				"method": "rhf"
			},
			{
				"type": "occ",
				"energy": -0.26662,
				"method": "rhf"
			},
			{
				"type": "unocc",
				"energy": -0.05151,
				"method": "rhf"
			},
			{
				"type": "unocc",
				"energy": -0.04893,
				"method": "rhf"
			},
			{
				"type": "unocc",
				"energy": -0.0294,
				"method": "rhf"
			},
			{
				"type": "unocc",
				"energy": 0.0043,
				"method": "rhf"
			},
			{
				"type": "unocc",
				"energy": 0.01516,
				"method": "rhf"
			}
		],
		"cosmo_sigma_profile": { 
			"-0.025": 0.0,
			"-0.024": 0.0,
			"-0.023": 0.0,
			"-0.022": 0.0,
			"-0.021": 0.0,
			"-0.02": 0.0,
			"-0.019": 0.0,
			"-0.018": 0.0,
			"-0.017": 0.0,
			"-0.016": 0.0,
			"-0.015": 0.0978462848668,
			"-0.014": 0.466094891,
			"-0.013": 0.237445134234,
			"-0.012": 0.581247114387,
			"-0.011": 0.391300021036,
			"-0.01": 0.868064841012,
			"-0.009": 4.39199139633,
			"-0.008": 9.78540769392,
			"-0.007": 9.53824384724,
			"-0.006": 10.2453725065,
			"-0.005": 9.71561696305,
			"-0.004": 10.4079709762,
			"-0.003": 12.9594564405,
			"-0.002": 16.6721608277,
			"-0.001": 26.8945146388,
			"0.0": 25.4915146624,
			"0.001": 18.5497652217,
			"0.002": 16.779733715,
			"0.003": 21.5138608202,
			"0.004": 16.0919359274,
			"0.005": 4.38327074601,
			"0.006": 2.7936865511,
			"0.007": 2.75766978319,
			"0.008": 3.45110652315,
			"0.009": 4.44485880774,
			"0.01": 4.27566323985,
			"0.011": 5.14759361183,
			"0.012": 4.3648843639,
			"0.013": 0.571573605805,
			"0.014": 0.0,
			"0.015": 0.0,
			"0.016": 0.0,
			"0.017": 0.0,
			"0.018": 0.0,
			"0.019": 0.0,
			"0.02": 0.0,
			"0.021": 0.0,
			"0.022": 0.0,
			"0.023": 0.0,
			"0.024": 0.0,
			"0.025": 0.0
		}
	}
}
