{
	 "smiles": "CCOC1=C(N)C=C(C=C1)S(=O)(=O)N1CCOCC1", 
	 "Tm": 439.15, 
	 "num_atms": 37, 
	 "gaussian": { 
		 "optdone": 1, 
		 "sigma_profile": "yes", 
		 "theory": "DFT", 
		 "functional": "B3LYP", 
		 "basiset": "6-31G**", 
		 "properties": { 
			 "R2extent": 8105.2648, 
			 "electric_dipole_moment_norm": 5.99990450341, 
			 "electric_quadrupole_moment_norm": 14.208796209, 
			 "total_energy": -1276.62509429, 
			 "HOMO_LUMO_gap": 0.18566, 
			 "cosmo_polarized_energy": -18.8, 
			 "cosmo_cavitation_energy": 39.81, 
			 "cosmo_dispersion_energy": -29.05, 
			 "cosmo_repulsion_energy": 2.22, 
			 "cosmo_total_nonelectrostatic_energy": 12.98, 
			 "SMD_solvation_energy": 5.35 
		},
		"coords": [
			{
				"x": 3.0589594326,
				"y": 2.0070093951,
				"z": -4.2000134404,
				"element": "C" 
			},
			{
				"x": 2.5741534194,
				"y": 1.1647147376,
				"z": -3.0335845012,
				"element": "C" 
			},
			{
				"x": 1.2065046971,
				"y": 1.503371459,
				"z": -2.793739407,
				"element": "O" 
			},
			{
				"x": 0.5324789974,
				"y": 0.8668232408,
				"z": -1.7897260968,
				"element": "C" 
			},
			{
				"x": -0.8241735507,
				"y": 1.2606055115,
				"z": -1.6599074087,
				"element": "C" 
			},
			{
				"x": -1.3195575964,
				"y": 2.2663235439,
				"z": -2.4810532658,
				"element": "N" 
			},
			{
				"x": -1.6009635075,
				"y": 0.6524480921,
				"z": -0.6708777194,
				"element": "C" 
			},
			{
				"x": -1.0364510453,
				"y": -0.3119885733,
				"z": 0.1683179671,
				"element": "C" 
			},
			{
				"x": 0.2944757663,
				"y": -0.7003202349,
				"z": 0.0433173439,
				"element": "C" 
			},
			{
				"x": 1.0782748674,
				"y": -0.1007839957,
				"z": -0.9453451578,
				"element": "C" 
			},
			{
				"x": -2.0831352152,
				"y": -1.1132177942,
				"z": 1.3785885285,
				"element": "S" 
			},
			{
				"x": -1.9357557148,
				"y": -2.5703548424,
				"z": 1.2749852196,
				"element": "O" 
			},
			{
				"x": -3.4203598239,
				"y": -0.5035802977,
				"z": 1.2697588507,
				"element": "O" 
			},
			{
				"x": -1.3132970078,
				"y": -0.6772159887,
				"z": 2.8276471859,
				"element": "N" 
			},
			{
				"x": -1.5071510117,
				"y": 0.7168368297,
				"z": 3.2746277629,
				"element": "C" 
			},
			{
				"x": -2.7297463771,
				"y": 0.8569431551,
				"z": 4.1851123461,
				"element": "C" 
			},
			{
				"x": -2.6515455524,
				"y": -0.0526818673,
				"z": 5.2785012513,
				"element": "O" 
			},
			{
				"x": -2.6096933476,
				"y": -1.4016038133,
				"z": 4.8248256283,
				"element": "C" 
			},
			{
				"x": -1.384155879,
				"y": -1.6438361702,
				"z": 3.942031616,
				"element": "C" 
			},
			{
				"x": 4.1077187199,
				"y": 1.7807839158,
				"z": -4.4145567759,
				"element": "H" 
			},
			{
				"x": 2.470393507,
				"y": 1.7997181542,
				"z": -5.0982484797,
				"element": "H" 
			},
			{
				"x": 2.974771553,
				"y": 3.0723967642,
				"z": -3.9683060458,
				"element": "H" 
			},
			{
				"x": 2.6556547844,
				"y": 0.0927364318,
				"z": -3.2604087022,
				"element": "H" 
			},
			{
				"x": 3.1669305124,
				"y": 1.3657255245,
				"z": -2.1307884141,
				"element": "H" 
			},
			{
				"x": -2.3185639068,
				"y": 2.252886206,
				"z": -2.6286746417,
				"element": "H" 
			},
			{
				"x": -0.7879270008,
				"y": 2.4108075692,
				"z": -3.3279204559,
				"element": "H" 
			},
			{
				"x": -2.6451799064,
				"y": 0.9201801165,
				"z": -0.5484285491,
				"element": "H" 
			},
			{
				"x": 0.7144896631,
				"y": -1.4545528706,
				"z": 0.698113941,
				"element": "H" 
			},
			{
				"x": 2.1140014239,
				"y": -0.3991142501,
				"z": -1.0540794376,
				"element": "H" 
			},
			{
				"x": -1.5859067469,
				"y": 1.3727305942,
				"z": 2.4033332576,
				"element": "H" 
			},
			{
				"x": -0.6026093866,
				"y": 1.0007296847,
				"z": 3.8264058388,
				"element": "H" 
			},
			{
				"x": -2.7701628529,
				"y": 1.8611309651,
				"z": 4.618905192,
				"element": "H" 
			},
			{
				"x": -3.6455765995,
				"y": 0.6819211496,
				"z": 3.6025883751,
				"element": "H" 
			},
			{
				"x": -2.5668099563,
				"y": -2.0299019287,
				"z": 5.7201756252,
				"element": "H" 
			},
			{
				"x": -3.528789861,
				"y": -1.6474036769,
				"z": 4.2693186634,
				"element": "H" 
			},
			{
				"x": -0.4731768915,
				"y": -1.5022886221,
				"z": 4.5369321456,
				"element": "H" 
			},
			{
				"x": -1.3783186055,
				"y": -2.6546781147,
				"z": 3.5311717601,
				"element": "H" 
			}
		],
		 "valence_orbital": [ 
			{
				"type": "occ",
				"energy": -0.29003,
				"method": "rhf"
			},
			{
				"type": "occ",
				"energy": -0.27502,
				"method": "rhf"
			},
			{
				"type": "occ",
				"energy": -0.24891,
				"method": "rhf"
			},
			{
				"type": "occ",
				"energy": -0.22605,
				"method": "rhf"
			},
			{
				"type": "occ",
				"energy": -0.20401,
				"method": "rhf"
			},
			{
				"type": "unocc",
				"energy": -0.01835,
				"method": "rhf"
			},
			{
				"type": "unocc",
				"energy": -0.00155,
				"method": "rhf"
			},
			{
				"type": "unocc",
				"energy": 0.06811,
				"method": "rhf"
			},
			{
				"type": "unocc",
				"energy": 0.079,
				"method": "rhf"
			},
			{
				"type": "unocc",
				"energy": 0.08633,
				"method": "rhf"
			}
		],
		"cosmo_sigma_profile": { 
			"-0.025": 0.0,
			"-0.024": 0.0,
			"-0.023": 0.0,
			"-0.022": 0.0,
			"-0.021": 0.0,
			"-0.02": 0.0,
			"-0.019": 0.0,
			"-0.018": 0.0,
			"-0.017": 0.0,
			"-0.016": 0.0,
			"-0.015": 0.0,
			"-0.014": 0.00557165876598,
			"-0.013": 0.878575039858,
			"-0.012": 1.46699560893,
			"-0.011": 2.08481555344,
			"-0.01": 2.39386086588,
			"-0.009": 2.89573217389,
			"-0.008": 2.70534973604,
			"-0.007": 4.43324687875,
			"-0.006": 12.8492963176,
			"-0.005": 31.2118926211,
			"-0.004": 33.1378909582,
			"-0.003": 30.059637862,
			"-0.002": 25.5114892692,
			"-0.001": 19.7675432901,
			"0.0": 20.1747137102,
			"0.001": 16.0730864265,
			"0.002": 14.9578397779,
			"0.003": 16.4513399433,
			"0.004": 16.1281780727,
			"0.005": 9.35618543107,
			"0.006": 6.93711137659,
			"0.007": 6.54827379362,
			"0.008": 4.91612459737,
			"0.009": 5.18858935576,
			"0.01": 6.8217971965,
			"0.011": 9.19086814517,
			"0.012": 7.89127297653,
			"0.013": 2.40236512099,
			"0.014": 0.492908609881,
			"0.015": 0.0,
			"0.016": 0.0,
			"0.017": 0.0,
			"0.018": 0.0,
			"0.019": 0.0,
			"0.02": 0.0,
			"0.021": 0.0,
			"0.022": 0.0,
			"0.023": 0.0,
			"0.024": 0.0,
			"0.025": 0.0
		}
	}
}
