{
	 "smiles": "CC1=CSC(SC2=C(Cl)C=CC=C2N)=N1", 
	 "Tm": 406.15, 
	 "num_atms": 24, 
	 "gaussian": { 
		 "optdone": 1, 
		 "sigma_profile": "yes", 
		 "theory": "DFT", 
		 "functional": "B3LYP", 
		 "basiset": "6-31G**", 
		 "properties": { 
			 "R2extent": 7038.4217, 
			 "electric_dipole_moment_norm": 3.10831153844, 
			 "electric_quadrupole_moment_norm": 16.7079242939, 
			 "total_energy": -1752.54935672, 
			 "HOMO_LUMO_gap": 0.18326, 
			 "cosmo_polarized_energy": -12.45, 
			 "cosmo_cavitation_energy": 33.34, 
			 "cosmo_dispersion_energy": -24.29, 
			 "cosmo_repulsion_energy": 1.87, 
			 "cosmo_total_nonelectrostatic_energy": 10.91, 
			 "SMD_solvation_energy": 3.75 
		},
		"coords": [
			{
				"x": 0.4130942759,
				"y": 0.2455030418,
				"z": -1.5610460669,
				"element": "C" 
			},
			{
				"x": 0.7144680884,
				"y": 1.0378785302,
				"z": -0.3236998911,
				"element": "C" 
			},
			{
				"x": 1.5490303148,
				"y": 2.114204697,
				"z": -0.2388551862,
				"element": "C" 
			},
			{
				"x": 1.598594456,
				"y": 2.7273822152,
				"z": 1.3909241453,
				"element": "S" 
			},
			{
				"x": 0.4625678682,
				"y": 1.451193026,
				"z": 1.8371385986,
				"element": "C" 
			},
			{
				"x": -0.090638808,
				"y": 1.3467225705,
				"z": 3.5282545514,
				"element": "S" 
			},
			{
				"x": -1.1344704894,
				"y": -0.0982674608,
				"z": 3.4883986622,
				"element": "C" 
			},
			{
				"x": -2.522021221,
				"y": -0.0047103044,
				"z": 3.2755121383,
				"element": "C" 
			},
			{
				"x": -3.2716114873,
				"y": 1.5430488255,
				"z": 2.9312139763,
				"element": "Cl" 
			},
			{
				"x": -3.3501605802,
				"y": -1.1214259483,
				"z": 3.3300052383,
				"element": "C" 
			},
			{
				"x": -2.7759572307,
				"y": -2.3657273223,
				"z": 3.6007375742,
				"element": "C" 
			},
			{
				"x": -1.4116457668,
				"y": -2.4970501054,
				"z": 3.8066774553,
				"element": "C" 
			},
			{
				"x": -0.5637923893,
				"y": -1.3728728621,
				"z": 3.7478070441,
				"element": "C" 
			},
			{
				"x": 0.7963066185,
				"y": -1.5313252199,
				"z": 3.9019481587,
				"element": "N" 
			},
			{
				"x": 0.1038468676,
				"y": 0.673435476,
				"z": 0.8668765818,
				"element": "N" 
			},
			{
				"x": 0.6881544088,
				"y": -0.8055211368,
				"z": -1.4223343894,
				"element": "H" 
			},
			{
				"x": 0.9576717564,
				"y": 0.6368033544,
				"z": -2.4238308462,
				"element": "H" 
			},
			{
				"x": -0.6588491439,
				"y": 0.2726534258,
				"z": -1.7838255736,
				"element": "H" 
			},
			{
				"x": 2.1275410328,
				"y": 2.5812246104,
				"z": -1.0231619713,
				"element": "H" 
			},
			{
				"x": -4.4146334431,
				"y": -1.0155429887,
				"z": 3.161106225,
				"element": "H" 
			},
			{
				"x": -3.4108588994,
				"y": -3.2456847552,
				"z": 3.6495367148,
				"element": "H" 
			},
			{
				"x": -0.9779836895,
				"y": -3.4733641806,
				"z": 4.0043791789,
				"element": "H" 
			},
			{
				"x": 1.3300947355,
				"y": -0.6940889716,
				"z": 4.0897284305,
				"element": "H" 
			},
			{
				"x": 1.1048527256,
				"y": -2.3562685168,
				"z": 4.393109251,
				"element": "H" 
			}
		],
		 "valence_orbital": [ 
			{
				"type": "occ",
				"energy": -0.27092,
				"method": "rhf"
			},
			{
				"type": "occ",
				"energy": -0.27019,
				"method": "rhf"
			},
			{
				"type": "occ",
				"energy": -0.24967,
				"method": "rhf"
			},
			{
				"type": "occ",
				"energy": -0.21542,
				"method": "rhf"
			},
			{
				"type": "occ",
				"energy": -0.21192,
				"method": "rhf"
			},
			{
				"type": "unocc",
				"energy": -0.02866,
				"method": "rhf"
			},
			{
				"type": "unocc",
				"energy": -0.0168,
				"method": "rhf"
			},
			{
				"type": "unocc",
				"energy": 0.00269,
				"method": "rhf"
			},
			{
				"type": "unocc",
				"energy": 0.01174,
				"method": "rhf"
			},
			{
				"type": "unocc",
				"energy": 0.02354,
				"method": "rhf"
			}
		],
		"cosmo_sigma_profile": { 
			"-0.025": 0.0,
			"-0.024": 0.0,
			"-0.023": 0.0,
			"-0.022": 0.0,
			"-0.021": 0.0,
			"-0.02": 0.0,
			"-0.019": 0.0,
			"-0.018": 0.0,
			"-0.017": 0.0,
			"-0.016": 0.0,
			"-0.015": 0.0,
			"-0.014": 0.469664527882,
			"-0.013": 1.36856337952,
			"-0.012": 1.78099868967,
			"-0.011": 1.85664092682,
			"-0.01": 2.59206361991,
			"-0.009": 3.39396528315,
			"-0.008": 4.66632273824,
			"-0.007": 7.11863055878,
			"-0.006": 9.84378518352,
			"-0.005": 13.2279358926,
			"-0.004": 15.9522024917,
			"-0.003": 13.5238463108,
			"-0.002": 18.7156518702,
			"-0.001": 21.9334454432,
			"0.0": 21.7485552063,
			"0.001": 23.7021049764,
			"0.002": 23.7961975072,
			"0.003": 26.7180581314,
			"0.004": 26.4723033847,
			"0.005": 13.2898294906,
			"0.006": 4.87444782571,
			"0.007": 4.29775728122,
			"0.008": 3.11432676693,
			"0.009": 2.53062494679,
			"0.01": 2.23413712735,
			"0.011": 1.71179492036,
			"0.012": 1.40660482191,
			"0.013": 0.619139149596,
			"0.014": 0.0410626624697,
			"0.015": 0.0,
			"0.016": 0.0,
			"0.017": 0.0,
			"0.018": 0.0,
			"0.019": 0.0,
			"0.02": 0.0,
			"0.021": 0.0,
			"0.022": 0.0,
			"0.023": 0.0,
			"0.024": 0.0,
			"0.025": 0.0
		}
	}
}
