{
	 "smiles": "OC1=C(O)C=C(C=C/C(=O)NCCC2=CC=CC=C2)C=C1", 
	 "Tm": 431.15, 
	 "num_atms": 38, 
	 "gaussian": { 
		 "optdone": 1, 
		 "sigma_profile": "yes", 
		 "theory": "DFT", 
		 "functional": "B3LYP", 
		 "basiset": "6-31G**", 
		 "properties": { 
			 "R2extent": 10571.8406, 
			 "electric_dipole_moment_norm": 1.20412580738, 
			 "electric_quadrupole_moment_norm": 29.9004743775, 
			 "total_energy": -938.472619736, 
			 "HOMO_LUMO_gap": 0.1529, 
			 "cosmo_polarized_energy": -19.55, 
			 "cosmo_cavitation_energy": 42.21, 
			 "cosmo_dispersion_energy": -29.81, 
			 "cosmo_repulsion_energy": 2.28, 
			 "cosmo_total_nonelectrostatic_energy": 14.68, 
			 "SMD_solvation_energy": 7.23 
		},
		"coords": [
			{
				"x": -3.3061887873,
				"y": 5.3033197551,
				"z": -2.058599668,
				"element": "O" 
			},
			{
				"x": -2.9052000417,
				"y": 4.1023170794,
				"z": -1.5277219154,
				"element": "C" 
			},
			{
				"x": -3.2945381628,
				"y": 2.9659426082,
				"z": -2.2585414014,
				"element": "C" 
			},
			{
				"x": -4.0171469215,
				"y": 3.0946066643,
				"z": -3.4084777952,
				"element": "O" 
			},
			{
				"x": -2.9370462173,
				"y": 1.7093921314,
				"z": -1.7940521869,
				"element": "C" 
			},
			{
				"x": -2.1833877697,
				"y": 1.5455583179,
				"z": -0.6081747793,
				"element": "C" 
			},
			{
				"x": -1.8708798535,
				"y": 0.1651565625,
				"z": -0.2360546728,
				"element": "C" 
			},
			{
				"x": -1.0982140204,
				"y": -0.4507529616,
				"z": 0.6945783039,
				"element": "C" 
			},
			{
				"x": -0.2373024393,
				"y": 0.1040638214,
				"z": 1.7622693653,
				"element": "C" 
			},
			{
				"x": -0.2552413254,
				"y": 1.2717426962,
				"z": 2.1629398188,
				"element": "O" 
			},
			{
				"x": 0.6147341979,
				"y": -0.7929662206,
				"z": 2.3842918963,
				"element": "N" 
			},
			{
				"x": 1.1450089797,
				"y": -2.0446177933,
				"z": 1.8600735167,
				"element": "C" 
			},
			{
				"x": 2.2189159617,
				"y": -1.8731731383,
				"z": 0.7575181814,
				"element": "C" 
			},
			{
				"x": 3.4738200787,
				"y": -1.1838445354,
				"z": 1.2476273704,
				"element": "C" 
			},
			{
				"x": 3.5615342748,
				"y": 0.2158895904,
				"z": 1.2912679897,
				"element": "C" 
			},
			{
				"x": 4.7054844949,
				"y": 0.8449225591,
				"z": 1.7862311584,
				"element": "C" 
			},
			{
				"x": 5.7833853069,
				"y": 0.0852189353,
				"z": 2.2441429527,
				"element": "C" 
			},
			{
				"x": 5.709754791,
				"y": -1.3084080169,
				"z": 2.2041780843,
				"element": "C" 
			},
			{
				"x": 4.5640952476,
				"y": -1.9341365434,
				"z": 1.7110562257,
				"element": "C" 
			},
			{
				"x": -1.8094901299,
				"y": 2.69736953,
				"z": 0.1110924442,
				"element": "C" 
			},
			{
				"x": -2.1715302803,
				"y": 3.9602611184,
				"z": -0.3527341217,
				"element": "C" 
			},
			{
				"x": -3.0059854947,
				"y": 6.0267015541,
				"z": -1.4943476196,
				"element": "H" 
			},
			{
				"x": -4.166204582,
				"y": 4.0404194798,
				"z": -3.5545917194,
				"element": "H" 
			},
			{
				"x": -3.2503998904,
				"y": 0.8466804533,
				"z": -2.3743373589,
				"element": "H" 
			},
			{
				"x": -2.3755685572,
				"y": -0.5428099255,
				"z": -0.8943334471,
				"element": "H" 
			},
			{
				"x": -1.1115344177,
				"y": -1.5349073276,
				"z": 0.6402681853,
				"element": "H" 
			},
			{
				"x": 1.2064032765,
				"y": -0.3121929533,
				"z": 3.0513089687,
				"element": "H" 
			},
			{
				"x": 1.5747970864,
				"y": -2.5925787285,
				"z": 2.7053171198,
				"element": "H" 
			},
			{
				"x": 0.326308909,
				"y": -2.6604969267,
				"z": 1.4778892518,
				"element": "H" 
			},
			{
				"x": 1.7730186506,
				"y": -1.3115419708,
				"z": -0.0715320963,
				"element": "H" 
			},
			{
				"x": 2.4686347896,
				"y": -2.8693308155,
				"z": 0.3723057017,
				"element": "H" 
			},
			{
				"x": 2.7294092324,
				"y": 0.8178567194,
				"z": 0.9359181721,
				"element": "H" 
			},
			{
				"x": 4.7542830689,
				"y": 1.929954197,
				"z": 1.8101859892,
				"element": "H" 
			},
			{
				"x": 6.6750175344,
				"y": 0.5748817055,
				"z": 2.6250972534,
				"element": "H" 
			},
			{
				"x": 6.5455553393,
				"y": -1.9088656007,
				"z": 2.552644015,
				"element": "H" 
			},
			{
				"x": 4.5165907836,
				"y": -3.0204752315,
				"z": 1.6783892714,
				"element": "H" 
			},
			{
				"x": -1.248541368,
				"y": 2.5840406456,
				"z": 1.0292448241,
				"element": "H" 
			},
			{
				"x": -1.8836517448,
				"y": 4.8466025655,
				"z": 0.2094627216,
				"element": "H" 
			}
		],
		 "valence_orbital": [ 
			{
				"type": "occ",
				"energy": -0.24789,
				"method": "rhf"
			},
			{
				"type": "occ",
				"energy": -0.24255,
				"method": "rhf"
			},
			{
				"type": "occ",
				"energy": -0.23553,
				"method": "rhf"
			},
			{
				"type": "occ",
				"energy": -0.23116,
				"method": "rhf"
			},
			{
				"type": "occ",
				"energy": -0.20345,
				"method": "rhf"
			},
			{
				"type": "unocc",
				"energy": -0.05055,
				"method": "rhf"
			},
			{
				"type": "unocc",
				"energy": -0.00182,
				"method": "rhf"
			},
			{
				"type": "unocc",
				"energy": -0.00117,
				"method": "rhf"
			},
			{
				"type": "unocc",
				"energy": 0.00963,
				"method": "rhf"
			},
			{
				"type": "unocc",
				"energy": 0.0373,
				"method": "rhf"
			}
		],
		"cosmo_sigma_profile": { 
			"-0.025": 0.0,
			"-0.024": 0.0,
			"-0.023": 0.0,
			"-0.022": 0.0,
			"-0.021": 0.0,
			"-0.02": 0.0,
			"-0.019": 0.230372135801,
			"-0.018": 1.32667370041,
			"-0.017": 0.888450482512,
			"-0.016": 0.930191761741,
			"-0.015": 1.34851676436,
			"-0.014": 1.63186337423,
			"-0.013": 1.67810333866,
			"-0.012": 1.90064051652,
			"-0.011": 1.76708064667,
			"-0.01": 2.49735019785,
			"-0.009": 2.46951402757,
			"-0.008": 3.38644916602,
			"-0.007": 7.05797752983,
			"-0.006": 13.0192016172,
			"-0.005": 21.6818947831,
			"-0.004": 27.2181344754,
			"-0.003": 28.2359913266,
			"-0.002": 22.6375132063,
			"-0.001": 19.6590103363,
			"0.0": 15.998108453,
			"0.001": 19.8394204689,
			"0.002": 21.3425720207,
			"0.003": 24.1206210682,
			"0.004": 28.4702330401,
			"0.005": 23.3430183171,
			"0.006": 15.0616992431,
			"0.007": 7.25361156234,
			"0.008": 3.36865895641,
			"0.009": 3.40933325187,
			"0.01": 3.132859617,
			"0.011": 3.89570054623,
			"0.012": 1.77860608107,
			"0.013": 2.76672099941,
			"0.014": 1.90576468832,
			"0.015": 0.408999202373,
			"0.016": 0.0,
			"0.017": 0.0,
			"0.018": 0.0,
			"0.019": 0.0,
			"0.02": 0.0,
			"0.021": 0.0,
			"0.022": 0.0,
			"0.023": 0.0,
			"0.024": 0.0,
			"0.025": 0.0
		}
	}
}
