{
	 "smiles": "NC(CC1=CC=C(C=C1)[N+]([O-])=O)C(O)=O", 
	 "Tm": 509.15, 
	 "num_atms": 25, 
	 "gaussian": { 
		 "optdone": 1, 
		 "sigma_profile": "yes", 
		 "theory": "DFT", 
		 "functional": "B3LYP", 
		 "basiset": "6-31G**", 
		 "properties": { 
			 "R2extent": 4816.8727, 
			 "electric_dipole_moment_norm": 5.17979737635, 
			 "electric_quadrupole_moment_norm": 21.7536007573, 
			 "total_energy": -759.298819709, 
			 "HOMO_LUMO_gap": 0.16381, 
			 "cosmo_polarized_energy": -16.08, 
			 "cosmo_cavitation_energy": 29.85, 
			 "cosmo_dispersion_energy": -21.23, 
			 "cosmo_repulsion_energy": 1.67, 
			 "cosmo_total_nonelectrostatic_energy": 10.3, 
			 "SMD_solvation_energy": 7.29 
		},
		"coords": [
			{
				"x": 1.1378865347,
				"y": -0.9069438888,
				"z": -0.9768150866,
				"element": "N" 
			},
			{
				"x": -0.2436717006,
				"y": -1.298981057,
				"z": -0.7368778264,
				"element": "C" 
			},
			{
				"x": -1.1829696247,
				"y": -0.0673501395,
				"z": -0.7062014063,
				"element": "C" 
			},
			{
				"x": -0.8335999273,
				"y": 0.9451785815,
				"z": 0.3633744761,
				"element": "C" 
			},
			{
				"x": -1.4097056049,
				"y": 0.8692541263,
				"z": 1.6428864747,
				"element": "C" 
			},
			{
				"x": -1.0809127984,
				"y": 1.7915008325,
				"z": 2.6322789649,
				"element": "C" 
			},
			{
				"x": -0.1636022219,
				"y": 2.7972387394,
				"z": 2.3329787518,
				"element": "C" 
			},
			{
				"x": 0.4277936174,
				"y": 2.9035951059,
				"z": 1.0757785798,
				"element": "C" 
			},
			{
				"x": 0.0860356337,
				"y": 1.9737807047,
				"z": 0.0974967595,
				"element": "C" 
			},
			{
				"x": 0.1882437492,
				"y": 3.7762202959,
				"z": 3.3723602209,
				"element": "N" 
			},
			{
				"x": -0.3495252137,
				"y": 3.6593751055,
				"z": 4.4734496176,
				"element": "O" 
			},
			{
				"x": 1.0012286415,
				"y": 4.6532318619,
				"z": 3.0799693609,
				"element": "O" 
			},
			{
				"x": -0.5013154204,
				"y": -2.1942001653,
				"z": 0.4867772226,
				"element": "C" 
			},
			{
				"x": 0.6236862508,
				"y": -2.7995720877,
				"z": 0.9321868927,
				"element": "O" 
			},
			{
				"x": -1.5874464466,
				"y": -2.3874670568,
				"z": 0.9909539068,
				"element": "O" 
			},
			{
				"x": 1.5011129142,
				"y": -0.4041252244,
				"z": -0.1706872734,
				"element": "H" 
			},
			{
				"x": 1.7202527604,
				"y": -1.7330168025,
				"z": -1.0806949721,
				"element": "H" 
			},
			{
				"x": -0.5643966871,
				"y": -1.9112445227,
				"z": -1.5919598572,
				"element": "H" 
			},
			{
				"x": -2.2040778192,
				"y": -0.4271475674,
				"z": -0.5595091686,
				"element": "H" 
			},
			{
				"x": -1.1232713984,
				"y": 0.403367075,
				"z": -1.6912687261,
				"element": "H" 
			},
			{
				"x": -2.1185465262,
				"y": 0.0766361861,
				"z": 1.859730109,
				"element": "H" 
			},
			{
				"x": -1.5202488354,
				"y": 1.7488486648,
				"z": 3.6210872138,
				"element": "H" 
			},
			{
				"x": 1.1325114232,
				"y": 3.7030917012,
				"z": 0.884148137,
				"element": "H" 
			},
			{
				"x": 0.5356583347,
				"y": 2.0424010848,
				"z": -0.8884505131,
				"element": "H" 
			},
			{
				"x": 0.350580365,
				"y": -3.3658715532,
				"z": 1.6742081416,
				"element": "H" 
			}
		],
		 "valence_orbital": [ 
			{
				"type": "occ",
				"energy": -0.30408,
				"method": "rhf"
			},
			{
				"type": "occ",
				"energy": -0.28782,
				"method": "rhf"
			},
			{
				"type": "occ",
				"energy": -0.27611,
				"method": "rhf"
			},
			{
				"type": "occ",
				"energy": -0.2743,
				"method": "rhf"
			},
			{
				"type": "occ",
				"energy": -0.25051,
				"method": "rhf"
			},
			{
				"type": "unocc",
				"energy": -0.0867,
				"method": "rhf"
			},
			{
				"type": "unocc",
				"energy": -0.02744,
				"method": "rhf"
			},
			{
				"type": "unocc",
				"energy": -0.00972,
				"method": "rhf"
			},
			{
				"type": "unocc",
				"energy": 0.00025,
				"method": "rhf"
			},
			{
				"type": "unocc",
				"energy": 0.05839,
				"method": "rhf"
			}
		],
		"cosmo_sigma_profile": { 
			"-0.025": 0.0,
			"-0.024": 0.0,
			"-0.023": 0.0,
			"-0.022": 0.0,
			"-0.021": 0.0,
			"-0.02": 0.0,
			"-0.019": 0.0339690940776,
			"-0.018": 1.00562717318,
			"-0.017": 0.639538395318,
			"-0.016": 0.709767927668,
			"-0.015": 1.21678815087,
			"-0.014": 0.522276501304,
			"-0.013": 1.09649521485,
			"-0.012": 0.507013559656,
			"-0.011": 0.732475302296,
			"-0.01": 1.59203794232,
			"-0.009": 2.45019832291,
			"-0.008": 4.16068093258,
			"-0.007": 11.6797667845,
			"-0.006": 12.3534119522,
			"-0.005": 14.6537710423,
			"-0.004": 16.8615612004,
			"-0.003": 16.8281053226,
			"-0.002": 15.7420730292,
			"-0.001": 16.5680540005,
			"0.0": 15.5147566087,
			"0.001": 17.7277414649,
			"0.002": 15.0164971612,
			"0.003": 6.85278642393,
			"0.004": 4.8838556121,
			"0.005": 7.30029757002,
			"0.006": 6.42795767898,
			"0.007": 10.1293006627,
			"0.008": 11.3538755551,
			"0.009": 6.82325072348,
			"0.01": 4.84078391583,
			"0.011": 4.05707954297,
			"0.012": 2.89983870276,
			"0.013": 1.09699805285,
			"0.014": 0.720250886345,
			"0.015": 0.281604528365,
			"0.016": 0.585308388376,
			"0.017": 0.227944210438,
			"0.018": 0.291627583232,
			"0.019": 0.0,
			"0.02": 0.0,
			"0.021": 0.0,
			"0.022": 0.0,
			"0.023": 0.0,
			"0.024": 0.0,
			"0.025": 0.0
		}
	}
}
