{
	 "smiles": "CC1=CC2=C(C=C1)C=C(CCl)C(Cl)=N2", 
	 "Tm": 406.15, 
	 "num_atms": 23, 
	 "gaussian": { 
		 "optdone": 1, 
		 "sigma_profile": "yes", 
		 "theory": "DFT", 
		 "functional": "B3LYP", 
		 "basiset": "6-31G**", 
		 "properties": { 
			 "R2extent": 5684.3534, 
			 "electric_dipole_moment_norm": 4.7669024796, 
			 "electric_quadrupole_moment_norm": 19.972051811, 
			 "total_energy": -1399.75364411, 
			 "HOMO_LUMO_gap": 0.17532, 
			 "cosmo_polarized_energy": -10.31, 
			 "cosmo_cavitation_energy": 30.46, 
			 "cosmo_dispersion_energy": -22.44, 
			 "cosmo_repulsion_energy": 1.76, 
			 "cosmo_total_nonelectrostatic_energy": 9.78, 
			 "SMD_solvation_energy": 2.92 
		},
		"coords": [
			{
				"x": -0.831655671,
				"y": -3.8105988415,
				"z": 1.583993022,
				"element": "C" 
			},
			{
				"x": -0.8476653136,
				"y": -2.5425367068,
				"z": 0.7667443233,
				"element": "C" 
			},
			{
				"x": 0.0878670377,
				"y": -2.3091311144,
				"z": -0.2225284916,
				"element": "C" 
			},
			{
				"x": 0.0627895884,
				"y": -1.1153119397,
				"z": -0.985462437,
				"element": "C" 
			},
			{
				"x": -0.9443200301,
				"y": -0.1370592238,
				"z": -0.7284762365,
				"element": "C" 
			},
			{
				"x": -1.8979534619,
				"y": -0.3893319213,
				"z": 0.2919954996,
				"element": "C" 
			},
			{
				"x": -1.847557563,
				"y": -1.5580420278,
				"z": 1.0144126817,
				"element": "C" 
			},
			{
				"x": -0.9252066723,
				"y": 1.0359064447,
				"z": -1.5183405891,
				"element": "C" 
			},
			{
				"x": 0.0300919906,
				"y": 1.2221342654,
				"z": -2.4973098891,
				"element": "C" 
			},
			{
				"x": 0.0417264223,
				"y": 2.4652028207,
				"z": -3.3294812029,
				"element": "C" 
			},
			{
				"x": -0.8718666155,
				"y": 2.2557970229,
				"z": -4.9055746773,
				"element": "Cl" 
			},
			{
				"x": 0.9809213681,
				"y": 0.1639460878,
				"z": -2.6496100077,
				"element": "C" 
			},
			{
				"x": 2.2445910305,
				"y": 0.3353629342,
				"z": -3.8747303417,
				"element": "Cl" 
			},
			{
				"x": 1.0112323592,
				"y": -0.9301669599,
				"z": -1.950994587,
				"element": "N" 
			},
			{
				"x": -0.7180676295,
				"y": -3.5905502258,
				"z": 2.6519345739,
				"element": "H" 
			},
			{
				"x": -1.7703469408,
				"y": -4.3652172844,
				"z": 1.4697893101,
				"element": "H" 
			},
			{
				"x": -0.0122016106,
				"y": -4.4689272007,
				"z": 1.2857316221,
				"element": "H" 
			},
			{
				"x": 0.8673086062,
				"y": -3.0311254442,
				"z": -0.4449493167,
				"element": "H" 
			},
			{
				"x": -2.6679047713,
				"y": 0.3511522651,
				"z": 0.4922738078,
				"element": "H" 
			},
			{
				"x": -2.5836234576,
				"y": -1.7421171953,
				"z": 1.7928249032,
				"element": "H" 
			},
			{
				"x": -1.6799713166,
				"y": 1.8015610767,
				"z": -1.3531040652,
				"element": "H" 
			},
			{
				"x": 1.0489689407,
				"y": 2.7635042363,
				"z": -3.6134474972,
				"element": "H" 
			},
			{
				"x": -0.4545562898,
				"y": 3.285248932,
				"z": -2.8109904047,
				"element": "H" 
			}
		],
		 "valence_orbital": [ 
			{
				"type": "occ",
				"energy": -0.29908,
				"method": "rhf"
			},
			{
				"type": "occ",
				"energy": -0.29526,
				"method": "rhf"
			},
			{
				"type": "occ",
				"energy": -0.27544,
				"method": "rhf"
			},
			{
				"type": "occ",
				"energy": -0.25191,
				"method": "rhf"
			},
			{
				"type": "occ",
				"energy": -0.24311,
				"method": "rhf"
			},
			{
				"type": "unocc",
				"energy": -0.06779,
				"method": "rhf"
			},
			{
				"type": "unocc",
				"energy": -0.03965,
				"method": "rhf"
			},
			{
				"type": "unocc",
				"energy": 0.00798,
				"method": "rhf"
			},
			{
				"type": "unocc",
				"energy": 0.02156,
				"method": "rhf"
			},
			{
				"type": "unocc",
				"energy": 0.03212,
				"method": "rhf"
			}
		],
		"cosmo_sigma_profile": { 
			"-0.025": 0.0,
			"-0.024": 0.0,
			"-0.023": 0.0,
			"-0.022": 0.0,
			"-0.021": 0.0,
			"-0.02": 0.0,
			"-0.019": 0.0,
			"-0.018": 0.0,
			"-0.017": 0.0,
			"-0.016": 0.0,
			"-0.015": 0.0,
			"-0.014": 0.0,
			"-0.013": 0.0,
			"-0.012": 0.0,
			"-0.011": 0.0,
			"-0.01": 0.13693143606,
			"-0.009": 3.01233237986,
			"-0.008": 6.0283709618,
			"-0.007": 7.45710784613,
			"-0.006": 10.5895568108,
			"-0.005": 14.9052860881,
			"-0.004": 16.6626216637,
			"-0.003": 15.4204307836,
			"-0.002": 15.6195716745,
			"-0.001": 19.858205366,
			"0.0": 23.9492404193,
			"0.001": 20.2220069748,
			"0.002": 21.1785568766,
			"0.003": 20.6499732761,
			"0.004": 16.1088836019,
			"0.005": 11.7983634408,
			"0.006": 13.0303003916,
			"0.007": 4.95739598966,
			"0.008": 1.15652739953,
			"0.009": 1.36245126961,
			"0.01": 1.07840780245,
			"0.011": 0.917555712748,
			"0.012": 0.846666239161,
			"0.013": 0.847186360236,
			"0.014": 0.379553189056,
			"0.015": 0.0,
			"0.016": 0.0,
			"0.017": 0.0,
			"0.018": 0.0,
			"0.019": 0.0,
			"0.02": 0.0,
			"0.021": 0.0,
			"0.022": 0.0,
			"0.023": 0.0,
			"0.024": 0.0,
			"0.025": 0.0
		}
	}
}
