{
	 "smiles": "CN1C=C(C=C[N+]([O-])=O)C=N1", 
	 "Tm": 401.15, 
	 "num_atms": 18, 
	 "gaussian": { 
		 "optdone": 1, 
		 "sigma_profile": "yes", 
		 "theory": "DFT", 
		 "functional": "B3LYP", 
		 "basiset": "6-31G**", 
		 "properties": { 
			 "R2extent": 2879.6517, 
			 "electric_dipole_moment_norm": 7.46658485253, 
			 "electric_quadrupole_moment_norm": 11.7115790955, 
			 "total_energy": -547.414192325, 
			 "HOMO_LUMO_gap": 0.1592, 
			 "cosmo_polarized_energy": -15.94, 
			 "cosmo_cavitation_energy": 23.29, 
			 "cosmo_dispersion_energy": -17.19, 
			 "cosmo_repulsion_energy": 1.38, 
			 "cosmo_total_nonelectrostatic_energy": 7.47, 
			 "SMD_solvation_energy": 6.25 
		},
		"coords": [
			{
				"x": -1.9417866818,
				"y": -0.4571911196,
				"z": -3.6668340992,
				"element": "C" 
			},
			{
				"x": -1.0442106509,
				"y": 0.1125053546,
				"z": -2.6783885363,
				"element": "N" 
			},
			{
				"x": -1.341552273,
				"y": 0.619791808,
				"z": -1.470128168,
				"element": "C" 
			},
			{
				"x": -0.1418290917,
				"y": 1.0467512107,
				"z": -0.8851819718,
				"element": "C" 
			},
			{
				"x": -0.1179904911,
				"y": 1.6436559031,
				"z": 0.4259296825,
				"element": "C" 
			},
			{
				"x": 0.8215885247,
				"y": 2.146910187,
				"z": 1.2567276686,
				"element": "C" 
			},
			{
				"x": 2.2381489084,
				"y": 2.237697345,
				"z": 1.0323001193,
				"element": "N" 
			},
			{
				"x": 2.8969165999,
				"y": 2.7422612265,
				"z": 1.9482717974,
				"element": "O" 
			},
			{
				"x": 2.723574721,
				"y": 1.823879743,
				"z": -0.026364913,
				"element": "O" 
			},
			{
				"x": 0.8365246623,
				"y": 0.7285770093,
				"z": -1.879235576,
				"element": "C" 
			},
			{
				"x": 0.2889914934,
				"y": 0.17030086,
				"z": -2.9478195921,
				"element": "N" 
			},
			{
				"x": -2.9632364023,
				"y": -0.4178862373,
				"z": -3.2856435565,
				"element": "H" 
			},
			{
				"x": -1.6647400457,
				"y": -1.4954854942,
				"z": -3.864651636,
				"element": "H" 
			},
			{
				"x": -1.8764483437,
				"y": 0.1111771598,
				"z": -4.5977102189,
				"element": "H" 
			},
			{
				"x": -2.3552708576,
				"y": 0.6527895462,
				"z": -1.0955263775,
				"element": "H" 
			},
			{
				"x": -1.1110574846,
				"y": 1.710375168,
				"z": 0.8705718267,
				"element": "H" 
			},
			{
				"x": 0.561053756,
				"y": 2.5500715243,
				"z": 2.22500576,
				"element": "H" 
			},
			{
				"x": 1.8992236566,
				"y": 0.8935188055,
				"z": -1.8323222091,
				"element": "H" 
			}
		],
		 "valence_orbital": [ 
			{
				"type": "occ",
				"energy": -0.29414,
				"method": "rhf"
			},
			{
				"type": "occ",
				"energy": -0.2918,
				"method": "rhf"
			},
			{
				"type": "occ",
				"energy": -0.27402,
				"method": "rhf"
			},
			{
				"type": "occ",
				"energy": -0.27316,
				"method": "rhf"
			},
			{
				"type": "occ",
				"energy": -0.24382,
				"method": "rhf"
			},
			{
				"type": "unocc",
				"energy": -0.08462,
				"method": "rhf"
			},
			{
				"type": "unocc",
				"energy": -0.00128,
				"method": "rhf"
			},
			{
				"type": "unocc",
				"energy": 0.00963,
				"method": "rhf"
			},
			{
				"type": "unocc",
				"energy": 0.07546,
				"method": "rhf"
			},
			{
				"type": "unocc",
				"energy": 0.08085,
				"method": "rhf"
			}
		],
		"cosmo_sigma_profile": { 
			"-0.025": 0.0,
			"-0.024": 0.0,
			"-0.023": 0.0,
			"-0.022": 0.0,
			"-0.021": 0.0,
			"-0.02": 0.0,
			"-0.019": 0.0,
			"-0.018": 0.0,
			"-0.017": 0.0,
			"-0.016": 0.0,
			"-0.015": 0.0,
			"-0.014": 0.0,
			"-0.013": 0.0,
			"-0.012": 0.0,
			"-0.011": 0.778964792245,
			"-0.01": 4.91471222105,
			"-0.009": 6.17581899673,
			"-0.008": 7.29035321408,
			"-0.007": 8.3015320937,
			"-0.006": 9.96878320474,
			"-0.005": 10.7415217834,
			"-0.004": 13.6099108082,
			"-0.003": 11.9224524315,
			"-0.002": 9.51638863374,
			"-0.001": 9.50981790214,
			"0.0": 11.7646240151,
			"0.001": 12.9196260115,
			"0.002": 13.1883714236,
			"0.003": 8.34582383567,
			"0.004": 4.34425622757,
			"0.005": 4.52372587245,
			"0.006": 3.66314271575,
			"0.007": 5.67005597388,
			"0.008": 6.02289543097,
			"0.009": 8.69223513559,
			"0.01": 5.6783911756,
			"0.011": 4.51691586363,
			"0.012": 2.07094837322,
			"0.013": 0.963772910835,
			"0.014": 0.926090138775,
			"0.015": 0.674417136807,
			"0.016": 0.00442511351538,
			"0.017": 0.0,
			"0.018": 0.0,
			"0.019": 0.0,
			"0.02": 0.0,
			"0.021": 0.0,
			"0.022": 0.0,
			"0.023": 0.0,
			"0.024": 0.0,
			"0.025": 0.0
		}
	}
}
