{
	 "smiles": "FC1=CC(=CC=C1)S(Cl)(=O)=O", 
	 "Tm": 280.15, 
	 "num_atms": 15, 
	 "gaussian": { 
		 "optdone": 1, 
		 "sigma_profile": "yes", 
		 "theory": "DFT", 
		 "functional": "B3LYP", 
		 "basiset": "6-31G**", 
		 "properties": { 
			 "R2extent": 3254.164, 
			 "electric_dipole_moment_norm": 4.74694946466, 
			 "electric_quadrupole_moment_norm": 12.2002138014, 
			 "total_energy": -1339.63783271, 
			 "HOMO_LUMO_gap": 0.18761, 
			 "cosmo_polarized_energy": -8.38, 
			 "cosmo_cavitation_energy": 23.69, 
			 "cosmo_dispersion_energy": -17.77, 
			 "cosmo_repulsion_energy": 1.36, 
			 "cosmo_total_nonelectrostatic_energy": 7.27, 
			 "SMD_solvation_energy": 3.34 
		},
		"coords": [
			{
				"x": -0.6384548334,
				"y": -2.2299743152,
				"z": 0.1224643657,
				"element": "F" 
			},
			{
				"x": -0.257432458,
				"y": -0.9724067531,
				"z": -0.1547893754,
				"element": "C" 
			},
			{
				"x": 0.8732481606,
				"y": -0.4621893823,
				"z": 0.4711219147,
				"element": "C" 
			},
			{
				"x": 1.2357139488,
				"y": 0.8460851145,
				"z": 0.1518810668,
				"element": "C" 
			},
			{
				"x": 0.5220831614,
				"y": 1.634073013,
				"z": -0.7508335416,
				"element": "C" 
			},
			{
				"x": -0.6071859195,
				"y": 1.080584357,
				"z": -1.3565258278,
				"element": "C" 
			},
			{
				"x": -1.004400156,
				"y": -0.2240919276,
				"z": -1.0612845473,
				"element": "C" 
			},
			{
				"x": 2.6984186907,
				"y": 1.5303553223,
				"z": 0.9255965836,
				"element": "S" 
			},
			{
				"x": 1.8629360188,
				"y": 2.4099239615,
				"z": 2.6787696383,
				"element": "Cl" 
			},
			{
				"x": 3.5542939736,
				"y": 0.4435063815,
				"z": 1.3829249929,
				"element": "O" 
			},
			{
				"x": 3.1987327409,
				"y": 2.6328453287,
				"z": 0.1149999484,
				"element": "O" 
			},
			{
				"x": 1.4471097176,
				"y": -1.0635972155,
				"z": 1.1657927748,
				"element": "H" 
			},
			{
				"x": 0.8492531622,
				"y": 2.6422049095,
				"z": -0.9757937111,
				"element": "H" 
			},
			{
				"x": -1.1798924205,
				"y": 1.6686442226,
				"z": -2.066164509,
				"element": "H" 
			},
			{
				"x": -1.8785237871,
				"y": -0.6705630167,
				"z": -1.522459773,
				"element": "H" 
			}
		],
		 "valence_orbital": [ 
			{
				"type": "occ",
				"energy": -0.34182,
				"method": "rhf"
			},
			{
				"type": "occ",
				"energy": -0.33665,
				"method": "rhf"
			},
			{
				"type": "occ",
				"energy": -0.31783,
				"method": "rhf"
			},
			{
				"type": "occ",
				"energy": -0.29996,
				"method": "rhf"
			},
			{
				"type": "occ",
				"energy": -0.2831,
				"method": "rhf"
			},
			{
				"type": "unocc",
				"energy": -0.09549,
				"method": "rhf"
			},
			{
				"type": "unocc",
				"energy": -0.05213,
				"method": "rhf"
			},
			{
				"type": "unocc",
				"energy": -0.03804,
				"method": "rhf"
			},
			{
				"type": "unocc",
				"energy": 0.04318,
				"method": "rhf"
			},
			{
				"type": "unocc",
				"energy": 0.06626,
				"method": "rhf"
			}
		],
		"cosmo_sigma_profile": { 
			"-0.025": 0.0,
			"-0.024": 0.0,
			"-0.023": 0.0,
			"-0.022": 0.0,
			"-0.021": 0.0,
			"-0.02": 0.0,
			"-0.019": 0.0,
			"-0.018": 0.0,
			"-0.017": 0.0,
			"-0.016": 0.0,
			"-0.015": 0.0,
			"-0.014": 0.0,
			"-0.013": 0.0,
			"-0.012": 0.0,
			"-0.011": 0.0,
			"-0.01": 0.13271170904,
			"-0.009": 2.95064801693,
			"-0.008": 7.78890917811,
			"-0.007": 8.57321474083,
			"-0.006": 8.27510952245,
			"-0.005": 7.53257924525,
			"-0.004": 7.66965228259,
			"-0.003": 7.99394194877,
			"-0.002": 15.1495503096,
			"-0.001": 20.7281063109,
			"0.0": 18.9024159208,
			"0.001": 16.6045209865,
			"0.002": 11.2280620396,
			"0.003": 23.401843718,
			"0.004": 10.2417023952,
			"0.005": 3.80905351002,
			"0.006": 3.72471477409,
			"0.007": 6.4604661499,
			"0.008": 9.64329464573,
			"0.009": 3.06153524879,
			"0.01": 0.0,
			"0.011": 0.0,
			"0.012": 0.0,
			"0.013": 0.0,
			"0.014": 0.0,
			"0.015": 0.0,
			"0.016": 0.0,
			"0.017": 0.0,
			"0.018": 0.0,
			"0.019": 0.0,
			"0.02": 0.0,
			"0.021": 0.0,
			"0.022": 0.0,
			"0.023": 0.0,
			"0.024": 0.0,
			"0.025": 0.0
		}
	}
}
