{
	 "smiles": "FC1=CN(C2CCCO2)C(=O)NC1=O", 
	 "Tm": 445.15, 
	 "num_atms": 23, 
	 "gaussian": { 
		 "optdone": 1, 
		 "sigma_profile": "yes", 
		 "theory": "DFT", 
		 "functional": "B3LYP", 
		 "basiset": "6-31G**", 
		 "properties": { 
			 "R2extent": 3281.7197, 
			 "electric_dipole_moment_norm": 5.42406118144, 
			 "electric_quadrupole_moment_norm": 12.7805395516, 
			 "total_energy": -745.295612166, 
			 "HOMO_LUMO_gap": 0.19448, 
			 "cosmo_polarized_energy": -15.75, 
			 "cosmo_cavitation_energy": 26.94, 
			 "cosmo_dispersion_energy": -19.81, 
			 "cosmo_repulsion_energy": 1.54, 
			 "cosmo_total_nonelectrostatic_energy": 8.67, 
			 "SMD_solvation_energy": 6.4 
		},
		"coords": [
			{
				"x": -2.5238957356,
				"y": 1.6949844241,
				"z": 1.6387018803,
				"element": "F" 
			},
			{
				"x": -1.40923545,
				"y": 1.8474756596,
				"z": 0.9079848899,
				"element": "C" 
			},
			{
				"x": -0.6302510739,
				"y": 0.7899381234,
				"z": 0.6024849339,
				"element": "C" 
			},
			{
				"x": 0.5227220548,
				"y": 0.9258837744,
				"z": -0.1432091698,
				"element": "N" 
			},
			{
				"x": 1.3729224815,
				"y": -0.2540494629,
				"z": -0.5154056889,
				"element": "C" 
			},
			{
				"x": 2.7236083334,
				"y": -0.248743611,
				"z": 0.2158662737,
				"element": "C" 
			},
			{
				"x": 2.4067383505,
				"y": -1.048887737,
				"z": 1.4867614847,
				"element": "C" 
			},
			{
				"x": 1.4114400339,
				"y": -2.0819371564,
				"z": 0.9562293915,
				"element": "C" 
			},
			{
				"x": 0.7139609509,
				"y": -1.4345648944,
				"z": -0.1356227931,
				"element": "O" 
			},
			{
				"x": 0.9127358765,
				"y": 2.152872055,
				"z": -0.6709573595,
				"element": "C" 
			},
			{
				"x": 1.90739948,
				"y": 2.2863419524,
				"z": -1.3701883495,
				"element": "O" 
			},
			{
				"x": 0.0809053842,
				"y": 3.2095999765,
				"z": -0.3277995907,
				"element": "N" 
			},
			{
				"x": -1.0939804784,
				"y": 3.1951046528,
				"z": 0.4477309365,
				"element": "C" 
			},
			{
				"x": -1.7316071327,
				"y": 4.2087676181,
				"z": 0.6694733355,
				"element": "O" 
			},
			{
				"x": -0.8784459043,
				"y": -0.2170875609,
				"z": 0.9076960447,
				"element": "H" 
			},
			{
				"x": 1.478208108,
				"y": -0.2162996946,
				"z": -1.6020808527,
				"element": "H" 
			},
			{
				"x": 3.4543109464,
				"y": -0.7798378326,
				"z": -0.4035671698,
				"element": "H" 
			},
			{
				"x": 3.0993914137,
				"y": 0.759518277,
				"z": 0.3868968121,
				"element": "H" 
			},
			{
				"x": 3.2890148002,
				"y": -1.5093821251,
				"z": 1.9377921209,
				"element": "H" 
			},
			{
				"x": 1.9368537868,
				"y": -0.4086592916,
				"z": 2.2409174355,
				"element": "H" 
			},
			{
				"x": 1.919236881,
				"y": -2.9704821259,
				"z": 0.5607010817,
				"element": "H" 
			},
			{
				"x": 0.668324882,
				"y": -2.4055945799,
				"z": 1.6909718891,
				"element": "H" 
			},
			{
				"x": 0.355842011,
				"y": 4.1113395588,
				"z": -0.6992775362,
				"element": "H" 
			}
		],
		 "valence_orbital": [ 
			{
				"type": "occ",
				"energy": -0.30327,
				"method": "rhf"
			},
			{
				"type": "occ",
				"energy": -0.29259,
				"method": "rhf"
			},
			{
				"type": "occ",
				"energy": -0.28838,
				"method": "rhf"
			},
			{
				"type": "occ",
				"energy": -0.26676,
				"method": "rhf"
			},
			{
				"type": "occ",
				"energy": -0.23506,
				"method": "rhf"
			},
			{
				"type": "unocc",
				"energy": -0.04058,
				"method": "rhf"
			},
			{
				"type": "unocc",
				"energy": 0.00829,
				"method": "rhf"
			},
			{
				"type": "unocc",
				"energy": 0.0654,
				"method": "rhf"
			},
			{
				"type": "unocc",
				"energy": 0.07894,
				"method": "rhf"
			},
			{
				"type": "unocc",
				"energy": 0.08668,
				"method": "rhf"
			}
		],
		"cosmo_sigma_profile": { 
			"-0.025": 0.0,
			"-0.024": 0.0,
			"-0.023": 0.0,
			"-0.022": 0.0,
			"-0.021": 0.0,
			"-0.02": 0.0,
			"-0.019": 0.0,
			"-0.018": 0.0,
			"-0.017": 0.0246439239251,
			"-0.016": 0.683247796834,
			"-0.015": 0.965640776672,
			"-0.014": 1.09518487406,
			"-0.013": 0.188546462392,
			"-0.012": 0.777765200743,
			"-0.011": 1.05389950361,
			"-0.01": 1.11217250021,
			"-0.009": 1.34607948515,
			"-0.008": 2.05605446812,
			"-0.007": 3.97991924329,
			"-0.006": 8.52685684366,
			"-0.005": 21.4727875446,
			"-0.004": 27.867646082,
			"-0.003": 22.941962052,
			"-0.002": 18.6213776304,
			"-0.001": 16.6570781727,
			"0.0": 8.3897795931,
			"0.001": 6.31099440606,
			"0.002": 4.89383582287,
			"0.003": 8.7263954342,
			"0.004": 10.6225120859,
			"0.005": 4.23609750039,
			"0.006": 3.8724260605,
			"0.007": 2.81985486697,
			"0.008": 4.51752599579,
			"0.009": 4.1821813143,
			"0.01": 4.42668404642,
			"0.011": 4.7764648444,
			"0.012": 10.7186624368,
			"0.013": 5.73400560571,
			"0.014": 0.0680971652019,
			"0.015": 0.0,
			"0.016": 0.0,
			"0.017": 0.0,
			"0.018": 0.0,
			"0.019": 0.0,
			"0.02": 0.0,
			"0.021": 0.0,
			"0.022": 0.0,
			"0.023": 0.0,
			"0.024": 0.0,
			"0.025": 0.0
		}
	}
}
