{
	 "smiles": "OC1=CC=C(C=C1C=C1/N=C(OC1=O)C1=CC=CC=C1)[N+]([O-])=O", 
	 "Tm": 505.15, 
	 "num_atms": 33, 
	 "gaussian": { 
		 "optdone": 1, 
		 "sigma_profile": "yes", 
		 "theory": "DFT", 
		 "functional": "B3LYP", 
		 "basiset": "6-31G**", 
		 "properties": { 
			 "R2extent": 9807.5283, 
			 "electric_dipole_moment_norm": 2.16789576087, 
			 "electric_quadrupole_moment_norm": 37.4387974655, 
			 "total_energy": -1101.25399424, 
			 "HOMO_LUMO_gap": 0.1234, 
			 "cosmo_polarized_energy": -17.81, 
			 "cosmo_cavitation_energy": 40.25, 
			 "cosmo_dispersion_energy": -28.66, 
			 "cosmo_repulsion_energy": 2.12, 
			 "cosmo_total_nonelectrostatic_energy": 13.71, 
			 "SMD_solvation_energy": 9.62 
		},
		"coords": [
			{
				"x": -3.9944397941,
				"y": -1.8964403584,
				"z": -2.2100288366,
				"element": "O" 
			},
			{
				"x": -3.0500719669,
				"y": -2.5713125083,
				"z": -1.5148906081,
				"element": "C" 
			},
			{
				"x": -3.278805746,
				"y": -3.9478625621,
				"z": -1.3663482478,
				"element": "C" 
			},
			{
				"x": -2.3718061637,
				"y": -4.7425471852,
				"z": -0.6879690387,
				"element": "C" 
			},
			{
				"x": -1.2219347794,
				"y": -4.1469800209,
				"z": -0.1555161119,
				"element": "C" 
			},
			{
				"x": -0.9749411908,
				"y": -2.7902151331,
				"z": -0.2792184764,
				"element": "C" 
			},
			{
				"x": -1.8904432456,
				"y": -1.9599960644,
				"z": -0.9573689711,
				"element": "C" 
			},
			{
				"x": -1.6835278846,
				"y": -0.5304987773,
				"z": -1.0748840493,
				"element": "C" 
			},
			{
				"x": -0.6190076827,
				"y": 0.2175658415,
				"z": -0.681983733,
				"element": "C" 
			},
			{
				"x": 0.5650998192,
				"y": -0.1793372866,
				"z": -0.0709793051,
				"element": "N" 
			},
			{
				"x": 1.254353852,
				"y": 0.9073347553,
				"z": 0.0985272749,
				"element": "C" 
			},
			{
				"x": 0.6610812826,
				"y": 2.0690898251,
				"z": -0.346064859,
				"element": "O" 
			},
			{
				"x": -0.5825051927,
				"y": 1.6883082479,
				"z": -0.8740069035,
				"element": "C" 
			},
			{
				"x": -1.358200838,
				"y": 2.4726827171,
				"z": -1.3510120235,
				"element": "O" 
			},
			{
				"x": 2.5727428923,
				"y": 1.0182689101,
				"z": 0.7036153737,
				"element": "C" 
			},
			{
				"x": 3.210858261,
				"y": -0.1427002654,
				"z": 1.1772471455,
				"element": "C" 
			},
			{
				"x": 4.470677222,
				"y": -0.0498911406,
				"z": 1.757645122,
				"element": "C" 
			},
			{
				"x": 5.1024739694,
				"y": 1.1933414263,
				"z": 1.8706871542,
				"element": "C" 
			},
			{
				"x": 4.470767531,
				"y": 2.3476645833,
				"z": 1.4013210436,
				"element": "C" 
			},
			{
				"x": 3.2087553358,
				"y": 2.2660837261,
				"z": 0.8184352386,
				"element": "C" 
			},
			{
				"x": -0.2514527423,
				"y": -4.9835280706,
				"z": 0.5568777637,
				"element": "N" 
			},
			{
				"x": 0.7553786773,
				"y": -4.4394837283,
				"z": 1.01150409,
				"element": "O" 
			},
			{
				"x": -0.5025316509,
				"y": -6.1856671782,
				"z": 0.6577000259,
				"element": "O" 
			},
			{
				"x": -3.7315635181,
				"y": -0.9792285869,
				"z": -2.3579902106,
				"element": "H" 
			},
			{
				"x": -4.1779984184,
				"y": -4.3663721241,
				"z": -1.8041948995,
				"element": "H" 
			},
			{
				"x": -2.5276234039,
				"y": -5.8069317222,
				"z": -0.5660312997,
				"element": "H" 
			},
			{
				"x": -0.0778663988,
				"y": -2.3627039904,
				"z": 0.1479385951,
				"element": "H" 
			},
			{
				"x": -2.4722939564,
				"y": 0.0775052428,
				"z": -1.515448472,
				"element": "H" 
			},
			{
				"x": 2.7073840706,
				"y": -1.0988013944,
				"z": 1.0828555865,
				"element": "H" 
			},
			{
				"x": 4.9623652971,
				"y": -0.9460095446,
				"z": 2.123369388,
				"element": "H" 
			},
			{
				"x": 6.0867064485,
				"y": 1.2611629803,
				"z": 2.3249140349,
				"element": "H" 
			},
			{
				"x": 4.9619397121,
				"y": 3.3118092224,
				"z": 1.4898334149,
				"element": "H" 
			},
			{
				"x": 2.7107302024,
				"y": 3.1565901636,
				"z": 0.4515647945,
				"element": "H" 
			}
		],
		 "valence_orbital": [ 
			{
				"type": "occ",
				"energy": -0.28541,
				"method": "rhf"
			},
			{
				"type": "occ",
				"energy": -0.28213,
				"method": "rhf"
			},
			{
				"type": "occ",
				"energy": -0.27173,
				"method": "rhf"
			},
			{
				"type": "occ",
				"energy": -0.26515,
				"method": "rhf"
			},
			{
				"type": "occ",
				"energy": -0.23162,
				"method": "rhf"
			},
			{
				"type": "unocc",
				"energy": -0.10822,
				"method": "rhf"
			},
			{
				"type": "unocc",
				"energy": -0.08411,
				"method": "rhf"
			},
			{
				"type": "unocc",
				"energy": -0.0473,
				"method": "rhf"
			},
			{
				"type": "unocc",
				"energy": -0.02018,
				"method": "rhf"
			},
			{
				"type": "unocc",
				"energy": -0.01385,
				"method": "rhf"
			}
		],
		"cosmo_sigma_profile": { 
			"-0.025": 0.0,
			"-0.024": 0.0,
			"-0.023": 0.0,
			"-0.022": 0.0,
			"-0.021": 0.181586516721,
			"-0.02": 0.6869021647,
			"-0.019": 0.940666097421,
			"-0.018": 1.06394413248,
			"-0.017": 0.435498380162,
			"-0.016": 0.984860096961,
			"-0.015": 1.03746749648,
			"-0.014": 0.933367969929,
			"-0.013": 0.960033812838,
			"-0.012": 1.11032238035,
			"-0.011": 0.746359872627,
			"-0.01": 1.2547067636,
			"-0.009": 1.07268991199,
			"-0.008": 3.36751390251,
			"-0.007": 10.0838106103,
			"-0.006": 16.8534305961,
			"-0.005": 18.7470633364,
			"-0.004": 18.3331192155,
			"-0.003": 17.0993898546,
			"-0.002": 22.4652096675,
			"-0.001": 29.7854958585,
			"0.0": 34.998619395,
			"0.001": 25.5366075886,
			"0.002": 21.7896137076,
			"0.003": 21.6967007385,
			"0.004": 12.5019350397,
			"0.005": 8.62828832202,
			"0.006": 10.0356818327,
			"0.007": 10.3600476488,
			"0.008": 11.1771686792,
			"0.009": 9.17001050772,
			"0.01": 9.11371395792,
			"0.011": 2.55008033659,
			"0.012": 0.0489012451338,
			"0.013": 0.0,
			"0.014": 0.0,
			"0.015": 0.0,
			"0.016": 0.0,
			"0.017": 0.0,
			"0.018": 0.0,
			"0.019": 0.0,
			"0.02": 0.0,
			"0.021": 0.0,
			"0.022": 0.0,
			"0.023": 0.0,
			"0.024": 0.0,
			"0.025": 0.0
		}
	}
}
