{
	 "smiles": "OC(=O)C1=CC=C(S1)S(=O)(=O)C1=CC=CC=C1", 
	 "Tm": 466.15, 
	 "num_atms": 25, 
	 "gaussian": { 
		 "optdone": 1, 
		 "sigma_profile": "yes", 
		 "theory": "DFT", 
		 "functional": "B3LYP", 
		 "basiset": "6-31G**", 
		 "properties": { 
			 "R2extent": 5846.2209, 
			 "electric_dipole_moment_norm": 4.24944256697, 
			 "electric_quadrupole_moment_norm": 29.0824809841, 
			 "total_energy": -1521.17592752, 
			 "HOMO_LUMO_gap": 0.17907, 
			 "cosmo_polarized_energy": -20.23, 
			 "cosmo_cavitation_energy": 33.74, 
			 "cosmo_dispersion_energy": -24.7, 
			 "cosmo_repulsion_energy": 1.83, 
			 "cosmo_total_nonelectrostatic_energy": 10.87, 
			 "SMD_solvation_energy": 6.1 
		},
		"coords": [
			{
				"x": 3.5317824337,
				"y": -2.6979778416,
				"z": 0.311710853,
				"element": "O" 
			},
			{
				"x": 2.3689577298,
				"y": -3.3369348181,
				"z": 0.5980178599,
				"element": "C" 
			},
			{
				"x": 2.2919053839,
				"y": -4.5389398763,
				"z": 0.5124507994,
				"element": "O" 
			},
			{
				"x": 1.2087097303,
				"y": -2.5012840597,
				"z": 1.0061706877,
				"element": "C" 
			},
			{
				"x": 0.0659223927,
				"y": -2.9989825967,
				"z": 1.5902769364,
				"element": "C" 
			},
			{
				"x": -0.8850731567,
				"y": -1.9925709997,
				"z": 1.8950589382,
				"element": "C" 
			},
			{
				"x": -0.4546255767,
				"y": -0.740917454,
				"z": 1.5268157137,
				"element": "C" 
			},
			{
				"x": 1.1246570706,
				"y": -0.768044821,
				"z": 0.8093317869,
				"element": "S" 
			},
			{
				"x": -1.3631746718,
				"y": 0.7853835892,
				"z": 1.734705809,
				"element": "S" 
			},
			{
				"x": -2.3510232821,
				"y": 0.527294922,
				"z": 2.7899534696,
				"element": "O" 
			},
			{
				"x": -0.3621418526,
				"y": 1.8565567262,
				"z": 1.8313003753,
				"element": "O" 
			},
			{
				"x": -2.2507048925,
				"y": 1.0004280303,
				"z": 0.1870382807,
				"element": "C" 
			},
			{
				"x": -3.5226119038,
				"y": 0.4401191082,
				"z": 0.0490545948,
				"element": "C" 
			},
			{
				"x": -4.2070988309,
				"y": 0.6148176486,
				"z": -1.153283948,
				"element": "C" 
			},
			{
				"x": -3.6219708883,
				"y": 1.3413133524,
				"z": -2.1937395655,
				"element": "C" 
			},
			{
				"x": -2.3536410406,
				"y": 1.9054619041,
				"z": -2.0362303236,
				"element": "C" 
			},
			{
				"x": -1.6575953755,
				"y": 1.739293591,
				"z": -0.8388380439,
				"element": "C" 
			},
			{
				"x": 3.5079734305,
				"y": -1.7682474845,
				"z": 0.5812099949,
				"element": "H" 
			},
			{
				"x": -0.0567199832,
				"y": -4.0555706718,
				"z": 1.7942235421,
				"element": "H" 
			},
			{
				"x": -1.8403828592,
				"y": -2.1629222647,
				"z": 2.3761185281,
				"element": "H" 
			},
			{
				"x": -3.968295669,
				"y": -0.1010380043,
				"z": 0.8765593186,
				"element": "H" 
			},
			{
				"x": -5.198678184,
				"y": 0.1899244827,
				"z": -1.275139912,
				"element": "H" 
			},
			{
				"x": -4.1597796287,
				"y": 1.474749963,
				"z": -3.1276830145,
				"element": "H" 
			},
			{
				"x": -1.9086075185,
				"y": 2.4807681809,
				"z": -2.8421796683,
				"element": "H" 
			},
			{
				"x": -0.6820828576,
				"y": 2.1885193936,
				"z": -0.6877030128,
				"element": "H" 
			}
		],
		 "valence_orbital": [ 
			{
				"type": "occ",
				"energy": -0.2954,
				"method": "rhf"
			},
			{
				"type": "occ",
				"energy": -0.29253,
				"method": "rhf"
			},
			{
				"type": "occ",
				"energy": -0.28899,
				"method": "rhf"
			},
			{
				"type": "occ",
				"energy": -0.28051,
				"method": "rhf"
			},
			{
				"type": "occ",
				"energy": -0.26866,
				"method": "rhf"
			},
			{
				"type": "unocc",
				"energy": -0.08959,
				"method": "rhf"
			},
			{
				"type": "unocc",
				"energy": -0.04696,
				"method": "rhf"
			},
			{
				"type": "unocc",
				"energy": -0.03172,
				"method": "rhf"
			},
			{
				"type": "unocc",
				"energy": -0.02016,
				"method": "rhf"
			},
			{
				"type": "unocc",
				"energy": 0.00072,
				"method": "rhf"
			}
		],
		"cosmo_sigma_profile": { 
			"-0.025": 0.0,
			"-0.024": 0.0,
			"-0.023": 0.0,
			"-0.022": 0.0,
			"-0.021": 0.0,
			"-0.02": 0.00550946867522,
			"-0.019": 0.431643605898,
			"-0.018": 0.72496530747,
			"-0.017": 1.07906102713,
			"-0.016": 0.795222842914,
			"-0.015": 1.03411626429,
			"-0.014": 1.54757248368,
			"-0.013": 0.863185224296,
			"-0.012": 0.909961616821,
			"-0.011": 0.81187664483,
			"-0.01": 1.05758675701,
			"-0.009": 3.18355128958,
			"-0.008": 4.54882051148,
			"-0.007": 14.4118401271,
			"-0.006": 17.8197099226,
			"-0.005": 17.23773943,
			"-0.004": 13.2399860353,
			"-0.003": 14.9814460193,
			"-0.002": 15.756460935,
			"-0.001": 23.5432178403,
			"0.0": 22.2091230573,
			"0.001": 21.5239823539,
			"0.002": 16.9534573124,
			"0.003": 15.3951443264,
			"0.004": 5.0938563099,
			"0.005": 4.98200884149,
			"0.006": 5.52152887748,
			"0.007": 5.46846832948,
			"0.008": 7.00234009939,
			"0.009": 8.75637512433,
			"0.01": 12.3543964201,
			"0.011": 12.2492136551,
			"0.012": 2.41002134599,
			"0.013": 0.168744969051,
			"0.014": 0.0,
			"0.015": 0.0,
			"0.016": 0.0,
			"0.017": 0.0,
			"0.018": 0.0,
			"0.019": 0.0,
			"0.02": 0.0,
			"0.021": 0.0,
			"0.022": 0.0,
			"0.023": 0.0,
			"0.024": 0.0,
			"0.025": 0.0
		}
	}
}
