{
	 "smiles": "CC(C)C1=C(C=NN1CC1=CC=CC=C1)C(O)=O", 
	 "Tm": 427.15, 
	 "num_atms": 34, 
	 "gaussian": { 
		 "optdone": 1, 
		 "sigma_profile": "yes", 
		 "theory": "DFT", 
		 "functional": "B3LYP", 
		 "basiset": "6-31G**", 
		 "properties": { 
			 "R2extent": 7691.3359, 
			 "electric_dipole_moment_norm": 2.02302263457, 
			 "electric_quadrupole_moment_norm": 10.1773914251, 
			 "total_energy": -803.099558679, 
			 "HOMO_LUMO_gap": 0.22391, 
			 "cosmo_polarized_energy": -12.53, 
			 "cosmo_cavitation_energy": 36.9, 
			 "cosmo_dispersion_energy": -25.07, 
			 "cosmo_repulsion_energy": 1.94, 
			 "cosmo_total_nonelectrostatic_energy": 13.77, 
			 "SMD_solvation_energy": 6.61 
		},
		"coords": [
			{
				"x": -1.8391056785,
				"y": -0.5003900743,
				"z": 2.5464468494,
				"element": "C" 
			},
			{
				"x": -1.2268949742,
				"y": 0.8891625609,
				"z": 2.8154844872,
				"element": "C" 
			},
			{
				"x": -1.1622430255,
				"y": 1.2029385301,
				"z": 4.3236925149,
				"element": "C" 
			},
			{
				"x": -1.9496761025,
				"y": 1.9720952823,
				"z": 2.0493939426,
				"element": "C" 
			},
			{
				"x": -3.2743658692,
				"y": 2.4404822989,
				"z": 2.0846593377,
				"element": "C" 
			},
			{
				"x": -3.3278665424,
				"y": 3.4668686264,
				"z": 1.1078193229,
				"element": "C" 
			},
			{
				"x": -2.1606143649,
				"y": 3.6425247138,
				"z": 0.5129971181,
				"element": "N" 
			},
			{
				"x": -1.332863948,
				"y": 2.7289294025,
				"z": 1.1024963358,
				"element": "N" 
			},
			{
				"x": 0.0434893389,
				"y": 2.655400831,
				"z": 0.6124927755,
				"element": "C" 
			},
			{
				"x": 0.2970873241,
				"y": 1.5056204928,
				"z": -0.3465772792,
				"element": "C" 
			},
			{
				"x": -0.5878359213,
				"y": 1.251649007,
				"z": -1.403193101,
				"element": "C" 
			},
			{
				"x": -0.3318468361,
				"y": 0.2161774213,
				"z": -2.3010492729,
				"element": "C" 
			},
			{
				"x": 0.8123865216,
				"y": -0.5735593979,
				"z": -2.158090217,
				"element": "C" 
			},
			{
				"x": 1.6987550229,
				"y": -0.3236086038,
				"z": -1.1104997136,
				"element": "C" 
			},
			{
				"x": 1.4389261031,
				"y": 0.7098783131,
				"z": -0.207473843,
				"element": "C" 
			},
			{
				"x": -4.3818479101,
				"y": 2.002528895,
				"z": 2.9287935177,
				"element": "C" 
			},
			{
				"x": -5.5221544369,
				"y": 2.6966447261,
				"z": 2.6633463682,
				"element": "O" 
			},
			{
				"x": -4.3608247758,
				"y": 1.1313330161,
				"z": 3.7841276884,
				"element": "O" 
			},
			{
				"x": -2.8649166591,
				"y": -0.545057479,
				"z": 2.9170525773,
				"element": "H" 
			},
			{
				"x": -1.836180877,
				"y": -0.7301743622,
				"z": 1.4766444224,
				"element": "H" 
			},
			{
				"x": -1.2511118103,
				"y": -1.2682224584,
				"z": 3.0602928661,
				"element": "H" 
			},
			{
				"x": -0.1991554112,
				"y": 0.86365831,
				"z": 2.4376116974,
				"element": "H" 
			},
			{
				"x": -0.5736894066,
				"y": 0.4349263905,
				"z": 4.8367215413,
				"element": "H" 
			},
			{
				"x": -2.1651687712,
				"y": 1.2148545241,
				"z": 4.7545971714,
				"element": "H" 
			},
			{
				"x": -0.6885866593,
				"y": 2.1727705946,
				"z": 4.508604658,
				"element": "H" 
			},
			{
				"x": -4.1797019315,
				"y": 4.0740106915,
				"z": 0.8359206071,
				"element": "H" 
			},
			{
				"x": 0.2090769277,
				"y": 3.6157392084,
				"z": 0.1174205338,
				"element": "H" 
			},
			{
				"x": 0.7276185063,
				"y": 2.6013601085,
				"z": 1.4635743856,
				"element": "H" 
			},
			{
				"x": -1.4741118384,
				"y": 1.8696370738,
				"z": -1.5154951342,
				"element": "H" 
			},
			{
				"x": -1.0250416008,
				"y": 0.0264525266,
				"z": -3.1155858169,
				"element": "H" 
			},
			{
				"x": 1.0096688526,
				"y": -1.3795408497,
				"z": -2.8589213726,
				"element": "H" 
			},
			{
				"x": 2.5884787073,
				"y": -0.9349491107,
				"z": -0.9899391807,
				"element": "H" 
			},
			{
				"x": 2.1304742052,
				"y": 0.8984827776,
				"z": 0.6106284937,
				"element": "H" 
			},
			{
				"x": -6.189856159,
				"y": 2.3358760132,
				"z": 3.2691057188,
				"element": "H" 
			}
		],
		 "valence_orbital": [ 
			{
				"type": "occ",
				"energy": -0.26656,
				"method": "rhf"
			},
			{
				"type": "occ",
				"energy": -0.263,
				"method": "rhf"
			},
			{
				"type": "occ",
				"energy": -0.25742,
				"method": "rhf"
			},
			{
				"type": "occ",
				"energy": -0.25002,
				"method": "rhf"
			},
			{
				"type": "occ",
				"energy": -0.24555,
				"method": "rhf"
			},
			{
				"type": "unocc",
				"energy": -0.02164,
				"method": "rhf"
			},
			{
				"type": "unocc",
				"energy": -0.01322,
				"method": "rhf"
			},
			{
				"type": "unocc",
				"energy": -0.00933,
				"method": "rhf"
			},
			{
				"type": "unocc",
				"energy": 0.01992,
				"method": "rhf"
			},
			{
				"type": "unocc",
				"energy": 0.07991,
				"method": "rhf"
			}
		],
		"cosmo_sigma_profile": { 
			"-0.025": 0.0,
			"-0.024": 0.0,
			"-0.023": 0.0,
			"-0.022": 0.0,
			"-0.021": 0.0,
			"-0.02": 0.0,
			"-0.019": 0.0,
			"-0.018": 0.29920332584,
			"-0.017": 0.947936610745,
			"-0.016": 1.10979771748,
			"-0.015": 0.559593528763,
			"-0.014": 0.423207161877,
			"-0.013": 0.851658273475,
			"-0.012": 0.851008316398,
			"-0.011": 0.739674364766,
			"-0.01": 0.724319732157,
			"-0.009": 0.66598994308,
			"-0.008": 2.03463411911,
			"-0.007": 7.36272087236,
			"-0.006": 12.2198450881,
			"-0.005": 14.9374414095,
			"-0.004": 19.2063765849,
			"-0.003": 22.982432978,
			"-0.002": 21.6422150787,
			"-0.001": 23.4028341686,
			"0.0": 27.9393222561,
			"0.001": 36.5040521419,
			"0.002": 22.7803122234,
			"0.003": 16.2921604935,
			"0.004": 14.4301655358,
			"0.005": 13.1225259592,
			"0.006": 7.53032183056,
			"0.007": 4.2861959226,
			"0.008": 4.58763296289,
			"0.009": 2.34636700548,
			"0.01": 2.8266113773,
			"0.011": 3.11161883824,
			"0.012": 3.2785718651,
			"0.013": 1.4699551539,
			"0.014": 0.624974264152,
			"0.015": 0.438107187068,
			"0.016": 0.0,
			"0.017": 0.0,
			"0.018": 0.0,
			"0.019": 0.0,
			"0.02": 0.0,
			"0.021": 0.0,
			"0.022": 0.0,
			"0.023": 0.0,
			"0.024": 0.0,
			"0.025": 0.0
		}
	}
}
