{
	 "smiles": "COC1=CC(=CC=C1OC(C)=O)[C@H]1OC[C@H]2[C@@H]1CO[C@@H]2C1=CC=C(OC(C)=O)C(OC)=C1", 
	 "Tm": 439.0, 
	 "num_atms": 58, 
	 "gaussian": { 
		 "optdone": 1, 
		 "sigma_profile": "yes", 
		 "theory": "DFT", 
		 "functional": "B3LYP", 
		 "basiset": "6-31G**", 
		 "properties": { 
			 "R2extent": 23585.0728, 
			 "electric_dipole_moment_norm": 1.8401756139, 
			 "electric_quadrupole_moment_norm": 32.2145138605, 
			 "total_energy": -1531.98330437, 
			 "HOMO_LUMO_gap": 0.21236, 
			 "cosmo_polarized_energy": -24.98, 
			 "cosmo_cavitation_energy": 61.11, 
			 "cosmo_dispersion_energy": -41.01, 
			 "cosmo_repulsion_energy": 3.13, 
			 "cosmo_total_nonelectrostatic_energy": 23.22, 
			 "SMD_solvation_energy": 13.61 
		},
		"coords": [
			{
				"x": 2.452303242,
				"y": -5.3644938188,
				"z": -2.0747587423,
				"element": "C" 
			},
			{
				"x": 1.9498712745,
				"y": -5.4486300331,
				"z": -0.749015262,
				"element": "O" 
			},
			{
				"x": 1.7766809352,
				"y": -4.2916546263,
				"z": -0.0555129464,
				"element": "C" 
			},
			{
				"x": 1.9559695093,
				"y": -3.0079072412,
				"z": -0.5774775136,
				"element": "C" 
			},
			{
				"x": 1.7271131149,
				"y": -1.872769956,
				"z": 0.2112959627,
				"element": "C" 
			},
			{
				"x": 1.3325098326,
				"y": -2.030636392,
				"z": 1.5424416204,
				"element": "C" 
			},
			{
				"x": 1.1610444806,
				"y": -3.31079099,
				"z": 2.0747969036,
				"element": "C" 
			},
			{
				"x": 1.3771331597,
				"y": -4.4291290907,
				"z": 1.2857848944,
				"element": "C" 
			},
			{
				"x": 1.1242362983,
				"y": -5.6958222891,
				"z": 1.8073436858,
				"element": "O" 
			},
			{
				"x": 2.2010475749,
				"y": -6.5135106986,
				"z": 2.0575922482,
				"element": "C" 
			},
			{
				"x": 1.7154798517,
				"y": -7.878704577,
				"z": 2.4751015998,
				"element": "C" 
			},
			{
				"x": 3.3485860262,
				"y": -6.1641289634,
				"z": 1.9519048771,
				"element": "O" 
			},
			{
				"x": 1.9756141297,
				"y": -0.4859952052,
				"z": -0.3823173568,
				"element": "C" 
			},
			{
				"x": 2.1512347628,
				"y": -0.5170903117,
				"z": -1.798093238,
				"element": "O" 
			},
			{
				"x": 0.8669054922,
				"y": -0.4012038,
				"z": -2.4235875892,
				"element": "C" 
			},
			{
				"x": -0.0905575637,
				"y": 0.2691017786,
				"z": -1.4073561109,
				"element": "C" 
			},
			{
				"x": 0.8200361799,
				"y": 0.5115071275,
				"z": -0.1759279522,
				"element": "C" 
			},
			{
				"x": 1.2354295644,
				"y": 1.9950571609,
				"z": -0.3347775314,
				"element": "C" 
			},
			{
				"x": 0.601855434,
				"y": 2.4988187896,
				"z": -1.5175563471,
				"element": "O" 
			},
			{
				"x": -0.5354722442,
				"y": 1.6880760731,
				"z": -1.809416186,
				"element": "C" 
			},
			{
				"x": -1.8026401043,
				"y": 2.1752862653,
				"z": -1.1064952388,
				"element": "C" 
			},
			{
				"x": -2.9706121673,
				"y": 1.4081400791,
				"z": -1.1064826188,
				"element": "C" 
			},
			{
				"x": -4.1299650438,
				"y": 1.8979092005,
				"z": -0.5002566819,
				"element": "C" 
			},
			{
				"x": -4.1268421827,
				"y": 3.1433940148,
				"z": 0.1069807027,
				"element": "C" 
			},
			{
				"x": -5.2666291299,
				"y": 3.5827345213,
				"z": 0.77658508,
				"element": "O" 
			},
			{
				"x": -5.9788621422,
				"y": 4.6187713377,
				"z": 0.2197057316,
				"element": "C" 
			},
			{
				"x": -7.081255122,
				"y": 5.0391945663,
				"z": 1.1587674898,
				"element": "C" 
			},
			{
				"x": -5.7367175287,
				"y": 5.0970966153,
				"z": -0.8585518661,
				"element": "O" 
			},
			{
				"x": -2.9623160199,
				"y": 3.9316647375,
				"z": 0.1160787399,
				"element": "C" 
			},
			{
				"x": -3.0579722707,
				"y": 5.1316372864,
				"z": 0.748862477,
				"element": "O" 
			},
			{
				"x": -1.9401439145,
				"y": 6.0061418692,
				"z": 0.6962813894,
				"element": "C" 
			},
			{
				"x": -1.8097669449,
				"y": 3.4390532276,
				"z": -0.5016982541,
				"element": "C" 
			},
			{
				"x": 1.7623566812,
				"y": -4.8233873174,
				"z": -2.7346784296,
				"element": "H" 
			},
			{
				"x": 3.4338200731,
				"y": -4.8761895283,
				"z": -2.101658897,
				"element": "H" 
			},
			{
				"x": 2.5503450513,
				"y": -6.3934327901,
				"z": -2.4234858952,
				"element": "H" 
			},
			{
				"x": 2.2848843817,
				"y": -2.8617271607,
				"z": -1.5982651826,
				"element": "H" 
			},
			{
				"x": 1.1698555735,
				"y": -1.1662013671,
				"z": 2.1790649612,
				"element": "H" 
			},
			{
				"x": 0.8555673158,
				"y": -3.4542452229,
				"z": 3.1062136429,
				"element": "H" 
			},
			{
				"x": 2.5613556173,
				"y": -8.4771199282,
				"z": 2.8118184346,
				"element": "H" 
			},
			{
				"x": 1.2345153401,
				"y": -8.3679908029,
				"z": 1.6222768482,
				"element": "H" 
			},
			{
				"x": 0.9680916272,
				"y": -7.7942794542,
				"z": 3.2684056114,
				"element": "H" 
			},
			{
				"x": 2.9152870246,
				"y": -0.0957585582,
				"z": 0.0296982815,
				"element": "H" 
			},
			{
				"x": 0.4933709241,
				"y": -1.3933149985,
				"z": -2.7112972881,
				"element": "H" 
			},
			{
				"x": 1.0050784076,
				"y": 0.1942979595,
				"z": -3.3312666625,
				"element": "H" 
			},
			{
				"x": -0.9339240683,
				"y": -0.3818409261,
				"z": -1.1728059191,
				"element": "H" 
			},
			{
				"x": 0.2910917653,
				"y": 0.3493527681,
				"z": 0.764228366,
				"element": "H" 
			},
			{
				"x": 0.9250092568,
				"y": 2.5802842714,
				"z": 0.5414434198,
				"element": "H" 
			},
			{
				"x": 2.3140504093,
				"y": 2.1199875461,
				"z": -0.4710939377,
				"element": "H" 
			},
			{
				"x": -0.6896031754,
				"y": 1.7634648176,
				"z": -2.8936608967,
				"element": "H" 
			},
			{
				"x": -2.9949780039,
				"y": 0.4349419347,
				"z": -1.5874400795,
				"element": "H" 
			},
			{
				"x": -5.0470276114,
				"y": 1.3177251363,
				"z": -0.4902025544,
				"element": "H" 
			},
			{
				"x": -7.7275664341,
				"y": 5.7602754748,
				"z": 0.6594739545,
				"element": "H" 
			},
			{
				"x": -6.6420688058,
				"y": 5.4943997382,
				"z": 2.0520048515,
				"element": "H" 
			},
			{
				"x": -7.6595436438,
				"y": 4.1705658394,
				"z": 1.48464908,
				"element": "H" 
			},
			{
				"x": -2.2430691053,
				"y": 6.911089691,
				"z": 1.2247183753,
				"element": "H" 
			},
			{
				"x": -1.6770907895,
				"y": 6.2595304962,
				"z": -0.3377131328,
				"element": "H" 
			},
			{
				"x": -1.0641069278,
				"y": 5.5724414775,
				"z": 1.1950667937,
				"element": "H" 
			},
			{
				"x": -0.9009993682,
				"y": 4.0260142465,
				"z": -0.5359357118,
				"element": "H" 
			}
		],
		 "valence_orbital": [ 
			{
				"type": "occ",
				"energy": -0.25366,
				"method": "rhf"
			},
			{
				"type": "occ",
				"energy": -0.24624,
				"method": "rhf"
			},
			{
				"type": "occ",
				"energy": -0.2454,
				"method": "rhf"
			},
			{
				"type": "occ",
				"energy": -0.21941,
				"method": "rhf"
			},
			{
				"type": "occ",
				"energy": -0.21925,
				"method": "rhf"
			},
			{
				"type": "unocc",
				"energy": -0.00689,
				"method": "rhf"
			},
			{
				"type": "unocc",
				"energy": -0.0044,
				"method": "rhf"
			},
			{
				"type": "unocc",
				"energy": 0.00354,
				"method": "rhf"
			},
			{
				"type": "unocc",
				"energy": 0.00545,
				"method": "rhf"
			},
			{
				"type": "unocc",
				"energy": 0.01636,
				"method": "rhf"
			}
		],
		"cosmo_sigma_profile": { 
			"-0.025": 0.0,
			"-0.024": 0.0,
			"-0.023": 0.0,
			"-0.022": 0.0,
			"-0.021": 0.0,
			"-0.02": 0.0,
			"-0.019": 0.0,
			"-0.018": 0.0,
			"-0.017": 0.0,
			"-0.016": 0.0,
			"-0.015": 0.0,
			"-0.014": 0.0,
			"-0.013": 0.0,
			"-0.012": 0.0,
			"-0.011": 0.0,
			"-0.01": 0.0,
			"-0.009": 0.0,
			"-0.008": 0.0,
			"-0.007": 7.47295680898,
			"-0.006": 34.6107038284,
			"-0.005": 54.971253515,
			"-0.004": 55.3069306919,
			"-0.003": 54.5602578929,
			"-0.002": 42.3106208693,
			"-0.001": 27.8398320832,
			"0.0": 19.2657462249,
			"0.001": 18.1838208047,
			"0.002": 21.9076826388,
			"0.003": 24.8495808993,
			"0.004": 23.0799518282,
			"0.005": 20.6969262967,
			"0.006": 12.9907835377,
			"0.007": 13.1503526699,
			"0.008": 9.7093664163,
			"0.009": 9.67752336088,
			"0.01": 8.45851533468,
			"0.011": 11.464421734,
			"0.012": 9.25980442275,
			"0.013": 2.99768431415,
			"0.014": 0.244867815424,
			"0.015": 0.0,
			"0.016": 0.0,
			"0.017": 0.0,
			"0.018": 0.0,
			"0.019": 0.0,
			"0.02": 0.0,
			"0.021": 0.0,
			"0.022": 0.0,
			"0.023": 0.0,
			"0.024": 0.0,
			"0.025": 0.0
		}
	}
}
