{
	 "smiles": "FC(F)(F)C1CCCNC1=O", 
	 "Tm": 373.15, 
	 "num_atms": 19, 
	 "gaussian": { 
		 "optdone": 1, 
		 "sigma_profile": "yes", 
		 "theory": "DFT", 
		 "functional": "B3LYP", 
		 "basiset": "6-31G**", 
		 "properties": { 
			 "R2extent": 1818.9137, 
			 "electric_dipole_moment_norm": 5.57689697412, 
			 "electric_quadrupole_moment_norm": 5.25386927036, 
			 "total_energy": -662.979719816, 
			 "HOMO_LUMO_gap": 0.27271, 
			 "cosmo_polarized_energy": -13.36, 
			 "cosmo_cavitation_energy": 22.7, 
			 "cosmo_dispersion_energy": -16.62, 
			 "cosmo_repulsion_energy": 1.29, 
			 "cosmo_total_nonelectrostatic_energy": 7.37, 
			 "SMD_solvation_energy": 4.62 
		},
		"coords": [
			{
				"x": -2.8900808002,
				"y": -0.2647094478,
				"z": 0.3935060607,
				"element": "F" 
			},
			{
				"x": -1.788318493,
				"y": -0.894602201,
				"z": 0.8434135631,
				"element": "C" 
			},
			{
				"x": -1.7568762535,
				"y": -2.1266834914,
				"z": 0.3122063483,
				"element": "F" 
			},
			{
				"x": -1.9389367022,
				"y": -1.0450998294,
				"z": 2.1872918102,
				"element": "F" 
			},
			{
				"x": -0.5177095117,
				"y": -0.1088140952,
				"z": 0.5579439652,
				"element": "C" 
			},
			{
				"x": -0.5140347227,
				"y": 1.2439035174,
				"z": 1.3172403008,
				"element": "C" 
			},
			{
				"x": 0.6318876704,
				"y": 2.1868782472,
				"z": 0.8641634474,
				"element": "C" 
			},
			{
				"x": 1.5827624581,
				"y": 1.5008439267,
				"z": -0.1273646867,
				"element": "C" 
			},
			{
				"x": 0.8119389794,
				"y": 0.8691842912,
				"z": -1.1909166757,
				"element": "N" 
			},
			{
				"x": -0.2769224622,
				"y": 0.0790624903,
				"z": -0.9481319696,
				"element": "C" 
			},
			{
				"x": -0.9563146781,
				"y": -0.4189400032,
				"z": -1.8314744129,
				"element": "O" 
			},
			{
				"x": 0.3044811411,
				"y": -0.7295678845,
				"z": 0.9374323836,
				"element": "H" 
			},
			{
				"x": -0.4504938556,
				"y": 1.0348019757,
				"z": 2.3876666141,
				"element": "H" 
			},
			{
				"x": -1.4805532439,
				"y": 1.7272803083,
				"z": 1.1500831578,
				"element": "H" 
			},
			{
				"x": 0.2095109114,
				"y": 3.0694311379,
				"z": 0.3738242865,
				"element": "H" 
			},
			{
				"x": 1.2039314186,
				"y": 2.5429143477,
				"z": 1.7271180116,
				"element": "H" 
			},
			{
				"x": 2.2090157938,
				"y": 0.7599631499,
				"z": 0.3915610874,
				"element": "H" 
			},
			{
				"x": 2.2630175768,
				"y": 2.227670016,
				"z": -0.5784325435,
				"element": "H" 
			},
			{
				"x": 1.0397947732,
				"y": 1.0205835443,
				"z": -2.1635307485,
				"element": "H" 
			}
		],
		 "valence_orbital": [ 
			{
				"type": "occ",
				"energy": -0.36344,
				"method": "rhf"
			},
			{
				"type": "occ",
				"energy": -0.35204,
				"method": "rhf"
			},
			{
				"type": "occ",
				"energy": -0.34631,
				"method": "rhf"
			},
			{
				"type": "occ",
				"energy": -0.25791,
				"method": "rhf"
			},
			{
				"type": "occ",
				"energy": -0.25236,
				"method": "rhf"
			},
			{
				"type": "unocc",
				"energy": 0.02035,
				"method": "rhf"
			},
			{
				"type": "unocc",
				"energy": 0.06417,
				"method": "rhf"
			},
			{
				"type": "unocc",
				"energy": 0.08137,
				"method": "rhf"
			},
			{
				"type": "unocc",
				"energy": 0.0996,
				"method": "rhf"
			},
			{
				"type": "unocc",
				"energy": 0.1138,
				"method": "rhf"
			}
		],
		"cosmo_sigma_profile": { 
			"-0.025": 0.0,
			"-0.024": 0.0,
			"-0.023": 0.0,
			"-0.022": 0.0,
			"-0.021": 0.0,
			"-0.02": 0.0,
			"-0.019": 0.0,
			"-0.018": 0.0,
			"-0.017": 0.0,
			"-0.016": 0.0,
			"-0.015": 0.0135253762067,
			"-0.014": 0.95780969874,
			"-0.013": 1.17435441985,
			"-0.012": 0.991749394092,
			"-0.011": 1.06505820537,
			"-0.01": 1.28350451057,
			"-0.009": 1.10134849728,
			"-0.008": 4.49796361959,
			"-0.007": 5.21938545633,
			"-0.006": 5.79537478525,
			"-0.005": 8.06086839917,
			"-0.004": 18.340304988,
			"-0.003": 19.7406530025,
			"-0.002": 12.8084170008,
			"-0.001": 12.0518579731,
			"0.0": 6.98929601454,
			"0.001": 7.57110573864,
			"0.002": 11.6733637807,
			"0.003": 25.8859256662,
			"0.004": 7.60081339458,
			"0.005": 2.97832203358,
			"0.006": 1.63175828546,
			"0.007": 2.00125748604,
			"0.008": 2.23708286611,
			"0.009": 1.34758438174,
			"0.01": 2.13247384825,
			"0.011": 1.88544256399,
			"0.012": 2.7349773861,
			"0.013": 5.0276693535,
			"0.014": 3.06458884105,
			"0.015": 0.216533300585,
			"0.016": 0.0,
			"0.017": 0.0,
			"0.018": 0.0,
			"0.019": 0.0,
			"0.02": 0.0,
			"0.021": 0.0,
			"0.022": 0.0,
			"0.023": 0.0,
			"0.024": 0.0,
			"0.025": 0.0
		}
	}
}
