{
	 "smiles": "CC1=NN(C(Cl)=C1C(O)=O)C1=CC=C(F)C=C1", 
	 "Tm": 527.15, 
	 "num_atms": 25, 
	 "gaussian": { 
		 "optdone": 1, 
		 "sigma_profile": "yes", 
		 "theory": "DFT", 
		 "functional": "B3LYP", 
		 "basiset": "6-31G**", 
		 "properties": { 
			 "R2extent": 5391.5449, 
			 "electric_dipole_moment_norm": 4.35992579065, 
			 "electric_quadrupole_moment_norm": 20.7613933875, 
			 "total_energy": -1243.95708971, 
			 "HOMO_LUMO_gap": 0.20034, 
			 "cosmo_polarized_energy": -14.06, 
			 "cosmo_cavitation_energy": 32.24, 
			 "cosmo_dispersion_energy": -23.34, 
			 "cosmo_repulsion_energy": 1.77, 
			 "cosmo_total_nonelectrostatic_energy": 10.67, 
			 "SMD_solvation_energy": 6.19 
		},
		"coords": [
			{
				"x": -3.0150695713,
				"y": -2.4305068818,
				"z": 0.0387304991,
				"element": "C" 
			},
			{
				"x": -1.8618373836,
				"y": -1.4914241235,
				"z": -0.1110783222,
				"element": "C" 
			},
			{
				"x": -1.9144921978,
				"y": -0.2795047258,
				"z": 0.4259424633,
				"element": "N" 
			},
			{
				"x": -0.7312602064,
				"y": 0.3305555509,
				"z": 0.1077402927,
				"element": "N" 
			},
			{
				"x": 0.0582091542,
				"y": -0.5065285513,
				"z": -0.6130698544,
				"element": "C" 
			},
			{
				"x": 1.6648002334,
				"y": -0.0732982838,
				"z": -1.0990495361,
				"element": "Cl" 
			},
			{
				"x": -0.6239466245,
				"y": -1.7051282989,
				"z": -0.7951831561,
				"element": "C" 
			},
			{
				"x": -0.2600014002,
				"y": -2.956356088,
				"z": -1.4966198081,
				"element": "C" 
			},
			{
				"x": 0.9538762724,
				"y": -3.0288111812,
				"z": -2.0943939587,
				"element": "O" 
			},
			{
				"x": -1.0125602665,
				"y": -3.9045895721,
				"z": -1.549092618,
				"element": "O" 
			},
			{
				"x": -0.4820034967,
				"y": 1.6523522799,
				"z": 0.5841131594,
				"element": "C" 
			},
			{
				"x": -0.7740898173,
				"y": 1.9437052715,
				"z": 1.9204999188,
				"element": "C" 
			},
			{
				"x": -0.5665702971,
				"y": 3.2303270352,
				"z": 2.4090079598,
				"element": "C" 
			},
			{
				"x": -0.061779503,
				"y": 4.2020934416,
				"z": 1.550110614,
				"element": "C" 
			},
			{
				"x": 0.1481149106,
				"y": 5.4447068528,
				"z": 2.0224487829,
				"element": "F" 
			},
			{
				"x": 0.2251153716,
				"y": 3.9309563737,
				"z": 0.2168968332,
				"element": "C" 
			},
			{
				"x": 0.0007778011,
				"y": 2.6454393488,
				"z": -0.2727458534,
				"element": "C" 
			},
			{
				"x": -3.7982148833,
				"y": -1.9478330963,
				"z": 0.6272591585,
				"element": "H" 
			},
			{
				"x": -2.7031304975,
				"y": -3.356892835,
				"z": 0.528206727,
				"element": "H" 
			},
			{
				"x": -3.4136522778,
				"y": -2.7177089271,
				"z": -0.9378876829,
				"element": "H" 
			},
			{
				"x": 1.4623029131,
				"y": -2.2127232264,
				"z": -1.9732002297,
				"element": "H" 
			},
			{
				"x": -1.170516979,
				"y": 1.1630148926,
				"z": 2.5588401258,
				"element": "H" 
			},
			{
				"x": -0.7843150633,
				"y": 3.485760512,
				"z": 3.4399407527,
				"element": "H" 
			},
			{
				"x": 0.599785275,
				"y": 4.7214214494,
				"z": -0.4234885217,
				"element": "H" 
			},
			{
				"x": 0.186358534,
				"y": 2.4246727828,
				"z": -1.3173277461,
				"element": "H" 
			}
		],
		 "valence_orbital": [ 
			{
				"type": "occ",
				"energy": -0.29244,
				"method": "rhf"
			},
			{
				"type": "occ",
				"energy": -0.28397,
				"method": "rhf"
			},
			{
				"type": "occ",
				"energy": -0.27423,
				"method": "rhf"
			},
			{
				"type": "occ",
				"energy": -0.26898,
				"method": "rhf"
			},
			{
				"type": "occ",
				"energy": -0.24993,
				"method": "rhf"
			},
			{
				"type": "unocc",
				"energy": -0.04959,
				"method": "rhf"
			},
			{
				"type": "unocc",
				"energy": -0.03429,
				"method": "rhf"
			},
			{
				"type": "unocc",
				"energy": -0.01722,
				"method": "rhf"
			},
			{
				"type": "unocc",
				"energy": -0.00407,
				"method": "rhf"
			},
			{
				"type": "unocc",
				"energy": 0.01005,
				"method": "rhf"
			}
		],
		"cosmo_sigma_profile": { 
			"-0.025": 0.0,
			"-0.024": 0.0,
			"-0.023": 0.0,
			"-0.022": 0.0,
			"-0.021": 0.0,
			"-0.02": 0.0,
			"-0.019": 0.0,
			"-0.018": 0.0,
			"-0.017": 0.0,
			"-0.016": 0.0,
			"-0.015": 0.0,
			"-0.014": 0.0,
			"-0.013": 0.24107745548,
			"-0.012": 0.907498171603,
			"-0.011": 1.50962322746,
			"-0.01": 2.26164495958,
			"-0.009": 2.40411327729,
			"-0.008": 5.98206511846,
			"-0.007": 9.51586903419,
			"-0.006": 9.96469283731,
			"-0.005": 13.4063634759,
			"-0.004": 16.5661182387,
			"-0.003": 18.4561684909,
			"-0.002": 20.2202416946,
			"-0.001": 25.8918301507,
			"0.0": 26.8456693146,
			"0.001": 23.8324798471,
			"0.002": 18.7426219357,
			"0.003": 12.5532637593,
			"0.004": 13.4997212007,
			"0.005": 4.49823808501,
			"0.006": 3.84284308373,
			"0.007": 3.86532216853,
			"0.008": 3.97190448886,
			"0.009": 3.91507924683,
			"0.01": 5.29774239976,
			"0.011": 5.86143480375,
			"0.012": 4.42451043657,
			"0.013": 2.63209206097,
			"0.014": 0.380844461292,
			"0.015": 0.0,
			"0.016": 0.0,
			"0.017": 0.0,
			"0.018": 0.0,
			"0.019": 0.0,
			"0.02": 0.0,
			"0.021": 0.0,
			"0.022": 0.0,
			"0.023": 0.0,
			"0.024": 0.0,
			"0.025": 0.0
		}
	}
}
