{
	 "smiles": "O=CC1=CC=C(S1)C1=CC=CS1", 
	 "Tm": 330.65, 
	 "num_atms": 18, 
	 "gaussian": { 
		 "optdone": 1, 
		 "sigma_profile": "yes", 
		 "theory": "DFT", 
		 "functional": "B3LYP", 
		 "basiset": "6-31G**", 
		 "properties": { 
			 "R2extent": 3438.7479, 
			 "electric_dipole_moment_norm": 4.14024137702, 
			 "electric_quadrupole_moment_norm": 16.5620011348, 
			 "total_energy": -1218.14029036, 
			 "HOMO_LUMO_gap": 0.13582, 
			 "cosmo_polarized_energy": -10.09, 
			 "cosmo_cavitation_energy": 26.12, 
			 "cosmo_dispersion_energy": -20.18, 
			 "cosmo_repulsion_energy": 1.49, 
			 "cosmo_total_nonelectrostatic_energy": 7.43, 
			 "SMD_solvation_energy": 5.24 
		},
		"coords": [
			{
				"x": 1.0647100173,
				"y": 3.1752785291,
				"z": -2.903991374,
				"element": "O" 
			},
			{
				"x": 1.3212400425,
				"y": 2.0110619483,
				"z": -3.1657999956,
				"element": "C" 
			},
			{
				"x": 1.2509891422,
				"y": 0.9110844354,
				"z": -2.2177946464,
				"element": "C" 
			},
			{
				"x": 1.5261192325,
				"y": -0.4226993406,
				"z": -2.4464501666,
				"element": "C" 
			},
			{
				"x": 1.3570840741,
				"y": -1.2300735361,
				"z": -1.301487591,
				"element": "C" 
			},
			{
				"x": 0.9495452449,
				"y": -0.5146837066,
				"z": -0.1847289193,
				"element": "C" 
			},
			{
				"x": 0.7733745401,
				"y": 1.1845534804,
				"z": -0.5603402543,
				"element": "S" 
			},
			{
				"x": 0.6815468103,
				"y": -1.0131831624,
				"z": 1.1478423989,
				"element": "C" 
			},
			{
				"x": 0.2760136706,
				"y": -0.3151069046,
				"z": 2.2674383899,
				"element": "C" 
			},
			{
				"x": 0.1074589706,
				"y": -1.1336140541,
				"z": 3.4173153431,
				"element": "C" 
			},
			{
				"x": 0.3839009241,
				"y": -2.4523435143,
				"z": 3.1744630484,
				"element": "C" 
			},
			{
				"x": 0.856772471,
				"y": -2.7179353338,
				"z": 1.529966042,
				"element": "S" 
			},
			{
				"x": 1.6378666111,
				"y": 1.7024154639,
				"z": -4.1860001387,
				"element": "H" 
			},
			{
				"x": 1.8399490968,
				"y": -0.7987038987,
				"z": -3.414525184,
				"element": "H" 
			},
			{
				"x": 1.5265077811,
				"y": -2.3007880913,
				"z": -1.2881720701,
				"element": "H" 
			},
			{
				"x": 0.1041596099,
				"y": 0.7555293972,
				"z": 2.2634674914,
				"element": "H" 
			},
			{
				"x": -0.2060706955,
				"y": -0.7575537435,
				"z": 4.3841081837,
				"element": "H" 
			},
			{
				"x": 0.3389324561,
				"y": -3.2861379685,
				"z": 3.8611894426,
				"element": "H" 
			}
		],
		 "valence_orbital": [ 
			{
				"type": "occ",
				"energy": -0.28746,
				"method": "rhf"
			},
			{
				"type": "occ",
				"energy": -0.27085,
				"method": "rhf"
			},
			{
				"type": "occ",
				"energy": -0.26369,
				"method": "rhf"
			},
			{
				"type": "occ",
				"energy": -0.25574,
				"method": "rhf"
			},
			{
				"type": "occ",
				"energy": -0.21823,
				"method": "rhf"
			},
			{
				"type": "unocc",
				"energy": -0.08241,
				"method": "rhf"
			},
			{
				"type": "unocc",
				"energy": -0.02495,
				"method": "rhf"
			},
			{
				"type": "unocc",
				"energy": 0.01379,
				"method": "rhf"
			},
			{
				"type": "unocc",
				"energy": 0.01968,
				"method": "rhf"
			},
			{
				"type": "unocc",
				"energy": 0.02987,
				"method": "rhf"
			}
		],
		"cosmo_sigma_profile": { 
			"-0.025": 0.0,
			"-0.024": 0.0,
			"-0.023": 0.0,
			"-0.022": 0.0,
			"-0.021": 0.0,
			"-0.02": 0.0,
			"-0.019": 0.0,
			"-0.018": 0.0,
			"-0.017": 0.0,
			"-0.016": 0.0,
			"-0.015": 0.0,
			"-0.014": 0.0,
			"-0.013": 0.0,
			"-0.012": 0.0,
			"-0.011": 0.0,
			"-0.01": 0.0408277738088,
			"-0.009": 1.99534610377,
			"-0.008": 7.78495577091,
			"-0.007": 12.4415057019,
			"-0.006": 12.3558064966,
			"-0.005": 12.2560990245,
			"-0.004": 11.3628104706,
			"-0.003": 9.92921072048,
			"-0.002": 9.92525609627,
			"-0.001": 12.484492515,
			"0.0": 14.1573271525,
			"0.001": 22.0607286048,
			"0.002": 29.7958022769,
			"0.003": 24.6163121723,
			"0.004": 12.2149541364,
			"0.005": 3.50397638767,
			"0.006": 1.09748341004,
			"0.007": 1.87751962154,
			"0.008": 1.59842606436,
			"0.009": 2.09324125272,
			"0.01": 1.90889023932,
			"0.011": 4.00423873166,
			"0.012": 4.07415177429,
			"0.013": 1.54214812478,
			"0.014": 0.1092991849,
			"0.015": 0.0,
			"0.016": 0.0,
			"0.017": 0.0,
			"0.018": 0.0,
			"0.019": 0.0,
			"0.02": 0.0,
			"0.021": 0.0,
			"0.022": 0.0,
			"0.023": 0.0,
			"0.024": 0.0,
			"0.025": 0.0
		}
	}
}
