{
	 "smiles": "ClC1=CC=CC(Cl)=C1C(=O)CC#N", 
	 "Tm": 337.15, 
	 "num_atms": 18, 
	 "gaussian": { 
		 "optdone": 1, 
		 "sigma_profile": "yes", 
		 "theory": "DFT", 
		 "functional": "B3LYP", 
		 "basiset": "6-31G**", 
		 "properties": { 
			 "R2extent": 3179.5347, 
			 "electric_dipole_moment_norm": 7.24885995312, 
			 "electric_quadrupole_moment_norm": 6.17784032005, 
			 "total_energy": -1396.29296001, 
			 "HOMO_LUMO_gap": 0.2208, 
			 "cosmo_polarized_energy": -15.07, 
			 "cosmo_cavitation_energy": 27.92, 
			 "cosmo_dispersion_energy": -19.14, 
			 "cosmo_repulsion_energy": 1.53, 
			 "cosmo_total_nonelectrostatic_energy": 10.31, 
			 "SMD_solvation_energy": 6.32 
		},
		"coords": [
			{
				"x": -0.4954143875,
				"y": -0.1379693405,
				"z": 3.1550075496,
				"element": "Cl" 
			},
			{
				"x": 0.1772819062,
				"y": 1.0279960159,
				"z": 2.0263449287,
				"element": "C" 
			},
			{
				"x": 0.7879896291,
				"y": 2.1752553575,
				"z": 2.5290648707,
				"element": "C" 
			},
			{
				"x": 1.3322333675,
				"y": 3.0988279067,
				"z": 1.6379568882,
				"element": "C" 
			},
			{
				"x": 1.2742570147,
				"y": 2.8794865122,
				"z": 0.2625055713,
				"element": "C" 
			},
			{
				"x": 0.6578419627,
				"y": 1.7239748287,
				"z": -0.2135608727,
				"element": "C" 
			},
			{
				"x": 0.5990759793,
				"y": 1.4474959161,
				"z": -1.9473545256,
				"element": "Cl" 
			},
			{
				"x": 0.0921085019,
				"y": 0.7784605724,
				"z": 0.6509089888,
				"element": "C" 
			},
			{
				"x": -0.6217958197,
				"y": -0.4519652436,
				"z": 0.1155344364,
				"element": "C" 
			},
			{
				"x": -1.8012580057,
				"y": -0.4430340705,
				"z": -0.1341231711,
				"element": "O" 
			},
			{
				"x": 0.2774233201,
				"y": -1.6817432856,
				"z": -0.0742545447,
				"element": "C" 
			},
			{
				"x": -0.4279400665,
				"y": -2.8527962349,
				"z": -0.5882145862,
				"element": "C" 
			},
			{
				"x": -0.9674232776,
				"y": -3.7946808085,
				"z": -0.9957099588,
				"element": "N" 
			},
			{
				"x": 0.8315920163,
				"y": 2.336471072,
				"z": 3.5999480435,
				"element": "H" 
			},
			{
				"x": 1.8080969298,
				"y": 3.9967743631,
				"z": 2.0190143739,
				"element": "H" 
			},
			{
				"x": 1.6977265288,
				"y": 3.5908297806,
				"z": -0.4370219559,
				"element": "H" 
			},
			{
				"x": 1.0945929175,
				"y": -1.4104683391,
				"z": -0.754853023,
				"element": "H" 
			},
			{
				"x": 0.7436114831,
				"y": -1.9210150025,
				"z": 0.8901069869,
				"element": "H" 
			}
		],
		 "valence_orbital": [ 
			{
				"type": "occ",
				"energy": -0.33674,
				"method": "rhf"
			},
			{
				"type": "occ",
				"energy": -0.32994,
				"method": "rhf"
			},
			{
				"type": "occ",
				"energy": -0.29134,
				"method": "rhf"
			},
			{
				"type": "occ",
				"energy": -0.28107,
				"method": "rhf"
			},
			{
				"type": "occ",
				"energy": -0.2735,
				"method": "rhf"
			},
			{
				"type": "unocc",
				"energy": -0.0527,
				"method": "rhf"
			},
			{
				"type": "unocc",
				"energy": -0.05015,
				"method": "rhf"
			},
			{
				"type": "unocc",
				"energy": -0.04623,
				"method": "rhf"
			},
			{
				"type": "unocc",
				"energy": -0.01517,
				"method": "rhf"
			},
			{
				"type": "unocc",
				"energy": 0.02575,
				"method": "rhf"
			}
		],
		"cosmo_sigma_profile": { 
			"-0.025": 0.0,
			"-0.024": 0.0,
			"-0.023": 0.0,
			"-0.022": 0.0,
			"-0.021": 0.0,
			"-0.02": 0.0,
			"-0.019": 0.0,
			"-0.018": 0.0,
			"-0.017": 0.0,
			"-0.016": 0.0,
			"-0.015": 0.0,
			"-0.014": 0.0,
			"-0.013": 0.0,
			"-0.012": 0.0,
			"-0.011": 0.751847621716,
			"-0.01": 4.17330113146,
			"-0.009": 5.7346548886,
			"-0.008": 11.1152015204,
			"-0.007": 11.3194017597,
			"-0.006": 10.6173393764,
			"-0.005": 8.73834752153,
			"-0.004": 8.36102320958,
			"-0.003": 10.2071368432,
			"-0.002": 12.0249216887,
			"-0.001": 15.2256613948,
			"0.0": 24.5266862298,
			"0.001": 22.5186979865,
			"0.002": 18.7352482018,
			"0.003": 17.5674487135,
			"0.004": 8.11227135361,
			"0.005": 4.70354196398,
			"0.006": 3.96654563341,
			"0.007": 6.48630196352,
			"0.008": 6.78257682618,
			"0.009": 7.50584226692,
			"0.01": 5.22852042081,
			"0.011": 2.73542671746,
			"0.012": 2.16840254833,
			"0.013": 0.807641340202,
			"0.014": 0.0,
			"0.015": 0.0,
			"0.016": 0.0,
			"0.017": 0.0,
			"0.018": 0.0,
			"0.019": 0.0,
			"0.02": 0.0,
			"0.021": 0.0,
			"0.022": 0.0,
			"0.023": 0.0,
			"0.024": 0.0,
			"0.025": 0.0
		}
	}
}
