{
	 "smiles": "CCOC(=O)C1=CC=CN=C1", 
	 "Tm": 281.9, 
	 "num_atms": 20, 
	 "gaussian": { 
		 "optdone": 1, 
		 "sigma_profile": "yes", 
		 "theory": "DFT", 
		 "functional": "B3LYP", 
		 "basiset": "6-31G**", 
		 "properties": { 
			 "R2extent": 2834.8568, 
			 "electric_dipole_moment_norm": 0.632524039069, 
			 "electric_quadrupole_moment_norm": 17.8262725882, 
			 "total_energy": -515.485513946, 
			 "HOMO_LUMO_gap": 0.20289, 
			 "cosmo_polarized_energy": -8.25, 
			 "cosmo_cavitation_energy": 24.4, 
			 "cosmo_dispersion_energy": -17.9, 
			 "cosmo_repulsion_energy": 1.45, 
			 "cosmo_total_nonelectrostatic_energy": 7.94, 
			 "SMD_solvation_energy": 4.04 
		},
		"coords": [
			{
				"x": -3.1797394544,
				"y": -0.7186270968,
				"z": 0.4453708382,
				"element": "C" 
			},
			{
				"x": -2.5708784499,
				"y": 0.3447579474,
				"z": 1.3466462391,
				"element": "C" 
			},
			{
				"x": -1.2635404854,
				"y": -0.0563897547,
				"z": 1.8252734119,
				"element": "O" 
			},
			{
				"x": -0.216099185,
				"y": 0.211433483,
				"z": 1.0169718875,
				"element": "C" 
			},
			{
				"x": -0.3127987415,
				"y": 0.7643683139,
				"z": -0.062270241,
				"element": "O" 
			},
			{
				"x": 1.0777502582,
				"y": -0.2437226647,
				"z": 1.6007692373,
				"element": "C" 
			},
			{
				"x": 2.2538992393,
				"y": -0.0238045816,
				"z": 0.8752338088,
				"element": "C" 
			},
			{
				"x": 3.4616962738,
				"y": -0.4473441192,
				"z": 1.4182031603,
				"element": "C" 
			},
			{
				"x": 3.4447703283,
				"y": -1.0754700655,
				"z": 2.6663310653,
				"element": "C" 
			},
			{
				"x": 2.3298379579,
				"y": -1.2957621219,
				"z": 3.3756396318,
				"element": "N" 
			},
			{
				"x": 1.1736974687,
				"y": -0.883949078,
				"z": 2.8445064837,
				"element": "C" 
			},
			{
				"x": -2.5891219695,
				"y": -0.8335125026,
				"z": -0.4666755183,
				"element": "H" 
			},
			{
				"x": -4.195910568,
				"y": -0.4253025326,
				"z": 0.1615447809,
				"element": "H" 
			},
			{
				"x": -3.2314845798,
				"y": -1.6828335882,
				"z": 0.9594402421,
				"element": "H" 
			},
			{
				"x": -3.1589367885,
				"y": 0.4851927396,
				"z": 2.2565236199,
				"element": "H" 
			},
			{
				"x": -2.4749215768,
				"y": 1.2988805133,
				"z": 0.8234621685,
				"element": "H" 
			},
			{
				"x": 2.1940351137,
				"y": 0.4703462128,
				"z": -0.0889583411,
				"element": "H" 
			},
			{
				"x": 4.399030204,
				"y": -0.2977876076,
				"z": 0.891957691,
				"element": "H" 
			},
			{
				"x": 4.3733154597,
				"y": -1.4191020785,
				"z": 3.1192645318,
				"element": "H" 
			},
			{
				"x": 0.2768994951,
				"y": -1.0684714182,
				"z": 3.4290653023,
				"element": "H" 
			}
		],
		 "valence_orbital": [ 
			{
				"type": "occ",
				"energy": -0.30486,
				"method": "rhf"
			},
			{
				"type": "occ",
				"energy": -0.29279,
				"method": "rhf"
			},
			{
				"type": "occ",
				"energy": -0.28415,
				"method": "rhf"
			},
			{
				"type": "occ",
				"energy": -0.27114,
				"method": "rhf"
			},
			{
				"type": "occ",
				"energy": -0.25832,
				"method": "rhf"
			},
			{
				"type": "unocc",
				"energy": -0.05543,
				"method": "rhf"
			},
			{
				"type": "unocc",
				"energy": -0.02752,
				"method": "rhf"
			},
			{
				"type": "unocc",
				"energy": 0.04726,
				"method": "rhf"
			},
			{
				"type": "unocc",
				"energy": 0.0982,
				"method": "rhf"
			},
			{
				"type": "unocc",
				"energy": 0.10699,
				"method": "rhf"
			}
		],
		"cosmo_sigma_profile": { 
			"-0.025": 0.0,
			"-0.024": 0.0,
			"-0.023": 0.0,
			"-0.022": 0.0,
			"-0.021": 0.0,
			"-0.02": 0.0,
			"-0.019": 0.0,
			"-0.018": 0.0,
			"-0.017": 0.0,
			"-0.016": 0.0,
			"-0.015": 0.0,
			"-0.014": 0.0,
			"-0.013": 0.0,
			"-0.012": 0.0,
			"-0.011": 0.0,
			"-0.01": 0.0,
			"-0.009": 0.0,
			"-0.008": 0.647663507721,
			"-0.007": 6.27484189268,
			"-0.006": 9.04505989016,
			"-0.005": 12.8980025762,
			"-0.004": 15.1511584053,
			"-0.003": 19.7910138925,
			"-0.002": 18.7655334144,
			"-0.001": 17.9884412798,
			"0.0": 25.6020023393,
			"0.001": 18.0521614465,
			"0.002": 9.71793816397,
			"0.003": 5.43663759243,
			"0.004": 5.52099839125,
			"0.005": 5.37731215973,
			"0.006": 2.5061867048,
			"0.007": 3.46559512033,
			"0.008": 1.98409545471,
			"0.009": 2.44333008798,
			"0.01": 3.21820008874,
			"0.011": 4.12613137207,
			"0.012": 3.27647740096,
			"0.013": 1.03754337721,
			"0.014": 0.480256633225,
			"0.015": 1.27891205909,
			"0.016": 0.496150834795,
			"0.017": 0.0198631061866,
			"0.018": 0.0,
			"0.019": 0.0,
			"0.02": 0.0,
			"0.021": 0.0,
			"0.022": 0.0,
			"0.023": 0.0,
			"0.024": 0.0,
			"0.025": 0.0
		}
	}
}
