{
	 "smiles": "CCOC(=O)CN1CCN(CC1)C(=O)C=CC1=CC(OC)=C(OC)C(OC)=C1", 
	 "Tm": 369.15, 
	 "num_atms": 56, 
	 "gaussian": { 
		 "optdone": 1, 
		 "sigma_profile": "yes", 
		 "theory": "DFT", 
		 "functional": "B3LYP", 
		 "basiset": "6-31G**", 
		 "properties": { 
			 "R2extent": 24324.0479, 
			 "electric_dipole_moment_norm": 2.78873180137, 
			 "electric_quadrupole_moment_norm": 33.7114792593, 
			 "total_energy": -1339.79565224, 
			 "HOMO_LUMO_gap": 0.15785, 
			 "cosmo_polarized_energy": -23.4, 
			 "cosmo_cavitation_energy": 58.76, 
			 "cosmo_dispersion_energy": -41.11, 
			 "cosmo_repulsion_energy": 3.16, 
			 "cosmo_total_nonelectrostatic_energy": 20.82, 
			 "SMD_solvation_energy": 10.58 
		},
		"coords": [
			{
				"x": -8.0752786497,
				"y": 4.6150072732,
				"z": -3.1136879309,
				"element": "C" 
			},
			{
				"x": -7.7511051955,
				"y": 3.3980503274,
				"z": -2.2684454757,
				"element": "C" 
			},
			{
				"x": -6.5808228917,
				"y": 3.7158536509,
				"z": -1.4783075849,
				"element": "O" 
			},
			{
				"x": -6.1383876347,
				"y": 2.7382030165,
				"z": -0.6582216294,
				"element": "C" 
			},
			{
				"x": -6.6659655452,
				"y": 1.653220932,
				"z": -0.5544562169,
				"element": "O" 
			},
			{
				"x": -4.8807064452,
				"y": 3.2071553612,
				"z": 0.0646569615,
				"element": "C" 
			},
			{
				"x": -4.4793962265,
				"y": 2.3420089583,
				"z": 1.1519385293,
				"element": "N" 
			},
			{
				"x": -3.5860311243,
				"y": 3.0299273412,
				"z": 2.0941733989,
				"element": "C" 
			},
			{
				"x": -2.8197716442,
				"y": 2.029241989,
				"z": 2.9521502588,
				"element": "C" 
			},
			{
				"x": -1.9500922717,
				"y": 1.2090399528,
				"z": 2.1028402898,
				"element": "N" 
			},
			{
				"x": -2.4638451991,
				"y": 0.87899688,
				"z": 0.7681874951,
				"element": "C" 
			},
			{
				"x": -3.9928917933,
				"y": 1.0091706883,
				"z": 0.7616080849,
				"element": "C" 
			},
			{
				"x": -0.705259605,
				"y": 0.8693278704,
				"z": 2.5855619447,
				"element": "C" 
			},
			{
				"x": -0.3683802898,
				"y": 1.1617492634,
				"z": 3.7367491217,
				"element": "O" 
			},
			{
				"x": 0.214392315,
				"y": 0.1497629955,
				"z": 1.6614529968,
				"element": "C" 
			},
			{
				"x": 1.4090873156,
				"y": -0.2690090409,
				"z": 2.1179698556,
				"element": "C" 
			},
			{
				"x": 2.4563803727,
				"y": -0.9751603583,
				"z": 1.3791690668,
				"element": "C" 
			},
			{
				"x": 2.3570108558,
				"y": -1.2892022408,
				"z": 0.0158176447,
				"element": "C" 
			},
			{
				"x": 3.3835837009,
				"y": -1.9747152296,
				"z": -0.6315054537,
				"element": "C" 
			},
			{
				"x": 3.2080990606,
				"y": -2.3203637292,
				"z": -1.948739994,
				"element": "O" 
			},
			{
				"x": 4.0975320477,
				"y": -1.6976946259,
				"z": -2.8816805107,
				"element": "C" 
			},
			{
				"x": 4.5410888732,
				"y": -2.3541647876,
				"z": 0.0687579196,
				"element": "C" 
			},
			{
				"x": 5.5571587719,
				"y": -2.9981927906,
				"z": -0.590516519,
				"element": "O" 
			},
			{
				"x": 5.666841293,
				"y": -4.3988708906,
				"z": -0.3124046645,
				"element": "C" 
			},
			{
				"x": 4.6562671794,
				"y": -2.0273725805,
				"z": 1.4366017832,
				"element": "C" 
			},
			{
				"x": 5.8130472438,
				"y": -2.430181577,
				"z": 2.0383243039,
				"element": "O" 
			},
			{
				"x": 5.9970250803,
				"y": -2.1174476225,
				"z": 3.4112000347,
				"element": "C" 
			},
			{
				"x": 3.6212867528,
				"y": -1.3464452229,
				"z": 2.0788776183,
				"element": "C" 
			},
			{
				"x": -7.242727855,
				"y": 4.8637854155,
				"z": -3.7780734603,
				"element": "H" 
			},
			{
				"x": -8.2847001456,
				"y": 5.4843464238,
				"z": -2.4838317678,
				"element": "H" 
			},
			{
				"x": -8.9582894774,
				"y": 4.4149104015,
				"z": -3.7285415393,
				"element": "H" 
			},
			{
				"x": -7.5347286137,
				"y": 2.5166048075,
				"z": -2.8805444028,
				"element": "H" 
			},
			{
				"x": -8.5712062264,
				"y": 3.1351323926,
				"z": -1.5931083068,
				"element": "H" 
			},
			{
				"x": -5.0947993416,
				"y": 4.2040680077,
				"z": 0.4653823409,
				"element": "H" 
			},
			{
				"x": -4.0999564888,
				"y": 3.3643367666,
				"z": -0.7083776661,
				"element": "H" 
			},
			{
				"x": -2.846753961,
				"y": 3.6673487798,
				"z": 1.5734786971,
				"element": "H" 
			},
			{
				"x": -4.1791301763,
				"y": 3.690808658,
				"z": 2.7398263567,
				"element": "H" 
			},
			{
				"x": -2.1836887161,
				"y": 2.5405002944,
				"z": 3.6755024362,
				"element": "H" 
			},
			{
				"x": -3.5209095675,
				"y": 1.4019337519,
				"z": 3.5196841211,
				"element": "H" 
			},
			{
				"x": -2.0233319153,
				"y": 1.5335432757,
				"z": 0.0001387946,
				"element": "H" 
			},
			{
				"x": -2.2064756063,
				"y": -0.1521397269,
				"z": 0.5076895129,
				"element": "H" 
			},
			{
				"x": -4.3773747707,
				"y": 0.7622625075,
				"z": -0.228914862,
				"element": "H" 
			},
			{
				"x": -4.4098667266,
				"y": 0.2587996122,
				"z": 1.4441996319,
				"element": "H" 
			},
			{
				"x": -0.0789050999,
				"y": -0.014798101,
				"z": 0.6309557209,
				"element": "H" 
			},
			{
				"x": 1.6171995358,
				"y": -0.0535455175,
				"z": 3.1646780473,
				"element": "H" 
			},
			{
				"x": 1.4824651538,
				"y": -1.0248208114,
				"z": -0.5676996648,
				"element": "H" 
			},
			{
				"x": 3.804944069,
				"y": -2.0636883787,
				"z": -3.8681487447,
				"element": "H" 
			},
			{
				"x": 3.9863137204,
				"y": -0.6058321969,
				"z": -2.855511694,
				"element": "H" 
			},
			{
				"x": 5.1381855292,
				"y": -1.9657713958,
				"z": -2.6813678022,
				"element": "H" 
			},
			{
				"x": 6.4942393067,
				"y": -4.7666239876,
				"z": -0.9226924215,
				"element": "H" 
			},
			{
				"x": 4.7462527064,
				"y": -4.9246984515,
				"z": -0.5923318723,
				"element": "H" 
			},
			{
				"x": 5.8879426994,
				"y": -4.5738597262,
				"z": 0.7450501734,
				"element": "H" 
			},
			{
				"x": 5.9862922322,
				"y": -1.0338149561,
				"z": 3.5824625727,
				"element": "H" 
			},
			{
				"x": 5.2312446009,
				"y": -2.5880291713,
				"z": 4.0409349329,
				"element": "H" 
			},
			{
				"x": 6.9772762253,
				"y": -2.5139366755,
				"z": 3.6797419704,
				"element": "H" 
			},
			{
				"x": 3.6985225621,
				"y": -1.0950178017,
				"z": 3.1299475669,
				"element": "H" 
			}
		],
		 "valence_orbital": [ 
			{
				"type": "occ",
				"energy": -0.23885,
				"method": "rhf"
			},
			{
				"type": "occ",
				"energy": -0.22778,
				"method": "rhf"
			},
			{
				"type": "occ",
				"energy": -0.22701,
				"method": "rhf"
			},
			{
				"type": "occ",
				"energy": -0.21245,
				"method": "rhf"
			},
			{
				"type": "occ",
				"energy": -0.20949,
				"method": "rhf"
			},
			{
				"type": "unocc",
				"energy": -0.05164,
				"method": "rhf"
			},
			{
				"type": "unocc",
				"energy": 0.01032,
				"method": "rhf"
			},
			{
				"type": "unocc",
				"energy": 0.01053,
				"method": "rhf"
			},
			{
				"type": "unocc",
				"energy": 0.03485,
				"method": "rhf"
			},
			{
				"type": "unocc",
				"energy": 0.07187,
				"method": "rhf"
			}
		],
		"cosmo_sigma_profile": { 
			"-0.025": 0.0,
			"-0.024": 0.0,
			"-0.023": 0.0,
			"-0.022": 0.0,
			"-0.021": 0.0,
			"-0.02": 0.0,
			"-0.019": 0.0,
			"-0.018": 0.0,
			"-0.017": 0.0,
			"-0.016": 0.0,
			"-0.015": 0.0,
			"-0.014": 0.0,
			"-0.013": 0.0,
			"-0.012": 0.0,
			"-0.011": 0.0,
			"-0.01": 0.0,
			"-0.009": 0.00497990139502,
			"-0.008": 1.26520781014,
			"-0.007": 6.05163059206,
			"-0.006": 17.7869597267,
			"-0.005": 39.8581856966,
			"-0.004": 61.1664829836,
			"-0.003": 64.1855892994,
			"-0.002": 47.3452546668,
			"-0.001": 30.5080108944,
			"0.0": 27.0485186129,
			"0.001": 22.1498195627,
			"0.002": 22.5608619872,
			"0.003": 24.0968546166,
			"0.004": 21.5330533348,
			"0.005": 12.5586284099,
			"0.006": 7.76937310926,
			"0.007": 7.0114220854,
			"0.008": 7.70658225156,
			"0.009": 7.07636384557,
			"0.01": 6.7483652826,
			"0.011": 7.50977249807,
			"0.012": 8.6248769061,
			"0.013": 3.22077734225,
			"0.014": 4.99466784973,
			"0.015": 3.11032064923,
			"0.016": 0.0,
			"0.017": 0.0,
			"0.018": 0.0,
			"0.019": 0.0,
			"0.02": 0.0,
			"0.021": 0.0,
			"0.022": 0.0,
			"0.023": 0.0,
			"0.024": 0.0,
			"0.025": 0.0
		}
	}
}
