{
	 "smiles": "COC(=O)CCS(=O)(=O)C1=CC=C(Br)C=C1", 
	 "Tm": 349.15, 
	 "num_atms": 27, 
	 "gaussian": { 
		 "optdone": 1, 
		 "sigma_profile": "yes", 
		 "theory": "DFT", 
		 "functional": "B3LYP", 
		 "basiset": "6-31G**", 
		 "properties": { 
			 "R2extent": 10551.673, 
			 "electric_dipole_moment_norm": 4.95665738174, 
			 "electric_quadrupole_moment_norm": 11.7717338642, 
			 "total_energy": -3658.12498023, 
			 "HOMO_LUMO_gap": 0.21248, 
			 "cosmo_polarized_energy": -17.59, 
			 "cosmo_cavitation_energy": 35.64, 
			 "cosmo_dispersion_energy": -26.02, 
			 "cosmo_repulsion_energy": 2.01, 
			 "cosmo_total_nonelectrostatic_energy": 11.64, 
			 "SMD_solvation_energy": 5.62 
		},
		"coords": [
			{
				"x": 2.5615566405,
				"y": -3.6598837812,
				"z": -0.2367705255,
				"element": "C" 
			},
			{
				"x": 1.7391926544,
				"y": -2.563059515,
				"z": -0.6757998137,
				"element": "O" 
			},
			{
				"x": 1.2033590695,
				"y": -1.8135060716,
				"z": 0.3071092067,
				"element": "C" 
			},
			{
				"x": 1.3882953821,
				"y": -2.0092433872,
				"z": 1.4887171951,
				"element": "O" 
			},
			{
				"x": 0.3379054738,
				"y": -0.7098965487,
				"z": -0.2738230632,
				"element": "C" 
			},
			{
				"x": -0.1668188937,
				"y": 0.225924454,
				"z": 0.8170102389,
				"element": "C" 
			},
			{
				"x": -1.353313513,
				"y": 1.4635503571,
				"z": 0.2082359353,
				"element": "S" 
			},
			{
				"x": -2.3020708339,
				"y": 0.77499589,
				"z": -0.684169056,
				"element": "O" 
			},
			{
				"x": -1.8123032472,
				"y": 2.2225494673,
				"z": 1.3814246701,
				"element": "O" 
			},
			{
				"x": -0.3648106869,
				"y": 2.5764740822,
				"z": -0.8077630523,
				"element": "C" 
			},
			{
				"x": 0.3272880921,
				"y": 3.6250087975,
				"z": -0.1975497741,
				"element": "C" 
			},
			{
				"x": 1.0903005403,
				"y": 4.4893211118,
				"z": -0.980562782,
				"element": "C" 
			},
			{
				"x": 1.1400184824,
				"y": 4.2916429806,
				"z": -2.3619765091,
				"element": "C" 
			},
			{
				"x": 2.1846625328,
				"y": 5.4724679036,
				"z": -3.433667993,
				"element": "Br" 
			},
			{
				"x": 0.4360375631,
				"y": 3.2556630031,
				"z": -2.9768724253,
				"element": "C" 
			},
			{
				"x": -0.3251680395,
				"y": 2.3907548837,
				"z": -2.1906572786,
				"element": "C" 
			},
			{
				"x": 1.9813120486,
				"y": -4.3520816947,
				"z": 0.3780369568,
				"element": "H" 
			},
			{
				"x": 3.4094976834,
				"y": -3.2937851464,
				"z": 0.3470385513,
				"element": "H" 
			},
			{
				"x": 2.9053669014,
				"y": -4.1508056955,
				"z": -1.1467032829,
				"element": "H" 
			},
			{
				"x": -0.5067995027,
				"y": -1.1693470491,
				"z": -0.7987052754,
				"element": "H" 
			},
			{
				"x": 0.9190720278,
				"y": -0.1755483464,
				"z": -1.0329142022,
				"element": "H" 
			},
			{
				"x": 0.6390842559,
				"y": 0.7713816482,
				"z": 1.3136246985,
				"element": "H" 
			},
			{
				"x": -0.7219294875,
				"y": -0.3183567463,
				"z": 1.5859100153,
				"element": "H" 
			},
			{
				"x": 0.2496143062,
				"y": 3.7754161407,
				"z": 0.874211356,
				"element": "H" 
			},
			{
				"x": 1.6323411138,
				"y": 5.3112474171,
				"z": -0.5275320232,
				"element": "H" 
			},
			{
				"x": 0.4767282429,
				"y": 3.131702854,
				"z": -4.0528001468,
				"element": "H" 
			},
			{
				"x": -0.9026188068,
				"y": 1.5917129913,
				"z": -2.6431516207,
				"element": "H" 
			}
		],
		 "valence_orbital": [ 
			{
				"type": "occ",
				"energy": -0.30205,
				"method": "rhf"
			},
			{
				"type": "occ",
				"energy": -0.29195,
				"method": "rhf"
			},
			{
				"type": "occ",
				"energy": -0.28852,
				"method": "rhf"
			},
			{
				"type": "occ",
				"energy": -0.2869,
				"method": "rhf"
			},
			{
				"type": "occ",
				"energy": -0.26695,
				"method": "rhf"
			},
			{
				"type": "unocc",
				"energy": -0.05447,
				"method": "rhf"
			},
			{
				"type": "unocc",
				"energy": -0.03905,
				"method": "rhf"
			},
			{
				"type": "unocc",
				"energy": -0.00987,
				"method": "rhf"
			},
			{
				"type": "unocc",
				"energy": -0.0018,
				"method": "rhf"
			},
			{
				"type": "unocc",
				"energy": 0.06084,
				"method": "rhf"
			}
		],
		"cosmo_sigma_profile": { 
			"-0.025": 0.0,
			"-0.024": 0.0,
			"-0.023": 0.0,
			"-0.022": 0.0,
			"-0.021": 0.0,
			"-0.02": 0.0,
			"-0.019": 0.0,
			"-0.018": 0.0,
			"-0.017": 0.0,
			"-0.016": 0.0,
			"-0.015": 0.0,
			"-0.014": 0.0,
			"-0.013": 0.0,
			"-0.012": 0.0,
			"-0.011": 0.0,
			"-0.01": 0.022733513887,
			"-0.009": 2.19106734206,
			"-0.008": 10.0791019008,
			"-0.007": 18.3241897233,
			"-0.006": 19.3240669866,
			"-0.005": 21.4582400716,
			"-0.004": 21.5379544123,
			"-0.003": 19.9575947167,
			"-0.002": 15.7091976836,
			"-0.001": 15.593013808,
			"0.0": 21.1730686889,
			"0.001": 25.9171780197,
			"0.002": 14.4077356141,
			"0.003": 13.1074237804,
			"0.004": 14.9425121044,
			"0.005": 5.04954488456,
			"0.006": 4.01832030454,
			"0.007": 4.16213567548,
			"0.008": 6.69633901268,
			"0.009": 5.80994974066,
			"0.01": 7.0670666005,
			"0.011": 11.7704116217,
			"0.012": 8.83517584948,
			"0.013": 0.0890968830991,
			"0.014": 0.0,
			"0.015": 0.0,
			"0.016": 0.0,
			"0.017": 0.0,
			"0.018": 0.0,
			"0.019": 0.0,
			"0.02": 0.0,
			"0.021": 0.0,
			"0.022": 0.0,
			"0.023": 0.0,
			"0.024": 0.0,
			"0.025": 0.0
		}
	}
}
