{
	 "smiles": "COC(=O)C1=C(N)C=CC(=C1)[N+]([O-])=O", 
	 "Tm": 437.15, 
	 "num_atms": 22, 
	 "gaussian": { 
		 "optdone": 1, 
		 "sigma_profile": "yes", 
		 "theory": "DFT", 
		 "functional": "B3LYP", 
		 "basiset": "6-31G**", 
		 "properties": { 
			 "R2extent": 3700.0353, 
			 "electric_dipole_moment_norm": 8.58250446082, 
			 "electric_quadrupole_moment_norm": 16.2484985408, 
			 "total_energy": -719.990677683, 
			 "HOMO_LUMO_gap": 0.15925, 
			 "cosmo_polarized_energy": -17.74, 
			 "cosmo_cavitation_energy": 27.29, 
			 "cosmo_dispersion_energy": -20.16, 
			 "cosmo_repulsion_energy": 1.58, 
			 "cosmo_total_nonelectrostatic_energy": 8.71, 
			 "SMD_solvation_energy": 8.46 
		},
		"coords": [
			{
				"x": -0.3968100284,
				"y": -1.8426720624,
				"z": 2.9443394809,
				"element": "C" 
			},
			{
				"x": -0.4830190649,
				"y": -0.9212821707,
				"z": 1.8406126891,
				"element": "O" 
			},
			{
				"x": 0.6973458658,
				"y": -0.6808861386,
				"z": 1.1968600707,
				"element": "C" 
			},
			{
				"x": 1.7303014171,
				"y": -1.2146696862,
				"z": 1.5458221653,
				"element": "O" 
			},
			{
				"x": 0.5856732142,
				"y": 0.2723709028,
				"z": 0.061497492,
				"element": "C" 
			},
			{
				"x": -0.6132159783,
				"y": 0.9176760947,
				"z": -0.3774462796,
				"element": "C" 
			},
			{
				"x": -1.8207303555,
				"y": 0.7259165556,
				"z": 0.2109175371,
				"element": "N" 
			},
			{
				"x": -0.5292153781,
				"y": 1.8024894168,
				"z": -1.4863889805,
				"element": "C" 
			},
			{
				"x": 0.6623923815,
				"y": 2.0444883109,
				"z": -2.132634505,
				"element": "C" 
			},
			{
				"x": 1.8263578484,
				"y": 1.4018021946,
				"z": -1.6867179046,
				"element": "C" 
			},
			{
				"x": 1.7867107998,
				"y": 0.5320620855,
				"z": -0.609347194,
				"element": "C" 
			},
			{
				"x": 3.0898959847,
				"y": 1.6540411198,
				"z": -2.3665952316,
				"element": "N" 
			},
			{
				"x": 4.0959132458,
				"y": 1.0751984394,
				"z": -1.9522409032,
				"element": "O" 
			},
			{
				"x": 3.077553238,
				"y": 2.4362685256,
				"z": -3.3217363525,
				"element": "O" 
			},
			{
				"x": 0.2874184093,
				"y": -1.4621384237,
				"z": 3.7055528853,
				"element": "H" 
			},
			{
				"x": -0.0397057363,
				"y": -2.8158448661,
				"z": 2.6010528684,
				"element": "H" 
			},
			{
				"x": -1.4091142885,
				"y": -1.9213082117,
				"z": 3.3405212796,
				"element": "H" 
			},
			{
				"x": -1.9020272994,
				"y": 0.1047590994,
				"z": 0.9997384052,
				"element": "H" 
			},
			{
				"x": -2.6313854592,
				"y": 1.2083426552,
				"z": -0.1380683397,
				"element": "H" 
			},
			{
				"x": -1.4361897001,
				"y": 2.2957344195,
				"z": -1.8248433481,
				"element": "H" 
			},
			{
				"x": 0.7206929309,
				"y": 2.7197995219,
				"z": -2.9773011883,
				"element": "H" 
			},
			{
				"x": 2.6906579534,
				"y": 0.0406522177,
				"z": -0.2725946467,
				"element": "H" 
			}
		],
		 "valence_orbital": [ 
			{
				"type": "occ",
				"energy": -0.29474,
				"method": "rhf"
			},
			{
				"type": "occ",
				"energy": -0.28952,
				"method": "rhf"
			},
			{
				"type": "occ",
				"energy": -0.27818,
				"method": "rhf"
			},
			{
				"type": "occ",
				"energy": -0.27627,
				"method": "rhf"
			},
			{
				"type": "occ",
				"energy": -0.23213,
				"method": "rhf"
			},
			{
				"type": "unocc",
				"energy": -0.07288,
				"method": "rhf"
			},
			{
				"type": "unocc",
				"energy": -0.05637,
				"method": "rhf"
			},
			{
				"type": "unocc",
				"energy": 0.0074,
				"method": "rhf"
			},
			{
				"type": "unocc",
				"energy": 0.05325,
				"method": "rhf"
			},
			{
				"type": "unocc",
				"energy": 0.06525,
				"method": "rhf"
			}
		],
		"cosmo_sigma_profile": { 
			"-0.025": 0.0,
			"-0.024": 0.0,
			"-0.023": 0.0,
			"-0.022": 0.0,
			"-0.021": 0.0,
			"-0.02": 0.0,
			"-0.019": 0.0,
			"-0.018": 0.0,
			"-0.017": 0.0,
			"-0.016": 0.0,
			"-0.015": 1.12568886078,
			"-0.014": 1.25282403894,
			"-0.013": 1.9947591476,
			"-0.012": 1.41251084735,
			"-0.011": 2.45494980511,
			"-0.01": 2.27476241744,
			"-0.009": 2.41287711099,
			"-0.008": 3.4762365358,
			"-0.007": 5.16810350356,
			"-0.006": 10.8470951572,
			"-0.005": 12.1164788266,
			"-0.004": 13.3966407368,
			"-0.003": 16.5507609081,
			"-0.002": 15.7868546138,
			"-0.001": 16.2431591866,
			"0.0": 20.7996835973,
			"0.001": 19.5841764358,
			"0.002": 12.4939442533,
			"0.003": 6.35251729878,
			"0.004": 4.41987035024,
			"0.005": 4.5270594779,
			"0.006": 4.47135061111,
			"0.007": 4.86534001465,
			"0.008": 10.7197708843,
			"0.009": 8.24145058935,
			"0.01": 6.72275501823,
			"0.011": 5.83898528821,
			"0.012": 2.64978279003,
			"0.013": 0.0,
			"0.014": 0.0,
			"0.015": 0.0,
			"0.016": 0.0,
			"0.017": 0.0,
			"0.018": 0.0,
			"0.019": 0.0,
			"0.02": 0.0,
			"0.021": 0.0,
			"0.022": 0.0,
			"0.023": 0.0,
			"0.024": 0.0,
			"0.025": 0.0
		}
	}
}
