{
	 "smiles": "CN1C=CN=C1SCC(=O)NC1=C(Cl)C=CC(=C1)C(O)=O", 
	 "Tm": 497.15, 
	 "num_atms": 33, 
	 "gaussian": { 
		 "optdone": 1, 
		 "sigma_profile": "yes", 
		 "theory": "DFT", 
		 "functional": "B3LYP", 
		 "basiset": "6-31G**", 
		 "properties": { 
			 "R2extent": 8897.9438, 
			 "electric_dipole_moment_norm": 9.3096678539, 
			 "electric_quadrupole_moment_norm": 35.1217199716, 
			 "total_energy": -1750.93627921, 
			 "HOMO_LUMO_gap": 0.17969, 
			 "cosmo_polarized_energy": -24.87, 
			 "cosmo_cavitation_energy": 41.61, 
			 "cosmo_dispersion_energy": -29.07, 
			 "cosmo_repulsion_energy": 2.19, 
			 "cosmo_total_nonelectrostatic_energy": 14.74, 
			 "SMD_solvation_energy": 8.11 
		},
		"coords": [
			{
				"x": -5.0123857058,
				"y": -2.4347617624,
				"z": -2.2379638108,
				"element": "C" 
			},
			{
				"x": -4.2992088242,
				"y": -1.4609777575,
				"z": -1.4227542183,
				"element": "N" 
			},
			{
				"x": -4.7455816656,
				"y": -0.9121192135,
				"z": -0.2323934503,
				"element": "C" 
			},
			{
				"x": -3.7613512802,
				"y": -0.0573647421,
				"z": 0.183722377,
				"element": "C" 
			},
			{
				"x": -2.7076074439,
				"y": -0.0801672234,
				"z": -0.7030086654,
				"element": "N" 
			},
			{
				"x": -3.0604147671,
				"y": -0.9271775048,
				"z": -1.6583010145,
				"element": "C" 
			},
			{
				"x": -2.0990804215,
				"y": -1.3742239102,
				"z": -3.0744230043,
				"element": "S" 
			},
			{
				"x": -1.2144898531,
				"y": 0.2123579269,
				"z": -3.4109098049,
				"element": "C" 
			},
			{
				"x": 0.1338688482,
				"y": 0.3382304199,
				"z": -2.6907878784,
				"element": "C" 
			},
			{
				"x": 1.1850480675,
				"y": 0.1743915434,
				"z": -3.2845870972,
				"element": "O" 
			},
			{
				"x": 0.0225354002,
				"y": 0.6611540323,
				"z": -1.3580838335,
				"element": "N" 
			},
			{
				"x": 1.1242438566,
				"y": 0.7036227046,
				"z": -0.4764335401,
				"element": "C" 
			},
			{
				"x": 2.177257586,
				"y": 1.6265200882,
				"z": -0.6082083369,
				"element": "C" 
			},
			{
				"x": 2.1519478724,
				"y": 2.8447358262,
				"z": -1.8563110912,
				"element": "Cl" 
			},
			{
				"x": 3.2485522527,
				"y": 1.6178335839,
				"z": 0.2899470312,
				"element": "C" 
			},
			{
				"x": 3.2647112164,
				"y": 0.7245027762,
				"z": 1.3533218756,
				"element": "C" 
			},
			{
				"x": 2.1982425238,
				"y": -0.16397988,
				"z": 1.54057594,
				"element": "C" 
			},
			{
				"x": 1.1526609707,
				"y": -0.1769279679,
				"z": 0.6122601909,
				"element": "C" 
			},
			{
				"x": 2.2605006904,
				"y": -1.0954484125,
				"z": 2.7127243277,
				"element": "C" 
			},
			{
				"x": 1.0894533502,
				"y": -1.6668919529,
				"z": 3.105313871,
				"element": "O" 
			},
			{
				"x": 3.2825180655,
				"y": -1.3456431198,
				"z": 3.3070933535,
				"element": "O" 
			},
			{
				"x": -4.7603953802,
				"y": -2.2795455054,
				"z": -3.2887661058,
				"element": "H" 
			},
			{
				"x": -4.7486747123,
				"y": -3.4588503984,
				"z": -1.9557741008,
				"element": "H" 
			},
			{
				"x": -6.0862478759,
				"y": -2.2924018127,
				"z": -2.1046457537,
				"element": "H" 
			},
			{
				"x": -5.701935675,
				"y": -1.1803886712,
				"z": 0.1892499716,
				"element": "H" 
			},
			{
				"x": -3.7456319143,
				"y": 0.5713329363,
				"z": 1.0623338816,
				"element": "H" 
			},
			{
				"x": -1.8920200215,
				"y": 1.0349226171,
				"z": -3.1714987552,
				"element": "H" 
			},
			{
				"x": -1.0073417644,
				"y": 0.1997827911,
				"z": -4.4813519829,
				"element": "H" 
			},
			{
				"x": -0.9116322573,
				"y": 0.5484551307,
				"z": -0.9407098894,
				"element": "H" 
			},
			{
				"x": 4.0553181856,
				"y": 2.3292119295,
				"z": 0.1536102303,
				"element": "H" 
			},
			{
				"x": 4.0891992579,
				"y": 0.7073640273,
				"z": 2.0571121179,
				"element": "H" 
			},
			{
				"x": 0.3490175217,
				"y": -0.9062895113,
				"z": 0.6748769922,
				"element": "H" 
			},
			{
				"x": 0.3457238965,
				"y": -1.2542589878,
				"z": 2.6451701728,
				"element": "H" 
			}
		],
		 "valence_orbital": [ 
			{
				"type": "occ",
				"energy": -0.27283,
				"method": "rhf"
			},
			{
				"type": "occ",
				"energy": -0.25941,
				"method": "rhf"
			},
			{
				"type": "occ",
				"energy": -0.25579,
				"method": "rhf"
			},
			{
				"type": "occ",
				"energy": -0.24172,
				"method": "rhf"
			},
			{
				"type": "occ",
				"energy": -0.23161,
				"method": "rhf"
			},
			{
				"type": "unocc",
				"energy": -0.05192,
				"method": "rhf"
			},
			{
				"type": "unocc",
				"energy": -0.03084,
				"method": "rhf"
			},
			{
				"type": "unocc",
				"energy": -0.01687,
				"method": "rhf"
			},
			{
				"type": "unocc",
				"energy": 0.00313,
				"method": "rhf"
			},
			{
				"type": "unocc",
				"energy": 0.02767,
				"method": "rhf"
			}
		],
		"cosmo_sigma_profile": { 
			"-0.025": 0.0,
			"-0.024": 0.0,
			"-0.023": 0.0,
			"-0.022": 0.0,
			"-0.021": 0.0,
			"-0.02": 0.0,
			"-0.019": 0.563917553943,
			"-0.018": 0.575709065824,
			"-0.017": 1.11284440779,
			"-0.016": 1.14270879613,
			"-0.015": 0.880846723397,
			"-0.014": 0.599057983975,
			"-0.013": 1.36193635633,
			"-0.012": 1.05530929538,
			"-0.011": 1.42047566835,
			"-0.01": 1.03434443872,
			"-0.009": 2.78811644768,
			"-0.008": 8.89812445973,
			"-0.007": 15.0094734422,
			"-0.006": 18.8529427359,
			"-0.005": 19.6260236039,
			"-0.004": 26.0971979879,
			"-0.003": 20.7887153534,
			"-0.002": 19.0451971738,
			"-0.001": 19.3442246429,
			"0.0": 22.5305868172,
			"0.001": 27.3821384903,
			"0.002": 22.3487947098,
			"0.003": 22.3463006762,
			"0.004": 17.5756293,
			"0.005": 14.7647324177,
			"0.006": 6.36573077175,
			"0.007": 4.8290152393,
			"0.008": 4.78641663033,
			"0.009": 6.48852919768,
			"0.01": 6.57437740585,
			"0.011": 8.03881826546,
			"0.012": 7.33603289168,
			"0.013": 5.28852836183,
			"0.014": 0.713609390752,
			"0.015": 0.0,
			"0.016": 0.0,
			"0.017": 0.0,
			"0.018": 0.0,
			"0.019": 0.0,
			"0.02": 0.0,
			"0.021": 0.0,
			"0.022": 0.0,
			"0.023": 0.0,
			"0.024": 0.0,
			"0.025": 0.0
		}
	}
}
