{
	 "smiles": "CC1=CC=CC=C1C(O)=O", 
	 "Tm": 379.15, 
	 "num_atms": 18, 
	 "gaussian": { 
		 "optdone": 1, 
		 "sigma_profile": "yes", 
		 "theory": "DFT", 
		 "functional": "B3LYP", 
		 "basiset": "6-31G**", 
		 "properties": { 
			 "R2extent": 1648.9117, 
			 "electric_dipole_moment_norm": 4.30194282854, 
			 "electric_quadrupole_moment_norm": 7.31058588829, 
			 "total_energy": -460.133960346, 
			 "HOMO_LUMO_gap": 0.20973, 
			 "cosmo_polarized_energy": -12.19, 
			 "cosmo_cavitation_energy": 21.73, 
			 "cosmo_dispersion_energy": -16.17, 
			 "cosmo_repulsion_energy": 1.3, 
			 "cosmo_total_nonelectrostatic_energy": 6.86, 
			 "SMD_solvation_energy": 4.83 
		},
		"coords": [
			{
				"x": -1.8421523328,
				"y": 1.0343388372,
				"z": 0.1633063052,
				"element": "C" 
			},
			{
				"x": -0.4686481407,
				"y": 1.3936724494,
				"z": -0.3507050191,
				"element": "C" 
			},
			{
				"x": -0.3138989495,
				"y": 2.5117484896,
				"z": -1.1803868295,
				"element": "C" 
			},
			{
				"x": 0.9264018399,
				"y": 2.8796878197,
				"z": -1.702305503,
				"element": "C" 
			},
			{
				"x": 2.060221511,
				"y": 2.1276521199,
				"z": -1.3987387769,
				"element": "C" 
			},
			{
				"x": 1.936105311,
				"y": 1.0234942824,
				"z": -0.5594376113,
				"element": "C" 
			},
			{
				"x": 0.6910006101,
				"y": 0.6508682006,
				"z": -0.0266436897,
				"element": "C" 
			},
			{
				"x": 0.6002297264,
				"y": -0.5638501683,
				"z": 0.8490234561,
				"element": "C" 
			},
			{
				"x": 1.6953375595,
				"y": -0.8259145047,
				"z": 1.6182516443,
				"element": "O" 
			},
			{
				"x": -0.3533531795,
				"y": -1.3050982082,
				"z": 0.9006024477,
				"element": "O" 
			},
			{
				"x": -2.189402014,
				"y": 0.0946677346,
				"z": -0.2742306349,
				"element": "H" 
			},
			{
				"x": -2.5571588811,
				"y": 1.8244500161,
				"z": -0.0809116315,
				"element": "H" 
			},
			{
				"x": -1.8466315813,
				"y": 0.8822661906,
				"z": 1.2463200891,
				"element": "H" 
			},
			{
				"x": -1.191774193,
				"y": 3.1039781125,
				"z": -1.4243494274,
				"element": "H" 
			},
			{
				"x": 1.0035263859,
				"y": 3.7493249069,
				"z": -2.3485738497,
				"element": "H" 
			},
			{
				"x": 3.0284229394,
				"y": 2.3930151259,
				"z": -1.8118425666,
				"element": "H" 
			},
			{
				"x": 2.8144466933,
				"y": 0.4175638911,
				"z": -0.3508131525,
				"element": "H" 
			},
			{
				"x": 2.3003266953,
				"y": -0.0714652952,
				"z": 1.5927347496,
				"element": "H" 
			}
		],
		 "valence_orbital": [ 
			{
				"type": "occ",
				"energy": -0.35609,
				"method": "rhf"
			},
			{
				"type": "occ",
				"energy": -0.31402,
				"method": "rhf"
			},
			{
				"type": "occ",
				"energy": -0.27457,
				"method": "rhf"
			},
			{
				"type": "occ",
				"energy": -0.26426,
				"method": "rhf"
			},
			{
				"type": "occ",
				"energy": -0.25635,
				"method": "rhf"
			},
			{
				"type": "unocc",
				"energy": -0.04662,
				"method": "rhf"
			},
			{
				"type": "unocc",
				"energy": -0.01756,
				"method": "rhf"
			},
			{
				"type": "unocc",
				"energy": 0.04417,
				"method": "rhf"
			},
			{
				"type": "unocc",
				"energy": 0.07045,
				"method": "rhf"
			},
			{
				"type": "unocc",
				"energy": 0.09443,
				"method": "rhf"
			}
		],
		"cosmo_sigma_profile": { 
			"-0.025": 0.0,
			"-0.024": 0.0,
			"-0.023": 0.0,
			"-0.022": 0.0,
			"-0.021": 0.0,
			"-0.02": 0.0,
			"-0.019": 0.0,
			"-0.018": 0.464281128734,
			"-0.017": 0.725027476965,
			"-0.016": 1.20438584924,
			"-0.015": 0.86595396653,
			"-0.014": 0.883445125836,
			"-0.013": 0.390583877667,
			"-0.012": 1.29957684031,
			"-0.011": 1.74301832824,
			"-0.01": 0.85953117609,
			"-0.009": 1.18280028205,
			"-0.008": 1.39479356343,
			"-0.007": 3.12746764776,
			"-0.006": 9.01066357636,
			"-0.005": 11.5067859006,
			"-0.004": 13.4025910645,
			"-0.003": 12.0259658373,
			"-0.002": 12.2713790998,
			"-0.001": 11.7133382287,
			"0.0": 14.5782617758,
			"0.001": 10.29829382,
			"0.002": 10.1489203049,
			"0.003": 11.2726022882,
			"0.004": 11.8453153767,
			"0.005": 4.1097929679,
			"0.006": 2.44300789724,
			"0.007": 2.99869954137,
			"0.008": 2.57112959398,
			"0.009": 2.77711121966,
			"0.01": 4.99823101454,
			"0.011": 4.868277639,
			"0.012": 4.1417251435,
			"0.013": 1.80755299579,
			"0.014": 0.117731385225,
			"0.015": 0.0,
			"0.016": 0.0,
			"0.017": 0.0,
			"0.018": 0.0,
			"0.019": 0.0,
			"0.02": 0.0,
			"0.021": 0.0,
			"0.022": 0.0,
			"0.023": 0.0,
			"0.024": 0.0,
			"0.025": 0.0
		}
	}
}
