{
	 "smiles": "CC(OC1=CC=C(C=C1)C#N)C(=O)NN", 
	 "Tm": 403.15, 
	 "num_atms": 26, 
	 "gaussian": { 
		 "optdone": 1, 
		 "sigma_profile": "yes", 
		 "theory": "DFT", 
		 "functional": "B3LYP", 
		 "basiset": "6-31G**", 
		 "properties": { 
			 "R2extent": 4416.5394, 
			 "electric_dipole_moment_norm": 4.79881610921, 
			 "electric_quadrupole_moment_norm": 32.2880163655, 
			 "total_energy": -702.357707601, 
			 "HOMO_LUMO_gap": 0.19816, 
			 "cosmo_polarized_energy": -18.29, 
			 "cosmo_cavitation_energy": 31.86, 
			 "cosmo_dispersion_energy": -21.69, 
			 "cosmo_repulsion_energy": 1.74, 
			 "cosmo_total_nonelectrostatic_energy": 11.91, 
			 "SMD_solvation_energy": 8.12 
		},
		"coords": [
			{
				"x": -2.5815410866,
				"y": 1.1569280466,
				"z": 1.0531024211,
				"element": "C" 
			},
			{
				"x": -1.3265485809,
				"y": 0.8620658361,
				"z": 0.2357284761,
				"element": "C" 
			},
			{
				"x": -0.2182218597,
				"y": 0.872377225,
				"z": 1.1497636833,
				"element": "O" 
			},
			{
				"x": 1.0462432345,
				"y": 1.0687853158,
				"z": 0.669400144,
				"element": "C" 
			},
			{
				"x": 1.3886733779,
				"y": 1.0925472378,
				"z": -0.6899471098,
				"element": "C" 
			},
			{
				"x": 2.7154923272,
				"y": 1.3007573114,
				"z": -1.0593021608,
				"element": "C" 
			},
			{
				"x": 3.7111785907,
				"y": 1.4819114261,
				"z": -0.0879708593,
				"element": "C" 
			},
			{
				"x": 3.3568599382,
				"y": 1.4498075277,
				"z": 1.2745839698,
				"element": "C" 
			},
			{
				"x": 2.0380001976,
				"y": 1.2459962246,
				"z": 1.6472825819,
				"element": "C" 
			},
			{
				"x": 5.0728962182,
				"y": 1.6940594767,
				"z": -0.4770438444,
				"element": "C" 
			},
			{
				"x": 6.1800368369,
				"y": 1.8662612241,
				"z": -0.7915236048,
				"element": "N" 
			},
			{
				"x": -1.4671591649,
				"y": -0.4772034752,
				"z": -0.504657408,
				"element": "C" 
			},
			{
				"x": -2.0860660801,
				"y": -0.5549474368,
				"z": -1.5595890042,
				"element": "O" 
			},
			{
				"x": -0.9165355514,
				"y": -1.5490002346,
				"z": 0.1226930247,
				"element": "N" 
			},
			{
				"x": -1.0552485751,
				"y": -2.8600905042,
				"z": -0.3694411003,
				"element": "N" 
			},
			{
				"x": -3.4547066786,
				"y": 1.1360292779,
				"z": 0.3967524071,
				"element": "H" 
			},
			{
				"x": -2.7130161917,
				"y": 0.4083296321,
				"z": 1.8396626555,
				"element": "H" 
			},
			{
				"x": -2.5054322568,
				"y": 2.1431509821,
				"z": 1.5175037048,
				"element": "H" 
			},
			{
				"x": -1.193019372,
				"y": 1.6353200848,
				"z": -0.5278340837,
				"element": "H" 
			},
			{
				"x": 0.6443058507,
				"y": 0.9387360194,
				"z": -1.4618166392,
				"element": "H" 
			},
			{
				"x": 2.9836411373,
				"y": 1.3184595899,
				"z": -2.110344471,
				"element": "H" 
			},
			{
				"x": 4.1215787122,
				"y": 1.5897156504,
				"z": 2.0311382635,
				"element": "H" 
			},
			{
				"x": 1.7467258371,
				"y": 1.2258972427,
				"z": 2.6919562483,
				"element": "H" 
			},
			{
				"x": -0.4620985999,
				"y": -1.4514305234,
				"z": 1.0183049604,
				"element": "H" 
			},
			{
				"x": -0.523318298,
				"y": -2.9239419771,
				"z": -1.2376355286,
				"element": "H" 
			},
			{
				"x": -2.0315199626,
				"y": -2.9751211801,
				"z": -0.6414667264,
				"element": "H" 
			}
		],
		 "valence_orbital": [ 
			{
				"type": "occ",
				"energy": -0.29579,
				"method": "rhf"
			},
			{
				"type": "occ",
				"energy": -0.28202,
				"method": "rhf"
			},
			{
				"type": "occ",
				"energy": -0.27173,
				"method": "rhf"
			},
			{
				"type": "occ",
				"energy": -0.26974,
				"method": "rhf"
			},
			{
				"type": "occ",
				"energy": -0.24365,
				"method": "rhf"
			},
			{
				"type": "unocc",
				"energy": -0.04549,
				"method": "rhf"
			},
			{
				"type": "unocc",
				"energy": -0.03097,
				"method": "rhf"
			},
			{
				"type": "unocc",
				"energy": 0.00612,
				"method": "rhf"
			},
			{
				"type": "unocc",
				"energy": 0.03799,
				"method": "rhf"
			},
			{
				"type": "unocc",
				"energy": 0.06721,
				"method": "rhf"
			}
		],
		"cosmo_sigma_profile": { 
			"-0.025": 0.0,
			"-0.024": 0.0,
			"-0.023": 0.0,
			"-0.022": 0.0,
			"-0.021": 0.0,
			"-0.02": 0.0,
			"-0.019": 0.0,
			"-0.018": 0.0,
			"-0.017": 0.0,
			"-0.016": 0.0,
			"-0.015": 0.0,
			"-0.014": 0.145715555835,
			"-0.013": 0.657117302272,
			"-0.012": 1.3569568559,
			"-0.011": 3.32862765383,
			"-0.01": 3.16192364517,
			"-0.009": 2.93260907795,
			"-0.008": 8.19279385206,
			"-0.007": 13.9083567834,
			"-0.006": 13.7420005511,
			"-0.005": 15.7999715679,
			"-0.004": 17.9014830115,
			"-0.003": 13.9631183544,
			"-0.002": 19.8171938896,
			"-0.001": 19.4054707132,
			"0.0": 18.1435258224,
			"0.001": 15.6928045368,
			"0.002": 17.8131815699,
			"0.003": 8.25341943093,
			"0.004": 6.1140302125,
			"0.005": 5.3369318328,
			"0.006": 4.60894324505,
			"0.007": 5.37099073623,
			"0.008": 5.69879317159,
			"0.009": 5.256669373,
			"0.01": 4.98245390058,
			"0.011": 4.2932309171,
			"0.012": 5.43658647751,
			"0.013": 7.82127589828,
			"0.014": 3.18787612165,
			"0.015": 0.892960355696,
			"0.016": 0.481884616619,
			"0.017": 0.0807497953465,
			"0.018": 0.0,
			"0.019": 0.0,
			"0.02": 0.0,
			"0.021": 0.0,
			"0.022": 0.0,
			"0.023": 0.0,
			"0.024": 0.0,
			"0.025": 0.0
		}
	}
}
