{
	 "smiles": "ClC1=NC(Cl)=C(Cl)C(Cl)=C1C#N", 
	 "Tm": 422.15, 
	 "num_atms": 12, 
	 "gaussian": { 
		 "optdone": 1, 
		 "sigma_profile": "yes", 
		 "theory": "DFT", 
		 "functional": "B3LYP", 
		 "basiset": "6-31G**", 
		 "properties": { 
			 "R2extent": 4018.3156, 
			 "electric_dipole_moment_norm": 2.54780519075, 
			 "electric_quadrupole_moment_norm": 8.05668565603, 
			 "total_energy": -2178.86533062, 
			 "HOMO_LUMO_gap": 0.1837, 
			 "cosmo_polarized_energy": -7.19, 
			 "cosmo_cavitation_energy": 25.56, 
			 "cosmo_dispersion_energy": -18.87, 
			 "cosmo_repulsion_energy": 1.51, 
			 "cosmo_total_nonelectrostatic_energy": 8.2, 
			 "SMD_solvation_energy": 3.3 
		},
		"coords": [
			{
				"x": -1.8123344145,
				"y": -0.1608984706,
				"z": 3.9200775947,
				"element": "Cl" 
			},
			{
				"x": -0.7722144753,
				"y": -0.4228294302,
				"z": 2.5518589917,
				"element": "C" 
			},
			{
				"x": -0.0730208526,
				"y": -1.5399238956,
				"z": 2.5412635961,
				"element": "N" 
			},
			{
				"x": 0.7350174954,
				"y": -1.7919028693,
				"z": 1.5252055913,
				"element": "C" 
			},
			{
				"x": 1.6149519593,
				"y": -3.2879620152,
				"z": 1.5988846498,
				"element": "Cl" 
			},
			{
				"x": 0.8980559744,
				"y": -0.9215509237,
				"z": 0.4302079018,
				"element": "C" 
			},
			{
				"x": 1.9663394282,
				"y": -1.2941838005,
				"z": -0.8748541541,
				"element": "Cl" 
			},
			{
				"x": 0.1527023405,
				"y": 0.2667533021,
				"z": 0.4439144513,
				"element": "C" 
			},
			{
				"x": 0.2756562674,
				"y": 1.4045513426,
				"z": -0.8470671959,
				"element": "Cl" 
			},
			{
				"x": -0.711195288,
				"y": 0.5411492357,
				"z": 1.5253736327,
				"element": "C" 
			},
			{
				"x": -1.4844209096,
				"y": 1.7397533366,
				"z": 1.5725185699,
				"element": "C" 
			},
			{
				"x": -2.1149375253,
				"y": 2.715544188,
				"z": 1.6125163706,
				"element": "N" 
			}
		],
		 "valence_orbital": [ 
			{
				"type": "occ",
				"energy": -0.34584,
				"method": "rhf"
			},
			{
				"type": "occ",
				"energy": -0.33593,
				"method": "rhf"
			},
			{
				"type": "occ",
				"energy": -0.32213,
				"method": "rhf"
			},
			{
				"type": "occ",
				"energy": -0.31056,
				"method": "rhf"
			},
			{
				"type": "occ",
				"energy": -0.28533,
				"method": "rhf"
			},
			{
				"type": "unocc",
				"energy": -0.10163,
				"method": "rhf"
			},
			{
				"type": "unocc",
				"energy": -0.08171,
				"method": "rhf"
			},
			{
				"type": "unocc",
				"energy": -0.0476,
				"method": "rhf"
			},
			{
				"type": "unocc",
				"energy": -0.00223,
				"method": "rhf"
			},
			{
				"type": "unocc",
				"energy": 0.00254,
				"method": "rhf"
			}
		],
		"cosmo_sigma_profile": { 
			"-0.025": 0.0,
			"-0.024": 0.0,
			"-0.023": 0.0,
			"-0.022": 0.0,
			"-0.021": 0.0,
			"-0.02": 0.0,
			"-0.019": 0.0,
			"-0.018": 0.0,
			"-0.017": 0.0,
			"-0.016": 0.0,
			"-0.015": 0.0,
			"-0.014": 0.0,
			"-0.013": 0.0,
			"-0.012": 0.0,
			"-0.011": 0.0,
			"-0.01": 0.0,
			"-0.009": 0.427211791072,
			"-0.008": 1.64240285045,
			"-0.007": 3.32224226491,
			"-0.006": 13.9515577726,
			"-0.005": 16.8650582395,
			"-0.004": 12.7422181404,
			"-0.003": 14.6622705329,
			"-0.002": 13.1722381431,
			"-0.001": 16.6321364893,
			"0.0": 20.8366864154,
			"0.001": 27.906667114,
			"0.002": 32.9889357977,
			"0.003": 11.0973124468,
			"0.004": 5.18052776851,
			"0.005": 4.39266475148,
			"0.006": 4.75582509424,
			"0.007": 4.27820105883,
			"0.008": 3.7534556645,
			"0.009": 3.73074796846,
			"0.01": 3.01573557514,
			"0.011": 1.8224857801,
			"0.012": 0.374569850546,
			"0.013": 0.0,
			"0.014": 0.0,
			"0.015": 0.0,
			"0.016": 0.0,
			"0.017": 0.0,
			"0.018": 0.0,
			"0.019": 0.0,
			"0.02": 0.0,
			"0.021": 0.0,
			"0.022": 0.0,
			"0.023": 0.0,
			"0.024": 0.0,
			"0.025": 0.0
		}
	}
}
