{
	 "smiles": "CCOC1=CC(OC2=CC=C(C=C2Cl)C(F)(F)F)=CC=C1[N+]([O-])=O", 
	 "Tm": 358.45, 
	 "num_atms": 35, 
	 "gaussian": { 
		 "optdone": 1, 
		 "sigma_profile": "yes", 
		 "theory": "DFT", 
		 "functional": "B3LYP", 
		 "basiset": "6-31G**", 
		 "properties": { 
			 "R2extent": 13536.4686, 
			 "electric_dipole_moment_norm": 2.44320942614, 
			 "electric_quadrupole_moment_norm": 22.3695736754, 
			 "total_energy": -1693.46660037, 
			 "HOMO_LUMO_gap": 0.16842, 
			 "cosmo_polarized_energy": -12.45, 
			 "cosmo_cavitation_energy": 44.41, 
			 "cosmo_dispersion_energy": -30.36, 
			 "cosmo_repulsion_energy": 2.29, 
			 "cosmo_total_nonelectrostatic_energy": 16.33, 
			 "SMD_solvation_energy": 10.98 
		},
		"coords": [
			{
				"x": -0.761284697,
				"y": 2.8544721052,
				"z": -2.492723002,
				"element": "C" 
			},
			{
				"x": -0.3274206976,
				"y": 1.4033609448,
				"z": -2.4495389043,
				"element": "C" 
			},
			{
				"x": 0.5559060281,
				"y": 1.2506342483,
				"z": -1.3124748116,
				"element": "O" 
			},
			{
				"x": 1.1426381228,
				"y": 0.0343238248,
				"z": -1.162730201,
				"element": "C" 
			},
			{
				"x": 0.4958862747,
				"y": -0.9121526258,
				"z": -0.3593983887,
				"element": "C" 
			},
			{
				"x": 1.0894585225,
				"y": -2.1475342937,
				"z": -0.1016396086,
				"element": "C" 
			},
			{
				"x": 0.4847626858,
				"y": -3.1387816979,
				"z": 0.6335699747,
				"element": "O" 
			},
			{
				"x": -0.4873802953,
				"y": -2.8532803207,
				"z": 1.560931629,
				"element": "C" 
			},
			{
				"x": -0.2773822276,
				"y": -1.9269315885,
				"z": 2.5873969646,
				"element": "C" 
			},
			{
				"x": -1.2504843557,
				"y": -1.7282272009,
				"z": 3.5605699158,
				"element": "C" 
			},
			{
				"x": -2.4371638437,
				"y": -2.4657228268,
				"z": 3.519991677,
				"element": "C" 
			},
			{
				"x": -2.6502656553,
				"y": -3.4004444681,
				"z": 2.5069111864,
				"element": "C" 
			},
			{
				"x": -1.6785736569,
				"y": -3.5921263987,
				"z": 1.5266019999,
				"element": "C" 
			},
			{
				"x": -1.9454760104,
				"y": -4.7613047222,
				"z": 0.2593440732,
				"element": "Cl" 
			},
			{
				"x": -3.5130430631,
				"y": -2.2122207129,
				"z": 4.542904136,
				"element": "C" 
			},
			{
				"x": -2.9879710729,
				"y": -1.8930717137,
				"z": 5.7454474473,
				"element": "F" 
			},
			{
				"x": -4.3112342746,
				"y": -1.1837531562,
				"z": 4.1766715484,
				"element": "F" 
			},
			{
				"x": -4.3080654772,
				"y": -3.2895427935,
				"z": 4.7132817251,
				"element": "F" 
			},
			{
				"x": 2.343220822,
				"y": -2.4664688876,
				"z": -0.6373419802,
				"element": "C" 
			},
			{
				"x": 2.9969762726,
				"y": -1.5298543039,
				"z": -1.4201196839,
				"element": "C" 
			},
			{
				"x": 2.4078804544,
				"y": -0.2910824529,
				"z": -1.6970651225,
				"element": "C" 
			},
			{
				"x": 3.1761584748,
				"y": 0.6412545303,
				"z": -2.5233120244,
				"element": "N" 
			},
			{
				"x": 4.3942406983,
				"y": 0.461773132,
				"z": -2.5883466673,
				"element": "O" 
			},
			{
				"x": 2.5764629464,
				"y": 1.53848434,
				"z": -3.1156409861,
				"element": "O" 
			},
			{
				"x": 0.1073893285,
				"y": 3.5031803319,
				"z": -2.6303879913,
				"element": "H" 
			},
			{
				"x": -1.2670279651,
				"y": 3.1380399684,
				"z": -1.565132354,
				"element": "H" 
			},
			{
				"x": -1.4516984375,
				"y": 3.0120934448,
				"z": -3.3271510931,
				"element": "H" 
			},
			{
				"x": -1.1853426056,
				"y": 0.7287189028,
				"z": -2.3224087446,
				"element": "H" 
			},
			{
				"x": 0.2123984415,
				"y": 1.1261886882,
				"z": -3.3593092337,
				"element": "H" 
			},
			{
				"x": -0.4667609542,
				"y": -0.6479524402,
				"z": 0.061067511,
				"element": "H" 
			},
			{
				"x": 0.6559218638,
				"y": -1.3752093029,
				"z": 2.6166555092,
				"element": "H" 
			},
			{
				"x": -1.0813452768,
				"y": -1.0159690143,
				"z": 4.360247617,
				"element": "H" 
			},
			{
				"x": -3.5636103615,
				"y": -3.9820877585,
				"z": 2.4765280645,
				"element": "H" 
			},
			{
				"x": 2.7822257896,
				"y": -3.4343313319,
				"z": -0.4251286415,
				"element": "H" 
			},
			{
				"x": 3.9785042019,
				"y": -1.7320744495,
				"z": -1.8302715407,
				"element": "H" 
			}
		],
		 "valence_orbital": [ 
			{
				"type": "occ",
				"energy": -0.28864,
				"method": "rhf"
			},
			{
				"type": "occ",
				"energy": -0.28336,
				"method": "rhf"
			},
			{
				"type": "occ",
				"energy": -0.27594,
				"method": "rhf"
			},
			{
				"type": "occ",
				"energy": -0.27277,
				"method": "rhf"
			},
			{
				"type": "occ",
				"energy": -0.2549,
				"method": "rhf"
			},
			{
				"type": "unocc",
				"energy": -0.08648,
				"method": "rhf"
			},
			{
				"type": "unocc",
				"energy": -0.04914,
				"method": "rhf"
			},
			{
				"type": "unocc",
				"energy": -0.04493,
				"method": "rhf"
			},
			{
				"type": "unocc",
				"energy": -0.03054,
				"method": "rhf"
			},
			{
				"type": "unocc",
				"energy": -0.00282,
				"method": "rhf"
			}
		],
		"cosmo_sigma_profile": { 
			"-0.025": 0.0,
			"-0.024": 0.0,
			"-0.023": 0.0,
			"-0.022": 0.0,
			"-0.021": 0.0,
			"-0.02": 0.0,
			"-0.019": 0.0,
			"-0.018": 0.0,
			"-0.017": 0.0,
			"-0.016": 0.0,
			"-0.015": 0.0,
			"-0.014": 0.0,
			"-0.013": 0.0,
			"-0.012": 0.0,
			"-0.011": 0.0,
			"-0.01": 0.0,
			"-0.009": 1.04905097624,
			"-0.008": 8.07900613934,
			"-0.007": 10.3996239152,
			"-0.006": 11.5280133712,
			"-0.005": 15.386763941,
			"-0.004": 24.8032123325,
			"-0.003": 28.7766997757,
			"-0.002": 25.2500625684,
			"-0.001": 34.2633976085,
			"0.0": 44.2961497332,
			"0.001": 32.7747934355,
			"0.002": 32.9969563243,
			"0.003": 34.1439167894,
			"0.004": 12.9287602172,
			"0.005": 6.37121358073,
			"0.006": 7.09943135726,
			"0.007": 8.19197268828,
			"0.008": 8.29192125308,
			"0.009": 5.93274822595,
			"0.01": 5.07410482481,
			"0.011": 0.64242413203,
			"0.012": 0.0,
			"0.013": 0.0,
			"0.014": 0.0,
			"0.015": 0.0,
			"0.016": 0.0,
			"0.017": 0.0,
			"0.018": 0.0,
			"0.019": 0.0,
			"0.02": 0.0,
			"0.021": 0.0,
			"0.022": 0.0,
			"0.023": 0.0,
			"0.024": 0.0,
			"0.025": 0.0
		}
	}
}
