{
	 "smiles": "ClS(=O)(=O)C1=CC2=C(OC3=C2C=CC=C3)C=C1", 
	 "Tm": 408.15, 
	 "num_atms": 24, 
	 "gaussian": { 
		 "optdone": 1, 
		 "sigma_profile": "yes", 
		 "theory": "DFT", 
		 "functional": "B3LYP", 
		 "basiset": "6-31G**", 
		 "properties": { 
			 "R2extent": 6157.5854, 
			 "electric_dipole_moment_norm": 6.08377946346, 
			 "electric_quadrupole_moment_norm": 17.6241525484, 
			 "total_energy": -1545.48780416, 
			 "HOMO_LUMO_gap": 0.16333, 
			 "cosmo_polarized_energy": -10.12, 
			 "cosmo_cavitation_energy": 32.39, 
			 "cosmo_dispersion_energy": -24.4, 
			 "cosmo_repulsion_energy": 1.81, 
			 "cosmo_total_nonelectrostatic_energy": 9.81, 
			 "SMD_solvation_energy": 4.14 
		},
		"coords": [
			{
				"x": 2.0218301039,
				"y": 1.9374330374,
				"z": -3.9521778108,
				"element": "Cl" 
			},
			{
				"x": 0.8098678013,
				"y": 0.1974811561,
				"z": -3.6637693458,
				"element": "S" 
			},
			{
				"x": -0.5288236826,
				"y": 0.5652103117,
				"z": -4.1099954357,
				"element": "O" 
			},
			{
				"x": 1.5527818518,
				"y": -0.9080061692,
				"z": -4.2568953148,
				"element": "O" 
			},
			{
				"x": 0.8224283068,
				"y": 0.0403570678,
				"z": -1.8893430483,
				"element": "C" 
			},
			{
				"x": -0.2004470207,
				"y": 0.6565491531,
				"z": -1.1669779832,
				"element": "C" 
			},
			{
				"x": -0.1732782328,
				"y": 0.5118661378,
				"z": 0.2198773391,
				"element": "C" 
			},
			{
				"x": 0.8684846448,
				"y": -0.2347302071,
				"z": 0.814057493,
				"element": "C" 
			},
			{
				"x": 0.7425246845,
				"y": -0.2786507325,
				"z": 2.1729542041,
				"element": "O" 
			},
			{
				"x": -0.3942568196,
				"y": 0.4456247751,
				"z": 2.4793445376,
				"element": "C" 
			},
			{
				"x": -1.0063555615,
				"y": 0.9583581104,
				"z": 1.3217864962,
				"element": "C" 
			},
			{
				"x": -2.1741673467,
				"y": 1.7195576467,
				"z": 1.4483281141,
				"element": "C" 
			},
			{
				"x": -2.6859394837,
				"y": 1.9392369869,
				"z": 2.7255975945,
				"element": "C" 
			},
			{
				"x": -2.0505448571,
				"y": 1.4131679501,
				"z": 3.8636076148,
				"element": "C" 
			},
			{
				"x": -0.8850163352,
				"y": 0.6516422713,
				"z": 3.7603613392,
				"element": "C" 
			},
			{
				"x": 1.8856929994,
				"y": -0.8483270876,
				"z": 0.0913184059,
				"element": "C" 
			},
			{
				"x": 1.8556681479,
				"y": -0.7011869393,
				"z": -1.2928139239,
				"element": "C" 
			},
			{
				"x": -0.9794583939,
				"y": 1.2113546614,
				"z": -1.6772704693,
				"element": "H" 
			},
			{
				"x": -2.6702496361,
				"y": 2.1290283082,
				"z": 0.5737820258,
				"element": "H" 
			},
			{
				"x": -3.5907676996,
				"y": 2.5265056065,
				"z": 2.8460940741,
				"element": "H" 
			},
			{
				"x": -2.473874155,
				"y": 1.6020509245,
				"z": 4.8452895004,
				"element": "H" 
			},
			{
				"x": -0.3841018932,
				"y": 0.2397590253,
				"z": 4.6291403559,
				"element": "H" 
			},
			{
				"x": 2.6623339417,
				"y": -1.4186430853,
				"z": 0.5876311645,
				"element": "H" 
			},
			{
				"x": 2.6136686357,
				"y": -1.1622389094,
				"z": -1.9152269274,
				"element": "H" 
			}
		],
		 "valence_orbital": [ 
			{
				"type": "occ",
				"energy": -0.31427,
				"method": "rhf"
			},
			{
				"type": "occ",
				"energy": -0.30998,
				"method": "rhf"
			},
			{
				"type": "occ",
				"energy": -0.28908,
				"method": "rhf"
			},
			{
				"type": "occ",
				"energy": -0.25456,
				"method": "rhf"
			},
			{
				"type": "occ",
				"energy": -0.24982,
				"method": "rhf"
			},
			{
				"type": "unocc",
				"energy": -0.08649,
				"method": "rhf"
			},
			{
				"type": "unocc",
				"energy": -0.06293,
				"method": "rhf"
			},
			{
				"type": "unocc",
				"energy": -0.03628,
				"method": "rhf"
			},
			{
				"type": "unocc",
				"energy": -0.0131,
				"method": "rhf"
			},
			{
				"type": "unocc",
				"energy": 0.00729,
				"method": "rhf"
			}
		],
		"cosmo_sigma_profile": { 
			"-0.025": 0.0,
			"-0.024": 0.0,
			"-0.023": 0.0,
			"-0.022": 0.0,
			"-0.021": 0.0,
			"-0.02": 0.0,
			"-0.019": 0.0,
			"-0.018": 0.0,
			"-0.017": 0.0,
			"-0.016": 0.0,
			"-0.015": 0.0,
			"-0.014": 0.0,
			"-0.013": 0.0,
			"-0.012": 0.0,
			"-0.011": 0.0,
			"-0.01": 0.0,
			"-0.009": 2.33525042254,
			"-0.008": 6.82104460936,
			"-0.007": 10.582361436,
			"-0.006": 14.3018394199,
			"-0.005": 14.6232332775,
			"-0.004": 13.027869996,
			"-0.003": 13.6979452019,
			"-0.002": 16.1163689497,
			"-0.001": 22.2133079303,
			"0.0": 29.2493885078,
			"0.001": 24.7804755132,
			"0.002": 19.4162546619,
			"0.003": 22.522183752,
			"0.004": 22.3151327162,
			"0.005": 6.22173389575,
			"0.006": 4.594370909,
			"0.007": 6.54293328129,
			"0.008": 10.0909036778,
			"0.009": 5.23944819233,
			"0.01": 0.0770439654092,
			"0.011": 0.0,
			"0.012": 0.0,
			"0.013": 0.0,
			"0.014": 0.0,
			"0.015": 0.0,
			"0.016": 0.0,
			"0.017": 0.0,
			"0.018": 0.0,
			"0.019": 0.0,
			"0.02": 0.0,
			"0.021": 0.0,
			"0.022": 0.0,
			"0.023": 0.0,
			"0.024": 0.0,
			"0.025": 0.0
		}
	}
}
