{
	 "smiles": "NN=C(/N)C(S)=NN", 
	 "Tm": 423.15, 
	 "num_atms": 15, 
	 "gaussian": { 
		 "optdone": 1, 
		 "sigma_profile": "yes", 
		 "theory": "DFT", 
		 "functional": "B3LYP", 
		 "basiset": "6-31G**", 
		 "properties": { 
			 "R2extent": 1885.0373, 
			 "electric_dipole_moment_norm": 2.23564844732, 
			 "electric_quadrupole_moment_norm": 10.6641624641, 
			 "total_energy": -752.310497175, 
			 "HOMO_LUMO_gap": 0.17848, 
			 "cosmo_polarized_energy": -13.03, 
			 "cosmo_cavitation_energy": 20.38, 
			 "cosmo_dispersion_energy": -16.25, 
			 "cosmo_repulsion_energy": 1.35, 
			 "cosmo_total_nonelectrostatic_energy": 5.47, 
			 "SMD_solvation_energy": 2.89 
		},
		"coords": [
			{
				"x": -0.7802114177,
				"y": -0.9487795186,
				"z": -2.6418310458,
				"element": "N" 
			},
			{
				"x": 0.0642551131,
				"y": -0.8411140705,
				"z": -1.5257908432,
				"element": "N" 
			},
			{
				"x": 0.8181101701,
				"y": 0.2067053632,
				"z": -1.5285467409,
				"element": "C" 
			},
			{
				"x": 0.7743361639,
				"y": 1.1850831292,
				"z": -2.5095102089,
				"element": "N" 
			},
			{
				"x": 1.7491263335,
				"y": 0.4258978976,
				"z": -0.396183488,
				"element": "C" 
			},
			{
				"x": 1.7849725825,
				"y": -0.7804061536,
				"z": 0.9248509481,
				"element": "S" 
			},
			{
				"x": 2.4768436145,
				"y": 1.4839655522,
				"z": -0.4241596891,
				"element": "N" 
			},
			{
				"x": 3.3789071724,
				"y": 1.7031403431,
				"z": 0.584497319,
				"element": "N" 
			},
			{
				"x": -1.3016527203,
				"y": -0.0800645329,
				"z": -2.7879730732,
				"element": "H" 
			},
			{
				"x": -1.4433034482,
				"y": -1.6909093133,
				"z": -2.4464282168,
				"element": "H" 
			},
			{
				"x": 1.541160579,
				"y": 1.8430730147,
				"z": -2.4363456283,
				"element": "H" 
			},
			{
				"x": 0.6406351091,
				"y": 0.8040386263,
				"z": -3.4405262248,
				"element": "H" 
			},
			{
				"x": 0.7314589773,
				"y": -1.4440104232,
				"z": 0.3929144157,
				"element": "H" 
			},
			{
				"x": 3.6045546264,
				"y": 2.6894024631,
				"z": 0.6260669281,
				"element": "H" 
			},
			{
				"x": 3.0812071442,
				"y": 1.3549776226,
				"z": 1.4978655481,
				"element": "H" 
			}
		],
		 "valence_orbital": [ 
			{
				"type": "occ",
				"energy": -0.28774,
				"method": "rhf"
			},
			{
				"type": "occ",
				"energy": -0.28189,
				"method": "rhf"
			},
			{
				"type": "occ",
				"energy": -0.27199,
				"method": "rhf"
			},
			{
				"type": "occ",
				"energy": -0.22256,
				"method": "rhf"
			},
			{
				"type": "occ",
				"energy": -0.20202,
				"method": "rhf"
			},
			{
				"type": "unocc",
				"energy": -0.02354,
				"method": "rhf"
			},
			{
				"type": "unocc",
				"energy": 0.0314,
				"method": "rhf"
			},
			{
				"type": "unocc",
				"energy": 0.06524,
				"method": "rhf"
			},
			{
				"type": "unocc",
				"energy": 0.07614,
				"method": "rhf"
			},
			{
				"type": "unocc",
				"energy": 0.09779,
				"method": "rhf"
			}
		],
		"cosmo_sigma_profile": { 
			"-0.025": 0.0,
			"-0.024": 0.0,
			"-0.023": 0.0,
			"-0.022": 0.0,
			"-0.021": 0.0,
			"-0.02": 0.0,
			"-0.019": 0.0,
			"-0.018": 0.0,
			"-0.017": 0.0,
			"-0.016": 0.0,
			"-0.015": 0.0,
			"-0.014": 0.231691486601,
			"-0.013": 1.25084363759,
			"-0.012": 3.53587646924,
			"-0.011": 5.8135986008,
			"-0.01": 6.96178066567,
			"-0.009": 6.83109900311,
			"-0.008": 5.42050872312,
			"-0.007": 6.81885464779,
			"-0.006": 6.50425672864,
			"-0.005": 5.24816369812,
			"-0.004": 4.22542077057,
			"-0.003": 5.77521061658,
			"-0.002": 5.79566454558,
			"-0.001": 6.10127952798,
			"0.0": 6.23012289251,
			"0.001": 8.72079442176,
			"0.002": 9.49068000392,
			"0.003": 10.3619597838,
			"0.004": 10.0038235143,
			"0.005": 9.80802294528,
			"0.006": 9.57760718933,
			"0.007": 8.36252273894,
			"0.008": 5.69486710422,
			"0.009": 3.61354102976,
			"0.01": 4.24883371552,
			"0.011": 1.97176444322,
			"0.012": 1.55479796912,
			"0.013": 1.55740118172,
			"0.014": 0.925080847742,
			"0.015": 0.279529621493,
			"0.016": 0.0,
			"0.017": 0.0,
			"0.018": 0.0,
			"0.019": 0.0,
			"0.02": 0.0,
			"0.021": 0.0,
			"0.022": 0.0,
			"0.023": 0.0,
			"0.024": 0.0,
			"0.025": 0.0
		}
	}
}
