{
	 "smiles": "COC(=O)C1=C(N)C=C(F)C(OC2=CC=C(F)C=C2)=C1", 
	 "Tm": 371.15, 
	 "num_atms": 31, 
	 "gaussian": { 
		 "optdone": 1, 
		 "sigma_profile": "yes", 
		 "theory": "DFT", 
		 "functional": "B3LYP", 
		 "basiset": "6-31G**", 
		 "properties": { 
			 "R2extent": 7827.2957, 
			 "electric_dipole_moment_norm": 5.24594498446, 
			 "electric_quadrupole_moment_norm": 16.3070290905, 
			 "total_energy": -1020.21142542, 
			 "HOMO_LUMO_gap": 0.16563, 
			 "cosmo_polarized_energy": -13.7, 
			 "cosmo_cavitation_energy": 37.2, 
			 "cosmo_dispersion_energy": -26.41, 
			 "cosmo_repulsion_energy": 1.98, 
			 "cosmo_total_nonelectrostatic_energy": 12.77, 
			 "SMD_solvation_energy": 8.89 
		},
		"coords": [
			{
				"x": -4.4975437216,
				"y": 2.7909383789,
				"z": 2.6329042348,
				"element": "C" 
			},
			{
				"x": -3.7894740029,
				"y": 1.8222028772,
				"z": 1.839829279,
				"element": "O" 
			},
			{
				"x": -2.5752555393,
				"y": 2.2376654365,
				"z": 1.3690762004,
				"element": "C" 
			},
			{
				"x": -2.1457318472,
				"y": 3.3464065177,
				"z": 1.6244955073,
				"element": "O" 
			},
			{
				"x": -1.8615591802,
				"y": 1.2256977636,
				"z": 0.555370442,
				"element": "C" 
			},
			{
				"x": -2.3510959101,
				"y": -0.0670316126,
				"z": 0.2074416639,
				"element": "C" 
			},
			{
				"x": -3.6006365547,
				"y": -0.5226605639,
				"z": 0.5411449617,
				"element": "N" 
			},
			{
				"x": -1.513507707,
				"y": -0.9060789184,
				"z": -0.5630546036,
				"element": "C" 
			},
			{
				"x": -0.2695169095,
				"y": -0.476973652,
				"z": -0.9737857667,
				"element": "C" 
			},
			{
				"x": 0.4985077437,
				"y": -1.2950659975,
				"z": -1.7106898806,
				"element": "F" 
			},
			{
				"x": 0.2259716428,
				"y": 0.7943882241,
				"z": -0.6400478973,
				"element": "C" 
			},
			{
				"x": 1.4317515613,
				"y": 1.243346191,
				"z": -1.1389671683,
				"element": "O" 
			},
			{
				"x": 2.6096480874,
				"y": 0.679682088,
				"z": -0.6827282841,
				"element": "C" 
			},
			{
				"x": 3.7513233438,
				"y": 0.9672180747,
				"z": -1.4369135699,
				"element": "C" 
			},
			{
				"x": 4.9909608054,
				"y": 0.4743435317,
				"z": -1.0382831706,
				"element": "C" 
			},
			{
				"x": 5.0694672078,
				"y": -0.3047230435,
				"z": 0.1119475182,
				"element": "C" 
			},
			{
				"x": 6.2715039089,
				"y": -0.7884305124,
				"z": 0.4988674813,
				"element": "F" 
			},
			{
				"x": 3.9446735464,
				"y": -0.5965033264,
				"z": 0.8716469762,
				"element": "C" 
			},
			{
				"x": 2.7023821175,
				"y": -0.0975369751,
				"z": 0.4735715901,
				"element": "C" 
			},
			{
				"x": -0.5806687312,
				"y": 1.6193203011,
				"z": 0.118258094,
				"element": "C" 
			},
			{
				"x": -3.918806953,
				"y": 3.0567657842,
				"z": 3.5203706846,
				"element": "H" 
			},
			{
				"x": -4.6875619656,
				"y": 3.695720732,
				"z": 2.0515088541,
				"element": "H" 
			},
			{
				"x": -5.4350352223,
				"y": 2.3112127606,
				"z": 2.9146029229,
				"element": "H" 
			},
			{
				"x": -4.1205693556,
				"y": -0.0057835938,
				"z": 1.2326171629,
				"element": "H" 
			},
			{
				"x": -3.7777661889,
				"y": -1.510839839,
				"z": 0.462479661,
				"element": "H" 
			},
			{
				"x": -1.8468394205,
				"y": -1.8954480523,
				"z": -0.8591733764,
				"element": "H" 
			},
			{
				"x": 3.6500161662,
				"y": 1.5752917637,
				"z": -2.3293522439,
				"element": "H" 
			},
			{
				"x": 5.8901114884,
				"y": 0.6832123046,
				"z": -1.607668091,
				"element": "H" 
			},
			{
				"x": 4.044133975,
				"y": -1.2032660439,
				"z": 1.765186865,
				"element": "H" 
			},
			{
				"x": 1.818422587,
				"y": -0.3076696185,
				"z": 1.0647667938,
				"element": "H" 
			},
			{
				"x": -0.2303049717,
				"y": 2.6090990197,
				"z": 0.3872771592,
				"element": "H" 
			}
		],
		 "valence_orbital": [ 
			{
				"type": "occ",
				"energy": -0.27975,
				"method": "rhf"
			},
			{
				"type": "occ",
				"energy": -0.26007,
				"method": "rhf"
			},
			{
				"type": "occ",
				"energy": -0.25804,
				"method": "rhf"
			},
			{
				"type": "occ",
				"energy": -0.22399,
				"method": "rhf"
			},
			{
				"type": "occ",
				"energy": -0.20948,
				"method": "rhf"
			},
			{
				"type": "unocc",
				"energy": -0.04385,
				"method": "rhf"
			},
			{
				"type": "unocc",
				"energy": -0.00944,
				"method": "rhf"
			},
			{
				"type": "unocc",
				"energy": -0.00169,
				"method": "rhf"
			},
			{
				"type": "unocc",
				"energy": 0.01745,
				"method": "rhf"
			},
			{
				"type": "unocc",
				"energy": 0.05632,
				"method": "rhf"
			}
		],
		"cosmo_sigma_profile": { 
			"-0.025": 0.0,
			"-0.024": 0.0,
			"-0.023": 0.0,
			"-0.022": 0.0,
			"-0.021": 0.0,
			"-0.02": 0.0,
			"-0.019": 0.0,
			"-0.018": 0.0,
			"-0.017": 0.0,
			"-0.016": 0.0,
			"-0.015": 0.0,
			"-0.014": 0.886633715477,
			"-0.013": 1.33798920066,
			"-0.012": 1.79494388673,
			"-0.011": 1.52647666266,
			"-0.01": 2.11073865552,
			"-0.009": 2.77056162511,
			"-0.008": 3.54106939745,
			"-0.007": 9.00092664079,
			"-0.006": 14.7478080668,
			"-0.005": 17.9556947547,
			"-0.004": 18.6837182803,
			"-0.003": 17.3648362634,
			"-0.002": 16.0957937576,
			"-0.001": 18.8574213275,
			"0.0": 20.0141866179,
			"0.001": 27.5200810577,
			"0.002": 30.2868381547,
			"0.003": 31.0203692201,
			"0.004": 29.3399651751,
			"0.005": 10.3969459344,
			"0.006": 3.62735239368,
			"0.007": 3.4024271046,
			"0.008": 3.60066619432,
			"0.009": 2.82850567686,
			"0.01": 2.44830348688,
			"0.011": 2.43442685625,
			"0.012": 4.30163434553,
			"0.013": 0.523000951192,
			"0.014": 0.0,
			"0.015": 0.0,
			"0.016": 0.0,
			"0.017": 0.0,
			"0.018": 0.0,
			"0.019": 0.0,
			"0.02": 0.0,
			"0.021": 0.0,
			"0.022": 0.0,
			"0.023": 0.0,
			"0.024": 0.0,
			"0.025": 0.0
		}
	}
}
