{
	 "smiles": "CCOC1=CC(=CC=C1OCC1=CC=CC=C1)C(=S)N1CCCCC1", 
	 "Tm": 345.15, 
	 "num_atms": 50, 
	 "gaussian": { 
		 "optdone": 1, 
		 "sigma_profile": "yes", 
		 "theory": "DFT", 
		 "functional": "B3LYP", 
		 "basiset": "6-31G**", 
		 "properties": { 
			 "R2extent": 12571.7517, 
			 "electric_dipole_moment_norm": 4.09947236971, 
			 "electric_quadrupole_moment_norm": 25.1070660604, 
			 "total_energy": -1418.68536965, 
			 "HOMO_LUMO_gap": 0.15138, 
			 "cosmo_polarized_energy": -17.2, 
			 "cosmo_cavitation_energy": 52.77, 
			 "cosmo_dispersion_energy": -36.13, 
			 "cosmo_repulsion_energy": 2.8, 
			 "cosmo_total_nonelectrostatic_energy": 19.43, 
			 "SMD_solvation_energy": 7.23 
		},
		"coords": [
			{
				"x": 1.5978037073,
				"y": 5.01213938,
				"z": -2.634003845,
				"element": "C" 
			},
			{
				"x": 0.470365322,
				"y": 4.0917245964,
				"z": -2.2033864473,
				"element": "C" 
			},
			{
				"x": 1.0660532098,
				"y": 2.9355794492,
				"z": -1.5868507373,
				"element": "O" 
			},
			{
				"x": 0.1908147429,
				"y": 1.9835538916,
				"z": -1.1246893543,
				"element": "C" 
			},
			{
				"x": 0.042449406,
				"y": 1.814528613,
				"z": 0.2472164912,
				"element": "C" 
			},
			{
				"x": -0.8070553063,
				"y": 0.8268039839,
				"z": 0.7766025408,
				"element": "C" 
			},
			{
				"x": -1.5117303494,
				"y": 0.0119804503,
				"z": -0.1146872276,
				"element": "C" 
			},
			{
				"x": -1.3537771847,
				"y": 0.1515192844,
				"z": -1.493517401,
				"element": "C" 
			},
			{
				"x": -0.5104679415,
				"y": 1.1381986775,
				"z": -2.0142168281,
				"element": "C" 
			},
			{
				"x": -0.2965646665,
				"y": 1.3690942545,
				"z": -3.3449948984,
				"element": "O" 
			},
			{
				"x": -1.0319437515,
				"y": 0.6176707448,
				"z": -4.3111308508,
				"element": "C" 
			},
			{
				"x": -0.5107600031,
				"y": -0.7902384179,
				"z": -4.524941777,
				"element": "C" 
			},
			{
				"x": 0.852607731,
				"y": -1.0759019222,
				"z": -4.3869863097,
				"element": "C" 
			},
			{
				"x": 1.3312139373,
				"y": -2.3616603937,
				"z": -4.6391464064,
				"element": "C" 
			},
			{
				"x": 0.4551639125,
				"y": -3.3732610696,
				"z": -5.0395461355,
				"element": "C" 
			},
			{
				"x": -0.9049406506,
				"y": -3.0938350239,
				"z": -5.1812453359,
				"element": "C" 
			},
			{
				"x": -1.3848952646,
				"y": -1.8091014336,
				"z": -4.9204954591,
				"element": "C" 
			},
			{
				"x": -1.0206974052,
				"y": 0.7128511964,
				"z": 2.251088688,
				"element": "C" 
			},
			{
				"x": -2.5917189765,
				"y": 0.7582995167,
				"z": 2.8483399573,
				"element": "S" 
			},
			{
				"x": 0.0876042541,
				"y": 0.6300233807,
				"z": 3.0337338634,
				"element": "N" 
			},
			{
				"x": 1.4000850379,
				"y": 0.1493294714,
				"z": 2.5656676203,
				"element": "C" 
			},
			{
				"x": 1.7018838621,
				"y": -1.2435550381,
				"z": 3.1449882926,
				"element": "C" 
			},
			{
				"x": 1.5962371522,
				"y": -1.2578242451,
				"z": 4.6762770785,
				"element": "C" 
			},
			{
				"x": 0.2485034285,
				"y": -0.6797834598,
				"z": 5.1322420426,
				"element": "C" 
			},
			{
				"x": 0.0067259345,
				"y": 0.6964394204,
				"z": 4.5003561541,
				"element": "C" 
			},
			{
				"x": 1.1909107612,
				"y": 5.9151408707,
				"z": -3.1001166823,
				"element": "H" 
			},
			{
				"x": 2.2053897761,
				"y": 5.3089270422,
				"z": -1.7741104581,
				"element": "H" 
			},
			{
				"x": 2.2472117595,
				"y": 4.5105206243,
				"z": -3.3572327548,
				"element": "H" 
			},
			{
				"x": -0.1887609782,
				"y": 4.5879758336,
				"z": -1.4770216491,
				"element": "H" 
			},
			{
				"x": -0.1358294334,
				"y": 3.7834738991,
				"z": -3.0622384073,
				"element": "H" 
			},
			{
				"x": 0.5925182039,
				"y": 2.485496501,
				"z": 0.899380368,
				"element": "H" 
			},
			{
				"x": -2.18788124,
				"y": -0.7396409242,
				"z": 0.2773147742,
				"element": "H" 
			},
			{
				"x": -1.8775629578,
				"y": -0.5265452704,
				"z": -2.1557507411,
				"element": "H" 
			},
			{
				"x": -2.0995538522,
				"y": 0.6035603866,
				"z": -4.056273353,
				"element": "H" 
			},
			{
				"x": -0.9234908746,
				"y": 1.2009830969,
				"z": -5.2319938219,
				"element": "H" 
			},
			{
				"x": 1.5301460863,
				"y": -0.288186885,
				"z": -4.0722173722,
				"element": "H" 
			},
			{
				"x": 2.3903784584,
				"y": -2.5740751513,
				"z": -4.5238416137,
				"element": "H" 
			},
			{
				"x": 0.8297181738,
				"y": -4.373697618,
				"z": -5.2359824694,
				"element": "H" 
			},
			{
				"x": -1.5941398975,
				"y": -3.8762717493,
				"z": -5.4858971628,
				"element": "H" 
			},
			{
				"x": -2.4472166175,
				"y": -1.5984821396,
				"z": -5.0244554356,
				"element": "H" 
			},
			{
				"x": 2.1655220764,
				"y": 0.8660743831,
				"z": 2.8940688271,
				"element": "H" 
			},
			{
				"x": 1.4138429649,
				"y": 0.1225251639,
				"z": 1.4788685228,
				"element": "H" 
			},
			{
				"x": 2.7032007727,
				"y": -1.5501751322,
				"z": 2.8198074684,
				"element": "H" 
			},
			{
				"x": 0.9903859919,
				"y": -1.9602983659,
				"z": 2.7156143216,
				"element": "H" 
			},
			{
				"x": 1.7298593258,
				"y": -2.276318808,
				"z": 5.0579084524,
				"element": "H" 
			},
			{
				"x": 2.4114939254,
				"y": -0.6541684866,
				"z": 5.1004162836,
				"element": "H" 
			},
			{
				"x": 0.2148887743,
				"y": -0.5855832508,
				"z": 6.2238442427,
				"element": "H" 
			},
			{
				"x": -0.5716391422,
				"y": -1.3462870002,
				"z": 4.8395845489,
				"element": "H" 
			},
			{
				"x": -0.9725756676,
				"y": 1.0916996777,
				"z": 4.7665056815,
				"element": "H" 
			},
			{
				"x": 0.7812234725,
				"y": 1.4017779952,
				"z": 4.8341447146,
				"element": "H" 
			}
		],
		 "valence_orbital": [ 
			{
				"type": "occ",
				"energy": -0.25071,
				"method": "rhf"
			},
			{
				"type": "occ",
				"energy": -0.24247,
				"method": "rhf"
			},
			{
				"type": "occ",
				"energy": -0.22231,
				"method": "rhf"
			},
			{
				"type": "occ",
				"energy": -0.21057,
				"method": "rhf"
			},
			{
				"type": "occ",
				"energy": -0.18712,
				"method": "rhf"
			},
			{
				"type": "unocc",
				"energy": -0.03574,
				"method": "rhf"
			},
			{
				"type": "unocc",
				"energy": -0.01147,
				"method": "rhf"
			},
			{
				"type": "unocc",
				"energy": -0.00825,
				"method": "rhf"
			},
			{
				"type": "unocc",
				"energy": 0.00198,
				"method": "rhf"
			},
			{
				"type": "unocc",
				"energy": 0.02316,
				"method": "rhf"
			}
		],
		"cosmo_sigma_profile": { 
			"-0.025": 0.0,
			"-0.024": 0.0,
			"-0.023": 0.0,
			"-0.022": 0.0,
			"-0.021": 0.0,
			"-0.02": 0.0,
			"-0.019": 0.0,
			"-0.018": 0.0,
			"-0.017": 0.0,
			"-0.016": 0.0,
			"-0.015": 0.0,
			"-0.014": 0.0,
			"-0.013": 0.0,
			"-0.012": 0.0,
			"-0.011": 0.0,
			"-0.01": 0.0,
			"-0.009": 0.0,
			"-0.008": 0.00715897146209,
			"-0.007": 3.42352436739,
			"-0.006": 14.5141845987,
			"-0.005": 27.8710279277,
			"-0.004": 38.4747264288,
			"-0.003": 56.8651044788,
			"-0.002": 49.0280560948,
			"-0.001": 42.1596270993,
			"0.0": 36.2019582065,
			"0.001": 24.9573529591,
			"0.002": 19.926733733,
			"0.003": 18.1385480183,
			"0.004": 18.8077107164,
			"0.005": 16.311782196,
			"0.006": 12.0039351018,
			"0.007": 7.36583251417,
			"0.008": 6.43808965298,
			"0.009": 9.46396941522,
			"0.01": 8.25990501487,
			"0.011": 4.38685082867,
			"0.012": 2.67086643443,
			"0.013": 1.28533265868,
			"0.014": 0.0645802728913,
			"0.015": 0.0,
			"0.016": 0.0,
			"0.017": 0.0,
			"0.018": 0.0,
			"0.019": 0.0,
			"0.02": 0.0,
			"0.021": 0.0,
			"0.022": 0.0,
			"0.023": 0.0,
			"0.024": 0.0,
			"0.025": 0.0
		}
	}
}
