{
	 "smiles": "CCCCC#CCCCC", 
	 "Tm": 200.15, 
	 "num_atms": 28, 
	 "gaussian": { 
		 "optdone": 1, 
		 "sigma_profile": "yes", 
		 "theory": "DFT", 
		 "functional": "B3LYP", 
		 "basiset": "6-31G**", 
		 "properties": { 
			 "R2extent": 2592.5108, 
			 "electric_dipole_moment_norm": 0.157421853629, 
			 "electric_quadrupole_moment_norm": 3.75628973723, 
			 "total_energy": -391.874521672, 
			 "HOMO_LUMO_gap": 0.29236, 
			 "cosmo_polarized_energy": -3.0, 
			 "cosmo_cavitation_energy": 29.97, 
			 "cosmo_dispersion_energy": -20.48, 
			 "cosmo_repulsion_energy": 1.75, 
			 "cosmo_total_nonelectrostatic_energy": 11.24, 
			 "SMD_solvation_energy": 4.89 
		},
		"coords": [
			{
				"x": 3.7123408007,
				"y": 0.9126822076,
				"z": -1.0223436498,
				"element": "C" 
			},
			{
				"x": 2.6940375256,
				"y": 1.0925753511,
				"z": 0.1094815203,
				"element": "C" 
			},
			{
				"x": 2.2398811032,
				"y": -0.2186420193,
				"z": 0.7675684004,
				"element": "C" 
			},
			{
				"x": 1.4646819684,
				"y": -1.1790949695,
				"z": -0.1650570528,
				"element": "C" 
			},
			{
				"x": 0.2302468098,
				"y": -0.6049006938,
				"z": -0.7070497513,
				"element": "C" 
			},
			{
				"x": -0.7905685965,
				"y": -0.1166682836,
				"z": -1.1392442993,
				"element": "C" 
			},
			{
				"x": -2.0063808624,
				"y": 0.4748119709,
				"z": -1.7054037471,
				"element": "C" 
			},
			{
				"x": -2.6536763432,
				"y": 1.6116142437,
				"z": -0.8767069947,
				"element": "C" 
			},
			{
				"x": -3.4353770424,
				"y": 1.1707493969,
				"z": 0.3721965933,
				"element": "C" 
			},
			{
				"x": -2.5873920281,
				"y": 0.6445893636,
				"z": 1.536221698,
				"element": "C" 
			},
			{
				"x": 4.6018082955,
				"y": 0.3731492257,
				"z": -0.6755434377,
				"element": "H" 
			},
			{
				"x": 4.0432510608,
				"y": 1.881769609,
				"z": -1.4099957277,
				"element": "H" 
			},
			{
				"x": 3.2912061383,
				"y": 0.353605186,
				"z": -1.864454413,
				"element": "H" 
			},
			{
				"x": 1.8120532886,
				"y": 1.6223299818,
				"z": -0.2706887887,
				"element": "H" 
			},
			{
				"x": 3.1296467962,
				"y": 1.7345674053,
				"z": 0.8856187271,
				"element": "H" 
			},
			{
				"x": 1.6042324671,
				"y": 0.01325476,
				"z": 1.6302545816,
				"element": "H" 
			},
			{
				"x": 3.1143723107,
				"y": -0.7576417655,
				"z": 1.1561079511,
				"element": "H" 
			},
			{
				"x": 1.2263828539,
				"y": -2.0952110137,
				"z": 0.3914551853,
				"element": "H" 
			},
			{
				"x": 2.1130764981,
				"y": -1.4944256191,
				"z": -0.9931897128,
				"element": "H" 
			},
			{
				"x": -1.7639819068,
				"y": 0.8689076159,
				"z": -2.7017513728,
				"element": "H" 
			},
			{
				"x": -2.7539183044,
				"y": -0.3140016198,
				"z": -1.8722319891,
				"element": "H" 
			},
			{
				"x": -1.8790045495,
				"y": 2.3367435587,
				"z": -0.5974262118,
				"element": "H" 
			},
			{
				"x": -3.3462059546,
				"y": 2.13920299,
				"z": -1.5446566631,
				"element": "H" 
			},
			{
				"x": -4.0222462047,
				"y": 2.0300297332,
				"z": 0.7225575854,
				"element": "H" 
			},
			{
				"x": -4.1696982537,
				"y": 0.4072658534,
				"z": 0.0789252436,
				"element": "H" 
			},
			{
				"x": -3.220248825,
				"y": 0.4022915708,
				"z": 2.396975972,
				"element": "H" 
			},
			{
				"x": -1.8574649084,
				"y": 1.3953358211,
				"z": 1.8603589363,
				"element": "H" 
			},
			{
				"x": -2.0305541372,
				"y": -0.2537898605,
				"z": 1.2597214172,
				"element": "H" 
			}
		],
		 "valence_orbital": [ 
			{
				"type": "occ",
				"energy": -0.32594,
				"method": "rhf"
			},
			{
				"type": "occ",
				"energy": -0.32291,
				"method": "rhf"
			},
			{
				"type": "occ",
				"energy": -0.32274,
				"method": "rhf"
			},
			{
				"type": "occ",
				"energy": -0.23998,
				"method": "rhf"
			},
			{
				"type": "occ",
				"energy": -0.23654,
				"method": "rhf"
			},
			{
				"type": "unocc",
				"energy": 0.05582,
				"method": "rhf"
			},
			{
				"type": "unocc",
				"energy": 0.06538,
				"method": "rhf"
			},
			{
				"type": "unocc",
				"energy": 0.0896,
				"method": "rhf"
			},
			{
				"type": "unocc",
				"energy": 0.11095,
				"method": "rhf"
			},
			{
				"type": "unocc",
				"energy": 0.12411,
				"method": "rhf"
			}
		],
		"cosmo_sigma_profile": { 
			"-0.025": 0.0,
			"-0.024": 0.0,
			"-0.023": 0.0,
			"-0.022": 0.0,
			"-0.021": 0.0,
			"-0.02": 0.0,
			"-0.019": 0.0,
			"-0.018": 0.0,
			"-0.017": 0.0,
			"-0.016": 0.0,
			"-0.015": 0.0,
			"-0.014": 0.0,
			"-0.013": 0.0,
			"-0.012": 0.0,
			"-0.011": 0.0,
			"-0.01": 0.0,
			"-0.009": 0.0,
			"-0.008": 0.0,
			"-0.007": 0.0,
			"-0.006": 0.0,
			"-0.005": 1.94139326804,
			"-0.004": 8.4227681344,
			"-0.003": 18.5673890207,
			"-0.002": 37.6301144034,
			"-0.001": 42.3223239094,
			"0.0": 39.8294004272,
			"0.001": 36.3142655397,
			"0.002": 19.27613623,
			"0.003": 6.32398368787,
			"0.004": 4.96511069252,
			"0.005": 5.29236791815,
			"0.006": 4.50257623272,
			"0.007": 4.25630259342,
			"0.008": 2.62514388277,
			"0.009": 0.0167160977148,
			"0.01": 0.0,
			"0.011": 0.0,
			"0.012": 0.0,
			"0.013": 0.0,
			"0.014": 0.0,
			"0.015": 0.0,
			"0.016": 0.0,
			"0.017": 0.0,
			"0.018": 0.0,
			"0.019": 0.0,
			"0.02": 0.0,
			"0.021": 0.0,
			"0.022": 0.0,
			"0.023": 0.0,
			"0.024": 0.0,
			"0.025": 0.0
		}
	}
}
