{
	 "smiles": "OC(=O)CN1C=CC(=O)C(=C1)[N+]([O-])=O", 
	 "Tm": 523.15, 
	 "num_atms": 20, 
	 "gaussian": { 
		 "optdone": 1, 
		 "sigma_profile": "yes", 
		 "theory": "DFT", 
		 "functional": "B3LYP", 
		 "basiset": "6-31G**", 
		 "properties": { 
			 "R2extent": 3577.149, 
			 "electric_dipole_moment_norm": 7.87235284651, 
			 "electric_quadrupole_moment_norm": 25.904030592, 
			 "total_energy": -755.862914437, 
			 "HOMO_LUMO_gap": 0.15706, 
			 "cosmo_polarized_energy": -31.5, 
			 "cosmo_cavitation_energy": 26.62, 
			 "cosmo_dispersion_energy": -18.9, 
			 "cosmo_repulsion_energy": 1.51, 
			 "cosmo_total_nonelectrostatic_energy": 9.23, 
			 "SMD_solvation_energy": 9.31 
		},
		"coords": [
			{
				"x": 1.3825414449,
				"y": 1.3721206063,
				"z": 1.6589709514,
				"element": "O" 
			},
			{
				"x": 0.9953494267,
				"y": 2.4729844634,
				"z": 0.992234311,
				"element": "C" 
			},
			{
				"x": 1.5692293633,
				"y": 3.5346640498,
				"z": 1.0202836324,
				"element": "O" 
			},
			{
				"x": -0.2928072533,
				"y": 2.2623296942,
				"z": 0.1936619732,
				"element": "C" 
			},
			{
				"x": -0.7364566699,
				"y": 0.881635236,
				"z": 0.0507813846,
				"element": "N" 
			},
			{
				"x": -0.209318234,
				"y": 0.0804342602,
				"z": -0.951334629,
				"element": "C" 
			},
			{
				"x": -0.5423724142,
				"y": -1.2231000591,
				"z": -1.0640598157,
				"element": "C" 
			},
			{
				"x": -1.4682985552,
				"y": -1.9047762337,
				"z": -0.1423020145,
				"element": "C" 
			},
			{
				"x": -1.787102853,
				"y": -3.0781178242,
				"z": -0.2858912076,
				"element": "O" 
			},
			{
				"x": -1.952911444,
				"y": -0.9831622146,
				"z": 0.9106750854,
				"element": "C" 
			},
			{
				"x": -1.5851248347,
				"y": 0.3303305341,
				"z": 0.9575586019,
				"element": "C" 
			},
			{
				"x": -2.8604430361,
				"y": -1.4194375517,
				"z": 1.9710354748,
				"element": "N" 
			},
			{
				"x": -3.4550420864,
				"y": -0.5380533685,
				"z": 2.6085027998,
				"element": "O" 
			},
			{
				"x": -2.9655487673,
				"y": -2.6209814508,
				"z": 2.1765636766,
				"element": "O" 
			},
			{
				"x": 2.1894671434,
				"y": 1.6051179764,
				"z": 2.1498505781,
				"element": "H" 
			},
			{
				"x": -1.0786240803,
				"y": 2.8443992326,
				"z": 0.6835105546,
				"element": "H" 
			},
			{
				"x": -0.1414172932,
				"y": 2.7061625875,
				"z": -0.7931679525,
				"element": "H" 
			},
			{
				"x": 0.4719323757,
				"y": 0.5781939268,
				"z": -1.6326192229,
				"element": "H" 
			},
			{
				"x": -0.128905415,
				"y": -1.8225956962,
				"z": -1.8667812208,
				"element": "H" 
			},
			{
				"x": -1.9769468174,
				"y": 0.9745518316,
				"z": 1.7348270393,
				"element": "H" 
			}
		],
		 "valence_orbital": [ 
			{
				"type": "occ",
				"energy": -0.30536,
				"method": "rhf"
			},
			{
				"type": "occ",
				"energy": -0.2999,
				"method": "rhf"
			},
			{
				"type": "occ",
				"energy": -0.28275,
				"method": "rhf"
			},
			{
				"type": "occ",
				"energy": -0.25013,
				"method": "rhf"
			},
			{
				"type": "occ",
				"energy": -0.24196,
				"method": "rhf"
			},
			{
				"type": "unocc",
				"energy": -0.0849,
				"method": "rhf"
			},
			{
				"type": "unocc",
				"energy": -0.04464,
				"method": "rhf"
			},
			{
				"type": "unocc",
				"energy": -0.03521,
				"method": "rhf"
			},
			{
				"type": "unocc",
				"energy": -0.01022,
				"method": "rhf"
			},
			{
				"type": "unocc",
				"energy": 0.03272,
				"method": "rhf"
			}
		],
		"cosmo_sigma_profile": { 
			"-0.025": 0.0,
			"-0.024": 0.0,
			"-0.023": 0.0,
			"-0.022": 0.0,
			"-0.021": 0.0,
			"-0.02": 0.11539771295,
			"-0.019": 0.975442978127,
			"-0.018": 0.743920662434,
			"-0.017": 1.20342151293,
			"-0.016": 0.923076156437,
			"-0.015": 1.0364871164,
			"-0.014": 1.65949221158,
			"-0.013": 2.79446395798,
			"-0.012": 5.27445602024,
			"-0.011": 6.08119007027,
			"-0.01": 7.35654431528,
			"-0.009": 6.58021718815,
			"-0.008": 7.75458754906,
			"-0.007": 7.88164880509,
			"-0.006": 8.21247491467,
			"-0.005": 8.17488327649,
			"-0.004": 10.1503475028,
			"-0.003": 10.7388153221,
			"-0.002": 10.7514265018,
			"-0.001": 8.96376323127,
			"0.0": 8.81477095769,
			"0.001": 8.91456834953,
			"0.002": 6.60895971786,
			"0.003": 5.89187275091,
			"0.004": 4.89353760327,
			"0.005": 6.45751680405,
			"0.006": 5.55392879512,
			"0.007": 7.02182412973,
			"0.008": 11.0946262195,
			"0.009": 8.79138450981,
			"0.01": 8.76681777929,
			"0.011": 8.18446622714,
			"0.012": 2.72943805415,
			"0.013": 5.26478291341,
			"0.014": 4.11884172878,
			"0.015": 1.71858522863,
			"0.016": 0.842803149658,
			"0.017": 7.50184601771e-05,
			"0.018": 0.0,
			"0.019": 0.0,
			"0.02": 0.0,
			"0.021": 0.0,
			"0.022": 0.0,
			"0.023": 0.0,
			"0.024": 0.0,
			"0.025": 0.0
		}
	}
}
