{
	 "smiles": "CC(C)C1=CC(OCC(O)=O)=CC=C1", 
	 "Tm": 339.15, 
	 "num_atms": 28, 
	 "gaussian": { 
		 "optdone": 1, 
		 "sigma_profile": "yes", 
		 "theory": "DFT", 
		 "functional": "B3LYP", 
		 "basiset": "6-31G**", 
		 "properties": { 
			 "R2extent": 4365.9639, 
			 "electric_dipole_moment_norm": 4.26532008998, 
			 "electric_quadrupole_moment_norm": 21.3109746251, 
			 "total_energy": -653.27805277, 
			 "HOMO_LUMO_gap": 0.23201, 
			 "cosmo_polarized_energy": -17.64, 
			 "cosmo_cavitation_energy": 31.56, 
			 "cosmo_dispersion_energy": -22.11, 
			 "cosmo_repulsion_energy": 1.78, 
			 "cosmo_total_nonelectrostatic_energy": 11.23, 
			 "SMD_solvation_energy": 6.79 
		},
		"coords": [
			{
				"x": -2.7925729245,
				"y": -1.5518246025,
				"z": -0.6332912502,
				"element": "C" 
			},
			{
				"x": -1.3930024292,
				"y": -1.8669828182,
				"z": -0.0727242923,
				"element": "C" 
			},
			{
				"x": -1.4830039514,
				"y": -2.4145273868,
				"z": 1.3642758149,
				"element": "C" 
			},
			{
				"x": -0.4592796739,
				"y": -0.6666141623,
				"z": -0.1639514018,
				"element": "C" 
			},
			{
				"x": -0.7413724456,
				"y": 0.524751196,
				"z": 0.5203219758,
				"element": "C" 
			},
			{
				"x": 0.1259306639,
				"y": 1.6136231693,
				"z": 0.4338399914,
				"element": "C" 
			},
			{
				"x": -0.1537669936,
				"y": 2.7611636062,
				"z": 1.1717634761,
				"element": "O" 
			},
			{
				"x": -1.0501589974,
				"y": 3.6701686353,
				"z": 0.5874249233,
				"element": "C" 
			},
			{
				"x": -0.3774209365,
				"y": 4.6569001265,
				"z": -0.3781119498,
				"element": "C" 
			},
			{
				"x": -1.2383980351,
				"y": 5.5397519278,
				"z": -0.9543555305,
				"element": "O" 
			},
			{
				"x": 0.7980539375,
				"y": 4.6980291527,
				"z": -0.6224017497,
				"element": "O" 
			},
			{
				"x": 1.2955405157,
				"y": 1.5472655872,
				"z": -0.32432152,
				"element": "C" 
			},
			{
				"x": 1.5821876922,
				"y": 0.3633583624,
				"z": -1.0025408109,
				"element": "C" 
			},
			{
				"x": 0.7144575582,
				"y": -0.7286000838,
				"z": -0.9257987083,
				"element": "C" 
			},
			{
				"x": -3.4265733192,
				"y": -2.4450151912,
				"z": -0.6153649278,
				"element": "H" 
			},
			{
				"x": -3.2938439216,
				"y": -0.7789049219,
				"z": -0.0398966815,
				"element": "H" 
			},
			{
				"x": -2.7351117169,
				"y": -1.1952349007,
				"z": -1.6664729376,
				"element": "H" 
			},
			{
				"x": -0.958592448,
				"y": -2.6569234941,
				"z": -0.6991897807,
				"element": "H" 
			},
			{
				"x": -2.1097852642,
				"y": -3.3124569811,
				"z": 1.3975444455,
				"element": "H" 
			},
			{
				"x": -0.4931081636,
				"y": -2.6742294472,
				"z": 1.7516618442,
				"element": "H" 
			},
			{
				"x": -1.9232837021,
				"y": -1.6766188243,
				"z": 2.0440289056,
				"element": "H" 
			},
			{
				"x": -1.627118092,
				"y": 0.6135080513,
				"z": 1.1434820557,
				"element": "H" 
			},
			{
				"x": -1.4998234539,
				"y": 4.251261456,
				"z": 1.4033114605,
				"element": "H" 
			},
			{
				"x": -1.8663367135,
				"y": 3.1548777818,
				"z": 0.0565491619,
				"element": "H" 
			},
			{
				"x": -2.1484850223,
				"y": 5.3715564653,
				"z": -0.6681524681,
				"element": "H" 
			},
			{
				"x": 1.9391839235,
				"y": 2.4169745377,
				"z": -0.3763333171,
				"element": "H" 
			},
			{
				"x": 2.4877040419,
				"y": 0.2923042928,
				"z": -1.598460155,
				"element": "H" 
			},
			{
				"x": 0.9530798716,
				"y": -1.6440615343,
				"z": -1.4613365736,
				"element": "H" 
			}
		],
		 "valence_orbital": [ 
			{
				"type": "occ",
				"energy": -0.32412,
				"method": "rhf"
			},
			{
				"type": "occ",
				"energy": -0.29583,
				"method": "rhf"
			},
			{
				"type": "occ",
				"energy": -0.27172,
				"method": "rhf"
			},
			{
				"type": "occ",
				"energy": -0.2449,
				"method": "rhf"
			},
			{
				"type": "occ",
				"energy": -0.23669,
				"method": "rhf"
			},
			{
				"type": "unocc",
				"energy": -0.00468,
				"method": "rhf"
			},
			{
				"type": "unocc",
				"energy": 0.00325,
				"method": "rhf"
			},
			{
				"type": "unocc",
				"energy": 0.00559,
				"method": "rhf"
			},
			{
				"type": "unocc",
				"energy": 0.04397,
				"method": "rhf"
			},
			{
				"type": "unocc",
				"energy": 0.08466,
				"method": "rhf"
			}
		],
		"cosmo_sigma_profile": { 
			"-0.025": 0.0,
			"-0.024": 0.0,
			"-0.023": 0.0,
			"-0.022": 0.0,
			"-0.021": 0.00726141055298,
			"-0.02": 0.686368388987,
			"-0.019": 0.865104456451,
			"-0.018": 1.56868865256,
			"-0.017": 1.25062821808,
			"-0.016": 1.00917713559,
			"-0.015": 1.05692322266,
			"-0.014": 0.882229314588,
			"-0.013": 1.21633212275,
			"-0.012": 1.7546618841,
			"-0.011": 1.74631054142,
			"-0.01": 1.72628063406,
			"-0.009": 2.55432928666,
			"-0.008": 3.40925582173,
			"-0.007": 3.94172796754,
			"-0.006": 4.19444323398,
			"-0.005": 10.9349997749,
			"-0.004": 14.019038716,
			"-0.003": 20.5237449121,
			"-0.002": 22.9314653299,
			"-0.001": 21.3792462311,
			"0.0": 19.9851174555,
			"0.001": 22.2713198871,
			"0.002": 14.1230073653,
			"0.003": 10.5383734282,
			"0.004": 12.4224663814,
			"0.005": 13.0339040096,
			"0.006": 7.46093018669,
			"0.007": 3.65187565724,
			"0.008": 4.25750251734,
			"0.009": 5.02903409028,
			"0.01": 8.18892930268,
			"0.011": 6.64784464808,
			"0.012": 2.48129430379,
			"0.013": 0.468163935998,
			"0.014": 0.0,
			"0.015": 0.0,
			"0.016": 0.0,
			"0.017": 0.0,
			"0.018": 0.0,
			"0.019": 0.0,
			"0.02": 0.0,
			"0.021": 0.0,
			"0.022": 0.0,
			"0.023": 0.0,
			"0.024": 0.0,
			"0.025": 0.0
		}
	}
}
