{
	 "smiles": "CC1=CC=C(OC2=CC=C(O)C=C2)C=C1", 
	 "Tm": 345.15, 
	 "num_atms": 27, 
	 "gaussian": { 
		 "optdone": 1, 
		 "sigma_profile": "yes", 
		 "theory": "DFT", 
		 "functional": "B3LYP", 
		 "basiset": "6-31G**", 
		 "properties": { 
			 "R2extent": 4510.1725, 
			 "electric_dipole_moment_norm": 1.23651759793, 
			 "electric_quadrupole_moment_norm": 17.1955251705, 
			 "total_energy": -653.054799935, 
			 "HOMO_LUMO_gap": 0.19352, 
			 "cosmo_polarized_energy": -10.36, 
			 "cosmo_cavitation_energy": 31.28, 
			 "cosmo_dispersion_energy": -22.71, 
			 "cosmo_repulsion_energy": 1.78, 
			 "cosmo_total_nonelectrostatic_energy": 10.35, 
			 "SMD_solvation_energy": 5.89 
		},
		"coords": [
			{
				"x": -0.120072228,
				"y": -0.809336589,
				"z": 5.0657543907,
				"element": "C" 
			},
			{
				"x": 0.2909561145,
				"y": -0.4525914897,
				"z": 3.6561137905,
				"element": "C" 
			},
			{
				"x": 1.5151821281,
				"y": 0.1823508521,
				"z": 3.3986981611,
				"element": "C" 
			},
			{
				"x": 1.8889243768,
				"y": 0.5435833971,
				"z": 2.1075740161,
				"element": "C" 
			},
			{
				"x": 1.0366572832,
				"y": 0.2654953501,
				"z": 1.0348571603,
				"element": "C" 
			},
			{
				"x": 1.5055911314,
				"y": 0.6039209704,
				"z": -0.2190050746,
				"element": "O" 
			},
			{
				"x": 0.618048603,
				"y": 0.8031421439,
				"z": -1.2642499402,
				"element": "C" 
			},
			{
				"x": 0.8286190916,
				"y": 0.0933555745,
				"z": -2.4442734535,
				"element": "C" 
			},
			{
				"x": 0.0181217913,
				"y": 0.331673839,
				"z": -3.5555587088,
				"element": "C" 
			},
			{
				"x": -1.0117444702,
				"y": 1.2742320168,
				"z": -3.482991891,
				"element": "C" 
			},
			{
				"x": -1.8437360386,
				"y": 1.5483610879,
				"z": -4.5339186561,
				"element": "O" 
			},
			{
				"x": -1.2210093846,
				"y": 1.9843017185,
				"z": -2.2941118272,
				"element": "C" 
			},
			{
				"x": -0.4055032145,
				"y": 1.7543010896,
				"z": -1.1906202131,
				"element": "C" 
			},
			{
				"x": -0.1832978374,
				"y": -0.375540494,
				"z": 1.2606117373,
				"element": "C" 
			},
			{
				"x": -0.5416778742,
				"y": -0.7235624572,
				"z": 2.5645686396,
				"element": "C" 
			},
			{
				"x": -0.5181240018,
				"y": 0.0618669214,
				"z": 5.6015353916,
				"element": "H" 
			},
			{
				"x": 0.7277214888,
				"y": -1.1848607357,
				"z": 5.6482144859,
				"element": "H" 
			},
			{
				"x": -0.8981009438,
				"y": -1.5784722495,
				"z": 5.0722338864,
				"element": "H" 
			},
			{
				"x": 2.188365055,
				"y": 0.4014906786,
				"z": 4.2241849983,
				"element": "H" 
			},
			{
				"x": 2.8363571356,
				"y": 1.0343384347,
				"z": 1.9095635544,
				"element": "H" 
			},
			{
				"x": 1.631894661,
				"y": -0.6346734822,
				"z": -2.4861464724,
				"element": "H" 
			},
			{
				"x": 0.1879469208,
				"y": -0.2214881696,
				"z": -4.4769018877,
				"element": "H" 
			},
			{
				"x": -1.5911160425,
				"y": 1.0008546043,
				"z": -5.2882680561,
				"element": "H" 
			},
			{
				"x": -2.019200992,
				"y": 2.7181321722,
				"z": -2.2560350609,
				"element": "H" 
			},
			{
				"x": -0.5570585603,
				"y": 2.3104075486,
				"z": -0.2713382622,
				"element": "H" 
			},
			{
				"x": -0.8413131174,
				"y": -0.605830805,
				"z": 0.4302130175,
				"element": "H" 
			},
			{
				"x": -1.492231076,
				"y": -1.2250519278,
				"z": 2.730396274,
				"element": "H" 
			}
		],
		 "valence_orbital": [ 
			{
				"type": "occ",
				"energy": -0.30787,
				"method": "rhf"
			},
			{
				"type": "occ",
				"energy": -0.25754,
				"method": "rhf"
			},
			{
				"type": "occ",
				"energy": -0.24638,
				"method": "rhf"
			},
			{
				"type": "occ",
				"energy": -0.22655,
				"method": "rhf"
			},
			{
				"type": "occ",
				"energy": -0.20363,
				"method": "rhf"
			},
			{
				"type": "unocc",
				"energy": -0.01011,
				"method": "rhf"
			},
			{
				"type": "unocc",
				"energy": 0.00401,
				"method": "rhf"
			},
			{
				"type": "unocc",
				"energy": 0.00815,
				"method": "rhf"
			},
			{
				"type": "unocc",
				"energy": 0.02218,
				"method": "rhf"
			},
			{
				"type": "unocc",
				"energy": 0.06846,
				"method": "rhf"
			}
		],
		"cosmo_sigma_profile": { 
			"-0.025": 0.0,
			"-0.024": 0.0,
			"-0.023": 0.0,
			"-0.022": 0.0,
			"-0.021": 0.0,
			"-0.02": 0.0,
			"-0.019": 0.0,
			"-0.018": 0.283651254134,
			"-0.017": 1.30447850175,
			"-0.016": 0.933112945642,
			"-0.015": 0.961033586407,
			"-0.014": 1.11645078587,
			"-0.013": 1.16161539842,
			"-0.012": 0.861834257685,
			"-0.011": 0.899261947056,
			"-0.01": 1.12071030954,
			"-0.009": 0.920544513381,
			"-0.008": 1.29905900513,
			"-0.007": 2.66971795016,
			"-0.006": 9.45322237263,
			"-0.005": 13.6759205747,
			"-0.004": 19.8165595646,
			"-0.003": 20.6453326038,
			"-0.002": 16.6803882204,
			"-0.001": 18.6784906352,
			"0.0": 18.7981720571,
			"0.001": 18.6274583428,
			"0.002": 14.9582098787,
			"0.003": 19.7487636827,
			"0.004": 23.3654052096,
			"0.005": 18.2927125842,
			"0.006": 9.83389876256,
			"0.007": 2.59033326694,
			"0.008": 2.26301306712,
			"0.009": 3.33310400355,
			"0.01": 1.95672302867,
			"0.011": 2.22566913388,
			"0.012": 0.753324563592,
			"0.013": 0.0,
			"0.014": 0.0,
			"0.015": 0.0,
			"0.016": 0.0,
			"0.017": 0.0,
			"0.018": 0.0,
			"0.019": 0.0,
			"0.02": 0.0,
			"0.021": 0.0,
			"0.022": 0.0,
			"0.023": 0.0,
			"0.024": 0.0,
			"0.025": 0.0
		}
	}
}
