{
	 "smiles": "CNS(=O)(=O)C1=C(OC)C=CC(N)=C1", 
	 "Tm": 443.15, 
	 "num_atms": 26, 
	 "gaussian": { 
		 "optdone": 1, 
		 "sigma_profile": "yes", 
		 "theory": "DFT", 
		 "functional": "B3LYP", 
		 "basiset": "6-31G**", 
		 "properties": { 
			 "R2extent": 3528.8555, 
			 "electric_dipole_moment_norm": 3.39743037751, 
			 "electric_quadrupole_moment_norm": 20.5982791463, 
			 "total_energy": -1045.35792006, 
			 "HOMO_LUMO_gap": 0.18285, 
			 "cosmo_polarized_energy": -17.81, 
			 "cosmo_cavitation_energy": 30.13, 
			 "cosmo_dispersion_energy": -22.38, 
			 "cosmo_repulsion_energy": 1.72, 
			 "cosmo_total_nonelectrostatic_energy": 9.47, 
			 "SMD_solvation_energy": 4.92 
		},
		"coords": [
			{
				"x": 0.5711527827,
				"y": 0.5318399944,
				"z": 4.1063798785,
				"element": "C" 
			},
			{
				"x": -0.2106625385,
				"y": 1.3635365999,
				"z": 3.1802080376,
				"element": "N" 
			},
			{
				"x": -1.3829720685,
				"y": 0.6287909402,
				"z": 2.2137286102,
				"element": "S" 
			},
			{
				"x": -1.6667213981,
				"y": -0.7282370813,
				"z": 2.6965919183,
				"element": "O" 
			},
			{
				"x": -2.4582098037,
				"y": 1.6244909076,
				"z": 2.1045487424,
				"element": "O" 
			},
			{
				"x": -0.6166228226,
				"y": 0.5014306092,
				"z": 0.5890679093,
				"element": "C" 
			},
			{
				"x": 0.4328828376,
				"y": -0.3932001764,
				"z": 0.3361282254,
				"element": "C" 
			},
			{
				"x": 0.9949044418,
				"y": -1.1435348782,
				"z": 1.344489545,
				"element": "O" 
			},
			{
				"x": 0.593096564,
				"y": -2.5213902243,
				"z": 1.3701225069,
				"element": "C" 
			},
			{
				"x": 0.9430430757,
				"y": -0.4583012744,
				"z": -0.9625791641,
				"element": "C" 
			},
			{
				"x": 0.4234821116,
				"y": 0.3356969495,
				"z": -1.9801663922,
				"element": "C" 
			},
			{
				"x": -0.6293896136,
				"y": 1.2317768272,
				"z": -1.7266813598,
				"element": "C" 
			},
			{
				"x": -1.1144857726,
				"y": 2.0727105344,
				"z": -2.7283320512,
				"element": "N" 
			},
			{
				"x": -1.1407196238,
				"y": 1.3052322896,
				"z": -0.4215081744,
				"element": "C" 
			},
			{
				"x": 1.1478647336,
				"y": -0.189995733,
				"z": 3.5291538762,
				"element": "H" 
			},
			{
				"x": -0.046028329,
				"y": -0.001273401,
				"z": 4.8381601979,
				"element": "H" 
			},
			{
				"x": 1.2647184738,
				"y": 1.1952462917,
				"z": 4.629511118,
				"element": "H" 
			},
			{
				"x": -0.6680179077,
				"y": 2.1597851489,
				"z": 3.6164136246,
				"element": "H" 
			},
			{
				"x": 0.8137226131,
				"y": -3.0119479909,
				"z": 0.4142476425,
				"element": "H" 
			},
			{
				"x": -0.4729325992,
				"y": -2.6037844851,
				"z": 1.6000597366,
				"element": "H" 
			},
			{
				"x": 1.1781110105,
				"y": -2.9948001392,
				"z": 2.160974688,
				"element": "H" 
			},
			{
				"x": 1.768680459,
				"y": -1.1344447653,
				"z": -1.1627531716,
				"element": "H" 
			},
			{
				"x": 0.8447668933,
				"y": 0.2722772643,
				"z": -2.9802061716,
				"element": "H" 
			},
			{
				"x": -2.0455729051,
				"y": 2.4339625679,
				"z": -2.5737333494,
				"element": "H" 
			},
			{
				"x": -0.991588763,
				"y": 1.7356353606,
				"z": -3.6730004123,
				"element": "H" 
			},
			{
				"x": -1.9526018513,
				"y": 1.9826978636,
				"z": -0.1788260108,
				"element": "H" 
			}
		],
		 "valence_orbital": [ 
			{
				"type": "occ",
				"energy": -0.2913,
				"method": "rhf"
			},
			{
				"type": "occ",
				"energy": -0.27925,
				"method": "rhf"
			},
			{
				"type": "occ",
				"energy": -0.27035,
				"method": "rhf"
			},
			{
				"type": "occ",
				"energy": -0.25371,
				"method": "rhf"
			},
			{
				"type": "occ",
				"energy": -0.20894,
				"method": "rhf"
			},
			{
				"type": "unocc",
				"energy": -0.02609,
				"method": "rhf"
			},
			{
				"type": "unocc",
				"energy": 0.00228,
				"method": "rhf"
			},
			{
				"type": "unocc",
				"energy": 0.06431,
				"method": "rhf"
			},
			{
				"type": "unocc",
				"energy": 0.07143,
				"method": "rhf"
			},
			{
				"type": "unocc",
				"energy": 0.08164,
				"method": "rhf"
			}
		],
		"cosmo_sigma_profile": { 
			"-0.025": 0.0,
			"-0.024": 0.0,
			"-0.023": 0.0,
			"-0.022": 0.0,
			"-0.021": 0.0,
			"-0.02": 0.0,
			"-0.019": 0.0,
			"-0.018": 0.0,
			"-0.017": 0.0,
			"-0.016": 0.0,
			"-0.015": 0.117313985996,
			"-0.014": 0.881801897246,
			"-0.013": 2.45038047255,
			"-0.012": 3.96891000891,
			"-0.011": 4.18390938293,
			"-0.01": 4.31112775155,
			"-0.009": 4.37023219891,
			"-0.008": 4.3584738909,
			"-0.007": 6.08477818252,
			"-0.006": 10.3362199852,
			"-0.005": 14.2773066825,
			"-0.004": 15.5505624182,
			"-0.003": 17.7110119097,
			"-0.002": 18.8264462987,
			"-0.001": 13.1171923836,
			"0.0": 10.6059139002,
			"0.001": 11.291051397,
			"0.002": 11.9408641784,
			"0.003": 16.6085160488,
			"0.004": 14.8894199207,
			"0.005": 8.03342720511,
			"0.006": 5.70131342196,
			"0.007": 6.07517469936,
			"0.008": 5.37726690428,
			"0.009": 5.82113915267,
			"0.01": 6.87175699988,
			"0.011": 8.59957059118,
			"0.012": 4.77005378589,
			"0.013": 0.952315424283,
			"0.014": 0.39391314474,
			"0.015": 0.0,
			"0.016": 0.0,
			"0.017": 0.0,
			"0.018": 0.0,
			"0.019": 0.0,
			"0.02": 0.0,
			"0.021": 0.0,
			"0.022": 0.0,
			"0.023": 0.0,
			"0.024": 0.0,
			"0.025": 0.0
		}
	}
}
