{
	 "smiles": "CCCCCCCCCCCCCCCC(C)O", 
	 "Tm": 327.15, 
	 "num_atms": 54, 
	 "gaussian": { 
		 "optdone": 1, 
		 "sigma_profile": "yes", 
		 "theory": "DFT", 
		 "functional": "B3LYP", 
		 "basiset": "6-31G**", 
		 "properties": { 
			 "R2extent": 8418.4032, 
			 "electric_dipole_moment_norm": 1.48809965056, 
			 "electric_quadrupole_moment_norm": 9.38275036117, 
			 "total_energy": -744.768007587, 
			 "HOMO_LUMO_gap": 0.31479, 
			 "cosmo_polarized_energy": -6.37, 
			 "cosmo_cavitation_energy": 51.44, 
			 "cosmo_dispersion_energy": -32.1, 
			 "cosmo_repulsion_energy": 2.58, 
			 "cosmo_total_nonelectrostatic_energy": 21.93, 
			 "SMD_solvation_energy": 6.67 
		},
		"coords": [
			{
				"x": 2.2523720777,
				"y": 2.0463368831,
				"z": -1.1534319232,
				"element": "C" 
			},
			{
				"x": 3.4632295863,
				"y": 2.2606168546,
				"z": -0.2378805819,
				"element": "C" 
			},
			{
				"x": 4.0372459189,
				"y": 0.9951827551,
				"z": 0.4249079108,
				"element": "C" 
			},
			{
				"x": 3.0947153715,
				"y": 0.2560919451,
				"z": 1.4013882658,
				"element": "C" 
			},
			{
				"x": 2.2622360713,
				"y": -0.8757418544,
				"z": 0.7780380208,
				"element": "C" 
			},
			{
				"x": 1.3541064434,
				"y": -1.5808881615,
				"z": 1.7956845566,
				"element": "C" 
			},
			{
				"x": 0.5533506206,
				"y": -2.7642579293,
				"z": 1.2183678204,
				"element": "C" 
			},
			{
				"x": -0.5780945876,
				"y": -2.4184705411,
				"z": 0.2226307885,
				"element": "C" 
			},
			{
				"x": -1.9751459407,
				"y": -2.2145277692,
				"z": 0.8416009802,
				"element": "C" 
			},
			{
				"x": -2.1630707631,
				"y": -1.0054857824,
				"z": 1.7766358542,
				"element": "C" 
			},
			{
				"x": -1.9404491616,
				"y": 0.3786812451,
				"z": 1.1422265785,
				"element": "C" 
			},
			{
				"x": -2.9243072449,
				"y": 0.7357089674,
				"z": 0.0185870848,
				"element": "C" 
			},
			{
				"x": -2.7165346295,
				"y": 2.1558104536,
				"z": -0.5267167186,
				"element": "C" 
			},
			{
				"x": -3.7472047198,
				"y": 2.5987711434,
				"z": -1.5811466727,
				"element": "C" 
			},
			{
				"x": -3.7880249802,
				"y": 1.7649114761,
				"z": -2.8746489765,
				"element": "C" 
			},
			{
				"x": -2.4932601339,
				"y": 1.7230445124,
				"z": -3.7022455317,
				"element": "C" 
			},
			{
				"x": -2.0515607603,
				"y": 3.0930530834,
				"z": -4.2220688172,
				"element": "C" 
			},
			{
				"x": -2.6288762747,
				"y": 0.7926740877,
				"z": -4.7804368128,
				"element": "O" 
			},
			{
				"x": 1.9653891415,
				"y": 2.9821113858,
				"z": -1.6453173291,
				"element": "H" 
			},
			{
				"x": 1.3790370445,
				"y": 1.6899267006,
				"z": -0.5974607973,
				"element": "H" 
			},
			{
				"x": 2.469855563,
				"y": 1.312462181,
				"z": -1.9380702532,
				"element": "H" 
			},
			{
				"x": 4.2644921875,
				"y": 2.735492744,
				"z": -0.8193089023,
				"element": "H" 
			},
			{
				"x": 3.1961720229,
				"y": 2.9803037149,
				"z": 0.5484374695,
				"element": "H" 
			},
			{
				"x": 4.3742118773,
				"y": 0.2964621161,
				"z": -0.3541320656,
				"element": "H" 
			},
			{
				"x": 4.9430881175,
				"y": 1.2936251858,
				"z": 0.9675273356,
				"element": "H" 
			},
			{
				"x": 2.4248179761,
				"y": 0.9833675747,
				"z": 1.8828182745,
				"element": "H" 
			},
			{
				"x": 3.6922749402,
				"y": -0.1762952471,
				"z": 2.215016136,
				"element": "H" 
			},
			{
				"x": 2.9447195858,
				"y": -1.6150015917,
				"z": 0.3340817044,
				"element": "H" 
			},
			{
				"x": 1.6625893217,
				"y": -0.4861657255,
				"z": -0.0525830908,
				"element": "H" 
			},
			{
				"x": 0.6765752,
				"y": -0.8447292296,
				"z": 2.2459595043,
				"element": "H" 
			},
			{
				"x": 1.9793234545,
				"y": -1.9541192104,
				"z": 2.6188399095,
				"element": "H" 
			},
			{
				"x": 0.1267234733,
				"y": -3.3466592504,
				"z": 2.0465325387,
				"element": "H" 
			},
			{
				"x": 1.2667673742,
				"y": -3.4365863987,
				"z": 0.7229166509,
				"element": "H" 
			},
			{
				"x": -0.6666355918,
				"y": -3.24128497,
				"z": -0.4976291862,
				"element": "H" 
			},
			{
				"x": -0.2992075903,
				"y": -1.5422735076,
				"z": -0.3761275635,
				"element": "H" 
			},
			{
				"x": -2.7064420898,
				"y": -2.152393666,
				"z": 0.0253722856,
				"element": "H" 
			},
			{
				"x": -2.2371871161,
				"y": -3.1224389672,
				"z": 1.4023873848,
				"element": "H" 
			},
			{
				"x": -3.1844914534,
				"y": -1.0427801619,
				"z": 2.1805948959,
				"element": "H" 
			},
			{
				"x": -1.4997622427,
				"y": -1.1090730275,
				"z": 2.6442586983,
				"element": "H" 
			},
			{
				"x": -2.0182473269,
				"y": 1.1380268408,
				"z": 1.9325203233,
				"element": "H" 
			},
			{
				"x": -0.9139485596,
				"y": 0.4541960645,
				"z": 0.7584429238,
				"element": "H" 
			},
			{
				"x": -2.8310961201,
				"y": 0.0097079785,
				"z": -0.7981012395,
				"element": "H" 
			},
			{
				"x": -3.9535524632,
				"y": 0.6398618305,
				"z": 0.3950928554,
				"element": "H" 
			},
			{
				"x": -1.6997838207,
				"y": 2.2412636511,
				"z": -0.9346491954,
				"element": "H" 
			},
			{
				"x": -2.7584840216,
				"y": 2.8654902962,
				"z": 0.3107576545,
				"element": "H" 
			},
			{
				"x": -3.5656719424,
				"y": 3.6516382479,
				"z": -1.8315750106,
				"element": "H" 
			},
			{
				"x": -4.7467896494,
				"y": 2.5703477995,
				"z": -1.1269257441,
				"element": "H" 
			},
			{
				"x": -4.5889081795,
				"y": 2.1606034775,
				"z": -3.5182226121,
				"element": "H" 
			},
			{
				"x": -4.0639475385,
				"y": 0.7285545818,
				"z": -2.6488953332,
				"element": "H" 
			},
			{
				"x": -1.6868487155,
				"y": 1.3016238295,
				"z": -3.0904667543,
				"element": "H" 
			},
			{
				"x": -2.8450715811,
				"y": 3.552815861,
				"z": -4.8259778339,
				"element": "H" 
			},
			{
				"x": -1.1639278853,
				"y": 2.9848915343,
				"z": -4.8515519819,
				"element": "H" 
			},
			{
				"x": -1.8131385254,
				"y": 3.7836069693,
				"z": -3.4067369995,
				"element": "H" 
			},
			{
				"x": -3.3500217602,
				"y": 1.1085090193,
				"z": -5.3424164784,
				"element": "H" 
			}
		],
		 "valence_orbital": [ 
			{
				"type": "occ",
				"energy": -0.30141,
				"method": "rhf"
			},
			{
				"type": "occ",
				"energy": -0.29963,
				"method": "rhf"
			},
			{
				"type": "occ",
				"energy": -0.29394,
				"method": "rhf"
			},
			{
				"type": "occ",
				"energy": -0.29277,
				"method": "rhf"
			},
			{
				"type": "occ",
				"energy": -0.25804,
				"method": "rhf"
			},
			{
				"type": "unocc",
				"energy": 0.05675,
				"method": "rhf"
			},
			{
				"type": "unocc",
				"energy": 0.07693,
				"method": "rhf"
			},
			{
				"type": "unocc",
				"energy": 0.08872,
				"method": "rhf"
			},
			{
				"type": "unocc",
				"energy": 0.09129,
				"method": "rhf"
			},
			{
				"type": "unocc",
				"energy": 0.10023,
				"method": "rhf"
			}
		],
		"cosmo_sigma_profile": { 
			"-0.025": 0.0,
			"-0.024": 0.0,
			"-0.023": 0.0,
			"-0.022": 0.0,
			"-0.021": 0.0,
			"-0.02": 0.0,
			"-0.019": 0.0,
			"-0.018": 0.0,
			"-0.017": 0.0,
			"-0.016": 0.0,
			"-0.015": 0.124410712699,
			"-0.014": 0.803560536964,
			"-0.013": 0.951352611095,
			"-0.012": 1.0657756673,
			"-0.011": 0.359854718091,
			"-0.01": 1.00299861692,
			"-0.009": 1.03269632259,
			"-0.008": 1.23607007902,
			"-0.007": 0.946174720238,
			"-0.006": 1.45886451386,
			"-0.005": 1.3757596561,
			"-0.004": 1.96721209225,
			"-0.003": 10.5297449224,
			"-0.002": 50.1495538136,
			"-0.001": 91.0697116892,
			"0.0": 97.4036790903,
			"0.001": 77.2889683828,
			"0.002": 34.4820000446,
			"0.003": 1.77388440409,
			"0.004": 1.59835955788,
			"0.005": 1.71655058319,
			"0.006": 1.03299560117,
			"0.007": 1.01925844153,
			"0.008": 1.36026142717,
			"0.009": 1.12583500823,
			"0.01": 1.21668269953,
			"0.011": 1.32190784296,
			"0.012": 1.29837299709,
			"0.013": 1.24986204102,
			"0.014": 1.64619690541,
			"0.015": 2.40579967574,
			"0.016": 0.157527065016,
			"0.017": 0.0,
			"0.018": 0.0,
			"0.019": 0.0,
			"0.02": 0.0,
			"0.021": 0.0,
			"0.022": 0.0,
			"0.023": 0.0,
			"0.024": 0.0,
			"0.025": 0.0
		}
	}
}
