{
	 "smiles": "CC1=CC=C(C=C1)C1=CSC(CC(N)=S)=N1", 
	 "Tm": 391.15, 
	 "num_atms": 28, 
	 "gaussian": { 
		 "optdone": 1, 
		 "sigma_profile": "yes", 
		 "theory": "DFT", 
		 "functional": "B3LYP", 
		 "basiset": "6-31G**", 
		 "properties": { 
			 "R2extent": 7629.0244, 
			 "electric_dipole_moment_norm": 5.80638097527, 
			 "electric_quadrupole_moment_norm": 31.6972483602, 
			 "total_energy": -1370.40827333, 
			 "HOMO_LUMO_gap": 0.15618, 
			 "cosmo_polarized_energy": -14.77, 
			 "cosmo_cavitation_energy": 35.49, 
			 "cosmo_dispersion_energy": -26.47, 
			 "cosmo_repulsion_energy": 1.98, 
			 "cosmo_total_nonelectrostatic_energy": 11.0, 
			 "SMD_solvation_energy": 4.06 
		},
		"coords": [
			{
				"x": -4.9528093126,
				"y": 0.4820622879,
				"z": 1.4226639713,
				"element": "C" 
			},
			{
				"x": -3.4843557288,
				"y": 0.3669097229,
				"z": 1.0909657921,
				"element": "C" 
			},
			{
				"x": -2.9463624742,
				"y": -0.8323549264,
				"z": 0.6019445026,
				"element": "C" 
			},
			{
				"x": -1.5885396426,
				"y": -0.9541878663,
				"z": 0.3241399517,
				"element": "C" 
			},
			{
				"x": -0.7146725965,
				"y": 0.1281724213,
				"z": 0.5173207144,
				"element": "C" 
			},
			{
				"x": -1.2487584216,
				"y": 1.3295421924,
				"z": 1.0084314178,
				"element": "C" 
			},
			{
				"x": -2.6087834191,
				"y": 1.4425874826,
				"z": 1.2868455446,
				"element": "C" 
			},
			{
				"x": 0.7236482729,
				"y": 0.0239007446,
				"z": 0.2090680913,
				"element": "C" 
			},
			{
				"x": 1.3232190104,
				"y": -0.9187696582,
				"z": -0.5905379647,
				"element": "C" 
			},
			{
				"x": 3.0304015321,
				"y": -0.6586704492,
				"z": -0.669895714,
				"element": "S" 
			},
			{
				"x": 2.8400317788,
				"y": 0.7325752178,
				"z": 0.3773615947,
				"element": "C" 
			},
			{
				"x": 4.0147881169,
				"y": 1.57164191,
				"z": 0.8052908338,
				"element": "C" 
			},
			{
				"x": 4.2032232951,
				"y": 1.7432885689,
				"z": 2.3191157298,
				"element": "C" 
			},
			{
				"x": 3.0676474272,
				"y": 1.8790345009,
				"z": 3.0148588818,
				"element": "N" 
			},
			{
				"x": 5.7249232163,
				"y": 1.8330103493,
				"z": 2.9877741423,
				"element": "S" 
			},
			{
				"x": 1.6061583146,
				"y": 0.9521855858,
				"z": 0.7384909852,
				"element": "N" 
			},
			{
				"x": -5.1610151261,
				"y": 0.1103987998,
				"z": 2.4340104015,
				"element": "H" 
			},
			{
				"x": -5.5671505698,
				"y": -0.1029201784,
				"z": 0.7311236521,
				"element": "H" 
			},
			{
				"x": -5.2918731181,
				"y": 1.5212698205,
				"z": 1.3818405706,
				"element": "H" 
			},
			{
				"x": -3.6006046131,
				"y": -1.6863050627,
				"z": 0.4439984769,
				"element": "H" 
			},
			{
				"x": -1.2034062165,
				"y": -1.9056565131,
				"z": -0.0310571729,
				"element": "H" 
			},
			{
				"x": -0.5890986588,
				"y": 2.1775830272,
				"z": 1.1569778617,
				"element": "H" 
			},
			{
				"x": -2.998722967,
				"y": 2.3868998472,
				"z": 1.6589563358,
				"element": "H" 
			},
			{
				"x": 0.8597121973,
				"y": -1.7190057816,
				"z": -1.1478967676,
				"element": "H" 
			},
			{
				"x": 3.8870974143,
				"y": 2.5805316297,
				"z": 0.3889929161,
				"element": "H" 
			},
			{
				"x": 4.9437147119,
				"y": 1.1755069582,
				"z": 0.3968434476,
				"element": "H" 
			},
			{
				"x": 3.1249747454,
				"y": 2.003219719,
				"z": 4.0150452648,
				"element": "H" 
			},
			{
				"x": 2.1685128316,
				"y": 1.7496496502,
				"z": 2.5562265385,
				"element": "H" 
			}
		],
		 "valence_orbital": [ 
			{
				"type": "occ",
				"energy": -0.28117,
				"method": "rhf"
			},
			{
				"type": "occ",
				"energy": -0.25783,
				"method": "rhf"
			},
			{
				"type": "occ",
				"energy": -0.22724,
				"method": "rhf"
			},
			{
				"type": "occ",
				"energy": -0.22548,
				"method": "rhf"
			},
			{
				"type": "occ",
				"energy": -0.2038,
				"method": "rhf"
			},
			{
				"type": "unocc",
				"energy": -0.04762,
				"method": "rhf"
			},
			{
				"type": "unocc",
				"energy": -0.02963,
				"method": "rhf"
			},
			{
				"type": "unocc",
				"energy": -0.01995,
				"method": "rhf"
			},
			{
				"type": "unocc",
				"energy": -0.00757,
				"method": "rhf"
			},
			{
				"type": "unocc",
				"energy": 0.00316,
				"method": "rhf"
			}
		],
		"cosmo_sigma_profile": { 
			"-0.025": 0.0,
			"-0.024": 0.0,
			"-0.023": 0.0,
			"-0.022": 0.0,
			"-0.021": 0.0,
			"-0.02": 0.0,
			"-0.019": 0.0,
			"-0.018": 0.0,
			"-0.017": 0.0,
			"-0.016": 0.0,
			"-0.015": 0.638113396826,
			"-0.014": 1.23853496564,
			"-0.013": 0.956266358855,
			"-0.012": 1.27204658302,
			"-0.011": 2.00064866091,
			"-0.01": 1.48942247388,
			"-0.009": 3.56768218725,
			"-0.008": 7.90803366335,
			"-0.007": 8.12265768261,
			"-0.006": 7.88010388088,
			"-0.005": 14.5678804935,
			"-0.004": 21.5670195501,
			"-0.003": 21.4453235287,
			"-0.002": 18.6261498058,
			"-0.001": 22.2580323671,
			"0.0": 24.6489352733,
			"0.001": 23.6285001936,
			"0.002": 23.7520801794,
			"0.003": 18.070367685,
			"0.004": 12.5339021924,
			"0.005": 14.0866219811,
			"0.006": 9.44979634251,
			"0.007": 4.22507020678,
			"0.008": 5.67081479456,
			"0.009": 6.73000909646,
			"0.01": 4.82083647701,
			"0.011": 4.06713821929,
			"0.012": 2.97933294672,
			"0.013": 0.20341630628,
			"0.014": 0.0,
			"0.015": 0.0,
			"0.016": 0.0,
			"0.017": 0.0,
			"0.018": 0.0,
			"0.019": 0.0,
			"0.02": 0.0,
			"0.021": 0.0,
			"0.022": 0.0,
			"0.023": 0.0,
			"0.024": 0.0,
			"0.025": 0.0
		}
	}
}
