{
	 "smiles": "NC(=O)C1=CC=C(F)C=C1", 
	 "Tm": 429.15, 
	 "num_atms": 16, 
	 "gaussian": { 
		 "optdone": 1, 
		 "sigma_profile": "yes", 
		 "theory": "DFT", 
		 "functional": "B3LYP", 
		 "basiset": "6-31G**", 
		 "properties": { 
			 "R2extent": 1689.0678, 
			 "electric_dipole_moment_norm": 3.17455714864, 
			 "electric_quadrupole_moment_norm": 10.8858665797, 
			 "total_energy": -500.188799606, 
			 "HOMO_LUMO_gap": 0.21157, 
			 "cosmo_polarized_energy": -12.42, 
			 "cosmo_cavitation_energy": 21.02, 
			 "cosmo_dispersion_energy": -15.53, 
			 "cosmo_repulsion_energy": 1.24, 
			 "cosmo_total_nonelectrostatic_energy": 6.72, 
			 "SMD_solvation_energy": 4.98 
		},
		"coords": [
			{
				"x": -0.507648519,
				"y": 2.9303711713,
				"z": -0.563992386,
				"element": "N" 
			},
			{
				"x": 0.3095806811,
				"y": 2.1215312211,
				"z": 0.1924677534,
				"element": "C" 
			},
			{
				"x": 0.9290416379,
				"y": 2.5544253504,
				"z": 1.156533179,
				"element": "O" 
			},
			{
				"x": 0.3778867851,
				"y": 0.6773822083,
				"z": -0.2113672173,
				"element": "C" 
			},
			{
				"x": 1.4367088651,
				"y": -0.0843325013,
				"z": 0.3032592782,
				"element": "C" 
			},
			{
				"x": 1.5724370693,
				"y": -1.4295750726,
				"z": -0.0240158103,
				"element": "C" 
			},
			{
				"x": 0.6257577884,
				"y": -2.0090528953,
				"z": -0.8640945145,
				"element": "C" 
			},
			{
				"x": 0.7478229349,
				"y": -3.3114455475,
				"z": -1.1851199717,
				"element": "F" 
			},
			{
				"x": -0.4478442542,
				"y": -1.2887783486,
				"z": -1.377249176,
				"element": "C" 
			},
			{
				"x": -0.5660496091,
				"y": 0.0596607359,
				"z": -1.0447391601,
				"element": "C" 
			},
			{
				"x": -0.4448818528,
				"y": 3.9160425335,
				"z": -0.3522908174,
				"element": "H" 
			},
			{
				"x": -0.7219221897,
				"y": 2.6865915595,
				"z": -1.5184120802,
				"element": "H" 
			},
			{
				"x": 2.1442837759,
				"y": 0.4040541905,
				"z": 0.9643031215,
				"element": "H" 
			},
			{
				"x": 2.3888304923,
				"y": -2.0321748339,
				"z": 0.3589663309,
				"element": "H" 
			},
			{
				"x": -1.1726262483,
				"y": -1.7863289043,
				"z": -2.0122131015,
				"element": "H" 
			},
			{
				"x": -1.422177357,
				"y": 0.616329133,
				"z": -1.4136354279,
				"element": "H" 
			}
		],
		 "valence_orbital": [ 
			{
				"type": "occ",
				"energy": -0.35215,
				"method": "rhf"
			},
			{
				"type": "occ",
				"energy": -0.27665,
				"method": "rhf"
			},
			{
				"type": "occ",
				"energy": -0.26987,
				"method": "rhf"
			},
			{
				"type": "occ",
				"energy": -0.25744,
				"method": "rhf"
			},
			{
				"type": "occ",
				"energy": -0.2495,
				"method": "rhf"
			},
			{
				"type": "unocc",
				"energy": -0.03793,
				"method": "rhf"
			},
			{
				"type": "unocc",
				"energy": -0.02011,
				"method": "rhf"
			},
			{
				"type": "unocc",
				"energy": 0.0563,
				"method": "rhf"
			},
			{
				"type": "unocc",
				"energy": 0.07211,
				"method": "rhf"
			},
			{
				"type": "unocc",
				"energy": 0.09969,
				"method": "rhf"
			}
		],
		"cosmo_sigma_profile": { 
			"-0.025": 0.0,
			"-0.024": 0.0,
			"-0.023": 0.0,
			"-0.022": 0.0,
			"-0.021": 0.0,
			"-0.02": 0.0,
			"-0.019": 0.0,
			"-0.018": 0.0,
			"-0.017": 0.0,
			"-0.016": 0.0,
			"-0.015": 0.235578935397,
			"-0.014": 1.2949677583,
			"-0.013": 2.94656166945,
			"-0.012": 1.55943411129,
			"-0.011": 2.49030972516,
			"-0.01": 3.28766737195,
			"-0.009": 2.22584051899,
			"-0.008": 4.29774232676,
			"-0.007": 6.70937741725,
			"-0.006": 7.5179778717,
			"-0.005": 8.15276852931,
			"-0.004": 6.67063916339,
			"-0.003": 6.38552161024,
			"-0.002": 7.10387484183,
			"-0.001": 8.29991665934,
			"0.0": 15.192871029,
			"0.001": 14.1195956335,
			"0.002": 15.1334304559,
			"0.003": 16.9543266814,
			"0.004": 13.4233475468,
			"0.005": 2.87073547186,
			"0.006": 1.97260303727,
			"0.007": 2.33950755951,
			"0.008": 2.26430206547,
			"0.009": 1.15517645396,
			"0.01": 1.42513304906,
			"0.011": 1.82805047628,
			"0.012": 2.08224636348,
			"0.013": 4.5029376891,
			"0.014": 3.60749293278,
			"0.015": 0.249499341261,
			"0.016": 0.0,
			"0.017": 0.0,
			"0.018": 0.0,
			"0.019": 0.0,
			"0.02": 0.0,
			"0.021": 0.0,
			"0.022": 0.0,
			"0.023": 0.0,
			"0.024": 0.0,
			"0.025": 0.0
		}
	}
}
