{
	 "smiles": "C1CC(CN1)N1C=C2C=CC=CC2=N1", 
	 "Tm": 353.15, 
	 "num_atms": 27, 
	 "gaussian": { 
		 "optdone": 1, 
		 "sigma_profile": "yes", 
		 "theory": "DFT", 
		 "functional": "B3LYP", 
		 "basiset": "6-31G**", 
		 "properties": { 
			 "R2extent": 3758.1524, 
			 "electric_dipole_moment_norm": 1.56886972691, 
			 "electric_quadrupole_moment_norm": 5.12495966911, 
			 "total_energy": -591.231022082, 
			 "HOMO_LUMO_gap": 0.17229, 
			 "cosmo_polarized_energy": -10.36, 
			 "cosmo_cavitation_energy": 29.25, 
			 "cosmo_dispersion_energy": -21.82, 
			 "cosmo_repulsion_energy": 1.72, 
			 "cosmo_total_nonelectrostatic_energy": 9.15, 
			 "SMD_solvation_energy": 1.3 
		},
		"coords": [
			{
				"x": -3.1196203517,
				"y": -2.0011488185,
				"z": -2.8260357926,
				"element": "C" 
			},
			{
				"x": -2.8085788442,
				"y": -0.5935154649,
				"z": -2.2794982531,
				"element": "C" 
			},
			{
				"x": -1.3459656066,
				"y": -0.3151562905,
				"z": -2.7367271112,
				"element": "C" 
			},
			{
				"x": -0.9202072823,
				"y": -1.611354775,
				"z": -3.4662361255,
				"element": "C" 
			},
			{
				"x": -2.1988772898,
				"y": -2.1166878041,
				"z": -3.9643888172,
				"element": "N" 
			},
			{
				"x": -0.4456758532,
				"y": 0.029201332,
				"z": -1.6375494036,
				"element": "N" 
			},
			{
				"x": 0.3382218785,
				"y": 1.1317061404,
				"z": -1.5567322741,
				"element": "C" 
			},
			{
				"x": 1.0300387483,
				"y": 1.0353256031,
				"z": -0.3452386142,
				"element": "C" 
			},
			{
				"x": 1.9838086687,
				"y": 1.8237963724,
				"z": 0.3465886743,
				"element": "C" 
			},
			{
				"x": 2.439036117,
				"y": 1.3701700929,
				"z": 1.5639883728,
				"element": "C" 
			},
			{
				"x": 1.9715847619,
				"y": 0.1430665821,
				"z": 2.1245576798,
				"element": "C" 
			},
			{
				"x": 1.0460974177,
				"y": -0.6436940819,
				"z": 1.4776484446,
				"element": "C" 
			},
			{
				"x": 0.5609428789,
				"y": -0.1991728251,
				"z": 0.2213957045,
				"element": "C" 
			},
			{
				"x": -0.3412175877,
				"y": -0.8025160402,
				"z": -0.5823303532,
				"element": "N" 
			},
			{
				"x": -2.9298331517,
				"y": -2.7517065901,
				"z": -2.0397029003,
				"element": "H" 
			},
			{
				"x": -4.1580486541,
				"y": -2.1097008783,
				"z": -3.1548189628,
				"element": "H" 
			},
			{
				"x": -3.4809849584,
				"y": 0.1527548149,
				"z": -2.7103748543,
				"element": "H" 
			},
			{
				"x": -2.8882707822,
				"y": -0.5477951474,
				"z": -1.1925755294,
				"element": "H" 
			},
			{
				"x": -1.3150960854,
				"y": 0.5322008412,
				"z": -3.4244259369,
				"element": "H" 
			},
			{
				"x": -0.4300634192,
				"y": -2.2712234669,
				"z": -2.7320062713,
				"element": "H" 
			},
			{
				"x": -0.2209567717,
				"y": -1.4202419428,
				"z": -4.2868086296,
				"element": "H" 
			},
			{
				"x": -2.1222487675,
				"y": -3.0722579678,
				"z": -4.3015801935,
				"element": "H" 
			},
			{
				"x": 0.3451063144,
				"y": 1.8774626266,
				"z": -2.3377309418,
				"element": "H" 
			},
			{
				"x": 2.3449331497,
				"y": 2.758693064,
				"z": -0.0724850423,
				"element": "H" 
			},
			{
				"x": 3.1701709565,
				"y": 1.9528788679,
				"z": 2.1168719056,
				"element": "H" 
			},
			{
				"x": 2.3618723097,
				"y": -0.1711570411,
				"z": 3.088558771,
				"element": "H" 
			},
			{
				"x": 0.6892322043,
				"y": -1.5767272029,
				"z": 1.9018364542,
				"element": "H" 
			}
		],
		 "valence_orbital": [ 
			{
				"type": "occ",
				"energy": -0.28089,
				"method": "rhf"
			},
			{
				"type": "occ",
				"energy": -0.27855,
				"method": "rhf"
			},
			{
				"type": "occ",
				"energy": -0.23364,
				"method": "rhf"
			},
			{
				"type": "occ",
				"energy": -0.22588,
				"method": "rhf"
			},
			{
				"type": "occ",
				"energy": -0.201,
				"method": "rhf"
			},
			{
				"type": "unocc",
				"energy": -0.02871,
				"method": "rhf"
			},
			{
				"type": "unocc",
				"energy": 0.03784,
				"method": "rhf"
			},
			{
				"type": "unocc",
				"energy": 0.05302,
				"method": "rhf"
			},
			{
				"type": "unocc",
				"energy": 0.07665,
				"method": "rhf"
			},
			{
				"type": "unocc",
				"energy": 0.08351,
				"method": "rhf"
			}
		],
		"cosmo_sigma_profile": { 
			"-0.025": 0.0,
			"-0.024": 0.0,
			"-0.023": 0.0,
			"-0.022": 0.0,
			"-0.021": 0.0,
			"-0.02": 0.0,
			"-0.019": 0.0,
			"-0.018": 0.0,
			"-0.017": 0.0,
			"-0.016": 0.0,
			"-0.015": 0.0,
			"-0.014": 0.0,
			"-0.013": 0.0,
			"-0.012": 0.0,
			"-0.011": 0.338431606541,
			"-0.01": 1.30807934322,
			"-0.009": 3.94164160588,
			"-0.008": 3.51253707131,
			"-0.007": 5.15676237571,
			"-0.006": 7.84746795057,
			"-0.005": 12.7121481734,
			"-0.004": 20.5523706,
			"-0.003": 21.8186813602,
			"-0.002": 24.4685861808,
			"-0.001": 23.2246429273,
			"0.0": 17.9070194635,
			"0.001": 9.46263205362,
			"0.002": 9.5958707552,
			"0.003": 11.7588132722,
			"0.004": 14.4377597964,
			"0.005": 15.3010188622,
			"0.006": 11.1748953665,
			"0.007": 2.89648998009,
			"0.008": 2.43509789607,
			"0.009": 1.88122996096,
			"0.01": 1.50211409601,
			"0.011": 1.95502298997,
			"0.012": 1.55413036605,
			"0.013": 1.1060634865,
			"0.014": 1.1201112927,
			"0.015": 0.996463551232,
			"0.016": 0.780375488037,
			"0.017": 0.292420642609,
			"0.018": 0.427062490568,
			"0.019": 0.0109041595663,
			"0.02": 0.0,
			"0.021": 0.0,
			"0.022": 0.0,
			"0.023": 0.0,
			"0.024": 0.0,
			"0.025": 0.0
		}
	}
}
