{
	 "smiles": "ClC(=O)C1=CC2=CC=CC=C2OC1", 
	 "Tm": 344.65, 
	 "num_atms": 20, 
	 "gaussian": { 
		 "optdone": 1, 
		 "sigma_profile": "yes", 
		 "theory": "DFT", 
		 "functional": "B3LYP", 
		 "basiset": "6-31G**", 
		 "properties": { 
			 "R2extent": 3933.7958, 
			 "electric_dipole_moment_norm": 4.45849957385, 
			 "electric_quadrupole_moment_norm": 14.2253319213, 
			 "total_energy": -995.9127231, 
			 "HOMO_LUMO_gap": 0.13913, 
			 "cosmo_polarized_energy": -7.8, 
			 "cosmo_cavitation_energy": 26.19, 
			 "cosmo_dispersion_energy": -19.68, 
			 "cosmo_repulsion_energy": 1.55, 
			 "cosmo_total_nonelectrostatic_energy": 8.05, 
			 "SMD_solvation_energy": 5.1 
		},
		"coords": [
			{
				"x": 0.4966611487,
				"y": -2.5352800022,
				"z": 4.0841003268,
				"element": "Cl" 
			},
			{
				"x": 1.4126886058,
				"y": -1.0080093438,
				"z": 3.6335136185,
				"element": "C" 
			},
			{
				"x": 2.3156076071,
				"y": -0.645996133,
				"z": 4.3340296099,
				"element": "O" 
			},
			{
				"x": 0.9637987076,
				"y": -0.3393453667,
				"z": 2.4160242662,
				"element": "C" 
			},
			{
				"x": -0.0226392303,
				"y": -0.7703373045,
				"z": 1.5965825793,
				"element": "C" 
			},
			{
				"x": -0.3807942933,
				"y": -0.0021969916,
				"z": 0.4256469014,
				"element": "C" 
			},
			{
				"x": -1.278932236,
				"y": -0.4659592825,
				"z": -0.5519669562,
				"element": "C" 
			},
			{
				"x": -1.6505835743,
				"y": 0.3454549634,
				"z": -1.6170425663,
				"element": "C" 
			},
			{
				"x": -1.1405879854,
				"y": 1.6479247986,
				"z": -1.7020596714,
				"element": "C" 
			},
			{
				"x": -0.2554205056,
				"y": 2.1359463759,
				"z": -0.7421686126,
				"element": "C" 
			},
			{
				"x": 0.1369928041,
				"y": 1.3090756999,
				"z": 0.3113529794,
				"element": "C" 
			},
			{
				"x": 0.9624808303,
				"y": 1.8250560485,
				"z": 1.2600135189,
				"element": "O" 
			},
			{
				"x": 1.7479885487,
				"y": 0.8980180338,
				"z": 2.0258520203,
				"element": "C" 
			},
			{
				"x": -0.5716620509,
				"y": -1.678923572,
				"z": 1.821528449,
				"element": "H" 
			},
			{
				"x": -1.679759438,
				"y": -1.4719090183,
				"z": -0.4593783337,
				"element": "H" 
			},
			{
				"x": -2.337688544,
				"y": -0.0227133071,
				"z": -2.3717053168,
				"element": "H" 
			},
			{
				"x": -1.4338871104,
				"y": 2.2896138534,
				"z": -2.527786872,
				"element": "H" 
			},
			{
				"x": 0.1424182512,
				"y": 3.1436341869,
				"z": -0.7941413524,
				"element": "H" 
			},
			{
				"x": 2.082620133,
				"y": 1.4446532952,
				"z": 2.9078848325,
				"element": "H" 
			},
			{
				"x": 2.6392983317,
				"y": 0.6175930662,
				"z": 1.4426205792,
				"element": "H" 
			}
		],
		 "valence_orbital": [ 
			{
				"type": "occ",
				"energy": -0.31701,
				"method": "rhf"
			},
			{
				"type": "occ",
				"energy": -0.3156,
				"method": "rhf"
			},
			{
				"type": "occ",
				"energy": -0.29161,
				"method": "rhf"
			},
			{
				"type": "occ",
				"energy": -0.26055,
				"method": "rhf"
			},
			{
				"type": "occ",
				"energy": -0.23183,
				"method": "rhf"
			},
			{
				"type": "unocc",
				"energy": -0.0927,
				"method": "rhf"
			},
			{
				"type": "unocc",
				"energy": -0.01368,
				"method": "rhf"
			},
			{
				"type": "unocc",
				"energy": -0.0028,
				"method": "rhf"
			},
			{
				"type": "unocc",
				"energy": 0.01833,
				"method": "rhf"
			},
			{
				"type": "unocc",
				"energy": 0.05366,
				"method": "rhf"
			}
		],
		"cosmo_sigma_profile": { 
			"-0.025": 0.0,
			"-0.024": 0.0,
			"-0.023": 0.0,
			"-0.022": 0.0,
			"-0.021": 0.0,
			"-0.02": 0.0,
			"-0.019": 0.0,
			"-0.018": 0.0,
			"-0.017": 0.0,
			"-0.016": 0.0,
			"-0.015": 0.0,
			"-0.014": 0.0,
			"-0.013": 0.0,
			"-0.012": 0.0,
			"-0.011": 0.0,
			"-0.01": 0.0,
			"-0.009": 0.548488463365,
			"-0.008": 2.34952223773,
			"-0.007": 7.26104566234,
			"-0.006": 15.3768073832,
			"-0.005": 13.9429805461,
			"-0.004": 16.507990118,
			"-0.003": 12.5994152874,
			"-0.002": 13.9188723758,
			"-0.001": 15.231613903,
			"0.0": 16.190912304,
			"0.001": 16.0028821547,
			"0.002": 18.746285741,
			"0.003": 16.6152535105,
			"0.004": 17.5418807182,
			"0.005": 9.47561384647,
			"0.006": 4.97181745319,
			"0.007": 3.68087914208,
			"0.008": 3.886226026,
			"0.009": 6.2018648004,
			"0.01": 1.79212951219,
			"0.011": 0.0324257664471,
			"0.012": 0.0,
			"0.013": 0.0,
			"0.014": 0.0,
			"0.015": 0.0,
			"0.016": 0.0,
			"0.017": 0.0,
			"0.018": 0.0,
			"0.019": 0.0,
			"0.02": 0.0,
			"0.021": 0.0,
			"0.022": 0.0,
			"0.023": 0.0,
			"0.024": 0.0,
			"0.025": 0.0
		}
	}
}
