{
	 "smiles": "CCCC(CC)C1(CC)C(=O)NC(=O)NC1=O", 
	 "Tm": 395.15, 
	 "num_atms": 37, 
	 "gaussian": { 
		 "optdone": 1, 
		 "sigma_profile": "yes", 
		 "theory": "DFT", 
		 "functional": "B3LYP", 
		 "basiset": "6-31G**", 
		 "properties": { 
			 "R2extent": 4580.4818, 
			 "electric_dipole_moment_norm": 1.63652788855, 
			 "electric_quadrupole_moment_norm": 5.65808772201, 
			 "total_energy": -804.570945329, 
			 "HOMO_LUMO_gap": 0.21646, 
			 "cosmo_polarized_energy": -14.6, 
			 "cosmo_cavitation_energy": 36.75, 
			 "cosmo_dispersion_energy": -25.15, 
			 "cosmo_repulsion_energy": 1.97, 
			 "cosmo_total_nonelectrostatic_energy": 13.57, 
			 "SMD_solvation_energy": 8.05 
		},
		"coords": [
			{
				"x": 3.7785156527,
				"y": -0.1255583532,
				"z": -1.9935888309,
				"element": "C" 
			},
			{
				"x": 2.2508117615,
				"y": -0.2201361886,
				"z": -1.9112642965,
				"element": "C" 
			},
			{
				"x": 1.7469480868,
				"y": -0.2321650945,
				"z": -0.4591216418,
				"element": "C" 
			},
			{
				"x": 0.2150083578,
				"y": -0.4100842533,
				"z": -0.3374444926,
				"element": "C" 
			},
			{
				"x": -0.5798069385,
				"y": 0.7545878332,
				"z": -0.9955848414,
				"element": "C" 
			},
			{
				"x": -1.1598245639,
				"y": 0.4026819314,
				"z": -2.3725984627,
				"element": "C" 
			},
			{
				"x": -0.2990346771,
				"y": -0.7073089197,
				"z": 1.1575533822,
				"element": "C" 
			},
			{
				"x": -0.4226016511,
				"y": 0.5169955568,
				"z": 2.1083038089,
				"element": "C" 
			},
			{
				"x": 0.7499341286,
				"y": 1.4983161742,
				"z": 2.2052705647,
				"element": "C" 
			},
			{
				"x": -1.7133536875,
				"y": -1.2843763047,
				"z": 0.9522396188,
				"element": "C" 
			},
			{
				"x": -2.7239691387,
				"y": -0.6080144491,
				"z": 0.9118232715,
				"element": "O" 
			},
			{
				"x": -1.7894970057,
				"y": -2.6536546081,
				"z": 0.7073811437,
				"element": "N" 
			},
			{
				"x": -0.8036700956,
				"y": -3.6082437184,
				"z": 0.9272333587,
				"element": "C" 
			},
			{
				"x": -0.9781748714,
				"y": -4.7951995273,
				"z": 0.742161129,
				"element": "O" 
			},
			{
				"x": 0.3891505283,
				"y": -3.0805621503,
				"z": 1.4076525115,
				"element": "N" 
			},
			{
				"x": 0.6338436528,
				"y": -1.7550287558,
				"z": 1.7710552452,
				"element": "C" 
			},
			{
				"x": 1.5851384216,
				"y": -1.4924257362,
				"z": 2.4820608404,
				"element": "O" 
			},
			{
				"x": 4.1451928123,
				"y": 0.7901136773,
				"z": -1.5162195753,
				"element": "H" 
			},
			{
				"x": 4.2568081032,
				"y": -0.973437064,
				"z": -1.4905429067,
				"element": "H" 
			},
			{
				"x": 4.1206968165,
				"y": -0.1184839516,
				"z": -3.0334129025,
				"element": "H" 
			},
			{
				"x": 1.912831734,
				"y": -1.1314489644,
				"z": -2.4234866802,
				"element": "H" 
			},
			{
				"x": 1.8095896832,
				"y": 0.6212047086,
				"z": -2.4585906954,
				"element": "H" 
			},
			{
				"x": 2.2635749355,
				"y": -1.0403269856,
				"z": 0.069055684,
				"element": "H" 
			},
			{
				"x": 2.0589966452,
				"y": 0.6937932647,
				"z": 0.0332158052,
				"element": "H" 
			},
			{
				"x": -0.0232307709,
				"y": -1.3264048783,
				"z": -0.8955720123,
				"element": "H" 
			},
			{
				"x": 0.0754464822,
				"y": 1.6295680664,
				"z": -1.0830784507,
				"element": "H" 
			},
			{
				"x": -1.4107697451,
				"y": 1.0572524838,
				"z": -0.3547408926,
				"element": "H" 
			},
			{
				"x": -0.3860372283,
				"y": 0.0907372766,
				"z": -3.0805910566,
				"element": "H" 
			},
			{
				"x": -1.885510279,
				"y": -0.4140333953,
				"z": -2.2909609237,
				"element": "H" 
			},
			{
				"x": -1.6812976549,
				"y": 1.2628850763,
				"z": -2.8049781059,
				"element": "H" 
			},
			{
				"x": -0.6241974965,
				"y": 0.1157627315,
				"z": 3.1087834836,
				"element": "H" 
			},
			{
				"x": -1.32747741,
				"y": 1.055475448,
				"z": 1.820390167,
				"element": "H" 
			},
			{
				"x": 1.6806167774,
				"y": 0.9923122032,
				"z": 2.4651846566,
				"element": "H" 
			},
			{
				"x": 0.8957784717,
				"y": 2.056993552,
				"z": 1.2765183229,
				"element": "H" 
			},
			{
				"x": 0.5320775217,
				"y": 2.2319837319,
				"z": 2.9886454775,
				"element": "H" 
			},
			{
				"x": -2.7037493288,
				"y": -3.0199424613,
				"z": 0.4693068893,
				"element": "H" 
			},
			{
				"x": 1.06144197,
				"y": -3.7656279566,
				"z": 1.7334414075,
				"element": "H" 
			}
		],
		 "valence_orbital": [ 
			{
				"type": "occ",
				"energy": -0.31281,
				"method": "rhf"
			},
			{
				"type": "occ",
				"energy": -0.30218,
				"method": "rhf"
			},
			{
				"type": "occ",
				"energy": -0.30157,
				"method": "rhf"
			},
			{
				"type": "occ",
				"energy": -0.28679,
				"method": "rhf"
			},
			{
				"type": "occ",
				"energy": -0.26602,
				"method": "rhf"
			},
			{
				"type": "unocc",
				"energy": -0.04956,
				"method": "rhf"
			},
			{
				"type": "unocc",
				"energy": -0.00393,
				"method": "rhf"
			},
			{
				"type": "unocc",
				"energy": 0.04859,
				"method": "rhf"
			},
			{
				"type": "unocc",
				"energy": 0.07022,
				"method": "rhf"
			},
			{
				"type": "unocc",
				"energy": 0.08081,
				"method": "rhf"
			}
		],
		"cosmo_sigma_profile": { 
			"-0.025": 0.0,
			"-0.024": 0.0,
			"-0.023": 0.0,
			"-0.022": 0.0,
			"-0.021": 0.0,
			"-0.02": 0.0,
			"-0.019": 0.0,
			"-0.018": 0.0,
			"-0.017": 0.157852922541,
			"-0.016": 1.61604747921,
			"-0.015": 2.03146720518,
			"-0.014": 1.47714943673,
			"-0.013": 1.70946463927,
			"-0.012": 1.56206636397,
			"-0.011": 1.31637689484,
			"-0.01": 2.60644447411,
			"-0.009": 2.27983691033,
			"-0.008": 2.92164307935,
			"-0.007": 2.3911647787,
			"-0.006": 4.77301354269,
			"-0.005": 7.1421066294,
			"-0.004": 10.4523487648,
			"-0.003": 27.3988318177,
			"-0.002": 40.8713008935,
			"-0.001": 39.2528461757,
			"0.0": 34.5343669963,
			"0.001": 31.1328077114,
			"0.002": 12.7064864469,
			"0.003": 4.11320743602,
			"0.004": 4.37202645002,
			"0.005": 5.48055228668,
			"0.006": 5.50137629778,
			"0.007": 2.6683123704,
			"0.008": 4.31690429829,
			"0.009": 5.7230793596,
			"0.01": 5.10002379348,
			"0.011": 12.9326504845,
			"0.012": 6.90097091889,
			"0.013": 0.114977215727,
			"0.014": 0.0,
			"0.015": 0.0,
			"0.016": 0.0,
			"0.017": 0.0,
			"0.018": 0.0,
			"0.019": 0.0,
			"0.02": 0.0,
			"0.021": 0.0,
			"0.022": 0.0,
			"0.023": 0.0,
			"0.024": 0.0,
			"0.025": 0.0
		}
	}
}
