{
	 "smiles": "CC1=NC(CC(O)=O)=CS1", 
	 "Tm": 397.15, 
	 "num_atms": 17, 
	 "gaussian": { 
		 "optdone": 1, 
		 "sigma_profile": "yes", 
		 "theory": "DFT", 
		 "functional": "B3LYP", 
		 "basiset": "6-31G**", 
		 "properties": { 
			 "R2extent": 2086.7097, 
			 "electric_dipole_moment_norm": 2.47305909756, 
			 "electric_quadrupole_moment_norm": 9.08418651559, 
			 "total_energy": -836.255464942, 
			 "HOMO_LUMO_gap": 0.21198, 
			 "cosmo_polarized_energy": -12.46, 
			 "cosmo_cavitation_energy": 23.56, 
			 "cosmo_dispersion_energy": -17.53, 
			 "cosmo_repulsion_energy": 1.42, 
			 "cosmo_total_nonelectrostatic_energy": 7.45, 
			 "SMD_solvation_energy": 3.86 
		},
		"coords": [
			{
				"x": 3.0225569204,
				"y": 0.4119894798,
				"z": -0.6916004878,
				"element": "C" 
			},
			{
				"x": 1.7898559794,
				"y": -0.0017687127,
				"z": 0.0526042638,
				"element": "C" 
			},
			{
				"x": 0.5877482324,
				"y": 0.4019053313,
				"z": -0.2357656796,
				"element": "N" 
			},
			{
				"x": -0.3562749591,
				"y": -0.1397912211,
				"z": 0.6163688297,
				"element": "C" 
			},
			{
				"x": -1.8020467686,
				"y": 0.2194250421,
				"z": 0.4117410714,
				"element": "C" 
			},
			{
				"x": -2.1112803366,
				"y": 1.699149772,
				"z": 0.5874761496,
				"element": "C" 
			},
			{
				"x": -1.5489412947,
				"y": 2.2077997288,
				"z": 1.7089159036,
				"element": "O" 
			},
			{
				"x": -2.8077528995,
				"y": 2.355047789,
				"z": -0.1526332551,
				"element": "O" 
			},
			{
				"x": 0.1358741985,
				"y": -0.9782282495,
				"z": 1.5744716374,
				"element": "C" 
			},
			{
				"x": 1.8588077348,
				"y": -1.1100006773,
				"z": 1.4250852321,
				"element": "S" 
			},
			{
				"x": 3.7387184098,
				"y": 0.9160875639,
				"z": -0.0341664696,
				"element": "H" 
			},
			{
				"x": 3.5305114701,
				"y": -0.4491543658,
				"z": -1.1386168536,
				"element": "H" 
			},
			{
				"x": 2.730804326,
				"y": 1.0998038687,
				"z": -1.4872392656,
				"element": "H" 
			},
			{
				"x": -2.4241746007,
				"y": -0.3321417941,
				"z": 1.125748424,
				"element": "H" 
			},
			{
				"x": -2.1302208496,
				"y": -0.0467689434,
				"z": -0.5960958258,
				"element": "H" 
			},
			{
				"x": -1.8103612783,
				"y": 3.1435652691,
				"z": 1.736761427,
				"element": "H" 
			},
			{
				"x": -0.4039242845,
				"y": -1.5089198811,
				"z": 2.3457448985,
				"element": "H" 
			}
		],
		 "valence_orbital": [ 
			{
				"type": "occ",
				"energy": -0.31647,
				"method": "rhf"
			},
			{
				"type": "occ",
				"energy": -0.28425,
				"method": "rhf"
			},
			{
				"type": "occ",
				"energy": -0.27677,
				"method": "rhf"
			},
			{
				"type": "occ",
				"energy": -0.27315,
				"method": "rhf"
			},
			{
				"type": "occ",
				"energy": -0.23787,
				"method": "rhf"
			},
			{
				"type": "unocc",
				"energy": -0.02589,
				"method": "rhf"
			},
			{
				"type": "unocc",
				"energy": 0.01177,
				"method": "rhf"
			},
			{
				"type": "unocc",
				"energy": 0.01734,
				"method": "rhf"
			},
			{
				"type": "unocc",
				"energy": 0.04602,
				"method": "rhf"
			},
			{
				"type": "unocc",
				"energy": 0.07856,
				"method": "rhf"
			}
		],
		"cosmo_sigma_profile": { 
			"-0.025": 0.0,
			"-0.024": 0.0,
			"-0.023": 0.0,
			"-0.022": 0.0,
			"-0.021": 0.0,
			"-0.02": 0.0,
			"-0.019": 0.0,
			"-0.018": 0.708996287397,
			"-0.017": 0.989624418862,
			"-0.016": 0.876833379498,
			"-0.015": 0.578770315244,
			"-0.014": 0.643540840583,
			"-0.013": 1.30317763688,
			"-0.012": 0.660394113585,
			"-0.011": 0.449495140164,
			"-0.01": 0.672678982745,
			"-0.009": 1.5978378122,
			"-0.008": 5.78519351252,
			"-0.007": 6.30887416799,
			"-0.006": 9.63073121111,
			"-0.005": 12.5103225151,
			"-0.004": 12.6522643969,
			"-0.003": 14.1671524909,
			"-0.002": 12.8854163148,
			"-0.001": 13.0469591157,
			"0.0": 8.49268091035,
			"0.001": 11.585495933,
			"0.002": 13.3801280515,
			"0.003": 13.2474162142,
			"0.004": 8.18250292769,
			"0.005": 4.57134547295,
			"0.006": 5.42125399523,
			"0.007": 4.50714854131,
			"0.008": 4.0393828246,
			"0.009": 4.75020574657,
			"0.01": 4.20823515597,
			"0.011": 4.74784789591,
			"0.012": 5.23616220655,
			"0.013": 0.87169926204,
			"0.014": 0.62022581677,
			"0.015": 0.167806246166,
			"0.016": 0.0,
			"0.017": 0.0,
			"0.018": 0.0,
			"0.019": 0.0,
			"0.02": 0.0,
			"0.021": 0.0,
			"0.022": 0.0,
			"0.023": 0.0,
			"0.024": 0.0,
			"0.025": 0.0
		}
	}
}
