{
	 "smiles": "CCS(=O)(=O)C1=CC=C(CN)C=C1", 
	 "Tm": 325.15, 
	 "num_atms": 26, 
	 "gaussian": { 
		 "optdone": 1, 
		 "sigma_profile": "yes", 
		 "theory": "DFT", 
		 "functional": "B3LYP", 
		 "basiset": "6-31G**", 
		 "properties": { 
			 "R2extent": 3788.9904, 
			 "electric_dipole_moment_norm": 4.5524154929, 
			 "electric_quadrupole_moment_norm": 22.678477866, 
			 "total_energy": -954.118245381, 
			 "HOMO_LUMO_gap": 0.2028, 
			 "cosmo_polarized_energy": -18.2, 
			 "cosmo_cavitation_energy": 30.84, 
			 "cosmo_dispersion_energy": -22.28, 
			 "cosmo_repulsion_energy": 1.74, 
			 "cosmo_total_nonelectrostatic_energy": 10.3, 
			 "SMD_solvation_energy": 3.2 
		},
		"coords": [
			{
				"x": 1.3960183121,
				"y": 2.4522249569,
				"z": -4.0805830802,
				"element": "C" 
			},
			{
				"x": 0.9140416292,
				"y": 1.4015287276,
				"z": -3.0820544411,
				"element": "C" 
			},
			{
				"x": 0.8593719618,
				"y": 2.1001161362,
				"z": -1.3983854896,
				"element": "S" 
			},
			{
				"x": -0.178944547,
				"y": 3.1457406828,
				"z": -1.3832058009,
				"element": "O" 
			},
			{
				"x": 2.2445134043,
				"y": 2.402279025,
				"z": -0.9962215437,
				"element": "O" 
			},
			{
				"x": 0.2773565646,
				"y": 0.7269693929,
				"z": -0.391814603,
				"element": "C" 
			},
			{
				"x": -1.0934909494,
				"y": 0.5624726778,
				"z": -0.1833521551,
				"element": "C" 
			},
			{
				"x": -1.5351691686,
				"y": -0.5049125931,
				"z": 0.5964957623,
				"element": "C" 
			},
			{
				"x": -0.6268590943,
				"y": -1.4066648088,
				"z": 1.1709557746,
				"element": "C" 
			},
			{
				"x": -1.121214995,
				"y": -2.6027936292,
				"z": 1.9674992219,
				"element": "C" 
			},
			{
				"x": -1.3708457931,
				"y": -3.8195395561,
				"z": 1.1795205199,
				"element": "N" 
			},
			{
				"x": 0.7453191745,
				"y": -1.2063061309,
				"z": 0.9583865273,
				"element": "C" 
			},
			{
				"x": 1.205497277,
				"y": -0.144561288,
				"z": 0.1815419096,
				"element": "C" 
			},
			{
				"x": 1.423555799,
				"y": 2.0179742724,
				"z": -5.0841210629,
				"element": "H" 
			},
			{
				"x": 2.3999854479,
				"y": 2.7981527539,
				"z": -3.8233441455,
				"element": "H" 
			},
			{
				"x": 0.7224739493,
				"y": 3.3124540768,
				"z": -4.0919337744,
				"element": "H" 
			},
			{
				"x": 1.5835371088,
				"y": 0.5379562316,
				"z": -3.0341777978,
				"element": "H" 
			},
			{
				"x": -0.0992548395,
				"y": 1.0542192098,
				"z": -3.303144072,
				"element": "H" 
			},
			{
				"x": -1.7913871686,
				"y": 1.2786091182,
				"z": -0.6046425017,
				"element": "H" 
			},
			{
				"x": -2.6004301375,
				"y": -0.6319563216,
				"z": 0.7749126733,
				"element": "H" 
			},
			{
				"x": -2.0528416073,
				"y": -2.3420787624,
				"z": 2.4817164438,
				"element": "H" 
			},
			{
				"x": -0.3912375438,
				"y": -2.8535014006,
				"z": 2.7450575741,
				"element": "H" 
			},
			{
				"x": -0.5183911728,
				"y": -4.0921472925,
				"z": 0.6942164026,
				"element": "H" 
			},
			{
				"x": -2.0534388885,
				"y": -3.6197402223,
				"z": 0.4510572585,
				"element": "H" 
			},
			{
				"x": 1.462326037,
				"y": -1.881500777,
				"z": 1.4196494944,
				"element": "H" 
			},
			{
				"x": 2.2669092401,
				"y": 0.0305055203,
				"z": 0.0395709055,
				"element": "H" 
			}
		],
		 "valence_orbital": [ 
			{
				"type": "occ",
				"energy": -0.29149,
				"method": "rhf"
			},
			{
				"type": "occ",
				"energy": -0.28278,
				"method": "rhf"
			},
			{
				"type": "occ",
				"energy": -0.27699,
				"method": "rhf"
			},
			{
				"type": "occ",
				"energy": -0.27363,
				"method": "rhf"
			},
			{
				"type": "occ",
				"energy": -0.24496,
				"method": "rhf"
			},
			{
				"type": "unocc",
				"energy": -0.04216,
				"method": "rhf"
			},
			{
				"type": "unocc",
				"energy": -0.02547,
				"method": "rhf"
			},
			{
				"type": "unocc",
				"energy": 0.06151,
				"method": "rhf"
			},
			{
				"type": "unocc",
				"energy": 0.07009,
				"method": "rhf"
			},
			{
				"type": "unocc",
				"energy": 0.08025,
				"method": "rhf"
			}
		],
		"cosmo_sigma_profile": { 
			"-0.025": 0.0,
			"-0.024": 0.0,
			"-0.023": 0.0,
			"-0.022": 0.0,
			"-0.021": 0.0,
			"-0.02": 0.0,
			"-0.019": 0.0,
			"-0.018": 0.0,
			"-0.017": 0.0,
			"-0.016": 0.0,
			"-0.015": 0.0,
			"-0.014": 0.0,
			"-0.013": 0.0,
			"-0.012": 0.0,
			"-0.011": 0.0,
			"-0.01": 0.911795077765,
			"-0.009": 2.67581569613,
			"-0.008": 4.53458317783,
			"-0.007": 12.5167856539,
			"-0.006": 18.8949493282,
			"-0.005": 21.0894645706,
			"-0.004": 23.9791407198,
			"-0.003": 18.6325784813,
			"-0.002": 16.6736954145,
			"-0.001": 18.1323075042,
			"0.0": 13.9867086325,
			"0.001": 10.7978862792,
			"0.002": 12.5769005109,
			"0.003": 15.0365917261,
			"0.004": 6.48705661022,
			"0.005": 3.54625925223,
			"0.006": 2.43970917704,
			"0.007": 2.90356504781,
			"0.008": 3.88481988057,
			"0.009": 4.07935986372,
			"0.01": 4.86973908125,
			"0.011": 8.27453487669,
			"0.012": 9.53892997913,
			"0.013": 2.58354142538,
			"0.014": 0.576149231287,
			"0.015": 0.555575545053,
			"0.016": 0.690954251409,
			"0.017": 0.758776784551,
			"0.018": 0.641877185346,
			"0.019": 0.487420026061,
			"0.02": 0.148946904293,
			"0.021": 0.0,
			"0.022": 0.0,
			"0.023": 0.0,
			"0.024": 0.0,
			"0.025": 0.0
		}
	}
}
