{
	 "smiles": "CCCCCCCCC1=CC=C(NC(=O)C2=CC=C(C)C=C2)C=C1", 
	 "Tm": 386.15, 
	 "num_atms": 53, 
	 "gaussian": { 
		 "optdone": 1, 
		 "sigma_profile": "yes", 
		 "theory": "DFT", 
		 "functional": "B3LYP", 
		 "basiset": "6-31G**", 
		 "properties": { 
			 "R2extent": 15459.3189, 
			 "electric_dipole_moment_norm": 3.53765432172, 
			 "electric_quadrupole_moment_norm": 24.9310613164, 
			 "total_energy": -985.855797676, 
			 "HOMO_LUMO_gap": 0.17003, 
			 "cosmo_polarized_energy": -13.17, 
			 "cosmo_cavitation_energy": 54.55, 
			 "cosmo_dispersion_energy": -36.63, 
			 "cosmo_repulsion_energy": 2.85, 
			 "cosmo_total_nonelectrostatic_energy": 20.77, 
			 "SMD_solvation_energy": 8.53 
		},
		"coords": [
			{
				"x": 2.5319641597,
				"y": 2.9182468861,
				"z": -0.857399328,
				"element": "C" 
			},
			{
				"x": 3.7386002264,
				"y": 2.3631201126,
				"z": -0.0931051859,
				"element": "C" 
			},
			{
				"x": 4.0526540768,
				"y": 0.9039708523,
				"z": -0.4518846088,
				"element": "C" 
			},
			{
				"x": 5.312717583,
				"y": 0.3318933976,
				"z": 0.2209001607,
				"element": "C" 
			},
			{
				"x": 5.2848260513,
				"y": 0.2724585655,
				"z": 1.7605279953,
				"element": "C" 
			},
			{
				"x": 4.1428262301,
				"y": -0.5535814409,
				"z": 2.3781420791,
				"element": "C" 
			},
			{
				"x": 4.1725960102,
				"y": -2.0450378043,
				"z": 2.0203442558,
				"element": "C" 
			},
			{
				"x": 3.0502962962,
				"y": -2.8708704121,
				"z": 2.6877720822,
				"element": "C" 
			},
			{
				"x": 1.6547539346,
				"y": -2.5104125293,
				"z": 2.2214500323,
				"element": "C" 
			},
			{
				"x": 1.1976368684,
				"y": -2.8926777357,
				"z": 0.9523233713,
				"element": "C" 
			},
			{
				"x": -0.0737022584,
				"y": -2.5642848826,
				"z": 0.4862166906,
				"element": "C" 
			},
			{
				"x": -0.9389442655,
				"y": -1.8242360916,
				"z": 1.3081274773,
				"element": "C" 
			},
			{
				"x": -2.2397590173,
				"y": -1.4360553317,
				"z": 0.9242540568,
				"element": "N" 
			},
			{
				"x": -2.9275344806,
				"y": -1.7355872656,
				"z": -0.2323944062,
				"element": "C" 
			},
			{
				"x": -2.4831237111,
				"y": -2.4541214832,
				"z": -1.1225907588,
				"element": "O" 
			},
			{
				"x": -4.29911393,
				"y": -1.1282475257,
				"z": -0.3297006516,
				"element": "C" 
			},
			{
				"x": -5.216845823,
				"y": -1.7502821635,
				"z": -1.1878400164,
				"element": "C" 
			},
			{
				"x": -6.5033212915,
				"y": -1.2441515152,
				"z": -1.3353934026,
				"element": "C" 
			},
			{
				"x": -6.9142662995,
				"y": -0.0936648954,
				"z": -0.6444796308,
				"element": "C" 
			},
			{
				"x": -8.3201778958,
				"y": 0.4364042681,
				"z": -0.7913123277,
				"element": "C" 
			},
			{
				"x": -5.9853752234,
				"y": 0.5390246976,
				"z": 0.1909684458,
				"element": "C" 
			},
			{
				"x": -4.6961038366,
				"y": 0.03175714,
				"z": 0.3493595461,
				"element": "C" 
			},
			{
				"x": -0.4991327872,
				"y": -1.4358367488,
				"z": 2.5823524673,
				"element": "C" 
			},
			{
				"x": 0.775476769,
				"y": -1.7760707172,
				"z": 3.0269912309,
				"element": "C" 
			},
			{
				"x": 2.6996545954,
				"y": 2.8856073401,
				"z": -1.9401128096,
				"element": "H" 
			},
			{
				"x": 1.6284463956,
				"y": 2.334322222,
				"z": -0.6477789318,
				"element": "H" 
			},
			{
				"x": 2.3267325924,
				"y": 3.9586999225,
				"z": -0.5839482562,
				"element": "H" 
			},
			{
				"x": 4.6216151611,
				"y": 2.9838687998,
				"z": -0.3004723827,
				"element": "H" 
			},
			{
				"x": 3.5530088084,
				"y": 2.4511306881,
				"z": 0.9849585117,
				"element": "H" 
			},
			{
				"x": 3.1822475697,
				"y": 0.2780722824,
				"z": -0.2127520997,
				"element": "H" 
			},
			{
				"x": 4.1798927879,
				"y": 0.8299823613,
				"z": -1.5407223895,
				"element": "H" 
			},
			{
				"x": 5.4973696604,
				"y": -0.6734121147,
				"z": -0.1785593929,
				"element": "H" 
			},
			{
				"x": 6.1798896157,
				"y": 0.934620075,
				"z": -0.0825544049,
				"element": "H" 
			},
			{
				"x": 5.2335378792,
				"y": 1.2925553551,
				"z": 2.1616752647,
				"element": "H" 
			},
			{
				"x": 6.2452171495,
				"y": -0.1343557556,
				"z": 2.1064728791,
				"element": "H" 
			},
			{
				"x": 4.1955723066,
				"y": -0.4537774392,
				"z": 3.4714990591,
				"element": "H" 
			},
			{
				"x": 3.1743094428,
				"y": -0.129301754,
				"z": 2.0867422165,
				"element": "H" 
			},
			{
				"x": 5.1419914481,
				"y": -2.4686405919,
				"z": 2.317317645,
				"element": "H" 
			},
			{
				"x": 4.1024867063,
				"y": -2.1725872763,
				"z": 0.9329603672,
				"element": "H" 
			},
			{
				"x": 3.2341785999,
				"y": -3.9337690653,
				"z": 2.485467769,
				"element": "H" 
			},
			{
				"x": 3.1136428573,
				"y": -2.7486404265,
				"z": 3.7764830072,
				"element": "H" 
			},
			{
				"x": 1.8509729887,
				"y": -3.4736994214,
				"z": 0.3051376947,
				"element": "H" 
			},
			{
				"x": -0.410374738,
				"y": -2.8784603509,
				"z": -0.4911878975,
				"element": "H" 
			},
			{
				"x": -2.7612678941,
				"y": -0.9440771184,
				"z": 1.6343793713,
				"element": "H" 
			},
			{
				"x": -4.8938205047,
				"y": -2.6299773035,
				"z": -1.7341365723,
				"element": "H" 
			},
			{
				"x": -7.2023549341,
				"y": -1.7448528555,
				"z": -2.0008513157,
				"element": "H" 
			},
			{
				"x": -8.3876608138,
				"y": 1.4849943913,
				"z": -0.488145244,
				"element": "H" 
			},
			{
				"x": -9.0222580437,
				"y": -0.1317122208,
				"z": -0.1682755447,
				"element": "H" 
			},
			{
				"x": -8.6709135733,
				"y": 0.3576762975,
				"z": -1.8251523162,
				"element": "H" 
			},
			{
				"x": -6.2699083126,
				"y": 1.4473950311,
				"z": 0.7158305905,
				"element": "H" 
			},
			{
				"x": -3.9935764537,
				"y": 0.5784567884,
				"z": 0.9732596735,
				"element": "H" 
			},
			{
				"x": -1.160780479,
				"y": -0.8648283427,
				"z": 3.2308775475,
				"element": "H" 
			},
			{
				"x": 1.0896017962,
				"y": -1.4662468948,
				"z": 4.0205583861,
				"element": "H" 
			}
		],
		 "valence_orbital": [ 
			{
				"type": "occ",
				"energy": -0.25944,
				"method": "rhf"
			},
			{
				"type": "occ",
				"energy": -0.25648,
				"method": "rhf"
			},
			{
				"type": "occ",
				"energy": -0.24695,
				"method": "rhf"
			},
			{
				"type": "occ",
				"energy": -0.24409,
				"method": "rhf"
			},
			{
				"type": "occ",
				"energy": -0.20995,
				"method": "rhf"
			},
			{
				"type": "unocc",
				"energy": -0.03992,
				"method": "rhf"
			},
			{
				"type": "unocc",
				"energy": -0.01061,
				"method": "rhf"
			},
			{
				"type": "unocc",
				"energy": 0.00152,
				"method": "rhf"
			},
			{
				"type": "unocc",
				"energy": 0.01158,
				"method": "rhf"
			},
			{
				"type": "unocc",
				"energy": 0.06435,
				"method": "rhf"
			}
		],
		"cosmo_sigma_profile": { 
			"-0.025": 0.0,
			"-0.024": 0.0,
			"-0.023": 0.0,
			"-0.022": 0.0,
			"-0.021": 0.0,
			"-0.02": 0.0,
			"-0.019": 0.0,
			"-0.018": 0.0,
			"-0.017": 0.0,
			"-0.016": 0.0,
			"-0.015": 0.211685318215,
			"-0.014": 1.01184476341,
			"-0.013": 1.67223942282,
			"-0.012": 0.992269260235,
			"-0.011": 1.44175743422,
			"-0.01": 2.29314322296,
			"-0.009": 0.990718339277,
			"-0.008": 1.70113961368,
			"-0.007": 3.18525545369,
			"-0.006": 5.23729337984,
			"-0.005": 14.8176744557,
			"-0.004": 23.5115628317,
			"-0.003": 27.0154583578,
			"-0.002": 41.5609106696,
			"-0.001": 59.6699522142,
			"0.0": 69.8533809614,
			"0.001": 56.9367295994,
			"0.002": 33.7913607854,
			"0.003": 19.8240071153,
			"0.004": 21.9190794703,
			"0.005": 16.1759291489,
			"0.006": 8.43250768774,
			"0.007": 1.93263992307,
			"0.008": 1.97369843443,
			"0.009": 1.4006053895,
			"0.01": 1.76728876094,
			"0.011": 2.19099614431,
			"0.012": 2.23844307092,
			"0.013": 2.95612624352,
			"0.014": 0.679467245577,
			"0.015": 0.0,
			"0.016": 0.0,
			"0.017": 0.0,
			"0.018": 0.0,
			"0.019": 0.0,
			"0.02": 0.0,
			"0.021": 0.0,
			"0.022": 0.0,
			"0.023": 0.0,
			"0.024": 0.0,
			"0.025": 0.0
		}
	}
}
