{
	 "smiles": "COC1=CC=C(C(=O)C=CC2=CC=CC(OC)=C2OC)C(O)=C1", 
	 "Tm": 372.65, 
	 "num_atms": 41, 
	 "gaussian": { 
		 "optdone": 1, 
		 "sigma_profile": "yes", 
		 "theory": "DFT", 
		 "functional": "B3LYP", 
		 "basiset": "6-31G**", 
		 "properties": { 
			 "R2extent": 13094.6513, 
			 "electric_dipole_moment_norm": 5.05359250929, 
			 "electric_quadrupole_moment_norm": 30.9383243483, 
			 "total_energy": -1072.8219301, 
			 "HOMO_LUMO_gap": 0.15177, 
			 "cosmo_polarized_energy": -20.47, 
			 "cosmo_cavitation_energy": 45.52, 
			 "cosmo_dispersion_energy": -32.13, 
			 "cosmo_repulsion_energy": 2.44, 
			 "cosmo_total_nonelectrostatic_energy": 15.83, 
			 "SMD_solvation_energy": 10.76 
		},
		"coords": [
			{
				"x": 5.4438896822,
				"y": 4.2767880149,
				"z": 2.9453364285,
				"element": "C" 
			},
			{
				"x": 4.4258006051,
				"y": 4.6629774066,
				"z": 2.0345852522,
				"element": "O" 
			},
			{
				"x": 3.5036206862,
				"y": 3.7397471648,
				"z": 1.6553301988,
				"element": "C" 
			},
			{
				"x": 2.5209034621,
				"y": 4.1835149761,
				"z": 0.7547085919,
				"element": "C" 
			},
			{
				"x": 1.5515811992,
				"y": 3.2980310049,
				"z": 0.3272343033,
				"element": "C" 
			},
			{
				"x": 1.4858832149,
				"y": 1.9569119647,
				"z": 0.761930918,
				"element": "C" 
			},
			{
				"x": 0.3592965109,
				"y": 1.1398343641,
				"z": 0.1956557069,
				"element": "C" 
			},
			{
				"x": -0.2674780853,
				"y": 1.5859567283,
				"z": -0.7673391361,
				"element": "O" 
			},
			{
				"x": -0.0266190914,
				"y": -0.1536970584,
				"z": 0.8133217688,
				"element": "C" 
			},
			{
				"x": -1.0381874189,
				"y": -0.8715018312,
				"z": 0.2826591006,
				"element": "C" 
			},
			{
				"x": -1.5574835795,
				"y": -2.1488524602,
				"z": 0.7701842668,
				"element": "C" 
			},
			{
				"x": -1.1180776876,
				"y": -2.7517136376,
				"z": 1.9668246594,
				"element": "C" 
			},
			{
				"x": -1.6257143043,
				"y": -3.9743725129,
				"z": 2.3856970653,
				"element": "C" 
			},
			{
				"x": -2.6099072323,
				"y": -4.6221611994,
				"z": 1.6330919089,
				"element": "C" 
			},
			{
				"x": -3.0766334098,
				"y": -4.0443883535,
				"z": 0.4542725872,
				"element": "C" 
			},
			{
				"x": -4.0228293266,
				"y": -4.7159166238,
				"z": -0.2880324847,
				"element": "O" 
			},
			{
				"x": -5.3193155143,
				"y": -4.1057633478,
				"z": -0.3083116406,
				"element": "C" 
			},
			{
				"x": -2.5469604359,
				"y": -2.8169586626,
				"z": 0.0138061551,
				"element": "C" 
			},
			{
				"x": -3.019852371,
				"y": -2.2417210467,
				"z": -1.1431134205,
				"element": "O" 
			},
			{
				"x": -2.5914767121,
				"y": -2.8810623298,
				"z": -2.3540545202,
				"element": "C" 
			},
			{
				"x": 2.4900604333,
				"y": 1.5329695449,
				"z": 1.655824378,
				"element": "C" 
			},
			{
				"x": 2.5166902587,
				"y": 0.2349567413,
				"z": 2.0863927339,
				"element": "O" 
			},
			{
				"x": 3.4869228518,
				"y": 2.415656799,
				"z": 2.0987864454,
				"element": "C" 
			},
			{
				"x": 6.0723317704,
				"y": 3.4770170466,
				"z": 2.5330631075,
				"element": "H" 
			},
			{
				"x": 5.023920515,
				"y": 3.9482776893,
				"z": 3.9046083841,
				"element": "H" 
			},
			{
				"x": 6.0556922651,
				"y": 5.1651960949,
				"z": 3.1073622635,
				"element": "H" 
			},
			{
				"x": 2.5463603503,
				"y": 5.2131550759,
				"z": 0.415946761,
				"element": "H" 
			},
			{
				"x": 0.7882976055,
				"y": 3.6133975849,
				"z": -0.3755368173,
				"element": "H" 
			},
			{
				"x": 0.5224450788,
				"y": -0.4872621971,
				"z": 1.6828334452,
				"element": "H" 
			},
			{
				"x": -1.5212523819,
				"y": -0.4660428211,
				"z": -0.6011609317,
				"element": "H" 
			},
			{
				"x": -0.3674256157,
				"y": -2.2495401374,
				"z": 2.5678980005,
				"element": "H" 
			},
			{
				"x": -1.2686221404,
				"y": -4.4239553489,
				"z": 3.3073668736,
				"element": "H" 
			},
			{
				"x": -3.0299507699,
				"y": -5.5738459154,
				"z": 1.9426630699,
				"element": "H" 
			},
			{
				"x": -5.9485027535,
				"y": -4.7474816323,
				"z": -0.928522791,
				"element": "H" 
			},
			{
				"x": -5.7401618572,
				"y": -4.0563993655,
				"z": 0.7039286048,
				"element": "H" 
			},
			{
				"x": -5.2797764836,
				"y": -3.0999543621,
				"z": -0.7368813253,
				"element": "H" 
			},
			{
				"x": -2.918142646,
				"y": -3.9249210635,
				"z": -2.3842942394,
				"element": "H" 
			},
			{
				"x": -1.500374909,
				"y": -2.831032813,
				"z": -2.4518441018,
				"element": "H" 
			},
			{
				"x": -3.0525997404,
				"y": -2.323587368,
				"z": -3.1714634336,
				"element": "H" 
			},
			{
				"x": 3.275767324,
				"y": 0.1133939509,
				"z": 2.6709906071,
				"element": "H" 
			},
			{
				"x": 4.2446806532,
				"y": 2.0471499363,
				"z": 2.7830512557,
				"element": "H" 
			}
		],
		 "valence_orbital": [ 
			{
				"type": "occ",
				"energy": -0.24344,
				"method": "rhf"
			},
			{
				"type": "occ",
				"energy": -0.23271,
				"method": "rhf"
			},
			{
				"type": "occ",
				"energy": -0.23111,
				"method": "rhf"
			},
			{
				"type": "occ",
				"energy": -0.22046,
				"method": "rhf"
			},
			{
				"type": "occ",
				"energy": -0.2163,
				"method": "rhf"
			},
			{
				"type": "unocc",
				"energy": -0.06453,
				"method": "rhf"
			},
			{
				"type": "unocc",
				"energy": -0.00857,
				"method": "rhf"
			},
			{
				"type": "unocc",
				"energy": 0.00243,
				"method": "rhf"
			},
			{
				"type": "unocc",
				"energy": 0.0055,
				"method": "rhf"
			},
			{
				"type": "unocc",
				"energy": 0.04386,
				"method": "rhf"
			}
		],
		"cosmo_sigma_profile": { 
			"-0.025": 0.0,
			"-0.024": 0.0,
			"-0.023": 0.0,
			"-0.022": 0.0,
			"-0.021": 0.0,
			"-0.02": 0.0,
			"-0.019": 0.151628041601,
			"-0.018": 1.18672616594,
			"-0.017": 1.09334402738,
			"-0.016": 1.3914490749,
			"-0.015": 0.430094520319,
			"-0.014": 1.13966064435,
			"-0.013": 0.947971870195,
			"-0.012": 1.1086252775,
			"-0.011": 0.706932254418,
			"-0.01": 1.42908406335,
			"-0.009": 1.12239192448,
			"-0.008": 1.23387208864,
			"-0.007": 4.91972020588,
			"-0.006": 17.859997422,
			"-0.005": 24.230419579,
			"-0.004": 31.7837319401,
			"-0.003": 33.0719308904,
			"-0.002": 25.9688010203,
			"-0.001": 20.9570520326,
			"0.0": 22.8079654085,
			"0.001": 25.7948327229,
			"0.002": 29.7843515131,
			"0.003": 34.8537550586,
			"0.004": 28.1353947997,
			"0.005": 13.464226012,
			"0.006": 5.66671353437,
			"0.007": 4.78092496216,
			"0.008": 6.29484210537,
			"0.009": 5.37864219536,
			"0.01": 4.04214940315,
			"0.011": 3.25573111587,
			"0.012": 2.98273024766,
			"0.013": 4.32432886727,
			"0.014": 0.62292483867,
			"0.015": 0.0,
			"0.016": 0.0,
			"0.017": 0.0,
			"0.018": 0.0,
			"0.019": 0.0,
			"0.02": 0.0,
			"0.021": 0.0,
			"0.022": 0.0,
			"0.023": 0.0,
			"0.024": 0.0,
			"0.025": 0.0
		}
	}
}
