{
	 "smiles": "COC1=CC(OC)=C(Cl)C=C1C(C)=O", 
	 "Tm": 408.15, 
	 "num_atms": 25, 
	 "gaussian": { 
		 "optdone": 1, 
		 "sigma_profile": "yes", 
		 "theory": "DFT", 
		 "functional": "B3LYP", 
		 "basiset": "6-31G**", 
		 "properties": { 
			 "R2extent": 3676.0338, 
			 "electric_dipole_moment_norm": 1.58939268276, 
			 "electric_quadrupole_moment_norm": 11.191815137, 
			 "total_energy": -1073.52000969, 
			 "HOMO_LUMO_gap": 0.18383, 
			 "cosmo_polarized_energy": -10.54, 
			 "cosmo_cavitation_energy": 30.67, 
			 "cosmo_dispersion_energy": -21.95, 
			 "cosmo_repulsion_energy": 1.74, 
			 "cosmo_total_nonelectrostatic_energy": 10.46, 
			 "SMD_solvation_energy": 7.21 
		},
		"coords": [
			{
				"x": 1.4152877392,
				"y": 3.3156935758,
				"z": -1.7832707686,
				"element": "C" 
			},
			{
				"x": 1.7899895654,
				"y": 2.1847625391,
				"z": -0.9862352898,
				"element": "O" 
			},
			{
				"x": 0.8391470389,
				"y": 1.2156904617,
				"z": -0.8358987482,
				"element": "C" 
			},
			{
				"x": 0.8657046932,
				"y": 0.1437746767,
				"z": -1.7313930903,
				"element": "C" 
			},
			{
				"x": -0.0108203081,
				"y": -0.9354046518,
				"z": -1.6134478974,
				"element": "C" 
			},
			{
				"x": 0.0129648658,
				"y": -1.9280826249,
				"z": -2.5510795489,
				"element": "O" 
			},
			{
				"x": 0.7781841852,
				"y": -3.0874835081,
				"z": -2.1989045767,
				"element": "C" 
			},
			{
				"x": -0.9296107606,
				"y": -0.9380784927,
				"z": -0.5509481887,
				"element": "C" 
			},
			{
				"x": -2.0677508272,
				"y": -2.2603099002,
				"z": -0.3763228447,
				"element": "Cl" 
			},
			{
				"x": -0.9502855893,
				"y": 0.1120996586,
				"z": 0.3581997666,
				"element": "C" 
			},
			{
				"x": -0.0859221766,
				"y": 1.2134941904,
				"z": 0.2372054864,
				"element": "C" 
			},
			{
				"x": -0.1560880768,
				"y": 2.327606527,
				"z": 1.2385962827,
				"element": "C" 
			},
			{
				"x": -0.771210144,
				"y": 2.0314374248,
				"z": 2.6003060958,
				"element": "C" 
			},
			{
				"x": 0.2575008967,
				"y": 3.4490037077,
				"z": 0.9900233453,
				"element": "O" 
			},
			{
				"x": 0.6128307431,
				"y": 3.8768501674,
				"z": -1.2992621687,
				"element": "H" 
			},
			{
				"x": 1.1125441298,
				"y": 2.9996628012,
				"z": -2.7898999563,
				"element": "H" 
			},
			{
				"x": 2.307019841,
				"y": 3.9409340973,
				"z": -1.8534668858,
				"element": "H" 
			},
			{
				"x": 1.5890869526,
				"y": 0.1483644635,
				"z": -2.5396680145,
				"element": "H" 
			},
			{
				"x": 0.7031062796,
				"y": -3.769090414,
				"z": -3.0475058503,
				"element": "H" 
			},
			{
				"x": 0.3765977648,
				"y": -3.5752023563,
				"z": -1.3042038002,
				"element": "H" 
			},
			{
				"x": 1.8301509036,
				"y": -2.8250358359,
				"z": -2.0320024975,
				"element": "H" 
			},
			{
				"x": -1.6695802249,
				"y": 0.0733400129,
				"z": 1.1672520232,
				"element": "H" 
			},
			{
				"x": -1.8556359616,
				"y": 1.8940120054,
				"z": 2.5161756293,
				"element": "H" 
			},
			{
				"x": -0.5823983677,
				"y": 2.8860434109,
				"z": 3.2506733101,
				"element": "H" 
			},
			{
				"x": -0.3571131618,
				"y": 1.1223180635,
				"z": 3.0469781869,
				"element": "H" 
			}
		],
		 "valence_orbital": [ 
			{
				"type": "occ",
				"energy": -0.29031,
				"method": "rhf"
			},
			{
				"type": "occ",
				"energy": -0.27395,
				"method": "rhf"
			},
			{
				"type": "occ",
				"energy": -0.26508,
				"method": "rhf"
			},
			{
				"type": "occ",
				"energy": -0.24947,
				"method": "rhf"
			},
			{
				"type": "occ",
				"energy": -0.24239,
				"method": "rhf"
			},
			{
				"type": "unocc",
				"energy": -0.05856,
				"method": "rhf"
			},
			{
				"type": "unocc",
				"energy": -0.02031,
				"method": "rhf"
			},
			{
				"type": "unocc",
				"energy": 0.02197,
				"method": "rhf"
			},
			{
				"type": "unocc",
				"energy": 0.0275,
				"method": "rhf"
			},
			{
				"type": "unocc",
				"energy": 0.09842,
				"method": "rhf"
			}
		],
		"cosmo_sigma_profile": { 
			"-0.025": 0.0,
			"-0.024": 0.0,
			"-0.023": 0.0,
			"-0.022": 0.0,
			"-0.021": 0.0,
			"-0.02": 0.0,
			"-0.019": 0.0,
			"-0.018": 0.0,
			"-0.017": 0.0,
			"-0.016": 0.0,
			"-0.015": 0.0,
			"-0.014": 0.0,
			"-0.013": 0.0,
			"-0.012": 0.0,
			"-0.011": 0.0,
			"-0.01": 0.0,
			"-0.009": 0.638404571031,
			"-0.008": 2.82297250345,
			"-0.007": 4.66597971421,
			"-0.006": 9.54865755809,
			"-0.005": 17.8762827111,
			"-0.004": 23.4959054818,
			"-0.003": 28.9298513389,
			"-0.002": 23.3753462299,
			"-0.001": 19.1877118444,
			"0.0": 18.7868407136,
			"0.001": 22.4566147054,
			"0.002": 13.4345013578,
			"0.003": 10.2724387652,
			"0.004": 10.9991618273,
			"0.005": 6.99143042295,
			"0.006": 4.64593793075,
			"0.007": 4.29273168383,
			"0.008": 3.94693570599,
			"0.009": 4.39131333801,
			"0.01": 5.19984241931,
			"0.011": 6.07715683241,
			"0.012": 2.63055539805,
			"0.013": 1.18488337722,
			"0.014": 0.0172231361771,
			"0.015": 0.0,
			"0.016": 0.0,
			"0.017": 0.0,
			"0.018": 0.0,
			"0.019": 0.0,
			"0.02": 0.0,
			"0.021": 0.0,
			"0.022": 0.0,
			"0.023": 0.0,
			"0.024": 0.0,
			"0.025": 0.0
		}
	}
}
