{
	 "smiles": "OC1=C(C=C2C=CC=CC2=C1)C(=O)OC1=CC=CC=C1", 
	 "Tm": 403.15, 
	 "num_atms": 32, 
	 "gaussian": { 
		 "optdone": 1, 
		 "sigma_profile": "yes", 
		 "theory": "DFT", 
		 "functional": "B3LYP", 
		 "basiset": "6-31G**", 
		 "properties": { 
			 "R2extent": 7921.1167, 
			 "electric_dipole_moment_norm": 0.671041325106, 
			 "electric_quadrupole_moment_norm": 21.2292721724, 
			 "total_energy": -880.735335074, 
			 "HOMO_LUMO_gap": 0.14411, 
			 "cosmo_polarized_energy": -10.62, 
			 "cosmo_cavitation_energy": 36.86, 
			 "cosmo_dispersion_energy": -26.9, 
			 "cosmo_repulsion_energy": 2.01, 
			 "cosmo_total_nonelectrostatic_energy": 11.97, 
			 "SMD_solvation_energy": 7.03 
		},
		"coords": [
			{
				"x": 1.1719668535,
				"y": -1.8769185548,
				"z": -0.0477085723,
				"element": "O" 
			},
			{
				"x": 0.6604569698,
				"y": -1.1975533074,
				"z": 1.004278698,
				"element": "C" 
			},
			{
				"x": -0.5225791478,
				"y": -0.3824304802,
				"z": 0.9273937459,
				"element": "C" 
			},
			{
				"x": -0.9649132314,
				"y": 0.2735941118,
				"z": 2.07022507,
				"element": "C" 
			},
			{
				"x": -0.2960597639,
				"y": 0.1707965948,
				"z": 3.3048462445,
				"element": "C" 
			},
			{
				"x": -0.7506221153,
				"y": 0.8443036281,
				"z": 4.4740176066,
				"element": "C" 
			},
			{
				"x": -0.071840536,
				"y": 0.7200966935,
				"z": 5.6623126427,
				"element": "C" 
			},
			{
				"x": 1.0952297431,
				"y": -0.086317362,
				"z": 5.7321076873,
				"element": "C" 
			},
			{
				"x": 1.5615404178,
				"y": -0.7504592036,
				"z": 4.6215744412,
				"element": "C" 
			},
			{
				"x": 0.8836443811,
				"y": -0.6445457911,
				"z": 3.3740575033,
				"element": "C" 
			},
			{
				"x": 1.3290238193,
				"y": -1.3095210099,
				"z": 2.2111000102,
				"element": "C" 
			},
			{
				"x": -1.3412152172,
				"y": -0.1651715711,
				"z": -0.2893960671,
				"element": "C" 
			},
			{
				"x": -2.3417440249,
				"y": 0.5082200613,
				"z": -0.3561705204,
				"element": "O" 
			},
			{
				"x": -0.827693965,
				"y": -0.8346345598,
				"z": -1.3945943986,
				"element": "O" 
			},
			{
				"x": -1.4688255514,
				"y": -0.7361674104,
				"z": -2.6393145766,
				"element": "C" 
			},
			{
				"x": -2.8013644992,
				"y": -1.1086407307,
				"z": -2.8013539192,
				"element": "C" 
			},
			{
				"x": -3.3568783054,
				"y": -1.0626996379,
				"z": -4.0803589247,
				"element": "C" 
			},
			{
				"x": -2.5887566139,
				"y": -0.6588505228,
				"z": -5.1749467627,
				"element": "C" 
			},
			{
				"x": -1.253912036,
				"y": -0.2945043272,
				"z": -4.9910177439,
				"element": "C" 
			},
			{
				"x": -0.6866503497,
				"y": -0.3289073316,
				"z": -3.7161952997,
				"element": "C" 
			},
			{
				"x": 0.6114214063,
				"y": -1.7112941291,
				"z": -0.8250053414,
				"element": "H" 
			},
			{
				"x": -1.8596266499,
				"y": 0.8827512649,
				"z": 1.9883653458,
				"element": "H" 
			},
			{
				"x": -1.6449130681,
				"y": 1.4584433093,
				"z": 4.4074590767,
				"element": "H" 
			},
			{
				"x": -0.4226799454,
				"y": 1.2358728743,
				"z": 6.5509701325,
				"element": "H" 
			},
			{
				"x": 1.6238601314,
				"y": -0.1772284761,
				"z": 6.676896271,
				"element": "H" 
			},
			{
				"x": 2.4550681878,
				"y": -1.3658143695,
				"z": 4.681659856,
				"element": "H" 
			},
			{
				"x": 2.2184463956,
				"y": -1.9308200577,
				"z": 2.2438394159,
				"element": "H" 
			},
			{
				"x": -3.3893793505,
				"y": -1.4175852584,
				"z": -1.9458737372,
				"element": "H" 
			},
			{
				"x": -4.3957011629,
				"y": -1.3466249255,
				"z": -4.2192256877,
				"element": "H" 
			},
			{
				"x": -3.0293123094,
				"y": -0.6289362594,
				"z": -6.1667858264,
				"element": "H" 
			},
			{
				"x": -0.6503528415,
				"y": 0.019258834,
				"z": -5.8373142654,
				"element": "H" 
			},
			{
				"x": 0.3477623791,
				"y": -0.0466120959,
				"z": -3.5491421046,
				"element": "H" 
			}
		],
		 "valence_orbital": [ 
			{
				"type": "occ",
				"energy": -0.28426,
				"method": "rhf"
			},
			{
				"type": "occ",
				"energy": -0.26154,
				"method": "rhf"
			},
			{
				"type": "occ",
				"energy": -0.25313,
				"method": "rhf"
			},
			{
				"type": "occ",
				"energy": -0.24182,
				"method": "rhf"
			},
			{
				"type": "occ",
				"energy": -0.20861,
				"method": "rhf"
			},
			{
				"type": "unocc",
				"energy": -0.0645,
				"method": "rhf"
			},
			{
				"type": "unocc",
				"energy": -0.02111,
				"method": "rhf"
			},
			{
				"type": "unocc",
				"energy": -0.01259,
				"method": "rhf"
			},
			{
				"type": "unocc",
				"energy": -0.00787,
				"method": "rhf"
			},
			{
				"type": "unocc",
				"energy": 0.02174,
				"method": "rhf"
			}
		],
		"cosmo_sigma_profile": { 
			"-0.025": 0.0,
			"-0.024": 0.0,
			"-0.023": 0.0,
			"-0.022": 0.0,
			"-0.021": 0.0,
			"-0.02": 0.0,
			"-0.019": 0.0,
			"-0.018": 0.0,
			"-0.017": 0.0,
			"-0.016": 0.0,
			"-0.015": 0.0,
			"-0.014": 0.0,
			"-0.013": 0.0,
			"-0.012": 0.0,
			"-0.011": 0.0735108422742,
			"-0.01": 0.476144487877,
			"-0.009": 0.897954915167,
			"-0.008": 0.895367572241,
			"-0.007": 6.42064426692,
			"-0.006": 23.2246337246,
			"-0.005": 26.1066269106,
			"-0.004": 27.1210622825,
			"-0.003": 19.6002810505,
			"-0.002": 18.997083167,
			"-0.001": 14.7611194106,
			"0.0": 18.0515032271,
			"0.001": 19.7180996617,
			"0.002": 26.2779719167,
			"0.003": 29.1455987333,
			"0.004": 27.1134569059,
			"0.005": 13.1134050313,
			"0.006": 4.34785939953,
			"0.007": 2.95037804465,
			"0.008": 3.06328247156,
			"0.009": 3.74771268986,
			"0.01": 4.65381671693,
			"0.011": 5.82943446463,
			"0.012": 0.375964978611,
			"0.013": 0.0,
			"0.014": 0.0,
			"0.015": 0.0,
			"0.016": 0.0,
			"0.017": 0.0,
			"0.018": 0.0,
			"0.019": 0.0,
			"0.02": 0.0,
			"0.021": 0.0,
			"0.022": 0.0,
			"0.023": 0.0,
			"0.024": 0.0,
			"0.025": 0.0
		}
	}
}
