{
	 "smiles": "COC(=O)CCCCCCC(O)=O", 
	 "Tm": 291.15, 
	 "num_atms": 29, 
	 "gaussian": { 
		 "optdone": 1, 
		 "sigma_profile": "yes", 
		 "theory": "DFT", 
		 "functional": "B3LYP", 
		 "basiset": "6-31G**", 
		 "properties": { 
			 "R2extent": 4061.8496, 
			 "electric_dipole_moment_norm": 2.76404386543, 
			 "electric_quadrupole_moment_norm": 7.543189814, 
			 "total_energy": -653.533315101, 
			 "HOMO_LUMO_gap": 0.27672, 
			 "cosmo_polarized_energy": -13.5, 
			 "cosmo_cavitation_energy": 31.86, 
			 "cosmo_dispersion_energy": -22.16, 
			 "cosmo_repulsion_energy": 1.81, 
			 "cosmo_total_nonelectrostatic_energy": 11.51, 
			 "SMD_solvation_energy": 7.45 
		},
		"coords": [
			{
				"x": -0.8501144803,
				"y": 1.7342884124,
				"z": -4.1549157201,
				"element": "C" 
			},
			{
				"x": -1.2033603543,
				"y": 0.6495041132,
				"z": -3.2822869662,
				"element": "O" 
			},
			{
				"x": -1.0711111275,
				"y": 0.9048885716,
				"z": -1.9590210545,
				"element": "C" 
			},
			{
				"x": -0.6795599261,
				"y": 1.965914599,
				"z": -1.5225118135,
				"element": "O" 
			},
			{
				"x": -1.4777347579,
				"y": -0.3002803848,
				"z": -1.1339882923,
				"element": "C" 
			},
			{
				"x": -1.3029866231,
				"y": -0.0773504141,
				"z": 0.3703073327,
				"element": "C" 
			},
			{
				"x": -1.8007770804,
				"y": -1.247156338,
				"z": 1.2362291237,
				"element": "C" 
			},
			{
				"x": -1.0687081002,
				"y": -2.589999692,
				"z": 1.0484987939,
				"element": "C" 
			},
			{
				"x": 0.4365807855,
				"y": -2.6141816427,
				"z": 1.3712545443,
				"element": "C" 
			},
			{
				"x": 0.7977698678,
				"y": -2.3912988026,
				"z": 2.8563741181,
				"element": "C" 
			},
			{
				"x": 0.7096288743,
				"y": -0.9618363042,
				"z": 3.3457546197,
				"element": "C" 
			},
			{
				"x": 1.4868773345,
				"y": -0.127812865,
				"z": 2.606132094,
				"element": "O" 
			},
			{
				"x": 0.0608386256,
				"y": -0.5690492043,
				"z": 4.2908735681,
				"element": "O" 
			},
			{
				"x": -1.0141363288,
				"y": 1.3646019333,
				"z": -5.1672280385,
				"element": "H" 
			},
			{
				"x": 0.1963952433,
				"y": 2.0176031397,
				"z": -4.0156821982,
				"element": "H" 
			},
			{
				"x": -1.4777834917,
				"y": 2.6077250486,
				"z": -3.9599902133,
				"element": "H" 
			},
			{
				"x": -2.522204537,
				"y": -0.5342057406,
				"z": -1.3804885694,
				"element": "H" 
			},
			{
				"x": -0.8957779355,
				"y": -1.1566558631,
				"z": -1.494964161,
				"element": "H" 
			},
			{
				"x": -0.2507437512,
				"y": 0.1381816688,
				"z": 0.5829743669,
				"element": "H" 
			},
			{
				"x": -1.8494978338,
				"y": 0.8293176779,
				"z": 0.651799046,
				"element": "H" 
			},
			{
				"x": -2.8667638638,
				"y": -1.4132464383,
				"z": 1.027762666,
				"element": "H" 
			},
			{
				"x": -1.7511305397,
				"y": -0.9481198535,
				"z": 2.2893335994,
				"element": "H" 
			},
			{
				"x": -1.5691058892,
				"y": -3.3432025082,
				"z": 1.6719247018,
				"element": "H" 
			},
			{
				"x": -1.1966911814,
				"y": -2.9336912932,
				"z": 0.0137490332,
				"element": "H" 
			},
			{
				"x": 0.8245223069,
				"y": -3.5993988769,
				"z": 1.0868738784,
				"element": "H" 
			},
			{
				"x": 0.9796809979,
				"y": -1.8864937448,
				"z": 0.7587764061,
				"element": "H" 
			},
			{
				"x": 1.8366717039,
				"y": -2.7075007749,
				"z": 3.0137118442,
				"element": "H" 
			},
			{
				"x": 0.1641042222,
				"y": -2.9949032274,
				"z": 3.5113941521,
				"element": "H" 
			},
			{
				"x": 1.3691178404,
				"y": 0.7592588041,
				"z": 2.9858531385,
				"element": "H" 
			}
		],
		 "valence_orbital": [ 
			{
				"type": "occ",
				"energy": -0.31927,
				"method": "rhf"
			},
			{
				"type": "occ",
				"energy": -0.3102,
				"method": "rhf"
			},
			{
				"type": "occ",
				"energy": -0.29851,
				"method": "rhf"
			},
			{
				"type": "occ",
				"energy": -0.27032,
				"method": "rhf"
			},
			{
				"type": "occ",
				"energy": -0.26917,
				"method": "rhf"
			},
			{
				"type": "unocc",
				"energy": 0.00755,
				"method": "rhf"
			},
			{
				"type": "unocc",
				"energy": 0.0155,
				"method": "rhf"
			},
			{
				"type": "unocc",
				"energy": 0.06718,
				"method": "rhf"
			},
			{
				"type": "unocc",
				"energy": 0.08629,
				"method": "rhf"
			},
			{
				"type": "unocc",
				"energy": 0.1116,
				"method": "rhf"
			}
		],
		"cosmo_sigma_profile": { 
			"-0.025": 0.0,
			"-0.024": 0.0,
			"-0.023": 0.0,
			"-0.022": 0.0,
			"-0.021": 0.0,
			"-0.02": 0.0,
			"-0.019": 0.00806248106241,
			"-0.018": 0.520505708904,
			"-0.017": 0.995238675377,
			"-0.016": 0.897807935079,
			"-0.015": 0.572705138577,
			"-0.014": 0.420956969381,
			"-0.013": 0.407054390955,
			"-0.012": 0.831397894328,
			"-0.011": 0.914449075466,
			"-0.01": 0.987079047319,
			"-0.009": 0.721174389083,
			"-0.008": 0.437654171691,
			"-0.007": 1.13584794323,
			"-0.006": 7.57268379991,
			"-0.005": 15.4257598719,
			"-0.004": 19.9642496012,
			"-0.003": 32.9874690841,
			"-0.002": 33.7543547221,
			"-0.001": 27.117254553,
			"0.0": 21.2225001248,
			"0.001": 12.8310469768,
			"0.002": 7.8711294143,
			"0.003": 5.75129384393,
			"0.004": 6.68138140985,
			"0.005": 5.30574987222,
			"0.006": 5.67912425218,
			"0.007": 4.24971152631,
			"0.008": 4.39307345554,
			"0.009": 5.39128669756,
			"0.01": 4.7157153838,
			"0.011": 4.79991841131,
			"0.012": 9.79526673411,
			"0.013": 3.12745415086,
			"0.014": 0.0602099727213,
			"0.015": 0.0,
			"0.016": 0.0,
			"0.017": 0.0,
			"0.018": 0.0,
			"0.019": 0.0,
			"0.02": 0.0,
			"0.021": 0.0,
			"0.022": 0.0,
			"0.023": 0.0,
			"0.024": 0.0,
			"0.025": 0.0
		}
	}
}
