{
	 "smiles": "CC1=C(C)S(=O)(=O)CCS1(=O)=O", 
	 "Tm": 441.15, 
	 "num_atms": 22, 
	 "gaussian": { 
		 "optdone": 1, 
		 "sigma_profile": "yes", 
		 "theory": "DFT", 
		 "functional": "B3LYP", 
		 "basiset": "6-31G**", 
		 "properties": { 
			 "R2extent": 2882.6691, 
			 "electric_dipole_moment_norm": 0.935860128438, 
			 "electric_quadrupole_moment_norm": 22.7523750576, 
			 "total_energy": -1331.78364387, 
			 "HOMO_LUMO_gap": 0.23212, 
			 "cosmo_polarized_energy": -20.21, 
			 "cosmo_cavitation_energy": 26.8, 
			 "cosmo_dispersion_energy": -20.64, 
			 "cosmo_repulsion_energy": 1.52, 
			 "cosmo_total_nonelectrostatic_energy": 7.68, 
			 "SMD_solvation_energy": 3.41 
		},
		"coords": [
			{
				"x": -1.3030784656,
				"y": -3.0014936052,
				"z": -1.0956054377,
				"element": "C" 
			},
			{
				"x": -1.1421976464,
				"y": -1.5890651921,
				"z": -0.5919853841,
				"element": "C" 
			},
			{
				"x": 0.0136604564,
				"y": -0.9942477309,
				"z": -0.2527960468,
				"element": "C" 
			},
			{
				"x": 1.3784074564,
				"y": -1.6360647402,
				"z": -0.2488024907,
				"element": "C" 
			},
			{
				"x": 0.1752730014,
				"y": 0.7235467876,
				"z": 0.3229957689,
				"element": "S" 
			},
			{
				"x": 0.2711787716,
				"y": 0.685171081,
				"z": 1.7916174439,
				"element": "O" 
			},
			{
				"x": 1.2386135722,
				"y": 1.3486690983,
				"z": -0.4742290293,
				"element": "O" 
			},
			{
				"x": -1.392673775,
				"y": 1.5238137469,
				"z": -0.1040202203,
				"element": "C" 
			},
			{
				"x": -2.5586655311,
				"y": 0.7103269299,
				"z": 0.4311779628,
				"element": "C" 
			},
			{
				"x": -2.7770778636,
				"y": -0.7924998394,
				"z": -0.556255982,
				"element": "S" 
			},
			{
				"x": -3.0923350983,
				"y": -0.3793830606,
				"z": -1.9337435169,
				"element": "O" 
			},
			{
				"x": -3.6802198781,
				"y": -1.6912222021,
				"z": 0.1742706565,
				"element": "O" 
			},
			{
				"x": -0.3439506878,
				"y": -3.5018563042,
				"z": -1.2188214285,
				"element": "H" 
			},
			{
				"x": -1.9256469005,
				"y": -3.5788457752,
				"z": -0.4062059588,
				"element": "H" 
			},
			{
				"x": -1.8111404752,
				"y": -2.990059954,
				"z": -2.0660163734,
				"element": "H" 
			},
			{
				"x": 1.3320661814,
				"y": -2.6936397409,
				"z": -0.5034563755,
				"element": "H" 
			},
			{
				"x": 1.8257363434,
				"y": -1.5422645972,
				"z": 0.7467098039,
				"element": "H" 
			},
			{
				"x": 2.0381374697,
				"y": -1.1232727846,
				"z": -0.9544969252,
				"element": "H" 
			},
			{
				"x": -1.430250435,
				"y": 1.6433147084,
				"z": -1.189295996,
				"element": "H" 
			},
			{
				"x": -1.3305280938,
				"y": 2.5080948922,
				"z": 0.3688072603,
				"element": "H" 
			},
			{
				"x": -3.5089600162,
				"y": 1.2416938902,
				"z": 0.3271090436,
				"element": "H" 
			},
			{
				"x": -2.418748386,
				"y": 0.4160843922,
				"z": 1.4739432255,
				"element": "H" 
			}
		],
		 "valence_orbital": [ 
			{
				"type": "occ",
				"energy": -0.32355,
				"method": "rhf"
			},
			{
				"type": "occ",
				"energy": -0.32027,
				"method": "rhf"
			},
			{
				"type": "occ",
				"energy": -0.3148,
				"method": "rhf"
			},
			{
				"type": "occ",
				"energy": -0.30003,
				"method": "rhf"
			},
			{
				"type": "occ",
				"energy": -0.28812,
				"method": "rhf"
			},
			{
				"type": "unocc",
				"energy": -0.056,
				"method": "rhf"
			},
			{
				"type": "unocc",
				"energy": 0.01886,
				"method": "rhf"
			},
			{
				"type": "unocc",
				"energy": 0.03004,
				"method": "rhf"
			},
			{
				"type": "unocc",
				"energy": 0.04842,
				"method": "rhf"
			},
			{
				"type": "unocc",
				"energy": 0.06488,
				"method": "rhf"
			}
		],
		"cosmo_sigma_profile": { 
			"-0.025": 0.0,
			"-0.024": 0.0,
			"-0.023": 0.0,
			"-0.022": 0.0,
			"-0.021": 0.0,
			"-0.02": 0.0,
			"-0.019": 0.0,
			"-0.018": 0.0,
			"-0.017": 0.0,
			"-0.016": 0.0,
			"-0.015": 0.0,
			"-0.014": 0.0,
			"-0.013": 0.0,
			"-0.012": 0.0315659423578,
			"-0.011": 4.01169010608,
			"-0.01": 7.17995835536,
			"-0.009": 8.75414813595,
			"-0.008": 9.31649525327,
			"-0.007": 10.2135547066,
			"-0.006": 13.0995334867,
			"-0.005": 12.8449005797,
			"-0.004": 13.1371317151,
			"-0.003": 21.4470988389,
			"-0.002": 16.2864346387,
			"-0.001": 7.83004056986,
			"0.0": 5.17780420407,
			"0.001": 5.52380801896,
			"0.002": 4.93863942871,
			"0.003": 3.65846721378,
			"0.004": 3.46462049735,
			"0.005": 3.70169437306,
			"0.006": 4.03744718325,
			"0.007": 6.56075587174,
			"0.008": 5.81241901929,
			"0.009": 7.09660270308,
			"0.01": 18.7115530479,
			"0.011": 16.9994633891,
			"0.012": 2.10074905002,
			"0.013": 0.0,
			"0.014": 0.0,
			"0.015": 0.0,
			"0.016": 0.0,
			"0.017": 0.0,
			"0.018": 0.0,
			"0.019": 0.0,
			"0.02": 0.0,
			"0.021": 0.0,
			"0.022": 0.0,
			"0.023": 0.0,
			"0.024": 0.0,
			"0.025": 0.0
		}
	}
}
