{
	 "smiles": "CCCCNC(=O)C(N(CC1=CC=CO1)C(=O)CC1=CC=CC=C1)C1=CC2=C(C=CC=C2)C2=C1C=CC=C2", 
	 "Tm": 458.15, 
	 "num_atms": 70, 
	 "gaussian": { 
		 "optdone": 1, 
		 "sigma_profile": "yes", 
		 "theory": "DFT", 
		 "functional": "B3LYP", 
		 "basiset": "6-31G**", 
		 "properties": { 
			 "R2extent": 17711.9526, 
			 "electric_dipole_moment_norm": 6.37701259917, 
			 "electric_quadrupole_moment_norm": 15.030398827, 
			 "total_energy": -1611.99775923, 
			 "HOMO_LUMO_gap": 0.16957, 
			 "cosmo_polarized_energy": -24.2, 
			 "cosmo_cavitation_energy": 70.36, 
			 "cosmo_dispersion_energy": -42.49, 
			 "cosmo_repulsion_energy": 3.17, 
			 "cosmo_total_nonelectrostatic_energy": 31.05, 
			 "SMD_solvation_energy": 11.82 
		},
		"coords": [
			{
				"x": 0.411868432,
				"y": 3.7285272195,
				"z": 4.6924309777,
				"element": "C" 
			},
			{
				"x": -0.1045954698,
				"y": 2.3816825473,
				"z": 4.1712283574,
				"element": "C" 
			},
			{
				"x": 0.9665301702,
				"y": 1.2839759471,
				"z": 4.0702588919,
				"element": "C" 
			},
			{
				"x": 2.0911638227,
				"y": 1.5530677069,
				"z": 3.0571803489,
				"element": "C" 
			},
			{
				"x": 1.6313623745,
				"y": 1.6999458719,
				"z": 1.6785458593,
				"element": "N" 
			},
			{
				"x": 1.5096233781,
				"y": 0.6354785505,
				"z": 0.835020907,
				"element": "C" 
			},
			{
				"x": 1.8287968351,
				"y": -0.5052535938,
				"z": 1.1406359215,
				"element": "O" 
			},
			{
				"x": 0.9693031971,
				"y": 0.9920727566,
				"z": -0.5786293424,
				"element": "C" 
			},
			{
				"x": 1.6167315381,
				"y": 0.1219042169,
				"z": -1.5756228325,
				"element": "N" 
			},
			{
				"x": 3.0228977079,
				"y": 0.5143847609,
				"z": -1.840903057,
				"element": "C" 
			},
			{
				"x": 3.1687239771,
				"y": 1.6957472905,
				"z": -2.7402751548,
				"element": "C" 
			},
			{
				"x": 3.3099064394,
				"y": 1.8318236926,
				"z": -4.0912232672,
				"element": "C" 
			},
			{
				"x": 3.3824367817,
				"y": 3.2377200165,
				"z": -4.3624520906,
				"element": "C" 
			},
			{
				"x": 3.2819395426,
				"y": 3.8610247219,
				"z": -3.1567890933,
				"element": "C" 
			},
			{
				"x": 3.1525384285,
				"y": 2.942453418,
				"z": -2.1560856357,
				"element": "O" 
			},
			{
				"x": 1.2976345942,
				"y": -1.1870774382,
				"z": -1.9242867567,
				"element": "C" 
			},
			{
				"x": 2.1101605437,
				"y": -1.8819015971,
				"z": -2.5320787606,
				"element": "O" 
			},
			{
				"x": -0.086267697,
				"y": -1.7707878308,
				"z": -1.6569472188,
				"element": "C" 
			},
			{
				"x": -0.139830962,
				"y": -2.7811246157,
				"z": -0.5163870171,
				"element": "C" 
			},
			{
				"x": 0.9046775024,
				"y": -3.6830433256,
				"z": -0.2738905782,
				"element": "C" 
			},
			{
				"x": 0.7994459337,
				"y": -4.6297827325,
				"z": 0.7447587957,
				"element": "C" 
			},
			{
				"x": -0.3514492315,
				"y": -4.6989450983,
				"z": 1.5327333335,
				"element": "C" 
			},
			{
				"x": -1.3998671934,
				"y": -3.810830432,
				"z": 1.2926107993,
				"element": "C" 
			},
			{
				"x": -1.2921753075,
				"y": -2.8589543172,
				"z": 0.2764460179,
				"element": "C" 
			},
			{
				"x": -0.5538863285,
				"y": 1.1349961518,
				"z": -0.5999331778,
				"element": "C" 
			},
			{
				"x": -1.3029065216,
				"y": 0.7079946191,
				"z": 0.4590744458,
				"element": "C" 
			},
			{
				"x": -2.7183365723,
				"y": 0.9130860795,
				"z": 0.5383236557,
				"element": "C" 
			},
			{
				"x": -3.3923754171,
				"y": 1.5977091338,
				"z": -0.511426316,
				"element": "C" 
			},
			{
				"x": -4.7887797982,
				"y": 1.787700285,
				"z": -0.3867909458,
				"element": "C" 
			},
			{
				"x": -5.4831750606,
				"y": 1.3209180991,
				"z": 0.7151882767,
				"element": "C" 
			},
			{
				"x": -4.8111233933,
				"y": 0.6394956054,
				"z": 1.7473172667,
				"element": "C" 
			},
			{
				"x": -3.4476766488,
				"y": 0.4412455324,
				"z": 1.6557218627,
				"element": "C" 
			},
			{
				"x": -2.6157663194,
				"y": 2.0603308197,
				"z": -1.6546678109,
				"element": "C" 
			},
			{
				"x": -1.2051800277,
				"y": 1.8226084553,
				"z": -1.7024866518,
				"element": "C" 
			},
			{
				"x": -0.4782282404,
				"y": 2.2676898393,
				"z": -2.8336793411,
				"element": "C" 
			},
			{
				"x": -1.0980838725,
				"y": 2.9363153247,
				"z": -3.8721143712,
				"element": "C" 
			},
			{
				"x": -2.4798540677,
				"y": 3.1824448423,
				"z": -3.8205503323,
				"element": "C" 
			},
			{
				"x": -3.2166800769,
				"y": 2.7484628953,
				"z": -2.7346634409,
				"element": "C" 
			},
			{
				"x": 1.1615285399,
				"y": 4.1712373244,
				"z": 4.0268167587,
				"element": "H" 
			},
			{
				"x": -0.4037254137,
				"y": 4.4524740197,
				"z": 4.7876700556,
				"element": "H" 
			},
			{
				"x": 0.8757464996,
				"y": 3.6187066168,
				"z": 5.6794590039,
				"element": "H" 
			},
			{
				"x": -0.577733214,
				"y": 2.5200720201,
				"z": 3.1900698751,
				"element": "H" 
			},
			{
				"x": -0.9014622082,
				"y": 2.0257083746,
				"z": 4.835694909,
				"element": "H" 
			},
			{
				"x": 1.4325160263,
				"y": 1.13545046,
				"z": 5.0541169675,
				"element": "H" 
			},
			{
				"x": 0.494119539,
				"y": 0.3310693913,
				"z": 3.8048749567,
				"element": "H" 
			},
			{
				"x": 2.6488679868,
				"y": 2.4575360969,
				"z": 3.3218292304,
				"element": "H" 
			},
			{
				"x": 2.792529102,
				"y": 0.7153262676,
				"z": 3.064543355,
				"element": "H" 
			},
			{
				"x": 1.2967731831,
				"y": 2.6008770205,
				"z": 1.3706422373,
				"element": "H" 
			},
			{
				"x": 1.3523716184,
				"y": 1.9923824782,
				"z": -0.8121656951,
				"element": "H" 
			},
			{
				"x": 3.4945000405,
				"y": -0.351475475,
				"z": -2.3026131328,
				"element": "H" 
			},
			{
				"x": 3.5279988559,
				"y": 0.7089675892,
				"z": -0.8874634741,
				"element": "H" 
			},
			{
				"x": 3.356526314,
				"y": 1.0216470287,
				"z": -4.8049109812,
				"element": "H" 
			},
			{
				"x": 3.5044228478,
				"y": 3.714807213,
				"z": -5.3243284587,
				"element": "H" 
			},
			{
				"x": 3.2936165045,
				"y": 4.8951208745,
				"z": -2.8490589472,
				"element": "H" 
			},
			{
				"x": -0.8439976183,
				"y": -1.0067011172,
				"z": -1.5050771297,
				"element": "H" 
			},
			{
				"x": -0.3298115102,
				"y": -2.2878091602,
				"z": -2.5928294558,
				"element": "H" 
			},
			{
				"x": 1.7975193487,
				"y": -3.6360060526,
				"z": -0.8879044924,
				"element": "H" 
			},
			{
				"x": 1.6213654082,
				"y": -5.3181294857,
				"z": 0.9222518967,
				"element": "H" 
			},
			{
				"x": -0.4304579384,
				"y": -5.4393523284,
				"z": 2.3239905635,
				"element": "H" 
			},
			{
				"x": -2.303716718,
				"y": -3.8561566041,
				"z": 1.8945872963,
				"element": "H" 
			},
			{
				"x": -2.1159869646,
				"y": -2.1737881284,
				"z": 0.0940683263,
				"element": "H" 
			},
			{
				"x": -0.8321884682,
				"y": 0.1648777799,
				"z": 1.2722809931,
				"element": "H" 
			},
			{
				"x": -5.3388403413,
				"y": 2.3053314892,
				"z": -1.1642493326,
				"element": "H" 
			},
			{
				"x": -6.555476473,
				"y": 1.4806142598,
				"z": 0.7811848742,
				"element": "H" 
			},
			{
				"x": -5.3625208704,
				"y": 0.272903339,
				"z": 2.6079910528,
				"element": "H" 
			},
			{
				"x": -2.9123833185,
				"y": -0.0838794715,
				"z": 2.4423996788,
				"element": "H" 
			},
			{
				"x": 0.5812095528,
				"y": 2.0590274532,
				"z": -2.9043020232,
				"element": "H" 
			},
			{
				"x": -0.5129390434,
				"y": 3.2641063218,
				"z": -4.7260264676,
				"element": "H" 
			},
			{
				"x": -2.9726298009,
				"y": 3.7074861418,
				"z": -4.6336694701,
				"element": "H" 
			},
			{
				"x": -4.2826444591,
				"y": 2.9440628441,
				"z": -2.7196654955,
				"element": "H" 
			}
		],
		 "valence_orbital": [ 
			{
				"type": "occ",
				"energy": -0.23112,
				"method": "rhf"
			},
			{
				"type": "occ",
				"energy": -0.22935,
				"method": "rhf"
			},
			{
				"type": "occ",
				"energy": -0.22699,
				"method": "rhf"
			},
			{
				"type": "occ",
				"energy": -0.22067,
				"method": "rhf"
			},
			{
				"type": "occ",
				"energy": -0.21923,
				"method": "rhf"
			},
			{
				"type": "unocc",
				"energy": -0.04966,
				"method": "rhf"
			},
			{
				"type": "unocc",
				"energy": -0.03917,
				"method": "rhf"
			},
			{
				"type": "unocc",
				"energy": -0.0026,
				"method": "rhf"
			},
			{
				"type": "unocc",
				"energy": 0.0037,
				"method": "rhf"
			},
			{
				"type": "unocc",
				"energy": 0.01213,
				"method": "rhf"
			}
		],
		"cosmo_sigma_profile": { 
			"-0.025": 0.0,
			"-0.024": 0.0,
			"-0.023": 0.0,
			"-0.022": 0.0,
			"-0.021": 0.0,
			"-0.02": 0.0,
			"-0.019": 0.0,
			"-0.018": 0.0,
			"-0.017": 0.0,
			"-0.016": 0.0,
			"-0.015": 0.142175448323,
			"-0.014": 0.819794718903,
			"-0.013": 1.20024615086,
			"-0.012": 1.27606989624,
			"-0.011": 0.987959317155,
			"-0.01": 1.26767421395,
			"-0.009": 2.68371223214,
			"-0.008": 5.44384551035,
			"-0.007": 8.44136511191,
			"-0.006": 19.4240385034,
			"-0.005": 33.2104004921,
			"-0.004": 41.6961874599,
			"-0.003": 47.5817024286,
			"-0.002": 54.5407021282,
			"-0.001": 53.5563212431,
			"0.0": 48.2476750136,
			"0.001": 48.1609721915,
			"0.002": 43.1556667794,
			"0.003": 38.6120553678,
			"0.004": 34.0593120497,
			"0.005": 28.8320497315,
			"0.006": 11.3769896588,
			"0.007": 6.72156321359,
			"0.008": 3.96407778029,
			"0.009": 4.388239374,
			"0.01": 2.8473309541,
			"0.011": 5.06148180891,
			"0.012": 4.94580576648,
			"0.013": 5.19980265499,
			"0.014": 1.72147731402,
			"0.015": 0.0176215343985,
			"0.016": 0.0,
			"0.017": 0.0,
			"0.018": 0.0,
			"0.019": 0.0,
			"0.02": 0.0,
			"0.021": 0.0,
			"0.022": 0.0,
			"0.023": 0.0,
			"0.024": 0.0,
			"0.025": 0.0
		}
	}
}
