{
	 "smiles": "COC(=O)C1=C(C)C=C(CCl)O1", 
	 "Tm": 327.15, 
	 "num_atms": 21, 
	 "gaussian": { 
		 "optdone": 1, 
		 "sigma_profile": "yes", 
		 "theory": "DFT", 
		 "functional": "B3LYP", 
		 "basiset": "6-31G**", 
		 "properties": { 
			 "R2extent": 3967.1642, 
			 "electric_dipole_moment_norm": 4.17476001825, 
			 "electric_quadrupole_moment_norm": 14.2500770384, 
			 "total_energy": -996.133173667, 
			 "HOMO_LUMO_gap": 0.18619, 
			 "cosmo_polarized_energy": -11.93, 
			 "cosmo_cavitation_energy": 27.79, 
			 "cosmo_dispersion_energy": -19.92, 
			 "cosmo_repulsion_energy": 1.64, 
			 "cosmo_total_nonelectrostatic_energy": 9.51, 
			 "SMD_solvation_energy": 6.69 
		},
		"coords": [
			{
				"x": 3.56139738,
				"y": 2.2029207998,
				"z": -0.533042475,
				"element": "C" 
			},
			{
				"x": 2.360964067,
				"y": 1.4332198527,
				"z": -0.3604360128,
				"element": "O" 
			},
			{
				"x": 2.5103136558,
				"y": 0.0972421058,
				"z": -0.5513227117,
				"element": "C" 
			},
			{
				"x": 3.560560322,
				"y": -0.4332933482,
				"z": -0.8471399006,
				"element": "O" 
			},
			{
				"x": 1.2358508774,
				"y": -0.599436284,
				"z": -0.3524103135,
				"element": "C" 
			},
			{
				"x": -0.0469678615,
				"y": -0.1876240477,
				"z": -0.0506064519,
				"element": "C" 
			},
			{
				"x": -0.5480862446,
				"y": 1.2044115792,
				"z": 0.1974678911,
				"element": "C" 
			},
			{
				"x": -0.8244908771,
				"y": -1.3834164508,
				"z": -0.021460775,
				"element": "C" 
			},
			{
				"x": 0.0226193907,
				"y": -2.4232625638,
				"z": -0.3031663464,
				"element": "C" 
			},
			{
				"x": -0.1792309093,
				"y": -3.8816272216,
				"z": -0.4058779321,
				"element": "C" 
			},
			{
				"x": 0.2199286417,
				"y": -4.7715539773,
				"z": 1.153927182,
				"element": "Cl" 
			},
			{
				"x": 1.2782204944,
				"y": -1.9573297364,
				"z": -0.5071845981,
				"element": "O" 
			},
			{
				"x": 4.3291813651,
				"y": 1.8837689206,
				"z": 0.1761866656,
				"element": "H" 
			},
			{
				"x": 3.9510737212,
				"y": 2.0878389338,
				"z": -1.5476207126,
				"element": "H" 
			},
			{
				"x": 3.2751937391,
				"y": 3.2381331231,
				"z": -0.3476412647,
				"element": "H" 
			},
			{
				"x": -0.0441731262,
				"y": 1.6599349306,
				"z": 1.0549157957,
				"element": "H" 
			},
			{
				"x": -0.3588687754,
				"y": 1.8547974187,
				"z": -0.6613285325,
				"element": "H" 
			},
			{
				"x": -1.622958284,
				"y": 1.1942879984,
				"z": 0.3945076022,
				"element": "H" 
			},
			{
				"x": -1.8824892583,
				"y": -1.4591762982,
				"z": 0.1890589044,
				"element": "H" 
			},
			{
				"x": -1.2206618414,
				"y": -4.1145080676,
				"z": -0.6226384829,
				"element": "H" 
			},
			{
				"x": 0.4691235235,
				"y": -4.3186276672,
				"z": -1.1648875313,
				"element": "H" 
			}
		],
		 "valence_orbital": [ 
			{
				"type": "occ",
				"energy": -0.30227,
				"method": "rhf"
			},
			{
				"type": "occ",
				"energy": -0.29873,
				"method": "rhf"
			},
			{
				"type": "occ",
				"energy": -0.2856,
				"method": "rhf"
			},
			{
				"type": "occ",
				"energy": -0.27677,
				"method": "rhf"
			},
			{
				"type": "occ",
				"energy": -0.23978,
				"method": "rhf"
			},
			{
				"type": "unocc",
				"energy": -0.05359,
				"method": "rhf"
			},
			{
				"type": "unocc",
				"energy": 0.00206,
				"method": "rhf"
			},
			{
				"type": "unocc",
				"energy": 0.061,
				"method": "rhf"
			},
			{
				"type": "unocc",
				"energy": 0.09205,
				"method": "rhf"
			},
			{
				"type": "unocc",
				"energy": 0.09917,
				"method": "rhf"
			}
		],
		"cosmo_sigma_profile": { 
			"-0.025": 0.0,
			"-0.024": 0.0,
			"-0.023": 0.0,
			"-0.022": 0.0,
			"-0.021": 0.0,
			"-0.02": 0.0,
			"-0.019": 0.0,
			"-0.018": 0.0,
			"-0.017": 0.0,
			"-0.016": 0.0,
			"-0.015": 0.0,
			"-0.014": 0.0,
			"-0.013": 0.0,
			"-0.012": 0.0,
			"-0.011": 0.0,
			"-0.01": 0.0951734084266,
			"-0.009": 3.57543094324,
			"-0.008": 6.06398271434,
			"-0.007": 6.89882649101,
			"-0.006": 10.6714605898,
			"-0.005": 16.6090520941,
			"-0.004": 16.5275876101,
			"-0.003": 18.0797718507,
			"-0.002": 16.1870737915,
			"-0.001": 18.1525696846,
			"0.0": 18.3220710303,
			"0.001": 14.4812738347,
			"0.002": 13.175106615,
			"0.003": 11.3024175901,
			"0.004": 10.4896103811,
			"0.005": 8.88670256316,
			"0.006": 11.9622942566,
			"0.007": 4.58156971172,
			"0.008": 1.8784363421,
			"0.009": 2.25421984695,
			"0.01": 2.43633588647,
			"0.011": 3.83267927322,
			"0.012": 5.2981367203,
			"0.013": 1.46231452261,
			"0.014": 0.0,
			"0.015": 0.0,
			"0.016": 0.0,
			"0.017": 0.0,
			"0.018": 0.0,
			"0.019": 0.0,
			"0.02": 0.0,
			"0.021": 0.0,
			"0.022": 0.0,
			"0.023": 0.0,
			"0.024": 0.0,
			"0.025": 0.0
		}
	}
}
