{
	 "smiles": "CC(=O)OCCCCOC(C)=O", 
	 "Tm": 285.65, 
	 "num_atms": 26, 
	 "gaussian": { 
		 "optdone": 1, 
		 "sigma_profile": "yes", 
		 "theory": "DFT", 
		 "functional": "B3LYP", 
		 "basiset": "6-31G**", 
		 "properties": { 
			 "R2extent": 3242.2319, 
			 "electric_dipole_moment_norm": 3.2345107528, 
			 "electric_quadrupole_moment_norm": 12.0958082115, 
			 "total_energy": -614.21864708, 
			 "HOMO_LUMO_gap": 0.28203, 
			 "cosmo_polarized_energy": -11.76, 
			 "cosmo_cavitation_energy": 30.09, 
			 "cosmo_dispersion_energy": -20.66, 
			 "cosmo_repulsion_energy": 1.72, 
			 "cosmo_total_nonelectrostatic_energy": 11.15, 
			 "SMD_solvation_energy": 7.47 
		},
		"coords": [
			{
				"x": 4.3504810044,
				"y": 0.3988640932,
				"z": -0.2469786304,
				"element": "C" 
			},
			{
				"x": 2.8823968325,
				"y": 0.0598664586,
				"z": -0.360917308,
				"element": "C" 
			},
			{
				"x": 2.4225706878,
				"y": -1.0615791969,
				"z": -0.3884540342,
				"element": "O" 
			},
			{
				"x": 2.1357538357,
				"y": 1.1873401956,
				"z": -0.4259843189,
				"element": "O" 
			},
			{
				"x": 0.7027996601,
				"y": 1.0080989528,
				"z": -0.5307790329,
				"element": "C" 
			},
			{
				"x": 0.2851353752,
				"y": 0.8630865108,
				"z": -1.9935146915,
				"element": "C" 
			},
			{
				"x": -1.2356129334,
				"y": 0.890825751,
				"z": -2.2252868969,
				"element": "C" 
			},
			{
				"x": -2.0023301916,
				"y": -0.3420388403,
				"z": -1.7672280025,
				"element": "C" 
			},
			{
				"x": -1.9846088739,
				"y": -0.393201442,
				"z": -0.3218764006,
				"element": "O" 
			},
			{
				"x": -2.6928331141,
				"y": -1.4041440723,
				"z": 0.2400223743,
				"element": "C" 
			},
			{
				"x": -2.5576710744,
				"y": -1.3876484045,
				"z": 1.7439894212,
				"element": "C" 
			},
			{
				"x": -3.3306938345,
				"y": -2.2079290148,
				"z": -0.402756192,
				"element": "O" 
			},
			{
				"x": 4.5269961524,
				"y": 1.0100445149,
				"z": 0.6429964046,
				"element": "H" 
			},
			{
				"x": 4.6673850282,
				"y": 0.9873253046,
				"z": -1.1131397583,
				"element": "H" 
			},
			{
				"x": 4.9319229083,
				"y": -0.5206935346,
				"z": -0.18942003,
				"element": "H" 
			},
			{
				"x": 0.404164233,
				"y": 0.1427063552,
				"z": 0.0595654009,
				"element": "H" 
			},
			{
				"x": 0.2764268891,
				"y": 1.9128956962,
				"z": -0.0888710069,
				"element": "H" 
			},
			{
				"x": 0.7429569176,
				"y": 1.6848709278,
				"z": -2.5570073075,
				"element": "H" 
			},
			{
				"x": 0.7043648557,
				"y": -0.0693894061,
				"z": -2.3892107878,
				"element": "H" 
			},
			{
				"x": -1.6761276761,
				"y": 1.7797777948,
				"z": -1.7552156814,
				"element": "H" 
			},
			{
				"x": -1.4186687597,
				"y": 0.991337115,
				"z": -3.3022350988,
				"element": "H" 
			},
			{
				"x": -3.0433498514,
				"y": -0.3084683109,
				"z": -2.1027979185,
				"element": "H" 
			},
			{
				"x": -1.5585916722,
				"y": -1.2639312648,
				"z": -2.1590998766,
				"element": "H" 
			},
			{
				"x": -1.5429680944,
				"y": -1.6905704954,
				"z": 2.022613467,
				"element": "H" 
			},
			{
				"x": -3.2735124668,
				"y": -2.0846479794,
				"z": 2.1788044783,
				"element": "H" 
			},
			{
				"x": -2.7199858376,
				"y": -0.3802977085,
				"z": 2.1358814276,
				"element": "H" 
			}
		],
		 "valence_orbital": [ 
			{
				"type": "occ",
				"energy": -0.3285,
				"method": "rhf"
			},
			{
				"type": "occ",
				"energy": -0.29857,
				"method": "rhf"
			},
			{
				"type": "occ",
				"energy": -0.29315,
				"method": "rhf"
			},
			{
				"type": "occ",
				"energy": -0.26899,
				"method": "rhf"
			},
			{
				"type": "occ",
				"energy": -0.26817,
				"method": "rhf"
			},
			{
				"type": "unocc",
				"energy": 0.01386,
				"method": "rhf"
			},
			{
				"type": "unocc",
				"energy": 0.01495,
				"method": "rhf"
			},
			{
				"type": "unocc",
				"energy": 0.08361,
				"method": "rhf"
			},
			{
				"type": "unocc",
				"energy": 0.10209,
				"method": "rhf"
			},
			{
				"type": "unocc",
				"energy": 0.11042,
				"method": "rhf"
			}
		],
		"cosmo_sigma_profile": { 
			"-0.025": 0.0,
			"-0.024": 0.0,
			"-0.023": 0.0,
			"-0.022": 0.0,
			"-0.021": 0.0,
			"-0.02": 0.0,
			"-0.019": 0.0,
			"-0.018": 0.0,
			"-0.017": 0.0,
			"-0.016": 0.0,
			"-0.015": 0.0,
			"-0.014": 0.0,
			"-0.013": 0.0,
			"-0.012": 0.0,
			"-0.011": 0.0,
			"-0.01": 0.0,
			"-0.009": 0.0,
			"-0.008": 0.0,
			"-0.007": 1.50212081237,
			"-0.006": 9.53635870157,
			"-0.005": 20.55556927,
			"-0.004": 29.3221542555,
			"-0.003": 30.4003732424,
			"-0.002": 34.9643383439,
			"-0.001": 24.0350469891,
			"0.0": 13.6578029995,
			"0.001": 7.79174901561,
			"0.002": 7.21606055718,
			"0.003": 6.63536429546,
			"0.004": 4.74396827773,
			"0.005": 5.04647895318,
			"0.006": 4.95929082788,
			"0.007": 4.15242111942,
			"0.008": 4.80562066772,
			"0.009": 3.55016119622,
			"0.01": 4.16580963838,
			"0.011": 5.35448382313,
			"0.012": 9.00431107387,
			"0.013": 3.75628038762,
			"0.014": 0.102652427391,
			"0.015": 0.0,
			"0.016": 0.0,
			"0.017": 0.0,
			"0.018": 0.0,
			"0.019": 0.0,
			"0.02": 0.0,
			"0.021": 0.0,
			"0.022": 0.0,
			"0.023": 0.0,
			"0.024": 0.0,
			"0.025": 0.0
		}
	}
}
