{
	 "smiles": "OC(=O)C(CC1=C(Br)C=CC=C1)NC(=O)OCC1C2=C(C=CC=C2)C2=C1C=CC=C2", 
	 "Tm": 441.15, 
	 "num_atms": 50, 
	 "gaussian": { 
		 "optdone": 1, 
		 "sigma_profile": "yes", 
		 "theory": "DFT", 
		 "functional": "B3LYP", 
		 "basiset": "6-31G**", 
		 "properties": { 
			 "R2extent": 15254.1361, 
			 "electric_dipole_moment_norm": 3.46124366233, 
			 "electric_quadrupole_moment_norm": 22.0216335482, 
			 "total_energy": -3853.71372454, 
			 "HOMO_LUMO_gap": 0.18436, 
			 "cosmo_polarized_energy": -22.01, 
			 "cosmo_cavitation_energy": 56.29, 
			 "cosmo_dispersion_energy": -36.95, 
			 "cosmo_repulsion_energy": 2.75, 
			 "cosmo_total_nonelectrostatic_energy": 22.09, 
			 "SMD_solvation_energy": 8.83 
		},
		"coords": [
			{
				"x": -5.2198999533,
				"y": -1.2275304779,
				"z": 0.9211723251,
				"element": "O" 
			},
			{
				"x": -3.9755150164,
				"y": -1.3636102366,
				"z": 1.4313707643,
				"element": "C" 
			},
			{
				"x": -3.5508767958,
				"y": -2.4105499806,
				"z": 1.8594921162,
				"element": "O" 
			},
			{
				"x": -3.2165954978,
				"y": -0.0249227778,
				"z": 1.4987899118,
				"element": "C" 
			},
			{
				"x": -3.59143228,
				"y": 0.9851237506,
				"z": 0.3855033376,
				"element": "C" 
			},
			{
				"x": -3.1576411312,
				"y": 2.3961034922,
				"z": 0.7232762217,
				"element": "C" 
			},
			{
				"x": -2.0537155363,
				"y": 3.0496258618,
				"z": 0.1577746,
				"element": "C" 
			},
			{
				"x": -0.9706790292,
				"y": 2.2039233097,
				"z": -1.180408072,
				"element": "Br" 
			},
			{
				"x": -1.6978532639,
				"y": 4.3504947746,
				"z": 0.5217885667,
				"element": "C" 
			},
			{
				"x": -2.4494344352,
				"y": 5.0344999223,
				"z": 1.4741140947,
				"element": "C" 
			},
			{
				"x": -3.5593213938,
				"y": 4.4164367847,
				"z": 2.0519422785,
				"element": "C" 
			},
			{
				"x": -3.8993765798,
				"y": 3.1209235504,
				"z": 1.672584795,
				"element": "C" 
			},
			{
				"x": -1.7865535409,
				"y": -0.2570590239,
				"z": 1.592064503,
				"element": "N" 
			},
			{
				"x": -1.1635416619,
				"y": -1.0324434996,
				"z": 0.6476019064,
				"element": "C" 
			},
			{
				"x": -1.6611817855,
				"y": -1.3761304319,
				"z": -0.4099777315,
				"element": "O" 
			},
			{
				"x": 0.0947329054,
				"y": -1.3355223075,
				"z": 1.0546286043,
				"element": "O" 
			},
			{
				"x": 0.862728664,
				"y": -2.1551905774,
				"z": 0.1508205813,
				"element": "C" 
			},
			{
				"x": 1.5542563135,
				"y": -1.326000093,
				"z": -0.9450146398,
				"element": "C" 
			},
			{
				"x": 2.3273272108,
				"y": -2.2224200753,
				"z": -1.8997656444,
				"element": "C" 
			},
			{
				"x": 3.693414676,
				"y": -1.8718825071,
				"z": -1.9028642498,
				"element": "C" 
			},
			{
				"x": 4.5998040425,
				"y": -2.5701051949,
				"z": -2.7035612203,
				"element": "C" 
			},
			{
				"x": 4.1298295021,
				"y": -3.6194824636,
				"z": -3.4970021286,
				"element": "C" 
			},
			{
				"x": 2.7741582453,
				"y": -3.9651689391,
				"z": -3.4947088992,
				"element": "C" 
			},
			{
				"x": 1.863209271,
				"y": -3.2659034183,
				"z": -2.6937728376,
				"element": "C" 
			},
			{
				"x": 3.886184815,
				"y": -0.7362694587,
				"z": -0.9910506604,
				"element": "C" 
			},
			{
				"x": 2.6383325477,
				"y": -0.3933984494,
				"z": -0.4279256503,
				"element": "C" 
			},
			{
				"x": 2.5370071134,
				"y": 0.6690267539,
				"z": 0.4650361871,
				"element": "C" 
			},
			{
				"x": 3.6927420961,
				"y": 1.3849240015,
				"z": 0.7991103775,
				"element": "C" 
			},
			{
				"x": 4.9306458657,
				"y": 1.0424715227,
				"z": 0.244338978,
				"element": "C" 
			},
			{
				"x": 5.0370038255,
				"y": -0.0194466482,
				"z": -0.6565278658,
				"element": "C" 
			},
			{
				"x": -5.6242733118,
				"y": -2.1108425842,
				"z": 0.9613042615,
				"element": "H" 
			},
			{
				"x": -3.519257401,
				"y": 0.4127058901,
				"z": 2.4586758478,
				"element": "H" 
			},
			{
				"x": -4.6777438228,
				"y": 0.9683532899,
				"z": 0.2694831086,
				"element": "H" 
			},
			{
				"x": -3.154106972,
				"y": 0.6430904812,
				"z": -0.5526186067,
				"element": "H" 
			},
			{
				"x": -0.8379919241,
				"y": 4.8182738614,
				"z": 0.0561004925,
				"element": "H" 
			},
			{
				"x": -2.1704888099,
				"y": 6.0457746781,
				"z": 1.7544101237,
				"element": "H" 
			},
			{
				"x": -4.1607149171,
				"y": 4.9424671211,
				"z": 2.7872233255,
				"element": "H" 
			},
			{
				"x": -4.7736032076,
				"y": 2.6475273339,
				"z": 2.1145752013,
				"element": "H" 
			},
			{
				"x": -1.3609276234,
				"y": -0.2595396157,
				"z": 2.5069878791,
				"element": "H" 
			},
			{
				"x": 0.2008302269,
				"y": -2.8974569512,
				"z": -0.2998625624,
				"element": "H" 
			},
			{
				"x": 1.60233931,
				"y": -2.6529022617,
				"z": 0.7810874578,
				"element": "H" 
			},
			{
				"x": 0.7692596352,
				"y": -0.7726562654,
				"z": -1.4764600418,
				"element": "H" 
			},
			{
				"x": 5.6534004508,
				"y": -2.304563409,
				"z": -2.7139261194,
				"element": "H" 
			},
			{
				"x": 4.823759735,
				"y": -4.1711513582,
				"z": -4.1250155449,
				"element": "H" 
			},
			{
				"x": 2.4249383017,
				"y": -4.7805961338,
				"z": -4.1215441634,
				"element": "H" 
			},
			{
				"x": 0.8096160915,
				"y": -3.5330194184,
				"z": -2.7029685911,
				"element": "H" 
			},
			{
				"x": 1.577442822,
				"y": 0.9403323166,
				"z": 0.8922850155,
				"element": "H" 
			},
			{
				"x": 3.6270115972,
				"y": 2.2171645208,
				"z": 1.494296382,
				"element": "H" 
			},
			{
				"x": 5.8167622609,
				"y": 1.6105252986,
				"z": 0.5136343199,
				"element": "H" 
			},
			{
				"x": 5.9997883653,
				"y": -0.2778039574,
				"z": -1.089098335,
				"element": "H" 
			}
		],
		 "valence_orbital": [ 
			{
				"type": "occ",
				"energy": -0.25634,
				"method": "rhf"
			},
			{
				"type": "occ",
				"energy": -0.24543,
				"method": "rhf"
			},
			{
				"type": "occ",
				"energy": -0.24171,
				"method": "rhf"
			},
			{
				"type": "occ",
				"energy": -0.23744,
				"method": "rhf"
			},
			{
				"type": "occ",
				"energy": -0.21013,
				"method": "rhf"
			},
			{
				"type": "unocc",
				"energy": -0.02577,
				"method": "rhf"
			},
			{
				"type": "unocc",
				"energy": -0.02,
				"method": "rhf"
			},
			{
				"type": "unocc",
				"energy": -0.01549,
				"method": "rhf"
			},
			{
				"type": "unocc",
				"energy": -0.00696,
				"method": "rhf"
			},
			{
				"type": "unocc",
				"energy": 0.00378,
				"method": "rhf"
			}
		],
		"cosmo_sigma_profile": { 
			"-0.025": 0.0,
			"-0.024": 0.0,
			"-0.023": 0.0,
			"-0.022": 0.0,
			"-0.021": 0.0,
			"-0.02": 0.0,
			"-0.019": 0.255099123145,
			"-0.018": 0.925854999726,
			"-0.017": 1.06566273094,
			"-0.016": 0.583664790965,
			"-0.015": 1.82426799449,
			"-0.014": 2.30303202913,
			"-0.013": 1.40887037498,
			"-0.012": 2.0973775474,
			"-0.011": 1.50086252154,
			"-0.01": 2.00180905728,
			"-0.009": 3.2752227607,
			"-0.008": 4.51178894531,
			"-0.007": 6.95691292586,
			"-0.006": 21.4697014897,
			"-0.005": 32.1375241027,
			"-0.004": 33.4186054338,
			"-0.003": 33.2116725141,
			"-0.002": 27.038481557,
			"-0.001": 30.3787230988,
			"0.0": 28.3689942574,
			"0.001": 30.1453789677,
			"0.002": 32.7075163911,
			"0.003": 36.8886681227,
			"0.004": 40.829713109,
			"0.005": 29.2692359294,
			"0.006": 17.6834024225,
			"0.007": 5.62859728645,
			"0.008": 4.0179344925,
			"0.009": 3.53196201655,
			"0.01": 4.52447082866,
			"0.011": 6.22816072905,
			"0.012": 4.71161150726,
			"0.013": 0.816819883312,
			"0.014": 0.0,
			"0.015": 0.0,
			"0.016": 0.0,
			"0.017": 0.0,
			"0.018": 0.0,
			"0.019": 0.0,
			"0.02": 0.0,
			"0.021": 0.0,
			"0.022": 0.0,
			"0.023": 0.0,
			"0.024": 0.0,
			"0.025": 0.0
		}
	}
}
