{
	 "smiles": "OC(=O)C1=CSC(=N1)C1=C(F)C=CC=C1", 
	 "Tm": 433.15, 
	 "num_atms": 21, 
	 "gaussian": { 
		 "optdone": 1, 
		 "sigma_profile": "yes", 
		 "theory": "DFT", 
		 "functional": "B3LYP", 
		 "basiset": "6-31G**", 
		 "properties": { 
			 "R2extent": 4795.6999, 
			 "electric_dipole_moment_norm": 6.15902986273, 
			 "electric_quadrupole_moment_norm": 8.28525066127, 
			 "total_energy": -1087.91319521, 
			 "HOMO_LUMO_gap": 0.1693, 
			 "cosmo_polarized_energy": -11.85, 
			 "cosmo_cavitation_energy": 28.29, 
			 "cosmo_dispersion_energy": -21.45, 
			 "cosmo_repulsion_energy": 1.59, 
			 "cosmo_total_nonelectrostatic_energy": 8.44, 
			 "SMD_solvation_energy": 5.73 
		},
		"coords": [
			{
				"x": 1.1341068459,
				"y": 0.0736816996,
				"z": -2.4112856988,
				"element": "O" 
			},
			{
				"x": -0.0455871236,
				"y": 0.7150614574,
				"z": -2.5390953529,
				"element": "C" 
			},
			{
				"x": -0.3362157651,
				"y": 1.3585961466,
				"z": -3.5205393232,
				"element": "O" 
			},
			{
				"x": -0.9481562292,
				"y": 0.5538923639,
				"z": -1.3614937679,
				"element": "C" 
			},
			{
				"x": -2.1949169297,
				"y": 1.1052506364,
				"z": -1.2496645253,
				"element": "C" 
			},
			{
				"x": -2.8929429316,
				"y": 0.6731607783,
				"z": 0.2625342977,
				"element": "S" 
			},
			{
				"x": -1.4320135653,
				"y": -0.2426317729,
				"z": 0.6595939736,
				"element": "C" 
			},
			{
				"x": -0.5299679954,
				"y": -0.1972117931,
				"z": -0.2907959556,
				"element": "N" 
			},
			{
				"x": -1.2361826069,
				"y": -0.978437281,
				"z": 1.913054529,
				"element": "C" 
			},
			{
				"x": -2.1937401405,
				"y": -1.0335717033,
				"z": 2.9340148083,
				"element": "C" 
			},
			{
				"x": -3.3666573713,
				"y": -0.3780838625,
				"z": 2.7695141531,
				"element": "F" 
			},
			{
				"x": -1.9980982044,
				"y": -1.7329627498,
				"z": 4.1165486144,
				"element": "C" 
			},
			{
				"x": -0.7969242087,
				"y": -2.4141738382,
				"z": 4.3045910852,
				"element": "C" 
			},
			{
				"x": 0.1855234311,
				"y": -2.3843102513,
				"z": 3.3091983773,
				"element": "C" 
			},
			{
				"x": -0.0323701712,
				"y": -1.6771482294,
				"z": 2.1327839514,
				"element": "C" 
			},
			{
				"x": 1.1330137364,
				"y": -0.3696339801,
				"z": -1.5426975564,
				"element": "H" 
			},
			{
				"x": -2.7039385346,
				"y": 1.7239072738,
				"z": -1.9742457895,
				"element": "H" 
			},
			{
				"x": -2.7843665276,
				"y": -1.7313659915,
				"z": 4.8632150863,
				"element": "H" 
			},
			{
				"x": -0.6301835447,
				"y": -2.965372174,
				"z": 5.2246562585,
				"element": "H" 
			},
			{
				"x": 1.1220622512,
				"y": -2.9135680235,
				"z": 3.452131941,
				"element": "H" 
			},
			{
				"x": 0.7219555852,
				"y": -1.6474787052,
				"z": 1.3553808936,
				"element": "H" 
			}
		],
		 "valence_orbital": [ 
			{
				"type": "occ",
				"energy": -0.3087,
				"method": "rhf"
			},
			{
				"type": "occ",
				"energy": -0.29865,
				"method": "rhf"
			},
			{
				"type": "occ",
				"energy": -0.27159,
				"method": "rhf"
			},
			{
				"type": "occ",
				"energy": -0.27099,
				"method": "rhf"
			},
			{
				"type": "occ",
				"energy": -0.2452,
				"method": "rhf"
			},
			{
				"type": "unocc",
				"energy": -0.0759,
				"method": "rhf"
			},
			{
				"type": "unocc",
				"energy": -0.04067,
				"method": "rhf"
			},
			{
				"type": "unocc",
				"energy": -0.02094,
				"method": "rhf"
			},
			{
				"type": "unocc",
				"energy": 0.00706,
				"method": "rhf"
			},
			{
				"type": "unocc",
				"energy": 0.01964,
				"method": "rhf"
			}
		],
		"cosmo_sigma_profile": { 
			"-0.025": 0.0,
			"-0.024": 0.0,
			"-0.023": 0.0,
			"-0.022": 0.0,
			"-0.021": 0.0,
			"-0.02": 0.0,
			"-0.019": 0.0,
			"-0.018": 0.0,
			"-0.017": 0.0,
			"-0.016": 0.0,
			"-0.015": 0.0,
			"-0.014": 0.164523392678,
			"-0.013": 0.641310829753,
			"-0.012": 0.47007504954,
			"-0.011": 1.10350922601,
			"-0.01": 2.44370267199,
			"-0.009": 2.55539354823,
			"-0.008": 3.68198397089,
			"-0.007": 7.93701626217,
			"-0.006": 11.0611327018,
			"-0.005": 11.3415573167,
			"-0.004": 12.8268866983,
			"-0.003": 12.8098969934,
			"-0.002": 16.7874403456,
			"-0.001": 21.2850499083,
			"0.0": 24.93102292,
			"0.001": 25.1368154478,
			"0.002": 20.4305749032,
			"0.003": 18.4706814747,
			"0.004": 6.40421116724,
			"0.005": 3.15835652411,
			"0.006": 2.06859567177,
			"0.007": 2.44428106915,
			"0.008": 2.72428635936,
			"0.009": 3.78771889425,
			"0.01": 5.13531994556,
			"0.011": 4.96785783079,
			"0.012": 4.66828662452,
			"0.013": 1.40498902006,
			"0.014": 0.0188236941527,
			"0.015": 0.0,
			"0.016": 0.0,
			"0.017": 0.0,
			"0.018": 0.0,
			"0.019": 0.0,
			"0.02": 0.0,
			"0.021": 0.0,
			"0.022": 0.0,
			"0.023": 0.0,
			"0.024": 0.0,
			"0.025": 0.0
		}
	}
}
