{
	 "smiles": "CC(C)C1=CC=C(NC(=O)CC(C)=O)C=C1", 
	 "Tm": 342.15, 
	 "num_atms": 33, 
	 "gaussian": { 
		 "optdone": 1, 
		 "sigma_profile": "yes", 
		 "theory": "DFT", 
		 "functional": "B3LYP", 
		 "basiset": "6-31G**", 
		 "properties": { 
			 "R2extent": 5840.488, 
			 "electric_dipole_moment_norm": 2.57656063387, 
			 "electric_quadrupole_moment_norm": 11.7986710065, 
			 "total_energy": -710.859180027, 
			 "HOMO_LUMO_gap": 0.19561, 
			 "cosmo_polarized_energy": -12.49, 
			 "cosmo_cavitation_energy": 35.83, 
			 "cosmo_dispersion_energy": -25.06, 
			 "cosmo_repulsion_energy": 1.97, 
			 "cosmo_total_nonelectrostatic_energy": 12.75, 
			 "SMD_solvation_energy": 7.5 
		},
		"coords": [
			{
				"x": 1.5182045017,
				"y": 3.1134665963,
				"z": -3.0826065868,
				"element": "C" 
			},
			{
				"x": 1.6461628901,
				"y": 2.8248654485,
				"z": -1.5747052016,
				"element": "C" 
			},
			{
				"x": 0.6667557505,
				"y": 3.691671423,
				"z": -0.7607680606,
				"element": "C" 
			},
			{
				"x": 1.4825111465,
				"y": 1.3430222941,
				"z": -1.265286932,
				"element": "C" 
			},
			{
				"x": 0.2858440527,
				"y": 0.6632641463,
				"z": -1.5335874794,
				"element": "C" 
			},
			{
				"x": 0.1350480337,
				"y": -0.6969845694,
				"z": -1.2675016742,
				"element": "C" 
			},
			{
				"x": 1.1893834003,
				"y": -1.4108181923,
				"z": -0.679999989,
				"element": "C" 
			},
			{
				"x": 1.1124526427,
				"y": -2.8033689903,
				"z": -0.407408907,
				"element": "N" 
			},
			{
				"x": 0.1348325861,
				"y": -3.5808583625,
				"z": 0.1655533043,
				"element": "C" 
			},
			{
				"x": 0.2962961413,
				"y": -4.7905786756,
				"z": 0.2849596238,
				"element": "O" 
			},
			{
				"x": -1.148383952,
				"y": -2.9097810819,
				"z": 0.6572419602,
				"element": "C" 
			},
			{
				"x": -2.3138099538,
				"y": -3.2973771074,
				"z": -0.2664195848,
				"element": "C" 
			},
			{
				"x": -2.9375656488,
				"y": -4.6487580496,
				"z": -0.0152497913,
				"element": "C" 
			},
			{
				"x": -2.6744126038,
				"y": -2.5555246896,
				"z": -1.1615490055,
				"element": "O" 
			},
			{
				"x": 2.392660054,
				"y": -0.7481061368,
				"z": -0.4073788433,
				"element": "C" 
			},
			{
				"x": 2.5334251745,
				"y": 0.6055477876,
				"z": -0.7053785393,
				"element": "C" 
			},
			{
				"x": 0.5159323372,
				"y": 2.8681319429,
				"z": -3.4505906773,
				"element": "H" 
			},
			{
				"x": 2.238259694,
				"y": 2.5267279078,
				"z": -3.6613398773,
				"element": "H" 
			},
			{
				"x": 1.6970282112,
				"y": 4.1742748759,
				"z": -3.2893832698,
				"element": "H" 
			},
			{
				"x": 2.6637256594,
				"y": 3.1049487291,
				"z": -1.2714565034,
				"element": "H" 
			},
			{
				"x": 0.7809563375,
				"y": 3.5172475729,
				"z": 0.3136349399,
				"element": "H" 
			},
			{
				"x": 0.8400120225,
				"y": 4.7559090228,
				"z": -0.9542799247,
				"element": "H" 
			},
			{
				"x": -0.373179901,
				"y": 3.4713426645,
				"z": -1.0257578459,
				"element": "H" 
			},
			{
				"x": -0.5488911149,
				"y": 1.1954083987,
				"z": -1.981758803,
				"element": "H" 
			},
			{
				"x": -0.7950281041,
				"y": -1.1968408183,
				"z": -1.5188288617,
				"element": "H" 
			},
			{
				"x": 1.9468861924,
				"y": -3.3464284228,
				"z": -0.5968976528,
				"element": "H" 
			},
			{
				"x": -1.3223552812,
				"y": -3.310821316,
				"z": 1.6597823335,
				"element": "H" 
			},
			{
				"x": -1.0682973996,
				"y": -1.8243593466,
				"z": 0.6998739617,
				"element": "H" 
			},
			{
				"x": -3.6485578988,
				"y": -4.8907358649,
				"z": -0.8061744146,
				"element": "H" 
			},
			{
				"x": -3.4523871795,
				"y": -4.6436027447,
				"z": 0.9534035833,
				"element": "H" 
			},
			{
				"x": -2.1445307233,
				"y": -5.4018365071,
				"z": 0.0491146524,
				"element": "H" 
			},
			{
				"x": 3.2149482776,
				"y": -1.2953020714,
				"z": 0.0463019718,
				"element": "H" 
			},
			{
				"x": 3.4769746549,
				"y": 1.100054137,
				"z": -0.4877579059,
				"element": "H" 
			}
		],
		 "valence_orbital": [ 
			{
				"type": "occ",
				"energy": -0.29145,
				"method": "rhf"
			},
			{
				"type": "occ",
				"energy": -0.2638,
				"method": "rhf"
			},
			{
				"type": "occ",
				"energy": -0.25633,
				"method": "rhf"
			},
			{
				"type": "occ",
				"energy": -0.25117,
				"method": "rhf"
			},
			{
				"type": "occ",
				"energy": -0.22561,
				"method": "rhf"
			},
			{
				"type": "unocc",
				"energy": -0.03,
				"method": "rhf"
			},
			{
				"type": "unocc",
				"energy": -0.01002,
				"method": "rhf"
			},
			{
				"type": "unocc",
				"energy": -0.00724,
				"method": "rhf"
			},
			{
				"type": "unocc",
				"energy": 0.03147,
				"method": "rhf"
			},
			{
				"type": "unocc",
				"energy": 0.08452,
				"method": "rhf"
			}
		],
		"cosmo_sigma_profile": { 
			"-0.025": 0.0,
			"-0.024": 0.0,
			"-0.023": 0.0,
			"-0.022": 0.0,
			"-0.021": 0.0,
			"-0.02": 0.0,
			"-0.019": 0.0,
			"-0.018": 0.0,
			"-0.017": 0.0,
			"-0.016": 0.0,
			"-0.015": 0.082216565403,
			"-0.014": 1.07237320312,
			"-0.013": 0.856963142469,
			"-0.012": 0.712374533806,
			"-0.011": 1.17295275447,
			"-0.01": 1.26097503291,
			"-0.009": 1.03769435575,
			"-0.008": 2.24515571945,
			"-0.007": 6.96193514416,
			"-0.006": 7.53343047501,
			"-0.005": 15.0095697585,
			"-0.004": 19.8890754315,
			"-0.003": 28.4469622931,
			"-0.002": 28.6291864891,
			"-0.001": 30.8645611495,
			"0.0": 27.1396775936,
			"0.001": 27.1336633887,
			"0.002": 17.3705464923,
			"0.003": 10.07793274,
			"0.004": 11.4862564248,
			"0.005": 11.3045370508,
			"0.006": 4.48025728739,
			"0.007": 1.83120920825,
			"0.008": 3.78347058197,
			"0.009": 3.0014458729,
			"0.01": 3.97795175263,
			"0.011": 4.59310368546,
			"0.012": 4.1249634807,
			"0.013": 4.8971842652,
			"0.014": 1.06339968989,
			"0.015": 0.0,
			"0.016": 0.0,
			"0.017": 0.0,
			"0.018": 0.0,
			"0.019": 0.0,
			"0.02": 0.0,
			"0.021": 0.0,
			"0.022": 0.0,
			"0.023": 0.0,
			"0.024": 0.0,
			"0.025": 0.0
		}
	}
}
