{
	 "smiles": "COC(=O)C1=C(N)C=C(F)C(F)=C1", 
	 "Tm": 353.15, 
	 "num_atms": 20, 
	 "gaussian": { 
		 "optdone": 1, 
		 "sigma_profile": "yes", 
		 "theory": "DFT", 
		 "functional": "B3LYP", 
		 "basiset": "6-31G**", 
		 "properties": { 
			 "R2extent": 2949.5098, 
			 "electric_dipole_moment_norm": 4.84185562052, 
			 "electric_quadrupole_moment_norm": 3.55011418267, 
			 "total_energy": -713.945222099, 
			 "HOMO_LUMO_gap": 0.16812, 
			 "cosmo_polarized_energy": -10.67, 
			 "cosmo_cavitation_energy": 25.53, 
			 "cosmo_dispersion_energy": -18.67, 
			 "cosmo_repulsion_energy": 1.43, 
			 "cosmo_total_nonelectrostatic_energy": 8.3, 
			 "SMD_solvation_energy": 6.86 
		},
		"coords": [
			{
				"x": 2.3633753244,
				"y": -1.7983023088,
				"z": -1.4831830021,
				"element": "C" 
			},
			{
				"x": 1.2284178816,
				"y": -0.9683283836,
				"z": -1.1805612247,
				"element": "O" 
			},
			{
				"x": 1.1729658296,
				"y": -0.5129010433,
				"z": 0.1063339474,
				"element": "C" 
			},
			{
				"x": 2.0365500157,
				"y": -0.7964276304,
				"z": 0.9144923403,
				"element": "O" 
			},
			{
				"x": -0.0023967789,
				"y": 0.341114356,
				"z": 0.3976662517,
				"element": "C" 
			},
			{
				"x": -1.0517337684,
				"y": 0.6631129231,
				"z": -0.5105426818,
				"element": "C" 
			},
			{
				"x": -1.1418172241,
				"y": 0.1532094675,
				"z": -1.7835372026,
				"element": "N" 
			},
			{
				"x": -2.0818344938,
				"y": 1.5183502929,
				"z": -0.0565973759,
				"element": "C" 
			},
			{
				"x": -2.0735017254,
				"y": 2.0188733703,
				"z": 1.2285973653,
				"element": "C" 
			},
			{
				"x": -3.060794904,
				"y": 2.8293467792,
				"z": 1.6370947515,
				"element": "F" 
			},
			{
				"x": -1.0479595344,
				"y": 1.6944256696,
				"z": 2.1241218642,
				"element": "C" 
			},
			{
				"x": -1.076714827,
				"y": 2.2029475627,
				"z": 3.3713922989,
				"element": "F" 
			},
			{
				"x": -0.0324158365,
				"y": 0.8677279694,
				"z": 1.7060184974,
				"element": "C" 
			},
			{
				"x": 3.2935379941,
				"y": -1.2457883289,
				"z": -1.3323293863,
				"element": "H" 
			},
			{
				"x": 2.3710065721,
				"y": -2.6835135364,
				"z": -0.8435686526,
				"element": "H" 
			},
			{
				"x": 2.2495109075,
				"y": -2.0812914203,
				"z": -2.5297403236,
				"element": "H" 
			},
			{
				"x": -1.7517261125,
				"y": 0.6276928388,
				"z": -2.4299371969,
				"element": "H" 
			},
			{
				"x": -0.3194699995,
				"y": -0.2872461672,
				"z": -2.1654263974,
				"element": "H" 
			},
			{
				"x": -2.9037401556,
				"y": 1.7866184537,
				"z": -0.7123797373,
				"element": "H" 
			},
			{
				"x": 0.7723408352,
				"y": 0.6104791356,
				"z": 2.3845858647,
				"element": "H" 
			}
		],
		 "valence_orbital": [ 
			{
				"type": "occ",
				"energy": -0.31567,
				"method": "rhf"
			},
			{
				"type": "occ",
				"energy": -0.30348,
				"method": "rhf"
			},
			{
				"type": "occ",
				"energy": -0.2798,
				"method": "rhf"
			},
			{
				"type": "occ",
				"energy": -0.25971,
				"method": "rhf"
			},
			{
				"type": "occ",
				"energy": -0.21213,
				"method": "rhf"
			},
			{
				"type": "unocc",
				"energy": -0.04401,
				"method": "rhf"
			},
			{
				"type": "unocc",
				"energy": 0.00262,
				"method": "rhf"
			},
			{
				"type": "unocc",
				"energy": 0.06021,
				"method": "rhf"
			},
			{
				"type": "unocc",
				"energy": 0.06916,
				"method": "rhf"
			},
			{
				"type": "unocc",
				"energy": 0.09102,
				"method": "rhf"
			}
		],
		"cosmo_sigma_profile": { 
			"-0.025": 0.0,
			"-0.024": 0.0,
			"-0.023": 0.0,
			"-0.022": 0.0,
			"-0.021": 0.0,
			"-0.02": 0.0,
			"-0.019": 0.0,
			"-0.018": 0.0,
			"-0.017": 0.0,
			"-0.016": 0.0,
			"-0.015": 0.0,
			"-0.014": 0.609580169001,
			"-0.013": 1.69721705711,
			"-0.012": 1.53495116712,
			"-0.011": 1.61175014122,
			"-0.01": 2.36456144356,
			"-0.009": 2.5995238993,
			"-0.008": 3.20728176161,
			"-0.007": 4.18377221419,
			"-0.006": 7.85486423482,
			"-0.005": 11.256852038,
			"-0.004": 10.6435924502,
			"-0.003": 13.0049559873,
			"-0.002": 11.7023885886,
			"-0.001": 15.0134200618,
			"0.0": 16.1598566922,
			"0.001": 20.651969908,
			"0.002": 19.7807111191,
			"0.003": 18.5021222661,
			"0.004": 18.7435273819,
			"0.005": 4.12701548032,
			"0.006": 2.65522653706,
			"0.007": 2.39412885742,
			"0.008": 2.51671543697,
			"0.009": 1.93357611329,
			"0.01": 2.19203885389,
			"0.011": 3.11860776166,
			"0.012": 4.15720361749,
			"0.013": 0.259811045705,
			"0.014": 0.0,
			"0.015": 0.0,
			"0.016": 0.0,
			"0.017": 0.0,
			"0.018": 0.0,
			"0.019": 0.0,
			"0.02": 0.0,
			"0.021": 0.0,
			"0.022": 0.0,
			"0.023": 0.0,
			"0.024": 0.0,
			"0.025": 0.0
		}
	}
}
