{
	 "smiles": "COC1=C(OC)C(C(O)=O)=C(C=C1)C(=O)CC1=C(CCN(C)C)C=C2OCOC2=C1OC", 
	 "Tm": 411.15, 
	 "num_atms": 59, 
	 "gaussian": { 
		 "optdone": 1, 
		 "sigma_profile": "yes", 
		 "theory": "DFT", 
		 "functional": "B3LYP", 
		 "basiset": "6-31G**", 
		 "properties": { 
			 "R2extent": 14455.6405, 
			 "electric_dipole_moment_norm": 7.91673887153, 
			 "electric_quadrupole_moment_norm": 37.138490386, 
			 "total_energy": -1549.18456694, 
			 "HOMO_LUMO_gap": 0.1551, 
			 "cosmo_polarized_energy": -25.21, 
			 "cosmo_cavitation_energy": 59.94, 
			 "cosmo_dispersion_energy": -37.78, 
			 "cosmo_repulsion_energy": 2.82, 
			 "cosmo_total_nonelectrostatic_energy": 24.98, 
			 "SMD_solvation_energy": 11.38 
		},
		"coords": [
			{
				"x": -5.4024853208,
				"y": 1.348390675,
				"z": -2.2869402226,
				"element": "C" 
			},
			{
				"x": -4.8953770752,
				"y": 1.8082434852,
				"z": -1.0408490996,
				"element": "O" 
			},
			{
				"x": -4.0631023289,
				"y": 0.9829531837,
				"z": -0.3442791167,
				"element": "C" 
			},
			{
				"x": -3.6314014024,
				"y": 1.4571092523,
				"z": 0.9103186973,
				"element": "C" 
			},
			{
				"x": -4.1216952415,
				"y": 2.6729073737,
				"z": 1.3667084015,
				"element": "O" 
			},
			{
				"x": -3.5850407342,
				"y": 3.8459549966,
				"z": 0.720133463,
				"element": "C" 
			},
			{
				"x": -2.777101311,
				"y": 0.693204743,
				"z": 1.7245377366,
				"element": "C" 
			},
			{
				"x": -2.2754035267,
				"y": 1.1895644357,
				"z": 3.0588209151,
				"element": "C" 
			},
			{
				"x": -2.9023404586,
				"y": 2.2348969914,
				"z": 3.6143473745,
				"element": "O" 
			},
			{
				"x": -1.3285134866,
				"y": 0.6702584854,
				"z": 3.6169665597,
				"element": "O" 
			},
			{
				"x": -2.3500751814,
				"y": -0.5764591813,
				"z": 1.2726536979,
				"element": "C" 
			},
			{
				"x": -2.7904485895,
				"y": -1.0375836162,
				"z": 0.0332347739,
				"element": "C" 
			},
			{
				"x": -3.6290611163,
				"y": -0.2696021025,
				"z": -0.7763831976,
				"element": "C" 
			},
			{
				"x": -1.5651364228,
				"y": -1.5508031084,
				"z": 2.1471225608,
				"element": "C" 
			},
			{
				"x": -2.1815315373,
				"y": -2.2683979438,
				"z": 2.9073437589,
				"element": "O" 
			},
			{
				"x": -0.038067366,
				"y": -1.6426530137,
				"z": 2.035239151,
				"element": "C" 
			},
			{
				"x": 0.5917002558,
				"y": -1.6193380663,
				"z": 0.6545122138,
				"element": "C" 
			},
			{
				"x": 1.5637481181,
				"y": -0.6738498498,
				"z": 0.266034483,
				"element": "C" 
			},
			{
				"x": 2.0393642777,
				"y": 0.4443656717,
				"z": 1.1770380541,
				"element": "C" 
			},
			{
				"x": 1.1960800106,
				"y": 1.7257118379,
				"z": 1.0436371955,
				"element": "C" 
			},
			{
				"x": 1.7695723561,
				"y": 2.8665898153,
				"z": 1.7586904203,
				"element": "N" 
			},
			{
				"x": 1.7403223505,
				"y": 2.7022533955,
				"z": 3.2117287657,
				"element": "C" 
			},
			{
				"x": 1.1174422538,
				"y": 4.1072417809,
				"z": 1.3676512956,
				"element": "C" 
			},
			{
				"x": 2.1615795967,
				"y": -0.7447811658,
				"z": -1.013029635,
				"element": "C" 
			},
			{
				"x": 1.7735401664,
				"y": -1.7632536551,
				"z": -1.8541565237,
				"element": "C" 
			},
			{
				"x": 2.1841740658,
				"y": -2.0072570567,
				"z": -3.1472621707,
				"element": "O" 
			},
			{
				"x": 1.6433408748,
				"y": -3.2872701728,
				"z": -3.4763796827,
				"element": "C" 
			},
			{
				"x": 0.5929216268,
				"y": -3.5709565548,
				"z": -2.5444735263,
				"element": "O" 
			},
			{
				"x": 0.8241212466,
				"y": -2.7081099289,
				"z": -1.4864550602,
				"element": "C" 
			},
			{
				"x": 0.2304140254,
				"y": -2.6678773261,
				"z": -0.2346201747,
				"element": "C" 
			},
			{
				"x": -0.7375454934,
				"y": -3.5388846894,
				"z": 0.1898065572,
				"element": "O" 
			},
			{
				"x": -0.6073115537,
				"y": -4.9194359935,
				"z": -0.1632173449,
				"element": "C" 
			},
			{
				"x": -6.0556356145,
				"y": 2.1409528762,
				"z": -2.6540732212,
				"element": "H" 
			},
			{
				"x": -4.5976657983,
				"y": 1.1765664118,
				"z": -3.0126145824,
				"element": "H" 
			},
			{
				"x": -5.984089927,
				"y": 0.42636997,
				"z": -2.1667068948,
				"element": "H" 
			},
			{
				"x": -4.0616572717,
				"y": 4.699405332,
				"z": 1.2045202559,
				"element": "H" 
			},
			{
				"x": -3.8318356025,
				"y": 3.8360975482,
				"z": -0.3427908966,
				"element": "H" 
			},
			{
				"x": -2.4996346181,
				"y": 3.8980880684,
				"z": 0.8599949184,
				"element": "H" 
			},
			{
				"x": -3.5924956868,
				"y": 2.5532373466,
				"z": 2.9921546529,
				"element": "H" 
			},
			{
				"x": -2.4884661906,
				"y": -2.0242189075,
				"z": -0.2993387967,
				"element": "H" 
			},
			{
				"x": -3.9508963328,
				"y": -0.6642636808,
				"z": -1.7327690397,
				"element": "H" 
			},
			{
				"x": 0.223208658,
				"y": -2.5671385828,
				"z": 2.5605470301,
				"element": "H" 
			},
			{
				"x": 0.32829553,
				"y": -0.8081434893,
				"z": 2.6350835797,
				"element": "H" 
			},
			{
				"x": 3.0730704978,
				"y": 0.6996009002,
				"z": 0.9204984374,
				"element": "H" 
			},
			{
				"x": 2.0549549499,
				"y": 0.1097559374,
				"z": 2.2173921376,
				"element": "H" 
			},
			{
				"x": 1.1498552189,
				"y": 1.9911001518,
				"z": -0.0195359927,
				"element": "H" 
			},
			{
				"x": 0.1586092611,
				"y": 1.5157786102,
				"z": 1.363604009,
				"element": "H" 
			},
			{
				"x": 2.1730347212,
				"y": 3.5910086707,
				"z": 3.682123575,
				"element": "H" 
			},
			{
				"x": 2.3490463895,
				"y": 1.8457020775,
				"z": 3.512867294,
				"element": "H" 
			},
			{
				"x": 0.7226493394,
				"y": 2.5535976424,
				"z": 3.6143612989,
				"element": "H" 
			},
			{
				"x": 0.0409372877,
				"y": 4.1443418319,
				"z": 1.6348294442,
				"element": "H" 
			},
			{
				"x": 1.20139901,
				"y": 4.2491269024,
				"z": 0.2848573863,
				"element": "H" 
			},
			{
				"x": 1.6071572033,
				"y": 4.9545859377,
				"z": 1.8589121289,
				"element": "H" 
			},
			{
				"x": 2.9142345305,
				"y": -0.0258197751,
				"z": -1.3168866061,
				"element": "H" 
			},
			{
				"x": 2.4294044604,
				"y": -4.053653736,
				"z": -3.3896039329,
				"element": "H" 
			},
			{
				"x": 1.2309837429,
				"y": -3.2619999497,
				"z": -4.4882686364,
				"element": "H" 
			},
			{
				"x": 0.3778241699,
				"y": -5.3021836941,
				"z": 0.1280934534,
				"element": "H" 
			},
			{
				"x": -0.7530015111,
				"y": -5.0793395072,
				"z": -1.2347461184,
				"element": "H" 
			},
			{
				"x": -1.3809694962,
				"y": -5.4418875912,
				"z": 0.4014147954,
				"element": "H" 
			}
		],
		 "valence_orbital": [ 
			{
				"type": "occ",
				"energy": -0.24193,
				"method": "rhf"
			},
			{
				"type": "occ",
				"energy": -0.22976,
				"method": "rhf"
			},
			{
				"type": "occ",
				"energy": -0.21903,
				"method": "rhf"
			},
			{
				"type": "occ",
				"energy": -0.20552,
				"method": "rhf"
			},
			{
				"type": "occ",
				"energy": -0.20171,
				"method": "rhf"
			},
			{
				"type": "unocc",
				"energy": -0.04661,
				"method": "rhf"
			},
			{
				"type": "unocc",
				"energy": -0.01002,
				"method": "rhf"
			},
			{
				"type": "unocc",
				"energy": -0.00092,
				"method": "rhf"
			},
			{
				"type": "unocc",
				"energy": 0.00597,
				"method": "rhf"
			},
			{
				"type": "unocc",
				"energy": 0.01148,
				"method": "rhf"
			}
		],
		"cosmo_sigma_profile": { 
			"-0.025": 0.0,
			"-0.024": 0.0,
			"-0.023": 0.0,
			"-0.022": 0.0,
			"-0.021": 0.0,
			"-0.02": 0.0,
			"-0.019": 0.0,
			"-0.018": 0.0,
			"-0.017": 0.0,
			"-0.016": 0.0,
			"-0.015": 0.0,
			"-0.014": 0.0,
			"-0.013": 0.0,
			"-0.012": 0.0,
			"-0.011": 0.0,
			"-0.01": 0.181170079027,
			"-0.009": 1.05358512227,
			"-0.008": 5.67647926057,
			"-0.007": 12.5820474776,
			"-0.006": 27.3812127031,
			"-0.005": 29.9552917872,
			"-0.004": 45.8308153398,
			"-0.003": 48.7489023909,
			"-0.002": 40.1234577654,
			"-0.001": 37.1328919763,
			"0.0": 44.1761979982,
			"0.001": 32.0512149787,
			"0.002": 26.5338434924,
			"0.003": 23.2816329405,
			"0.004": 19.7441624429,
			"0.005": 13.2027096406,
			"0.006": 9.22034957235,
			"0.007": 9.16291880636,
			"0.008": 9.72067103473,
			"0.009": 10.3074136227,
			"0.01": 8.76521863975,
			"0.011": 8.3001303654,
			"0.012": 6.44337426606,
			"0.013": 2.82916616494,
			"0.014": 0.51053709246,
			"0.015": 0.329063950635,
			"0.016": 0.329548874272,
			"0.017": 0.251889457728,
			"0.018": 0.0,
			"0.019": 0.0,
			"0.02": 0.0,
			"0.021": 0.0,
			"0.022": 0.0,
			"0.023": 0.0,
			"0.024": 0.0,
			"0.025": 0.0
		}
	}
}
