{
	 "smiles": "SC1=NN=C(CC2CCS(=O)(=O)C2)O1", 
	 "Tm": 434.15, 
	 "num_atms": 24, 
	 "gaussian": { 
		 "optdone": 1, 
		 "sigma_profile": "yes", 
		 "theory": "DFT", 
		 "functional": "B3LYP", 
		 "basiset": "6-31G**", 
		 "properties": { 
			 "R2extent": 5380.821, 
			 "electric_dipole_moment_norm": 5.94255695387, 
			 "electric_quadrupole_moment_norm": 22.541324521, 
			 "total_energy": -1404.21912616, 
			 "HOMO_LUMO_gap": 0.2317, 
			 "cosmo_polarized_energy": -24.43, 
			 "cosmo_cavitation_energy": 30.62, 
			 "cosmo_dispersion_energy": -23.29, 
			 "cosmo_repulsion_energy": 1.74, 
			 "cosmo_total_nonelectrostatic_energy": 9.07, 
			 "SMD_solvation_energy": 1.98 
		},
		"coords": [
			{
				"x": 1.3464597345,
				"y": 0.5749348492,
				"z": -5.6385240356,
				"element": "S" 
			},
			{
				"x": 0.3311972185,
				"y": 0.0754787945,
				"z": -4.295333816,
				"element": "C" 
			},
			{
				"x": -0.9622067095,
				"y": 0.0859434014,
				"z": -4.2606018576,
				"element": "N" 
			},
			{
				"x": -1.3095240716,
				"y": -0.363120484,
				"z": -2.979408856,
				"element": "N" 
			},
			{
				"x": -0.2053496552,
				"y": -0.6142997451,
				"z": -2.3539373693,
				"element": "C" 
			},
			{
				"x": -0.0030778234,
				"y": -1.0827171708,
				"z": -0.9565596317,
				"element": "C" 
			},
			{
				"x": 0.2472763781,
				"y": 0.0806313118,
				"z": 0.0415690807,
				"element": "C" 
			},
			{
				"x": -0.9575799984,
				"y": 1.0535145605,
				"z": 0.1598371053,
				"element": "C" 
			},
			{
				"x": -2.0493251413,
				"y": 0.3899107398,
				"z": 1.0128621012,
				"element": "C" 
			},
			{
				"x": -1.1699092126,
				"y": -0.7325070808,
				"z": 2.1779753195,
				"element": "S" 
			},
			{
				"x": -1.5649239556,
				"y": -2.1225176932,
				"z": 1.886114151,
				"element": "O" 
			},
			{
				"x": -1.2271469031,
				"y": -0.207578287,
				"z": 3.5505870285,
				"element": "O" 
			},
			{
				"x": 0.4976122384,
				"y": -0.4406317864,
				"z": 1.4638025965,
				"element": "C" 
			},
			{
				"x": 0.8995663545,
				"y": -0.3496178955,
				"z": -3.1304723401,
				"element": "O" 
			},
			{
				"x": 2.4826195398,
				"y": 0.0892980637,
				"z": -5.1021312831,
				"element": "H" 
			},
			{
				"x": 0.8531231751,
				"y": -1.7650071955,
				"z": -0.9322559383,
				"element": "H" 
			},
			{
				"x": -0.8825522913,
				"y": -1.6611376014,
				"z": -0.6618736773,
				"element": "H" 
			},
			{
				"x": 1.1285049696,
				"y": 0.6364992109,
				"z": -0.2969191418,
				"element": "H" 
			},
			{
				"x": -1.3519755742,
				"y": 1.3228219164,
				"z": -0.8232158098,
				"element": "H" 
			},
			{
				"x": -0.6171139772,
				"y": 1.9739111497,
				"z": 0.6453350219,
				"element": "H" 
			},
			{
				"x": -2.7210723055,
				"y": -0.2426263328,
				"z": 0.4294828999,
				"element": "H" 
			},
			{
				"x": -2.6314556175,
				"y": 1.091969272,
				"z": 1.6110967291,
				"element": "H" 
			},
			{
				"x": 0.9814066417,
				"y": 0.3114837176,
				"z": 2.0914889271,
				"element": "H" 
			},
			{
				"x": 1.0464469864,
				"y": -1.382635715,
				"z": 1.5224827959,
				"element": "H" 
			}
		],
		 "valence_orbital": [ 
			{
				"type": "occ",
				"energy": -0.3107,
				"method": "rhf"
			},
			{
				"type": "occ",
				"energy": -0.29792,
				"method": "rhf"
			},
			{
				"type": "occ",
				"energy": -0.29455,
				"method": "rhf"
			},
			{
				"type": "occ",
				"energy": -0.28381,
				"method": "rhf"
			},
			{
				"type": "occ",
				"energy": -0.26011,
				"method": "rhf"
			},
			{
				"type": "unocc",
				"energy": -0.02841,
				"method": "rhf"
			},
			{
				"type": "unocc",
				"energy": -0.01207,
				"method": "rhf"
			},
			{
				"type": "unocc",
				"energy": 0.01414,
				"method": "rhf"
			},
			{
				"type": "unocc",
				"energy": 0.03773,
				"method": "rhf"
			},
			{
				"type": "unocc",
				"energy": 0.04335,
				"method": "rhf"
			}
		],
		"cosmo_sigma_profile": { 
			"-0.025": 0.0,
			"-0.024": 0.0,
			"-0.023": 0.0,
			"-0.022": 0.0,
			"-0.021": 0.0,
			"-0.02": 0.0,
			"-0.019": 0.0,
			"-0.018": 0.0,
			"-0.017": 0.0,
			"-0.016": 0.0,
			"-0.015": 0.0,
			"-0.014": 0.20194645688,
			"-0.013": 1.59995472387,
			"-0.012": 1.92154196968,
			"-0.011": 1.4143551296,
			"-0.01": 1.84962511792,
			"-0.009": 1.95097851682,
			"-0.008": 10.4882667097,
			"-0.007": 14.9247742968,
			"-0.006": 22.6421261684,
			"-0.005": 23.4176847969,
			"-0.004": 21.0305715572,
			"-0.003": 15.5201036467,
			"-0.002": 11.2027964562,
			"-0.001": 10.3809936721,
			"0.0": 9.395899335,
			"0.001": 10.3108812873,
			"0.002": 9.81434931406,
			"0.003": 7.77909465609,
			"0.004": 6.77283972862,
			"0.005": 5.30290402395,
			"0.006": 5.4381032353,
			"0.007": 4.38906541567,
			"0.008": 3.8554674526,
			"0.009": 5.54413754417,
			"0.01": 5.95016468465,
			"0.011": 11.3938311646,
			"0.012": 13.2244935911,
			"0.013": 5.12371027225,
			"0.014": 1.96137462999,
			"0.015": 0.663056693882,
			"0.016": 0.0,
			"0.017": 0.0,
			"0.018": 0.0,
			"0.019": 0.0,
			"0.02": 0.0,
			"0.021": 0.0,
			"0.022": 0.0,
			"0.023": 0.0,
			"0.024": 0.0,
			"0.025": 0.0
		}
	}
}
