{
	 "smiles": "CC1=CC=C(C)N1C1=C(C=CS1)C(O)=O", 
	 "Tm": 442.15, 
	 "num_atms": 26, 
	 "gaussian": { 
		 "optdone": 1, 
		 "sigma_profile": "yes", 
		 "theory": "DFT", 
		 "functional": "B3LYP", 
		 "basiset": "6-31G**", 
		 "properties": { 
			 "R2extent": 3832.1844, 
			 "electric_dipole_moment_norm": 0.923280293302, 
			 "electric_quadrupole_moment_norm": 12.8967064241, 
			 "total_energy": -1029.18174676, 
			 "HOMO_LUMO_gap": 0.13819, 
			 "cosmo_polarized_energy": -11.15, 
			 "cosmo_cavitation_energy": 31.9, 
			 "cosmo_dispersion_energy": -21.86, 
			 "cosmo_repulsion_energy": 1.68, 
			 "cosmo_total_nonelectrostatic_energy": 11.71, 
			 "SMD_solvation_energy": 6.97 
		},
		"coords": [
			{
				"x": 1.3085171032,
				"y": -1.4522844208,
				"z": 1.7921168131,
				"element": "C" 
			},
			{
				"x": 0.444699984,
				"y": -0.3371103002,
				"z": 1.3017748837,
				"element": "C" 
			},
			{
				"x": 0.38996374,
				"y": 0.9850746366,
				"z": 1.6669723047,
				"element": "C" 
			},
			{
				"x": -0.5988707629,
				"y": 1.6301941745,
				"z": 0.8639881536,
				"element": "C" 
			},
			{
				"x": -1.140099217,
				"y": 0.6963338607,
				"z": 0.0156921118,
				"element": "C" 
			},
			{
				"x": -2.1861015239,
				"y": 0.8265193703,
				"z": -1.0424769057,
				"element": "C" 
			},
			{
				"x": -0.4999244456,
				"y": -0.519199672,
				"z": 0.2849957479,
				"element": "N" 
			},
			{
				"x": -0.7754055351,
				"y": -1.7358522374,
				"z": -0.3533992985,
				"element": "C" 
			},
			{
				"x": -0.1951915032,
				"y": -2.3009976822,
				"z": -1.4739631688,
				"element": "C" 
			},
			{
				"x": -0.7658612522,
				"y": -3.571104587,
				"z": -1.8103073849,
				"element": "C" 
			},
			{
				"x": -1.7575820273,
				"y": -3.9560961259,
				"z": -0.958982332,
				"element": "C" 
			},
			{
				"x": -2.0287095827,
				"y": -2.7798819754,
				"z": 0.2855787123,
				"element": "S" 
			},
			{
				"x": 0.8944588638,
				"y": -1.7420741045,
				"z": -2.307275995,
				"element": "C" 
			},
			{
				"x": 1.3554192239,
				"y": -0.5456481467,
				"z": -1.8812772168,
				"element": "O" 
			},
			{
				"x": 1.3417701174,
				"y": -2.3029310227,
				"z": -3.2893133112,
				"element": "O" 
			},
			{
				"x": 0.7261195956,
				"y": -2.2940898886,
				"z": 2.1863327096,
				"element": "H" 
			},
			{
				"x": 1.9495153268,
				"y": -1.0849385935,
				"z": 2.5971325551,
				"element": "H" 
			},
			{
				"x": 1.9573718108,
				"y": -1.8476078069,
				"z": 1.0010363637,
				"element": "H" 
			},
			{
				"x": 1.0026622056,
				"y": 1.4423601376,
				"z": 2.4320562256,
				"element": "H" 
			},
			{
				"x": -0.8834203602,
				"y": 2.6730729545,
				"z": 0.9000057115,
				"element": "H" 
			},
			{
				"x": -2.5427102031,
				"y": 1.8589115053,
				"z": -1.0716429558,
				"element": "H" 
			},
			{
				"x": -1.7978158912,
				"y": 0.5779377809,
				"z": -2.0377872383,
				"element": "H" 
			},
			{
				"x": -3.0526936395,
				"y": 0.1789266055,
				"z": -0.861079344,
				"element": "H" 
			},
			{
				"x": -0.4247956647,
				"y": -4.14569517,
				"z": -2.6618898582,
				"element": "H" 
			},
			{
				"x": -2.3480221382,
				"y": -4.8614741085,
				"z": -0.9873155282,
				"element": "H" 
			},
			{
				"x": 2.0558057756,
				"y": -0.2938451837,
				"z": -2.5062717551,
				"element": "H" 
			}
		],
		 "valence_orbital": [ 
			{
				"type": "occ",
				"energy": -0.28195,
				"method": "rhf"
			},
			{
				"type": "occ",
				"energy": -0.26982,
				"method": "rhf"
			},
			{
				"type": "occ",
				"energy": -0.25348,
				"method": "rhf"
			},
			{
				"type": "occ",
				"energy": -0.23403,
				"method": "rhf"
			},
			{
				"type": "occ",
				"energy": -0.1929,
				"method": "rhf"
			},
			{
				"type": "unocc",
				"energy": -0.05471,
				"method": "rhf"
			},
			{
				"type": "unocc",
				"energy": -0.00074,
				"method": "rhf"
			},
			{
				"type": "unocc",
				"energy": 0.00789,
				"method": "rhf"
			},
			{
				"type": "unocc",
				"energy": 0.03622,
				"method": "rhf"
			},
			{
				"type": "unocc",
				"energy": 0.07606,
				"method": "rhf"
			}
		],
		"cosmo_sigma_profile": { 
			"-0.025": 0.0,
			"-0.024": 0.0,
			"-0.023": 0.0,
			"-0.022": 0.0,
			"-0.021": 0.0,
			"-0.02": 0.0,
			"-0.019": 0.0258841120117,
			"-0.018": 0.945743023914,
			"-0.017": 0.920038958942,
			"-0.016": 0.969594472189,
			"-0.015": 0.485519533578,
			"-0.014": 0.540428558184,
			"-0.013": 1.0341690535,
			"-0.012": 0.665063184007,
			"-0.011": 0.650915886484,
			"-0.01": 0.901459939554,
			"-0.009": 2.68987901604,
			"-0.008": 3.30701688782,
			"-0.007": 3.47432079207,
			"-0.006": 4.19112530267,
			"-0.005": 8.65565568085,
			"-0.004": 16.2479879655,
			"-0.003": 22.2847445854,
			"-0.002": 28.168348545,
			"-0.001": 28.3490973271,
			"0.0": 28.9832455613,
			"0.001": 23.4083088839,
			"0.002": 17.8474700644,
			"0.003": 11.7634830888,
			"0.004": 7.76891204876,
			"0.005": 6.65005763593,
			"0.006": 6.09370138748,
			"0.007": 5.61916791603,
			"0.008": 6.28248685276,
			"0.009": 4.94602952656,
			"0.01": 3.74574335538,
			"0.011": 5.26053807491,
			"0.012": 3.07694810958,
			"0.013": 0.0222226435174,
			"0.014": 0.0,
			"0.015": 0.0,
			"0.016": 0.0,
			"0.017": 0.0,
			"0.018": 0.0,
			"0.019": 0.0,
			"0.02": 0.0,
			"0.021": 0.0,
			"0.022": 0.0,
			"0.023": 0.0,
			"0.024": 0.0,
			"0.025": 0.0
		}
	}
}
