{
	 "smiles": "OC(=O)C(=CC1=CC=CC(=C1)[N+]([O-])=O)C1=CC(=CC=C1)[N+]([O-])=O", 
	 "Tm": 428.15, 
	 "num_atms": 33, 
	 "gaussian": { 
		 "optdone": 1, 
		 "sigma_profile": "yes", 
		 "theory": "DFT", 
		 "functional": "B3LYP", 
		 "basiset": "6-31G**", 
		 "properties": { 
			 "R2extent": 8109.7898, 
			 "electric_dipole_moment_norm": 6.72303332581, 
			 "electric_quadrupole_moment_norm": 20.2397730484, 
			 "total_energy": -1138.26990202, 
			 "HOMO_LUMO_gap": 0.15567, 
			 "cosmo_polarized_energy": -20.13, 
			 "cosmo_cavitation_energy": 40.62, 
			 "cosmo_dispersion_energy": -26.96, 
			 "cosmo_repulsion_energy": 2.07, 
			 "cosmo_total_nonelectrostatic_energy": 15.73, 
			 "SMD_solvation_energy": 12.56 
		},
		"coords": [
			{
				"x": -2.9003218577,
				"y": 3.7493515458,
				"z": -1.309189964,
				"element": "O" 
			},
			{
				"x": -1.5624751433,
				"y": 3.6396482688,
				"z": -1.5072312524,
				"element": "C" 
			},
			{
				"x": -0.9595511435,
				"y": 4.4010644804,
				"z": -2.2373555865,
				"element": "O" 
			},
			{
				"x": -0.9316349545,
				"y": 2.5069652985,
				"z": -0.7615093409,
				"element": "C" 
			},
			{
				"x": -1.7255129377,
				"y": 1.6509272396,
				"z": -0.0745127932,
				"element": "C" 
			},
			{
				"x": -1.3820276365,
				"y": 0.4105500886,
				"z": 0.6360638729,
				"element": "C" 
			},
			{
				"x": -2.2216658542,
				"y": -0.0085922676,
				"z": 1.6869724144,
				"element": "C" 
			},
			{
				"x": -1.9751858495,
				"y": -1.1877346603,
				"z": 2.3888844765,
				"element": "C" 
			},
			{
				"x": -0.8974811358,
				"y": -1.9984222814,
				"z": 2.040399501,
				"element": "C" 
			},
			{
				"x": -0.0877647646,
				"y": -1.5932431976,
				"z": 0.9800142425,
				"element": "C" 
			},
			{
				"x": -0.3025276423,
				"y": -0.4143532272,
				"z": 0.2777043712,
				"element": "C" 
			},
			{
				"x": 1.0400260565,
				"y": -2.4566535995,
				"z": 0.5786637081,
				"element": "N" 
			},
			{
				"x": 1.7351740703,
				"y": -2.084748422,
				"z": -0.3650932387,
				"element": "O" 
			},
			{
				"x": 1.2122706009,
				"y": -3.495577648,
				"z": 1.213163178,
				"element": "O" 
			},
			{
				"x": 0.5559422714,
				"y": 2.4536163594,
				"z": -0.8204598183,
				"element": "C" 
			},
			{
				"x": 1.29568519,
				"y": 2.4617976253,
				"z": 0.3684447986,
				"element": "C" 
			},
			{
				"x": 2.6853238673,
				"y": 2.4299343351,
				"z": 0.3064004316,
				"element": "C" 
			},
			{
				"x": 3.3777989348,
				"y": 2.3926198827,
				"z": -0.9017082182,
				"element": "C" 
			},
			{
				"x": 2.638586111,
				"y": 2.3949484539,
				"z": -2.0824348577,
				"element": "C" 
			},
			{
				"x": 1.2439961766,
				"y": 2.4336809979,
				"z": -2.0457194036,
				"element": "C" 
			},
			{
				"x": 3.4483217382,
				"y": 2.4431273486,
				"z": 1.5665072564,
				"element": "N" 
			},
			{
				"x": 4.6756293404,
				"y": 2.4361265916,
				"z": 1.4892188331,
				"element": "O" 
			},
			{
				"x": 2.8113462561,
				"y": 2.4604741679,
				"z": 2.6195952948,
				"element": "O" 
			},
			{
				"x": -3.182308679,
				"y": 4.5088466749,
				"z": -1.8446436117,
				"element": "H" 
			},
			{
				"x": -2.7819641054,
				"y": 1.9022712301,
				"z": -0.0419804798,
				"element": "H" 
			},
			{
				"x": -3.0739092322,
				"y": 0.6083991216,
				"z": 1.9580464623,
				"element": "H" 
			},
			{
				"x": -2.629156745,
				"y": -1.4803117526,
				"z": 3.203884055,
				"element": "H" 
			},
			{
				"x": -0.6799651366,
				"y": -2.9251869664,
				"z": 2.5558100293,
				"element": "H" 
			},
			{
				"x": 0.3561447196,
				"y": -0.1673352231,
				"z": -0.5430023864,
				"element": "H" 
			},
			{
				"x": 0.8104098014,
				"y": 2.5000507906,
				"z": 1.335260661,
				"element": "H" 
			},
			{
				"x": 4.4600387701,
				"y": 2.3670263937,
				"z": -0.8975774567,
				"element": "H" 
			},
			{
				"x": 3.1518491479,
				"y": 2.3705358964,
				"z": -3.0382001232,
				"element": "H" 
			},
			{
				"x": 0.681509765,
				"y": 2.4526964543,
				"z": -2.9719150555,
				"element": "H" 
			}
		],
		 "valence_orbital": [ 
			{
				"type": "occ",
				"energy": -0.29378,
				"method": "rhf"
			},
			{
				"type": "occ",
				"energy": -0.29204,
				"method": "rhf"
			},
			{
				"type": "occ",
				"energy": -0.28886,
				"method": "rhf"
			},
			{
				"type": "occ",
				"energy": -0.28037,
				"method": "rhf"
			},
			{
				"type": "occ",
				"energy": -0.25512,
				"method": "rhf"
			},
			{
				"type": "unocc",
				"energy": -0.09945,
				"method": "rhf"
			},
			{
				"type": "unocc",
				"energy": -0.09038,
				"method": "rhf"
			},
			{
				"type": "unocc",
				"energy": -0.08878,
				"method": "rhf"
			},
			{
				"type": "unocc",
				"energy": -0.0313,
				"method": "rhf"
			},
			{
				"type": "unocc",
				"energy": -0.02255,
				"method": "rhf"
			}
		],
		"cosmo_sigma_profile": { 
			"-0.025": 0.0,
			"-0.024": 0.0,
			"-0.023": 0.0,
			"-0.022": 0.0,
			"-0.021": 0.0,
			"-0.02": 0.0,
			"-0.019": 0.0882341219658,
			"-0.018": 0.948770302334,
			"-0.017": 0.878034801093,
			"-0.016": 0.78626980472,
			"-0.015": 0.931996404772,
			"-0.014": 0.711207649373,
			"-0.013": 0.663780262389,
			"-0.012": 0.367273931595,
			"-0.011": 0.728565416291,
			"-0.01": 0.775972180659,
			"-0.009": 1.92345983901,
			"-0.008": 7.63379826161,
			"-0.007": 15.8751206905,
			"-0.006": 19.1655395222,
			"-0.005": 17.1496628822,
			"-0.004": 18.6636364477,
			"-0.003": 21.5409480963,
			"-0.002": 27.0723162632,
			"-0.001": 29.254392457,
			"0.0": 29.2743350278,
			"0.001": 22.5247466756,
			"0.002": 14.3496140541,
			"0.003": 9.49455548744,
			"0.004": 7.57886227223,
			"0.005": 9.55972996824,
			"0.006": 10.7774403094,
			"0.007": 20.4909087892,
			"0.008": 14.7022131718,
			"0.009": 10.1638793725,
			"0.01": 6.5894913458,
			"0.011": 4.21101914766,
			"0.012": 2.02846131625,
			"0.013": 0.0,
			"0.014": 0.0,
			"0.015": 0.0,
			"0.016": 0.0,
			"0.017": 0.0,
			"0.018": 0.0,
			"0.019": 0.0,
			"0.02": 0.0,
			"0.021": 0.0,
			"0.022": 0.0,
			"0.023": 0.0,
			"0.024": 0.0,
			"0.025": 0.0
		}
	}
}
