{
	 "smiles": "CC1CCCC(C)N1S(=O)(=O)C1=C(SC=C1)C(O)=O", 
	 "Tm": 424.15, 
	 "num_atms": 36, 
	 "gaussian": { 
		 "optdone": 1, 
		 "sigma_profile": "yes", 
		 "theory": "DFT", 
		 "functional": "B3LYP", 
		 "basiset": "6-31G**", 
		 "properties": { 
			 "R2extent": 6011.6256, 
			 "electric_dipole_moment_norm": 4.55319234164, 
			 "electric_quadrupole_moment_norm": 30.4541199827, 
			 "total_energy": -1619.46444992, 
			 "HOMO_LUMO_gap": 0.16572, 
			 "cosmo_polarized_energy": -18.89, 
			 "cosmo_cavitation_energy": 38.51, 
			 "cosmo_dispersion_energy": -27.6, 
			 "cosmo_repulsion_energy": 2.02, 
			 "cosmo_total_nonelectrostatic_energy": 12.92, 
			 "SMD_solvation_energy": 6.21 
		},
		"coords": [
			{
				"x": -0.1057940017,
				"y": -2.3188133532,
				"z": 0.8736933552,
				"element": "C" 
			},
			{
				"x": -0.861776109,
				"y": -1.4167759656,
				"z": -0.1091621017,
				"element": "C" 
			},
			{
				"x": -2.3952563322,
				"y": -1.5702802529,
				"z": -0.0077469311,
				"element": "C" 
			},
			{
				"x": -3.0986031769,
				"y": -0.3621468785,
				"z": -0.6308856198,
				"element": "C" 
			},
			{
				"x": -2.8189565675,
				"y": 0.9138817968,
				"z": 0.1863350539,
				"element": "C" 
			},
			{
				"x": -1.3851302075,
				"y": 0.9398253087,
				"z": 0.792044363,
				"element": "C" 
			},
			{
				"x": -1.3545217054,
				"y": 0.6369162262,
				"z": 2.2961971382,
				"element": "C" 
			},
			{
				"x": -0.4915177993,
				"y": 0.0214830927,
				"z": 0.0317313926,
				"element": "N" 
			},
			{
				"x": 0.6124648525,
				"y": 0.6642716851,
				"z": -1.0338862599,
				"element": "S" 
			},
			{
				"x": 0.6946657115,
				"y": -0.2183614432,
				"z": -2.2053631175,
				"element": "O" 
			},
			{
				"x": 0.3567785766,
				"y": 2.096281052,
				"z": -1.188583784,
				"element": "O" 
			},
			{
				"x": 2.244787038,
				"y": 0.5008796168,
				"z": -0.2684604857,
				"element": "C" 
			},
			{
				"x": 2.830234766,
				"y": 1.3714102876,
				"z": 0.6259541462,
				"element": "C" 
			},
			{
				"x": 4.4670760712,
				"y": 0.8635584289,
				"z": 0.9836151594,
				"element": "S" 
			},
			{
				"x": 4.338493653,
				"y": -0.4938662916,
				"z": -0.0778125639,
				"element": "C" 
			},
			{
				"x": 3.1118549162,
				"y": -0.5573339541,
				"z": -0.6765617334,
				"element": "C" 
			},
			{
				"x": 2.2615628631,
				"y": 2.5656716397,
				"z": 1.3133075707,
				"element": "C" 
			},
			{
				"x": 3.1197921015,
				"y": 3.6021658066,
				"z": 1.488228191,
				"element": "O" 
			},
			{
				"x": 1.1379339673,
				"y": 2.6217766239,
				"z": 1.7480770586,
				"element": "O" 
			},
			{
				"x": 0.9761414198,
				"y": -2.2406900206,
				"z": 0.7308786159,
				"element": "H" 
			},
			{
				"x": -0.3293358823,
				"y": -2.0603883118,
				"z": 1.912225173,
				"element": "H" 
			},
			{
				"x": -0.3920177048,
				"y": -3.3647175851,
				"z": 0.7137995822,
				"element": "H" 
			},
			{
				"x": -0.5796021632,
				"y": -1.6993237053,
				"z": -1.1255661446,
				"element": "H" 
			},
			{
				"x": -2.6759904152,
				"y": -2.4991181721,
				"z": -0.5165819159,
				"element": "H" 
			},
			{
				"x": -2.7038269687,
				"y": -1.6864551843,
				"z": 1.0387279946,
				"element": "H" 
			},
			{
				"x": -2.7342628169,
				"y": -0.2346813229,
				"z": -1.657676373,
				"element": "H" 
			},
			{
				"x": -4.1778722749,
				"y": -0.5347621533,
				"z": -0.7016543749,
				"element": "H" 
			},
			{
				"x": -3.5432595043,
				"y": 0.9925882635,
				"z": 1.0058617291,
				"element": "H" 
			},
			{
				"x": -2.9640729231,
				"y": 1.7942512931,
				"z": -0.4478785587,
				"element": "H" 
			},
			{
				"x": -0.9629076587,
				"y": 1.934038413,
				"z": 0.6631095903,
				"element": "H" 
			},
			{
				"x": -1.9277119587,
				"y": 1.4055537795,
				"z": 2.8253251737,
				"element": "H" 
			},
			{
				"x": -0.3284294691,
				"y": 0.6698819328,
				"z": 2.6670976392,
				"element": "H" 
			},
			{
				"x": -1.7978117278,
				"y": -0.3316199562,
				"z": 2.5448621714,
				"element": "H" 
			},
			{
				"x": 5.1759493968,
				"y": -1.1677705218,
				"z": -0.1960303317,
				"element": "H" 
			},
			{
				"x": 2.82060016,
				"y": -1.30226085,
				"z": -1.4051677293,
				"element": "H" 
			},
			{
				"x": 3.9042218738,
				"y": 3.4927306755,
				"z": 0.9306469269,
				"element": "H" 
			}
		],
		 "valence_orbital": [ 
			{
				"type": "occ",
				"energy": -0.29708,
				"method": "rhf"
			},
			{
				"type": "occ",
				"energy": -0.29467,
				"method": "rhf"
			},
			{
				"type": "occ",
				"energy": -0.28589,
				"method": "rhf"
			},
			{
				"type": "occ",
				"energy": -0.2688,
				"method": "rhf"
			},
			{
				"type": "occ",
				"energy": -0.23994,
				"method": "rhf"
			},
			{
				"type": "unocc",
				"energy": -0.07422,
				"method": "rhf"
			},
			{
				"type": "unocc",
				"energy": -0.01639,
				"method": "rhf"
			},
			{
				"type": "unocc",
				"energy": 0.00321,
				"method": "rhf"
			},
			{
				"type": "unocc",
				"energy": 0.02227,
				"method": "rhf"
			},
			{
				"type": "unocc",
				"energy": 0.05452,
				"method": "rhf"
			}
		],
		"cosmo_sigma_profile": { 
			"-0.025": 0.0,
			"-0.024": 0.0,
			"-0.023": 0.0,
			"-0.022": 0.0,
			"-0.021": 0.0,
			"-0.02": 0.0,
			"-0.019": 0.283677821802,
			"-0.018": 0.713912873424,
			"-0.017": 1.31253056303,
			"-0.016": 0.792155555291,
			"-0.015": 0.740133751957,
			"-0.014": 0.940648260267,
			"-0.013": 0.995982374212,
			"-0.012": 1.02216908337,
			"-0.011": 1.29357729974,
			"-0.01": 3.09083498432,
			"-0.009": 3.12867618306,
			"-0.008": 3.81926298062,
			"-0.007": 5.36605422752,
			"-0.006": 5.01603043395,
			"-0.005": 7.23167652138,
			"-0.004": 15.2737981539,
			"-0.003": 28.1891922018,
			"-0.002": 37.0422542064,
			"-0.001": 41.7691075374,
			"0.0": 39.5608691589,
			"0.001": 25.4121347956,
			"0.002": 12.8656177387,
			"0.003": 8.63406697983,
			"0.004": 6.48356948587,
			"0.005": 5.49654884262,
			"0.006": 4.88139181539,
			"0.007": 6.47472239857,
			"0.008": 8.09048582953,
			"0.009": 8.05158972363,
			"0.01": 9.07598265278,
			"0.011": 8.73157202804,
			"0.012": 3.59509238803,
			"0.013": 0.0,
			"0.014": 0.0,
			"0.015": 0.0,
			"0.016": 0.0,
			"0.017": 0.0,
			"0.018": 0.0,
			"0.019": 0.0,
			"0.02": 0.0,
			"0.021": 0.0,
			"0.022": 0.0,
			"0.023": 0.0,
			"0.024": 0.0,
			"0.025": 0.0
		}
	}
}
