{
	 "smiles": "OCC1=C(Br)C=CC(=C1)C(F)(F)F", 
	 "Tm": 345.15, 
	 "num_atms": 19, 
	 "gaussian": { 
		 "optdone": 1, 
		 "sigma_profile": "yes", 
		 "theory": "DFT", 
		 "functional": "B3LYP", 
		 "basiset": "6-31G**", 
		 "properties": { 
			 "R2extent": 4929.804, 
			 "electric_dipole_moment_norm": 2.0037879828, 
			 "electric_quadrupole_moment_norm": 6.75181353416, 
			 "total_energy": -3254.61385677, 
			 "HOMO_LUMO_gap": 0.21863, 
			 "cosmo_polarized_energy": -7.77, 
			 "cosmo_cavitation_energy": 26.85, 
			 "cosmo_dispersion_energy": -19.52, 
			 "cosmo_repulsion_energy": 1.49, 
			 "cosmo_total_nonelectrostatic_energy": 8.82, 
			 "SMD_solvation_energy": 4.69 
		},
		"coords": [
			{
				"x": -1.9682692519,
				"y": -1.9302875854,
				"z": 1.822664854,
				"element": "O" 
			},
			{
				"x": -0.7617634921,
				"y": -2.5818684588,
				"z": 1.470978537,
				"element": "C" 
			},
			{
				"x": 0.3075921103,
				"y": -1.6386486261,
				"z": 0.9419293669,
				"element": "C" 
			},
			{
				"x": 1.629577262,
				"y": -2.0464867844,
				"z": 0.7227039877,
				"element": "C" 
			},
			{
				"x": 2.1459259861,
				"y": -3.8569687726,
				"z": 1.0796804214,
				"element": "Br" 
			},
			{
				"x": 2.6024369977,
				"y": -1.1725988036,
				"z": 0.2411575772,
				"element": "C" 
			},
			{
				"x": 2.2603334374,
				"y": 0.1482507829,
				"z": -0.0395051218,
				"element": "C" 
			},
			{
				"x": 0.9471693914,
				"y": 0.5759759914,
				"z": 0.1610632429,
				"element": "C" 
			},
			{
				"x": -0.0150536206,
				"y": -0.3122248219,
				"z": 0.6436709294,
				"element": "C" 
			},
			{
				"x": 0.5472952501,
				"y": 1.9823862365,
				"z": -0.1968022334,
				"element": "C" 
			},
			{
				"x": -0.4271507125,
				"y": 2.4486022701,
				"z": 0.615199305,
				"element": "F" 
			},
			{
				"x": 0.0741082193,
				"y": 2.0593994942,
				"z": -1.4616304983,
				"element": "F" 
			},
			{
				"x": 1.5907859051,
				"y": 2.8372524685,
				"z": -0.1141019865,
				"element": "F" 
			},
			{
				"x": -1.812534744,
				"y": -1.4307759234,
				"z": 2.6351016101,
				"element": "H" 
			},
			{
				"x": -0.3535501547,
				"y": -3.1639619853,
				"z": 2.3088854773,
				"element": "H" 
			},
			{
				"x": -1.0239557634,
				"y": -3.3062545245,
				"z": 0.6912280754,
				"element": "H" 
			},
			{
				"x": 3.6169512195,
				"y": -1.5235202153,
				"z": 0.0917753522,
				"element": "H" 
			},
			{
				"x": 3.0114440323,
				"y": 0.8394213718,
				"z": -0.4050574922,
				"element": "H" 
			},
			{
				"x": -1.0376420722,
				"y": 0.0131078859,
				"z": 0.7973585957,
				"element": "H" 
			}
		],
		 "valence_orbital": [ 
			{
				"type": "occ",
				"energy": -0.32734,
				"method": "rhf"
			},
			{
				"type": "occ",
				"energy": -0.30604,
				"method": "rhf"
			},
			{
				"type": "occ",
				"energy": -0.2905,
				"method": "rhf"
			},
			{
				"type": "occ",
				"energy": -0.27211,
				"method": "rhf"
			},
			{
				"type": "occ",
				"energy": -0.25881,
				"method": "rhf"
			},
			{
				"type": "unocc",
				"energy": -0.04018,
				"method": "rhf"
			},
			{
				"type": "unocc",
				"energy": -0.02683,
				"method": "rhf"
			},
			{
				"type": "unocc",
				"energy": -0.00481,
				"method": "rhf"
			},
			{
				"type": "unocc",
				"energy": 0.06438,
				"method": "rhf"
			},
			{
				"type": "unocc",
				"energy": 0.10296,
				"method": "rhf"
			}
		],
		"cosmo_sigma_profile": { 
			"-0.025": 0.0,
			"-0.024": 0.0,
			"-0.023": 0.0,
			"-0.022": 0.0,
			"-0.021": 0.0,
			"-0.02": 0.0,
			"-0.019": 0.0,
			"-0.018": 0.0,
			"-0.017": 0.0749508478356,
			"-0.016": 0.996858131413,
			"-0.015": 1.1063081517,
			"-0.014": 0.901542426794,
			"-0.013": 0.910301007374,
			"-0.012": 1.15750902784,
			"-0.011": 1.07566753181,
			"-0.01": 0.46669965364,
			"-0.009": 0.909343178877,
			"-0.008": 2.60187883929,
			"-0.007": 5.41147538552,
			"-0.006": 6.84309111878,
			"-0.005": 10.2578955691,
			"-0.004": 10.6075382061,
			"-0.003": 11.7884539628,
			"-0.002": 11.4707911829,
			"-0.001": 13.7218106145,
			"0.0": 17.4086045939,
			"0.001": 26.0035574988,
			"0.002": 35.9117946695,
			"0.003": 35.7159503138,
			"0.004": 9.85859926862,
			"0.005": 2.21025637309,
			"0.006": 1.34619749686,
			"0.007": 0.891647853884,
			"0.008": 0.976672931814,
			"0.009": 1.18705124907,
			"0.01": 0.810646657504,
			"0.011": 1.27943292154,
			"0.012": 1.54248581837,
			"0.013": 1.93169502437,
			"0.014": 0.393724368566,
			"0.015": 0.0,
			"0.016": 0.0,
			"0.017": 0.0,
			"0.018": 0.0,
			"0.019": 0.0,
			"0.02": 0.0,
			"0.021": 0.0,
			"0.022": 0.0,
			"0.023": 0.0,
			"0.024": 0.0,
			"0.025": 0.0
		}
	}
}
