{
	 "smiles": "CCCCCCCCCCCC(=O)NC", 
	 "Tm": 341.15, 
	 "num_atms": 42, 
	 "gaussian": { 
		 "optdone": 1, 
		 "sigma_profile": "yes", 
		 "theory": "DFT", 
		 "functional": "B3LYP", 
		 "basiset": "6-31G**", 
		 "properties": { 
			 "R2extent": 8189.638, 
			 "electric_dipole_moment_norm": 3.39809063005, 
			 "electric_quadrupole_moment_norm": 24.9645969154, 
			 "total_energy": -641.677648835, 
			 "HOMO_LUMO_gap": 0.2772, 
			 "cosmo_polarized_energy": -10.92, 
			 "cosmo_cavitation_energy": 42.07, 
			 "cosmo_dispersion_energy": -29.37, 
			 "cosmo_repulsion_energy": 2.42, 
			 "cosmo_total_nonelectrostatic_energy": 15.11, 
			 "SMD_solvation_energy": 6.34 
		},
		"coords": [
			{
				"x": -4.0722056153,
				"y": -3.9424491296,
				"z": -1.3285030693,
				"element": "C" 
			},
			{
				"x": -3.4243086844,
				"y": -3.116801914,
				"z": -0.2103615462,
				"element": "C" 
			},
			{
				"x": -2.105260626,
				"y": -3.7116510665,
				"z": 0.3199001598,
				"element": "C" 
			},
			{
				"x": -0.8946361407,
				"y": -3.6433560442,
				"z": -0.6399752532,
				"element": "C" 
			},
			{
				"x": 0.0214522939,
				"y": -2.417772529,
				"z": -0.468742019,
				"element": "C" 
			},
			{
				"x": -0.6110488999,
				"y": -1.0540337031,
				"z": -0.7782619437,
				"element": "C" 
			},
			{
				"x": 0.3895907341,
				"y": 0.1074628968,
				"z": -0.6932990572,
				"element": "C" 
			},
			{
				"x": -0.2501235536,
				"y": 1.4732327372,
				"z": -0.9807496923,
				"element": "C" 
			},
			{
				"x": 0.7074915921,
				"y": 2.6738718809,
				"z": -1.0922088057,
				"element": "C" 
			},
			{
				"x": 1.447397246,
				"y": 3.0979383682,
				"z": 0.1920545759,
				"element": "C" 
			},
			{
				"x": 2.7621894816,
				"y": 2.3556108562,
				"z": 0.4756137004,
				"element": "C" 
			},
			{
				"x": 3.5570690561,
				"y": 3.0211254264,
				"z": 1.5999224929,
				"element": "C" 
			},
			{
				"x": 3.6036096241,
				"y": 4.2387911761,
				"z": 1.7373003426,
				"element": "O" 
			},
			{
				"x": 4.2291730663,
				"y": 2.1575613856,
				"z": 2.4222713059,
				"element": "N" 
			},
			{
				"x": 5.0810364493,
				"y": 2.6130026026,
				"z": 3.5055294053,
				"element": "C" 
			},
			{
				"x": -3.4223027331,
				"y": -4.0250934302,
				"z": -2.2062870125,
				"element": "H" 
			},
			{
				"x": -5.0125955302,
				"y": -3.4897446083,
				"z": -1.6600587326,
				"element": "H" 
			},
			{
				"x": -4.2948028745,
				"y": -4.9602432547,
				"z": -0.9872157605,
				"element": "H" 
			},
			{
				"x": -4.1321286634,
				"y": -3.0397986728,
				"z": 0.6252426844,
				"element": "H" 
			},
			{
				"x": -3.2612800119,
				"y": -2.0916526574,
				"z": -0.5631444843,
				"element": "H" 
			},
			{
				"x": -1.8379957942,
				"y": -3.2149520682,
				"z": 1.2627243678,
				"element": "H" 
			},
			{
				"x": -2.294918489,
				"y": -4.7610042573,
				"z": 0.5828872477,
				"element": "H" 
			},
			{
				"x": -0.276405564,
				"y": -4.5374558362,
				"z": -0.4915891338,
				"element": "H" 
			},
			{
				"x": -1.2388070882,
				"y": -3.6949302737,
				"z": -1.6816803002,
				"element": "H" 
			},
			{
				"x": 0.8988043783,
				"y": -2.5504076339,
				"z": -1.1174767367,
				"element": "H" 
			},
			{
				"x": 0.4086879211,
				"y": -2.4066214797,
				"z": 0.5607557932,
				"element": "H" 
			},
			{
				"x": -1.0537628677,
				"y": -1.076422715,
				"z": -1.7845038238,
				"element": "H" 
			},
			{
				"x": -1.439524974,
				"y": -0.8597393083,
				"z": -0.0847813319,
				"element": "H" 
			},
			{
				"x": 1.2111331475,
				"y": -0.069393912,
				"z": -1.4027248051,
				"element": "H" 
			},
			{
				"x": 0.8429192871,
				"y": 0.1079628742,
				"z": 0.3065998211,
				"element": "H" 
			},
			{
				"x": -1.0002128397,
				"y": 1.6877366175,
				"z": -0.2059953309,
				"element": "H" 
			},
			{
				"x": -0.8090879094,
				"y": 1.3991675449,
				"z": -1.9240732115,
				"element": "H" 
			},
			{
				"x": 1.4395260892,
				"y": 2.4848586627,
				"z": -1.8908118524,
				"element": "H" 
			},
			{
				"x": 0.1123867187,
				"y": 3.5299993496,
				"z": -1.4340601129,
				"element": "H" 
			},
			{
				"x": 1.7010130777,
				"y": 4.1607433037,
				"z": 0.133901705,
				"element": "H" 
			},
			{
				"x": 0.7760327338,
				"y": 2.9972557387,
				"z": 1.0557399768,
				"element": "H" 
			},
			{
				"x": 3.3941280504,
				"y": 2.3904072796,
				"z": -0.4230157903,
				"element": "H" 
			},
			{
				"x": 2.5952958894,
				"y": 1.2959385927,
				"z": 0.6958013195,
				"element": "H" 
			},
			{
				"x": 4.1491978408,
				"y": 1.1674807335,
				"z": 2.2495272193,
				"element": "H" 
			},
			{
				"x": 5.0189712918,
				"y": 3.7015481213,
				"z": 3.527571397,
				"element": "H" 
			},
			{
				"x": 4.7456759297,
				"y": 2.2154286576,
				"z": 4.4701597612,
				"element": "H" 
			},
			{
				"x": 6.1251269602,
				"y": 2.3177996878,
				"z": 3.34801653,
				"element": "H" 
			}
		],
		 "valence_orbital": [ 
			{
				"type": "occ",
				"energy": -0.31253,
				"method": "rhf"
			},
			{
				"type": "occ",
				"energy": -0.30368,
				"method": "rhf"
			},
			{
				"type": "occ",
				"energy": -0.29376,
				"method": "rhf"
			},
			{
				"type": "occ",
				"energy": -0.24646,
				"method": "rhf"
			},
			{
				"type": "occ",
				"energy": -0.24089,
				"method": "rhf"
			},
			{
				"type": "unocc",
				"energy": 0.03631,
				"method": "rhf"
			},
			{
				"type": "unocc",
				"energy": 0.07253,
				"method": "rhf"
			},
			{
				"type": "unocc",
				"energy": 0.08496,
				"method": "rhf"
			},
			{
				"type": "unocc",
				"energy": 0.09319,
				"method": "rhf"
			},
			{
				"type": "unocc",
				"energy": 0.10551,
				"method": "rhf"
			}
		],
		"cosmo_sigma_profile": { 
			"-0.025": 0.0,
			"-0.024": 0.0,
			"-0.023": 0.0,
			"-0.022": 0.0,
			"-0.021": 0.0,
			"-0.02": 0.0,
			"-0.019": 0.0,
			"-0.018": 0.0,
			"-0.017": 0.0,
			"-0.016": 0.0,
			"-0.015": 0.0,
			"-0.014": 0.459752352047,
			"-0.013": 1.61826545637,
			"-0.012": 0.45954021584,
			"-0.011": 1.59092565287,
			"-0.01": 1.5040353314,
			"-0.009": 1.72560948659,
			"-0.008": 0.898926247942,
			"-0.007": 1.42358560909,
			"-0.006": 1.88066758439,
			"-0.005": 4.39590031741,
			"-0.004": 10.8754970548,
			"-0.003": 15.5772479778,
			"-0.002": 40.4120897427,
			"-0.001": 69.3620171917,
			"0.0": 66.0006723683,
			"0.001": 49.6661728222,
			"0.002": 24.7606504696,
			"0.003": 4.82798239861,
			"0.004": 2.60359539216,
			"0.005": 1.60116372701,
			"0.006": 2.15530950655,
			"0.007": 1.37706773262,
			"0.008": 1.80009100435,
			"0.009": 1.99301682999,
			"0.01": 1.50635237872,
			"0.011": 1.33162902283,
			"0.012": 1.71073796085,
			"0.013": 2.28669905411,
			"0.014": 4.77391796495,
			"0.015": 2.58512345327,
			"0.016": 0.0,
			"0.017": 0.0,
			"0.018": 0.0,
			"0.019": 0.0,
			"0.02": 0.0,
			"0.021": 0.0,
			"0.022": 0.0,
			"0.023": 0.0,
			"0.024": 0.0,
			"0.025": 0.0
		}
	}
}
