{
	 "smiles": "O=CN(C=O)N(C=O)C=O", 
	 "Tm": 455.15, 
	 "num_atms": 14, 
	 "gaussian": { 
		 "optdone": 1, 
		 "sigma_profile": "yes", 
		 "theory": "DFT", 
		 "functional": "B3LYP", 
		 "basiset": "6-31G**", 
		 "properties": { 
			 "R2extent": 2163.7758, 
			 "electric_dipole_moment_norm": 2.20868577666, 
			 "electric_quadrupole_moment_norm": 10.146508121, 
			 "total_energy": -565.194476218, 
			 "HOMO_LUMO_gap": 0.22359, 
			 "cosmo_polarized_energy": -15.43, 
			 "cosmo_cavitation_energy": 20.89, 
			 "cosmo_dispersion_energy": -14.04, 
			 "cosmo_repulsion_energy": 1.15, 
			 "cosmo_total_nonelectrostatic_energy": 8.0, 
			 "SMD_solvation_energy": 10.34 
		},
		"coords": [
			{
				"x": 2.4526053561,
				"y": -3.4790806714,
				"z": 1.8026283778,
				"element": "O" 
			},
			{
				"x": 1.7300068971,
				"y": -2.5147566713,
				"z": 1.8256402941,
				"element": "C" 
			},
			{
				"x": 1.1328721393,
				"y": -1.9689665504,
				"z": 0.6710895214,
				"element": "N" 
			},
			{
				"x": 1.1914091405,
				"y": -2.6079166764,
				"z": -0.5896301885,
				"element": "C" 
			},
			{
				"x": 0.6060357557,
				"y": -2.1857930388,
				"z": -1.5553838051,
				"element": "O" 
			},
			{
				"x": 0.2374570343,
				"y": -0.9208324653,
				"z": 0.8261155253,
				"element": "N" 
			},
			{
				"x": -1.0851196653,
				"y": -1.2333722964,
				"z": 1.2187936402,
				"element": "C" 
			},
			{
				"x": -1.4130436248,
				"y": -2.3429645269,
				"z": 1.5576195519,
				"element": "O" 
			},
			{
				"x": 0.6011299192,
				"y": 0.348151853,
				"z": 0.3312681463,
				"element": "C" 
			},
			{
				"x": -0.140193127,
				"y": 1.2983806198,
				"z": 0.3413274222,
				"element": "O" 
			},
			{
				"x": 1.4626456764,
				"y": -1.9388098258,
				"z": 2.7276921475,
				"element": "H" 
			},
			{
				"x": 1.8391909178,
				"y": -3.4937354424,
				"z": -0.5577536021,
				"element": "H" 
			},
			{
				"x": -1.7299666526,
				"y": -0.3453340062,
				"z": 1.1892609515,
				"element": "H" 
			},
			{
				"x": 1.6393702332,
				"y": 0.3524296986,
				"z": -0.0414679825,
				"element": "H" 
			}
		],
		 "valence_orbital": [ 
			{
				"type": "occ",
				"energy": -0.33803,
				"method": "rhf"
			},
			{
				"type": "occ",
				"energy": -0.32488,
				"method": "rhf"
			},
			{
				"type": "occ",
				"energy": -0.32299,
				"method": "rhf"
			},
			{
				"type": "occ",
				"energy": -0.29343,
				"method": "rhf"
			},
			{
				"type": "occ",
				"energy": -0.29181,
				"method": "rhf"
			},
			{
				"type": "unocc",
				"energy": -0.06822,
				"method": "rhf"
			},
			{
				"type": "unocc",
				"energy": -0.06324,
				"method": "rhf"
			},
			{
				"type": "unocc",
				"energy": -0.00347,
				"method": "rhf"
			},
			{
				"type": "unocc",
				"energy": 0.00131,
				"method": "rhf"
			},
			{
				"type": "unocc",
				"energy": 0.07537,
				"method": "rhf"
			}
		],
		"cosmo_sigma_profile": { 
			"-0.025": 0.0,
			"-0.024": 0.0,
			"-0.023": 0.0,
			"-0.022": 0.0,
			"-0.021": 0.0,
			"-0.02": 0.0,
			"-0.019": 0.0,
			"-0.018": 0.0,
			"-0.017": 0.0,
			"-0.016": 0.0,
			"-0.015": 0.0,
			"-0.014": 0.0,
			"-0.013": 0.0,
			"-0.012": 0.0,
			"-0.011": 4.5066496267,
			"-0.01": 11.7945297883,
			"-0.009": 8.64345285202,
			"-0.008": 7.81602973311,
			"-0.007": 9.82817957929,
			"-0.006": 9.18753528254,
			"-0.005": 5.56131604827,
			"-0.004": 5.96591120545,
			"-0.003": 5.98738856197,
			"-0.002": 6.62963178107,
			"-0.001": 7.2672836447,
			"0.0": 6.93851114561,
			"0.001": 6.57049320103,
			"0.002": 6.04439196491,
			"0.003": 4.76352612594,
			"0.004": 4.16536137361,
			"0.005": 6.24733567581,
			"0.006": 5.39471406014,
			"0.007": 6.73623785222,
			"0.008": 7.61326410977,
			"0.009": 13.3523273772,
			"0.01": 12.9949180908,
			"0.011": 4.43347603013,
			"0.012": 0.0330367573451,
			"0.013": 0.0,
			"0.014": 0.0,
			"0.015": 0.0,
			"0.016": 0.0,
			"0.017": 0.0,
			"0.018": 0.0,
			"0.019": 0.0,
			"0.02": 0.0,
			"0.021": 0.0,
			"0.022": 0.0,
			"0.023": 0.0,
			"0.024": 0.0,
			"0.025": 0.0
		}
	}
}
