{
	 "smiles": "OC(=O)CCC1=CN(N=C1)C1=CC=CC=C1", 
	 "Tm": 357.65, 
	 "num_atms": 28, 
	 "gaussian": { 
		 "optdone": 1, 
		 "sigma_profile": "yes", 
		 "theory": "DFT", 
		 "functional": "B3LYP", 
		 "basiset": "6-31G**", 
		 "properties": { 
			 "R2extent": 4668.8147, 
			 "electric_dipole_moment_norm": 2.59353862705, 
			 "electric_quadrupole_moment_norm": 15.4067465823, 
			 "total_energy": -724.457749602, 
			 "HOMO_LUMO_gap": 0.19802, 
			 "cosmo_polarized_energy": -14.73, 
			 "cosmo_cavitation_energy": 32.71, 
			 "cosmo_dispersion_energy": -23.25, 
			 "cosmo_repulsion_energy": 1.83, 
			 "cosmo_total_nonelectrostatic_energy": 11.29, 
			 "SMD_solvation_energy": 6.13 
		},
		"coords": [
			{
				"x": -3.6155819915,
				"y": -1.6147792295,
				"z": -0.3184260808,
				"element": "O" 
			},
			{
				"x": -3.9851390436,
				"y": -0.3476327112,
				"z": 0.0126442342,
				"element": "C" 
			},
			{
				"x": -4.4616159446,
				"y": 0.4138344491,
				"z": -0.7977534033,
				"element": "O" 
			},
			{
				"x": -3.7746929249,
				"y": -0.0491788645,
				"z": 1.4824073975,
				"element": "C" 
			},
			{
				"x": -2.4744105745,
				"y": -0.6197963118,
				"z": 2.0883917239,
				"element": "C" 
			},
			{
				"x": -1.2208518789,
				"y": -0.0587688138,
				"z": 1.4776240791,
				"element": "C" 
			},
			{
				"x": -0.5062588395,
				"y": -0.5468615371,
				"z": 0.4004882847,
				"element": "C" 
			},
			{
				"x": 0.5425837027,
				"y": 0.3042714492,
				"z": 0.1850546154,
				"element": "N" 
			},
			{
				"x": 0.5437596353,
				"y": 1.3334805199,
				"z": 1.0707839015,
				"element": "N" 
			},
			{
				"x": -0.5128897325,
				"y": 1.1150353161,
				"z": 1.8445368001,
				"element": "C" 
			},
			{
				"x": 1.5490449623,
				"y": 0.2210719277,
				"z": -0.8124748207,
				"element": "C" 
			},
			{
				"x": 1.8213402736,
				"y": -0.9970615361,
				"z": -1.4456075488,
				"element": "C" 
			},
			{
				"x": 2.8001245982,
				"y": -1.0554766528,
				"z": -2.4373453418,
				"element": "C" 
			},
			{
				"x": 3.5201384982,
				"y": 0.0863818354,
				"z": -2.790631677,
				"element": "C" 
			},
			{
				"x": 3.2526049599,
				"y": 1.2941633129,
				"z": -2.1417064195,
				"element": "C" 
			},
			{
				"x": 2.2693028438,
				"y": 1.3704157751,
				"z": -1.1580918359,
				"element": "C" 
			},
			{
				"x": -3.8211575022,
				"y": -1.7078289741,
				"z": -1.2640317706,
				"element": "H" 
			},
			{
				"x": -3.8230655555,
				"y": 1.0366716883,
				"z": 1.5915376576,
				"element": "H" 
			},
			{
				"x": -4.6374011579,
				"y": -0.4695918491,
				"z": 2.0169968292,
				"element": "H" 
			},
			{
				"x": -2.4849618444,
				"y": -1.7089417296,
				"z": 1.9878955391,
				"element": "H" 
			},
			{
				"x": -2.4830057214,
				"y": -0.4039525926,
				"z": 3.1627579016,
				"element": "H" 
			},
			{
				"x": -0.689272074,
				"y": -1.4052383617,
				"z": -0.2262942562,
				"element": "H" 
			},
			{
				"x": -0.7329792558,
				"y": 1.8019866289,
				"z": 2.6523059936,
				"element": "H" 
			},
			{
				"x": 1.2918529134,
				"y": -1.8980681346,
				"z": -1.1553340771,
				"element": "H" 
			},
			{
				"x": 3.0064804684,
				"y": -2.0039112711,
				"z": -2.9246058406,
				"element": "H" 
			},
			{
				"x": 4.2846998172,
				"y": 0.0347811597,
				"z": -3.5597072528,
				"element": "H" 
			},
			{
				"x": 3.808518002,
				"y": 2.1888967599,
				"z": -2.4063537743,
				"element": "H" 
			},
			{
				"x": 2.0479333662,
				"y": 2.2997977474,
				"z": -0.6483608582,
				"element": "H" 
			}
		],
		 "valence_orbital": [ 
			{
				"type": "occ",
				"energy": -0.28634,
				"method": "rhf"
			},
			{
				"type": "occ",
				"energy": -0.2741,
				"method": "rhf"
			},
			{
				"type": "occ",
				"energy": -0.257,
				"method": "rhf"
			},
			{
				"type": "occ",
				"energy": -0.2457,
				"method": "rhf"
			},
			{
				"type": "occ",
				"energy": -0.22157,
				"method": "rhf"
			},
			{
				"type": "unocc",
				"energy": -0.02355,
				"method": "rhf"
			},
			{
				"type": "unocc",
				"energy": -0.00702,
				"method": "rhf"
			},
			{
				"type": "unocc",
				"energy": 0.00654,
				"method": "rhf"
			},
			{
				"type": "unocc",
				"energy": 0.0396,
				"method": "rhf"
			},
			{
				"type": "unocc",
				"energy": 0.05938,
				"method": "rhf"
			}
		],
		"cosmo_sigma_profile": { 
			"-0.025": 0.0,
			"-0.024": 0.0,
			"-0.023": 0.0,
			"-0.022": 0.0,
			"-0.021": 0.0,
			"-0.02": 0.0,
			"-0.019": 0.0,
			"-0.018": 0.476788792448,
			"-0.017": 0.789778197682,
			"-0.016": 1.15938900562,
			"-0.015": 0.366071828951,
			"-0.014": 1.08157308654,
			"-0.013": 0.763338674231,
			"-0.012": 0.707905212149,
			"-0.011": 0.469939492431,
			"-0.01": 0.930184826238,
			"-0.009": 2.24069798481,
			"-0.008": 2.4310644843,
			"-0.007": 6.40712687038,
			"-0.006": 13.1989494567,
			"-0.005": 18.5950790382,
			"-0.004": 25.5855955478,
			"-0.003": 20.6108344818,
			"-0.002": 18.0438168803,
			"-0.001": 15.6168046308,
			"0.0": 14.4687947312,
			"0.001": 15.7492134002,
			"0.002": 16.7994867107,
			"0.003": 17.5141023909,
			"0.004": 18.4946460107,
			"0.005": 13.9867898508,
			"0.006": 5.4673585175,
			"0.007": 3.76757045271,
			"0.008": 4.46114419831,
			"0.009": 3.51287464597,
			"0.01": 3.7034195706,
			"0.011": 4.55238293613,
			"0.012": 6.11218139372,
			"0.013": 2.14854359383,
			"0.014": 0.423665122374,
			"0.015": 0.0,
			"0.016": 0.0,
			"0.017": 0.0,
			"0.018": 0.0,
			"0.019": 0.0,
			"0.02": 0.0,
			"0.021": 0.0,
			"0.022": 0.0,
			"0.023": 0.0,
			"0.024": 0.0,
			"0.025": 0.0
		}
	}
}
