{
	 "smiles": "CC1=CC2=C(O1)C=CN=C2Cl", 
	 "Tm": 312.15, 
	 "num_atms": 17, 
	 "gaussian": { 
		 "optdone": 1, 
		 "sigma_profile": "yes", 
		 "theory": "DFT", 
		 "functional": "B3LYP", 
		 "basiset": "6-31G**", 
		 "properties": { 
			 "R2extent": 2488.2479, 
			 "electric_dipole_moment_norm": 4.07987633268, 
			 "electric_quadrupole_moment_norm": 7.28440635742, 
			 "total_energy": -898.629814706, 
			 "HOMO_LUMO_gap": 0.19534, 
			 "cosmo_polarized_energy": -7.43, 
			 "cosmo_cavitation_energy": 23.27, 
			 "cosmo_dispersion_energy": -17.64, 
			 "cosmo_repulsion_energy": 1.42, 
			 "cosmo_total_nonelectrostatic_energy": 7.04, 
			 "SMD_solvation_energy": 2.82 
		},
		"coords": [
			{
				"x": -2.4958271885,
				"y": 1.6941788857,
				"z": 0.5972438413,
				"element": "C" 
			},
			{
				"x": -1.0704362698,
				"y": 1.3312265966,
				"z": 0.3861738692,
				"element": "C" 
			},
			{
				"x": -0.4569821304,
				"y": 0.344718805,
				"z": -0.3191234854,
				"element": "C" 
			},
			{
				"x": 0.9565058311,
				"y": 0.5303443887,
				"z": -0.1246765391,
				"element": "C" 
			},
			{
				"x": 1.0857635665,
				"y": 1.6530633189,
				"z": 0.7114018584,
				"element": "C" 
			},
			{
				"x": -0.1440327156,
				"y": 2.1430732003,
				"z": 1.0243914817,
				"element": "O" 
			},
			{
				"x": 2.319853685,
				"y": 2.1414166668,
				"z": 1.1226070591,
				"element": "C" 
			},
			{
				"x": 3.420767541,
				"y": 1.4345266144,
				"z": 0.643942583,
				"element": "C" 
			},
			{
				"x": 3.3427035554,
				"y": 0.3529788906,
				"z": -0.1595559433,
				"element": "N" 
			},
			{
				"x": 2.1544550686,
				"y": -0.0761165952,
				"z": -0.5250831044,
				"element": "C" 
			},
			{
				"x": 2.0853474331,
				"y": -1.4907387185,
				"z": -1.5746721523,
				"element": "Cl" 
			},
			{
				"x": -2.7004468153,
				"y": 2.7101080248,
				"z": 0.2413237758,
				"element": "H" 
			},
			{
				"x": -2.7577800512,
				"y": 1.6595169487,
				"z": 1.6606521318,
				"element": "H" 
			},
			{
				"x": -3.1420222293,
				"y": 0.999571186,
				"z": 0.0569938819,
				"element": "H" 
			},
			{
				"x": -0.9413099551,
				"y": -0.4213180291,
				"z": -0.9055822912,
				"element": "H" 
			},
			{
				"x": 2.4236378216,
				"y": 3.0062717387,
				"z": 1.7668135047,
				"element": "H" 
			},
			{
				"x": 4.4265028528,
				"y": 1.7450780777,
				"z": 0.9143495289,
				"element": "H" 
			}
		],
		 "valence_orbital": [ 
			{
				"type": "occ",
				"energy": -0.31125,
				"method": "rhf"
			},
			{
				"type": "occ",
				"energy": -0.3,
				"method": "rhf"
			},
			{
				"type": "occ",
				"energy": -0.27323,
				"method": "rhf"
			},
			{
				"type": "occ",
				"energy": -0.27156,
				"method": "rhf"
			},
			{
				"type": "occ",
				"energy": -0.23092,
				"method": "rhf"
			},
			{
				"type": "unocc",
				"energy": -0.03558,
				"method": "rhf"
			},
			{
				"type": "unocc",
				"energy": -0.01431,
				"method": "rhf"
			},
			{
				"type": "unocc",
				"energy": 0.0398,
				"method": "rhf"
			},
			{
				"type": "unocc",
				"energy": 0.04017,
				"method": "rhf"
			},
			{
				"type": "unocc",
				"energy": 0.09308,
				"method": "rhf"
			}
		],
		"cosmo_sigma_profile": { 
			"-0.025": 0.0,
			"-0.024": 0.0,
			"-0.023": 0.0,
			"-0.022": 0.0,
			"-0.021": 0.0,
			"-0.02": 0.0,
			"-0.019": 0.0,
			"-0.018": 0.0,
			"-0.017": 0.0,
			"-0.016": 0.0,
			"-0.015": 0.0,
			"-0.014": 0.0,
			"-0.013": 0.0,
			"-0.012": 0.0,
			"-0.011": 0.0,
			"-0.01": 0.0,
			"-0.009": 0.296329818672,
			"-0.008": 3.09226880695,
			"-0.007": 5.63735476161,
			"-0.006": 11.379139261,
			"-0.005": 11.3892355587,
			"-0.004": 10.1871072846,
			"-0.003": 10.6078333164,
			"-0.002": 14.5351351019,
			"-0.001": 18.1041594079,
			"0.0": 23.6251886174,
			"0.001": 17.9682986432,
			"0.002": 16.2956954881,
			"0.003": 11.6047204231,
			"0.004": 11.0120064292,
			"0.005": 7.58195746821,
			"0.006": 4.38295383339,
			"0.007": 3.22504208487,
			"0.008": 1.81020172258,
			"0.009": 1.35229605696,
			"0.01": 1.35136551509,
			"0.011": 1.0889280558,
			"0.012": 0.874176122196,
			"0.013": 0.696257512604,
			"0.014": 0.940283746368,
			"0.015": 0.586558347534,
			"0.016": 0.00897131160717,
			"0.017": 0.0,
			"0.018": 0.0,
			"0.019": 0.0,
			"0.02": 0.0,
			"0.021": 0.0,
			"0.022": 0.0,
			"0.023": 0.0,
			"0.024": 0.0,
			"0.025": 0.0
		}
	}
}
