{
	 "smiles": "COC1=C(C=CC=C1)C1=CSC(=O)N1", 
	 "Tm": 401.15, 
	 "num_atms": 23, 
	 "gaussian": { 
		 "optdone": 1, 
		 "sigma_profile": "yes", 
		 "theory": "DFT", 
		 "functional": "B3LYP", 
		 "basiset": "6-31G**", 
		 "properties": { 
			 "R2extent": 3767.4723, 
			 "electric_dipole_moment_norm": 6.32663108613, 
			 "electric_quadrupole_moment_norm": 17.3413256226, 
			 "total_energy": -989.869731864, 
			 "HOMO_LUMO_gap": 0.16342, 
			 "cosmo_polarized_energy": -13.24, 
			 "cosmo_cavitation_energy": 28.68, 
			 "cosmo_dispersion_energy": -21.76, 
			 "cosmo_repulsion_energy": 1.65, 
			 "cosmo_total_nonelectrostatic_energy": 8.57, 
			 "SMD_solvation_energy": 6.38 
		},
		"coords": [
			{
				"x": -1.3076029583,
				"y": -2.0038853797,
				"z": -1.774489228,
				"element": "C" 
			},
			{
				"x": -0.8869858413,
				"y": -0.8260750921,
				"z": -1.100129215,
				"element": "O" 
			},
			{
				"x": 0.4385900711,
				"y": -0.6603838728,
				"z": -0.828150505,
				"element": "C" 
			},
			{
				"x": 0.794146301,
				"y": 0.4896184652,
				"z": -0.0747061444,
				"element": "C" 
			},
			{
				"x": 2.1568372763,
				"y": 0.6915884151,
				"z": 0.2001488318,
				"element": "C" 
			},
			{
				"x": 3.1392466213,
				"y": -0.2017724817,
				"z": -0.2233438691,
				"element": "C" 
			},
			{
				"x": 2.7674780261,
				"y": -1.3318159089,
				"z": -0.9455143584,
				"element": "C" 
			},
			{
				"x": 1.4236110815,
				"y": -1.55939043,
				"z": -1.2486064956,
				"element": "C" 
			},
			{
				"x": -0.2066711973,
				"y": 1.4457102047,
				"z": 0.4227225382,
				"element": "C" 
			},
			{
				"x": -1.4357472265,
				"y": 1.7456374253,
				"z": -0.0656552409,
				"element": "C" 
			},
			{
				"x": -2.2326734247,
				"y": 3.0211974533,
				"z": 0.8366106892,
				"element": "S" 
			},
			{
				"x": -0.8258157104,
				"y": 3.1469230373,
				"z": 1.9784645856,
				"element": "C" 
			},
			{
				"x": -0.7375231952,
				"y": 3.8765034784,
				"z": 2.9418535657,
				"element": "O" 
			},
			{
				"x": 0.113405497,
				"y": 2.2377336401,
				"z": 1.5367922402,
				"element": "N" 
			},
			{
				"x": -1.0329861214,
				"y": -2.9069248183,
				"z": -1.2158458433,
				"element": "H" 
			},
			{
				"x": -2.3944070011,
				"y": -1.9375277542,
				"z": -1.8395928636,
				"element": "H" 
			},
			{
				"x": -0.8877856965,
				"y": -2.0622730514,
				"z": -2.786334276,
				"element": "H" 
			},
			{
				"x": 2.4608292289,
				"y": 1.588071012,
				"z": 0.7319163198,
				"element": "H" 
			},
			{
				"x": 4.1823913895,
				"y": -0.0082543485,
				"z": 0.0046112214,
				"element": "H" 
			},
			{
				"x": 3.5170904442,
				"y": -2.0405927611,
				"z": -1.2843589839,
				"element": "H" 
			},
			{
				"x": 1.149559468,
				"y": -2.4405270475,
				"z": -1.815461563,
				"element": "H" 
			},
			{
				"x": -1.9030023009,
				"y": 1.2993680308,
				"z": -0.9266303278,
				"element": "H" 
			},
			{
				"x": 0.9186152686,
				"y": 2.0706717839,
				"z": 2.1225989223,
				"element": "H" 
			}
		],
		 "valence_orbital": [ 
			{
				"type": "occ",
				"energy": -0.29223,
				"method": "rhf"
			},
			{
				"type": "occ",
				"energy": -0.26979,
				"method": "rhf"
			},
			{
				"type": "occ",
				"energy": -0.26167,
				"method": "rhf"
			},
			{
				"type": "occ",
				"energy": -0.24008,
				"method": "rhf"
			},
			{
				"type": "occ",
				"energy": -0.20053,
				"method": "rhf"
			},
			{
				"type": "unocc",
				"energy": -0.03711,
				"method": "rhf"
			},
			{
				"type": "unocc",
				"energy": -0.0055,
				"method": "rhf"
			},
			{
				"type": "unocc",
				"energy": 0.01983,
				"method": "rhf"
			},
			{
				"type": "unocc",
				"energy": 0.02497,
				"method": "rhf"
			},
			{
				"type": "unocc",
				"energy": 0.0559,
				"method": "rhf"
			}
		],
		"cosmo_sigma_profile": { 
			"-0.025": 0.0,
			"-0.024": 0.0,
			"-0.023": 0.0,
			"-0.022": 0.0,
			"-0.021": 0.0,
			"-0.02": 0.0,
			"-0.019": 0.0,
			"-0.018": 0.0,
			"-0.017": 0.0,
			"-0.016": 0.6251685058,
			"-0.015": 1.13685791282,
			"-0.014": 1.02526373428,
			"-0.013": 1.28749536643,
			"-0.012": 1.10574799069,
			"-0.011": 0.952645933264,
			"-0.01": 1.00213656954,
			"-0.009": 1.41144868752,
			"-0.008": 1.83755564505,
			"-0.007": 5.15267731097,
			"-0.006": 13.7291143023,
			"-0.005": 16.8729739529,
			"-0.004": 18.9687471399,
			"-0.003": 15.926960789,
			"-0.002": 11.5046238502,
			"-0.001": 13.610922721,
			"0.0": 14.8200455335,
			"0.001": 18.6520004321,
			"0.002": 19.769478504,
			"0.003": 19.8585381929,
			"0.004": 16.8688433691,
			"0.005": 12.3766235611,
			"0.006": 4.1945897595,
			"0.007": 2.03906032849,
			"0.008": 2.31936307487,
			"0.009": 1.25959627236,
			"0.01": 2.19506435293,
			"0.011": 2.23304162858,
			"0.012": 6.27111574798,
			"0.013": 3.18547521525,
			"0.014": 0.0268028064896,
			"0.015": 0.0,
			"0.016": 0.0,
			"0.017": 0.0,
			"0.018": 0.0,
			"0.019": 0.0,
			"0.02": 0.0,
			"0.021": 0.0,
			"0.022": 0.0,
			"0.023": 0.0,
			"0.024": 0.0,
			"0.025": 0.0
		}
	}
}
