{
	 "smiles": "OC(=O)C1=C(I)C(F)=CC=C1", 
	 "Tm": 422.15, 
	 "num_atms": 15, 
	 "gaussian": { 
		 "optdone": 1, 
		 "sigma_profile": "yes", 
		 "theory": "DFT", 
		 "functional": "B3LYP", 
		 "basiset": "6-31G**", 
		 "properties": { 
			 "R2extent": 2058.8248, 
			 "electric_dipole_moment_norm": 3.72112614809, 
			 "electric_quadrupole_moment_norm": 16.799291291, 
			 "total_energy": -530.820169358, 
			 "HOMO_LUMO_gap": 0.19678, 
			 "cosmo_polarized_energy": -10.57, 
			 "cosmo_cavitation_energy": 22.99, 
			 "cosmo_dispersion_energy": -18.44, 
			 "cosmo_repulsion_energy": 1.41, 
			 "cosmo_total_nonelectrostatic_energy": 5.95, 
			 "SMD_solvation_energy": 4.83 
		},
		"coords": [
			{
				"x": -1.0496703711,
				"y": 2.5505238956,
				"z": 1.1786493577,
				"element": "O" 
			},
			{
				"x": -1.5454934739,
				"y": 1.8896629344,
				"z": 0.1167949328,
				"element": "C" 
			},
			{
				"x": -2.227114265,
				"y": 2.4757811622,
				"z": -0.6919989195,
				"element": "O" 
			},
			{
				"x": -1.1840397315,
				"y": 0.4286047157,
				"z": -0.0893256443,
				"element": "C" 
			},
			{
				"x": -0.8387791017,
				"y": -0.5333807944,
				"z": 0.8807338919,
				"element": "C" 
			},
			{
				"x": -0.7750733818,
				"y": -0.2055714319,
				"z": 2.9793475191,
				"element": "I" 
			},
			{
				"x": -0.5503725043,
				"y": -1.839252984,
				"z": 0.4739810412,
				"element": "C" 
			},
			{
				"x": -0.2371931786,
				"y": -2.7681494882,
				"z": 1.3922133102,
				"element": "F" 
			},
			{
				"x": -0.5802774376,
				"y": -2.2222516849,
				"z": -0.8608168334,
				"element": "C" 
			},
			{
				"x": -0.9251502567,
				"y": -1.2750698621,
				"z": -1.8211496139,
				"element": "C" 
			},
			{
				"x": -1.2301915061,
				"y": 0.0253389248,
				"z": -1.4352907718,
				"element": "C" 
			},
			{
				"x": -0.5421933557,
				"y": 1.9690992203,
				"z": 1.7686607072,
				"element": "H" 
			},
			{
				"x": -0.341433677,
				"y": -3.2491563651,
				"z": -1.1151945577,
				"element": "H" 
			},
			{
				"x": -0.9606797181,
				"y": -1.5536899976,
				"z": -2.8692026838,
				"element": "H" 
			},
			{
				"x": -1.5215380409,
				"y": 0.7720117553,
				"z": -2.1642017358,
				"element": "H" 
			}
		],
		 "valence_orbital": [ 
			{
				"type": "occ",
				"energy": -0.32229,
				"method": "rhf"
			},
			{
				"type": "occ",
				"energy": -0.29434,
				"method": "rhf"
			},
			{
				"type": "occ",
				"energy": -0.28811,
				"method": "rhf"
			},
			{
				"type": "occ",
				"energy": -0.27359,
				"method": "rhf"
			},
			{
				"type": "occ",
				"energy": -0.26413,
				"method": "rhf"
			},
			{
				"type": "unocc",
				"energy": -0.06735,
				"method": "rhf"
			},
			{
				"type": "unocc",
				"energy": -0.06583,
				"method": "rhf"
			},
			{
				"type": "unocc",
				"energy": -0.0314,
				"method": "rhf"
			},
			{
				"type": "unocc",
				"energy": 0.03432,
				"method": "rhf"
			},
			{
				"type": "unocc",
				"energy": 0.03716,
				"method": "rhf"
			}
		],
		"cosmo_sigma_profile": { 
			"-0.025": 0.0,
			"-0.024": 0.0,
			"-0.023": 0.0,
			"-0.022": 0.0,
			"-0.021": 0.0,
			"-0.02": 0.0,
			"-0.019": 0.0,
			"-0.018": 0.0,
			"-0.017": 0.0,
			"-0.016": 0.0,
			"-0.015": 0.0,
			"-0.014": 0.358925900279,
			"-0.013": 1.11193065899,
			"-0.012": 0.594007331895,
			"-0.011": 1.18665030603,
			"-0.01": 0.892682951147,
			"-0.009": 2.10620033518,
			"-0.008": 5.82129601249,
			"-0.007": 7.719706547,
			"-0.006": 8.37958103441,
			"-0.005": 9.43188537149,
			"-0.004": 9.48168539098,
			"-0.003": 10.3446376578,
			"-0.002": 14.2345283461,
			"-0.001": 17.8167589173,
			"0.0": 17.9809204589,
			"0.001": 15.576628617,
			"0.002": 17.2734024842,
			"0.003": 14.0378012465,
			"0.004": 8.38310653469,
			"0.005": 2.8887784647,
			"0.006": 1.84409332353,
			"0.007": 2.25379592731,
			"0.008": 3.00791577965,
			"0.009": 3.64952437395,
			"0.01": 4.93448010384,
			"0.011": 5.19247526643,
			"0.012": 3.11417927336,
			"0.013": 0.819429573739,
			"0.014": 0.0,
			"0.015": 0.0,
			"0.016": 0.0,
			"0.017": 0.0,
			"0.018": 0.0,
			"0.019": 0.0,
			"0.02": 0.0,
			"0.021": 0.0,
			"0.022": 0.0,
			"0.023": 0.0,
			"0.024": 0.0,
			"0.025": 0.0
		}
	}
}
