{
	 "smiles": "CC(C)CN(C(=O)CCl)C1=C(N)N(CC(C)C)C(=O)NC1=O", 
	 "Tm": 427.15, 
	 "num_atms": 45, 
	 "gaussian": { 
		 "optdone": 1, 
		 "sigma_profile": "yes", 
		 "theory": "DFT", 
		 "functional": "B3LYP", 
		 "basiset": "6-31G**", 
		 "properties": { 
			 "R2extent": 8664.7104, 
			 "electric_dipole_moment_norm": 4.89628094067, 
			 "electric_quadrupole_moment_norm": 19.1723408704, 
			 "total_energy": -1452.29570783, 
			 "HOMO_LUMO_gap": 0.1987, 
			 "cosmo_polarized_energy": -23.85, 
			 "cosmo_cavitation_energy": 46.98, 
			 "cosmo_dispersion_energy": -31.16, 
			 "cosmo_repulsion_energy": 2.42, 
			 "cosmo_total_nonelectrostatic_energy": 18.25, 
			 "SMD_solvation_energy": 9.32 
		},
		"coords": [
			{
				"x": -2.3591134939,
				"y": -1.5439858335,
				"z": -2.0433585024,
				"element": "C" 
			},
			{
				"x": -0.9089137262,
				"y": -1.8093671184,
				"z": -2.4675956996,
				"element": "C" 
			},
			{
				"x": -0.8214703828,
				"y": -2.9720178121,
				"z": -3.467506886,
				"element": "C" 
			},
			{
				"x": -0.2267205253,
				"y": -0.5691516352,
				"z": -3.0761481345,
				"element": "C" 
			},
			{
				"x": -0.1055287184,
				"y": 0.5697695808,
				"z": -2.1372751026,
				"element": "N" 
			},
			{
				"x": -0.8051904121,
				"y": 1.743003624,
				"z": -2.2529739172,
				"element": "C" 
			},
			{
				"x": -0.7606725478,
				"y": 2.6230140511,
				"z": -1.3952706745,
				"element": "O" 
			},
			{
				"x": -1.6711637142,
				"y": 1.9057840389,
				"z": -3.5141097017,
				"element": "C" 
			},
			{
				"x": -2.5898958545,
				"y": 3.4439651905,
				"z": -3.5075029658,
				"element": "Cl" 
			},
			{
				"x": 0.8678729456,
				"y": 0.4106673811,
				"z": -1.0961922067,
				"element": "C" 
			},
			{
				"x": 0.5409786551,
				"y": 0.4650233217,
				"z": 0.2499101627,
				"element": "C" 
			},
			{
				"x": -0.7284118929,
				"y": 0.7838299212,
				"z": 0.6531020376,
				"element": "N" 
			},
			{
				"x": 1.4918546425,
				"y": 0.1914638578,
				"z": 1.230697194,
				"element": "N" 
			},
			{
				"x": 1.1740083555,
				"y": 0.2555773829,
				"z": 2.6691399415,
				"element": "C" 
			},
			{
				"x": 0.3979068285,
				"y": -0.9592251276,
				"z": 3.2197583384,
				"element": "C" 
			},
			{
				"x": 0.0893783402,
				"y": -0.7161369724,
				"z": 4.7048641185,
				"element": "C" 
			},
			{
				"x": 1.1673611114,
				"y": -2.2712471305,
				"z": 3.0154806991,
				"element": "C" 
			},
			{
				"x": 2.8282322931,
				"y": -0.1121152992,
				"z": 0.9087598696,
				"element": "C" 
			},
			{
				"x": 3.6734347866,
				"y": -0.3535797151,
				"z": 1.7570705279,
				"element": "O" 
			},
			{
				"x": 3.1057058387,
				"y": -0.1016270256,
				"z": -0.4362128297,
				"element": "N" 
			},
			{
				"x": 2.2325424161,
				"y": 0.1659208796,
				"z": -1.5053864844,
				"element": "C" 
			},
			{
				"x": 2.6655158449,
				"y": 0.147765703,
				"z": -2.6543897627,
				"element": "O" 
			},
			{
				"x": -2.4216666389,
				"y": -0.7325431882,
				"z": -1.3124495745,
				"element": "H" 
			},
			{
				"x": -2.9838095118,
				"y": -1.2841704436,
				"z": -2.9079096879,
				"element": "H" 
			},
			{
				"x": -2.7980646519,
				"y": -2.4357576201,
				"z": -1.5839019191,
				"element": "H" 
			},
			{
				"x": -0.3376737868,
				"y": -2.0880881484,
				"z": -1.5717548173,
				"element": "H" 
			},
			{
				"x": -1.3721066623,
				"y": -2.7436356414,
				"z": -4.3885364639,
				"element": "H" 
			},
			{
				"x": -1.2538385099,
				"y": -3.8841302898,
				"z": -3.0441536005,
				"element": "H" 
			},
			{
				"x": 0.2158606162,
				"y": -3.1885135302,
				"z": -3.7437628268,
				"element": "H" 
			},
			{
				"x": -0.7772751417,
				"y": -0.2467615488,
				"z": -3.961720251,
				"element": "H" 
			},
			{
				"x": 0.7831003428,
				"y": -0.8163023347,
				"z": -3.4105347228,
				"element": "H" 
			},
			{
				"x": -2.4010674474,
				"y": 1.1005915177,
				"z": -3.6000900171,
				"element": "H" 
			},
			{
				"x": -1.0436041733,
				"y": 1.9055729746,
				"z": -4.4078389444,
				"element": "H" 
			},
			{
				"x": -0.875734892,
				"y": 0.9070269944,
				"z": 1.6423069554,
				"element": "H" 
			},
			{
				"x": -1.1210041043,
				"y": 1.5366920331,
				"z": 0.0838879895,
				"element": "H" 
			},
			{
				"x": 0.632687763,
				"y": 1.1885932368,
				"z": 2.8653065835,
				"element": "H" 
			},
			{
				"x": 2.1374250555,
				"y": 0.3307682655,
				"z": 3.1743230676,
				"element": "H" 
			},
			{
				"x": -0.5571319808,
				"y": -1.0418141429,
				"z": 2.6820339145,
				"element": "H" 
			},
			{
				"x": -0.4835661098,
				"y": 0.2056665064,
				"z": 4.8580779629,
				"element": "H" 
			},
			{
				"x": 1.0137076071,
				"y": -0.6358058053,
				"z": 5.2886568878,
				"element": "H" 
			},
			{
				"x": -0.4943134589,
				"y": -1.5432810364,
				"z": 5.1199181398,
				"element": "H" 
			},
			{
				"x": 2.1429060504,
				"y": -2.2369160737,
				"z": 3.5109217235,
				"element": "H" 
			},
			{
				"x": 0.6017114944,
				"y": -3.1131270193,
				"z": 3.4275857065,
				"element": "H" 
			},
			{
				"x": 1.3413574752,
				"y": -2.4765043274,
				"z": 1.9550787651,
				"element": "H" 
			},
			{
				"x": 4.0692898752,
				"y": -0.2864916414,
				"z": -0.6856048921,
				"element": "H" 
			}
		],
		 "valence_orbital": [ 
			{
				"type": "occ",
				"energy": -0.28291,
				"method": "rhf"
			},
			{
				"type": "occ",
				"energy": -0.27226,
				"method": "rhf"
			},
			{
				"type": "occ",
				"energy": -0.27136,
				"method": "rhf"
			},
			{
				"type": "occ",
				"energy": -0.25665,
				"method": "rhf"
			},
			{
				"type": "occ",
				"energy": -0.22148,
				"method": "rhf"
			},
			{
				"type": "unocc",
				"energy": -0.02278,
				"method": "rhf"
			},
			{
				"type": "unocc",
				"energy": -0.00207,
				"method": "rhf"
			},
			{
				"type": "unocc",
				"energy": 0.01288,
				"method": "rhf"
			},
			{
				"type": "unocc",
				"energy": 0.02247,
				"method": "rhf"
			},
			{
				"type": "unocc",
				"energy": 0.05052,
				"method": "rhf"
			}
		],
		"cosmo_sigma_profile": { 
			"-0.025": 0.0,
			"-0.024": 0.0,
			"-0.023": 0.0,
			"-0.022": 0.0,
			"-0.021": 0.0,
			"-0.02": 0.0,
			"-0.019": 0.0,
			"-0.018": 0.0,
			"-0.017": 0.0,
			"-0.016": 0.24000887038,
			"-0.015": 0.921525949183,
			"-0.014": 1.94951522073,
			"-0.013": 2.02041084044,
			"-0.012": 2.19148584989,
			"-0.011": 2.46632102523,
			"-0.01": 2.76853856063,
			"-0.009": 7.1339395993,
			"-0.008": 8.56638511078,
			"-0.007": 7.33106903357,
			"-0.006": 8.90692056779,
			"-0.005": 12.690234464,
			"-0.004": 18.8044820797,
			"-0.003": 38.6112962361,
			"-0.002": 44.3027265444,
			"-0.001": 37.0234734514,
			"0.0": 32.621292262,
			"0.001": 34.4296886542,
			"0.002": 16.5490765964,
			"0.003": 10.0094410939,
			"0.004": 9.70533434969,
			"0.005": 11.2954961782,
			"0.006": 10.8685472688,
			"0.007": 6.21007697994,
			"0.008": 5.23355412576,
			"0.009": 5.03473174509,
			"0.01": 5.01644816478,
			"0.011": 5.29722232968,
			"0.012": 8.29567220274,
			"0.013": 9.4293413234,
			"0.014": 3.64478878772,
			"0.015": 0.0373572252632,
			"0.016": 0.0,
			"0.017": 0.0,
			"0.018": 0.0,
			"0.019": 0.0,
			"0.02": 0.0,
			"0.021": 0.0,
			"0.022": 0.0,
			"0.023": 0.0,
			"0.024": 0.0,
			"0.025": 0.0
		}
	}
}
