{
	 "smiles": "CC(=O)C1CCC2C3CCC4CC(=O)CCC4(C)C3CCC12C", 
	 "Tm": 473.15, 
	 "num_atms": 55, 
	 "gaussian": { 
		 "optdone": 1, 
		 "sigma_profile": "yes", 
		 "theory": "DFT", 
		 "functional": "B3LYP", 
		 "basiset": "6-31G**", 
		 "properties": { 
			 "R2extent": 8063.8257, 
			 "electric_dipole_moment_norm": 2.57229762081, 
			 "electric_quadrupole_moment_norm": 33.0967535725, 
			 "total_energy": -969.967326864, 
			 "HOMO_LUMO_gap": 0.22198, 
			 "cosmo_polarized_energy": -14.33, 
			 "cosmo_cavitation_energy": 45.98, 
			 "cosmo_dispersion_energy": -32.13, 
			 "cosmo_repulsion_energy": 2.34, 
			 "cosmo_total_nonelectrostatic_energy": 16.19, 
			 "SMD_solvation_energy": 7.47 
		},
		"coords": [
			{
				"x": -2.6854033722,
				"y": 2.4544600315,
				"z": -3.4776014186,
				"element": "C" 
			},
			{
				"x": -1.823016821,
				"y": 1.3502385347,
				"z": -4.0712902773,
				"element": "C" 
			},
			{
				"x": -2.0505987691,
				"y": 0.934212227,
				"z": -5.1945088793,
				"element": "O" 
			},
			{
				"x": -0.6596240301,
				"y": 0.7513752521,
				"z": -3.2704449444,
				"element": "C" 
			},
			{
				"x": 0.1010515936,
				"y": 1.7472299556,
				"z": -2.3681200703,
				"element": "C" 
			},
			{
				"x": -0.5690593566,
				"y": 1.6741744941,
				"z": -0.9741815323,
				"element": "C" 
			},
			{
				"x": -1.4250094506,
				"y": 0.3685958049,
				"z": -0.9585656938,
				"element": "C" 
			},
			{
				"x": -1.3895500001,
				"y": -0.5131004425,
				"z": 0.3213527206,
				"element": "C" 
			},
			{
				"x": -1.8091256303,
				"y": 0.3121517492,
				"z": 1.5758160895,
				"element": "C" 
			},
			{
				"x": -0.6743343659,
				"y": 0.8845003746,
				"z": 2.4669953635,
				"element": "C" 
			},
			{
				"x": 0.699551871,
				"y": 0.2389595016,
				"z": 2.2216175845,
				"element": "C" 
			},
			{
				"x": 1.7104690257,
				"y": 0.5336004633,
				"z": 3.33923424,
				"element": "C" 
			},
			{
				"x": 3.1244942146,
				"y": 0.1162468309,
				"z": 2.9403821604,
				"element": "C" 
			},
			{
				"x": 4.1160959379,
				"y": 0.5984975763,
				"z": 3.4519124694,
				"element": "O" 
			},
			{
				"x": 3.1949292112,
				"y": -0.9473398511,
				"z": 1.8484026682,
				"element": "C" 
			},
			{
				"x": 2.0159463856,
				"y": -1.9295138735,
				"z": 1.9484031654,
				"element": "C" 
			},
			{
				"x": 0.5917445051,
				"y": -1.2755044424,
				"z": 1.8919696855,
				"element": "C" 
			},
			{
				"x": -0.2587638527,
				"y": -2.0518761735,
				"z": 2.9274246191,
				"element": "C" 
			},
			{
				"x": -0.0835601885,
				"y": -1.3979752705,
				"z": 0.4819100461,
				"element": "C" 
			},
			{
				"x": 0.8647371944,
				"y": -1.1714432567,
				"z": -0.713812265,
				"element": "C" 
			},
			{
				"x": 0.1294658734,
				"y": -1.3586094685,
				"z": -2.0481007277,
				"element": "C" 
			},
			{
				"x": -1.0835985037,
				"y": -0.3958450615,
				"z": -2.2770357872,
				"element": "C" 
			},
			{
				"x": -2.2761966105,
				"y": -1.2158136282,
				"z": -2.7972159896,
				"element": "C" 
			},
			{
				"x": -3.4420726099,
				"y": 2.7412962047,
				"z": -4.2090601961,
				"element": "H" 
			},
			{
				"x": -2.0830524512,
				"y": 3.3302396852,
				"z": -3.2143216258,
				"element": "H" 
			},
			{
				"x": -3.1771902956,
				"y": 2.118596341,
				"z": -2.5585010145,
				"element": "H" 
			},
			{
				"x": -0.0124008724,
				"y": 0.3298541377,
				"z": -4.0451573534,
				"element": "H" 
			},
			{
				"x": 1.145485134,
				"y": 1.4247828035,
				"z": -2.3031602852,
				"element": "H" 
			},
			{
				"x": 0.1235890696,
				"y": 2.7627596183,
				"z": -2.7758736022,
				"element": "H" 
			},
			{
				"x": -1.2113898666,
				"y": 2.5439712775,
				"z": -0.8031357757,
				"element": "H" 
			},
			{
				"x": 0.1825893257,
				"y": 1.697601581,
				"z": -0.182352472,
				"element": "H" 
			},
			{
				"x": -2.4744101734,
				"y": 0.6798993906,
				"z": -1.0401978574,
				"element": "H" 
			},
			{
				"x": -2.2083102323,
				"y": -1.2264713231,
				"z": 0.1693815471,
				"element": "H" 
			},
			{
				"x": -2.4503599388,
				"y": -0.3183917036,
				"z": 2.198298985,
				"element": "H" 
			},
			{
				"x": -2.4598195385,
				"y": 1.1299843882,
				"z": 1.246164785,
				"element": "H" 
			},
			{
				"x": -0.9534483552,
				"y": 0.7526618978,
				"z": 3.5197160953,
				"element": "H" 
			},
			{
				"x": -0.5779656695,
				"y": 1.9665702447,
				"z": 2.3200396339,
				"element": "H" 
			},
			{
				"x": 1.1115453377,
				"y": 0.7099758815,
				"z": 1.3194012157,
				"element": "H" 
			},
			{
				"x": 1.7304836101,
				"y": 1.5951827859,
				"z": 3.6087102608,
				"element": "H" 
			},
			{
				"x": 1.4458260954,
				"y": -0.0093742342,
				"z": 4.2585763053,
				"element": "H" 
			},
			{
				"x": 4.1590112841,
				"y": -1.4577729445,
				"z": 1.9289839936,
				"element": "H" 
			},
			{
				"x": 3.1947195256,
				"y": -0.4284344864,
				"z": 0.8801979165,
				"element": "H" 
			},
			{
				"x": 2.1141802194,
				"y": -2.450906577,
				"z": 2.9081088688,
				"element": "H" 
			},
			{
				"x": 2.1082665807,
				"y": -2.7122575425,
				"z": 1.1883081533,
				"element": "H" 
			},
			{
				"x": 0.1010746751,
				"y": -1.8814948578,
				"z": 3.9481567903,
				"element": "H" 
			},
			{
				"x": -0.1780943751,
				"y": -3.1274910055,
				"z": 2.7328158535,
				"element": "H" 
			},
			{
				"x": -1.3193007184,
				"y": -1.7992706195,
				"z": 2.9032302823,
				"element": "H" 
			},
			{
				"x": -0.4031761098,
				"y": -2.4468222339,
				"z": 0.3963653189,
				"element": "H" 
			},
			{
				"x": 1.3277530951,
				"y": -0.1798700448,
				"z": -0.6722188672,
				"element": "H" 
			},
			{
				"x": 1.6890356773,
				"y": -1.8909192868,
				"z": -0.6788377665,
				"element": "H" 
			},
			{
				"x": 0.8417362152,
				"y": -1.2673973407,
				"z": -2.8760120458,
				"element": "H" 
			},
			{
				"x": -0.2333333665,
				"y": -2.3942159282,
				"z": -2.0817429329,
				"element": "H" 
			},
			{
				"x": -2.0386398638,
				"y": -1.6897258168,
				"z": -3.7550691457,
				"element": "H" 
			},
			{
				"x": -3.1681855076,
				"y": -0.5999718538,
				"z": -2.9509949324,
				"element": "H" 
			},
			{
				"x": -2.5387907616,
				"y": -2.0080097657,
				"z": -2.0875633591,
				"element": "H" 
			}
		],
		 "valence_orbital": [ 
			{
				"type": "occ",
				"energy": -0.28853,
				"method": "rhf"
			},
			{
				"type": "occ",
				"energy": -0.2865,
				"method": "rhf"
			},
			{
				"type": "occ",
				"energy": -0.28216,
				"method": "rhf"
			},
			{
				"type": "occ",
				"energy": -0.23687,
				"method": "rhf"
			},
			{
				"type": "occ",
				"energy": -0.23547,
				"method": "rhf"
			},
			{
				"type": "unocc",
				"energy": -0.01349,
				"method": "rhf"
			},
			{
				"type": "unocc",
				"energy": -0.01157,
				"method": "rhf"
			},
			{
				"type": "unocc",
				"energy": 0.04918,
				"method": "rhf"
			},
			{
				"type": "unocc",
				"energy": 0.06055,
				"method": "rhf"
			},
			{
				"type": "unocc",
				"energy": 0.06855,
				"method": "rhf"
			}
		],
		"cosmo_sigma_profile": { 
			"-0.025": 0.0,
			"-0.024": 0.0,
			"-0.023": 0.0,
			"-0.022": 0.0,
			"-0.021": 0.0,
			"-0.02": 0.0,
			"-0.019": 0.0,
			"-0.018": 0.0,
			"-0.017": 0.0,
			"-0.016": 0.0,
			"-0.015": 0.0,
			"-0.014": 0.0,
			"-0.013": 0.0,
			"-0.012": 0.0,
			"-0.011": 0.0,
			"-0.01": 0.0,
			"-0.009": 0.0,
			"-0.008": 0.00175828869721,
			"-0.007": 0.236726617511,
			"-0.006": 4.68295638665,
			"-0.005": 15.6892743726,
			"-0.004": 22.3244838727,
			"-0.003": 40.2910969881,
			"-0.002": 63.0463287502,
			"-0.001": 67.1925174092,
			"0.0": 46.0071412254,
			"0.001": 32.1294132641,
			"0.002": 10.8915410081,
			"0.003": 3.89877669408,
			"0.004": 3.54582645076,
			"0.005": 2.91957770049,
			"0.006": 3.62843109782,
			"0.007": 2.97844700901,
			"0.008": 3.54581725179,
			"0.009": 2.90407086357,
			"0.01": 3.54395660414,
			"0.011": 4.72307604717,
			"0.012": 8.39918135029,
			"0.013": 7.38485981646,
			"0.014": 2.66861263523,
			"0.015": 0.0,
			"0.016": 0.0,
			"0.017": 0.0,
			"0.018": 0.0,
			"0.019": 0.0,
			"0.02": 0.0,
			"0.021": 0.0,
			"0.022": 0.0,
			"0.023": 0.0,
			"0.024": 0.0,
			"0.025": 0.0
		}
	}
}
