{
	 "smiles": "CC(C)CNC(=O)C1=C(O)C=CC(C)=C1", 
	 "Tm": 325.15, 
	 "num_atms": 32, 
	 "gaussian": { 
		 "optdone": 1, 
		 "sigma_profile": "yes", 
		 "theory": "DFT", 
		 "functional": "B3LYP", 
		 "basiset": "6-31G**", 
		 "properties": { 
			 "R2extent": 4266.9515, 
			 "electric_dipole_moment_norm": 2.74437451161, 
			 "electric_quadrupole_moment_norm": 12.5523081857, 
			 "total_energy": -672.755018145, 
			 "HOMO_LUMO_gap": 0.17913, 
			 "cosmo_polarized_energy": -10.84, 
			 "cosmo_cavitation_energy": 34.05, 
			 "cosmo_dispersion_energy": -24.0, 
			 "cosmo_repulsion_energy": 1.89, 
			 "cosmo_total_nonelectrostatic_energy": 11.95, 
			 "SMD_solvation_energy": 6.46 
		},
		"coords": [
			{
				"x": 1.2090982243,
				"y": -2.7832358588,
				"z": 2.5659070204,
				"element": "C" 
			},
			{
				"x": 0.4676664484,
				"y": -2.3896283069,
				"z": 1.2801014064,
				"element": "C" 
			},
			{
				"x": -0.5787694494,
				"y": -3.4473015335,
				"z": 0.9002733295,
				"element": "C" 
			},
			{
				"x": -0.2116385853,
				"y": -1.0162868859,
				"z": 1.3964860948,
				"element": "C" 
			},
			{
				"x": 0.7413657975,
				"y": 0.0769064473,
				"z": 1.7002849079,
				"element": "N" 
			},
			{
				"x": 0.3837201584,
				"y": 1.4225771898,
				"z": 1.4539407412,
				"element": "C" 
			},
			{
				"x": 0.4878644832,
				"y": 2.2617490359,
				"z": 2.3362298643,
				"element": "O" 
			},
			{
				"x": -0.0249982715,
				"y": 1.7587840125,
				"z": 0.0606912348,
				"element": "C" 
			},
			{
				"x": 0.5155562374,
				"y": 1.108176099,
				"z": -1.0695396109,
				"element": "C" 
			},
			{
				"x": 1.4162737889,
				"y": 0.0935870024,
				"z": -0.9915634601,
				"element": "O" 
			},
			{
				"x": 0.1364237379,
				"y": 1.5358558431,
				"z": -2.3498136157,
				"element": "C" 
			},
			{
				"x": -0.7582683428,
				"y": 2.5861373476,
				"z": -2.5012125752,
				"element": "C" 
			},
			{
				"x": -1.2958714049,
				"y": 3.265980455,
				"z": -1.3923142183,
				"element": "C" 
			},
			{
				"x": -2.2621206317,
				"y": 4.4124195618,
				"z": -1.5785655231,
				"element": "C" 
			},
			{
				"x": -0.9008174367,
				"y": 2.8422278624,
				"z": -0.1274594646,
				"element": "C" 
			},
			{
				"x": 1.6666121832,
				"y": -3.7723288729,
				"z": 2.46249043,
				"element": "H" 
			},
			{
				"x": 2.0128579826,
				"y": -2.0801343965,
				"z": 2.8086844166,
				"element": "H" 
			},
			{
				"x": 0.5217865476,
				"y": -2.8247997924,
				"z": 3.4202873689,
				"element": "H" 
			},
			{
				"x": 1.1989352428,
				"y": -2.3239601737,
				"z": 0.4631053016,
				"element": "H" 
			},
			{
				"x": -1.3423460257,
				"y": -3.5461491963,
				"z": 1.6813485686,
				"element": "H" 
			},
			{
				"x": -1.0868871034,
				"y": -3.1911268626,
				"z": -0.0355111368,
				"element": "H" 
			},
			{
				"x": -0.111431449,
				"y": -4.4282944754,
				"z": 0.7693545057,
				"element": "H" 
			},
			{
				"x": -0.989734373,
				"y": -1.0560783666,
				"z": 2.1741789507,
				"element": "H" 
			},
			{
				"x": -0.7124751997,
				"y": -0.7732432643,
				"z": 0.4568284638,
				"element": "H" 
			},
			{
				"x": 1.0885365313,
				"y": 0.0250990703,
				"z": 2.6543792951,
				"element": "H" 
			},
			{
				"x": 1.6196981876,
				"y": -0.0578765634,
				"z": -0.046694379,
				"element": "H" 
			},
			{
				"x": 0.5667319781,
				"y": 1.0316515402,
				"z": -3.2088970819,
				"element": "H" 
			},
			{
				"x": -1.0406869328,
				"y": 2.896557486,
				"z": -3.5047175022,
				"element": "H" 
			},
			{
				"x": -3.2051353625,
				"y": 4.0759173578,
				"z": -2.0263694773,
				"element": "H" 
			},
			{
				"x": -1.8491205786,
				"y": 5.1820373631,
				"z": -2.2405975454,
				"element": "H" 
			},
			{
				"x": -2.5010556903,
				"y": 4.8883097341,
				"z": -0.623629343,
				"element": "H" 
			},
			{
				"x": -1.2664706918,
				"y": 3.3482711409,
				"z": 0.7613130334,
				"element": "H" 
			}
		],
		 "valence_orbital": [ 
			{
				"type": "occ",
				"energy": -0.32224,
				"method": "rhf"
			},
			{
				"type": "occ",
				"energy": -0.27952,
				"method": "rhf"
			},
			{
				"type": "occ",
				"energy": -0.25897,
				"method": "rhf"
			},
			{
				"type": "occ",
				"energy": -0.24681,
				"method": "rhf"
			},
			{
				"type": "occ",
				"energy": -0.21732,
				"method": "rhf"
			},
			{
				"type": "unocc",
				"energy": -0.03819,
				"method": "rhf"
			},
			{
				"type": "unocc",
				"energy": 0.01043,
				"method": "rhf"
			},
			{
				"type": "unocc",
				"energy": 0.04045,
				"method": "rhf"
			},
			{
				"type": "unocc",
				"energy": 0.07241,
				"method": "rhf"
			},
			{
				"type": "unocc",
				"energy": 0.09542,
				"method": "rhf"
			}
		],
		"cosmo_sigma_profile": { 
			"-0.025": 0.0,
			"-0.024": 0.0,
			"-0.023": 0.0,
			"-0.022": 0.0,
			"-0.021": 0.0,
			"-0.02": 0.0,
			"-0.019": 0.0,
			"-0.018": 0.0,
			"-0.017": 0.0,
			"-0.016": 0.0,
			"-0.015": 0.0,
			"-0.014": 0.0,
			"-0.013": 0.0,
			"-0.012": 0.35208205728,
			"-0.011": 0.942725501228,
			"-0.01": 1.12714324877,
			"-0.009": 0.930803006774,
			"-0.008": 2.20633988311,
			"-0.007": 3.48117270429,
			"-0.006": 6.34624830996,
			"-0.005": 9.90427105543,
			"-0.004": 22.803329039,
			"-0.003": 31.9357628751,
			"-0.002": 32.7045702948,
			"-0.001": 29.4641102411,
			"0.0": 28.5641576047,
			"0.001": 24.7249826155,
			"0.002": 13.3731283764,
			"0.003": 10.4426265216,
			"0.004": 12.0190355444,
			"0.005": 8.51229164155,
			"0.006": 3.0918585754,
			"0.007": 2.21557082594,
			"0.008": 2.5907676211,
			"0.009": 3.33717678525,
			"0.01": 3.28716025389,
			"0.011": 3.16787854251,
			"0.012": 5.17448049698,
			"0.013": 3.85032112676,
			"0.014": 0.320778074169,
			"0.015": 0.0,
			"0.016": 0.0,
			"0.017": 0.0,
			"0.018": 0.0,
			"0.019": 0.0,
			"0.02": 0.0,
			"0.021": 0.0,
			"0.022": 0.0,
			"0.023": 0.0,
			"0.024": 0.0,
			"0.025": 0.0
		}
	}
}
