{
	 "smiles": "NC1=CC2=C(NC=C2)C=C1", 
	 "Tm": 405.15, 
	 "num_atms": 18, 
	 "gaussian": { 
		 "optdone": 1, 
		 "sigma_profile": "yes", 
		 "theory": "DFT", 
		 "functional": "B3LYP", 
		 "basiset": "6-31G**", 
		 "properties": { 
			 "R2extent": 1538.8032, 
			 "electric_dipole_moment_norm": 1.72951622427, 
			 "electric_quadrupole_moment_norm": 16.4178234663, 
			 "total_energy": -419.176107183, 
			 "HOMO_LUMO_gap": 0.17845, 
			 "cosmo_polarized_energy": -12.4, 
			 "cosmo_cavitation_energy": 21.5, 
			 "cosmo_dispersion_energy": -16.45, 
			 "cosmo_repulsion_energy": 1.33, 
			 "cosmo_total_nonelectrostatic_energy": 6.38, 
			 "SMD_solvation_energy": 3.57 
		},
		"coords": [
			{
				"x": -2.3424674071,
				"y": 1.0436560066,
				"z": 1.687694114,
				"element": "N" 
			},
			{
				"x": -1.0999679324,
				"y": 0.7267910574,
				"z": 1.1029402274,
				"element": "C" 
			},
			{
				"x": -0.5154230383,
				"y": -0.5251436477,
				"z": 1.2945408405,
				"element": "C" 
			},
			{
				"x": 0.7558874529,
				"y": -0.7877912272,
				"z": 0.7540681468,
				"element": "C" 
			},
			{
				"x": 1.4199392475,
				"y": 0.2286232165,
				"z": 0.0151085768,
				"element": "C" 
			},
			{
				"x": 2.6337766141,
				"y": -0.2902793088,
				"z": -0.4033348608,
				"element": "N" 
			},
			{
				"x": 2.7487647744,
				"y": -1.5894799448,
				"z": 0.0487189652,
				"element": "C" 
			},
			{
				"x": 1.6251940422,
				"y": -1.9319643868,
				"z": 0.7576062091,
				"element": "C" 
			},
			{
				"x": 0.8422931129,
				"y": 1.4851065933,
				"z": -0.1852487762,
				"element": "C" 
			},
			{
				"x": -0.410976298,
				"y": 1.7214862334,
				"z": 0.3627882995,
				"element": "C" 
			},
			{
				"x": -2.9135694757,
				"y": 0.2322238471,
				"z": 1.8873430764,
				"element": "H" 
			},
			{
				"x": -2.8757298185,
				"y": 1.7258882619,
				"z": 1.1635564999,
				"element": "H" 
			},
			{
				"x": -1.039881072,
				"y": -1.28981474,
				"z": 1.8629188397,
				"element": "H" 
			},
			{
				"x": 3.3245383601,
				"y": 0.2014230143,
				"z": -0.9450655739,
				"element": "H" 
			},
			{
				"x": 3.6325285995,
				"y": -2.1706483493,
				"z": -0.173668653,
				"element": "H" 
			},
			{
				"x": 1.4403045047,
				"y": -2.8871788601,
				"z": 1.2282379801,
				"element": "H" 
			},
			{
				"x": 1.3512047038,
				"y": 2.2603767026,
				"z": -0.7516877671,
				"element": "H" 
			},
			{
				"x": -0.8778163704,
				"y": 2.6944255318,
				"z": 0.2314838556,
				"element": "H" 
			}
		],
		 "valence_orbital": [ 
			{
				"type": "occ",
				"energy": -0.32555,
				"method": "rhf"
			},
			{
				"type": "occ",
				"energy": -0.27602,
				"method": "rhf"
			},
			{
				"type": "occ",
				"energy": -0.26287,
				"method": "rhf"
			},
			{
				"type": "occ",
				"energy": -0.19549,
				"method": "rhf"
			},
			{
				"type": "occ",
				"energy": -0.17746,
				"method": "rhf"
			},
			{
				"type": "unocc",
				"energy": 0.00099,
				"method": "rhf"
			},
			{
				"type": "unocc",
				"energy": 0.04928,
				"method": "rhf"
			},
			{
				"type": "unocc",
				"energy": 0.0801,
				"method": "rhf"
			},
			{
				"type": "unocc",
				"energy": 0.0853,
				"method": "rhf"
			},
			{
				"type": "unocc",
				"energy": 0.09598,
				"method": "rhf"
			}
		],
		"cosmo_sigma_profile": { 
			"-0.025": 0.0,
			"-0.024": 0.0,
			"-0.023": 0.0,
			"-0.022": 0.0,
			"-0.021": 0.0,
			"-0.02": 0.0,
			"-0.019": 0.0,
			"-0.018": 0.0,
			"-0.017": 0.0,
			"-0.016": 0.0,
			"-0.015": 1.11918274443,
			"-0.014": 1.61221739008,
			"-0.013": 1.26046996259,
			"-0.012": 1.87313316222,
			"-0.011": 3.39748890427,
			"-0.01": 3.69318768905,
			"-0.009": 4.18759464455,
			"-0.008": 4.93723549223,
			"-0.007": 7.17485359368,
			"-0.006": 6.0811916581,
			"-0.005": 10.6414709161,
			"-0.004": 10.4390244888,
			"-0.003": 8.64430614863,
			"-0.002": 9.11902184332,
			"-0.001": 7.6251162446,
			"0.0": 6.54437068712,
			"0.001": 7.67146652955,
			"0.002": 6.50729951023,
			"0.003": 7.02210125933,
			"0.004": 7.91951062302,
			"0.005": 9.41524198715,
			"0.006": 13.0656277707,
			"0.007": 15.3033742373,
			"0.008": 9.51343514223,
			"0.009": 0.922267986832,
			"0.01": 1.22238301734,
			"0.011": 0.698163749081,
			"0.012": 0.682686795908,
			"0.013": 0.604362175812,
			"0.014": 0.852292950396,
			"0.015": 0.741370166737,
			"0.016": 0.513196176408,
			"0.017": 0.177218597236,
			"0.018": 0.0,
			"0.019": 0.0,
			"0.02": 0.0,
			"0.021": 0.0,
			"0.022": 0.0,
			"0.023": 0.0,
			"0.024": 0.0,
			"0.025": 0.0
		}
	}
}
