{
	 "smiles": "OC(=O)C1=C(O)C(Br)=CC(Br)=C1", 
	 "Tm": 500.15, 
	 "num_atms": 16, 
	 "gaussian": { 
		 "optdone": 1, 
		 "sigma_profile": "yes", 
		 "theory": "DFT", 
		 "functional": "B3LYP", 
		 "basiset": "6-31G**", 
		 "properties": { 
			 "R2extent": 5441.9877, 
			 "electric_dipole_moment_norm": 2.30795359355, 
			 "electric_quadrupole_moment_norm": 14.8826274189, 
			 "total_energy": -5637.64920741, 
			 "HOMO_LUMO_gap": 0.16557, 
			 "cosmo_polarized_energy": -10.93, 
			 "cosmo_cavitation_energy": 25.67, 
			 "cosmo_dispersion_energy": -20.12, 
			 "cosmo_repulsion_energy": 1.61, 
			 "cosmo_total_nonelectrostatic_energy": 7.16, 
			 "SMD_solvation_energy": 3.65 
		},
		"coords": [
			{
				"x": 3.0661244163,
				"y": -0.5280021197,
				"z": -0.4316515565,
				"element": "O" 
			},
			{
				"x": 2.1317392692,
				"y": -1.409331219,
				"z": -0.9176918501,
				"element": "C" 
			},
			{
				"x": 2.4162734694,
				"y": -2.1884693786,
				"z": -1.7995835964,
				"element": "O" 
			},
			{
				"x": 0.8091465075,
				"y": -1.2891824992,
				"z": -0.2609539811,
				"element": "C" 
			},
			{
				"x": 0.5133459115,
				"y": -0.3625348129,
				"z": 0.7705979979,
				"element": "C" 
			},
			{
				"x": 1.3880460439,
				"y": 0.5180376173,
				"z": 1.2801501296,
				"element": "O" 
			},
			{
				"x": -0.794262753,
				"y": -0.3645974063,
				"z": 1.301081411,
				"element": "C" 
			},
			{
				"x": -1.2369375258,
				"y": 0.8604555018,
				"z": 2.6860970038,
				"element": "Br" 
			},
			{
				"x": -1.7657055652,
				"y": -1.2389491364,
				"z": 0.8370011488,
				"element": "C" 
			},
			{
				"x": -1.451334149,
				"y": -2.1445451487,
				"z": -0.1813897385,
				"element": "C" 
			},
			{
				"x": -2.7939137598,
				"y": -3.3428366859,
				"z": -0.8128467478,
				"element": "Br" 
			},
			{
				"x": -0.1815501257,
				"y": -2.1726542682,
				"z": -0.7261152668,
				"element": "C" 
			},
			{
				"x": 3.8878732139,
				"y": -0.6888986616,
				"z": -0.9244565939,
				"element": "H" 
			},
			{
				"x": 2.2447763467,
				"y": 0.4136713722,
				"z": 0.8286978569,
				"element": "H" 
			},
			{
				"x": -2.7598452615,
				"y": -1.2148939862,
				"z": 1.2654876998,
				"element": "H" 
			},
			{
				"x": 0.0820239616,
				"y": -2.8659691686,
				"z": -1.5151239165,
				"element": "H" 
			}
		],
		 "valence_orbital": [ 
			{
				"type": "occ",
				"energy": -0.30379,
				"method": "rhf"
			},
			{
				"type": "occ",
				"energy": -0.29671,
				"method": "rhf"
			},
			{
				"type": "occ",
				"energy": -0.29098,
				"method": "rhf"
			},
			{
				"type": "occ",
				"energy": -0.26706,
				"method": "rhf"
			},
			{
				"type": "occ",
				"energy": -0.23678,
				"method": "rhf"
			},
			{
				"type": "unocc",
				"energy": -0.07121,
				"method": "rhf"
			},
			{
				"type": "unocc",
				"energy": -0.02233,
				"method": "rhf"
			},
			{
				"type": "unocc",
				"energy": -0.01882,
				"method": "rhf"
			},
			{
				"type": "unocc",
				"energy": 0.01912,
				"method": "rhf"
			},
			{
				"type": "unocc",
				"energy": 0.02988,
				"method": "rhf"
			}
		],
		"cosmo_sigma_profile": { 
			"-0.025": 0.0,
			"-0.024": 0.0,
			"-0.023": 0.0,
			"-0.022": 0.0,
			"-0.021": 0.0,
			"-0.02": 0.286642595219,
			"-0.019": 0.802667225469,
			"-0.018": 0.958728155401,
			"-0.017": 0.846828088818,
			"-0.016": 0.968566900804,
			"-0.015": 0.657232865599,
			"-0.014": 0.583677983013,
			"-0.013": 0.711449501982,
			"-0.012": 1.08939122959,
			"-0.011": 0.804379726397,
			"-0.01": 1.28432065094,
			"-0.009": 2.14613663488,
			"-0.008": 2.53536522773,
			"-0.007": 4.09930129716,
			"-0.006": 5.98641300898,
			"-0.005": 8.94592014399,
			"-0.004": 11.8117790831,
			"-0.003": 12.1223613018,
			"-0.002": 13.4290232129,
			"-0.001": 18.104582649,
			"0.0": 25.3018597866,
			"0.001": 20.4975972636,
			"0.002": 13.4398487603,
			"0.003": 16.4980605031,
			"0.004": 21.1908779477,
			"0.005": 5.83238967142,
			"0.006": 2.49207705256,
			"0.007": 3.45844765892,
			"0.008": 3.48856385221,
			"0.009": 4.45813478899,
			"0.01": 4.60479701402,
			"0.011": 3.73308863179,
			"0.012": 0.0489155210526,
			"0.013": 0.0,
			"0.014": 0.0,
			"0.015": 0.0,
			"0.016": 0.0,
			"0.017": 0.0,
			"0.018": 0.0,
			"0.019": 0.0,
			"0.02": 0.0,
			"0.021": 0.0,
			"0.022": 0.0,
			"0.023": 0.0,
			"0.024": 0.0,
			"0.025": 0.0
		}
	}
}
