{
	 "smiles": "NC(=S)C1CCCC1", 
	 "Tm": 358.15, 
	 "num_atms": 19, 
	 "gaussian": { 
		 "optdone": 1, 
		 "sigma_profile": "yes", 
		 "theory": "DFT", 
		 "functional": "B3LYP", 
		 "basiset": "6-31G**", 
		 "properties": { 
			 "R2extent": 1657.5248, 
			 "electric_dipole_moment_norm": 4.47904887337, 
			 "electric_quadrupole_moment_norm": 16.0582650971, 
			 "total_energy": -688.22251941, 
			 "HOMO_LUMO_gap": 0.17762, 
			 "cosmo_polarized_energy": -14.13, 
			 "cosmo_cavitation_energy": 22.2, 
			 "cosmo_dispersion_energy": -17.08, 
			 "cosmo_repulsion_energy": 1.4, 
			 "cosmo_total_nonelectrostatic_energy": 6.52, 
			 "SMD_solvation_energy": 2.41 
		},
		"coords": [
			{
				"x": -0.2993168289,
				"y": -2.0124993336,
				"z": -0.9875893876,
				"element": "N" 
			},
			{
				"x": -0.3994413728,
				"y": -0.7435353355,
				"z": -1.4287470748,
				"element": "C" 
			},
			{
				"x": -0.3748646608,
				"y": -0.3806243723,
				"z": -3.0564828778,
				"element": "S" 
			},
			{
				"x": -0.5331629386,
				"y": 0.2978709993,
				"z": -0.3300180486,
				"element": "C" 
			},
			{
				"x": -1.8146921581,
				"y": 1.156716298,
				"z": -0.4159470873,
				"element": "C" 
			},
			{
				"x": -1.5319017235,
				"y": 2.3590962231,
				"z": 0.5129100778,
				"element": "C" 
			},
			{
				"x": 0.01966418,
				"y": 2.4959653189,
				"z": 0.5725566723,
				"element": "C" 
			},
			{
				"x": 0.5775362566,
				"y": 1.3719332916,
				"z": -0.3290059269,
				"element": "C" 
			},
			{
				"x": -0.2072101261,
				"y": -2.761122819,
				"z": -1.6593384586,
				"element": "H" 
			},
			{
				"x": -0.3139260811,
				"y": -2.2367457781,
				"z": -0.0034590552,
				"element": "H" 
			},
			{
				"x": -0.522182701,
				"y": -0.2156028621,
				"z": 0.644315715,
				"element": "H" 
			},
			{
				"x": -2.7156973644,
				"y": 0.5998917678,
				"z": -0.1395827025,
				"element": "H" 
			},
			{
				"x": -1.9316657046,
				"y": 1.4820439614,
				"z": -1.4543293809,
				"element": "H" 
			},
			{
				"x": -2.0148934735,
				"y": 3.2679328383,
				"z": 0.1419316359,
				"element": "H" 
			},
			{
				"x": -1.9363055249,
				"y": 2.175943052,
				"z": 1.51425687,
				"element": "H" 
			},
			{
				"x": 0.3726778145,
				"y": 2.3740548801,
				"z": 1.6023085687,
				"element": "H" 
			},
			{
				"x": 0.3633044784,
				"y": 3.4793982548,
				"z": 0.2383866463,
				"element": "H" 
			},
			{
				"x": 1.5418141184,
				"y": 0.9824720304,
				"z": 0.0126908065,
				"element": "H" 
			},
			{
				"x": 0.7071638106,
				"y": 1.721911585,
				"z": -1.3578569921,
				"element": "H" 
			}
		],
		 "valence_orbital": [ 
			{
				"type": "occ",
				"energy": -0.32623,
				"method": "rhf"
			},
			{
				"type": "occ",
				"energy": -0.32531,
				"method": "rhf"
			},
			{
				"type": "occ",
				"energy": -0.31722,
				"method": "rhf"
			},
			{
				"type": "occ",
				"energy": -0.22532,
				"method": "rhf"
			},
			{
				"type": "occ",
				"energy": -0.20473,
				"method": "rhf"
			},
			{
				"type": "unocc",
				"energy": -0.02711,
				"method": "rhf"
			},
			{
				"type": "unocc",
				"energy": 0.05778,
				"method": "rhf"
			},
			{
				"type": "unocc",
				"energy": 0.08804,
				"method": "rhf"
			},
			{
				"type": "unocc",
				"energy": 0.09203,
				"method": "rhf"
			},
			{
				"type": "unocc",
				"energy": 0.10692,
				"method": "rhf"
			}
		],
		"cosmo_sigma_profile": { 
			"-0.025": 0.0,
			"-0.024": 0.0,
			"-0.023": 0.0,
			"-0.022": 0.0,
			"-0.021": 0.0,
			"-0.02": 0.0,
			"-0.019": 0.0,
			"-0.018": 0.0,
			"-0.017": 0.0,
			"-0.016": 0.283556555739,
			"-0.015": 1.84926762957,
			"-0.014": 2.4449849583,
			"-0.013": 3.27899033365,
			"-0.012": 2.47008074458,
			"-0.011": 2.17944951429,
			"-0.01": 2.08101678471,
			"-0.009": 2.00310864935,
			"-0.008": 1.7087944189,
			"-0.007": 2.05820740684,
			"-0.006": 2.13178815835,
			"-0.005": 2.47905827609,
			"-0.004": 3.2786326703,
			"-0.003": 14.3319843487,
			"-0.002": 21.1567458708,
			"-0.001": 23.7177542955,
			"0.0": 17.6348637517,
			"0.001": 18.3400807686,
			"0.002": 6.24547977569,
			"0.003": 4.81367923857,
			"0.004": 3.27814903345,
			"0.005": 4.47794022581,
			"0.006": 3.87807249716,
			"0.007": 4.74445083542,
			"0.008": 4.71821226669,
			"0.009": 6.01291547879,
			"0.01": 7.00270819761,
			"0.011": 3.58108662399,
			"0.012": 2.76218679814,
			"0.013": 0.343969509678,
			"0.014": 0.0,
			"0.015": 0.0,
			"0.016": 0.0,
			"0.017": 0.0,
			"0.018": 0.0,
			"0.019": 0.0,
			"0.02": 0.0,
			"0.021": 0.0,
			"0.022": 0.0,
			"0.023": 0.0,
			"0.024": 0.0,
			"0.025": 0.0
		}
	}
}
