{
	 "smiles": "CC(C)(C)NC=O", 
	 "Tm": 289.15, 
	 "num_atms": 18, 
	 "gaussian": { 
		 "optdone": 1, 
		 "sigma_profile": "yes", 
		 "theory": "DFT", 
		 "functional": "B3LYP", 
		 "basiset": "6-31G**", 
		 "properties": { 
			 "R2extent": 904.7511, 
			 "electric_dipole_moment_norm": 3.67955200126, 
			 "electric_quadrupole_moment_norm": 9.86923712351, 
			 "total_energy": -327.15813531, 
			 "HOMO_LUMO_gap": 0.27626, 
			 "cosmo_polarized_energy": -10.06, 
			 "cosmo_cavitation_energy": 19.96, 
			 "cosmo_dispersion_energy": -14.42, 
			 "cosmo_repulsion_energy": 1.21, 
			 "cosmo_total_nonelectrostatic_energy": 6.75, 
			 "SMD_solvation_energy": 4.81 
		},
		"coords": [
			{
				"x": 0.5679433391,
				"y": 1.0085211194,
				"z": 1.1368824376,
				"element": "C" 
			},
			{
				"x": 0.4059980538,
				"y": 0.0689259342,
				"z": -0.0672943081,
				"element": "C" 
			},
			{
				"x": 1.7525400329,
				"y": -0.0964964259,
				"z": -0.7963970887,
				"element": "C" 
			},
			{
				"x": -0.1290255746,
				"y": -1.2992654518,
				"z": 0.3952589659,
				"element": "C" 
			},
			{
				"x": -0.5771042887,
				"y": 0.7084252623,
				"z": -0.9742051603,
				"element": "N" 
			},
			{
				"x": -1.0091176508,
				"y": 0.2077889487,
				"z": -2.1616999503,
				"element": "C" 
			},
			{
				"x": -0.6588418104,
				"y": -0.8460306773,
				"z": -2.6719508069,
				"element": "O" 
			},
			{
				"x": -0.3835840187,
				"y": 1.1457445255,
				"z": 1.6633883476,
				"element": "H" 
			},
			{
				"x": 0.9394127351,
				"y": 1.9916133774,
				"z": 0.8254657762,
				"element": "H" 
			},
			{
				"x": 1.2858187549,
				"y": 0.5893869839,
				"z": 1.8472105,
				"element": "H" 
			},
			{
				"x": 2.1423057467,
				"y": 0.8767712028,
				"z": -1.1121576461,
				"element": "H" 
			},
			{
				"x": 2.487543589,
				"y": -0.5613413188,
				"z": -0.1309234336,
				"element": "H" 
			},
			{
				"x": 1.6299327058,
				"y": -0.7259757805,
				"z": -1.6795162576,
				"element": "H" 
			},
			{
				"x": -0.28881823,
				"y": -1.9533001043,
				"z": -0.4637296338,
				"element": "H" 
			},
			{
				"x": 0.5875175463,
				"y": -1.7752919313,
				"z": 1.0728402572,
				"element": "H" 
			},
			{
				"x": -1.0789552366,
				"y": -1.1822270168,
				"z": 0.9270512521,
				"element": "H" 
			},
			{
				"x": -0.9649791583,
				"y": 1.5969864324,
				"z": -0.6902675844,
				"element": "H" 
			},
			{
				"x": -1.7463865356,
				"y": 0.8831649201,
				"z": -2.644455667,
				"element": "H" 
			}
		],
		 "valence_orbital": [ 
			{
				"type": "occ",
				"energy": -0.36486,
				"method": "rhf"
			},
			{
				"type": "occ",
				"energy": -0.33939,
				"method": "rhf"
			},
			{
				"type": "occ",
				"energy": -0.33737,
				"method": "rhf"
			},
			{
				"type": "occ",
				"energy": -0.25257,
				"method": "rhf"
			},
			{
				"type": "occ",
				"energy": -0.24593,
				"method": "rhf"
			},
			{
				"type": "unocc",
				"energy": 0.03033,
				"method": "rhf"
			},
			{
				"type": "unocc",
				"energy": 0.06994,
				"method": "rhf"
			},
			{
				"type": "unocc",
				"energy": 0.09987,
				"method": "rhf"
			},
			{
				"type": "unocc",
				"energy": 0.1174,
				"method": "rhf"
			},
			{
				"type": "unocc",
				"energy": 0.14194,
				"method": "rhf"
			}
		],
		"cosmo_sigma_profile": { 
			"-0.025": 0.0,
			"-0.024": 0.0,
			"-0.023": 0.0,
			"-0.022": 0.0,
			"-0.021": 0.0,
			"-0.02": 0.0,
			"-0.019": 0.0,
			"-0.018": 0.0,
			"-0.017": 0.0,
			"-0.016": 0.0,
			"-0.015": 0.0,
			"-0.014": 0.751011165683,
			"-0.013": 1.09780107855,
			"-0.012": 1.54298167531,
			"-0.011": 1.00097985388,
			"-0.01": 1.31286896066,
			"-0.009": 1.40444248777,
			"-0.008": 1.57405188638,
			"-0.007": 2.33692949703,
			"-0.006": 3.73059671651,
			"-0.005": 4.09338237471,
			"-0.004": 8.01417588781,
			"-0.003": 19.4453339216,
			"-0.002": 15.3490079759,
			"-0.001": 15.7883844435,
			"0.0": 18.8456308957,
			"0.001": 21.8418426364,
			"0.002": 8.70677777523,
			"0.003": 4.06053374195,
			"0.004": 2.060503974,
			"0.005": 1.58982302838,
			"0.006": 2.00888938178,
			"0.007": 1.94259802652,
			"0.008": 1.34388056173,
			"0.009": 1.79176797812,
			"0.01": 1.83393788188,
			"0.011": 1.28058036446,
			"0.012": 1.53680730329,
			"0.013": 3.09167730196,
			"0.014": 3.6876288508,
			"0.015": 1.66042408812,
			"0.016": 0.0667749523703,
			"0.017": 0.0,
			"0.018": 0.0,
			"0.019": 0.0,
			"0.02": 0.0,
			"0.021": 0.0,
			"0.022": 0.0,
			"0.023": 0.0,
			"0.024": 0.0,
			"0.025": 0.0
		}
	}
}
