{
	 "smiles": "CN(CCO)CCO", 
	 "Tm": 252.15, 
	 "num_atms": 21, 
	 "gaussian": { 
		 "optdone": 1, 
		 "sigma_profile": "yes", 
		 "theory": "DFT", 
		 "functional": "B3LYP", 
		 "basiset": "6-31G**", 
		 "properties": { 
			 "R2extent": 2849.7071, 
			 "electric_dipole_moment_norm": 1.64410579343, 
			 "electric_quadrupole_moment_norm": 10.9643628196, 
			 "total_energy": -403.532326567, 
			 "HOMO_LUMO_gap": 0.2972, 
			 "cosmo_polarized_energy": -10.91, 
			 "cosmo_cavitation_energy": 22.72, 
			 "cosmo_dispersion_energy": -16.45, 
			 "cosmo_repulsion_energy": 1.39, 
			 "cosmo_total_nonelectrostatic_energy": 7.67, 
			 "SMD_solvation_energy": 3.79 
		},
		"coords": [
			{
				"x": -2.3602223478,
				"y": -0.0938507213,
				"z": -1.4036290485,
				"element": "C" 
			},
			{
				"x": -1.4772451936,
				"y": -1.1915190628,
				"z": -1.0109589967,
				"element": "N" 
			},
			{
				"x": -2.2066619273,
				"y": -2.4569105351,
				"z": -0.8702224854,
				"element": "C" 
			},
			{
				"x": -2.47521653,
				"y": -3.140240922,
				"z": -2.2169351189,
				"element": "C" 
			},
			{
				"x": -3.2102767135,
				"y": -4.3448800872,
				"z": -2.0589248152,
				"element": "O" 
			},
			{
				"x": -0.6719218122,
				"y": -0.8607673161,
				"z": 0.1757329976,
				"element": "C" 
			},
			{
				"x": 0.6521100796,
				"y": -1.6307694498,
				"z": 0.1442821369,
				"element": "C" 
			},
			{
				"x": 1.3156293523,
				"y": -1.4192678269,
				"z": -1.0848371477,
				"element": "O" 
			},
			{
				"x": -1.7688289708,
				"y": 0.8072484868,
				"z": -1.5891614883,
				"element": "H" 
			},
			{
				"x": -3.1205298643,
				"y": 0.1408778311,
				"z": -0.6368882417,
				"element": "H" 
			},
			{
				"x": -2.8853313879,
				"y": -0.3420701302,
				"z": -2.3297925883,
				"element": "H" 
			},
			{
				"x": -1.6015681606,
				"y": -3.1398276353,
				"z": -0.2623361535,
				"element": "H" 
			},
			{
				"x": -3.164208684,
				"y": -2.3225439357,
				"z": -0.336338632,
				"element": "H" 
			},
			{
				"x": -1.5187761755,
				"y": -3.3020743159,
				"z": -2.7371746533,
				"element": "H" 
			},
			{
				"x": -3.0895051932,
				"y": -2.5037837919,
				"z": -2.8609113374,
				"element": "H" 
			},
			{
				"x": -2.6456366786,
				"y": -4.9792483593,
				"z": -1.5987181878,
				"element": "H" 
			},
			{
				"x": -1.2144380653,
				"y": -1.0412703427,
				"z": 1.1208596434,
				"element": "H" 
			},
			{
				"x": -0.4409969824,
				"y": 0.2084581398,
				"z": 0.1302377301,
				"element": "H" 
			},
			{
				"x": 1.3048588423,
				"y": -1.2755834159,
				"z": 0.9498043294,
				"element": "H" 
			},
			{
				"x": 0.4760572095,
				"y": -2.7056799105,
				"z": 0.3266953895,
				"element": "H" 
			},
			{
				"x": 0.5974092032,
				"y": -1.4118966992,
				"z": -1.7406833322,
				"element": "H" 
			}
		],
		 "valence_orbital": [ 
			{
				"type": "occ",
				"energy": -0.32583,
				"method": "rhf"
			},
			{
				"type": "occ",
				"energy": -0.3184,
				"method": "rhf"
			},
			{
				"type": "occ",
				"energy": -0.27347,
				"method": "rhf"
			},
			{
				"type": "occ",
				"energy": -0.25732,
				"method": "rhf"
			},
			{
				"type": "occ",
				"energy": -0.22981,
				"method": "rhf"
			},
			{
				"type": "unocc",
				"energy": 0.06739,
				"method": "rhf"
			},
			{
				"type": "unocc",
				"energy": 0.07632,
				"method": "rhf"
			},
			{
				"type": "unocc",
				"energy": 0.10101,
				"method": "rhf"
			},
			{
				"type": "unocc",
				"energy": 0.11311,
				"method": "rhf"
			},
			{
				"type": "unocc",
				"energy": 0.12342,
				"method": "rhf"
			}
		],
		"cosmo_sigma_profile": { 
			"-0.025": 0.0,
			"-0.024": 0.0,
			"-0.023": 0.0,
			"-0.022": 0.0,
			"-0.021": 0.0,
			"-0.02": 0.0,
			"-0.019": 0.0,
			"-0.018": 0.0,
			"-0.017": 0.0,
			"-0.016": 0.162917868126,
			"-0.015": 1.07736929642,
			"-0.014": 0.960372139082,
			"-0.013": 0.868790968834,
			"-0.012": 1.2856832998,
			"-0.011": 0.820265154154,
			"-0.01": 0.34440737949,
			"-0.009": 1.08558346094,
			"-0.008": 1.52083947846,
			"-0.007": 2.49290876289,
			"-0.006": 1.831993871,
			"-0.005": 7.40939443707,
			"-0.004": 15.843474292,
			"-0.003": 22.4980772768,
			"-0.002": 28.9986339583,
			"-0.001": 24.2531108199,
			"0.0": 15.6693426293,
			"0.001": 5.60427672886,
			"0.002": 3.27004325229,
			"0.003": 3.09410988347,
			"0.004": 3.94909433212,
			"0.005": 3.586609588,
			"0.006": 2.03492766559,
			"0.007": 2.22968560276,
			"0.008": 3.39692176076,
			"0.009": 1.76034149319,
			"0.01": 1.88066728915,
			"0.011": 2.68783659893,
			"0.012": 3.05069774018,
			"0.013": 3.38400013712,
			"0.014": 3.9027932723,
			"0.015": 3.80925568144,
			"0.016": 0.163570465349,
			"0.017": 0.0,
			"0.018": 0.0,
			"0.019": 0.0,
			"0.02": 0.0,
			"0.021": 0.0,
			"0.022": 0.0,
			"0.023": 0.0,
			"0.024": 0.0,
			"0.025": 0.0
		}
	}
}
