{
	 "smiles": "CCNC1=CC=NC=C1", 
	 "Tm": 377.15, 
	 "num_atms": 19, 
	 "gaussian": { 
		 "optdone": 1, 
		 "sigma_profile": "yes", 
		 "theory": "DFT", 
		 "functional": "B3LYP", 
		 "basiset": "6-31G**", 
		 "properties": { 
			 "R2extent": 1653.5067, 
			 "electric_dipole_moment_norm": 4.34219041268, 
			 "electric_quadrupole_moment_norm": 11.7736844802, 
			 "total_energy": -382.275362626, 
			 "HOMO_LUMO_gap": 0.2139, 
			 "cosmo_polarized_energy": -10.44, 
			 "cosmo_cavitation_energy": 21.96, 
			 "cosmo_dispersion_energy": -16.32, 
			 "cosmo_repulsion_energy": 1.34, 
			 "cosmo_total_nonelectrostatic_energy": 6.99, 
			 "SMD_solvation_energy": 1.75 
		},
		"coords": [
			{
				"x": 1.970717159,
				"y": -1.4868836279,
				"z": -1.5250042664,
				"element": "C" 
			},
			{
				"x": 0.606006871,
				"y": -0.8226897281,
				"z": -1.7519782002,
				"element": "C" 
			},
			{
				"x": -0.4575512172,
				"y": -1.3061617932,
				"z": -0.8830687381,
				"element": "N" 
			},
			{
				"x": -0.5634943179,
				"y": -1.0060898034,
				"z": 0.4576398156,
				"element": "C" 
			},
			{
				"x": -1.461854431,
				"y": -1.7225548105,
				"z": 1.276514168,
				"element": "C" 
			},
			{
				"x": -1.5885014014,
				"y": -1.3775541477,
				"z": 2.614510183,
				"element": "C" 
			},
			{
				"x": -0.9062024334,
				"y": -0.3898540882,
				"z": 3.2160792743,
				"element": "N" 
			},
			{
				"x": -0.0546482475,
				"y": 0.2836180026,
				"z": 2.4323670363,
				"element": "C" 
			},
			{
				"x": 0.1610889647,
				"y": 0.0295120831,
				"z": 1.0804739636,
				"element": "C" 
			},
			{
				"x": 1.9139145857,
				"y": -2.565826285,
				"z": -1.7034870156,
				"element": "H" 
			},
			{
				"x": 2.7201406251,
				"y": -1.0696716798,
				"z": -2.2062308945,
				"element": "H" 
			},
			{
				"x": 2.3177646337,
				"y": -1.3332887328,
				"z": -0.4991188068,
				"element": "H" 
			},
			{
				"x": 0.6867815974,
				"y": 0.2630150247,
				"z": -1.6313762071,
				"element": "H" 
			},
			{
				"x": 0.2776767632,
				"y": -0.9865478373,
				"z": -2.7839601174,
				"element": "H" 
			},
			{
				"x": -0.8855176707,
				"y": -2.1776646874,
				"z": -1.1606392569,
				"element": "H" 
			},
			{
				"x": -2.0541936287,
				"y": -2.5348379502,
				"z": 0.8624307719,
				"element": "H" 
			},
			{
				"x": -2.2826223468,
				"y": -1.9317311789,
				"z": 3.2451906497,
				"element": "H" 
			},
			{
				"x": 0.5041019236,
				"y": 1.085380539,
				"z": 2.9142372586,
				"element": "H" 
			},
			{
				"x": 0.8779925711,
				"y": 0.629430701,
				"z": 0.531720382,
				"element": "H" 
			}
		],
		 "valence_orbital": [ 
			{
				"type": "occ",
				"energy": -0.34556,
				"method": "rhf"
			},
			{
				"type": "occ",
				"energy": -0.31793,
				"method": "rhf"
			},
			{
				"type": "occ",
				"energy": -0.24985,
				"method": "rhf"
			},
			{
				"type": "occ",
				"energy": -0.23923,
				"method": "rhf"
			},
			{
				"type": "occ",
				"energy": -0.21176,
				"method": "rhf"
			},
			{
				"type": "unocc",
				"energy": 0.00214,
				"method": "rhf"
			},
			{
				"type": "unocc",
				"energy": 0.00761,
				"method": "rhf"
			},
			{
				"type": "unocc",
				"energy": 0.07369,
				"method": "rhf"
			},
			{
				"type": "unocc",
				"energy": 0.0945,
				"method": "rhf"
			},
			{
				"type": "unocc",
				"energy": 0.11763,
				"method": "rhf"
			}
		],
		"cosmo_sigma_profile": { 
			"-0.025": 0.0,
			"-0.024": 0.0,
			"-0.023": 0.0,
			"-0.022": 0.0,
			"-0.021": 0.0,
			"-0.02": 0.0,
			"-0.019": 0.0,
			"-0.018": 0.0,
			"-0.017": 0.0,
			"-0.016": 0.0,
			"-0.015": 0.0,
			"-0.014": 0.00687322333604,
			"-0.013": 1.02355805257,
			"-0.012": 1.58816450146,
			"-0.011": 1.37476167802,
			"-0.01": 1.46386582537,
			"-0.009": 1.66237198427,
			"-0.008": 1.29032086995,
			"-0.007": 2.07128142645,
			"-0.006": 6.80362569482,
			"-0.005": 11.816079739,
			"-0.004": 14.1684635916,
			"-0.003": 16.8852265092,
			"-0.002": 15.9963866617,
			"-0.001": 14.7610124705,
			"0.0": 12.3771881943,
			"0.001": 12.5448473523,
			"0.002": 7.43617022298,
			"0.003": 7.87402512731,
			"0.004": 13.3454305917,
			"0.005": 9.88650501485,
			"0.006": 3.56167053606,
			"0.007": 2.67361784457,
			"0.008": 1.5238660322,
			"0.009": 1.97482429797,
			"0.01": 1.44202964473,
			"0.011": 0.980879114487,
			"0.012": 0.914526415067,
			"0.013": 1.41323600443,
			"0.014": 0.922375911836,
			"0.015": 1.01142603736,
			"0.016": 0.764974779381,
			"0.017": 1.28683172533,
			"0.018": 0.648207013457,
			"0.019": 0.090951488459,
			"0.02": 0.0,
			"0.021": 0.0,
			"0.022": 0.0,
			"0.023": 0.0,
			"0.024": 0.0,
			"0.025": 0.0
		}
	}
}
