{
	 "smiles": "CCNC1=NC(NC(C)(C)C)=NC(SC)=N1", 
	 "Tm": 377.15, 
	 "num_atms": 35, 
	 "gaussian": { 
		 "optdone": 1, 
		 "sigma_profile": "yes", 
		 "theory": "DFT", 
		 "functional": "B3LYP", 
		 "basiset": "6-31G**", 
		 "properties": { 
			 "R2extent": 5563.6327, 
			 "electric_dipole_moment_norm": 2.6389414355, 
			 "electric_quadrupole_moment_norm": 14.8444606891, 
			 "total_energy": -1064.52317762, 
			 "HOMO_LUMO_gap": 0.21727, 
			 "cosmo_polarized_energy": -11.32, 
			 "cosmo_cavitation_energy": 38.56, 
			 "cosmo_dispersion_energy": -27.12, 
			 "cosmo_repulsion_energy": 2.12, 
			 "cosmo_total_nonelectrostatic_energy": 13.55, 
			 "SMD_solvation_energy": 3.72 
		},
		"coords": [
			{
				"x": 5.0429224331,
				"y": -1.0229908005,
				"z": -0.4516001794,
				"element": "C" 
			},
			{
				"x": 4.1817860249,
				"y": -0.2476474934,
				"z": -1.4546862372,
				"element": "C" 
			},
			{
				"x": 2.7866971087,
				"y": -0.6614391151,
				"z": -1.4689942643,
				"element": "N" 
			},
			{
				"x": 1.8273200472,
				"y": -0.1879446375,
				"z": -0.6330926983,
				"element": "C" 
			},
			{
				"x": 0.6269162159,
				"y": -0.7793911506,
				"z": -0.7044449275,
				"element": "N" 
			},
			{
				"x": -0.3018087371,
				"y": -0.2622095666,
				"z": 0.1260507559,
				"element": "C" 
			},
			{
				"x": -1.5232986667,
				"y": -0.8460275479,
				"z": 0.0710247742,
				"element": "N" 
			},
			{
				"x": -2.7463872777,
				"y": -0.5241827881,
				"z": 0.8369561163,
				"element": "C" 
			},
			{
				"x": -2.5071080245,
				"y": -0.720908545,
				"z": 2.3463489732,
				"element": "C" 
			},
			{
				"x": -3.8152546131,
				"y": -1.5169501616,
				"z": 0.3493453562,
				"element": "C" 
			},
			{
				"x": -3.2057348043,
				"y": 0.9170018313,
				"z": 0.5431892078,
				"element": "C" 
			},
			{
				"x": -0.096169892,
				"y": 0.7644666012,
				"z": 0.9795588606,
				"element": "N" 
			},
			{
				"x": 1.1448991224,
				"y": 1.2536439672,
				"z": 0.9458742159,
				"element": "C" 
			},
			{
				"x": 1.4028637906,
				"y": 2.6007431692,
				"z": 2.0727206917,
				"element": "S" 
			},
			{
				"x": 3.1517889347,
				"y": 3.0149040933,
				"z": 1.7628289951,
				"element": "C" 
			},
			{
				"x": 2.156074474,
				"y": 0.8416209435,
				"z": 0.1851902642,
				"element": "N" 
			},
			{
				"x": 4.6710442635,
				"y": -0.8702719293,
				"z": 0.5654070109,
				"element": "H" 
			},
			{
				"x": 5.0310887533,
				"y": -2.0973116779,
				"z": -0.664370499,
				"element": "H" 
			},
			{
				"x": 6.0826709082,
				"y": -0.6805428665,
				"z": -0.4937022545,
				"element": "H" 
			},
			{
				"x": 4.5737843711,
				"y": -0.3728938217,
				"z": -2.4701760345,
				"element": "H" 
			},
			{
				"x": 4.2052941657,
				"y": 0.8187868964,
				"z": -1.2217774433,
				"element": "H" 
			},
			{
				"x": 2.5162826339,
				"y": -1.4812027917,
				"z": -1.9922300085,
				"element": "H" 
			},
			{
				"x": -1.5711305558,
				"y": -1.5997032495,
				"z": -0.5991072625,
				"element": "H" 
			},
			{
				"x": -1.7308589611,
				"y": -0.0421374203,
				"z": 2.7029407054,
				"element": "H" 
			},
			{
				"x": -3.429940325,
				"y": -0.5218513377,
				"z": 2.9016113737,
				"element": "H" 
			},
			{
				"x": -2.1963099049,
				"y": -1.7499122391,
				"z": 2.5550290199,
				"element": "H" 
			},
			{
				"x": -4.7583361535,
				"y": -1.341830664,
				"z": 0.8737632126,
				"element": "H" 
			},
			{
				"x": -3.5099528251,
				"y": -2.5518183909,
				"z": 0.5415230412,
				"element": "H" 
			},
			{
				"x": -4.0005402013,
				"y": -1.4016605237,
				"z": -0.724654257,
				"element": "H" 
			},
			{
				"x": -4.1349021898,
				"y": 1.1317568738,
				"z": 1.0817876372,
				"element": "H" 
			},
			{
				"x": -3.3912527154,
				"y": 1.0502397154,
				"z": -0.5276942755,
				"element": "H" 
			},
			{
				"x": -2.4452777451,
				"y": 1.633286364,
				"z": 0.8580003635,
				"element": "H" 
			},
			{
				"x": 3.7968385677,
				"y": 2.1647066558,
				"z": 1.9856519702,
				"element": "H" 
			},
			{
				"x": 3.2994848873,
				"y": 3.3229158944,
				"z": 0.7273655448,
				"element": "H" 
			},
			{
				"x": 3.3840068904,
				"y": 3.8446557132,
				"z": 2.4343622511,
				"element": "H" 
			}
		],
		 "valence_orbital": [ 
			{
				"type": "occ",
				"energy": -0.25433,
				"method": "rhf"
			},
			{
				"type": "occ",
				"energy": -0.25079,
				"method": "rhf"
			},
			{
				"type": "occ",
				"energy": -0.23327,
				"method": "rhf"
			},
			{
				"type": "occ",
				"energy": -0.22698,
				"method": "rhf"
			},
			{
				"type": "occ",
				"energy": -0.22219,
				"method": "rhf"
			},
			{
				"type": "unocc",
				"energy": -0.00492,
				"method": "rhf"
			},
			{
				"type": "unocc",
				"energy": 0.01589,
				"method": "rhf"
			},
			{
				"type": "unocc",
				"energy": 0.0459,
				"method": "rhf"
			},
			{
				"type": "unocc",
				"energy": 0.08214,
				"method": "rhf"
			},
			{
				"type": "unocc",
				"energy": 0.09078,
				"method": "rhf"
			}
		],
		"cosmo_sigma_profile": { 
			"-0.025": 0.0,
			"-0.024": 0.0,
			"-0.023": 0.0,
			"-0.022": 0.0,
			"-0.021": 0.0,
			"-0.02": 0.0,
			"-0.019": 0.0,
			"-0.018": 0.0,
			"-0.017": 0.0,
			"-0.016": 0.0,
			"-0.015": 0.0,
			"-0.014": 0.228098855254,
			"-0.013": 1.10144340288,
			"-0.012": 1.41615704882,
			"-0.011": 1.51147260052,
			"-0.01": 1.74790138859,
			"-0.009": 1.88656273567,
			"-0.008": 1.62330784488,
			"-0.007": 3.9339766733,
			"-0.006": 5.04740646912,
			"-0.005": 8.44409914852,
			"-0.004": 16.6129982358,
			"-0.003": 33.0838565607,
			"-0.002": 33.2286120337,
			"-0.001": 31.6631622656,
			"0.0": 33.9785778153,
			"0.001": 36.2507946907,
			"0.002": 21.6789383822,
			"0.003": 14.5150073804,
			"0.004": 11.128177487,
			"0.005": 12.8563870088,
			"0.006": 11.7581659863,
			"0.007": 9.19580698438,
			"0.008": 4.95304098374,
			"0.009": 1.64255071795,
			"0.01": 1.31752437548,
			"0.011": 0.988527937539,
			"0.012": 1.16727463638,
			"0.013": 0.619623523446,
			"0.014": 0.0,
			"0.015": 0.0,
			"0.016": 0.0,
			"0.017": 0.0,
			"0.018": 0.0,
			"0.019": 0.0,
			"0.02": 0.0,
			"0.021": 0.0,
			"0.022": 0.0,
			"0.023": 0.0,
			"0.024": 0.0,
			"0.025": 0.0
		}
	}
}
