{
	 "smiles": "NC(=O)CCOC1CCN(CC2=CC=CC=C2)CC1", 
	 "Tm": 347.15, 
	 "num_atms": 41, 
	 "gaussian": { 
		 "optdone": 1, 
		 "sigma_profile": "yes", 
		 "theory": "DFT", 
		 "functional": "B3LYP", 
		 "basiset": "6-31G**", 
		 "properties": { 
			 "R2extent": 9150.1307, 
			 "electric_dipole_moment_norm": 2.71351711253, 
			 "electric_quadrupole_moment_norm": 26.7248678667, 
			 "total_energy": -844.818756207, 
			 "HOMO_LUMO_gap": 0.21313, 
			 "cosmo_polarized_energy": -16.71, 
			 "cosmo_cavitation_energy": 42.36, 
			 "cosmo_dispersion_energy": -29.05, 
			 "cosmo_repulsion_energy": 2.29, 
			 "cosmo_total_nonelectrostatic_energy": 15.6, 
			 "SMD_solvation_energy": 5.77 
		},
		"coords": [
			{
				"x": -4.09577125,
				"y": 4.1053275353,
				"z": -2.9747358374,
				"element": "N" 
			},
			{
				"x": -4.2048342729,
				"y": 2.8024775811,
				"z": -3.3775777573,
				"element": "C" 
			},
			{
				"x": -4.0175811252,
				"y": 2.4548958345,
				"z": -4.5344507881,
				"element": "O" 
			},
			{
				"x": -4.6421773808,
				"y": 1.8118797264,
				"z": -2.2974174049,
				"element": "C" 
			},
			{
				"x": -3.7629704101,
				"y": 0.5683812723,
				"z": -2.3165492667,
				"element": "C" 
			},
			{
				"x": -2.4743830312,
				"y": 0.9516257997,
				"z": -1.8637097595,
				"element": "O" 
			},
			{
				"x": -1.4277711097,
				"y": 0.0143281748,
				"z": -2.1328886167,
				"element": "C" 
			},
			{
				"x": -0.1065718642,
				"y": 0.7565733805,
				"z": -1.9178335193,
				"element": "C" 
			},
			{
				"x": 0.1318760759,
				"y": 1.0718907729,
				"z": -0.4378644469,
				"element": "C" 
			},
			{
				"x": 0.0940322222,
				"y": -0.1519885859,
				"z": 0.3685831478,
				"element": "N" 
			},
			{
				"x": 0.4547756429,
				"y": 0.1015541219,
				"z": 1.7618684738,
				"element": "C" 
			},
			{
				"x": 0.7839270876,
				"y": -1.1606910342,
				"z": 2.5392557127,
				"element": "C" 
			},
			{
				"x": 1.5746192024,
				"y": -2.1648804838,
				"z": 1.9633468364,
				"element": "C" 
			},
			{
				"x": 1.9209288226,
				"y": -3.3018006733,
				"z": 2.6926515088,
				"element": "C" 
			},
			{
				"x": 1.4854067431,
				"y": -3.451457485,
				"z": 4.0121880011,
				"element": "C" 
			},
			{
				"x": 0.6963429943,
				"y": -2.4584703368,
				"z": 4.5934573591,
				"element": "C" 
			},
			{
				"x": 0.3460001249,
				"y": -1.3236190701,
				"z": 3.8581392719,
				"element": "C" 
			},
			{
				"x": -1.2071380275,
				"y": -0.8197196361,
				"z": 0.2502096116,
				"element": "C" 
			},
			{
				"x": -1.4895822343,
				"y": -1.2083354835,
				"z": -1.2032507035,
				"element": "C" 
			},
			{
				"x": -4.0441480407,
				"y": 4.3459971287,
				"z": -1.9979405952,
				"element": "H" 
			},
			{
				"x": -3.7245499763,
				"y": 4.7628982124,
				"z": -3.6450937931,
				"element": "H" 
			},
			{
				"x": -5.6765395735,
				"y": 1.5235229844,
				"z": -2.5192570883,
				"element": "H" 
			},
			{
				"x": -4.6299170382,
				"y": 2.2582832264,
				"z": -1.2973234898,
				"element": "H" 
			},
			{
				"x": -3.713350709,
				"y": 0.1842967518,
				"z": -3.3454788538,
				"element": "H" 
			},
			{
				"x": -4.2002577409,
				"y": -0.2114245536,
				"z": -1.6750315232,
				"element": "H" 
			},
			{
				"x": -1.5058258742,
				"y": -0.3104043182,
				"z": -3.1825350856,
				"element": "H" 
			},
			{
				"x": 0.7116935136,
				"y": 0.1275967361,
				"z": -2.2868631824,
				"element": "H" 
			},
			{
				"x": -0.1132061854,
				"y": 1.6821460149,
				"z": -2.5026779289,
				"element": "H" 
			},
			{
				"x": -0.6201637553,
				"y": 1.8082712323,
				"z": -0.0963892948,
				"element": "H" 
			},
			{
				"x": 1.1177772841,
				"y": 1.5350783399,
				"z": -0.3144049121,
				"element": "H" 
			},
			{
				"x": -0.3325073617,
				"y": 0.6663064144,
				"z": 2.2995875104,
				"element": "H" 
			},
			{
				"x": 1.3413300497,
				"y": 0.7502625492,
				"z": 1.7534666707,
				"element": "H" 
			},
			{
				"x": 1.8991357833,
				"y": -2.045469133,
				"z": 0.9340620947,
				"element": "H" 
			},
			{
				"x": 2.5328390469,
				"y": -4.0727762294,
				"z": 2.2320091964,
				"element": "H" 
			},
			{
				"x": 1.7561056587,
				"y": -4.3370714151,
				"z": 4.580229656,
				"element": "H" 
			},
			{
				"x": 0.3468360963,
				"y": -2.5685936839,
				"z": 5.6163944551,
				"element": "H" 
			},
			{
				"x": -0.2752797349,
				"y": -0.5555819222,
				"z": 4.3133972939,
				"element": "H" 
			},
			{
				"x": -1.1945716456,
				"y": -1.714517501,
				"z": 0.87943547,
				"element": "H" 
			},
			{
				"x": -2.0221874485,
				"y": -0.1684300996,
				"z": 0.6216968586,
				"element": "H" 
			},
			{
				"x": -0.7382994827,
				"y": -1.9349879195,
				"z": -1.5351420928,
				"element": "H" 
			},
			{
				"x": -2.4655410758,
				"y": -1.7015742258,
				"z": -1.2740631885,
				"element": "H" 
			}
		],
		 "valence_orbital": [ 
			{
				"type": "occ",
				"energy": -0.25141,
				"method": "rhf"
			},
			{
				"type": "occ",
				"energy": -0.24435,
				"method": "rhf"
			},
			{
				"type": "occ",
				"energy": -0.24425,
				"method": "rhf"
			},
			{
				"type": "occ",
				"energy": -0.23798,
				"method": "rhf"
			},
			{
				"type": "occ",
				"energy": -0.21106,
				"method": "rhf"
			},
			{
				"type": "unocc",
				"energy": 0.00207,
				"method": "rhf"
			},
			{
				"type": "unocc",
				"energy": 0.0048,
				"method": "rhf"
			},
			{
				"type": "unocc",
				"energy": 0.03115,
				"method": "rhf"
			},
			{
				"type": "unocc",
				"energy": 0.0747,
				"method": "rhf"
			},
			{
				"type": "unocc",
				"energy": 0.0845,
				"method": "rhf"
			}
		],
		"cosmo_sigma_profile": { 
			"-0.025": 0.0,
			"-0.024": 0.0,
			"-0.023": 0.0,
			"-0.022": 0.0,
			"-0.021": 0.0,
			"-0.02": 0.0,
			"-0.019": 0.0,
			"-0.018": 0.0,
			"-0.017": 0.0,
			"-0.016": 0.0,
			"-0.015": 0.086263154323,
			"-0.014": 1.1196883819,
			"-0.013": 2.68252661149,
			"-0.012": 2.60867005422,
			"-0.011": 2.18768178989,
			"-0.01": 2.31008071662,
			"-0.009": 2.03011966344,
			"-0.008": 2.51270818168,
			"-0.007": 2.36092612072,
			"-0.006": 5.1067065094,
			"-0.005": 13.3764115184,
			"-0.004": 26.1135039618,
			"-0.003": 42.2164742545,
			"-0.002": 38.010220864,
			"-0.001": 39.1945870141,
			"0.0": 30.031636123,
			"0.001": 17.3476724989,
			"0.002": 14.0063342954,
			"0.003": 13.1644289455,
			"0.004": 14.250255711,
			"0.005": 12.4980438849,
			"0.006": 12.9572490777,
			"0.007": 7.7254301418,
			"0.008": 5.28867630575,
			"0.009": 3.95987823305,
			"0.01": 2.64495482448,
			"0.011": 1.88791237829,
			"0.012": 1.7433276212,
			"0.013": 3.21945087236,
			"0.014": 5.56738879728,
			"0.015": 1.932516456,
			"0.016": 0.0,
			"0.017": 0.0,
			"0.018": 0.0,
			"0.019": 0.0,
			"0.02": 0.0,
			"0.021": 0.0,
			"0.022": 0.0,
			"0.023": 0.0,
			"0.024": 0.0,
			"0.025": 0.0
		}
	}
}
