{
	 "smiles": "CC(C)C1=NC2=C(C=CC=C2)N1CC#N", 
	 "Tm": 390.15, 
	 "num_atms": 28, 
	 "gaussian": { 
		 "optdone": 1, 
		 "sigma_profile": "yes", 
		 "theory": "DFT", 
		 "functional": "B3LYP", 
		 "basiset": "6-31G**", 
		 "properties": { 
			 "R2extent": 3752.9867, 
			 "electric_dipole_moment_norm": 3.47398840672, 
			 "electric_quadrupole_moment_norm": 16.5185629663, 
			 "total_energy": -629.36260693, 
			 "HOMO_LUMO_gap": 0.20557, 
			 "cosmo_polarized_energy": -16.28, 
			 "cosmo_cavitation_energy": 32.12, 
			 "cosmo_dispersion_energy": -21.87, 
			 "cosmo_repulsion_energy": 1.72, 
			 "cosmo_total_nonelectrostatic_energy": 11.97, 
			 "SMD_solvation_energy": 5.05 
		},
		"coords": [
			{
				"x": 0.3754184038,
				"y": 1.9942022169,
				"z": -1.7145843818,
				"element": "C" 
			},
			{
				"x": 0.5663668467,
				"y": 0.5434255598,
				"z": -1.2189204303,
				"element": "C" 
			},
			{
				"x": 1.9803362836,
				"y": 0.0332062633,
				"z": -1.5343059714,
				"element": "C" 
			},
			{
				"x": 0.2844486874,
				"y": 0.4480635078,
				"z": 0.2594781552,
				"element": "C" 
			},
			{
				"x": 1.1848258613,
				"y": 0.564233079,
				"z": 1.2020668399,
				"element": "N" 
			},
			{
				"x": 0.4954342977,
				"y": 0.4535705926,
				"z": 2.402204315,
				"element": "C" 
			},
			{
				"x": -0.882815425,
				"y": 0.2617789353,
				"z": 2.1600922588,
				"element": "C" 
			},
			{
				"x": -1.8137238254,
				"y": 0.1056457911,
				"z": 3.1875724227,
				"element": "C" 
			},
			{
				"x": -1.3205125197,
				"y": 0.1600776364,
				"z": 4.4906297214,
				"element": "C" 
			},
			{
				"x": 0.0491066008,
				"y": 0.3575821739,
				"z": 4.7514222446,
				"element": "C" 
			},
			{
				"x": 0.9699655088,
				"y": 0.5046050198,
				"z": 3.7176691831,
				"element": "C" 
			},
			{
				"x": -1.0036332499,
				"y": 0.279593251,
				"z": 0.7731193572,
				"element": "N" 
			},
			{
				"x": -2.2348744947,
				"y": 0.0757394444,
				"z": 0.0396128545,
				"element": "C" 
			},
			{
				"x": -2.5429179333,
				"y": -1.3456738661,
				"z": -0.2155233858,
				"element": "C" 
			},
			{
				"x": -2.7840391059,
				"y": -2.4604827206,
				"z": -0.4265870176,
				"element": "N" 
			},
			{
				"x": 1.0856368932,
				"y": 2.6591296613,
				"z": -1.2138399995,
				"element": "H" 
			},
			{
				"x": 0.5482304039,
				"y": 2.0543247049,
				"z": -2.7938266957,
				"element": "H" 
			},
			{
				"x": -0.6327292204,
				"y": 2.3729421422,
				"z": -1.5128256515,
				"element": "H" 
			},
			{
				"x": -0.1506502536,
				"y": -0.0984058613,
				"z": -1.7488219845,
				"element": "H" 
			},
			{
				"x": 2.0969702486,
				"y": -1.0133907903,
				"z": -1.2406083891,
				"element": "H" 
			},
			{
				"x": 2.7263825184,
				"y": 0.6162976112,
				"z": -0.9893981843,
				"element": "H" 
			},
			{
				"x": 2.1792955682,
				"y": 0.1164932437,
				"z": -2.6073085829,
				"element": "H" 
			},
			{
				"x": -2.8696096367,
				"y": -0.062155491,
				"z": 2.9967590921,
				"element": "H" 
			},
			{
				"x": -2.0088609089,
				"y": 0.0418393989,
				"z": 5.3220092173,
				"element": "H" 
			},
			{
				"x": 0.3904991056,
				"y": 0.3914159089,
				"z": 5.7816688634,
				"element": "H" 
			},
			{
				"x": 2.0273274344,
				"y": 0.6531224823,
				"z": 3.911062897,
				"element": "H" 
			},
			{
				"x": -3.0630582837,
				"y": 0.5190440539,
				"z": 0.6027850327,
				"element": "H" 
			},
			{
				"x": -2.1874198053,
				"y": 0.5992760507,
				"z": -0.9189017803,
				"element": "H" 
			}
		],
		 "valence_orbital": [ 
			{
				"type": "occ",
				"energy": -0.33419,
				"method": "rhf"
			},
			{
				"type": "occ",
				"energy": -0.30562,
				"method": "rhf"
			},
			{
				"type": "occ",
				"energy": -0.27367,
				"method": "rhf"
			},
			{
				"type": "occ",
				"energy": -0.23232,
				"method": "rhf"
			},
			{
				"type": "occ",
				"energy": -0.22695,
				"method": "rhf"
			},
			{
				"type": "unocc",
				"energy": -0.02138,
				"method": "rhf"
			},
			{
				"type": "unocc",
				"energy": 0.00275,
				"method": "rhf"
			},
			{
				"type": "unocc",
				"energy": 0.01233,
				"method": "rhf"
			},
			{
				"type": "unocc",
				"energy": 0.02129,
				"method": "rhf"
			},
			{
				"type": "unocc",
				"energy": 0.04824,
				"method": "rhf"
			}
		],
		"cosmo_sigma_profile": { 
			"-0.025": 0.0,
			"-0.024": 0.0,
			"-0.023": 0.0,
			"-0.022": 0.0,
			"-0.021": 0.0,
			"-0.02": 0.0,
			"-0.019": 0.0,
			"-0.018": 0.0,
			"-0.017": 0.0,
			"-0.016": 0.0,
			"-0.015": 0.0,
			"-0.014": 0.0,
			"-0.013": 0.0,
			"-0.012": 0.00113477859538,
			"-0.011": 3.37739631343,
			"-0.01": 6.32183600322,
			"-0.009": 6.16060034804,
			"-0.008": 6.51716790927,
			"-0.007": 5.21652257208,
			"-0.006": 7.49334815428,
			"-0.005": 12.3808087115,
			"-0.004": 15.7292768757,
			"-0.003": 23.3809197503,
			"-0.002": 21.6712818014,
			"-0.001": 19.9513778579,
			"0.0": 23.2215269085,
			"0.001": 16.8803610275,
			"0.002": 10.8025071541,
			"0.003": 10.3857913068,
			"0.004": 12.3347429989,
			"0.005": 13.9925652963,
			"0.006": 10.7355751802,
			"0.007": 4.98561639826,
			"0.008": 5.13023648341,
			"0.009": 4.99208362505,
			"0.01": 3.76880837475,
			"0.011": 3.28370947686,
			"0.012": 3.51660885097,
			"0.013": 0.997782048228,
			"0.014": 1.19577972249,
			"0.015": 1.13281519896,
			"0.016": 0.456499361003,
			"0.017": 0.0,
			"0.018": 0.0,
			"0.019": 0.0,
			"0.02": 0.0,
			"0.021": 0.0,
			"0.022": 0.0,
			"0.023": 0.0,
			"0.024": 0.0,
			"0.025": 0.0
		}
	}
}
