{
	 "smiles": "CN(C)C1=CC=C(C=C1)C(Br)=NNC1=CC=C(C=C1)[N+]([O-])=O", 
	 "Tm": 461.15, 
	 "num_atms": 37, 
	 "gaussian": { 
		 "optdone": 1, 
		 "sigma_profile": "yes", 
		 "theory": "DFT", 
		 "functional": "B3LYP", 
		 "basiset": "6-31G**", 
		 "properties": { 
			 "R2extent": 12489.5574, 
			 "electric_dipole_moment_norm": 6.76816445205, 
			 "electric_quadrupole_moment_norm": 29.8939504081, 
			 "total_energy": -3521.34430699, 
			 "HOMO_LUMO_gap": 0.13224, 
			 "cosmo_polarized_energy": -17.84, 
			 "cosmo_cavitation_energy": 43.51, 
			 "cosmo_dispersion_energy": -30.57, 
			 "cosmo_repulsion_energy": 2.36, 
			 "cosmo_total_nonelectrostatic_energy": 15.29, 
			 "SMD_solvation_energy": 7.77 
		},
		"coords": [
			{
				"x": -1.5197420898,
				"y": 0.6970225938,
				"z": 4.9751062637,
				"element": "C" 
			},
			{
				"x": -1.306724506,
				"y": -0.4227087517,
				"z": 4.0712799159,
				"element": "N" 
			},
			{
				"x": -2.393225656,
				"y": -1.3547114123,
				"z": 3.8122421302,
				"element": "C" 
			},
			{
				"x": -0.08964198,
				"y": -0.5905045781,
				"z": 3.4542092212,
				"element": "C" 
			},
			{
				"x": 0.9868224739,
				"y": 0.3019945226,
				"z": 3.6868536192,
				"element": "C" 
			},
			{
				"x": 2.2107975458,
				"y": 0.1228448491,
				"z": 3.0647038535,
				"element": "C" 
			},
			{
				"x": 2.4335559685,
				"y": -0.9308199766,
				"z": 2.1592712671,
				"element": "C" 
			},
			{
				"x": 1.3650392796,
				"y": -1.8210635917,
				"z": 1.9270756497,
				"element": "C" 
			},
			{
				"x": 0.1439412909,
				"y": -1.6665358122,
				"z": 2.5604412337,
				"element": "C" 
			},
			{
				"x": 3.7294468431,
				"y": -1.1321775384,
				"z": 1.4982026695,
				"element": "C" 
			},
			{
				"x": 5.2861696986,
				"y": -0.5886507635,
				"z": 2.5393623733,
				"element": "Br" 
			},
			{
				"x": 4.0745432196,
				"y": -1.6434951687,
				"z": 0.3782250451,
				"element": "N" 
			},
			{
				"x": 3.0768829192,
				"y": -2.0546306648,
				"z": -0.5278750464,
				"element": "N" 
			},
			{
				"x": 2.2764364327,
				"y": -1.1595195452,
				"z": -1.2447821306,
				"element": "C" 
			},
			{
				"x": 2.1297985137,
				"y": 0.2004032709,
				"z": -0.9143939028,
				"element": "C" 
			},
			{
				"x": 1.2903855314,
				"y": 1.0129412415,
				"z": -1.6651979108,
				"element": "C" 
			},
			{
				"x": 0.5914474503,
				"y": 0.4785063181,
				"z": -2.747019022,
				"element": "C" 
			},
			{
				"x": 0.7303354462,
				"y": -0.8675944171,
				"z": -3.0994556378,
				"element": "C" 
			},
			{
				"x": 1.567444318,
				"y": -1.6767367315,
				"z": -2.3526640313,
				"element": "C" 
			},
			{
				"x": -0.2949917623,
				"y": 1.3343986685,
				"z": -3.5239141838,
				"element": "N" 
			},
			{
				"x": -0.4037859687,
				"y": 2.5152398856,
				"z": -3.1823346203,
				"element": "O" 
			},
			{
				"x": -0.8898217762,
				"y": 0.8299872372,
				"z": -4.4807157329,
				"element": "O" 
			},
			{
				"x": -2.5422239125,
				"y": 0.6642049635,
				"z": 5.3516695603,
				"element": "H" 
			},
			{
				"x": -1.3767849679,
				"y": 1.6615303612,
				"z": 4.4702741047,
				"element": "H" 
			},
			{
				"x": -0.8411161196,
				"y": 0.6605091099,
				"z": 5.8375908762,
				"element": "H" 
			},
			{
				"x": -3.2698395557,
				"y": -1.0511552788,
				"z": 4.3847458128,
				"element": "H" 
			},
			{
				"x": -2.6724758418,
				"y": -1.3710926879,
				"z": 2.7504897704,
				"element": "H" 
			},
			{
				"x": -2.1329543493,
				"y": -2.3785681712,
				"z": 4.1117123571,
				"element": "H" 
			},
			{
				"x": 0.8691179927,
				"y": 1.1370770065,
				"z": 4.3656689994,
				"element": "H" 
			},
			{
				"x": 3.0159090971,
				"y": 0.8153904166,
				"z": 3.2834233475,
				"element": "H" 
			},
			{
				"x": 1.5007655022,
				"y": -2.6516576316,
				"z": 1.2453658823,
				"element": "H" 
			},
			{
				"x": -0.6376597531,
				"y": -2.3874051119,
				"z": 2.3563652191,
				"element": "H" 
			},
			{
				"x": 3.4937063862,
				"y": -2.7534523904,
				"z": -1.1310129423,
				"element": "H" 
			},
			{
				"x": 2.6777599378,
				"y": 0.6242036958,
				"z": -0.0845113839,
				"element": "H" 
			},
			{
				"x": 1.1715314675,
				"y": 2.0627725601,
				"z": -1.427647972,
				"element": "H" 
			},
			{
				"x": 0.1802878625,
				"y": -1.2534328059,
				"z": -3.9485659173,
				"element": "H" 
			},
			{
				"x": 1.6767630618,
				"y": -2.7262136713,
				"z": -2.6129887372,
				"element": "H" 
			}
		],
		 "valence_orbital": [ 
			{
				"type": "occ",
				"energy": -0.27434,
				"method": "rhf"
			},
			{
				"type": "occ",
				"energy": -0.27083,
				"method": "rhf"
			},
			{
				"type": "occ",
				"energy": -0.26339,
				"method": "rhf"
			},
			{
				"type": "occ",
				"energy": -0.21896,
				"method": "rhf"
			},
			{
				"type": "occ",
				"energy": -0.20574,
				"method": "rhf"
			},
			{
				"type": "unocc",
				"energy": -0.0735,
				"method": "rhf"
			},
			{
				"type": "unocc",
				"energy": -0.05059,
				"method": "rhf"
			},
			{
				"type": "unocc",
				"energy": -0.02054,
				"method": "rhf"
			},
			{
				"type": "unocc",
				"energy": -0.01395,
				"method": "rhf"
			},
			{
				"type": "unocc",
				"energy": -0.00446,
				"method": "rhf"
			}
		],
		"cosmo_sigma_profile": { 
			"-0.025": 0.0,
			"-0.024": 0.0,
			"-0.023": 0.0,
			"-0.022": 0.0,
			"-0.021": 0.0,
			"-0.02": 0.0,
			"-0.019": 0.0,
			"-0.018": 0.0,
			"-0.017": 0.0,
			"-0.016": 0.0115053634443,
			"-0.015": 0.838103515481,
			"-0.014": 1.8030699983,
			"-0.013": 0.826471553799,
			"-0.012": 1.21819666268,
			"-0.011": 1.29579849921,
			"-0.01": 1.10301071849,
			"-0.009": 1.92272589218,
			"-0.008": 2.23749441978,
			"-0.007": 7.34886024076,
			"-0.006": 14.6159587716,
			"-0.005": 24.6606389466,
			"-0.004": 29.3137075879,
			"-0.003": 27.3803583854,
			"-0.002": 31.3436052578,
			"-0.001": 23.7298291485,
			"0.0": 25.9252712282,
			"0.001": 24.6367359011,
			"0.002": 27.697961779,
			"0.003": 24.1550426639,
			"0.004": 21.2043546669,
			"0.005": 16.0266336184,
			"0.006": 6.00530489821,
			"0.007": 5.5433330442,
			"0.008": 10.2515935643,
			"0.009": 8.38553192917,
			"0.01": 5.72057504605,
			"0.011": 3.6707768911,
			"0.012": 0.894944369944,
			"0.013": 0.732986774092,
			"0.014": 0.0732807605573,
			"0.015": 0.0,
			"0.016": 0.0,
			"0.017": 0.0,
			"0.018": 0.0,
			"0.019": 0.0,
			"0.02": 0.0,
			"0.021": 0.0,
			"0.022": 0.0,
			"0.023": 0.0,
			"0.024": 0.0,
			"0.025": 0.0
		}
	}
}
