{
	 "smiles": "CNC1=C(C=C(C=C1)[N+]([O-])=O)C(O)=O", 
	 "Tm": 535.15, 
	 "num_atms": 22, 
	 "gaussian": { 
		 "optdone": 1, 
		 "sigma_profile": "yes", 
		 "theory": "DFT", 
		 "functional": "B3LYP", 
		 "basiset": "6-31G**", 
		 "properties": { 
			 "R2extent": 3756.4628, 
			 "electric_dipole_moment_norm": 8.17989643822, 
			 "electric_quadrupole_moment_norm": 15.8837759179, 
			 "total_energy": -719.980248026, 
			 "HOMO_LUMO_gap": 0.17697, 
			 "cosmo_polarized_energy": -20.26, 
			 "cosmo_cavitation_energy": 27.01, 
			 "cosmo_dispersion_energy": -19.66, 
			 "cosmo_repulsion_energy": 1.54, 
			 "cosmo_total_nonelectrostatic_energy": 8.89, 
			 "SMD_solvation_energy": 8.15 
		},
		"coords": [
			{
				"x": 1.5901060762,
				"y": -0.622329028,
				"z": 1.4376044488,
				"element": "C" 
			},
			{
				"x": 0.1530051171,
				"y": -0.3075525611,
				"z": 1.621021769,
				"element": "N" 
			},
			{
				"x": -0.3805005359,
				"y": 0.631805876,
				"z": 0.6779609067,
				"element": "C" 
			},
			{
				"x": -0.8462914179,
				"y": 0.1760940248,
				"z": -0.5747609219,
				"element": "C" 
			},
			{
				"x": -1.3331842846,
				"y": 1.1050044136,
				"z": -1.4984253316,
				"element": "C" 
			},
			{
				"x": -1.3837684011,
				"y": 2.4507620503,
				"z": -1.1597111604,
				"element": "C" 
			},
			{
				"x": -0.9620761549,
				"y": 2.9140059234,
				"z": 0.0857433957,
				"element": "C" 
			},
			{
				"x": -0.4527179281,
				"y": 1.9955880373,
				"z": 0.9957140695,
				"element": "C" 
			},
			{
				"x": -1.908634005,
				"y": 3.4195064296,
				"z": -2.1370264239,
				"element": "N" 
			},
			{
				"x": -2.2671870803,
				"y": 2.9887422482,
				"z": -3.2300262443,
				"element": "O" 
			},
			{
				"x": -1.9526775734,
				"y": 4.6009673789,
				"z": -1.7937812433,
				"element": "O" 
			},
			{
				"x": -0.9244669737,
				"y": -1.2807649554,
				"z": -0.9884184523,
				"element": "C" 
			},
			{
				"x": -0.7435115704,
				"y": -2.1916051116,
				"z": -0.0213726914,
				"element": "O" 
			},
			{
				"x": -1.168672105,
				"y": -1.5995148523,
				"z": -2.1306586285,
				"element": "O" 
			},
			{
				"x": 1.8965400766,
				"y": -1.3169866193,
				"z": 2.2230926599,
				"element": "H" 
			},
			{
				"x": 2.2260894921,
				"y": 0.27116255,
				"z": 1.4754615241,
				"element": "H" 
			},
			{
				"x": 1.7310938849,
				"y": -1.1147390492,
				"z": 0.4736097225,
				"element": "H" 
			},
			{
				"x": -0.0006087386,
				"y": 0.0319616438,
				"z": 2.5664465724,
				"element": "H" 
			},
			{
				"x": -1.6840087905,
				"y": 0.7589372657,
				"z": -2.4625814009,
				"element": "H" 
			},
			{
				"x": -1.0258349761,
				"y": 3.9706254184,
				"z": 0.3134900678,
				"element": "H" 
			},
			{
				"x": -0.095226842,
				"y": 2.3364702621,
				"z": 1.9636947522,
				"element": "H" 
			},
			{
				"x": -0.5596672693,
				"y": -1.7201413452,
				"z": 0.8321226099,
				"element": "H" 
			}
		],
		 "valence_orbital": [ 
			{
				"type": "occ",
				"energy": -0.31293,
				"method": "rhf"
			},
			{
				"type": "occ",
				"energy": -0.29784,
				"method": "rhf"
			},
			{
				"type": "occ",
				"energy": -0.29133,
				"method": "rhf"
			},
			{
				"type": "occ",
				"energy": -0.27597,
				"method": "rhf"
			},
			{
				"type": "occ",
				"energy": -0.27519,
				"method": "rhf"
			},
			{
				"type": "unocc",
				"energy": -0.09822,
				"method": "rhf"
			},
			{
				"type": "unocc",
				"energy": -0.06476,
				"method": "rhf"
			},
			{
				"type": "unocc",
				"energy": -0.02154,
				"method": "rhf"
			},
			{
				"type": "unocc",
				"energy": 0.04637,
				"method": "rhf"
			},
			{
				"type": "unocc",
				"energy": 0.04851,
				"method": "rhf"
			}
		],
		"cosmo_sigma_profile": { 
			"-0.025": 0.0,
			"-0.024": 0.0,
			"-0.023": 0.0,
			"-0.022": 0.0,
			"-0.021": 0.0,
			"-0.02": 0.0,
			"-0.019": 0.0,
			"-0.018": 0.0,
			"-0.017": 0.0,
			"-0.016": 0.0,
			"-0.015": 0.0503735814998,
			"-0.014": 1.17846476581,
			"-0.013": 1.94349035924,
			"-0.012": 1.8081071365,
			"-0.011": 1.74690232753,
			"-0.01": 1.7913101439,
			"-0.009": 2.29594179727,
			"-0.008": 4.61652609861,
			"-0.007": 7.89601327979,
			"-0.006": 10.7086106698,
			"-0.005": 14.4720326678,
			"-0.004": 16.7851052709,
			"-0.003": 19.845134767,
			"-0.002": 21.853295848,
			"-0.001": 17.7499375552,
			"0.0": 13.0754315644,
			"0.001": 6.6928780963,
			"0.002": 4.91300694492,
			"0.003": 4.64432771026,
			"0.004": 4.38815383997,
			"0.005": 5.16438788168,
			"0.006": 6.42052078599,
			"0.007": 10.378015697,
			"0.008": 9.21193065562,
			"0.009": 7.04813424949,
			"0.01": 6.44924089629,
			"0.011": 5.77060967146,
			"0.012": 4.88094428646,
			"0.013": 1.93799811828,
			"0.014": 0.17879447003,
			"0.015": 0.0,
			"0.016": 0.0,
			"0.017": 0.0,
			"0.018": 0.0,
			"0.019": 0.0,
			"0.02": 0.0,
			"0.021": 0.0,
			"0.022": 0.0,
			"0.023": 0.0,
			"0.024": 0.0,
			"0.025": 0.0
		}
	}
}
