{
	 "smiles": "[O-][N+](=O)C1=CC(C=O)=CC=C1SCC1=CC=CO1", 
	 "Tm": 427.15, 
	 "num_atms": 27, 
	 "gaussian": { 
		 "optdone": 1, 
		 "sigma_profile": "yes", 
		 "theory": "DFT", 
		 "functional": "B3LYP", 
		 "basiset": "6-31G**", 
		 "properties": { 
			 "R2extent": 5388.7583, 
			 "electric_dipole_moment_norm": 5.4561994465, 
			 "electric_quadrupole_moment_norm": 8.54190832777, 
			 "total_energy": -1216.38486309, 
			 "HOMO_LUMO_gap": 0.12968, 
			 "cosmo_polarized_energy": -14.72, 
			 "cosmo_cavitation_energy": 35.02, 
			 "cosmo_dispersion_energy": -24.05, 
			 "cosmo_repulsion_energy": 1.82, 
			 "cosmo_total_nonelectrostatic_energy": 12.8, 
			 "SMD_solvation_energy": 9.54 
		},
		"coords": [
			{
				"x": -0.6021776134,
				"y": 2.0070385293,
				"z": 2.3809777849,
				"element": "O" 
			},
			{
				"x": -1.3929613953,
				"y": 1.0858329494,
				"z": 2.1888615135,
				"element": "N" 
			},
			{
				"x": -2.3390258031,
				"y": 0.8038156368,
				"z": 2.9194878589,
				"element": "O" 
			},
			{
				"x": -1.1782019834,
				"y": 0.2201549794,
				"z": 1.0135762729,
				"element": "C" 
			},
			{
				"x": -1.4028856666,
				"y": -1.1346312366,
				"z": 1.2165106894,
				"element": "C" 
			},
			{
				"x": -1.1963342986,
				"y": -2.0352792111,
				"z": 0.1663131817,
				"element": "C" 
			},
			{
				"x": -1.4098759992,
				"y": -3.4885923782,
				"z": 0.3844305051,
				"element": "C" 
			},
			{
				"x": -1.7427279624,
				"y": -3.976559198,
				"z": 1.4452445091,
				"element": "O" 
			},
			{
				"x": -0.7975805592,
				"y": -1.5542007201,
				"z": -1.084405461,
				"element": "C" 
			},
			{
				"x": -0.6027739864,
				"y": -0.1887828391,
				"z": -1.2821896977,
				"element": "C" 
			},
			{
				"x": -0.7765290773,
				"y": 0.735202399,
				"z": -0.2398221368,
				"element": "C" 
			},
			{
				"x": -0.630398869,
				"y": 2.4737050095,
				"z": -0.6383134336,
				"element": "S" 
			},
			{
				"x": 1.1106986008,
				"y": 2.8571056724,
				"z": -0.0639451415,
				"element": "C" 
			},
			{
				"x": 2.1805889465,
				"y": 2.1840735605,
				"z": -0.8288499835,
				"element": "C" 
			},
			{
				"x": 2.9738560062,
				"y": 1.1011815576,
				"z": -0.5683053611,
				"element": "C" 
			},
			{
				"x": 3.8151566903,
				"y": 0.923704463,
				"z": -1.7145665788,
				"element": "C" 
			},
			{
				"x": 3.468498272,
				"y": 1.9072366825,
				"z": -2.5899125194,
				"element": "C" 
			},
			{
				"x": 2.4763803718,
				"y": 2.6826954906,
				"z": -2.0694605723,
				"element": "O" 
			},
			{
				"x": -1.7351009113,
				"y": -1.498878966,
				"z": 2.1818460979,
				"element": "H" 
			},
			{
				"x": -1.2395087624,
				"y": -4.1217193984,
				"z": -0.5134240709,
				"element": "H" 
			},
			{
				"x": -0.6430279042,
				"y": -2.2487478556,
				"z": -1.9064793101,
				"element": "H" 
			},
			{
				"x": -0.3137783477,
				"y": 0.1885026504,
				"z": -2.2564249188,
				"element": "H" 
			},
			{
				"x": 1.161456972,
				"y": 2.6090315605,
				"z": 0.9951402212,
				"element": "H" 
			},
			{
				"x": 1.1648908753,
				"y": 3.9434703703,
				"z": -0.1773873709,
				"element": "H" 
			},
			{
				"x": 2.9653283982,
				"y": 0.5102228975,
				"z": 0.3365057664,
				"element": "H" 
			},
			{
				"x": 4.5757870174,
				"y": 0.1703540695,
				"z": -1.8604076984,
				"element": "H" 
			},
			{
				"x": 3.8182469888,
				"y": 2.1876633249,
				"z": -3.5714001465,
				"element": "H" 
			}
		],
		 "valence_orbital": [ 
			{
				"type": "occ",
				"energy": -0.28779,
				"method": "rhf"
			},
			{
				"type": "occ",
				"energy": -0.28565,
				"method": "rhf"
			},
			{
				"type": "occ",
				"energy": -0.27648,
				"method": "rhf"
			},
			{
				"type": "occ",
				"energy": -0.24822,
				"method": "rhf"
			},
			{
				"type": "occ",
				"energy": -0.22967,
				"method": "rhf"
			},
			{
				"type": "unocc",
				"energy": -0.09999,
				"method": "rhf"
			},
			{
				"type": "unocc",
				"energy": -0.08571,
				"method": "rhf"
			},
			{
				"type": "unocc",
				"energy": -0.02981,
				"method": "rhf"
			},
			{
				"type": "unocc",
				"energy": -0.01565,
				"method": "rhf"
			},
			{
				"type": "unocc",
				"energy": 0.00896,
				"method": "rhf"
			}
		],
		"cosmo_sigma_profile": { 
			"-0.025": 0.0,
			"-0.024": 0.0,
			"-0.023": 0.0,
			"-0.022": 0.0,
			"-0.021": 0.0,
			"-0.02": 0.0,
			"-0.019": 0.0,
			"-0.018": 0.0,
			"-0.017": 0.0,
			"-0.016": 0.0,
			"-0.015": 0.0,
			"-0.014": 0.0,
			"-0.013": 0.0,
			"-0.012": 0.0,
			"-0.011": 0.000930790816678,
			"-0.01": 0.851686704366,
			"-0.009": 4.44462980514,
			"-0.008": 10.7322327558,
			"-0.007": 15.3847563272,
			"-0.006": 14.8388421523,
			"-0.005": 15.8816560125,
			"-0.004": 17.2228403435,
			"-0.003": 20.3232026871,
			"-0.002": 21.34419065,
			"-0.001": 22.8923476977,
			"0.0": 17.3594865028,
			"0.001": 14.9849459559,
			"0.002": 14.1498002517,
			"0.003": 16.0572483553,
			"0.004": 14.2981561578,
			"0.005": 13.3351382423,
			"0.006": 11.021255987,
			"0.007": 13.5062676631,
			"0.008": 10.596301972,
			"0.009": 6.37635205777,
			"0.01": 3.88491981565,
			"0.011": 3.29776563288,
			"0.012": 0.955536554581,
			"0.013": 0.00435224761568,
			"0.014": 0.0,
			"0.015": 0.0,
			"0.016": 0.0,
			"0.017": 0.0,
			"0.018": 0.0,
			"0.019": 0.0,
			"0.02": 0.0,
			"0.021": 0.0,
			"0.022": 0.0,
			"0.023": 0.0,
			"0.024": 0.0,
			"0.025": 0.0
		}
	}
}
