{
	 "smiles": "COC1=CC=C(F)C(F)=C1C#N", 
	 "Tm": 354.15, 
	 "num_atms": 17, 
	 "gaussian": { 
		 "optdone": 1, 
		 "sigma_profile": "yes", 
		 "theory": "DFT", 
		 "functional": "B3LYP", 
		 "basiset": "6-31G**", 
		 "properties": { 
			 "R2extent": 2125.473, 
			 "electric_dipole_moment_norm": 6.28920684188, 
			 "electric_quadrupole_moment_norm": 10.1066485731, 
			 "total_energy": -637.464986131, 
			 "HOMO_LUMO_gap": 0.18508, 
			 "cosmo_polarized_energy": -11.41, 
			 "cosmo_cavitation_energy": 23.77, 
			 "cosmo_dispersion_energy": -16.61, 
			 "cosmo_repulsion_energy": 1.29, 
			 "cosmo_total_nonelectrostatic_energy": 8.45, 
			 "SMD_solvation_energy": 7.27 
		},
		"coords": [
			{
				"x": 2.1239879956,
				"y": 1.1430269056,
				"z": -1.8826778195,
				"element": "C" 
			},
			{
				"x": 1.0663829758,
				"y": 1.2645348571,
				"z": -0.9378641091,
				"element": "O" 
			},
			{
				"x": 0.6657690348,
				"y": 0.1616872834,
				"z": -0.2670727568,
				"element": "C" 
			},
			{
				"x": 1.2099214751,
				"y": -1.1169218643,
				"z": -0.422272382,
				"element": "C" 
			},
			{
				"x": 0.7137285738,
				"y": -2.1868371208,
				"z": 0.328073551,
				"element": "C" 
			},
			{
				"x": -0.3192999366,
				"y": -1.9932943683,
				"z": 1.2309727745,
				"element": "C" 
			},
			{
				"x": -0.8043515182,
				"y": -3.0136066297,
				"z": 1.9575529392,
				"element": "F" 
			},
			{
				"x": -0.8692960771,
				"y": -0.7243738178,
				"z": 1.3941875404,
				"element": "C" 
			},
			{
				"x": -1.864296828,
				"y": -0.547564313,
				"z": 2.2664470313,
				"element": "F" 
			},
			{
				"x": -0.3921212386,
				"y": 0.3638365809,
				"z": 0.6564594012,
				"element": "C" 
			},
			{
				"x": -0.9717746891,
				"y": 1.6551853779,
				"z": 0.8410995911,
				"element": "C" 
			},
			{
				"x": -1.4500886836,
				"y": 2.7032480232,
				"z": 0.9982342023,
				"element": "N" 
			},
			{
				"x": 1.8581051188,
				"y": 0.4541943009,
				"z": -2.6934784349,
				"element": "H" 
			},
			{
				"x": 2.270500285,
				"y": 2.1431612121,
				"z": -2.2902579112,
				"element": "H" 
			},
			{
				"x": 3.0507349078,
				"y": 0.8051397711,
				"z": -1.4035599574,
				"element": "H" 
			},
			{
				"x": 2.0171866397,
				"y": -1.2919119146,
				"z": -1.1213012441,
				"element": "H" 
			},
			{
				"x": 1.1276119647,
				"y": -3.1832042836,
				"z": 0.2165575842,
				"element": "H" 
			}
		],
		 "valence_orbital": [ 
			{
				"type": "occ",
				"energy": -0.35478,
				"method": "rhf"
			},
			{
				"type": "occ",
				"energy": -0.33821,
				"method": "rhf"
			},
			{
				"type": "occ",
				"energy": -0.33208,
				"method": "rhf"
			},
			{
				"type": "occ",
				"energy": -0.27244,
				"method": "rhf"
			},
			{
				"type": "occ",
				"energy": -0.24444,
				"method": "rhf"
			},
			{
				"type": "unocc",
				"energy": -0.05936,
				"method": "rhf"
			},
			{
				"type": "unocc",
				"energy": -0.01271,
				"method": "rhf"
			},
			{
				"type": "unocc",
				"energy": 0.02773,
				"method": "rhf"
			},
			{
				"type": "unocc",
				"energy": 0.05355,
				"method": "rhf"
			},
			{
				"type": "unocc",
				"energy": 0.07319,
				"method": "rhf"
			}
		],
		"cosmo_sigma_profile": { 
			"-0.025": 0.0,
			"-0.024": 0.0,
			"-0.023": 0.0,
			"-0.022": 0.0,
			"-0.021": 0.0,
			"-0.02": 0.0,
			"-0.019": 0.0,
			"-0.018": 0.0,
			"-0.017": 0.0,
			"-0.016": 0.0,
			"-0.015": 0.0,
			"-0.014": 0.0,
			"-0.013": 0.0,
			"-0.012": 0.0,
			"-0.011": 0.0,
			"-0.01": 0.0831778593133,
			"-0.009": 2.0666459234,
			"-0.008": 4.98112126841,
			"-0.007": 8.58770695534,
			"-0.006": 11.439484921,
			"-0.005": 10.1040912526,
			"-0.004": 11.7721289446,
			"-0.003": 13.9852492612,
			"-0.002": 16.9140795173,
			"-0.001": 17.3063202669,
			"0.0": 12.2254430493,
			"0.001": 9.98396027161,
			"0.002": 16.8076080767,
			"0.003": 17.9393186145,
			"0.004": 7.14604996871,
			"0.005": 4.20991526503,
			"0.006": 4.53492512757,
			"0.007": 6.17402552503,
			"0.008": 4.17489263431,
			"0.009": 3.75510962909,
			"0.01": 2.56174758812,
			"0.011": 2.7732063894,
			"0.012": 2.31503658224,
			"0.013": 0.679191474368,
			"0.014": 0.0,
			"0.015": 0.0,
			"0.016": 0.0,
			"0.017": 0.0,
			"0.018": 0.0,
			"0.019": 0.0,
			"0.02": 0.0,
			"0.021": 0.0,
			"0.022": 0.0,
			"0.023": 0.0,
			"0.024": 0.0,
			"0.025": 0.0
		}
	}
}
