{
	 "smiles": "NCC1=CC2=CC=CC(Br)=C2C=C1", 
	 "Tm": 385.15, 
	 "num_atms": 23, 
	 "gaussian": { 
		 "optdone": 1, 
		 "sigma_profile": "yes", 
		 "theory": "DFT", 
		 "functional": "B3LYP", 
		 "basiset": "6-31G**", 
		 "properties": { 
			 "R2extent": 5666.975, 
			 "electric_dipole_moment_norm": 1.13664737716, 
			 "electric_quadrupole_moment_norm": 13.9681759539, 
			 "total_energy": -3051.36166952, 
			 "HOMO_LUMO_gap": 0.17018, 
			 "cosmo_polarized_energy": -8.57, 
			 "cosmo_cavitation_energy": 28.6, 
			 "cosmo_dispersion_energy": -21.43, 
			 "cosmo_repulsion_energy": 1.68, 
			 "cosmo_total_nonelectrostatic_energy": 8.85, 
			 "SMD_solvation_energy": 2.0 
		},
		"coords": [
			{
				"x": 2.4175409432,
				"y": -1.3658969593,
				"z": -1.145094312,
				"element": "N" 
			},
			{
				"x": 1.317133976,
				"y": -0.635534407,
				"z": -1.7933461499,
				"element": "C" 
			},
			{
				"x": 0.4197659284,
				"y": 0.1586307713,
				"z": -0.8603829736,
				"element": "C" 
			},
			{
				"x": 0.4996112973,
				"y": 1.5327012168,
				"z": -0.7771859191,
				"element": "C" 
			},
			{
				"x": -0.3007228278,
				"y": 2.2823798722,
				"z": 0.1274808734,
				"element": "C" 
			},
			{
				"x": -0.2069032281,
				"y": 3.6970848073,
				"z": 0.2023410504,
				"element": "C" 
			},
			{
				"x": -0.9887592129,
				"y": 4.4074611166,
				"z": 1.0830359544,
				"element": "C" 
			},
			{
				"x": -1.9016866133,
				"y": 3.7377278343,
				"z": 1.930221482,
				"element": "C" 
			},
			{
				"x": -2.0084967586,
				"y": 2.3671792233,
				"z": 1.8723998775,
				"element": "C" 
			},
			{
				"x": -3.2652790024,
				"y": 1.5192239686,
				"z": 3.0471762976,
				"element": "Br" 
			},
			{
				"x": -1.2228507752,
				"y": 1.584108423,
				"z": 0.9794001938,
				"element": "C" 
			},
			{
				"x": -1.296251837,
				"y": 0.1686614084,
				"z": 0.8757443535,
				"element": "C" 
			},
			{
				"x": -0.5018798389,
				"y": -0.5157901722,
				"z": -0.0126265708,
				"element": "C" 
			},
			{
				"x": 2.9666372745,
				"y": -0.7160815019,
				"z": -0.5855730769,
				"element": "H" 
			},
			{
				"x": 2.0381688305,
				"y": -2.0436781955,
				"z": -0.4870589549,
				"element": "H" 
			},
			{
				"x": 1.7540215792,
				"y": 0.0383754285,
				"z": -2.5385994246,
				"element": "H" 
			},
			{
				"x": 0.7183237714,
				"y": -1.368546886,
				"z": -2.3473326638,
				"element": "H" 
			},
			{
				"x": 1.1909490472,
				"y": 2.0743269963,
				"z": -1.419888435,
				"element": "H" 
			},
			{
				"x": 0.4950978886,
				"y": 4.2092553154,
				"z": -0.44987722,
				"element": "H" 
			},
			{
				"x": -0.914060626,
				"y": 5.4893220839,
				"z": 1.1374367312,
				"element": "H" 
			},
			{
				"x": -2.5162188349,
				"y": 4.3005485092,
				"z": 2.6232223729,
				"element": "H" 
			},
			{
				"x": -1.9967592407,
				"y": -0.3655611229,
				"z": 1.5073294465,
				"element": "H" 
			},
			{
				"x": -0.5842817406,
				"y": -1.5987977302,
				"z": -0.0760229325,
				"element": "H" 
			}
		],
		 "valence_orbital": [ 
			{
				"type": "occ",
				"energy": -0.28674,
				"method": "rhf"
			},
			{
				"type": "occ",
				"energy": -0.27167,
				"method": "rhf"
			},
			{
				"type": "occ",
				"energy": -0.25706,
				"method": "rhf"
			},
			{
				"type": "occ",
				"energy": -0.23621,
				"method": "rhf"
			},
			{
				"type": "occ",
				"energy": -0.21901,
				"method": "rhf"
			},
			{
				"type": "unocc",
				"energy": -0.04883,
				"method": "rhf"
			},
			{
				"type": "unocc",
				"energy": -0.02088,
				"method": "rhf"
			},
			{
				"type": "unocc",
				"energy": 0.00837,
				"method": "rhf"
			},
			{
				"type": "unocc",
				"energy": 0.02386,
				"method": "rhf"
			},
			{
				"type": "unocc",
				"energy": 0.07607,
				"method": "rhf"
			}
		],
		"cosmo_sigma_profile": { 
			"-0.025": 0.0,
			"-0.024": 0.0,
			"-0.023": 0.0,
			"-0.022": 0.0,
			"-0.021": 0.0,
			"-0.02": 0.0,
			"-0.019": 0.0,
			"-0.018": 0.0,
			"-0.017": 0.0,
			"-0.016": 0.0,
			"-0.015": 0.0,
			"-0.014": 0.0,
			"-0.013": 0.0,
			"-0.012": 0.0,
			"-0.011": 0.0,
			"-0.01": 0.511681236879,
			"-0.009": 2.60336162833,
			"-0.008": 3.24532856541,
			"-0.007": 6.27496826265,
			"-0.006": 13.7030946517,
			"-0.005": 15.6400799451,
			"-0.004": 20.001980918,
			"-0.003": 15.4712862964,
			"-0.002": 13.5919143526,
			"-0.001": 12.9985985261,
			"0.0": 14.4376469797,
			"0.001": 14.4660628016,
			"0.002": 22.7366723887,
			"0.003": 30.4504699388,
			"0.004": 26.0831937372,
			"0.005": 8.19917869819,
			"0.006": 1.10426812573,
			"0.007": 1.11734455189,
			"0.008": 0.913289246588,
			"0.009": 0.508366953238,
			"0.01": 0.821421529107,
			"0.011": 0.849568068013,
			"0.012": 0.540738409039,
			"0.013": 0.307217061139,
			"0.014": 0.826983959017,
			"0.015": 0.668616387701,
			"0.016": 0.831841905419,
			"0.017": 0.429402919289,
			"0.018": 0.686538565152,
			"0.019": 0.690896154417,
			"0.02": 0.216688665005,
			"0.021": 0.0,
			"0.022": 0.0,
			"0.023": 0.0,
			"0.024": 0.0,
			"0.025": 0.0
		}
	}
}
