{
	 "smiles": "CCCCCCOC1=CC=C(C=C1)C(O)=O", 
	 "Tm": 377.15, 
	 "num_atms": 34, 
	 "gaussian": { 
		 "optdone": 1, 
		 "sigma_profile": "yes", 
		 "theory": "DFT", 
		 "functional": "B3LYP", 
		 "basiset": "6-31G**", 
		 "properties": { 
			 "R2extent": 8696.7004, 
			 "electric_dipole_moment_norm": 5.77649908595, 
			 "electric_quadrupole_moment_norm": 37.1389210581, 
			 "total_energy": -731.92498408, 
			 "HOMO_LUMO_gap": 0.1971, 
			 "cosmo_polarized_energy": -15.18, 
			 "cosmo_cavitation_energy": 37.2, 
			 "cosmo_dispersion_energy": -26.62, 
			 "cosmo_repulsion_energy": 2.12, 
			 "cosmo_total_nonelectrostatic_energy": 12.71, 
			 "SMD_solvation_energy": 7.16 
		},
		"coords": [
			{
				"x": 3.9752625833,
				"y": 2.187773206,
				"z": -1.1357405268,
				"element": "C" 
			},
			{
				"x": 3.2911493444,
				"y": 1.8997476837,
				"z": -2.4775282095,
				"element": "C" 
			},
			{
				"x": 1.7631070418,
				"y": 1.749546793,
				"z": -2.3936358084,
				"element": "C" 
			},
			{
				"x": 1.2858663423,
				"y": 0.530379614,
				"z": -1.592838761,
				"element": "C" 
			},
			{
				"x": -0.2413942196,
				"y": 0.3863584935,
				"z": -1.5838798441,
				"element": "C" 
			},
			{
				"x": -0.7434022209,
				"y": -0.8132823358,
				"z": -0.7922427478,
				"element": "C" 
			},
			{
				"x": -0.3859148619,
				"y": -0.6177617126,
				"z": 0.5811173949,
				"element": "O" 
			},
			{
				"x": -0.7167860436,
				"y": -1.5654965485,
				"z": 1.4930920667,
				"element": "C" 
			},
			{
				"x": -1.3981121597,
				"y": -2.7566260727,
				"z": 1.1971927752,
				"element": "C" 
			},
			{
				"x": -1.686417384,
				"y": -3.6556571024,
				"z": 2.2198375845,
				"element": "C" 
			},
			{
				"x": -1.2962443399,
				"y": -3.406024839,
				"z": 3.5407726102,
				"element": "C" 
			},
			{
				"x": -0.6275192819,
				"y": -2.2021458446,
				"z": 3.8255127348,
				"element": "C" 
			},
			{
				"x": -0.3402125761,
				"y": -1.292485742,
				"z": 2.819248918,
				"element": "C" 
			},
			{
				"x": -1.6478818869,
				"y": -4.4240958072,
				"z": 4.5749827259,
				"element": "C" 
			},
			{
				"x": -0.9734529656,
				"y": -4.3584790979,
				"z": 5.7579698463,
				"element": "O" 
			},
			{
				"x": -2.482913851,
				"y": -5.2840786946,
				"z": 4.4107056138,
				"element": "O" 
			},
			{
				"x": 5.0522690324,
				"y": 2.3348723529,
				"z": -1.2670918928,
				"element": "H" 
			},
			{
				"x": 3.5703020998,
				"y": 3.0960049055,
				"z": -0.6740976987,
				"element": "H" 
			},
			{
				"x": 3.8419025925,
				"y": 1.3672577349,
				"z": -0.4233582474,
				"element": "H" 
			},
			{
				"x": 3.7192838846,
				"y": 0.9891479746,
				"z": -2.9188618353,
				"element": "H" 
			},
			{
				"x": 3.5239661158,
				"y": 2.7124360079,
				"z": -3.1772302353,
				"element": "H" 
			},
			{
				"x": 1.3344407005,
				"y": 2.6616623017,
				"z": -1.9538254544,
				"element": "H" 
			},
			{
				"x": 1.3575047386,
				"y": 1.6854056365,
				"z": -3.4128422515,
				"element": "H" 
			},
			{
				"x": 1.6386647674,
				"y": 0.5923881692,
				"z": -0.5579285562,
				"element": "H" 
			},
			{
				"x": 1.7320552393,
				"y": -0.3804540189,
				"z": -2.018445053,
				"element": "H" 
			},
			{
				"x": -0.7019309187,
				"y": 1.2932491658,
				"z": -1.1722309227,
				"element": "H" 
			},
			{
				"x": -0.6148541187,
				"y": 0.2843076195,
				"z": -2.6114951368,
				"element": "H" 
			},
			{
				"x": -1.8343327298,
				"y": -0.9083146092,
				"z": -0.8778700372,
				"element": "H" 
			},
			{
				"x": -0.2887795803,
				"y": -1.7430941507,
				"z": -1.1629312346,
				"element": "H" 
			},
			{
				"x": -1.706217707,
				"y": -2.9850411444,
				"z": 0.1843043036,
				"element": "H" 
			},
			{
				"x": -2.2219055944,
				"y": -4.5751892281,
				"z": 2.0088348454,
				"element": "H" 
			},
			{
				"x": -0.35743574,
				"y": -1.9415658579,
				"z": 4.8464405644,
				"element": "H" 
			},
			{
				"x": 0.1657526671,
				"y": -0.3566231422,
				"z": 3.0309851334,
				"element": "H" 
			},
			{
				"x": -0.2299189698,
				"y": -3.7451217101,
				"z": 5.6830773362,
				"element": "H" 
			}
		],
		 "valence_orbital": [ 
			{
				"type": "occ",
				"energy": -0.3171,
				"method": "rhf"
			},
			{
				"type": "occ",
				"energy": -0.30619,
				"method": "rhf"
			},
			{
				"type": "occ",
				"energy": -0.26978,
				"method": "rhf"
			},
			{
				"type": "occ",
				"energy": -0.26575,
				"method": "rhf"
			},
			{
				"type": "occ",
				"energy": -0.23518,
				"method": "rhf"
			},
			{
				"type": "unocc",
				"energy": -0.03808,
				"method": "rhf"
			},
			{
				"type": "unocc",
				"energy": -0.01912,
				"method": "rhf"
			},
			{
				"type": "unocc",
				"energy": 0.05781,
				"method": "rhf"
			},
			{
				"type": "unocc",
				"energy": 0.06664,
				"method": "rhf"
			},
			{
				"type": "unocc",
				"energy": 0.08234,
				"method": "rhf"
			}
		],
		"cosmo_sigma_profile": { 
			"-0.025": 0.0,
			"-0.024": 0.0,
			"-0.023": 0.0,
			"-0.022": 0.0,
			"-0.021": 0.0,
			"-0.02": 0.0,
			"-0.019": 0.072806635905,
			"-0.018": 0.828080625407,
			"-0.017": 0.990631811521,
			"-0.016": 1.18717428687,
			"-0.015": 0.811937057898,
			"-0.014": 0.515210301565,
			"-0.013": 0.573208512704,
			"-0.012": 1.76064158373,
			"-0.011": 1.23257779142,
			"-0.01": 0.911142017627,
			"-0.009": 1.47014596769,
			"-0.008": 1.65389933811,
			"-0.007": 3.92278400527,
			"-0.006": 8.92809394074,
			"-0.005": 12.9647272601,
			"-0.004": 14.6315337441,
			"-0.003": 19.344852794,
			"-0.002": 31.7644882328,
			"-0.001": 34.6004185744,
			"0.0": 35.5639773329,
			"0.001": 31.8197176036,
			"0.002": 21.1280579265,
			"0.003": 16.7051920569,
			"0.004": 10.6921967774,
			"0.005": 4.46973651105,
			"0.006": 4.23462676023,
			"0.007": 3.76274159241,
			"0.008": 3.01520654576,
			"0.009": 4.00754346568,
			"0.01": 3.89874975784,
			"0.011": 5.16244281213,
			"0.012": 5.86177753769,
			"0.013": 2.75899750698,
			"0.014": 0.355461236074,
			"0.015": 0.0,
			"0.016": 0.0,
			"0.017": 0.0,
			"0.018": 0.0,
			"0.019": 0.0,
			"0.02": 0.0,
			"0.021": 0.0,
			"0.022": 0.0,
			"0.023": 0.0,
			"0.024": 0.0,
			"0.025": 0.0
		}
	}
}
