{
	 "smiles": "CCOC(=O)C=CC1=C(Cl)C(OC)=C(OC)C=C1", 
	 "Tm": 341.65, 
	 "num_atms": 33, 
	 "gaussian": { 
		 "optdone": 1, 
		 "sigma_profile": "yes", 
		 "theory": "DFT", 
		 "functional": "B3LYP", 
		 "basiset": "6-31G**", 
		 "properties": { 
			 "R2extent": 7685.1502, 
			 "electric_dipole_moment_norm": 0.733574072606, 
			 "electric_quadrupole_moment_norm": 15.8174688282, 
			 "total_energy": -1265.47222735, 
			 "HOMO_LUMO_gap": 0.159, 
			 "cosmo_polarized_energy": -8.73, 
			 "cosmo_cavitation_energy": 38.53, 
			 "cosmo_dispersion_energy": -27.55, 
			 "cosmo_repulsion_energy": 2.16, 
			 "cosmo_total_nonelectrostatic_energy": 13.13, 
			 "SMD_solvation_energy": 9.0 
		},
		"coords": [
			{
				"x": 2.3215476779,
				"y": 2.9661963626,
				"z": 3.9708953487,
				"element": "C" 
			},
			{
				"x": 2.3816509575,
				"y": 1.4572451687,
				"z": 4.1617371667,
				"element": "C" 
			},
			{
				"x": 2.7178111732,
				"y": 0.7824366073,
				"z": 2.9296614002,
				"element": "O" 
			},
			{
				"x": 1.6895349046,
				"y": 0.506694801,
				"z": 2.0850731417,
				"element": "C" 
			},
			{
				"x": 0.53384708,
				"y": 0.8032947399,
				"z": 2.346322175,
				"element": "O" 
			},
			{
				"x": 2.2280317361,
				"y": -0.1740294119,
				"z": 0.8922589866,
				"element": "C" 
			},
			{
				"x": 1.645116961,
				"y": -0.614924293,
				"z": -0.2504943528,
				"element": "C" 
			},
			{
				"x": 0.2856898881,
				"y": -0.633381076,
				"z": -0.78967474,
				"element": "C" 
			},
			{
				"x": 0.0651400875,
				"y": -1.1130965054,
				"z": -2.1091653145,
				"element": "C" 
			},
			{
				"x": 1.3934039095,
				"y": -1.6408770334,
				"z": -3.1350076103,
				"element": "Cl" 
			},
			{
				"x": -1.2138171826,
				"y": -1.1814546915,
				"z": -2.6738434727,
				"element": "C" 
			},
			{
				"x": -1.3899938084,
				"y": -1.6730096888,
				"z": -3.9410169764,
				"element": "O" 
			},
			{
				"x": -1.6431728084,
				"y": -0.6712382302,
				"z": -4.9377363867,
				"element": "C" 
			},
			{
				"x": -2.3235600923,
				"y": -0.7706354224,
				"z": -1.9093145951,
				"element": "C" 
			},
			{
				"x": -3.5894273451,
				"y": -0.7914874616,
				"z": -2.4326389221,
				"element": "O" 
			},
			{
				"x": -4.1348812277,
				"y": -2.0928311919,
				"z": -2.6981662681,
				"element": "C" 
			},
			{
				"x": -2.1277005556,
				"y": -0.2773921857,
				"z": -0.6201496305,
				"element": "C" 
			},
			{
				"x": -0.8529825326,
				"y": -0.2076254075,
				"z": -0.0745894344,
				"element": "C" 
			},
			{
				"x": 1.5072592774,
				"y": 3.2352948042,
				"z": 3.2939059481,
				"element": "H" 
			},
			{
				"x": 2.1436459099,
				"y": 3.4558393018,
				"z": 4.93424599,
				"element": "H" 
			},
			{
				"x": 3.2629421355,
				"y": 3.3445320031,
				"z": 3.561690776,
				"element": "H" 
			},
			{
				"x": 1.4285010222,
				"y": 1.070083865,
				"z": 4.5301769134,
				"element": "H" 
			},
			{
				"x": 3.1799038656,
				"y": 1.1741212276,
				"z": 4.8523672744,
				"element": "H" 
			},
			{
				"x": 3.3005724904,
				"y": -0.3268250785,
				"z": 0.962065411,
				"element": "H" 
			},
			{
				"x": 2.3617081295,
				"y": -1.0614605437,
				"z": -0.9327850193,
				"element": "H" 
			},
			{
				"x": -2.5516665364,
				"y": -0.1069118806,
				"z": -4.7044218357,
				"element": "H" 
			},
			{
				"x": -0.7917248308,
				"y": 0.0133164271,
				"z": -5.0236648629,
				"element": "H" 
			},
			{
				"x": -1.772380505,
				"y": -1.2073032555,
				"z": -5.8796277129,
				"element": "H" 
			},
			{
				"x": -5.1309730675,
				"y": -1.9226038653,
				"z": -3.1105247022,
				"element": "H" 
			},
			{
				"x": -4.2208523128,
				"y": -2.6687543441,
				"z": -1.7687979673,
				"element": "H" 
			},
			{
				"x": -3.5220016967,
				"y": -2.6430878641,
				"z": -3.4167973575,
				"element": "H" 
			},
			{
				"x": -2.9948375452,
				"y": 0.0465729625,
				"z": -0.0542270383,
				"element": "H" 
			},
			{
				"x": -0.7121351588,
				"y": 0.1720011602,
				"z": 0.9287436676,
				"element": "H" 
			}
		],
		 "valence_orbital": [ 
			{
				"type": "occ",
				"energy": -0.28932,
				"method": "rhf"
			},
			{
				"type": "occ",
				"energy": -0.27336,
				"method": "rhf"
			},
			{
				"type": "occ",
				"energy": -0.26676,
				"method": "rhf"
			},
			{
				"type": "occ",
				"energy": -0.24291,
				"method": "rhf"
			},
			{
				"type": "occ",
				"energy": -0.22735,
				"method": "rhf"
			},
			{
				"type": "unocc",
				"energy": -0.06835,
				"method": "rhf"
			},
			{
				"type": "unocc",
				"energy": -0.00916,
				"method": "rhf"
			},
			{
				"type": "unocc",
				"energy": 0.01505,
				"method": "rhf"
			},
			{
				"type": "unocc",
				"energy": 0.02776,
				"method": "rhf"
			},
			{
				"type": "unocc",
				"energy": 0.08969,
				"method": "rhf"
			}
		],
		"cosmo_sigma_profile": { 
			"-0.025": 0.0,
			"-0.024": 0.0,
			"-0.023": 0.0,
			"-0.022": 0.0,
			"-0.021": 0.0,
			"-0.02": 0.0,
			"-0.019": 0.0,
			"-0.018": 0.0,
			"-0.017": 0.0,
			"-0.016": 0.0,
			"-0.015": 0.0,
			"-0.014": 0.0,
			"-0.013": 0.0,
			"-0.012": 0.0,
			"-0.011": 0.0,
			"-0.01": 0.0,
			"-0.009": 0.0,
			"-0.008": 0.0,
			"-0.007": 2.4416046122,
			"-0.006": 8.7561953969,
			"-0.005": 17.0533379527,
			"-0.004": 26.653992979,
			"-0.003": 36.513813504,
			"-0.002": 31.4145024429,
			"-0.001": 27.8211583359,
			"0.0": 32.4218447716,
			"0.001": 30.3676165607,
			"0.002": 26.8161495688,
			"0.003": 20.6704296731,
			"0.004": 11.8658730009,
			"0.005": 7.73708561888,
			"0.006": 5.73394634305,
			"0.007": 5.91805477487,
			"0.008": 4.09318752008,
			"0.009": 4.75565625466,
			"0.01": 3.548105051,
			"0.011": 3.25111412784,
			"0.012": 0.711400434958,
			"0.013": 0.0,
			"0.014": 0.0,
			"0.015": 0.0,
			"0.016": 0.0,
			"0.017": 0.0,
			"0.018": 0.0,
			"0.019": 0.0,
			"0.02": 0.0,
			"0.021": 0.0,
			"0.022": 0.0,
			"0.023": 0.0,
			"0.024": 0.0,
			"0.025": 0.0
		}
	}
}
