{
	 "smiles": "CNC(=O)COC1=C(OC)C=C(C=C1)C(O)=O", 
	 "Tm": 495.15, 
	 "num_atms": 30, 
	 "gaussian": { 
		 "optdone": 1, 
		 "sigma_profile": "yes", 
		 "theory": "DFT", 
		 "functional": "B3LYP", 
		 "basiset": "6-31G**", 
		 "properties": { 
			 "R2extent": 5580.5533, 
			 "electric_dipole_moment_norm": 6.08815429092, 
			 "electric_quadrupole_moment_norm": 28.3459267763, 
			 "total_energy": -857.857058027, 
			 "HOMO_LUMO_gap": 0.19122, 
			 "cosmo_polarized_energy": -23.5, 
			 "cosmo_cavitation_energy": 34.97, 
			 "cosmo_dispersion_energy": -24.22, 
			 "cosmo_repulsion_energy": 1.91, 
			 "cosmo_total_nonelectrostatic_energy": 12.65, 
			 "SMD_solvation_energy": 8.37 
		},
		"coords": [
			{
				"x": 0.0949586024,
				"y": 3.6968250248,
				"z": -1.884061323,
				"element": "C" 
			},
			{
				"x": 1.2694131634,
				"y": 3.8346492852,
				"z": -1.0375340488,
				"element": "N" 
			},
			{
				"x": 1.947956708,
				"y": 2.8780285066,
				"z": -0.3408705537,
				"element": "C" 
			},
			{
				"x": 2.9247331056,
				"y": 3.1475913341,
				"z": 0.3480165976,
				"element": "O" 
			},
			{
				"x": 1.4937507542,
				"y": 1.4224390792,
				"z": -0.4827909293,
				"element": "C" 
			},
			{
				"x": 0.0746700183,
				"y": 1.3175725147,
				"z": -0.2464988218,
				"element": "O" 
			},
			{
				"x": -0.3677153487,
				"y": 0.291986544,
				"z": 0.5450299629,
				"element": "C" 
			},
			{
				"x": -0.0396778395,
				"y": -1.0539290487,
				"z": 0.2897275939,
				"element": "C" 
			},
			{
				"x": 0.7680718299,
				"y": -1.3992368513,
				"z": -0.7707066656,
				"element": "O" 
			},
			{
				"x": 0.1117188177,
				"y": -1.3646842482,
				"z": -2.0437004686,
				"element": "C" 
			},
			{
				"x": -0.5235783779,
				"y": -2.0524028562,
				"z": 1.1324849339,
				"element": "C" 
			},
			{
				"x": -1.356467761,
				"y": -1.7374646356,
				"z": 2.2151969498,
				"element": "C" 
			},
			{
				"x": -1.7249137856,
				"y": -0.4018137902,
				"z": 2.4263292307,
				"element": "C" 
			},
			{
				"x": -1.2216950729,
				"y": 0.6028549901,
				"z": 1.6084762735,
				"element": "C" 
			},
			{
				"x": -1.9175441582,
				"y": -2.7746349934,
				"z": 3.1373647341,
				"element": "C" 
			},
			{
				"x": -1.2585708437,
				"y": -3.9643735758,
				"z": 3.1931784958,
				"element": "O" 
			},
			{
				"x": -2.904797797,
				"y": -2.5992343039,
				"z": 3.8124775914,
				"element": "O" 
			},
			{
				"x": -0.8418615967,
				"y": 3.8140647305,
				"z": -1.3271324599,
				"element": "H" 
			},
			{
				"x": 0.0779040788,
				"y": 2.7163525766,
				"z": -2.3616481035,
				"element": "H" 
			},
			{
				"x": 0.1343287886,
				"y": 4.4549327798,
				"z": -2.671151882,
				"element": "H" 
			},
			{
				"x": 1.6147270945,
				"y": 4.7676033194,
				"z": -0.8541361556,
				"element": "H" 
			},
			{
				"x": 1.7329000928,
				"y": 1.0415057163,
				"z": -1.4831942836,
				"element": "H" 
			},
			{
				"x": 2.05728204,
				"y": 0.848298545,
				"z": 0.2525361286,
				"element": "H" 
			},
			{
				"x": 0.8595932752,
				"y": -1.6555782596,
				"z": -2.7836767392,
				"element": "H" 
			},
			{
				"x": -0.724146181,
				"y": -2.0742503913,
				"z": -2.0716944152,
				"element": "H" 
			},
			{
				"x": -0.2632754805,
				"y": -0.3603571345,
				"z": -2.2727532954,
				"element": "H" 
			},
			{
				"x": -0.2634059838,
				"y": -3.0773085753,
				"z": 0.8814763933,
				"element": "H" 
			},
			{
				"x": -2.3901629223,
				"y": -0.1713310112,
				"z": 3.2508666487,
				"element": "H" 
			},
			{
				"x": -1.4690288155,
				"y": 1.6454964306,
				"z": 1.7784943425,
				"element": "H" 
			},
			{
				"x": -0.4040664053,
				"y": -3.8930017015,
				"z": 2.7457942685,
				"element": "H" 
			}
		],
		 "valence_orbital": [ 
			{
				"type": "occ",
				"energy": -0.27332,
				"method": "rhf"
			},
			{
				"type": "occ",
				"energy": -0.2695,
				"method": "rhf"
			},
			{
				"type": "occ",
				"energy": -0.25782,
				"method": "rhf"
			},
			{
				"type": "occ",
				"energy": -0.25635,
				"method": "rhf"
			},
			{
				"type": "occ",
				"energy": -0.24143,
				"method": "rhf"
			},
			{
				"type": "unocc",
				"energy": -0.05021,
				"method": "rhf"
			},
			{
				"type": "unocc",
				"energy": -0.02336,
				"method": "rhf"
			},
			{
				"type": "unocc",
				"energy": 0.00964,
				"method": "rhf"
			},
			{
				"type": "unocc",
				"energy": 0.04801,
				"method": "rhf"
			},
			{
				"type": "unocc",
				"energy": 0.05767,
				"method": "rhf"
			}
		],
		"cosmo_sigma_profile": { 
			"-0.025": 0.0,
			"-0.024": 0.0,
			"-0.023": 0.0,
			"-0.022": 0.0,
			"-0.021": 0.0,
			"-0.02": 0.0,
			"-0.019": 0.108076196075,
			"-0.018": 1.0930598278,
			"-0.017": 0.915199054168,
			"-0.016": 1.02153971563,
			"-0.015": 0.943385894096,
			"-0.014": 1.1128421075,
			"-0.013": 2.52729769462,
			"-0.012": 1.88799583369,
			"-0.011": 2.67942832329,
			"-0.01": 1.3640820332,
			"-0.009": 2.98988996556,
			"-0.008": 2.68178682959,
			"-0.007": 8.06645496039,
			"-0.006": 13.2241447644,
			"-0.005": 19.9276876229,
			"-0.004": 23.532545679,
			"-0.003": 26.6115984089,
			"-0.002": 22.8442008293,
			"-0.001": 17.119821652,
			"0.0": 13.032965498,
			"0.001": 15.7629812847,
			"0.002": 18.0086643453,
			"0.003": 12.4215996507,
			"0.004": 7.0519960983,
			"0.005": 6.76317615449,
			"0.006": 4.79601500261,
			"0.007": 5.43147697859,
			"0.008": 4.12876728363,
			"0.009": 5.21353098652,
			"0.01": 7.12956545884,
			"0.011": 7.73891865509,
			"0.012": 7.07605637232,
			"0.013": 5.86918795834,
			"0.014": 5.12473965449,
			"0.015": 0.891516852833,
			"0.016": 0.0,
			"0.017": 0.0,
			"0.018": 0.0,
			"0.019": 0.0,
			"0.02": 0.0,
			"0.021": 0.0,
			"0.022": 0.0,
			"0.023": 0.0,
			"0.024": 0.0,
			"0.025": 0.0
		}
	}
}
