{
	 "smiles": "N#CC1=CC=C(CN2C=CC=N2)C=C1", 
	 "Tm": 354.15, 
	 "num_atms": 23, 
	 "gaussian": { 
		 "optdone": 1, 
		 "sigma_profile": "yes", 
		 "theory": "DFT", 
		 "functional": "B3LYP", 
		 "basiset": "6-31G**", 
		 "properties": { 
			 "R2extent": 3703.485, 
			 "electric_dipole_moment_norm": 4.68718025576, 
			 "electric_quadrupole_moment_norm": 27.9733996581, 
			 "total_energy": -588.808455925, 
			 "HOMO_LUMO_gap": 0.19633, 
			 "cosmo_polarized_energy": -13.72, 
			 "cosmo_cavitation_energy": 28.84, 
			 "cosmo_dispersion_energy": -20.05, 
			 "cosmo_repulsion_energy": 1.57, 
			 "cosmo_total_nonelectrostatic_energy": 10.35, 
			 "SMD_solvation_energy": 6.04 
		},
		"coords": [
			{
				"x": -4.5267163398,
				"y": -3.3651501733,
				"z": 1.5238610216,
				"element": "N" 
			},
			{
				"x": -3.6438613032,
				"y": -2.6121983629,
				"z": 1.4402090938,
				"element": "C" 
			},
			{
				"x": -2.5553376322,
				"y": -1.6839462904,
				"z": 1.3382771117,
				"element": "C" 
			},
			{
				"x": -2.0068011042,
				"y": -1.3729119227,
				"z": 0.0811727277,
				"element": "C" 
			},
			{
				"x": -0.952013536,
				"y": -0.4725276673,
				"z": -0.0133622778,
				"element": "C" 
			},
			{
				"x": -0.4233814543,
				"y": 0.1281542865,
				"z": 1.1380904196,
				"element": "C" 
			},
			{
				"x": 0.7096692825,
				"y": 1.135562774,
				"z": 1.0319680044,
				"element": "C" 
			},
			{
				"x": 1.8046247348,
				"y": 0.7039977189,
				"z": 0.1765158152,
				"element": "N" 
			},
			{
				"x": 2.8722103656,
				"y": -0.0727918645,
				"z": 0.5080850235,
				"element": "C" 
			},
			{
				"x": 3.5845988941,
				"y": -0.2901685176,
				"z": -0.6553420544,
				"element": "C" 
			},
			{
				"x": 2.8523254849,
				"y": 0.3957503238,
				"z": -1.6487735189,
				"element": "C" 
			},
			{
				"x": 1.772458034,
				"y": 0.9950969194,
				"z": -1.1457303429,
				"element": "N" 
			},
			{
				"x": -0.9715120086,
				"y": -0.1876841225,
				"z": 2.3861210975,
				"element": "C" 
			},
			{
				"x": -2.0318677432,
				"y": -1.0839689279,
				"z": 2.4940657341,
				"element": "C" 
			},
			{
				"x": -2.4139691548,
				"y": -1.8381579735,
				"z": -0.8102854839,
				"element": "H" 
			},
			{
				"x": -0.5247625128,
				"y": -0.2298340885,
				"z": -0.9813462741,
				"element": "H" 
			},
			{
				"x": 0.3445469918,
				"y": 2.0749510699,
				"z": 0.6062459415,
				"element": "H" 
			},
			{
				"x": 1.1135286612,
				"y": 1.3548897878,
				"z": 2.0245519723,
				"element": "H" 
			},
			{
				"x": 3.0401482066,
				"y": -0.3977257629,
				"z": 1.5247470372,
				"element": "H" 
			},
			{
				"x": 4.5008386027,
				"y": -0.850283464,
				"z": -0.7664826859,
				"element": "H" 
			},
			{
				"x": 3.0699544187,
				"y": 0.4871488214,
				"z": -2.7045700046,
				"element": "H" 
			},
			{
				"x": -0.5671512252,
				"y": 0.2699285853,
				"z": 3.2853006413,
				"element": "H" 
			},
			{
				"x": -2.4524296626,
				"y": -1.327231149,
				"z": 3.463981001,
				"element": "H" 
			}
		],
		 "valence_orbital": [ 
			{
				"type": "occ",
				"energy": -0.29546,
				"method": "rhf"
			},
			{
				"type": "occ",
				"energy": -0.27859,
				"method": "rhf"
			},
			{
				"type": "occ",
				"energy": -0.2678,
				"method": "rhf"
			},
			{
				"type": "occ",
				"energy": -0.25508,
				"method": "rhf"
			},
			{
				"type": "occ",
				"energy": -0.25214,
				"method": "rhf"
			},
			{
				"type": "unocc",
				"energy": -0.05581,
				"method": "rhf"
			},
			{
				"type": "unocc",
				"energy": -0.02818,
				"method": "rhf"
			},
			{
				"type": "unocc",
				"energy": 0.00918,
				"method": "rhf"
			},
			{
				"type": "unocc",
				"energy": 0.03605,
				"method": "rhf"
			},
			{
				"type": "unocc",
				"energy": 0.06106,
				"method": "rhf"
			}
		],
		"cosmo_sigma_profile": { 
			"-0.025": 0.0,
			"-0.024": 0.0,
			"-0.023": 0.0,
			"-0.022": 0.0,
			"-0.021": 0.0,
			"-0.02": 0.0,
			"-0.019": 0.0,
			"-0.018": 0.0,
			"-0.017": 0.0,
			"-0.016": 0.0,
			"-0.015": 0.0,
			"-0.014": 0.0,
			"-0.013": 0.0,
			"-0.012": 0.0,
			"-0.011": 0.0,
			"-0.01": 2.17509888169e-05,
			"-0.009": 2.45425084038,
			"-0.008": 10.0176547011,
			"-0.007": 13.6367929796,
			"-0.006": 16.7642677282,
			"-0.005": 14.3168994887,
			"-0.004": 15.7245094739,
			"-0.003": 11.5252933213,
			"-0.002": 12.9975536366,
			"-0.001": 16.870661619,
			"0.0": 15.613099581,
			"0.001": 15.9615164556,
			"0.002": 20.6842964939,
			"0.003": 11.9364088574,
			"0.004": 8.96860024351,
			"0.005": 9.52198447744,
			"0.006": 7.30891179186,
			"0.007": 3.85319421922,
			"0.008": 4.63094628344,
			"0.009": 5.01406940299,
			"0.01": 3.89119495366,
			"0.011": 3.67109247707,
			"0.012": 3.30679746015,
			"0.013": 2.68567560935,
			"0.014": 0.957422520984,
			"0.015": 0.479167314787,
			"0.016": 0.224479599724,
			"0.017": 0.0,
			"0.018": 0.0,
			"0.019": 0.0,
			"0.02": 0.0,
			"0.021": 0.0,
			"0.022": 0.0,
			"0.023": 0.0,
			"0.024": 0.0,
			"0.025": 0.0
		}
	}
}
