{
	 "smiles": "NC1=NC2=C(C=CC=C2)N1CC1=CC=CC=C1", 
	 "Tm": 475.15, 
	 "num_atms": 30, 
	 "gaussian": { 
		 "optdone": 1, 
		 "sigma_profile": "yes", 
		 "theory": "DFT", 
		 "functional": "B3LYP", 
		 "basiset": "6-31G**", 
		 "properties": { 
			 "R2extent": 4950.7011, 
			 "electric_dipole_moment_norm": 4.40743782599, 
			 "electric_quadrupole_moment_norm": 11.6168571115, 
			 "total_energy": -705.599989491, 
			 "HOMO_LUMO_gap": 0.17747, 
			 "cosmo_polarized_energy": -14.53, 
			 "cosmo_cavitation_energy": 33.49, 
			 "cosmo_dispersion_energy": -23.9, 
			 "cosmo_repulsion_energy": 1.84, 
			 "cosmo_total_nonelectrostatic_energy": 11.43, 
			 "SMD_solvation_energy": 3.34 
		},
		"coords": [
			{
				"x": -0.0031424544,
				"y": -0.1931535854,
				"z": 3.6052440347,
				"element": "N" 
			},
			{
				"x": 0.6953138232,
				"y": 0.0541295875,
				"z": 2.4373582269,
				"element": "C" 
			},
			{
				"x": 1.9311606844,
				"y": 0.4886418943,
				"z": 2.3691915211,
				"element": "N" 
			},
			{
				"x": 2.2219919215,
				"y": 0.4967889165,
				"z": 1.0102570512,
				"element": "C" 
			},
			{
				"x": 1.1028108284,
				"y": 0.0613454421,
				"z": 0.2576327355,
				"element": "C" 
			},
			{
				"x": 1.1142418229,
				"y": -0.0081549747,
				"z": -1.1331979362,
				"element": "C" 
			},
			{
				"x": 2.2976537423,
				"y": 0.3653498612,
				"z": -1.7758404598,
				"element": "C" 
			},
			{
				"x": 3.4181753178,
				"y": 0.7972113737,
				"z": -1.0462644327,
				"element": "C" 
			},
			{
				"x": 3.3946881721,
				"y": 0.869058751,
				"z": 0.3468412589,
				"element": "C" 
			},
			{
				"x": 0.1231429013,
				"y": -0.2291355261,
				"z": 1.2088553382,
				"element": "N" 
			},
			{
				"x": -1.1937559928,
				"y": -0.806647211,
				"z": 0.9949039541,
				"element": "C" 
			},
			{
				"x": -2.3435926087,
				"y": 0.1560236798,
				"z": 1.2543191018,
				"element": "C" 
			},
			{
				"x": -2.2955030033,
				"y": 1.4776207385,
				"z": 0.7892658158,
				"element": "C" 
			},
			{
				"x": -3.3689027102,
				"y": 2.3409895973,
				"z": 1.0052731434,
				"element": "C" 
			},
			{
				"x": -4.5041139782,
				"y": 1.8963128996,
				"z": 1.6886225664,
				"element": "C" 
			},
			{
				"x": -4.5583907668,
				"y": 0.583921889,
				"z": 2.1582333411,
				"element": "C" 
			},
			{
				"x": -3.4812186985,
				"y": -0.2797700211,
				"z": 1.9442505586,
				"element": "C" 
			},
			{
				"x": -0.9676269663,
				"y": 0.1193528009,
				"z": 3.5986980377,
				"element": "H" 
			},
			{
				"x": 0.5056050982,
				"y": 0.1540426924,
				"z": 4.4085287296,
				"element": "H" 
			},
			{
				"x": 0.2500056259,
				"y": -0.3377551624,
				"z": -1.7030813494,
				"element": "H" 
			},
			{
				"x": 2.3488269635,
				"y": 0.3213843137,
				"z": -2.8597090917,
				"element": "H" 
			},
			{
				"x": 4.3201314329,
				"y": 1.0817320291,
				"z": -1.5804631943,
				"element": "H" 
			},
			{
				"x": 4.2578287538,
				"y": 1.2034998368,
				"z": 0.9135350871,
				"element": "H" 
			},
			{
				"x": -1.3002972959,
				"y": -1.688874845,
				"z": 1.6365852975,
				"element": "H" 
			},
			{
				"x": -1.2228924799,
				"y": -1.1629311866,
				"z": -0.040003075,
				"element": "H" 
			},
			{
				"x": -1.412037391,
				"y": 1.8285547788,
				"z": 0.2632430152,
				"element": "H" 
			},
			{
				"x": -3.3193116938,
				"y": 3.3628802201,
				"z": 0.6404122842,
				"element": "H" 
			},
			{
				"x": -5.3383445433,
				"y": 2.571051523,
				"z": 1.8569607982,
				"element": "H" 
			},
			{
				"x": -5.4340064036,
				"y": 0.2318242268,
				"z": 2.6960072662,
				"element": "H" 
			},
			{
				"x": -3.5259401014,
				"y": -1.3016945397,
				"z": 2.3141403759,
				"element": "H" 
			}
		],
		 "valence_orbital": [ 
			{
				"type": "occ",
				"energy": -0.26409,
				"method": "rhf"
			},
			{
				"type": "occ",
				"energy": -0.26314,
				"method": "rhf"
			},
			{
				"type": "occ",
				"energy": -0.25775,
				"method": "rhf"
			},
			{
				"type": "occ",
				"energy": -0.21267,
				"method": "rhf"
			},
			{
				"type": "occ",
				"energy": -0.19626,
				"method": "rhf"
			},
			{
				"type": "unocc",
				"energy": -0.01879,
				"method": "rhf"
			},
			{
				"type": "unocc",
				"energy": -0.01506,
				"method": "rhf"
			},
			{
				"type": "unocc",
				"energy": 0.00562,
				"method": "rhf"
			},
			{
				"type": "unocc",
				"energy": 0.0325,
				"method": "rhf"
			},
			{
				"type": "unocc",
				"energy": 0.06516,
				"method": "rhf"
			}
		],
		"cosmo_sigma_profile": { 
			"-0.025": 0.0,
			"-0.024": 0.0,
			"-0.023": 0.0,
			"-0.022": 0.0,
			"-0.021": 0.0,
			"-0.02": 0.0,
			"-0.019": 0.0,
			"-0.018": 0.0,
			"-0.017": 0.0,
			"-0.016": 0.0,
			"-0.015": 0.0,
			"-0.014": 0.145139388404,
			"-0.013": 0.991899869019,
			"-0.012": 1.19844389083,
			"-0.011": 2.2293030509,
			"-0.01": 2.06882289708,
			"-0.009": 2.12346265241,
			"-0.008": 3.06516847896,
			"-0.007": 5.70772081517,
			"-0.006": 14.6511212609,
			"-0.005": 22.1207585317,
			"-0.004": 23.8694335316,
			"-0.003": 23.0572848353,
			"-0.002": 18.886621649,
			"-0.001": 16.1946645633,
			"0.0": 15.071149148,
			"0.001": 14.4720501958,
			"0.002": 14.1174932085,
			"0.003": 15.3017124628,
			"0.004": 16.3507155618,
			"0.005": 18.2276334161,
			"0.006": 13.486964286,
			"0.007": 8.45858037513,
			"0.008": 3.13469856854,
			"0.009": 1.86308104381,
			"0.01": 1.40576838866,
			"0.011": 1.86447033256,
			"0.012": 2.25682908954,
			"0.013": 0.69422943869,
			"0.014": 0.979210991728,
			"0.015": 1.18238677369,
			"0.016": 1.12642223099,
			"0.017": 0.778434677842,
			"0.018": 0.617402126451,
			"0.019": 0.0,
			"0.02": 0.0,
			"0.021": 0.0,
			"0.022": 0.0,
			"0.023": 0.0,
			"0.024": 0.0,
			"0.025": 0.0
		}
	}
}
