{
	 "smiles": "OC(=O)C(=O)C1=CC=C(Br)C=C1", 
	 "Tm": 379.15, 
	 "num_atms": 17, 
	 "gaussian": { 
		 "optdone": 1, 
		 "sigma_profile": "yes", 
		 "theory": "DFT", 
		 "functional": "B3LYP", 
		 "basiset": "6-31G**", 
		 "properties": { 
			 "R2extent": 5185.9232, 
			 "electric_dipole_moment_norm": 1.36636282883, 
			 "electric_quadrupole_moment_norm": 11.8761326437, 
			 "total_energy": -3104.93819693, 
			 "HOMO_LUMO_gap": 0.16393, 
			 "cosmo_polarized_energy": -11.16, 
			 "cosmo_cavitation_energy": 25.11, 
			 "cosmo_dispersion_energy": -18.85, 
			 "cosmo_repulsion_energy": 1.5, 
			 "cosmo_total_nonelectrostatic_energy": 7.76, 
			 "SMD_solvation_energy": 5.15 
		},
		"coords": [
			{
				"x": -0.1402771636,
				"y": 2.3358349788,
				"z": -3.4072558129,
				"element": "O" 
			},
			{
				"x": 0.5806725369,
				"y": 1.484298329,
				"z": -2.6640495779,
				"element": "C" 
			},
			{
				"x": 1.7416784482,
				"y": 1.2110590195,
				"z": -2.8846591177,
				"element": "O" 
			},
			{
				"x": -0.2450089019,
				"y": 0.9543070691,
				"z": -1.4710686019,
				"element": "C" 
			},
			{
				"x": -1.0898013592,
				"y": 1.6908858006,
				"z": -0.9926378181,
				"element": "O" 
			},
			{
				"x": 0.0351959157,
				"y": -0.4036538608,
				"z": -0.9351285233,
				"element": "C" 
			},
			{
				"x": 0.9830982577,
				"y": -1.2865416924,
				"z": -1.4803270481,
				"element": "C" 
			},
			{
				"x": 1.1601526144,
				"y": -2.5550027134,
				"z": -0.9318339607,
				"element": "C" 
			},
			{
				"x": 0.3885986191,
				"y": -2.9402922165,
				"z": 0.1639408068,
				"element": "C" 
			},
			{
				"x": 0.6305239613,
				"y": -4.6749422687,
				"z": 0.9145269198,
				"element": "Br" 
			},
			{
				"x": -0.5599386231,
				"y": -2.0795818983,
				"z": 0.7232447715,
				"element": "C" 
			},
			{
				"x": -0.7316299865,
				"y": -0.818181361,
				"z": 0.1691671897,
				"element": "C" 
			},
			{
				"x": 0.4522972739,
				"y": 2.65999418,
				"z": -4.1073345801,
				"element": "H" 
			},
			{
				"x": 1.5924745074,
				"y": -0.9787512791,
				"z": -2.3201832092,
				"element": "H" 
			},
			{
				"x": 1.8920056967,
				"y": -3.2368279432,
				"z": -1.3490515659,
				"element": "H" 
			},
			{
				"x": -1.150391005,
				"y": -2.3978318894,
				"z": 1.5745959071,
				"element": "H" 
			},
			{
				"x": -1.4628507919,
				"y": -0.1294722541,
				"z": 0.5785542211,
				"element": "H" 
			}
		],
		 "valence_orbital": [ 
			{
				"type": "occ",
				"energy": -0.32379,
				"method": "rhf"
			},
			{
				"type": "occ",
				"energy": -0.29947,
				"method": "rhf"
			},
			{
				"type": "occ",
				"energy": -0.27906,
				"method": "rhf"
			},
			{
				"type": "occ",
				"energy": -0.26447,
				"method": "rhf"
			},
			{
				"type": "occ",
				"energy": -0.25836,
				"method": "rhf"
			},
			{
				"type": "unocc",
				"energy": -0.09443,
				"method": "rhf"
			},
			{
				"type": "unocc",
				"energy": -0.02873,
				"method": "rhf"
			},
			{
				"type": "unocc",
				"energy": -0.02096,
				"method": "rhf"
			},
			{
				"type": "unocc",
				"energy": -0.00352,
				"method": "rhf"
			},
			{
				"type": "unocc",
				"energy": 0.04997,
				"method": "rhf"
			}
		],
		"cosmo_sigma_profile": { 
			"-0.025": 0.0,
			"-0.024": 0.0,
			"-0.023": 0.0,
			"-0.022": 0.0,
			"-0.021": 0.0,
			"-0.02": 0.0940432237667,
			"-0.019": 1.10302408922,
			"-0.018": 1.10004733996,
			"-0.017": 0.458995321043,
			"-0.016": 1.05769984884,
			"-0.015": 0.493038990888,
			"-0.014": 0.699149656858,
			"-0.013": 1.12125225771,
			"-0.012": 0.688112308611,
			"-0.011": 0.751742551279,
			"-0.01": 0.402668295477,
			"-0.009": 0.726397251446,
			"-0.008": 3.73742502615,
			"-0.007": 7.1295467931,
			"-0.006": 10.8719113726,
			"-0.005": 10.0779709121,
			"-0.004": 11.0207296223,
			"-0.003": 10.3898102956,
			"-0.002": 10.849860532,
			"-0.001": 13.5823787179,
			"0.0": 17.7577611893,
			"0.001": 25.5276525295,
			"0.002": 17.91058186,
			"0.003": 11.8296449444,
			"0.004": 12.8317824121,
			"0.005": 2.33119725995,
			"0.006": 4.24499865647,
			"0.007": 4.53243827131,
			"0.008": 4.34415368344,
			"0.009": 5.92682136309,
			"0.01": 8.07422324968,
			"0.011": 3.01014915616,
			"0.012": 0.97338474876,
			"0.013": 0.0,
			"0.014": 0.0,
			"0.015": 0.0,
			"0.016": 0.0,
			"0.017": 0.0,
			"0.018": 0.0,
			"0.019": 0.0,
			"0.02": 0.0,
			"0.021": 0.0,
			"0.022": 0.0,
			"0.023": 0.0,
			"0.024": 0.0,
			"0.025": 0.0
		}
	}
}
