{
	 "smiles": "NC(=O)C1=C(NC(=O)CCC(O)=O)SC2=C1CCC2", 
	 "Tm": 505.15, 
	 "num_atms": 33, 
	 "gaussian": { 
		 "optdone": 1, 
		 "sigma_profile": "yes", 
		 "theory": "DFT", 
		 "functional": "B3LYP", 
		 "basiset": "6-31G**", 
		 "properties": { 
			 "R2extent": 6794.7213, 
			 "electric_dipole_moment_norm": 5.68071411444, 
			 "electric_quadrupole_moment_norm": 15.0667347448, 
			 "total_energy": -1274.33870914, 
			 "HOMO_LUMO_gap": 0.18444, 
			 "cosmo_polarized_energy": -24.56, 
			 "cosmo_cavitation_energy": 37.67, 
			 "cosmo_dispersion_energy": -27.02, 
			 "cosmo_repulsion_energy": 2.07, 
			 "cosmo_total_nonelectrostatic_energy": 12.72, 
			 "SMD_solvation_energy": 7.42 
		},
		"coords": [
			{
				"x": -0.5434588996,
				"y": -2.2348309614,
				"z": -2.0811586572,
				"element": "N" 
			},
			{
				"x": -0.5086468274,
				"y": -1.0424087552,
				"z": -2.7386768032,
				"element": "C" 
			},
			{
				"x": -1.1114517866,
				"y": -0.8475944725,
				"z": -3.7916518845,
				"element": "O" 
			},
			{
				"x": 0.3287723711,
				"y": 0.0526913228,
				"z": -2.1405740948,
				"element": "C" 
			},
			{
				"x": 1.4629664985,
				"y": -0.0834430277,
				"z": -1.3611377122,
				"element": "C" 
			},
			{
				"x": 2.1361462075,
				"y": -1.2629603388,
				"z": -0.9979872264,
				"element": "N" 
			},
			{
				"x": 2.2674199036,
				"y": -1.8181591474,
				"z": 0.2570665824,
				"element": "C" 
			},
			{
				"x": 2.9283349232,
				"y": -2.8329840643,
				"z": 0.4266569184,
				"element": "O" 
			},
			{
				"x": 1.5524849916,
				"y": -1.1200061804,
				"z": 1.4115389438,
				"element": "C" 
			},
			{
				"x": 1.1429673766,
				"y": -2.1505658399,
				"z": 2.4603175646,
				"element": "C" 
			},
			{
				"x": 0.0606755793,
				"y": -3.0841439159,
				"z": 1.9386078128,
				"element": "C" 
			},
			{
				"x": -0.3313286311,
				"y": -4.0651322986,
				"z": 2.7814722974,
				"element": "O" 
			},
			{
				"x": -0.4612812505,
				"y": -2.9898801647,
				"z": 0.8504335936,
				"element": "O" 
			},
			{
				"x": 2.1912471902,
				"y": 1.4838740329,
				"z": -0.9823754935,
				"element": "S" 
			},
			{
				"x": 0.9358217109,
				"y": 2.3006747634,
				"z": -1.8494857727,
				"element": "C" 
			},
			{
				"x": 0.0500341448,
				"y": 1.4306057153,
				"z": -2.4165190609,
				"element": "C" 
			},
			{
				"x": -1.0497575196,
				"y": 2.1742864088,
				"z": -3.1328986007,
				"element": "C" 
			},
			{
				"x": -0.4985030002,
				"y": 3.6316874646,
				"z": -3.1767080994,
				"element": "C" 
			},
			{
				"x": 0.5769132603,
				"y": 3.746679677,
				"z": -2.0507345143,
				"element": "C" 
			},
			{
				"x": -1.1905808652,
				"y": -2.9121748914,
				"z": -2.4593350238,
				"element": "H" 
			},
			{
				"x": -0.3080794337,
				"y": -2.3281485201,
				"z": -1.100289458,
				"element": "H" 
			},
			{
				"x": 2.5940219025,
				"y": -1.8033059401,
				"z": -1.7245040533,
				"element": "H" 
			},
			{
				"x": 0.6857231994,
				"y": -0.5603818427,
				"z": 1.054262004,
				"element": "H" 
			},
			{
				"x": 2.244405178,
				"y": -0.3963311981,
				"z": 1.8574757853,
				"element": "H" 
			},
			{
				"x": 2.0145025651,
				"y": -2.7547341412,
				"z": 2.7369542369,
				"element": "H" 
			},
			{
				"x": 0.7723303565,
				"y": -1.6586164818,
				"z": 3.3684560792,
				"element": "H" 
			},
			{
				"x": 0.1901773324,
				"y": -4.0370150265,
				"z": 3.5966552228,
				"element": "H" 
			},
			{
				"x": -1.989603633,
				"y": 2.1126230782,
				"z": -2.5678284185,
				"element": "H" 
			},
			{
				"x": -1.2532376724,
				"y": 1.7621315428,
				"z": -4.1231526172,
				"element": "H" 
			},
			{
				"x": -0.015032688,
				"y": 3.8022659563,
				"z": -4.1438103788,
				"element": "H" 
			},
			{
				"x": -1.2860400826,
				"y": 4.3825017031,
				"z": -3.0695985193,
				"element": "H" 
			},
			{
				"x": 0.160122788,
				"y": 4.1810557269,
				"z": -1.131412746,
				"element": "H" 
			},
			{
				"x": 1.4229348107,
				"y": 4.3765398168,
				"z": -2.3457579064,
				"element": "H" 
			}
		],
		 "valence_orbital": [ 
			{
				"type": "occ",
				"energy": -0.26787,
				"method": "rhf"
			},
			{
				"type": "occ",
				"energy": -0.25679,
				"method": "rhf"
			},
			{
				"type": "occ",
				"energy": -0.25512,
				"method": "rhf"
			},
			{
				"type": "occ",
				"energy": -0.24097,
				"method": "rhf"
			},
			{
				"type": "occ",
				"energy": -0.22338,
				"method": "rhf"
			},
			{
				"type": "unocc",
				"energy": -0.03894,
				"method": "rhf"
			},
			{
				"type": "unocc",
				"energy": -0.00798,
				"method": "rhf"
			},
			{
				"type": "unocc",
				"energy": 0.00335,
				"method": "rhf"
			},
			{
				"type": "unocc",
				"energy": 0.02169,
				"method": "rhf"
			},
			{
				"type": "unocc",
				"energy": 0.026,
				"method": "rhf"
			}
		],
		"cosmo_sigma_profile": { 
			"-0.025": 0.0,
			"-0.024": 0.0,
			"-0.023": 0.0,
			"-0.022": 0.0,
			"-0.021": 0.0,
			"-0.02": 0.317618045763,
			"-0.019": 0.911437595858,
			"-0.018": 1.23571000318,
			"-0.017": 1.03300591613,
			"-0.016": 1.04932070083,
			"-0.015": 1.48569931561,
			"-0.014": 2.62716873062,
			"-0.013": 2.45016611314,
			"-0.012": 2.74505746286,
			"-0.011": 3.05373637471,
			"-0.01": 3.12433741834,
			"-0.009": 2.98912148262,
			"-0.008": 4.92911274341,
			"-0.007": 6.30702185652,
			"-0.006": 8.1274003399,
			"-0.005": 12.7007362371,
			"-0.004": 19.1102504332,
			"-0.003": 24.7002154355,
			"-0.002": 28.4380914177,
			"-0.001": 25.5996173577,
			"0.0": 24.8217346741,
			"0.001": 17.2527294024,
			"0.002": 16.0973080754,
			"0.003": 14.8277231064,
			"0.004": 12.0158656141,
			"0.005": 6.71131004231,
			"0.006": 5.26082829152,
			"0.007": 6.20881182355,
			"0.008": 6.37789874162,
			"0.009": 6.09738561191,
			"0.01": 6.75239056402,
			"0.011": 5.37083567674,
			"0.012": 5.43427589479,
			"0.013": 8.47132696366,
			"0.014": 4.09298603516,
			"0.015": 0.532940511541,
			"0.016": 0.0,
			"0.017": 0.0,
			"0.018": 0.0,
			"0.019": 0.0,
			"0.02": 0.0,
			"0.021": 0.0,
			"0.022": 0.0,
			"0.023": 0.0,
			"0.024": 0.0,
			"0.025": 0.0
		}
	}
}
