{
	 "smiles": "CN1CCN(CC1)C1=C(Cl)C=C(N)C=C1", 
	 "Tm": 401.15, 
	 "num_atms": 31, 
	 "gaussian": { 
		 "optdone": 1, 
		 "sigma_profile": "yes", 
		 "theory": "DFT", 
		 "functional": "B3LYP", 
		 "basiset": "6-31G**", 
		 "properties": { 
			 "R2extent": 4977.8112, 
			 "electric_dipole_moment_norm": 3.51357679438, 
			 "electric_quadrupole_moment_norm": 15.6691596096, 
			 "total_energy": -1053.23072262, 
			 "HOMO_LUMO_gap": 0.18079, 
			 "cosmo_polarized_energy": -11.77, 
			 "cosmo_cavitation_energy": 33.65, 
			 "cosmo_dispersion_energy": -24.43, 
			 "cosmo_repulsion_energy": 1.91, 
			 "cosmo_total_nonelectrostatic_energy": 11.13, 
			 "SMD_solvation_energy": 1.65 
		},
		"coords": [
			{
				"x": 4.0180287678,
				"y": 1.7816454084,
				"z": 0.5716605004,
				"element": "C" 
			},
			{
				"x": 3.6766833414,
				"y": 0.3692096207,
				"z": 0.5646876149,
				"element": "N" 
			},
			{
				"x": 3.1232196139,
				"y": -0.1162496696,
				"z": -0.7138731869,
				"element": "C" 
			},
			{
				"x": 1.60275843,
				"y": -0.2905020323,
				"z": -0.6931961829,
				"element": "C" 
			},
			{
				"x": 1.2432074621,
				"y": -1.2988472392,
				"z": 0.3182394538,
				"element": "N" 
			},
			{
				"x": 2.1547975491,
				"y": -1.3346213352,
				"z": 1.4734244229,
				"element": "C" 
			},
			{
				"x": 2.8450364246,
				"y": 0.008537389,
				"z": 1.7164528455,
				"element": "C" 
			},
			{
				"x": -0.1465894534,
				"y": -1.4503289165,
				"z": 0.5506675306,
				"element": "C" 
			},
			{
				"x": -0.9533136255,
				"y": -2.2020961617,
				"z": -0.3255024803,
				"element": "C" 
			},
			{
				"x": -0.2308822071,
				"y": -3.0063544282,
				"z": -1.714694056,
				"element": "Cl" 
			},
			{
				"x": -2.3242921828,
				"y": -2.3544135921,
				"z": -0.1375803745,
				"element": "C" 
			},
			{
				"x": -2.9583557829,
				"y": -1.7721659951,
				"z": 0.9701876957,
				"element": "C" 
			},
			{
				"x": -4.3192156195,
				"y": -1.9851269067,
				"z": 1.2058231297,
				"element": "N" 
			},
			{
				"x": -2.1749127383,
				"y": -1.0257211,
				"z": 1.8646874134,
				"element": "C" 
			},
			{
				"x": -0.8121654296,
				"y": -0.8635554909,
				"z": 1.6420089516,
				"element": "C" 
			},
			{
				"x": 4.7165904159,
				"y": 2.0045117586,
				"z": -0.2409412219,
				"element": "H" 
			},
			{
				"x": 3.1448405088,
				"y": 2.4568710118,
				"z": 0.4712419918,
				"element": "H" 
			},
			{
				"x": 4.5173214328,
				"y": 2.0310490017,
				"z": 1.5148925948,
				"element": "H" 
			},
			{
				"x": 3.3973650844,
				"y": 0.5834314467,
				"z": -1.5093555869,
				"element": "H" 
			},
			{
				"x": 3.578525498,
				"y": -1.0825743344,
				"z": -0.9691502243,
				"element": "H" 
			},
			{
				"x": 1.1197804186,
				"y": 0.6810710138,
				"z": -0.4853137333,
				"element": "H" 
			},
			{
				"x": 1.2529689444,
				"y": -0.6214629829,
				"z": -1.6769786273,
				"element": "H" 
			},
			{
				"x": 1.6002594147,
				"y": -1.6393826837,
				"z": 2.363971906,
				"element": "H" 
			},
			{
				"x": 2.9278000118,
				"y": -2.0985477464,
				"z": 1.3067164322,
				"element": "H" 
			},
			{
				"x": 2.0728072647,
				"y": 0.776914035,
				"z": 1.9220417774,
				"element": "H" 
			},
			{
				"x": 3.4762771936,
				"y": -0.0502065554,
				"z": 2.6137141241,
				"element": "H" 
			},
			{
				"x": -2.8938926933,
				"y": -2.9501064744,
				"z": -0.8436633553,
				"element": "H" 
			},
			{
				"x": -4.767748751,
				"y": -1.2778309366,
				"z": 1.7719274364,
				"element": "H" 
			},
			{
				"x": -4.8658672531,
				"y": -2.2066920207,
				"z": 0.3849252594,
				"element": "H" 
			},
			{
				"x": -2.6400883707,
				"y": -0.5619753819,
				"z": 2.7308944657,
				"element": "H" 
			},
			{
				"x": -0.2381436693,
				"y": -0.2561787016,
				"z": 2.3355834833,
				"element": "H" 
			}
		],
		 "valence_orbital": [ 
			{
				"type": "occ",
				"energy": -0.29538,
				"method": "rhf"
			},
			{
				"type": "occ",
				"energy": -0.24013,
				"method": "rhf"
			},
			{
				"type": "occ",
				"energy": -0.22486,
				"method": "rhf"
			},
			{
				"type": "occ",
				"energy": -0.19991,
				"method": "rhf"
			},
			{
				"type": "occ",
				"energy": -0.18558,
				"method": "rhf"
			},
			{
				"type": "unocc",
				"energy": -0.00479,
				"method": "rhf"
			},
			{
				"type": "unocc",
				"energy": 0.0131,
				"method": "rhf"
			},
			{
				"type": "unocc",
				"energy": 0.04161,
				"method": "rhf"
			},
			{
				"type": "unocc",
				"energy": 0.07791,
				"method": "rhf"
			},
			{
				"type": "unocc",
				"energy": 0.08107,
				"method": "rhf"
			}
		],
		"cosmo_sigma_profile": { 
			"-0.025": 0.0,
			"-0.024": 0.0,
			"-0.023": 0.0,
			"-0.022": 0.0,
			"-0.021": 0.0,
			"-0.02": 0.0,
			"-0.019": 0.0,
			"-0.018": 0.0,
			"-0.017": 0.0,
			"-0.016": 0.0,
			"-0.015": 0.0,
			"-0.014": 0.0,
			"-0.013": 0.340568849372,
			"-0.012": 2.84151309567,
			"-0.011": 2.95135487275,
			"-0.01": 2.99631914876,
			"-0.009": 3.23692670328,
			"-0.008": 3.66335480831,
			"-0.007": 3.48850295758,
			"-0.006": 4.59001070491,
			"-0.005": 9.17422604237,
			"-0.004": 14.9006937611,
			"-0.003": 22.4066205578,
			"-0.002": 31.8163867927,
			"-0.001": 35.3886137334,
			"0.0": 24.3354114295,
			"0.001": 14.3634276133,
			"0.002": 12.6563271439,
			"0.003": 13.0822303364,
			"0.004": 16.9660405067,
			"0.005": 19.5251841797,
			"0.006": 9.24603372351,
			"0.007": 2.85712496387,
			"0.008": 2.38953238964,
			"0.009": 1.93335346985,
			"0.01": 2.88304869964,
			"0.011": 1.8338432026,
			"0.012": 1.82435945835,
			"0.013": 1.58498385996,
			"0.014": 1.02036918148,
			"0.015": 0.581983385986,
			"0.016": 0.338879386931,
			"0.017": 0.185799035648,
			"0.018": 0.0,
			"0.019": 0.0,
			"0.02": 0.0,
			"0.021": 0.0,
			"0.022": 0.0,
			"0.023": 0.0,
			"0.024": 0.0,
			"0.025": 0.0
		}
	}
}
