{
	 "smiles": "CC(N)P(O)(O)=O", 
	 "Tm": 557.15, 
	 "num_atms": 15, 
	 "gaussian": { 
		 "optdone": 1, 
		 "sigma_profile": "yes", 
		 "theory": "DFT", 
		 "functional": "B3LYP", 
		 "basiset": "6-31G**", 
		 "properties": { 
			 "R2extent": 964.5717, 
			 "electric_dipole_moment_norm": 2.33852201401, 
			 "electric_quadrupole_moment_norm": 9.37171349327, 
			 "total_energy": -702.87771763, 
			 "HOMO_LUMO_gap": 0.29188, 
			 "cosmo_polarized_energy": -18.36, 
			 "cosmo_cavitation_energy": 19.98, 
			 "cosmo_dispersion_energy": -14.94, 
			 "cosmo_repulsion_energy": 1.25, 
			 "cosmo_total_nonelectrostatic_energy": 6.3, 
			 "SMD_solvation_energy": 4.85 
		},
		"coords": [
			{
				"x": 1.2239236092,
				"y": 0.8617992616,
				"z": -1.8223092009,
				"element": "C" 
			},
			{
				"x": 0.9792584242,
				"y": 0.3379423337,
				"z": -0.4040337265,
				"element": "C" 
			},
			{
				"x": 1.0320210137,
				"y": -1.1248751118,
				"z": -0.3818982213,
				"element": "N" 
			},
			{
				"x": -0.6925982738,
				"y": 0.8377356639,
				"z": 0.1625706329,
				"element": "P" 
			},
			{
				"x": -0.37702976,
				"y": 2.3461350816,
				"z": 0.6830879627,
				"element": "O" 
			},
			{
				"x": -0.8821292713,
				"y": -0.0205695402,
				"z": 1.5399730026,
				"element": "O" 
			},
			{
				"x": -1.8534112041,
				"y": 0.7264893226,
				"z": -0.7588534073,
				"element": "O" 
			},
			{
				"x": 0.4874240594,
				"y": 0.4444562377,
				"z": -2.5130472469,
				"element": "H" 
			},
			{
				"x": 2.22582484,
				"y": 0.571721834,
				"z": -2.1586058944,
				"element": "H" 
			},
			{
				"x": 1.1622340877,
				"y": 1.9528294078,
				"z": -1.852933292,
				"element": "H" 
			},
			{
				"x": 1.6892704042,
				"y": 0.8278117101,
				"z": 0.2852311446,
				"element": "H" 
			},
			{
				"x": 1.0065186523,
				"y": -1.4631070332,
				"z": 0.5756966234,
				"element": "H" 
			},
			{
				"x": 1.9029811267,
				"y": -1.4437604108,
				"z": -0.7984982847,
				"element": "H" 
			},
			{
				"x": -1.1861267921,
				"y": 2.8778621996,
				"z": 0.6774564857,
				"element": "H" 
			},
			{
				"x": -1.6963609161,
				"y": -0.5402709567,
				"z": 1.4745634221,
				"element": "H" 
			}
		],
		 "valence_orbital": [ 
			{
				"type": "occ",
				"energy": -0.34832,
				"method": "rhf"
			},
			{
				"type": "occ",
				"energy": -0.32969,
				"method": "rhf"
			},
			{
				"type": "occ",
				"energy": -0.28831,
				"method": "rhf"
			},
			{
				"type": "occ",
				"energy": -0.28598,
				"method": "rhf"
			},
			{
				"type": "occ",
				"energy": -0.24469,
				"method": "rhf"
			},
			{
				"type": "unocc",
				"energy": 0.04719,
				"method": "rhf"
			},
			{
				"type": "unocc",
				"energy": 0.06477,
				"method": "rhf"
			},
			{
				"type": "unocc",
				"energy": 0.07705,
				"method": "rhf"
			},
			{
				"type": "unocc",
				"energy": 0.10783,
				"method": "rhf"
			},
			{
				"type": "unocc",
				"energy": 0.12195,
				"method": "rhf"
			}
		],
		"cosmo_sigma_profile": { 
			"-0.025": 0.0,
			"-0.024": 0.0,
			"-0.023": 0.0,
			"-0.022": 0.0,
			"-0.021": 0.0,
			"-0.02": 0.0,
			"-0.019": 0.686081482669,
			"-0.018": 1.81872904054,
			"-0.017": 2.16205541218,
			"-0.016": 1.21236549003,
			"-0.015": 1.24266215281,
			"-0.014": 1.57645956741,
			"-0.013": 1.75979135337,
			"-0.012": 0.985245343715,
			"-0.011": 1.67257335458,
			"-0.01": 3.60686819901,
			"-0.009": 3.97865149827,
			"-0.008": 4.40860741747,
			"-0.007": 3.89302529987,
			"-0.006": 4.96854677502,
			"-0.005": 8.7522609445,
			"-0.004": 9.88484772618,
			"-0.003": 8.86221706736,
			"-0.002": 9.73175183654,
			"-0.001": 10.0607810781,
			"0.0": 10.0014687958,
			"0.001": 5.40941183898,
			"0.002": 3.62142922144,
			"0.003": 4.70817999846,
			"0.004": 3.2642458909,
			"0.005": 3.51923964767,
			"0.006": 3.64662887505,
			"0.007": 3.39990048935,
			"0.008": 2.92838064782,
			"0.009": 5.52521865743,
			"0.01": 5.03633195224,
			"0.011": 3.26369398975,
			"0.012": 2.0456288995,
			"0.013": 2.19440289743,
			"0.014": 4.79308610106,
			"0.015": 6.11061439983,
			"0.016": 0.594167409842,
			"0.017": 0.409406500132,
			"0.018": 0.37286073641,
			"0.019": 0.0374825982054,
			"0.02": 0.0,
			"0.021": 0.0,
			"0.022": 0.0,
			"0.023": 0.0,
			"0.024": 0.0,
			"0.025": 0.0
		}
	}
}
