{
	 "smiles": "OC(=O)C1=C(SC2=CC=C(Br)C=C2)N=CC=C1", 
	 "Tm": 497.15, 
	 "num_atms": 25, 
	 "gaussian": { 
		 "optdone": 1, 
		 "sigma_profile": "yes", 
		 "theory": "DFT", 
		 "functional": "B3LYP", 
		 "basiset": "6-31G**", 
		 "properties": { 
			 "R2extent": 10152.6695, 
			 "electric_dipole_moment_norm": 1.00911546911, 
			 "electric_quadrupole_moment_norm": 16.2950419205, 
			 "total_energy": -3636.89355312, 
			 "HOMO_LUMO_gap": 0.17035, 
			 "cosmo_polarized_energy": -12.67, 
			 "cosmo_cavitation_energy": 34.48, 
			 "cosmo_dispersion_energy": -25.57, 
			 "cosmo_repulsion_energy": 1.96, 
			 "cosmo_total_nonelectrostatic_energy": 10.87, 
			 "SMD_solvation_energy": 4.98 
		},
		"coords": [
			{
				"x": 0.588994183,
				"y": -2.7514265472,
				"z": 0.3441578593,
				"element": "O" 
			},
			{
				"x": 1.293042424,
				"y": -2.962786538,
				"z": -0.7885581276,
				"element": "C" 
			},
			{
				"x": 1.8831624492,
				"y": -4.0060502041,
				"z": -0.994364814,
				"element": "O" 
			},
			{
				"x": 1.2730730757,
				"y": -1.8157066848,
				"z": -1.7365872598,
				"element": "C" 
			},
			{
				"x": 0.611137533,
				"y": -0.5697258832,
				"z": -1.5680401654,
				"element": "C" 
			},
			{
				"x": -0.3516092338,
				"y": -0.185900274,
				"z": -0.0962108676,
				"element": "S" 
			},
			{
				"x": -0.9166842472,
				"y": 1.4760363932,
				"z": -0.4623706729,
				"element": "C" 
			},
			{
				"x": -0.1733078883,
				"y": 2.5806073452,
				"z": -0.0324784086,
				"element": "C" 
			},
			{
				"x": -0.6507029424,
				"y": 3.8751933568,
				"z": -0.234585603,
				"element": "C" 
			},
			{
				"x": -1.8804397958,
				"y": 4.0535331082,
				"z": -0.8666030054,
				"element": "C" 
			},
			{
				"x": -2.5431124705,
				"y": 5.8244208278,
				"z": -1.1432023065,
				"element": "Br" 
			},
			{
				"x": -2.6389842194,
				"y": 2.9653785716,
				"z": -1.2955554838,
				"element": "C" 
			},
			{
				"x": -2.151994333,
				"y": 1.6751606393,
				"z": -1.0883505895,
				"element": "C" 
			},
			{
				"x": 0.6683228909,
				"y": 0.3876949793,
				"z": -2.4972409673,
				"element": "N" 
			},
			{
				"x": 1.3640093113,
				"y": 0.1747128898,
				"z": -3.6162809049,
				"element": "C" 
			},
			{
				"x": 2.0502817303,
				"y": -1.008772014,
				"z": -3.8841129092,
				"element": "C" 
			},
			{
				"x": 1.9949849097,
				"y": -2.0079626115,
				"z": -2.9223510799,
				"element": "C" 
			},
			{
				"x": 0.6760379179,
				"y": -3.5598942472,
				"z": 0.8764363181,
				"element": "H" 
			},
			{
				"x": 0.7813248399,
				"y": 2.42896787,
				"z": 0.460453457,
				"element": "H" 
			},
			{
				"x": -0.076591876,
				"y": 4.7331788618,
				"z": 0.095991927,
				"element": "H" 
			},
			{
				"x": -3.5950430621,
				"y": 3.1231452235,
				"z": -1.7814452147,
				"element": "H" 
			},
			{
				"x": -2.7344244011,
				"y": 0.8201858418,
				"z": -1.4156020727,
				"element": "H" 
			},
			{
				"x": 1.3692951024,
				"y": 0.9957701605,
				"z": -4.3313271717,
				"element": "H" 
			},
			{
				"x": 2.6031981502,
				"y": -1.1379695812,
				"z": -4.8079990451,
				"element": "H" 
			},
			{
				"x": 2.5011299521,
				"y": -2.9585914834,
				"z": -3.052872892,
				"element": "H" 
			}
		],
		 "valence_orbital": [ 
			{
				"type": "occ",
				"energy": -0.28979,
				"method": "rhf"
			},
			{
				"type": "occ",
				"energy": -0.26768,
				"method": "rhf"
			},
			{
				"type": "occ",
				"energy": -0.26553,
				"method": "rhf"
			},
			{
				"type": "occ",
				"energy": -0.24511,
				"method": "rhf"
			},
			{
				"type": "occ",
				"energy": -0.23362,
				"method": "rhf"
			},
			{
				"type": "unocc",
				"energy": -0.06327,
				"method": "rhf"
			},
			{
				"type": "unocc",
				"energy": -0.03109,
				"method": "rhf"
			},
			{
				"type": "unocc",
				"energy": -0.03048,
				"method": "rhf"
			},
			{
				"type": "unocc",
				"energy": -0.01717,
				"method": "rhf"
			},
			{
				"type": "unocc",
				"energy": 0.00346,
				"method": "rhf"
			}
		],
		"cosmo_sigma_profile": { 
			"-0.025": 0.0,
			"-0.024": 0.0,
			"-0.023": 0.0,
			"-0.022": 0.0,
			"-0.021": 0.0,
			"-0.02": 0.0,
			"-0.019": 0.399920907171,
			"-0.018": 1.04921212719,
			"-0.017": 0.90729683605,
			"-0.016": 1.02052651059,
			"-0.015": 0.534175456163,
			"-0.014": 0.576354452155,
			"-0.013": 0.413329038668,
			"-0.012": 0.858447676948,
			"-0.011": 0.918750787188,
			"-0.01": 0.390459935666,
			"-0.009": 0.603814640865,
			"-0.008": 3.43920152098,
			"-0.007": 14.2453259027,
			"-0.006": 14.7106595405,
			"-0.005": 13.1776368329,
			"-0.004": 13.2767549702,
			"-0.003": 15.0874669913,
			"-0.002": 15.4410236468,
			"-0.001": 22.6926664118,
			"0.0": 27.8352006007,
			"0.001": 28.6017987431,
			"0.002": 25.7000806883,
			"0.003": 18.8303232421,
			"0.004": 19.4056065518,
			"0.005": 8.75284553633,
			"0.006": 6.61998631431,
			"0.007": 7.53813782409,
			"0.008": 5.36716079222,
			"0.009": 2.71795645357,
			"0.01": 3.36757097359,
			"0.011": 5.44276077483,
			"0.012": 2.72944809661,
			"0.013": 0.0707993994305,
			"0.014": 0.0,
			"0.015": 0.0,
			"0.016": 0.0,
			"0.017": 0.0,
			"0.018": 0.0,
			"0.019": 0.0,
			"0.02": 0.0,
			"0.021": 0.0,
			"0.022": 0.0,
			"0.023": 0.0,
			"0.024": 0.0,
			"0.025": 0.0
		}
	}
}
