{
	 "smiles": "CC1=C(C(C)=NO1)S(Cl)(=O)=O", 
	 "Tm": 312.15, 
	 "num_atms": 17, 
	 "gaussian": { 
		 "optdone": 1, 
		 "sigma_profile": "yes", 
		 "theory": "DFT", 
		 "functional": "B3LYP", 
		 "basiset": "6-31G**", 
		 "properties": { 
			 "R2extent": 2374.0175, 
			 "electric_dipole_moment_norm": 2.06489258316, 
			 "electric_quadrupole_moment_norm": 10.300818666, 
			 "total_energy": -1332.83740088, 
			 "HOMO_LUMO_gap": 0.2003, 
			 "cosmo_polarized_energy": -9.36, 
			 "cosmo_cavitation_energy": 24.88, 
			 "cosmo_dispersion_energy": -18.36, 
			 "cosmo_repulsion_energy": 1.43, 
			 "cosmo_total_nonelectrostatic_energy": 7.95, 
			 "SMD_solvation_energy": 3.25 
		},
		"coords": [
			{
				"x": 0.1451693393,
				"y": -0.6004441899,
				"z": 1.9757141758,
				"element": "C" 
			},
			{
				"x": -0.0677374432,
				"y": 0.7006152332,
				"z": 1.2869876022,
				"element": "C" 
			},
			{
				"x": 0.0266493728,
				"y": 1.130915464,
				"z": -0.0163512239,
				"element": "C" 
			},
			{
				"x": -0.3114414993,
				"y": 2.5255337696,
				"z": 0.0091016385,
				"element": "C" 
			},
			{
				"x": -0.3847760879,
				"y": 3.5021599586,
				"z": -1.1192533526,
				"element": "C" 
			},
			{
				"x": -0.5751100282,
				"y": 2.8998179629,
				"z": 1.2366439021,
				"element": "N" 
			},
			{
				"x": -0.4184651558,
				"y": 1.74635051,
				"z": 2.0386617758,
				"element": "O" 
			},
			{
				"x": 0.4795690439,
				"y": 0.1619873644,
				"z": -1.3928232868,
				"element": "S" 
			},
			{
				"x": -1.4190337233,
				"y": -0.2961604822,
				"z": -2.2541043737,
				"element": "Cl" 
			},
			{
				"x": 1.025576012,
				"y": -1.1050452102,
				"z": -0.9211809333,
				"element": "O" 
			},
			{
				"x": 1.1648305911,
				"y": 0.9956773597,
				"z": -2.3710323765,
				"element": "O" 
			},
			{
				"x": -0.4376265623,
				"y": -1.3908607236,
				"z": 1.4962800423,
				"element": "H" 
			},
			{
				"x": -0.147557846,
				"y": -0.5105360224,
				"z": 3.023009052,
				"element": "H" 
			},
			{
				"x": 1.1965206199,
				"y": -0.895962458,
				"z": 1.915970078,
				"element": "H" 
			},
			{
				"x": -1.1302605521,
				"y": 3.1846870537,
				"z": -1.8549652595,
				"element": "H" 
			},
			{
				"x": 0.576756996,
				"y": 3.5646587163,
				"z": -1.63503973,
				"element": "H" 
			},
			{
				"x": -0.659763077,
				"y": 4.4848056939,
				"z": -0.7330177303,
				"element": "H" 
			}
		],
		 "valence_orbital": [ 
			{
				"type": "occ",
				"energy": -0.34774,
				"method": "rhf"
			},
			{
				"type": "occ",
				"energy": -0.32943,
				"method": "rhf"
			},
			{
				"type": "occ",
				"energy": -0.32233,
				"method": "rhf"
			},
			{
				"type": "occ",
				"energy": -0.31974,
				"method": "rhf"
			},
			{
				"type": "occ",
				"energy": -0.29365,
				"method": "rhf"
			},
			{
				"type": "unocc",
				"energy": -0.09335,
				"method": "rhf"
			},
			{
				"type": "unocc",
				"energy": -0.0437,
				"method": "rhf"
			},
			{
				"type": "unocc",
				"energy": -0.00614,
				"method": "rhf"
			},
			{
				"type": "unocc",
				"energy": 0.0456,
				"method": "rhf"
			},
			{
				"type": "unocc",
				"energy": 0.06385,
				"method": "rhf"
			}
		],
		"cosmo_sigma_profile": { 
			"-0.025": 0.0,
			"-0.024": 0.0,
			"-0.023": 0.0,
			"-0.022": 0.0,
			"-0.021": 0.0,
			"-0.02": 0.0,
			"-0.019": 0.0,
			"-0.018": 0.0,
			"-0.017": 0.0,
			"-0.016": 0.0,
			"-0.015": 0.0,
			"-0.014": 0.0,
			"-0.013": 0.0,
			"-0.012": 0.0,
			"-0.011": 0.0,
			"-0.01": 0.0,
			"-0.009": 0.186376904003,
			"-0.008": 2.14936787034,
			"-0.007": 7.23997335016,
			"-0.006": 13.3331663668,
			"-0.005": 16.4031164571,
			"-0.004": 20.2114651676,
			"-0.003": 19.2726300137,
			"-0.002": 16.5691730668,
			"-0.001": 9.97356748002,
			"0.0": 9.69312805599,
			"0.001": 8.69324105307,
			"0.002": 11.954916258,
			"0.003": 16.0604125289,
			"0.004": 9.23307628302,
			"0.005": 7.13341615673,
			"0.006": 8.34362973648,
			"0.007": 7.31511913956,
			"0.008": 9.36941606222,
			"0.009": 4.14955243511,
			"0.01": 1.2411466033,
			"0.011": 1.3673356317,
			"0.012": 1.08977633871,
			"0.013": 0.394383937699,
			"0.014": 0.0,
			"0.015": 0.0,
			"0.016": 0.0,
			"0.017": 0.0,
			"0.018": 0.0,
			"0.019": 0.0,
			"0.02": 0.0,
			"0.021": 0.0,
			"0.022": 0.0,
			"0.023": 0.0,
			"0.024": 0.0,
			"0.025": 0.0
		}
	}
}
