{
	 "smiles": "CC(=O)OC1CCC2(C)C3CCC4(C)C(CCC4C4(CBr)OCCO4)C3CC=C2C1", 
	 "Tm": 444.15, 
	 "num_atms": 67, 
	 "gaussian": { 
		 "optdone": 1, 
		 "sigma_profile": "yes", 
		 "theory": "DFT", 
		 "functional": "B3LYP", 
		 "basiset": "6-31G**", 
		 "properties": { 
			 "R2extent": 23478.5969, 
			 "electric_dipole_moment_norm": 1.1301243029, 
			 "electric_quadrupole_moment_norm": 29.8625551618, 
			 "total_energy": -3847.26933576, 
			 "HOMO_LUMO_gap": 0.23485, 
			 "cosmo_polarized_energy": -13.89, 
			 "cosmo_cavitation_energy": 60.06, 
			 "cosmo_dispersion_energy": -41.59, 
			 "cosmo_repulsion_energy": 3.06, 
			 "cosmo_total_nonelectrostatic_energy": 21.54, 
			 "SMD_solvation_energy": 8.52 
		},
		"coords": [
			{
				"x": 2.0124558526,
				"y": 1.0394157475,
				"z": -7.7882342536,
				"element": "C" 
			},
			{
				"x": 0.9730269163,
				"y": 0.5889247127,
				"z": -6.7871830774,
				"element": "C" 
			},
			{
				"x": 0.1648142912,
				"y": -0.2963005463,
				"z": -6.9702227289,
				"element": "O" 
			},
			{
				"x": 1.0610759649,
				"y": 1.3146958289,
				"z": -5.6487114071,
				"element": "O" 
			},
			{
				"x": 0.1089824666,
				"y": 1.0059346542,
				"z": -4.5889278105,
				"element": "C" 
			},
			{
				"x": 0.622563083,
				"y": -0.1560043374,
				"z": -3.7231067838,
				"element": "C" 
			},
			{
				"x": 1.573127926,
				"y": 0.3423007768,
				"z": -2.6291442651,
				"element": "C" 
			},
			{
				"x": 0.8498535347,
				"y": 1.2666104692,
				"z": -1.5886637721,
				"element": "C" 
			},
			{
				"x": 1.8547403403,
				"y": 2.347974819,
				"z": -1.1165944332,
				"element": "C" 
			},
			{
				"x": 0.3049640411,
				"y": 0.4172741805,
				"z": -0.3885462089,
				"element": "C" 
			},
			{
				"x": 1.4180993791,
				"y": -0.1345116653,
				"z": 0.52540911,
				"element": "C" 
			},
			{
				"x": 0.8681399235,
				"y": -1.0035463805,
				"z": 1.6643455874,
				"element": "C" 
			},
			{
				"x": -0.1263583347,
				"y": -0.2432864548,
				"z": 2.5756142486,
				"element": "C" 
			},
			{
				"x": 0.5879162743,
				"y": 0.8543427663,
				"z": 3.3886004123,
				"element": "C" 
			},
			{
				"x": -1.2413284852,
				"y": 0.3965432691,
				"z": 1.6868503873,
				"element": "C" 
			},
			{
				"x": -2.2164086643,
				"y": -0.7641381951,
				"z": 1.3656084911,
				"element": "C" 
			},
			{
				"x": -2.0609081726,
				"y": -1.7855285669,
				"z": 2.5181581201,
				"element": "C" 
			},
			{
				"x": -0.9805198855,
				"y": -1.2083222789,
				"z": 3.4674558396,
				"element": "C" 
			},
			{
				"x": -0.3218267389,
				"y": -2.3368184595,
				"z": 4.3150440951,
				"element": "C" 
			},
			{
				"x": 0.7249774035,
				"y": -1.7683187865,
				"z": 5.2838365033,
				"element": "C" 
			},
			{
				"x": 1.4112135122,
				"y": -3.0780925216,
				"z": 6.5956310764,
				"element": "Br" 
			},
			{
				"x": -1.3528665935,
				"y": -2.9660487695,
				"z": 5.074031469,
				"element": "O" 
			},
			{
				"x": -1.4852753224,
				"y": -4.3250267354,
				"z": 4.6653156798,
				"element": "C" 
			},
			{
				"x": -0.1753848028,
				"y": -4.6199641773,
				"z": 3.928813854,
				"element": "C" 
			},
			{
				"x": 0.2452230282,
				"y": -3.3302695446,
				"z": 3.4767648508,
				"element": "O" 
			},
			{
				"x": -0.7204900997,
				"y": 1.2006175892,
				"z": 0.4682171238,
				"element": "C" 
			},
			{
				"x": -1.8931246875,
				"y": 1.7440780355,
				"z": -0.3695500963,
				"element": "C" 
			},
			{
				"x": -1.5000462831,
				"y": 2.1846050745,
				"z": -1.7493243913,
				"element": "C" 
			},
			{
				"x": -0.3083328924,
				"y": 1.9606679733,
				"z": -2.312945351,
				"element": "C" 
			},
			{
				"x": -0.0414054817,
				"y": 2.2999984791,
				"z": -3.7610884132,
				"element": "C" 
			},
			{
				"x": 1.9262204224,
				"y": 0.4412469616,
				"z": -8.6948047611,
				"element": "H" 
			},
			{
				"x": 1.8722662043,
				"y": 2.098413979,
				"z": -8.0244406855,
				"element": "H" 
			},
			{
				"x": 3.0147812295,
				"y": 0.9312791474,
				"z": -7.3632563979,
				"element": "H" 
			},
			{
				"x": -0.8310933539,
				"y": 0.7231316296,
				"z": -5.0668576682,
				"element": "H" 
			},
			{
				"x": 1.0983909149,
				"y": -0.9026919126,
				"z": -4.365257319,
				"element": "H" 
			},
			{
				"x": -0.2444311284,
				"y": -0.6490457264,
				"z": -3.2666455175,
				"element": "H" 
			},
			{
				"x": 2.0418459305,
				"y": -0.5043882307,
				"z": -2.1189190831,
				"element": "H" 
			},
			{
				"x": 2.3915687374,
				"y": 0.8963827046,
				"z": -3.1050331183,
				"element": "H" 
			},
			{
				"x": 2.1070665161,
				"y": 3.0219452648,
				"z": -1.941397591,
				"element": "H" 
			},
			{
				"x": 1.4469659253,
				"y": 2.9619890799,
				"z": -0.30817881,
				"element": "H" 
			},
			{
				"x": 2.790765141,
				"y": 1.8993877228,
				"z": -0.7689826625,
				"element": "H" 
			},
			{
				"x": -0.2158829131,
				"y": -0.4442016775,
				"z": -0.8349678571,
				"element": "H" 
			},
			{
				"x": 1.9924540725,
				"y": 0.6976972243,
				"z": 0.9481311043,
				"element": "H" 
			},
			{
				"x": 2.133088672,
				"y": -0.728439843,
				"z": -0.0550593775,
				"element": "H" 
			},
			{
				"x": 0.3773586885,
				"y": -1.8851106976,
				"z": 1.238345807,
				"element": "H" 
			},
			{
				"x": 1.6983689394,
				"y": -1.3957280469,
				"z": 2.2627018284,
				"element": "H" 
			},
			{
				"x": -0.0927331943,
				"y": 1.2999552095,
				"z": 4.1232495796,
				"element": "H" 
			},
			{
				"x": 0.9402086268,
				"y": 1.6647218311,
				"z": 2.7444395742,
				"element": "H" 
			},
			{
				"x": 1.464002004,
				"y": 0.4808987346,
				"z": 3.9259632641,
				"element": "H" 
			},
			{
				"x": -1.7855369232,
				"y": 1.1091816044,
				"z": 2.3253502903,
				"element": "H" 
			},
			{
				"x": -3.2461802898,
				"y": -0.4055045168,
				"z": 1.2805108865,
				"element": "H" 
			},
			{
				"x": -1.9714124678,
				"y": -1.2301898541,
				"z": 0.4054945122,
				"element": "H" 
			},
			{
				"x": -2.996773372,
				"y": -1.9541303724,
				"z": 3.0565737972,
				"element": "H" 
			},
			{
				"x": -1.7338408944,
				"y": -2.7535371133,
				"z": 2.1302524892,
				"element": "H" 
			},
			{
				"x": -1.4873771027,
				"y": -0.5746704447,
				"z": 4.2076966252,
				"element": "H" 
			},
			{
				"x": 1.6038906787,
				"y": -1.4282923671,
				"z": 4.7436734419,
				"element": "H" 
			},
			{
				"x": 0.3072345967,
				"y": -0.9580642343,
				"z": 5.8789084618,
				"element": "H" 
			},
			{
				"x": -1.6223997097,
				"y": -4.9463750854,
				"z": 5.5551583068,
				"element": "H" 
			},
			{
				"x": -2.3582039835,
				"y": -4.4399607847,
				"z": 4.009034881,
				"element": "H" 
			},
			{
				"x": 0.5770505722,
				"y": -5.0565705053,
				"z": 4.5932066843,
				"element": "H" 
			},
			{
				"x": -0.3073112531,
				"y": -5.261596911,
				"z": 3.0526529761,
				"element": "H" 
			},
			{
				"x": -0.1875541334,
				"y": 2.0739592373,
				"z": 0.8689639768,
				"element": "H" 
			},
			{
				"x": -2.3792513812,
				"y": 2.5690337106,
				"z": 0.1710074306,
				"element": "H" 
			},
			{
				"x": -2.6729586574,
				"y": 0.9764719693,
				"z": -0.4765871803,
				"element": "H" 
			},
			{
				"x": -2.2758878288,
				"y": 2.6731842524,
				"z": -2.3396418715,
				"element": "H" 
			},
			{
				"x": -0.8328928003,
				"y": 2.9324643698,
				"z": -4.1737862146,
				"element": "H" 
			},
			{
				"x": 0.8973960216,
				"y": 2.8590467343,
				"z": -3.8587536587,
				"element": "H" 
			}
		],
		 "valence_orbital": [ 
			{
				"type": "occ",
				"energy": -0.26906,
				"method": "rhf"
			},
			{
				"type": "occ",
				"energy": -0.26422,
				"method": "rhf"
			},
			{
				"type": "occ",
				"energy": -0.26246,
				"method": "rhf"
			},
			{
				"type": "occ",
				"energy": -0.25216,
				"method": "rhf"
			},
			{
				"type": "occ",
				"energy": -0.23143,
				"method": "rhf"
			},
			{
				"type": "unocc",
				"energy": 0.00342,
				"method": "rhf"
			},
			{
				"type": "unocc",
				"energy": 0.01657,
				"method": "rhf"
			},
			{
				"type": "unocc",
				"energy": 0.02666,
				"method": "rhf"
			},
			{
				"type": "unocc",
				"energy": 0.06677,
				"method": "rhf"
			},
			{
				"type": "unocc",
				"energy": 0.07517,
				"method": "rhf"
			}
		],
		"cosmo_sigma_profile": { 
			"-0.025": 0.0,
			"-0.024": 0.0,
			"-0.023": 0.0,
			"-0.022": 0.0,
			"-0.021": 0.0,
			"-0.02": 0.0,
			"-0.019": 0.0,
			"-0.018": 0.0,
			"-0.017": 0.0,
			"-0.016": 0.0,
			"-0.015": 0.0,
			"-0.014": 0.0,
			"-0.013": 0.0,
			"-0.012": 0.0,
			"-0.011": 0.0,
			"-0.01": 0.0,
			"-0.009": 0.0,
			"-0.008": 0.146061162747,
			"-0.007": 3.5768827145,
			"-0.006": 11.0939279447,
			"-0.005": 18.9139712275,
			"-0.004": 30.7019484314,
			"-0.003": 50.8566186444,
			"-0.002": 68.5817607455,
			"-0.001": 69.628003092,
			"0.0": 56.5415375414,
			"0.001": 41.1170919414,
			"0.002": 24.7652767257,
			"0.003": 14.0586864083,
			"0.004": 14.9730253698,
			"0.005": 13.048216563,
			"0.006": 14.4447951267,
			"0.007": 8.29413599299,
			"0.008": 4.76161936694,
			"0.009": 4.60908878807,
			"0.01": 4.43004601058,
			"0.011": 3.94641126562,
			"0.012": 5.46788869706,
			"0.013": 2.5492820857,
			"0.014": 0.138298408922,
			"0.015": 0.0,
			"0.016": 0.0,
			"0.017": 0.0,
			"0.018": 0.0,
			"0.019": 0.0,
			"0.02": 0.0,
			"0.021": 0.0,
			"0.022": 0.0,
			"0.023": 0.0,
			"0.024": 0.0,
			"0.025": 0.0
		}
	}
}
