{
	 "smiles": "COC1=C(C=CC(C)=N1)C(O)=O", 
	 "Tm": 381.15, 
	 "num_atms": 21, 
	 "gaussian": { 
		 "optdone": 1, 
		 "sigma_profile": "yes", 
		 "theory": "DFT", 
		 "functional": "B3LYP", 
		 "basiset": "6-31G**", 
		 "properties": { 
			 "R2extent": 3344.2987, 
			 "electric_dipole_moment_norm": 2.5640104095, 
			 "electric_quadrupole_moment_norm": 10.2189107262, 
			 "total_energy": -590.713654996, 
			 "HOMO_LUMO_gap": 0.18553, 
			 "cosmo_polarized_energy": -12.18, 
			 "cosmo_cavitation_energy": 25.55, 
			 "cosmo_dispersion_energy": -18.75, 
			 "cosmo_repulsion_energy": 1.52, 
			 "cosmo_total_nonelectrostatic_energy": 8.32, 
			 "SMD_solvation_energy": 5.85 
		},
		"coords": [
			{
				"x": -1.820100387,
				"y": 1.803418188,
				"z": 1.2177514527,
				"element": "C" 
			},
			{
				"x": -2.468912026,
				"y": 0.8125995457,
				"z": 0.4134786835,
				"element": "O" 
			},
			{
				"x": -1.6944054892,
				"y": -0.0093018765,
				"z": -0.3060125819,
				"element": "C" 
			},
			{
				"x": -2.3165821732,
				"y": -1.0007685552,
				"z": -1.111455265,
				"element": "C" 
			},
			{
				"x": -1.4598911576,
				"y": -1.832460787,
				"z": -1.8420574792,
				"element": "C" 
			},
			{
				"x": -0.081711718,
				"y": -1.6743987787,
				"z": -1.7645417828,
				"element": "C" 
			},
			{
				"x": 0.4297646177,
				"y": -0.6658544841,
				"z": -0.9403019472,
				"element": "C" 
			},
			{
				"x": 1.9143558871,
				"y": -0.4371355599,
				"z": -0.8078352068,
				"element": "C" 
			},
			{
				"x": -0.3721324173,
				"y": 0.1430738487,
				"z": -0.231036153,
				"element": "N" 
			},
			{
				"x": -3.787721748,
				"y": -1.1636004709,
				"z": -1.1892073882,
				"element": "C" 
			},
			{
				"x": -4.1393409585,
				"y": -2.1825285599,
				"z": -2.0295013502,
				"element": "O" 
			},
			{
				"x": -4.6287546216,
				"y": -0.5106283968,
				"z": -0.6082602181,
				"element": "O" 
			},
			{
				"x": -1.1662638909,
				"y": 1.3412738859,
				"z": 1.9622465185,
				"element": "H" 
			},
			{
				"x": -2.631676701,
				"y": 2.3444355958,
				"z": 1.7052167704,
				"element": "H" 
			},
			{
				"x": -1.2228472497,
				"y": 2.4818111703,
				"z": 0.6025230525,
				"element": "H" 
			},
			{
				"x": -1.8926428097,
				"y": -2.6025557874,
				"z": -2.4697439854,
				"element": "H" 
			},
			{
				"x": 0.586329248,
				"y": -2.3166211633,
				"z": -2.3289331898,
				"element": "H" 
			},
			{
				"x": 2.3637025486,
				"y": -0.2037987233,
				"z": -1.7797198571,
				"element": "H" 
			},
			{
				"x": 2.4170020338,
				"y": -1.3335293703,
				"z": -0.4273519733,
				"element": "H" 
			},
			{
				"x": 2.1045552885,
				"y": 0.3907857551,
				"z": -0.1236256647,
				"element": "H" 
			},
			{
				"x": -5.1096262761,
				"y": -2.2015154761,
				"z": -2.0065324348,
				"element": "H" 
			}
		],
		 "valence_orbital": [ 
			{
				"type": "occ",
				"energy": -0.31026,
				"method": "rhf"
			},
			{
				"type": "occ",
				"energy": -0.28714,
				"method": "rhf"
			},
			{
				"type": "occ",
				"energy": -0.27319,
				"method": "rhf"
			},
			{
				"type": "occ",
				"energy": -0.26064,
				"method": "rhf"
			},
			{
				"type": "occ",
				"energy": -0.23443,
				"method": "rhf"
			},
			{
				"type": "unocc",
				"energy": -0.0489,
				"method": "rhf"
			},
			{
				"type": "unocc",
				"energy": -0.00785,
				"method": "rhf"
			},
			{
				"type": "unocc",
				"energy": 0.05236,
				"method": "rhf"
			},
			{
				"type": "unocc",
				"energy": 0.08551,
				"method": "rhf"
			},
			{
				"type": "unocc",
				"energy": 0.10721,
				"method": "rhf"
			}
		],
		"cosmo_sigma_profile": { 
			"-0.025": 0.0,
			"-0.024": 0.0,
			"-0.023": 0.0,
			"-0.022": 0.0,
			"-0.021": 0.0,
			"-0.02": 0.0,
			"-0.019": 0.0,
			"-0.018": 0.511760162915,
			"-0.017": 0.734657353085,
			"-0.016": 0.706479716177,
			"-0.015": 0.908963179092,
			"-0.014": 0.702515542548,
			"-0.013": 0.969093775972,
			"-0.012": 0.556058333156,
			"-0.011": 0.609950103471,
			"-0.01": 0.652452978857,
			"-0.009": 0.516999769835,
			"-0.008": 0.4309873015,
			"-0.007": 2.32944528771,
			"-0.006": 7.88988600453,
			"-0.005": 14.9289135535,
			"-0.004": 17.1991455712,
			"-0.003": 18.7349004425,
			"-0.002": 16.4771818563,
			"-0.001": 20.7427640728,
			"0.0": 21.2094099347,
			"0.001": 14.4968177822,
			"0.002": 11.1580385521,
			"0.003": 8.67320786803,
			"0.004": 4.48002225923,
			"0.005": 5.72371827614,
			"0.006": 4.61984841271,
			"0.007": 5.25479348982,
			"0.008": 2.70044750367,
			"0.009": 2.90213901212,
			"0.01": 3.16425177037,
			"0.011": 3.07249606212,
			"0.012": 4.69832157962,
			"0.013": 1.98331759608,
			"0.014": 1.74384782263,
			"0.015": 1.39190832867,
			"0.016": 0.192321320634,
			"0.017": 0.0,
			"0.018": 0.0,
			"0.019": 0.0,
			"0.02": 0.0,
			"0.021": 0.0,
			"0.022": 0.0,
			"0.023": 0.0,
			"0.024": 0.0,
			"0.025": 0.0
		}
	}
}
