{
	 "smiles": "CN(C)C1=CC=C(CNC(=O)C2=CC(=CC(=C2)[N+]([O-])=O)[N+]([O-])=O)C=C1", 
	 "Tm": 418.15, 
	 "num_atms": 41, 
	 "gaussian": { 
		 "optdone": 1, 
		 "sigma_profile": "yes", 
		 "theory": "DFT", 
		 "functional": "B3LYP", 
		 "basiset": "6-31G**", 
		 "properties": { 
			 "R2extent": 9696.6297, 
			 "electric_dipole_moment_norm": 6.45217938452, 
			 "electric_quadrupole_moment_norm": 19.3257835569, 
			 "total_energy": -1214.26878698, 
			 "HOMO_LUMO_gap": 0.08812, 
			 "cosmo_polarized_energy": -20.32, 
			 "cosmo_cavitation_energy": 47.05, 
			 "cosmo_dispersion_energy": -30.85, 
			 "cosmo_repulsion_energy": 2.38, 
			 "cosmo_total_nonelectrostatic_energy": 18.58, 
			 "SMD_solvation_energy": 12.1 
		},
		"coords": [
			{
				"x": -3.7312940648,
				"y": -0.4859914853,
				"z": 3.3544738786,
				"element": "C" 
			},
			{
				"x": -3.2843205891,
				"y": 0.7031769998,
				"z": 2.6496977657,
				"element": "N" 
			},
			{
				"x": -4.1249943492,
				"y": 1.8880509523,
				"z": 2.6695980888,
				"element": "C" 
			},
			{
				"x": -1.96069815,
				"y": 0.807223735,
				"z": 2.2539146945,
				"element": "C" 
			},
			{
				"x": -1.068751804,
				"y": -0.2842638827,
				"z": 2.3641771406,
				"element": "C" 
			},
			{
				"x": 0.2493917672,
				"y": -0.1763326283,
				"z": 1.9311094885,
				"element": "C" 
			},
			{
				"x": 0.7529471463,
				"y": 1.0086388186,
				"z": 1.3860257496,
				"element": "C" 
			},
			{
				"x": 2.2068345335,
				"y": 1.1095960435,
				"z": 0.9638032475,
				"element": "C" 
			},
			{
				"x": 2.4433507525,
				"y": 1.7805268246,
				"z": -0.3262376024,
				"element": "N" 
			},
			{
				"x": 1.8494197,
				"y": 1.4953376767,
				"z": -1.5291216213,
				"element": "C" 
			},
			{
				"x": 1.7159301232,
				"y": 2.3407707416,
				"z": -2.4059431465,
				"element": "O" 
			},
			{
				"x": 1.3979223915,
				"y": 0.0789330257,
				"z": -1.7878856322,
				"element": "C" 
			},
			{
				"x": 2.1731367886,
				"y": -1.0345669377,
				"z": -1.4545814433,
				"element": "C" 
			},
			{
				"x": 1.7285525652,
				"y": -2.3058479009,
				"z": -1.8156420217,
				"element": "C" 
			},
			{
				"x": 0.5342773558,
				"y": -2.5154456989,
				"z": -2.4928737859,
				"element": "C" 
			},
			{
				"x": -0.2089955464,
				"y": -1.3859712348,
				"z": -2.8210563888,
				"element": "C" 
			},
			{
				"x": 0.2057846366,
				"y": -0.0981797904,
				"z": -2.4999732429,
				"element": "C" 
			},
			{
				"x": -1.4826323157,
				"y": -1.5685567433,
				"z": -3.5468473418,
				"element": "N" 
			},
			{
				"x": -1.8153719871,
				"y": -2.7194091773,
				"z": -3.820169972,
				"element": "O" 
			},
			{
				"x": -2.123366697,
				"y": -0.5587946994,
				"z": -3.8257392888,
				"element": "O" 
			},
			{
				"x": 2.5556570727,
				"y": -3.4754071071,
				"z": -1.4607881616,
				"element": "N" 
			},
			{
				"x": 2.1437384772,
				"y": -4.5829543697,
				"z": -1.7949160128,
				"element": "O" 
			},
			{
				"x": 3.600909526,
				"y": -3.2623014798,
				"z": -0.8488898297,
				"element": "O" 
			},
			{
				"x": -0.1238049592,
				"y": 2.0964544461,
				"z": 1.2893276418,
				"element": "C" 
			},
			{
				"x": -1.4456554737,
				"y": 2.0084261942,
				"z": 1.7092945299,
				"element": "C" 
			},
			{
				"x": -3.5951253569,
				"y": -1.3854987815,
				"z": 2.7421129714,
				"element": "H" 
			},
			{
				"x": -4.7966425951,
				"y": -0.3951802801,
				"z": 3.5702247202,
				"element": "H" 
			},
			{
				"x": -3.2010908528,
				"y": -0.6412148908,
				"z": 4.3066601282,
				"element": "H" 
			},
			{
				"x": -3.7553564001,
				"y": 2.6619261981,
				"z": 3.3598378988,
				"element": "H" 
			},
			{
				"x": -5.1314383129,
				"y": 1.6072728241,
				"z": 2.9827374392,
				"element": "H" 
			},
			{
				"x": -4.2038817496,
				"y": 2.3354536379,
				"z": 1.6716531791,
				"element": "H" 
			},
			{
				"x": -1.4030903599,
				"y": -1.2264094323,
				"z": 2.7803150775,
				"element": "H" 
			},
			{
				"x": 0.9010039799,
				"y": -1.0426202037,
				"z": 2.025965705,
				"element": "H" 
			},
			{
				"x": 2.6537893415,
				"y": 0.1110964023,
				"z": 0.959262559,
				"element": "H" 
			},
			{
				"x": 2.7846275635,
				"y": 1.6874110992,
				"z": 1.6944088003,
				"element": "H" 
			},
			{
				"x": 2.7003936817,
				"y": 2.758913679,
				"z": -0.2789929361,
				"element": "H" 
			},
			{
				"x": 3.1234105483,
				"y": -0.9371589483,
				"z": -0.9458878794,
				"element": "H" 
			},
			{
				"x": 0.2005480868,
				"y": -3.5089513406,
				"z": -2.7585354421,
				"element": "H" 
			},
			{
				"x": -0.3847607104,
				"y": 0.7573475826,
				"z": -2.8018866926,
				"element": "H" 
			},
			{
				"x": 0.2256716302,
				"y": 3.0372567798,
				"z": 0.8708059614,
				"element": "H" 
			},
			{
				"x": -2.0795253942,
				"y": 2.8809433516,
				"z": 1.6117617763,
				"element": "H" 
			}
		],
		 "valence_orbital": [ 
			{
				"type": "occ",
				"energy": -0.29335,
				"method": "rhf"
			},
			{
				"type": "occ",
				"energy": -0.27591,
				"method": "rhf"
			},
			{
				"type": "occ",
				"energy": -0.26429,
				"method": "rhf"
			},
			{
				"type": "occ",
				"energy": -0.25683,
				"method": "rhf"
			},
			{
				"type": "occ",
				"energy": -0.19888,
				"method": "rhf"
			},
			{
				"type": "unocc",
				"energy": -0.11076,
				"method": "rhf"
			},
			{
				"type": "unocc",
				"energy": -0.10195,
				"method": "rhf"
			},
			{
				"type": "unocc",
				"energy": -0.05473,
				"method": "rhf"
			},
			{
				"type": "unocc",
				"energy": -0.01137,
				"method": "rhf"
			},
			{
				"type": "unocc",
				"energy": -0.00536,
				"method": "rhf"
			}
		],
		"cosmo_sigma_profile": { 
			"-0.025": 0.0,
			"-0.024": 0.0,
			"-0.023": 0.0,
			"-0.022": 0.0,
			"-0.021": 0.0,
			"-0.02": 0.0,
			"-0.019": 0.0,
			"-0.018": 0.0,
			"-0.017": 0.0,
			"-0.016": 0.0,
			"-0.015": 0.0,
			"-0.014": 0.954258375055,
			"-0.013": 1.00838713342,
			"-0.012": 1.02654591589,
			"-0.011": 1.29633881209,
			"-0.01": 1.13474941613,
			"-0.009": 2.19002316839,
			"-0.008": 7.3524917553,
			"-0.007": 9.39599782827,
			"-0.006": 19.1326979402,
			"-0.005": 26.8964519816,
			"-0.004": 35.0815976327,
			"-0.003": 41.6470857022,
			"-0.002": 32.5352697289,
			"-0.001": 28.2262027909,
			"0.0": 18.7846430931,
			"0.001": 14.6282704945,
			"0.002": 14.6201789757,
			"0.003": 12.5557280821,
			"0.004": 14.578108704,
			"0.005": 16.785558339,
			"0.006": 22.86159929,
			"0.007": 21.7877013755,
			"0.008": 10.4576717956,
			"0.009": 7.36433724231,
			"0.01": 1.91519535399,
			"0.011": 2.22588963926,
			"0.012": 3.56293948379,
			"0.013": 4.47009673417,
			"0.014": 0.364975099054,
			"0.015": 0.0,
			"0.016": 0.0,
			"0.017": 0.0,
			"0.018": 0.0,
			"0.019": 0.0,
			"0.02": 0.0,
			"0.021": 0.0,
			"0.022": 0.0,
			"0.023": 0.0,
			"0.024": 0.0,
			"0.025": 0.0
		}
	}
}
