{
	 "smiles": "CC1=CC2=C(C=CC=C2)N=C1", 
	 "Tm": 288.95, 
	 "num_atms": 20, 
	 "gaussian": { 
		 "optdone": 1, 
		 "sigma_profile": "yes", 
		 "theory": "DFT", 
		 "functional": "B3LYP", 
		 "basiset": "6-31G**", 
		 "properties": { 
			 "R2extent": 1913.6307, 
			 "electric_dipole_moment_norm": 2.10175057749, 
			 "electric_quadrupole_moment_norm": 9.93249147999, 
			 "total_energy": -441.253513223, 
			 "HOMO_LUMO_gap": 0.18019, 
			 "cosmo_polarized_energy": -6.81, 
			 "cosmo_cavitation_energy": 23.46, 
			 "cosmo_dispersion_energy": -17.62, 
			 "cosmo_repulsion_energy": 1.39, 
			 "cosmo_total_nonelectrostatic_energy": 7.23, 
			 "SMD_solvation_energy": 2.42 
		},
		"coords": [
			{
				"x": 0.3849597924,
				"y": 0.5803784639,
				"z": -3.0607441163,
				"element": "C" 
			},
			{
				"x": 0.0665704076,
				"y": -0.0794841561,
				"z": -1.7433107225,
				"element": "C" 
			},
			{
				"x": 0.774155069,
				"y": 0.170736187,
				"z": -0.5891251891,
				"element": "C" 
			},
			{
				"x": 0.4254073811,
				"y": -0.4838743143,
				"z": 0.6212137655,
				"element": "C" 
			},
			{
				"x": -0.6737806533,
				"y": -1.3977359548,
				"z": 0.5857340717,
				"element": "C" 
			},
			{
				"x": -1.0517141311,
				"y": -2.0717893775,
				"z": 1.7755581005,
				"element": "C" 
			},
			{
				"x": -0.3679512658,
				"y": -1.8479801659,
				"z": 2.9507112694,
				"element": "C" 
			},
			{
				"x": 0.7211007134,
				"y": -0.9426837246,
				"z": 2.9866872244,
				"element": "C" 
			},
			{
				"x": 1.1103766224,
				"y": -0.2741553691,
				"z": 1.8463683334,
				"element": "C" 
			},
			{
				"x": -1.3765823665,
				"y": -1.6455283664,
				"z": -0.5612131675,
				"element": "N" 
			},
			{
				"x": -1.0105179565,
				"y": -1.0114433655,
				"z": -1.6532827633,
				"element": "C" 
			},
			{
				"x": 1.2319894321,
				"y": 1.2654990758,
				"z": -2.9681161833,
				"element": "H" 
			},
			{
				"x": -0.470740337,
				"y": 1.1524718716,
				"z": -3.437689858,
				"element": "H" 
			},
			{
				"x": 0.6365865074,
				"y": -0.1617797415,
				"z": -3.8274384,
				"element": "H" 
			},
			{
				"x": 1.6063011656,
				"y": 0.8721268406,
				"z": -0.5920383257,
				"element": "H" 
			},
			{
				"x": -1.8891123658,
				"y": -2.7599074602,
				"z": 1.721251417,
				"element": "H" 
			},
			{
				"x": -0.6625265803,
				"y": -2.3670443338,
				"z": 3.858225127,
				"element": "H" 
			},
			{
				"x": 1.2503481776,
				"y": -0.776927446,
				"z": 3.9206422883,
				"element": "H" 
			},
			{
				"x": 1.9459335854,
				"y": 0.4210304924,
				"z": 1.8710023232,
				"element": "H" 
			},
			{
				"x": -1.5908031978,
				"y": -1.2285091553,
				"z": -2.5518351946,
				"element": "H" 
			}
		],
		 "valence_orbital": [ 
			{
				"type": "occ",
				"energy": -0.33432,
				"method": "rhf"
			},
			{
				"type": "occ",
				"energy": -0.29763,
				"method": "rhf"
			},
			{
				"type": "occ",
				"energy": -0.24926,
				"method": "rhf"
			},
			{
				"type": "occ",
				"energy": -0.24318,
				"method": "rhf"
			},
			{
				"type": "occ",
				"energy": -0.22707,
				"method": "rhf"
			},
			{
				"type": "unocc",
				"energy": -0.04688,
				"method": "rhf"
			},
			{
				"type": "unocc",
				"energy": -0.01272,
				"method": "rhf"
			},
			{
				"type": "unocc",
				"energy": 0.02449,
				"method": "rhf"
			},
			{
				"type": "unocc",
				"energy": 0.08716,
				"method": "rhf"
			},
			{
				"type": "unocc",
				"energy": 0.09758,
				"method": "rhf"
			}
		],
		"cosmo_sigma_profile": { 
			"-0.025": 0.0,
			"-0.024": 0.0,
			"-0.023": 0.0,
			"-0.022": 0.0,
			"-0.021": 0.0,
			"-0.02": 0.0,
			"-0.019": 0.0,
			"-0.018": 0.0,
			"-0.017": 0.0,
			"-0.016": 0.0,
			"-0.015": 0.0,
			"-0.014": 0.0,
			"-0.013": 0.0,
			"-0.012": 0.0,
			"-0.011": 0.0,
			"-0.01": 0.0,
			"-0.009": 0.0,
			"-0.008": 0.0,
			"-0.007": 1.07686319672,
			"-0.006": 11.0733977665,
			"-0.005": 14.9622835907,
			"-0.004": 19.6053324403,
			"-0.003": 16.6909999822,
			"-0.002": 14.4356599669,
			"-0.001": 15.2020111721,
			"0.0": 13.6362209158,
			"0.001": 12.6551527291,
			"0.002": 16.8907309602,
			"0.003": 17.8417837394,
			"0.004": 13.0169621305,
			"0.005": 8.30499310929,
			"0.006": 1.85529719292,
			"0.007": 1.35044343771,
			"0.008": 1.48705716455,
			"0.009": 1.0938957321,
			"0.01": 1.0929763662,
			"0.011": 1.2322946563,
			"0.012": 0.759012048047,
			"0.013": 0.754964014823,
			"0.014": 1.12849350038,
			"0.015": 0.520371484122,
			"0.016": 0.872595939696,
			"0.017": 0.197804418406,
			"0.018": 0.0,
			"0.019": 0.0,
			"0.02": 0.0,
			"0.021": 0.0,
			"0.022": 0.0,
			"0.023": 0.0,
			"0.024": 0.0,
			"0.025": 0.0
		}
	}
}
