{
	 "smiles": "SC1=NN=C(SCC(=O)C2=CC=CC=C2)S1", 
	 "Tm": 463.15, 
	 "num_atms": 24, 
	 "gaussian": { 
		 "optdone": 1, 
		 "sigma_profile": "yes", 
		 "theory": "DFT", 
		 "functional": "B3LYP", 
		 "basiset": "6-31G**", 
		 "properties": { 
			 "R2extent": 8127.7662, 
			 "electric_dipole_moment_norm": 3.46123226323, 
			 "electric_quadrupole_moment_norm": 9.80687868794, 
			 "total_energy": -1765.12151053, 
			 "HOMO_LUMO_gap": 0.16319, 
			 "cosmo_polarized_energy": -14.87, 
			 "cosmo_cavitation_energy": 34.82, 
			 "cosmo_dispersion_energy": -25.64, 
			 "cosmo_repulsion_energy": 1.87, 
			 "cosmo_total_nonelectrostatic_energy": 11.05, 
			 "SMD_solvation_energy": 3.16 
		},
		"coords": [
			{
				"x": 2.4276859391,
				"y": -2.0861267384,
				"z": 5.7141623876,
				"element": "S" 
			},
			{
				"x": 1.1212177668,
				"y": -1.4423539748,
				"z": 4.7206283511,
				"element": "C" 
			},
			{
				"x": 0.6659137794,
				"y": -0.2194546864,
				"z": 4.8248657491,
				"element": "N" 
			},
			{
				"x": -0.3709109908,
				"y": 0.0302389455,
				"z": 3.9754145032,
				"element": "N" 
			},
			{
				"x": -0.6836661293,
				"y": -0.9842999654,
				"z": 3.2220190891,
				"element": "C" 
			},
			{
				"x": -1.9880823809,
				"y": -0.9753911289,
				"z": 2.0288156012,
				"element": "S" 
			},
			{
				"x": -1.3496356788,
				"y": 0.3271275695,
				"z": 0.8747399672,
				"element": "C" 
			},
			{
				"x": -0.2210313169,
				"y": -0.2179148952,
				"z": 0.0047546618,
				"element": "C" 
			},
			{
				"x": 0.9338689054,
				"y": -0.0351671106,
				"z": 0.3604994086,
				"element": "O" 
			},
			{
				"x": -0.5384040548,
				"y": -0.9799529174,
				"z": -1.2429308937,
				"element": "C" 
			},
			{
				"x": -1.8471556257,
				"y": -1.2468902982,
				"z": -1.6747284042,
				"element": "C" 
			},
			{
				"x": -2.0691762256,
				"y": -1.9589907151,
				"z": -2.8530300367,
				"element": "C" 
			},
			{
				"x": -0.9876957301,
				"y": -2.4081310607,
				"z": -3.6130064174,
				"element": "C" 
			},
			{
				"x": 0.3197486639,
				"y": -2.1473132078,
				"z": -3.1908942697,
				"element": "C" 
			},
			{
				"x": 0.5422092178,
				"y": -1.4405176093,
				"z": -2.0138831108,
				"element": "C" 
			},
			{
				"x": 0.3129669495,
				"y": -2.4106224925,
				"z": 3.5103449056,
				"element": "S" 
			},
			{
				"x": 2.5776918815,
				"y": -0.9318326106,
				"z": 6.395261532,
				"element": "H" 
			},
			{
				"x": -2.2212658893,
				"y": 0.659485301,
				"z": 0.3073385797,
				"element": "H" 
			},
			{
				"x": -0.9699902411,
				"y": 1.1498171269,
				"z": 1.4802950259,
				"element": "H" 
			},
			{
				"x": -2.7013648722,
				"y": -0.9124040937,
				"z": -1.0955667196,
				"element": "H" 
			},
			{
				"x": -3.0853255029,
				"y": -2.1631424018,
				"z": -3.1768067887,
				"element": "H" 
			},
			{
				"x": -1.1627023369,
				"y": -2.9605045001,
				"z": -4.5318125105,
				"element": "H" 
			},
			{
				"x": 1.161851781,
				"y": -2.4967654366,
				"z": -3.7809650704,
				"element": "H" 
			},
			{
				"x": 1.5467520908,
				"y": -1.2270930995,
				"z": -1.6647155405,
				"element": "H" 
			}
		],
		 "valence_orbital": [ 
			{
				"type": "occ",
				"energy": -0.27341,
				"method": "rhf"
			},
			{
				"type": "occ",
				"energy": -0.26781,
				"method": "rhf"
			},
			{
				"type": "occ",
				"energy": -0.26507,
				"method": "rhf"
			},
			{
				"type": "occ",
				"energy": -0.25846,
				"method": "rhf"
			},
			{
				"type": "occ",
				"energy": -0.23691,
				"method": "rhf"
			},
			{
				"type": "unocc",
				"energy": -0.07372,
				"method": "rhf"
			},
			{
				"type": "unocc",
				"energy": -0.04942,
				"method": "rhf"
			},
			{
				"type": "unocc",
				"energy": -0.01887,
				"method": "rhf"
			},
			{
				"type": "unocc",
				"energy": -0.0166,
				"method": "rhf"
			},
			{
				"type": "unocc",
				"energy": -0.00233,
				"method": "rhf"
			}
		],
		"cosmo_sigma_profile": { 
			"-0.025": 0.0,
			"-0.024": 0.0,
			"-0.023": 0.0,
			"-0.022": 0.0,
			"-0.021": 0.0,
			"-0.02": 0.0,
			"-0.019": 0.0,
			"-0.018": 0.0,
			"-0.017": 0.0,
			"-0.016": 0.0,
			"-0.015": 0.0,
			"-0.014": 0.0,
			"-0.013": 0.60090312957,
			"-0.012": 1.82892231416,
			"-0.011": 2.22708035547,
			"-0.01": 3.00389335875,
			"-0.009": 3.53382649707,
			"-0.008": 3.43730398724,
			"-0.007": 8.64482326937,
			"-0.006": 14.7631819299,
			"-0.005": 17.7215948972,
			"-0.004": 20.7385392093,
			"-0.003": 18.3368037411,
			"-0.002": 20.3327275175,
			"-0.001": 20.2125509922,
			"0.0": 21.7586273155,
			"0.001": 21.608456528,
			"0.002": 22.2485099416,
			"0.003": 21.7407641342,
			"0.004": 20.5467723216,
			"0.005": 8.94834970606,
			"0.006": 6.53827763784,
			"0.007": 4.38317197989,
			"0.008": 3.02721857054,
			"0.009": 4.47432689397,
			"0.01": 5.07847653626,
			"0.011": 6.04719949834,
			"0.012": 3.78890632914,
			"0.013": 1.38581343108,
			"0.014": 0.186443017185,
			"0.015": 0.0,
			"0.016": 0.0,
			"0.017": 0.0,
			"0.018": 0.0,
			"0.019": 0.0,
			"0.02": 0.0,
			"0.021": 0.0,
			"0.022": 0.0,
			"0.023": 0.0,
			"0.024": 0.0,
			"0.025": 0.0
		}
	}
}
