{
	 "smiles": "CN1C=CC2=C1C=C(C=O)C=C2", 
	 "Tm": 354.15, 
	 "num_atms": 21, 
	 "gaussian": { 
		 "optdone": 1, 
		 "sigma_profile": "yes", 
		 "theory": "DFT", 
		 "functional": "B3LYP", 
		 "basiset": "6-31G**", 
		 "properties": { 
			 "R2extent": 2379.3011, 
			 "electric_dipole_moment_norm": 5.95150147946, 
			 "electric_quadrupole_moment_norm": 15.3079084417, 
			 "total_energy": -516.4597089, 
			 "HOMO_LUMO_gap": 0.16218, 
			 "cosmo_polarized_energy": -11.87, 
			 "cosmo_cavitation_energy": 25.15, 
			 "cosmo_dispersion_energy": -18.34, 
			 "cosmo_repulsion_energy": 1.43, 
			 "cosmo_total_nonelectrostatic_energy": 8.25, 
			 "SMD_solvation_energy": 5.51 
		},
		"coords": [
			{
				"x": -2.5716033665,
				"y": 1.3792947489,
				"z": -0.4255062671,
				"element": "C" 
			},
			{
				"x": -1.6014826105,
				"y": 0.4165823192,
				"z": 0.0562062114,
				"element": "N" 
			},
			{
				"x": -1.8284542614,
				"y": -0.5734944227,
				"z": 0.9908445158,
				"element": "C" 
			},
			{
				"x": -0.6836918325,
				"y": -1.3007431421,
				"z": 1.2068189365,
				"element": "C" 
			},
			{
				"x": 0.3273308364,
				"y": -0.7427377566,
				"z": 0.3632399547,
				"element": "C" 
			},
			{
				"x": -0.2806989467,
				"y": 0.3352879529,
				"z": -0.3475914416,
				"element": "C" 
			},
			{
				"x": 0.4259927442,
				"y": 1.1084155118,
				"z": -1.2673164102,
				"element": "C" 
			},
			{
				"x": 1.7719341997,
				"y": 0.7961352891,
				"z": -1.4810807428,
				"element": "C" 
			},
			{
				"x": 2.5455323018,
				"y": 1.5956066037,
				"z": -2.4473054154,
				"element": "C" 
			},
			{
				"x": 3.7201705831,
				"y": 1.4233660593,
				"z": -2.7209286802,
				"element": "O" 
			},
			{
				"x": 2.3924651011,
				"y": -0.2714312194,
				"z": -0.783845061,
				"element": "C" 
			},
			{
				"x": 1.6868734832,
				"y": -1.0349346961,
				"z": 0.1272250552,
				"element": "C" 
			},
			{
				"x": -2.7184599886,
				"y": 1.2820862107,
				"z": -1.5068885204,
				"element": "H" 
			},
			{
				"x": -2.2513312478,
				"y": 2.403793882,
				"z": -0.2059006697,
				"element": "H" 
			},
			{
				"x": -3.5270061027,
				"y": 1.2014245118,
				"z": 0.0708942714,
				"element": "H" 
			},
			{
				"x": -2.8091913215,
				"y": -0.6796014147,
				"z": 1.4341399275,
				"element": "H" 
			},
			{
				"x": -0.580193094,
				"y": -2.1335793479,
				"z": 1.8873475058,
				"element": "H" 
			},
			{
				"x": -0.0383111236,
				"y": 1.9295332173,
				"z": -1.8082671022,
				"element": "H" 
			},
			{
				"x": 1.9623166384,
				"y": 2.4087223015,
				"z": -2.9392566806,
				"element": "H" 
			},
			{
				"x": 3.439454999,
				"y": -0.4655244694,
				"z": -0.9922487185,
				"element": "H" 
			},
			{
				"x": 2.1701530088,
				"y": -1.8510021393,
				"z": 0.6570193315,
				"element": "H" 
			}
		],
		 "valence_orbital": [ 
			{
				"type": "occ",
				"energy": -0.32654,
				"method": "rhf"
			},
			{
				"type": "occ",
				"energy": -0.28313,
				"method": "rhf"
			},
			{
				"type": "occ",
				"energy": -0.24189,
				"method": "rhf"
			},
			{
				"type": "occ",
				"energy": -0.23004,
				"method": "rhf"
			},
			{
				"type": "occ",
				"energy": -0.21284,
				"method": "rhf"
			},
			{
				"type": "unocc",
				"energy": -0.05066,
				"method": "rhf"
			},
			{
				"type": "unocc",
				"energy": -0.0021,
				"method": "rhf"
			},
			{
				"type": "unocc",
				"energy": 0.04331,
				"method": "rhf"
			},
			{
				"type": "unocc",
				"energy": 0.07794,
				"method": "rhf"
			},
			{
				"type": "unocc",
				"energy": 0.07874,
				"method": "rhf"
			}
		],
		"cosmo_sigma_profile": { 
			"-0.025": 0.0,
			"-0.024": 0.0,
			"-0.023": 0.0,
			"-0.022": 0.0,
			"-0.021": 0.0,
			"-0.02": 0.0,
			"-0.019": 0.0,
			"-0.018": 0.0,
			"-0.017": 0.0,
			"-0.016": 0.0,
			"-0.015": 0.0,
			"-0.014": 0.0,
			"-0.013": 0.0,
			"-0.012": 0.0,
			"-0.011": 0.0,
			"-0.01": 0.0,
			"-0.009": 1.26401758394,
			"-0.008": 3.95861106031,
			"-0.007": 6.7573468946,
			"-0.006": 13.8779688157,
			"-0.005": 19.4926737691,
			"-0.004": 16.5175785425,
			"-0.003": 19.1158728867,
			"-0.002": 13.2007742639,
			"-0.001": 10.4251139925,
			"0.0": 8.70482806973,
			"0.001": 9.37215616668,
			"0.002": 11.0019325318,
			"0.003": 14.2143310003,
			"0.004": 16.2943972491,
			"0.005": 13.8680667045,
			"0.006": 5.62060803944,
			"0.007": 1.52561236568,
			"0.008": 1.87983298793,
			"0.009": 1.83076957186,
			"0.01": 2.27893258915,
			"0.011": 2.98681888398,
			"0.012": 4.56681754884,
			"0.013": 2.29896670444,
			"0.014": 0.400401798349,
			"0.015": 0.0,
			"0.016": 0.0,
			"0.017": 0.0,
			"0.018": 0.0,
			"0.019": 0.0,
			"0.02": 0.0,
			"0.021": 0.0,
			"0.022": 0.0,
			"0.023": 0.0,
			"0.024": 0.0,
			"0.025": 0.0
		}
	}
}
