{
	 "smiles": "BrC1=CC=C(OC2=NC=CC=N2)C=C1", 
	 "Tm": 388.15, 
	 "num_atms": 21, 
	 "gaussian": { 
		 "optdone": 1, 
		 "sigma_profile": "yes", 
		 "theory": "DFT", 
		 "functional": "B3LYP", 
		 "basiset": "6-31G**", 
		 "properties": { 
			 "R2extent": 6999.9604, 
			 "electric_dipole_moment_norm": 3.34301378998, 
			 "electric_quadrupole_moment_norm": 12.4636407799, 
			 "total_energy": -3141.39990082, 
			 "HOMO_LUMO_gap": 0.18424, 
			 "cosmo_polarized_energy": -10.23, 
			 "cosmo_cavitation_energy": 28.78, 
			 "cosmo_dispersion_energy": -21.57, 
			 "cosmo_repulsion_energy": 1.7, 
			 "cosmo_total_nonelectrostatic_energy": 8.91, 
			 "SMD_solvation_energy": 1.75 
		},
		"coords": [
			{
				"x": -1.7114014565,
				"y": -3.0547355838,
				"z": 4.6021177052,
				"element": "Br" 
			},
			{
				"x": -1.5840597169,
				"y": -2.0124423012,
				"z": 3.0043729437,
				"element": "C" 
			},
			{
				"x": -1.7178803501,
				"y": -0.6256932317,
				"z": 3.0788965018,
				"element": "C" 
			},
			{
				"x": -1.6275464827,
				"y": 0.1362136212,
				"z": 1.9158019393,
				"element": "C" 
			},
			{
				"x": -1.397278929,
				"y": -0.499019993,
				"z": 0.695619198,
				"element": "C" 
			},
			{
				"x": -1.4011834592,
				"y": 0.2009671663,
				"z": -0.5057713273,
				"element": "O" 
			},
			{
				"x": -0.492089383,
				"y": 1.1770360152,
				"z": -0.7531991421,
				"element": "C" 
			},
			{
				"x": -0.7040912102,
				"y": 1.806496042,
				"z": -1.9129788449,
				"element": "N" 
			},
			{
				"x": 0.1785480222,
				"y": 2.7611519399,
				"z": -2.2121240932,
				"element": "C" 
			},
			{
				"x": 1.2504243196,
				"y": 3.0909769698,
				"z": -1.3804184393,
				"element": "C" 
			},
			{
				"x": 1.3525045345,
				"y": 2.3596410175,
				"z": -0.2012557435,
				"element": "C" 
			},
			{
				"x": 0.4845002887,
				"y": 1.3947553873,
				"z": 0.1265715949,
				"element": "N" 
			},
			{
				"x": -1.268750177,
				"y": -1.8835276255,
				"z": 0.6230643421,
				"element": "C" 
			},
			{
				"x": -1.3634730084,
				"y": -2.6497003744,
				"z": 1.7854693845,
				"element": "C" 
			},
			{
				"x": -1.8946665631,
				"y": -0.1457657557,
				"z": 4.0344946794,
				"element": "H" 
			},
			{
				"x": -1.7321229255,
				"y": 1.2141784997,
				"z": 1.9567098688,
				"element": "H" 
			},
			{
				"x": 0.0184028467,
				"y": 3.2817080073,
				"z": -3.1548980398,
				"element": "H" 
			},
			{
				"x": 1.9585772222,
				"y": 3.8697258436,
				"z": -1.637272621,
				"element": "H" 
			},
			{
				"x": 2.1545133604,
				"y": 2.5432660964,
				"z": 0.5115035846,
				"element": "H" 
			},
			{
				"x": -1.1021612241,
				"y": -2.351431765,
				"z": -0.3412390817,
				"element": "H" 
			},
			{
				"x": -1.2659657088,
				"y": -3.7281999761,
				"z": 1.7412355904,
				"element": "H" 
			}
		],
		 "valence_orbital": [ 
			{
				"type": "occ",
				"energy": -0.28642,
				"method": "rhf"
			},
			{
				"type": "occ",
				"energy": -0.27011,
				"method": "rhf"
			},
			{
				"type": "occ",
				"energy": -0.26595,
				"method": "rhf"
			},
			{
				"type": "occ",
				"energy": -0.26045,
				"method": "rhf"
			},
			{
				"type": "occ",
				"energy": -0.23339,
				"method": "rhf"
			},
			{
				"type": "unocc",
				"energy": -0.04915,
				"method": "rhf"
			},
			{
				"type": "unocc",
				"energy": -0.02457,
				"method": "rhf"
			},
			{
				"type": "unocc",
				"energy": -0.01562,
				"method": "rhf"
			},
			{
				"type": "unocc",
				"energy": -0.00594,
				"method": "rhf"
			},
			{
				"type": "unocc",
				"energy": 0.00758,
				"method": "rhf"
			}
		],
		"cosmo_sigma_profile": { 
			"-0.025": 0.0,
			"-0.024": 0.0,
			"-0.023": 0.0,
			"-0.022": 0.0,
			"-0.021": 0.0,
			"-0.02": 0.0,
			"-0.019": 0.0,
			"-0.018": 0.0,
			"-0.017": 0.0,
			"-0.016": 0.0,
			"-0.015": 0.0,
			"-0.014": 0.0,
			"-0.013": 0.0,
			"-0.012": 0.0,
			"-0.011": 0.0,
			"-0.01": 0.0,
			"-0.009": 0.133643731328,
			"-0.008": 7.6490019163,
			"-0.007": 14.8940137617,
			"-0.006": 13.9529289557,
			"-0.005": 13.2613792203,
			"-0.004": 11.6489898008,
			"-0.003": 13.5539181462,
			"-0.002": 14.5700439787,
			"-0.001": 18.0037722752,
			"0.0": 18.4219982267,
			"0.001": 19.9460006824,
			"0.002": 23.2252127012,
			"0.003": 19.1497629957,
			"0.004": 15.1886037242,
			"0.005": 8.81537332991,
			"0.006": 4.13545604994,
			"0.007": 2.148169444,
			"0.008": 3.40329141908,
			"0.009": 3.04637206346,
			"0.01": 2.55093680764,
			"0.011": 2.65522680555,
			"0.012": 2.42231879711,
			"0.013": 1.27939808487,
			"0.014": 1.17190973346,
			"0.015": 0.624529518079,
			"0.016": 0.0722196774922,
			"0.017": 0.0,
			"0.018": 0.0,
			"0.019": 0.0,
			"0.02": 0.0,
			"0.021": 0.0,
			"0.022": 0.0,
			"0.023": 0.0,
			"0.024": 0.0,
			"0.025": 0.0
		}
	}
}
