{
	 "smiles": "OC(=O)CC(O)(C1=CC=CC=C1)C(F)(F)F", 
	 "Tm": 407.15, 
	 "num_atms": 25, 
	 "gaussian": { 
		 "optdone": 1, 
		 "sigma_profile": "yes", 
		 "theory": "DFT", 
		 "functional": "B3LYP", 
		 "basiset": "6-31G**", 
		 "properties": { 
			 "R2extent": 3885.7307, 
			 "electric_dipole_moment_norm": 2.74295015449, 
			 "electric_quadrupole_moment_norm": 11.3507416987, 
			 "total_energy": -911.697736384, 
			 "HOMO_LUMO_gap": 0.23666, 
			 "cosmo_polarized_energy": -12.47, 
			 "cosmo_cavitation_energy": 29.73, 
			 "cosmo_dispersion_energy": -20.57, 
			 "cosmo_repulsion_energy": 1.56, 
			 "cosmo_total_nonelectrostatic_energy": 10.72, 
			 "SMD_solvation_energy": 7.19 
		},
		"coords": [
			{
				"x": -2.0961902707,
				"y": -0.542560406,
				"z": 0.4532584536,
				"element": "O" 
			},
			{
				"x": -1.6594793927,
				"y": -0.2712676462,
				"z": -0.8126059421,
				"element": "C" 
			},
			{
				"x": -2.3303499062,
				"y": -0.5127812153,
				"z": -1.7861447777,
				"element": "O" 
			},
			{
				"x": -0.2919490945,
				"y": 0.3731536986,
				"z": -0.8087047312,
				"element": "C" 
			},
			{
				"x": 0.7547733289,
				"y": -0.3615665922,
				"z": 0.0728359424,
				"element": "C" 
			},
			{
				"x": 0.4835443646,
				"y": -0.1484455374,
				"z": 1.4452031652,
				"element": "O" 
			},
			{
				"x": 0.8891377545,
				"y": -1.8545055056,
				"z": -0.2584653642,
				"element": "C" 
			},
			{
				"x": 1.2131533249,
				"y": -2.7484020038,
				"z": 0.770234901,
				"element": "C" 
			},
			{
				"x": 1.3609130277,
				"y": -4.1095204996,
				"z": 0.5057554636,
				"element": "C" 
			},
			{
				"x": 1.192769198,
				"y": -4.5952852182,
				"z": -0.7921133105,
				"element": "C" 
			},
			{
				"x": 0.8797226812,
				"y": -3.7099817047,
				"z": -1.8239643611,
				"element": "C" 
			},
			{
				"x": 0.7331406449,
				"y": -2.3470718715,
				"z": -1.561203406,
				"element": "C" 
			},
			{
				"x": 2.1165497461,
				"y": 0.3368541302,
				"z": -0.1472165287,
				"element": "C" 
			},
			{
				"x": 2.5093106747,
				"y": 0.2131995793,
				"z": -1.4359020962,
				"element": "F" 
			},
			{
				"x": 2.0429611455,
				"y": 1.655415181,
				"z": 0.1239335126,
				"element": "F" 
			},
			{
				"x": 3.0727013663,
				"y": -0.1910815925,
				"z": 0.6299770419,
				"element": "F" 
			},
			{
				"x": -2.9640009353,
				"y": -0.971783054,
				"z": 0.3637490853,
				"element": "H" 
			},
			{
				"x": 0.0364590827,
				"y": 0.4513443517,
				"z": -1.8446285136,
				"element": "H" 
			},
			{
				"x": -0.3879260607,
				"y": 1.3875958908,
				"z": -0.4081178767,
				"element": "H" 
			},
			{
				"x": -0.4311672668,
				"y": -0.4325088724,
				"z": 1.5954771437,
				"element": "H" 
			},
			{
				"x": 1.3457391275,
				"y": -2.3642414284,
				"z": 1.7750990315,
				"element": "H" 
			},
			{
				"x": 1.610093526,
				"y": -4.7902349682,
				"z": 1.3147928865,
				"element": "H" 
			},
			{
				"x": 1.3056271031,
				"y": -5.6557485478,
				"z": -0.998239474,
				"element": "H" 
			},
			{
				"x": 0.7479016602,
				"y": -4.0769714126,
				"z": -2.8375710244,
				"element": "H" 
			},
			{
				"x": 0.4910651701,
				"y": -1.6786047552,
				"z": -2.380239221,
				"element": "H" 
			}
		],
		 "valence_orbital": [ 
			{
				"type": "occ",
				"energy": -0.33632,
				"method": "rhf"
			},
			{
				"type": "occ",
				"energy": -0.29755,
				"method": "rhf"
			},
			{
				"type": "occ",
				"energy": -0.29184,
				"method": "rhf"
			},
			{
				"type": "occ",
				"energy": -0.25715,
				"method": "rhf"
			},
			{
				"type": "occ",
				"energy": -0.25504,
				"method": "rhf"
			},
			{
				"type": "unocc",
				"energy": -0.01838,
				"method": "rhf"
			},
			{
				"type": "unocc",
				"energy": -0.01504,
				"method": "rhf"
			},
			{
				"type": "unocc",
				"energy": -0.00133,
				"method": "rhf"
			},
			{
				"type": "unocc",
				"energy": 0.05434,
				"method": "rhf"
			},
			{
				"type": "unocc",
				"energy": 0.08482,
				"method": "rhf"
			}
		],
		"cosmo_sigma_profile": { 
			"-0.025": 0.0,
			"-0.024": 0.0,
			"-0.023": 0.0,
			"-0.022": 0.0,
			"-0.021": 0.0,
			"-0.02": 0.0320729939634,
			"-0.019": 0.638752616212,
			"-0.018": 0.947328228396,
			"-0.017": 1.11768256667,
			"-0.016": 0.599055771146,
			"-0.015": 0.724779189392,
			"-0.014": 0.538210876599,
			"-0.013": 0.52018237976,
			"-0.012": 1.0932758783,
			"-0.011": 1.25145225092,
			"-0.01": 0.913918307381,
			"-0.009": 1.55497475963,
			"-0.008": 4.40808894991,
			"-0.007": 5.85242276018,
			"-0.006": 10.658144126,
			"-0.005": 14.5815317469,
			"-0.004": 16.6039461012,
			"-0.003": 13.3983177342,
			"-0.002": 12.6132688658,
			"-0.001": 12.357611436,
			"0.0": 12.085919631,
			"0.001": 14.5135569699,
			"0.002": 29.8359197896,
			"0.003": 30.7336574361,
			"0.004": 14.3121908769,
			"0.005": 11.0492746523,
			"0.006": 3.0603333269,
			"0.007": 2.68805095427,
			"0.008": 2.28043017707,
			"0.009": 3.76538814802,
			"0.01": 4.45463495908,
			"0.011": 5.94997782902,
			"0.012": 1.11309742332,
			"0.013": 0.0,
			"0.014": 0.0,
			"0.015": 0.0,
			"0.016": 0.0,
			"0.017": 0.0,
			"0.018": 0.0,
			"0.019": 0.0,
			"0.02": 0.0,
			"0.021": 0.0,
			"0.022": 0.0,
			"0.023": 0.0,
			"0.024": 0.0,
			"0.025": 0.0
		}
	}
}
