{
	 "smiles": "FC(F)(F)C1=CC(Cl)=CC(Cl)=C1", 
	 "Tm": 260.65, 
	 "num_atms": 15, 
	 "gaussian": { 
		 "optdone": 1, 
		 "sigma_profile": "yes", 
		 "theory": "DFT", 
		 "functional": "B3LYP", 
		 "basiset": "6-31G**", 
		 "properties": { 
			 "R2extent": 3817.7755, 
			 "electric_dipole_moment_norm": 0.709070109369, 
			 "electric_quadrupole_moment_norm": 1.28173962254, 
			 "total_energy": -1488.46406283, 
			 "HOMO_LUMO_gap": 0.21658, 
			 "cosmo_polarized_energy": -3.57, 
			 "cosmo_cavitation_energy": 24.91, 
			 "cosmo_dispersion_energy": -18.04, 
			 "cosmo_repulsion_energy": 1.39, 
			 "cosmo_total_nonelectrostatic_energy": 8.26, 
			 "SMD_solvation_energy": 4.89 
		},
		"coords": [
			{
				"x": -1.1471249653,
				"y": 2.3706048624,
				"z": 1.1279210655,
				"element": "F" 
			},
			{
				"x": -0.9555222793,
				"y": 1.0635692219,
				"z": 0.8456590419,
				"element": "C" 
			},
			{
				"x": -1.8914953633,
				"y": 0.710436894,
				"z": -0.0596928818,
				"element": "F" 
			},
			{
				"x": -1.1964932845,
				"y": 0.3721029238,
				"z": 1.9788811088,
				"element": "F" 
			},
			{
				"x": 0.4407139548,
				"y": 0.8147950552,
				"z": 0.328317086,
				"element": "C" 
			},
			{
				"x": 0.6911794701,
				"y": 0.9171807007,
				"z": -1.0409224764,
				"element": "C" 
			},
			{
				"x": 1.9963740939,
				"y": 0.7400678692,
				"z": -1.4956547104,
				"element": "C" 
			},
			{
				"x": 2.3332607716,
				"y": 0.8589335475,
				"z": -3.209941742,
				"element": "Cl" 
			},
			{
				"x": 3.0448656486,
				"y": 0.4658605779,
				"z": -0.6176526848,
				"element": "C" 
			},
			{
				"x": 2.7603222657,
				"y": 0.3689358615,
				"z": 0.7443549809,
				"element": "C" 
			},
			{
				"x": 4.062799482,
				"y": 0.0187438675,
				"z": 1.8611952604,
				"element": "Cl" 
			},
			{
				"x": 1.4669031017,
				"y": 0.5402867237,
				"z": 1.2336370021,
				"element": "C" 
			},
			{
				"x": -0.1123626664,
				"y": 1.1206841153,
				"z": -1.7374959477,
				"element": "H" 
			},
			{
				"x": 4.0544320989,
				"y": 0.3282451616,
				"z": -0.9847681795,
				"element": "H" 
			},
			{
				"x": 1.2623476716,
				"y": 0.4527526177,
				"z": 2.293263077,
				"element": "H" 
			}
		],
		 "valence_orbital": [ 
			{
				"type": "occ",
				"energy": -0.34086,
				"method": "rhf"
			},
			{
				"type": "occ",
				"energy": -0.33612,
				"method": "rhf"
			},
			{
				"type": "occ",
				"energy": -0.32931,
				"method": "rhf"
			},
			{
				"type": "occ",
				"energy": -0.2829,
				"method": "rhf"
			},
			{
				"type": "occ",
				"energy": -0.269,
				"method": "rhf"
			},
			{
				"type": "unocc",
				"energy": -0.05242,
				"method": "rhf"
			},
			{
				"type": "unocc",
				"energy": -0.04191,
				"method": "rhf"
			},
			{
				"type": "unocc",
				"energy": -0.00595,
				"method": "rhf"
			},
			{
				"type": "unocc",
				"energy": 0.03513,
				"method": "rhf"
			},
			{
				"type": "unocc",
				"energy": 0.09773,
				"method": "rhf"
			}
		],
		"cosmo_sigma_profile": { 
			"-0.025": 0.0,
			"-0.024": 0.0,
			"-0.023": 0.0,
			"-0.022": 0.0,
			"-0.021": 0.0,
			"-0.02": 0.0,
			"-0.019": 0.0,
			"-0.018": 0.0,
			"-0.017": 0.0,
			"-0.016": 0.0,
			"-0.015": 0.0,
			"-0.014": 0.0,
			"-0.013": 0.0,
			"-0.012": 0.0,
			"-0.011": 0.0,
			"-0.01": 0.0720670737154,
			"-0.009": 2.10660876801,
			"-0.008": 3.89360195972,
			"-0.007": 4.22252126373,
			"-0.006": 5.04064675233,
			"-0.005": 5.8471807839,
			"-0.004": 6.37503283674,
			"-0.003": 10.0457238442,
			"-0.002": 12.8720356474,
			"-0.001": 22.4285059364,
			"0.0": 33.4578034403,
			"0.001": 19.3217837061,
			"0.002": 33.7141053956,
			"0.003": 32.0476914543,
			"0.004": 13.8741625164,
			"0.005": 0.289529369157,
			"0.006": 0.0,
			"0.007": 0.0,
			"0.008": 0.0,
			"0.009": 0.0,
			"0.01": 0.0,
			"0.011": 0.0,
			"0.012": 0.0,
			"0.013": 0.0,
			"0.014": 0.0,
			"0.015": 0.0,
			"0.016": 0.0,
			"0.017": 0.0,
			"0.018": 0.0,
			"0.019": 0.0,
			"0.02": 0.0,
			"0.021": 0.0,
			"0.022": 0.0,
			"0.023": 0.0,
			"0.024": 0.0,
			"0.025": 0.0
		}
	}
}
