{
	 "smiles": "CC(=O)O[Si](OC(C)=O)(OC(C)=O)C=C", 
	 "Tm": 280.15, 
	 "num_atms": 27, 
	 "gaussian": { 
		 "optdone": 1, 
		 "sigma_profile": "yes", 
		 "theory": "DFT", 
		 "functional": "B3LYP", 
		 "basiset": "6-31G**", 
		 "properties": { 
			 "R2extent": 3953.6554, 
			 "electric_dipole_moment_norm": 1.60771428121, 
			 "electric_quadrupole_moment_norm": 7.41313121562, 
			 "total_energy": -1053.08827004, 
			 "HOMO_LUMO_gap": 0.2501, 
			 "cosmo_polarized_energy": -14.55, 
			 "cosmo_cavitation_energy": 34.98, 
			 "cosmo_dispersion_energy": -21.26, 
			 "cosmo_repulsion_energy": 1.83, 
			 "cosmo_total_nonelectrostatic_energy": 15.55, 
			 "SMD_solvation_energy": 10.29 
		},
		"coords": [
			{
				"x": -0.3535178659,
				"y": -2.300326313,
				"z": -2.2240738166,
				"element": "C" 
			},
			{
				"x": -0.6600204049,
				"y": -1.1563438588,
				"z": -1.2944350859,
				"element": "C" 
			},
			{
				"x": -1.0749952376,
				"y": -0.0697201752,
				"z": -1.6248922212,
				"element": "O" 
			},
			{
				"x": -0.4021985375,
				"y": -1.4842587603,
				"z": 0.0041793295,
				"element": "O" 
			},
			{
				"x": -0.3529544053,
				"y": -0.3839722453,
				"z": 1.2724681593,
				"element": "Si" 
			},
			{
				"x": 0.3056298343,
				"y": 1.0981432501,
				"z": 0.8509623693,
				"element": "O" 
			},
			{
				"x": 1.3998483367,
				"y": 1.272584554,
				"z": 0.0534784126,
				"element": "C" 
			},
			{
				"x": 1.6315565089,
				"y": 2.7280472236,
				"z": -0.2520312972,
				"element": "C" 
			},
			{
				"x": 2.0712714687,
				"y": 0.3495074345,
				"z": -0.3452415917,
				"element": "O" 
			},
			{
				"x": 0.690012697,
				"y": -1.2259694364,
				"z": 2.3049419384,
				"element": "O" 
			},
			{
				"x": 0.9823448819,
				"y": -0.7407569899,
				"z": 3.540590977,
				"element": "C" 
			},
			{
				"x": 1.9374185241,
				"y": -1.6348461885,
				"z": 4.2867428221,
				"element": "C" 
			},
			{
				"x": 0.5129105134,
				"y": 0.2951181988,
				"z": 3.9598573122,
				"element": "O" 
			},
			{
				"x": -2.0211049521,
				"y": -0.0887986236,
				"z": 1.9945135416,
				"element": "C" 
			},
			{
				"x": -3.1222764247,
				"y": -0.7101997982,
				"z": 1.5560640782,
				"element": "C" 
			},
			{
				"x": -0.8361320678,
				"y": -3.2167053835,
				"z": -1.873824688,
				"element": "H" 
			},
			{
				"x": -0.683656538,
				"y": -2.0549420259,
				"z": -3.2329077942,
				"element": "H" 
			},
			{
				"x": 0.7267554449,
				"y": -2.4772919721,
				"z": -2.219293532,
				"element": "H" 
			},
			{
				"x": 2.5525009374,
				"y": 2.84333928,
				"z": -0.822503654,
				"element": "H" 
			},
			{
				"x": 1.6812768031,
				"y": 3.3036525364,
				"z": 0.6764094868,
				"element": "H" 
			},
			{
				"x": 0.7839620851,
				"y": 3.110779338,
				"z": -0.8290933675,
				"element": "H" 
			},
			{
				"x": 1.5095269569,
				"y": -2.6373356612,
				"z": 4.3809325652,
				"element": "H" 
			},
			{
				"x": 2.1394540152,
				"y": -1.2175081988,
				"z": 5.2725045758,
				"element": "H" 
			},
			{
				"x": 2.8680644017,
				"y": -1.7327860514,
				"z": 3.719864456,
				"element": "H" 
			},
			{
				"x": -2.097047518,
				"y": 0.6149577188,
				"z": 2.8214111983,
				"element": "H" 
			},
			{
				"x": -4.1007390342,
				"y": -0.530210676,
				"z": 1.9963684508,
				"element": "H" 
			},
			{
				"x": -3.0957904236,
				"y": -1.4228571762,
				"z": 0.7355073753,
				"element": "H" 
			}
		],
		 "valence_orbital": [ 
			{
				"type": "occ",
				"energy": -0.31968,
				"method": "rhf"
			},
			{
				"type": "occ",
				"energy": -0.28909,
				"method": "rhf"
			},
			{
				"type": "occ",
				"energy": -0.28421,
				"method": "rhf"
			},
			{
				"type": "occ",
				"energy": -0.27639,
				"method": "rhf"
			},
			{
				"type": "occ",
				"energy": -0.27541,
				"method": "rhf"
			},
			{
				"type": "unocc",
				"energy": -0.02531,
				"method": "rhf"
			},
			{
				"type": "unocc",
				"energy": -0.00938,
				"method": "rhf"
			},
			{
				"type": "unocc",
				"energy": 0.00421,
				"method": "rhf"
			},
			{
				"type": "unocc",
				"energy": 0.00596,
				"method": "rhf"
			},
			{
				"type": "unocc",
				"energy": 0.07223,
				"method": "rhf"
			}
		],
		"cosmo_sigma_profile": { 
			"-0.025": 0.0,
			"-0.024": 0.0,
			"-0.023": 0.0,
			"-0.022": 0.0,
			"-0.021": 0.0,
			"-0.02": 0.0,
			"-0.019": 0.0,
			"-0.018": 0.0,
			"-0.017": 0.0,
			"-0.016": 0.0,
			"-0.015": 0.0,
			"-0.014": 0.0,
			"-0.013": 0.0,
			"-0.012": 0.0,
			"-0.011": 0.0,
			"-0.01": 0.0,
			"-0.009": 0.0,
			"-0.008": 0.248660796102,
			"-0.007": 11.6367043766,
			"-0.006": 23.6935675123,
			"-0.005": 22.8771572385,
			"-0.004": 26.6762126758,
			"-0.003": 29.5977494865,
			"-0.002": 30.0758984719,
			"-0.001": 13.9272007967,
			"0.0": 10.8421340913,
			"0.001": 11.3574529665,
			"0.002": 11.2066794258,
			"0.003": 10.2025364964,
			"0.004": 10.1141903555,
			"0.005": 7.95079644449,
			"0.006": 6.9404027357,
			"0.007": 7.75747674418,
			"0.008": 9.18174540881,
			"0.009": 7.62928867876,
			"0.01": 7.60450919867,
			"0.011": 10.1919347368,
			"0.012": 3.10112756517,
			"0.013": 0.0363620376671,
			"0.014": 0.0,
			"0.015": 0.0,
			"0.016": 0.0,
			"0.017": 0.0,
			"0.018": 0.0,
			"0.019": 0.0,
			"0.02": 0.0,
			"0.021": 0.0,
			"0.022": 0.0,
			"0.023": 0.0,
			"0.024": 0.0,
			"0.025": 0.0
		}
	}
}
