{
	 "smiles": "OC(=O)C1=NNC2=C1C=C(I)C=C2", 
	 "Tm": 559.15, 
	 "num_atms": 18, 
	 "gaussian": { 
		 "optdone": 1, 
		 "sigma_profile": "yes", 
		 "theory": "DFT", 
		 "functional": "B3LYP", 
		 "basiset": "6-31G**", 
		 "properties": { 
			 "R2extent": 3295.9572, 
			 "electric_dipole_moment_norm": 3.65947766218, 
			 "electric_quadrupole_moment_norm": 9.25864605166, 
			 "total_energy": -579.201073163, 
			 "HOMO_LUMO_gap": 0.17245, 
			 "cosmo_polarized_energy": -16.15, 
			 "cosmo_cavitation_energy": 26.63, 
			 "cosmo_dispersion_energy": -21.29, 
			 "cosmo_repulsion_energy": 1.65, 
			 "cosmo_total_nonelectrostatic_energy": 7.0, 
			 "SMD_solvation_energy": 3.81 
		},
		"coords": [
			{
				"x": -1.108022911,
				"y": -1.7473088447,
				"z": -3.8586489264,
				"element": "O" 
			},
			{
				"x": -1.2913666344,
				"y": -0.5416348911,
				"z": -3.2832096583,
				"element": "C" 
			},
			{
				"x": -1.8314142516,
				"y": 0.3906049977,
				"z": -3.850948963,
				"element": "O" 
			},
			{
				"x": -0.7808169728,
				"y": -0.4563935027,
				"z": -1.9047410201,
				"element": "C" 
			},
			{
				"x": -0.1927392842,
				"y": -1.4768164207,
				"z": -1.2883769587,
				"element": "N" 
			},
			{
				"x": 0.1339964511,
				"y": -1.0277261977,
				"z": -0.063724175,
				"element": "N" 
			},
			{
				"x": -0.2284682412,
				"y": 0.280058778,
				"z": 0.1460771866,
				"element": "C" 
			},
			{
				"x": -0.8416643425,
				"y": 0.6994732711,
				"z": -1.0562544375,
				"element": "C" 
			},
			{
				"x": -1.3359882557,
				"y": 2.0106273679,
				"z": -1.1805701286,
				"element": "C" 
			},
			{
				"x": -1.1916112742,
				"y": 2.8467732623,
				"z": -0.0855244003,
				"element": "C" 
			},
			{
				"x": -1.9128571521,
				"y": 4.8394111584,
				"z": -0.1976840452,
				"element": "I" 
			},
			{
				"x": -0.5763570394,
				"y": 2.4223316433,
				"z": 1.1178084068,
				"element": "C" 
			},
			{
				"x": -0.0861085433,
				"y": 1.1327099648,
				"z": 1.250276393,
				"element": "C" 
			},
			{
				"x": -1.4842653982,
				"y": -1.670621786,
				"z": -4.7513398471,
				"element": "H" 
			},
			{
				"x": 0.5974794294,
				"y": -1.6568077489,
				"z": 0.573883612,
				"element": "H" 
			},
			{
				"x": -1.8049402195,
				"y": 2.3282631504,
				"z": -2.1029425919,
				"element": "H" 
			},
			{
				"x": -0.4878865545,
				"y": 3.1157668702,
				"z": 1.9461451662,
				"element": "H" 
			},
			{
				"x": 0.385231194,
				"y": 0.8078889276,
				"z": 2.1723743875,
				"element": "H" 
			}
		],
		 "valence_orbital": [ 
			{
				"type": "occ",
				"energy": -0.28989,
				"method": "rhf"
			},
			{
				"type": "occ",
				"energy": -0.28274,
				"method": "rhf"
			},
			{
				"type": "occ",
				"energy": -0.26872,
				"method": "rhf"
			},
			{
				"type": "occ",
				"energy": -0.25435,
				"method": "rhf"
			},
			{
				"type": "occ",
				"energy": -0.23422,
				"method": "rhf"
			},
			{
				"type": "unocc",
				"energy": -0.06177,
				"method": "rhf"
			},
			{
				"type": "unocc",
				"energy": -0.03993,
				"method": "rhf"
			},
			{
				"type": "unocc",
				"energy": -0.01746,
				"method": "rhf"
			},
			{
				"type": "unocc",
				"energy": -0.00549,
				"method": "rhf"
			},
			{
				"type": "unocc",
				"energy": 0.04535,
				"method": "rhf"
			}
		],
		"cosmo_sigma_profile": { 
			"-0.025": 0.0,
			"-0.024": 0.0,
			"-0.023": 0.0,
			"-0.022": 0.0,
			"-0.021": 0.0,
			"-0.02": 0.0,
			"-0.019": 0.371466608879,
			"-0.018": 1.29501353349,
			"-0.017": 2.65820274909,
			"-0.016": 2.87194508611,
			"-0.015": 1.66992515035,
			"-0.014": 1.6473892995,
			"-0.013": 1.23138231918,
			"-0.012": 1.84114280127,
			"-0.011": 2.18886200327,
			"-0.01": 1.91503203851,
			"-0.009": 1.53642786957,
			"-0.008": 3.86024335921,
			"-0.007": 6.19371457119,
			"-0.006": 7.49866062138,
			"-0.005": 6.7848139467,
			"-0.004": 8.16927559383,
			"-0.003": 10.1101193054,
			"-0.002": 9.13227623536,
			"-0.001": 13.8733452193,
			"0.0": 19.213895054,
			"0.001": 19.271255783,
			"0.002": 22.5475490569,
			"0.003": 20.0658296086,
			"0.004": 15.8726143192,
			"0.005": 8.88163318208,
			"0.006": 2.46287285293,
			"0.007": 3.83481642006,
			"0.008": 3.52441128783,
			"0.009": 3.42861837605,
			"0.01": 3.81243333845,
			"0.011": 5.47950673924,
			"0.012": 3.83830470307,
			"0.013": 1.69561607657,
			"0.014": 0.709603266507,
			"0.015": 0.0279096119169,
			"0.016": 0.0,
			"0.017": 0.0,
			"0.018": 0.0,
			"0.019": 0.0,
			"0.02": 0.0,
			"0.021": 0.0,
			"0.022": 0.0,
			"0.023": 0.0,
			"0.024": 0.0,
			"0.025": 0.0
		}
	}
}
