{
	 "smiles": "CC(=O)NC1CCNCC1", 
	 "Tm": 414.15, 
	 "num_atms": 24, 
	 "gaussian": { 
		 "optdone": 1, 
		 "sigma_profile": "yes", 
		 "theory": "DFT", 
		 "functional": "B3LYP", 
		 "basiset": "6-31G**", 
		 "properties": { 
			 "R2extent": 2092.4817, 
			 "electric_dipole_moment_norm": 4.67436983026, 
			 "electric_quadrupole_moment_norm": 9.62432283748, 
			 "total_energy": -459.927757361, 
			 "HOMO_LUMO_gap": 0.26576, 
			 "cosmo_polarized_energy": -13.24, 
			 "cosmo_cavitation_energy": 25.45, 
			 "cosmo_dispersion_energy": -18.52, 
			 "cosmo_repulsion_energy": 1.52, 
			 "cosmo_total_nonelectrostatic_energy": 8.46, 
			 "SMD_solvation_energy": 2.21 
		},
		"coords": [
			{
				"x": 0.6510322518,
				"y": 1.9597920495,
				"z": -1.3478769204,
				"element": "C" 
			},
			{
				"x": 1.7947533333,
				"y": 1.1103031921,
				"z": -0.8104635148,
				"element": "C" 
			},
			{
				"x": 2.9312073786,
				"y": 1.5535427242,
				"z": -0.6986537537,
				"element": "O" 
			},
			{
				"x": 1.5091982654,
				"y": -0.1901427509,
				"z": -0.4744596256,
				"element": "N" 
			},
			{
				"x": 0.2172953108,
				"y": -0.8619126262,
				"z": -0.4014358227,
				"element": "C" 
			},
			{
				"x": 0.3150952172,
				"y": -2.2870746161,
				"z": -0.9735732605,
				"element": "C" 
			},
			{
				"x": -1.0228582073,
				"y": -3.0237359217,
				"z": -0.8397308948,
				"element": "C" 
			},
			{
				"x": -1.4347085257,
				"y": -3.042858916,
				"z": 0.5630569563,
				"element": "N" 
			},
			{
				"x": -1.6567852663,
				"y": -1.6956213855,
				"z": 1.0864690176,
				"element": "C" 
			},
			{
				"x": -0.3443563654,
				"y": -0.9044780266,
				"z": 1.0341695379,
				"element": "C" 
			},
			{
				"x": -0.1622214579,
				"y": 2.0546296405,
				"z": -0.6206526757,
				"element": "H" 
			},
			{
				"x": 0.2304505417,
				"y": 1.5330393534,
				"z": -2.2647175225,
				"element": "H" 
			},
			{
				"x": 1.0512562416,
				"y": 2.9492796021,
				"z": -1.5667102372,
				"element": "H" 
			},
			{
				"x": 2.3072653875,
				"y": -0.6778734798,
				"z": -0.0846737378,
				"element": "H" 
			},
			{
				"x": -0.4822583128,
				"y": -0.2965448236,
				"z": -1.0272227686,
				"element": "H" 
			},
			{
				"x": 0.6273567139,
				"y": -2.2450098309,
				"z": -2.0227291907,
				"element": "H" 
			},
			{
				"x": 1.0811645557,
				"y": -2.8452296467,
				"z": -0.4198876925,
				"element": "H" 
			},
			{
				"x": -0.9177155942,
				"y": -4.0559066521,
				"z": -1.1907704988,
				"element": "H" 
			},
			{
				"x": -1.7676615252,
				"y": -2.5312624806,
				"z": -1.4972854775,
				"element": "H" 
			},
			{
				"x": -2.2753464227,
				"y": -3.602661191,
				"z": 0.6718391392,
				"element": "H" 
			},
			{
				"x": -2.4321790683,
				"y": -1.1401495332,
				"z": 0.5205663075,
				"element": "H" 
			},
			{
				"x": -2.0080971816,
				"y": -1.7723507106,
				"z": 2.1210490119,
				"element": "H" 
			},
			{
				"x": 0.3904974957,
				"y": -1.3877307424,
				"z": 1.6896108843,
				"element": "H" 
			},
			{
				"x": -0.4976847653,
				"y": 0.1152567722,
				"z": 1.4057827392,
				"element": "H" 
			}
		],
		 "valence_orbital": [ 
			{
				"type": "occ",
				"energy": -0.33474,
				"method": "rhf"
			},
			{
				"type": "occ",
				"energy": -0.32788,
				"method": "rhf"
			},
			{
				"type": "occ",
				"energy": -0.24062,
				"method": "rhf"
			},
			{
				"type": "occ",
				"energy": -0.23587,
				"method": "rhf"
			},
			{
				"type": "occ",
				"energy": -0.22933,
				"method": "rhf"
			},
			{
				"type": "unocc",
				"energy": 0.03643,
				"method": "rhf"
			},
			{
				"type": "unocc",
				"energy": 0.06907,
				"method": "rhf"
			},
			{
				"type": "unocc",
				"energy": 0.09093,
				"method": "rhf"
			},
			{
				"type": "unocc",
				"energy": 0.09236,
				"method": "rhf"
			},
			{
				"type": "unocc",
				"energy": 0.11564,
				"method": "rhf"
			}
		],
		"cosmo_sigma_profile": { 
			"-0.025": 0.0,
			"-0.024": 0.0,
			"-0.023": 0.0,
			"-0.022": 0.0,
			"-0.021": 0.0,
			"-0.02": 0.0,
			"-0.019": 0.0,
			"-0.018": 0.0,
			"-0.017": 0.0,
			"-0.016": 0.0,
			"-0.015": 0.0,
			"-0.014": 0.0,
			"-0.013": 0.0721184356704,
			"-0.012": 0.760602260453,
			"-0.011": 1.15060041716,
			"-0.01": 1.79490589207,
			"-0.009": 2.20816318557,
			"-0.008": 2.61022163769,
			"-0.007": 1.80341190279,
			"-0.006": 4.93671595648,
			"-0.005": 11.3325884275,
			"-0.004": 17.1562319098,
			"-0.003": 23.1090277245,
			"-0.002": 26.6243990205,
			"-0.001": 30.9530407719,
			"0.0": 20.0176584119,
			"0.001": 8.01814355829,
			"0.002": 4.97321306856,
			"0.003": 3.51345718812,
			"0.004": 4.21582525073,
			"0.005": 2.53990662076,
			"0.006": 2.08492121992,
			"0.007": 1.63455055629,
			"0.008": 1.7459059655,
			"0.009": 2.04842516888,
			"0.01": 1.60411421891,
			"0.011": 1.8268420818,
			"0.012": 2.49610309168,
			"0.013": 2.6159566448,
			"0.014": 5.89560399628,
			"0.015": 5.08582405788,
			"0.016": 0.879717706569,
			"0.017": 0.36601578944,
			"0.018": 0.387407436838,
			"0.019": 0.0467113387172,
			"0.02": 0.0,
			"0.021": 0.0,
			"0.022": 0.0,
			"0.023": 0.0,
			"0.024": 0.0,
			"0.025": 0.0
		}
	}
}
