{
	 "smiles": "OCC1=CC=C(OC2=CC=CC=C2)C=C1", 
	 "Tm": 328.65, 
	 "num_atms": 27, 
	 "gaussian": { 
		 "optdone": 1, 
		 "sigma_profile": "yes", 
		 "theory": "DFT", 
		 "functional": "B3LYP", 
		 "basiset": "6-31G**", 
		 "properties": { 
			 "R2extent": 4957.8176, 
			 "electric_dipole_moment_norm": 2.2792962313, 
			 "electric_quadrupole_moment_norm": 11.7492737133, 
			 "total_energy": -653.041304577, 
			 "HOMO_LUMO_gap": 0.20457, 
			 "cosmo_polarized_energy": -10.33, 
			 "cosmo_cavitation_energy": 31.1, 
			 "cosmo_dispersion_energy": -22.74, 
			 "cosmo_repulsion_energy": 1.8, 
			 "cosmo_total_nonelectrostatic_energy": 10.16, 
			 "SMD_solvation_energy": 5.56 
		},
		"coords": [
			{
				"x": 3.3654490669,
				"y": 1.741325791,
				"z": -2.3219142985,
				"element": "O" 
			},
			{
				"x": 1.9454110537,
				"y": 1.7195804354,
				"z": -2.3777996763,
				"element": "C" 
			},
			{
				"x": 1.3916984081,
				"y": 1.2443961424,
				"z": -1.0534319157,
				"element": "C" 
			},
			{
				"x": 0.1225334324,
				"y": 0.6575223558,
				"z": -0.9883918283,
				"element": "C" 
			},
			{
				"x": -0.4299092414,
				"y": 0.2609159615,
				"z": 0.2283048698,
				"element": "C" 
			},
			{
				"x": 0.3086891876,
				"y": 0.4350751785,
				"z": 1.4024136608,
				"element": "C" 
			},
			{
				"x": -0.1986343451,
				"y": 0.1313245367,
				"z": 2.6524171038,
				"element": "O" 
			},
			{
				"x": -0.9051799002,
				"y": -1.035312177,
				"z": 2.8652972709,
				"element": "C" 
			},
			{
				"x": -0.592756566,
				"y": -2.240828994,
				"z": 2.2286325182,
				"element": "C" 
			},
			{
				"x": -1.3141448662,
				"y": -3.3901472423,
				"z": 2.5546628825,
				"element": "C" 
			},
			{
				"x": -2.3312632394,
				"y": -3.3476617908,
				"z": 3.5104345126,
				"element": "C" 
			},
			{
				"x": -2.6265408923,
				"y": -2.1391691576,
				"z": 4.1456654369,
				"element": "C" 
			},
			{
				"x": -1.9197302856,
				"y": -0.981031899,
				"z": 3.8246098112,
				"element": "C" 
			},
			{
				"x": 1.5789715428,
				"y": 1.0107237292,
				"z": 1.3559040256,
				"element": "C" 
			},
			{
				"x": 2.1112323753,
				"y": 1.4183712181,
				"z": 0.1336024009,
				"element": "C" 
			},
			{
				"x": 3.6867964351,
				"y": 2.2085149734,
				"z": -3.1022454516,
				"element": "H" 
			},
			{
				"x": 1.5850344292,
				"y": 1.0573127675,
				"z": -3.1817278332,
				"element": "H" 
			},
			{
				"x": 1.5501333843,
				"y": 2.7265861701,
				"z": -2.5963791154,
				"element": "H" 
			},
			{
				"x": -0.4507163479,
				"y": 0.5101287635,
				"z": -1.9010782201,
				"element": "H" 
			},
			{
				"x": -1.417966526,
				"y": -0.1847892028,
				"z": 0.2685636867,
				"element": "H" 
			},
			{
				"x": 0.2041922785,
				"y": -2.276004723,
				"z": 1.4939980527,
				"element": "H" 
			},
			{
				"x": -1.0706839544,
				"y": -4.3266522544,
				"z": 2.0607107523,
				"element": "H" 
			},
			{
				"x": -2.8861398135,
				"y": -4.2470971891,
				"z": 3.7590631728,
				"element": "H" 
			},
			{
				"x": -3.4143192462,
				"y": -2.0936931393,
				"z": 4.8922504938,
				"element": "H" 
			},
			{
				"x": -2.1343346128,
				"y": -0.0322210194,
				"z": 4.3052607886,
				"element": "H" 
			},
			{
				"x": 2.1321863621,
				"y": 1.1347979989,
				"z": 2.2811724485,
				"element": "H" 
			},
			{
				"x": 3.100791881,
				"y": 1.8593327666,
				"z": 0.0892044505,
				"element": "H" 
			}
		],
		 "valence_orbital": [ 
			{
				"type": "occ",
				"energy": -0.27584,
				"method": "rhf"
			},
			{
				"type": "occ",
				"energy": -0.25294,
				"method": "rhf"
			},
			{
				"type": "occ",
				"energy": -0.2478,
				"method": "rhf"
			},
			{
				"type": "occ",
				"energy": -0.24108,
				"method": "rhf"
			},
			{
				"type": "occ",
				"energy": -0.2114,
				"method": "rhf"
			},
			{
				"type": "unocc",
				"energy": -0.00683,
				"method": "rhf"
			},
			{
				"type": "unocc",
				"energy": -0.00164,
				"method": "rhf"
			},
			{
				"type": "unocc",
				"energy": 0.00533,
				"method": "rhf"
			},
			{
				"type": "unocc",
				"energy": 0.01561,
				"method": "rhf"
			},
			{
				"type": "unocc",
				"energy": 0.0742,
				"method": "rhf"
			}
		],
		"cosmo_sigma_profile": { 
			"-0.025": 0.0,
			"-0.024": 0.0,
			"-0.023": 0.0,
			"-0.022": 0.0,
			"-0.021": 0.0,
			"-0.02": 0.0,
			"-0.019": 0.0,
			"-0.018": 0.0,
			"-0.017": 0.00132476441032,
			"-0.016": 0.662857791941,
			"-0.015": 1.17546492177,
			"-0.014": 1.06579118246,
			"-0.013": 0.634460007243,
			"-0.012": 1.13355103439,
			"-0.011": 0.732321829343,
			"-0.01": 0.960976501559,
			"-0.009": 0.700565598319,
			"-0.008": 0.885294795469,
			"-0.007": 1.7270119025,
			"-0.006": 11.5736284351,
			"-0.005": 20.1883084691,
			"-0.004": 23.6636160757,
			"-0.003": 22.5247485699,
			"-0.002": 15.3848439146,
			"-0.001": 15.0070415631,
			"0.0": 13.5649710906,
			"0.001": 15.8266944382,
			"0.002": 16.4392592001,
			"0.003": 18.6337376955,
			"0.004": 19.9560304869,
			"0.005": 22.0827919827,
			"0.006": 8.88852208054,
			"0.007": 2.85797297852,
			"0.008": 3.07325294099,
			"0.009": 2.58752318595,
			"0.01": 2.04854032823,
			"0.011": 0.959684265703,
			"0.012": 1.09435441776,
			"0.013": 0.953592690343,
			"0.014": 0.82728814219,
			"0.015": 0.0688467119549,
			"0.016": 0.0,
			"0.017": 0.0,
			"0.018": 0.0,
			"0.019": 0.0,
			"0.02": 0.0,
			"0.021": 0.0,
			"0.022": 0.0,
			"0.023": 0.0,
			"0.024": 0.0,
			"0.025": 0.0
		}
	}
}
