{
	 "smiles": "BrC1=CC(=CN=C1)C1=NC=CN1", 
	 "Tm": 463.15, 
	 "num_atms": 18, 
	 "gaussian": { 
		 "optdone": 1, 
		 "sigma_profile": "yes", 
		 "theory": "DFT", 
		 "functional": "B3LYP", 
		 "basiset": "6-31G**", 
		 "properties": { 
			 "R2extent": 5575.1412, 
			 "electric_dipole_moment_norm": 3.74377814247, 
			 "electric_quadrupole_moment_norm": 9.67785467446, 
			 "total_energy": -3044.11818509, 
			 "HOMO_LUMO_gap": 0.17348, 
			 "cosmo_polarized_energy": -13.72, 
			 "cosmo_cavitation_energy": 25.21, 
			 "cosmo_dispersion_energy": -19.32, 
			 "cosmo_repulsion_energy": 1.51, 
			 "cosmo_total_nonelectrostatic_energy": 7.41, 
			 "SMD_solvation_energy": 0.6 
		},
		"coords": [
			{
				"x": -1.57749458,
				"y": -0.6977314913,
				"z": 4.7830198549,
				"element": "Br" 
			},
			{
				"x": -0.8020455846,
				"y": -0.3614374991,
				"z": 3.0736157201,
				"element": "C" 
			},
			{
				"x": -0.888123347,
				"y": -1.3089886961,
				"z": 2.0650903844,
				"element": "C" 
			},
			{
				"x": -0.3013638062,
				"y": -1.0145379891,
				"z": 0.8237035603,
				"element": "C" 
			},
			{
				"x": 0.3366483114,
				"y": 0.2287293277,
				"z": 0.6893944155,
				"element": "C" 
			},
			{
				"x": 0.4158304478,
				"y": 1.1364152866,
				"z": 1.6647010902,
				"element": "N" 
			},
			{
				"x": -0.1442459915,
				"y": 0.850369155,
				"z": 2.8429256601,
				"element": "C" 
			},
			{
				"x": -0.3808449831,
				"y": -2.0002847447,
				"z": -0.2535029853,
				"element": "C" 
			},
			{
				"x": -0.9747941228,
				"y": -3.1803593722,
				"z": -0.156618636,
				"element": "N" 
			},
			{
				"x": -0.8202419013,
				"y": -3.7816119925,
				"z": -1.3776380911,
				"element": "C" 
			},
			{
				"x": -0.123787762,
				"y": -2.9634454891,
				"z": -2.2361627848,
				"element": "C" 
			},
			{
				"x": 0.1520424679,
				"y": -1.8284369399,
				"z": -1.5082107455,
				"element": "N" 
			},
			{
				"x": -1.3897213885,
				"y": -2.2586398535,
				"z": 2.2073645153,
				"element": "H" 
			},
			{
				"x": 0.8105786885,
				"y": 0.5155306279,
				"z": -0.2486687076,
				"element": "H" 
			},
			{
				"x": -0.0710918313,
				"y": 1.5996240307,
				"z": 3.626288486,
				"element": "H" 
			},
			{
				"x": -1.2159753581,
				"y": -4.7677001072,
				"z": -1.5760890011,
				"element": "H" 
			},
			{
				"x": 0.1904866242,
				"y": -3.0788963834,
				"z": -3.2618149701,
				"element": "H" 
			},
			{
				"x": 0.6552441167,
				"y": -1.0226978698,
				"z": -1.8456977653,
				"element": "H" 
			}
		],
		 "valence_orbital": [ 
			{
				"type": "occ",
				"energy": -0.29167,
				"method": "rhf"
			},
			{
				"type": "occ",
				"energy": -0.28076,
				"method": "rhf"
			},
			{
				"type": "occ",
				"energy": -0.26786,
				"method": "rhf"
			},
			{
				"type": "occ",
				"energy": -0.25983,
				"method": "rhf"
			},
			{
				"type": "occ",
				"energy": -0.22414,
				"method": "rhf"
			},
			{
				"type": "unocc",
				"energy": -0.05066,
				"method": "rhf"
			},
			{
				"type": "unocc",
				"energy": -0.03435,
				"method": "rhf"
			},
			{
				"type": "unocc",
				"energy": 0.00369,
				"method": "rhf"
			},
			{
				"type": "unocc",
				"energy": 0.03718,
				"method": "rhf"
			},
			{
				"type": "unocc",
				"energy": 0.05106,
				"method": "rhf"
			}
		],
		"cosmo_sigma_profile": { 
			"-0.025": 0.0,
			"-0.024": 0.0,
			"-0.023": 0.0,
			"-0.022": 0.0,
			"-0.021": 0.0,
			"-0.02": 0.0,
			"-0.019": 0.0,
			"-0.018": 0.0115331748161,
			"-0.017": 1.29079686895,
			"-0.016": 1.84573733729,
			"-0.015": 1.07879040757,
			"-0.014": 1.5521847558,
			"-0.013": 1.60896495943,
			"-0.012": 1.49861072058,
			"-0.011": 1.33892868227,
			"-0.01": 1.44491675429,
			"-0.009": 3.03805232822,
			"-0.008": 4.30033809013,
			"-0.007": 6.04160843588,
			"-0.006": 7.23390596566,
			"-0.005": 7.94114308461,
			"-0.004": 9.59057785049,
			"-0.003": 9.53242570275,
			"-0.002": 8.72110265173,
			"-0.001": 15.132731628,
			"0.0": 24.9881048192,
			"0.001": 20.0430759088,
			"0.002": 13.4132104343,
			"0.003": 16.0207445452,
			"0.004": 18.1854270431,
			"0.005": 7.1219267879,
			"0.006": 4.08375464439,
			"0.007": 2.93466796684,
			"0.008": 2.81065657372,
			"0.009": 2.54511642756,
			"0.01": 1.66700110985,
			"0.011": 2.25044126932,
			"0.012": 2.36692049529,
			"0.013": 1.76529586953,
			"0.014": 1.97669173044,
			"0.015": 1.47322926855,
			"0.016": 0.272532250448,
			"0.017": 0.0,
			"0.018": 0.0,
			"0.019": 0.0,
			"0.02": 0.0,
			"0.021": 0.0,
			"0.022": 0.0,
			"0.023": 0.0,
			"0.024": 0.0,
			"0.025": 0.0
		}
	}
}
