{
	 "smiles": "ClC1=CC=C(C=C1)C1=CC=C(C=C1)S(Cl)(=O)=O", 
	 "Tm": 383.15, 
	 "num_atms": 25, 
	 "gaussian": { 
		 "optdone": 1, 
		 "sigma_profile": "yes", 
		 "theory": "DFT", 
		 "functional": "B3LYP", 
		 "basiset": "6-31G**", 
		 "properties": { 
			 "R2extent": 9593.4189, 
			 "electric_dipole_moment_norm": 4.50803563207, 
			 "electric_quadrupole_moment_norm": 25.966530693, 
			 "total_energy": -1931.05884132, 
			 "HOMO_LUMO_gap": 0.15847, 
			 "cosmo_polarized_energy": -11.29, 
			 "cosmo_cavitation_energy": 35.24, 
			 "cosmo_dispersion_energy": -26.23, 
			 "cosmo_repulsion_energy": 1.98, 
			 "cosmo_total_nonelectrostatic_energy": 10.99, 
			 "SMD_solvation_energy": 4.14 
		},
		"coords": [
			{
				"x": -2.0014700048,
				"y": 3.7733095456,
				"z": 5.3552317932,
				"element": "Cl" 
			},
			{
				"x": -1.3307650752,
				"y": 3.048412317,
				"z": 3.9055960138,
				"element": "C" 
			},
			{
				"x": -1.2742872587,
				"y": 1.659199443,
				"z": 3.7938505103,
				"element": "C" 
			},
			{
				"x": -0.7387276489,
				"y": 1.0909180065,
				"z": 2.6406804576,
				"element": "C" 
			},
			{
				"x": -0.2589956236,
				"y": 1.8899942816,
				"z": 1.5892365166,
				"element": "C" 
			},
			{
				"x": -0.3314441422,
				"y": 3.2859523156,
				"z": 1.7313660541,
				"element": "C" 
			},
			{
				"x": -0.8610084918,
				"y": 3.8688302113,
				"z": 2.880062812,
				"element": "C" 
			},
			{
				"x": 0.3076034793,
				"y": 1.2765510678,
				"z": 0.3636654163,
				"element": "C" 
			},
			{
				"x": 1.0891526421,
				"y": 0.1085866044,
				"z": 0.4390005098,
				"element": "C" 
			},
			{
				"x": 1.6224026957,
				"y": -0.4763113256,
				"z": -0.7048529148,
				"element": "C" 
			},
			{
				"x": 1.3720842952,
				"y": 0.123020132,
				"z": -1.9399373079,
				"element": "C" 
			},
			{
				"x": 0.6050238875,
				"y": 1.282892131,
				"z": -2.0558444948,
				"element": "C" 
			},
			{
				"x": 0.0783286688,
				"y": 1.8508615876,
				"z": -0.9004081383,
				"element": "C" 
			},
			{
				"x": 2.0670187093,
				"y": -0.6053066179,
				"z": -3.4118971791,
				"element": "S" 
			},
			{
				"x": 0.5110525227,
				"y": -1.9508412156,
				"z": -3.9933706682,
				"element": "Cl" 
			},
			{
				"x": 2.1408859831,
				"y": 0.4019378483,
				"z": -4.4628816391,
				"element": "O" 
			},
			{
				"x": 3.2053786329,
				"y": -1.4400770648,
				"z": -3.0487370896,
				"element": "O" 
			},
			{
				"x": -1.6523210018,
				"y": 1.0333244235,
				"z": 4.5944691188,
				"element": "H" 
			},
			{
				"x": -0.721391888,
				"y": 0.009486956,
				"z": 2.5469779505,
				"element": "H" 
			},
			{
				"x": 0.0574277755,
				"y": 3.9285756303,
				"z": 0.9475516641,
				"element": "H" 
			},
			{
				"x": -0.9017018967,
				"y": 4.9472919129,
				"z": 2.9844188002,
				"element": "H" 
			},
			{
				"x": 1.306350692,
				"y": -0.3296787697,
				"z": 1.4075577855,
				"element": "H" 
			},
			{
				"x": 2.2379046062,
				"y": -1.3667777896,
				"z": -0.6442068878,
				"element": "H" 
			},
			{
				"x": 0.4273821278,
				"y": 1.7260729054,
				"z": -3.0292282639,
				"element": "H" 
			},
			{
				"x": -0.5395836863,
				"y": 2.7390754633,
				"z": -0.9820008195,
				"element": "H" 
			}
		],
		 "valence_orbital": [ 
			{
				"type": "occ",
				"energy": -0.31302,
				"method": "rhf"
			},
			{
				"type": "occ",
				"energy": -0.29957,
				"method": "rhf"
			},
			{
				"type": "occ",
				"energy": -0.2913,
				"method": "rhf"
			},
			{
				"type": "occ",
				"energy": -0.28264,
				"method": "rhf"
			},
			{
				"type": "occ",
				"energy": -0.25243,
				"method": "rhf"
			},
			{
				"type": "unocc",
				"energy": -0.09396,
				"method": "rhf"
			},
			{
				"type": "unocc",
				"energy": -0.05971,
				"method": "rhf"
			},
			{
				"type": "unocc",
				"energy": -0.04202,
				"method": "rhf"
			},
			{
				"type": "unocc",
				"energy": -0.03291,
				"method": "rhf"
			},
			{
				"type": "unocc",
				"energy": -0.01318,
				"method": "rhf"
			}
		],
		"cosmo_sigma_profile": { 
			"-0.025": 0.0,
			"-0.024": 0.0,
			"-0.023": 0.0,
			"-0.022": 0.0,
			"-0.021": 0.0,
			"-0.02": 0.0,
			"-0.019": 0.0,
			"-0.018": 0.0,
			"-0.017": 0.0,
			"-0.016": 0.0,
			"-0.015": 0.0,
			"-0.014": 0.0,
			"-0.013": 0.0,
			"-0.012": 0.0,
			"-0.011": 0.0,
			"-0.01": 0.0,
			"-0.009": 0.584734373128,
			"-0.008": 6.5721688937,
			"-0.007": 17.592821541,
			"-0.006": 15.6352420624,
			"-0.005": 16.0493324647,
			"-0.004": 12.1555522864,
			"-0.003": 12.1683564142,
			"-0.002": 15.948590021,
			"-0.001": 20.9023181738,
			"0.0": 26.2709478214,
			"0.001": 33.9916669991,
			"0.002": 27.618352633,
			"0.003": 30.2610698555,
			"0.004": 21.619569851,
			"0.005": 8.14646724589,
			"0.006": 2.76166440052,
			"0.007": 5.90014274561,
			"0.008": 9.82399451904,
			"0.009": 5.02104840722,
			"0.01": 0.0271061213321,
			"0.011": 0.0,
			"0.012": 0.0,
			"0.013": 0.0,
			"0.014": 0.0,
			"0.015": 0.0,
			"0.016": 0.0,
			"0.017": 0.0,
			"0.018": 0.0,
			"0.019": 0.0,
			"0.02": 0.0,
			"0.021": 0.0,
			"0.022": 0.0,
			"0.023": 0.0,
			"0.024": 0.0,
			"0.025": 0.0
		}
	}
}
