{
	 "smiles": "OC(=O)C1=C2C(ON=C2C2CC2)=NC(=C1)C1=CC=CS1", 
	 "Tm": 510.15, 
	 "num_atms": 30, 
	 "gaussian": { 
		 "optdone": 1, 
		 "sigma_profile": "yes", 
		 "theory": "DFT", 
		 "functional": "B3LYP", 
		 "basiset": "6-31G**", 
		 "properties": { 
			 "R2extent": 7422.8791, 
			 "electric_dipole_moment_norm": 4.80026377296, 
			 "electric_quadrupole_moment_norm": 22.5087926209, 
			 "total_energy": -1272.80172102, 
			 "HOMO_LUMO_gap": 0.14122, 
			 "cosmo_polarized_energy": -19.98, 
			 "cosmo_cavitation_energy": 36.72, 
			 "cosmo_dispersion_energy": -27.2, 
			 "cosmo_repulsion_energy": 2.01, 
			 "cosmo_total_nonelectrostatic_energy": 11.53, 
			 "SMD_solvation_energy": 5.54 
		},
		"coords": [
			{
				"x": 3.1177375321,
				"y": -0.9404669808,
				"z": -2.226252524,
				"element": "O" 
			},
			{
				"x": 2.5235666109,
				"y": -1.3125251483,
				"z": -1.0655352178,
				"element": "C" 
			},
			{
				"x": 2.8370821169,
				"y": -2.3429085987,
				"z": -0.5207911885,
				"element": "O" 
			},
			{
				"x": 1.5083253026,
				"y": -0.3478217528,
				"z": -0.5170924779,
				"element": "C" 
			},
			{
				"x": 0.3410429883,
				"y": -0.7637823592,
				"z": 0.1525853818,
				"element": "C" 
			},
			{
				"x": -0.4953935199,
				"y": 0.2596667503,
				"z": 0.6319805196,
				"element": "C" 
			},
			{
				"x": -1.5891136547,
				"y": -0.2721113324,
				"z": 1.2090273446,
				"element": "O" 
			},
			{
				"x": -1.485899758,
				"y": -1.6770300241,
				"z": 1.1253026915,
				"element": "N" 
			},
			{
				"x": -0.3680440236,
				"y": -1.9727068581,
				"z": 0.5021486256,
				"element": "C" 
			},
			{
				"x": -0.0195036057,
				"y": -3.3820525769,
				"z": 0.2191311919,
				"element": "C" 
			},
			{
				"x": -0.9112158276,
				"y": -4.1925370282,
				"z": -0.7177626474,
				"element": "C" 
			},
			{
				"x": -0.8876959842,
				"y": -4.4998541792,
				"z": 0.7498404335,
				"element": "C" 
			},
			{
				"x": -0.313404513,
				"y": 1.5664458221,
				"z": 0.5629222631,
				"element": "N" 
			},
			{
				"x": 0.815693864,
				"y": 1.9566169033,
				"z": -0.0536407095,
				"element": "C" 
			},
			{
				"x": 1.7309720348,
				"y": 1.0248065121,
				"z": -0.611133933,
				"element": "C" 
			},
			{
				"x": 1.053656847,
				"y": 3.3943704731,
				"z": -0.1281131059,
				"element": "C" 
			},
			{
				"x": 2.1241893451,
				"y": 4.0863890241,
				"z": -0.6584175919,
				"element": "C" 
			},
			{
				"x": 1.9940014499,
				"y": 5.4958942991,
				"z": -0.5416065601,
				"element": "C" 
			},
			{
				"x": 0.8257927645,
				"y": 5.8623441053,
				"z": 0.0768159645,
				"element": "C" 
			},
			{
				"x": -0.1333112162,
				"y": 4.498302092,
				"z": 0.5287782356,
				"element": "S" 
			},
			{
				"x": 2.6662677956,
				"y": -0.1683607632,
				"z": -2.5972021613,
				"element": "H" 
			},
			{
				"x": 1.0459467306,
				"y": -3.5610423193,
				"z": 0.1461970885,
				"element": "H" 
			},
			{
				"x": -0.418767717,
				"y": -4.8707067569,
				"z": -1.407964966,
				"element": "H" 
			},
			{
				"x": -1.7904515486,
				"y": -3.6940460869,
				"z": -1.113883574,
				"element": "H" 
			},
			{
				"x": -1.7514553384,
				"y": -4.2165519883,
				"z": 1.3409550963,
				"element": "H" 
			},
			{
				"x": -0.3771648916,
				"y": -5.3975220761,
				"z": 1.0837221436,
				"element": "H" 
			},
			{
				"x": 2.6373061501,
				"y": 1.3928506445,
				"z": -1.078664776,
				"element": "H" 
			},
			{
				"x": 2.9835310186,
				"y": 3.6071094256,
				"z": -1.1133636766,
				"element": "H" 
			},
			{
				"x": 2.7336837566,
				"y": 6.2030680178,
				"z": -0.8983166631,
				"element": "H" 
			},
			{
				"x": 0.4754252909,
				"y": 6.86236276,
				"z": 0.2939347928,
				"element": "H" 
			}
		],
		 "valence_orbital": [ 
			{
				"type": "occ",
				"energy": -0.29317,
				"method": "rhf"
			},
			{
				"type": "occ",
				"energy": -0.28392,
				"method": "rhf"
			},
			{
				"type": "occ",
				"energy": -0.26703,
				"method": "rhf"
			},
			{
				"type": "occ",
				"energy": -0.26281,
				"method": "rhf"
			},
			{
				"type": "occ",
				"energy": -0.23426,
				"method": "rhf"
			},
			{
				"type": "unocc",
				"energy": -0.09304,
				"method": "rhf"
			},
			{
				"type": "unocc",
				"energy": -0.05602,
				"method": "rhf"
			},
			{
				"type": "unocc",
				"energy": -0.007,
				"method": "rhf"
			},
			{
				"type": "unocc",
				"energy": 0.01084,
				"method": "rhf"
			},
			{
				"type": "unocc",
				"energy": 0.0253,
				"method": "rhf"
			}
		],
		"cosmo_sigma_profile": { 
			"-0.025": 0.0,
			"-0.024": 0.0,
			"-0.023": 0.0,
			"-0.022": 0.0,
			"-0.021": 0.0,
			"-0.02": 0.121134684012,
			"-0.019": 0.952112297117,
			"-0.018": 0.72444581752,
			"-0.017": 1.04686174346,
			"-0.016": 1.34749345127,
			"-0.015": 0.815874985294,
			"-0.014": 1.08827478774,
			"-0.013": 1.49475906287,
			"-0.012": 1.23161304413,
			"-0.011": 1.91683446817,
			"-0.01": 2.46879781585,
			"-0.009": 4.54877868201,
			"-0.008": 5.91069302093,
			"-0.007": 7.16857632944,
			"-0.006": 9.35123333504,
			"-0.005": 14.2205514968,
			"-0.004": 17.8495985029,
			"-0.003": 20.2652486066,
			"-0.002": 22.2028349397,
			"-0.001": 23.3520085203,
			"0.0": 20.767635614,
			"0.001": 19.2698358209,
			"0.002": 21.5301276368,
			"0.003": 24.4585580419,
			"0.004": 18.8145176332,
			"0.005": 7.866937462,
			"0.006": 7.68724644782,
			"0.007": 10.1179746622,
			"0.008": 9.05886084791,
			"0.009": 7.86345101355,
			"0.01": 6.77185084798,
			"0.011": 3.81801799722,
			"0.012": 1.88604610571,
			"0.013": 0.0784062846599,
			"0.014": 0.0,
			"0.015": 0.0,
			"0.016": 0.0,
			"0.017": 0.0,
			"0.018": 0.0,
			"0.019": 0.0,
			"0.02": 0.0,
			"0.021": 0.0,
			"0.022": 0.0,
			"0.023": 0.0,
			"0.024": 0.0,
			"0.025": 0.0
		}
	}
}
