{
	 "smiles": "CC1=C(Cl)C=C(Cl)C(N)=N1", 
	 "Tm": 410.15, 
	 "num_atms": 16, 
	 "gaussian": { 
		 "optdone": 1, 
		 "sigma_profile": "yes", 
		 "theory": "DFT", 
		 "functional": "B3LYP", 
		 "basiset": "6-31G**", 
		 "properties": { 
			 "R2extent": 2490.5005, 
			 "electric_dipole_moment_norm": 1.82756243122, 
			 "electric_quadrupole_moment_norm": 8.40833612375, 
			 "total_energy": -1262.15734729, 
			 "HOMO_LUMO_gap": 0.18613, 
			 "cosmo_polarized_energy": -6.91, 
			 "cosmo_cavitation_energy": 23.49, 
			 "cosmo_dispersion_energy": -17.89, 
			 "cosmo_repulsion_energy": 1.47, 
			 "cosmo_total_nonelectrostatic_energy": 7.07, 
			 "SMD_solvation_energy": 2.26 
		},
		"coords": [
			{
				"x": -2.6059150672,
				"y": -0.7966198811,
				"z": -0.8456027283,
				"element": "C" 
			},
			{
				"x": -1.5063417555,
				"y": -0.4195173914,
				"z": 0.1103619937,
				"element": "C" 
			},
			{
				"x": -0.167689618,
				"y": -0.777869418,
				"z": -0.1016025105,
				"element": "C" 
			},
			{
				"x": 0.3098968531,
				"y": -1.7009377349,
				"z": -1.5191719527,
				"element": "Cl" 
			},
			{
				"x": 0.8052385897,
				"y": -0.4055553351,
				"z": 0.8253444132,
				"element": "C" 
			},
			{
				"x": 0.4153143557,
				"y": 0.3225557706,
				"z": 1.9362862933,
				"element": "C" 
			},
			{
				"x": 1.6033688945,
				"y": 0.8118075345,
				"z": 3.1369432274,
				"element": "Cl" 
			},
			{
				"x": -0.9451938074,
				"y": 0.6640152363,
				"z": 2.0996189582,
				"element": "C" 
			},
			{
				"x": -1.3901061878,
				"y": 1.4245096734,
				"z": 3.1499389623,
				"element": "N" 
			},
			{
				"x": -1.8592887838,
				"y": 0.2815790195,
				"z": 1.1964018256,
				"element": "N" 
			},
			{
				"x": -2.4216743267,
				"y": -0.3820264749,
				"z": -1.8424832687,
				"element": "H" 
			},
			{
				"x": -2.6745996828,
				"y": -1.883538356,
				"z": -0.9615844031,
				"element": "H" 
			},
			{
				"x": -3.5549138291,
				"y": -0.414509918,
				"z": -0.4682139668,
				"element": "H" 
			},
			{
				"x": 1.8439354355,
				"y": -0.6788364622,
				"z": 0.6814939105,
				"element": "H" 
			},
			{
				"x": -2.3904164714,
				"y": 1.4256393903,
				"z": 3.280987398,
				"element": "H" 
			},
			{
				"x": -0.8190145988,
				"y": 1.478204347,
				"z": 3.978781848,
				"element": "H" 
			}
		],
		 "valence_orbital": [ 
			{
				"type": "occ",
				"energy": -0.31834,
				"method": "rhf"
			},
			{
				"type": "occ",
				"energy": -0.30637,
				"method": "rhf"
			},
			{
				"type": "occ",
				"energy": -0.27685,
				"method": "rhf"
			},
			{
				"type": "occ",
				"energy": -0.27033,
				"method": "rhf"
			},
			{
				"type": "occ",
				"energy": -0.21779,
				"method": "rhf"
			},
			{
				"type": "unocc",
				"energy": -0.03166,
				"method": "rhf"
			},
			{
				"type": "unocc",
				"energy": -0.00733,
				"method": "rhf"
			},
			{
				"type": "unocc",
				"energy": 0.00907,
				"method": "rhf"
			},
			{
				"type": "unocc",
				"energy": 0.04884,
				"method": "rhf"
			},
			{
				"type": "unocc",
				"energy": 0.08734,
				"method": "rhf"
			}
		],
		"cosmo_sigma_profile": { 
			"-0.025": 0.0,
			"-0.024": 0.0,
			"-0.023": 0.0,
			"-0.022": 0.0,
			"-0.021": 0.0,
			"-0.02": 0.0,
			"-0.019": 0.0,
			"-0.018": 0.0,
			"-0.017": 0.0,
			"-0.016": 0.0,
			"-0.015": 0.0,
			"-0.014": 0.183159222216,
			"-0.013": 1.4016254734,
			"-0.012": 1.99258596025,
			"-0.011": 2.09280614268,
			"-0.01": 2.03143636563,
			"-0.009": 2.9537122332,
			"-0.008": 2.98694424494,
			"-0.007": 3.34344922177,
			"-0.006": 3.45734811644,
			"-0.005": 5.93169541713,
			"-0.004": 7.90259626984,
			"-0.003": 9.6984146468,
			"-0.002": 14.533209419,
			"-0.001": 17.7812838132,
			"0.0": 21.05773314,
			"0.001": 24.6211567147,
			"0.002": 16.7541952434,
			"0.003": 15.8210482894,
			"0.004": 16.9429524165,
			"0.005": 8.7547860541,
			"0.006": 2.14631085614,
			"0.007": 1.9778578855,
			"0.008": 1.74635667628,
			"0.009": 1.79549796784,
			"0.01": 1.60913201193,
			"0.011": 0.843693437249,
			"0.012": 1.19601244284,
			"0.013": 0.229553941736,
			"0.014": 0.0,
			"0.015": 0.0,
			"0.016": 0.0,
			"0.017": 0.0,
			"0.018": 0.0,
			"0.019": 0.0,
			"0.02": 0.0,
			"0.021": 0.0,
			"0.022": 0.0,
			"0.023": 0.0,
			"0.024": 0.0,
			"0.025": 0.0
		}
	}
}
