{
	 "smiles": "NC1=CC(Cl)=C(NC(=O)C2=CC=NC=C2)C(Cl)=C1", 
	 "Tm": 507.15, 
	 "num_atms": 27, 
	 "gaussian": { 
		 "optdone": 1, 
		 "sigma_profile": "yes", 
		 "theory": "DFT", 
		 "functional": "B3LYP", 
		 "basiset": "6-31G**", 
		 "properties": { 
			 "R2extent": 6460.0813, 
			 "electric_dipole_moment_norm": 4.96271040159, 
			 "electric_quadrupole_moment_norm": 15.6647486906, 
			 "total_energy": -1622.57008312, 
			 "HOMO_LUMO_gap": 0.16335, 
			 "cosmo_polarized_energy": -20.13, 
			 "cosmo_cavitation_energy": 35.91, 
			 "cosmo_dispersion_energy": -25.56, 
			 "cosmo_repulsion_energy": 1.98, 
			 "cosmo_total_nonelectrostatic_energy": 12.33, 
			 "SMD_solvation_energy": 4.74 
		},
		"coords": [
			{
				"x": 0.9928783061,
				"y": 3.2577325642,
				"z": -4.5916330815,
				"element": "N" 
			},
			{
				"x": 0.7634993535,
				"y": 2.4293306837,
				"z": -3.50086907,
				"element": "C" 
			},
			{
				"x": -0.5305300882,
				"y": 2.2786434535,
				"z": -2.9765831534,
				"element": "C" 
			},
			{
				"x": -0.7433164031,
				"y": 1.4186363708,
				"z": -1.9076798294,
				"element": "C" 
			},
			{
				"x": -2.3774570593,
				"y": 1.2726856216,
				"z": -1.2748187653,
				"element": "Cl" 
			},
			{
				"x": 0.2833420595,
				"y": 0.6597166492,
				"z": -1.3210387368,
				"element": "C" 
			},
			{
				"x": 0.0287624032,
				"y": -0.2196530196,
				"z": -0.2451375707,
				"element": "N" 
			},
			{
				"x": 0.5085432729,
				"y": 0.0111910987,
				"z": 1.0349615078,
				"element": "C" 
			},
			{
				"x": 1.24411786,
				"y": 0.9436534026,
				"z": 1.3132196422,
				"element": "O" 
			},
			{
				"x": 0.060899745,
				"y": -0.9856431023,
				"z": 2.0703921765,
				"element": "C" 
			},
			{
				"x": 0.1093148424,
				"y": -0.599164414,
				"z": 3.4132837589,
				"element": "C" 
			},
			{
				"x": -0.3013675767,
				"y": -1.5065589007,
				"z": 4.3874632166,
				"element": "C" 
			},
			{
				"x": -0.7327042188,
				"y": -2.7467467945,
				"z": 4.1167784723,
				"element": "N" 
			},
			{
				"x": -0.7565195208,
				"y": -3.1149990509,
				"z": 2.831009591,
				"element": "C" 
			},
			{
				"x": -0.3755302435,
				"y": -2.2823942509,
				"z": 1.7769242531,
				"element": "C" 
			},
			{
				"x": 1.5615311725,
				"y": 0.8023895855,
				"z": -1.890577659,
				"element": "C" 
			},
			{
				"x": 2.8931075232,
				"y": -0.1618961429,
				"z": -1.2971594275,
				"element": "Cl" 
			},
			{
				"x": 1.8086622663,
				"y": 1.675324206,
				"z": -2.9431652283,
				"element": "C" 
			},
			{
				"x": 1.9447580501,
				"y": 3.5720224145,
				"z": -4.7146634565,
				"element": "H" 
			},
			{
				"x": 0.3183548887,
				"y": 3.9952898188,
				"z": -4.7366592527,
				"element": "H" 
			},
			{
				"x": -1.3639663559,
				"y": 2.8328023572,
				"z": -3.393911846,
				"element": "H" 
			},
			{
				"x": -0.7980906223,
				"y": -0.7954512971,
				"z": -0.3250898349,
				"element": "H" 
			},
			{
				"x": 0.4650363762,
				"y": 0.3920324195,
				"z": 3.6713075684,
				"element": "H" 
			},
			{
				"x": -0.2823784979,
				"y": -1.2258287563,
				"z": 5.4388369023,
				"element": "H" 
			},
			{
				"x": -1.09253102,
				"y": -4.130365451,
				"z": 2.6280867544,
				"element": "H" 
			},
			{
				"x": -0.3893248873,
				"y": -2.6623072944,
				"z": 0.7600635423,
				"element": "H" 
			},
			{
				"x": 2.8138083743,
				"y": 1.7527578289,
				"z": -3.3428404737,
				"element": "H" 
			}
		],
		 "valence_orbital": [ 
			{
				"type": "occ",
				"energy": -0.26999,
				"method": "rhf"
			},
			{
				"type": "occ",
				"energy": -0.26494,
				"method": "rhf"
			},
			{
				"type": "occ",
				"energy": -0.25654,
				"method": "rhf"
			},
			{
				"type": "occ",
				"energy": -0.25314,
				"method": "rhf"
			},
			{
				"type": "occ",
				"energy": -0.22011,
				"method": "rhf"
			},
			{
				"type": "unocc",
				"energy": -0.05676,
				"method": "rhf"
			},
			{
				"type": "unocc",
				"energy": -0.02561,
				"method": "rhf"
			},
			{
				"type": "unocc",
				"energy": -0.01835,
				"method": "rhf"
			},
			{
				"type": "unocc",
				"energy": -0.00967,
				"method": "rhf"
			},
			{
				"type": "unocc",
				"energy": 0.00317,
				"method": "rhf"
			}
		],
		"cosmo_sigma_profile": { 
			"-0.025": 0.0,
			"-0.024": 0.0,
			"-0.023": 0.0,
			"-0.022": 0.0,
			"-0.021": 0.0,
			"-0.02": 0.0,
			"-0.019": 0.0,
			"-0.018": 0.0,
			"-0.017": 0.0,
			"-0.016": 0.0,
			"-0.015": 0.0644672767248,
			"-0.014": 1.17105353537,
			"-0.013": 3.98407325749,
			"-0.012": 4.59666890404,
			"-0.011": 4.91386726668,
			"-0.01": 5.26393572864,
			"-0.009": 4.68427780382,
			"-0.008": 6.33123651578,
			"-0.007": 11.2229124821,
			"-0.006": 12.9000946811,
			"-0.005": 10.1176356873,
			"-0.004": 10.5616690645,
			"-0.003": 11.9350662207,
			"-0.002": 14.2986978967,
			"-0.001": 17.5069685633,
			"0.0": 19.6522836366,
			"0.001": 34.9260078606,
			"0.002": 28.5809694021,
			"0.003": 25.2018398908,
			"0.004": 19.7952187829,
			"0.005": 8.69926923956,
			"0.006": 3.52901730671,
			"0.007": 4.16649295237,
			"0.008": 4.62769527126,
			"0.009": 4.98897925432,
			"0.01": 2.81598959347,
			"0.011": 4.21818602753,
			"0.012": 5.20146942097,
			"0.013": 4.10560898382,
			"0.014": 0.905233136086,
			"0.015": 0.796344117578,
			"0.016": 0.674541949293,
			"0.017": 0.102520868721,
			"0.018": 0.0,
			"0.019": 0.0,
			"0.02": 0.0,
			"0.021": 0.0,
			"0.022": 0.0,
			"0.023": 0.0,
			"0.024": 0.0,
			"0.025": 0.0
		}
	}
}
