{
	 "smiles": "ClC1=CC(Cl)=C(N=C1)N1CCNCC1", 
	 "Tm": 333.15, 
	 "num_atms": 25, 
	 "gaussian": { 
		 "optdone": 1, 
		 "sigma_profile": "yes", 
		 "theory": "DFT", 
		 "functional": "B3LYP", 
		 "basiset": "6-31G**", 
		 "properties": { 
			 "R2extent": 5686.8017, 
			 "electric_dipole_moment_norm": 1.88114259162, 
			 "electric_quadrupole_moment_norm": 6.4109930315, 
			 "total_energy": -1434.20751981, 
			 "HOMO_LUMO_gap": 0.1606, 
			 "cosmo_polarized_energy": -8.03, 
			 "cosmo_cavitation_energy": 30.41, 
			 "cosmo_dispersion_energy": -22.72, 
			 "cosmo_repulsion_energy": 1.79, 
			 "cosmo_total_nonelectrostatic_energy": 9.48, 
			 "SMD_solvation_energy": -0.03 
		},
		"coords": [
			{
				"x": 3.6648255825,
				"y": 3.6806132008,
				"z": 3.3301964502,
				"element": "Cl" 
			},
			{
				"x": 2.486970427,
				"y": 2.965262276,
				"z": 2.2487616976,
				"element": "C" 
			},
			{
				"x": 2.8933057145,
				"y": 2.3245431814,
				"z": 1.0780391032,
				"element": "C" 
			},
			{
				"x": 1.9274880785,
				"y": 1.7713781808,
				"z": 0.2500105681,
				"element": "C" 
			},
			{
				"x": 2.4612078795,
				"y": 1.1525846778,
				"z": -1.3078506766,
				"element": "Cl" 
			},
			{
				"x": 0.5555243344,
				"y": 1.8111050639,
				"z": 0.6277121145,
				"element": "C" 
			},
			{
				"x": 0.2069439975,
				"y": 2.4791510575,
				"z": 1.7427246037,
				"element": "N" 
			},
			{
				"x": 1.1255900092,
				"y": 3.0517767905,
				"z": 2.519187267,
				"element": "C" 
			},
			{
				"x": -0.4631586279,
				"y": 1.2660877148,
				"z": -0.1395606893,
				"element": "N" 
			},
			{
				"x": -0.4161178702,
				"y": -0.1371738517,
				"z": -0.5836919464,
				"element": "C" 
			},
			{
				"x": -1.1782558576,
				"y": -1.0512844855,
				"z": 0.3959145147,
				"element": "C" 
			},
			{
				"x": -2.5489059837,
				"y": -0.6196300331,
				"z": 0.6740453904,
				"element": "N" 
			},
			{
				"x": -2.5886802456,
				"y": 0.7905347602,
				"z": 1.0780557118,
				"element": "C" 
			},
			{
				"x": -1.8406758474,
				"y": 1.717563306,
				"z": 0.1063848794,
				"element": "C" 
			},
			{
				"x": 3.9386121012,
				"y": 2.2914038279,
				"z": 0.7943104786,
				"element": "H" 
			},
			{
				"x": 0.7674880256,
				"y": 3.5873225778,
				"z": 3.3950729099,
				"element": "H" 
			},
			{
				"x": -0.8748883774,
				"y": -0.1947698065,
				"z": -1.580934522,
				"element": "H" 
			},
			{
				"x": 0.6171876287,
				"y": -0.4669383049,
				"z": -0.6826994637,
				"element": "H" 
			},
			{
				"x": -0.6332239095,
				"y": -1.0804666141,
				"z": 1.3491084565,
				"element": "H" 
			},
			{
				"x": -1.1987474184,
				"y": -2.0744245321,
				"z": 0.0023576882,
				"element": "H" 
			},
			{
				"x": -3.1123097262,
				"y": -0.742009492,
				"z": -0.1664055436,
				"element": "H" 
			},
			{
				"x": -3.6350176276,
				"y": 1.1039711808,
				"z": 1.1677348025,
				"element": "H" 
			},
			{
				"x": -2.1311731211,
				"y": 0.878174567,
				"z": 2.0701552062,
				"element": "H" 
			},
			{
				"x": -2.353790866,
				"y": 1.7162582509,
				"z": -0.8667043663,
				"element": "H" 
			},
			{
				"x": -1.8154982998,
				"y": 2.7412665058,
				"z": 0.4809753653,
				"element": "H" 
			}
		],
		 "valence_orbital": [ 
			{
				"type": "occ",
				"energy": -0.29197,
				"method": "rhf"
			},
			{
				"type": "occ",
				"energy": -0.2807,
				"method": "rhf"
			},
			{
				"type": "occ",
				"energy": -0.27251,
				"method": "rhf"
			},
			{
				"type": "occ",
				"energy": -0.23863,
				"method": "rhf"
			},
			{
				"type": "occ",
				"energy": -0.19958,
				"method": "rhf"
			},
			{
				"type": "unocc",
				"energy": -0.03898,
				"method": "rhf"
			},
			{
				"type": "unocc",
				"energy": -0.01971,
				"method": "rhf"
			},
			{
				"type": "unocc",
				"energy": 0.0084,
				"method": "rhf"
			},
			{
				"type": "unocc",
				"energy": 0.04476,
				"method": "rhf"
			},
			{
				"type": "unocc",
				"energy": 0.07976,
				"method": "rhf"
			}
		],
		"cosmo_sigma_profile": { 
			"-0.025": 0.0,
			"-0.024": 0.0,
			"-0.023": 0.0,
			"-0.022": 0.0,
			"-0.021": 0.0,
			"-0.02": 0.0,
			"-0.019": 0.0,
			"-0.018": 0.0,
			"-0.017": 0.0,
			"-0.016": 0.0,
			"-0.015": 0.0,
			"-0.014": 0.0,
			"-0.013": 0.0,
			"-0.012": 0.0,
			"-0.011": 0.0,
			"-0.01": 0.673795671555,
			"-0.009": 2.64283822451,
			"-0.008": 3.26445027034,
			"-0.007": 5.98485577634,
			"-0.006": 4.97324259708,
			"-0.005": 8.66974888314,
			"-0.004": 22.2948079287,
			"-0.003": 21.9572268096,
			"-0.002": 23.4235458279,
			"-0.001": 21.8405069138,
			"0.0": 24.9726786078,
			"0.001": 26.0076901258,
			"0.002": 14.4700381298,
			"0.003": 17.9120560018,
			"0.004": 20.2534977203,
			"0.005": 8.47868420079,
			"0.006": 4.1210631174,
			"0.007": 2.65742532684,
			"0.008": 2.35641676395,
			"0.009": 1.66307760798,
			"0.01": 1.21575989859,
			"0.011": 0.667375116295,
			"0.012": 0.817549457818,
			"0.013": 0.602654977523,
			"0.014": 0.914011921768,
			"0.015": 0.266665456849,
			"0.016": 0.665730815833,
			"0.017": 0.537821213165,
			"0.018": 0.651544783655,
			"0.019": 0.0292126140178,
			"0.02": 0.0,
			"0.021": 0.0,
			"0.022": 0.0,
			"0.023": 0.0,
			"0.024": 0.0,
			"0.025": 0.0
		}
	}
}
