{
	 "smiles": "CCN1CCN(C(=O)NC(C(O)=O)C2=CC=CC=C2)C(=O)C1=O", 
	 "Tm": 444.15, 
	 "num_atms": 40, 
	 "gaussian": { 
		 "optdone": 1, 
		 "sigma_profile": "yes", 
		 "theory": "DFT", 
		 "functional": "B3LYP", 
		 "basiset": "6-31G**", 
		 "properties": { 
			 "R2extent": 9059.8052, 
			 "electric_dipole_moment_norm": 8.56068383308, 
			 "electric_quadrupole_moment_norm": 21.9333690093, 
			 "total_energy": -1122.27214385, 
			 "HOMO_LUMO_gap": 0.17931, 
			 "cosmo_polarized_energy": -26.75, 
			 "cosmo_cavitation_energy": 43.41, 
			 "cosmo_dispersion_energy": -30.19, 
			 "cosmo_repulsion_energy": 2.31, 
			 "cosmo_total_nonelectrostatic_energy": 15.53, 
			 "SMD_solvation_energy": 8.94 
		},
		"coords": [
			{
				"x": -6.0829828747,
				"y": -1.24109577,
				"z": 0.9714652033,
				"element": "C" 
			},
			{
				"x": -5.0525661392,
				"y": -0.4216935599,
				"z": 1.7521193068,
				"element": "C" 
			},
			{
				"x": -3.7215802371,
				"y": -0.4417846268,
				"z": 1.1340543192,
				"element": "N" 
			},
			{
				"x": -2.7938094397,
				"y": -1.5193465215,
				"z": 1.4625980874,
				"element": "C" 
			},
			{
				"x": -1.87521549,
				"y": -1.8017055609,
				"z": 0.2890537004,
				"element": "C" 
			},
			{
				"x": -1.1613443158,
				"y": -0.5724785672,
				"z": -0.1032924587,
				"element": "N" 
			},
			{
				"x": 0.2061322387,
				"y": -0.7274080631,
				"z": -0.4922049431,
				"element": "C" 
			},
			{
				"x": 0.7251152946,
				"y": -1.8483239509,
				"z": -0.3948391709,
				"element": "O" 
			},
			{
				"x": 0.8362312431,
				"y": 0.3659559914,
				"z": -0.9515244537,
				"element": "N" 
			},
			{
				"x": 2.2970481011,
				"y": 0.4541262063,
				"z": -1.1623965917,
				"element": "C" 
			},
			{
				"x": 2.8260745538,
				"y": -0.4030356467,
				"z": -2.3399546687,
				"element": "C" 
			},
			{
				"x": 2.4821952278,
				"y": -1.6964863533,
				"z": -2.3656529984,
				"element": "O" 
			},
			{
				"x": 3.5454030161,
				"y": 0.0892442798,
				"z": -3.1766904256,
				"element": "O" 
			},
			{
				"x": 3.0840916906,
				"y": 0.2669727226,
				"z": 0.1371390297,
				"element": "C" 
			},
			{
				"x": 3.8345088428,
				"y": -0.8801171804,
				"z": 0.4174172726,
				"element": "C" 
			},
			{
				"x": 4.5342207859,
				"y": -0.9881968817,
				"z": 1.6215050626,
				"element": "C" 
			},
			{
				"x": 4.4885156664,
				"y": 0.0428498906,
				"z": 2.5590534051,
				"element": "C" 
			},
			{
				"x": 3.7417927097,
				"y": 1.191824725,
				"z": 2.2865958864,
				"element": "C" 
			},
			{
				"x": 3.0489135657,
				"y": 1.3021115584,
				"z": 1.08279567,
				"element": "C" 
			},
			{
				"x": -1.8715421972,
				"y": 0.6184542029,
				"z": -0.1516517753,
				"element": "C" 
			},
			{
				"x": -1.4096289639,
				"y": 1.6824236671,
				"z": -0.535654165,
				"element": "O" 
			},
			{
				"x": -3.3502436564,
				"y": 0.5937700306,
				"z": 0.3271548384,
				"element": "C" 
			},
			{
				"x": -4.0818645186,
				"y": 1.5139695858,
				"z": 0.0032565469,
				"element": "O" 
			},
			{
				"x": -6.212674597,
				"y": -0.8293330173,
				"z": -0.0327842646,
				"element": "H" 
			},
			{
				"x": -5.7833433974,
				"y": -2.2908103713,
				"z": 0.8806438993,
				"element": "H" 
			},
			{
				"x": -7.0508083299,
				"y": -1.2127169969,
				"z": 1.4820052917,
				"element": "H" 
			},
			{
				"x": -4.9486144931,
				"y": -0.798965669,
				"z": 2.7760890594,
				"element": "H" 
			},
			{
				"x": -5.364577536,
				"y": 0.6230501753,
				"z": 1.8042936356,
				"element": "H" 
			},
			{
				"x": -3.372206124,
				"y": -2.4227972393,
				"z": 1.6777418771,
				"element": "H" 
			},
			{
				"x": -2.2090085949,
				"y": -1.2774867258,
				"z": 2.3621941689,
				"element": "H" 
			},
			{
				"x": -2.4521719049,
				"y": -2.1795661567,
				"z": -0.5633652357,
				"element": "H" 
			},
			{
				"x": -1.1225408421,
				"y": -2.5434267481,
				"z": 0.5493191743,
				"element": "H" 
			},
			{
				"x": 0.2765967149,
				"y": 1.2173244777,
				"z": -0.9871887757,
				"element": "H" 
			},
			{
				"x": 2.4576163303,
				"y": 1.4773293104,
				"z": -1.5053616096,
				"element": "H" 
			},
			{
				"x": 1.8790541867,
				"y": -1.9118503001,
				"z": -1.6097141731,
				"element": "H" 
			},
			{
				"x": 3.8820353819,
				"y": -1.690006452,
				"z": -0.3020029564,
				"element": "H" 
			},
			{
				"x": 5.1157336273,
				"y": -1.8830794163,
				"z": 1.8230145278,
				"element": "H" 
			},
			{
				"x": 5.0351748247,
				"y": -0.0436599157,
				"z": 3.4936094592,
				"element": "H" 
			},
			{
				"x": 3.7073168759,
				"y": 2.0049134122,
				"z": 3.0060109649,
				"element": "H" 
			},
			{
				"x": 2.4761527738,
				"y": 2.2023514546,
				"z": 0.8723482794,
				"element": "H" 
			}
		],
		 "valence_orbital": [ 
			{
				"type": "occ",
				"energy": -0.27351,
				"method": "rhf"
			},
			{
				"type": "occ",
				"energy": -0.26843,
				"method": "rhf"
			},
			{
				"type": "occ",
				"energy": -0.25854,
				"method": "rhf"
			},
			{
				"type": "occ",
				"energy": -0.25488,
				"method": "rhf"
			},
			{
				"type": "occ",
				"energy": -0.25257,
				"method": "rhf"
			},
			{
				"type": "unocc",
				"energy": -0.07326,
				"method": "rhf"
			},
			{
				"type": "unocc",
				"energy": -0.0184,
				"method": "rhf"
			},
			{
				"type": "unocc",
				"energy": -0.00908,
				"method": "rhf"
			},
			{
				"type": "unocc",
				"energy": 0.00788,
				"method": "rhf"
			},
			{
				"type": "unocc",
				"energy": 0.02253,
				"method": "rhf"
			}
		],
		"cosmo_sigma_profile": { 
			"-0.025": 0.0,
			"-0.024": 0.0,
			"-0.023": 0.0,
			"-0.022": 0.0,
			"-0.021": 0.0,
			"-0.02": 0.0,
			"-0.019": 0.0,
			"-0.018": 0.0,
			"-0.017": 0.0,
			"-0.016": 0.0,
			"-0.015": 0.0,
			"-0.014": 0.0189316530114,
			"-0.013": 0.515619579707,
			"-0.012": 1.0885598667,
			"-0.011": 1.00545002194,
			"-0.01": 1.33440632286,
			"-0.009": 2.41141401363,
			"-0.008": 5.41757630653,
			"-0.007": 15.6964983364,
			"-0.006": 29.1713512335,
			"-0.005": 31.4485012311,
			"-0.004": 31.9367806355,
			"-0.003": 29.6039875929,
			"-0.002": 23.7325918222,
			"-0.001": 19.0490971552,
			"0.0": 21.8854334516,
			"0.001": 13.4822400676,
			"0.002": 13.6629141232,
			"0.003": 12.2228744755,
			"0.004": 13.3188729132,
			"0.005": 14.5651737867,
			"0.006": 6.5728965983,
			"0.007": 5.69082928844,
			"0.008": 7.33699183249,
			"0.009": 7.01572036718,
			"0.01": 8.12681321789,
			"0.011": 9.03639894442,
			"0.012": 10.195332543,
			"0.013": 5.8800622522,
			"0.014": 2.0826912898,
			"0.015": 1.2626958142,
			"0.016": 0.076090907001,
			"0.017": 0.0,
			"0.018": 0.0,
			"0.019": 0.0,
			"0.02": 0.0,
			"0.021": 0.0,
			"0.022": 0.0,
			"0.023": 0.0,
			"0.024": 0.0,
			"0.025": 0.0
		}
	}
}
