{
	 "smiles": "CC(=O)C1=CC=C(C)C(C)=C1", 
	 "Tm": 270.15, 
	 "num_atms": 23, 
	 "gaussian": { 
		 "optdone": 1, 
		 "sigma_profile": "yes", 
		 "theory": "DFT", 
		 "functional": "B3LYP", 
		 "basiset": "6-31G**", 
		 "properties": { 
			 "R2extent": 2448.1903, 
			 "electric_dipole_moment_norm": 3.74816567804, 
			 "electric_quadrupole_moment_norm": 13.5564634824, 
			 "total_energy": -463.540260625, 
			 "HOMO_LUMO_gap": 0.19256, 
			 "cosmo_polarized_energy": -8.38, 
			 "cosmo_cavitation_energy": 26.09, 
			 "cosmo_dispersion_energy": -18.82, 
			 "cosmo_repulsion_energy": 1.5, 
			 "cosmo_total_nonelectrostatic_energy": 8.77, 
			 "SMD_solvation_energy": 5.23 
		},
		"coords": [
			{
				"x": 2.8046493721,
				"y": 2.7475597594,
				"z": 1.855305169,
				"element": "C" 
			},
			{
				"x": 1.4961431566,
				"y": 2.0984397768,
				"z": 2.2784178385,
				"element": "C" 
			},
			{
				"x": 0.9255437556,
				"y": 2.4660598037,
				"z": 3.2952476772,
				"element": "O" 
			},
			{
				"x": 0.9221393091,
				"y": 1.0054393801,
				"z": 1.4309479538,
				"element": "C" 
			},
			{
				"x": -0.2836335228,
				"y": 0.4151704718,
				"z": 1.8309785831,
				"element": "C" 
			},
			{
				"x": -0.8463573446,
				"y": -0.6020786643,
				"z": 1.069335811,
				"element": "C" 
			},
			{
				"x": -0.2341067788,
				"y": -1.0619715707,
				"z": -0.1048979163,
				"element": "C" 
			},
			{
				"x": -0.8704464383,
				"y": -2.1682099463,
				"z": -0.9100419954,
				"element": "C" 
			},
			{
				"x": 0.9818956994,
				"y": -0.4743058532,
				"z": -0.5179361561,
				"element": "C" 
			},
			{
				"x": 1.6774451271,
				"y": -0.9376060931,
				"z": -1.7762804726,
				"element": "C" 
			},
			{
				"x": 1.5375158845,
				"y": 0.5476365434,
				"z": 0.2564924604,
				"element": "C" 
			},
			{
				"x": 3.0650371262,
				"y": 3.514035489,
				"z": 2.5857677584,
				"element": "H" 
			},
			{
				"x": 2.7147537698,
				"y": 3.2054902392,
				"z": 0.8640383848,
				"element": "H" 
			},
			{
				"x": 3.6114970037,
				"y": 2.0083777168,
				"z": 1.8005281017,
				"element": "H" 
			},
			{
				"x": -0.7574584267,
				"y": 0.7709777665,
				"z": 2.739588487,
				"element": "H" 
			},
			{
				"x": -1.7824192947,
				"y": -1.0549927746,
				"z": 1.3866579148,
				"element": "H" 
			},
			{
				"x": -0.2058015669,
				"y": -3.0361635096,
				"z": -0.9990423468,
				"element": "H" 
			},
			{
				"x": -1.0993617691,
				"y": -1.8428940279,
				"z": -1.932189203,
				"element": "H" 
			},
			{
				"x": -1.8022269637,
				"y": -2.505881843,
				"z": -0.4495828795,
				"element": "H" 
			},
			{
				"x": 1.0428954484,
				"y": -0.808559878,
				"z": -2.6614869199,
				"element": "H" 
			},
			{
				"x": 1.9365876985,
				"y": -2.002221609,
				"z": -1.7279938327,
				"element": "H" 
			},
			{
				"x": 2.6011388249,
				"y": -0.3779002208,
				"z": -1.9449080979,
				"element": "H" 
			},
			{
				"x": 2.4729699298,
				"y": 0.9912990438,
				"z": -0.0720463192,
				"element": "H" 
			}
		],
		 "valence_orbital": [ 
			{
				"type": "occ",
				"energy": -0.33728,
				"method": "rhf"
			},
			{
				"type": "occ",
				"energy": -0.33713,
				"method": "rhf"
			},
			{
				"type": "occ",
				"energy": -0.25193,
				"method": "rhf"
			},
			{
				"type": "occ",
				"energy": -0.24165,
				"method": "rhf"
			},
			{
				"type": "occ",
				"energy": -0.24092,
				"method": "rhf"
			},
			{
				"type": "unocc",
				"energy": -0.04836,
				"method": "rhf"
			},
			{
				"type": "unocc",
				"energy": -0.00203,
				"method": "rhf"
			},
			{
				"type": "unocc",
				"energy": 0.04408,
				"method": "rhf"
			},
			{
				"type": "unocc",
				"energy": 0.08639,
				"method": "rhf"
			},
			{
				"type": "unocc",
				"energy": 0.09929,
				"method": "rhf"
			}
		],
		"cosmo_sigma_profile": { 
			"-0.025": 0.0,
			"-0.024": 0.0,
			"-0.023": 0.0,
			"-0.022": 0.0,
			"-0.021": 0.0,
			"-0.02": 0.0,
			"-0.019": 0.0,
			"-0.018": 0.0,
			"-0.017": 0.0,
			"-0.016": 0.0,
			"-0.015": 0.0,
			"-0.014": 0.0,
			"-0.013": 0.0,
			"-0.012": 0.0,
			"-0.011": 0.0,
			"-0.01": 0.0,
			"-0.009": 0.0,
			"-0.008": 0.0,
			"-0.007": 0.0,
			"-0.006": 5.532768771,
			"-0.005": 16.4206541007,
			"-0.004": 24.6219218648,
			"-0.003": 21.6714721683,
			"-0.002": 19.8185289411,
			"-0.001": 23.3806767061,
			"0.0": 22.6034664573,
			"0.001": 13.4103028209,
			"0.002": 9.44397836022,
			"0.003": 10.9602182014,
			"0.004": 10.6408851091,
			"0.005": 8.59251515871,
			"0.006": 2.02779388753,
			"0.007": 1.6752986387,
			"0.008": 1.61864463487,
			"0.009": 1.69566356675,
			"0.01": 2.16803517444,
			"0.011": 2.55832793893,
			"0.012": 4.03836302097,
			"0.013": 2.56233504226,
			"0.014": 0.419450024852,
			"0.015": 0.0,
			"0.016": 0.0,
			"0.017": 0.0,
			"0.018": 0.0,
			"0.019": 0.0,
			"0.02": 0.0,
			"0.021": 0.0,
			"0.022": 0.0,
			"0.023": 0.0,
			"0.024": 0.0,
			"0.025": 0.0
		}
	}
}
