{
	 "smiles": "CCC(C)[C@H](NC(=O)N1CCCC1)C(O)=O", 
	 "Tm": 421.15, 
	 "num_atms": 36, 
	 "gaussian": { 
		 "optdone": 1, 
		 "sigma_profile": "yes", 
		 "theory": "DFT", 
		 "functional": "B3LYP", 
		 "basiset": "6-31G**", 
		 "properties": { 
			 "R2extent": 4818.995, 
			 "electric_dipole_moment_norm": 6.4039415269, 
			 "electric_quadrupole_moment_norm": 11.0178164602, 
			 "total_energy": -766.436884721, 
			 "HOMO_LUMO_gap": 0.23049, 
			 "cosmo_polarized_energy": -20.78, 
			 "cosmo_cavitation_energy": 36.21, 
			 "cosmo_dispersion_energy": -24.72, 
			 "cosmo_repulsion_energy": 1.95, 
			 "cosmo_total_nonelectrostatic_energy": 13.44, 
			 "SMD_solvation_energy": 6.22 
		},
		"coords": [
			{
				"x": 1.862806303,
				"y": 2.4130213678,
				"z": 3.454526029,
				"element": "C" 
			},
			{
				"x": 1.7477394668,
				"y": 1.9974398967,
				"z": 1.9830457856,
				"element": "C" 
			},
			{
				"x": 0.3886901796,
				"y": 1.3683510457,
				"z": 1.6174838699,
				"element": "C" 
			},
			{
				"x": -0.7867148344,
				"y": 2.3429626316,
				"z": 1.7940498846,
				"element": "C" 
			},
			{
				"x": 0.4000905911,
				"y": 0.7215367169,
				"z": 0.1880264745,
				"element": "C" 
			},
			{
				"x": 1.378675594,
				"y": -0.3467232953,
				"z": 0.0175351342,
				"element": "N" 
			},
			{
				"x": 1.6187850957,
				"y": -1.360951074,
				"z": 0.9514268825,
				"element": "C" 
			},
			{
				"x": 2.7612422274,
				"y": -1.6665585274,
				"z": 1.2839544201,
				"element": "O" 
			},
			{
				"x": 0.5122154574,
				"y": -2.0153518081,
				"z": 1.4486819674,
				"element": "N" 
			},
			{
				"x": 0.7474073643,
				"y": -3.1281570537,
				"z": 2.3881921438,
				"element": "C" 
			},
			{
				"x": -0.6189962281,
				"y": -3.8183211422,
				"z": 2.4781996242,
				"element": "C" 
			},
			{
				"x": -1.2070248266,
				"y": -3.6042025738,
				"z": 1.0742562192,
				"element": "C" 
			},
			{
				"x": -0.7648926104,
				"y": -2.1723688307,
				"z": 0.7308056421,
				"element": "C" 
			},
			{
				"x": 0.7180826158,
				"y": 1.7626655592,
				"z": -0.896427255,
				"element": "C" 
			},
			{
				"x": -0.3084592416,
				"y": 2.5570357306,
				"z": -1.2843553289,
				"element": "O" 
			},
			{
				"x": 1.8161023517,
				"y": 1.9110803044,
				"z": -1.3738275194,
				"element": "O" 
			},
			{
				"x": 1.1634210271,
				"y": 3.213354475,
				"z": 3.717320651,
				"element": "H" 
			},
			{
				"x": 1.668499154,
				"y": 1.5650997763,
				"z": 4.1214690853,
				"element": "H" 
			},
			{
				"x": 2.8714361379,
				"y": 2.7775902297,
				"z": 3.6717605619,
				"element": "H" 
			},
			{
				"x": 2.5387164715,
				"y": 1.2728693166,
				"z": 1.7626579593,
				"element": "H" 
			},
			{
				"x": 1.9357698272,
				"y": 2.8666760697,
				"z": 1.3394189765,
				"element": "H" 
			},
			{
				"x": 0.2181192853,
				"y": 0.5208970345,
				"z": 2.2947693743,
				"element": "H" 
			},
			{
				"x": -0.9055658483,
				"y": 2.6236960711,
				"z": 2.843473017,
				"element": "H" 
			},
			{
				"x": -1.7375232092,
				"y": 1.8895162581,
				"z": 1.4823454082,
				"element": "H" 
			},
			{
				"x": -0.6405243716,
				"y": 3.2680777212,
				"z": 1.225565229,
				"element": "H" 
			},
			{
				"x": -0.6111367281,
				"y": 0.3366720747,
				"z": -0.0020414289,
				"element": "H" 
			},
			{
				"x": 2.2594040427,
				"y": 0.0160101549,
				"z": -0.3348143633,
				"element": "H" 
			},
			{
				"x": 1.1090467024,
				"y": -2.7520855542,
				"z": 3.3495739535,
				"element": "H" 
			},
			{
				"x": 1.5201608017,
				"y": -3.7957797474,
				"z": 1.9891677613,
				"element": "H" 
			},
			{
				"x": -1.2476956983,
				"y": -3.3260950918,
				"z": 3.2296230457,
				"element": "H" 
			},
			{
				"x": -0.5329634485,
				"y": -4.8725561431,
				"z": 2.7539924043,
				"element": "H" 
			},
			{
				"x": -0.7578423996,
				"y": -4.3110092154,
				"z": 0.3675115279,
				"element": "H" 
			},
			{
				"x": -2.292615364,
				"y": -3.7282873197,
				"z": 1.0301864366,
				"element": "H" 
			},
			{
				"x": -0.624105873,
				"y": -2.0138939098,
				"z": -0.3423485492,
				"element": "H" 
			},
			{
				"x": -1.5111623083,
				"y": -1.4471056861,
				"z": 1.0881440718,
				"element": "H" 
			},
			{
				"x": -1.1214877066,
				"y": 2.304594538,
				"z": -0.8244490961,
				"element": "H" 
			}
		],
		 "valence_orbital": [ 
			{
				"type": "occ",
				"energy": -0.32498,
				"method": "rhf"
			},
			{
				"type": "occ",
				"energy": -0.28413,
				"method": "rhf"
			},
			{
				"type": "occ",
				"energy": -0.26471,
				"method": "rhf"
			},
			{
				"type": "occ",
				"energy": -0.23838,
				"method": "rhf"
			},
			{
				"type": "occ",
				"energy": -0.23471,
				"method": "rhf"
			},
			{
				"type": "unocc",
				"energy": -0.00422,
				"method": "rhf"
			},
			{
				"type": "unocc",
				"energy": 0.04105,
				"method": "rhf"
			},
			{
				"type": "unocc",
				"energy": 0.04346,
				"method": "rhf"
			},
			{
				"type": "unocc",
				"energy": 0.07056,
				"method": "rhf"
			},
			{
				"type": "unocc",
				"energy": 0.09417,
				"method": "rhf"
			}
		],
		"cosmo_sigma_profile": { 
			"-0.025": 0.0,
			"-0.024": 0.0,
			"-0.023": 0.0,
			"-0.022": 0.0,
			"-0.021": 0.0,
			"-0.02": 0.0,
			"-0.019": 0.0,
			"-0.018": 0.627416226901,
			"-0.017": 0.885309361901,
			"-0.016": 1.87495684344,
			"-0.015": 0.714932004248,
			"-0.014": 0.673138380258,
			"-0.013": 1.20063941423,
			"-0.012": 1.27161101055,
			"-0.011": 1.72482927067,
			"-0.01": 0.588938040849,
			"-0.009": 0.694460162296,
			"-0.008": 1.95555100016,
			"-0.007": 3.35737176426,
			"-0.006": 3.7356829323,
			"-0.005": 6.42803038468,
			"-0.004": 19.4418668191,
			"-0.003": 40.3094317227,
			"-0.002": 41.5768523769,
			"-0.001": 34.7609272012,
			"0.0": 31.1688094397,
			"0.001": 18.5472744337,
			"0.002": 9.31701982018,
			"0.003": 6.64319368175,
			"0.004": 4.81356139723,
			"0.005": 4.35064215227,
			"0.006": 4.09649496876,
			"0.007": 4.04499510413,
			"0.008": 5.0329268179,
			"0.009": 5.94662073385,
			"0.01": 5.79168698786,
			"0.011": 5.32860386441,
			"0.012": 3.29527586736,
			"0.013": 2.14570619088,
			"0.014": 4.76190462895,
			"0.015": 3.53132147438,
			"0.016": 0.0385545551902,
			"0.017": 0.0,
			"0.018": 0.0,
			"0.019": 0.0,
			"0.02": 0.0,
			"0.021": 0.0,
			"0.022": 0.0,
			"0.023": 0.0,
			"0.024": 0.0,
			"0.025": 0.0
		}
	}
}
