{
	 "smiles": "CC(=O)OC1CCC2C3CCC45OC4C(=O)C=CC5(O)C3CCC12C", 
	 "Tm": 451.15, 
	 "num_atms": 51, 
	 "gaussian": { 
		 "optdone": 1, 
		 "sigma_profile": "yes", 
		 "theory": "DFT", 
		 "functional": "B3LYP", 
		 "basiset": "6-31G**", 
		 "properties": { 
			 "R2extent": 9026.3096, 
			 "electric_dipole_moment_norm": 1.67174182815, 
			 "electric_quadrupole_moment_norm": 33.2384018394, 
			 "total_energy": -1153.87980354, 
			 "HOMO_LUMO_gap": 0.18421, 
			 "cosmo_polarized_energy": -16.28, 
			 "cosmo_cavitation_energy": 47.2, 
			 "cosmo_dispersion_energy": -31.79, 
			 "cosmo_repulsion_energy": 2.36, 
			 "cosmo_total_nonelectrostatic_energy": 17.76, 
			 "SMD_solvation_energy": 8.3 
		},
		"coords": [
			{
				"x": 0.7964068902,
				"y": 3.3554107916,
				"z": 2.9764245081,
				"element": "C" 
			},
			{
				"x": 1.889089622,
				"y": 2.3335521287,
				"z": 3.1885753574,
				"element": "C" 
			},
			{
				"x": 2.7847530529,
				"y": 2.4232444641,
				"z": 3.9994269217,
				"element": "O" 
			},
			{
				"x": 1.7412031151,
				"y": 1.2876999095,
				"z": 2.3383219981,
				"element": "O" 
			},
			{
				"x": 2.7338699343,
				"y": 0.2254949718,
				"z": 2.4240968259,
				"element": "C" 
			},
			{
				"x": 2.328132702,
				"y": -0.7853717697,
				"z": 3.5092262939,
				"element": "C" 
			},
			{
				"x": 1.4772352796,
				"y": -1.8726980101,
				"z": 2.7922450717,
				"element": "C" 
			},
			{
				"x": 1.4572778488,
				"y": -1.5015942496,
				"z": 1.2792198412,
				"element": "C" 
			},
			{
				"x": 0.0807638982,
				"y": -0.9021006009,
				"z": 0.8639778331,
				"element": "C" 
			},
			{
				"x": -0.9423717834,
				"y": -2.0546052134,
				"z": 0.685231602,
				"element": "C" 
			},
			{
				"x": -0.9045668224,
				"y": -2.6315282338,
				"z": -0.7353011644,
				"element": "C" 
			},
			{
				"x": -1.2847914249,
				"y": -1.5771160171,
				"z": -1.7617029684,
				"element": "C" 
			},
			{
				"x": -2.5731854919,
				"y": -1.7314012705,
				"z": -2.3906979777,
				"element": "O" 
			},
			{
				"x": -1.388650581,
				"y": -1.9255536048,
				"z": -3.1942206185,
				"element": "C" 
			},
			{
				"x": -1.1200932071,
				"y": -0.892788782,
				"z": -4.2575694309,
				"element": "C" 
			},
			{
				"x": -0.9463021656,
				"y": -1.2275687991,
				"z": -5.4201706411,
				"element": "O" 
			},
			{
				"x": -1.0515338469,
				"y": 0.5095906925,
				"z": -3.8070425812,
				"element": "C" 
			},
			{
				"x": -0.9772911667,
				"y": 0.8388277184,
				"z": -2.5084868456,
				"element": "C" 
			},
			{
				"x": -1.0553380282,
				"y": -0.1174485826,
				"z": -1.337623264,
				"element": "C" 
			},
			{
				"x": -2.1968532926,
				"y": 0.3038738669,
				"z": -0.5677134197,
				"element": "O" 
			},
			{
				"x": 0.1646258642,
				"y": 0.0312382549,
				"z": -0.3976874973,
				"element": "C" 
			},
			{
				"x": 1.5133488254,
				"y": -0.100312274,
				"z": -1.1254535021,
				"element": "C" 
			},
			{
				"x": 2.6491418596,
				"y": 0.3059128098,
				"z": -0.1797992286,
				"element": "C" 
			},
			{
				"x": 2.7014809602,
				"y": -0.5729488161,
				"z": 1.0997412187,
				"element": "C" 
			},
			{
				"x": 3.9723649939,
				"y": -1.4521418869,
				"z": 1.0456481092,
				"element": "C" 
			},
			{
				"x": 0.8471879386,
				"y": 3.7532238499,
				"z": 1.9582537147,
				"element": "H" 
			},
			{
				"x": -0.1860750896,
				"y": 2.8893695246,
				"z": 3.0947427172,
				"element": "H" 
			},
			{
				"x": 0.9146082843,
				"y": 4.1658783758,
				"z": 3.6949157522,
				"element": "H" 
			},
			{
				"x": 3.6995226094,
				"y": 0.6955745063,
				"z": 2.6232347362,
				"element": "H" 
			},
			{
				"x": 1.7923691086,
				"y": -0.2844984094,
				"z": 4.3184091871,
				"element": "H" 
			},
			{
				"x": 3.2270910033,
				"y": -1.2189234394,
				"z": 3.9573662255,
				"element": "H" 
			},
			{
				"x": 0.4624512756,
				"y": -1.9182597792,
				"z": 3.1985524449,
				"element": "H" 
			},
			{
				"x": 1.914130907,
				"y": -2.8635421427,
				"z": 2.9487422781,
				"element": "H" 
			},
			{
				"x": 1.6179170015,
				"y": -2.4034803884,
				"z": 0.6750725913,
				"element": "H" 
			},
			{
				"x": -0.2674720711,
				"y": -0.2794875316,
				"z": 1.6919519956,
				"element": "H" 
			},
			{
				"x": -0.7355761207,
				"y": -2.8492539552,
				"z": 1.4104499373,
				"element": "H" 
			},
			{
				"x": -1.9503372891,
				"y": -1.6866116131,
				"z": 0.8907020262,
				"element": "H" 
			},
			{
				"x": 0.1019346772,
				"y": -3.0072265315,
				"z": -0.9619227148,
				"element": "H" 
			},
			{
				"x": -1.5911706471,
				"y": -3.4770168028,
				"z": -0.8456384585,
				"element": "H" 
			},
			{
				"x": -1.2207924877,
				"y": -2.9523125729,
				"z": -3.5183217154,
				"element": "H" 
			},
			{
				"x": -1.0147619162,
				"y": 1.2612132128,
				"z": -4.5905711378,
				"element": "H" 
			},
			{
				"x": -0.9104964643,
				"y": 1.8850761033,
				"z": -2.2147631805,
				"element": "H" 
			},
			{
				"x": -2.9725761891,
				"y": 0.0429674766,
				"z": -1.0892667206,
				"element": "H" 
			},
			{
				"x": 0.108968601,
				"y": 1.065232165,
				"z": -0.0364758967,
				"element": "H" 
			},
			{
				"x": 1.6666370691,
				"y": -1.1250625434,
				"z": -1.4901088788,
				"element": "H" 
			},
			{
				"x": 1.5298407979,
				"y": 0.543394653,
				"z": -2.0115502457,
				"element": "H" 
			},
			{
				"x": 3.6076230687,
				"y": 0.2511150185,
				"z": -0.7078037704,
				"element": "H" 
			},
			{
				"x": 2.5034549627,
				"y": 1.3559908817,
				"z": 0.0935761352,
				"element": "H" 
			},
			{
				"x": 4.8749127111,
				"y": -0.8311353961,
				"z": 1.0363405056,
				"element": "H" 
			},
			{
				"x": 3.9726774221,
				"y": -2.0520794911,
				"z": 0.1292607306,
				"element": "H" 
			},
			{
				"x": 4.0498138009,
				"y": -2.1431126681,
				"z": 1.8902852999,
				"element": "H" 
			}
		],
		 "valence_orbital": [ 
			{
				"type": "occ",
				"energy": -0.2897,
				"method": "rhf"
			},
			{
				"type": "occ",
				"energy": -0.28128,
				"method": "rhf"
			},
			{
				"type": "occ",
				"energy": -0.27194,
				"method": "rhf"
			},
			{
				"type": "occ",
				"energy": -0.27167,
				"method": "rhf"
			},
			{
				"type": "occ",
				"energy": -0.25154,
				"method": "rhf"
			},
			{
				"type": "unocc",
				"energy": -0.06733,
				"method": "rhf"
			},
			{
				"type": "unocc",
				"energy": 0.0097,
				"method": "rhf"
			},
			{
				"type": "unocc",
				"energy": 0.02923,
				"method": "rhf"
			},
			{
				"type": "unocc",
				"energy": 0.05961,
				"method": "rhf"
			},
			{
				"type": "unocc",
				"energy": 0.06636,
				"method": "rhf"
			}
		],
		"cosmo_sigma_profile": { 
			"-0.025": 0.0,
			"-0.024": 0.0,
			"-0.023": 0.0,
			"-0.022": 0.0,
			"-0.021": 0.0,
			"-0.02": 0.0,
			"-0.019": 0.0,
			"-0.018": 0.0,
			"-0.017": 0.0,
			"-0.016": 0.0,
			"-0.015": 0.0,
			"-0.014": 0.0603013912391,
			"-0.013": 0.34910287401,
			"-0.012": 0.501036744751,
			"-0.011": 0.707468123302,
			"-0.01": 1.22401071112,
			"-0.009": 0.152400094575,
			"-0.008": 0.540413640118,
			"-0.007": 5.77536423699,
			"-0.006": 10.5136787563,
			"-0.005": 17.1181922356,
			"-0.004": 28.2718219633,
			"-0.003": 41.5134812283,
			"-0.002": 55.2742255656,
			"-0.001": 53.3871144217,
			"0.0": 38.2329760178,
			"0.001": 28.0795232124,
			"0.002": 12.4198050265,
			"0.003": 8.78214344217,
			"0.004": 6.57533915255,
			"0.005": 5.81562063321,
			"0.006": 5.21415367136,
			"0.007": 5.98012060436,
			"0.008": 4.38392940318,
			"0.009": 6.15500062457,
			"0.01": 6.70539338178,
			"0.011": 8.37878291217,
			"0.012": 9.83532144759,
			"0.013": 4.11414366263,
			"0.014": 0.15709751692,
			"0.015": 0.0,
			"0.016": 0.0,
			"0.017": 0.0,
			"0.018": 0.0,
			"0.019": 0.0,
			"0.02": 0.0,
			"0.021": 0.0,
			"0.022": 0.0,
			"0.023": 0.0,
			"0.024": 0.0,
			"0.025": 0.0
		}
	}
}
