{
	 "smiles": "N[C@H]1CC[C@H](CC1)C(O)=O", 
	 "Tm": 573.15, 
	 "num_atms": 23, 
	 "gaussian": { 
		 "optdone": 1, 
		 "sigma_profile": "yes", 
		 "theory": "DFT", 
		 "functional": "B3LYP", 
		 "basiset": "6-31G**", 
		 "properties": { 
			 "R2extent": 1785.9108, 
			 "electric_dipole_moment_norm": 2.49477184127, 
			 "electric_quadrupole_moment_norm": 12.8872869651, 
			 "total_energy": -479.806900437, 
			 "HOMO_LUMO_gap": 0.24995, 
			 "cosmo_polarized_energy": -11.48, 
			 "cosmo_cavitation_energy": 24.27, 
			 "cosmo_dispersion_energy": -17.99, 
			 "cosmo_repulsion_energy": 1.48, 
			 "cosmo_total_nonelectrostatic_energy": 7.76, 
			 "SMD_solvation_energy": 4.08 
		},
		"coords": [
			{
				"x": -1.8818778916,
				"y": 1.4637849199,
				"z": -2.3425629499,
				"element": "N" 
			},
			{
				"x": -1.2759016951,
				"y": 0.1290573079,
				"z": -2.2305046818,
				"element": "C" 
			},
			{
				"x": 0.254145239,
				"y": 0.2674143348,
				"z": -2.1276486225,
				"element": "C" 
			},
			{
				"x": 0.7031589439,
				"y": 0.9557012536,
				"z": -0.8308642319,
				"element": "C" 
			},
			{
				"x": 0.1450178903,
				"y": 0.229905903,
				"z": 0.4016541786,
				"element": "C" 
			},
			{
				"x": -1.3972930742,
				"y": 0.1120265757,
				"z": 0.3253114991,
				"element": "C" 
			},
			{
				"x": -1.8280877752,
				"y": -0.575696763,
				"z": -0.9778867399,
				"element": "C" 
			},
			{
				"x": 0.5674779225,
				"y": 0.914426472,
				"z": 1.6868392105,
				"element": "C" 
			},
			{
				"x": 0.2587768452,
				"y": 0.1670603596,
				"z": 2.7798761332,
				"element": "O" 
			},
			{
				"x": 1.1080915177,
				"y": 1.9951404483,
				"z": 1.7820469772,
				"element": "O" 
			},
			{
				"x": -2.8882871005,
				"y": 1.3797797023,
				"z": -2.4665086728,
				"element": "H" 
			},
			{
				"x": -1.527621379,
				"y": 1.9386736256,
				"z": -3.1696825692,
				"element": "H" 
			},
			{
				"x": -1.4993590259,
				"y": -0.5105117106,
				"z": -3.1037564284,
				"element": "H" 
			},
			{
				"x": 0.6340944931,
				"y": 0.8215173466,
				"z": -2.9960850614,
				"element": "H" 
			},
			{
				"x": 0.6945906941,
				"y": -0.7370921162,
				"z": -2.1890065149,
				"element": "H" 
			},
			{
				"x": 1.7966599847,
				"y": 0.9923022751,
				"z": -0.7802392243,
				"element": "H" 
			},
			{
				"x": 0.3518451192,
				"y": 1.9912157011,
				"z": -0.8176608465,
				"element": "H" 
			},
			{
				"x": 0.5524437791,
				"y": -0.7913944407,
				"z": 0.4457447772,
				"element": "H" 
			},
			{
				"x": -1.7705656383,
				"y": -0.4444956074,
				"z": 1.1905353494,
				"element": "H" 
			},
			{
				"x": -1.8311930673,
				"y": 1.1170911364,
				"z": 0.3627894875,
				"element": "H" 
			},
			{
				"x": -2.92404979,
				"y": -0.6205705747,
				"z": -1.0301005095,
				"element": "H" 
			},
			{
				"x": -1.4761576129,
				"y": -1.616103323,
				"z": -0.9812291831,
				"element": "H" 
			},
			{
				"x": 0.5457916212,
				"y": 0.6896671737,
				"z": 3.5474386233,
				"element": "H" 
			}
		],
		 "valence_orbital": [ 
			{
				"type": "occ",
				"energy": -0.31463,
				"method": "rhf"
			},
			{
				"type": "occ",
				"energy": -0.30823,
				"method": "rhf"
			},
			{
				"type": "occ",
				"energy": -0.29891,
				"method": "rhf"
			},
			{
				"type": "occ",
				"energy": -0.26378,
				"method": "rhf"
			},
			{
				"type": "occ",
				"energy": -0.23335,
				"method": "rhf"
			},
			{
				"type": "unocc",
				"energy": 0.0166,
				"method": "rhf"
			},
			{
				"type": "unocc",
				"energy": 0.06828,
				"method": "rhf"
			},
			{
				"type": "unocc",
				"energy": 0.08596,
				"method": "rhf"
			},
			{
				"type": "unocc",
				"energy": 0.11167,
				"method": "rhf"
			},
			{
				"type": "unocc",
				"energy": 0.1307,
				"method": "rhf"
			}
		],
		"cosmo_sigma_profile": { 
			"-0.025": 0.0,
			"-0.024": 0.0,
			"-0.023": 0.0,
			"-0.022": 0.0,
			"-0.021": 0.0,
			"-0.02": 0.0,
			"-0.019": 0.0,
			"-0.018": 0.295684014198,
			"-0.017": 0.753609816878,
			"-0.016": 0.945232823663,
			"-0.015": 0.763218539614,
			"-0.014": 1.07947389382,
			"-0.013": 0.966667467353,
			"-0.012": 0.26038243809,
			"-0.011": 0.478959491286,
			"-0.01": 1.02233808376,
			"-0.009": 2.91307076769,
			"-0.008": 3.03884345684,
			"-0.007": 3.69257534948,
			"-0.006": 3.98416442182,
			"-0.005": 5.37477751189,
			"-0.004": 8.9859208979,
			"-0.003": 18.2181465184,
			"-0.002": 22.7685066717,
			"-0.001": 25.2715189916,
			"0.0": 22.0412708503,
			"0.001": 14.6551200443,
			"0.002": 5.68961166239,
			"0.003": 4.15368706561,
			"0.004": 3.41545146077,
			"0.005": 3.82497149133,
			"0.006": 4.35362236482,
			"0.007": 3.93987542062,
			"0.008": 2.79604159478,
			"0.009": 3.69771268412,
			"0.01": 4.15213721838,
			"0.011": 3.7066843313,
			"0.012": 5.87950659495,
			"0.013": 1.71603800615,
			"0.014": 0.402127711141,
			"0.015": 0.473848603724,
			"0.016": 0.642884128922,
			"0.017": 0.144405675354,
			"0.018": 0.0,
			"0.019": 0.0,
			"0.02": 0.0,
			"0.021": 0.0,
			"0.022": 0.0,
			"0.023": 0.0,
			"0.024": 0.0,
			"0.025": 0.0
		}
	}
}
