{
	 "smiles": "OC1=CC(C=CC2=CC(O)=C(O)C=C2)=CC(O)=C1", 
	 "Tm": 498.15, 
	 "num_atms": 30, 
	 "gaussian": { 
		 "optdone": 1, 
		 "sigma_profile": "yes", 
		 "theory": "DFT", 
		 "functional": "B3LYP", 
		 "basiset": "6-31G**", 
		 "properties": { 
			 "R2extent": 6295.4021, 
			 "electric_dipole_moment_norm": 4.48360433691, 
			 "electric_quadrupole_moment_norm": 19.7051312754, 
			 "total_energy": -841.585920821, 
			 "HOMO_LUMO_gap": 0.15676, 
			 "cosmo_polarized_energy": -22.48, 
			 "cosmo_cavitation_energy": 34.88, 
			 "cosmo_dispersion_energy": -25.12, 
			 "cosmo_repulsion_energy": 1.95, 
			 "cosmo_total_nonelectrostatic_energy": 11.7, 
			 "SMD_solvation_energy": 6.97 
		},
		"coords": [
			{
				"x": 1.9647498591,
				"y": 5.2619293679,
				"z": -0.6946784928,
				"element": "O" 
			},
			{
				"x": 1.2200312467,
				"y": 4.2472801323,
				"z": -0.1604738854,
				"element": "C" 
			},
			{
				"x": 1.8247639967,
				"y": 2.9941226715,
				"z": -0.0578888915,
				"element": "C" 
			},
			{
				"x": 1.1104424917,
				"y": 1.9049341859,
				"z": 0.4680365593,
				"element": "C" 
			},
			{
				"x": 1.8165925271,
				"y": 0.6150203261,
				"z": 0.6006229292,
				"element": "C" 
			},
			{
				"x": 1.3707618136,
				"y": -0.6576209577,
				"z": 0.5423101069,
				"element": "C" 
			},
			{
				"x": 0.054246126,
				"y": -1.2193539453,
				"z": 0.1918879111,
				"element": "C" 
			},
			{
				"x": -0.3107525992,
				"y": -2.4585480296,
				"z": 0.7535434459,
				"element": "C" 
			},
			{
				"x": -1.5192101313,
				"y": -3.0670515277,
				"z": 0.4365860795,
				"element": "C" 
			},
			{
				"x": -1.855090072,
				"y": -4.2601354598,
				"z": 1.0050928577,
				"element": "O" 
			},
			{
				"x": -2.3854337277,
				"y": -2.4458816657,
				"z": -0.4790938657,
				"element": "C" 
			},
			{
				"x": -3.5533303412,
				"y": -3.1276307427,
				"z": -0.7352036493,
				"element": "O" 
			},
			{
				"x": -2.028907823,
				"y": -1.2341591622,
				"z": -1.0634957143,
				"element": "C" 
			},
			{
				"x": -0.8186803481,
				"y": -0.6240334352,
				"z": -0.7338576549,
				"element": "C" 
			},
			{
				"x": -0.2052915421,
				"y": 2.0974154487,
				"z": 0.9199017646,
				"element": "C" 
			},
			{
				"x": -0.7961011111,
				"y": 3.3564803916,
				"z": 0.8195398115,
				"element": "C" 
			},
			{
				"x": -2.0782679886,
				"y": 3.4848899335,
				"z": 1.2785384986,
				"element": "O" 
			},
			{
				"x": -0.0948722204,
				"y": 4.4392939251,
				"z": 0.2748317126,
				"element": "C" 
			},
			{
				"x": 1.4408082745,
				"y": 6.0730173767,
				"z": -0.6992852502,
				"element": "H" 
			},
			{
				"x": 2.8487558737,
				"y": 2.8783403267,
				"z": -0.3966395487,
				"element": "H" 
			},
			{
				"x": 2.882991456,
				"y": 0.7274306845,
				"z": 0.793079243,
				"element": "H" 
			},
			{
				"x": 2.1150684771,
				"y": -1.4191505446,
				"z": 0.7749390841,
				"element": "H" 
			},
			{
				"x": 0.3460286814,
				"y": -2.9614525521,
				"z": 1.456924481,
				"element": "H" 
			},
			{
				"x": -2.7220478826,
				"y": -4.5144000256,
				"z": 0.6556295193,
				"element": "H" 
			},
			{
				"x": -4.0873978762,
				"y": -2.6336158118,
				"z": -1.369053926,
				"element": "H" 
			},
			{
				"x": -2.6959026368,
				"y": -0.7679386013,
				"z": -1.7859159749,
				"element": "H" 
			},
			{
				"x": -0.5484691577,
				"y": 0.3121461717,
				"z": -1.2067299674,
				"element": "H" 
			},
			{
				"x": -0.7716485876,
				"y": 1.2873822299,
				"z": 1.3613354837,
				"element": "H" 
			},
			{
				"x": -2.3576490331,
				"y": 4.4047135299,
				"z": 1.1881459785,
				"element": "H" 
			},
			{
				"x": -0.5642877449,
				"y": 5.4193757591,
				"z": 0.1992713545,
				"element": "H" 
			}
		],
		 "valence_orbital": [ 
			{
				"type": "occ",
				"energy": -0.2709,
				"method": "rhf"
			},
			{
				"type": "occ",
				"energy": -0.23918,
				"method": "rhf"
			},
			{
				"type": "occ",
				"energy": -0.22217,
				"method": "rhf"
			},
			{
				"type": "occ",
				"energy": -0.20977,
				"method": "rhf"
			},
			{
				"type": "occ",
				"energy": -0.19251,
				"method": "rhf"
			},
			{
				"type": "unocc",
				"energy": -0.03575,
				"method": "rhf"
			},
			{
				"type": "unocc",
				"energy": 0.00787,
				"method": "rhf"
			},
			{
				"type": "unocc",
				"energy": 0.02178,
				"method": "rhf"
			},
			{
				"type": "unocc",
				"energy": 0.02823,
				"method": "rhf"
			},
			{
				"type": "unocc",
				"energy": 0.05426,
				"method": "rhf"
			}
		],
		"cosmo_sigma_profile": { 
			"-0.025": 0.0,
			"-0.024": 0.0,
			"-0.023": 0.0,
			"-0.022": 0.0,
			"-0.021": 0.0,
			"-0.02": 0.0,
			"-0.019": 0.221540328503,
			"-0.018": 1.89232064032,
			"-0.017": 3.00601309188,
			"-0.016": 3.68750696735,
			"-0.015": 3.30471133529,
			"-0.014": 3.0541198685,
			"-0.013": 2.60295392496,
			"-0.012": 2.45788912194,
			"-0.011": 4.31113028463,
			"-0.01": 4.8517361549,
			"-0.009": 4.79805456564,
			"-0.008": 3.46073266093,
			"-0.007": 4.37133664423,
			"-0.006": 5.89081988945,
			"-0.005": 12.6453812093,
			"-0.004": 15.4403043747,
			"-0.003": 12.2963136233,
			"-0.002": 11.4904817489,
			"-0.001": 11.7512564985,
			"0.0": 10.7334956747,
			"0.001": 13.535046591,
			"0.002": 19.5924007406,
			"0.003": 21.4386221801,
			"0.004": 31.6559003725,
			"0.005": 28.1510403241,
			"0.006": 11.8125666644,
			"0.007": 6.04334763253,
			"0.008": 5.38060979473,
			"0.009": 3.35117453149,
			"0.01": 5.1195030949,
			"0.011": 6.18359505598,
			"0.012": 2.88198485088,
			"0.013": 0.0,
			"0.014": 0.0,
			"0.015": 0.0,
			"0.016": 0.0,
			"0.017": 0.0,
			"0.018": 0.0,
			"0.019": 0.0,
			"0.02": 0.0,
			"0.021": 0.0,
			"0.022": 0.0,
			"0.023": 0.0,
			"0.024": 0.0,
			"0.025": 0.0
		}
	}
}
