{
	 "smiles": "OC1=NC=NC(O)=C1[N+]([O-])=O", 
	 "Tm": 573.15, 
	 "num_atms": 14, 
	 "gaussian": { 
		 "optdone": 1, 
		 "sigma_profile": "yes", 
		 "theory": "DFT", 
		 "functional": "B3LYP", 
		 "basiset": "6-31G**", 
		 "properties": { 
			 "R2extent": 2212.6804, 
			 "electric_dipole_moment_norm": 3.89811062567, 
			 "electric_quadrupole_moment_norm": 16.2596751391, 
			 "total_energy": -619.270836073, 
			 "HOMO_LUMO_gap": 0.19398, 
			 "cosmo_polarized_energy": -13.89, 
			 "cosmo_cavitation_energy": 20.65, 
			 "cosmo_dispersion_energy": -15.03, 
			 "cosmo_repulsion_energy": 1.22, 
			 "cosmo_total_nonelectrostatic_energy": 6.84, 
			 "SMD_solvation_energy": 4.78 
		},
		"coords": [
			{
				"x": 0.0006792967,
				"y": -0.6812441378,
				"z": -3.7683375311,
				"element": "O" 
			},
			{
				"x": 0.2785736554,
				"y": -0.4140627966,
				"z": -2.4893391211,
				"element": "C" 
			},
			{
				"x": 1.5512411612,
				"y": -0.458510161,
				"z": -2.0842343735,
				"element": "N" 
			},
			{
				"x": 1.7716128248,
				"y": -0.1834395787,
				"z": -0.798101814,
				"element": "C" 
			},
			{
				"x": 0.8593198549,
				"y": 0.1301027114,
				"z": 0.122651508,
				"element": "N" 
			},
			{
				"x": -0.4102482073,
				"y": 0.1719242301,
				"z": -0.2923192044,
				"element": "C" 
			},
			{
				"x": -1.3654300204,
				"y": 0.4809360934,
				"z": 0.5889272324,
				"element": "O" 
			},
			{
				"x": -0.7606154006,
				"y": -0.0974989875,
				"z": -1.6149486776,
				"element": "C" 
			},
			{
				"x": -2.1587111364,
				"y": -0.0501633063,
				"z": -2.0659260471,
				"element": "N" 
			},
			{
				"x": -2.5684462915,
				"y": 1.027608042,
				"z": -2.4819577625,
				"element": "O" 
			},
			{
				"x": -2.7993554366,
				"y": -1.0923485394,
				"z": -1.9885689354,
				"element": "O" 
			},
			{
				"x": 0.8454222388,
				"y": -0.8752407238,
				"z": -4.2064952319,
				"element": "H" 
			},
			{
				"x": 2.8058236932,
				"y": -0.2185223488,
				"z": -0.4644943463,
				"element": "H" 
			},
			{
				"x": -0.9253662324,
				"y": 0.6312595029,
				"z": 1.4415443042,
				"element": "H" 
			}
		],
		 "valence_orbital": [ 
			{
				"type": "occ",
				"energy": -0.31842,
				"method": "rhf"
			},
			{
				"type": "occ",
				"energy": -0.30684,
				"method": "rhf"
			},
			{
				"type": "occ",
				"energy": -0.30353,
				"method": "rhf"
			},
			{
				"type": "occ",
				"energy": -0.29905,
				"method": "rhf"
			},
			{
				"type": "occ",
				"energy": -0.27208,
				"method": "rhf"
			},
			{
				"type": "unocc",
				"energy": -0.0781,
				"method": "rhf"
			},
			{
				"type": "unocc",
				"energy": -0.05056,
				"method": "rhf"
			},
			{
				"type": "unocc",
				"energy": -0.0369,
				"method": "rhf"
			},
			{
				"type": "unocc",
				"energy": 0.04875,
				"method": "rhf"
			},
			{
				"type": "unocc",
				"energy": 0.06984,
				"method": "rhf"
			}
		],
		"cosmo_sigma_profile": { 
			"-0.025": 0.0,
			"-0.024": 0.0,
			"-0.023": 0.0,
			"-0.022": 0.0,
			"-0.021": 0.0,
			"-0.02": 0.176051285585,
			"-0.019": 1.32746059294,
			"-0.018": 1.95279076037,
			"-0.017": 1.73267023064,
			"-0.016": 1.23657771118,
			"-0.015": 1.22392927635,
			"-0.014": 1.46833218883,
			"-0.013": 1.74009696696,
			"-0.012": 1.77343291076,
			"-0.011": 0.811786420589,
			"-0.01": 0.662475521188,
			"-0.009": 3.18517603631,
			"-0.008": 5.16873196275,
			"-0.007": 2.86515637019,
			"-0.006": 3.31071114606,
			"-0.005": 4.67542909285,
			"-0.004": 8.06309189792,
			"-0.003": 10.6505894559,
			"-0.002": 9.24599944189,
			"-0.001": 9.43727422125,
			"0.0": 11.2751867429,
			"0.001": 9.14370571501,
			"0.002": 8.57282745747,
			"0.003": 6.92228008404,
			"0.004": 8.34237886272,
			"0.005": 9.70783286437,
			"0.006": 13.88741985,
			"0.007": 13.3135509328,
			"0.008": 6.92156679635,
			"0.009": 3.6937470491,
			"0.01": 1.326325917,
			"0.011": 1.49681955138,
			"0.012": 0.678229175396,
			"0.013": 0.0,
			"0.014": 0.0,
			"0.015": 0.0,
			"0.016": 0.0,
			"0.017": 0.0,
			"0.018": 0.0,
			"0.019": 0.0,
			"0.02": 0.0,
			"0.021": 0.0,
			"0.022": 0.0,
			"0.023": 0.0,
			"0.024": 0.0,
			"0.025": 0.0
		}
	}
}
