{
	 "smiles": "OC(C(=O)C1=CC=C2CCC3=C2C1=CC=C3)C1=CC=CC=C1", 
	 "Tm": 411.15, 
	 "num_atms": 38, 
	 "gaussian": { 
		 "optdone": 1, 
		 "sigma_profile": "yes", 
		 "theory": "DFT", 
		 "functional": "B3LYP", 
		 "basiset": "6-31G**", 
		 "properties": { 
			 "R2extent": 7284.357, 
			 "electric_dipole_moment_norm": 5.26355600236, 
			 "electric_quadrupole_moment_norm": 11.9142117238, 
			 "total_energy": -922.229869863, 
			 "HOMO_LUMO_gap": 0.14496, 
			 "cosmo_polarized_energy": -12.66, 
			 "cosmo_cavitation_energy": 40.27, 
			 "cosmo_dispersion_energy": -28.95, 
			 "cosmo_repulsion_energy": 2.19, 
			 "cosmo_total_nonelectrostatic_energy": 13.5, 
			 "SMD_solvation_energy": 5.97 
		},
		"coords": [
			{
				"x": 0.8655291583,
				"y": -3.9316928613,
				"z": 1.532676421,
				"element": "O" 
			},
			{
				"x": 0.4065822998,
				"y": -3.0246571301,
				"z": 0.5591136439,
				"element": "C" 
			},
			{
				"x": 0.2732331199,
				"y": -1.6240952284,
				"z": 1.2258336944,
				"element": "C" 
			},
			{
				"x": 0.828842927,
				"y": -1.5059471538,
				"z": 2.3187898217,
				"element": "O" 
			},
			{
				"x": -0.4617098931,
				"y": -0.5161533608,
				"z": 0.5787732122,
				"element": "C" 
			},
			{
				"x": -1.1256202649,
				"y": -0.7447159442,
				"z": -0.6292015321,
				"element": "C" 
			},
			{
				"x": -1.8682699723,
				"y": 0.2398924886,
				"z": -1.3164670551,
				"element": "C" 
			},
			{
				"x": -1.9470823865,
				"y": 1.5030871214,
				"z": -0.7705099132,
				"element": "C" 
			},
			{
				"x": -2.6470024485,
				"y": 2.7612870309,
				"z": -1.2424077484,
				"element": "C" 
			},
			{
				"x": -2.3236088608,
				"y": 3.8340443564,
				"z": -0.1499792536,
				"element": "C" 
			},
			{
				"x": -1.4650927656,
				"y": 3.1032290515,
				"z": 0.8661199759,
				"element": "C" 
			},
			{
				"x": -1.2850820502,
				"y": 1.7637672181,
				"z": 0.4495868867,
				"element": "C" 
			},
			{
				"x": -0.5318602117,
				"y": 0.8020384552,
				"z": 1.1700411908,
				"element": "C" 
			},
			{
				"x": 0.0575741282,
				"y": 1.2649949243,
				"z": 2.3788250672,
				"element": "C" 
			},
			{
				"x": -0.1207529962,
				"y": 2.5788915631,
				"z": 2.7830305535,
				"element": "C" 
			},
			{
				"x": -0.8802947989,
				"y": 3.5188695884,
				"z": 2.0411197916,
				"element": "C" 
			},
			{
				"x": 1.3598017045,
				"y": -2.9712866455,
				"z": -0.6330340359,
				"element": "C" 
			},
			{
				"x": 2.6604133686,
				"y": -2.4759261296,
				"z": -0.4685057742,
				"element": "C" 
			},
			{
				"x": 3.551525421,
				"y": -2.458736373,
				"z": -1.539777475,
				"element": "C" 
			},
			{
				"x": 3.1569028366,
				"y": -2.9427062889,
				"z": -2.7903367894,
				"element": "C" 
			},
			{
				"x": 1.8678501555,
				"y": -3.4480646467,
				"z": -2.9601077707,
				"element": "C" 
			},
			{
				"x": 0.9766684229,
				"y": -3.463011659,
				"z": -1.8845599748,
				"element": "C" 
			},
			{
				"x": 1.147038125,
				"y": -3.3662613242,
				"z": 2.2774188747,
				"element": "H" 
			},
			{
				"x": -0.580537154,
				"y": -3.3546874374,
				"z": 0.2085015184,
				"element": "H" 
			},
			{
				"x": -1.0667630154,
				"y": -1.7266644838,
				"z": -1.0816911038,
				"element": "H" 
			},
			{
				"x": -2.3571214626,
				"y": -0.0126575451,
				"z": -2.252808407,
				"element": "H" 
			},
			{
				"x": -2.2865209957,
				"y": 3.0667640985,
				"z": -2.2312866982,
				"element": "H" 
			},
			{
				"x": -3.7260425219,
				"y": 2.5982913019,
				"z": -1.3443052328,
				"element": "H" 
			},
			{
				"x": -3.2377513617,
				"y": 4.2289044768,
				"z": 0.3075648596,
				"element": "H" 
			},
			{
				"x": -1.7944604209,
				"y": 4.6935759905,
				"z": -0.5768000331,
				"element": "H" 
			},
			{
				"x": 0.6424601108,
				"y": 0.5843376965,
				"z": 2.9800525212,
				"element": "H" 
			},
			{
				"x": 0.3424499243,
				"y": 2.902390991,
				"z": 3.711449691,
				"element": "H" 
			},
			{
				"x": -0.9881540935,
				"y": 4.5371885231,
				"z": 2.4047050687,
				"element": "H" 
			},
			{
				"x": 2.9728747269,
				"y": -2.1074204932,
				"z": 0.5046377387,
				"element": "H" 
			},
			{
				"x": 4.5558159526,
				"y": -2.0686338874,
				"z": -1.399967389,
				"element": "H" 
			},
			{
				"x": 3.8526263096,
				"y": -2.9302087275,
				"z": -3.624455416,
				"element": "H" 
			},
			{
				"x": 1.5569847653,
				"y": -3.838059659,
				"z": -3.9253215046,
				"element": "H" 
			},
			{
				"x": -0.0220457824,
				"y": -3.8738678973,
				"z": -2.0167174244,
				"element": "H" 
			}
		],
		 "valence_orbital": [ 
			{
				"type": "occ",
				"energy": -0.25697,
				"method": "rhf"
			},
			{
				"type": "occ",
				"energy": -0.25225,
				"method": "rhf"
			},
			{
				"type": "occ",
				"energy": -0.24752,
				"method": "rhf"
			},
			{
				"type": "occ",
				"energy": -0.23673,
				"method": "rhf"
			},
			{
				"type": "occ",
				"energy": -0.2177,
				"method": "rhf"
			},
			{
				"type": "unocc",
				"energy": -0.07274,
				"method": "rhf"
			},
			{
				"type": "unocc",
				"energy": -0.01929,
				"method": "rhf"
			},
			{
				"type": "unocc",
				"energy": -0.01179,
				"method": "rhf"
			},
			{
				"type": "unocc",
				"energy": -0.00266,
				"method": "rhf"
			},
			{
				"type": "unocc",
				"energy": 0.00377,
				"method": "rhf"
			}
		],
		"cosmo_sigma_profile": { 
			"-0.025": 0.0,
			"-0.024": 0.0,
			"-0.023": 0.0,
			"-0.022": 0.0,
			"-0.021": 0.0,
			"-0.02": 0.0,
			"-0.019": 0.0,
			"-0.018": 0.0,
			"-0.017": 0.0,
			"-0.016": 0.0,
			"-0.015": 0.0,
			"-0.014": 0.0,
			"-0.013": 0.0,
			"-0.012": 0.0,
			"-0.011": 0.0,
			"-0.01": 0.132220478009,
			"-0.009": 1.08717103838,
			"-0.008": 2.00093176634,
			"-0.007": 4.09760811063,
			"-0.006": 14.3318832098,
			"-0.005": 25.3499416421,
			"-0.004": 33.3045423981,
			"-0.003": 31.7904204406,
			"-0.002": 28.7174523827,
			"-0.001": 23.1933779438,
			"0.0": 17.9203337549,
			"0.001": 18.987770454,
			"0.002": 24.8819919715,
			"0.003": 28.6844762691,
			"0.004": 21.4618463913,
			"0.005": 18.5647018516,
			"0.006": 7.4951650898,
			"0.007": 3.73916892216,
			"0.008": 3.11460713993,
			"0.009": 2.85662433451,
			"0.01": 2.70226619606,
			"0.011": 1.66149045402,
			"0.012": 1.55772942723,
			"0.013": 1.39662737232,
			"0.014": 2.55509704361,
			"0.015": 0.273417670422,
			"0.016": 0.0,
			"0.017": 0.0,
			"0.018": 0.0,
			"0.019": 0.0,
			"0.02": 0.0,
			"0.021": 0.0,
			"0.022": 0.0,
			"0.023": 0.0,
			"0.024": 0.0,
			"0.025": 0.0
		}
	}
}
