{
	 "smiles": "CC1=CC=C(O1)C=C1C(=O)OC(C)(C)OC1=O", 
	 "Tm": 366.15, 
	 "num_atms": 29, 
	 "gaussian": { 
		 "optdone": 1, 
		 "sigma_profile": "yes", 
		 "theory": "DFT", 
		 "functional": "B3LYP", 
		 "basiset": "6-31G**", 
		 "properties": { 
			 "R2extent": 4879.386, 
			 "electric_dipole_moment_norm": 4.38707347556, 
			 "electric_quadrupole_moment_norm": 26.7809040915, 
			 "total_energy": -840.626485597, 
			 "HOMO_LUMO_gap": 0.14035, 
			 "cosmo_polarized_energy": -17.39, 
			 "cosmo_cavitation_energy": 33.69, 
			 "cosmo_dispersion_energy": -23.92, 
			 "cosmo_repulsion_energy": 1.87, 
			 "cosmo_total_nonelectrostatic_energy": 11.65, 
			 "SMD_solvation_energy": 8.43 
		},
		"coords": [
			{
				"x": 0.3469778325,
				"y": -4.5187165687,
				"z": 1.3083240847,
				"element": "C" 
			},
			{
				"x": 0.0258521663,
				"y": -3.8727165738,
				"z": 0.0088690467,
				"element": "C" 
			},
			{
				"x": -0.2951013483,
				"y": -4.3699792139,
				"z": -1.2350112317,
				"element": "C" 
			},
			{
				"x": -0.4898458902,
				"y": -3.2469704849,
				"z": -2.0698021295,
				"element": "C" 
			},
			{
				"x": -0.2878935762,
				"y": -2.1191569889,
				"z": -1.2879175579,
				"element": "C" 
			},
			{
				"x": 0.0329359726,
				"y": -2.5215834605,
				"z": -0.0152072426,
				"element": "O" 
			},
			{
				"x": -0.3572183385,
				"y": -0.7632352549,
				"z": -1.6973921484,
				"element": "C" 
			},
			{
				"x": -0.2138402618,
				"y": 0.4449382817,
				"z": -1.0692875213,
				"element": "C" 
			},
			{
				"x": -0.0958349067,
				"y": 0.6568828174,
				"z": 0.3906515978,
				"element": "C" 
			},
			{
				"x": -0.3545026837,
				"y": -0.150799371,
				"z": 1.25088828,
				"element": "O" 
			},
			{
				"x": 0.261770486,
				"y": 1.9260769841,
				"z": 0.7722353429,
				"element": "O" 
			},
			{
				"x": 0.808150976,
				"y": 2.835485465,
				"z": -0.1880959564,
				"element": "C" 
			},
			{
				"x": 0.6408275708,
				"y": 4.224181736,
				"z": 0.4047054834,
				"element": "C" 
			},
			{
				"x": 2.264577006,
				"y": 2.4796398191,
				"z": -0.4883862861,
				"element": "C" 
			},
			{
				"x": 0.0398418409,
				"y": 2.8293842849,
				"z": -1.4007665701,
				"element": "O" 
			},
			{
				"x": -0.307155729,
				"y": 1.6345893127,
				"z": -1.9596817084,
				"element": "C" 
			},
			{
				"x": -0.6886133508,
				"y": 1.6103397066,
				"z": -3.109573214,
				"element": "O" 
			},
			{
				"x": 0.3029044269,
				"y": -5.6052196658,
				"z": 1.2107751584,
				"element": "H" 
			},
			{
				"x": -0.3600613268,
				"y": -4.2040622444,
				"z": 2.083391499,
				"element": "H" 
			},
			{
				"x": 1.3495162129,
				"y": -4.2367818299,
				"z": 1.6485474861,
				"element": "H" 
			},
			{
				"x": -0.3765360213,
				"y": -5.4138166038,
				"z": -1.500990405,
				"element": "H" 
			},
			{
				"x": -0.750005224,
				"y": -3.2419904576,
				"z": -3.1192022019,
				"element": "H" 
			},
			{
				"x": -0.5460010822,
				"y": -0.668369616,
				"z": -2.7655405339,
				"element": "H" 
			},
			{
				"x": -0.4179381072,
				"y": 4.4143292668,
				"z": 0.5918346363,
				"element": "H" 
			},
			{
				"x": 1.0214967214,
				"y": 4.975332832,
				"z": -0.2910828223,
				"element": "H" 
			},
			{
				"x": 1.1879819918,
				"y": 4.2942670694,
				"z": 1.3475197165,
				"element": "H" 
			},
			{
				"x": 2.6810418009,
				"y": 3.1923031783,
				"z": -1.2044710817,
				"element": "H" 
			},
			{
				"x": 2.3434960407,
				"y": 1.4748398738,
				"z": -0.9119885617,
				"element": "H" 
			},
			{
				"x": 2.8506768012,
				"y": 2.5143077065,
				"z": 0.4332548412,
				"element": "H" 
			}
		],
		 "valence_orbital": [ 
			{
				"type": "occ",
				"energy": -0.29834,
				"method": "rhf"
			},
			{
				"type": "occ",
				"energy": -0.29285,
				"method": "rhf"
			},
			{
				"type": "occ",
				"energy": -0.27917,
				"method": "rhf"
			},
			{
				"type": "occ",
				"energy": -0.26063,
				"method": "rhf"
			},
			{
				"type": "occ",
				"energy": -0.2283,
				"method": "rhf"
			},
			{
				"type": "unocc",
				"energy": -0.08795,
				"method": "rhf"
			},
			{
				"type": "unocc",
				"energy": 0.01018,
				"method": "rhf"
			},
			{
				"type": "unocc",
				"energy": 0.01922,
				"method": "rhf"
			},
			{
				"type": "unocc",
				"energy": 0.06103,
				"method": "rhf"
			},
			{
				"type": "unocc",
				"energy": 0.08677,
				"method": "rhf"
			}
		],
		"cosmo_sigma_profile": { 
			"-0.025": 0.0,
			"-0.024": 0.0,
			"-0.023": 0.0,
			"-0.022": 0.0,
			"-0.021": 0.0,
			"-0.02": 0.0,
			"-0.019": 0.0,
			"-0.018": 0.0,
			"-0.017": 0.0,
			"-0.016": 0.0,
			"-0.015": 0.0,
			"-0.014": 0.0,
			"-0.013": 0.0,
			"-0.012": 0.0,
			"-0.011": 0.0,
			"-0.01": 0.0873189776839,
			"-0.009": 3.23395520094,
			"-0.008": 4.47377064809,
			"-0.007": 5.47636192231,
			"-0.006": 16.0629976486,
			"-0.005": 26.0032397721,
			"-0.004": 23.6529135895,
			"-0.003": 25.2144703488,
			"-0.002": 28.7054682246,
			"-0.001": 26.5138614673,
			"0.0": 18.1709670864,
			"0.001": 13.6203351898,
			"0.002": 10.7183952944,
			"0.003": 7.94639032144,
			"0.004": 4.54945849507,
			"0.005": 4.82145095953,
			"0.006": 4.44037286357,
			"0.007": 4.54807792171,
			"0.008": 4.81816016148,
			"0.009": 5.41582287294,
			"0.01": 7.05461100603,
			"0.011": 8.30735960557,
			"0.012": 10.6451077966,
			"0.013": 3.63443593052,
			"0.014": 0.109954002961,
			"0.015": 0.0,
			"0.016": 0.0,
			"0.017": 0.0,
			"0.018": 0.0,
			"0.019": 0.0,
			"0.02": 0.0,
			"0.021": 0.0,
			"0.022": 0.0,
			"0.023": 0.0,
			"0.024": 0.0,
			"0.025": 0.0
		}
	}
}
