{
	 "smiles": "BrC1=CC2=NON=C2C=C1", 
	 "Tm": 346.15, 
	 "num_atms": 13, 
	 "gaussian": { 
		 "optdone": 1, 
		 "sigma_profile": "yes", 
		 "theory": "DFT", 
		 "functional": "B3LYP", 
		 "basiset": "6-31G**", 
		 "properties": { 
			 "R2extent": 2909.1036, 
			 "electric_dipole_moment_norm": 2.91447061402, 
			 "electric_quadrupole_moment_norm": 8.38874089181, 
			 "total_energy": -2986.47433059, 
			 "HOMO_LUMO_gap": 0.15738, 
			 "cosmo_polarized_energy": -6.81, 
			 "cosmo_cavitation_energy": 20.48, 
			 "cosmo_dispersion_energy": -15.96, 
			 "cosmo_repulsion_energy": 1.27, 
			 "cosmo_total_nonelectrostatic_energy": 5.79, 
			 "SMD_solvation_energy": 1.63 
		},
		"coords": [
			{
				"x": 1.6027921386,
				"y": 2.23605387,
				"z": 1.8526782219,
				"element": "Br" 
			},
			{
				"x": 1.3937085591,
				"y": 0.6458205326,
				"z": 0.8235461366,
				"element": "C" 
			},
			{
				"x": 1.1984985463,
				"y": 0.7348844532,
				"z": -0.5264019916,
				"element": "C" 
			},
			{
				"x": 1.0517233027,
				"y": -0.5025598061,
				"z": -1.2189188094,
				"element": "C" 
			},
			{
				"x": 0.8539013089,
				"y": -0.7378863377,
				"z": -2.5057159158,
				"element": "N" 
			},
			{
				"x": 0.7912619415,
				"y": -2.1019058863,
				"z": -2.5981813187,
				"element": "O" 
			},
			{
				"x": 0.9441087451,
				"y": -2.7356029542,
				"z": -1.3976522074,
				"element": "N" 
			},
			{
				"x": 1.1082638726,
				"y": -1.7572251184,
				"z": -0.5237742905,
				"element": "C" 
			},
			{
				"x": 1.3139487353,
				"y": -1.8019998614,
				"z": 0.8868292726,
				"element": "C" 
			},
			{
				"x": 1.4526853264,
				"y": -0.6066901992,
				"z": 1.5348089348,
				"element": "C" 
			},
			{
				"x": 1.156015257,
				"y": 1.6816414608,
				"z": -1.04929882,
				"element": "H" 
			},
			{
				"x": 1.356798101,
				"y": -2.7485201622,
				"z": 1.4130824169,
				"element": "H" 
			},
			{
				"x": 1.6111941655,
				"y": -0.5781099911,
				"z": 2.6064983706,
				"element": "H" 
			}
		],
		 "valence_orbital": [ 
			{
				"type": "occ",
				"energy": -0.33589,
				"method": "rhf"
			},
			{
				"type": "occ",
				"energy": -0.32829,
				"method": "rhf"
			},
			{
				"type": "occ",
				"energy": -0.30798,
				"method": "rhf"
			},
			{
				"type": "occ",
				"energy": -0.2875,
				"method": "rhf"
			},
			{
				"type": "occ",
				"energy": -0.25768,
				"method": "rhf"
			},
			{
				"type": "unocc",
				"energy": -0.1003,
				"method": "rhf"
			},
			{
				"type": "unocc",
				"energy": -0.01438,
				"method": "rhf"
			},
			{
				"type": "unocc",
				"energy": -0.01196,
				"method": "rhf"
			},
			{
				"type": "unocc",
				"energy": -0.00664,
				"method": "rhf"
			},
			{
				"type": "unocc",
				"energy": 0.08609,
				"method": "rhf"
			}
		],
		"cosmo_sigma_profile": { 
			"-0.025": 0.0,
			"-0.024": 0.0,
			"-0.023": 0.0,
			"-0.022": 0.0,
			"-0.021": 0.0,
			"-0.02": 0.0,
			"-0.019": 0.0,
			"-0.018": 0.0,
			"-0.017": 0.0,
			"-0.016": 0.0,
			"-0.015": 0.0,
			"-0.014": 0.0,
			"-0.013": 0.0,
			"-0.012": 0.0,
			"-0.011": 0.0,
			"-0.01": 0.347204160504,
			"-0.009": 4.17589409413,
			"-0.008": 5.64024213554,
			"-0.007": 5.94253008971,
			"-0.006": 4.29823404319,
			"-0.005": 6.96963982377,
			"-0.004": 8.56832256917,
			"-0.003": 11.4978561438,
			"-0.002": 14.6888974095,
			"-0.001": 18.8427302297,
			"0.0": 16.6982860113,
			"0.001": 11.5389466877,
			"0.002": 10.3774129715,
			"0.003": 13.6558043196,
			"0.004": 10.4207590509,
			"0.005": 8.48365866166,
			"0.006": 4.75678768276,
			"0.007": 2.26261572768,
			"0.008": 2.93527247527,
			"0.009": 2.56276782359,
			"0.01": 2.32709854269,
			"0.011": 2.23153121919,
			"0.012": 0.499479640009,
			"0.013": 0.0,
			"0.014": 0.0,
			"0.015": 0.0,
			"0.016": 0.0,
			"0.017": 0.0,
			"0.018": 0.0,
			"0.019": 0.0,
			"0.02": 0.0,
			"0.021": 0.0,
			"0.022": 0.0,
			"0.023": 0.0,
			"0.024": 0.0,
			"0.025": 0.0
		}
	}
}
