{
	 "smiles": "OC(=O)C1(CCCCC1)C1=CCCCC1", 
	 "Tm": 352.15, 
	 "num_atms": 35, 
	 "gaussian": { 
		 "optdone": 1, 
		 "sigma_profile": "yes", 
		 "theory": "DFT", 
		 "functional": "B3LYP", 
		 "basiset": "6-31G**", 
		 "properties": { 
			 "R2extent": 3639.0869, 
			 "electric_dipole_moment_norm": 1.43191112154, 
			 "electric_quadrupole_moment_norm": 7.1244371125, 
			 "total_energy": -657.907997606, 
			 "HOMO_LUMO_gap": 0.22751, 
			 "cosmo_polarized_energy": -7.82, 
			 "cosmo_cavitation_energy": 33.0, 
			 "cosmo_dispersion_energy": -23.84, 
			 "cosmo_repulsion_energy": 1.89, 
			 "cosmo_total_nonelectrostatic_energy": 11.04, 
			 "SMD_solvation_energy": 5.3 
		},
		"coords": [
			{
				"x": -0.0732244856,
				"y": -0.4440615312,
				"z": 3.1511732392,
				"element": "O" 
			},
			{
				"x": 1.0585726861,
				"y": -0.3293108258,
				"z": 2.4138656079,
				"element": "C" 
			},
			{
				"x": 1.982950434,
				"y": -1.1057755571,
				"z": 2.5446238652,
				"element": "O" 
			},
			{
				"x": 1.0101983284,
				"y": 0.822048498,
				"z": 1.399424408,
				"element": "C" 
			},
			{
				"x": 2.4573698097,
				"y": 1.3621804002,
				"z": 1.2328836517,
				"element": "C" 
			},
			{
				"x": 2.5212222339,
				"y": 2.5733686081,
				"z": 0.2928868471,
				"element": "C" 
			},
			{
				"x": 1.6258674739,
				"y": 3.71460704,
				"z": 0.7962618363,
				"element": "C" 
			},
			{
				"x": 0.1861280132,
				"y": 3.229899228,
				"z": 1.0185578563,
				"element": "C" 
			},
			{
				"x": 0.1342208803,
				"y": 1.9899669128,
				"z": 1.9264902163,
				"element": "C" 
			},
			{
				"x": 0.4617162774,
				"y": 0.1517647236,
				"z": 0.1088806012,
				"element": "C" 
			},
			{
				"x": -0.8365923993,
				"y": 0.2191521406,
				"z": -0.2268982429,
				"element": "C" 
			},
			{
				"x": -1.4709465215,
				"y": -0.5200887972,
				"z": -1.3806252439,
				"element": "C" 
			},
			{
				"x": -0.5866158333,
				"y": -1.6588238604,
				"z": -1.9009323994,
				"element": "C" 
			},
			{
				"x": 0.8557322427,
				"y": -1.1688854326,
				"z": -2.0462373731,
				"element": "C" 
			},
			{
				"x": 1.4293112327,
				"y": -0.6987018737,
				"z": -0.7000684383,
				"element": "C" 
			},
			{
				"x": 0.0605091829,
				"y": -1.2252958553,
				"z": 3.7139619734,
				"element": "H" 
			},
			{
				"x": 3.1282050745,
				"y": 0.5648308339,
				"z": 0.9091761869,
				"element": "H" 
			},
			{
				"x": 2.8148572296,
				"y": 1.6632794607,
				"z": 2.2263092428,
				"element": "H" 
			},
			{
				"x": 3.5597259,
				"y": 2.9141023814,
				"z": 0.2046081137,
				"element": "H" 
			},
			{
				"x": 2.2022028786,
				"y": 2.2786932975,
				"z": -0.716071194,
				"element": "H" 
			},
			{
				"x": 2.0311891361,
				"y": 4.0961993116,
				"z": 1.7443886302,
				"element": "H" 
			},
			{
				"x": 1.6399056036,
				"y": 4.5536972246,
				"z": 0.090458782,
				"element": "H" 
			},
			{
				"x": -0.2699831928,
				"y": 2.9949182751,
				"z": 0.049722712,
				"element": "H" 
			},
			{
				"x": -0.418590004,
				"y": 4.028666948,
				"z": 1.4647280497,
				"element": "H" 
			},
			{
				"x": -0.8964451127,
				"y": 1.666645354,
				"z": 2.0862305882,
				"element": "H" 
			},
			{
				"x": 0.5135980035,
				"y": 2.262253501,
				"z": 2.9200599514,
				"element": "H" 
			},
			{
				"x": -1.5156098561,
				"y": 0.8270372676,
				"z": 0.3641116668,
				"element": "H" 
			},
			{
				"x": -1.6895859183,
				"y": 0.1886555576,
				"z": -2.1947467295,
				"element": "H" 
			},
			{
				"x": -2.4482844693,
				"y": -0.9066338064,
				"z": -1.0627357344,
				"element": "H" 
			},
			{
				"x": -0.616752733,
				"y": -2.4967237544,
				"z": -1.1917786517,
				"element": "H" 
			},
			{
				"x": -0.9706476265,
				"y": -2.0362731695,
				"z": -2.8555228329,
				"element": "H" 
			},
			{
				"x": 1.4969765369,
				"y": -1.9539107198,
				"z": -2.4630037091,
				"element": "H" 
			},
			{
				"x": 0.8775294077,
				"y": -0.3346783227,
				"z": -2.7607404212,
				"element": "H" 
			},
			{
				"x": 1.7378578917,
				"y": -1.5613164273,
				"z": -0.0929627495,
				"element": "H" 
			},
			{
				"x": 2.3512316951,
				"y": -0.1392870309,
				"z": -0.8906803065,
				"element": "H" 
			}
		],
		 "valence_orbital": [ 
			{
				"type": "occ",
				"energy": -0.30945,
				"method": "rhf"
			},
			{
				"type": "occ",
				"energy": -0.29954,
				"method": "rhf"
			},
			{
				"type": "occ",
				"energy": -0.28893,
				"method": "rhf"
			},
			{
				"type": "occ",
				"energy": -0.27059,
				"method": "rhf"
			},
			{
				"type": "occ",
				"energy": -0.23036,
				"method": "rhf"
			},
			{
				"type": "unocc",
				"energy": -0.00285,
				"method": "rhf"
			},
			{
				"type": "unocc",
				"energy": 0.04593,
				"method": "rhf"
			},
			{
				"type": "unocc",
				"energy": 0.07825,
				"method": "rhf"
			},
			{
				"type": "unocc",
				"energy": 0.08611,
				"method": "rhf"
			},
			{
				"type": "unocc",
				"energy": 0.10137,
				"method": "rhf"
			}
		],
		"cosmo_sigma_profile": { 
			"-0.025": 0.0,
			"-0.024": 0.0,
			"-0.023": 0.0,
			"-0.022": 0.0,
			"-0.021": 0.0,
			"-0.02": 0.0,
			"-0.019": 0.0,
			"-0.018": 0.297105870669,
			"-0.017": 1.02965135478,
			"-0.016": 0.892919345147,
			"-0.015": 0.733691008879,
			"-0.014": 0.785215168745,
			"-0.013": 0.620931009614,
			"-0.012": 0.593746512068,
			"-0.011": 0.705084677884,
			"-0.01": 1.03854876152,
			"-0.009": 0.68527632622,
			"-0.008": 0.263638540266,
			"-0.007": 0.852709972469,
			"-0.006": 0.94349984493,
			"-0.005": 1.9745708126,
			"-0.004": 4.31182613769,
			"-0.003": 18.7001460418,
			"-0.002": 39.5853327364,
			"-0.001": 47.8244764729,
			"0.0": 50.8123520775,
			"0.001": 32.4564036719,
			"0.002": 10.2762016732,
			"0.003": 6.29317629552,
			"0.004": 4.62238397806,
			"0.005": 4.72376944954,
			"0.006": 4.2155336499,
			"0.007": 3.927112244,
			"0.008": 3.54491386929,
			"0.009": 1.89190158273,
			"0.01": 1.24587506287,
			"0.011": 2.8354792929,
			"0.012": 4.64327759334,
			"0.013": 1.00076773363,
			"0.014": 0.0,
			"0.015": 0.0,
			"0.016": 0.0,
			"0.017": 0.0,
			"0.018": 0.0,
			"0.019": 0.0,
			"0.02": 0.0,
			"0.021": 0.0,
			"0.022": 0.0,
			"0.023": 0.0,
			"0.024": 0.0,
			"0.025": 0.0
		}
	}
}
