{
	 "smiles": "CC(CC(O)=O)C1=C(C)ON=C1C", 
	 "Tm": 369.15, 
	 "num_atms": 26, 
	 "gaussian": { 
		 "optdone": 1, 
		 "sigma_profile": "yes", 
		 "theory": "DFT", 
		 "functional": "B3LYP", 
		 "basiset": "6-31G**", 
		 "properties": { 
			 "R2extent": 2525.3018, 
			 "electric_dipole_moment_norm": 3.78926602655, 
			 "electric_quadrupole_moment_norm": 10.7523399886, 
			 "total_energy": -631.200619304, 
			 "HOMO_LUMO_gap": 0.23857, 
			 "cosmo_polarized_energy": -14.28, 
			 "cosmo_cavitation_energy": 29.31, 
			 "cosmo_dispersion_energy": -19.94, 
			 "cosmo_repulsion_energy": 1.59, 
			 "cosmo_total_nonelectrostatic_energy": 10.96, 
			 "SMD_solvation_energy": 6.19 
		},
		"coords": [
			{
				"x": -0.2194611401,
				"y": -1.9930318977,
				"z": -0.2832010714,
				"element": "C" 
			},
			{
				"x": 0.0806434403,
				"y": -0.6277005704,
				"z": 0.3665786348,
				"element": "C" 
			},
			{
				"x": -1.1385895292,
				"y": -0.1552284232,
				"z": 1.196711258,
				"element": "C" 
			},
			{
				"x": -0.9435716565,
				"y": 1.2038933342,
				"z": 1.8299743482,
				"element": "C" 
			},
			{
				"x": 0.1149087375,
				"y": 1.2201878932,
				"z": 2.6763945902,
				"element": "O" 
			},
			{
				"x": -1.629557162,
				"y": 2.1833679344,
				"z": 1.6299242931,
				"element": "O" 
			},
			{
				"x": 0.5461144021,
				"y": 0.3913229028,
				"z": -0.6482849594,
				"element": "C" 
			},
			{
				"x": -0.1657392571,
				"y": 1.1853524236,
				"z": -1.5096742005,
				"element": "C" 
			},
			{
				"x": -1.6178156842,
				"y": 1.4220159668,
				"z": -1.7694532164,
				"element": "C" 
			},
			{
				"x": 0.687435787,
				"y": 1.9237048963,
				"z": -2.253077955,
				"element": "O" 
			},
			{
				"x": 2.0043160356,
				"y": 1.6274919786,
				"z": -1.8919020874,
				"element": "N" 
			},
			{
				"x": 1.9100199284,
				"y": 0.7223091225,
				"z": -0.9439332134,
				"element": "C" 
			},
			{
				"x": 3.1530640296,
				"y": 0.1794930076,
				"z": -0.3080351998,
				"element": "C" 
			},
			{
				"x": 0.653040356,
				"y": -2.3635780725,
				"z": -0.8291274984,
				"element": "H" 
			},
			{
				"x": -0.490566741,
				"y": -2.7386882499,
				"z": 0.4724707514,
				"element": "H" 
			},
			{
				"x": -1.0476419615,
				"y": -1.9162028685,
				"z": -0.9958901938,
				"element": "H" 
			},
			{
				"x": 0.9043916805,
				"y": -0.7693154293,
				"z": 1.075439874,
				"element": "H" 
			},
			{
				"x": -2.0402594276,
				"y": -0.1009876408,
				"z": 0.5834774558,
				"element": "H" 
			},
			{
				"x": -1.3216687098,
				"y": -0.8845932797,
				"z": 1.9946892313,
				"element": "H" 
			},
			{
				"x": 0.1765030996,
				"y": 2.1294928963,
				"z": 3.0148760378,
				"element": "H" 
			},
			{
				"x": -2.0860840189,
				"y": 1.9230427347,
				"z": -0.9156408341,
				"element": "H" 
			},
			{
				"x": -2.1501604496,
				"y": 0.4825101323,
				"z": -1.9482336691,
				"element": "H" 
			},
			{
				"x": -1.7320428905,
				"y": 2.0547512797,
				"z": -2.6522804028,
				"element": "H" 
			},
			{
				"x": 3.1534032779,
				"y": 0.3624632981,
				"z": 0.772096687,
				"element": "H" 
			},
			{
				"x": 4.0310853731,
				"y": 0.6613869817,
				"z": -0.7427171576,
				"element": "H" 
			},
			{
				"x": 3.2402324802,
				"y": -0.9019603507,
				"z": -0.4595815028,
				"element": "H" 
			}
		],
		 "valence_orbital": [ 
			{
				"type": "occ",
				"energy": -0.32438,
				"method": "rhf"
			},
			{
				"type": "occ",
				"energy": -0.28973,
				"method": "rhf"
			},
			{
				"type": "occ",
				"energy": -0.2805,
				"method": "rhf"
			},
			{
				"type": "occ",
				"energy": -0.273,
				"method": "rhf"
			},
			{
				"type": "occ",
				"energy": -0.24002,
				"method": "rhf"
			},
			{
				"type": "unocc",
				"energy": -0.00145,
				"method": "rhf"
			},
			{
				"type": "unocc",
				"energy": 0.00406,
				"method": "rhf"
			},
			{
				"type": "unocc",
				"energy": 0.0536,
				"method": "rhf"
			},
			{
				"type": "unocc",
				"energy": 0.06328,
				"method": "rhf"
			},
			{
				"type": "unocc",
				"energy": 0.08667,
				"method": "rhf"
			}
		],
		"cosmo_sigma_profile": { 
			"-0.025": 0.0,
			"-0.024": 0.0,
			"-0.023": 0.0,
			"-0.022": 0.0,
			"-0.021": 0.0,
			"-0.02": 0.0,
			"-0.019": 0.0,
			"-0.018": 0.583096584507,
			"-0.017": 1.24810481629,
			"-0.016": 0.712689109202,
			"-0.015": 0.406618254729,
			"-0.014": 0.643222966273,
			"-0.013": 1.18866159018,
			"-0.012": 0.526965844983,
			"-0.011": 0.678649872339,
			"-0.01": 1.14032585906,
			"-0.009": 0.476433449771,
			"-0.008": 0.386550815502,
			"-0.007": 1.19034948648,
			"-0.006": 6.53671093219,
			"-0.005": 16.6745585736,
			"-0.004": 23.6507350898,
			"-0.003": 24.5208497942,
			"-0.002": 25.9014289709,
			"-0.001": 23.9146939539,
			"0.0": 17.4425167836,
			"0.001": 14.6839944505,
			"0.002": 10.39081396,
			"0.003": 6.49197640561,
			"0.004": 5.65400447807,
			"0.005": 4.83970152096,
			"0.006": 4.2298119074,
			"0.007": 4.79410923766,
			"0.008": 6.20339705633,
			"0.009": 7.09806579119,
			"0.01": 4.05069416034,
			"0.011": 5.0897945846,
			"0.012": 4.73902490359,
			"0.013": 1.38548331652,
			"0.014": 1.04248365764,
			"0.015": 1.24384418719,
			"0.016": 0.101399831646,
			"0.017": 0.0,
			"0.018": 0.0,
			"0.019": 0.0,
			"0.02": 0.0,
			"0.021": 0.0,
			"0.022": 0.0,
			"0.023": 0.0,
			"0.024": 0.0,
			"0.025": 0.0
		}
	}
}
