{
	 "smiles": "OC(=O)CCCCOC1=CC(=CC=C1)C#N", 
	 "Tm": 352.15, 
	 "num_atms": 29, 
	 "gaussian": { 
		 "optdone": 1, 
		 "sigma_profile": "yes", 
		 "theory": "DFT", 
		 "functional": "B3LYP", 
		 "basiset": "6-31G**", 
		 "properties": { 
			 "R2extent": 7602.7141, 
			 "electric_dipole_moment_norm": 5.40018411631, 
			 "electric_quadrupole_moment_norm": 26.5758386893, 
			 "total_energy": -745.536371384, 
			 "HOMO_LUMO_gap": 0.19213, 
			 "cosmo_polarized_energy": -16.18, 
			 "cosmo_cavitation_energy": 34.84, 
			 "cosmo_dispersion_energy": -24.33, 
			 "cosmo_repulsion_energy": 1.93, 
			 "cosmo_total_nonelectrostatic_energy": 12.44, 
			 "SMD_solvation_energy": 8.35 
		},
		"coords": [
			{
				"x": -2.8430781926,
				"y": 4.605004599,
				"z": 1.8653046808,
				"element": "O" 
			},
			{
				"x": -2.9643875184,
				"y": 3.489656059,
				"z": 1.106339954,
				"element": "C" 
			},
			{
				"x": -3.8219862433,
				"y": 3.3731606014,
				"z": 0.2566434238,
				"element": "O" 
			},
			{
				"x": -1.9252896856,
				"y": 2.4514992496,
				"z": 1.4761852002,
				"element": "C" 
			},
			{
				"x": -1.9398805718,
				"y": 1.2175543102,
				"z": 0.5704050342,
				"element": "C" 
			},
			{
				"x": -1.4587155614,
				"y": 1.5024316906,
				"z": -0.8587719646,
				"element": "C" 
			},
			{
				"x": -1.4538085139,
				"y": 0.2685757324,
				"z": -1.7489580229,
				"element": "C" 
			},
			{
				"x": -0.5129993869,
				"y": -0.6652058283,
				"z": -1.2076900938,
				"element": "O" 
			},
			{
				"x": -0.3431166907,
				"y": -1.8649590011,
				"z": -1.8238035135,
				"element": "C" 
			},
			{
				"x": 0.5898633939,
				"y": -2.723340469,
				"z": -1.2265538997,
				"element": "C" 
			},
			{
				"x": 0.8377162786,
				"y": -3.9807364313,
				"z": -1.7858664405,
				"element": "C" 
			},
			{
				"x": 0.1585490893,
				"y": -4.396399876,
				"z": -2.946525498,
				"element": "C" 
			},
			{
				"x": -0.7632107216,
				"y": -3.5340794258,
				"z": -3.5275518225,
				"element": "C" 
			},
			{
				"x": -1.0219382316,
				"y": -2.2734181007,
				"z": -2.9803336499,
				"element": "C" 
			},
			{
				"x": 1.7948833678,
				"y": -4.8535838564,
				"z": -1.1670129025,
				"element": "C" 
			},
			{
				"x": 2.5693265616,
				"y": -5.5646965034,
				"z": -0.6694621204,
				"element": "N" 
			},
			{
				"x": -3.5503258037,
				"y": 5.2068820867,
				"z": 1.5779418115,
				"element": "H" 
			},
			{
				"x": -2.1138136318,
				"y": 2.1713936895,
				"z": 2.5203135997,
				"element": "H" 
			},
			{
				"x": -0.9432405207,
				"y": 2.9404752105,
				"z": 1.4785200935,
				"element": "H" 
			},
			{
				"x": -1.3045234639,
				"y": 0.446170007,
				"z": 1.0164948823,
				"element": "H" 
			},
			{
				"x": -2.9590834282,
				"y": 0.8151344051,
				"z": 0.5350489299,
				"element": "H" 
			},
			{
				"x": -0.4447238211,
				"y": 1.9221969784,
				"z": -0.8381665563,
				"element": "H" 
			},
			{
				"x": -2.1123672874,
				"y": 2.2475734795,
				"z": -1.3241097432,
				"element": "H" 
			},
			{
				"x": -1.163480863,
				"y": 0.5326717957,
				"z": -2.7750724623,
				"element": "H" 
			},
			{
				"x": -2.4529270963,
				"y": -0.1889933442,
				"z": -1.7833370234,
				"element": "H" 
			},
			{
				"x": 1.1095315017,
				"y": -2.3969940516,
				"z": -0.333077752,
				"element": "H" 
			},
			{
				"x": 0.3588504095,
				"y": -5.3734359593,
				"z": -3.3709623327,
				"element": "H" 
			},
			{
				"x": -1.29499835,
				"y": -3.8401286488,
				"z": -4.4233306082,
				"element": "H" 
			},
			{
				"x": -1.7458250186,
				"y": -1.6240083987,
				"z": -3.4571112035,
				"element": "H" 
			}
		],
		 "valence_orbital": [ 
			{
				"type": "occ",
				"energy": -0.32545,
				"method": "rhf"
			},
			{
				"type": "occ",
				"energy": -0.32248,
				"method": "rhf"
			},
			{
				"type": "occ",
				"energy": -0.28305,
				"method": "rhf"
			},
			{
				"type": "occ",
				"energy": -0.26533,
				"method": "rhf"
			},
			{
				"type": "occ",
				"energy": -0.23876,
				"method": "rhf"
			},
			{
				"type": "unocc",
				"energy": -0.04663,
				"method": "rhf"
			},
			{
				"type": "unocc",
				"energy": -0.01186,
				"method": "rhf"
			},
			{
				"type": "unocc",
				"energy": 0.00157,
				"method": "rhf"
			},
			{
				"type": "unocc",
				"energy": 0.04126,
				"method": "rhf"
			},
			{
				"type": "unocc",
				"energy": 0.07257,
				"method": "rhf"
			}
		],
		"cosmo_sigma_profile": { 
			"-0.025": 0.0,
			"-0.024": 0.0,
			"-0.023": 0.0,
			"-0.022": 0.0,
			"-0.021": 0.0,
			"-0.02": 0.0,
			"-0.019": 0.0,
			"-0.018": 0.340697582396,
			"-0.017": 1.12477904444,
			"-0.016": 1.01041956515,
			"-0.015": 0.403807245517,
			"-0.014": 0.645566455268,
			"-0.013": 1.03609739669,
			"-0.012": 0.99553905602,
			"-0.011": 0.547873002223,
			"-0.01": 0.502532991871,
			"-0.009": 0.639866763408,
			"-0.008": 2.2980604915,
			"-0.007": 9.18862568326,
			"-0.006": 15.5973048475,
			"-0.005": 20.3843859956,
			"-0.004": 21.6959232981,
			"-0.003": 24.3119918881,
			"-0.002": 24.5627077199,
			"-0.001": 20.149773885,
			"0.0": 16.8554723862,
			"0.001": 16.3604344578,
			"0.002": 20.1218683179,
			"0.003": 14.1018164361,
			"0.004": 9.12316536266,
			"0.005": 7.23813086249,
			"0.006": 7.45947402574,
			"0.007": 5.25150480305,
			"0.008": 6.97561998261,
			"0.009": 7.10016927021,
			"0.01": 6.63666269298,
			"0.011": 5.22555912259,
			"0.012": 6.70602600136,
			"0.013": 1.99069857054,
			"0.014": 0.0620976309278,
			"0.015": 0.0,
			"0.016": 0.0,
			"0.017": 0.0,
			"0.018": 0.0,
			"0.019": 0.0,
			"0.02": 0.0,
			"0.021": 0.0,
			"0.022": 0.0,
			"0.023": 0.0,
			"0.024": 0.0,
			"0.025": 0.0
		}
	}
}
