{
	 "smiles": "COP(=O)(OC)OC=C(Cl)Cl", 
	 "Tm": 213.15, 
	 "num_atms": 18, 
	 "gaussian": { 
		 "optdone": 1, 
		 "sigma_profile": "yes", 
		 "theory": "DFT", 
		 "functional": "B3LYP", 
		 "basiset": "6-31G**", 
		 "properties": { 
			 "R2extent": 4263.617, 
			 "electric_dipole_moment_norm": 3.74207213987, 
			 "electric_quadrupole_moment_norm": 10.1824813724, 
			 "total_energy": -1719.30328827, 
			 "HOMO_LUMO_gap": 0.23951, 
			 "cosmo_polarized_energy": -10.66, 
			 "cosmo_cavitation_energy": 28.53, 
			 "cosmo_dispersion_energy": -20.43, 
			 "cosmo_repulsion_energy": 1.67, 
			 "cosmo_total_nonelectrostatic_energy": 9.77, 
			 "SMD_solvation_energy": 8.31 
		},
		"coords": [
			{
				"x": -1.4174657676,
				"y": 0.7084782156,
				"z": 2.3777394364,
				"element": "C" 
			},
			{
				"x": -0.5164637538,
				"y": 0.6242042417,
				"z": 1.2509185495,
				"element": "O" 
			},
			{
				"x": 0.1969381769,
				"y": -0.7837872541,
				"z": 0.9368568079,
				"element": "P" 
			},
			{
				"x": 0.6013465292,
				"y": -1.5936325248,
				"z": 2.0995351193,
				"element": "O" 
			},
			{
				"x": -0.7410293995,
				"y": -1.5457736674,
				"z": -0.1054248659,
				"element": "O" 
			},
			{
				"x": -1.1634385238,
				"y": -0.9255455333,
				"z": -1.3385950399,
				"element": "C" 
			},
			{
				"x": 1.4066967315,
				"y": -0.267654466,
				"z": -0.035557808,
				"element": "O" 
			},
			{
				"x": 2.6739617852,
				"y": -0.123626785,
				"z": 0.4692208625,
				"element": "C" 
			},
			{
				"x": 3.6088927474,
				"y": 0.5463931642,
				"z": -0.2094894888,
				"element": "C" 
			},
			{
				"x": 5.2273722385,
				"y": 0.679827493,
				"z": 0.4139378718,
				"element": "Cl" 
			},
			{
				"x": 3.3060110222,
				"y": 1.3076901887,
				"z": -1.7372007539,
				"element": "Cl" 
			},
			{
				"x": -2.3592930501,
				"y": 0.1988598438,
				"z": 2.1526615711,
				"element": "H" 
			},
			{
				"x": -0.9604958953,
				"y": 0.2656515311,
				"z": 3.2652578421,
				"element": "H" 
			},
			{
				"x": -1.6040787483,
				"y": 1.7706036707,
				"z": 2.537847204,
				"element": "H" 
			},
			{
				"x": -1.6567437926,
				"y": 0.0297252446,
				"z": -1.1398327983,
				"element": "H" 
			},
			{
				"x": -0.3038490959,
				"y": -0.7708457553,
				"z": -1.994888229,
				"element": "H" 
			},
			{
				"x": -1.8664069046,
				"y": -1.6190615063,
				"z": -1.8001455432,
				"element": "H" 
			},
			{
				"x": 2.8813457005,
				"y": -0.601106101,
				"z": 1.4203592624,
				"element": "H" 
			}
		],
		 "valence_orbital": [ 
			{
				"type": "occ",
				"energy": -0.32647,
				"method": "rhf"
			},
			{
				"type": "occ",
				"energy": -0.3209,
				"method": "rhf"
			},
			{
				"type": "occ",
				"energy": -0.31298,
				"method": "rhf"
			},
			{
				"type": "occ",
				"energy": -0.30596,
				"method": "rhf"
			},
			{
				"type": "occ",
				"energy": -0.24511,
				"method": "rhf"
			},
			{
				"type": "unocc",
				"energy": -0.0056,
				"method": "rhf"
			},
			{
				"type": "unocc",
				"energy": -0.00066,
				"method": "rhf"
			},
			{
				"type": "unocc",
				"energy": 0.0206,
				"method": "rhf"
			},
			{
				"type": "unocc",
				"energy": 0.05206,
				"method": "rhf"
			},
			{
				"type": "unocc",
				"energy": 0.07934,
				"method": "rhf"
			}
		],
		"cosmo_sigma_profile": { 
			"-0.025": 0.0,
			"-0.024": 0.0,
			"-0.023": 0.0,
			"-0.022": 0.0,
			"-0.021": 0.0,
			"-0.02": 0.0,
			"-0.019": 0.0,
			"-0.018": 0.0,
			"-0.017": 0.0,
			"-0.016": 0.0,
			"-0.015": 0.0,
			"-0.014": 0.0,
			"-0.013": 0.0,
			"-0.012": 0.0,
			"-0.011": 0.0,
			"-0.01": 0.276638254036,
			"-0.009": 0.96881747618,
			"-0.008": 1.34249439413,
			"-0.007": 6.86461089275,
			"-0.006": 14.9865493299,
			"-0.005": 17.7217407693,
			"-0.004": 23.4852028232,
			"-0.003": 16.8653365501,
			"-0.002": 12.952785484,
			"-0.001": 14.0439243278,
			"0.0": 20.4478724572,
			"0.001": 16.5442312189,
			"0.002": 19.4671135162,
			"0.003": 24.6738393931,
			"0.004": 9.76643439693,
			"0.005": 5.06208148578,
			"0.006": 2.34919535059,
			"0.007": 3.01358086388,
			"0.008": 4.12787525642,
			"0.009": 3.1795177917,
			"0.01": 1.49385764886,
			"0.011": 1.29803783636,
			"0.012": 2.91451908331,
			"0.013": 5.00390283964,
			"0.014": 0.857970665779,
			"0.015": 0.0,
			"0.016": 0.0,
			"0.017": 0.0,
			"0.018": 0.0,
			"0.019": 0.0,
			"0.02": 0.0,
			"0.021": 0.0,
			"0.022": 0.0,
			"0.023": 0.0,
			"0.024": 0.0,
			"0.025": 0.0
		}
	}
}
