{
	 "smiles": "CC1=CC=C(C=C1)C1(CCOCC1)C(O)=O", 
	 "Tm": 463.15, 
	 "num_atms": 32, 
	 "gaussian": { 
		 "optdone": 1, 
		 "sigma_profile": "yes", 
		 "theory": "DFT", 
		 "functional": "B3LYP", 
		 "basiset": "6-31G**", 
		 "properties": { 
			 "R2extent": 3975.2284, 
			 "electric_dipole_moment_norm": 3.51093368921, 
			 "electric_quadrupole_moment_norm": 22.3202591661, 
			 "total_energy": -730.696565169, 
			 "HOMO_LUMO_gap": 0.22728, 
			 "cosmo_polarized_energy": -13.22, 
			 "cosmo_cavitation_energy": 32.65, 
			 "cosmo_dispersion_energy": -23.44, 
			 "cosmo_repulsion_energy": 1.82, 
			 "cosmo_total_nonelectrostatic_energy": 11.03, 
			 "SMD_solvation_energy": 6.2 
		},
		"coords": [
			{
				"x": 1.2496059184,
				"y": 3.0751584934,
				"z": 2.9124593999,
				"element": "C" 
			},
			{
				"x": 0.5461518991,
				"y": 2.0527816978,
				"z": 2.0522920944,
				"element": "C" 
			},
			{
				"x": -0.8094627791,
				"y": 1.7547973587,
				"z": 2.2437610064,
				"element": "C" 
			},
			{
				"x": -1.4663658599,
				"y": 0.8342351177,
				"z": 1.4303222886,
				"element": "C" 
			},
			{
				"x": -0.7980630744,
				"y": 0.174392511,
				"z": 0.3827827032,
				"element": "C" 
			},
			{
				"x": 0.5634957906,
				"y": 0.4591338954,
				"z": 0.2059269756,
				"element": "C" 
			},
			{
				"x": 1.217777048,
				"y": 1.3805879006,
				"z": 1.0250220961,
				"element": "C" 
			},
			{
				"x": -1.5530666985,
				"y": -0.873211393,
				"z": -0.4551406799,
				"element": "C" 
			},
			{
				"x": -1.5746352962,
				"y": -2.2344862645,
				"z": 0.2798719916,
				"element": "C" 
			},
			{
				"x": -0.1639912379,
				"y": -2.8338405221,
				"z": 0.3943626356,
				"element": "C" 
			},
			{
				"x": 0.6674108848,
				"y": -2.5410292145,
				"z": -0.7341882687,
				"element": "O" 
			},
			{
				"x": -0.0746017737,
				"y": -2.3808778802,
				"z": -1.9309675888,
				"element": "C" 
			},
			{
				"x": -0.9394560253,
				"y": -1.1077047356,
				"z": -1.8861492842,
				"element": "C" 
			},
			{
				"x": -3.0041838326,
				"y": -0.4116983035,
				"z": -0.7049930835,
				"element": "C" 
			},
			{
				"x": -3.1418838046,
				"y": 0.8672112033,
				"z": -1.1396849304,
				"element": "O" 
			},
			{
				"x": -3.9732529916,
				"y": -1.1253292441,
				"z": -0.6125767872,
				"element": "O" 
			},
			{
				"x": 1.1132694339,
				"y": 4.088588702,
				"z": 2.5144518222,
				"element": "H" 
			},
			{
				"x": 2.3260361773,
				"y": 2.8860869012,
				"z": 2.9590531918,
				"element": "H" 
			},
			{
				"x": 0.859754048,
				"y": 3.0746228243,
				"z": 3.9349832304,
				"element": "H" 
			},
			{
				"x": -1.3602450634,
				"y": 2.2477670242,
				"z": 3.0411264959,
				"element": "H" 
			},
			{
				"x": -2.5173788753,
				"y": 0.6271867697,
				"z": 1.6173206098,
				"element": "H" 
			},
			{
				"x": 1.1331029739,
				"y": -0.0732640615,
				"z": -0.546587854,
				"element": "H" 
			},
			{
				"x": 2.2757507372,
				"y": 1.5727911612,
				"z": 0.8635115602,
				"element": "H" 
			},
			{
				"x": -2.2448693011,
				"y": -2.9015054456,
				"z": -0.2689080843,
				"element": "H" 
			},
			{
				"x": -2.0064530091,
				"y": -2.1208482154,
				"z": 1.27877481,
				"element": "H" 
			},
			{
				"x": -0.2364792662,
				"y": -3.9243708391,
				"z": 0.5280342868,
				"element": "H" 
			},
			{
				"x": 0.3632685282,
				"y": -2.4236831248,
				"z": 1.2609480734,
				"element": "H" 
			},
			{
				"x": 0.6560550558,
				"y": -2.3205000044,
				"z": -2.7429430622,
				"element": "H" 
			},
			{
				"x": -0.7020856819,
				"y": -3.2654066942,
				"z": -2.1220611948,
				"element": "H" 
			},
			{
				"x": -1.7433336778,
				"y": -1.2110240369,
				"z": -2.6237500266,
				"element": "H" 
			},
			{
				"x": -0.3513090178,
				"y": -0.2352844238,
				"z": -2.1846186301,
				"element": "H" 
			},
			{
				"x": -2.2955612286,
				"y": 1.3317228429,
				"z": -1.043535797,
				"element": "H" 
			}
		],
		 "valence_orbital": [ 
			{
				"type": "occ",
				"energy": -0.30407,
				"method": "rhf"
			},
			{
				"type": "occ",
				"energy": -0.26833,
				"method": "rhf"
			},
			{
				"type": "occ",
				"energy": -0.25863,
				"method": "rhf"
			},
			{
				"type": "occ",
				"energy": -0.25439,
				"method": "rhf"
			},
			{
				"type": "occ",
				"energy": -0.2424,
				"method": "rhf"
			},
			{
				"type": "unocc",
				"energy": -0.01512,
				"method": "rhf"
			},
			{
				"type": "unocc",
				"energy": -0.01216,
				"method": "rhf"
			},
			{
				"type": "unocc",
				"energy": 0.01231,
				"method": "rhf"
			},
			{
				"type": "unocc",
				"energy": 0.0728,
				"method": "rhf"
			},
			{
				"type": "unocc",
				"energy": 0.08757,
				"method": "rhf"
			}
		],
		"cosmo_sigma_profile": { 
			"-0.025": 0.0,
			"-0.024": 0.0,
			"-0.023": 0.0,
			"-0.022": 0.0,
			"-0.021": 0.0,
			"-0.02": 0.0,
			"-0.019": 0.0,
			"-0.018": 0.0,
			"-0.017": 0.0399950579247,
			"-0.016": 0.448807789768,
			"-0.015": 0.691850802404,
			"-0.014": 0.587396930169,
			"-0.013": 0.340297266321,
			"-0.012": 0.591218888472,
			"-0.011": 1.36602326557,
			"-0.01": 0.955932279211,
			"-0.009": 0.846799566429,
			"-0.008": 0.802196596865,
			"-0.007": 1.4732291905,
			"-0.006": 3.99321170637,
			"-0.005": 17.2604684958,
			"-0.004": 37.1102034604,
			"-0.003": 34.0319152231,
			"-0.002": 25.8028085322,
			"-0.001": 20.1422859792,
			"0.0": 18.9861538559,
			"0.001": 13.5959199704,
			"0.002": 9.61019993131,
			"0.003": 9.2945938077,
			"0.004": 10.1439623224,
			"0.005": 9.65902904706,
			"0.006": 5.42041026334,
			"0.007": 3.62995243155,
			"0.008": 3.72569980669,
			"0.009": 3.82915231366,
			"0.01": 5.63393665888,
			"0.011": 6.36417145421,
			"0.012": 6.52098886375,
			"0.013": 2.60456791294,
			"0.014": 0.433144656465,
			"0.015": 0.0,
			"0.016": 0.0,
			"0.017": 0.0,
			"0.018": 0.0,
			"0.019": 0.0,
			"0.02": 0.0,
			"0.021": 0.0,
			"0.022": 0.0,
			"0.023": 0.0,
			"0.024": 0.0,
			"0.025": 0.0
		}
	}
}
