{
	 "smiles": "OCC1=CN(CC2=CC=CC=C2)C2=CC=C(C=C12)[N+]([O-])=O", 
	 "Tm": 379.15, 
	 "num_atms": 35, 
	 "gaussian": { 
		 "optdone": 1, 
		 "sigma_profile": "yes", 
		 "theory": "DFT", 
		 "functional": "B3LYP", 
		 "basiset": "6-31G**", 
		 "properties": { 
			 "R2extent": 8017.6182, 
			 "electric_dipole_moment_norm": 7.21377495213, 
			 "electric_quadrupole_moment_norm": 20.5077069942, 
			 "total_energy": -953.213197405, 
			 "HOMO_LUMO_gap": 0.14718, 
			 "cosmo_polarized_energy": -17.65, 
			 "cosmo_cavitation_energy": 40.03, 
			 "cosmo_dispersion_energy": -27.71, 
			 "cosmo_repulsion_energy": 2.13, 
			 "cosmo_total_nonelectrostatic_energy": 14.45, 
			 "SMD_solvation_energy": 8.79 
		},
		"coords": [
			{
				"x": 2.9772663828,
				"y": -4.1978891905,
				"z": 1.8755488156,
				"element": "O" 
			},
			{
				"x": 3.1603598581,
				"y": -2.9268169859,
				"z": 1.2640771741,
				"element": "C" 
			},
			{
				"x": 1.859981052,
				"y": -2.2621636149,
				"z": 0.9080199766,
				"element": "C" 
			},
			{
				"x": 0.6573657713,
				"y": -2.8953102571,
				"z": 0.7329427649,
				"element": "C" 
			},
			{
				"x": -0.3327453476,
				"y": -1.982968508,
				"z": 0.3890095734,
				"element": "N" 
			},
			{
				"x": -1.7280084812,
				"y": -2.3066933177,
				"z": 0.124266065,
				"element": "C" 
			},
			{
				"x": -2.7066979802,
				"y": -1.8100112812,
				"z": 1.1775491134,
				"element": "C" 
			},
			{
				"x": -3.9694197643,
				"y": -1.3505388487,
				"z": 0.786979487,
				"element": "C" 
			},
			{
				"x": -4.9019363938,
				"y": -0.9373757713,
				"z": 1.7403744227,
				"element": "C" 
			},
			{
				"x": -4.5762313728,
				"y": -0.9730434854,
				"z": 3.0966083177,
				"element": "C" 
			},
			{
				"x": -3.3153886706,
				"y": -1.4247800964,
				"z": 3.493299277,
				"element": "C" 
			},
			{
				"x": -2.3868633307,
				"y": -1.8425219726,
				"z": 2.5401302243,
				"element": "C" 
			},
			{
				"x": 0.2326203159,
				"y": -0.72930962,
				"z": 0.334943658,
				"element": "C" 
			},
			{
				"x": -0.3478860594,
				"y": 0.51203972,
				"z": 0.0351254491,
				"element": "C" 
			},
			{
				"x": 0.4710087719,
				"y": 1.6292791096,
				"z": 0.0464072939,
				"element": "C" 
			},
			{
				"x": 1.8381248713,
				"y": 1.4941775137,
				"z": 0.3585222918,
				"element": "C" 
			},
			{
				"x": 2.4305177978,
				"y": 0.2743666017,
				"z": 0.6632712111,
				"element": "C" 
			},
			{
				"x": 1.6178450008,
				"y": -0.8643335358,
				"z": 0.6542558201,
				"element": "C" 
			},
			{
				"x": 2.674281196,
				"y": 2.6975524197,
				"z": 0.3646400614,
				"element": "N" 
			},
			{
				"x": 2.1379127684,
				"y": 3.7732178138,
				"z": 0.0905095265,
				"element": "O" 
			},
			{
				"x": 3.8685656875,
				"y": 2.5697196548,
				"z": 0.6436106522,
				"element": "O" 
			},
			{
				"x": 2.491298723,
				"y": -4.0503599779,
				"z": 2.6980046548,
				"element": "H" 
			},
			{
				"x": 3.762900241,
				"y": -2.2554446108,
				"z": 1.8970267719,
				"element": "H" 
			},
			{
				"x": 3.7567517018,
				"y": -3.1225733743,
				"z": 0.3648044417,
				"element": "H" 
			},
			{
				"x": 0.4251563207,
				"y": -3.9470717057,
				"z": 0.8202990796,
				"element": "H" 
			},
			{
				"x": -1.7843312219,
				"y": -3.3976605744,
				"z": 0.0402626323,
				"element": "H" 
			},
			{
				"x": -2.0066482047,
				"y": -1.9048865741,
				"z": -0.856917927,
				"element": "H" 
			},
			{
				"x": -4.2261017583,
				"y": -1.3148343693,
				"z": -0.2694623583,
				"element": "H" 
			},
			{
				"x": -5.8772007837,
				"y": -0.5806464613,
				"z": 1.4221120764,
				"element": "H" 
			},
			{
				"x": -5.2973274175,
				"y": -0.6462287133,
				"z": 3.8399489581,
				"element": "H" 
			},
			{
				"x": -3.0536041116,
				"y": -1.4499892428,
				"z": 4.5471667175,
				"element": "H" 
			},
			{
				"x": -1.4050443856,
				"y": -2.1858221715,
				"z": 2.8536495205,
				"element": "H" 
			},
			{
				"x": -1.4054799974,
				"y": 0.6043024999,
				"z": -0.1862821314,
				"element": "H" 
			},
			{
				"x": 0.0839746868,
				"y": 2.614989922,
				"z": -0.1760258,
				"element": "H" 
			},
			{
				"x": 3.4880841344,
				"y": 0.2386290059,
				"z": 0.8938221881,
				"element": "H" 
			}
		],
		 "valence_orbital": [ 
			{
				"type": "occ",
				"energy": -0.27551,
				"method": "rhf"
			},
			{
				"type": "occ",
				"energy": -0.26577,
				"method": "rhf"
			},
			{
				"type": "occ",
				"energy": -0.26114,
				"method": "rhf"
			},
			{
				"type": "occ",
				"energy": -0.24531,
				"method": "rhf"
			},
			{
				"type": "occ",
				"energy": -0.21954,
				"method": "rhf"
			},
			{
				"type": "unocc",
				"energy": -0.07236,
				"method": "rhf"
			},
			{
				"type": "unocc",
				"energy": -0.02808,
				"method": "rhf"
			},
			{
				"type": "unocc",
				"energy": -0.02079,
				"method": "rhf"
			},
			{
				"type": "unocc",
				"energy": -0.01793,
				"method": "rhf"
			},
			{
				"type": "unocc",
				"energy": 0.02633,
				"method": "rhf"
			}
		],
		"cosmo_sigma_profile": { 
			"-0.025": 0.0,
			"-0.024": 0.0,
			"-0.023": 0.0,
			"-0.022": 0.0,
			"-0.021": 0.0,
			"-0.02": 0.0,
			"-0.019": 0.0,
			"-0.018": 0.0,
			"-0.017": 0.0,
			"-0.016": 0.123953552102,
			"-0.015": 0.675967960555,
			"-0.014": 1.18179873791,
			"-0.013": 0.599943544977,
			"-0.012": 1.05541008982,
			"-0.011": 0.905666389387,
			"-0.01": 0.49052237669,
			"-0.009": 2.9055599486,
			"-0.008": 3.68519817283,
			"-0.007": 8.76971282877,
			"-0.006": 18.7490840786,
			"-0.005": 26.3099161865,
			"-0.004": 28.372439389,
			"-0.003": 24.5196859336,
			"-0.002": 20.4900328812,
			"-0.001": 17.2223120616,
			"0.0": 18.6662685948,
			"0.001": 20.2974878325,
			"0.002": 26.3805993874,
			"0.003": 24.9619952208,
			"0.004": 14.8403948162,
			"0.005": 11.6279618326,
			"0.006": 8.9819590306,
			"0.007": 5.94550042803,
			"0.008": 11.1743777884,
			"0.009": 6.51904388214,
			"0.01": 5.65404874315,
			"0.011": 3.20983987883,
			"0.012": 1.47060765936,
			"0.013": 1.52325795093,
			"0.014": 2.03798304365,
			"0.015": 0.0953084883294,
			"0.016": 0.0,
			"0.017": 0.0,
			"0.018": 0.0,
			"0.019": 0.0,
			"0.02": 0.0,
			"0.021": 0.0,
			"0.022": 0.0,
			"0.023": 0.0,
			"0.024": 0.0,
			"0.025": 0.0
		}
	}
}
