{
	 "smiles": "CCOC(=O)C(=CNC1=CC=C(Cl)C=C1)C#N", 
	 "Tm": 415.15, 
	 "num_atms": 28, 
	 "gaussian": { 
		 "optdone": 1, 
		 "sigma_profile": "yes", 
		 "theory": "DFT", 
		 "functional": "B3LYP", 
		 "basiset": "6-31G**", 
		 "properties": { 
			 "R2extent": 7474.3854, 
			 "electric_dipole_moment_norm": 7.67192872621, 
			 "electric_quadrupole_moment_norm": 13.9004183944, 
			 "total_energy": -1184.03228355, 
			 "HOMO_LUMO_gap": 0.17078, 
			 "cosmo_polarized_energy": -23.43, 
			 "cosmo_cavitation_energy": 35.86, 
			 "cosmo_dispersion_energy": -25.01, 
			 "cosmo_repulsion_energy": 1.98, 
			 "cosmo_total_nonelectrostatic_energy": 12.83, 
			 "SMD_solvation_energy": 8.24 
		},
		"coords": [
			{
				"x": 4.4628015225,
				"y": 0.1941162297,
				"z": -2.6469127911,
				"element": "C" 
			},
			{
				"x": 3.0873073278,
				"y": -0.3188957786,
				"z": -3.0450644218,
				"element": "C" 
			},
			{
				"x": 2.211954383,
				"y": -0.4347081306,
				"z": -1.8976159595,
				"element": "O" 
			},
			{
				"x": 1.5551796973,
				"y": 0.6982975851,
				"z": -1.5296948123,
				"element": "C" 
			},
			{
				"x": 1.6515210713,
				"y": 1.7543702178,
				"z": -2.1210940933,
				"element": "O" 
			},
			{
				"x": 0.7045540399,
				"y": 0.4953907239,
				"z": -0.3305330362,
				"element": "C" 
			},
			{
				"x": 0.6944703705,
				"y": -0.7222352294,
				"z": 0.3037881081,
				"element": "C" 
			},
			{
				"x": -0.0030645257,
				"y": -1.1720457355,
				"z": 1.3757200948,
				"element": "N" 
			},
			{
				"x": -1.1242136532,
				"y": -0.6235265427,
				"z": 2.0569698216,
				"element": "C" 
			},
			{
				"x": -2.2024815173,
				"y": -0.0602265687,
				"z": 1.3654965278,
				"element": "C" 
			},
			{
				"x": -3.3123103219,
				"y": 0.4051538479,
				"z": 2.0664144368,
				"element": "C" 
			},
			{
				"x": -3.3516624143,
				"y": 0.2838770812,
				"z": 3.4549468909,
				"element": "C" 
			},
			{
				"x": -4.7566574512,
				"y": 0.8572182187,
				"z": 4.3354905097,
				"element": "Cl" 
			},
			{
				"x": -2.2917058193,
				"y": -0.2930693394,
				"z": 4.1545433646,
				"element": "C" 
			},
			{
				"x": -1.1770575196,
				"y": -0.7411470889,
				"z": 3.4510329852,
				"element": "C" 
			},
			{
				"x": 0.0012641416,
				"y": 1.6511099868,
				"z": 0.1169784672,
				"element": "C" 
			},
			{
				"x": -0.56243683,
				"y": 2.5994945555,
				"z": 0.4892016415,
				"element": "N" 
			},
			{
				"x": 5.122742444,
				"y": 0.2018907604,
				"z": -3.520854953,
				"element": "H" 
			},
			{
				"x": 4.3938625081,
				"y": 1.2138523717,
				"z": -2.260884568,
				"element": "H" 
			},
			{
				"x": 4.9137686142,
				"y": -0.446057899,
				"z": -1.8826431731,
				"element": "H" 
			},
			{
				"x": 3.1379404142,
				"y": -1.3328185511,
				"z": -3.4497612303,
				"element": "H" 
			},
			{
				"x": 2.6179941185,
				"y": 0.3417636789,
				"z": -3.7773104121,
				"element": "H" 
			},
			{
				"x": 1.3726551293,
				"y": -1.4651000182,
				"z": -0.1018432786,
				"element": "H" 
			},
			{
				"x": 0.3127017444,
				"y": -2.0599868655,
				"z": 1.7391469272,
				"element": "H" 
			},
			{
				"x": -2.1823567876,
				"y": 0.010788636,
				"z": 0.2848379786,
				"element": "H" 
			},
			{
				"x": -4.1447527397,
				"y": 0.8517266728,
				"z": 1.5351138845,
				"element": "H" 
			},
			{
				"x": -2.333777277,
				"y": -0.3806189847,
				"z": 5.2342142211,
				"element": "H" 
			},
			{
				"x": -0.3383406699,
				"y": -1.1745138341,
				"z": 3.9887168696,
				"element": "H" 
			}
		],
		 "valence_orbital": [ 
			{
				"type": "occ",
				"energy": -0.30007,
				"method": "rhf"
			},
			{
				"type": "occ",
				"energy": -0.27654,
				"method": "rhf"
			},
			{
				"type": "occ",
				"energy": -0.27416,
				"method": "rhf"
			},
			{
				"type": "occ",
				"energy": -0.26663,
				"method": "rhf"
			},
			{
				"type": "occ",
				"energy": -0.22812,
				"method": "rhf"
			},
			{
				"type": "unocc",
				"energy": -0.05734,
				"method": "rhf"
			},
			{
				"type": "unocc",
				"energy": -0.02816,
				"method": "rhf"
			},
			{
				"type": "unocc",
				"energy": -0.01339,
				"method": "rhf"
			},
			{
				"type": "unocc",
				"energy": 0.02235,
				"method": "rhf"
			},
			{
				"type": "unocc",
				"energy": 0.03036,
				"method": "rhf"
			}
		],
		"cosmo_sigma_profile": { 
			"-0.025": 0.0,
			"-0.024": 0.0,
			"-0.023": 0.0,
			"-0.022": 0.0,
			"-0.021": 0.0,
			"-0.02": 0.0,
			"-0.019": 0.0,
			"-0.018": 0.116182339332,
			"-0.017": 1.69442216207,
			"-0.016": 1.55601678521,
			"-0.015": 1.68944960809,
			"-0.014": 1.40487943219,
			"-0.013": 1.29384329689,
			"-0.012": 1.84423020756,
			"-0.011": 1.7769382671,
			"-0.01": 1.69640825843,
			"-0.009": 1.99966648795,
			"-0.008": 5.57061049186,
			"-0.007": 8.74748069836,
			"-0.006": 10.2766881865,
			"-0.005": 12.3646988547,
			"-0.004": 17.5671214702,
			"-0.003": 19.7771705722,
			"-0.002": 23.1000219799,
			"-0.001": 27.3196722044,
			"0.0": 23.7936115943,
			"0.001": 21.6826245072,
			"0.002": 20.4852466766,
			"0.003": 16.6201106989,
			"0.004": 16.256542611,
			"0.005": 9.43363239052,
			"0.006": 4.32742011299,
			"0.007": 4.5848545733,
			"0.008": 4.90741361549,
			"0.009": 5.39300331718,
			"0.01": 5.27664587815,
			"0.011": 5.36479958667,
			"0.012": 7.21551904426,
			"0.013": 3.35161788093,
			"0.014": 0.944506279641,
			"0.015": 0.0,
			"0.016": 0.0,
			"0.017": 0.0,
			"0.018": 0.0,
			"0.019": 0.0,
			"0.02": 0.0,
			"0.021": 0.0,
			"0.022": 0.0,
			"0.023": 0.0,
			"0.024": 0.0,
			"0.025": 0.0
		}
	}
}
