{
	 "smiles": "CC(=O)C1=NN(C(=N)S1)C1=C(C)C(C)=CC=C1", 
	 "Tm": 443.15, 
	 "num_atms": 30, 
	 "gaussian": { 
		 "optdone": 1, 
		 "sigma_profile": "yes", 
		 "theory": "DFT", 
		 "functional": "B3LYP", 
		 "basiset": "6-31G**", 
		 "properties": { 
			 "R2extent": 5936.1908, 
			 "electric_dipole_moment_norm": 6.08708397921, 
			 "electric_quadrupole_moment_norm": 19.3914134191, 
			 "total_energy": -1102.75211003, 
			 "HOMO_LUMO_gap": 0.14805, 
			 "cosmo_polarized_energy": -12.79, 
			 "cosmo_cavitation_energy": 35.7, 
			 "cosmo_dispersion_energy": -24.97, 
			 "cosmo_repulsion_energy": 1.9, 
			 "cosmo_total_nonelectrostatic_energy": 12.63, 
			 "SMD_solvation_energy": 5.31 
		},
		"coords": [
			{
				"x": -1.2816393465,
				"y": -3.5102791538,
				"z": 1.4132852241,
				"element": "C" 
			},
			{
				"x": -0.6935774715,
				"y": -4.0067351919,
				"z": 0.1106030936,
				"element": "C" 
			},
			{
				"x": -0.6667529859,
				"y": -5.1851903346,
				"z": -0.2067944915,
				"element": "O" 
			},
			{
				"x": -0.127170119,
				"y": -2.9967734688,
				"z": -0.8153672077,
				"element": "C" 
			},
			{
				"x": -0.1175852309,
				"y": -1.7257347478,
				"z": -0.5634621193,
				"element": "N" 
			},
			{
				"x": 0.4520441114,
				"y": -1.0250584385,
				"z": -1.5732203386,
				"element": "N" 
			},
			{
				"x": 0.9249315908,
				"y": -1.7578545207,
				"z": -2.6938676362,
				"element": "C" 
			},
			{
				"x": 1.4980628819,
				"y": -1.3519488329,
				"z": -3.7508507687,
				"element": "N" 
			},
			{
				"x": 0.5750811382,
				"y": -3.4818829215,
				"z": -2.3609096731,
				"element": "S" 
			},
			{
				"x": 0.5199369178,
				"y": 0.4052482601,
				"z": -1.4873852993,
				"element": "C" 
			},
			{
				"x": 1.3370798039,
				"y": 1.0218619171,
				"z": -0.5238291294,
				"element": "C" 
			},
			{
				"x": 2.182539237,
				"y": 0.2147839493,
				"z": 0.4305847293,
				"element": "C" 
			},
			{
				"x": 1.3430394765,
				"y": 2.4337986651,
				"z": -0.4654534558,
				"element": "C" 
			},
			{
				"x": 2.1787779815,
				"y": 3.156713914,
				"z": 0.5648218859,
				"element": "C" 
			},
			{
				"x": 0.5741261177,
				"y": 3.1669561307,
				"z": -1.3757207972,
				"element": "C" 
			},
			{
				"x": -0.210982866,
				"y": 2.5365116249,
				"z": -2.3405677534,
				"element": "C" 
			},
			{
				"x": -0.2464001205,
				"y": 1.147613039,
				"z": -2.39244052,
				"element": "C" 
			},
			{
				"x": -0.5251231395,
				"y": -2.9755497517,
				"z": 1.9959044233,
				"element": "H" 
			},
			{
				"x": -2.0932098736,
				"y": -2.8016608452,
				"z": 1.2212971959,
				"element": "H" 
			},
			{
				"x": -1.655083259,
				"y": -4.3645838481,
				"z": 1.978562557,
				"element": "H" 
			},
			{
				"x": 1.6146333483,
				"y": -0.3379324429,
				"z": -3.7523487282,
				"element": "H" 
			},
			{
				"x": 1.7479042482,
				"y": 0.2091594755,
				"z": 1.4377079851,
				"element": "H" 
			},
			{
				"x": 2.2790851739,
				"y": -0.8229066492,
				"z": 0.111374412,
				"element": "H" 
			},
			{
				"x": 3.1878281645,
				"y": 0.6379770232,
				"z": 0.5171086395,
				"element": "H" 
			},
			{
				"x": 3.2499646811,
				"y": 2.9679724693,
				"z": 0.4241449058,
				"element": "H" 
			},
			{
				"x": 1.9323637301,
				"y": 2.8364489619,
				"z": 1.5835850148,
				"element": "H" 
			},
			{
				"x": 2.0227851455,
				"y": 4.236666703,
				"z": 0.5062501301,
				"element": "H" 
			},
			{
				"x": 0.5927379741,
				"y": 4.2523736656,
				"z": -1.3250397987,
				"element": "H" 
			},
			{
				"x": -0.801981028,
				"y": 3.1237936342,
				"z": -3.0363985742,
				"element": "H" 
			},
			{
				"x": -0.8680162822,
				"y": 0.6282117144,
				"z": -3.114573905,
				"element": "H" 
			}
		],
		 "valence_orbital": [ 
			{
				"type": "occ",
				"energy": -0.27527,
				"method": "rhf"
			},
			{
				"type": "occ",
				"energy": -0.26584,
				"method": "rhf"
			},
			{
				"type": "occ",
				"energy": -0.26377,
				"method": "rhf"
			},
			{
				"type": "occ",
				"energy": -0.25542,
				"method": "rhf"
			},
			{
				"type": "occ",
				"energy": -0.22028,
				"method": "rhf"
			},
			{
				"type": "unocc",
				"energy": -0.07223,
				"method": "rhf"
			},
			{
				"type": "unocc",
				"energy": -0.02641,
				"method": "rhf"
			},
			{
				"type": "unocc",
				"energy": -0.01949,
				"method": "rhf"
			},
			{
				"type": "unocc",
				"energy": 0.01504,
				"method": "rhf"
			},
			{
				"type": "unocc",
				"energy": 0.02586,
				"method": "rhf"
			}
		],
		"cosmo_sigma_profile": { 
			"-0.025": 0.0,
			"-0.024": 0.0,
			"-0.023": 0.0,
			"-0.022": 0.0,
			"-0.021": 0.0,
			"-0.02": 0.0,
			"-0.019": 0.0,
			"-0.018": 0.0,
			"-0.017": 0.0,
			"-0.016": 0.0,
			"-0.015": 0.0,
			"-0.014": 0.0,
			"-0.013": 0.0,
			"-0.012": 0.0,
			"-0.011": 0.0,
			"-0.01": 0.259688176512,
			"-0.009": 0.933872558754,
			"-0.008": 0.673962759762,
			"-0.007": 3.3863643072,
			"-0.006": 13.8840280956,
			"-0.005": 22.3711377642,
			"-0.004": 31.299454057,
			"-0.003": 24.3848108459,
			"-0.002": 29.7679953466,
			"-0.001": 26.4376654512,
			"0.0": 26.0627517755,
			"0.001": 17.7608906387,
			"0.002": 17.7941433117,
			"0.003": 16.4128582512,
			"0.004": 14.8368977102,
			"0.005": 7.48252645269,
			"0.006": 4.44088983019,
			"0.007": 4.01203710788,
			"0.008": 3.8541817536,
			"0.009": 3.73732622005,
			"0.01": 4.20097660554,
			"0.011": 5.0315452117,
			"0.012": 2.12124990257,
			"0.013": 1.34779912437,
			"0.014": 1.43960176964,
			"0.015": 0.989225300249,
			"0.016": 0.917296408,
			"0.017": 0.508470770451,
			"0.018": 0.0,
			"0.019": 0.0,
			"0.02": 0.0,
			"0.021": 0.0,
			"0.022": 0.0,
			"0.023": 0.0,
			"0.024": 0.0,
			"0.025": 0.0
		}
	}
}
