{
	 "smiles": "COC(=O)C1=C(C(OC)=CC=C1)[N+]([O-])=O", 
	 "Tm": 416.15, 
	 "num_atms": 24, 
	 "gaussian": { 
		 "optdone": 1, 
		 "sigma_profile": "yes", 
		 "theory": "DFT", 
		 "functional": "B3LYP", 
		 "basiset": "6-31G**", 
		 "properties": { 
			 "R2extent": 3769.9441, 
			 "electric_dipole_moment_norm": 3.75814999302, 
			 "electric_quadrupole_moment_norm": 13.5192238387, 
			 "total_energy": -779.130979732, 
			 "HOMO_LUMO_gap": 0.18181, 
			 "cosmo_polarized_energy": -13.75, 
			 "cosmo_cavitation_energy": 29.69, 
			 "cosmo_dispersion_energy": -20.69, 
			 "cosmo_repulsion_energy": 1.62, 
			 "cosmo_total_nonelectrostatic_energy": 10.62, 
			 "SMD_solvation_energy": 10.19 
		},
		"coords": [
			{
				"x": -2.4259295627,
				"y": 3.9827371858,
				"z": 1.9661879841,
				"element": "C" 
			},
			{
				"x": -1.6204079454,
				"y": 2.9000309063,
				"z": 1.4698139005,
				"element": "O" 
			},
			{
				"x": -0.3035274782,
				"y": 2.9918866571,
				"z": 1.7082403951,
				"element": "C" 
			},
			{
				"x": 0.2129273856,
				"y": 3.9162872091,
				"z": 2.3036533334,
				"element": "O" 
			},
			{
				"x": 0.4712420702,
				"y": 1.8302428212,
				"z": 1.1623288243,
				"element": "C" 
			},
			{
				"x": -0.0762887647,
				"y": 0.7476643173,
				"z": 0.4681805122,
				"element": "C" 
			},
			{
				"x": 0.7263064412,
				"y": -0.3024936242,
				"z": -0.0102848123,
				"element": "C" 
			},
			{
				"x": 0.0718322187,
				"y": -1.2911404845,
				"z": -0.6673045638,
				"element": "O" 
			},
			{
				"x": 0.8248034663,
				"y": -2.3840058832,
				"z": -1.1787404625,
				"element": "C" 
			},
			{
				"x": 2.1053006172,
				"y": -0.2573627037,
				"z": 0.2169755927,
				"element": "C" 
			},
			{
				"x": 2.6600190049,
				"y": 0.8211802784,
				"z": 0.9098669898,
				"element": "C" 
			},
			{
				"x": 1.8580097848,
				"y": 1.8530689052,
				"z": 1.377919153,
				"element": "C" 
			},
			{
				"x": -1.5234561449,
				"y": 0.6182022572,
				"z": 0.1822474503,
				"element": "N" 
			},
			{
				"x": -2.1963480855,
				"y": 0.0139325672,
				"z": 1.0073439773,
				"element": "O" 
			},
			{
				"x": -1.9205762534,
				"y": 1.0901125543,
				"z": -0.8752864496,
				"element": "O" 
			},
			{
				"x": -3.4478760349,
				"y": 3.7374151962,
				"z": 1.6806316515,
				"element": "H" 
			},
			{
				"x": -2.3337141096,
				"y": 4.0579504281,
				"z": 3.052169491,
				"element": "H" 
			},
			{
				"x": -2.1127641486,
				"y": 4.9271262282,
				"z": 1.5150405035,
				"element": "H" 
			},
			{
				"x": 1.5609461932,
				"y": -2.0505329444,
				"z": -1.920152511,
				"element": "H" 
			},
			{
				"x": 0.1005111236,
				"y": -3.0420724355,
				"z": -1.6589452699,
				"element": "H" 
			},
			{
				"x": 1.3350081863,
				"y": -2.9291549068,
				"z": -0.3754267332,
				"element": "H" 
			},
			{
				"x": 2.7439940067,
				"y": -1.0550807828,
				"z": -0.1422192867,
				"element": "H" 
			},
			{
				"x": 3.7315168954,
				"y": 0.8473775418,
				"z": 1.0813876848,
				"element": "H" 
			},
			{
				"x": 2.2710711338,
				"y": 2.6971287115,
				"z": 1.9169726456,
				"element": "H" 
			}
		],
		 "valence_orbital": [ 
			{
				"type": "occ",
				"energy": -0.30067,
				"method": "rhf"
			},
			{
				"type": "occ",
				"energy": -0.29834,
				"method": "rhf"
			},
			{
				"type": "occ",
				"energy": -0.28464,
				"method": "rhf"
			},
			{
				"type": "occ",
				"energy": -0.27035,
				"method": "rhf"
			},
			{
				"type": "occ",
				"energy": -0.24324,
				"method": "rhf"
			},
			{
				"type": "unocc",
				"energy": -0.06143,
				"method": "rhf"
			},
			{
				"type": "unocc",
				"energy": -0.06092,
				"method": "rhf"
			},
			{
				"type": "unocc",
				"energy": -0.01852,
				"method": "rhf"
			},
			{
				"type": "unocc",
				"energy": 0.04786,
				"method": "rhf"
			},
			{
				"type": "unocc",
				"energy": 0.07031,
				"method": "rhf"
			}
		],
		"cosmo_sigma_profile": { 
			"-0.025": 0.0,
			"-0.024": 0.0,
			"-0.023": 0.0,
			"-0.022": 0.0,
			"-0.021": 0.0,
			"-0.02": 0.0,
			"-0.019": 0.0,
			"-0.018": 0.0,
			"-0.017": 0.0,
			"-0.016": 0.0,
			"-0.015": 0.0,
			"-0.014": 0.0,
			"-0.013": 0.0,
			"-0.012": 0.0,
			"-0.011": 0.0,
			"-0.01": 0.0,
			"-0.009": 0.408183858401,
			"-0.008": 3.39655691423,
			"-0.007": 11.5649289285,
			"-0.006": 20.869092377,
			"-0.005": 20.383140511,
			"-0.004": 22.7409830987,
			"-0.003": 16.5169206361,
			"-0.002": 11.8531297177,
			"-0.001": 11.1105494787,
			"0.0": 15.4704635141,
			"0.001": 15.650367901,
			"0.002": 13.1608236083,
			"0.003": 9.43657114972,
			"0.004": 8.36817808389,
			"0.005": 9.89251862084,
			"0.006": 9.91948051944,
			"0.007": 14.4167306789,
			"0.008": 8.94860290101,
			"0.009": 5.08570774683,
			"0.01": 2.80189612767,
			"0.011": 4.20343955032,
			"0.012": 0.951124454498,
			"0.013": 0.0,
			"0.014": 0.0,
			"0.015": 0.0,
			"0.016": 0.0,
			"0.017": 0.0,
			"0.018": 0.0,
			"0.019": 0.0,
			"0.02": 0.0,
			"0.021": 0.0,
			"0.022": 0.0,
			"0.023": 0.0,
			"0.024": 0.0,
			"0.025": 0.0
		}
	}
}
