{
	 "smiles": "CCCCN1C(C(CCC1=O)C(O)=O)C1=C(OC)C=CC=C1", 
	 "Tm": 562.15, 
	 "num_atms": 45, 
	 "gaussian": { 
		 "optdone": 1, 
		 "sigma_profile": "yes", 
		 "theory": "DFT", 
		 "functional": "B3LYP", 
		 "basiset": "6-31G**", 
		 "properties": { 
			 "R2extent": 7117.6191, 
			 "electric_dipole_moment_norm": 5.35905660075, 
			 "electric_quadrupole_moment_norm": 6.23854699189, 
			 "total_energy": -1017.35273383, 
			 "HOMO_LUMO_gap": 0.21636, 
			 "cosmo_polarized_energy": -17.89, 
			 "cosmo_cavitation_energy": 46.08, 
			 "cosmo_dispersion_energy": -30.21, 
			 "cosmo_repulsion_energy": 2.36, 
			 "cosmo_total_nonelectrostatic_energy": 18.24, 
			 "SMD_solvation_energy": 9.38 
		},
		"coords": [
			{
				"x": 0.2733524652,
				"y": 3.5258218202,
				"z": -4.8076118105,
				"element": "C" 
			},
			{
				"x": -0.1847502854,
				"y": 2.147321661,
				"z": -4.3207427071,
				"element": "C" 
			},
			{
				"x": -0.3367013924,
				"y": 2.0705744714,
				"z": -2.7965787312,
				"element": "C" 
			},
			{
				"x": -0.8202321048,
				"y": 0.6937821834,
				"z": -2.3219808318,
				"element": "C" 
			},
			{
				"x": -0.8833821321,
				"y": 0.595066078,
				"z": -0.8593281769,
				"element": "N" 
			},
			{
				"x": 0.330866579,
				"y": 0.1534802542,
				"z": -0.1675707381,
				"element": "C" 
			},
			{
				"x": 0.4957394188,
				"y": 0.7821669453,
				"z": 1.2557216489,
				"element": "C" 
			},
			{
				"x": -0.7720280495,
				"y": 1.5252760391,
				"z": 1.7414987863,
				"element": "C" 
			},
			{
				"x": -2.0206951877,
				"y": 0.7644082638,
				"z": 1.2887276372,
				"element": "C" 
			},
			{
				"x": -2.0931894103,
				"y": 0.7726813875,
				"z": -0.2317071934,
				"element": "C" 
			},
			{
				"x": -3.137158941,
				"y": 0.9823465894,
				"z": -0.8421676442,
				"element": "O" 
			},
			{
				"x": 1.6782521747,
				"y": 1.7331821052,
				"z": 1.3008395705,
				"element": "C" 
			},
			{
				"x": 2.0911446601,
				"y": 1.9390218777,
				"z": 2.5756540535,
				"element": "O" 
			},
			{
				"x": 2.1894205552,
				"y": 2.2975131591,
				"z": 0.3576610723,
				"element": "O" 
			},
			{
				"x": 0.4579067062,
				"y": -1.3738797001,
				"z": -0.125552635,
				"element": "C" 
			},
			{
				"x": 1.711550297,
				"y": -1.9406384838,
				"z": 0.1948603477,
				"element": "C" 
			},
			{
				"x": 2.7087177245,
				"y": -1.0368973815,
				"z": 0.4541043511,
				"element": "O" 
			},
			{
				"x": 4.0161465084,
				"y": -1.5205167418,
				"z": 0.7220431703,
				"element": "C" 
			},
			{
				"x": 1.8832621237,
				"y": -3.3262585573,
				"z": 0.2362039139,
				"element": "C" 
			},
			{
				"x": 0.8007240739,
				"y": -4.1656029711,
				"z": -0.0454578878,
				"element": "C" 
			},
			{
				"x": -0.4394905288,
				"y": -3.626250472,
				"z": -0.3694395351,
				"element": "C" 
			},
			{
				"x": -0.5991630114,
				"y": -2.2367356125,
				"z": -0.4110580471,
				"element": "C" 
			},
			{
				"x": -0.4439115589,
				"y": 4.3036708478,
				"z": -4.5224978362,
				"element": "H" 
			},
			{
				"x": 1.2427688594,
				"y": 3.7962353247,
				"z": -4.3739347281,
				"element": "H" 
			},
			{
				"x": 0.3764561337,
				"y": 3.5515199431,
				"z": -5.8974591329,
				"element": "H" 
			},
			{
				"x": -1.1418528942,
				"y": 1.8909441719,
				"z": -4.7948902434,
				"element": "H" 
			},
			{
				"x": 0.533346804,
				"y": 1.3850112473,
				"z": -4.6537296276,
				"element": "H" 
			},
			{
				"x": 0.619504667,
				"y": 2.3119525926,
				"z": -2.3135943026,
				"element": "H" 
			},
			{
				"x": -1.0579816301,
				"y": 2.8244008028,
				"z": -2.4566719326,
				"element": "H" 
			},
			{
				"x": -0.1557551818,
				"y": -0.0966356814,
				"z": -2.6908871573,
				"element": "H" 
			},
			{
				"x": -1.8242173865,
				"y": 0.4954935748,
				"z": -2.7033900351,
				"element": "H" 
			},
			{
				"x": 1.1677158987,
				"y": 0.5329992599,
				"z": -0.7595582637,
				"element": "H" 
			},
			{
				"x": 0.7016291705,
				"y": -0.0186094374,
				"z": 1.9705665661,
				"element": "H" 
			},
			{
				"x": -0.8010627832,
				"y": 2.5359505355,
				"z": 1.3178215893,
				"element": "H" 
			},
			{
				"x": -0.7358261158,
				"y": 1.6324942133,
				"z": 2.8293225909,
				"element": "H" 
			},
			{
				"x": -1.9948490185,
				"y": -0.2685895662,
				"z": 1.6598225295,
				"element": "H" 
			},
			{
				"x": -2.9399768622,
				"y": 1.2259501606,
				"z": 1.6547442007,
				"element": "H" 
			},
			{
				"x": 2.8055890792,
				"y": 2.5962096485,
				"z": 2.5244902026,
				"element": "H" 
			},
			{
				"x": 4.0431338845,
				"y": -2.1277466963,
				"z": 1.6356829233,
				"element": "H" 
			},
			{
				"x": 4.6405543951,
				"y": -0.6364738316,
				"z": 0.8577576766,
				"element": "H" 
			},
			{
				"x": 4.4045537197,
				"y": -2.113073972,
				"z": -0.1154677384,
				"element": "H" 
			},
			{
				"x": 2.8465306781,
				"y": -3.7573559919,
				"z": 0.4819046752,
				"element": "H" 
			},
			{
				"x": 0.9403772295,
				"y": -5.2422305273,
				"z": -0.0118317732,
				"element": "H" 
			},
			{
				"x": -1.2802524218,
				"y": -4.2746663624,
				"z": -0.5951495102,
				"element": "H" 
			},
			{
				"x": -1.5625669101,
				"y": -1.8176131712,
				"z": -0.6828692864,
				"element": "H" 
			}
		],
		 "valence_orbital": [ 
			{
				"type": "occ",
				"energy": -0.27954,
				"method": "rhf"
			},
			{
				"type": "occ",
				"energy": -0.2515,
				"method": "rhf"
			},
			{
				"type": "occ",
				"energy": -0.23461,
				"method": "rhf"
			},
			{
				"type": "occ",
				"energy": -0.23064,
				"method": "rhf"
			},
			{
				"type": "occ",
				"energy": -0.22403,
				"method": "rhf"
			},
			{
				"type": "unocc",
				"energy": -0.00767,
				"method": "rhf"
			},
			{
				"type": "unocc",
				"energy": 0.00455,
				"method": "rhf"
			},
			{
				"type": "unocc",
				"energy": 0.00877,
				"method": "rhf"
			},
			{
				"type": "unocc",
				"energy": 0.03602,
				"method": "rhf"
			},
			{
				"type": "unocc",
				"energy": 0.06981,
				"method": "rhf"
			}
		],
		"cosmo_sigma_profile": { 
			"-0.025": 0.0,
			"-0.024": 0.0,
			"-0.023": 0.0,
			"-0.022": 0.0,
			"-0.021": 0.0,
			"-0.02": 0.0,
			"-0.019": 0.0185076064405,
			"-0.018": 0.654099265738,
			"-0.017": 0.980738204899,
			"-0.016": 1.21018790832,
			"-0.015": 0.426192917437,
			"-0.014": 0.521079103563,
			"-0.013": 0.57906734872,
			"-0.012": 0.606400472932,
			"-0.011": 1.44042816134,
			"-0.01": 0.576980816769,
			"-0.009": 0.456216127302,
			"-0.008": 0.778883077107,
			"-0.007": 1.38484105145,
			"-0.006": 9.93080090767,
			"-0.005": 25.5768660033,
			"-0.004": 32.3413941494,
			"-0.003": 39.2442019399,
			"-0.002": 40.7536970286,
			"-0.001": 36.6339943929,
			"0.0": 32.2142084932,
			"0.001": 27.7055597265,
			"0.002": 19.7574918718,
			"0.003": 13.7735490392,
			"0.004": 13.5881778441,
			"0.005": 11.3223807382,
			"0.006": 12.1690325101,
			"0.007": 4.590873103,
			"0.008": 4.721653999,
			"0.009": 4.27112155028,
			"0.01": 3.74269959744,
			"0.011": 5.02571151281,
			"0.012": 3.24055969734,
			"0.013": 2.66002995661,
			"0.014": 5.3893815088,
			"0.015": 1.88178193544,
			"0.016": 0.175194537261,
			"0.017": 0.0,
			"0.018": 0.0,
			"0.019": 0.0,
			"0.02": 0.0,
			"0.021": 0.0,
			"0.022": 0.0,
			"0.023": 0.0,
			"0.024": 0.0,
			"0.025": 0.0
		}
	}
}
