{
	 "smiles": "OC1=CC(=CC=C1)N1C=CC=N1", 
	 "Tm": 405.15, 
	 "num_atms": 20, 
	 "gaussian": { 
		 "optdone": 1, 
		 "sigma_profile": "yes", 
		 "theory": "DFT", 
		 "functional": "B3LYP", 
		 "basiset": "6-31G**", 
		 "properties": { 
			 "R2extent": 2883.303, 
			 "electric_dipole_moment_norm": 1.29898737099, 
			 "electric_quadrupole_moment_norm": 7.23819879252, 
			 "total_energy": -532.476742883, 
			 "HOMO_LUMO_gap": 0.19281, 
			 "cosmo_polarized_energy": -11.02, 
			 "cosmo_cavitation_energy": 24.24, 
			 "cosmo_dispersion_energy": -18.29, 
			 "cosmo_repulsion_energy": 1.42, 
			 "cosmo_total_nonelectrostatic_energy": 7.37, 
			 "SMD_solvation_energy": 4.44 
		},
		"coords": [
			{
				"x": 3.0770139758,
				"y": -1.5002371778,
				"z": -2.9102424445,
				"element": "O" 
			},
			{
				"x": 2.0585157634,
				"y": -0.8578816029,
				"z": -2.2682519025,
				"element": "C" 
			},
			{
				"x": 2.2164262039,
				"y": -0.315953642,
				"z": -0.991799821,
				"element": "C" 
			},
			{
				"x": 1.1396490808,
				"y": 0.3324863923,
				"z": -0.3788390573,
				"element": "C" 
			},
			{
				"x": -0.0905329715,
				"y": 0.4399101858,
				"z": -1.0373064201,
				"element": "C" 
			},
			{
				"x": -0.2246995686,
				"y": -0.1097665745,
				"z": -2.3131841077,
				"element": "C" 
			},
			{
				"x": 0.8342126217,
				"y": -0.7587276823,
				"z": -2.9400260481,
				"element": "C" 
			},
			{
				"x": 1.3236664838,
				"y": 0.8762906215,
				"z": 0.9208198356,
				"element": "N" 
			},
			{
				"x": 0.4194266819,
				"y": 1.5445379505,
				"z": 1.7012902437,
				"element": "C" 
			},
			{
				"x": 1.062203348,
				"y": 1.8743182847,
				"z": 2.8734819811,
				"element": "C" 
			},
			{
				"x": 2.3699453301,
				"y": 1.3596599794,
				"z": 2.7139478682,
				"element": "C" 
			},
			{
				"x": 2.5276408721,
				"y": 0.7594398599,
				"z": 1.5401642895,
				"element": "N" 
			},
			{
				"x": 3.858650424,
				"y": -1.4988277646,
				"z": -2.3424696398,
				"element": "H" 
			},
			{
				"x": 3.1581420203,
				"y": -0.3847136659,
				"z": -0.4589390059,
				"element": "H" 
			},
			{
				"x": -0.9340136467,
				"y": 0.9389529839,
				"z": -0.5765499908,
				"element": "H" 
			},
			{
				"x": -1.1786359518,
				"y": -0.0273601702,
				"z": -2.8256610678,
				"element": "H" 
			},
			{
				"x": 0.7357838217,
				"y": -1.1875580275,
				"z": -3.9309005954,
				"element": "H" 
			},
			{
				"x": -0.5907223153,
				"y": 1.7330776963,
				"z": 1.3760020459,
				"element": "H" 
			},
			{
				"x": 0.6487007719,
				"y": 2.4065850732,
				"z": 3.7168534735,
				"element": "H" 
			},
			{
				"x": 3.2007270545,
				"y": 1.4022672803,
				"z": 3.4056103636,
				"element": "H" 
			}
		],
		 "valence_orbital": [ 
			{
				"type": "occ",
				"energy": -0.29054,
				"method": "rhf"
			},
			{
				"type": "occ",
				"energy": -0.28666,
				"method": "rhf"
			},
			{
				"type": "occ",
				"energy": -0.25313,
				"method": "rhf"
			},
			{
				"type": "occ",
				"energy": -0.23453,
				"method": "rhf"
			},
			{
				"type": "occ",
				"energy": -0.21746,
				"method": "rhf"
			},
			{
				"type": "unocc",
				"energy": -0.02465,
				"method": "rhf"
			},
			{
				"type": "unocc",
				"energy": 0.00403,
				"method": "rhf"
			},
			{
				"type": "unocc",
				"energy": 0.04636,
				"method": "rhf"
			},
			{
				"type": "unocc",
				"energy": 0.07067,
				"method": "rhf"
			},
			{
				"type": "unocc",
				"energy": 0.07168,
				"method": "rhf"
			}
		],
		"cosmo_sigma_profile": { 
			"-0.025": 0.0,
			"-0.024": 0.0,
			"-0.023": 0.0,
			"-0.022": 0.0,
			"-0.021": 0.0,
			"-0.02": 0.0,
			"-0.019": 0.0,
			"-0.018": 0.484294509303,
			"-0.017": 0.946253781438,
			"-0.016": 1.50125906678,
			"-0.015": 1.07890360431,
			"-0.014": 0.729220758897,
			"-0.013": 0.576717789262,
			"-0.012": 1.03451429532,
			"-0.011": 1.33321881149,
			"-0.01": 2.9279563374,
			"-0.009": 3.137842281,
			"-0.008": 2.91632701007,
			"-0.007": 6.21462263022,
			"-0.006": 9.9052122302,
			"-0.005": 10.8873735315,
			"-0.004": 11.0477229047,
			"-0.003": 9.96458351673,
			"-0.002": 10.5084479857,
			"-0.001": 8.59124119739,
			"0.0": 9.28652846891,
			"0.001": 10.5431858915,
			"0.002": 14.2295695566,
			"0.003": 17.9460405982,
			"0.004": 21.8001698448,
			"0.005": 15.1561663469,
			"0.006": 4.42483923637,
			"0.007": 3.33368989849,
			"0.008": 3.11158817409,
			"0.009": 2.88810068045,
			"0.01": 3.09525055084,
			"0.011": 3.72363849661,
			"0.012": 1.64069898694,
			"0.013": 0.028003001545,
			"0.014": 0.0,
			"0.015": 0.0,
			"0.016": 0.0,
			"0.017": 0.0,
			"0.018": 0.0,
			"0.019": 0.0,
			"0.02": 0.0,
			"0.021": 0.0,
			"0.022": 0.0,
			"0.023": 0.0,
			"0.024": 0.0,
			"0.025": 0.0
		}
	}
}
