{
	 "smiles": "ClC(Br)Br", 
	 "Tm": 252.15, 
	 "num_atms": 5, 
	 "gaussian": { 
		 "optdone": 1, 
		 "sigma_profile": "yes", 
		 "theory": "DFT", 
		 "functional": "B3LYP", 
		 "basiset": "6-31G**", 
		 "properties": { 
			 "R2extent": 4598.1206, 
			 "electric_dipole_moment_norm": 1.07600413568, 
			 "electric_quadrupole_moment_norm": 3.71518642332, 
			 "total_energy": -5641.68991674, 
			 "HOMO_LUMO_gap": 0.21997, 
			 "cosmo_polarized_energy": -3.68, 
			 "cosmo_cavitation_energy": 15.28, 
			 "cosmo_dispersion_energy": -12.53, 
			 "cosmo_repulsion_energy": 1.12, 
			 "cosmo_total_nonelectrostatic_energy": 3.87, 
			 "SMD_solvation_energy": 0.07 
		},
		"coords": [
			{
				"x": -2.6226433582,
				"y": 2.3096681575,
				"z": 1.6169105563,
				"element": "Cl" 
			},
			{
				"x": -1.1488156872,
				"y": 2.5731811219,
				"z": 0.6568108826,
				"element": "C" 
			},
			{
				"x": -0.6570014,
				"y": 4.464638422,
				"z": 0.5894947644,
				"element": "Br" 
			},
			{
				"x": -1.3073467569,
				"y": 1.8111825743,
				"z": -1.1371383682,
				"element": "Br" 
			},
			{
				"x": -0.3284927976,
				"y": 2.0569297243,
				"z": 1.1412221649,
				"element": "H" 
			}
		],
		 "valence_orbital": [ 
			{
				"type": "occ",
				"energy": -0.33973,
				"method": "rhf"
			},
			{
				"type": "occ",
				"energy": -0.31546,
				"method": "rhf"
			},
			{
				"type": "occ",
				"energy": -0.30458,
				"method": "rhf"
			},
			{
				"type": "occ",
				"energy": -0.3029,
				"method": "rhf"
			},
			{
				"type": "occ",
				"energy": -0.28886,
				"method": "rhf"
			},
			{
				"type": "unocc",
				"energy": -0.06889,
				"method": "rhf"
			},
			{
				"type": "unocc",
				"energy": -0.01577,
				"method": "rhf"
			},
			{
				"type": "unocc",
				"energy": 0.0049,
				"method": "rhf"
			},
			{
				"type": "unocc",
				"energy": 0.08976,
				"method": "rhf"
			},
			{
				"type": "unocc",
				"energy": 0.32427,
				"method": "rhf"
			}
		],
		"cosmo_sigma_profile": { 
			"-0.025": 0.0,
			"-0.024": 0.0,
			"-0.023": 0.0,
			"-0.022": 0.0,
			"-0.021": 0.0,
			"-0.02": 0.0,
			"-0.019": 0.0,
			"-0.018": 0.0,
			"-0.017": 0.0,
			"-0.016": 0.0,
			"-0.015": 0.0,
			"-0.014": 0.0,
			"-0.013": 0.632742627322,
			"-0.012": 2.68425427786,
			"-0.011": 1.65924284968,
			"-0.01": 1.56506066237,
			"-0.009": 1.24765744146,
			"-0.008": 0.998852256841,
			"-0.007": 1.0150893318,
			"-0.006": 3.53564406306,
			"-0.005": 4.06304476056,
			"-0.004": 5.0864784226,
			"-0.003": 6.2160007251,
			"-0.002": 7.21540327409,
			"-0.001": 8.98763219981,
			"0.0": 9.00802468961,
			"0.001": 12.3959546936,
			"0.002": 17.2800639439,
			"0.003": 35.4274239038,
			"0.004": 12.2827814975,
			"0.005": 0.0,
			"0.006": 0.0,
			"0.007": 0.0,
			"0.008": 0.0,
			"0.009": 0.0,
			"0.01": 0.0,
			"0.011": 0.0,
			"0.012": 0.0,
			"0.013": 0.0,
			"0.014": 0.0,
			"0.015": 0.0,
			"0.016": 0.0,
			"0.017": 0.0,
			"0.018": 0.0,
			"0.019": 0.0,
			"0.02": 0.0,
			"0.021": 0.0,
			"0.022": 0.0,
			"0.023": 0.0,
			"0.024": 0.0,
			"0.025": 0.0
		}
	}
}
