{
	 "smiles": "CC1=CC=C(C)N1", 
	 "Tm": 280.85, 
	 "num_atms": 16, 
	 "gaussian": { 
		 "optdone": 1, 
		 "sigma_profile": "yes", 
		 "theory": "DFT", 
		 "functional": "B3LYP", 
		 "basiset": "6-31G**", 
		 "properties": { 
			 "R2extent": 863.6907, 
			 "electric_dipole_moment_norm": 1.95172421464, 
			 "electric_quadrupole_moment_norm": 3.4934718476, 
			 "total_energy": -288.815941412, 
			 "HOMO_LUMO_gap": 0.23337, 
			 "cosmo_polarized_energy": -6.55, 
			 "cosmo_cavitation_energy": 19.03, 
			 "cosmo_dispersion_energy": -14.22, 
			 "cosmo_repulsion_energy": 1.22, 
			 "cosmo_total_nonelectrostatic_energy": 6.03, 
			 "SMD_solvation_energy": 3.53 
		},
		"coords": [
			{
				"x": 1.7219370754,
				"y": 1.0401875153,
				"z": 1.1927304088,
				"element": "C" 
			},
			{
				"x": 0.6399377084,
				"y": 0.8317866624,
				"z": 0.1820130823,
				"element": "C" 
			},
			{
				"x": 0.2418468068,
				"y": 1.5944549967,
				"z": -0.8958484037,
				"element": "C" 
			},
			{
				"x": -0.8481688087,
				"y": 0.9251530336,
				"z": -1.5277984792,
				"element": "C" 
			},
			{
				"x": -1.0977061249,
				"y": -0.235095361,
				"z": -0.8253179475,
				"element": "C" 
			},
			{
				"x": -2.112482542,
				"y": -1.3139899103,
				"z": -1.0300096099,
				"element": "C" 
			},
			{
				"x": -0.1844285817,
				"y": -0.2769268736,
				"z": 0.2109572506,
				"element": "N" 
			},
			{
				"x": 2.2483365152,
				"y": 1.9747080138,
				"z": 0.9836757191,
				"element": "H" 
			},
			{
				"x": 2.4665598111,
				"y": 0.2332025301,
				"z": 1.1794818655,
				"element": "H" 
			},
			{
				"x": 1.3299373682,
				"y": 1.105408016,
				"z": 2.2164224528,
				"element": "H" 
			},
			{
				"x": 0.6887983499,
				"y": 2.532862656,
				"z": -1.1952500563,
				"element": "H" 
			},
			{
				"x": -1.3930703032,
				"y": 1.2545728346,
				"z": -2.402199801,
				"element": "H" 
			},
			{
				"x": -1.6498415837,
				"y": -2.2940958484,
				"z": -1.2066783776,
				"element": "H" 
			},
			{
				"x": -2.7290953649,
				"y": -1.0812352141,
				"z": -1.9016468362,
				"element": "H" 
			},
			{
				"x": -2.7863912756,
				"y": -1.4217967886,
				"z": -0.1697302103,
				"element": "H" 
			},
			{
				"x": -0.1273690503,
				"y": -1.0153962624,
				"z": 0.8946989425,
				"element": "H" 
			}
		],
		 "valence_orbital": [ 
			{
				"type": "occ",
				"energy": -0.35847,
				"method": "rhf"
			},
			{
				"type": "occ",
				"energy": -0.35651,
				"method": "rhf"
			},
			{
				"type": "occ",
				"energy": -0.34483,
				"method": "rhf"
			},
			{
				"type": "occ",
				"energy": -0.22653,
				"method": "rhf"
			},
			{
				"type": "occ",
				"energy": -0.18438,
				"method": "rhf"
			},
			{
				"type": "unocc",
				"energy": 0.04899,
				"method": "rhf"
			},
			{
				"type": "unocc",
				"energy": 0.08354,
				"method": "rhf"
			},
			{
				"type": "unocc",
				"energy": 0.10146,
				"method": "rhf"
			},
			{
				"type": "unocc",
				"energy": 0.11842,
				"method": "rhf"
			},
			{
				"type": "unocc",
				"energy": 0.13279,
				"method": "rhf"
			}
		],
		"cosmo_sigma_profile": { 
			"-0.025": 0.0,
			"-0.024": 0.0,
			"-0.023": 0.0,
			"-0.022": 0.0,
			"-0.021": 0.0,
			"-0.02": 0.0,
			"-0.019": 0.0,
			"-0.018": 0.0,
			"-0.017": 0.0,
			"-0.016": 0.0,
			"-0.015": 0.0161151467417,
			"-0.014": 1.25236605166,
			"-0.013": 0.894982549261,
			"-0.012": 1.08241496158,
			"-0.011": 1.70988048858,
			"-0.01": 0.315908861229,
			"-0.009": 1.41704333761,
			"-0.008": 1.54013256148,
			"-0.007": 1.17545145931,
			"-0.006": 0.975845301596,
			"-0.005": 2.25838433977,
			"-0.004": 14.1078597892,
			"-0.003": 16.9632121393,
			"-0.002": 16.6721156149,
			"-0.001": 16.1112174971,
			"0.0": 17.0585540581,
			"0.001": 11.8969610968,
			"0.002": 5.64307038892,
			"0.003": 5.77239416395,
			"0.004": 4.59552369876,
			"0.005": 5.13129222714,
			"0.006": 4.34875431288,
			"0.007": 5.25126286744,
			"0.008": 4.61403788312,
			"0.009": 4.3747882456,
			"0.01": 3.79926986512,
			"0.011": 0.806209209789,
			"0.012": 0.0,
			"0.013": 0.0,
			"0.014": 0.0,
			"0.015": 0.0,
			"0.016": 0.0,
			"0.017": 0.0,
			"0.018": 0.0,
			"0.019": 0.0,
			"0.02": 0.0,
			"0.021": 0.0,
			"0.022": 0.0,
			"0.023": 0.0,
			"0.024": 0.0,
			"0.025": 0.0
		}
	}
}
