{
	 "smiles": "CC(=O)C1=CC(=CC=C1)S(=O)(=O)N1CCC(CC1)C(O)=O", 
	 "Tm": 396.15, 
	 "num_atms": 38, 
	 "gaussian": { 
		 "optdone": 1, 
		 "sigma_profile": "yes", 
		 "theory": "DFT", 
		 "functional": "B3LYP", 
		 "basiset": "6-31G**", 
		 "properties": { 
			 "R2extent": 9117.8637, 
			 "electric_dipole_moment_norm": 3.79203417442, 
			 "electric_quadrupole_moment_norm": 18.9811014807, 
			 "total_energy": -1372.74075436, 
			 "HOMO_LUMO_gap": 0.17878, 
			 "cosmo_polarized_energy": -21.83, 
			 "cosmo_cavitation_energy": 42.22, 
			 "cosmo_dispersion_energy": -29.5, 
			 "cosmo_repulsion_energy": 2.23, 
			 "cosmo_total_nonelectrostatic_energy": 14.94, 
			 "SMD_solvation_energy": 6.86 
		},
		"coords": [
			{
				"x": -0.1923802626,
				"y": 2.5135306237,
				"z": 3.6824154629,
				"element": "C" 
			},
			{
				"x": -1.5528821886,
				"y": 1.9619746098,
				"z": 3.2979351777,
				"element": "C" 
			},
			{
				"x": -2.5796099074,
				"y": 2.5208541292,
				"z": 3.6495174657,
				"element": "O" 
			},
			{
				"x": -1.6203838721,
				"y": 0.706864285,
				"z": 2.472398266,
				"element": "C" 
			},
			{
				"x": -0.4764932747,
				"y": 0.0406925744,
				"z": 2.0204006521,
				"element": "C" 
			},
			{
				"x": -0.6158892208,
				"y": -1.1227311452,
				"z": 1.2618427382,
				"element": "C" 
			},
			{
				"x": -1.8712557552,
				"y": -1.6473743137,
				"z": 0.9564752344,
				"element": "C" 
			},
			{
				"x": -3.0131022391,
				"y": -0.9766701486,
				"z": 1.4070534581,
				"element": "C" 
			},
			{
				"x": -2.8881681819,
				"y": 0.1895161463,
				"z": 2.1540440775,
				"element": "C" 
			},
			{
				"x": 0.8643114561,
				"y": -1.97517419,
				"z": 0.7014371503,
				"element": "S" 
			},
			{
				"x": 0.4445815148,
				"y": -3.3074655301,
				"z": 0.244420998,
				"element": "O" 
			},
			{
				"x": 1.8954316512,
				"y": -1.8268035595,
				"z": 1.7357519844,
				"element": "O" 
			},
			{
				"x": 1.3463470936,
				"y": -1.0150383772,
				"z": -0.6062266098,
				"element": "N" 
			},
			{
				"x": 0.5821210999,
				"y": -1.2475975253,
				"z": -1.8556765976,
				"element": "C" 
			},
			{
				"x": 1.1959640579,
				"y": -0.4255654156,
				"z": -2.9891685011,
				"element": "C" 
			},
			{
				"x": 2.6466705016,
				"y": -0.8595963087,
				"z": -3.2952207697,
				"element": "C" 
			},
			{
				"x": 3.3439959638,
				"y": -1.4408012268,
				"z": -2.0303541506,
				"element": "C" 
			},
			{
				"x": 2.8007488682,
				"y": -0.7692944987,
				"z": -0.7678448681,
				"element": "C" 
			},
			{
				"x": 2.7057386952,
				"y": -1.860319836,
				"z": -4.4377680603,
				"element": "C" 
			},
			{
				"x": 3.9856273278,
				"y": -2.1849943852,
				"z": -4.7420552784,
				"element": "O" 
			},
			{
				"x": 1.7584262439,
				"y": -2.3368484786,
				"z": -5.0244732601,
				"element": "O" 
			},
			{
				"x": -0.3372306191,
				"y": 3.4132241535,
				"z": 4.2807161749,
				"element": "H" 
			},
			{
				"x": 0.3974937556,
				"y": 2.7604586978,
				"z": 2.7926738132,
				"element": "H" 
			},
			{
				"x": 0.3806368268,
				"y": 1.7797108123,
				"z": 4.2598524892,
				"element": "H" 
			},
			{
				"x": 0.5181727101,
				"y": 0.3999697856,
				"z": 2.2578772623,
				"element": "H" 
			},
			{
				"x": -1.9418160987,
				"y": -2.5701577358,
				"z": 0.3910977287,
				"element": "H" 
			},
			{
				"x": -3.9967745313,
				"y": -1.3742351987,
				"z": 1.1768382967,
				"element": "H" 
			},
			{
				"x": -3.75973847,
				"y": 0.7244933026,
				"z": 2.516003782,
				"element": "H" 
			},
			{
				"x": -0.4561034912,
				"y": -0.9422233542,
				"z": -1.6879162561,
				"element": "H" 
			},
			{
				"x": 0.5742117711,
				"y": -2.3109140234,
				"z": -2.1249267343,
				"element": "H" 
			},
			{
				"x": 1.1777032824,
				"y": 0.6341848254,
				"z": -2.7148011429,
				"element": "H" 
			},
			{
				"x": 0.5795657469,
				"y": -0.5478788045,
				"z": -3.8828289024,
				"element": "H" 
			},
			{
				"x": 3.222239829,
				"y": 0.0137516608,
				"z": -3.6266193095,
				"element": "H" 
			},
			{
				"x": 3.1685888721,
				"y": -2.5201551698,
				"z": -1.958363281,
				"element": "H" 
			},
			{
				"x": 4.4263967342,
				"y": -1.3012644965,
				"z": -2.0968733947,
				"element": "H" 
			},
			{
				"x": 3.3130680089,
				"y": -1.1322665429,
				"z": 0.1235483491,
				"element": "H" 
			},
			{
				"x": 2.9643173517,
				"y": 0.3152897593,
				"z": -0.8166047723,
				"element": "H" 
			},
			{
				"x": 3.9379687498,
				"y": -2.8355451008,
				"z": -5.4628786725,
				"element": "H" 
			}
		],
		 "valence_orbital": [ 
			{
				"type": "occ",
				"energy": -0.28416,
				"method": "rhf"
			},
			{
				"type": "occ",
				"energy": -0.28268,
				"method": "rhf"
			},
			{
				"type": "occ",
				"energy": -0.27805,
				"method": "rhf"
			},
			{
				"type": "occ",
				"energy": -0.25883,
				"method": "rhf"
			},
			{
				"type": "occ",
				"energy": -0.24827,
				"method": "rhf"
			},
			{
				"type": "unocc",
				"energy": -0.06949,
				"method": "rhf"
			},
			{
				"type": "unocc",
				"energy": -0.04229,
				"method": "rhf"
			},
			{
				"type": "unocc",
				"energy": -0.00133,
				"method": "rhf"
			},
			{
				"type": "unocc",
				"energy": 0.01979,
				"method": "rhf"
			},
			{
				"type": "unocc",
				"energy": 0.05569,
				"method": "rhf"
			}
		],
		"cosmo_sigma_profile": { 
			"-0.025": 0.0,
			"-0.024": 0.0,
			"-0.023": 0.0,
			"-0.022": 0.0,
			"-0.021": 0.0,
			"-0.02": 0.0,
			"-0.019": 0.00696551251321,
			"-0.018": 0.614302182905,
			"-0.017": 0.969275269383,
			"-0.016": 1.20025531281,
			"-0.015": 0.446981463216,
			"-0.014": 0.500505047005,
			"-0.013": 0.544396496075,
			"-0.012": 0.812227904114,
			"-0.011": 1.26467282969,
			"-0.01": 0.658507498704,
			"-0.009": 0.449275844995,
			"-0.008": 2.66607192928,
			"-0.007": 11.4411566419,
			"-0.006": 18.2764750083,
			"-0.005": 28.4570982942,
			"-0.004": 34.2003262275,
			"-0.003": 31.6969978978,
			"-0.002": 27.6604069002,
			"-0.001": 23.4154493326,
			"0.0": 19.1591633621,
			"0.001": 22.9088282358,
			"0.002": 16.4164370346,
			"0.003": 9.20991305864,
			"0.004": 7.31532093573,
			"0.005": 6.9212390649,
			"0.006": 7.1900281618,
			"0.007": 7.38474090095,
			"0.008": 8.0294162854,
			"0.009": 8.33491318149,
			"0.01": 10.9733618576,
			"0.011": 14.673571425,
			"0.012": 8.70225446083,
			"0.013": 0.83903613093,
			"0.014": 0.0,
			"0.015": 0.0,
			"0.016": 0.0,
			"0.017": 0.0,
			"0.018": 0.0,
			"0.019": 0.0,
			"0.02": 0.0,
			"0.021": 0.0,
			"0.022": 0.0,
			"0.023": 0.0,
			"0.024": 0.0,
			"0.025": 0.0
		}
	}
}
