{
	 "smiles": "OCCOCCO", 
	 "Tm": 262.95, 
	 "num_atms": 17, 
	 "gaussian": { 
		 "optdone": 1, 
		 "sigma_profile": "yes", 
		 "theory": "DFT", 
		 "functional": "B3LYP", 
		 "basiset": "6-31G**", 
		 "properties": { 
			 "R2extent": 1572.9004, 
			 "electric_dipole_moment_norm": 3.24332086757, 
			 "electric_quadrupole_moment_norm": 8.00464122307, 
			 "total_energy": -384.080468542, 
			 "HOMO_LUMO_gap": 0.30641, 
			 "cosmo_polarized_energy": -12.16, 
			 "cosmo_cavitation_energy": 19.83, 
			 "cosmo_dispersion_energy": -14.82, 
			 "cosmo_repulsion_energy": 1.32, 
			 "cosmo_total_nonelectrostatic_energy": 6.33, 
			 "SMD_solvation_energy": 3.75 
		},
		"coords": [
			{
				"x": 0.9860043584,
				"y": -0.2159799434,
				"z": -0.1333201961,
				"element": "O" 
			},
			{
				"x": 0.2634937092,
				"y": -1.1309051343,
				"z": 0.6852146641,
				"element": "C" 
			},
			{
				"x": -1.2166585025,
				"y": -0.7796846452,
				"z": 0.6336420475,
				"element": "C" 
			},
			{
				"x": -1.8349666064,
				"y": -1.1468869461,
				"z": -0.5885328768,
				"element": "O" 
			},
			{
				"x": -1.778121117,
				"y": -0.1735893762,
				"z": -1.6289083213,
				"element": "C" 
			},
			{
				"x": -2.9732118432,
				"y": 0.7822642929,
				"z": -1.5671719611,
				"element": "C" 
			},
			{
				"x": -2.9573757959,
				"y": 1.711095612,
				"z": -2.6432502756,
				"element": "O" 
			},
			{
				"x": 1.8799042972,
				"y": -0.5573466286,
				"z": -0.2560098666,
				"element": "H" 
			},
			{
				"x": 0.6026082697,
				"y": -1.0789025081,
				"z": 1.7339016631,
				"element": "H" 
			},
			{
				"x": 0.3862800099,
				"y": -2.1675117399,
				"z": 0.3389790642,
				"element": "H" 
			},
			{
				"x": -1.7330728226,
				"y": -1.3378662776,
				"z": 1.4236773575,
				"element": "H" 
			},
			{
				"x": -1.3384194004,
				"y": 0.292435932,
				"z": 0.847340601,
				"element": "H" 
			},
			{
				"x": -0.8327072275,
				"y": 0.3822593342,
				"z": -1.5934700913,
				"element": "H" 
			},
			{
				"x": -1.8085647673,
				"y": -0.7208136595,
				"z": -2.576913455,
				"element": "H" 
			},
			{
				"x": -3.0041918932,
				"y": 1.290940041,
				"z": -0.5900770983,
				"element": "H" 
			},
			{
				"x": -3.9012329085,
				"y": 0.2112558916,
				"z": -1.6638416032,
				"element": "H" 
			},
			{
				"x": -2.1733677599,
				"y": 2.2662357553,
				"z": -2.5407596523,
				"element": "H" 
			}
		],
		 "valence_orbital": [ 
			{
				"type": "occ",
				"energy": -0.32328,
				"method": "rhf"
			},
			{
				"type": "occ",
				"energy": -0.30831,
				"method": "rhf"
			},
			{
				"type": "occ",
				"energy": -0.28138,
				"method": "rhf"
			},
			{
				"type": "occ",
				"energy": -0.27215,
				"method": "rhf"
			},
			{
				"type": "occ",
				"energy": -0.23824,
				"method": "rhf"
			},
			{
				"type": "unocc",
				"energy": 0.06817,
				"method": "rhf"
			},
			{
				"type": "unocc",
				"energy": 0.07726,
				"method": "rhf"
			},
			{
				"type": "unocc",
				"energy": 0.1017,
				"method": "rhf"
			},
			{
				"type": "unocc",
				"energy": 0.12546,
				"method": "rhf"
			},
			{
				"type": "unocc",
				"energy": 0.14378,
				"method": "rhf"
			}
		],
		"cosmo_sigma_profile": { 
			"-0.025": 0.0,
			"-0.024": 0.0,
			"-0.023": 0.0,
			"-0.022": 0.0,
			"-0.021": 0.0,
			"-0.02": 0.0,
			"-0.019": 0.0,
			"-0.018": 0.0,
			"-0.017": 0.0,
			"-0.016": 0.78332759711,
			"-0.015": 1.9170325072,
			"-0.014": 2.64798293983,
			"-0.013": 1.43930114335,
			"-0.012": 2.02257050941,
			"-0.011": 1.88264754967,
			"-0.01": 1.35627594579,
			"-0.009": 1.48464183309,
			"-0.008": 1.59691498879,
			"-0.007": 2.40687680316,
			"-0.006": 2.63959661082,
			"-0.005": 6.40531817771,
			"-0.004": 17.8380152388,
			"-0.003": 19.805694742,
			"-0.002": 13.5053713048,
			"-0.001": 10.6603173577,
			"0.0": 6.94977108682,
			"0.001": 5.35613520547,
			"0.002": 4.00024781519,
			"0.003": 4.43373772614,
			"0.004": 5.01072050826,
			"0.005": 4.02545081337,
			"0.006": 3.23037744296,
			"0.007": 5.35793258742,
			"0.008": 4.8756581022,
			"0.009": 3.38523652849,
			"0.01": 3.17563611386,
			"0.011": 2.80372440526,
			"0.012": 3.7013542756,
			"0.013": 4.38684680317,
			"0.014": 3.19022364568,
			"0.015": 0.845686106848,
			"0.016": 0.0,
			"0.017": 0.0,
			"0.018": 0.0,
			"0.019": 0.0,
			"0.02": 0.0,
			"0.021": 0.0,
			"0.022": 0.0,
			"0.023": 0.0,
			"0.024": 0.0,
			"0.025": 0.0
		}
	}
}
