{
	 "smiles": "BrC1=CC=C(SC2=CC=C(Br)C=C2)C=C1", 
	 "Tm": 388.15, 
	 "num_atms": 23, 
	 "gaussian": { 
		 "optdone": 1, 
		 "sigma_profile": "yes", 
		 "theory": "DFT", 
		 "functional": "B3LYP", 
		 "basiset": "6-31G**", 
		 "properties": { 
			 "R2extent": 11357.0365, 
			 "electric_dipole_moment_norm": 0.349166980111, 
			 "electric_quadrupole_moment_norm": 9.58007522935, 
			 "total_energy": -6003.09091468, 
			 "HOMO_LUMO_gap": 0.18295, 
			 "cosmo_polarized_energy": -6.33, 
			 "cosmo_cavitation_energy": 34.13, 
			 "cosmo_dispersion_energy": -25.65, 
			 "cosmo_repulsion_energy": 1.98, 
			 "cosmo_total_nonelectrostatic_energy": 10.45, 
			 "SMD_solvation_energy": 2.93 
		},
		"coords": [
			{
				"x": -4.4314172771,
				"y": 4.2441348896,
				"z": -1.8566044471,
				"element": "Br" 
			},
			{
				"x": -3.2586436629,
				"y": 3.2252395157,
				"z": -0.7456330693,
				"element": "C" 
			},
			{
				"x": -2.939829664,
				"y": 1.9148037965,
				"z": -1.104470919,
				"element": "C" 
			},
			{
				"x": -2.0915098674,
				"y": 1.168831305,
				"z": -0.2892575834,
				"element": "C" 
			},
			{
				"x": -1.5407138138,
				"y": 1.7366945029,
				"z": 0.8682996346,
				"element": "C" 
			},
			{
				"x": -0.5094484711,
				"y": 0.8003316334,
				"z": 1.99564712,
				"element": "S" 
			},
			{
				"x": 0.6432376009,
				"y": -0.0342169546,
				"z": 0.9065859558,
				"element": "C" 
			},
			{
				"x": 0.9341307223,
				"y": -1.380809934,
				"z": 1.1574097815,
				"element": "C" 
			},
			{
				"x": 1.8879837225,
				"y": -2.0537836718,
				"z": 0.3923411209,
				"element": "C" 
			},
			{
				"x": 2.5341867956,
				"y": -1.377682373,
				"z": -0.6397419761,
				"element": "C" 
			},
			{
				"x": 3.8257953346,
				"y": -2.2968199774,
				"z": -1.7049706554,
				"element": "Br" 
			},
			{
				"x": 2.2502864816,
				"y": -0.0381820101,
				"z": -0.9095698123,
				"element": "C" 
			},
			{
				"x": 1.3144691625,
				"y": 0.6344315931,
				"z": -0.1269150102,
				"element": "C" 
			},
			{
				"x": -1.864409147,
				"y": 3.0559911722,
				"z": 1.2081966856,
				"element": "C" 
			},
			{
				"x": -2.7325860991,
				"y": 3.8007926854,
				"z": 0.4084424553,
				"element": "C" 
			},
			{
				"x": -3.3606792431,
				"y": 1.4777524853,
				"z": -2.0029483649,
				"element": "H" 
			},
			{
				"x": -1.855351903,
				"y": 0.1443344845,
				"z": -0.5573969387,
				"element": "H" 
			},
			{
				"x": 0.4107345309,
				"y": -1.9084968997,
				"z": 1.9485815519,
				"element": "H" 
			},
			{
				"x": 2.1128352789,
				"y": -3.0958850498,
				"z": 0.5888312613,
				"element": "H" 
			},
			{
				"x": 2.7646275157,
				"y": 0.4771066455,
				"z": -1.7128909252,
				"element": "H" 
			},
			{
				"x": 1.1041216912,
				"y": 1.6804354711,
				"z": -0.3241284148,
				"element": "H" 
			},
			{
				"x": -1.4333361859,
				"y": 3.5064570548,
				"z": 2.0967951365,
				"element": "H" 
			},
			{
				"x": -2.9830835024,
				"y": 4.8215396354,
				"z": 0.6738974128,
				"element": "H" 
			}
		],
		 "valence_orbital": [ 
			{
				"type": "occ",
				"energy": -0.27834,
				"method": "rhf"
			},
			{
				"type": "occ",
				"energy": -0.27568,
				"method": "rhf"
			},
			{
				"type": "occ",
				"energy": -0.27164,
				"method": "rhf"
			},
			{
				"type": "occ",
				"energy": -0.25409,
				"method": "rhf"
			},
			{
				"type": "occ",
				"energy": -0.21927,
				"method": "rhf"
			},
			{
				"type": "unocc",
				"energy": -0.03632,
				"method": "rhf"
			},
			{
				"type": "unocc",
				"energy": -0.03038,
				"method": "rhf"
			},
			{
				"type": "unocc",
				"energy": -0.02849,
				"method": "rhf"
			},
			{
				"type": "unocc",
				"energy": -0.01747,
				"method": "rhf"
			},
			{
				"type": "unocc",
				"energy": 0.00183,
				"method": "rhf"
			}
		],
		"cosmo_sigma_profile": { 
			"-0.025": 0.0,
			"-0.024": 0.0,
			"-0.023": 0.0,
			"-0.022": 0.0,
			"-0.021": 0.0,
			"-0.02": 0.0,
			"-0.019": 0.0,
			"-0.018": 0.0,
			"-0.017": 0.0,
			"-0.016": 0.0,
			"-0.015": 0.0,
			"-0.014": 0.0,
			"-0.013": 0.0,
			"-0.012": 0.0,
			"-0.011": 0.0,
			"-0.01": 0.0,
			"-0.009": 0.0,
			"-0.008": 1.49323957379,
			"-0.007": 12.8871749182,
			"-0.006": 15.7543779948,
			"-0.005": 14.1076704496,
			"-0.004": 15.4388115345,
			"-0.003": 16.4879633768,
			"-0.002": 16.6766913141,
			"-0.001": 17.443007238,
			"0.0": 22.3306209571,
			"0.001": 28.5985067802,
			"0.002": 39.753147327,
			"0.003": 38.4179001092,
			"0.004": 26.7112604049,
			"0.005": 12.2170991488,
			"0.006": 2.43802339921,
			"0.007": 2.20305366691,
			"0.008": 0.437054085781,
			"0.009": 0.0,
			"0.01": 0.0,
			"0.011": 0.0,
			"0.012": 0.0,
			"0.013": 0.0,
			"0.014": 0.0,
			"0.015": 0.0,
			"0.016": 0.0,
			"0.017": 0.0,
			"0.018": 0.0,
			"0.019": 0.0,
			"0.02": 0.0,
			"0.021": 0.0,
			"0.022": 0.0,
			"0.023": 0.0,
			"0.024": 0.0,
			"0.025": 0.0
		}
	}
}
