{
	 "smiles": "CCOC(=O)C1=C2N=CC3=C(N2N=C1)C(=O)OCC3", 
	 "Tm": 520.15, 
	 "num_atms": 30, 
	 "gaussian": { 
		 "optdone": 1, 
		 "sigma_profile": "yes", 
		 "theory": "DFT", 
		 "functional": "B3LYP", 
		 "basiset": "6-31G**", 
		 "properties": { 
			 "R2extent": 7183.0059, 
			 "electric_dipole_moment_norm": 3.9488071642, 
			 "electric_quadrupole_moment_norm": 38.3594302024, 
			 "total_energy": -929.037118734, 
			 "HOMO_LUMO_gap": 0.14605, 
			 "cosmo_polarized_energy": -24.32, 
			 "cosmo_cavitation_energy": 34.95, 
			 "cosmo_dispersion_energy": -25.71, 
			 "cosmo_repulsion_energy": 1.98, 
			 "cosmo_total_nonelectrostatic_energy": 11.22, 
			 "SMD_solvation_energy": 5.91 
		},
		"coords": [
			{
				"x": 3.1670715407,
				"y": -4.4220919862,
				"z": -2.5288459231,
				"element": "C" 
			},
			{
				"x": 1.6801632905,
				"y": -4.6455417611,
				"z": -2.7631362316,
				"element": "C" 
			},
			{
				"x": 0.8781794005,
				"y": -3.7773644818,
				"z": -1.9305828168,
				"element": "O" 
			},
			{
				"x": 0.6369233425,
				"y": -2.5311902735,
				"z": -2.4193584231,
				"element": "C" 
			},
			{
				"x": 1.0467139162,
				"y": -2.1305248951,
				"z": -3.4898623481,
				"element": "O" 
			},
			{
				"x": -0.1829397601,
				"y": -1.7636556926,
				"z": -1.4733242914,
				"element": "C" 
			},
			{
				"x": -0.6361616657,
				"y": -0.4433262919,
				"z": -1.6158314667,
				"element": "C" 
			},
			{
				"x": -0.4739891309,
				"y": 0.4806707356,
				"z": -2.5764262352,
				"element": "N" 
			},
			{
				"x": -1.0163214934,
				"y": 1.662652712,
				"z": -2.375616675,
				"element": "C" 
			},
			{
				"x": -1.7678243689,
				"y": 2.0054908552,
				"z": -1.2185696913,
				"element": "C" 
			},
			{
				"x": -1.9585455591,
				"y": 1.0458361955,
				"z": -0.2435838758,
				"element": "C" 
			},
			{
				"x": -1.374386692,
				"y": -0.1801624767,
				"z": -0.4390692426,
				"element": "N" 
			},
			{
				"x": -1.3912577693,
				"y": -1.2325921285,
				"z": 0.4084979567,
				"element": "N" 
			},
			{
				"x": -0.679170463,
				"y": -2.1708854151,
				"z": -0.2213158203,
				"element": "C" 
			},
			{
				"x": -2.8660309231,
				"y": 1.2920106226,
				"z": 0.928020303,
				"element": "C" 
			},
			{
				"x": -3.3938254802,
				"y": 0.4252668093,
				"z": 1.5745753944,
				"element": "O" 
			},
			{
				"x": -3.1448929251,
				"y": 2.5988066829,
				"z": 1.1822698982,
				"element": "O" 
			},
			{
				"x": -2.4119699383,
				"y": 3.6364229637,
				"z": 0.501875425,
				"element": "C" 
			},
			{
				"x": -2.3611931157,
				"y": 3.3720762611,
				"z": -0.9957119897,
				"element": "C" 
			},
			{
				"x": 3.7483884083,
				"y": -5.1431983812,
				"z": -3.1133332378,
				"element": "H" 
			},
			{
				"x": 3.4563005008,
				"y": -3.4155443927,
				"z": -2.8404678124,
				"element": "H" 
			},
			{
				"x": 3.419490906,
				"y": -4.5531843314,
				"z": -1.4723615268,
				"element": "H" 
			},
			{
				"x": 1.3767107364,
				"y": -5.6550438053,
				"z": -2.474755274,
				"element": "H" 
			},
			{
				"x": 1.4175462015,
				"y": -4.4722730878,
				"z": -3.8094893607,
				"element": "H" 
			},
			{
				"x": -0.86562181,
				"y": 2.4093213954,
				"z": -3.1540662907,
				"element": "H" 
			},
			{
				"x": -0.5365899782,
				"y": -3.1312678408,
				"z": 0.253492855,
				"element": "H" 
			},
			{
				"x": -2.9406303784,
				"y": 4.5603750245,
				"z": 0.741910431,
				"element": "H" 
			},
			{
				"x": -1.3985829885,
				"y": 3.6925175641,
				"z": 0.9186509911,
				"element": "H" 
			},
			{
				"x": -3.3719693573,
				"y": 3.4339115561,
				"z": -1.4203302669,
				"element": "H" 
			},
			{
				"x": -1.7562844463,
				"y": 4.1392878637,
				"z": -1.4908544544,
				"element": "H" 
			}
		],
		 "valence_orbital": [ 
			{
				"type": "occ",
				"energy": -0.2919,
				"method": "rhf"
			},
			{
				"type": "occ",
				"energy": -0.27578,
				"method": "rhf"
			},
			{
				"type": "occ",
				"energy": -0.26887,
				"method": "rhf"
			},
			{
				"type": "occ",
				"energy": -0.2647,
				"method": "rhf"
			},
			{
				"type": "occ",
				"energy": -0.24318,
				"method": "rhf"
			},
			{
				"type": "unocc",
				"energy": -0.09713,
				"method": "rhf"
			},
			{
				"type": "unocc",
				"energy": -0.04141,
				"method": "rhf"
			},
			{
				"type": "unocc",
				"energy": -0.00241,
				"method": "rhf"
			},
			{
				"type": "unocc",
				"energy": 0.01977,
				"method": "rhf"
			},
			{
				"type": "unocc",
				"energy": 0.07577,
				"method": "rhf"
			}
		],
		"cosmo_sigma_profile": { 
			"-0.025": 0.0,
			"-0.024": 0.0,
			"-0.023": 0.0,
			"-0.022": 0.0,
			"-0.021": 0.0,
			"-0.02": 0.0,
			"-0.019": 0.0,
			"-0.018": 0.0,
			"-0.017": 0.0,
			"-0.016": 0.0,
			"-0.015": 0.0,
			"-0.014": 0.0,
			"-0.013": 0.0,
			"-0.012": 0.0,
			"-0.011": 0.0,
			"-0.01": 0.0490489551434,
			"-0.009": 3.99231983345,
			"-0.008": 9.34911622447,
			"-0.007": 20.3377034891,
			"-0.006": 20.8373795797,
			"-0.005": 21.1413481644,
			"-0.004": 22.8500581765,
			"-0.003": 20.5976259098,
			"-0.002": 19.6647104311,
			"-0.001": 18.2495028712,
			"0.0": 20.9942421939,
			"0.001": 14.0141733934,
			"0.002": 8.61658618008,
			"0.003": 7.65231098994,
			"0.004": 7.17463769288,
			"0.005": 6.20744876335,
			"0.006": 7.5702416857,
			"0.007": 4.48130346075,
			"0.008": 5.19462555585,
			"0.009": 6.39398759288,
			"0.01": 8.38753339542,
			"0.011": 7.74040095852,
			"0.012": 7.02032279651,
			"0.013": 3.36287833326,
			"0.014": 2.72572108102,
			"0.015": 2.77118459532,
			"0.016": 1.83306945404,
			"0.017": 0.172657069267,
			"0.018": 0.0,
			"0.019": 0.0,
			"0.02": 0.0,
			"0.021": 0.0,
			"0.022": 0.0,
			"0.023": 0.0,
			"0.024": 0.0,
			"0.025": 0.0
		}
	}
}
