{
	 "smiles": "OC(=O)C1=C(F)C=CC(=C1)N1CCNC1=O", 
	 "Tm": 593.15, 
	 "num_atms": 25, 
	 "gaussian": { 
		 "optdone": 1, 
		 "sigma_profile": "yes", 
		 "theory": "DFT", 
		 "functional": "B3LYP", 
		 "basiset": "6-31G**", 
		 "properties": { 
			 "R2extent": 4666.5633, 
			 "electric_dipole_moment_norm": 8.88644693508, 
			 "electric_quadrupole_moment_norm": 16.09682122, 
			 "total_energy": -821.528583839, 
			 "HOMO_LUMO_gap": 0.1765, 
			 "cosmo_polarized_energy": -22.55, 
			 "cosmo_cavitation_energy": 29.37, 
			 "cosmo_dispersion_energy": -22.01, 
			 "cosmo_repulsion_energy": 1.67, 
			 "cosmo_total_nonelectrostatic_energy": 9.03, 
			 "SMD_solvation_energy": 5.7 
		},
		"coords": [
			{
				"x": 2.7083877147,
				"y": 3.7786515753,
				"z": -1.018692554,
				"element": "O" 
			},
			{
				"x": 1.7242106117,
				"y": 2.880611729,
				"z": -1.2348972409,
				"element": "C" 
			},
			{
				"x": 0.7201490009,
				"y": 3.2020322427,
				"z": -1.825578122,
				"element": "O" 
			},
			{
				"x": 1.9310130803,
				"y": 1.4771635233,
				"z": -0.7151474786,
				"element": "C" 
			},
			{
				"x": 3.0771597544,
				"y": 1.0160156048,
				"z": -0.0608438933,
				"element": "C" 
			},
			{
				"x": 4.129737378,
				"y": 1.8638767341,
				"z": 0.1711450127,
				"element": "F" 
			},
			{
				"x": 3.2045644742,
				"y": -0.2903153834,
				"z": 0.3745392719,
				"element": "C" 
			},
			{
				"x": 2.15603318,
				"y": -1.1820782463,
				"z": 0.1606875173,
				"element": "C" 
			},
			{
				"x": 0.981946164,
				"y": -0.7640488471,
				"z": -0.4923597385,
				"element": "C" 
			},
			{
				"x": 0.888222191,
				"y": 0.5683739264,
				"z": -0.9271160129,
				"element": "C" 
			},
			{
				"x": -0.0499892232,
				"y": -1.6909614241,
				"z": -0.7234592361,
				"element": "N" 
			},
			{
				"x": 0.0761277582,
				"y": -3.1065713338,
				"z": -0.3794759026,
				"element": "C" 
			},
			{
				"x": -1.220646497,
				"y": -3.7083725599,
				"z": -0.9519052162,
				"element": "C" 
			},
			{
				"x": -2.1062954748,
				"y": -2.5554789577,
				"z": -0.9148099472,
				"element": "N" 
			},
			{
				"x": -1.3931778671,
				"y": -1.3684637421,
				"z": -0.9870984915,
				"element": "C" 
			},
			{
				"x": -1.8576841392,
				"y": -0.2687177259,
				"z": -1.2214768002,
				"element": "O" 
			},
			{
				"x": 3.4453140464,
				"y": 3.368012911,
				"z": -0.5397960233,
				"element": "H" 
			},
			{
				"x": 4.1137562623,
				"y": -0.5995424025,
				"z": 0.8778998658,
				"element": "H" 
			},
			{
				"x": 2.2625474825,
				"y": -2.2005287157,
				"z": 0.5143858379,
				"element": "H" 
			},
			{
				"x": -0.0018786293,
				"y": 0.9242634416,
				"z": -1.4270695587,
				"element": "H" 
			},
			{
				"x": 0.9689345583,
				"y": -3.5487088215,
				"z": -0.830377568,
				"element": "H" 
			},
			{
				"x": 0.1304118831,
				"y": -3.2445640504,
				"z": 0.709767072,
				"element": "H" 
			},
			{
				"x": -1.0616572117,
				"y": -4.078656537,
				"z": -1.974890365,
				"element": "H" 
			},
			{
				"x": -1.592958495,
				"y": -4.5330155695,
				"z": -0.3382136771,
				"element": "H" 
			},
			{
				"x": -2.9968280025,
				"y": -2.5613773713,
				"z": -1.3910167517,
				"element": "H" 
			}
		],
		 "valence_orbital": [ 
			{
				"type": "occ",
				"energy": -0.2769,
				"method": "rhf"
			},
			{
				"type": "occ",
				"energy": -0.27374,
				"method": "rhf"
			},
			{
				"type": "occ",
				"energy": -0.26718,
				"method": "rhf"
			},
			{
				"type": "occ",
				"energy": -0.265,
				"method": "rhf"
			},
			{
				"type": "occ",
				"energy": -0.2276,
				"method": "rhf"
			},
			{
				"type": "unocc",
				"energy": -0.0511,
				"method": "rhf"
			},
			{
				"type": "unocc",
				"energy": -0.0165,
				"method": "rhf"
			},
			{
				"type": "unocc",
				"energy": 0.03819,
				"method": "rhf"
			},
			{
				"type": "unocc",
				"energy": 0.06289,
				"method": "rhf"
			},
			{
				"type": "unocc",
				"energy": 0.06807,
				"method": "rhf"
			}
		],
		"cosmo_sigma_profile": { 
			"-0.025": 0.0,
			"-0.024": 0.0,
			"-0.023": 0.0,
			"-0.022": 0.0,
			"-0.021": 0.0,
			"-0.02": 0.0,
			"-0.019": 0.0,
			"-0.018": 0.0,
			"-0.017": 0.0,
			"-0.016": 0.0,
			"-0.015": 0.14093244018,
			"-0.014": 1.09299182144,
			"-0.013": 1.62540086822,
			"-0.012": 1.28905404344,
			"-0.011": 2.00291541361,
			"-0.01": 2.75130047913,
			"-0.009": 2.7840006788,
			"-0.008": 6.94694112832,
			"-0.007": 9.53399646579,
			"-0.006": 17.6384738388,
			"-0.005": 20.6779102758,
			"-0.004": 18.3072064142,
			"-0.003": 10.5765979638,
			"-0.002": 10.188183804,
			"-0.001": 11.8815003031,
			"0.0": 13.8851342164,
			"0.001": 18.6218675818,
			"0.002": 18.9214015665,
			"0.003": 8.51684407986,
			"0.004": 5.75654838097,
			"0.005": 5.38118789411,
			"0.006": 3.96952689159,
			"0.007": 6.0054498074,
			"0.008": 4.48975153902,
			"0.009": 4.46116536433,
			"0.01": 6.04932424301,
			"0.011": 8.32346366807,
			"0.012": 6.57431406997,
			"0.013": 5.2178102485,
			"0.014": 1.39077016387,
			"0.015": 0.0,
			"0.016": 0.0,
			"0.017": 0.0,
			"0.018": 0.0,
			"0.019": 0.0,
			"0.02": 0.0,
			"0.021": 0.0,
			"0.022": 0.0,
			"0.023": 0.0,
			"0.024": 0.0,
			"0.025": 0.0
		}
	}
}
