{
	 "smiles": "CC1=NOC(C2CC2)=C1NC(=O)OC(C)(C)C", 
	 "Tm": 382.15, 
	 "num_atms": 35, 
	 "gaussian": { 
		 "optdone": 1, 
		 "sigma_profile": "yes", 
		 "theory": "DFT", 
		 "functional": "B3LYP", 
		 "basiset": "6-31G**", 
		 "properties": { 
			 "R2extent": 4389.1587, 
			 "electric_dipole_moment_norm": 1.75495330137, 
			 "electric_quadrupole_moment_norm": 18.5020351659, 
			 "total_energy": -803.261360549, 
			 "HOMO_LUMO_gap": 0.23249, 
			 "cosmo_polarized_energy": -13.69, 
			 "cosmo_cavitation_energy": 37.97, 
			 "cosmo_dispersion_energy": -24.44, 
			 "cosmo_repulsion_energy": 1.91, 
			 "cosmo_total_nonelectrostatic_energy": 15.43, 
			 "SMD_solvation_energy": 7.53 
		},
		"coords": [
			{
				"x": 1.176847631,
				"y": -2.2648439552,
				"z": 2.3248756654,
				"element": "C" 
			},
			{
				"x": 0.4048436806,
				"y": -1.0000074735,
				"z": 2.1242840687,
				"element": "C" 
			},
			{
				"x": 0.5172350026,
				"y": -0.0035085921,
				"z": 2.9696491067,
				"element": "N" 
			},
			{
				"x": -0.3272409837,
				"y": 1.0083596902,
				"z": 2.4693409513,
				"element": "O" 
			},
			{
				"x": -0.9233031289,
				"y": 0.5910730396,
				"z": 1.3366173076,
				"element": "C" 
			},
			{
				"x": -1.8098198773,
				"y": 1.5674754119,
				"z": 0.6858472997,
				"element": "C" 
			},
			{
				"x": -1.6828070255,
				"y": 1.8506691031,
				"z": -0.8052257279,
				"element": "C" 
			},
			{
				"x": -2.8964956468,
				"y": 1.1426019807,
				"z": -0.2843572494,
				"element": "C" 
			},
			{
				"x": -0.5034372972,
				"y": -0.6865241478,
				"z": 1.0628495321,
				"element": "C" 
			},
			{
				"x": -0.8962617598,
				"y": -1.5295890875,
				"z": -0.0013529308,
				"element": "N" 
			},
			{
				"x": -0.1696876666,
				"y": -1.797437642,
				"z": -1.1477591744,
				"element": "C" 
			},
			{
				"x": -0.4852935883,
				"y": -2.6822422878,
				"z": -1.924000654,
				"element": "O" 
			},
			{
				"x": 0.8706065907,
				"y": -0.9480355446,
				"z": -1.2654727047,
				"element": "O" 
			},
			{
				"x": 1.8022755052,
				"y": -1.0479600357,
				"z": -2.4056504129,
				"element": "C" 
			},
			{
				"x": 1.0546933367,
				"y": -0.7897199731,
				"z": -3.7176543355,
				"element": "C" 
			},
			{
				"x": 2.4967870208,
				"y": -2.4135885833,
				"z": -2.3938785768,
				"element": "C" 
			},
			{
				"x": 2.8012365547,
				"y": 0.0742766347,
				"z": -2.1148653815,
				"element": "C" 
			},
			{
				"x": 1.8481687429,
				"y": -2.4425295443,
				"z": 1.4782709095,
				"element": "H" 
			},
			{
				"x": 0.5070986365,
				"y": -3.1280142749,
				"z": 2.3997524232,
				"element": "H" 
			},
			{
				"x": 1.7708079629,
				"y": -2.2004955992,
				"z": 3.2384517106,
				"element": "H" 
			},
			{
				"x": -2.0261424745,
				"y": 2.4201081507,
				"z": 1.3222731488,
				"element": "H" 
			},
			{
				"x": -1.7719448601,
				"y": 2.8855797434,
				"z": -1.1204891551,
				"element": "H" 
			},
			{
				"x": -0.9469803571,
				"y": 1.2676245049,
				"z": -1.3488145964,
				"element": "H" 
			},
			{
				"x": -3.8354094086,
				"y": 1.6849336624,
				"z": -0.2329588084,
				"element": "H" 
			},
			{
				"x": -2.9941535525,
				"y": 0.0845408208,
				"z": -0.4987887573,
				"element": "H" 
			},
			{
				"x": -1.6284024573,
				"y": -2.2098520177,
				"z": 0.1533014156,
				"element": "H" 
			},
			{
				"x": 1.7696263722,
				"y": -0.7626083854,
				"z": -4.5463535895,
				"element": "H" 
			},
			{
				"x": 0.3207219393,
				"y": -1.5723630575,
				"z": -3.9104114386,
				"element": "H" 
			},
			{
				"x": 0.5434595715,
				"y": 0.1777186317,
				"z": -3.6820588736,
				"element": "H" 
			},
			{
				"x": 2.9904754937,
				"y": -2.581854845,
				"z": -1.4312488551,
				"element": "H" 
			},
			{
				"x": 3.2634029293,
				"y": -2.4405324722,
				"z": -3.1748734429,
				"element": "H" 
			},
			{
				"x": 1.783216877,
				"y": -3.2180469489,
				"z": -2.5735054776,
				"element": "H" 
			},
			{
				"x": 3.5643223833,
				"y": 0.1081877042,
				"z": -2.8980591719,
				"element": "H" 
			},
			{
				"x": 3.296671317,
				"y": -0.0880327826,
				"z": -1.1534830294,
				"element": "H" 
			},
			{
				"x": 2.2959825363,
				"y": 1.0437381718,
				"z": -2.0809511955,
				"element": "H" 
			}
		],
		 "valence_orbital": [ 
			{
				"type": "occ",
				"energy": -0.29552,
				"method": "rhf"
			},
			{
				"type": "occ",
				"energy": -0.28627,
				"method": "rhf"
			},
			{
				"type": "occ",
				"energy": -0.27045,
				"method": "rhf"
			},
			{
				"type": "occ",
				"energy": -0.2622,
				"method": "rhf"
			},
			{
				"type": "occ",
				"energy": -0.23848,
				"method": "rhf"
			},
			{
				"type": "unocc",
				"energy": -0.00599,
				"method": "rhf"
			},
			{
				"type": "unocc",
				"energy": 0.04403,
				"method": "rhf"
			},
			{
				"type": "unocc",
				"energy": 0.04714,
				"method": "rhf"
			},
			{
				"type": "unocc",
				"energy": 0.06384,
				"method": "rhf"
			},
			{
				"type": "unocc",
				"energy": 0.08106,
				"method": "rhf"
			}
		],
		"cosmo_sigma_profile": { 
			"-0.025": 0.0,
			"-0.024": 0.0,
			"-0.023": 0.0,
			"-0.022": 0.0,
			"-0.021": 0.0,
			"-0.02": 0.0,
			"-0.019": 0.0,
			"-0.018": 0.0,
			"-0.017": 0.0,
			"-0.016": 0.0,
			"-0.015": 0.306334406083,
			"-0.014": 0.981817835604,
			"-0.013": 1.12070480393,
			"-0.012": 0.64759999233,
			"-0.011": 1.0024346351,
			"-0.01": 0.983491935514,
			"-0.009": 0.757861779508,
			"-0.008": 0.939886323361,
			"-0.007": 1.58736823796,
			"-0.006": 6.91212713616,
			"-0.005": 15.7804425998,
			"-0.004": 26.1724523242,
			"-0.003": 32.3238359827,
			"-0.002": 33.3647372946,
			"-0.001": 35.3626761009,
			"0.0": 37.2480341247,
			"0.001": 27.3544620398,
			"0.002": 14.0101857282,
			"0.003": 9.36973945449,
			"0.004": 7.39371697538,
			"0.005": 5.77955039375,
			"0.006": 5.24362388906,
			"0.007": 4.56035442748,
			"0.008": 6.84615952021,
			"0.009": 5.02964996335,
			"0.01": 2.71898422558,
			"0.011": 2.77143054898,
			"0.012": 4.14690337641,
			"0.013": 4.78437070509,
			"0.014": 1.94547947342,
			"0.015": 0.545872229332,
			"0.016": 0.0,
			"0.017": 0.0,
			"0.018": 0.0,
			"0.019": 0.0,
			"0.02": 0.0,
			"0.021": 0.0,
			"0.022": 0.0,
			"0.023": 0.0,
			"0.024": 0.0,
			"0.025": 0.0
		}
	}
}
