{
	 "smiles": "CC(C)C1=CC=C(C=C1)C(=O)N1CCNCC1", 
	 "Tm": 403.15, 
	 "num_atms": 37, 
	 "gaussian": { 
		 "optdone": 1, 
		 "sigma_profile": "yes", 
		 "theory": "DFT", 
		 "functional": "B3LYP", 
		 "basiset": "6-31G**", 
		 "properties": { 
			 "R2extent": 6181.9121, 
			 "electric_dipole_moment_norm": 4.16904977663, 
			 "electric_quadrupole_moment_norm": 14.2446626524, 
			 "total_energy": -730.281282132, 
			 "HOMO_LUMO_gap": 0.19503, 
			 "cosmo_polarized_energy": -13.9, 
			 "cosmo_cavitation_energy": 37.76, 
			 "cosmo_dispersion_energy": -26.95, 
			 "cosmo_repulsion_energy": 2.11, 
			 "cosmo_total_nonelectrostatic_energy": 12.92, 
			 "SMD_solvation_energy": 3.38 
		},
		"coords": [
			{
				"x": -4.2913661562,
				"y": -0.1973875354,
				"z": 2.081250535,
				"element": "C" 
			},
			{
				"x": -3.6780114875,
				"y": 0.7682216376,
				"z": 1.0493015564,
				"element": "C" 
			},
			{
				"x": -4.3348893596,
				"y": 0.5919510129,
				"z": -0.3329616124,
				"element": "C" 
			},
			{
				"x": -2.1631989694,
				"y": 0.6324125689,
				"z": 0.9781608415,
				"element": "C" 
			},
			{
				"x": -1.3306187355,
				"y": 1.7037623206,
				"z": 1.3308571688,
				"element": "C" 
			},
			{
				"x": 0.0563591603,
				"y": 1.5893119649,
				"z": 1.2808256532,
				"element": "C" 
			},
			{
				"x": 0.6573846076,
				"y": 0.4020493153,
				"z": 0.8443127408,
				"element": "C" 
			},
			{
				"x": -0.1669484642,
				"y": -0.6787195507,
				"z": 0.5001391592,
				"element": "C" 
			},
			{
				"x": -1.5539853319,
				"y": -0.5640484918,
				"z": 0.5717173358,
				"element": "C" 
			},
			{
				"x": 2.158980873,
				"y": 0.3244884547,
				"z": 0.8872272727,
				"element": "C" 
			},
			{
				"x": 2.77883183,
				"y": 0.860685035,
				"z": 1.8062251632,
				"element": "O" 
			},
			{
				"x": 2.8207318202,
				"y": -0.3768695927,
				"z": -0.0948173976,
				"element": "N" 
			},
			{
				"x": 2.2795957298,
				"y": -0.6883576239,
				"z": -1.426123325,
				"element": "C" 
			},
			{
				"x": 3.3408440527,
				"y": -0.3774173349,
				"z": -2.4907042708,
				"element": "C" 
			},
			{
				"x": 4.5948297605,
				"y": -1.1204799932,
				"z": -2.3029494434,
				"element": "N" 
			},
			{
				"x": 4.8391745368,
				"y": -1.5196037699,
				"z": -0.9076915609,
				"element": "C" 
			},
			{
				"x": 4.2823676972,
				"y": -0.4761964749,
				"z": 0.0543888696,
				"element": "C" 
			},
			{
				"x": -3.8508846092,
				"y": -0.0505914264,
				"z": 3.0721409077,
				"element": "H" 
			},
			{
				"x": -5.3726077537,
				"y": -0.0405035836,
				"z": 2.1610857285,
				"element": "H" 
			},
			{
				"x": -4.1277999475,
				"y": -1.2421469315,
				"z": 1.7949321671,
				"element": "H" 
			},
			{
				"x": -3.8921781196,
				"y": 1.7904951803,
				"z": 1.3874963931,
				"element": "H" 
			},
			{
				"x": -3.9270360679,
				"y": 1.3014638526,
				"z": -1.0596559582,
				"element": "H" 
			},
			{
				"x": -4.1721496233,
				"y": -0.4181537722,
				"z": -0.7248938548,
				"element": "H" 
			},
			{
				"x": -5.4166238016,
				"y": 0.7526154223,
				"z": -0.2694149044,
				"element": "H" 
			},
			{
				"x": -1.7780913173,
				"y": 2.6388025295,
				"z": 1.6594052762,
				"element": "H" 
			},
			{
				"x": 0.6934646675,
				"y": 2.4120199735,
				"z": 1.5884558357,
				"element": "H" 
			},
			{
				"x": 0.2749182793,
				"y": -1.6241087509,
				"z": 0.2006159853,
				"element": "H" 
			},
			{
				"x": -2.1680148583,
				"y": -1.4224554683,
				"z": 0.3123291236,
				"element": "H" 
			},
			{
				"x": 1.3823303088,
				"y": -0.0916021622,
				"z": -1.6021118208,
				"element": "H" 
			},
			{
				"x": 1.9892213535,
				"y": -1.7471049011,
				"z": -1.4963506463,
				"element": "H" 
			},
			{
				"x": 2.9370724877,
				"y": -0.5982956404,
				"z": -3.484131482,
				"element": "H" 
			},
			{
				"x": 3.5449026841,
				"y": 0.7017888337,
				"z": -2.4674979326,
				"element": "H" 
			},
			{
				"x": 4.6053197068,
				"y": -1.9414682157,
				"z": -2.8979970865,
				"element": "H" 
			},
			{
				"x": 5.9189546065,
				"y": -1.6135677184,
				"z": -0.7399974653,
				"element": "H" 
			},
			{
				"x": 4.3902797132,
				"y": -2.4955534473,
				"z": -0.6548211773,
				"element": "H" 
			},
			{
				"x": 4.7556362598,
				"y": 0.4984421997,
				"z": -0.126314095,
				"element": "H" 
			},
			{
				"x": 4.5036044672,
				"y": -0.7450779159,
				"z": 1.0891663199,
				"element": "H" 
			}
		],
		 "valence_orbital": [ 
			{
				"type": "occ",
				"energy": -0.2539,
				"method": "rhf"
			},
			{
				"type": "occ",
				"energy": -0.25037,
				"method": "rhf"
			},
			{
				"type": "occ",
				"energy": -0.23749,
				"method": "rhf"
			},
			{
				"type": "occ",
				"energy": -0.22841,
				"method": "rhf"
			},
			{
				"type": "occ",
				"energy": -0.21878,
				"method": "rhf"
			},
			{
				"type": "unocc",
				"energy": -0.02375,
				"method": "rhf"
			},
			{
				"type": "unocc",
				"energy": -0.00309,
				"method": "rhf"
			},
			{
				"type": "unocc",
				"energy": 0.05681,
				"method": "rhf"
			},
			{
				"type": "unocc",
				"energy": 0.06926,
				"method": "rhf"
			},
			{
				"type": "unocc",
				"energy": 0.08588,
				"method": "rhf"
			}
		],
		"cosmo_sigma_profile": { 
			"-0.025": 0.0,
			"-0.024": 0.0,
			"-0.023": 0.0,
			"-0.022": 0.0,
			"-0.021": 0.0,
			"-0.02": 0.0,
			"-0.019": 0.0,
			"-0.018": 0.0,
			"-0.017": 0.0,
			"-0.016": 0.0,
			"-0.015": 0.0,
			"-0.014": 0.0,
			"-0.013": 0.0,
			"-0.012": 0.0,
			"-0.011": 0.0977525076009,
			"-0.01": 1.18704283734,
			"-0.009": 1.5767605878,
			"-0.008": 1.53269143086,
			"-0.007": 1.27955979512,
			"-0.006": 4.87314589801,
			"-0.005": 16.6652096563,
			"-0.004": 28.7184065066,
			"-0.003": 42.6532191056,
			"-0.002": 35.3050035273,
			"-0.001": 33.7076406703,
			"0.0": 25.7235637814,
			"0.001": 26.6649905292,
			"0.002": 13.9614126767,
			"0.003": 10.477291072,
			"0.004": 9.86312738171,
			"0.005": 10.5434843851,
			"0.006": 4.17321545307,
			"0.007": 1.83188189887,
			"0.008": 2.8977255642,
			"0.009": 1.94622158253,
			"0.01": 1.82745690233,
			"0.011": 2.51737328099,
			"0.012": 2.16778029776,
			"0.013": 2.64141013927,
			"0.014": 5.50112191796,
			"0.015": 2.50256392012,
			"0.016": 0.848119709969,
			"0.017": 0.452824707806,
			"0.018": 0.421270385738,
			"0.019": 0.0343186356013,
			"0.02": 0.0,
			"0.021": 0.0,
			"0.022": 0.0,
			"0.023": 0.0,
			"0.024": 0.0,
			"0.025": 0.0
		}
	}
}
