{
	 "smiles": "CC1=C(C)C(C)=C2C(=O)OC3(CC2=C1C)C(=O)C1=CC=CC=C1C3=O", 
	 "Tm": 530.15, 
	 "num_atms": 43, 
	 "gaussian": { 
		 "optdone": 1, 
		 "sigma_profile": "yes", 
		 "theory": "DFT", 
		 "functional": "B3LYP", 
		 "basiset": "6-31G**", 
		 "properties": { 
			 "R2extent": 9800.5308, 
			 "electric_dipole_moment_norm": 6.30401271652, 
			 "electric_quadrupole_moment_norm": 39.4681683629, 
			 "total_energy": -1111.99824886, 
			 "HOMO_LUMO_gap": 0.1407, 
			 "cosmo_polarized_energy": -19.65, 
			 "cosmo_cavitation_energy": 44.8, 
			 "cosmo_dispersion_energy": -31.31, 
			 "cosmo_repulsion_energy": 2.32, 
			 "cosmo_total_nonelectrostatic_energy": 15.81, 
			 "SMD_solvation_energy": 8.78 
		},
		"coords": [
			{
				"x": 2.3400237962,
				"y": 2.7626203096,
				"z": 2.0367440643,
				"element": "C" 
			},
			{
				"x": 1.6857327805,
				"y": 2.1299024381,
				"z": 0.8242153364,
				"element": "C" 
			},
			{
				"x": 1.6979163356,
				"y": 2.8078136376,
				"z": -0.4116259676,
				"element": "C" 
			},
			{
				"x": 2.4555325864,
				"y": 4.1156436198,
				"z": -0.5448559563,
				"element": "C" 
			},
			{
				"x": 1.0269218513,
				"y": 2.2723665439,
				"z": -1.5301926918,
				"element": "C" 
			},
			{
				"x": 0.9654048918,
				"y": 3.0735766556,
				"z": -2.8137690472,
				"element": "C" 
			},
			{
				"x": 0.3957179406,
				"y": 1.0151491966,
				"z": -1.3992134328,
				"element": "C" 
			},
			{
				"x": -0.1965762895,
				"y": 0.3444710604,
				"z": -2.5918015462,
				"element": "C" 
			},
			{
				"x": 0.0651309344,
				"y": 0.6054756705,
				"z": -3.7442076904,
				"element": "O" 
			},
			{
				"x": -1.0704144887,
				"y": -0.6998755503,
				"z": -2.3888540368,
				"element": "O" 
			},
			{
				"x": -1.5154186268,
				"y": -1.0273520089,
				"z": -1.0742727024,
				"element": "C" 
			},
			{
				"x": -0.361321416,
				"y": -0.9729744774,
				"z": -0.0758845717,
				"element": "C" 
			},
			{
				"x": 0.3860889301,
				"y": 0.3395045129,
				"z": -0.163521799,
				"element": "C" 
			},
			{
				"x": 1.0534127176,
				"y": 0.8748887723,
				"z": 0.9462460216,
				"element": "C" 
			},
			{
				"x": 1.1157094733,
				"y": 0.1130595046,
				"z": 2.2566553716,
				"element": "C" 
			},
			{
				"x": -2.7432856785,
				"y": -0.1517617473,
				"z": -0.6938196404,
				"element": "C" 
			},
			{
				"x": -2.7626430665,
				"y": 1.0602263208,
				"z": -0.6272018241,
				"element": "O" 
			},
			{
				"x": -3.8929116239,
				"y": -1.0650408136,
				"z": -0.4651203517,
				"element": "C" 
			},
			{
				"x": -5.1879019844,
				"y": -0.7407818247,
				"z": -0.057185594,
				"element": "C" 
			},
			{
				"x": -6.1088092675,
				"y": -1.7789429211,
				"z": 0.0763079394,
				"element": "C" 
			},
			{
				"x": -5.7433909873,
				"y": -3.1114772919,
				"z": -0.1909088572,
				"element": "C" 
			},
			{
				"x": -4.449130746,
				"y": -3.4337002235,
				"z": -0.5963930615,
				"element": "C" 
			},
			{
				"x": -3.5293962397,
				"y": -2.3919989016,
				"z": -0.7314724586,
				"element": "C" 
			},
			{
				"x": -2.1041112059,
				"y": -2.4644128873,
				"z": -1.1341828874,
				"element": "C" 
			},
			{
				"x": -1.4727930894,
				"y": -3.4599849812,
				"z": -1.4196215774,
				"element": "O" 
			},
			{
				"x": 1.9085819338,
				"y": 2.3949301715,
				"z": 2.9687011271,
				"element": "H" 
			},
			{
				"x": 2.2200327058,
				"y": 3.8481336476,
				"z": 2.0347737551,
				"element": "H" 
			},
			{
				"x": 3.4185715957,
				"y": 2.5570638202,
				"z": 2.0745807864,
				"element": "H" 
			},
			{
				"x": 2.8742558412,
				"y": 4.2341569178,
				"z": -1.5458162088,
				"element": "H" 
			},
			{
				"x": 3.2891420025,
				"y": 4.1715764112,
				"z": 0.1572198008,
				"element": "H" 
			},
			{
				"x": 1.8135032695,
				"y": 4.9872261567,
				"z": -0.3578237923,
				"element": "H" 
			},
			{
				"x": 0.9695411408,
				"y": 4.1446383908,
				"z": -2.6009377749,
				"element": "H" 
			},
			{
				"x": 1.8204936518,
				"y": 2.8562340551,
				"z": -3.4652190478,
				"element": "H" 
			},
			{
				"x": 0.0753305205,
				"y": 2.8382717951,
				"z": -3.3926548158,
				"element": "H" 
			},
			{
				"x": 0.2928394422,
				"y": -1.8269875175,
				"z": -0.3023962123,
				"element": "H" 
			},
			{
				"x": -0.7586098448,
				"y": -1.1359910968,
				"z": 0.9298097517,
				"element": "H" 
			},
			{
				"x": 0.367955111,
				"y": 0.4673197766,
				"z": 2.9789487362,
				"element": "H" 
			},
			{
				"x": 0.9523757295,
				"y": -0.9566411702,
				"z": 2.1172593144,
				"element": "H" 
			},
			{
				"x": 2.0945941533,
				"y": 0.2182969975,
				"z": 2.7309324013,
				"element": "H" 
			},
			{
				"x": -5.4560846581,
				"y": 0.2918192703,
				"z": 0.1421158619,
				"element": "H" 
			},
			{
				"x": -7.1259317513,
				"y": -1.5608633696,
				"z": 0.3885008451,
				"element": "H" 
			},
			{
				"x": -6.4851810778,
				"y": -3.896934252,
				"z": -0.0800660734,
				"element": "H" 
			},
			{
				"x": -4.1530972931,
				"y": -4.4562446181,
				"z": -0.8075914934,
				"element": "H" 
			}
		],
		 "valence_orbital": [ 
			{
				"type": "occ",
				"energy": -0.2807,
				"method": "rhf"
			},
			{
				"type": "occ",
				"energy": -0.25995,
				"method": "rhf"
			},
			{
				"type": "occ",
				"energy": -0.24641,
				"method": "rhf"
			},
			{
				"type": "occ",
				"energy": -0.23456,
				"method": "rhf"
			},
			{
				"type": "occ",
				"energy": -0.22853,
				"method": "rhf"
			},
			{
				"type": "unocc",
				"energy": -0.08783,
				"method": "rhf"
			},
			{
				"type": "unocc",
				"energy": -0.07582,
				"method": "rhf"
			},
			{
				"type": "unocc",
				"energy": -0.03604,
				"method": "rhf"
			},
			{
				"type": "unocc",
				"energy": -0.00158,
				"method": "rhf"
			},
			{
				"type": "unocc",
				"energy": 0.01339,
				"method": "rhf"
			}
		],
		"cosmo_sigma_profile": { 
			"-0.025": 0.0,
			"-0.024": 0.0,
			"-0.023": 0.0,
			"-0.022": 0.0,
			"-0.021": 0.0,
			"-0.02": 0.0,
			"-0.019": 0.0,
			"-0.018": 0.0,
			"-0.017": 0.0,
			"-0.016": 0.0,
			"-0.015": 0.0,
			"-0.014": 0.0,
			"-0.013": 0.0,
			"-0.012": 0.0,
			"-0.011": 0.289133977851,
			"-0.01": 0.695567979486,
			"-0.009": 1.44469329036,
			"-0.008": 6.05373422832,
			"-0.007": 11.5590225731,
			"-0.006": 14.1463155146,
			"-0.005": 16.2638981136,
			"-0.004": 28.7367604527,
			"-0.003": 40.3689518934,
			"-0.002": 36.2097362321,
			"-0.001": 35.1151647888,
			"0.0": 38.5409892583,
			"0.001": 31.6909115036,
			"0.002": 13.1765740903,
			"0.003": 11.4083890797,
			"0.004": 10.4561752442,
			"0.005": 6.75800553162,
			"0.006": 5.80448850957,
			"0.007": 6.4897939998,
			"0.008": 6.76420775419,
			"0.009": 8.44791679983,
			"0.01": 11.3250153767,
			"0.011": 9.14021523077,
			"0.012": 4.02488788847,
			"0.013": 1.5809145469,
			"0.014": 0.102280931726,
			"0.015": 0.0,
			"0.016": 0.0,
			"0.017": 0.0,
			"0.018": 0.0,
			"0.019": 0.0,
			"0.02": 0.0,
			"0.021": 0.0,
			"0.022": 0.0,
			"0.023": 0.0,
			"0.024": 0.0,
			"0.025": 0.0
		}
	}
}
