{
	 "smiles": "FC1=CC(Cl)=C(CC#N)C=C1", 
	 "Tm": 341.15, 
	 "num_atms": 16, 
	 "gaussian": { 
		 "optdone": 1, 
		 "sigma_profile": "yes", 
		 "theory": "DFT", 
		 "functional": "B3LYP", 
		 "basiset": "6-31G**", 
		 "properties": { 
			 "R2extent": 2772.1775, 
			 "electric_dipole_moment_norm": 4.01796737916, 
			 "electric_quadrupole_moment_norm": 19.7976272508, 
			 "total_energy": -922.622376979, 
			 "HOMO_LUMO_gap": 0.22533, 
			 "cosmo_polarized_energy": -10.72, 
			 "cosmo_cavitation_energy": 23.78, 
			 "cosmo_dispersion_energy": -16.62, 
			 "cosmo_repulsion_energy": 1.32, 
			 "cosmo_total_nonelectrostatic_energy": 8.48, 
			 "SMD_solvation_energy": 5.75 
		},
		"coords": [
			{
				"x": 1.6716679957,
				"y": 0.919460482,
				"z": -2.5372041512,
				"element": "F" 
			},
			{
				"x": 1.1937927895,
				"y": 0.2792966462,
				"z": -1.4555650966,
				"element": "C" 
			},
			{
				"x": 1.741956002,
				"y": -0.9513507493,
				"z": -1.1152734757,
				"element": "C" 
			},
			{
				"x": 1.2414114582,
				"y": -1.6095378317,
				"z": 0.006936975,
				"element": "C" 
			},
			{
				"x": 1.9431199898,
				"y": -3.1627563118,
				"z": 0.4280282195,
				"element": "Cl" 
			},
			{
				"x": 0.2081886828,
				"y": -1.0652476699,
				"z": 0.784576311,
				"element": "C" 
			},
			{
				"x": -0.3485718356,
				"y": -1.7733000305,
				"z": 2.008621411,
				"element": "C" 
			},
			{
				"x": 0.4647728417,
				"y": -1.5621252972,
				"z": 3.21474658,
				"element": "C" 
			},
			{
				"x": 1.1008033983,
				"y": -1.3821954445,
				"z": 4.1684125461,
				"element": "N" 
			},
			{
				"x": -0.3088141764,
				"y": 0.1776556531,
				"z": 0.3975238338,
				"element": "C" 
			},
			{
				"x": 0.171064235,
				"y": 0.8616146854,
				"z": -0.7167128949,
				"element": "C" 
			},
			{
				"x": 2.5380647285,
				"y": -1.3793092665,
				"z": -1.7118181002,
				"element": "H" 
			},
			{
				"x": -0.4251753548,
				"y": -2.851366008,
				"z": 1.8334177196,
				"element": "H" 
			},
			{
				"x": -1.3600844807,
				"y": -1.4080234311,
				"z": 2.2152998358,
				"element": "H" 
			},
			{
				"x": -1.1072019685,
				"y": 0.6194005371,
				"z": 0.9868376382,
				"element": "H" 
			},
			{
				"x": -0.2317943055,
				"y": 1.8228840367,
				"z": -1.0141273514,
				"element": "H" 
			}
		],
		 "valence_orbital": [ 
			{
				"type": "occ",
				"energy": -0.33541,
				"method": "rhf"
			},
			{
				"type": "occ",
				"energy": -0.32663,
				"method": "rhf"
			},
			{
				"type": "occ",
				"energy": -0.32611,
				"method": "rhf"
			},
			{
				"type": "occ",
				"energy": -0.27644,
				"method": "rhf"
			},
			{
				"type": "occ",
				"energy": -0.26337,
				"method": "rhf"
			},
			{
				"type": "unocc",
				"energy": -0.03804,
				"method": "rhf"
			},
			{
				"type": "unocc",
				"energy": -0.02995,
				"method": "rhf"
			},
			{
				"type": "unocc",
				"energy": 0.00672,
				"method": "rhf"
			},
			{
				"type": "unocc",
				"energy": 0.03625,
				"method": "rhf"
			},
			{
				"type": "unocc",
				"energy": 0.04211,
				"method": "rhf"
			}
		],
		"cosmo_sigma_profile": { 
			"-0.025": 0.0,
			"-0.024": 0.0,
			"-0.023": 0.0,
			"-0.022": 0.0,
			"-0.021": 0.0,
			"-0.02": 0.0,
			"-0.019": 0.0,
			"-0.018": 0.0,
			"-0.017": 0.0,
			"-0.016": 0.0,
			"-0.015": 0.0,
			"-0.014": 0.0,
			"-0.013": 0.0,
			"-0.012": 0.0,
			"-0.011": 0.00591935667791,
			"-0.01": 1.82986046051,
			"-0.009": 5.30174945254,
			"-0.008": 9.40860693653,
			"-0.007": 8.81282949849,
			"-0.006": 10.7732871842,
			"-0.005": 7.96424201594,
			"-0.004": 6.44375372418,
			"-0.003": 7.59790519277,
			"-0.002": 8.70281827264,
			"-0.001": 13.2797849295,
			"0.0": 20.3224700825,
			"0.001": 22.7098846292,
			"0.002": 15.493941973,
			"0.003": 14.9912800097,
			"0.004": 15.8550384354,
			"0.005": 2.14259175818,
			"0.006": 3.024579966,
			"0.007": 2.51328621076,
			"0.008": 3.37801017815,
			"0.009": 3.73295026375,
			"0.01": 3.01435679097,
			"0.011": 2.98108886436,
			"0.012": 2.44499040411,
			"0.013": 1.5774833359,
			"0.014": 0.143750078149,
			"0.015": 0.0,
			"0.016": 0.0,
			"0.017": 0.0,
			"0.018": 0.0,
			"0.019": 0.0,
			"0.02": 0.0,
			"0.021": 0.0,
			"0.022": 0.0,
			"0.023": 0.0,
			"0.024": 0.0,
			"0.025": 0.0
		}
	}
}
