{
	 "smiles": "CC1=NN(C(C(F)F)=C1C(O)=O)C1=C(Cl)C=CC=C1", 
	 "Tm": 478.15, 
	 "num_atms": 28, 
	 "gaussian": { 
		 "optdone": 1, 
		 "sigma_profile": "yes", 
		 "theory": "DFT", 
		 "functional": "B3LYP", 
		 "basiset": "6-31G**", 
		 "properties": { 
			 "R2extent": 5903.0358, 
			 "electric_dipole_moment_norm": 5.46385600378, 
			 "electric_quadrupole_moment_norm": 6.90456453153, 
			 "total_energy": -1382.50672531, 
			 "HOMO_LUMO_gap": 0.20497, 
			 "cosmo_polarized_energy": -15.32, 
			 "cosmo_cavitation_energy": 34.77, 
			 "cosmo_dispersion_energy": -24.34, 
			 "cosmo_repulsion_energy": 1.83, 
			 "cosmo_total_nonelectrostatic_energy": 12.26, 
			 "SMD_solvation_energy": 6.52 
		},
		"coords": [
			{
				"x": 0.8917335338,
				"y": -0.6364439405,
				"z": 4.0852525471,
				"element": "C" 
			},
			{
				"x": 0.8455949775,
				"y": -0.4311563494,
				"z": 2.6049061832,
				"element": "C" 
			},
			{
				"x": 1.6074489118,
				"y": 0.4865323159,
				"z": 2.0221923396,
				"element": "N" 
			},
			{
				"x": 1.3288978828,
				"y": 0.4166734008,
				"z": 0.6880468085,
				"element": "N" 
			},
			{
				"x": 0.3914403188,
				"y": -0.5354040271,
				"z": 0.4188058601,
				"element": "C" 
			},
			{
				"x": -0.2335517913,
				"y": -0.8041488398,
				"z": -0.9158701216,
				"element": "C" 
			},
			{
				"x": 0.1440203349,
				"y": -2.0686571627,
				"z": -1.3530745448,
				"element": "F" 
			},
			{
				"x": 0.1525104459,
				"y": 0.0866221031,
				"z": -1.8598188495,
				"element": "F" 
			},
			{
				"x": 0.058194577,
				"y": -1.1213639306,
				"z": 1.6377205742,
				"element": "C" 
			},
			{
				"x": -0.9245742288,
				"y": -2.1864678769,
				"z": 1.9401017181,
				"element": "C" 
			},
			{
				"x": -1.2866424532,
				"y": -3.0052881715,
				"z": 0.9162376638,
				"element": "O" 
			},
			{
				"x": -1.4134097889,
				"y": -2.3346397661,
				"z": 3.0377024504,
				"element": "O" 
			},
			{
				"x": 2.0127982842,
				"y": 1.3261829321,
				"z": -0.1768753467,
				"element": "C" 
			},
			{
				"x": 2.9519979267,
				"y": 0.8906200822,
				"z": -1.1217879428,
				"element": "C" 
			},
			{
				"x": 3.3138675266,
				"y": -0.8096156194,
				"z": -1.313282152,
				"element": "Cl" 
			},
			{
				"x": 3.6270509784,
				"y": 1.8183069808,
				"z": -1.9150165736,
				"element": "C" 
			},
			{
				"x": 3.3806870239,
				"y": 3.1810671718,
				"z": -1.7529713516,
				"element": "C" 
			},
			{
				"x": 2.4640548188,
				"y": 3.6219175018,
				"z": -0.7974009167,
				"element": "C" 
			},
			{
				"x": 1.7841404147,
				"y": 2.6941772496,
				"z": -0.0126907446,
				"element": "C" 
			},
			{
				"x": 1.6101083479,
				"y": 0.0560479426,
				"z": 4.52822768,
				"element": "H" 
			},
			{
				"x": -0.095341386,
				"y": -0.480539581,
				"z": 4.5274869154,
				"element": "H" 
			},
			{
				"x": 1.1851630102,
				"y": -1.6620208739,
				"z": 4.3296034339,
				"element": "H" 
			},
			{
				"x": -1.3271909276,
				"y": -0.8079303794,
				"z": -0.8615985107,
				"element": "H" 
			},
			{
				"x": -0.6669856689,
				"y": -2.9421301493,
				"z": 0.1717881471,
				"element": "H" 
			},
			{
				"x": 4.3470178496,
				"y": 1.4655689095,
				"z": -2.6447606551,
				"element": "H" 
			},
			{
				"x": 3.9133473753,
				"y": 3.8961067729,
				"z": -2.3721872922,
				"element": "H" 
			},
			{
				"x": 2.2771539516,
				"y": 4.682324692,
				"z": -0.6632427453,
				"element": "H" 
			},
			{
				"x": 1.0726677542,
				"y": 3.0103586125,
				"z": 0.7422054257,
				"element": "H" 
			}
		],
		 "valence_orbital": [ 
			{
				"type": "occ",
				"energy": -0.29167,
				"method": "rhf"
			},
			{
				"type": "occ",
				"energy": -0.27771,
				"method": "rhf"
			},
			{
				"type": "occ",
				"energy": -0.27104,
				"method": "rhf"
			},
			{
				"type": "occ",
				"energy": -0.26865,
				"method": "rhf"
			},
			{
				"type": "occ",
				"energy": -0.25869,
				"method": "rhf"
			},
			{
				"type": "unocc",
				"energy": -0.05372,
				"method": "rhf"
			},
			{
				"type": "unocc",
				"energy": -0.03196,
				"method": "rhf"
			},
			{
				"type": "unocc",
				"energy": -0.02808,
				"method": "rhf"
			},
			{
				"type": "unocc",
				"energy": 0.00361,
				"method": "rhf"
			},
			{
				"type": "unocc",
				"energy": 0.01373,
				"method": "rhf"
			}
		],
		"cosmo_sigma_profile": { 
			"-0.025": 0.0,
			"-0.024": 0.0,
			"-0.023": 0.0,
			"-0.022": 0.0,
			"-0.021": 0.0,
			"-0.02": 0.0,
			"-0.019": 0.0,
			"-0.018": 0.0,
			"-0.017": 0.0,
			"-0.016": 0.0,
			"-0.015": 0.0,
			"-0.014": 0.0,
			"-0.013": 0.177452382715,
			"-0.012": 1.27658307192,
			"-0.011": 3.76992154646,
			"-0.01": 4.18159777253,
			"-0.009": 2.76273428106,
			"-0.008": 6.51853578345,
			"-0.007": 11.0303054285,
			"-0.006": 13.3164940617,
			"-0.005": 14.4466321602,
			"-0.004": 16.0167110402,
			"-0.003": 15.6011735473,
			"-0.002": 15.5949307149,
			"-0.001": 20.357269929,
			"0.0": 24.1807822261,
			"0.001": 21.2535287411,
			"0.002": 29.1127528906,
			"0.003": 29.594860317,
			"0.004": 13.3871544882,
			"0.005": 3.92852352072,
			"0.006": 3.87443316222,
			"0.007": 3.87357903535,
			"0.008": 4.16241260174,
			"0.009": 4.2377441558,
			"0.01": 5.54015216287,
			"0.011": 5.25228371808,
			"0.012": 4.77643961768,
			"0.013": 2.38429448114,
			"0.014": 0.401876495435,
			"0.015": 0.0,
			"0.016": 0.0,
			"0.017": 0.0,
			"0.018": 0.0,
			"0.019": 0.0,
			"0.02": 0.0,
			"0.021": 0.0,
			"0.022": 0.0,
			"0.023": 0.0,
			"0.024": 0.0,
			"0.025": 0.0
		}
	}
}
