{
	 "smiles": "CC(C)NC(=O)C(Br)C(C)(C)C", 
	 "Tm": 402.15, 
	 "num_atms": 30, 
	 "gaussian": { 
		 "optdone": 1, 
		 "sigma_profile": "yes", 
		 "theory": "DFT", 
		 "functional": "B3LYP", 
		 "basiset": "6-31G**", 
		 "properties": { 
			 "R2extent": 3678.0187, 
			 "electric_dipole_moment_norm": 2.60617567712, 
			 "electric_quadrupole_moment_norm": 10.8139783942, 
			 "total_energy": -3055.22980851, 
			 "HOMO_LUMO_gap": 0.21602, 
			 "cosmo_polarized_energy": -9.36, 
			 "cosmo_cavitation_energy": 32.62, 
			 "cosmo_dispersion_energy": -22.69, 
			 "cosmo_repulsion_energy": 1.82, 
			 "cosmo_total_nonelectrostatic_energy": 11.74, 
			 "SMD_solvation_energy": 4.91 
		},
		"coords": [
			{
				"x": -3.6875406208,
				"y": -0.7083153042,
				"z": -1.6336814393,
				"element": "C" 
			},
			{
				"x": -3.1966756904,
				"y": -0.5310899956,
				"z": -0.1900973208,
				"element": "C" 
			},
			{
				"x": -4.115183445,
				"y": 0.3743413136,
				"z": 0.6340895334,
				"element": "C" 
			},
			{
				"x": -1.8292950914,
				"y": 0.0004003894,
				"z": -0.1493934765,
				"element": "N" 
			},
			{
				"x": -0.7394757842,
				"y": -0.8062206924,
				"z": -0.3029339079,
				"element": "C" 
			},
			{
				"x": -0.8168841489,
				"y": -2.0297689979,
				"z": -0.3268442033,
				"element": "O" 
			},
			{
				"x": 0.6000587344,
				"y": -0.0437986449,
				"z": -0.3633259497,
				"element": "C" 
			},
			{
				"x": 0.5955694776,
				"y": 0.94781051,
				"z": -2.1253619612,
				"element": "Br" 
			},
			{
				"x": 1.8967318053,
				"y": -0.8554101459,
				"z": -0.1406932812,
				"element": "C" 
			},
			{
				"x": 3.0993841664,
				"y": 0.1100078232,
				"z": -0.1176630493,
				"element": "C" 
			},
			{
				"x": 2.1216773587,
				"y": -1.9347999623,
				"z": -1.2156709094,
				"element": "C" 
			},
			{
				"x": 1.780982674,
				"y": -1.5176476148,
				"z": 1.2556746527,
				"element": "C" 
			},
			{
				"x": -3.0145797994,
				"y": -1.3691364567,
				"z": -2.1859110911,
				"element": "H" 
			},
			{
				"x": -4.6901308585,
				"y": -1.1487849996,
				"z": -1.6480163239,
				"element": "H" 
			},
			{
				"x": -3.7330363051,
				"y": 0.2551298328,
				"z": -2.1544739968,
				"element": "H" 
			},
			{
				"x": -3.1369183597,
				"y": -1.5167756192,
				"z": 0.2800820255,
				"element": "H" 
			},
			{
				"x": -3.7605886943,
				"y": 0.4629246887,
				"z": 1.6651257588,
				"element": "H" 
			},
			{
				"x": -5.1317734133,
				"y": -0.029465384,
				"z": 0.652277596,
				"element": "H" 
			},
			{
				"x": -4.16947093,
				"y": 1.3815303887,
				"z": 0.2019952376,
				"element": "H" 
			},
			{
				"x": -1.7117450729,
				"y": 0.984546518,
				"z": -0.3536487113,
				"element": "H" 
			},
			{
				"x": 0.5680112741,
				"y": 0.778366116,
				"z": 0.3555031227,
				"element": "H" 
			},
			{
				"x": 2.9770571447,
				"y": 0.8870490503,
				"z": 0.6463660518,
				"element": "H" 
			},
			{
				"x": 3.2402043033,
				"y": 0.6029222894,
				"z": -1.0828129023,
				"element": "H" 
			},
			{
				"x": 4.0130542577,
				"y": -0.4457036829,
				"z": 0.1163931048,
				"element": "H" 
			},
			{
				"x": 1.2937868858,
				"y": -2.6440341479,
				"z": -1.2370800454,
				"element": "H" 
			},
			{
				"x": 3.0472405359,
				"y": -2.478682565,
				"z": -0.9981540214,
				"element": "H" 
			},
			{
				"x": 2.2230430262,
				"y": -1.4840603372,
				"z": -2.207263496,
				"element": "H" 
			},
			{
				"x": 2.722133255,
				"y": -2.0243579252,
				"z": 1.4930223197,
				"element": "H" 
			},
			{
				"x": 1.6036437538,
				"y": -0.7713409803,
				"z": 2.0396741331,
				"element": "H" 
			},
			{
				"x": 0.9755195609,
				"y": -2.252535464,
				"z": 1.2814225508,
				"element": "H" 
			}
		],
		 "valence_orbital": [ 
			{
				"type": "occ",
				"energy": -0.32106,
				"method": "rhf"
			},
			{
				"type": "occ",
				"energy": -0.28807,
				"method": "rhf"
			},
			{
				"type": "occ",
				"energy": -0.27918,
				"method": "rhf"
			},
			{
				"type": "occ",
				"energy": -0.25597,
				"method": "rhf"
			},
			{
				"type": "occ",
				"energy": -0.25015,
				"method": "rhf"
			},
			{
				"type": "unocc",
				"energy": -0.03413,
				"method": "rhf"
			},
			{
				"type": "unocc",
				"energy": 0.04328,
				"method": "rhf"
			},
			{
				"type": "unocc",
				"energy": 0.0748,
				"method": "rhf"
			},
			{
				"type": "unocc",
				"energy": 0.09311,
				"method": "rhf"
			},
			{
				"type": "unocc",
				"energy": 0.10584,
				"method": "rhf"
			}
		],
		"cosmo_sigma_profile": { 
			"-0.025": 0.0,
			"-0.024": 0.0,
			"-0.023": 0.0,
			"-0.022": 0.0,
			"-0.021": 0.0,
			"-0.02": 0.0,
			"-0.019": 0.0,
			"-0.018": 0.0,
			"-0.017": 0.0,
			"-0.016": 0.0,
			"-0.015": 0.0,
			"-0.014": 0.0,
			"-0.013": 0.240070398667,
			"-0.012": 0.905679386818,
			"-0.011": 1.58356973841,
			"-0.01": 1.48758493562,
			"-0.009": 1.87451758588,
			"-0.008": 2.37349570595,
			"-0.007": 3.50478053974,
			"-0.006": 4.35165835975,
			"-0.005": 4.05037108704,
			"-0.004": 10.6513533791,
			"-0.003": 27.9025541746,
			"-0.002": 25.4381353977,
			"-0.001": 30.2589390822,
			"0.0": 35.5160467674,
			"0.001": 37.1166628388,
			"0.002": 19.4759554293,
			"0.003": 11.2155410941,
			"0.004": 10.4556725519,
			"0.005": 8.93506140306,
			"0.006": 4.83908973132,
			"0.007": 2.02550611247,
			"0.008": 1.89101707684,
			"0.009": 1.75810221495,
			"0.01": 1.45453406079,
			"0.011": 1.27746219051,
			"0.012": 1.9357719669,
			"0.013": 2.44893694877,
			"0.014": 0.475556148572,
			"0.015": 0.0,
			"0.016": 0.0,
			"0.017": 0.0,
			"0.018": 0.0,
			"0.019": 0.0,
			"0.02": 0.0,
			"0.021": 0.0,
			"0.022": 0.0,
			"0.023": 0.0,
			"0.024": 0.0,
			"0.025": 0.0
		}
	}
}
