{
	 "smiles": "OCCN1C(=O)NC(=O)C2=C1CCCC2", 
	 "Tm": 549.15, 
	 "num_atms": 29, 
	 "gaussian": { 
		 "optdone": 1, 
		 "sigma_profile": "yes", 
		 "theory": "DFT", 
		 "functional": "B3LYP", 
		 "basiset": "6-31G**", 
		 "properties": { 
			 "R2extent": 3366.0087, 
			 "electric_dipole_moment_norm": 3.42458957249, 
			 "electric_quadrupole_moment_norm": 10.0289909458, 
			 "total_energy": -724.72261851, 
			 "HOMO_LUMO_gap": 0.19709, 
			 "cosmo_polarized_energy": -17.51, 
			 "cosmo_cavitation_energy": 30.2, 
			 "cosmo_dispersion_energy": -22.27, 
			 "cosmo_repulsion_energy": 1.74, 
			 "cosmo_total_nonelectrostatic_energy": 9.67, 
			 "SMD_solvation_energy": 5.75 
		},
		"coords": [
			{
				"x": 3.0582514396,
				"y": 1.1745871522,
				"z": 1.6585022937,
				"element": "O" 
			},
			{
				"x": 2.0407804624,
				"y": 1.202312527,
				"z": 2.6539659564,
				"element": "C" 
			},
			{
				"x": 1.1173638975,
				"y": -0.0186351788,
				"z": 2.6065455075,
				"element": "C" 
			},
			{
				"x": 0.3646149663,
				"y": -0.1248819971,
				"z": 1.3415846125,
				"element": "N" 
			},
			{
				"x": -0.7944468053,
				"y": 0.657398533,
				"z": 1.2906002693,
				"element": "C" 
			},
			{
				"x": -1.1303434447,
				"y": 1.4015888792,
				"z": 2.2024438934,
				"element": "O" 
			},
			{
				"x": -1.5254598384,
				"y": 0.5271431812,
				"z": 0.129219443,
				"element": "N" 
			},
			{
				"x": -1.2498898185,
				"y": -0.2984131186,
				"z": -0.9693421929,
				"element": "C" 
			},
			{
				"x": -2.0039570224,
				"y": -0.3154749926,
				"z": -1.933887251,
				"element": "O" 
			},
			{
				"x": -0.0270615282,
				"y": -1.0830843198,
				"z": -0.8339426699,
				"element": "C" 
			},
			{
				"x": 0.7418913346,
				"y": -0.9682701713,
				"z": 0.2864352416,
				"element": "C" 
			},
			{
				"x": 2.0305175214,
				"y": -1.7490063089,
				"z": 0.4486517783,
				"element": "C" 
			},
			{
				"x": 2.515898144,
				"y": -2.3807832986,
				"z": -0.8640717581,
				"element": "C" 
			},
			{
				"x": 1.3631871271,
				"y": -3.0447160092,
				"z": -1.6201843939,
				"element": "C" 
			},
			{
				"x": 0.309661664,
				"y": -1.9976172984,
				"z": -1.9889734855,
				"element": "C" 
			},
			{
				"x": 2.6678671483,
				"y": 1.4763924432,
				"z": 0.828662173,
				"element": "H" 
			},
			{
				"x": 2.5532325021,
				"y": 1.2073181533,
				"z": 3.6219741794,
				"element": "H" 
			},
			{
				"x": 1.43602581,
				"y": 2.1146308082,
				"z": 2.5897327029,
				"element": "H" 
			},
			{
				"x": 0.3842235745,
				"y": 0.0631584928,
				"z": 3.4118190905,
				"element": "H" 
			},
			{
				"x": 1.6898907996,
				"y": -0.9332445669,
				"z": 2.7516579761,
				"element": "H" 
			},
			{
				"x": -2.367000718,
				"y": 1.0883796546,
				"z": 0.0779835327,
				"element": "H" 
			},
			{
				"x": 1.8698711266,
				"y": -2.5374326296,
				"z": 1.1988173383,
				"element": "H" 
			},
			{
				"x": 2.80195441,
				"y": -1.0866560824,
				"z": 0.8528576544,
				"element": "H" 
			},
			{
				"x": 3.3112711739,
				"y": -3.0993534803,
				"z": -0.6395090839,
				"element": "H" 
			},
			{
				"x": 2.9639721665,
				"y": -1.6033816474,
				"z": -1.4966113048,
				"element": "H" 
			},
			{
				"x": 0.9111161196,
				"y": -3.820489851,
				"z": -0.9876759499,
				"element": "H" 
			},
			{
				"x": 1.7287416306,
				"y": -3.5453795879,
				"z": -2.5230711609,
				"element": "H" 
			},
			{
				"x": 0.6615609393,
				"y": -1.3931296179,
				"z": -2.8372996081,
				"element": "H" 
			},
			{
				"x": -0.6164347826,
				"y": -2.4666596676,
				"z": -2.3366847843,
				"element": "H" 
			}
		],
		 "valence_orbital": [ 
			{
				"type": "occ",
				"energy": -0.28936,
				"method": "rhf"
			},
			{
				"type": "occ",
				"energy": -0.28385,
				"method": "rhf"
			},
			{
				"type": "occ",
				"energy": -0.27941,
				"method": "rhf"
			},
			{
				"type": "occ",
				"energy": -0.25696,
				"method": "rhf"
			},
			{
				"type": "occ",
				"energy": -0.22866,
				"method": "rhf"
			},
			{
				"type": "unocc",
				"energy": -0.03157,
				"method": "rhf"
			},
			{
				"type": "unocc",
				"energy": 0.01413,
				"method": "rhf"
			},
			{
				"type": "unocc",
				"energy": 0.06024,
				"method": "rhf"
			},
			{
				"type": "unocc",
				"energy": 0.08458,
				"method": "rhf"
			},
			{
				"type": "unocc",
				"energy": 0.09485,
				"method": "rhf"
			}
		],
		"cosmo_sigma_profile": { 
			"-0.025": 0.0,
			"-0.024": 0.0,
			"-0.023": 0.0,
			"-0.022": 0.0,
			"-0.021": 0.0,
			"-0.02": 0.0,
			"-0.019": 0.0,
			"-0.018": 0.0,
			"-0.017": 0.0,
			"-0.016": 0.388453445836,
			"-0.015": 1.65452231699,
			"-0.014": 1.64293573725,
			"-0.013": 1.73941221485,
			"-0.012": 1.91615723781,
			"-0.011": 1.5984663639,
			"-0.01": 2.23319358257,
			"-0.009": 1.8554863308,
			"-0.008": 1.7440683662,
			"-0.007": 4.18223946131,
			"-0.006": 7.74589072964,
			"-0.005": 13.3371509235,
			"-0.004": 14.6384315662,
			"-0.003": 28.8074734156,
			"-0.002": 31.6284242206,
			"-0.001": 27.9156820787,
			"0.0": 20.4549876051,
			"0.001": 11.0428214252,
			"0.002": 4.86067876709,
			"0.003": 3.89691594299,
			"0.004": 4.89367840345,
			"0.005": 3.61585115592,
			"0.006": 3.68840868665,
			"0.007": 3.35284639177,
			"0.008": 3.5071477313,
			"0.009": 3.1794257046,
			"0.01": 4.40406697137,
			"0.011": 4.27590929694,
			"0.012": 5.66995430152,
			"0.013": 11.3879606842,
			"0.014": 4.89452672899,
			"0.015": 0.0321490812882,
			"0.016": 0.0,
			"0.017": 0.0,
			"0.018": 0.0,
			"0.019": 0.0,
			"0.02": 0.0,
			"0.021": 0.0,
			"0.022": 0.0,
			"0.023": 0.0,
			"0.024": 0.0,
			"0.025": 0.0
		}
	}
}
