{
	 "smiles": "C[C@]12CCC3C(CC[C@]45O[C@H]4C(=O)C=C[C@]35O)C1CCC2=O", 
	 "Tm": 475.15, 
	 "num_atms": 44, 
	 "gaussian": { 
		 "optdone": 1, 
		 "sigma_profile": "yes", 
		 "theory": "DFT", 
		 "functional": "B3LYP", 
		 "basiset": "6-31G**", 
		 "properties": { 
			 "R2extent": 6751.6233, 
			 "electric_dipole_moment_norm": 4.57627030889, 
			 "electric_quadrupole_moment_norm": 16.7199492831, 
			 "total_energy": -1000.01620835, 
			 "HOMO_LUMO_gap": 0.17381, 
			 "cosmo_polarized_energy": -17.58, 
			 "cosmo_cavitation_energy": 41.25, 
			 "cosmo_dispersion_energy": -28.49, 
			 "cosmo_repulsion_energy": 2.12, 
			 "cosmo_total_nonelectrostatic_energy": 14.88, 
			 "SMD_solvation_energy": 6.76 
		},
		"coords": [
			{
				"x": -0.6650068145,
				"y": -3.1036362511,
				"z": 2.0058165806,
				"element": "C" 
			},
			{
				"x": -0.8378942273,
				"y": -1.7936103313,
				"z": 1.1943001763,
				"element": "C" 
			},
			{
				"x": -1.7277930182,
				"y": -2.0797717895,
				"z": -0.0249431362,
				"element": "C" 
			},
			{
				"x": -1.7086059282,
				"y": -0.9818793665,
				"z": -1.0951676988,
				"element": "C" 
			},
			{
				"x": -0.2579071717,
				"y": -0.6747048953,
				"z": -1.4996251539,
				"element": "C" 
			},
			{
				"x": 0.4956294788,
				"y": -0.1164526463,
				"z": -0.2692445412,
				"element": "C" 
			},
			{
				"x": 1.8885319726,
				"y": 0.3667106948,
				"z": -0.6970090446,
				"element": "C" 
			},
			{
				"x": 1.7663258879,
				"y": 1.6158903566,
				"z": -1.5860562406,
				"element": "C" 
			},
			{
				"x": 0.5134979794,
				"y": 1.5973282821,
				"z": -2.4597901775,
				"element": "C" 
			},
			{
				"x": 0.5965612484,
				"y": 2.4673782075,
				"z": -3.5971420146,
				"element": "O" 
			},
			{
				"x": -0.3683836869,
				"y": 2.7842322781,
				"z": -2.5721245629,
				"element": "C" 
			},
			{
				"x": -1.8046224556,
				"y": 2.6322322924,
				"z": -3.002756749,
				"element": "C" 
			},
			{
				"x": -2.6229024968,
				"y": 3.5127778053,
				"z": -2.7866248594,
				"element": "O" 
			},
			{
				"x": -2.1239161329,
				"y": 1.3737963052,
				"z": -3.7059051389,
				"element": "C" 
			},
			{
				"x": -1.3291673109,
				"y": 0.2979287616,
				"z": -3.6096795701,
				"element": "C" 
			},
			{
				"x": -0.0600623766,
				"y": 0.2121579434,
				"z": -2.7896307319,
				"element": "C" 
			},
			{
				"x": 0.9312230453,
				"y": -0.4790669722,
				"z": -3.5736001877,
				"element": "O" 
			},
			{
				"x": 0.5435774474,
				"y": -1.1439791116,
				"z": 0.8886627398,
				"element": "C" 
			},
			{
				"x": 0.9284288098,
				"y": -0.4633014384,
				"z": 2.2358347271,
				"element": "C" 
			},
			{
				"x": -0.397038565,
				"y": 0.0611060615,
				"z": 2.819104214,
				"element": "C" 
			},
			{
				"x": -1.490303745,
				"y": -0.7853608532,
				"z": 2.1621202044,
				"element": "C" 
			},
			{
				"x": -2.6802674448,
				"y": -0.6917716478,
				"z": 2.3749990182,
				"element": "O" 
			},
			{
				"x": -0.1070457463,
				"y": -2.9555931793,
				"z": 2.9355105454,
				"element": "H" 
			},
			{
				"x": -0.126909654,
				"y": -3.845860408,
				"z": 1.406466323,
				"element": "H" 
			},
			{
				"x": -1.6446872338,
				"y": -3.5148573079,
				"z": 2.2673866458,
				"element": "H" 
			},
			{
				"x": -1.4004757602,
				"y": -3.0210726105,
				"z": -0.4863790683,
				"element": "H" 
			},
			{
				"x": -2.7504562444,
				"y": -2.2369948397,
				"z": 0.33517012,
				"element": "H" 
			},
			{
				"x": -2.3008235381,
				"y": -1.3196199064,
				"z": -1.950674928,
				"element": "H" 
			},
			{
				"x": -2.1999448828,
				"y": -0.0735668327,
				"z": -0.7222117162,
				"element": "H" 
			},
			{
				"x": 0.2169168604,
				"y": -1.6253843073,
				"z": -1.7786723893,
				"element": "H" 
			},
			{
				"x": -0.068970664,
				"y": 0.761548535,
				"z": 0.0872777415,
				"element": "H" 
			},
			{
				"x": 2.3830157784,
				"y": -0.4390041344,
				"z": -1.2510847892,
				"element": "H" 
			},
			{
				"x": 2.5207287685,
				"y": 0.5946192202,
				"z": 0.1667255045,
				"element": "H" 
			},
			{
				"x": 2.6321366762,
				"y": 1.7018948985,
				"z": -2.2500581009,
				"element": "H" 
			},
			{
				"x": 1.7521365125,
				"y": 2.5222356755,
				"z": -0.9706356909,
				"element": "H" 
			},
			{
				"x": -0.1565300412,
				"y": 3.6805727906,
				"z": -1.9906065459,
				"element": "H" 
			},
			{
				"x": -3.0505888917,
				"y": 1.3545265398,
				"z": -4.2721542231,
				"element": "H" 
			},
			{
				"x": -1.5825038952,
				"y": -0.6214372737,
				"z": -4.1334311806,
				"element": "H" 
			},
			{
				"x": 1.1339933015,
				"y": 0.0938100385,
				"z": -4.3290520383,
				"element": "H" 
			},
			{
				"x": 1.2752512057,
				"y": -1.9178252941,
				"z": 0.6213313034,
				"element": "H" 
			},
			{
				"x": 1.6680305301,
				"y": 0.3304963343,
				"z": 2.1045430333,
				"element": "H" 
			},
			{
				"x": 1.3780374738,
				"y": -1.1978692097,
				"z": 2.9108903141,
				"element": "H" 
			},
			{
				"x": -0.5844533316,
				"y": 1.1096057533,
				"z": 2.5584524631,
				"element": "H" 
			},
			{
				"x": -0.469461719,
				"y": -0.0012281674,
				"z": 3.9092688234,
				"element": "H" 
			}
		],
		 "valence_orbital": [ 
			{
				"type": "occ",
				"energy": -0.29538,
				"method": "rhf"
			},
			{
				"type": "occ",
				"energy": -0.28056,
				"method": "rhf"
			},
			{
				"type": "occ",
				"energy": -0.27419,
				"method": "rhf"
			},
			{
				"type": "occ",
				"energy": -0.25023,
				"method": "rhf"
			},
			{
				"type": "occ",
				"energy": -0.23959,
				"method": "rhf"
			},
			{
				"type": "unocc",
				"energy": -0.06578,
				"method": "rhf"
			},
			{
				"type": "unocc",
				"energy": -0.02028,
				"method": "rhf"
			},
			{
				"type": "unocc",
				"energy": 0.02687,
				"method": "rhf"
			},
			{
				"type": "unocc",
				"energy": 0.06563,
				"method": "rhf"
			},
			{
				"type": "unocc",
				"energy": 0.07044,
				"method": "rhf"
			}
		],
		"cosmo_sigma_profile": { 
			"-0.025": 0.0,
			"-0.024": 0.0,
			"-0.023": 0.0,
			"-0.022": 0.0,
			"-0.021": 0.0,
			"-0.02": 0.0,
			"-0.019": 0.0,
			"-0.018": 0.0,
			"-0.017": 0.0,
			"-0.016": 0.0,
			"-0.015": 0.246686161869,
			"-0.014": 0.972029709924,
			"-0.013": 0.407344982582,
			"-0.012": 0.669402830347,
			"-0.011": 0.601942673177,
			"-0.01": 0.591109520764,
			"-0.009": 0.583294407809,
			"-0.008": 1.07855769932,
			"-0.007": 7.08855419059,
			"-0.006": 10.279012894,
			"-0.005": 19.8589083391,
			"-0.004": 29.035498928,
			"-0.003": 43.849042438,
			"-0.002": 39.9112059789,
			"-0.001": 34.4748826402,
			"0.0": 31.9738502245,
			"0.001": 17.466315082,
			"0.002": 9.06610468845,
			"0.003": 5.67749504041,
			"0.004": 6.77028854866,
			"0.005": 5.36589178127,
			"0.006": 5.36330555454,
			"0.007": 6.1064716742,
			"0.008": 6.98119256153,
			"0.009": 4.88180190781,
			"0.01": 6.98707035567,
			"0.011": 9.41184398468,
			"0.012": 9.896479563,
			"0.013": 4.15155119419,
			"0.014": 0.251714424545,
			"0.015": 0.0,
			"0.016": 0.0,
			"0.017": 0.0,
			"0.018": 0.0,
			"0.019": 0.0,
			"0.02": 0.0,
			"0.021": 0.0,
			"0.022": 0.0,
			"0.023": 0.0,
			"0.024": 0.0,
			"0.025": 0.0
		}
	}
}
