{
	 "smiles": "COC1=CC(CCl)=CC=C1OCC1=CC=CC=C1", 
	 "Tm": 346.15, 
	 "num_atms": 33, 
	 "gaussian": { 
		 "optdone": 1, 
		 "sigma_profile": "yes", 
		 "theory": "DFT", 
		 "functional": "B3LYP", 
		 "basiset": "6-31G**", 
		 "properties": { 
			 "R2extent": 6694.6511, 
			 "electric_dipole_moment_norm": 2.48218591769, 
			 "electric_quadrupole_moment_norm": 21.5610596314, 
			 "total_energy": -1191.25727988, 
			 "HOMO_LUMO_gap": 0.19086, 
			 "cosmo_polarized_energy": -12.8, 
			 "cosmo_cavitation_energy": 38.59, 
			 "cosmo_dispersion_energy": -27.1, 
			 "cosmo_repulsion_energy": 2.15, 
			 "cosmo_total_nonelectrostatic_energy": 13.64, 
			 "SMD_solvation_energy": 7.01 
		},
		"coords": [
			{
				"x": 2.9617302422,
				"y": 2.6523966532,
				"z": -0.7190898654,
				"element": "C" 
			},
			{
				"x": 2.0066008497,
				"y": 1.6818578002,
				"z": -1.1143667544,
				"element": "O" 
			},
			{
				"x": 1.8987074159,
				"y": 0.5504396769,
				"z": -0.3638512369,
				"element": "C" 
			},
			{
				"x": 2.6719640344,
				"y": 0.255898345,
				"z": 0.7534487501,
				"element": "C" 
			},
			{
				"x": 2.4861123977,
				"y": -0.9427637137,
				"z": 1.4676176526,
				"element": "C" 
			},
			{
				"x": 3.3313688502,
				"y": -1.2430243065,
				"z": 2.6633703143,
				"element": "C" 
			},
			{
				"x": 2.7538904829,
				"y": -0.3784726731,
				"z": 4.1916922551,
				"element": "Cl" 
			},
			{
				"x": 1.50908697,
				"y": -1.8378327099,
				"z": 1.0421760463,
				"element": "C" 
			},
			{
				"x": 0.7259828664,
				"y": -1.5581055604,
				"z": -0.0839856415,
				"element": "C" 
			},
			{
				"x": 0.9132728257,
				"y": -0.3768541361,
				"z": -0.7969700723,
				"element": "C" 
			},
			{
				"x": 0.2247908791,
				"y": -0.0090065174,
				"z": -1.9159478295,
				"element": "O" 
			},
			{
				"x": -0.6975249756,
				"y": -0.9279179419,
				"z": -2.4961385361,
				"element": "C" 
			},
			{
				"x": -2.0303962595,
				"y": -1.009406016,
				"z": -1.7762578463,
				"element": "C" 
			},
			{
				"x": -2.7806535367,
				"y": -2.1900866205,
				"z": -1.8218477933,
				"element": "C" 
			},
			{
				"x": -4.0363799755,
				"y": -2.2566693057,
				"z": -1.2155994561,
				"element": "C" 
			},
			{
				"x": -4.5498260937,
				"y": -1.1430621902,
				"z": -0.5489429211,
				"element": "C" 
			},
			{
				"x": -3.8029050038,
				"y": 0.0359759556,
				"z": -0.4952434304,
				"element": "C" 
			},
			{
				"x": -2.5520552224,
				"y": 0.1047960067,
				"z": -1.1088984202,
				"element": "C" 
			},
			{
				"x": 3.9840013867,
				"y": 2.252863108,
				"z": -0.7518277379,
				"element": "H" 
			},
			{
				"x": 2.8735025938,
				"y": 3.4694482925,
				"z": -1.4367284708,
				"element": "H" 
			},
			{
				"x": 2.7591350825,
				"y": 3.0334186652,
				"z": 0.290259496,
				"element": "H" 
			},
			{
				"x": 3.425841315,
				"y": 0.9573901961,
				"z": 1.0920396752,
				"element": "H" 
			},
			{
				"x": 3.3178068639,
				"y": -2.3029716161,
				"z": 2.9155818341,
				"element": "H" 
			},
			{
				"x": 4.3632335951,
				"y": -0.9135946809,
				"z": 2.5380036958,
				"element": "H" 
			},
			{
				"x": 1.3422109951,
				"y": -2.7610703864,
				"z": 1.58958198,
				"element": "H" 
			},
			{
				"x": -0.0439241556,
				"y": -2.2578977673,
				"z": -0.3838644286,
				"element": "H" 
			},
			{
				"x": -0.8441079526,
				"y": -0.5437266063,
				"z": -3.5116095383,
				"element": "H" 
			},
			{
				"x": -0.2435985542,
				"y": -1.924018611,
				"z": -2.5853943563,
				"element": "H" 
			},
			{
				"x": -2.3813723822,
				"y": -3.063450035,
				"z": -2.3334464064,
				"element": "H" 
			},
			{
				"x": -4.6079401785,
				"y": -3.1795913872,
				"z": -1.256859274,
				"element": "H" 
			},
			{
				"x": -5.5236091376,
				"y": -1.1947311768,
				"z": -0.0705731298,
				"element": "H" 
			},
			{
				"x": -4.1952932706,
				"y": 0.9046380979,
				"z": 0.0259372208,
				"element": "H" 
			},
			{
				"x": -1.9671529479,
				"y": 1.018331161,
				"z": -1.0664657749,
				"element": "H" 
			}
		],
		 "valence_orbital": [ 
			{
				"type": "occ",
				"energy": -0.28459,
				"method": "rhf"
			},
			{
				"type": "occ",
				"energy": -0.25269,
				"method": "rhf"
			},
			{
				"type": "occ",
				"energy": -0.24788,
				"method": "rhf"
			},
			{
				"type": "occ",
				"energy": -0.23855,
				"method": "rhf"
			},
			{
				"type": "occ",
				"energy": -0.20717,
				"method": "rhf"
			},
			{
				"type": "unocc",
				"energy": -0.01631,
				"method": "rhf"
			},
			{
				"type": "unocc",
				"energy": -0.00772,
				"method": "rhf"
			},
			{
				"type": "unocc",
				"energy": -0.00511,
				"method": "rhf"
			},
			{
				"type": "unocc",
				"energy": 0.00857,
				"method": "rhf"
			},
			{
				"type": "unocc",
				"energy": 0.05292,
				"method": "rhf"
			}
		],
		"cosmo_sigma_profile": { 
			"-0.025": 0.0,
			"-0.024": 0.0,
			"-0.023": 0.0,
			"-0.022": 0.0,
			"-0.021": 0.0,
			"-0.02": 0.0,
			"-0.019": 0.0,
			"-0.018": 0.0,
			"-0.017": 0.0,
			"-0.016": 0.0,
			"-0.015": 0.0,
			"-0.014": 0.0,
			"-0.013": 0.0,
			"-0.012": 0.0,
			"-0.011": 0.0,
			"-0.01": 0.0,
			"-0.009": 0.0,
			"-0.008": 0.690211919805,
			"-0.007": 8.80008007988,
			"-0.006": 23.3105606468,
			"-0.005": 30.9800703284,
			"-0.004": 32.0144352895,
			"-0.003": 26.2109547708,
			"-0.002": 17.9054602547,
			"-0.001": 14.8381798668,
			"0.0": 14.9846216912,
			"0.001": 16.504651611,
			"0.002": 18.9554205183,
			"0.003": 19.0240874034,
			"0.004": 22.6647329971,
			"0.005": 21.386550975,
			"0.006": 18.1078481542,
			"0.007": 12.1112007926,
			"0.008": 2.70169020821,
			"0.009": 1.09068722821,
			"0.01": 1.62150979837,
			"0.011": 1.64702415779,
			"0.012": 0.996668171529,
			"0.013": 1.51417795657,
			"0.014": 0.97999623921,
			"0.015": 0.292389087611,
			"0.016": 0.0,
			"0.017": 0.0,
			"0.018": 0.0,
			"0.019": 0.0,
			"0.02": 0.0,
			"0.021": 0.0,
			"0.022": 0.0,
			"0.023": 0.0,
			"0.024": 0.0,
			"0.025": 0.0
		}
	}
}
