{
	 "smiles": "OCC1=C2OCCC2=CC(Cl)=C1", 
	 "Tm": 371.15, 
	 "num_atms": 21, 
	 "gaussian": { 
		 "optdone": 1, 
		 "sigma_profile": "yes", 
		 "theory": "DFT", 
		 "functional": "B3LYP", 
		 "basiset": "6-31G**", 
		 "properties": { 
			 "R2extent": 3580.2726, 
			 "electric_dipole_moment_norm": 3.78613777615, 
			 "electric_quadrupole_moment_norm": 13.7962742797, 
			 "total_energy": -959.005792731, 
			 "HOMO_LUMO_gap": 0.19865, 
			 "cosmo_polarized_energy": -9.69, 
			 "cosmo_cavitation_energy": 26.06, 
			 "cosmo_dispersion_energy": -19.72, 
			 "cosmo_repulsion_energy": 1.6, 
			 "cosmo_total_nonelectrostatic_energy": 7.95, 
			 "SMD_solvation_energy": 4.12 
		},
		"coords": [
			{
				"x": -0.2567396412,
				"y": -0.2732808659,
				"z": 3.0135762026,
				"element": "O" 
			},
			{
				"x": 0.3032927609,
				"y": -1.1749555816,
				"z": 2.0719316657,
				"element": "C" 
			},
			{
				"x": -0.4877420811,
				"y": -1.2712518701,
				"z": 0.7823985398,
				"element": "C" 
			},
			{
				"x": 0.079660939,
				"y": -1.7856267674,
				"z": -0.3838732893,
				"element": "C" 
			},
			{
				"x": 1.3730749233,
				"y": -2.222697493,
				"z": -0.4700922702,
				"element": "O" 
			},
			{
				"x": 1.5311321012,
				"y": -2.8583404209,
				"z": -1.7659545847,
				"element": "C" 
			},
			{
				"x": 0.3241585484,
				"y": -2.4238652484,
				"z": -2.634466509,
				"element": "C" 
			},
			{
				"x": -0.6242746073,
				"y": -1.890096314,
				"z": -1.5836492795,
				"element": "C" 
			},
			{
				"x": -1.9488650045,
				"y": -1.4768876627,
				"z": -1.6564157448,
				"element": "C" 
			},
			{
				"x": -2.5346401635,
				"y": -0.9684620186,
				"z": -0.4924871652,
				"element": "C" 
			},
			{
				"x": -4.2169728322,
				"y": -0.4433553043,
				"z": -0.5425532867,
				"element": "Cl" 
			},
			{
				"x": -1.8260647571,
				"y": -0.8638812196,
				"z": 0.7047569148,
				"element": "C" 
			},
			{
				"x": -0.2244487582,
				"y": 0.6114195615,
				"z": 2.6255318089,
				"element": "H" 
			},
			{
				"x": 0.3192472679,
				"y": -2.1500244349,
				"z": 2.5732770993,
				"element": "H" 
			},
			{
				"x": 1.3494927111,
				"y": -0.9278638752,
				"z": 1.8389205324,
				"element": "H" 
			},
			{
				"x": 1.5422901067,
				"y": -3.9431388537,
				"z": -1.6076304265,
				"element": "H" 
			},
			{
				"x": 2.4982002352,
				"y": -2.5510519015,
				"z": -2.1695267343,
				"element": "H" 
			},
			{
				"x": 0.6002136831,
				"y": -1.6409401454,
				"z": -3.3516528057,
				"element": "H" 
			},
			{
				"x": -0.0859784261,
				"y": -3.2616586899,
				"z": -3.2064579246,
				"element": "H" 
			},
			{
				"x": -2.5185464552,
				"y": -1.5400487106,
				"z": -2.5772362664,
				"element": "H" 
			},
			{
				"x": -2.3037905505,
				"y": -0.4674921839,
				"z": 1.5933035233,
				"element": "H" 
			}
		],
		 "valence_orbital": [ 
			{
				"type": "occ",
				"energy": -0.30635,
				"method": "rhf"
			},
			{
				"type": "occ",
				"energy": -0.29703,
				"method": "rhf"
			},
			{
				"type": "occ",
				"energy": -0.27928,
				"method": "rhf"
			},
			{
				"type": "occ",
				"energy": -0.25179,
				"method": "rhf"
			},
			{
				"type": "occ",
				"energy": -0.21353,
				"method": "rhf"
			},
			{
				"type": "unocc",
				"energy": -0.01488,
				"method": "rhf"
			},
			{
				"type": "unocc",
				"energy": 0.00269,
				"method": "rhf"
			},
			{
				"type": "unocc",
				"energy": 0.03599,
				"method": "rhf"
			},
			{
				"type": "unocc",
				"energy": 0.08021,
				"method": "rhf"
			},
			{
				"type": "unocc",
				"energy": 0.08608,
				"method": "rhf"
			}
		],
		"cosmo_sigma_profile": { 
			"-0.025": 0.0,
			"-0.024": 0.0,
			"-0.023": 0.0,
			"-0.022": 0.0,
			"-0.021": 0.0,
			"-0.02": 0.0,
			"-0.019": 0.0,
			"-0.018": 0.0,
			"-0.017": 0.0,
			"-0.016": 0.36048644458,
			"-0.015": 0.904118394015,
			"-0.014": 1.05933413847,
			"-0.013": 0.685032205103,
			"-0.012": 0.890409525252,
			"-0.011": 0.997191248489,
			"-0.01": 0.619927995355,
			"-0.009": 0.940021050507,
			"-0.008": 1.03635781705,
			"-0.007": 2.24166520442,
			"-0.006": 8.14505251481,
			"-0.005": 20.1540948738,
			"-0.004": 19.0188723086,
			"-0.003": 17.6240729969,
			"-0.002": 15.0505391394,
			"-0.001": 10.5331381357,
			"0.0": 11.6205184894,
			"0.001": 12.2360509062,
			"0.002": 14.3038665121,
			"0.003": 18.0255164377,
			"0.004": 18.162317066,
			"0.005": 14.1130328374,
			"0.006": 5.2513497745,
			"0.007": 2.08936235259,
			"0.008": 2.05278189859,
			"0.009": 2.56821216849,
			"0.01": 2.43994541996,
			"0.011": 1.21136911814,
			"0.012": 1.33494969768,
			"0.013": 1.72434216644,
			"0.014": 1.45827382595,
			"0.015": 0.00823326534965,
			"0.016": 0.0,
			"0.017": 0.0,
			"0.018": 0.0,
			"0.019": 0.0,
			"0.02": 0.0,
			"0.021": 0.0,
			"0.022": 0.0,
			"0.023": 0.0,
			"0.024": 0.0,
			"0.025": 0.0
		}
	}
}
