{
	 "smiles": "OC1=C(C=C(C=C1[N+]([O-])=O)[N+]([O-])=O)[N+]([O-])=O", 
	 "Tm": 395.15, 
	 "num_atms": 19, 
	 "gaussian": { 
		 "optdone": 1, 
		 "sigma_profile": "yes", 
		 "theory": "DFT", 
		 "functional": "B3LYP", 
		 "basiset": "6-31G**", 
		 "properties": { 
			 "R2extent": 3602.472, 
			 "electric_dipole_moment_norm": 1.7981748024, 
			 "electric_quadrupole_moment_norm": 14.415844301, 
			 "total_energy": -920.947191335, 
			 "HOMO_LUMO_gap": 0.15857, 
			 "cosmo_polarized_energy": -16.23, 
			 "cosmo_cavitation_energy": 26.56, 
			 "cosmo_dispersion_energy": -19.61, 
			 "cosmo_repulsion_energy": 1.51, 
			 "cosmo_total_nonelectrostatic_energy": 8.45, 
			 "SMD_solvation_energy": 11.69 
		},
		"coords": [
			{
				"x": -1.1313552458,
				"y": -0.8912453792,
				"z": 1.9806852982,
				"element": "O" 
			},
			{
				"x": -0.5889157637,
				"y": -0.4439556338,
				"z": 0.8686192975,
				"element": "C" 
			},
			{
				"x": -0.7460758591,
				"y": 0.9118867145,
				"z": 0.4723210243,
				"element": "C" 
			},
			{
				"x": -0.22918833,
				"y": 1.3931802575,
				"z": -0.717213489,
				"element": "C" 
			},
			{
				"x": 0.4970906988,
				"y": 0.5383312312,
				"z": -1.545201036,
				"element": "C" 
			},
			{
				"x": 0.6953241956,
				"y": -0.7909525107,
				"z": -1.2151488535,
				"element": "C" 
			},
			{
				"x": 0.1513696429,
				"y": -1.2720620562,
				"z": -0.027898414,
				"element": "C" 
			},
			{
				"x": 0.3613662902,
				"y": -2.6809173823,
				"z": 0.2803200703,
				"element": "N" 
			},
			{
				"x": -0.1464701161,
				"y": -3.1314217732,
				"z": 1.3315933326,
				"element": "O" 
			},
			{
				"x": 1.0166719604,
				"y": -3.3621301609,
				"z": -0.4904834251,
				"element": "O" 
			},
			{
				"x": 1.0604953564,
				"y": 1.0583204936,
				"z": -2.7989115044,
				"element": "N" 
			},
			{
				"x": 0.8648174754,
				"y": 2.2442950877,
				"z": -3.0516418531,
				"element": "O" 
			},
			{
				"x": 1.6862611351,
				"y": 0.2695563746,
				"z": -3.5029834412,
				"element": "O" 
			},
			{
				"x": -1.4706616173,
				"y": 1.8761683725,
				"z": 1.3227037096,
				"element": "N" 
			},
			{
				"x": -1.4804554463,
				"y": 1.6778832348,
				"z": 2.5305500891,
				"element": "O" 
			},
			{
				"x": -1.9895347619,
				"y": 2.8302209424,
				"z": 0.7454853031,
				"element": "O" 
			},
			{
				"x": -0.9117206835,
				"y": -1.859880219,
				"z": 2.0309757262,
				"element": "H" 
			},
			{
				"x": -0.3923163715,
				"y": 2.426052357,
				"z": -0.9972349518,
				"element": "H" 
			},
			{
				"x": 1.2558974404,
				"y": -1.4490299506,
				"z": -1.8661368828,
				"element": "H" 
			}
		],
		 "valence_orbital": [ 
			{
				"type": "occ",
				"energy": -0.33365,
				"method": "rhf"
			},
			{
				"type": "occ",
				"energy": -0.32939,
				"method": "rhf"
			},
			{
				"type": "occ",
				"energy": -0.32184,
				"method": "rhf"
			},
			{
				"type": "occ",
				"energy": -0.31485,
				"method": "rhf"
			},
			{
				"type": "occ",
				"energy": -0.30222,
				"method": "rhf"
			},
			{
				"type": "unocc",
				"energy": -0.14365,
				"method": "rhf"
			},
			{
				"type": "unocc",
				"energy": -0.12094,
				"method": "rhf"
			},
			{
				"type": "unocc",
				"energy": -0.10819,
				"method": "rhf"
			},
			{
				"type": "unocc",
				"energy": -0.03996,
				"method": "rhf"
			},
			{
				"type": "unocc",
				"energy": -0.02577,
				"method": "rhf"
			}
		],
		"cosmo_sigma_profile": { 
			"-0.025": 0.0,
			"-0.024": 0.0,
			"-0.023": 0.0,
			"-0.022": 0.0,
			"-0.021": 0.0,
			"-0.02": 0.0,
			"-0.019": 0.0,
			"-0.018": 0.0,
			"-0.017": 0.0,
			"-0.016": 0.0,
			"-0.015": 0.0,
			"-0.014": 0.0,
			"-0.013": 0.131143499872,
			"-0.012": 1.31765866727,
			"-0.011": 2.39235935832,
			"-0.01": 3.49833243884,
			"-0.009": 6.00494176053,
			"-0.008": 9.52049982465,
			"-0.007": 13.7861893718,
			"-0.006": 17.0737722109,
			"-0.005": 18.235459164,
			"-0.004": 11.2423248707,
			"-0.003": 6.92987374382,
			"-0.002": 7.49585048589,
			"-0.001": 7.14389682618,
			"0.0": 5.30668512487,
			"0.001": 6.29974528907,
			"0.002": 7.9109233744,
			"0.003": 7.63205363042,
			"0.004": 9.96956630475,
			"0.005": 11.5374076053,
			"0.006": 20.3164323668,
			"0.007": 20.5872961809,
			"0.008": 12.8912196811,
			"0.009": 6.35362742977,
			"0.01": 1.38465044866,
			"0.011": 0.11845114713,
			"0.012": 0.0,
			"0.013": 0.0,
			"0.014": 0.0,
			"0.015": 0.0,
			"0.016": 0.0,
			"0.017": 0.0,
			"0.018": 0.0,
			"0.019": 0.0,
			"0.02": 0.0,
			"0.021": 0.0,
			"0.022": 0.0,
			"0.023": 0.0,
			"0.024": 0.0,
			"0.025": 0.0
		}
	}
}
