{
	 "smiles": "CCC(CC)COC(=O)CCCCCCCC(=O)OCC(CC)CC", 
	 "Tm": 228.15, 
	 "num_atms": 65, 
	 "gaussian": { 
		 "optdone": 1, 
		 "sigma_profile": "yes", 
		 "theory": "DFT", 
		 "functional": "B3LYP", 
		 "basiset": "6-31G**", 
		 "properties": { 
			 "R2extent": 26137.9706, 
			 "electric_dipole_moment_norm": 2.04997209005, 
			 "electric_quadrupole_moment_norm": 18.5903344427, 
			 "total_energy": -1125.31827826, 
			 "HOMO_LUMO_gap": 0.27774, 
			 "cosmo_polarized_energy": -11.72, 
			 "cosmo_cavitation_energy": 64.12, 
			 "cosmo_dispersion_energy": -42.73, 
			 "cosmo_repulsion_energy": 3.4, 
			 "cosmo_total_nonelectrostatic_energy": 24.79, 
			 "SMD_solvation_energy": 11.09 
		},
		"coords": [
			{
				"x": 2.9718711195,
				"y": -7.9875122633,
				"z": 0.5091697993,
				"element": "C" 
			},
			{
				"x": 3.3684410187,
				"y": -7.6153514043,
				"z": 1.9449414448,
				"element": "C" 
			},
			{
				"x": 2.8778320858,
				"y": -6.2380666265,
				"z": 2.4497755721,
				"element": "C" 
			},
			{
				"x": 1.3434424119,
				"y": -6.0833062398,
				"z": 2.479297053,
				"element": "C" 
			},
			{
				"x": 0.6232837979,
				"y": -7.0667131724,
				"z": 3.4082448019,
				"element": "C" 
			},
			{
				"x": 3.5296040927,
				"y": -5.112184722,
				"z": 1.6463809284,
				"element": "C" 
			},
			{
				"x": 3.2782284386,
				"y": -3.8649843693,
				"z": 2.3355130375,
				"element": "O" 
			},
			{
				"x": 3.7172849952,
				"y": -2.7451184187,
				"z": 1.7197153513,
				"element": "C" 
			},
			{
				"x": 4.2832547087,
				"y": -2.7493980159,
				"z": 0.646330566,
				"element": "O" 
			},
			{
				"x": 3.4352178422,
				"y": -1.5155069005,
				"z": 2.56484474,
				"element": "C" 
			},
			{
				"x": 3.6036857187,
				"y": -0.1993353651,
				"z": 1.7993426321,
				"element": "C" 
			},
			{
				"x": 2.515374538,
				"y": 0.0455323371,
				"z": 0.7458273249,
				"element": "C" 
			},
			{
				"x": 2.6919044131,
				"y": 1.3718221399,
				"z": -0.003634162,
				"element": "C" 
			},
			{
				"x": 1.6013559876,
				"y": 1.6278698876,
				"z": -1.0513873263,
				"element": "C" 
			},
			{
				"x": 1.7902258909,
				"y": 2.9517464252,
				"z": -1.8029475246,
				"element": "C" 
			},
			{
				"x": 0.7082599526,
				"y": 3.223775167,
				"z": -2.8691773085,
				"element": "C" 
			},
			{
				"x": -0.6765666389,
				"y": 3.3711327346,
				"z": -2.2714732687,
				"element": "C" 
			},
			{
				"x": -1.5747208904,
				"y": 2.5630770168,
				"z": -2.3848248742,
				"element": "O" 
			},
			{
				"x": -0.7718459886,
				"y": 4.5263076462,
				"z": -1.5664419159,
				"element": "O" 
			},
			{
				"x": -2.0145484134,
				"y": 4.806378093,
				"z": -0.8746772066,
				"element": "C" 
			},
			{
				"x": -2.6829548397,
				"y": 6.0920176308,
				"z": -1.3805734771,
				"element": "C" 
			},
			{
				"x": -3.0214090094,
				"y": 6.0493259849,
				"z": -2.8844218506,
				"element": "C" 
			},
			{
				"x": -4.0458525779,
				"y": 4.9776857616,
				"z": -3.2786507054,
				"element": "C" 
			},
			{
				"x": -1.9294797031,
				"y": 7.3805755029,
				"z": -0.9731337038,
				"element": "C" 
			},
			{
				"x": -0.588380872,
				"y": 7.6505134583,
				"z": -1.6693464554,
				"element": "C" 
			},
			{
				"x": 1.8851949628,
				"y": -8.0269483935,
				"z": 0.3823454083,
				"element": "H" 
			},
			{
				"x": 3.3652231464,
				"y": -7.2765008182,
				"z": -0.2249055731,
				"element": "H" 
			},
			{
				"x": 3.3665503524,
				"y": -8.9748041159,
				"z": 0.248483063,
				"element": "H" 
			},
			{
				"x": 4.4627640957,
				"y": -7.6430303821,
				"z": 2.031444804,
				"element": "H" 
			},
			{
				"x": 2.9992889578,
				"y": -8.3882425709,
				"z": 2.6286384735,
				"element": "H" 
			},
			{
				"x": 3.2403085586,
				"y": -6.1322631468,
				"z": 3.4829123392,
				"element": "H" 
			},
			{
				"x": 1.1161249047,
				"y": -5.0593553153,
				"z": 2.7955787219,
				"element": "H" 
			},
			{
				"x": 0.9455416222,
				"y": -6.1799742804,
				"z": 1.4603013391,
				"element": "H" 
			},
			{
				"x": -0.4495245125,
				"y": -6.8516847494,
				"z": 3.4464904351,
				"element": "H" 
			},
			{
				"x": 0.7360525297,
				"y": -8.1048345322,
				"z": 3.0790109299,
				"element": "H" 
			},
			{
				"x": 1.0103147173,
				"y": -7.0000484194,
				"z": 4.4317739482,
				"element": "H" 
			},
			{
				"x": 4.612961308,
				"y": -5.2535073834,
				"z": 1.5629616102,
				"element": "H" 
			},
			{
				"x": 3.1279711381,
				"y": -5.0369548909,
				"z": 0.6310071031,
				"element": "H" 
			},
			{
				"x": 2.4301687945,
				"y": -1.6107825108,
				"z": 2.9917785372,
				"element": "H" 
			},
			{
				"x": 4.1252433353,
				"y": -1.5570556319,
				"z": 3.418234033,
				"element": "H" 
			},
			{
				"x": 3.6038816206,
				"y": 0.6258666025,
				"z": 2.5228022915,
				"element": "H" 
			},
			{
				"x": 4.5865027112,
				"y": -0.1983349331,
				"z": 1.3144962208,
				"element": "H" 
			},
			{
				"x": 2.5217476634,
				"y": -0.7814051786,
				"z": 0.0255554702,
				"element": "H" 
			},
			{
				"x": 1.528808821,
				"y": 0.031710957,
				"z": 1.2316693063,
				"element": "H" 
			},
			{
				"x": 2.7034127867,
				"y": 2.2012711445,
				"z": 0.7184087359,
				"element": "H" 
			},
			{
				"x": 3.6761362418,
				"y": 1.3815180425,
				"z": -0.4929170591,
				"element": "H" 
			},
			{
				"x": 1.5870278799,
				"y": 0.7999877943,
				"z": -1.7736212935,
				"element": "H" 
			},
			{
				"x": 0.6176026274,
				"y": 1.6161299142,
				"z": -0.5628855827,
				"element": "H" 
			},
			{
				"x": 2.7673652608,
				"y": 2.9509117406,
				"z": -2.3020938502,
				"element": "H" 
			},
			{
				"x": 1.8044358138,
				"y": 3.7864140523,
				"z": -1.0917666455,
				"element": "H" 
			},
			{
				"x": 0.6625966362,
				"y": 2.4030902069,
				"z": -3.5898551441,
				"element": "H" 
			},
			{
				"x": 0.9525972645,
				"y": 4.146249023,
				"z": -3.4071483916,
				"element": "H" 
			},
			{
				"x": -1.7508924739,
				"y": 4.9106593196,
				"z": 0.1833549827,
				"element": "H" 
			},
			{
				"x": -2.6709787733,
				"y": 3.9429588648,
				"z": -0.9916266847,
				"element": "H" 
			},
			{
				"x": -3.6401832313,
				"y": 6.1191322277,
				"z": -0.8351819802,
				"element": "H" 
			},
			{
				"x": -3.4046835481,
				"y": 7.0373377975,
				"z": -3.1713920157,
				"element": "H" 
			},
			{
				"x": -2.1007335792,
				"y": 5.9041258342,
				"z": -3.4619733437,
				"element": "H" 
			},
			{
				"x": -4.2973391105,
				"y": 5.0563435509,
				"z": -4.3415099099,
				"element": "H" 
			},
			{
				"x": -4.9770638032,
				"y": 5.0925871777,
				"z": -2.7109560304,
				"element": "H" 
			},
			{
				"x": -3.6647335357,
				"y": 3.967228913,
				"z": -3.1052236663,
				"element": "H" 
			},
			{
				"x": -1.7697342874,
				"y": 7.3570373276,
				"z": 0.1136368802,
				"element": "H" 
			},
			{
				"x": -2.5999457786,
				"y": 8.2304193694,
				"z": -1.1580450646,
				"element": "H" 
			},
			{
				"x": 0.1309952879,
				"y": 6.8496146552,
				"z": -1.483233853,
				"element": "H" 
			},
			{
				"x": -0.7079896124,
				"y": 7.7441244658,
				"z": -2.7535914917,
				"element": "H" 
			},
			{
				"x": -0.1558248712,
				"y": 8.5891259837,
				"z": -1.3066505256,
				"element": "H" 
			}
		],
		 "valence_orbital": [ 
			{
				"type": "occ",
				"energy": -0.30568,
				"method": "rhf"
			},
			{
				"type": "occ",
				"energy": -0.29262,
				"method": "rhf"
			},
			{
				"type": "occ",
				"energy": -0.2875,
				"method": "rhf"
			},
			{
				"type": "occ",
				"energy": -0.26591,
				"method": "rhf"
			},
			{
				"type": "occ",
				"energy": -0.26496,
				"method": "rhf"
			},
			{
				"type": "unocc",
				"energy": 0.01278,
				"method": "rhf"
			},
			{
				"type": "unocc",
				"energy": 0.01676,
				"method": "rhf"
			},
			{
				"type": "unocc",
				"energy": 0.07564,
				"method": "rhf"
			},
			{
				"type": "unocc",
				"energy": 0.07838,
				"method": "rhf"
			},
			{
				"type": "unocc",
				"energy": 0.09371,
				"method": "rhf"
			}
		],
		"cosmo_sigma_profile": { 
			"-0.025": 0.0,
			"-0.024": 0.0,
			"-0.023": 0.0,
			"-0.022": 0.0,
			"-0.021": 0.0,
			"-0.02": 0.0,
			"-0.019": 0.0,
			"-0.018": 0.0,
			"-0.017": 0.0,
			"-0.016": 0.0,
			"-0.015": 0.0,
			"-0.014": 0.0,
			"-0.013": 0.0,
			"-0.012": 0.0,
			"-0.011": 0.0,
			"-0.01": 0.0,
			"-0.009": 0.0,
			"-0.008": 0.0,
			"-0.007": 0.0,
			"-0.006": 1.84093534833,
			"-0.005": 8.85190538629,
			"-0.004": 19.951477637,
			"-0.003": 49.4344039406,
			"-0.002": 95.0103071715,
			"-0.001": 87.3367034243,
			"0.0": 73.5216865525,
			"0.001": 65.358851695,
			"0.002": 30.8476621484,
			"0.003": 10.2263047225,
			"0.004": 9.48763808209,
			"0.005": 6.71609672602,
			"0.006": 4.97718061546,
			"0.007": 3.34984095597,
			"0.008": 4.47880006433,
			"0.009": 3.1379068472,
			"0.01": 3.60158342227,
			"0.011": 3.93409570102,
			"0.012": 7.5285493225,
			"0.013": 3.52832142559,
			"0.014": 0.164106886112,
			"0.015": 0.0,
			"0.016": 0.0,
			"0.017": 0.0,
			"0.018": 0.0,
			"0.019": 0.0,
			"0.02": 0.0,
			"0.021": 0.0,
			"0.022": 0.0,
			"0.023": 0.0,
			"0.024": 0.0,
			"0.025": 0.0
		}
	}
}
