{
	 "smiles": "NC(=O)NN=CC1=CC=CC2=C(Br)C=CC=C12", 
	 "Tm": 531.15, 
	 "num_atms": 27, 
	 "gaussian": { 
		 "optdone": 1, 
		 "sigma_profile": "yes", 
		 "theory": "DFT", 
		 "functional": "B3LYP", 
		 "basiset": "6-31G**", 
		 "properties": { 
			 "R2extent": 7581.6902, 
			 "electric_dipole_moment_norm": 3.40388536969, 
			 "electric_quadrupole_moment_norm": 18.1075635537, 
			 "total_energy": -3274.18561351, 
			 "HOMO_LUMO_gap": 0.15281, 
			 "cosmo_polarized_energy": -14.66, 
			 "cosmo_cavitation_energy": 33.86, 
			 "cosmo_dispersion_energy": -25.29, 
			 "cosmo_repulsion_energy": 1.97, 
			 "cosmo_total_nonelectrostatic_energy": 10.54, 
			 "SMD_solvation_energy": 5.08 
		},
		"coords": [
			{
				"x": -1.4854015709,
				"y": 5.2239303059,
				"z": -1.161831666,
				"element": "N" 
			},
			{
				"x": -0.9609813334,
				"y": 4.5571356874,
				"z": -0.0945802784,
				"element": "C" 
			},
			{
				"x": -0.9135325679,
				"y": 4.9752167495,
				"z": 1.0525459104,
				"element": "O" 
			},
			{
				"x": -0.3969896275,
				"y": 3.3113036627,
				"z": -0.4096909529,
				"element": "N" 
			},
			{
				"x": -0.6041855953,
				"y": 2.7418031695,
				"z": -1.619757608,
				"element": "N" 
			},
			{
				"x": -0.2056535849,
				"y": 1.5394399612,
				"z": -1.8587666893,
				"element": "C" 
			},
			{
				"x": 0.5549380204,
				"y": 0.6188792133,
				"z": -0.9816094078,
				"element": "C" 
			},
			{
				"x": 1.6805513245,
				"y": 1.0599026427,
				"z": -0.3021020637,
				"element": "C" 
			},
			{
				"x": 2.4634335443,
				"y": 0.1721349002,
				"z": 0.4657246669,
				"element": "C" 
			},
			{
				"x": 2.1299239459,
				"y": -1.1592693123,
				"z": 0.551020483,
				"element": "C" 
			},
			{
				"x": 0.9881983709,
				"y": -1.6659558086,
				"z": -0.1239603234,
				"element": "C" 
			},
			{
				"x": 0.5895786331,
				"y": -3.0340912951,
				"z": -0.0714317384,
				"element": "C" 
			},
			{
				"x": 1.6178497987,
				"y": -4.3028458052,
				"z": 0.9312796547,
				"element": "Br" 
			},
			{
				"x": -0.5304082448,
				"y": -3.4951694366,
				"z": -0.7224406734,
				"element": "C" 
			},
			{
				"x": -1.3263353756,
				"y": -2.5948795007,
				"z": -1.4637954225,
				"element": "C" 
			},
			{
				"x": -0.9854529521,
				"y": -1.264595083,
				"z": -1.5473802398,
				"element": "C" 
			},
			{
				"x": 0.1759293443,
				"y": -0.7659083973,
				"z": -0.8991060929,
				"element": "C" 
			},
			{
				"x": -2.0248344024,
				"y": 6.0470878544,
				"z": -0.9522653281,
				"element": "H" 
			},
			{
				"x": -1.6289903843,
				"y": 4.7269112777,
				"z": -2.0277029641,
				"element": "H" 
			},
			{
				"x": -0.0803330549,
				"y": 2.7724998823,
				"z": 0.3914049382,
				"element": "H" 
			},
			{
				"x": -0.458617004,
				"y": 1.1849381023,
				"z": -2.8561037651,
				"element": "H" 
			},
			{
				"x": 1.9879815537,
				"y": 2.0975525464,
				"z": -0.3903759274,
				"element": "H" 
			},
			{
				"x": 3.3425154746,
				"y": 0.5457846657,
				"z": 0.9816458489,
				"element": "H" 
			},
			{
				"x": 2.736356786,
				"y": -1.8404471301,
				"z": 1.1358548966,
				"element": "H" 
			},
			{
				"x": -0.802881802,
				"y": -4.5422107621,
				"z": -0.6595368545,
				"element": "H" 
			},
			{
				"x": -2.2168466923,
				"y": -2.9639341701,
				"z": -1.9632808579,
				"element": "H" 
			},
			{
				"x": -1.6200126043,
				"y": -0.5814139201,
				"z": -2.1004575451,
				"element": "H" 
			}
		],
		 "valence_orbital": [ 
			{
				"type": "occ",
				"energy": -0.26694,
				"method": "rhf"
			},
			{
				"type": "occ",
				"energy": -0.26523,
				"method": "rhf"
			},
			{
				"type": "occ",
				"energy": -0.25948,
				"method": "rhf"
			},
			{
				"type": "occ",
				"energy": -0.24598,
				"method": "rhf"
			},
			{
				"type": "occ",
				"energy": -0.22226,
				"method": "rhf"
			},
			{
				"type": "unocc",
				"energy": -0.06945,
				"method": "rhf"
			},
			{
				"type": "unocc",
				"energy": -0.03142,
				"method": "rhf"
			},
			{
				"type": "unocc",
				"energy": -0.02193,
				"method": "rhf"
			},
			{
				"type": "unocc",
				"energy": 0.00089,
				"method": "rhf"
			},
			{
				"type": "unocc",
				"energy": 0.02812,
				"method": "rhf"
			}
		],
		"cosmo_sigma_profile": { 
			"-0.025": 0.0,
			"-0.024": 0.0,
			"-0.023": 0.0,
			"-0.022": 0.0,
			"-0.021": 0.0,
			"-0.02": 0.0,
			"-0.019": 0.0,
			"-0.018": 0.0,
			"-0.017": 0.0,
			"-0.016": 0.0,
			"-0.015": 0.0396488317684,
			"-0.014": 0.924687117032,
			"-0.013": 1.18690947144,
			"-0.012": 1.94535575383,
			"-0.011": 2.41195564191,
			"-0.01": 2.25205417888,
			"-0.009": 2.95535800826,
			"-0.008": 3.963353373,
			"-0.007": 11.3154586341,
			"-0.006": 16.7334363201,
			"-0.005": 15.9553950303,
			"-0.004": 14.9835048851,
			"-0.003": 13.1763574505,
			"-0.002": 13.8337263756,
			"-0.001": 15.1011023849,
			"0.0": 20.6890288402,
			"0.001": 24.6887914829,
			"0.002": 35.417826221,
			"0.003": 27.610075859,
			"0.004": 17.016179885,
			"0.005": 6.33731436374,
			"0.006": 4.50343357181,
			"0.007": 3.24366511937,
			"0.008": 1.7955909672,
			"0.009": 1.47417077619,
			"0.01": 1.01495150099,
			"0.011": 1.26919551415,
			"0.012": 1.86006947903,
			"0.013": 3.04135817592,
			"0.014": 6.63646696998,
			"0.015": 1.52403554574,
			"0.016": 0.0,
			"0.017": 0.0,
			"0.018": 0.0,
			"0.019": 0.0,
			"0.02": 0.0,
			"0.021": 0.0,
			"0.022": 0.0,
			"0.023": 0.0,
			"0.024": 0.0,
			"0.025": 0.0
		}
	}
}
