{
	 "smiles": "COC1=C(NC(=O)CCl)C=C(C=C1)S(=O)(=O)N1CCOCC1", 
	 "Tm": 454.15, 
	 "num_atms": 39, 
	 "gaussian": { 
		 "optdone": 1, 
		 "sigma_profile": "yes", 
		 "theory": "DFT", 
		 "functional": "B3LYP", 
		 "basiset": "6-31G**", 
		 "properties": { 
			 "R2extent": 8616.8647, 
			 "electric_dipole_moment_norm": 6.37532029784, 
			 "electric_quadrupole_moment_norm": 35.7220734934, 
			 "total_energy": -1849.53081781, 
			 "HOMO_LUMO_gap": 0.19156, 
			 "cosmo_polarized_energy": -23.83, 
			 "cosmo_cavitation_energy": 44.72, 
			 "cosmo_dispersion_energy": -30.63, 
			 "cosmo_repulsion_energy": 2.31, 
			 "cosmo_total_nonelectrostatic_energy": 16.39, 
			 "SMD_solvation_energy": 7.12 
		},
		"coords": [
			{
				"x": -4.819097608,
				"y": 0.3842326014,
				"z": -2.1931774586,
				"element": "C" 
			},
			{
				"x": -3.5549274288,
				"y": -0.2699732232,
				"z": -2.1409462613,
				"element": "O" 
			},
			{
				"x": -2.7239409013,
				"y": -0.0029015213,
				"z": -1.0978625969,
				"element": "C" 
			},
			{
				"x": -1.510811619,
				"y": -0.7456835905,
				"z": -1.099536375,
				"element": "C" 
			},
			{
				"x": -1.3202641213,
				"y": -1.6525009463,
				"z": -2.1592565853,
				"element": "N" 
			},
			{
				"x": -0.2084036184,
				"y": -1.9850055188,
				"z": -2.9080505087,
				"element": "C" 
			},
			{
				"x": -0.3046299503,
				"y": -2.7566282733,
				"z": -3.8478149459,
				"element": "O" 
			},
			{
				"x": 1.1286968084,
				"y": -1.3315144952,
				"z": -2.5721582745,
				"element": "C" 
			},
			{
				"x": 2.1254006118,
				"y": -2.3896803895,
				"z": -1.4869570256,
				"element": "Cl" 
			},
			{
				"x": -0.620362832,
				"y": -0.5871077754,
				"z": -0.0424476899,
				"element": "C" 
			},
			{
				"x": -0.8924587803,
				"y": 0.3546621051,
				"z": 0.9574480101,
				"element": "C" 
			},
			{
				"x": -2.0650888874,
				"y": 1.0991036716,
				"z": 0.9529190428,
				"element": "C" 
			},
			{
				"x": -2.99208746,
				"y": 0.9071564644,
				"z": -0.0764406231,
				"element": "C" 
			},
			{
				"x": 0.265601225,
				"y": 0.5372234205,
				"z": 2.3128728365,
				"element": "S" 
			},
			{
				"x": -0.2871918012,
				"y": 1.561866299,
				"z": 3.210235824,
				"element": "O" 
			},
			{
				"x": 0.6127362116,
				"y": -0.794923701,
				"z": 2.8188412896,
				"element": "O" 
			},
			{
				"x": 1.64140403,
				"y": 1.1241014218,
				"z": 1.5200532378,
				"element": "N" 
			},
			{
				"x": 1.6487225366,
				"y": 2.5806958641,
				"z": 1.2678171191,
				"element": "C" 
			},
			{
				"x": 3.0200240521,
				"y": 2.9699057959,
				"z": 0.7237183993,
				"element": "C" 
			},
			{
				"x": 4.0703909845,
				"y": 2.7235565988,
				"z": 1.6498735658,
				"element": "O" 
			},
			{
				"x": 3.8542253728,
				"y": 1.6047832701,
				"z": 2.5125595363,
				"element": "C" 
			},
			{
				"x": 2.9571695706,
				"y": 0.5448566338,
				"z": 1.8830639426,
				"element": "C" 
			},
			{
				"x": -4.7002833376,
				"y": 1.4709220989,
				"z": -2.2754677477,
				"element": "H" 
			},
			{
				"x": -5.3135520381,
				"y": 0.0056644291,
				"z": -3.0879997656,
				"element": "H" 
			},
			{
				"x": -5.4260668751,
				"y": 0.1481867425,
				"z": -1.3114154441,
				"element": "H" 
			},
			{
				"x": -2.1720375403,
				"y": -2.0002487643,
				"z": -2.5853676021,
				"element": "H" 
			},
			{
				"x": 1.0326553235,
				"y": -0.3647647775,
				"z": -2.0788721978,
				"element": "H" 
			},
			{
				"x": 1.6809776379,
				"y": -1.2374808621,
				"z": -3.5052678117,
				"element": "H" 
			},
			{
				"x": 0.2676374345,
				"y": -1.2045569305,
				"z": 0.0229923756,
				"element": "H" 
			},
			{
				"x": -2.2564127241,
				"y": 1.8063598222,
				"z": 1.7515100886,
				"element": "H" 
			},
			{
				"x": -3.9132408356,
				"y": 1.4767892013,
				"z": -0.0760427308,
				"element": "H" 
			},
			{
				"x": 0.8744401157,
				"y": 2.8257997347,
				"z": 0.5313978463,
				"element": "H" 
			},
			{
				"x": 1.4347695921,
				"y": 3.1468210196,
				"z": 2.1824794402,
				"element": "H" 
			},
			{
				"x": 3.2043244276,
				"y": 2.4346739911,
				"z": -0.2212128677,
				"element": "H" 
			},
			{
				"x": 3.0337180305,
				"y": 4.0428177755,
				"z": 0.5063370965,
				"element": "H" 
			},
			{
				"x": 3.4149090581,
				"y": 1.9424322219,
				"z": 3.4632369654,
				"element": "H" 
			},
			{
				"x": 4.8389736186,
				"y": 1.1777842118,
				"z": 2.7310206606,
				"element": "H" 
			},
			{
				"x": 3.4257684239,
				"y": 0.1438907011,
				"z": 0.9764788481,
				"element": "H" 
			},
			{
				"x": 2.804013293,
				"y": -0.2879153273,
				"z": 2.5711383873,
				"element": "H" 
			}
		],
		 "valence_orbital": [ 
			{
				"type": "occ",
				"energy": -0.27266,
				"method": "rhf"
			},
			{
				"type": "occ",
				"energy": -0.26986,
				"method": "rhf"
			},
			{
				"type": "occ",
				"energy": -0.25812,
				"method": "rhf"
			},
			{
				"type": "occ",
				"energy": -0.24848,
				"method": "rhf"
			},
			{
				"type": "occ",
				"energy": -0.23729,
				"method": "rhf"
			},
			{
				"type": "unocc",
				"energy": -0.04573,
				"method": "rhf"
			},
			{
				"type": "unocc",
				"energy": -0.03849,
				"method": "rhf"
			},
			{
				"type": "unocc",
				"energy": -0.01698,
				"method": "rhf"
			},
			{
				"type": "unocc",
				"energy": 0.04884,
				"method": "rhf"
			},
			{
				"type": "unocc",
				"energy": 0.0538,
				"method": "rhf"
			}
		],
		"cosmo_sigma_profile": { 
			"-0.025": 0.0,
			"-0.024": 0.0,
			"-0.023": 0.0,
			"-0.022": 0.0,
			"-0.021": 0.0,
			"-0.02": 0.0,
			"-0.019": 0.0,
			"-0.018": 0.0,
			"-0.017": 0.0,
			"-0.016": 0.0,
			"-0.015": 0.0,
			"-0.014": 0.0,
			"-0.013": 0.201885612083,
			"-0.012": 0.588412118397,
			"-0.011": 0.786479909593,
			"-0.01": 0.647376408789,
			"-0.009": 1.65402682647,
			"-0.008": 6.51910140537,
			"-0.007": 11.9650757864,
			"-0.006": 24.9808946226,
			"-0.005": 34.5460965912,
			"-0.004": 37.1899037166,
			"-0.003": 27.1225356534,
			"-0.002": 22.3582194332,
			"-0.001": 22.1513080162,
			"0.0": 22.2278916685,
			"0.001": 24.2058745571,
			"0.002": 21.7347309761,
			"0.003": 14.5971546935,
			"0.004": 12.4737214366,
			"0.005": 11.3971438229,
			"0.006": 6.40349736031,
			"0.007": 5.12298390921,
			"0.008": 6.41588815529,
			"0.009": 5.83646286588,
			"0.01": 8.98077024963,
			"0.011": 11.0874034322,
			"0.012": 10.4224841552,
			"0.013": 4.32483345218,
			"0.014": 0.388190274177,
			"0.015": 0.0,
			"0.016": 0.0,
			"0.017": 0.0,
			"0.018": 0.0,
			"0.019": 0.0,
			"0.02": 0.0,
			"0.021": 0.0,
			"0.022": 0.0,
			"0.023": 0.0,
			"0.024": 0.0,
			"0.025": 0.0
		}
	}
}
