{
	 "smiles": "NCC(O)C(O)C(O)C(O)CO", 
	 "Tm": 400.15, 
	 "num_atms": 27, 
	 "gaussian": { 
		 "optdone": 1, 
		 "sigma_profile": "yes", 
		 "theory": "DFT", 
		 "functional": "B3LYP", 
		 "basiset": "6-31G**", 
		 "properties": { 
			 "R2extent": 2317.0437, 
			 "electric_dipole_moment_norm": 5.95170489356, 
			 "electric_quadrupole_moment_norm": 13.0946780415, 
			 "total_energy": -668.502999924, 
			 "HOMO_LUMO_gap": 0.25629, 
			 "cosmo_polarized_energy": -21.81, 
			 "cosmo_cavitation_energy": 27.21, 
			 "cosmo_dispersion_energy": -19.99, 
			 "cosmo_repulsion_energy": 1.61, 
			 "cosmo_total_nonelectrostatic_energy": 8.84, 
			 "SMD_solvation_energy": 3.77 
		},
		"coords": [
			{
				"x": 1.8872043193,
				"y": 1.2291227633,
				"z": 2.0489306922,
				"element": "N" 
			},
			{
				"x": 1.2647946141,
				"y": 0.2957987701,
				"z": 2.9847926696,
				"element": "C" 
			},
			{
				"x": 0.7624491844,
				"y": -0.9869952986,
				"z": 2.3006160485,
				"element": "C" 
			},
			{
				"x": 1.7776415874,
				"y": -1.5399033682,
				"z": 1.4296924684,
				"element": "O" 
			},
			{
				"x": -0.5363573493,
				"y": -0.8943782248,
				"z": 1.4827443173,
				"element": "C" 
			},
			{
				"x": -0.9876735862,
				"y": -2.2174338701,
				"z": 1.1898298865,
				"element": "O" 
			},
			{
				"x": -0.499305931,
				"y": 0.0462018985,
				"z": 0.2507262836,
				"element": "C" 
			},
			{
				"x": -1.6665681442,
				"y": 0.8641061876,
				"z": 0.3425112129,
				"element": "O" 
			},
			{
				"x": -0.5065056912,
				"y": -0.6280997165,
				"z": -1.1382233987,
				"element": "C" 
			},
			{
				"x": -0.6275052347,
				"y": 0.428548277,
				"z": -2.105469272,
				"element": "O" 
			},
			{
				"x": 0.7172899242,
				"y": -1.4746658055,
				"z": -1.4920048212,
				"element": "C" 
			},
			{
				"x": 1.9249680723,
				"y": -0.7346944385,
				"z": -1.3574719405,
				"element": "O" 
			},
			{
				"x": 2.0817260627,
				"y": 2.1137749534,
				"z": 2.5074917392,
				"element": "H" 
			},
			{
				"x": 2.7736059887,
				"y": 0.8565988944,
				"z": 1.7225450187,
				"element": "H" 
			},
			{
				"x": 0.4060178501,
				"y": 0.7895107053,
				"z": 3.4540011534,
				"element": "H" 
			},
			{
				"x": 1.9338871729,
				"y": -0.0107797689,
				"z": 3.8111653655,
				"element": "H" 
			},
			{
				"x": 0.5460670738,
				"y": -1.7183831822,
				"z": 3.0918564368,
				"element": "H" 
			},
			{
				"x": 2.462415943,
				"y": -1.9568373604,
				"z": 1.9678337075,
				"element": "H" 
			},
			{
				"x": -1.297466599,
				"y": -0.4681208683,
				"z": 2.1441922673,
				"element": "H" 
			},
			{
				"x": -0.2211434289,
				"y": -2.7022637907,
				"z": 0.8543276178,
				"element": "H" 
			},
			{
				"x": 0.3950934015,
				"y": 0.6785335945,
				"z": 0.3196823253,
				"element": "H" 
			},
			{
				"x": -1.7291298691,
				"y": 1.2948522605,
				"z": -0.5249696403,
				"element": "H" 
			},
			{
				"x": -1.4139319813,
				"y": -1.2325879002,
				"z": -1.2294881107,
				"element": "H" 
			},
			{
				"x": 0.2636335716,
				"y": 0.8065945192,
				"z": -2.1782462976,
				"element": "H" 
			},
			{
				"x": 0.7497694216,
				"y": -2.3997863773,
				"z": -0.9017945801,
				"element": "H" 
			},
			{
				"x": 0.6344558289,
				"y": -1.7602645694,
				"z": -2.5459879199,
				"element": "H" 
			},
			{
				"x": 2.1308677984,
				"y": -0.7457482842,
				"z": -0.4088832294,
				"element": "H" 
			}
		],
		 "valence_orbital": [ 
			{
				"type": "occ",
				"energy": -0.2887,
				"method": "rhf"
			},
			{
				"type": "occ",
				"energy": -0.27162,
				"method": "rhf"
			},
			{
				"type": "occ",
				"energy": -0.25921,
				"method": "rhf"
			},
			{
				"type": "occ",
				"energy": -0.24926,
				"method": "rhf"
			},
			{
				"type": "occ",
				"energy": -0.22912,
				"method": "rhf"
			},
			{
				"type": "unocc",
				"energy": 0.02717,
				"method": "rhf"
			},
			{
				"type": "unocc",
				"energy": 0.07875,
				"method": "rhf"
			},
			{
				"type": "unocc",
				"energy": 0.08521,
				"method": "rhf"
			},
			{
				"type": "unocc",
				"energy": 0.09946,
				"method": "rhf"
			},
			{
				"type": "unocc",
				"energy": 0.11042,
				"method": "rhf"
			}
		],
		"cosmo_sigma_profile": { 
			"-0.025": 0.0,
			"-0.024": 0.0,
			"-0.023": 0.0,
			"-0.022": 0.0,
			"-0.021": 0.0,
			"-0.02": 0.0,
			"-0.019": 0.0,
			"-0.018": 0.0,
			"-0.017": 0.482000276252,
			"-0.016": 1.18313520763,
			"-0.015": 0.984554572427,
			"-0.014": 1.17218416268,
			"-0.013": 1.43749263952,
			"-0.012": 2.15392985676,
			"-0.011": 1.90850415798,
			"-0.01": 4.41227057651,
			"-0.009": 5.38808030931,
			"-0.008": 6.29849994654,
			"-0.007": 6.80675151996,
			"-0.006": 7.97589144846,
			"-0.005": 13.938394367,
			"-0.004": 20.5606460756,
			"-0.003": 18.228080089,
			"-0.002": 13.7804994647,
			"-0.001": 11.93987653,
			"0.0": 9.68364041503,
			"0.001": 6.66880077686,
			"0.002": 7.22506344738,
			"0.003": 6.40857386732,
			"0.004": 4.48209173704,
			"0.005": 4.92340133307,
			"0.006": 4.24565623897,
			"0.007": 5.28122897137,
			"0.008": 5.2891459017,
			"0.009": 6.29929648663,
			"0.01": 5.03505357517,
			"0.011": 4.68635993749,
			"0.012": 6.05303661683,
			"0.013": 6.56963141606,
			"0.014": 6.29975035689,
			"0.015": 0.950490909923,
			"0.016": 0.0,
			"0.017": 0.0,
			"0.018": 0.0,
			"0.019": 0.0,
			"0.02": 0.0,
			"0.021": 0.0,
			"0.022": 0.0,
			"0.023": 0.0,
			"0.024": 0.0,
			"0.025": 0.0
		}
	}
}
