{
	 "smiles": "CS(=O)(=O)C1=CC(=C(Cl)C=C1)[N+]([O-])=O", 
	 "Tm": 395.15, 
	 "num_atms": 20, 
	 "gaussian": { 
		 "optdone": 1, 
		 "sigma_profile": "yes", 
		 "theory": "DFT", 
		 "functional": "B3LYP", 
		 "basiset": "6-31G**", 
		 "properties": { 
			 "R2extent": 4617.8999, 
			 "electric_dipole_moment_norm": 4.93611343772, 
			 "electric_quadrupole_moment_norm": 17.1336829336, 
			 "total_energy": -1484.20468104, 
			 "HOMO_LUMO_gap": 0.18511, 
			 "cosmo_polarized_energy": -18.16, 
			 "cosmo_cavitation_energy": 28.72, 
			 "cosmo_dispersion_energy": -21.18, 
			 "cosmo_repulsion_energy": 1.62, 
			 "cosmo_total_nonelectrostatic_energy": 9.16, 
			 "SMD_solvation_energy": 6.72 
		},
		"coords": [
			{
				"x": -0.4063635106,
				"y": 0.9430417468,
				"z": 3.5091001089,
				"element": "C" 
			},
			{
				"x": -1.1056837097,
				"y": -0.4737432037,
				"z": 2.6311033925,
				"element": "S" 
			},
			{
				"x": -2.5479740681,
				"y": -0.5044759249,
				"z": 2.9067548205,
				"element": "O" 
			},
			{
				"x": -0.2428996166,
				"y": -1.6348001087,
				"z": 2.8911124385,
				"element": "O" 
			},
			{
				"x": -0.8961718729,
				"y": -0.0383117703,
				"z": 0.8902855117,
				"element": "C" 
			},
			{
				"x": -1.8708210293,
				"y": 0.7219391704,
				"z": 0.2559543846,
				"element": "C" 
			},
			{
				"x": -1.7201364164,
				"y": 1.035944419,
				"z": -1.0943238347,
				"element": "C" 
			},
			{
				"x": -0.588244621,
				"y": 0.607972396,
				"z": -1.8078788598,
				"element": "C" 
			},
			{
				"x": -0.2873044452,
				"y": 1.0247019897,
				"z": -3.4669688327,
				"element": "Cl" 
			},
			{
				"x": 0.3809330591,
				"y": -0.1549591454,
				"z": -1.1457236492,
				"element": "C" 
			},
			{
				"x": 0.2272089977,
				"y": -0.490316015,
				"z": 0.1958107923,
				"element": "C" 
			},
			{
				"x": -2.8126083907,
				"y": 1.8194458432,
				"z": -1.7042047993,
				"element": "N" 
			},
			{
				"x": -3.3848470777,
				"y": 2.6211632479,
				"z": -0.9674079671,
				"element": "O" 
			},
			{
				"x": -3.0920121621,
				"y": 1.602739191,
				"z": -2.876843533,
				"element": "O" 
			},
			{
				"x": 0.6469208192,
				"y": 1.0467438367,
				"z": 3.2449344786,
				"element": "H" 
			},
			{
				"x": -0.9711800807,
				"y": 1.8406257509,
				"z": 3.2536096811,
				"element": "H" 
			},
			{
				"x": -0.5106945836,
				"y": 0.719358451,
				"z": 4.5729420341,
				"element": "H" 
			},
			{
				"x": -2.7560021061,
				"y": 1.0578912721,
				"z": 0.783085792,
				"element": "H" 
			},
			{
				"x": 1.2534008423,
				"y": -0.4828176562,
				"z": -1.6992066869,
				"element": "H" 
			},
			{
				"x": 0.9618799724,
				"y": -1.1075434906,
				"z": 0.7018647278,
				"element": "H" 
			}
		],
		 "valence_orbital": [ 
			{
				"type": "occ",
				"energy": -0.31721,
				"method": "rhf"
			},
			{
				"type": "occ",
				"energy": -0.3148,
				"method": "rhf"
			},
			{
				"type": "occ",
				"energy": -0.30763,
				"method": "rhf"
			},
			{
				"type": "occ",
				"energy": -0.29828,
				"method": "rhf"
			},
			{
				"type": "occ",
				"energy": -0.2918,
				"method": "rhf"
			},
			{
				"type": "unocc",
				"energy": -0.10669,
				"method": "rhf"
			},
			{
				"type": "unocc",
				"energy": -0.07152,
				"method": "rhf"
			},
			{
				"type": "unocc",
				"energy": -0.03939,
				"method": "rhf"
			},
			{
				"type": "unocc",
				"energy": -0.00474,
				"method": "rhf"
			},
			{
				"type": "unocc",
				"energy": 0.05028,
				"method": "rhf"
			}
		],
		"cosmo_sigma_profile": { 
			"-0.025": 0.0,
			"-0.024": 0.0,
			"-0.023": 0.0,
			"-0.022": 0.0,
			"-0.021": 0.0,
			"-0.02": 0.0,
			"-0.019": 0.0,
			"-0.018": 0.0,
			"-0.017": 0.0,
			"-0.016": 0.0,
			"-0.015": 0.0,
			"-0.014": 0.0,
			"-0.013": 0.0,
			"-0.012": 0.0,
			"-0.011": 0.0247004775442,
			"-0.01": 1.97185638826,
			"-0.009": 11.0682051285,
			"-0.008": 12.5549411572,
			"-0.007": 11.9666520728,
			"-0.006": 11.2698817423,
			"-0.005": 13.800429143,
			"-0.004": 12.8563403322,
			"-0.003": 17.0455365886,
			"-0.002": 18.7327291268,
			"-0.001": 15.3705436684,
			"0.0": 9.71682211718,
			"0.001": 7.91742422013,
			"0.002": 11.6736905203,
			"0.003": 9.27756018479,
			"0.004": 4.68791670571,
			"0.005": 6.22087319183,
			"0.006": 9.40761361011,
			"0.007": 12.9273960245,
			"0.008": 8.75167973723,
			"0.009": 5.15300304034,
			"0.01": 7.3320960837,
			"0.011": 9.56788700339,
			"0.012": 3.56940435621,
			"0.013": 0.0,
			"0.014": 0.0,
			"0.015": 0.0,
			"0.016": 0.0,
			"0.017": 0.0,
			"0.018": 0.0,
			"0.019": 0.0,
			"0.02": 0.0,
			"0.021": 0.0,
			"0.022": 0.0,
			"0.023": 0.0,
			"0.024": 0.0,
			"0.0": 0.0
		}
	}
}
