{
	 "smiles": "FC(F)(F)[C@]1(OC(=O)NC2=CC=C(Cl)C=C12)C#CC1CC1", 
	 "Tm": 413.15, 
	 "num_atms": 30, 
	 "gaussian": { 
		 "optdone": 1, 
		 "sigma_profile": "yes", 
		 "theory": "DFT", 
		 "functional": "B3LYP", 
		 "basiset": "6-31G**", 
		 "properties": { 
			 "R2extent": 8253.71, 
			 "electric_dipole_moment_norm": 3.13917748781, 
			 "electric_quadrupole_moment_norm": 30.5220527545, 
			 "total_energy": -1503.74974051, 
			 "HOMO_LUMO_gap": 0.19419, 
			 "cosmo_polarized_energy": -15.02, 
			 "cosmo_cavitation_energy": 38.71, 
			 "cosmo_dispersion_energy": -26.32, 
			 "cosmo_repulsion_energy": 2.02, 
			 "cosmo_total_nonelectrostatic_energy": 14.42, 
			 "SMD_solvation_energy": 8.17 
		},
		"coords": [
			{
				"x": 1.1354147721,
				"y": -1.7468730752,
				"z": -0.7612362333,
				"element": "F" 
			},
			{
				"x": 1.8341719932,
				"y": -1.2824324035,
				"z": 0.2906916607,
				"element": "C" 
			},
			{
				"x": 1.3856886779,
				"y": -1.8880837473,
				"z": 1.39638445,
				"element": "F" 
			},
			{
				"x": 3.1261035916,
				"y": -1.6283267559,
				"z": 0.1189382658,
				"element": "F" 
			},
			{
				"x": 1.6984508095,
				"y": 0.2677630061,
				"z": 0.3948627326,
				"element": "C" 
			},
			{
				"x": 2.4706935561,
				"y": 0.6500345712,
				"z": 1.5637647395,
				"element": "O" 
			},
			{
				"x": 3.8137978526,
				"y": 0.898695479,
				"z": 1.5130917986,
				"element": "C" 
			},
			{
				"x": 4.4759048741,
				"y": 0.9067520614,
				"z": 2.521633505,
				"element": "O" 
			},
			{
				"x": 4.3250764699,
				"y": 1.1859186954,
				"z": 0.2661478575,
				"element": "N" 
			},
			{
				"x": 3.5653250579,
				"y": 1.3326052779,
				"z": -0.8928938114,
				"element": "C" 
			},
			{
				"x": 4.1106269249,
				"y": 1.8875843725,
				"z": -2.0561533149,
				"element": "C" 
			},
			{
				"x": 3.3261881728,
				"y": 2.0281112788,
				"z": -3.1968505985,
				"element": "C" 
			},
			{
				"x": 1.9910658341,
				"y": 1.6236186988,
				"z": -3.1673760589,
				"element": "C" 
			},
			{
				"x": 0.9953923963,
				"y": 1.8083848129,
				"z": -4.6016479324,
				"element": "Cl" 
			},
			{
				"x": 1.4371414402,
				"y": 1.074125364,
				"z": -2.0137728086,
				"element": "C" 
			},
			{
				"x": 2.2263595346,
				"y": 0.923552875,
				"z": -0.8748434043,
				"element": "C" 
			},
			{
				"x": 0.307232306,
				"y": 0.6132473722,
				"z": 0.6654439502,
				"element": "C" 
			},
			{
				"x": -0.8503398017,
				"y": 0.8908435364,
				"z": 0.8837890872,
				"element": "C" 
			},
			{
				"x": -2.2219064003,
				"y": 1.2207036294,
				"z": 1.1508289467,
				"element": "C" 
			},
			{
				"x": -2.8104722944,
				"y": 0.948743211,
				"z": 2.5308922965,
				"element": "C" 
			},
			{
				"x": -3.2425807841,
				"y": 0.1089702218,
				"z": 1.3694854235,
				"element": "C" 
			},
			{
				"x": 5.3043582535,
				"y": 1.4315241045,
				"z": 0.2645217318,
				"element": "H" 
			},
			{
				"x": 5.146934453,
				"y": 2.2127820805,
				"z": -2.0660456746,
				"element": "H" 
			},
			{
				"x": 3.7449653991,
				"y": 2.4568574758,
				"z": -4.1002696652,
				"element": "H" 
			},
			{
				"x": 0.3996308537,
				"y": 0.7630889709,
				"z": -1.9957229099,
				"element": "H" 
			},
			{
				"x": -2.5850602607,
				"y": 2.1113485477,
				"z": 0.6434513167,
				"element": "H" 
			},
			{
				"x": -3.4970484509,
				"y": 1.692442057,
				"z": 2.9224435472,
				"element": "H" 
			},
			{
				"x": -2.1501567548,
				"y": 0.5050101744,
				"z": 3.2680428198,
				"element": "H" 
			},
			{
				"x": -4.2313410743,
				"y": 0.2654059737,
				"z": 0.9502039341,
				"element": "H" 
			},
			{
				"x": -2.8792174018,
				"y": -0.9113978666,
				"z": 1.311394349,
				"element": "H" 
			}
		],
		 "valence_orbital": [ 
			{
				"type": "occ",
				"energy": -0.29315,
				"method": "rhf"
			},
			{
				"type": "occ",
				"energy": -0.2848,
				"method": "rhf"
			},
			{
				"type": "occ",
				"energy": -0.27301,
				"method": "rhf"
			},
			{
				"type": "occ",
				"energy": -0.26164,
				"method": "rhf"
			},
			{
				"type": "occ",
				"energy": -0.23437,
				"method": "rhf"
			},
			{
				"type": "unocc",
				"energy": -0.04018,
				"method": "rhf"
			},
			{
				"type": "unocc",
				"energy": -0.02859,
				"method": "rhf"
			},
			{
				"type": "unocc",
				"energy": 0.00578,
				"method": "rhf"
			},
			{
				"type": "unocc",
				"energy": 0.01673,
				"method": "rhf"
			},
			{
				"type": "unocc",
				"energy": 0.02524,
				"method": "rhf"
			}
		],
		"cosmo_sigma_profile": { 
			"-0.025": 0.0,
			"-0.024": 0.0,
			"-0.023": 0.0,
			"-0.022": 0.0,
			"-0.021": 0.0,
			"-0.02": 0.0,
			"-0.019": 0.0,
			"-0.018": 0.0,
			"-0.017": 0.683652554998,
			"-0.016": 1.10343987506,
			"-0.015": 1.46840255293,
			"-0.014": 1.24046055746,
			"-0.013": 0.94909713316,
			"-0.012": 1.24772685782,
			"-0.011": 1.45719456254,
			"-0.01": 0.826815696976,
			"-0.009": 1.56178359654,
			"-0.008": 4.74566062974,
			"-0.007": 7.33503104075,
			"-0.006": 12.947047755,
			"-0.005": 15.7678430135,
			"-0.004": 15.8697543698,
			"-0.003": 15.9958375403,
			"-0.002": 18.4837802823,
			"-0.001": 22.5230935514,
			"0.0": 26.2817610376,
			"0.001": 42.3734955933,
			"0.002": 49.3143875409,
			"0.003": 22.5528081491,
			"0.004": 16.0802070106,
			"0.005": 7.75374903307,
			"0.006": 2.88599958094,
			"0.007": 2.68738420412,
			"0.008": 2.61761599958,
			"0.009": 2.58496916313,
			"0.01": 2.85184266949,
			"0.011": 4.80664469613,
			"0.012": 5.32959976608,
			"0.013": 0.918520565533,
			"0.014": 0.0,
			"0.015": 0.0,
			"0.016": 0.0,
			"0.017": 0.0,
			"0.018": 0.0,
			"0.019": 0.0,
			"0.02": 0.0,
			"0.021": 0.0,
			"0.022": 0.0,
			"0.023": 0.0,
			"0.024": 0.0,
			"0.025": 0.0
		}
	}
}
