{
	 "smiles": "CC(C)(C)OC(=O)N1CCN(CC2=CC=CC(N)=C2)CC1", 
	 "Tm": 381.15, 
	 "num_atms": 46, 
	 "gaussian": { 
		 "optdone": 1, 
		 "sigma_profile": "yes", 
		 "theory": "DFT", 
		 "functional": "B3LYP", 
		 "basiset": "6-31G**", 
		 "properties": { 
			 "R2extent": 10386.9559, 
			 "electric_dipole_moment_norm": 3.22837355181, 
			 "electric_quadrupole_moment_norm": 10.2514442124, 
			 "total_energy": -939.507428995, 
			 "HOMO_LUMO_gap": 0.20257, 
			 "cosmo_polarized_energy": -14.89, 
			 "cosmo_cavitation_energy": 45.96, 
			 "cosmo_dispersion_energy": -31.77, 
			 "cosmo_repulsion_energy": 2.46, 
			 "cosmo_total_nonelectrostatic_energy": 16.66, 
			 "SMD_solvation_energy": 5.36 
		},
		"coords": [
			{
				"x": -3.2233417474,
				"y": -1.3717101158,
				"z": -0.584713146,
				"element": "C" 
			},
			{
				"x": -2.0132969838,
				"y": -2.2138696123,
				"z": -1.004155847,
				"element": "C" 
			},
			{
				"x": -1.7027313736,
				"y": -3.2777842448,
				"z": 0.0528246893,
				"element": "C" 
			},
			{
				"x": -2.2042314233,
				"y": -2.8594783718,
				"z": -2.3811800191,
				"element": "C" 
			},
			{
				"x": -0.7953798563,
				"y": -1.3919081013,
				"z": -0.9951530207,
				"element": "O" 
			},
			{
				"x": -0.6789351479,
				"y": -0.3134160827,
				"z": -1.8122397613,
				"element": "C" 
			},
			{
				"x": -1.526535793,
				"y": 0.0594180076,
				"z": -2.6129015215,
				"element": "O" 
			},
			{
				"x": 0.518441245,
				"y": 0.3249182137,
				"z": -1.6198957108,
				"element": "N" 
			},
			{
				"x": 1.5937784773,
				"y": -0.1428142102,
				"z": -0.7505890513,
				"element": "C" 
			},
			{
				"x": 2.1569738991,
				"y": 1.0282696025,
				"z": 0.0605522482,
				"element": "C" 
			},
			{
				"x": 2.5732839727,
				"y": 2.1077352736,
				"z": -0.8315146637,
				"element": "N" 
			},
			{
				"x": 3.3554014056,
				"y": 3.1670321993,
				"z": -0.1773512446,
				"element": "C" 
			},
			{
				"x": 2.6481124076,
				"y": 3.9940458355,
				"z": 0.8903539609,
				"element": "C" 
			},
			{
				"x": 1.9376247984,
				"y": 5.1524093009,
				"z": 0.5452675819,
				"element": "C" 
			},
			{
				"x": 1.2694153792,
				"y": 5.8788313794,
				"z": 1.5319725603,
				"element": "C" 
			},
			{
				"x": 1.2987084147,
				"y": 5.4705726083,
				"z": 2.8627467192,
				"element": "C" 
			},
			{
				"x": 2.0126216267,
				"y": 4.3173849013,
				"z": 3.2303553606,
				"element": "C" 
			},
			{
				"x": 2.1090625366,
				"y": 3.9346027309,
				"z": 4.5707529553,
				"element": "N" 
			},
			{
				"x": 2.6820321068,
				"y": 3.5930108807,
				"z": 2.2296265914,
				"element": "C" 
			},
			{
				"x": 1.4476900798,
				"y": 2.5924806313,
				"z": -1.6306142193,
				"element": "C" 
			},
			{
				"x": 0.8741541519,
				"y": 1.4530017663,
				"z": -2.4749660033,
				"element": "C" 
			},
			{
				"x": -3.0357066888,
				"y": -0.8939528999,
				"z": 0.382324721,
				"element": "H" 
			},
			{
				"x": -4.1019371682,
				"y": -2.016828477,
				"z": -0.4798258963,
				"element": "H" 
			},
			{
				"x": -3.4360327782,
				"y": -0.6005490117,
				"z": -1.3250103932,
				"element": "H" 
			},
			{
				"x": -2.5435170508,
				"y": -3.9715123353,
				"z": 0.1470097503,
				"element": "H" 
			},
			{
				"x": -0.8118879192,
				"y": -3.8491665638,
				"z": -0.2243615782,
				"element": "H" 
			},
			{
				"x": -1.5260985381,
				"y": -2.8139768916,
				"z": 1.0279033972,
				"element": "H" 
			},
			{
				"x": -2.4032657133,
				"y": -2.1036163976,
				"z": -3.140746784,
				"element": "H" 
			},
			{
				"x": -3.045589186,
				"y": -3.559441857,
				"z": -2.3458982421,
				"element": "H" 
			},
			{
				"x": -1.3077071563,
				"y": -3.4204685765,
				"z": -2.6641760104,
				"element": "H" 
			},
			{
				"x": 1.2083139585,
				"y": -0.9152194132,
				"z": -0.0878109747,
				"element": "H" 
			},
			{
				"x": 2.3995032724,
				"y": -0.5753252707,
				"z": -1.3626139704,
				"element": "H" 
			},
			{
				"x": 3.0321152366,
				"y": 0.6810076436,
				"z": 0.6232253059,
				"element": "H" 
			},
			{
				"x": 1.3971789155,
				"y": 1.3547524374,
				"z": 0.7939197534,
				"element": "H" 
			},
			{
				"x": 4.2390856396,
				"y": 2.688201536,
				"z": 0.2621056042,
				"element": "H" 
			},
			{
				"x": 3.713827081,
				"y": 3.8350907942,
				"z": -0.9697340025,
				"element": "H" 
			},
			{
				"x": 1.9176058339,
				"y": 5.4892086839,
				"z": -0.4873268289,
				"element": "H" 
			},
			{
				"x": 0.7203910443,
				"y": 6.7775094391,
				"z": 1.2638323813,
				"element": "H" 
			},
			{
				"x": 0.7812163833,
				"y": 6.0479710926,
				"z": 3.6250394224,
				"element": "H" 
			},
			{
				"x": 2.3071944772,
				"y": 2.955299654,
				"z": 4.7235120986,
				"element": "H" 
			},
			{
				"x": 1.3587355553,
				"y": 4.2615518212,
				"z": 5.1638799456,
				"element": "H" 
			},
			{
				"x": 3.2528210569,
				"y": 2.7096528199,
				"z": 2.51050241,
				"element": "H" 
			},
			{
				"x": 0.6426263446,
				"y": 3.0224531843,
				"z": -1.0083239371,
				"element": "H" 
			},
			{
				"x": 1.8078849629,
				"y": 3.3841578184,
				"z": -2.2982307246,
				"element": "H" 
			},
			{
				"x": 1.6278337875,
				"y": 1.1338815923,
				"z": -3.210090084,
				"element": "H" 
			},
			{
				"x": -0.0226395267,
				"y": 1.7689865847,
				"z": -3.0075838218,
				"element": "H" 
			}
		],
		 "valence_orbital": [ 
			{
				"type": "occ",
				"energy": -0.25307,
				"method": "rhf"
			},
			{
				"type": "occ",
				"energy": -0.2424,
				"method": "rhf"
			},
			{
				"type": "occ",
				"energy": -0.23256,
				"method": "rhf"
			},
			{
				"type": "occ",
				"energy": -0.20927,
				"method": "rhf"
			},
			{
				"type": "occ",
				"energy": -0.2016,
				"method": "rhf"
			},
			{
				"type": "unocc",
				"energy": 0.00097,
				"method": "rhf"
			},
			{
				"type": "unocc",
				"energy": 0.01645,
				"method": "rhf"
			},
			{
				"type": "unocc",
				"energy": 0.05836,
				"method": "rhf"
			},
			{
				"type": "unocc",
				"energy": 0.07962,
				"method": "rhf"
			},
			{
				"type": "unocc",
				"energy": 0.08577,
				"method": "rhf"
			}
		],
		"cosmo_sigma_profile": { 
			"-0.025": 0.0,
			"-0.024": 0.0,
			"-0.023": 0.0,
			"-0.022": 0.0,
			"-0.021": 0.0,
			"-0.02": 0.0,
			"-0.019": 0.0,
			"-0.018": 0.0,
			"-0.017": 0.0,
			"-0.016": 0.0,
			"-0.015": 0.0,
			"-0.014": 0.0,
			"-0.013": 0.0409329364546,
			"-0.012": 2.08347926818,
			"-0.011": 2.18296737455,
			"-0.01": 3.02273224001,
			"-0.009": 3.16892114346,
			"-0.008": 2.97385928843,
			"-0.007": 2.41458007617,
			"-0.006": 3.60754278267,
			"-0.005": 11.0471500253,
			"-0.004": 36.5836791831,
			"-0.003": 42.6081857097,
			"-0.002": 38.478611335,
			"-0.001": 36.9127184502,
			"0.0": 38.4981345514,
			"0.001": 33.5338020763,
			"0.002": 17.8499732844,
			"0.003": 12.0908598454,
			"0.004": 12.1629765,
			"0.005": 13.7596826243,
			"0.006": 11.1531876415,
			"0.007": 10.6703161638,
			"0.008": 5.13724761982,
			"0.009": 2.91999354874,
			"0.01": 2.13758403207,
			"0.011": 2.81959883134,
			"0.012": 2.38785384423,
			"0.013": 4.14381951597,
			"0.014": 2.93657320137,
			"0.015": 0.414031356196,
			"0.016": 0.0,
			"0.017": 0.0,
			"0.018": 0.0,
			"0.019": 0.0,
			"0.02": 0.0,
			"0.021": 0.0,
			"0.022": 0.0,
			"0.023": 0.0,
			"0.024": 0.0,
			"0.025": 0.0
		}
	}
}
