{
	 "smiles": "BrCC(=O)C1=C(Br)C=CS1", 
	 "Tm": 334.15, 
	 "num_atms": 14, 
	 "gaussian": { 
		 "optdone": 1, 
		 "sigma_profile": "yes", 
		 "theory": "DFT", 
		 "functional": "B3LYP", 
		 "basiset": "6-31G**", 
		 "properties": { 
			 "R2extent": 5125.6579, 
			 "electric_dipole_moment_norm": 5.08211006276, 
			 "electric_quadrupole_moment_norm": 6.83441703878, 
			 "total_energy": -5847.23849032, 
			 "HOMO_LUMO_gap": 0.1753, 
			 "cosmo_polarized_energy": -12.42, 
			 "cosmo_cavitation_energy": 24.74, 
			 "cosmo_dispersion_energy": -19.64, 
			 "cosmo_repulsion_energy": 1.55, 
			 "cosmo_total_nonelectrostatic_energy": 6.66, 
			 "SMD_solvation_energy": 2.59 
		},
		"coords": [
			{
				"x": -0.1811185482,
				"y": -2.5542879945,
				"z": -3.6854698367,
				"element": "Br" 
			},
			{
				"x": 0.1652809418,
				"y": -1.9310019498,
				"z": -1.8724767936,
				"element": "C" 
			},
			{
				"x": 0.414222031,
				"y": -0.4190754004,
				"z": -1.7918628716,
				"element": "C" 
			},
			{
				"x": 0.3955062889,
				"y": 0.3027902704,
				"z": -2.7681897021,
				"element": "O" 
			},
			{
				"x": 0.6817228867,
				"y": 0.1060208005,
				"z": -0.4327505418,
				"element": "C" 
			},
			{
				"x": 0.9435634197,
				"y": 1.4081508614,
				"z": -0.0428810314,
				"element": "C" 
			},
			{
				"x": 1.0312996273,
				"y": 2.906927289,
				"z": -1.1837716492,
				"element": "Br" 
			},
			{
				"x": 1.1574783708,
				"y": 1.5652323488,
				"z": 1.3550744078,
				"element": "C" 
			},
			{
				"x": 1.0585695697,
				"y": 0.3814574099,
				"z": 2.0315884461,
				"element": "C" 
			},
			{
				"x": 0.7046294104,
				"y": -0.9391018517,
				"z": 0.9808422381,
				"element": "S" 
			},
			{
				"x": -0.701050002,
				"y": -2.2096393144,
				"z": -1.2687525926,
				"element": "H" 
			},
			{
				"x": 1.0340539736,
				"y": -2.4823416286,
				"z": -1.5065822648,
				"element": "H" 
			},
			{
				"x": 1.3732768726,
				"y": 2.5196745152,
				"z": 1.8174641558,
				"element": "H" 
			},
			{
				"x": 1.1744651577,
				"y": 0.2114946442,
				"z": 3.0933680358,
				"element": "H" 
			}
		],
		 "valence_orbital": [ 
			{
				"type": "occ",
				"energy": -0.28018,
				"method": "rhf"
			},
			{
				"type": "occ",
				"energy": -0.27703,
				"method": "rhf"
			},
			{
				"type": "occ",
				"energy": -0.2715,
				"method": "rhf"
			},
			{
				"type": "occ",
				"energy": -0.26238,
				"method": "rhf"
			},
			{
				"type": "occ",
				"energy": -0.25641,
				"method": "rhf"
			},
			{
				"type": "unocc",
				"energy": -0.08111,
				"method": "rhf"
			},
			{
				"type": "unocc",
				"energy": -0.02282,
				"method": "rhf"
			},
			{
				"type": "unocc",
				"energy": -0.00561,
				"method": "rhf"
			},
			{
				"type": "unocc",
				"energy": 0.00283,
				"method": "rhf"
			},
			{
				"type": "unocc",
				"energy": 0.03074,
				"method": "rhf"
			}
		],
		"cosmo_sigma_profile": { 
			"-0.025": 0.0,
			"-0.024": 0.0,
			"-0.023": 0.0,
			"-0.022": 0.0,
			"-0.021": 0.0,
			"-0.02": 0.0,
			"-0.019": 0.0,
			"-0.018": 0.0,
			"-0.017": 0.0,
			"-0.016": 0.0,
			"-0.015": 0.0,
			"-0.014": 0.0,
			"-0.013": 0.0,
			"-0.012": 0.0,
			"-0.011": 0.532352078333,
			"-0.01": 4.27703932623,
			"-0.009": 7.18736403866,
			"-0.008": 8.03857859885,
			"-0.007": 8.28848394468,
			"-0.006": 8.17914354457,
			"-0.005": 8.13375461154,
			"-0.004": 8.4434920111,
			"-0.003": 9.33087741239,
			"-0.002": 11.8804249628,
			"-0.001": 11.7985094787,
			"0.0": 21.7197620908,
			"0.001": 21.3929869301,
			"0.002": 16.0877936045,
			"0.003": 13.6052025302,
			"0.004": 11.7901721154,
			"0.005": 10.6323436608,
			"0.006": 7.03381943771,
			"0.007": 2.70566869834,
			"0.008": 3.00459716768,
			"0.009": 2.65576375801,
			"0.01": 3.44090553453,
			"0.011": 4.81323756992,
			"0.012": 2.33792206136,
			"0.013": 0.265909328668,
			"0.014": 0.0,
			"0.015": 0.0,
			"0.016": 0.0,
			"0.017": 0.0,
			"0.018": 0.0,
			"0.019": 0.0,
			"0.02": 0.0,
			"0.021": 0.0,
			"0.022": 0.0,
			"0.023": 0.0,
			"0.024": 0.0,
			"0.025": 0.0
		}
	}
}
