{
	 "smiles": "OCCN1C(=O)C=CC1=O", 
	 "Tm": 333.15, 
	 "num_atms": 17, 
	 "gaussian": { 
		 "optdone": 1, 
		 "sigma_profile": "yes", 
		 "theory": "DFT", 
		 "functional": "B3LYP", 
		 "basiset": "6-31G**", 
		 "properties": { 
			 "R2extent": 1871.5458, 
			 "electric_dipole_moment_norm": 3.26322313365, 
			 "electric_quadrupole_moment_norm": 15.030561886, 
			 "total_energy": -513.273076989, 
			 "HOMO_LUMO_gap": 0.14902, 
			 "cosmo_polarized_energy": -11.66, 
			 "cosmo_cavitation_energy": 21.1, 
			 "cosmo_dispersion_energy": -15.72, 
			 "cosmo_repulsion_energy": 1.28, 
			 "cosmo_total_nonelectrostatic_energy": 6.66, 
			 "SMD_solvation_energy": 4.95 
		},
		"coords": [
			{
				"x": -0.7816581519,
				"y": 2.9947428439,
				"z": -2.9492056313,
				"element": "O" 
			},
			{
				"x": -1.6074358347,
				"y": 2.4180333702,
				"z": -1.9658043043,
				"element": "C" 
			},
			{
				"x": -0.908206303,
				"y": 2.1946041694,
				"z": -0.61701554,
				"element": "C" 
			},
			{
				"x": -0.1225956744,
				"y": 0.9580262345,
				"z": -0.5300664883,
				"element": "N" 
			},
			{
				"x": -0.2416097566,
				"y": 0.0542463519,
				"z": 0.5426340321,
				"element": "C" 
			},
			{
				"x": -1.026164591,
				"y": 0.1520076878,
				"z": 1.4616339622,
				"element": "O" 
			},
			{
				"x": 0.7819510394,
				"y": -1.0184491982,
				"z": 0.3062520942,
				"element": "C" 
			},
			{
				"x": 1.4433321549,
				"y": -0.7304815816,
				"z": -0.8178747197,
				"element": "C" 
			},
			{
				"x": 0.8852600293,
				"y": 0.5399460759,
				"z": -1.3911801102,
				"element": "C" 
			},
			{
				"x": 1.2366026352,
				"y": 1.090573811,
				"z": -2.4230657321,
				"element": "O" 
			},
			{
				"x": 0.0013656615,
				"y": 2.4250476141,
				"z": -3.0389576362,
				"element": "H" 
			},
			{
				"x": -2.4267886565,
				"y": 3.1259226349,
				"z": -1.7979324843,
				"element": "H" 
			},
			{
				"x": -2.062864554,
				"y": 1.4681894912,
				"z": -2.2944286538,
				"element": "H" 
			},
			{
				"x": -0.2613620748,
				"y": 3.0547704989,
				"z": -0.4106011592,
				"element": "H" 
			},
			{
				"x": -1.6420439194,
				"y": 2.1144333629,
				"z": 0.1893769808,
				"element": "H" 
			},
			{
				"x": 0.9000234571,
				"y": -1.8554013819,
				"z": 0.981534821,
				"element": "H" 
			},
			{
				"x": 2.2434945389,
				"y": -1.2700119848,
				"z": -1.3067994308,
				"element": "H" 
			}
		],
		 "valence_orbital": [ 
			{
				"type": "occ",
				"energy": -0.32022,
				"method": "rhf"
			},
			{
				"type": "occ",
				"energy": -0.30859,
				"method": "rhf"
			},
			{
				"type": "occ",
				"energy": -0.28897,
				"method": "rhf"
			},
			{
				"type": "occ",
				"energy": -0.28285,
				"method": "rhf"
			},
			{
				"type": "occ",
				"energy": -0.25838,
				"method": "rhf"
			},
			{
				"type": "unocc",
				"energy": -0.10936,
				"method": "rhf"
			},
			{
				"type": "unocc",
				"energy": 0.03934,
				"method": "rhf"
			},
			{
				"type": "unocc",
				"energy": 0.05293,
				"method": "rhf"
			},
			{
				"type": "unocc",
				"energy": 0.09503,
				"method": "rhf"
			},
			{
				"type": "unocc",
				"energy": 0.10496,
				"method": "rhf"
			}
		],
		"cosmo_sigma_profile": { 
			"-0.025": 0.0,
			"-0.024": 0.0,
			"-0.023": 0.0,
			"-0.022": 0.0,
			"-0.021": 0.0,
			"-0.02": 0.0,
			"-0.019": 0.0,
			"-0.018": 0.0,
			"-0.017": 0.0,
			"-0.016": 0.0,
			"-0.015": 0.0,
			"-0.014": 0.0,
			"-0.013": 0.0,
			"-0.012": 0.0,
			"-0.011": 0.0,
			"-0.01": 2.10184347628,
			"-0.009": 4.08740405822,
			"-0.008": 3.3344573387,
			"-0.007": 3.20485831326,
			"-0.006": 9.15703764373,
			"-0.005": 16.9015037263,
			"-0.004": 22.6804096815,
			"-0.003": 17.6084069121,
			"-0.002": 11.5533347622,
			"-0.001": 10.2954901885,
			"0.0": 8.34012404691,
			"0.001": 6.23894917375,
			"0.002": 3.53714521896,
			"0.003": 3.8032916683,
			"0.004": 4.70215026207,
			"0.005": 3.66918726326,
			"0.006": 4.1328344106,
			"0.007": 3.29513147439,
			"0.008": 4.79245223216,
			"0.009": 5.37483631257,
			"0.01": 6.53147601922,
			"0.011": 5.53127480404,
			"0.012": 1.91079811666,
			"0.013": 1.55238213437,
			"0.014": 2.0655737417,
			"0.015": 1.77899965081,
			"0.016": 0.012207511603,
			"0.017": 0.0,
			"0.018": 0.0,
			"0.019": 0.0,
			"0.02": 0.0,
			"0.021": 0.0,
			"0.022": 0.0,
			"0.023": 0.0,
			"0.024": 0.0,
			"0.025": 0.0
		}
	}
}
