{
	 "smiles": "CC1=C(C=CC2=CC=C(Cl)C=C2Cl)C2=C(C=CC=C2)N1S(=O)(=O)C1=CC=CC=C1", 
	 "Tm": 383.0, 
	 "num_atms": 46, 
	 "gaussian": { 
		 "optdone": 1, 
		 "sigma_profile": "yes", 
		 "theory": "DFT", 
		 "functional": "B3LYP", 
		 "basiset": "6-31G**", 
		 "properties": { 
			 "R2extent": 18924.4651, 
			 "electric_dipole_moment_norm": 4.57283381942, 
			 "electric_quadrupole_moment_norm": 38.7297219643, 
			 "total_energy": -2410.39121365, 
			 "HOMO_LUMO_gap": 0.14208, 
			 "cosmo_polarized_energy": -14.36, 
			 "cosmo_cavitation_energy": 54.11, 
			 "cosmo_dispersion_energy": -38.17, 
			 "cosmo_repulsion_energy": 2.78, 
			 "cosmo_total_nonelectrostatic_energy": 18.72, 
			 "SMD_solvation_energy": 7.43 
		},
		"coords": [
			{
				"x": -1.3996791833,
				"y": -2.2247714741,
				"z": 1.7527210457,
				"element": "C" 
			},
			{
				"x": -0.1479340084,
				"y": -2.0475880274,
				"z": 0.954313172,
				"element": "C" 
			},
			{
				"x": 0.5407997175,
				"y": -0.8792430325,
				"z": 0.6966833642,
				"element": "C" 
			},
			{
				"x": 0.1498042361,
				"y": 0.4276322306,
				"z": 1.1990699259,
				"element": "C" 
			},
			{
				"x": 0.5028825478,
				"y": 1.6236365091,
				"z": 0.6790527923,
				"element": "C" 
			},
			{
				"x": 0.0955471792,
				"y": 2.9327717294,
				"z": 1.1956140572,
				"element": "C" 
			},
			{
				"x": -0.9782315193,
				"y": 3.0912210691,
				"z": 2.0971730103,
				"element": "C" 
			},
			{
				"x": -1.3698904837,
				"y": 4.3281823299,
				"z": 2.5909980688,
				"element": "C" 
			},
			{
				"x": -0.6848664961,
				"y": 5.4709019411,
				"z": 2.1758138469,
				"element": "C" 
			},
			{
				"x": -1.1654566367,
				"y": 7.0458313431,
				"z": 2.7806893618,
				"element": "Cl" 
			},
			{
				"x": 0.3747281236,
				"y": 5.3781625093,
				"z": 1.278782561,
				"element": "C" 
			},
			{
				"x": 0.7475656318,
				"y": 4.1217759863,
				"z": 0.803454502,
				"element": "C" 
			},
			{
				"x": 2.1075796138,
				"y": 4.07506581,
				"z": -0.3167961282,
				"element": "Cl" 
			},
			{
				"x": 1.6968462947,
				"y": -1.2230064292,
				"z": -0.1168255484,
				"element": "C" 
			},
			{
				"x": 1.6644975532,
				"y": -2.6190839958,
				"z": -0.342976177,
				"element": "C" 
			},
			{
				"x": 2.6618537985,
				"y": -3.2765265664,
				"z": -1.0703911645,
				"element": "C" 
			},
			{
				"x": 3.7015941123,
				"y": -2.5036198698,
				"z": -1.5822379722,
				"element": "C" 
			},
			{
				"x": 3.7659810375,
				"y": -1.1213595787,
				"z": -1.3499612359,
				"element": "C" 
			},
			{
				"x": 2.7781574085,
				"y": -0.4776687797,
				"z": -0.6131914172,
				"element": "C" 
			},
			{
				"x": 0.5277667465,
				"y": -3.1256265163,
				"z": 0.3370058373,
				"element": "N" 
			},
			{
				"x": -0.1700303119,
				"y": -4.676828694,
				"z": 0.0437030138,
				"element": "S" 
			},
			{
				"x": -0.9505014914,
				"y": -5.0206309671,
				"z": 1.2280193113,
				"element": "O" 
			},
			{
				"x": 0.9228747116,
				"y": -5.5259093926,
				"z": -0.41726275,
				"element": "O" 
			},
			{
				"x": -1.3018086973,
				"y": -4.3982014732,
				"z": -1.3192452699,
				"element": "C" 
			},
			{
				"x": -2.6747799794,
				"y": -4.4971584876,
				"z": -1.0863508148,
				"element": "C" 
			},
			{
				"x": -3.5539358464,
				"y": -4.2972182364,
				"z": -2.1520461476,
				"element": "C" 
			},
			{
				"x": -3.0583657237,
				"y": -4.0027183292,
				"z": -3.4232870157,
				"element": "C" 
			},
			{
				"x": -1.6802161462,
				"y": -3.9137765201,
				"z": -3.6412677726,
				"element": "C" 
			},
			{
				"x": -0.7890939957,
				"y": -4.1169848008,
				"z": -2.5894286821,
				"element": "C" 
			},
			{
				"x": -1.2708347304,
				"y": -2.9630396134,
				"z": 2.5470426064,
				"element": "H" 
			},
			{
				"x": -2.2382113938,
				"y": -2.5620555396,
				"z": 1.1339269369,
				"element": "H" 
			},
			{
				"x": -1.6870063035,
				"y": -1.2704929847,
				"z": 2.1954578934,
				"element": "H" 
			},
			{
				"x": -0.4895545105,
				"y": 0.4149282732,
				"z": 2.0788417541,
				"element": "H" 
			},
			{
				"x": 1.1313749121,
				"y": 1.648817034,
				"z": -0.201892938,
				"element": "H" 
			},
			{
				"x": -1.5360449633,
				"y": 2.2131567212,
				"z": 2.4047825758,
				"element": "H" 
			},
			{
				"x": -2.2024588025,
				"y": 4.4110838072,
				"z": 3.2803009865,
				"element": "H" 
			},
			{
				"x": 0.9068124661,
				"y": 6.2641533508,
				"z": 0.9554908026,
				"element": "H" 
			},
			{
				"x": 2.6402021518,
				"y": -4.3480471425,
				"z": -1.2106616387,
				"element": "H" 
			},
			{
				"x": 4.4870618041,
				"y": -2.9905326566,
				"z": -2.1524405115,
				"element": "H" 
			},
			{
				"x": 4.6031902312,
				"y": -0.5492773045,
				"z": -1.7384684333,
				"element": "H" 
			},
			{
				"x": 2.8612349671,
				"y": 0.5830616257,
				"z": -0.4083658637,
				"element": "H" 
			},
			{
				"x": -3.0356158065,
				"y": -4.741321345,
				"z": -0.0935771204,
				"element": "H" 
			},
			{
				"x": -4.6240871556,
				"y": -4.3760939003,
				"z": -1.9874716827,
				"element": "H" 
			},
			{
				"x": -3.7462460949,
				"y": -3.8469111423,
				"z": -4.2489203741,
				"element": "H" 
			},
			{
				"x": -1.2980948437,
				"y": -3.6912206613,
				"z": -4.632619424,
				"element": "H" 
			},
			{
				"x": 0.2816898794,
				"y": -4.0606688088,
				"z": -2.751251344,
				"element": "H" 
			}
		],
		 "valence_orbital": [ 
			{
				"type": "occ",
				"energy": -0.27808,
				"method": "rhf"
			},
			{
				"type": "occ",
				"energy": -0.2615,
				"method": "rhf"
			},
			{
				"type": "occ",
				"energy": -0.2424,
				"method": "rhf"
			},
			{
				"type": "occ",
				"energy": -0.23523,
				"method": "rhf"
			},
			{
				"type": "occ",
				"energy": -0.20216,
				"method": "rhf"
			},
			{
				"type": "unocc",
				"energy": -0.06008,
				"method": "rhf"
			},
			{
				"type": "unocc",
				"energy": -0.05211,
				"method": "rhf"
			},
			{
				"type": "unocc",
				"energy": -0.03352,
				"method": "rhf"
			},
			{
				"type": "unocc",
				"energy": -0.02383,
				"method": "rhf"
			},
			{
				"type": "unocc",
				"energy": -0.01897,
				"method": "rhf"
			}
		],
		"cosmo_sigma_profile": { 
			"-0.025": 0.0,
			"-0.024": 0.0,
			"-0.023": 0.0,
			"-0.022": 0.0,
			"-0.021": 0.0,
			"-0.02": 0.0,
			"-0.019": 0.0,
			"-0.018": 0.0,
			"-0.017": 0.0,
			"-0.016": 0.0,
			"-0.015": 0.0,
			"-0.014": 0.0,
			"-0.013": 0.0,
			"-0.012": 0.0,
			"-0.011": 0.0,
			"-0.01": 0.0172308457779,
			"-0.009": 1.55163897247,
			"-0.008": 5.45274131019,
			"-0.007": 15.4304646947,
			"-0.006": 20.4306207882,
			"-0.005": 23.7785513937,
			"-0.004": 26.9225329728,
			"-0.003": 31.0671847532,
			"-0.002": 31.0545703887,
			"-0.001": 34.5943375513,
			"0.0": 34.0297946808,
			"0.001": 43.7247886806,
			"0.002": 56.3894339516,
			"0.003": 41.3546027635,
			"0.004": 33.0513843178,
			"0.005": 17.4317580176,
			"0.006": 5.91521045215,
			"0.007": 2.99408206012,
			"0.008": 3.86240767205,
			"0.009": 5.41097256834,
			"0.01": 5.83990598954,
			"0.011": 0.598981932966,
			"0.012": 0.0,
			"0.013": 0.0,
			"0.014": 0.0,
			"0.015": 0.0,
			"0.016": 0.0,
			"0.017": 0.0,
			"0.018": 0.0,
			"0.019": 0.0,
			"0.02": 0.0,
			"0.021": 0.0,
			"0.022": 0.0,
			"0.023": 0.0,
			"0.024": 0.0,
			"0.025": 0.0
		}
	}
}
