{
	 "smiles": "CC1=NC(=NO1)C1=CC(=CC=C1)C(Cl)=O", 
	 "Tm": 366.15, 
	 "num_atms": 22, 
	 "gaussian": { 
		 "optdone": 1, 
		 "sigma_profile": "yes", 
		 "theory": "DFT", 
		 "functional": "B3LYP", 
		 "basiset": "6-31G**", 
		 "properties": { 
			 "R2extent": 4939.1471, 
			 "electric_dipole_moment_norm": 5.74713091029, 
			 "electric_quadrupole_moment_norm": 9.04737855514, 
			 "total_energy": -1105.40628364, 
			 "HOMO_LUMO_gap": 0.18242, 
			 "cosmo_polarized_energy": -9.92, 
			 "cosmo_cavitation_energy": 29.74, 
			 "cosmo_dispersion_energy": -21.94, 
			 "cosmo_repulsion_energy": 1.71, 
			 "cosmo_total_nonelectrostatic_energy": 9.5, 
			 "SMD_solvation_energy": 4.39 
		},
		"coords": [
			{
				"x": -0.7608469151,
				"y": -2.3618868907,
				"z": -4.4882746235,
				"element": "C" 
			},
			{
				"x": -0.8264044143,
				"y": -1.8470686424,
				"z": -3.0945713831,
				"element": "C" 
			},
			{
				"x": -0.6282496923,
				"y": -0.6361156289,
				"z": -2.6636507952,
				"element": "N" 
			},
			{
				"x": -0.8241952255,
				"y": -0.7674633254,
				"z": -1.3019087136,
				"element": "C" 
			},
			{
				"x": -1.1249968805,
				"y": -1.9858209893,
				"z": -0.9129717875,
				"element": "N" 
			},
			{
				"x": -1.1283980781,
				"y": -2.7143199508,
				"z": -2.1102502429,
				"element": "O" 
			},
			{
				"x": -0.7055775791,
				"y": 0.361122074,
				"z": -0.3671173792,
				"element": "C" 
			},
			{
				"x": -0.9143096882,
				"y": 0.1738401544,
				"z": 1.0054723634,
				"element": "C" 
			},
			{
				"x": -0.7977117764,
				"y": 1.2570490137,
				"z": 1.8804810876,
				"element": "C" 
			},
			{
				"x": -0.4713094748,
				"y": 2.5331511401,
				"z": 1.3837678418,
				"element": "C" 
			},
			{
				"x": -0.2651042091,
				"y": 2.7141154457,
				"z": 0.0209428674,
				"element": "C" 
			},
			{
				"x": -0.3808483492,
				"y": 1.6342474382,
				"z": -0.8554599803,
				"element": "C" 
			},
			{
				"x": -0.9998553146,
				"y": 1.1583340747,
				"z": 3.3480637904,
				"element": "C" 
			},
			{
				"x": -1.422141276,
				"y": -0.5054447871,
				"z": 3.9716035581,
				"element": "Cl" 
			},
			{
				"x": -0.9093462832,
				"y": 2.0596312033,
				"z": 4.1269697506,
				"element": "O" 
			},
			{
				"x": -0.0046176279,
				"y": -3.1482494164,
				"z": -4.5724539224,
				"element": "H" 
			},
			{
				"x": -1.7223768069,
				"y": -2.7917405985,
				"z": -4.7849545114,
				"element": "H" 
			},
			{
				"x": -0.5076154697,
				"y": -1.5429545866,
				"z": -5.1613193612,
				"element": "H" 
			},
			{
				"x": -1.1650605756,
				"y": -0.8108699816,
				"z": 1.3795560289,
				"element": "H" 
			},
			{
				"x": -0.3857723635,
				"y": 3.3599648786,
				"z": 2.0798865516,
				"element": "H" 
			},
			{
				"x": -0.0133956189,
				"y": 3.6976475373,
				"z": -0.3630962883,
				"element": "H" 
			},
			{
				"x": -0.2225663809,
				"y": 1.7618318378,
				"z": -1.9208148512,
				"element": "H" 
			}
		],
		 "valence_orbital": [ 
			{
				"type": "occ",
				"energy": -0.3084,
				"method": "rhf"
			},
			{
				"type": "occ",
				"energy": -0.30724,
				"method": "rhf"
			},
			{
				"type": "occ",
				"energy": -0.29375,
				"method": "rhf"
			},
			{
				"type": "occ",
				"energy": -0.28239,
				"method": "rhf"
			},
			{
				"type": "occ",
				"energy": -0.26241,
				"method": "rhf"
			},
			{
				"type": "unocc",
				"energy": -0.07999,
				"method": "rhf"
			},
			{
				"type": "unocc",
				"energy": -0.05962,
				"method": "rhf"
			},
			{
				"type": "unocc",
				"energy": -0.0143,
				"method": "rhf"
			},
			{
				"type": "unocc",
				"energy": 0.01278,
				"method": "rhf"
			},
			{
				"type": "unocc",
				"energy": 0.0203,
				"method": "rhf"
			}
		],
		"cosmo_sigma_profile": { 
			"-0.025": 0.0,
			"-0.024": 0.0,
			"-0.023": 0.0,
			"-0.022": 0.0,
			"-0.021": 0.0,
			"-0.02": 0.0,
			"-0.019": 0.0,
			"-0.018": 0.0,
			"-0.017": 0.0,
			"-0.016": 0.0,
			"-0.015": 0.0,
			"-0.014": 0.0,
			"-0.013": 0.0,
			"-0.012": 0.0,
			"-0.011": 0.0,
			"-0.01": 0.0,
			"-0.009": 0.0,
			"-0.008": 2.3279313722,
			"-0.007": 11.5213188492,
			"-0.006": 13.0969060071,
			"-0.005": 12.8467656197,
			"-0.004": 16.9801850629,
			"-0.003": 20.717065775,
			"-0.002": 19.1420459498,
			"-0.001": 23.6774746004,
			"0.0": 22.6472150581,
			"0.001": 21.7805921273,
			"0.002": 12.8509017298,
			"0.003": 11.3154861917,
			"0.004": 11.7601337221,
			"0.005": 9.06051695377,
			"0.006": 8.61235979814,
			"0.007": 7.41698308623,
			"0.008": 6.07841535196,
			"0.009": 4.94909847644,
			"0.01": 2.48143568944,
			"0.011": 1.98716403025,
			"0.012": 1.1165833496,
			"0.013": 0.0197842099355,
			"0.014": 0.0,
			"0.015": 0.0,
			"0.016": 0.0,
			"0.017": 0.0,
			"0.018": 0.0,
			"0.019": 0.0,
			"0.02": 0.0,
			"0.021": 0.0,
			"0.022": 0.0,
			"0.023": 0.0,
			"0.024": 0.0,
			"0.025": 0.0
		}
	}
}
