{
	 "smiles": "CSC1=NNC(N)=C1C(N)=O", 
	 "Tm": 449.15, 
	 "num_atms": 19, 
	 "gaussian": { 
		 "optdone": 1, 
		 "sigma_profile": "yes", 
		 "theory": "DFT", 
		 "functional": "B3LYP", 
		 "basiset": "6-31G**", 
		 "properties": { 
			 "R2extent": 2384.7179, 
			 "electric_dipole_moment_norm": 2.28732083233, 
			 "electric_quadrupole_moment_norm": 15.3612139631, 
			 "total_energy": -887.778494283, 
			 "HOMO_LUMO_gap": 0.21208, 
			 "cosmo_polarized_energy": -17.85, 
			 "cosmo_cavitation_energy": 24.28, 
			 "cosmo_dispersion_energy": -19.08, 
			 "cosmo_repulsion_energy": 1.51, 
			 "cosmo_total_nonelectrostatic_energy": 6.71, 
			 "SMD_solvation_energy": 4.05 
		},
		"coords": [
			{
				"x": -1.6523622575,
				"y": 0.1503491759,
				"z": -2.4833065606,
				"element": "C" 
			},
			{
				"x": -1.2778802518,
				"y": -1.1279470109,
				"z": -1.2337559449,
				"element": "S" 
			},
			{
				"x": -0.4767712109,
				"y": -0.1467630756,
				"z": 0.0066375272,
				"element": "C" 
			},
			{
				"x": 0.0798026996,
				"y": 1.0137311751,
				"z": -0.2993312895,
				"element": "N" 
			},
			{
				"x": 0.6316932038,
				"y": 1.4411206024,
				"z": 0.8877577814,
				"element": "N" 
			},
			{
				"x": 0.436595165,
				"y": 0.5765387625,
				"z": 1.9087721344,
				"element": "C" 
			},
			{
				"x": 0.8333328192,
				"y": 0.7901033904,
				"z": 3.2016470242,
				"element": "N" 
			},
			{
				"x": -0.3000386239,
				"y": -0.4969439147,
				"z": 1.384050755,
				"element": "C" 
			},
			{
				"x": -0.7005057803,
				"y": -1.6354321038,
				"z": 2.2146959868,
				"element": "C" 
			},
			{
				"x": -1.4990184584,
				"y": -2.5902177376,
				"z": 1.6484820472,
				"element": "N" 
			},
			{
				"x": -0.3145003112,
				"y": -1.7426520547,
				"z": 3.3896971252,
				"element": "O" 
			},
			{
				"x": -0.7295605138,
				"y": 0.6182487607,
				"z": -2.8252154752,
				"element": "H" 
			},
			{
				"x": -2.3198740309,
				"y": 0.9075585929,
				"z": -2.0697859606,
				"element": "H" 
			},
			{
				"x": -2.1400879325,
				"y": -0.3693630235,
				"z": -3.3102349399,
				"element": "H" 
			},
			{
				"x": 1.0562309461,
				"y": 2.3539856622,
				"z": 0.9251404548,
				"element": "H" 
			},
			{
				"x": 0.6987602424,
				"y": -0.0595363352,
				"z": 3.7502256693,
				"element": "H" 
			},
			{
				"x": 1.7173784103,
				"y": 1.260903208,
				"z": 3.3373046107,
				"element": "H" 
			},
			{
				"x": -2.0170148878,
				"y": -2.3993369936,
				"z": 0.8019817845,
				"element": "H" 
			},
			{
				"x": -1.8503792273,
				"y": -3.2981470807,
				"z": 2.2760372701,
				"element": "H" 
			}
		],
		 "valence_orbital": [ 
			{
				"type": "occ",
				"energy": -0.2856,
				"method": "rhf"
			},
			{
				"type": "occ",
				"energy": -0.26169,
				"method": "rhf"
			},
			{
				"type": "occ",
				"energy": -0.24864,
				"method": "rhf"
			},
			{
				"type": "occ",
				"energy": -0.22296,
				"method": "rhf"
			},
			{
				"type": "occ",
				"energy": -0.20881,
				"method": "rhf"
			},
			{
				"type": "unocc",
				"energy": 0.00327,
				"method": "rhf"
			},
			{
				"type": "unocc",
				"energy": 0.01893,
				"method": "rhf"
			},
			{
				"type": "unocc",
				"energy": 0.04007,
				"method": "rhf"
			},
			{
				"type": "unocc",
				"energy": 0.06919,
				"method": "rhf"
			},
			{
				"type": "unocc",
				"energy": 0.08324,
				"method": "rhf"
			}
		],
		"cosmo_sigma_profile": { 
			"-0.025": 0.0,
			"-0.024": 0.0,
			"-0.023": 0.0,
			"-0.022": 0.0,
			"-0.021": 0.0,
			"-0.02": 0.0,
			"-0.019": 0.0,
			"-0.018": 0.0,
			"-0.017": 0.71315391302,
			"-0.016": 2.18419011257,
			"-0.015": 2.04186929779,
			"-0.014": 3.47263840932,
			"-0.013": 3.6647266715,
			"-0.012": 2.25707986527,
			"-0.011": 2.89664131772,
			"-0.01": 4.2112148167,
			"-0.009": 4.10129800823,
			"-0.008": 4.49970390831,
			"-0.007": 4.83283814967,
			"-0.006": 5.97272511327,
			"-0.005": 8.23388270412,
			"-0.004": 7.77496574197,
			"-0.003": 10.2768850278,
			"-0.002": 10.2308489907,
			"-0.001": 9.39056121987,
			"0.0": 8.64713622245,
			"0.001": 10.2091818941,
			"0.002": 14.0467227741,
			"0.003": 14.7519233508,
			"0.004": 10.6098496147,
			"0.005": 9.08071467773,
			"0.006": 6.97617583692,
			"0.007": 6.10355161761,
			"0.008": 5.61492268264,
			"0.009": 4.56679330018,
			"0.01": 3.21775569598,
			"0.011": 3.0110193694,
			"0.012": 3.52633386806,
			"0.013": 3.2350108618,
			"0.014": 2.8550482036,
			"0.015": 1.0737168583,
			"0.016": 0.0,
			"0.017": 0.0,
			"0.018": 0.0,
			"0.019": 0.0,
			"0.02": 0.0,
			"0.021": 0.0,
			"0.022": 0.0,
			"0.023": 0.0,
			"0.024": 0.0,
			"0.025": 0.0
		}
	}
}
