{
	 "smiles": "COC1=CC2=C(C=C1)C=C(C=CC#N)C=C2", 
	 "Tm": 398.15, 
	 "num_atms": 27, 
	 "gaussian": { 
		 "optdone": 1, 
		 "sigma_profile": "yes", 
		 "theory": "DFT", 
		 "functional": "B3LYP", 
		 "basiset": "6-31G**", 
		 "properties": { 
			 "R2extent": 5601.3673, 
			 "electric_dipole_moment_norm": 7.20844009755, 
			 "electric_quadrupole_moment_norm": 23.6983370123, 
			 "total_energy": -670.06318799, 
			 "HOMO_LUMO_gap": 0.13539, 
			 "cosmo_polarized_energy": -13.82, 
			 "cosmo_cavitation_energy": 32.69, 
			 "cosmo_dispersion_energy": -23.28, 
			 "cosmo_repulsion_energy": 1.77, 
			 "cosmo_total_nonelectrostatic_energy": 11.17, 
			 "SMD_solvation_energy": 7.6 
		},
		"coords": [
			{
				"x": -3.5418923552,
				"y": 1.3149351333,
				"z": 4.2474560538,
				"element": "C" 
			},
			{
				"x": -2.3466200346,
				"y": 1.8571757483,
				"z": 3.7042692554,
				"element": "O" 
			},
			{
				"x": -1.7099578193,
				"y": 1.1842019475,
				"z": 2.7059098231,
				"element": "C" 
			},
			{
				"x": -0.5502894141,
				"y": 1.7637152487,
				"z": 2.2176296333,
				"element": "C" 
			},
			{
				"x": 0.1860736979,
				"y": 1.148372692,
				"z": 1.1830403449,
				"element": "C" 
			},
			{
				"x": -0.2761184711,
				"y": -0.0950095975,
				"z": 0.6317047315,
				"element": "C" 
			},
			{
				"x": -1.4682857777,
				"y": -0.6612021565,
				"z": 1.1554254579,
				"element": "C" 
			},
			{
				"x": -2.1734250288,
				"y": -0.0463491585,
				"z": 2.1649918821,
				"element": "C" 
			},
			{
				"x": 0.4594199989,
				"y": -0.7135466974,
				"z": -0.4046050817,
				"element": "C" 
			},
			{
				"x": 1.6245508866,
				"y": -0.1496581466,
				"z": -0.9088019862,
				"element": "C" 
			},
			{
				"x": 2.4173375645,
				"y": -0.7511668405,
				"z": -1.9776299084,
				"element": "C" 
			},
			{
				"x": 2.1700457625,
				"y": -1.9082687369,
				"z": -2.6320295195,
				"element": "C" 
			},
			{
				"x": 3.022678912,
				"y": -2.3937499175,
				"z": -3.6630892005,
				"element": "C" 
			},
			{
				"x": 3.7081851738,
				"y": -2.8079127769,
				"z": -4.5095547616,
				"element": "N" 
			},
			{
				"x": 2.0723931442,
				"y": 1.0877466152,
				"z": -0.3507657813,
				"element": "C" 
			},
			{
				"x": 1.381895432,
				"y": 1.7135635078,
				"z": 0.655468297,
				"element": "C" 
			},
			{
				"x": -3.8635552505,
				"y": 2.016567784,
				"z": 5.0183040557,
				"element": "H" 
			},
			{
				"x": -4.3305758123,
				"y": 1.2285684975,
				"z": 3.4895066076,
				"element": "H" 
			},
			{
				"x": -3.371559223,
				"y": 0.3324498023,
				"z": 4.7053654362,
				"element": "H" 
			},
			{
				"x": -0.2156530993,
				"y": 2.7033372028,
				"z": 2.6458005955,
				"element": "H" 
			},
			{
				"x": -1.8267411063,
				"y": -1.6017324638,
				"z": 0.7453526923,
				"element": "H" 
			},
			{
				"x": -3.0793513766,
				"y": -0.5060047594,
				"z": 2.5413051656,
				"element": "H" 
			},
			{
				"x": 0.0862745102,
				"y": -1.6533361091,
				"z": -0.802702137,
				"element": "H" 
			},
			{
				"x": 3.3049152307,
				"y": -0.1930092486,
				"z": -2.2693513098,
				"element": "H" 
			},
			{
				"x": 1.3066404485,
				"y": -2.5267262683,
				"z": -2.4032439702,
				"element": "H" 
			},
			{
				"x": 2.9831483455,
				"y": 1.5352956305,
				"z": -0.7399841274,
				"element": "H" 
			},
			{
				"x": 1.7419656614,
				"y": 2.6537430677,
				"z": 1.0639277516,
				"element": "H" 
			}
		],
		 "valence_orbital": [ 
			{
				"type": "occ",
				"energy": -0.31987,
				"method": "rhf"
			},
			{
				"type": "occ",
				"energy": -0.30313,
				"method": "rhf"
			},
			{
				"type": "occ",
				"energy": -0.26596,
				"method": "rhf"
			},
			{
				"type": "occ",
				"energy": -0.24508,
				"method": "rhf"
			},
			{
				"type": "occ",
				"energy": -0.21096,
				"method": "rhf"
			},
			{
				"type": "unocc",
				"energy": -0.07557,
				"method": "rhf"
			},
			{
				"type": "unocc",
				"energy": -0.03979,
				"method": "rhf"
			},
			{
				"type": "unocc",
				"energy": 0.00788,
				"method": "rhf"
			},
			{
				"type": "unocc",
				"energy": 0.02569,
				"method": "rhf"
			},
			{
				"type": "unocc",
				"energy": 0.03985,
				"method": "rhf"
			}
		],
		"cosmo_sigma_profile": { 
			"-0.025": 0.0,
			"-0.024": 0.0,
			"-0.023": 0.0,
			"-0.022": 0.0,
			"-0.021": 0.0,
			"-0.02": 0.0,
			"-0.019": 0.0,
			"-0.018": 0.0,
			"-0.017": 0.0,
			"-0.016": 0.0,
			"-0.015": 0.0,
			"-0.014": 0.0,
			"-0.013": 0.0,
			"-0.012": 0.0,
			"-0.011": 0.00126988823046,
			"-0.01": 1.15600752737,
			"-0.009": 2.42659535586,
			"-0.008": 5.2762457844,
			"-0.007": 10.228471568,
			"-0.006": 21.3293385813,
			"-0.005": 20.2404167948,
			"-0.004": 21.3360509471,
			"-0.003": 16.9558612949,
			"-0.002": 13.2192325225,
			"-0.001": 12.6932281072,
			"0.0": 14.0725282532,
			"0.001": 17.2105777338,
			"0.002": 18.9428038346,
			"0.003": 30.9215876408,
			"0.004": 20.4944924276,
			"0.005": 5.44911142874,
			"0.006": 4.41863722856,
			"0.007": 3.59335157324,
			"0.008": 4.27428156147,
			"0.009": 5.36897856656,
			"0.01": 4.76568284046,
			"0.011": 3.1449219805,
			"0.012": 2.75492661103,
			"0.013": 2.17712925224,
			"0.014": 0.875022593416,
			"0.015": 0.0,
			"0.016": 0.0,
			"0.017": 0.0,
			"0.018": 0.0,
			"0.019": 0.0,
			"0.02": 0.0,
			"0.021": 0.0,
			"0.022": 0.0,
			"0.023": 0.0,
			"0.024": 0.0,
			"0.025": 0.0
		}
	}
}
