{
	 "smiles": "CN1C=C(C=O)C(C)=N1", 
	 "Tm": 320.15, 
	 "num_atms": 17, 
	 "gaussian": { 
		 "optdone": 1, 
		 "sigma_profile": "yes", 
		 "theory": "DFT", 
		 "functional": "B3LYP", 
		 "basiset": "6-31G**", 
		 "properties": { 
			 "R2extent": 1425.0503, 
			 "electric_dipole_moment_norm": 4.78613595294, 
			 "electric_quadrupole_moment_norm": 10.501354944, 
			 "total_energy": -418.164894673, 
			 "HOMO_LUMO_gap": 0.20719, 
			 "cosmo_polarized_energy": -12.23, 
			 "cosmo_cavitation_energy": 21.33, 
			 "cosmo_dispersion_energy": -15.49, 
			 "cosmo_repulsion_energy": 1.28, 
			 "cosmo_total_nonelectrostatic_energy": 7.12, 
			 "SMD_solvation_energy": 4.36 
		},
		"coords": [
			{
				"x": 1.9172689028,
				"y": -2.4308014908,
				"z": -0.1572349888,
				"element": "C" 
			},
			{
				"x": 1.3111004766,
				"y": -1.1202741109,
				"z": -0.2966943221,
				"element": "N" 
			},
			{
				"x": 1.1927068862,
				"y": -0.3645225605,
				"z": -1.4047190191,
				"element": "C" 
			},
			{
				"x": 0.5387756014,
				"y": 0.8057309669,
				"z": -1.0278471525,
				"element": "C" 
			},
			{
				"x": 0.1891577035,
				"y": 1.922929733,
				"z": -1.8895800585,
				"element": "C" 
			},
			{
				"x": -0.3862250339,
				"y": 2.9354479634,
				"z": -1.5205778571,
				"element": "O" 
			},
			{
				"x": 0.3007813194,
				"y": 0.6468185178,
				"z": 0.3741780787,
				"element": "C" 
			},
			{
				"x": -0.372978077,
				"y": 1.6008487919,
				"z": 1.3069681936,
				"element": "C" 
			},
			{
				"x": 0.7716854154,
				"y": -0.5194590119,
				"z": 0.8025629214,
				"element": "N" 
			},
			{
				"x": 1.1762310992,
				"y": -3.1483530061,
				"z": 0.2041086402,
				"element": "H" 
			},
			{
				"x": 2.7437309359,
				"y": -2.3857919321,
				"z": 0.5565736233,
				"element": "H" 
			},
			{
				"x": 2.2930389962,
				"y": -2.753920009,
				"z": -1.1293099235,
				"element": "H" 
			},
			{
				"x": 1.5675995343,
				"y": -0.6913481451,
				"z": -2.3648725827,
				"element": "H" 
			},
			{
				"x": 0.4888718073,
				"y": 1.799478057,
				"z": -2.9552861426,
				"element": "H" 
			},
			{
				"x": 0.1490406197,
				"y": 2.5623162838,
				"z": 1.3249649459,
				"element": "H" 
			},
			{
				"x": -1.395046824,
				"y": 1.8112905696,
				"z": 0.9778182432,
				"element": "H" 
			},
			{
				"x": -0.395539363,
				"y": 1.1813093831,
				"z": 2.3149474005,
				"element": "H" 
			}
		],
		 "valence_orbital": [ 
			{
				"type": "occ",
				"energy": -0.37116,
				"method": "rhf"
			},
			{
				"type": "occ",
				"energy": -0.29685,
				"method": "rhf"
			},
			{
				"type": "occ",
				"energy": -0.25997,
				"method": "rhf"
			},
			{
				"type": "occ",
				"energy": -0.2492,
				"method": "rhf"
			},
			{
				"type": "occ",
				"energy": -0.24306,
				"method": "rhf"
			},
			{
				"type": "unocc",
				"energy": -0.03587,
				"method": "rhf"
			},
			{
				"type": "unocc",
				"energy": 0.01372,
				"method": "rhf"
			},
			{
				"type": "unocc",
				"energy": 0.08425,
				"method": "rhf"
			},
			{
				"type": "unocc",
				"energy": 0.1041,
				"method": "rhf"
			},
			{
				"type": "unocc",
				"energy": 0.11116,
				"method": "rhf"
			}
		],
		"cosmo_sigma_profile": { 
			"-0.025": 0.0,
			"-0.024": 0.0,
			"-0.023": 0.0,
			"-0.022": 0.0,
			"-0.021": 0.0,
			"-0.02": 0.0,
			"-0.019": 0.0,
			"-0.018": 0.0,
			"-0.017": 0.0,
			"-0.016": 0.0,
			"-0.015": 0.0,
			"-0.014": 0.0,
			"-0.013": 0.0,
			"-0.012": 0.0,
			"-0.011": 0.0747750994124,
			"-0.01": 2.84477923137,
			"-0.009": 3.01950246411,
			"-0.008": 4.09077861015,
			"-0.007": 5.52586310642,
			"-0.006": 9.85702890869,
			"-0.005": 10.8613842402,
			"-0.004": 16.6591046984,
			"-0.003": 14.9965039914,
			"-0.002": 11.2142465787,
			"-0.001": 12.117764655,
			"0.0": 14.0098955848,
			"0.001": 10.1383265952,
			"0.002": 10.4600216105,
			"0.003": 6.36642966996,
			"0.004": 3.81187123515,
			"0.005": 3.45580105641,
			"0.006": 3.22229004499,
			"0.007": 3.43137009128,
			"0.008": 3.17841275247,
			"0.009": 2.39806525895,
			"0.01": 3.10620613296,
			"0.011": 3.56229911237,
			"0.012": 5.06179352064,
			"0.013": 3.31348908335,
			"0.014": 1.85382007731,
			"0.015": 0.708056885481,
			"0.016": 0.193850412313,
			"0.017": 0.0,
			"0.018": 0.0,
			"0.019": 0.0,
			"0.02": 0.0,
			"0.021": 0.0,
			"0.022": 0.0,
			"0.023": 0.0,
			"0.024": 0.0,
			"0.025": 0.0
		}
	}
}
