{
	 "smiles": "ClC1=C(SC(NC2=CC=CC=C2)=N1)C=O", 
	 "Tm": 438.15, 
	 "num_atms": 22, 
	 "gaussian": { 
		 "optdone": 1, 
		 "sigma_profile": "yes", 
		 "theory": "DFT", 
		 "functional": "B3LYP", 
		 "basiset": "6-31G**", 
		 "properties": { 
			 "R2extent": 6313.5431, 
			 "electric_dipole_moment_norm": 5.07504416533, 
			 "electric_quadrupole_moment_norm": 18.4026462257, 
			 "total_energy": -1428.37365695, 
			 "HOMO_LUMO_gap": 0.14916, 
			 "cosmo_polarized_energy": -12.61, 
			 "cosmo_cavitation_energy": 30.67, 
			 "cosmo_dispersion_energy": -23.18, 
			 "cosmo_repulsion_energy": 1.76, 
			 "cosmo_total_nonelectrostatic_energy": 9.25, 
			 "SMD_solvation_energy": 4.19 
		},
		"coords": [
			{
				"x": 3.7119089735,
				"y": -1.595130864,
				"z": 2.5143385876,
				"element": "Cl" 
			},
			{
				"x": 3.0028773987,
				"y": -0.9702947895,
				"z": 1.0553069398,
				"element": "C" 
			},
			{
				"x": 3.727301615,
				"y": -0.6960152638,
				"z": -0.0859157773,
				"element": "C" 
			},
			{
				"x": 2.6150148296,
				"y": -0.0852623019,
				"z": -1.309375576,
				"element": "S" 
			},
			{
				"x": 1.3135694296,
				"y": -0.2731210874,
				"z": -0.1435951986,
				"element": "C" 
			},
			{
				"x": 0.01393545,
				"y": 0.0659772819,
				"z": -0.3524562928,
				"element": "N" 
			},
			{
				"x": -0.6449973152,
				"y": 0.5861485701,
				"z": -1.4837940259,
				"element": "C" 
			},
			{
				"x": -1.818749079,
				"y": 1.325407143,
				"z": -1.263881188,
				"element": "C" 
			},
			{
				"x": -2.528621542,
				"y": 1.8498817873,
				"z": -2.3391489436,
				"element": "C" 
			},
			{
				"x": -2.07732509,
				"y": 1.6546058446,
				"z": -3.6470323402,
				"element": "C" 
			},
			{
				"x": -0.916580878,
				"y": 0.9133231198,
				"z": -3.8643867115,
				"element": "C" 
			},
			{
				"x": -0.2025236855,
				"y": 0.3688347402,
				"z": -2.7959622988,
				"element": "C" 
			},
			{
				"x": 1.6730648662,
				"y": -0.7459760029,
				"z": 1.041578381,
				"element": "N" 
			},
			{
				"x": 5.134662364,
				"y": -0.8471897808,
				"z": -0.3893601584,
				"element": "C" 
			},
			{
				"x": 5.6288717597,
				"y": -0.5609233957,
				"z": -1.4712154077,
				"element": "O" 
			},
			{
				"x": -0.5318600175,
				"y": -0.0023424075,
				"z": 0.4979528376,
				"element": "H" 
			},
			{
				"x": -2.1633397504,
				"y": 1.4940244262,
				"z": -0.2468011173,
				"element": "H" 
			},
			{
				"x": -3.4335068025,
				"y": 2.4202558441,
				"z": -2.1522113015,
				"element": "H" 
			},
			{
				"x": -2.6272799855,
				"y": 2.0710885675,
				"z": -4.4848150568,
				"element": "H" 
			},
			{
				"x": -0.5621938749,
				"y": 0.7397597472,
				"z": -4.8759636397,
				"element": "H" 
			},
			{
				"x": 0.6672934668,
				"y": -0.2450337533,
				"z": -2.9950668663,
				"element": "H" 
			},
			{
				"x": 5.7452778673,
				"y": -1.2488174253,
				"z": 0.4431051543,
				"element": "H" 
			}
		],
		 "valence_orbital": [ 
			{
				"type": "occ",
				"energy": -0.29628,
				"method": "rhf"
			},
			{
				"type": "occ",
				"energy": -0.27241,
				"method": "rhf"
			},
			{
				"type": "occ",
				"energy": -0.26646,
				"method": "rhf"
			},
			{
				"type": "occ",
				"energy": -0.25404,
				"method": "rhf"
			},
			{
				"type": "occ",
				"energy": -0.22129,
				"method": "rhf"
			},
			{
				"type": "unocc",
				"energy": -0.07213,
				"method": "rhf"
			},
			{
				"type": "unocc",
				"energy": -0.02672,
				"method": "rhf"
			},
			{
				"type": "unocc",
				"energy": -0.01908,
				"method": "rhf"
			},
			{
				"type": "unocc",
				"energy": -0.00476,
				"method": "rhf"
			},
			{
				"type": "unocc",
				"energy": 0.01857,
				"method": "rhf"
			}
		],
		"cosmo_sigma_profile": { 
			"-0.025": 0.0,
			"-0.024": 0.0,
			"-0.023": 0.0,
			"-0.022": 0.0,
			"-0.021": 0.0,
			"-0.02": 0.0,
			"-0.019": 0.0,
			"-0.018": 0.0,
			"-0.017": 0.00804900963714,
			"-0.016": 0.916766451182,
			"-0.015": 1.11611228826,
			"-0.014": 1.28519147919,
			"-0.013": 0.749587157027,
			"-0.012": 1.39205952638,
			"-0.011": 0.981864675081,
			"-0.01": 1.22408048515,
			"-0.009": 0.872131819144,
			"-0.008": 1.62494908799,
			"-0.007": 3.73013500491,
			"-0.006": 12.9983821849,
			"-0.005": 15.9316894615,
			"-0.004": 16.7044798941,
			"-0.003": 15.9123943494,
			"-0.002": 19.626735984,
			"-0.001": 22.0562017412,
			"0.0": 23.2313236923,
			"0.001": 20.4420277026,
			"0.002": 20.7824442926,
			"0.003": 19.1549380245,
			"0.004": 15.9369517425,
			"0.005": 9.62423835381,
			"0.006": 2.66933299798,
			"0.007": 2.77830573372,
			"0.008": 2.86545234473,
			"0.009": 3.34070187889,
			"0.01": 3.19123972456,
			"0.011": 4.2515286823,
			"0.012": 4.65736458655,
			"0.013": 1.54711637532,
			"0.014": 0.12393067663,
			"0.015": 0.0,
			"0.016": 0.0,
			"0.017": 0.0,
			"0.018": 0.0,
			"0.019": 0.0,
			"0.02": 0.0,
			"0.021": 0.0,
			"0.022": 0.0,
			"0.023": 0.0,
			"0.024": 0.0,
			"0.0": 0.0
		}
	}
}
