{
	 "smiles": "CCC(C)OC1=CC=C(C=C1)C(O)=O", 
	 "Tm": 392.15, 
	 "num_atms": 28, 
	 "gaussian": { 
		 "optdone": 1, 
		 "sigma_profile": "yes", 
		 "theory": "DFT", 
		 "functional": "B3LYP", 
		 "basiset": "6-31G**", 
		 "properties": { 
			 "R2extent": 4221.107, 
			 "electric_dipole_moment_norm": 2.68366780545, 
			 "electric_quadrupole_moment_norm": 9.87759589374, 
			 "total_energy": -653.299431817, 
			 "HOMO_LUMO_gap": 0.20142, 
			 "cosmo_polarized_energy": -10.36, 
			 "cosmo_cavitation_energy": 31.2, 
			 "cosmo_dispersion_energy": -22.27, 
			 "cosmo_repulsion_energy": 1.76, 
			 "cosmo_total_nonelectrostatic_energy": 10.69, 
			 "SMD_solvation_energy": 6.6 
		},
		"coords": [
			{
				"x": -2.6147133152,
				"y": -0.3768104081,
				"z": 3.0197742829,
				"element": "C" 
			},
			{
				"x": -1.70064026,
				"y": -0.5877555509,
				"z": 1.8062047624,
				"element": "C" 
			},
			{
				"x": -0.2151216083,
				"y": -0.3425015688,
				"z": 2.1044073073,
				"element": "C" 
			},
			{
				"x": 0.1138026857,
				"y": 1.1036608417,
				"z": 2.4701400976,
				"element": "C" 
			},
			{
				"x": 0.633032911,
				"y": -0.8334745136,
				"z": 1.0291925917,
				"element": "O" 
			},
			{
				"x": 0.6331732884,
				"y": -0.197248493,
				"z": -0.187856353,
				"element": "C" 
			},
			{
				"x": -0.2725573988,
				"y": -0.5747678201,
				"z": -1.1906571101,
				"element": "C" 
			},
			{
				"x": -0.2079952287,
				"y": 0.0204974596,
				"z": -2.4452626224,
				"element": "C" 
			},
			{
				"x": 0.7631070156,
				"y": 0.9934302996,
				"z": -2.7213934043,
				"element": "C" 
			},
			{
				"x": 1.6798304697,
				"y": 1.3560016449,
				"z": -1.7237738161,
				"element": "C" 
			},
			{
				"x": 1.6162210709,
				"y": 0.7628098615,
				"z": -0.4667438028,
				"element": "C" 
			},
			{
				"x": 0.7843951915,
				"y": 1.5940216239,
				"z": -4.0772729451,
				"element": "C" 
			},
			{
				"x": 1.768354226,
				"y": 2.5172534391,
				"z": -4.2372601383,
				"element": "O" 
			},
			{
				"x": 0.0156118421,
				"y": 1.3146425996,
				"z": -4.9773915853,
				"element": "O" 
			},
			{
				"x": -2.6304563653,
				"y": 0.6673355323,
				"z": 3.347107171,
				"element": "H" 
			},
			{
				"x": -2.2951839626,
				"y": -0.9894407888,
				"z": 3.870777302,
				"element": "H" 
			},
			{
				"x": -3.6441040997,
				"y": -0.6590003665,
				"z": 2.7789312405,
				"element": "H" 
			},
			{
				"x": -2.0221352659,
				"y": 0.0623825181,
				"z": 0.9834522361,
				"element": "H" 
			},
			{
				"x": -1.7993080125,
				"y": -1.6207967342,
				"z": 1.4528109049,
				"element": "H" 
			},
			{
				"x": 0.0790822596,
				"y": -0.9918968383,
				"z": 2.9368674106,
				"element": "H" 
			},
			{
				"x": -0.4247773563,
				"y": 1.3985623784,
				"z": 3.3752617173,
				"element": "H" 
			},
			{
				"x": -0.1670705673,
				"y": 1.7944236661,
				"z": 1.6688399711,
				"element": "H" 
			},
			{
				"x": 1.1840753753,
				"y": 1.2157768785,
				"z": 2.6649677045,
				"element": "H" 
			},
			{
				"x": -1.0058832514,
				"y": -1.344830661,
				"z": -0.9787979684,
				"element": "H" 
			},
			{
				"x": -0.8998323657,
				"y": -0.2593267797,
				"z": -3.2326578205,
				"element": "H" 
			},
			{
				"x": 2.4402739348,
				"y": 2.0981245174,
				"z": -1.9390873735,
				"element": "H" 
			},
			{
				"x": 2.330359095,
				"y": 1.0215893844,
				"z": 0.3074752708,
				"element": "H" 
			},
			{
				"x": 1.6818596922,
				"y": 2.8333378777,
				"z": -5.1513550309,
				"element": "H" 
			}
		],
		 "valence_orbital": [ 
			{
				"type": "occ",
				"energy": -0.3132,
				"method": "rhf"
			},
			{
				"type": "occ",
				"energy": -0.27473,
				"method": "rhf"
			},
			{
				"type": "occ",
				"energy": -0.26955,
				"method": "rhf"
			},
			{
				"type": "occ",
				"energy": -0.25988,
				"method": "rhf"
			},
			{
				"type": "occ",
				"energy": -0.2446,
				"method": "rhf"
			},
			{
				"type": "unocc",
				"energy": -0.04318,
				"method": "rhf"
			},
			{
				"type": "unocc",
				"energy": -0.00947,
				"method": "rhf"
			},
			{
				"type": "unocc",
				"energy": 0.05946,
				"method": "rhf"
			},
			{
				"type": "unocc",
				"energy": 0.07685,
				"method": "rhf"
			},
			{
				"type": "unocc",
				"energy": 0.08374,
				"method": "rhf"
			}
		],
		"cosmo_sigma_profile": { 
			"-0.025": 0.0,
			"-0.024": 0.0,
			"-0.023": 0.0,
			"-0.022": 0.0,
			"-0.021": 0.0,
			"-0.02": 0.0,
			"-0.019": 0.00985822000492,
			"-0.018": 0.594118181041,
			"-0.017": 0.92465099158,
			"-0.016": 1.05680410391,
			"-0.015": 0.478430928098,
			"-0.014": 0.322555313785,
			"-0.013": 1.36299831264,
			"-0.012": 0.447899098392,
			"-0.011": 0.574676727056,
			"-0.01": 1.24690502501,
			"-0.009": 0.313273724374,
			"-0.008": 0.361915327313,
			"-0.007": 1.22531395908,
			"-0.006": 6.66799321388,
			"-0.005": 8.54157328309,
			"-0.004": 16.1494848866,
			"-0.003": 24.9098745246,
			"-0.002": 28.6695937954,
			"-0.001": 28.5745361473,
			"0.0": 27.5104289169,
			"0.001": 22.622900095,
			"0.002": 15.2408081965,
			"0.003": 18.0471021553,
			"0.004": 6.71771158821,
			"0.005": 5.0526461312,
			"0.006": 3.43980548418,
			"0.007": 4.42262756259,
			"0.008": 3.53868779815,
			"0.009": 2.77214637329,
			"0.01": 2.65519494644,
			"0.011": 4.74260291662,
			"0.012": 5.92828078473,
			"0.013": 0.281404631704,
			"0.014": 0.0,
			"0.015": 0.0,
			"0.016": 0.0,
			"0.017": 0.0,
			"0.018": 0.0,
			"0.019": 0.0,
			"0.02": 0.0,
			"0.021": 0.0,
			"0.022": 0.0,
			"0.023": 0.0,
			"0.024": 0.0,
			"0.025": 0.0
		}
	}
}
