{
	 "smiles": "CCCCCCCCC1=CC=C(C=C1)C(=O)OC1=CC=C(OC)C=C1", 
	 "Tm": 448.15, 
	 "num_atms": 53, 
	 "gaussian": { 
		 "optdone": 1, 
		 "sigma_profile": "yes", 
		 "theory": "DFT", 
		 "functional": "B3LYP", 
		 "basiset": "6-31G**", 
		 "properties": { 
			 "R2extent": 19799.0747, 
			 "electric_dipole_moment_norm": 2.95734751932, 
			 "electric_quadrupole_moment_norm": 25.7376164192, 
			 "total_energy": -1080.91462053, 
			 "HOMO_LUMO_gap": 0.16659, 
			 "cosmo_polarized_energy": -10.98, 
			 "cosmo_cavitation_energy": 55.48, 
			 "cosmo_dispersion_energy": -38.45, 
			 "cosmo_repulsion_energy": 2.97, 
			 "cosmo_total_nonelectrostatic_energy": 20.0, 
			 "SMD_solvation_energy": 9.96 
		},
		"coords": [
			{
				"x": 0.5572759269,
				"y": 4.7955637542,
				"z": -4.5086336103,
				"element": "C" 
			},
			{
				"x": -0.0763706273,
				"y": 5.5097198039,
				"z": -3.3092813752,
				"element": "C" 
			},
			{
				"x": -1.490838683,
				"y": 5.0430660384,
				"z": -2.9195024785,
				"element": "C" 
			},
			{
				"x": -1.6112222639,
				"y": 3.5740851738,
				"z": -2.4523662499,
				"element": "C" 
			},
			{
				"x": -1.9790151708,
				"y": 2.5752660428,
				"z": -3.5629003556,
				"element": "C" 
			},
			{
				"x": -2.0080610973,
				"y": 1.1034289782,
				"z": -3.1168002282,
				"element": "C" 
			},
			{
				"x": -3.1102603627,
				"y": 0.7655808974,
				"z": -2.1036763209,
				"element": "C" 
			},
			{
				"x": -3.1819682727,
				"y": -0.7329133158,
				"z": -1.7301423962,
				"element": "C" 
			},
			{
				"x": -1.9747976635,
				"y": -1.2362006999,
				"z": -0.9677482486,
				"element": "C" 
			},
			{
				"x": -1.8127125693,
				"y": -0.9256015248,
				"z": 0.3920037612,
				"element": "C" 
			},
			{
				"x": -0.7010020412,
				"y": -1.363016061,
				"z": 1.1050597121,
				"element": "C" 
			},
			{
				"x": 0.283604954,
				"y": -2.1317163039,
				"z": 0.466521197,
				"element": "C" 
			},
			{
				"x": 0.1312902967,
				"y": -2.451530067,
				"z": -0.8890058115,
				"element": "C" 
			},
			{
				"x": -0.9843488582,
				"y": -2.0080221602,
				"z": -1.5929808834,
				"element": "C" 
			},
			{
				"x": 1.4951393919,
				"y": -2.6364508061,
				"z": 1.1655328831,
				"element": "C" 
			},
			{
				"x": 2.357378772,
				"y": -3.3144399889,
				"z": 0.6500343475,
				"element": "O" 
			},
			{
				"x": 1.5178033906,
				"y": -2.2380675654,
				"z": 2.4753761904,
				"element": "O" 
			},
			{
				"x": 2.5797110001,
				"y": -2.5954145625,
				"z": 3.3102612271,
				"element": "C" 
			},
			{
				"x": 3.0455702062,
				"y": -3.9085589799,
				"z": 3.4249626292,
				"element": "C" 
			},
			{
				"x": 4.0501676571,
				"y": -4.1945304749,
				"z": 4.3403849541,
				"element": "C" 
			},
			{
				"x": 4.5930558846,
				"y": -3.1839775988,
				"z": 5.1487874943,
				"element": "C" 
			},
			{
				"x": 5.5736418947,
				"y": -3.5803005713,
				"z": 6.0134112188,
				"element": "O" 
			},
			{
				"x": 6.1639566169,
				"y": -2.5997867822,
				"z": 6.8498796381,
				"element": "C" 
			},
			{
				"x": 4.1158477973,
				"y": -1.8738994324,
				"z": 5.0312861974,
				"element": "C" 
			},
			{
				"x": 3.1078661031,
				"y": -1.5868851586,
				"z": 4.1064451231,
				"element": "C" 
			},
			{
				"x": 1.5251790879,
				"y": 5.2419543481,
				"z": -4.7609256641,
				"element": "H" 
			},
			{
				"x": 0.7324622362,
				"y": 3.734097932,
				"z": -4.3064136153,
				"element": "H" 
			},
			{
				"x": -0.0811545943,
				"y": 4.8649555762,
				"z": -5.3971153867,
				"element": "H" 
			},
			{
				"x": 0.583065368,
				"y": 5.400713454,
				"z": -2.4371199749,
				"element": "H" 
			},
			{
				"x": -0.1178290576,
				"y": 6.5862738705,
				"z": -3.5211083102,
				"element": "H" 
			},
			{
				"x": -2.1763638983,
				"y": 5.2140715265,
				"z": -3.7619097713,
				"element": "H" 
			},
			{
				"x": -1.8415084635,
				"y": 5.7006085224,
				"z": -2.1141765023,
				"element": "H" 
			},
			{
				"x": -2.3718039664,
				"y": 3.5174535699,
				"z": -1.6644579677,
				"element": "H" 
			},
			{
				"x": -0.6690735,
				"y": 3.2623445223,
				"z": -1.9783676899,
				"element": "H" 
			},
			{
				"x": -2.9610804385,
				"y": 2.8492800364,
				"z": -3.9751960108,
				"element": "H" 
			},
			{
				"x": -1.2696046019,
				"y": 2.6717943948,
				"z": -4.3924720359,
				"element": "H" 
			},
			{
				"x": -1.0296963982,
				"y": 0.8317340222,
				"z": -2.6990382037,
				"element": "H" 
			},
			{
				"x": -2.1449061267,
				"y": 0.4701053455,
				"z": -4.0045099993,
				"element": "H" 
			},
			{
				"x": -4.0831045817,
				"y": 1.063207563,
				"z": -2.5179786435,
				"element": "H" 
			},
			{
				"x": -2.974070977,
				"y": 1.3509375369,
				"z": -1.1861701667,
				"element": "H" 
			},
			{
				"x": -4.0808320133,
				"y": -0.8972816107,
				"z": -1.1229395798,
				"element": "H" 
			},
			{
				"x": -3.3098857584,
				"y": -1.3253126854,
				"z": -2.6443346728,
				"element": "H" 
			},
			{
				"x": -2.5738236704,
				"y": -0.3370042884,
				"z": 0.8986021265,
				"element": "H" 
			},
			{
				"x": -0.5918152294,
				"y": -1.1185941756,
				"z": 2.1553023869,
				"element": "H" 
			},
			{
				"x": 0.8970746914,
				"y": -3.0503012575,
				"z": -1.3705970169,
				"element": "H" 
			},
			{
				"x": -1.0938388827,
				"y": -2.2663066058,
				"z": -2.6429961224,
				"element": "H" 
			},
			{
				"x": 2.6356680142,
				"y": -4.6904844818,
				"z": 2.7989198756,
				"element": "H" 
			},
			{
				"x": 4.4334323477,
				"y": -5.2037790789,
				"z": 4.4476915969,
				"element": "H" 
			},
			{
				"x": 6.6554934033,
				"y": -1.8104859598,
				"z": 6.266012335,
				"element": "H" 
			},
			{
				"x": 5.4261874805,
				"y": -2.1405476276,
				"z": 7.5210798397,
				"element": "H" 
			},
			{
				"x": 6.9131732713,
				"y": -3.1226353873,
				"z": 7.446486275,
				"element": "H" 
			},
			{
				"x": 4.513844961,
				"y": -1.07408892,
				"z": 5.6439014253,
				"element": "H" 
			},
			{
				"x": 2.7253990147,
				"y": -0.5766087773,
				"z": 4.0037228583,
				"element": "H" 
			}
		],
		 "valence_orbital": [ 
			{
				"type": "occ",
				"energy": -0.27349,
				"method": "rhf"
			},
			{
				"type": "occ",
				"energy": -0.25627,
				"method": "rhf"
			},
			{
				"type": "occ",
				"energy": -0.25076,
				"method": "rhf"
			},
			{
				"type": "occ",
				"energy": -0.2485,
				"method": "rhf"
			},
			{
				"type": "occ",
				"energy": -0.21169,
				"method": "rhf"
			},
			{
				"type": "unocc",
				"energy": -0.0451,
				"method": "rhf"
			},
			{
				"type": "unocc",
				"energy": -0.00644,
				"method": "rhf"
			},
			{
				"type": "unocc",
				"energy": -0.00217,
				"method": "rhf"
			},
			{
				"type": "unocc",
				"energy": 0.01694,
				"method": "rhf"
			},
			{
				"type": "unocc",
				"energy": 0.05849,
				"method": "rhf"
			}
		],
		"cosmo_sigma_profile": { 
			"-0.025": 0.0,
			"-0.024": 0.0,
			"-0.023": 0.0,
			"-0.022": 0.0,
			"-0.021": 0.0,
			"-0.02": 0.0,
			"-0.019": 0.0,
			"-0.018": 0.0,
			"-0.017": 0.0,
			"-0.016": 0.0,
			"-0.015": 0.0,
			"-0.014": 0.0,
			"-0.013": 0.0,
			"-0.012": 0.0,
			"-0.011": 0.0,
			"-0.01": 0.0,
			"-0.009": 0.0,
			"-0.008": 0.0,
			"-0.007": 2.1559598356,
			"-0.006": 13.93454903,
			"-0.005": 23.9057895371,
			"-0.004": 27.2205195083,
			"-0.003": 29.4061501425,
			"-0.002": 43.8870215937,
			"-0.001": 58.9265757698,
			"0.0": 63.8761481195,
			"0.001": 53.3721118668,
			"0.002": 33.3236402008,
			"0.003": 26.0505459611,
			"0.004": 25.6489810327,
			"0.005": 10.3905601326,
			"0.006": 4.10507847979,
			"0.007": 2.79215996494,
			"0.008": 2.44586695674,
			"0.009": 3.73840289109,
			"0.01": 3.88352644694,
			"0.011": 3.71285147132,
			"0.012": 2.79458015172,
			"0.013": 0.0,
			"0.014": 0.0,
			"0.015": 0.0,
			"0.016": 0.0,
			"0.017": 0.0,
			"0.018": 0.0,
			"0.019": 0.0,
			"0.02": 0.0,
			"0.021": 0.0,
			"0.022": 0.0,
			"0.023": 0.0,
			"0.024": 0.0,
			"0.025": 0.0
		}
	}
}
