{
	 "smiles": "ClCC1=C(Cl)C(Cl)=C(CCl)C(Cl)=C1Cl", 
	 "Tm": 447.15, 
	 "num_atms": 18, 
	 "gaussian": { 
		 "optdone": 1, 
		 "sigma_profile": "yes", 
		 "theory": "DFT", 
		 "functional": "B3LYP", 
		 "basiset": "6-31G**", 
		 "properties": { 
			 "R2extent": 5811.5778, 
			 "electric_dipole_moment_norm": 3.34031098702, 
			 "electric_quadrupole_moment_norm": 4.1243410116, 
			 "total_energy": -3068.40489396, 
			 "HOMO_LUMO_gap": 0.18789, 
			 "cosmo_polarized_energy": -7.82, 
			 "cosmo_cavitation_energy": 31.96, 
			 "cosmo_dispersion_energy": -23.57, 
			 "cosmo_repulsion_energy": 1.85, 
			 "cosmo_total_nonelectrostatic_energy": 10.24, 
			 "SMD_solvation_energy": 3.76 
		},
		"coords": [
			{
				"x": 3.5510959082,
				"y": -0.4259682749,
				"z": 0.4016702284,
				"element": "Cl" 
			},
			{
				"x": 2.1273750712,
				"y": -1.3228901026,
				"z": 1.1055560112,
				"element": "C" 
			},
			{
				"x": 0.8632946344,
				"y": -0.515420517,
				"z": 1.01898663,
				"element": "C" 
			},
			{
				"x": 0.4856791507,
				"y": 0.3533138684,
				"z": 2.0580555372,
				"element": "C" 
			},
			{
				"x": 1.5152513229,
				"y": 0.5140500317,
				"z": 3.4566608309,
				"element": "Cl" 
			},
			{
				"x": -0.7019396422,
				"y": 1.0944554721,
				"z": 1.9844801873,
				"element": "C" 
			},
			{
				"x": -1.1306301617,
				"y": 2.1654090466,
				"z": 3.292639954,
				"element": "Cl" 
			},
			{
				"x": -1.5522024616,
				"y": 0.9919871979,
				"z": 0.8693604211,
				"element": "C" 
			},
			{
				"x": -2.8340221515,
				"y": 1.7725447095,
				"z": 0.7985528235,
				"element": "C" 
			},
			{
				"x": -2.5889598704,
				"y": 3.4049646033,
				"z": 0.022611423,
				"element": "Cl" 
			},
			{
				"x": -1.1655724237,
				"y": 0.1369136836,
				"z": -0.1776858504,
				"element": "C" 
			},
			{
				"x": -2.1778587927,
				"y": 0.0024933154,
				"z": -1.5915842267,
				"element": "Cl" 
			},
			{
				"x": 0.0219855572,
				"y": -0.6043129047,
				"z": -0.1040732526,
				"element": "C" 
			},
			{
				"x": 0.4677528123,
				"y": -1.6492914676,
				"z": -1.4274196702,
				"element": "Cl" 
			},
			{
				"x": 2.3880379125,
				"y": -1.5392682687,
				"z": 2.1382506125,
				"element": "H" 
			},
			{
				"x": 2.0449212623,
				"y": -2.2478733206,
				"z": 0.5409204754,
				"element": "H" 
			},
			{
				"x": -3.2332740762,
				"y": 1.9671362056,
				"z": 1.7905114619,
				"element": "H" 
			},
			{
				"x": -3.5761340517,
				"y": 1.2592567221,
				"z": 0.1927064034,
				"element": "H" 
			}
		],
		 "valence_orbital": [ 
			{
				"type": "occ",
				"energy": -0.30898,
				"method": "rhf"
			},
			{
				"type": "occ",
				"energy": -0.30655,
				"method": "rhf"
			},
			{
				"type": "occ",
				"energy": -0.30549,
				"method": "rhf"
			},
			{
				"type": "occ",
				"energy": -0.27911,
				"method": "rhf"
			},
			{
				"type": "occ",
				"energy": -0.26614,
				"method": "rhf"
			},
			{
				"type": "unocc",
				"energy": -0.07825,
				"method": "rhf"
			},
			{
				"type": "unocc",
				"energy": -0.05565,
				"method": "rhf"
			},
			{
				"type": "unocc",
				"energy": -0.03775,
				"method": "rhf"
			},
			{
				"type": "unocc",
				"energy": 0.00217,
				"method": "rhf"
			},
			{
				"type": "unocc",
				"energy": 0.00239,
				"method": "rhf"
			}
		],
		"cosmo_sigma_profile": { 
			"-0.025": 0.0,
			"-0.024": 0.0,
			"-0.023": 0.0,
			"-0.022": 0.0,
			"-0.021": 0.0,
			"-0.02": 0.0,
			"-0.019": 0.0,
			"-0.018": 0.0,
			"-0.017": 0.0,
			"-0.016": 0.0,
			"-0.015": 0.0,
			"-0.014": 0.0,
			"-0.013": 0.0,
			"-0.012": 0.0,
			"-0.011": 0.0,
			"-0.01": 0.0,
			"-0.009": 0.347285794815,
			"-0.008": 5.99640226912,
			"-0.007": 9.83944458769,
			"-0.006": 10.5979202984,
			"-0.005": 8.76081043404,
			"-0.004": 12.0031627174,
			"-0.003": 19.2420659547,
			"-0.002": 25.7418557415,
			"-0.001": 23.8525531719,
			"0.0": 21.9487110939,
			"0.001": 22.3677042253,
			"0.002": 26.5064627163,
			"0.003": 35.2595816303,
			"0.004": 17.6163572601,
			"0.005": 17.8761788305,
			"0.006": 11.8571583306,
			"0.007": 0.00685601052621,
			"0.008": 0.0,
			"0.009": 0.0,
			"0.01": 0.0,
			"0.011": 0.0,
			"0.012": 0.0,
			"0.013": 0.0,
			"0.014": 0.0,
			"0.015": 0.0,
			"0.016": 0.0,
			"0.017": 0.0,
			"0.018": 0.0,
			"0.019": 0.0,
			"0.02": 0.0,
			"0.021": 0.0,
			"0.022": 0.0,
			"0.023": 0.0,
			"0.024": 0.0,
			"0.025": 0.0
		}
	}
}
