{
	 "smiles": "CC(=O)OC1CC2CCC1(C)C2(C)C", 
	 "Tm": 302.15, 
	 "num_atms": 34, 
	 "gaussian": { 
		 "optdone": 1, 
		 "sigma_profile": "yes", 
		 "theory": "DFT", 
		 "functional": "B3LYP", 
		 "basiset": "6-31G**", 
		 "properties": { 
			 "R2extent": 3320.7424, 
			 "electric_dipole_moment_norm": 1.93081424534, 
			 "electric_quadrupole_moment_norm": 12.6775365107, 
			 "total_energy": -619.804151126, 
			 "HOMO_LUMO_gap": 0.28125, 
			 "cosmo_polarized_energy": -6.36, 
			 "cosmo_cavitation_energy": 32.36, 
			 "cosmo_dispersion_energy": -22.58, 
			 "cosmo_repulsion_energy": 1.75, 
			 "cosmo_total_nonelectrostatic_energy": 11.53, 
			 "SMD_solvation_energy": 6.31 
		},
		"coords": [
			{
				"x": -1.6182329436,
				"y": 3.4800687998,
				"z": -3.0678349657,
				"element": "C" 
			},
			{
				"x": -2.0003503478,
				"y": 2.8716120319,
				"z": -1.7380701617,
				"element": "C" 
			},
			{
				"x": -3.0188871863,
				"y": 3.1100751749,
				"z": -1.1261562465,
				"element": "O" 
			},
			{
				"x": -1.0431247691,
				"y": 2.013481731,
				"z": -1.3116075472,
				"element": "O" 
			},
			{
				"x": -1.2680696512,
				"y": 1.3758313244,
				"z": -0.0265089236,
				"element": "C" 
			},
			{
				"x": -2.1209922235,
				"y": 0.08275251,
				"z": -0.1517235687,
				"element": "C" 
			},
			{
				"x": -1.2138614481,
				"y": -0.9970327322,
				"z": 0.4826441969,
				"element": "C" 
			},
			{
				"x": -1.1655243446,
				"y": -0.7039628927,
				"z": 2.0010766553,
				"element": "C" 
			},
			{
				"x": -0.291914921,
				"y": 0.5870643577,
				"z": 2.0698479321,
				"element": "C" 
			},
			{
				"x": 0.0726279572,
				"y": 0.8817675277,
				"z": 0.5828957084,
				"element": "C" 
			},
			{
				"x": 1.2427052393,
				"y": 1.8412737863,
				"z": 0.4109746049,
				"element": "C" 
			},
			{
				"x": 0.2113386035,
				"y": -0.5785165802,
				"z": 0.0017553466,
				"element": "C" 
			},
			{
				"x": 0.4109713822,
				"y": -0.6616923606,
				"z": -1.5237238038,
				"element": "C" 
			},
			{
				"x": 1.3479324641,
				"y": -1.4036580726,
				"z": 0.6359204918,
				"element": "C" 
			},
			{
				"x": -1.4985871932,
				"y": 2.6941864003,
				"z": -3.8196930406,
				"element": "H" 
			},
			{
				"x": -2.3927947225,
				"y": 4.1786772597,
				"z": -3.3826622427,
				"element": "H" 
			},
			{
				"x": -0.6584640573,
				"y": 3.9981162682,
				"z": -2.9833601643,
				"element": "H" 
			},
			{
				"x": -1.7451841159,
				"y": 2.123040485,
				"z": 0.6108020072,
				"element": "H" 
			},
			{
				"x": -2.3301870027,
				"y": -0.123609564,
				"z": -1.2044261056,
				"element": "H" 
			},
			{
				"x": -3.0841915894,
				"y": 0.1753558969,
				"z": 0.3577216335,
				"element": "H" 
			},
			{
				"x": -1.5106386423,
				"y": -2.020848028,
				"z": 0.23406993,
				"element": "H" 
			},
			{
				"x": -0.7122410269,
				"y": -1.5277964613,
				"z": 2.5596743083,
				"element": "H" 
			},
			{
				"x": -2.1683527889,
				"y": -0.5546865548,
				"z": 2.4134995613,
				"element": "H" 
			},
			{
				"x": -0.8193416239,
				"y": 1.4318102337,
				"z": 2.5253561883,
				"element": "H" 
			},
			{
				"x": 0.6157743763,
				"y": 0.4309405284,
				"z": 2.6601764469,
				"element": "H" 
			},
			{
				"x": 2.1489268584,
				"y": 1.4393546498,
				"z": 0.8764855639,
				"element": "H" 
			},
			{
				"x": 1.4536838577,
				"y": 2.0338223737,
				"z": -0.6441612911,
				"element": "H" 
			},
			{
				"x": 1.0300847176,
				"y": 2.8061730105,
				"z": 0.8861785187,
				"element": "H" 
			},
			{
				"x": 1.4052399702,
				"y": -0.2922449697,
				"z": -1.798908397,
				"element": "H" 
			},
			{
				"x": -0.3146993549,
				"y": -0.0856763641,
				"z": -2.0959013424,
				"element": "H" 
			},
			{
				"x": 0.3532539719,
				"y": -1.7067036782,
				"z": -1.8504911772,
				"element": "H" 
			},
			{
				"x": 1.2962280712,
				"y": -2.4412589095,
				"z": 0.2866494276,
				"element": "H" 
			},
			{
				"x": 2.3244079322,
				"y": -1.0108369786,
				"z": 0.3317048098,
				"element": "H" 
			},
			{
				"x": 1.3294645513,
				"y": -1.4255802034,
				"z": 1.7268956466,
				"element": "H" 
			}
		],
		 "valence_orbital": [ 
			{
				"type": "occ",
				"energy": -0.3092,
				"method": "rhf"
			},
			{
				"type": "occ",
				"energy": -0.30113,
				"method": "rhf"
			},
			{
				"type": "occ",
				"energy": -0.2854,
				"method": "rhf"
			},
			{
				"type": "occ",
				"energy": -0.28003,
				"method": "rhf"
			},
			{
				"type": "occ",
				"energy": -0.26503,
				"method": "rhf"
			},
			{
				"type": "unocc",
				"energy": 0.01622,
				"method": "rhf"
			},
			{
				"type": "unocc",
				"energy": 0.07272,
				"method": "rhf"
			},
			{
				"type": "unocc",
				"energy": 0.08764,
				"method": "rhf"
			},
			{
				"type": "unocc",
				"energy": 0.10303,
				"method": "rhf"
			},
			{
				"type": "unocc",
				"energy": 0.10969,
				"method": "rhf"
			}
		],
		"cosmo_sigma_profile": { 
			"-0.025": 0.0,
			"-0.024": 0.0,
			"-0.023": 0.0,
			"-0.022": 0.0,
			"-0.021": 0.0,
			"-0.02": 0.0,
			"-0.019": 0.0,
			"-0.018": 0.0,
			"-0.017": 0.0,
			"-0.016": 0.0,
			"-0.015": 0.0,
			"-0.014": 0.0,
			"-0.013": 0.0,
			"-0.012": 0.0,
			"-0.011": 0.0,
			"-0.01": 0.0,
			"-0.009": 0.0,
			"-0.008": 0.0,
			"-0.007": 0.342632963163,
			"-0.006": 3.89662843322,
			"-0.005": 6.36404256067,
			"-0.004": 9.41354079064,
			"-0.003": 25.8190556905,
			"-0.002": 44.6481406583,
			"-0.001": 41.542955547,
			"0.0": 32.7837289587,
			"0.001": 34.7919632059,
			"0.002": 19.6067525943,
			"0.003": 4.16153068356,
			"0.004": 3.61678003789,
			"0.005": 3.10895051199,
			"0.006": 3.55572395601,
			"0.007": 1.53917838044,
			"0.008": 1.21122862256,
			"0.009": 1.94180809956,
			"0.01": 1.96566769928,
			"0.011": 2.55014647497,
			"0.012": 4.35458726911,
			"0.013": 2.31755424908,
			"0.014": 0.100492779055,
			"0.015": 0.0,
			"0.016": 0.0,
			"0.017": 0.0,
			"0.018": 0.0,
			"0.019": 0.0,
			"0.02": 0.0,
			"0.021": 0.0,
			"0.022": 0.0,
			"0.023": 0.0,
			"0.024": 0.0,
			"0.025": 0.0
		}
	}
}
