{
	 "smiles": "OC(=O)CC1COC(=O)C1", 
	 "Tm": 357.15, 
	 "num_atms": 18, 
	 "gaussian": { 
		 "optdone": 1, 
		 "sigma_profile": "yes", 
		 "theory": "DFT", 
		 "functional": "B3LYP", 
		 "basiset": "6-31G**", 
		 "properties": { 
			 "R2extent": 2363.6422, 
			 "electric_dipole_moment_norm": 4.1368720031, 
			 "electric_quadrupole_moment_norm": 21.9253243632, 
			 "total_energy": -534.379102724, 
			 "HOMO_LUMO_gap": 0.25928, 
			 "cosmo_polarized_energy": -16.29, 
			 "cosmo_cavitation_energy": 21.95, 
			 "cosmo_dispersion_energy": -16.22, 
			 "cosmo_repulsion_energy": 1.35, 
			 "cosmo_total_nonelectrostatic_energy": 7.08, 
			 "SMD_solvation_energy": 5.9 
		},
		"coords": [
			{
				"x": -0.5546593712,
				"y": 1.0916245078,
				"z": 1.5561825964,
				"element": "O" 
			},
			{
				"x": -0.5443194377,
				"y": 0.5403843652,
				"z": 0.3220610552,
				"element": "C" 
			},
			{
				"x": -1.4994889443,
				"y": 0.5829381748,
				"z": -0.4240485463,
				"element": "O" 
			},
			{
				"x": 0.7851496538,
				"y": -0.1180451844,
				"z": 0.0185775914,
				"element": "C" 
			},
			{
				"x": 0.8104040776,
				"y": -0.8055108939,
				"z": -1.3523072497,
				"element": "C" 
			},
			{
				"x": 0.8032119461,
				"y": 0.205975185,
				"z": -2.5180702233,
				"element": "C" 
			},
			{
				"x": 2.188779425,
				"y": 0.509771342,
				"z": -2.7852565133,
				"element": "O" 
			},
			{
				"x": 3.000290596,
				"y": -0.4811805962,
				"z": -2.314254946,
				"element": "C" 
			},
			{
				"x": 4.1930303466,
				"y": -0.4713441818,
				"z": -2.468595653,
				"element": "O" 
			},
			{
				"x": 2.1416040141,
				"y": -1.5277920733,
				"z": -1.6073645039,
				"element": "C" 
			},
			{
				"x": -1.4330170152,
				"y": 1.4923445895,
				"z": 1.6712679873,
				"element": "H" 
			},
			{
				"x": 1.5690152801,
				"y": 0.6468315164,
				"z": 0.0951546923,
				"element": "H" 
			},
			{
				"x": 0.9930468383,
				"y": -0.835576733,
				"z": 0.8212843927,
				"element": "H" 
			},
			{
				"x": -0.051054965,
				"y": -1.4729788422,
				"z": -1.4288020771,
				"element": "H" 
			},
			{
				"x": 0.3574243271,
				"y": -0.2248659508,
				"z": -3.4218102028,
				"element": "H" 
			},
			{
				"x": 0.2905615328,
				"y": 1.1399967954,
				"z": -2.287316162,
				"element": "H" 
			},
			{
				"x": 2.0158596172,
				"y": -2.3770234301,
				"z": -2.2895353627,
				"element": "H" 
			},
			{
				"x": 2.6518620786,
				"y": -1.8965485906,
				"z": -0.7149668751,
				"element": "H" 
			}
		],
		 "valence_orbital": [ 
			{
				"type": "occ",
				"energy": -0.3491,
				"method": "rhf"
			},
			{
				"type": "occ",
				"energy": -0.33482,
				"method": "rhf"
			},
			{
				"type": "occ",
				"energy": -0.29507,
				"method": "rhf"
			},
			{
				"type": "occ",
				"energy": -0.29248,
				"method": "rhf"
			},
			{
				"type": "occ",
				"energy": -0.26692,
				"method": "rhf"
			},
			{
				"type": "unocc",
				"energy": -0.00764,
				"method": "rhf"
			},
			{
				"type": "unocc",
				"energy": 0.01148,
				"method": "rhf"
			},
			{
				"type": "unocc",
				"energy": 0.06524,
				"method": "rhf"
			},
			{
				"type": "unocc",
				"energy": 0.07118,
				"method": "rhf"
			},
			{
				"type": "unocc",
				"energy": 0.10338,
				"method": "rhf"
			}
		],
		"cosmo_sigma_profile": { 
			"-0.025": 0.0,
			"-0.024": 0.0,
			"-0.023": 0.0,
			"-0.022": 0.0,
			"-0.021": 0.0,
			"-0.02": 0.0,
			"-0.019": 0.051611317201,
			"-0.018": 0.772768302058,
			"-0.017": 1.08224553855,
			"-0.016": 0.80134643681,
			"-0.015": 0.82426927838,
			"-0.014": 0.635815130181,
			"-0.013": 0.256188686819,
			"-0.012": 0.575520629421,
			"-0.011": 1.26837029482,
			"-0.01": 0.775033353205,
			"-0.009": 0.373117406001,
			"-0.008": 1.8241798381,
			"-0.007": 13.1278899764,
			"-0.006": 20.383999404,
			"-0.005": 17.5260217431,
			"-0.004": 12.5435421528,
			"-0.003": 10.9506335094,
			"-0.002": 9.86613054152,
			"-0.001": 4.72730249913,
			"0.0": 3.32785259577,
			"0.001": 5.20684742429,
			"0.002": 5.29315222391,
			"0.003": 4.42867533943,
			"0.004": 3.96338307171,
			"0.005": 4.37541303986,
			"0.006": 4.76651627351,
			"0.007": 5.01411076881,
			"0.008": 4.56015232786,
			"0.009": 7.03520299943,
			"0.01": 7.09533757793,
			"0.011": 8.46847463006,
			"0.012": 8.33803326108,
			"0.013": 2.25074116759,
			"0.014": 0.0136509789193,
			"0.015": 0.0,
			"0.016": 0.0,
			"0.017": 0.0,
			"0.018": 0.0,
			"0.019": 0.0,
			"0.02": 0.0,
			"0.021": 0.0,
			"0.022": 0.0,
			"0.023": 0.0,
			"0.024": 0.0,
			"0.025": 0.0
		}
	}
}
