{
	 "smiles": "COC(=O)C1=CC(C)=C(C)C=C1", 
	 "Tm": 310.15, 
	 "num_atms": 24, 
	 "gaussian": { 
		 "optdone": 1, 
		 "sigma_profile": "yes", 
		 "theory": "DFT", 
		 "functional": "B3LYP", 
		 "basiset": "6-31G**", 
		 "properties": { 
			 "R2extent": 3398.1367, 
			 "electric_dipole_moment_norm": 2.53719666758, 
			 "electric_quadrupole_moment_norm": 12.1228308687, 
			 "total_energy": -538.771655102, 
			 "HOMO_LUMO_gap": 0.20247, 
			 "cosmo_polarized_energy": -7.69, 
			 "cosmo_cavitation_energy": 27.54, 
			 "cosmo_dispersion_energy": -20.02, 
			 "cosmo_repulsion_energy": 1.59, 
			 "cosmo_total_nonelectrostatic_energy": 9.11, 
			 "SMD_solvation_energy": 6.37 
		},
		"coords": [
			{
				"x": 2.0478298685,
				"y": 3.0431249419,
				"z": -3.9540971826,
				"element": "C" 
			},
			{
				"x": 1.4456876264,
				"y": 2.4519102387,
				"z": -2.7942172125,
				"element": "O" 
			},
			{
				"x": 0.3735294292,
				"y": 1.6608105577,
				"z": -3.0429444832,
				"element": "C" 
			},
			{
				"x": -0.0518287699,
				"y": 1.4626623178,
				"z": -4.1652987251,
				"element": "O" 
			},
			{
				"x": -0.2067115452,
				"y": 1.0774123117,
				"z": -1.8033577723,
				"element": "C" 
			},
			{
				"x": 0.3193782006,
				"y": 1.3349601588,
				"z": -0.5301924844,
				"element": "C" 
			},
			{
				"x": -0.2454970071,
				"y": 0.7738122902,
				"z": 0.6169452403,
				"element": "C" 
			},
			{
				"x": 0.345292005,
				"y": 1.071182362,
				"z": 1.9749098645,
				"element": "C" 
			},
			{
				"x": -1.3711857319,
				"y": -0.0708661234,
				"z": 0.4862106635,
				"element": "C" 
			},
			{
				"x": -2.0113078264,
				"y": -0.6971843301,
				"z": 1.7007464724,
				"element": "C" 
			},
			{
				"x": -1.8893191172,
				"y": -0.3218563619,
				"z": -0.7909972703,
				"element": "C" 
			},
			{
				"x": -1.320548835,
				"y": 0.2411992798,
				"z": -1.9287978539,
				"element": "C" 
			},
			{
				"x": 1.3299690477,
				"y": 3.6760758346,
				"z": -4.4822221087,
				"element": "H" 
			},
			{
				"x": 2.4039997837,
				"y": 2.2709168852,
				"z": -4.6409077099,
				"element": "H" 
			},
			{
				"x": 2.8818985545,
				"y": 3.6386489695,
				"z": -3.5823468341,
				"element": "H" 
			},
			{
				"x": 1.1834641271,
				"y": 1.98432217,
				"z": -0.4383930218,
				"element": "H" 
			},
			{
				"x": 0.6787300616,
				"y": 0.1571288402,
				"z": 2.4812107111,
				"element": "H" 
			},
			{
				"x": -0.3847659563,
				"y": 1.5499910924,
				"z": 2.6388163968,
				"element": "H" 
			},
			{
				"x": 1.2067794182,
				"y": 1.7384486532,
				"z": 1.8909059228,
				"element": "H" 
			},
			{
				"x": -2.8662272641,
				"y": -1.3179890185,
				"z": 1.4212910774,
				"element": "H" 
			},
			{
				"x": -1.3025509788,
				"y": -1.3292061059,
				"z": 2.2495919593,
				"element": "H" 
			},
			{
				"x": -2.3652634029,
				"y": 0.063160046,
				"z": 2.4075839673,
				"element": "H" 
			},
			{
				"x": -2.7550723716,
				"y": -0.9716159079,
				"z": -0.8904028577,
				"element": "H" 
			},
			{
				"x": -1.7219793162,
				"y": 0.0466508983,
				"z": -2.9174367589,
				"element": "H" 
			}
		],
		 "valence_orbital": [ 
			{
				"type": "occ",
				"energy": -0.3348,
				"method": "rhf"
			},
			{
				"type": "occ",
				"energy": -0.2958,
				"method": "rhf"
			},
			{
				"type": "occ",
				"energy": -0.26692,
				"method": "rhf"
			},
			{
				"type": "occ",
				"energy": -0.24903,
				"method": "rhf"
			},
			{
				"type": "occ",
				"energy": -0.2404,
				"method": "rhf"
			},
			{
				"type": "unocc",
				"energy": -0.03793,
				"method": "rhf"
			},
			{
				"type": "unocc",
				"energy": 0.00055,
				"method": "rhf"
			},
			{
				"type": "unocc",
				"energy": 0.06211,
				"method": "rhf"
			},
			{
				"type": "unocc",
				"energy": 0.08962,
				"method": "rhf"
			},
			{
				"type": "unocc",
				"energy": 0.10707,
				"method": "rhf"
			}
		],
		"cosmo_sigma_profile": { 
			"-0.025": 0.0,
			"-0.024": 0.0,
			"-0.023": 0.0,
			"-0.022": 0.0,
			"-0.021": 0.0,
			"-0.02": 0.0,
			"-0.019": 0.0,
			"-0.018": 0.0,
			"-0.017": 0.0,
			"-0.016": 0.0,
			"-0.015": 0.0,
			"-0.014": 0.0,
			"-0.013": 0.0,
			"-0.012": 0.0,
			"-0.011": 0.0,
			"-0.01": 0.0,
			"-0.009": 0.0,
			"-0.008": 0.0,
			"-0.007": 0.45603212446,
			"-0.006": 5.2606458646,
			"-0.005": 15.2402284634,
			"-0.004": 26.5028314241,
			"-0.003": 24.325328942,
			"-0.002": 20.688391334,
			"-0.001": 20.6933279401,
			"0.0": 22.5692163253,
			"0.001": 15.3864765138,
			"0.002": 13.2632025068,
			"0.003": 13.0322278235,
			"0.004": 13.0486355553,
			"0.005": 8.63187179102,
			"0.006": 4.083979586,
			"0.007": 2.01408778038,
			"0.008": 1.0530562919,
			"0.009": 1.39688279769,
			"0.01": 1.97526427805,
			"0.011": 2.58936227188,
			"0.012": 4.46408429299,
			"0.013": 1.06403906168,
			"0.014": 0.0,
			"0.015": 0.0,
			"0.016": 0.0,
			"0.017": 0.0,
			"0.018": 0.0,
			"0.019": 0.0,
			"0.02": 0.0,
			"0.021": 0.0,
			"0.022": 0.0,
			"0.023": 0.0,
			"0.024": 0.0,
			"0.025": 0.0
		}
	}
}
