{
	 "smiles": "ClCC(=O)N1CCN(CC1)C1(CCCCC1)C#N", 
	 "Tm": 371.15, 
	 "num_atms": 38, 
	 "gaussian": { 
		 "optdone": 1, 
		 "sigma_profile": "yes", 
		 "theory": "DFT", 
		 "functional": "B3LYP", 
		 "basiset": "6-31G**", 
		 "properties": { 
			 "R2extent": 6577.3757, 
			 "electric_dipole_moment_norm": 4.99024825936, 
			 "electric_quadrupole_moment_norm": 14.7403797112, 
			 "total_energy": -1207.08501646, 
			 "HOMO_LUMO_gap": 0.2076, 
			 "cosmo_polarized_energy": -16.67, 
			 "cosmo_cavitation_energy": 38.77, 
			 "cosmo_dispersion_energy": -27.02, 
			 "cosmo_repulsion_energy": 2.09, 
			 "cosmo_total_nonelectrostatic_energy": 13.83, 
			 "SMD_solvation_energy": 5.55 
		},
		"coords": [
			{
				"x": 1.6841105159,
				"y": 4.2301467989,
				"z": 3.0722836634,
				"element": "Cl" 
			},
			{
				"x": 0.1596462626,
				"y": 3.2500339665,
				"z": 3.2145694623,
				"element": "C" 
			},
			{
				"x": 0.3841708398,
				"y": 1.7546715303,
				"z": 2.9833886346,
				"element": "C" 
			},
			{
				"x": 0.2152381673,
				"y": 0.9783050816,
				"z": 3.9193190299,
				"element": "O" 
			},
			{
				"x": 0.7473213504,
				"y": 1.346995752,
				"z": 1.7302815417,
				"element": "N" 
			},
			{
				"x": 0.9428977557,
				"y": -0.0743255251,
				"z": 1.4781533102,
				"element": "C" 
			},
			{
				"x": -0.0989820983,
				"y": -0.6099045529,
				"z": 0.4731732328,
				"element": "C" 
			},
			{
				"x": -0.424976536,
				"y": 0.4314783781,
				"z": -0.50292811,
				"element": "N" 
			},
			{
				"x": 0.6681516266,
				"y": 1.3693095772,
				"z": -0.724105923,
				"element": "C" 
			},
			{
				"x": 0.8768299402,
				"y": 2.2097842408,
				"z": 0.550354078,
				"element": "C" 
			},
			{
				"x": -1.3242645136,
				"y": 0.164466423,
				"z": -1.6395112851,
				"element": "C" 
			},
			{
				"x": -0.6301856818,
				"y": -0.3489654815,
				"z": -2.9447901259,
				"element": "C" 
			},
			{
				"x": -0.2784541102,
				"y": -1.8426824553,
				"z": -2.9124070868,
				"element": "C" 
			},
			{
				"x": -1.5237972676,
				"y": -2.6973869288,
				"z": -2.6425621317,
				"element": "C" 
			},
			{
				"x": -2.1956333045,
				"y": -2.29265938,
				"z": -1.3233598691,
				"element": "C" 
			},
			{
				"x": -2.5069100961,
				"y": -0.7858008322,
				"z": -1.2677115539,
				"element": "C" 
			},
			{
				"x": -1.9413327962,
				"y": 1.4819681895,
				"z": -1.9645076131,
				"element": "C" 
			},
			{
				"x": -2.4121636351,
				"y": 2.510592215,
				"z": -2.2272354662,
				"element": "N" 
			},
			{
				"x": -0.5610288346,
				"y": 3.6833661441,
				"z": 2.5185521384,
				"element": "H" 
			},
			{
				"x": -0.193698837,
				"y": 3.3611990539,
				"z": 4.2366852952,
				"element": "H" 
			},
			{
				"x": 0.8579254673,
				"y": -0.5973651671,
				"z": 2.4298674643,
				"element": "H" 
			},
			{
				"x": 1.9577899506,
				"y": -0.2314374302,
				"z": 1.0927294522,
				"element": "H" 
			},
			{
				"x": -1.0070468477,
				"y": -0.8964772083,
				"z": 1.0130404057,
				"element": "H" 
			},
			{
				"x": 0.3229944018,
				"y": -1.5250740197,
				"z": 0.0250703054,
				"element": "H" 
			},
			{
				"x": 1.6093130772,
				"y": 0.8733429004,
				"z": -1.0179552801,
				"element": "H" 
			},
			{
				"x": 0.4089977141,
				"y": 2.0535222238,
				"z": -1.5354924596,
				"element": "H" 
			},
			{
				"x": 1.8575929635,
				"y": 2.7013454727,
				"z": 0.5229450153,
				"element": "H" 
			},
			{
				"x": 0.1111761029,
				"y": 2.9887869752,
				"z": 0.5819422043,
				"element": "H" 
			},
			{
				"x": 0.2588999922,
				"y": 0.2591440805,
				"z": -3.1402842643,
				"element": "H" 
			},
			{
				"x": -1.3161814481,
				"y": -0.1668722177,
				"z": -3.7821462545,
				"element": "H" 
			},
			{
				"x": 0.1735424044,
				"y": -2.1207930528,
				"z": -3.871561623,
				"element": "H" 
			},
			{
				"x": 0.4824227213,
				"y": -2.0381248942,
				"z": -2.1465287888,
				"element": "H" 
			},
			{
				"x": -2.2335217955,
				"y": -2.5666441325,
				"z": -3.4715653654,
				"element": "H" 
			},
			{
				"x": -1.2620796448,
				"y": -3.7612682121,
				"z": -2.6201923722,
				"element": "H" 
			},
			{
				"x": -1.5574751052,
				"y": -2.5917273081,
				"z": -0.4864382601,
				"element": "H" 
			},
			{
				"x": -3.1380339661,
				"y": -2.8379156515,
				"z": -1.1958640162,
				"element": "H" 
			},
			{
				"x": -3.3044138311,
				"y": -0.5801058306,
				"z": -1.9906185801,
				"element": "H" 
			},
			{
				"x": -2.8984409041,
				"y": -0.4932287229,
				"z": -0.2884888045,
				"element": "H" 
			}
		],
		 "valence_orbital": [ 
			{
				"type": "occ",
				"energy": -0.31217,
				"method": "rhf"
			},
			{
				"type": "occ",
				"energy": -0.30276,
				"method": "rhf"
			},
			{
				"type": "occ",
				"energy": -0.25572,
				"method": "rhf"
			},
			{
				"type": "occ",
				"energy": -0.24597,
				"method": "rhf"
			},
			{
				"type": "occ",
				"energy": -0.22441,
				"method": "rhf"
			},
			{
				"type": "unocc",
				"energy": -0.01681,
				"method": "rhf"
			},
			{
				"type": "unocc",
				"energy": 0.02924,
				"method": "rhf"
			},
			{
				"type": "unocc",
				"energy": 0.03763,
				"method": "rhf"
			},
			{
				"type": "unocc",
				"energy": 0.04931,
				"method": "rhf"
			},
			{
				"type": "unocc",
				"energy": 0.0609,
				"method": "rhf"
			}
		],
		"cosmo_sigma_profile": { 
			"-0.025": 0.0,
			"-0.024": 0.0,
			"-0.023": 0.0,
			"-0.022": 0.0,
			"-0.021": 0.0,
			"-0.02": 0.0,
			"-0.019": 0.0,
			"-0.018": 0.0,
			"-0.017": 0.0,
			"-0.016": 0.0,
			"-0.015": 0.0,
			"-0.014": 0.0,
			"-0.013": 0.0,
			"-0.012": 0.0,
			"-0.011": 0.0,
			"-0.01": 0.758479423392,
			"-0.009": 3.03489572778,
			"-0.008": 3.18774670563,
			"-0.007": 3.83142690505,
			"-0.006": 7.43232575862,
			"-0.005": 21.2989186539,
			"-0.004": 37.7511240513,
			"-0.003": 39.3803972971,
			"-0.002": 33.3941253608,
			"-0.001": 30.7295648234,
			"0.0": 22.2138972427,
			"0.001": 16.3684173829,
			"0.002": 8.84771929639,
			"0.003": 10.0072792268,
			"0.004": 8.71313234264,
			"0.005": 11.6110873862,
			"0.006": 9.40505422848,
			"0.007": 3.3567706157,
			"0.008": 4.88584436679,
			"0.009": 4.45885987979,
			"0.01": 4.67129819413,
			"0.011": 4.41969842665,
			"0.012": 4.98171238599,
			"0.013": 7.03250534117,
			"0.014": 2.80549497917,
			"0.015": 0.073616573409,
			"0.016": 0.0,
			"0.017": 0.0,
			"0.018": 0.0,
			"0.019": 0.0,
			"0.02": 0.0,
			"0.021": 0.0,
			"0.022": 0.0,
			"0.023": 0.0,
			"0.024": 0.0,
			"0.025": 0.0
		}
	}
}
