{
	 "smiles": "OC(=O)C1=CC=C(C=C1)N1C=CN=N1", 
	 "Tm": 553.15, 
	 "num_atms": 21, 
	 "gaussian": { 
		 "optdone": 1, 
		 "sigma_profile": "yes", 
		 "theory": "DFT", 
		 "functional": "B3LYP", 
		 "basiset": "6-31G**", 
		 "properties": { 
			 "R2extent": 3921.101, 
			 "electric_dipole_moment_norm": 4.74326041769, 
			 "electric_quadrupole_moment_norm": 7.67476984801, 
			 "total_energy": -661.850425743, 
			 "HOMO_LUMO_gap": 0.18251, 
			 "cosmo_polarized_energy": -16.51, 
			 "cosmo_cavitation_energy": 26.55, 
			 "cosmo_dispersion_energy": -19.77, 
			 "cosmo_repulsion_energy": 1.51, 
			 "cosmo_total_nonelectrostatic_energy": 8.29, 
			 "SMD_solvation_energy": 5.04 
		},
		"coords": [
			{
				"x": -0.3173356946,
				"y": 2.4369542904,
				"z": -3.5700927185,
				"element": "O" 
			},
			{
				"x": -0.2485231249,
				"y": 1.0869818443,
				"z": -3.6904404101,
				"element": "C" 
			},
			{
				"x": -0.4025717299,
				"y": 0.5236203435,
				"z": -4.7557609276,
				"element": "O" 
			},
			{
				"x": 0.0293407182,
				"y": 0.4027648382,
				"z": -2.4015590272,
				"element": "C" 
			},
			{
				"x": 0.198310101,
				"y": 1.1035068101,
				"z": -1.2010848701,
				"element": "C" 
			},
			{
				"x": 0.4570651679,
				"y": 0.4188094632,
				"z": -0.0180087998,
				"element": "C" 
			},
			{
				"x": 0.5487422468,
				"y": -0.9783818542,
				"z": -0.02942941,
				"element": "C" 
			},
			{
				"x": 0.3811479858,
				"y": -1.6897152358,
				"z": -1.226094764,
				"element": "C" 
			},
			{
				"x": 0.1233530835,
				"y": -0.9958929614,
				"z": -2.400358633,
				"element": "C" 
			},
			{
				"x": 0.8123001332,
				"y": -1.6919050393,
				"z": 1.1692336765,
				"element": "N" 
			},
			{
				"x": 1.0108126607,
				"y": -1.229038578,
				"z": 2.4385007364,
				"element": "C" 
			},
			{
				"x": 1.2203965258,
				"y": -2.3601269455,
				"z": 3.1858637282,
				"element": "C" 
			},
			{
				"x": 1.1443543234,
				"y": -3.4505044218,
				"z": 2.3646912704,
				"element": "N" 
			},
			{
				"x": 0.8995819114,
				"y": -3.0549372084,
				"z": 1.153911553,
				"element": "N" 
			},
			{
				"x": -0.5005870107,
				"y": 2.772626861,
				"z": -4.4629695941,
				"element": "H" 
			},
			{
				"x": 0.1268319083,
				"y": 2.1848432435,
				"z": -1.1948361854,
				"element": "H" 
			},
			{
				"x": 0.5849096396,
				"y": 0.9777419053,
				"z": 0.90168372,
				"element": "H" 
			},
			{
				"x": 0.4556607221,
				"y": -2.7692912945,
				"z": -1.2145060078,
				"element": "H" 
			},
			{
				"x": -0.0096123682,
				"y": -1.5261386941,
				"z": -3.3370794924,
				"element": "H" 
			},
			{
				"x": 0.9894102755,
				"y": -0.1851823491,
				"z": 2.7016099947,
				"element": "H" 
			},
			{
				"x": 1.4175125252,
				"y": -2.4562350174,
				"z": 4.2428261606,
				"element": "H" 
			}
		],
		 "valence_orbital": [ 
			{
				"type": "occ",
				"energy": -0.28507,
				"method": "rhf"
			},
			{
				"type": "occ",
				"energy": -0.28142,
				"method": "rhf"
			},
			{
				"type": "occ",
				"energy": -0.27483,
				"method": "rhf"
			},
			{
				"type": "occ",
				"energy": -0.2747,
				"method": "rhf"
			},
			{
				"type": "occ",
				"energy": -0.25289,
				"method": "rhf"
			},
			{
				"type": "unocc",
				"energy": -0.07038,
				"method": "rhf"
			},
			{
				"type": "unocc",
				"energy": -0.02665,
				"method": "rhf"
			},
			{
				"type": "unocc",
				"energy": -0.00951,
				"method": "rhf"
			},
			{
				"type": "unocc",
				"energy": 0.04139,
				"method": "rhf"
			},
			{
				"type": "unocc",
				"energy": 0.06209,
				"method": "rhf"
			}
		],
		"cosmo_sigma_profile": { 
			"-0.025": 0.0,
			"-0.024": 0.0,
			"-0.023": 0.0,
			"-0.022": 0.0,
			"-0.021": 0.0,
			"-0.02": 0.0,
			"-0.019": 0.119237784499,
			"-0.018": 0.787636144127,
			"-0.017": 0.957078253771,
			"-0.016": 0.951134984434,
			"-0.015": 0.619752892088,
			"-0.014": 0.694526947081,
			"-0.013": 0.701064204988,
			"-0.012": 2.54077717132,
			"-0.011": 2.7199586328,
			"-0.01": 2.99148526594,
			"-0.009": 3.87354235835,
			"-0.008": 4.57454685825,
			"-0.007": 7.86937040366,
			"-0.006": 11.2779574826,
			"-0.005": 8.07879961338,
			"-0.004": 8.1953467941,
			"-0.003": 11.1689668231,
			"-0.002": 13.5657219672,
			"-0.001": 15.0346046398,
			"0.0": 19.0267329244,
			"0.001": 20.7938052785,
			"0.002": 21.0129414454,
			"0.003": 6.91830441541,
			"0.004": 4.75066846869,
			"0.005": 5.78764182641,
			"0.006": 6.09334148942,
			"0.007": 4.06162062273,
			"0.008": 3.27236578259,
			"0.009": 4.85100914917,
			"0.01": 6.28798987667,
			"0.011": 6.73929247955,
			"0.012": 4.55942961865,
			"0.013": 1.4304249279,
			"0.014": 1.11252857635,
			"0.015": 0.928683864121,
			"0.016": 0.0912576785081,
			"0.017": 0.0,
			"0.018": 0.0,
			"0.019": 0.0,
			"0.02": 0.0,
			"0.021": 0.0,
			"0.022": 0.0,
			"0.023": 0.0,
			"0.024": 0.0,
			"0.025": 0.0
		}
	}
}
