{
	 "smiles": "OC(=O)C1=C(NS(=O)(=O)C2=CC=CS2)C=CC=C1", 
	 "Tm": 284.15, 
	 "num_atms": 27, 
	 "gaussian": { 
		 "optdone": 1, 
		 "sigma_profile": "yes", 
		 "theory": "DFT", 
		 "functional": "B3LYP", 
		 "basiset": "6-31G**", 
		 "properties": { 
			 "R2extent": 4858.3188, 
			 "electric_dipole_moment_norm": 7.18026694977, 
			 "electric_quadrupole_moment_norm": 15.5653919546, 
			 "total_energy": -1576.53627222, 
			 "HOMO_LUMO_gap": 0.17408, 
			 "cosmo_polarized_energy": -21.0, 
			 "cosmo_cavitation_energy": 34.67, 
			 "cosmo_dispersion_energy": -25.02, 
			 "cosmo_repulsion_energy": 1.85, 
			 "cosmo_total_nonelectrostatic_energy": 11.49, 
			 "SMD_solvation_energy": 6.08 
		},
		"coords": [
			{
				"x": 2.7497242365,
				"y": -1.3416211782,
				"z": 1.9471799905,
				"element": "O" 
			},
			{
				"x": 2.3803496329,
				"y": -0.4313752764,
				"z": 1.0155669179,
				"element": "C" 
			},
			{
				"x": 2.4743606639,
				"y": 0.7522502099,
				"z": 1.2925984112,
				"element": "O" 
			},
			{
				"x": 1.8734655513,
				"y": -0.9535026151,
				"z": -0.285389913,
				"element": "C" 
			},
			{
				"x": 1.0896523489,
				"y": -0.1311457359,
				"z": -1.1419470401,
				"element": "C" 
			},
			{
				"x": 0.8720448188,
				"y": 1.2155018013,
				"z": -0.809494433,
				"element": "N" 
			},
			{
				"x": -0.5947826158,
				"y": 2.0455801488,
				"z": -0.9443123662,
				"element": "S" 
			},
			{
				"x": -1.1515905033,
				"y": 1.7734583184,
				"z": -2.2687076674,
				"element": "O" 
			},
			{
				"x": -0.2810734453,
				"y": 3.3907850013,
				"z": -0.4763458978,
				"element": "O" 
			},
			{
				"x": -1.690745714,
				"y": 1.3140564716,
				"z": 0.2407208869,
				"element": "C" 
			},
			{
				"x": -1.812775974,
				"y": 1.6921887338,
				"z": 1.555100824,
				"element": "C" 
			},
			{
				"x": -2.7584963593,
				"y": 0.8930354885,
				"z": 2.2562743324,
				"element": "C" 
			},
			{
				"x": -3.3288115883,
				"y": -0.0683280749,
				"z": 1.4620615227,
				"element": "C" 
			},
			{
				"x": -2.7356806633,
				"y": -0.0188435374,
				"z": -0.1619427076,
				"element": "S" 
			},
			{
				"x": 0.5898666487,
				"y": -0.6734097655,
				"z": -2.3392263684,
				"element": "C" 
			},
			{
				"x": 0.8723069264,
				"y": -1.9876685316,
				"z": -2.6913209322,
				"element": "C" 
			},
			{
				"x": 1.6825242047,
				"y": -2.7893813727,
				"z": -1.8817076315,
				"element": "C" 
			},
			{
				"x": 2.1771739043,
				"y": -2.2645461443,
				"z": -0.6959142916,
				"element": "C" 
			},
			{
				"x": 2.4678515683,
				"y": -2.227731656,
				"z": 1.6819412735,
				"element": "H" 
			},
			{
				"x": 1.4153398817,
				"y": 1.5258073478,
				"z": 0.0027891856,
				"element": "H" 
			},
			{
				"x": -1.2540736057,
				"y": 2.5154045672,
				"z": 1.9834774406,
				"element": "H" 
			},
			{
				"x": -3.0099175517,
				"y": 1.0323240501,
				"z": 3.3010987019,
				"element": "H" 
			},
			{
				"x": -4.0797873898,
				"y": -0.7979737583,
				"z": 1.7340585842,
				"element": "H" 
			},
			{
				"x": -0.0009528145,
				"y": -0.0417017776,
				"z": -2.9896748541,
				"element": "H" 
			},
			{
				"x": 0.4802614967,
				"y": -2.3799093024,
				"z": -3.6250170492,
				"element": "H" 
			},
			{
				"x": 1.9363138242,
				"y": -3.801093708,
				"z": -2.1801598921,
				"element": "H" 
			},
			{
				"x": 2.8470525177,
				"y": -2.8754597044,
				"z": -0.095607027,
				"element": "H" 
			}
		],
		 "valence_orbital": [ 
			{
				"type": "occ",
				"energy": -0.29138,
				"method": "rhf"
			},
			{
				"type": "occ",
				"energy": -0.28049,
				"method": "rhf"
			},
			{
				"type": "occ",
				"energy": -0.27552,
				"method": "rhf"
			},
			{
				"type": "occ",
				"energy": -0.26632,
				"method": "rhf"
			},
			{
				"type": "occ",
				"energy": -0.24097,
				"method": "rhf"
			},
			{
				"type": "unocc",
				"energy": -0.06689,
				"method": "rhf"
			},
			{
				"type": "unocc",
				"energy": -0.05145,
				"method": "rhf"
			},
			{
				"type": "unocc",
				"energy": -0.02681,
				"method": "rhf"
			},
			{
				"type": "unocc",
				"energy": 0.00992,
				"method": "rhf"
			},
			{
				"type": "unocc",
				"energy": 0.0309,
				"method": "rhf"
			}
		],
		"cosmo_sigma_profile": { 
			"-0.025": 0.0,
			"-0.024": 0.0,
			"-0.023": 0.0,
			"-0.022": 0.0,
			"-0.021": 0.0,
			"-0.02": 0.0174567269303,
			"-0.019": 0.455875910139,
			"-0.018": 1.0279996495,
			"-0.017": 0.852388912995,
			"-0.016": 1.14728414657,
			"-0.015": 0.90114385416,
			"-0.014": 0.397298900129,
			"-0.013": 1.54301180146,
			"-0.012": 1.45879442612,
			"-0.011": 0.924449473674,
			"-0.01": 2.95594904539,
			"-0.009": 3.84644736321,
			"-0.008": 6.79881816562,
			"-0.007": 12.4336969797,
			"-0.006": 15.0513520834,
			"-0.005": 16.1190160363,
			"-0.004": 14.4579557835,
			"-0.003": 12.9114244671,
			"-0.002": 14.5072362297,
			"-0.001": 15.2280827464,
			"0.0": 19.948235112,
			"0.001": 25.924155493,
			"0.002": 29.5457785952,
			"0.003": 21.1508769225,
			"0.004": 7.58719747523,
			"0.005": 5.60362485555,
			"0.006": 6.16610299333,
			"0.007": 6.40280373131,
			"0.008": 5.64387921301,
			"0.009": 9.5606415484,
			"0.01": 12.6793465966,
			"0.011": 6.34242595229,
			"0.012": 1.83410872385,
			"0.013": 0.273465889681,
			"0.014": 0.0,
			"0.015": 0.0,
			"0.016": 0.0,
			"0.017": 0.0,
			"0.018": 0.0,
			"0.019": 0.0,
			"0.02": 0.0,
			"0.021": 0.0,
			"0.022": 0.0,
			"0.023": 0.0,
			"0.024": 0.0,
			"0.0": 0.0
		}
	}
}
