{
	 "smiles": "CCOC(=O)CCCCC(O)=O", 
	 "Tm": 302.15, 
	 "num_atms": 26, 
	 "gaussian": { 
		 "optdone": 1, 
		 "sigma_profile": "yes", 
		 "theory": "DFT", 
		 "functional": "B3LYP", 
		 "basiset": "6-31G**", 
		 "properties": { 
			 "R2extent": 3600.2341, 
			 "electric_dipole_moment_norm": 2.07153028942, 
			 "electric_quadrupole_moment_norm": 9.81438246198, 
			 "total_energy": -614.22527953, 
			 "HOMO_LUMO_gap": 0.26971, 
			 "cosmo_polarized_energy": -13.36, 
			 "cosmo_cavitation_energy": 29.9, 
			 "cosmo_dispersion_energy": -20.7, 
			 "cosmo_repulsion_energy": 1.73, 
			 "cosmo_total_nonelectrostatic_energy": 10.93, 
			 "SMD_solvation_energy": 7.08 
		},
		"coords": [
			{
				"x": -0.4727298181,
				"y": 1.9017091461,
				"z": -2.3756064433,
				"element": "C" 
			},
			{
				"x": 0.6795661443,
				"y": 0.9318714436,
				"z": -2.1609405676,
				"element": "C" 
			},
			{
				"x": 0.5417754916,
				"y": 0.2187860267,
				"z": -0.9087137443,
				"element": "O" 
			},
			{
				"x": -0.2290658331,
				"y": -0.8949430652,
				"z": -0.9269604699,
				"element": "C" 
			},
			{
				"x": -0.7768113716,
				"y": -1.3231051782,
				"z": -1.920865204,
				"element": "O" 
			},
			{
				"x": -0.3279335717,
				"y": -1.5037114855,
				"z": 0.4566649435,
				"element": "C" 
			},
			{
				"x": -1.232443336,
				"y": -0.6658003832,
				"z": 1.3846387048,
				"element": "C" 
			},
			{
				"x": -1.4180964185,
				"y": -1.2739678664,
				"z": 2.7842897696,
				"element": "C" 
			},
			{
				"x": -0.1563558476,
				"y": -1.2921771223,
				"z": 3.6546564255,
				"element": "C" 
			},
			{
				"x": 0.2853301871,
				"y": 0.086684161,
				"z": 4.100772052,
				"element": "C" 
			},
			{
				"x": 1.5171648786,
				"y": 0.0548135018,
				"z": 4.665566572,
				"element": "O" 
			},
			{
				"x": -0.3584552692,
				"y": 1.109153272,
				"z": 4.0049738535,
				"element": "O" 
			},
			{
				"x": -0.3052088925,
				"y": 2.4830298628,
				"z": -3.2885331594,
				"element": "H" 
			},
			{
				"x": -0.5581068699,
				"y": 2.5977330184,
				"z": -1.5358658925,
				"element": "H" 
			},
			{
				"x": -1.4149744047,
				"y": 1.3589691588,
				"z": -2.4838469203,
				"element": "H" 
			},
			{
				"x": 0.7393736618,
				"y": 0.2053935996,
				"z": -2.9749402606,
				"element": "H" 
			},
			{
				"x": 1.6335763903,
				"y": 1.4572230506,
				"z": -2.0714099986,
				"element": "H" 
			},
			{
				"x": -0.7302861493,
				"y": -2.513572449,
				"z": 0.3384671207,
				"element": "H" 
			},
			{
				"x": 0.6822242986,
				"y": -1.5772162148,
				"z": 0.8740297845,
				"element": "H" 
			},
			{
				"x": -0.8285486967,
				"y": 0.3471541449,
				"z": 1.4745534283,
				"element": "H" 
			},
			{
				"x": -2.2185295056,
				"y": -0.5704105139,
				"z": 0.9146070481,
				"element": "H" 
			},
			{
				"x": -2.1891756105,
				"y": -0.7027507768,
				"z": 3.3112428525,
				"element": "H" 
			},
			{
				"x": -1.7910796686,
				"y": -2.3013490001,
				"z": 2.6900592961,
				"element": "H" 
			},
			{
				"x": -0.3310476372,
				"y": -1.8751183023,
				"z": 4.5685459082,
				"element": "H" 
			},
			{
				"x": 0.6899665066,
				"y": -1.7803144643,
				"z": 3.1592774335,
				"element": "H" 
			},
			{
				"x": 1.7099713419,
				"y": 0.9662164358,
				"z": 4.9434374678,
				"element": "H" 
			}
		],
		 "valence_orbital": [ 
			{
				"type": "occ",
				"energy": -0.33233,
				"method": "rhf"
			},
			{
				"type": "occ",
				"energy": -0.3207,
				"method": "rhf"
			},
			{
				"type": "occ",
				"energy": -0.29369,
				"method": "rhf"
			},
			{
				"type": "occ",
				"energy": -0.27835,
				"method": "rhf"
			},
			{
				"type": "occ",
				"energy": -0.26372,
				"method": "rhf"
			},
			{
				"type": "unocc",
				"energy": 0.00599,
				"method": "rhf"
			},
			{
				"type": "unocc",
				"energy": 0.01533,
				"method": "rhf"
			},
			{
				"type": "unocc",
				"energy": 0.07632,
				"method": "rhf"
			},
			{
				"type": "unocc",
				"energy": 0.08571,
				"method": "rhf"
			},
			{
				"type": "unocc",
				"energy": 0.11056,
				"method": "rhf"
			}
		],
		"cosmo_sigma_profile": { 
			"-0.025": 0.0,
			"-0.024": 0.0,
			"-0.023": 0.0,
			"-0.022": 0.0,
			"-0.021": 0.0,
			"-0.02": 0.0,
			"-0.019": 0.0,
			"-0.018": 0.601583078704,
			"-0.017": 1.11064968717,
			"-0.016": 0.386509197621,
			"-0.015": 1.13401705508,
			"-0.014": 0.527027617734,
			"-0.013": 0.650574541185,
			"-0.012": 0.684363989068,
			"-0.011": 0.668280751864,
			"-0.01": 0.576332127464,
			"-0.009": 0.677649411437,
			"-0.008": 0.654841231532,
			"-0.007": 2.54242952602,
			"-0.006": 8.51990541798,
			"-0.005": 11.9079422953,
			"-0.004": 22.5631216242,
			"-0.003": 30.9795158822,
			"-0.002": 29.9511344114,
			"-0.001": 21.7873829727,
			"0.0": 20.3795185695,
			"0.001": 9.59050093051,
			"0.002": 7.79177034018,
			"0.003": 6.30814031835,
			"0.004": 5.47387340515,
			"0.005": 5.24152009474,
			"0.006": 5.48960838277,
			"0.007": 4.97364989077,
			"0.008": 5.4563181087,
			"0.009": 5.13076938483,
			"0.01": 4.60851037895,
			"0.011": 5.55456108259,
			"0.012": 8.35525927282,
			"0.013": 2.683540098,
			"0.014": 0.0997941914091,
			"0.015": 0.0,
			"0.016": 0.0,
			"0.017": 0.0,
			"0.018": 0.0,
			"0.019": 0.0,
			"0.02": 0.0,
			"0.021": 0.0,
			"0.022": 0.0,
			"0.023": 0.0,
			"0.024": 0.0,
			"0.025": 0.0
		}
	}
}
