{
	 "smiles": "O=C1NC(=CC=C1C#N)C1=CC=CS1", 
	 "Tm": 575.15, 
	 "num_atms": 20, 
	 "gaussian": { 
		 "optdone": 1, 
		 "sigma_profile": "yes", 
		 "theory": "DFT", 
		 "functional": "B3LYP", 
		 "basiset": "6-31G**", 
		 "properties": { 
			 "R2extent": 4835.4025, 
			 "electric_dipole_moment_norm": 9.48615345016, 
			 "electric_quadrupole_moment_norm": 28.7874258384, 
			 "total_energy": -967.570968483, 
			 "HOMO_LUMO_gap": 0.13512, 
			 "cosmo_polarized_energy": -21.23, 
			 "cosmo_cavitation_energy": 27.89, 
			 "cosmo_dispersion_energy": -20.48, 
			 "cosmo_repulsion_energy": 1.54, 
			 "cosmo_total_nonelectrostatic_energy": 8.95, 
			 "SMD_solvation_energy": 6.72 
		},
		"coords": [
			{
				"x": 3.2829153188,
				"y": 1.7390634651,
				"z": 1.5461095339,
				"element": "O" 
			},
			{
				"x": 2.2552914344,
				"y": 1.3093289178,
				"z": 1.0452359503,
				"element": "C" 
			},
			{
				"x": 1.0008080455,
				"y": 1.7087191629,
				"z": 1.5578293247,
				"element": "N" 
			},
			{
				"x": -0.2342206336,
				"y": 1.3213622031,
				"z": 1.1116558706,
				"element": "C" 
			},
			{
				"x": -0.299367375,
				"y": 0.4571768653,
				"z": 0.0356240187,
				"element": "C" 
			},
			{
				"x": 0.8976075996,
				"y": 0.0084141394,
				"z": -0.560463345,
				"element": "C" 
			},
			{
				"x": 2.1379622147,
				"y": 0.3954674092,
				"z": -0.0920871165,
				"element": "C" 
			},
			{
				"x": 3.3385107964,
				"y": -0.0705356503,
				"z": -0.7043485954,
				"element": "C" 
			},
			{
				"x": 4.2999823797,
				"y": -0.4697685758,
				"z": -1.2246390731,
				"element": "N" 
			},
			{
				"x": -1.3941870344,
				"y": 1.8441302974,
				"z": 1.8234261463,
				"element": "C" 
			},
			{
				"x": -1.4656880334,
				"y": 2.282934722,
				"z": 3.1299747688,
				"element": "C" 
			},
			{
				"x": -2.7658098585,
				"y": 2.7179893224,
				"z": 3.5060930103,
				"element": "C" 
			},
			{
				"x": -3.6732359353,
				"y": 2.6099727045,
				"z": 2.4857498602,
				"element": "C" 
			},
			{
				"x": -2.9545011482,
				"y": 1.9804506246,
				"z": 1.0446414393,
				"element": "S" 
			},
			{
				"x": 1.0741099618,
				"y": 2.3920968519,
				"z": 2.3018003628,
				"element": "H" 
			},
			{
				"x": -1.2585519259,
				"y": 0.1052458483,
				"z": -0.3208096769,
				"element": "H" 
			},
			{
				"x": 0.8455891052,
				"y": -0.6706260017,
				"z": -1.4061266671,
				"element": "H" 
			},
			{
				"x": -0.6262657474,
				"y": 2.2568868519,
				"z": 3.8163679455,
				"element": "H" 
			},
			{
				"x": -3.0167559356,
				"y": 3.0869163426,
				"z": 4.4934346001,
				"element": "H" 
			},
			{
				"x": -4.7226932289,
				"y": 2.8702744994,
				"z": 2.4920316422,
				"element": "H" 
			}
		],
		 "valence_orbital": [ 
			{
				"type": "occ",
				"energy": -0.30815,
				"method": "rhf"
			},
			{
				"type": "occ",
				"energy": -0.28576,
				"method": "rhf"
			},
			{
				"type": "occ",
				"energy": -0.27639,
				"method": "rhf"
			},
			{
				"type": "occ",
				"energy": -0.26894,
				"method": "rhf"
			},
			{
				"type": "occ",
				"energy": -0.22832,
				"method": "rhf"
			},
			{
				"type": "unocc",
				"energy": -0.0932,
				"method": "rhf"
			},
			{
				"type": "unocc",
				"energy": -0.0364,
				"method": "rhf"
			},
			{
				"type": "unocc",
				"energy": -0.008,
				"method": "rhf"
			},
			{
				"type": "unocc",
				"energy": 0.00612,
				"method": "rhf"
			},
			{
				"type": "unocc",
				"energy": 0.0313,
				"method": "rhf"
			}
		],
		"cosmo_sigma_profile": { 
			"-0.025": 0.0,
			"-0.024": 0.0,
			"-0.023": 0.0,
			"-0.022": 0.0,
			"-0.021": 0.0,
			"-0.02": 0.0,
			"-0.019": 0.0,
			"-0.018": 0.0,
			"-0.017": 0.0,
			"-0.016": 0.613252550065,
			"-0.015": 1.15273143432,
			"-0.014": 0.82968548659,
			"-0.013": 1.66433292278,
			"-0.012": 1.1925239958,
			"-0.011": 1.36762930253,
			"-0.01": 2.45830588274,
			"-0.009": 6.09543332645,
			"-0.008": 8.93945608488,
			"-0.007": 10.2643250256,
			"-0.006": 10.2271269753,
			"-0.005": 10.3148133808,
			"-0.004": 10.8285624238,
			"-0.003": 13.6940818781,
			"-0.002": 16.6760089284,
			"-0.001": 18.7182147827,
			"0.0": 17.517329787,
			"0.001": 15.4837750249,
			"0.002": 15.7876401893,
			"0.003": 13.0031198163,
			"0.004": 5.19488422461,
			"0.005": 2.44985328211,
			"0.006": 4.36591522236,
			"0.007": 4.83544272127,
			"0.008": 5.17450531005,
			"0.009": 4.97553974504,
			"0.01": 5.21879973525,
			"0.011": 4.88063087158,
			"0.012": 5.11773572438,
			"0.013": 8.36529047882,
			"0.014": 1.11578704218,
			"0.015": 0.0,
			"0.016": 0.0,
			"0.017": 0.0,
			"0.018": 0.0,
			"0.019": 0.0,
			"0.02": 0.0,
			"0.021": 0.0,
			"0.022": 0.0,
			"0.023": 0.0,
			"0.024": 0.0,
			"0.025": 0.0
		}
	}
}
