{
	 "smiles": "SC1=NN=C(N1CC1CCCO1)C1=CC=CS1", 
	 "Tm": 381.15, 
	 "num_atms": 30, 
	 "gaussian": { 
		 "optdone": 1, 
		 "sigma_profile": "yes", 
		 "theory": "DFT", 
		 "functional": "B3LYP", 
		 "basiset": "6-31G**", 
		 "properties": { 
			 "R2extent": 5056.3892, 
			 "electric_dipole_moment_norm": 6.65277571018, 
			 "electric_quadrupole_moment_norm": 11.9456595892, 
			 "total_energy": -1462.80594569, 
			 "HOMO_LUMO_gap": 0.18064, 
			 "cosmo_polarized_energy": -20.62, 
			 "cosmo_cavitation_energy": 36.11, 
			 "cosmo_dispersion_energy": -25.85, 
			 "cosmo_repulsion_energy": 1.93, 
			 "cosmo_total_nonelectrostatic_energy": 12.2, 
			 "SMD_solvation_energy": 2.77 
		},
		"coords": [
			{
				"x": -1.4685658849,
				"y": -3.6774914731,
				"z": -1.8598351225,
				"element": "S" 
			},
			{
				"x": -0.21126294,
				"y": -2.8226334631,
				"z": -0.9551363075,
				"element": "C" 
			},
			{
				"x": 0.7912790815,
				"y": -3.3861875823,
				"z": -0.3229567172,
				"element": "N" 
			},
			{
				"x": 1.5415874527,
				"y": -2.3677801963,
				"z": 0.2212142151,
				"element": "N" 
			},
			{
				"x": 0.9703144853,
				"y": -1.2232667777,
				"z": -0.0942096786,
				"element": "C" 
			},
			{
				"x": -0.1630597496,
				"y": -1.4542689598,
				"z": -0.860113373,
				"element": "N" 
			},
			{
				"x": -1.2168019092,
				"y": -0.5191089117,
				"z": -1.2443199584,
				"element": "C" 
			},
			{
				"x": -2.354969576,
				"y": -0.4458376524,
				"z": -0.2132092945,
				"element": "C" 
			},
			{
				"x": -3.4413714889,
				"y": 0.5800399363,
				"z": -0.6241258169,
				"element": "C" 
			},
			{
				"x": -3.6638590716,
				"y": 1.3930412894,
				"z": 0.6642787543,
				"element": "C" 
			},
			{
				"x": -2.2871710371,
				"y": 1.3032533646,
				"z": 1.3248746925,
				"element": "C" 
			},
			{
				"x": -1.8436328804,
				"y": -0.0281943611,
				"z": 1.0548685661,
				"element": "O" 
			},
			{
				"x": 1.47766898,
				"y": 0.0829090165,
				"z": 0.3010256302,
				"element": "C" 
			},
			{
				"x": 1.5823250776,
				"y": 1.2510497637,
				"z": -0.4220897581,
				"element": "C" 
			},
			{
				"x": 2.182112374,
				"y": 2.3134177591,
				"z": 0.3141944777,
				"element": "C" 
			},
			{
				"x": 2.533408949,
				"y": 1.9400035726,
				"z": 1.5839308718,
				"element": "C" 
			},
			{
				"x": 2.1354686015,
				"y": 0.2871685462,
				"z": 1.9041261563,
				"element": "S" 
			},
			{
				"x": -0.8986637457,
				"y": -4.8769976276,
				"z": -1.6389206568,
				"element": "H" 
			},
			{
				"x": -1.6092719157,
				"y": -0.8212247285,
				"z": -2.2218838007,
				"element": "H" 
			},
			{
				"x": -0.768945066,
				"y": 0.4684567666,
				"z": -1.3573520179,
				"element": "H" 
			},
			{
				"x": -2.7763239704,
				"y": -1.4490721287,
				"z": -0.0759145653,
				"element": "H" 
			},
			{
				"x": -3.071773128,
				"y": 1.2312788987,
				"z": -1.4259210174,
				"element": "H" 
			},
			{
				"x": -4.3493798148,
				"y": 0.0945760121,
				"z": -0.9900320504,
				"element": "H" 
			},
			{
				"x": -3.9863632193,
				"y": 2.4203199924,
				"z": 0.4727710706,
				"element": "H" 
			},
			{
				"x": -4.4140241651,
				"y": 0.9100859446,
				"z": 1.2987977677,
				"element": "H" 
			},
			{
				"x": -2.3005779844,
				"y": 1.4339021553,
				"z": 2.410166483,
				"element": "H" 
			},
			{
				"x": -1.5903211091,
				"y": 2.0416415801,
				"z": 0.8972758334,
				"element": "H" 
			},
			{
				"x": 1.2865472668,
				"y": 1.3365666801,
				"z": -1.4615535634,
				"element": "H" 
			},
			{
				"x": 2.3580725663,
				"y": 3.3034299532,
				"z": -0.0907474167,
				"element": "H" 
			},
			{
				"x": 3.0141538212,
				"y": 2.5374226306,
				"z": 2.3463965964,
				"element": "H" 
			}
		],
		 "valence_orbital": [ 
			{
				"type": "occ",
				"energy": -0.26484,
				"method": "rhf"
			},
			{
				"type": "occ",
				"energy": -0.2558,
				"method": "rhf"
			},
			{
				"type": "occ",
				"energy": -0.24997,
				"method": "rhf"
			},
			{
				"type": "occ",
				"energy": -0.24769,
				"method": "rhf"
			},
			{
				"type": "occ",
				"energy": -0.21308,
				"method": "rhf"
			},
			{
				"type": "unocc",
				"energy": -0.03244,
				"method": "rhf"
			},
			{
				"type": "unocc",
				"energy": 0.00406,
				"method": "rhf"
			},
			{
				"type": "unocc",
				"energy": 0.02237,
				"method": "rhf"
			},
			{
				"type": "unocc",
				"energy": 0.02954,
				"method": "rhf"
			},
			{
				"type": "unocc",
				"energy": 0.04789,
				"method": "rhf"
			}
		],
		"cosmo_sigma_profile": { 
			"-0.025": 0.0,
			"-0.024": 0.0,
			"-0.023": 0.0,
			"-0.022": 0.0,
			"-0.021": 0.0,
			"-0.02": 0.0,
			"-0.019": 0.0,
			"-0.018": 0.0,
			"-0.017": 0.0,
			"-0.016": 0.0,
			"-0.015": 0.0,
			"-0.014": 0.0,
			"-0.013": 0.179826307859,
			"-0.012": 1.44500327987,
			"-0.011": 1.34211175222,
			"-0.01": 1.11628602388,
			"-0.009": 3.08035478634,
			"-0.008": 7.13283325772,
			"-0.007": 11.3774677809,
			"-0.006": 12.8326287069,
			"-0.005": 16.0460826077,
			"-0.004": 25.7534941744,
			"-0.003": 26.8744264736,
			"-0.002": 26.8976246965,
			"-0.001": 20.5593368587,
			"0.0": 17.328353992,
			"0.001": 17.5252715975,
			"0.002": 17.5639744268,
			"0.003": 19.2157848973,
			"0.004": 16.9135892245,
			"0.005": 9.84138685601,
			"0.006": 5.9249490565,
			"0.007": 4.1173744279,
			"0.008": 4.22545644816,
			"0.009": 3.28573713138,
			"0.01": 2.90716992334,
			"0.011": 2.9430240263,
			"0.012": 3.35431602521,
			"0.013": 4.92821141133,
			"0.014": 2.5342840426,
			"0.015": 2.5887409864,
			"0.016": 1.58193023551,
			"0.017": 0.110828228655,
			"0.018": 0.0,
			"0.019": 0.0,
			"0.02": 0.0,
			"0.021": 0.0,
			"0.022": 0.0,
			"0.023": 0.0,
			"0.024": 0.0,
			"0.025": 0.0
		}
	}
}
