{
	 "smiles": "OC(COC1=CC=CC(=C1)C(F)(F)F)C#C", 
	 "Tm": 305.15, 
	 "num_atms": 25, 
	 "gaussian": { 
		 "optdone": 1, 
		 "sigma_profile": "yes", 
		 "theory": "DFT", 
		 "functional": "B3LYP", 
		 "basiset": "6-31G**", 
		 "properties": { 
			 "R2extent": 5778.2663, 
			 "electric_dipole_moment_norm": 3.40899643004, 
			 "electric_quadrupole_moment_norm": 9.59356197614, 
			 "total_energy": -874.470753579, 
			 "HOMO_LUMO_gap": 0.21003, 
			 "cosmo_polarized_energy": -10.81, 
			 "cosmo_cavitation_energy": 32.38, 
			 "cosmo_dispersion_energy": -22.09, 
			 "cosmo_repulsion_energy": 1.68, 
			 "cosmo_total_nonelectrostatic_energy": 11.97, 
			 "SMD_solvation_energy": 8.21 
		},
		"coords": [
			{
				"x": 3.8081369802,
				"y": -2.0912706511,
				"z": -0.0936396953,
				"element": "O" 
			},
			{
				"x": 2.8631045706,
				"y": -1.0292255642,
				"z": 0.014446565,
				"element": "C" 
			},
			{
				"x": 1.5065052279,
				"y": -1.6799106612,
				"z": -0.2763724303,
				"element": "C" 
			},
			{
				"x": 0.5511969337,
				"y": -0.6371508188,
				"z": -0.3886657404,
				"element": "O" 
			},
			{
				"x": -0.7517520092,
				"y": -0.96500043,
				"z": -0.6219242415,
				"element": "C" 
			},
			{
				"x": -1.2249969915,
				"y": -2.2708461655,
				"z": -0.7929360416,
				"element": "C" 
			},
			{
				"x": -2.587502739,
				"y": -2.4835372392,
				"z": -1.025684675,
				"element": "C" 
			},
			{
				"x": -3.4790346861,
				"y": -1.4184668335,
				"z": -1.0919076014,
				"element": "C" 
			},
			{
				"x": -2.9927216677,
				"y": -0.1159474733,
				"z": -0.9209116352,
				"element": "C" 
			},
			{
				"x": -1.6419406525,
				"y": 0.1159473845,
				"z": -0.6872434448,
				"element": "C" 
			},
			{
				"x": -3.9398191408,
				"y": 1.0475896657,
				"z": -1.0478416637,
				"element": "C" 
			},
			{
				"x": -3.4750295091,
				"y": 2.1554068406,
				"z": -0.4304474691,
				"element": "F" 
			},
			{
				"x": -5.1514200868,
				"y": 0.7652364135,
				"z": -0.5176788405,
				"element": "F" 
			},
			{
				"x": -4.1503603813,
				"y": 1.377314632,
				"z": -2.3440691218,
				"element": "F" 
			},
			{
				"x": 2.908376063,
				"y": -0.3778929744,
				"z": 1.3299108438,
				"element": "C" 
			},
			{
				"x": 3.000078184,
				"y": 0.1526820093,
				"z": 2.4109201496,
				"element": "C" 
			},
			{
				"x": 4.6431763774,
				"y": -1.7825931215,
				"z": 0.2806885876,
				"element": "H" 
			},
			{
				"x": 3.038148698,
				"y": -0.2647915586,
				"z": -0.759397601,
				"element": "H" 
			},
			{
				"x": 1.2495984587,
				"y": -2.3730147228,
				"z": 0.5337502752,
				"element": "H" 
			},
			{
				"x": 1.5919664918,
				"y": -2.2441094331,
				"z": -1.2139058135,
				"element": "H" 
			},
			{
				"x": -0.5517643989,
				"y": -3.1184015503,
				"z": -0.7457794204,
				"element": "H" 
			},
			{
				"x": -2.94942046,
				"y": -3.4993607314,
				"z": -1.1530882569,
				"element": "H" 
			},
			{
				"x": -4.5359210694,
				"y": -1.5873816963,
				"z": -1.2638698325,
				"element": "H" 
			},
			{
				"x": -1.259718059,
				"y": 1.1197441793,
				"z": -0.5451358735,
				"element": "H" 
			},
			{
				"x": 3.061113866,
				"y": 0.6202805003,
				"z": 3.3666829774,
				"element": "H" 
			}
		],
		 "valence_orbital": [ 
			{
				"type": "occ",
				"energy": -0.304,
				"method": "rhf"
			},
			{
				"type": "occ",
				"energy": -0.28412,
				"method": "rhf"
			},
			{
				"type": "occ",
				"energy": -0.27642,
				"method": "rhf"
			},
			{
				"type": "occ",
				"energy": -0.26747,
				"method": "rhf"
			},
			{
				"type": "occ",
				"energy": -0.23376,
				"method": "rhf"
			},
			{
				"type": "unocc",
				"energy": -0.02373,
				"method": "rhf"
			},
			{
				"type": "unocc",
				"energy": -0.00481,
				"method": "rhf"
			},
			{
				"type": "unocc",
				"energy": 0.01736,
				"method": "rhf"
			},
			{
				"type": "unocc",
				"energy": 0.03838,
				"method": "rhf"
			},
			{
				"type": "unocc",
				"energy": 0.08555,
				"method": "rhf"
			}
		],
		"cosmo_sigma_profile": { 
			"-0.025": 0.0,
			"-0.024": 0.0,
			"-0.023": 0.0,
			"-0.022": 0.0,
			"-0.021": 0.0,
			"-0.02": 0.0,
			"-0.019": 0.0,
			"-0.018": 0.0,
			"-0.017": 0.282587668567,
			"-0.016": 0.677982999792,
			"-0.015": 0.814883236955,
			"-0.014": 1.02616300093,
			"-0.013": 1.08464905971,
			"-0.012": 1.63089991859,
			"-0.011": 2.04148398163,
			"-0.01": 1.70234702485,
			"-0.009": 1.57346562361,
			"-0.008": 2.9298282653,
			"-0.007": 7.97988753404,
			"-0.006": 17.5686053088,
			"-0.005": 13.9905980431,
			"-0.004": 13.4410926293,
			"-0.003": 12.1282929671,
			"-0.002": 12.0969695794,
			"-0.001": 11.6480431507,
			"0.0": 13.2377216183,
			"0.001": 18.6298398996,
			"0.002": 31.2919552951,
			"0.003": 45.6875549867,
			"0.004": 16.6066079618,
			"0.005": 8.43271527196,
			"0.006": 8.99228465784,
			"0.007": 4.12969559987,
			"0.008": 2.80850552135,
			"0.009": 1.40710626407,
			"0.01": 1.95054892442,
			"0.011": 1.23582410724,
			"0.012": 1.86290432628,
			"0.013": 0.485733359165,
			"0.014": 0.0,
			"0.015": 0.0,
			"0.016": 0.0,
			"0.017": 0.0,
			"0.018": 0.0,
			"0.019": 0.0,
			"0.02": 0.0,
			"0.021": 0.0,
			"0.022": 0.0,
			"0.023": 0.0,
			"0.024": 0.0,
			"0.025": 0.0
		}
	}
}
