{
	 "smiles": "[O-][N+](=O)C1=CC(Cl)=C(OC2=C(Cl)C=C(C=C2Cl)S(Cl)(=O)=O)C=C1", 
	 "Tm": 433.15, 
	 "num_atms": 28, 
	 "gaussian": { 
		 "optdone": 1, 
		 "sigma_profile": "yes", 
		 "theory": "DFT", 
		 "functional": "B3LYP", 
		 "basiset": "6-31G**", 
		 "properties": { 
			 "R2extent": 13482.6174, 
			 "electric_dipole_moment_norm": 2.94765541575, 
			 "electric_quadrupole_moment_norm": 34.4279818807, 
			 "total_energy": -3129.91532345, 
			 "HOMO_LUMO_gap": 0.17121, 
			 "cosmo_polarized_energy": -13.8, 
			 "cosmo_cavitation_energy": 43.68, 
			 "cosmo_dispersion_energy": -30.62, 
			 "cosmo_repulsion_energy": 2.3, 
			 "cosmo_total_nonelectrostatic_energy": 15.36, 
			 "SMD_solvation_energy": 7.77 
		},
		"coords": [
			{
				"x": 0.446738573,
				"y": -5.8480525427,
				"z": 3.2137227634,
				"element": "O" 
			},
			{
				"x": 1.3773923919,
				"y": -5.1103869758,
				"z": 3.5326681462,
				"element": "N" 
			},
			{
				"x": 2.3131034866,
				"y": -5.4280219186,
				"z": 4.2645198756,
				"element": "O" 
			},
			{
				"x": 1.3741422656,
				"y": -3.7402477048,
				"z": 2.9976613152,
				"element": "C" 
			},
			{
				"x": 0.3231426025,
				"y": -3.3486837905,
				"z": 2.1758709755,
				"element": "C" 
			},
			{
				"x": 0.3076521801,
				"y": -2.0524568631,
				"z": 1.6671189197,
				"element": "C" 
			},
			{
				"x": -1.0534260822,
				"y": -1.5562610494,
				"z": 0.6925446672,
				"element": "Cl" 
			},
			{
				"x": 1.360586689,
				"y": -1.1717616688,
				"z": 1.969187768,
				"element": "C" 
			},
			{
				"x": 1.4096100539,
				"y": 0.1499017054,
				"z": 1.5843569535,
				"element": "O" 
			},
			{
				"x": 1.1346278123,
				"y": 0.6200559896,
				"z": 0.3327454058,
				"element": "C" 
			},
			{
				"x": 0.2758742145,
				"y": 1.7330356653,
				"z": 0.2398269273,
				"element": "C" 
			},
			{
				"x": -0.4838302991,
				"y": 2.3462035111,
				"z": 1.6782247566,
				"element": "Cl" 
			},
			{
				"x": 0.0145558511,
				"y": 2.3383603886,
				"z": -0.9839193203,
				"element": "C" 
			},
			{
				"x": 0.6282283742,
				"y": 1.8165878701,
				"z": -2.1204614954,
				"element": "C" 
			},
			{
				"x": 1.4968836315,
				"y": 0.7309292997,
				"z": -2.0714459943,
				"element": "C" 
			},
			{
				"x": 1.7577740421,
				"y": 0.1447516201,
				"z": -0.8353583008,
				"element": "C" 
			},
			{
				"x": 2.8979044436,
				"y": -1.1722665329,
				"z": -0.7622957547,
				"element": "Cl" 
			},
			{
				"x": 0.2837811262,
				"y": 2.5686091783,
				"z": -3.7065614186,
				"element": "S" 
			},
			{
				"x": 1.8005953624,
				"y": 4.0556573684,
				"z": -3.7957050969,
				"element": "Cl" 
			},
			{
				"x": 0.5858666688,
				"y": 1.6092489131,
				"z": -4.7597562554,
				"element": "O" 
			},
			{
				"x": -0.9846279803,
				"y": 3.279502526,
				"z": -3.6266140909,
				"element": "O" 
			},
			{
				"x": 2.3960615895,
				"y": -1.5889929148,
				"z": 2.8125039537,
				"element": "C" 
			},
			{
				"x": 2.4124762822,
				"y": -2.8740464633,
				"z": 3.3346393808,
				"element": "C" 
			},
			{
				"x": -0.4752873955,
				"y": -4.0438983758,
				"z": 1.9514286278,
				"element": "H" 
			},
			{
				"x": -0.6624134149,
				"y": 3.1812748186,
				"z": -1.0499129239,
				"element": "H" 
			},
			{
				"x": 1.9663977503,
				"y": 0.3497480747,
				"z": -2.9701192809,
				"element": "H" 
			},
			{
				"x": 3.1850763486,
				"y": -0.8803591426,
				"z": 3.0372177763,
				"element": "H" 
			},
			{
				"x": 3.2084134322,
				"y": -3.2155309859,
				"z": 3.9836117196,
				"element": "H" 
			}
		],
		 "valence_orbital": [ 
			{
				"type": "occ",
				"energy": -0.30703,
				"method": "rhf"
			},
			{
				"type": "occ",
				"energy": -0.29919,
				"method": "rhf"
			},
			{
				"type": "occ",
				"energy": -0.29184,
				"method": "rhf"
			},
			{
				"type": "occ",
				"energy": -0.28925,
				"method": "rhf"
			},
			{
				"type": "occ",
				"energy": -0.27947,
				"method": "rhf"
			},
			{
				"type": "unocc",
				"energy": -0.10826,
				"method": "rhf"
			},
			{
				"type": "unocc",
				"energy": -0.10411,
				"method": "rhf"
			},
			{
				"type": "unocc",
				"energy": -0.06765,
				"method": "rhf"
			},
			{
				"type": "unocc",
				"energy": -0.06611,
				"method": "rhf"
			},
			{
				"type": "unocc",
				"energy": -0.05553,
				"method": "rhf"
			}
		],
		"cosmo_sigma_profile": { 
			"-0.025": 0.0,
			"-0.024": 0.0,
			"-0.023": 0.0,
			"-0.022": 0.0,
			"-0.021": 0.0,
			"-0.02": 0.0,
			"-0.019": 0.0,
			"-0.018": 0.0,
			"-0.017": 0.0,
			"-0.016": 0.0,
			"-0.015": 0.0,
			"-0.014": 0.0,
			"-0.013": 0.0,
			"-0.012": 0.0,
			"-0.011": 0.0,
			"-0.01": 1.56821325075,
			"-0.009": 5.07453504966,
			"-0.008": 9.04950397184,
			"-0.007": 10.9473016457,
			"-0.006": 8.93123998024,
			"-0.005": 10.1863365868,
			"-0.004": 19.4277070046,
			"-0.003": 29.042318711,
			"-0.002": 43.5069348193,
			"-0.001": 38.4088024242,
			"0.0": 29.726166822,
			"0.001": 28.4055782334,
			"0.002": 32.9861166325,
			"0.003": 32.3707290143,
			"0.004": 8.85286677564,
			"0.005": 7.13010395969,
			"0.006": 8.58746410639,
			"0.007": 17.9743296084,
			"0.008": 13.2121765493,
			"0.009": 5.50508217619,
			"0.01": 1.25126310111,
			"0.011": 0.0,
			"0.012": 0.0,
			"0.013": 0.0,
			"0.014": 0.0,
			"0.015": 0.0,
			"0.016": 0.0,
			"0.017": 0.0,
			"0.018": 0.0,
			"0.019": 0.0,
			"0.02": 0.0,
			"0.021": 0.0,
			"0.022": 0.0,
			"0.023": 0.0,
			"0.024": 0.0,
			"0.025": 0.0
		}
	}
}
