{
	 "smiles": "FC1=C2CSCC(=O)C2=CC=C1", 
	 "Tm": 333.15, 
	 "num_atms": 19, 
	 "gaussian": { 
		 "optdone": 1, 
		 "sigma_profile": "yes", 
		 "theory": "DFT", 
		 "functional": "B3LYP", 
		 "basiset": "6-31G**", 
		 "properties": { 
			 "R2extent": 2355.9148, 
			 "electric_dipole_moment_norm": 2.40177402351, 
			 "electric_quadrupole_moment_norm": 8.33926140315, 
			 "total_energy": -920.422765843, 
			 "HOMO_LUMO_gap": 0.16, 
			 "cosmo_polarized_energy": -8.69, 
			 "cosmo_cavitation_energy": 24.3, 
			 "cosmo_dispersion_energy": -18.65, 
			 "cosmo_repulsion_energy": 1.39, 
			 "cosmo_total_nonelectrostatic_energy": 7.04, 
			 "SMD_solvation_energy": 4.31 
		},
		"coords": [
			{
				"x": -3.1423545196,
				"y": -0.8399368076,
				"z": 0.3058403694,
				"element": "F" 
			},
			{
				"x": -1.7978223872,
				"y": -0.919161211,
				"z": 0.1694365599,
				"element": "C" 
			},
			{
				"x": -1.0383086112,
				"y": 0.2178536698,
				"z": 0.451901092,
				"element": "C" 
			},
			{
				"x": -1.7473396065,
				"y": 1.4746548243,
				"z": 0.899805033,
				"element": "C" 
			},
			{
				"x": -0.8634356149,
				"y": 3.0079253416,
				"z": 0.4436067848,
				"element": "S" 
			},
			{
				"x": 0.730853305,
				"y": 2.5234332738,
				"z": 1.1963053699,
				"element": "C" 
			},
			{
				"x": 1.2964192644,
				"y": 1.2415589543,
				"z": 0.5986676782,
				"element": "C" 
			},
			{
				"x": 2.4968527483,
				"y": 1.1404080922,
				"z": 0.4048485731,
				"element": "O" 
			},
			{
				"x": 0.3609953738,
				"y": 0.1083394778,
				"z": 0.3024338076,
				"element": "C" 
			},
			{
				"x": 0.9342437261,
				"y": -1.0991719262,
				"z": -0.1262022876,
				"element": "C" 
			},
			{
				"x": 0.139367284,
				"y": -2.2061653631,
				"z": -0.4019947577,
				"element": "C" 
			},
			{
				"x": -1.2464806421,
				"y": -2.1203307123,
				"z": -0.2549001321,
				"element": "C" 
			},
			{
				"x": -1.8996895574,
				"y": 1.4625770327,
				"z": 1.9868677914,
				"element": "H" 
			},
			{
				"x": -2.736559705,
				"y": 1.5295730895,
				"z": 0.4414396134,
				"element": "H" 
			},
			{
				"x": 1.4516321816,
				"y": 3.3257427322,
				"z": 1.0318783685,
				"element": "H" 
			},
			{
				"x": 0.6015607635,
				"y": 2.3945702403,
				"z": 2.2792187642,
				"element": "H" 
			},
			{
				"x": 2.0126556304,
				"y": -1.1375031356,
				"z": -0.2305693108,
				"element": "H" 
			},
			{
				"x": 0.5902554704,
				"y": -3.1370126229,
				"z": -0.7311054676,
				"element": "H" 
			},
			{
				"x": -1.9022451035,
				"y": -2.9582549498,
				"z": -0.4658778495,
				"element": "H" 
			}
		],
		 "valence_orbital": [ 
			{
				"type": "occ",
				"energy": -0.33607,
				"method": "rhf"
			},
			{
				"type": "occ",
				"energy": -0.27089,
				"method": "rhf"
			},
			{
				"type": "occ",
				"energy": -0.27009,
				"method": "rhf"
			},
			{
				"type": "occ",
				"energy": -0.2565,
				"method": "rhf"
			},
			{
				"type": "occ",
				"energy": -0.23056,
				"method": "rhf"
			},
			{
				"type": "unocc",
				"energy": -0.07056,
				"method": "rhf"
			},
			{
				"type": "unocc",
				"energy": -0.01736,
				"method": "rhf"
			},
			{
				"type": "unocc",
				"energy": 0.01768,
				"method": "rhf"
			},
			{
				"type": "unocc",
				"energy": 0.03572,
				"method": "rhf"
			},
			{
				"type": "unocc",
				"energy": 0.07137,
				"method": "rhf"
			}
		],
		"cosmo_sigma_profile": { 
			"-0.025": 0.0,
			"-0.024": 0.0,
			"-0.023": 0.0,
			"-0.022": 0.0,
			"-0.021": 0.0,
			"-0.02": 0.0,
			"-0.019": 0.0,
			"-0.018": 0.0,
			"-0.017": 0.0,
			"-0.016": 0.0,
			"-0.015": 0.0,
			"-0.014": 0.0,
			"-0.013": 0.0,
			"-0.012": 0.0,
			"-0.011": 0.0,
			"-0.01": 0.0,
			"-0.009": 0.168207234846,
			"-0.008": 6.36936410525,
			"-0.007": 12.0463320325,
			"-0.006": 12.1967707656,
			"-0.005": 13.1796589613,
			"-0.004": 12.0179821568,
			"-0.003": 11.7843388413,
			"-0.002": 10.121995572,
			"-0.001": 12.0795903205,
			"0.0": 15.1905868023,
			"0.001": 16.5366408528,
			"0.002": 16.5846775915,
			"0.003": 15.8827726071,
			"0.004": 13.1452238509,
			"0.005": 5.00441296972,
			"0.006": 3.84414657974,
			"0.007": 3.2149261002,
			"0.008": 4.06806554224,
			"0.009": 3.87764997572,
			"0.01": 3.19502570422,
			"0.011": 3.88301949807,
			"0.012": 2.08236948033,
			"0.013": 0.230562336075,
			"0.014": 0.0,
			"0.015": 0.0,
			"0.016": 0.0,
			"0.017": 0.0,
			"0.018": 0.0,
			"0.019": 0.0,
			"0.02": 0.0,
			"0.021": 0.0,
			"0.022": 0.0,
			"0.023": 0.0,
			"0.024": 0.0,
			"0.025": 0.0
		}
	}
}
