{
	 "smiles": "CC(C#C)N(C(=O)CCl)C1=CC=CC=C1", 
	 "Tm": 316.65, 
	 "num_atms": 27, 
	 "gaussian": { 
		 "optdone": 1, 
		 "sigma_profile": "yes", 
		 "theory": "DFT", 
		 "functional": "B3LYP", 
		 "basiset": "6-31G**", 
		 "properties": { 
			 "R2extent": 4427.2287, 
			 "electric_dipole_moment_norm": 5.54434501993, 
			 "electric_quadrupole_moment_norm": 22.9302623363, 
			 "total_energy": -1054.60380168, 
			 "HOMO_LUMO_gap": 0.22102, 
			 "cosmo_polarized_energy": -15.2, 
			 "cosmo_cavitation_energy": 33.39, 
			 "cosmo_dispersion_energy": -22.27, 
			 "cosmo_repulsion_energy": 1.78, 
			 "cosmo_total_nonelectrostatic_energy": 12.89, 
			 "SMD_solvation_energy": 7.51 
		},
		"coords": [
			{
				"x": -3.0088828687,
				"y": -0.4136138898,
				"z": 1.1076654011,
				"element": "C" 
			},
			{
				"x": -1.5512229186,
				"y": -0.1254762373,
				"z": 1.5096615072,
				"element": "C" 
			},
			{
				"x": -1.3250158403,
				"y": -0.2751301599,
				"z": 2.9554779484,
				"element": "C" 
			},
			{
				"x": -1.1395627299,
				"y": -0.3439343393,
				"z": 4.1466046641,
				"element": "C" 
			},
			{
				"x": -0.5646886092,
				"y": -0.9059564905,
				"z": 0.7080284693,
				"element": "N" 
			},
			{
				"x": -0.5569187241,
				"y": -2.2860977925,
				"z": 0.8091527052,
				"element": "C" 
			},
			{
				"x": -1.3906867055,
				"y": -2.9043281998,
				"z": 1.4438669308,
				"element": "O" 
			},
			{
				"x": 0.5932516007,
				"y": -2.9708080585,
				"z": 0.0480268486,
				"element": "C" 
			},
			{
				"x": 0.4962571483,
				"y": -4.7563911632,
				"z": 0.1411052401,
				"element": "Cl" 
			},
			{
				"x": 0.5068178094,
				"y": -0.1638026946,
				"z": 0.0987987483,
				"element": "C" 
			},
			{
				"x": 0.4720629544,
				"y": 0.1183970776,
				"z": -1.2717092269,
				"element": "C" 
			},
			{
				"x": 1.5004191952,
				"y": 0.857722895,
				"z": -1.8584095262,
				"element": "C" 
			},
			{
				"x": 2.5579866625,
				"y": 1.3286438206,
				"z": -1.0777322496,
				"element": "C" 
			},
			{
				"x": 2.5867912865,
				"y": 1.0590451356,
				"z": 0.2925276262,
				"element": "C" 
			},
			{
				"x": 1.5660035039,
				"y": 0.3126460317,
				"z": 0.8824337469,
				"element": "C" 
			},
			{
				"x": -3.6728117622,
				"y": 0.2717392661,
				"z": 1.6422201149,
				"element": "H" 
			},
			{
				"x": -3.2779923438,
				"y": -1.4394776371,
				"z": 1.3529441984,
				"element": "H" 
			},
			{
				"x": -3.1315079667,
				"y": -0.2522297948,
				"z": 0.032505358,
				"element": "H" 
			},
			{
				"x": -1.3374200978,
				"y": 0.9178667819,
				"z": 1.2529642937,
				"element": "H" 
			},
			{
				"x": -0.9868688725,
				"y": -0.4385197865,
				"z": 5.1967928538,
				"element": "H" 
			},
			{
				"x": 0.5830934758,
				"y": -2.6927136157,
				"z": -1.0064264995,
				"element": "H" 
			},
			{
				"x": 1.5555797721,
				"y": -2.6675592514,
				"z": 0.4648423043,
				"element": "H" 
			},
			{
				"x": -0.36252333,
				"y": -0.2423060835,
				"z": -1.8656447259,
				"element": "H" 
			},
			{
				"x": 1.471226223,
				"y": 1.0704931562,
				"z": -2.9229078416,
				"element": "H" 
			},
			{
				"x": 3.3558561214,
				"y": 1.9061411814,
				"z": -1.534993462,
				"element": "H" 
			},
			{
				"x": 3.4060793841,
				"y": 1.4268418844,
				"z": 0.9031341459,
				"element": "H" 
			},
			{
				"x": 1.5746776321,
				"y": 0.0983079639,
				"z": 1.9468704265,
				"element": "H" 
			}
		],
		 "valence_orbital": [ 
			{
				"type": "occ",
				"energy": -0.27972,
				"method": "rhf"
			},
			{
				"type": "occ",
				"energy": -0.27225,
				"method": "rhf"
			},
			{
				"type": "occ",
				"energy": -0.26597,
				"method": "rhf"
			},
			{
				"type": "occ",
				"energy": -0.25624,
				"method": "rhf"
			},
			{
				"type": "occ",
				"energy": -0.2503,
				"method": "rhf"
			},
			{
				"type": "unocc",
				"energy": -0.02928,
				"method": "rhf"
			},
			{
				"type": "unocc",
				"energy": -0.02526,
				"method": "rhf"
			},
			{
				"type": "unocc",
				"energy": 0.01364,
				"method": "rhf"
			},
			{
				"type": "unocc",
				"energy": 0.03089,
				"method": "rhf"
			},
			{
				"type": "unocc",
				"energy": 0.04847,
				"method": "rhf"
			}
		],
		"cosmo_sigma_profile": { 
			"-0.025": 0.0,
			"-0.024": 0.0,
			"-0.023": 0.0,
			"-0.022": 0.0,
			"-0.021": 0.0,
			"-0.02": 0.0,
			"-0.019": 0.0,
			"-0.018": 0.0,
			"-0.017": 0.0,
			"-0.016": 0.0,
			"-0.015": 0.0,
			"-0.014": 0.0,
			"-0.013": 0.0,
			"-0.012": 0.615600150876,
			"-0.011": 1.22777224414,
			"-0.01": 1.04088100488,
			"-0.009": 1.0094393332,
			"-0.008": 6.74735575437,
			"-0.007": 7.88788972063,
			"-0.006": 16.6738867407,
			"-0.005": 20.4913965776,
			"-0.004": 23.3449518905,
			"-0.003": 17.3889915574,
			"-0.002": 19.223903959,
			"-0.001": 20.0569805022,
			"0.0": 19.012010939,
			"0.001": 14.2038213958,
			"0.002": 16.0819981793,
			"0.003": 14.8652803627,
			"0.004": 17.8836826278,
			"0.005": 13.6673540016,
			"0.006": 13.4318578015,
			"0.007": 4.28991123929,
			"0.008": 3.13831555927,
			"0.009": 2.72761589214,
			"0.01": 2.77355271124,
			"0.011": 2.42557058645,
			"0.012": 3.75146383473,
			"0.013": 3.47841936289,
			"0.014": 1.48510965806,
			"0.015": 0.0720840957331,
			"0.016": 0.0,
			"0.017": 0.0,
			"0.018": 0.0,
			"0.019": 0.0,
			"0.02": 0.0,
			"0.021": 0.0,
			"0.022": 0.0,
			"0.023": 0.0,
			"0.024": 0.0,
			"0.025": 0.0
		}
	}
}
