{
	 "smiles": "OC1=CC=C(CC2NC(=O)NC2=O)C=C1", 
	 "Tm": 541.15, 
	 "num_atms": 25, 
	 "gaussian": { 
		 "optdone": 1, 
		 "sigma_profile": "yes", 
		 "theory": "DFT", 
		 "functional": "B3LYP", 
		 "basiset": "6-31G**", 
		 "properties": { 
			 "R2extent": 3233.0952, 
			 "electric_dipole_moment_norm": 3.27636087298, 
			 "electric_quadrupole_moment_norm": 14.25389555, 
			 "total_energy": -722.304179014, 
			 "HOMO_LUMO_gap": 0.209, 
			 "cosmo_polarized_energy": -21.98, 
			 "cosmo_cavitation_energy": 29.57, 
			 "cosmo_dispersion_energy": -20.79, 
			 "cosmo_repulsion_energy": 1.65, 
			 "cosmo_total_nonelectrostatic_energy": 10.43, 
			 "SMD_solvation_energy": 6.05 
		},
		"coords": [
			{
				"x": 1.8422123788,
				"y": -1.2920506125,
				"z": 3.9179021649,
				"element": "O" 
			},
			{
				"x": 1.6336639597,
				"y": -0.871825249,
				"z": 2.6355562777,
				"element": "C" 
			},
			{
				"x": 1.4787141421,
				"y": -1.7558551792,
				"z": 1.5633397808,
				"element": "C" 
			},
			{
				"x": 1.271443394,
				"y": -1.2562055988,
				"z": 0.2777142167,
				"element": "C" 
			},
			{
				"x": 1.2126830791,
				"y": 0.1199774701,
				"z": 0.0301778038,
				"element": "C" 
			},
			{
				"x": 0.9677809688,
				"y": 0.654244398,
				"z": -1.3636248509,
				"element": "C" 
			},
			{
				"x": -0.5155151537,
				"y": 0.9379750593,
				"z": -1.7069377299,
				"element": "C" 
			},
			{
				"x": -1.4267000956,
				"y": -0.1809820446,
				"z": -1.5370662367,
				"element": "N" 
			},
			{
				"x": -2.4066396718,
				"y": 0.0429301583,
				"z": -0.602897686,
				"element": "C" 
			},
			{
				"x": -3.2617369087,
				"y": -0.7171731986,
				"z": -0.201544842,
				"element": "O" 
			},
			{
				"x": -2.230923531,
				"y": 1.3860949989,
				"z": -0.1975306402,
				"element": "N" 
			},
			{
				"x": -1.1360292063,
				"y": 1.9915750247,
				"z": -0.7707630861,
				"element": "C" 
			},
			{
				"x": -0.727916516,
				"y": 3.1188008696,
				"z": -0.5793716692,
				"element": "O" 
			},
			{
				"x": 1.3766297096,
				"y": 0.9910101613,
				"z": 1.1200100414,
				"element": "C" 
			},
			{
				"x": 1.5839819344,
				"y": 0.508364267,
				"z": 2.408105275,
				"element": "C" 
			},
			{
				"x": 1.842843044,
				"y": -2.2577648794,
				"z": 3.9398801172,
				"element": "H" 
			},
			{
				"x": 1.5232907606,
				"y": -2.8300369988,
				"z": 1.7307145847,
				"element": "H" 
			},
			{
				"x": 1.1642913453,
				"y": -1.957471335,
				"z": -0.5466292804,
				"element": "H" 
			},
			{
				"x": 1.3567936513,
				"y": -0.0473673126,
				"z": -2.1112257221,
				"element": "H" 
			},
			{
				"x": 1.5001267763,
				"y": 1.6000447283,
				"z": -1.5109620917,
				"element": "H" 
			},
			{
				"x": -0.5608436359,
				"y": 1.334168801,
				"z": -2.7309024256,
				"element": "H" 
			},
			{
				"x": -1.2692388584,
				"y": -1.1131233376,
				"z": -1.8851151299,
				"element": "H" 
			},
			{
				"x": -2.822447123,
				"y": 1.8179519052,
				"z": 0.4975582404,
				"element": "H" 
			},
			{
				"x": 1.3350787479,
				"y": 2.0638839249,
				"z": 0.9547871875,
				"element": "H" 
			},
			{
				"x": 1.7132568084,
				"y": 1.1830339795,
				"z": 3.2479257007,
				"element": "H" 
			}
		],
		 "valence_orbital": [ 
			{
				"type": "occ",
				"energy": -0.28707,
				"method": "rhf"
			},
			{
				"type": "occ",
				"energy": -0.26911,
				"method": "rhf"
			},
			{
				"type": "occ",
				"energy": -0.26207,
				"method": "rhf"
			},
			{
				"type": "occ",
				"energy": -0.25562,
				"method": "rhf"
			},
			{
				"type": "occ",
				"energy": -0.22318,
				"method": "rhf"
			},
			{
				"type": "unocc",
				"energy": -0.01418,
				"method": "rhf"
			},
			{
				"type": "unocc",
				"energy": -0.00527,
				"method": "rhf"
			},
			{
				"type": "unocc",
				"energy": 0.0048,
				"method": "rhf"
			},
			{
				"type": "unocc",
				"energy": 0.0615,
				"method": "rhf"
			},
			{
				"type": "unocc",
				"energy": 0.06698,
				"method": "rhf"
			}
		],
		"cosmo_sigma_profile": { 
			"-0.025": 0.0,
			"-0.024": 0.0,
			"-0.023": 0.0,
			"-0.022": 0.0,
			"-0.021": 0.0,
			"-0.02": 0.0,
			"-0.019": 0.0,
			"-0.018": 0.295712340087,
			"-0.017": 1.48107080929,
			"-0.016": 2.10621846852,
			"-0.015": 3.3756705233,
			"-0.014": 2.98559367078,
			"-0.013": 3.34335360945,
			"-0.012": 2.25124961519,
			"-0.011": 2.73983928868,
			"-0.01": 2.92929517958,
			"-0.009": 3.12823812178,
			"-0.008": 4.42344491542,
			"-0.007": 8.66729071699,
			"-0.006": 11.714676077,
			"-0.005": 12.8377910096,
			"-0.004": 14.4983911295,
			"-0.003": 12.6935904297,
			"-0.002": 11.6718487405,
			"-0.001": 12.5098897639,
			"0.0": 10.2631323065,
			"0.001": 11.6233233977,
			"0.002": 12.891057706,
			"0.003": 11.2506738275,
			"0.004": 13.8350140943,
			"0.005": 12.837056812,
			"0.006": 6.83795707628,
			"0.007": 2.56772456511,
			"0.008": 4.08680647388,
			"0.009": 5.06457120244,
			"0.01": 4.54478848256,
			"0.011": 6.16246421963,
			"0.012": 10.0885926992,
			"0.013": 7.61483395324,
			"0.014": 0.892522392442,
			"0.015": 0.0,
			"0.016": 0.0,
			"0.017": 0.0,
			"0.018": 0.0,
			"0.019": 0.0,
			"0.02": 0.0,
			"0.021": 0.0,
			"0.022": 0.0,
			"0.023": 0.0,
			"0.024": 0.0,
			"0.025": 0.0
		}
	}
}
