{
	 "smiles": "CC(=O)O[Si](C)(C)OC(C)=O", 
	 "Tm": 260.65, 
	 "num_atms": 23, 
	 "gaussian": { 
		 "optdone": 1, 
		 "sigma_profile": "yes", 
		 "theory": "DFT", 
		 "functional": "B3LYP", 
		 "basiset": "6-31G**", 
		 "properties": { 
			 "R2extent": 2693.8831, 
			 "electric_dipole_moment_norm": 2.038315297, 
			 "electric_quadrupole_moment_norm": 10.8363282259, 
			 "total_energy": -826.417185744, 
			 "HOMO_LUMO_gap": 0.27281, 
			 "cosmo_polarized_energy": -10.22, 
			 "cosmo_cavitation_energy": 28.92, 
			 "cosmo_dispersion_energy": -18.16, 
			 "cosmo_repulsion_energy": 1.63, 
			 "cosmo_total_nonelectrostatic_energy": 12.4, 
			 "SMD_solvation_energy": 8.37 
		},
		"coords": [
			{
				"x": -2.9920260983,
				"y": 1.9506430506,
				"z": -2.0617378953,
				"element": "C" 
			},
			{
				"x": -1.9649504072,
				"y": 0.9100852407,
				"z": -1.6869874297,
				"element": "C" 
			},
			{
				"x": -2.2171929721,
				"y": -0.1732455801,
				"z": -1.208198644,
				"element": "O" 
			},
			{
				"x": -0.7017805124,
				"y": 1.3339222507,
				"z": -1.9510227282,
				"element": "O" 
			},
			{
				"x": 0.7016839554,
				"y": 0.4209085279,
				"z": -1.6240280131,
				"element": "Si" 
			},
			{
				"x": 0.6211270286,
				"y": -1.2717714345,
				"z": -2.3978741923,
				"element": "C" 
			},
			{
				"x": 2.0869057575,
				"y": 1.512967498,
				"z": -2.2260880494,
				"element": "C" 
			},
			{
				"x": 0.6979051558,
				"y": 0.3479067641,
				"z": 0.0872088284,
				"element": "O" 
			},
			{
				"x": 1.6991863245,
				"y": -0.2701381937,
				"z": 0.7527386605,
				"element": "C" 
			},
			{
				"x": 1.4828062797,
				"y": -0.2646813693,
				"z": 2.245015516,
				"element": "C" 
			},
			{
				"x": 2.6535246489,
				"y": -0.7667157568,
				"z": 0.1878818615,
				"element": "O" 
			},
			{
				"x": -3.9927652014,
				"y": 1.5722279264,
				"z": -1.8560072021,
				"element": "H" 
			},
			{
				"x": -2.8955510727,
				"y": 2.205209961,
				"z": -3.1214279002,
				"element": "H" 
			},
			{
				"x": -2.8134151556,
				"y": 2.8674593551,
				"z": -1.4917315948,
				"element": "H" 
			},
			{
				"x": -0.2567134879,
				"y": -1.8128357365,
				"z": -2.0376662194,
				"element": "H" 
			},
			{
				"x": 0.5534989148,
				"y": -1.1929481393,
				"z": -3.4884763012,
				"element": "H" 
			},
			{
				"x": 1.5211461672,
				"y": -1.8398296624,
				"z": -2.1474106975,
				"element": "H" 
			},
			{
				"x": 2.0332789413,
				"y": 2.5013155608,
				"z": -1.7591833447,
				"element": "H" 
			},
			{
				"x": 3.0548289402,
				"y": 1.0668382977,
				"z": -1.9824244003,
				"element": "H" 
			},
			{
				"x": 2.0301778511,
				"y": 1.6494461912,
				"z": -3.3111103281,
				"element": "H" 
			},
			{
				"x": 0.5502930797,
				"y": -0.7855852355,
				"z": 2.4823533787,
				"element": "H" 
			},
			{
				"x": 1.3778958304,
				"y": 0.7640566884,
				"z": 2.6021428194,
				"element": "H" 
			},
			{
				"x": 2.3211360325,
				"y": -0.7517362044,
				"z": 2.7419338757,
				"element": "H" 
			}
		],
		 "valence_orbital": [ 
			{
				"type": "occ",
				"energy": -0.33302,
				"method": "rhf"
			},
			{
				"type": "occ",
				"energy": -0.31596,
				"method": "rhf"
			},
			{
				"type": "occ",
				"energy": -0.29969,
				"method": "rhf"
			},
			{
				"type": "occ",
				"energy": -0.27496,
				"method": "rhf"
			},
			{
				"type": "occ",
				"energy": -0.27085,
				"method": "rhf"
			},
			{
				"type": "unocc",
				"energy": 0.00196,
				"method": "rhf"
			},
			{
				"type": "unocc",
				"energy": 0.00527,
				"method": "rhf"
			},
			{
				"type": "unocc",
				"energy": 0.07445,
				"method": "rhf"
			},
			{
				"type": "unocc",
				"energy": 0.08175,
				"method": "rhf"
			},
			{
				"type": "unocc",
				"energy": 0.0902,
				"method": "rhf"
			}
		],
		"cosmo_sigma_profile": { 
			"-0.025": 0.0,
			"-0.024": 0.0,
			"-0.023": 0.0,
			"-0.022": 0.0,
			"-0.021": 0.0,
			"-0.02": 0.0,
			"-0.019": 0.0,
			"-0.018": 0.0,
			"-0.017": 0.0,
			"-0.016": 0.0,
			"-0.015": 0.0,
			"-0.014": 0.0,
			"-0.013": 0.0,
			"-0.012": 0.0,
			"-0.011": 0.0,
			"-0.01": 0.0,
			"-0.009": 0.0,
			"-0.008": 0.0,
			"-0.007": 3.21013326369,
			"-0.006": 12.1169410938,
			"-0.005": 18.2972518202,
			"-0.004": 21.7050517435,
			"-0.003": 24.6304672609,
			"-0.002": 28.9299633902,
			"-0.001": 24.4540014342,
			"0.0": 16.8968619724,
			"0.001": 11.810912089,
			"0.002": 8.34549978036,
			"0.003": 6.45206359349,
			"0.004": 4.86835175275,
			"0.005": 6.6564521916,
			"0.006": 4.83254437036,
			"0.007": 4.19543086353,
			"0.008": 5.47302548279,
			"0.009": 4.31902240215,
			"0.01": 4.40808809478,
			"0.011": 6.61821094405,
			"0.012": 4.78593505389,
			"0.013": 1.10288159835,
			"0.014": 0.0,
			"0.015": 0.0,
			"0.016": 0.0,
			"0.017": 0.0,
			"0.018": 0.0,
			"0.019": 0.0,
			"0.02": 0.0,
			"0.021": 0.0,
			"0.022": 0.0,
			"0.023": 0.0,
			"0.024": 0.0,
			"0.025": 0.0
		}
	}
}
