{
	 "smiles": "IC1=CC=C(C=C1)C1=CC=NO1", 
	 "Tm": 413.15, 
	 "num_atms": 18, 
	 "gaussian": { 
		 "optdone": 1, 
		 "sigma_profile": "no", 
		 "theory": "DFT", 
		 "functional": "B3LYP", 
		 "basiset": "6-31G**", 
		 "properties": { 
			 "R2extent": 2549.6436, 
			 "electric_dipole_moment_norm": 2.54900471165, 
			 "electric_quadrupole_moment_norm": 11.4372240758, 
			 "total_energy": -487.882205501, 
			 "HOMO_LUMO_gap": 0.17293, 
			 "cosmo_polarized_energy": -102337.45, 
			 "cosmo_cavitation_energy": 26.19, 
			 "cosmo_dispersion_energy": -20.84, 
			 "cosmo_repulsion_energy": 1.6, 
			 "cosmo_total_nonelectrostatic_energy": 6.95, 
			 "SMD_solvation_energy": 3.48 
		},
		"coords": [
			{
				"x": 1.9558237326,
				"y": 4.4824834111,
				"z": -2.1348245182,
				"element": "I" 
			},
			{
				"x": 1.1538623241,
				"y": 2.6871908869,
				"z": -1.3480386855,
				"element": "C" 
			},
			{
				"x": 0.3711947354,
				"y": 2.7298258429,
				"z": -0.1911827681,
				"element": "C" 
			},
			{
				"x": -0.1536757533,
				"y": 1.5472296799,
				"z": 0.3219767594,
				"element": "C" 
			},
			{
				"x": 0.0931836166,
				"y": 0.315878705,
				"z": -0.3070073829,
				"element": "C" 
			},
			{
				"x": 0.882608883,
				"y": 0.2960918862,
				"z": -1.4687799163,
				"element": "C" 
			},
			{
				"x": 1.4122436527,
				"y": 1.4741766764,
				"z": -1.9899105901,
				"element": "C" 
			},
			{
				"x": -0.4618392839,
				"y": -0.9203415909,
				"z": 0.2387009659,
				"element": "C" 
			},
			{
				"x": -1.2461797498,
				"y": -1.2085821782,
				"z": 1.325687839,
				"element": "C" 
			},
			{
				"x": -1.4091818314,
				"y": -2.6160184168,
				"z": 1.2600505131,
				"element": "C" 
			},
			{
				"x": -0.7868702682,
				"y": -3.147082918,
				"z": 0.2326422558,
				"element": "N" 
			},
			{
				"x": -0.1829977114,
				"y": -2.0711513259,
				"z": -0.419075389,
				"element": "O" 
			},
			{
				"x": 0.1716397582,
				"y": 3.6722710901,
				"z": 0.3058172211,
				"element": "H" 
			},
			{
				"x": -0.7608833032,
				"y": 1.5868064309,
				"z": 1.2209571136,
				"element": "H" 
			},
			{
				"x": 1.0808206954,
				"y": -0.6479455918,
				"z": -1.9641440421,
				"element": "H" 
			},
			{
				"x": 2.0196728939,
				"y": 1.443360889,
				"z": -2.8872525301,
				"element": "H" 
			},
			{
				"x": -1.6477170582,
				"y": -0.5296681828,
				"z": 2.0611055979,
				"element": "H" 
			},
			{
				"x": -1.9614053324,
				"y": -3.2636252938,
				"z": 1.9291775565,
				"element": "H" 
			}
		],
		 "valence_orbital": [ 
			{
				"type": "occ",
				"energy": -0.30548,
				"method": "rhf"
			},
			{
				"type": "occ",
				"energy": -0.27627,
				"method": "rhf"
			},
			{
				"type": "occ",
				"energy": -0.27523,
				"method": "rhf"
			},
			{
				"type": "occ",
				"energy": -0.27398,
				"method": "rhf"
			},
			{
				"type": "occ",
				"energy": -0.23401,
				"method": "rhf"
			},
			{
				"type": "unocc",
				"energy": -0.06108,
				"method": "rhf"
			},
			{
				"type": "unocc",
				"energy": -0.04517,
				"method": "rhf"
			},
			{
				"type": "unocc",
				"energy": -0.02579,
				"method": "rhf"
			},
			{
				"type": "unocc",
				"energy": 0.01226,
				"method": "rhf"
			},
			{
				"type": "unocc",
				"energy": 0.039,
				"method": "rhf"
			}
		],
		"cosmo_sigma_profile": { 
			"0.0": 0.0,
			"0.0": 0.0,
			"0.0": 0.0,
			"0.0": 0.0,
			"0.0": 0.0,
			"0.0": 0.0,
			"0.0": 0.0,
			"0.0": 0.0,
			"0.0": 0.0,
			"0.0": 0.0,
			"0.0": 0.0,
			"0.0": 0.0,
			"0.0": 0.0,
			"0.0": 0.0,
			"0.0": 0.0,
			"0.0": 0.0,
			"0.0": 0.0,
			"0.0": 0.0,
			"0.0": 0.0,
			"0.0": 0.0,
			"0.0": 0.0,
			"0.0": 0.0,
			"0.0": 0.0,
			"0.0": 0.0,
			"0.0": 0.0,
			"0.0": 0.0,
			"0.0": 0.0,
			"0.0": 0.0,
			"0.0": 0.0,
			"0.0": 0.0,
			"0.0": 0.0,
			"0.0": 0.0,
			"0.0": 0.0,
			"0.0": 0.0,
			"0.0": 0.0,
			"0.0": 0.0,
			"0.0": 0.0,
			"0.0": 0.0,
			"0.0": 0.0,
			"0.0": 0.0,
			"0.0": 0.0,
			"0.0": 0.0,
			"0.0": 0.0,
			"0.0": 0.0,
			"0.0": 0.0,
			"0.0": 0.0,
			"0.0": 0.0,
			"0.0": 0.0,
			"0.0": 0.0,
			"0.0": 0.0,
			"0.0": 0.0
		}
	}
}
