{
	 "smiles": "OC(=O)CCCSC1=NC2=C(N1)C=CC=C2", 
	 "Tm": 394.15, 
	 "num_atms": 28, 
	 "gaussian": { 
		 "optdone": 1, 
		 "sigma_profile": "yes", 
		 "theory": "DFT", 
		 "functional": "B3LYP", 
		 "basiset": "6-31G**", 
		 "properties": { 
			 "R2extent": 6386.5192, 
			 "electric_dipole_moment_norm": 2.46448431523, 
			 "electric_quadrupole_moment_norm": 9.81810202585, 
			 "total_energy": -1084.57577045, 
			 "HOMO_LUMO_gap": 0.19654, 
			 "cosmo_polarized_energy": -16.59, 
			 "cosmo_cavitation_energy": 33.76, 
			 "cosmo_dispersion_energy": -25.0, 
			 "cosmo_repulsion_energy": 1.93, 
			 "cosmo_total_nonelectrostatic_energy": 10.69, 
			 "SMD_solvation_energy": 4.77 
		},
		"coords": [
			{
				"x": -0.9573659203,
				"y": 0.1514603234,
				"z": 4.8934128761,
				"element": "O" 
			},
			{
				"x": -0.9896177786,
				"y": 0.7397444873,
				"z": 3.6734534618,
				"element": "C" 
			},
			{
				"x": -1.9046925644,
				"y": 1.4564728672,
				"z": 3.3251326714,
				"element": "O" 
			},
			{
				"x": 0.2314775801,
				"y": 0.3840198607,
				"z": 2.8533662908,
				"element": "C" 
			},
			{
				"x": 0.2738607856,
				"y": 1.0606141702,
				"z": 1.4818280257,
				"element": "C" 
			},
			{
				"x": -0.7994162489,
				"y": 0.5984820868,
				"z": 0.4916431393,
				"element": "C" 
			},
			{
				"x": -0.7226956418,
				"y": -1.1839800339,
				"z": 0.030019867,
				"element": "S" 
			},
			{
				"x": 0.6445647661,
				"y": -1.1561099046,
				"z": -1.0846088871,
				"element": "C" 
			},
			{
				"x": 1.3369593821,
				"y": -0.1064335455,
				"z": -1.4533511422,
				"element": "N" 
			},
			{
				"x": 2.2845929814,
				"y": -0.6000672047,
				"z": -2.3454218358,
				"element": "C" 
			},
			{
				"x": 2.1360009337,
				"y": -1.9990602013,
				"z": -2.5008035819,
				"element": "C" 
			},
			{
				"x": 1.0722902358,
				"y": -2.3293178709,
				"z": -1.6718786815,
				"element": "N" 
			},
			{
				"x": 2.9546366694,
				"y": -2.7541526326,
				"z": -3.3393024303,
				"element": "C" 
			},
			{
				"x": 3.9479106994,
				"y": -2.0630795255,
				"z": -4.0332760954,
				"element": "C" 
			},
			{
				"x": 4.1114970273,
				"y": -0.6723588607,
				"z": -3.890765348,
				"element": "C" 
			},
			{
				"x": 3.2879217471,
				"y": 0.0735995741,
				"z": -3.0505279173,
				"element": "C" 
			},
			{
				"x": -1.7704964948,
				"y": 0.4286489066,
				"z": 5.348319368,
				"element": "H" 
			},
			{
				"x": 0.2647105017,
				"y": -0.7083283456,
				"z": 2.7578227898,
				"element": "H" 
			},
			{
				"x": 1.1134985003,
				"y": 0.652963902,
				"z": 3.4465203418,
				"element": "H" 
			},
			{
				"x": 1.2569845676,
				"y": 0.9085752328,
				"z": 1.0291649645,
				"element": "H" 
			},
			{
				"x": 0.1418265161,
				"y": 2.1416517476,
				"z": 1.6109880103,
				"element": "H" 
			},
			{
				"x": -0.7255614496,
				"y": 1.1627521526,
				"z": -0.4393337208,
				"element": "H" 
			},
			{
				"x": -1.800235182,
				"y": 0.72698311,
				"z": 0.9088940409,
				"element": "H" 
			},
			{
				"x": 0.6706925404,
				"y": -3.2436650699,
				"z": -1.5344032989,
				"element": "H" 
			},
			{
				"x": 2.8302051873,
				"y": -3.8270712991,
				"z": -3.4511418425,
				"element": "H" 
			},
			{
				"x": 4.6087691023,
				"y": -2.6114739771,
				"z": -4.6979086252,
				"element": "H" 
			},
			{
				"x": 4.8973524985,
				"y": -0.1730399663,
				"z": -4.4497516282,
				"element": "H" 
			},
			{
				"x": 3.4092290581,
				"y": 1.1460700165,
				"z": -2.9379908123,
				"element": "H" 
			}
		],
		 "valence_orbital": [ 
			{
				"type": "occ",
				"energy": -0.27903,
				"method": "rhf"
			},
			{
				"type": "occ",
				"energy": -0.2762,
				"method": "rhf"
			},
			{
				"type": "occ",
				"energy": -0.26827,
				"method": "rhf"
			},
			{
				"type": "occ",
				"energy": -0.22653,
				"method": "rhf"
			},
			{
				"type": "occ",
				"energy": -0.20824,
				"method": "rhf"
			},
			{
				"type": "unocc",
				"energy": -0.0117,
				"method": "rhf"
			},
			{
				"type": "unocc",
				"energy": 0.00627,
				"method": "rhf"
			},
			{
				"type": "unocc",
				"energy": 0.01961,
				"method": "rhf"
			},
			{
				"type": "unocc",
				"energy": 0.02258,
				"method": "rhf"
			},
			{
				"type": "unocc",
				"energy": 0.05319,
				"method": "rhf"
			}
		],
		"cosmo_sigma_profile": { 
			"-0.025": 0.0,
			"-0.024": 0.0,
			"-0.023": 0.0,
			"-0.022": 0.0,
			"-0.021": 0.0,
			"-0.02": 0.0,
			"-0.019": 0.0,
			"-0.018": 0.651298955676,
			"-0.017": 1.60243729761,
			"-0.016": 2.19818094231,
			"-0.015": 2.48209559387,
			"-0.014": 1.38920374087,
			"-0.013": 1.80218760082,
			"-0.012": 1.84471991341,
			"-0.011": 2.50703594653,
			"-0.01": 1.75638167834,
			"-0.009": 1.36511501691,
			"-0.008": 1.42771462414,
			"-0.007": 4.32704658796,
			"-0.006": 8.51794620964,
			"-0.005": 16.9258094331,
			"-0.004": 20.5085590251,
			"-0.003": 22.4537141164,
			"-0.002": 20.9641594609,
			"-0.001": 16.3943984708,
			"0.0": 12.8648619783,
			"0.001": 17.2515213585,
			"0.002": 16.8097269776,
			"0.003": 16.4289449979,
			"0.004": 17.1427504308,
			"0.005": 16.8021235065,
			"0.006": 13.3880662116,
			"0.007": 7.7115392966,
			"0.008": 4.17144621467,
			"0.009": 4.77196158486,
			"0.01": 3.69294216831,
			"0.011": 4.65320105846,
			"0.012": 4.0435440587,
			"0.013": 0.49319811276,
			"0.014": 0.693665766136,
			"0.015": 0.056745000127,
			"0.016": 0.0,
			"0.017": 0.0,
			"0.018": 0.0,
			"0.019": 0.0,
			"0.02": 0.0,
			"0.021": 0.0,
			"0.022": 0.0,
			"0.023": 0.0,
			"0.024": 0.0,
			"0.025": 0.0
		}
	}
}
