{
	 "smiles": "OC(=O)C=CC(=O)C1=CC=CC=C1", 
	 "Tm": 366.65, 
	 "num_atms": 21, 
	 "gaussian": { 
		 "optdone": 1, 
		 "sigma_profile": "yes", 
		 "theory": "DFT", 
		 "functional": "B3LYP", 
		 "basiset": "6-31G**", 
		 "properties": { 
			 "R2extent": 2566.1661, 
			 "electric_dipole_moment_norm": 3.16899170557, 
			 "electric_quadrupole_moment_norm": 10.5082480191, 
			 "total_energy": -611.540469521, 
			 "HOMO_LUMO_gap": 0.18851, 
			 "cosmo_polarized_energy": -14.04, 
			 "cosmo_cavitation_energy": 26.5, 
			 "cosmo_dispersion_energy": -18.7, 
			 "cosmo_repulsion_energy": 1.52, 
			 "cosmo_total_nonelectrostatic_energy": 9.31, 
			 "SMD_solvation_energy": 6.56 
		},
		"coords": [
			{
				"x": 1.2770908743,
				"y": -2.1512677366,
				"z": 0.3709983861,
				"element": "O" 
			},
			{
				"x": 2.5103472882,
				"y": -1.6387727374,
				"z": 0.1464493479,
				"element": "C" 
			},
			{
				"x": 3.5176794116,
				"y": -2.1153708331,
				"z": 0.6288216453,
				"element": "O" 
			},
			{
				"x": 2.5101652949,
				"y": -0.4531420939,
				"z": -0.741104326,
				"element": "C" 
			},
			{
				"x": 1.441360397,
				"y": 0.1585849151,
				"z": -1.2692521745,
				"element": "C" 
			},
			{
				"x": -0.0167540276,
				"y": -0.2344107001,
				"z": -1.184380774,
				"element": "C" 
			},
			{
				"x": -0.5076240018,
				"y": -0.7851210071,
				"z": -2.1580403328,
				"element": "O" 
			},
			{
				"x": -0.8263462905,
				"y": 0.1564879253,
				"z": 0.0040855992,
				"element": "C" 
			},
			{
				"x": -0.2737785846,
				"y": 0.8428957925,
				"z": 1.0948121566,
				"element": "C" 
			},
			{
				"x": -1.0786524307,
				"y": 1.2064815317,
				"z": 2.1739330279,
				"element": "C" 
			},
			{
				"x": -2.4377672976,
				"y": 0.8858988754,
				"z": 2.1700041862,
				"element": "C" 
			},
			{
				"x": -2.9949248526,
				"y": 0.2020068254,
				"z": 1.0839591133,
				"element": "C" 
			},
			{
				"x": -2.1945235999,
				"y": -0.1589056787,
				"z": 0.0051749417,
				"element": "C" 
			},
			{
				"x": 1.3996670288,
				"y": -2.9156544446,
				"z": 0.9576638854,
				"element": "H" 
			},
			{
				"x": 3.509266339,
				"y": -0.0922815277,
				"z": -0.9640042114,
				"element": "H" 
			},
			{
				"x": 1.6158532658,
				"y": 1.0052453725,
				"z": -1.932948938,
				"element": "H" 
			},
			{
				"x": 0.7828596221,
				"y": 1.0903972169,
				"z": 1.0980921245,
				"element": "H" 
			},
			{
				"x": -0.6468008191,
				"y": 1.7383568569,
				"z": 3.0164997551,
				"element": "H" 
			},
			{
				"x": -3.0638065279,
				"y": 1.1693806628,
				"z": 3.0113736274,
				"element": "H" 
			},
			{
				"x": -4.0524413551,
				"y": -0.04544154,
				"z": 1.082374346,
				"element": "H" 
			},
			{
				"x": -2.6019697344,
				"y": -0.6863676752,
				"z": -0.8509113861,
				"element": "H" 
			}
		],
		 "valence_orbital": [ 
			{
				"type": "occ",
				"energy": -0.29691,
				"method": "rhf"
			},
			{
				"type": "occ",
				"energy": -0.2827,
				"method": "rhf"
			},
			{
				"type": "occ",
				"energy": -0.26544,
				"method": "rhf"
			},
			{
				"type": "occ",
				"energy": -0.26292,
				"method": "rhf"
			},
			{
				"type": "occ",
				"energy": -0.25792,
				"method": "rhf"
			},
			{
				"type": "unocc",
				"energy": -0.06941,
				"method": "rhf"
			},
			{
				"type": "unocc",
				"energy": -0.05342,
				"method": "rhf"
			},
			{
				"type": "unocc",
				"energy": -0.0135,
				"method": "rhf"
			},
			{
				"type": "unocc",
				"energy": 0.03246,
				"method": "rhf"
			},
			{
				"type": "unocc",
				"energy": 0.07458,
				"method": "rhf"
			}
		],
		"cosmo_sigma_profile": { 
			"-0.025": 0.0,
			"-0.024": 0.0,
			"-0.023": 0.0,
			"-0.022": 0.0,
			"-0.021": 0.0,
			"-0.02": 0.0,
			"-0.019": 0.223612730324,
			"-0.018": 0.826462857058,
			"-0.017": 1.10138989929,
			"-0.016": 0.745688556137,
			"-0.015": 0.895667082585,
			"-0.014": 0.4176014578,
			"-0.013": 0.286156600543,
			"-0.012": 1.04092556623,
			"-0.011": 1.16122023326,
			"-0.01": 0.794060036737,
			"-0.009": 2.87839779256,
			"-0.008": 4.00379914743,
			"-0.007": 7.7616485097,
			"-0.006": 12.5748385028,
			"-0.005": 15.2685890613,
			"-0.004": 15.5512332841,
			"-0.003": 14.5355886159,
			"-0.002": 13.0565027719,
			"-0.001": 11.0654215484,
			"0.0": 12.4743394524,
			"0.001": 11.4757686354,
			"0.002": 12.335319813,
			"0.003": 13.796967835,
			"0.004": 14.9322755745,
			"0.005": 7.09101576672,
			"0.006": 4.85514453408,
			"0.007": 4.5995496883,
			"0.008": 2.29054374138,
			"0.009": 3.97169343558,
			"0.01": 4.92988053718,
			"0.011": 8.78840469071,
			"0.012": 6.05581023236,
			"0.013": 0.603544236238,
			"0.014": 0.0,
			"0.015": 0.0,
			"0.016": 0.0,
			"0.017": 0.0,
			"0.018": 0.0,
			"0.019": 0.0,
			"0.02": 0.0,
			"0.021": 0.0,
			"0.022": 0.0,
			"0.023": 0.0,
			"0.024": 0.0,
			"0.025": 0.0
		}
	}
}
