{
	 "smiles": "OCCCC1=NN2C=CC=NC2=N1", 
	 "Tm": 350.15, 
	 "num_atms": 23, 
	 "gaussian": { 
		 "optdone": 1, 
		 "sigma_profile": "yes", 
		 "theory": "DFT", 
		 "functional": "B3LYP", 
		 "basiset": "6-31G**", 
		 "properties": { 
			 "R2extent": 4264.9986, 
			 "electric_dipole_moment_norm": 4.05909008646, 
			 "electric_quadrupole_moment_norm": 20.8767140348, 
			 "total_energy": -605.082260277, 
			 "HOMO_LUMO_gap": 0.19135, 
			 "cosmo_polarized_energy": -17.48, 
			 "cosmo_cavitation_energy": 27.46, 
			 "cosmo_dispersion_energy": -20.45, 
			 "cosmo_repulsion_energy": 1.63, 
			 "cosmo_total_nonelectrostatic_energy": 8.64, 
			 "SMD_solvation_energy": 0.41 
		},
		"coords": [
			{
				"x": -1.6385766901,
				"y": -1.8409163692,
				"z": 2.7083780565,
				"element": "O" 
			},
			{
				"x": -0.3093309517,
				"y": -1.5763098054,
				"z": 2.2838430887,
				"element": "C" 
			},
			{
				"x": -0.2444072441,
				"y": -0.5571614594,
				"z": 1.1451621501,
				"element": "C" 
			},
			{
				"x": 1.1944952563,
				"y": -0.3153420492,
				"z": 0.6543225149,
				"element": "C" 
			},
			{
				"x": 1.2743830434,
				"y": 0.7589110044,
				"z": -0.3840235887,
				"element": "C" 
			},
			{
				"x": 1.7439165284,
				"y": 0.5045033694,
				"z": -1.6150409579,
				"element": "N" 
			},
			{
				"x": 1.6338849817,
				"y": 1.7163913504,
				"z": -2.2090132364,
				"element": "N" 
			},
			{
				"x": 1.9678549319,
				"y": 2.0541633571,
				"z": -3.4778669252,
				"element": "C" 
			},
			{
				"x": 1.7608197782,
				"y": 3.3589853892,
				"z": -3.8500303355,
				"element": "C" 
			},
			{
				"x": 1.2175774892,
				"y": 4.2596162732,
				"z": -2.8950401807,
				"element": "C" 
			},
			{
				"x": 0.8916439287,
				"y": 3.9309091879,
				"z": -1.6573641226,
				"element": "N" 
			},
			{
				"x": 1.0984708944,
				"y": 2.6500226852,
				"z": -1.303915062,
				"element": "C" 
			},
			{
				"x": 0.8730120355,
				"y": 2.0337099394,
				"z": -0.1476202829,
				"element": "N" 
			},
			{
				"x": -2.0115289606,
				"y": -1.0115892132,
				"z": 3.0347231166,
				"element": "H" 
			},
			{
				"x": 0.3213184931,
				"y": -1.2380409371,
				"z": 3.1236577632,
				"element": "H" 
			},
			{
				"x": 0.0919850321,
				"y": -2.5406001221,
				"z": 1.9521057207,
				"element": "H" 
			},
			{
				"x": -0.8705921367,
				"y": -0.9096950667,
				"z": 0.3175437154,
				"element": "H" 
			},
			{
				"x": -0.6657381272,
				"y": 0.3990131592,
				"z": 1.4808130247,
				"element": "H" 
			},
			{
				"x": 1.6214780781,
				"y": -1.2322287921,
				"z": 0.2362310052,
				"element": "H" 
			},
			{
				"x": 1.8216395524,
				"y": -0.0190965602,
				"z": 1.5053940833,
				"element": "H" 
			},
			{
				"x": 2.3731531903,
				"y": 1.267811493,
				"z": -4.1030616938,
				"element": "H" 
			},
			{
				"x": 2.0077238894,
				"y": 3.6903627152,
				"z": -4.8509024374,
				"element": "H" 
			},
			{
				"x": 1.0485170071,
				"y": 5.296980451,
				"z": -3.177495416,
				"element": "H" 
			}
		],
		 "valence_orbital": [ 
			{
				"type": "occ",
				"energy": -0.28294,
				"method": "rhf"
			},
			{
				"type": "occ",
				"energy": -0.28009,
				"method": "rhf"
			},
			{
				"type": "occ",
				"energy": -0.27206,
				"method": "rhf"
			},
			{
				"type": "occ",
				"energy": -0.25822,
				"method": "rhf"
			},
			{
				"type": "occ",
				"energy": -0.2567,
				"method": "rhf"
			},
			{
				"type": "unocc",
				"energy": -0.06535,
				"method": "rhf"
			},
			{
				"type": "unocc",
				"energy": -0.02214,
				"method": "rhf"
			},
			{
				"type": "unocc",
				"energy": 0.04442,
				"method": "rhf"
			},
			{
				"type": "unocc",
				"energy": 0.07936,
				"method": "rhf"
			},
			{
				"type": "unocc",
				"energy": 0.08196,
				"method": "rhf"
			}
		],
		"cosmo_sigma_profile": { 
			"-0.025": 0.0,
			"-0.024": 0.0,
			"-0.023": 0.0,
			"-0.022": 0.0,
			"-0.021": 0.0,
			"-0.02": 0.0,
			"-0.019": 0.0,
			"-0.018": 0.0,
			"-0.017": 0.0,
			"-0.016": 0.0526204112858,
			"-0.015": 0.949200400914,
			"-0.014": 0.884612825409,
			"-0.013": 1.0208258839,
			"-0.012": 1.10911415347,
			"-0.011": 2.41094956642,
			"-0.01": 2.45779437664,
			"-0.009": 4.40491968976,
			"-0.008": 8.2028156994,
			"-0.007": 7.62517107823,
			"-0.006": 6.20955111602,
			"-0.005": 10.6378158928,
			"-0.004": 21.2269305402,
			"-0.003": 21.3746570047,
			"-0.002": 20.0325581337,
			"-0.001": 18.8398120298,
			"0.0": 15.0612252169,
			"0.001": 8.02992310279,
			"0.002": 6.38485957443,
			"0.003": 5.50236889223,
			"0.004": 4.92721092905,
			"0.005": 5.38378391508,
			"0.006": 4.91870261682,
			"0.007": 4.34649360036,
			"0.008": 4.78889288835,
			"0.009": 3.39158252957,
			"0.01": 4.54025283629,
			"0.011": 4.61799173195,
			"0.012": 5.68835485328,
			"0.013": 4.09476183045,
			"0.014": 5.84643197865,
			"0.015": 2.39745899251,
			"0.016": 0.646641117702,
			"0.017": 0.0473073178328,
			"0.018": 0.0,
			"0.019": 0.0,
			"0.02": 0.0,
			"0.021": 0.0,
			"0.022": 0.0,
			"0.023": 0.0,
			"0.024": 0.0,
			"0.025": 0.0
		}
	}
}
