{
	 "smiles": "OC1=NC(O)=C(O)C=N1", 
	 "Tm": 603.15, 
	 "num_atms": 13, 
	 "gaussian": { 
		 "optdone": 1, 
		 "sigma_profile": "yes", 
		 "theory": "DFT", 
		 "functional": "B3LYP", 
		 "basiset": "6-31G**", 
		 "properties": { 
			 "R2extent": 1158.6176, 
			 "electric_dipole_moment_norm": 1.31707072323, 
			 "electric_quadrupole_moment_norm": 8.15311776746, 
			 "total_energy": -490.011413102, 
			 "HOMO_LUMO_gap": 0.19299, 
			 "cosmo_polarized_energy": -12.98, 
			 "cosmo_cavitation_energy": 17.97, 
			 "cosmo_dispersion_energy": -14.05, 
			 "cosmo_repulsion_energy": 1.16, 
			 "cosmo_total_nonelectrostatic_energy": 5.08, 
			 "SMD_solvation_energy": 1.64 
		},
		"coords": [
			{
				"x": 2.3828984961,
				"y": -0.5276585571,
				"z": -0.3626075736,
				"element": "O" 
			},
			{
				"x": 1.2248845967,
				"y": -0.0057204934,
				"z": 0.084558768,
				"element": "C" 
			},
			{
				"x": 0.160597158,
				"y": -0.8136409938,
				"z": -0.0035295589,
				"element": "N" 
			},
			{
				"x": -0.978226656,
				"y": -0.3071179058,
				"z": 0.4337493005,
				"element": "C" 
			},
			{
				"x": -2.100999993,
				"y": -1.0591324549,
				"z": 0.379654649,
				"element": "O" 
			},
			{
				"x": -1.1001614952,
				"y": 0.9909914779,
				"z": 0.9628126037,
				"element": "C" 
			},
			{
				"x": -2.2832503566,
				"y": 1.4985432117,
				"z": 1.4098040918,
				"element": "O" 
			},
			{
				"x": 0.0740022777,
				"y": 1.7258624302,
				"z": 0.9993863403,
				"element": "C" 
			},
			{
				"x": 1.2480479417,
				"y": 1.2358689881,
				"z": 0.5610796642,
				"element": "N" 
			},
			{
				"x": 3.0504509818,
				"y": 0.1637950207,
				"z": -0.2357174887,
				"element": "H" 
			},
			{
				"x": -1.8514877644,
				"y": -1.9145660342,
				"z": -0.004815597,
				"element": "H" 
			},
			{
				"x": -2.9635246943,
				"y": 0.8202808004,
				"z": 1.2907416335,
				"element": "H" 
			},
			{
				"x": 0.0674695077,
				"y": 2.7389945104,
				"z": 1.3935831672,
				"element": "H" 
			}
		],
		 "valence_orbital": [ 
			{
				"type": "occ",
				"energy": -0.3337,
				"method": "rhf"
			},
			{
				"type": "occ",
				"energy": -0.3311,
				"method": "rhf"
			},
			{
				"type": "occ",
				"energy": -0.29871,
				"method": "rhf"
			},
			{
				"type": "occ",
				"energy": -0.26539,
				"method": "rhf"
			},
			{
				"type": "occ",
				"energy": -0.22356,
				"method": "rhf"
			},
			{
				"type": "unocc",
				"energy": -0.03057,
				"method": "rhf"
			},
			{
				"type": "unocc",
				"energy": 0.00736,
				"method": "rhf"
			},
			{
				"type": "unocc",
				"energy": 0.05314,
				"method": "rhf"
			},
			{
				"type": "unocc",
				"energy": 0.08972,
				"method": "rhf"
			},
			{
				"type": "unocc",
				"energy": 0.1038,
				"method": "rhf"
			}
		],
		"cosmo_sigma_profile": { 
			"-0.025": 0.0,
			"-0.024": 0.0,
			"-0.023": 0.0,
			"-0.022": 0.0,
			"-0.021": 0.0,
			"-0.02": 0.0,
			"-0.019": 0.315253771386,
			"-0.018": 1.03609183774,
			"-0.017": 1.56119290441,
			"-0.016": 2.52891414716,
			"-0.015": 1.99434673323,
			"-0.014": 1.93855778159,
			"-0.013": 0.995630981219,
			"-0.012": 1.78413780992,
			"-0.011": 2.61077750029,
			"-0.01": 2.24032494533,
			"-0.009": 1.78688056968,
			"-0.008": 2.61482355005,
			"-0.007": 4.60043650793,
			"-0.006": 3.9587297478,
			"-0.005": 4.49146006663,
			"-0.004": 4.29149339198,
			"-0.003": 5.34756605619,
			"-0.002": 9.99507576689,
			"-0.001": 10.308069964,
			"0.0": 11.2487942582,
			"0.001": 8.59416533875,
			"0.002": 5.81765730778,
			"0.003": 6.5991639783,
			"0.004": 7.31486788699,
			"0.005": 3.91451032588,
			"0.006": 5.98228645514,
			"0.007": 4.76344883671,
			"0.008": 4.27166868473,
			"0.009": 5.330338516,
			"0.01": 5.5082065327,
			"0.011": 6.27926825749,
			"0.012": 1.69583671103,
			"0.013": 1.47531443143,
			"0.014": 0.337624717451,
			"0.015": 0.0,
			"0.016": 0.0,
			"0.017": 0.0,
			"0.018": 0.0,
			"0.019": 0.0,
			"0.02": 0.0,
			"0.021": 0.0,
			"0.022": 0.0,
			"0.023": 0.0,
			"0.024": 0.0,
			"0.025": 0.0
		}
	}
}
