{
	 "smiles": "CC(C)=CC=O", 
	 "Tm": 253.15, 
	 "num_atms": 14, 
	 "gaussian": { 
		 "optdone": 1, 
		 "sigma_profile": "yes", 
		 "theory": "DFT", 
		 "functional": "B3LYP", 
		 "basiset": "6-31G**", 
		 "properties": { 
			 "R2extent": 949.3551, 
			 "electric_dipole_moment_norm": 4.21880832582, 
			 "electric_quadrupole_moment_norm": 5.44939458197, 
			 "total_energy": -270.556699173, 
			 "HOMO_LUMO_gap": 0.18999, 
			 "cosmo_polarized_energy": -8.27, 
			 "cosmo_cavitation_energy": 17.61, 
			 "cosmo_dispersion_energy": -12.73, 
			 "cosmo_repulsion_energy": 1.11, 
			 "cosmo_total_nonelectrostatic_energy": 5.99, 
			 "SMD_solvation_energy": 4.71 
		},
		"coords": [
			{
				"x": 0.2150378363,
				"y": 1.3574705173,
				"z": 1.5685226223,
				"element": "C" 
			},
			{
				"x": 0.8135810283,
				"y": 1.5235424526,
				"z": 0.1948512596,
				"element": "C" 
			},
			{
				"x": 1.0908063666,
				"y": 2.9512697563,
				"z": -0.1976590494,
				"element": "C" 
			},
			{
				"x": 1.0987392489,
				"y": 0.5135270303,
				"z": -0.6560225427,
				"element": "C" 
			},
			{
				"x": 0.8868127653,
				"y": -0.9178784763,
				"z": -0.4172411773,
				"element": "C" 
			},
			{
				"x": 1.1693879495,
				"y": -1.7785802852,
				"z": -1.2349098178,
				"element": "O" 
			},
			{
				"x": 0.0179663643,
				"y": 0.321695298,
				"z": 1.8440710377,
				"element": "H" 
			},
			{
				"x": -0.728339583,
				"y": 1.9136971832,
				"z": 1.6363961736,
				"element": "H" 
			},
			{
				"x": 0.8834108982,
				"y": 1.7898666762,
				"z": 2.3236796518,
				"element": "H" 
			},
			{
				"x": 1.5231308623,
				"y": 3.0263368065,
				"z": -1.1979115313,
				"element": "H" 
			},
			{
				"x": 1.7806670668,
				"y": 3.4212613547,
				"z": 0.5151782215,
				"element": "H" 
			},
			{
				"x": 0.1681051935,
				"y": 3.5453420556,
				"z": -0.172471856,
				"element": "H" 
			},
			{
				"x": 1.5309658395,
				"y": 0.7387128127,
				"z": -1.6289872581,
				"element": "H" 
			},
			{
				"x": 0.4473281636,
				"y": -1.2044631818,
				"z": 0.5614042661,
				"element": "H" 
			}
		],
		 "valence_orbital": [ 
			{
				"type": "occ",
				"energy": -0.3866,
				"method": "rhf"
			},
			{
				"type": "occ",
				"energy": -0.38083,
				"method": "rhf"
			},
			{
				"type": "occ",
				"energy": -0.36375,
				"method": "rhf"
			},
			{
				"type": "occ",
				"energy": -0.26307,
				"method": "rhf"
			},
			{
				"type": "occ",
				"energy": -0.24218,
				"method": "rhf"
			},
			{
				"type": "unocc",
				"energy": -0.05219,
				"method": "rhf"
			},
			{
				"type": "unocc",
				"energy": 0.06942,
				"method": "rhf"
			},
			{
				"type": "unocc",
				"energy": 0.08347,
				"method": "rhf"
			},
			{
				"type": "unocc",
				"energy": 0.10685,
				"method": "rhf"
			},
			{
				"type": "unocc",
				"energy": 0.12301,
				"method": "rhf"
			}
		],
		"cosmo_sigma_profile": { 
			"-0.025": 0.0,
			"-0.024": 0.0,
			"-0.023": 0.0,
			"-0.022": 0.0,
			"-0.021": 0.0,
			"-0.02": 0.0,
			"-0.019": 0.0,
			"-0.018": 0.0,
			"-0.017": 0.0,
			"-0.016": 0.0,
			"-0.015": 0.0,
			"-0.014": 0.0,
			"-0.013": 0.0,
			"-0.012": 0.0,
			"-0.011": 0.0,
			"-0.01": 0.0,
			"-0.009": 0.0,
			"-0.008": 0.0205762263998,
			"-0.007": 1.59309825945,
			"-0.006": 3.38868336057,
			"-0.005": 16.3053078178,
			"-0.004": 16.0729631519,
			"-0.003": 13.8591261039,
			"-0.002": 16.2150972635,
			"-0.001": 18.6803505612,
			"0.0": 12.4138782333,
			"0.001": 5.01604437715,
			"0.002": 6.01492972355,
			"0.003": 4.72679024559,
			"0.004": 2.5566060431,
			"0.005": 1.3850021681,
			"0.006": 1.21338872079,
			"0.007": 2.10967848976,
			"0.008": 1.07024475599,
			"0.009": 1.75722974299,
			"0.01": 1.92534894,
			"0.011": 2.86103960134,
			"0.012": 4.47692100874,
			"0.013": 3.82976047823,
			"0.014": 1.36010542774,
			"0.015": 0.00764371979258,
			"0.016": 0.0,
			"0.017": 0.0,
			"0.018": 0.0,
			"0.019": 0.0,
			"0.02": 0.0,
			"0.021": 0.0,
			"0.022": 0.0,
			"0.023": 0.0,
			"0.024": 0.0,
			"0.025": 0.0
		}
	}
}
