{
	 "smiles": "CCCN1C(S)=NN=C1C1=CC=NC=C1", 
	 "Tm": 532.15, 
	 "num_atms": 27, 
	 "gaussian": { 
		 "optdone": 1, 
		 "sigma_profile": "yes", 
		 "theory": "DFT", 
		 "functional": "B3LYP", 
		 "basiset": "6-31G**", 
		 "properties": { 
			 "R2extent": 4141.5957, 
			 "electric_dipole_moment_norm": 4.71491031304, 
			 "electric_quadrupole_moment_norm": 6.60237929992, 
			 "total_energy": -1005.46535824, 
			 "HOMO_LUMO_gap": 0.18192, 
			 "cosmo_polarized_energy": -17.12, 
			 "cosmo_cavitation_energy": 32.55, 
			 "cosmo_dispersion_energy": -23.23, 
			 "cosmo_repulsion_energy": 1.79, 
			 "cosmo_total_nonelectrostatic_energy": 11.11, 
			 "SMD_solvation_energy": 1.42 
		},
		"coords": [
			{
				"x": -3.2756397017,
				"y": 1.075839735,
				"z": 1.4885351661,
				"element": "C" 
			},
			{
				"x": -2.3340078484,
				"y": -0.0588556589,
				"z": 1.074631285,
				"element": "C" 
			},
			{
				"x": -1.4572594374,
				"y": 0.337720799,
				"z": -0.1208256509,
				"element": "C" 
			},
			{
				"x": -0.5550753514,
				"y": -0.7373821169,
				"z": -0.5483399848,
				"element": "N" 
			},
			{
				"x": -0.8962735724,
				"y": -1.8074788192,
				"z": -1.3361691104,
				"element": "C" 
			},
			{
				"x": -2.425547756,
				"y": -1.9024699844,
				"z": -2.2177373201,
				"element": "S" 
			},
			{
				"x": 0.0501054764,
				"y": -2.7191056474,
				"z": -1.3498508245,
				"element": "N" 
			},
			{
				"x": 1.0563020518,
				"y": -2.2585443269,
				"z": -0.5331196241,
				"element": "N" 
			},
			{
				"x": 0.6950255987,
				"y": -1.0848614837,
				"z": -0.0570782102,
				"element": "C" 
			},
			{
				"x": 1.5327660954,
				"y": -0.2871518106,
				"z": 0.85045605,
				"element": "C" 
			},
			{
				"x": 2.2546024378,
				"y": -0.9410759355,
				"z": 1.8597041127,
				"element": "C" 
			},
			{
				"x": 3.0749307795,
				"y": -0.1888059291,
				"z": 2.6971610863,
				"element": "C" 
			},
			{
				"x": 3.2215369707,
				"y": 1.1404911373,
				"z": 2.6060197253,
				"element": "N" 
			},
			{
				"x": 2.5445122494,
				"y": 1.7556614109,
				"z": 1.6296971452,
				"element": "C" 
			},
			{
				"x": 1.7026012595,
				"y": 1.0999870465,
				"z": 0.7312134408,
				"element": "C" 
			},
			{
				"x": -3.9540654248,
				"y": 1.3499979747,
				"z": 0.6730228639,
				"element": "H" 
			},
			{
				"x": -3.889001189,
				"y": 0.7784854162,
				"z": 2.3436927647,
				"element": "H" 
			},
			{
				"x": -2.7182461629,
				"y": 1.9741299689,
				"z": 1.7765606702,
				"element": "H" 
			},
			{
				"x": -1.6814352315,
				"y": -0.3336013012,
				"z": 1.9115678734,
				"element": "H" 
			},
			{
				"x": -2.9115035553,
				"y": -0.9535718842,
				"z": 0.816049703,
				"element": "H" 
			},
			{
				"x": -0.8542873071,
				"y": 1.2111899081,
				"z": 0.1294065729,
				"element": "H" 
			},
			{
				"x": -2.0750454556,
				"y": 0.6131331496,
				"z": -0.9822974225,
				"element": "H" 
			},
			{
				"x": -2.0982797292,
				"y": -3.0817403716,
				"z": -2.7786261636,
				"element": "H" 
			},
			{
				"x": 2.1710604803,
				"y": -2.0158665083,
				"z": 1.9744278439,
				"element": "H" 
			},
			{
				"x": 3.6406231432,
				"y": -0.6795796491,
				"z": 3.4869824062,
				"element": "H" 
			},
			{
				"x": 2.6867379989,
				"y": 2.832196513,
				"z": 1.5512635368,
				"element": "H" 
			},
			{
				"x": 1.2272631811,
				"y": 1.6612583679,
				"z": -0.0663479353,
				"element": "H" 
			}
		],
		 "valence_orbital": [ 
			{
				"type": "occ",
				"energy": -0.28847,
				"method": "rhf"
			},
			{
				"type": "occ",
				"energy": -0.27115,
				"method": "rhf"
			},
			{
				"type": "occ",
				"energy": -0.26279,
				"method": "rhf"
			},
			{
				"type": "occ",
				"energy": -0.25929,
				"method": "rhf"
			},
			{
				"type": "occ",
				"energy": -0.23227,
				"method": "rhf"
			},
			{
				"type": "unocc",
				"energy": -0.05035,
				"method": "rhf"
			},
			{
				"type": "unocc",
				"energy": -0.02102,
				"method": "rhf"
			},
			{
				"type": "unocc",
				"energy": -0.0012,
				"method": "rhf"
			},
			{
				"type": "unocc",
				"energy": 0.01962,
				"method": "rhf"
			},
			{
				"type": "unocc",
				"energy": 0.0423,
				"method": "rhf"
			}
		],
		"cosmo_sigma_profile": { 
			"-0.025": 0.0,
			"-0.024": 0.0,
			"-0.023": 0.0,
			"-0.022": 0.0,
			"-0.021": 0.0,
			"-0.02": 0.0,
			"-0.019": 0.0,
			"-0.018": 0.0,
			"-0.017": 0.0,
			"-0.016": 0.0,
			"-0.015": 0.0,
			"-0.014": 0.0,
			"-0.013": 0.207617018697,
			"-0.012": 1.4938058252,
			"-0.011": 1.28179507361,
			"-0.01": 1.1720512124,
			"-0.009": 3.0760868644,
			"-0.008": 4.14644885629,
			"-0.007": 8.66664429814,
			"-0.006": 14.7198466367,
			"-0.005": 14.5050612276,
			"-0.004": 19.6197463148,
			"-0.003": 23.760159948,
			"-0.002": 24.5211314539,
			"-0.001": 23.4472957738,
			"0.0": 21.9346732908,
			"0.001": 22.7285535097,
			"0.002": 16.6454913579,
			"0.003": 8.63811153777,
			"0.004": 7.18411484927,
			"0.005": 5.87618462036,
			"0.006": 5.41372896461,
			"0.007": 3.68541357186,
			"0.008": 3.4063311444,
			"0.009": 2.84112601497,
			"0.01": 2.74294604939,
			"0.011": 3.15678230602,
			"0.012": 3.63274592057,
			"0.013": 4.46686314235,
			"0.014": 3.58179034866,
			"0.015": 3.17753835391,
			"0.016": 1.91872769995,
			"0.017": 0.241020953927,
			"0.018": 0.0,
			"0.019": 0.0,
			"0.02": 0.0,
			"0.021": 0.0,
			"0.022": 0.0,
			"0.023": 0.0,
			"0.024": 0.0,
			"0.025": 0.0
		}
	}
}
