{
	 "smiles": "CC1=CC(Cl)=C(C)C=C1Cl", 
	 "Tm": 342.65, 
	 "num_atms": 18, 
	 "gaussian": { 
		 "optdone": 1, 
		 "sigma_profile": "yes", 
		 "theory": "DFT", 
		 "functional": "B3LYP", 
		 "basiset": "6-31G**", 
		 "properties": { 
			 "R2extent": 2345.7686, 
			 "electric_dipole_moment_norm": 0.0, 
			 "electric_quadrupole_moment_norm": 10.4714642668, 
			 "total_energy": -1230.07553128, 
			 "HOMO_LUMO_gap": 0.21801, 
			 "cosmo_polarized_energy": -3.67, 
			 "cosmo_cavitation_energy": 24.8, 
			 "cosmo_dispersion_energy": -18.44, 
			 "cosmo_repulsion_energy": 1.49, 
			 "cosmo_total_nonelectrostatic_energy": 7.85, 
			 "SMD_solvation_energy": 3.79 
		},
		"coords": [
			{
				"x": 0.7072572749,
				"y": 1.4221659052,
				"z": 2.0325344855,
				"element": "C" 
			},
			{
				"x": 0.3046545421,
				"y": 0.7190160557,
				"z": 0.7623807273,
				"element": "C" 
			},
			{
				"x": -0.7011526397,
				"y": -0.2546254952,
				"z": 0.7673025021,
				"element": "C" 
			},
			{
				"x": -1.0809128911,
				"y": -0.910563989,
				"z": -0.4009471549,
				"element": "C" 
			},
			{
				"x": -2.3565066013,
				"y": -2.1210579881,
				"z": -0.2956366523,
				"element": "Cl" 
			},
			{
				"x": -0.4831555066,
				"y": -0.6361376759,
				"z": -1.6386584096,
				"element": "C" 
			},
			{
				"x": -0.8857573101,
				"y": -1.3392883817,
				"z": -2.9088129296,
				"element": "C" 
			},
			{
				"x": 0.5226517752,
				"y": 0.3375038915,
				"z": -1.6435803456,
				"element": "C" 
			},
			{
				"x": 0.902412149,
				"y": 0.9934421543,
				"z": -0.4753307023,
				"element": "C" 
			},
			{
				"x": 2.1780074691,
				"y": 2.2039343689,
				"z": -0.5806409089,
				"element": "Cl" 
			},
			{
				"x": 1.7671804797,
				"y": 1.2612833817,
				"z": 2.2563699053,
				"element": "H" 
			},
			{
				"x": 0.5618727951,
				"y": 2.5045239468,
				"z": 1.9501730396,
				"element": "H" 
			},
			{
				"x": 0.1190091281,
				"y": 1.0603868463,
				"z": 2.8791084683,
				"element": "H" 
			},
			{
				"x": -1.1959637078,
				"y": -0.5044224518,
				"z": 1.6999252208,
				"element": "H" 
			},
			{
				"x": -0.7403559688,
				"y": -2.421644539,
				"z": -2.8264561949,
				"element": "H" 
			},
			{
				"x": -0.2975197022,
				"y": -0.9774966352,
				"z": -3.7553887323,
				"element": "H" 
			},
			{
				"x": -1.9456843544,
				"y": -1.1784202716,
				"z": -3.1326394644,
				"element": "H" 
			},
			{
				"x": 1.0174630689,
				"y": 0.587300877,
				"z": -2.576202854,
				"element": "H" 
			}
		],
		 "valence_orbital": [ 
			{
				"type": "occ",
				"energy": -0.31524,
				"method": "rhf"
			},
			{
				"type": "occ",
				"energy": -0.31458,
				"method": "rhf"
			},
			{
				"type": "occ",
				"energy": -0.31355,
				"method": "rhf"
			},
			{
				"type": "occ",
				"energy": -0.25827,
				"method": "rhf"
			},
			{
				"type": "occ",
				"energy": -0.2383,
				"method": "rhf"
			},
			{
				"type": "unocc",
				"energy": -0.02029,
				"method": "rhf"
			},
			{
				"type": "unocc",
				"energy": -0.0153,
				"method": "rhf"
			},
			{
				"type": "unocc",
				"energy": 0.02086,
				"method": "rhf"
			},
			{
				"type": "unocc",
				"energy": 0.03869,
				"method": "rhf"
			},
			{
				"type": "unocc",
				"energy": 0.10633,
				"method": "rhf"
			}
		],
		"cosmo_sigma_profile": { 
			"-0.025": 0.0,
			"-0.024": 0.0,
			"-0.023": 0.0,
			"-0.022": 0.0,
			"-0.021": 0.0,
			"-0.02": 0.0,
			"-0.019": 0.0,
			"-0.018": 0.0,
			"-0.017": 0.0,
			"-0.016": 0.0,
			"-0.015": 0.0,
			"-0.014": 0.0,
			"-0.013": 0.0,
			"-0.012": 0.0,
			"-0.011": 0.0,
			"-0.01": 0.0,
			"-0.009": 0.0,
			"-0.008": 0.257671559822,
			"-0.007": 3.77657767654,
			"-0.006": 5.98934978381,
			"-0.005": 8.14864026976,
			"-0.004": 12.1605079807,
			"-0.003": 14.3986958747,
			"-0.002": 17.5723586819,
			"-0.001": 24.5477630854,
			"0.0": 21.9463399113,
			"0.001": 18.8285022356,
			"0.002": 22.812105894,
			"0.003": 23.5576932466,
			"0.004": 16.8851669006,
			"0.005": 10.4188420476,
			"0.006": 0.154129897663,
			"0.007": 0.0,
			"0.008": 0.0,
			"0.009": 0.0,
			"0.01": 0.0,
			"0.011": 0.0,
			"0.012": 0.0,
			"0.013": 0.0,
			"0.014": 0.0,
			"0.015": 0.0,
			"0.016": 0.0,
			"0.017": 0.0,
			"0.018": 0.0,
			"0.019": 0.0,
			"0.02": 0.0,
			"0.021": 0.0,
			"0.022": 0.0,
			"0.023": 0.0,
			"0.024": 0.0,
			"0.025": 0.0
		}
	}
}
