{
	 "smiles": "IC1=CC=C(OCC2=CC=NC=C2)C=C1", 
	 "Tm": 426.15, 
	 "num_atms": 25, 
	 "gaussian": { 
		 "optdone": 1, 
		 "sigma_profile": "yes", 
		 "theory": "DFT", 
		 "functional": "B3LYP", 
		 "basiset": "6-31G**", 
		 "properties": { 
			 "R2extent": 4452.1619, 
			 "electric_dipole_moment_norm": 2.6681450579, 
			 "electric_quadrupole_moment_norm": 13.7978560103, 
			 "total_energy": -604.646966759, 
			 "HOMO_LUMO_gap": 0.18774, 
			 "cosmo_polarized_energy": -10.35, 
			 "cosmo_cavitation_energy": 32.61, 
			 "cosmo_dispersion_energy": -24.83, 
			 "cosmo_repulsion_energy": 1.92, 
			 "cosmo_total_nonelectrostatic_energy": 9.7, 
			 "SMD_solvation_energy": 3.39 
		},
		"coords": [
			{
				"x": 3.4806909224,
				"y": 4.8608841525,
				"z": -0.1960105699,
				"element": "I" 
			},
			{
				"x": 2.7000279721,
				"y": 2.947127224,
				"z": 0.2785974757,
				"element": "C" 
			},
			{
				"x": 2.7849923263,
				"y": 1.9131736866,
				"z": -0.6506612187,
				"element": "C" 
			},
			{
				"x": 2.2711300306,
				"y": 0.6496908616,
				"z": -0.3425428914,
				"element": "C" 
			},
			{
				"x": 1.6764808348,
				"y": 0.4266494909,
				"z": 0.9037988782,
				"element": "C" 
			},
			{
				"x": 1.1484565669,
				"y": -0.767671297,
				"z": 1.3182777972,
				"element": "O" 
			},
			{
				"x": 1.3468396653,
				"y": -1.9285361349,
				"z": 0.5202089112,
				"element": "C" 
			},
			{
				"x": 0.4022074405,
				"y": -2.0404070457,
				"z": -0.6604980708,
				"element": "C" 
			},
			{
				"x": -0.8440067638,
				"y": -1.4095764386,
				"z": -0.6664906879,
				"element": "C" 
			},
			{
				"x": -1.6858583877,
				"y": -1.5955719771,
				"z": -1.7635781804,
				"element": "C" 
			},
			{
				"x": -1.3783992502,
				"y": -2.3538540469,
				"z": -2.8236376474,
				"element": "N" 
			},
			{
				"x": -0.1830990235,
				"y": -2.956388741,
				"z": -2.8074789771,
				"element": "C" 
			},
			{
				"x": 0.7350541164,
				"y": -2.8312439634,
				"z": -1.7645651153,
				"element": "C" 
			},
			{
				"x": 1.5910955357,
				"y": 1.4739198734,
				"z": 1.8313671848,
				"element": "C" 
			},
			{
				"x": 2.0991797894,
				"y": 2.7309980395,
				"z": 1.5229645897,
				"element": "C" 
			},
			{
				"x": 3.2417249709,
				"y": 2.0784704604,
				"z": -1.6200313532,
				"element": "H" 
			},
			{
				"x": 2.3243629713,
				"y": -0.133657705,
				"z": -1.0887660069,
				"element": "H" 
			},
			{
				"x": 2.3908157489,
				"y": -1.9957254594,
				"z": 0.1869784751,
				"element": "H" 
			},
			{
				"x": 1.1693426755,
				"y": -2.7638464491,
				"z": 1.206576449,
				"element": "H" 
			},
			{
				"x": -1.1470175119,
				"y": -0.7813633141,
				"z": 0.1641518704,
				"element": "H" 
			},
			{
				"x": -2.6593080202,
				"y": -1.1088038499,
				"z": -1.7900585114,
				"element": "H" 
			},
			{
				"x": 0.0582261301,
				"y": -3.5674930785,
				"z": -3.6756682347,
				"element": "H" 
			},
			{
				"x": 1.6927968944,
				"y": -3.3429079916,
				"z": -1.8186017593,
				"element": "H" 
			},
			{
				"x": 1.1274503146,
				"y": 1.2818850707,
				"z": 2.7933931357,
				"element": "H" 
			},
			{
				"x": 2.0300140512,
				"y": 3.5325486325,
				"z": 2.2497744574,
				"element": "H" 
			}
		],
		 "valence_orbital": [ 
			{
				"type": "occ",
				"energy": -0.26972,
				"method": "rhf"
			},
			{
				"type": "occ",
				"energy": -0.26693,
				"method": "rhf"
			},
			{
				"type": "occ",
				"energy": -0.26637,
				"method": "rhf"
			},
			{
				"type": "occ",
				"energy": -0.25914,
				"method": "rhf"
			},
			{
				"type": "occ",
				"energy": -0.22489,
				"method": "rhf"
			},
			{
				"type": "unocc",
				"energy": -0.03715,
				"method": "rhf"
			},
			{
				"type": "unocc",
				"energy": -0.0334,
				"method": "rhf"
			},
			{
				"type": "unocc",
				"energy": -0.02146,
				"method": "rhf"
			},
			{
				"type": "unocc",
				"energy": -0.01531,
				"method": "rhf"
			},
			{
				"type": "unocc",
				"energy": -0.00817,
				"method": "rhf"
			}
		],
		"cosmo_sigma_profile": { 
			"-0.025": 0.0,
			"-0.024": 0.0,
			"-0.023": 0.0,
			"-0.022": 0.0,
			"-0.021": 0.0,
			"-0.02": 0.0,
			"-0.019": 0.0,
			"-0.018": 0.0,
			"-0.017": 0.0,
			"-0.016": 0.0,
			"-0.015": 0.0,
			"-0.014": 0.0,
			"-0.013": 0.0,
			"-0.012": 0.0,
			"-0.011": 0.0,
			"-0.01": 0.0,
			"-0.009": 0.0,
			"-0.008": 1.71239875486,
			"-0.007": 12.4414914119,
			"-0.006": 22.2785645885,
			"-0.005": 21.0352133157,
			"-0.004": 16.9726476313,
			"-0.003": 14.4054144862,
			"-0.002": 16.0724475717,
			"-0.001": 14.8157979659,
			"0.0": 15.3321600943,
			"0.001": 19.1641013648,
			"0.002": 30.216490462,
			"0.003": 25.5009709214,
			"0.004": 26.8683196208,
			"0.005": 13.6677158707,
			"0.006": 2.10819448689,
			"0.007": 1.89082743393,
			"0.008": 2.97922581263,
			"0.009": 2.6755591917,
			"0.01": 0.976984237184,
			"0.011": 0.567512484578,
			"0.012": 0.856421032609,
			"0.013": 1.21482858268,
			"0.014": 0.775495218541,
			"0.015": 0.696834761938,
			"0.016": 0.920716380676,
			"0.017": 0.5956348473,
			"0.018": 0.02629687242,
			"0.019": 0.0,
			"0.02": 0.0,
			"0.021": 0.0,
			"0.022": 0.0,
			"0.023": 0.0,
			"0.024": 0.0,
			"0.025": 0.0
		}
	}
}
