{
	 "smiles": "COC(=O)C(N)CC1=CC=C(O)C=C1", 
	 "Tm": 410.15, 
	 "num_atms": 27, 
	 "gaussian": { 
		 "optdone": 1, 
		 "sigma_profile": "yes", 
		 "theory": "DFT", 
		 "functional": "B3LYP", 
		 "basiset": "6-31G**", 
		 "properties": { 
			 "R2extent": 4431.3924, 
			 "electric_dipole_moment_norm": 3.49528947442, 
			 "electric_quadrupole_moment_norm": 7.66601568874, 
			 "total_energy": -669.323139054, 
			 "HOMO_LUMO_gap": 0.21484, 
			 "cosmo_polarized_energy": -15.77, 
			 "cosmo_cavitation_energy": 31.05, 
			 "cosmo_dispersion_energy": -22.19, 
			 "cosmo_repulsion_energy": 1.78, 
			 "cosmo_total_nonelectrostatic_energy": 10.63, 
			 "SMD_solvation_energy": 6.45 
		},
		"coords": [
			{
				"x": -2.8372712451,
				"y": -0.0468739576,
				"z": 3.7082604809,
				"element": "C" 
			},
			{
				"x": -2.5237728572,
				"y": -0.3961339756,
				"z": 2.3486794961,
				"element": "O" 
			},
			{
				"x": -1.3945059302,
				"y": 0.1644896622,
				"z": 1.8578591236,
				"element": "C" 
			},
			{
				"x": -0.6854233323,
				"y": 0.9040800819,
				"z": 2.5068234227,
				"element": "O" 
			},
			{
				"x": -1.1358063997,
				"y": -0.2231404502,
				"z": 0.3902501011,
				"element": "C" 
			},
			{
				"x": -2.0273615789,
				"y": -1.228947965,
				"z": -0.1762842569,
				"element": "N" 
			},
			{
				"x": 0.3484941203,
				"y": -0.6376463776,
				"z": 0.2246490693,
				"element": "C" 
			},
			{
				"x": 0.8658919724,
				"y": -0.5366790054,
				"z": -1.193970713,
				"element": "C" 
			},
			{
				"x": 1.7624210887,
				"y": 0.482048372,
				"z": -1.5484080011,
				"element": "C" 
			},
			{
				"x": 2.2523152947,
				"y": 0.6082096047,
				"z": -2.8462172268,
				"element": "C" 
			},
			{
				"x": 1.8466179646,
				"y": -0.2996781972,
				"z": -3.8284090352,
				"element": "C" 
			},
			{
				"x": 2.3552555548,
				"y": -0.1408585293,
				"z": -5.0889836666,
				"element": "O" 
			},
			{
				"x": 0.9530393642,
				"y": -1.3236079078,
				"z": -3.4967086404,
				"element": "C" 
			},
			{
				"x": 0.4713681781,
				"y": -1.436407619,
				"z": -2.1932049326,
				"element": "C" 
			},
			{
				"x": -2.9814713563,
				"y": 1.0321441769,
				"z": 3.8035563027,
				"element": "H" 
			},
			{
				"x": -3.7578595879,
				"y": -0.5799301505,
				"z": 3.9457968503,
				"element": "H" 
			},
			{
				"x": -2.0304483879,
				"y": -0.3528255491,
				"z": 4.3786110464,
				"element": "H" 
			},
			{
				"x": -1.2791007107,
				"y": 0.7083586259,
				"z": -0.1735505081,
				"element": "H" 
			},
			{
				"x": -2.986041463,
				"y": -0.891382408,
				"z": -0.1613615114,
				"element": "H" 
			},
			{
				"x": -2.0196916284,
				"y": -2.0569285914,
				"z": 0.4157489267,
				"element": "H" 
			},
			{
				"x": 0.4535603737,
				"y": -1.6650751374,
				"z": 0.6008284966,
				"element": "H" 
			},
			{
				"x": 0.9463428429,
				"y": 0.0009115226,
				"z": 0.8797606199,
				"element": "H" 
			},
			{
				"x": 2.0880137939,
				"y": 1.1917942822,
				"z": -0.7915044322,
				"element": "H" 
			},
			{
				"x": 2.948158463,
				"y": 1.3969031666,
				"z": -3.1131493043,
				"element": "H" 
			},
			{
				"x": 1.9931762555,
				"y": -0.8295082908,
				"z": -5.6612422451,
				"element": "H" 
			},
			{
				"x": 0.6340261612,
				"y": -2.0335965931,
				"z": -4.2578594188,
				"element": "H" 
			},
			{
				"x": -0.2362269503,
				"y": -2.2220187901,
				"z": -1.9511700437,
				"element": "H" 
			}
		],
		 "valence_orbital": [ 
			{
				"type": "occ",
				"energy": -0.30563,
				"method": "rhf"
			},
			{
				"type": "occ",
				"energy": -0.29639,
				"method": "rhf"
			},
			{
				"type": "occ",
				"energy": -0.24395,
				"method": "rhf"
			},
			{
				"type": "occ",
				"energy": -0.23455,
				"method": "rhf"
			},
			{
				"type": "occ",
				"energy": -0.20854,
				"method": "rhf"
			},
			{
				"type": "unocc",
				"energy": 0.0063,
				"method": "rhf"
			},
			{
				"type": "unocc",
				"energy": 0.00696,
				"method": "rhf"
			},
			{
				"type": "unocc",
				"energy": 0.0209,
				"method": "rhf"
			},
			{
				"type": "unocc",
				"energy": 0.07667,
				"method": "rhf"
			},
			{
				"type": "unocc",
				"energy": 0.08109,
				"method": "rhf"
			}
		],
		"cosmo_sigma_profile": { 
			"-0.025": 0.0,
			"-0.024": 0.0,
			"-0.023": 0.0,
			"-0.022": 0.0,
			"-0.021": 0.0,
			"-0.02": 0.0,
			"-0.019": 0.0,
			"-0.018": 0.0995585967147,
			"-0.017": 0.972927269693,
			"-0.016": 1.30698605139,
			"-0.015": 0.777295212312,
			"-0.014": 0.895154969934,
			"-0.013": 1.33338723158,
			"-0.012": 0.675034285293,
			"-0.011": 1.05106072692,
			"-0.01": 2.54734116172,
			"-0.009": 3.48439078641,
			"-0.008": 3.63260201797,
			"-0.007": 6.9083071019,
			"-0.006": 12.1806917416,
			"-0.005": 16.4902668776,
			"-0.004": 20.6358382777,
			"-0.003": 23.6022365377,
			"-0.002": 16.6169067038,
			"-0.001": 13.651200532,
			"0.0": 12.5422124037,
			"0.001": 9.77994868234,
			"0.002": 10.8685191822,
			"0.003": 11.6386325808,
			"0.004": 13.4244943633,
			"0.005": 13.1136429608,
			"0.006": 13.4202661859,
			"0.007": 5.82511065917,
			"0.008": 3.48543629644,
			"0.009": 4.91626844357,
			"0.01": 3.615863236,
			"0.011": 5.27722781195,
			"0.012": 6.91133411333,
			"0.013": 1.62960469478,
			"0.014": 0.672707994353,
			"0.015": 0.295075781093,
			"0.016": 0.0,
			"0.017": 0.0,
			"0.018": 0.0,
			"0.019": 0.0,
			"0.02": 0.0,
			"0.021": 0.0,
			"0.022": 0.0,
			"0.023": 0.0,
			"0.024": 0.0,
			"0.025": 0.0
		}
	}
}
