{
	 "smiles": "CC1(C)OC(C)(CCC1C(O)=O)C(O)C1CCCCC1", 
	 "Tm": 454.15, 
	 "num_atms": 48, 
	 "gaussian": { 
		 "optdone": 1, 
		 "sigma_profile": "yes", 
		 "theory": "DFT", 
		 "functional": "B3LYP", 
		 "basiset": "6-31G**", 
		 "properties": { 
			 "R2extent": 6124.3424, 
			 "electric_dipole_moment_norm": 1.40690102708, 
			 "electric_quadrupole_moment_norm": 13.6233996352, 
			 "total_energy": -927.488487998, 
			 "HOMO_LUMO_gap": 0.25106, 
			 "cosmo_polarized_energy": -14.94, 
			 "cosmo_cavitation_energy": 42.43, 
			 "cosmo_dispersion_energy": -29.02, 
			 "cosmo_repulsion_energy": 2.17, 
			 "cosmo_total_nonelectrostatic_energy": 15.59, 
			 "SMD_solvation_energy": 7.04 
		},
		"coords": [
			{
				"x": 1.9673307253,
				"y": -1.9132871506,
				"z": 0.7754501122,
				"element": "C" 
			},
			{
				"x": 0.5490276765,
				"y": -1.5011468344,
				"z": 0.3591527187,
				"element": "C" 
			},
			{
				"x": 0.1351760187,
				"y": -2.2934402885,
				"z": -0.8955664469,
				"element": "C" 
			},
			{
				"x": 0.6843351152,
				"y": -0.0930722046,
				"z": 0.0741228332,
				"element": "O" 
			},
			{
				"x": -0.4354428685,
				"y": 0.8001924338,
				"z": -0.0289532736,
				"element": "C" 
			},
			{
				"x": -1.2188329932,
				"y": 0.6337005522,
				"z": -1.3474337123,
				"element": "C" 
			},
			{
				"x": -1.3946031213,
				"y": 0.5733695296,
				"z": 1.1618727312,
				"element": "C" 
			},
			{
				"x": -1.7386400196,
				"y": -0.9031583985,
				"z": 1.3574376771,
				"element": "C" 
			},
			{
				"x": -0.4459142813,
				"y": -1.7081076094,
				"z": 1.5550835218,
				"element": "C" 
			},
			{
				"x": -0.7738630468,
				"y": -3.1718299097,
				"z": 1.7787187868,
				"element": "C" 
			},
			{
				"x": 0.0981928188,
				"y": -3.77818155,
				"z": 2.6239640829,
				"element": "O" 
			},
			{
				"x": -1.7040117224,
				"y": -3.7706476092,
				"z": 1.2804671366,
				"element": "O" 
			},
			{
				"x": 0.1514677479,
				"y": 2.2519384587,
				"z": 0.0627939464,
				"element": "C" 
			},
			{
				"x": 0.6189659288,
				"y": 2.5309342709,
				"z": 1.3908115975,
				"element": "O" 
			},
			{
				"x": 1.3076718949,
				"y": 2.7798144695,
				"z": -0.847238487,
				"element": "C" 
			},
			{
				"x": 2.7236506517,
				"y": 2.2150235105,
				"z": -0.5441461172,
				"element": "C" 
			},
			{
				"x": 3.2250239443,
				"y": 1.1160032091,
				"z": -1.4909651754,
				"element": "C" 
			},
			{
				"x": 3.0839554955,
				"y": 1.5287965034,
				"z": -2.9601162677,
				"element": "C" 
			},
			{
				"x": 1.6106027412,
				"y": 1.8067598431,
				"z": -3.278997609,
				"element": "C" 
			},
			{
				"x": 1.0305865631,
				"y": 2.9069868371,
				"z": -2.3717692203,
				"element": "C" 
			},
			{
				"x": 2.6562184023,
				"y": -1.7858830308,
				"z": -0.0639062259,
				"element": "H" 
			},
			{
				"x": 1.9958525725,
				"y": -2.9571570843,
				"z": 1.0965368243,
				"element": "H" 
			},
			{
				"x": 2.3125350324,
				"y": -1.2828392865,
				"z": 1.5990716672,
				"element": "H" 
			},
			{
				"x": -0.9209483123,
				"y": -2.1852845261,
				"z": -1.1459683784,
				"element": "H" 
			},
			{
				"x": 0.3253397526,
				"y": -3.3615023924,
				"z": -0.7545433794,
				"element": "H" 
			},
			{
				"x": 0.7323252808,
				"y": -1.9508060502,
				"z": -1.7446600856,
				"element": "H" 
			},
			{
				"x": -1.8860266646,
				"y": 1.4883460272,
				"z": -1.5009770723,
				"element": "H" 
			},
			{
				"x": -1.8438971483,
				"y": -0.2609113527,
				"z": -1.3380059453,
				"element": "H" 
			},
			{
				"x": -0.5502996531,
				"y": 0.5634465547,
				"z": -2.2032401477,
				"element": "H" 
			},
			{
				"x": -2.3073200134,
				"y": 1.1646556812,
				"z": 1.016976433,
				"element": "H" 
			},
			{
				"x": -0.9058299094,
				"y": 0.9261915732,
				"z": 2.0744039246,
				"element": "H" 
			},
			{
				"x": -2.3793861709,
				"y": -1.0212273301,
				"z": 2.2383719343,
				"element": "H" 
			},
			{
				"x": -2.3068136448,
				"y": -1.3123069336,
				"z": 0.5171540327,
				"element": "H" 
			},
			{
				"x": 0.0678339108,
				"y": -1.3415669151,
				"z": 2.4508791388,
				"element": "H" 
			},
			{
				"x": -0.1921069571,
				"y": -4.7044048342,
				"z": 2.6876218623,
				"element": "H" 
			},
			{
				"x": -0.7097737356,
				"y": 2.9033190396,
				"z": -0.1593150345,
				"element": "H" 
			},
			{
				"x": -0.1310772883,
				"y": 2.8142289886,
				"z": 1.9245612087,
				"element": "H" 
			},
			{
				"x": 1.3406313287,
				"y": 3.8130729655,
				"z": -0.4818004937,
				"element": "H" 
			},
			{
				"x": 2.7567470366,
				"y": 1.8747833648,
				"z": 0.493412657,
				"element": "H" 
			},
			{
				"x": 3.4264055823,
				"y": 3.0573804658,
				"z": -0.6147284688,
				"element": "H" 
			},
			{
				"x": 2.6499739557,
				"y": 0.2013057455,
				"z": -1.3210211279,
				"element": "H" 
			},
			{
				"x": 4.2723457949,
				"y": 0.8888184102,
				"z": -1.254364923,
				"element": "H" 
			},
			{
				"x": 3.4727967821,
				"y": 0.7451567383,
				"z": -3.6220665872,
				"element": "H" 
			},
			{
				"x": 3.6831154664,
				"y": 2.4306109469,
				"z": -3.1554743413,
				"element": "H" 
			},
			{
				"x": 1.488562923,
				"y": 2.1113276237,
				"z": -4.3261136877,
				"element": "H" 
			},
			{
				"x": 1.0564202781,
				"y": 0.8675617396,
				"z": -3.1668384675,
				"element": "H" 
			},
			{
				"x": -0.0442073266,
				"y": 3.0261084864,
				"z": -2.5560593899,
				"element": "H" 
			},
			{
				"x": 1.4889034563,
				"y": 3.8514273218,
				"z": -2.6952947621,
				"element": "H" 
			}
		],
		 "valence_orbital": [ 
			{
				"type": "occ",
				"energy": -0.28296,
				"method": "rhf"
			},
			{
				"type": "occ",
				"energy": -0.28147,
				"method": "rhf"
			},
			{
				"type": "occ",
				"energy": -0.27469,
				"method": "rhf"
			},
			{
				"type": "occ",
				"energy": -0.25752,
				"method": "rhf"
			},
			{
				"type": "occ",
				"energy": -0.24784,
				"method": "rhf"
			},
			{
				"type": "unocc",
				"energy": 0.00322,
				"method": "rhf"
			},
			{
				"type": "unocc",
				"energy": 0.05867,
				"method": "rhf"
			},
			{
				"type": "unocc",
				"energy": 0.07213,
				"method": "rhf"
			},
			{
				"type": "unocc",
				"energy": 0.07959,
				"method": "rhf"
			},
			{
				"type": "unocc",
				"energy": 0.08906,
				"method": "rhf"
			}
		],
		"cosmo_sigma_profile": { 
			"-0.025": 0.0,
			"-0.024": 0.0,
			"-0.023": 0.0,
			"-0.022": 0.0,
			"-0.021": 0.0,
			"-0.02": 0.0,
			"-0.019": 0.0294809262048,
			"-0.018": 0.534774693344,
			"-0.017": 0.919873254483,
			"-0.016": 1.16133525952,
			"-0.015": 0.940859567546,
			"-0.014": 1.59211447633,
			"-0.013": 1.70733990287,
			"-0.012": 1.20591938581,
			"-0.011": 1.92374758446,
			"-0.01": 1.95571586512,
			"-0.009": 1.65351689753,
			"-0.008": 1.67757182031,
			"-0.007": 1.8103309017,
			"-0.006": 3.1891343459,
			"-0.005": 7.97175191743,
			"-0.004": 18.9017630156,
			"-0.003": 25.6641704846,
			"-0.002": 34.3833344026,
			"-0.001": 47.9065721784,
			"0.0": 47.9880155398,
			"0.001": 43.1102998179,
			"0.002": 21.0060036736,
			"0.003": 7.6229017443,
			"0.004": 7.0643981881,
			"0.005": 5.7149342822,
			"0.006": 5.34524823844,
			"0.007": 4.62150677612,
			"0.008": 3.63295123489,
			"0.009": 4.65538093845,
			"0.01": 4.09553906584,
			"0.011": 5.11365291301,
			"0.012": 6.04067956742,
			"0.013": 2.62729620245,
			"0.014": 1.41386864283,
			"0.015": 0.162000693944,
			"0.016": 0.0,
			"0.017": 0.0,
			"0.018": 0.0,
			"0.019": 0.0,
			"0.02": 0.0,
			"0.021": 0.0,
			"0.022": 0.0,
			"0.023": 0.0,
			"0.024": 0.0,
			"0.025": 0.0
		}
	}
}
