{
	 "smiles": "NC(C(O)=O)C1=CC=CS1", 
	 "Tm": 482.15, 
	 "num_atms": 17, 
	 "gaussian": { 
		 "optdone": 1, 
		 "sigma_profile": "yes", 
		 "theory": "DFT", 
		 "functional": "B3LYP", 
		 "basiset": "6-31G**", 
		 "properties": { 
			 "R2extent": 1741.2224, 
			 "electric_dipole_moment_norm": 1.16936168913, 
			 "electric_quadrupole_moment_norm": 6.37222832218, 
			 "total_energy": -836.231413846, 
			 "HOMO_LUMO_gap": 0.20905, 
			 "cosmo_polarized_energy": -12.46, 
			 "cosmo_cavitation_energy": 22.83, 
			 "cosmo_dispersion_energy": -17.26, 
			 "cosmo_repulsion_energy": 1.38, 
			 "cosmo_total_nonelectrostatic_energy": 6.95, 
			 "SMD_solvation_energy": 4.49 
		},
		"coords": [
			{
				"x": -0.8535816368,
				"y": -0.3426672162,
				"z": 2.0037638439,
				"element": "N" 
			},
			{
				"x": -0.9083046054,
				"y": -0.6576555233,
				"z": 0.5834539143,
				"element": "C" 
			},
			{
				"x": 0.0047420285,
				"y": -1.8688930749,
				"z": 0.3415292531,
				"element": "C" 
			},
			{
				"x": 0.2160068936,
				"y": -2.1004057384,
				"z": -0.9679209978,
				"element": "O" 
			},
			{
				"x": 0.441446465,
				"y": -2.580774549,
				"z": 1.2190756524,
				"element": "O" 
			},
			{
				"x": -0.5201657622,
				"y": 0.5541795233,
				"z": -0.237705197,
				"element": "C" 
			},
			{
				"x": 0.321629857,
				"y": 1.5692582865,
				"z": 0.1339609524,
				"element": "C" 
			},
			{
				"x": 0.467480405,
				"y": 2.5732591742,
				"z": -0.8713285628,
				"element": "C" 
			},
			{
				"x": -0.270480714,
				"y": 2.3130139176,
				"z": -1.9924519865,
				"element": "C" 
			},
			{
				"x": -1.1558813566,
				"y": 0.8288298975,
				"z": -1.8394667368,
				"element": "S" 
			},
			{
				"x": -0.7914064659,
				"y": -1.2021330621,
				"z": 2.541389935,
				"element": "H" 
			},
			{
				"x": -1.6793466195,
				"y": 0.1746701227,
				"z": 2.2851980337,
				"element": "H" 
			},
			{
				"x": -1.9005696137,
				"y": -1.0042713113,
				"z": 0.2333050271,
				"element": "H" 
			},
			{
				"x": 0.7663210007,
				"y": -2.8998128593,
				"z": -1.0207301588,
				"element": "H" 
			},
			{
				"x": 0.8004331182,
				"y": 1.5894193795,
				"z": 1.1049977112,
				"element": "H" 
			},
			{
				"x": 1.0922588197,
				"y": 3.4524410142,
				"z": -0.75999225,
				"element": "H" 
			},
			{
				"x": -0.3485818135,
				"y": 2.897042019,
				"z": -2.8989784333,
				"element": "H" 
			}
		],
		 "valence_orbital": [ 
			{
				"type": "occ",
				"energy": -0.32756,
				"method": "rhf"
			},
			{
				"type": "occ",
				"energy": -0.29204,
				"method": "rhf"
			},
			{
				"type": "occ",
				"energy": -0.24981,
				"method": "rhf"
			},
			{
				"type": "occ",
				"energy": -0.24541,
				"method": "rhf"
			},
			{
				"type": "occ",
				"energy": -0.22256,
				"method": "rhf"
			},
			{
				"type": "unocc",
				"energy": -0.01351,
				"method": "rhf"
			},
			{
				"type": "unocc",
				"energy": 0.00563,
				"method": "rhf"
			},
			{
				"type": "unocc",
				"energy": 0.03301,
				"method": "rhf"
			},
			{
				"type": "unocc",
				"energy": 0.06797,
				"method": "rhf"
			},
			{
				"type": "unocc",
				"energy": 0.07391,
				"method": "rhf"
			}
		],
		"cosmo_sigma_profile": { 
			"-0.025": 0.0,
			"-0.024": 0.0,
			"-0.023": 0.0,
			"-0.022": 0.0,
			"-0.021": 0.0,
			"-0.02": 0.0,
			"-0.019": 0.378304032914,
			"-0.018": 1.21736825524,
			"-0.017": 0.621552946571,
			"-0.016": 1.08360450555,
			"-0.015": 0.249332519914,
			"-0.014": 0.581977338944,
			"-0.013": 1.01872948184,
			"-0.012": 0.879580378516,
			"-0.011": 2.03704804172,
			"-0.01": 1.5822389871,
			"-0.009": 2.68104200755,
			"-0.008": 5.37028784282,
			"-0.007": 8.87785100926,
			"-0.006": 10.7619288921,
			"-0.005": 10.1509546268,
			"-0.004": 9.41127592478,
			"-0.003": 10.5429918847,
			"-0.002": 9.63010911203,
			"-0.001": 7.21860581563,
			"0.0": 8.39337857632,
			"0.001": 8.65537637965,
			"0.002": 10.3331638611,
			"0.003": 10.7599714658,
			"0.004": 13.3110153445,
			"0.005": 13.5427437981,
			"0.006": 8.51324963931,
			"0.007": 4.83545315802,
			"0.008": 5.65234753591,
			"0.009": 2.87529556502,
			"0.01": 4.00411669157,
			"0.011": 5.44271841429,
			"0.012": 1.23499873571,
			"0.013": 0.409221855865,
			"0.014": 0.546058015504,
			"0.015": 0.357564706496,
			"0.016": 0.0,
			"0.017": 0.0,
			"0.018": 0.0,
			"0.019": 0.0,
			"0.02": 0.0,
			"0.021": 0.0,
			"0.022": 0.0,
			"0.023": 0.0,
			"0.024": 0.0,
			"0.025": 0.0
		}
	}
}
