{
	 "smiles": "CC(=O)O[C@H]1CCC2C3CC[C@H]4CC=CC[C@]4(C)C3CC[C@]12C", 
	 "Tm": 366.65, 
	 "num_atms": 55, 
	 "gaussian": { 
		 "optdone": 1, 
		 "sigma_profile": "yes", 
		 "theory": "DFT", 
		 "functional": "B3LYP", 
		 "basiset": "6-31G**", 
		 "properties": { 
			 "R2extent": 9961.6801, 
			 "electric_dipole_moment_norm": 1.69311896215, 
			 "electric_quadrupole_moment_norm": 15.7191949202, 
			 "total_energy": -969.987636045, 
			 "HOMO_LUMO_gap": 0.25292, 
			 "cosmo_polarized_energy": -7.43, 
			 "cosmo_cavitation_energy": 47.85, 
			 "cosmo_dispersion_energy": -33.2, 
			 "cosmo_repulsion_energy": 2.46, 
			 "cosmo_total_nonelectrostatic_energy": 17.12, 
			 "SMD_solvation_energy": 7.64 
		},
		"coords": [
			{
				"x": -4.255096071,
				"y": 2.0826222147,
				"z": 4.8839335698,
				"element": "C" 
			},
			{
				"x": -3.406379866,
				"y": 2.6433973209,
				"z": 3.7661732265,
				"element": "C" 
			},
			{
				"x": -3.5778921136,
				"y": 3.7158033809,
				"z": 3.2279167982,
				"element": "O" 
			},
			{
				"x": -2.4172397962,
				"y": 1.779229696,
				"z": 3.4386486894,
				"element": "O" 
			},
			{
				"x": -1.5293767113,
				"y": 2.1729619079,
				"z": 2.3683835909,
				"element": "C" 
			},
			{
				"x": -0.38527697,
				"y": 3.0815622119,
				"z": 2.8139440331,
				"element": "C" 
			},
			{
				"x": 0.5858934176,
				"y": 2.9840318162,
				"z": 1.6224272268,
				"element": "C" 
			},
			{
				"x": 0.3702040623,
				"y": 1.5726959941,
				"z": 0.9748302538,
				"element": "C" 
			},
			{
				"x": 0.1856601233,
				"y": 1.665937904,
				"z": -0.5608890181,
				"element": "C" 
			},
			{
				"x": 1.4538157844,
				"y": 2.2630370715,
				"z": -1.2107054527,
				"element": "C" 
			},
			{
				"x": 1.5224895022,
				"y": 2.0941966476,
				"z": -2.7357539942,
				"element": "C" 
			},
			{
				"x": 1.1774071211,
				"y": 0.6697461651,
				"z": -3.2581262166,
				"element": "C" 
			},
			{
				"x": 2.2490052324,
				"y": 0.1067477981,
				"z": -4.2054134183,
				"element": "C" 
			},
			{
				"x": 1.9004446126,
				"y": -1.2812501071,
				"z": -4.6755071293,
				"element": "C" 
			},
			{
				"x": 0.9542864637,
				"y": -2.0222099762,
				"z": -4.0898126119,
				"element": "C" 
			},
			{
				"x": 0.1610381839,
				"y": -1.5734480307,
				"z": -2.8847071808,
				"element": "C" 
			},
			{
				"x": 0.7926316156,
				"y": -0.3579871754,
				"z": -2.1493674943,
				"element": "C" 
			},
			{
				"x": 2.0136462888,
				"y": -0.8864006171,
				"z": -1.3586572943,
				"element": "C" 
			},
			{
				"x": -0.2818958117,
				"y": 0.3283909822,
				"z": -1.2491935475,
				"element": "C" 
			},
			{
				"x": -0.9814949666,
				"y": -0.6222650083,
				"z": -0.2538423239,
				"element": "C" 
			},
			{
				"x": -1.7845660332,
				"y": 0.1612354878,
				"z": 0.7901490563,
				"element": "C" 
			},
			{
				"x": -0.848161378,
				"y": 0.9359838435,
				"z": 1.7413248799,
				"element": "C" 
			},
			{
				"x": -0.3305022767,
				"y": -0.0137386911,
				"z": 2.8425559691,
				"element": "C" 
			},
			{
				"x": -3.635808753,
				"y": 1.8931904337,
				"z": 5.7657547296,
				"element": "H" 
			},
			{
				"x": -4.6913527113,
				"y": 1.1260604693,
				"z": 4.581394916,
				"element": "H" 
			},
			{
				"x": -5.0452988876,
				"y": 2.7911330357,
				"z": 5.130131823,
				"element": "H" 
			},
			{
				"x": -2.1303339667,
				"y": 2.6937213692,
				"z": 1.6152872217,
				"element": "H" 
			},
			{
				"x": 0.0597635755,
				"y": 2.6885826623,
				"z": 3.7344374879,
				"element": "H" 
			},
			{
				"x": -0.7224963149,
				"y": 4.1013632025,
				"z": 3.0146014814,
				"element": "H" 
			},
			{
				"x": 0.3363015225,
				"y": 3.7637324611,
				"z": 0.8938139131,
				"element": "H" 
			},
			{
				"x": 1.6248748924,
				"y": 3.1556314925,
				"z": 1.9176058529,
				"element": "H" 
			},
			{
				"x": 1.2530542782,
				"y": 0.948824603,
				"z": 1.1622921743,
				"element": "H" 
			},
			{
				"x": -0.6271726016,
				"y": 2.38792876,
				"z": -0.7292176375,
				"element": "H" 
			},
			{
				"x": 1.5199572132,
				"y": 3.330325859,
				"z": -0.9721728044,
				"element": "H" 
			},
			{
				"x": 2.3395144407,
				"y": 1.8111604928,
				"z": -0.7511072693,
				"element": "H" 
			},
			{
				"x": 2.5262299282,
				"y": 2.3828875239,
				"z": -3.0720660542,
				"element": "H" 
			},
			{
				"x": 0.8385321877,
				"y": 2.814729739,
				"z": -3.2010782006,
				"element": "H" 
			},
			{
				"x": 0.2657608942,
				"y": 0.7663604885,
				"z": -3.86468996,
				"element": "H" 
			},
			{
				"x": 2.3579769158,
				"y": 0.7759430245,
				"z": -5.0703983335,
				"element": "H" 
			},
			{
				"x": 3.2351802785,
				"y": 0.1067066145,
				"z": -3.7145188657,
				"element": "H" 
			},
			{
				"x": 2.445518271,
				"y": -1.6772794791,
				"z": -5.5309645016,
				"element": "H" 
			},
			{
				"x": 0.7261619313,
				"y": -3.0114048863,
				"z": -4.4844844746,
				"element": "H" 
			},
			{
				"x": 0.0561346695,
				"y": -2.4180775457,
				"z": -2.1910515,
				"element": "H" 
			},
			{
				"x": -0.8646930933,
				"y": -1.3263624182,
				"z": -3.2009120368,
				"element": "H" 
			},
			{
				"x": 1.6926880701,
				"y": -1.5297995635,
				"z": -0.5332329468,
				"element": "H" 
			},
			{
				"x": 2.6338040115,
				"y": -0.0954772249,
				"z": -0.9352891643,
				"element": "H" 
			},
			{
				"x": 2.6520314759,
				"y": -1.4960460449,
				"z": -2.0039456775,
				"element": "H" 
			},
			{
				"x": -1.0650733929,
				"y": 0.6342441292,
				"z": -1.9592519315,
				"element": "H" 
			},
			{
				"x": -1.6418857251,
				"y": -1.3042494686,
				"z": -0.7997238204,
				"element": "H" 
			},
			{
				"x": -0.2507735294,
				"y": -1.2577635071,
				"z": 0.2605329347,
				"element": "H" 
			},
			{
				"x": -2.4589963577,
				"y": 0.8580706983,
				"z": 0.2736886201,
				"element": "H" 
			},
			{
				"x": -2.4261424165,
				"y": -0.5117936453,
				"z": 1.3712437148,
				"element": "H" 
			},
			{
				"x": 0.1589052087,
				"y": -0.8854805451,
				"z": 2.3966536792,
				"element": "H" 
			},
			{
				"x": -1.150744255,
				"y": -0.366839181,
				"z": 3.4730306414,
				"element": "H" 
			},
			{
				"x": 0.4060418268,
				"y": 0.4725956139,
				"z": 3.4897243767,
				"element": "H" 
			}
		],
		 "valence_orbital": [ 
			{
				"type": "occ",
				"energy": -0.28153,
				"method": "rhf"
			},
			{
				"type": "occ",
				"energy": -0.2713,
				"method": "rhf"
			},
			{
				"type": "occ",
				"energy": -0.26935,
				"method": "rhf"
			},
			{
				"type": "occ",
				"energy": -0.2643,
				"method": "rhf"
			},
			{
				"type": "occ",
				"energy": -0.23605,
				"method": "rhf"
			},
			{
				"type": "unocc",
				"energy": 0.01687,
				"method": "rhf"
			},
			{
				"type": "unocc",
				"energy": 0.02962,
				"method": "rhf"
			},
			{
				"type": "unocc",
				"energy": 0.06787,
				"method": "rhf"
			},
			{
				"type": "unocc",
				"energy": 0.07969,
				"method": "rhf"
			},
			{
				"type": "unocc",
				"energy": 0.08947,
				"method": "rhf"
			}
		],
		"cosmo_sigma_profile": { 
			"-0.025": 0.0,
			"-0.024": 0.0,
			"-0.023": 0.0,
			"-0.022": 0.0,
			"-0.021": 0.0,
			"-0.02": 0.0,
			"-0.019": 0.0,
			"-0.018": 0.0,
			"-0.017": 0.0,
			"-0.016": 0.0,
			"-0.015": 0.0,
			"-0.014": 0.0,
			"-0.013": 0.0,
			"-0.012": 0.0,
			"-0.011": 0.0,
			"-0.01": 0.0,
			"-0.009": 0.0,
			"-0.008": 0.0,
			"-0.007": 0.385365194108,
			"-0.006": 4.0417906939,
			"-0.005": 6.04029660874,
			"-0.004": 12.9307729449,
			"-0.003": 27.9679641797,
			"-0.002": 59.0739159086,
			"-0.001": 80.4441783411,
			"0.0": 63.4540571674,
			"0.001": 43.5654493413,
			"0.002": 22.967091898,
			"0.003": 9.19540708848,
			"0.004": 7.36790736293,
			"0.005": 6.0904192952,
			"0.006": 6.1016062634,
			"0.007": 4.17439939149,
			"0.008": 1.48669612542,
			"0.009": 1.43417768767,
			"0.01": 2.02708416186,
			"0.011": 2.37076302456,
			"0.012": 4.22782018108,
			"0.013": 2.19940749424,
			"0.014": 0.0815343159999,
			"0.015": 0.0,
			"0.016": 0.0,
			"0.017": 0.0,
			"0.018": 0.0,
			"0.019": 0.0,
			"0.02": 0.0,
			"0.021": 0.0,
			"0.022": 0.0,
			"0.023": 0.0,
			"0.024": 0.0,
			"0.025": 0.0
		}
	}
}
