{
	 "smiles": "CC(Br)C(=O)C12CC3CC(CC(C3)C1)C2", 
	 "Tm": 360.15, 
	 "num_atms": 34, 
	 "gaussian": { 
		 "optdone": 1, 
		 "sigma_profile": "yes", 
		 "theory": "DFT", 
		 "functional": "B3LYP", 
		 "basiset": "6-31G**", 
		 "properties": { 
			 "R2extent": 4482.6072, 
			 "electric_dipole_moment_norm": 2.8360833468, 
			 "electric_quadrupole_moment_norm": 9.27982517023, 
			 "total_energy": -3153.4889065, 
			 "HOMO_LUMO_gap": 0.19668, 
			 "cosmo_polarized_energy": -6.76, 
			 "cosmo_cavitation_energy": 32.87, 
			 "cosmo_dispersion_energy": -24.37, 
			 "cosmo_repulsion_energy": 1.87, 
			 "cosmo_total_nonelectrostatic_energy": 10.37, 
			 "SMD_solvation_energy": 3.6 
		},
		"coords": [
			{
				"x": 0.1442971715,
				"y": -2.9919861857,
				"z": 0.9223272619,
				"element": "C" 
			},
			{
				"x": -1.1204990991,
				"y": -2.2627610921,
				"z": 1.3543836348,
				"element": "C" 
			},
			{
				"x": -2.6385728407,
				"y": -2.702691271,
				"z": 0.1208993643,
				"element": "Br" 
			},
			{
				"x": -1.0555236387,
				"y": -0.7340778702,
				"z": 1.5543755747,
				"element": "C" 
			},
			{
				"x": -1.4045825078,
				"y": -0.335623476,
				"z": 2.652403829,
				"element": "O" 
			},
			{
				"x": -0.4975860048,
				"y": 0.263783465,
				"z": 0.5206806673,
				"element": "C" 
			},
			{
				"x": 1.0299869834,
				"y": 0.4139961983,
				"z": 0.8236763125,
				"element": "C" 
			},
			{
				"x": 1.6525374186,
				"y": 1.48927799,
				"z": -0.0904895565,
				"element": "C" 
			},
			{
				"x": 0.9617714648,
				"y": 2.8443219726,
				"z": 0.1607781768,
				"element": "C" 
			},
			{
				"x": -0.5426014936,
				"y": 2.7178447245,
				"z": -0.1538303549,
				"element": "C" 
			},
			{
				"x": -0.7260923714,
				"y": 2.3165783049,
				"z": -1.6308001017,
				"element": "C" 
			},
			{
				"x": -0.0391254533,
				"y": 0.9588570402,
				"z": -1.8769988079,
				"element": "C" 
			},
			{
				"x": 1.466032945,
				"y": 1.0790185678,
				"z": -1.5649846045,
				"element": "C" 
			},
			{
				"x": -0.6775174214,
				"y": -0.1174849952,
				"z": -0.9708792125,
				"element": "C" 
			},
			{
				"x": -1.1692210645,
				"y": 1.6443745317,
				"z": 0.7567131904,
				"element": "C" 
			},
			{
				"x": 0.9432806075,
				"y": -2.7850826429,
				"z": 1.6442238574,
				"element": "H" 
			},
			{
				"x": 0.4877853287,
				"y": -2.6962238261,
				"z": -0.0695268747,
				"element": "H" 
			},
			{
				"x": -0.034099167,
				"y": -4.0700600506,
				"z": 0.9141185613,
				"element": "H" 
			},
			{
				"x": -1.4765012379,
				"y": -2.6469819158,
				"z": 2.3087892532,
				"element": "H" 
			},
			{
				"x": 1.5461515603,
				"y": -0.5414019048,
				"z": 0.6704840117,
				"element": "H" 
			},
			{
				"x": 1.1597399026,
				"y": 0.6877172599,
				"z": 1.8775724236,
				"element": "H" 
			},
			{
				"x": 2.7225997094,
				"y": 1.569649665,
				"z": 0.1400936319,
				"element": "H" 
			},
			{
				"x": 1.1053785991,
				"y": 3.1534998534,
				"z": 1.2041696601,
				"element": "H" 
			},
			{
				"x": 1.4168874625,
				"y": 3.6200892805,
				"z": -0.4686104994,
				"element": "H" 
			},
			{
				"x": -1.0399707954,
				"y": 3.6776740728,
				"z": 0.0341551886,
				"element": "H" 
			},
			{
				"x": -0.2963251663,
				"y": 3.0826456188,
				"z": -2.2893983916,
				"element": "H" 
			},
			{
				"x": -1.7942739652,
				"y": 2.2481303495,
				"z": -1.8743212607,
				"element": "H" 
			},
			{
				"x": -0.1753542913,
				"y": 0.6601835406,
				"z": -2.9239624383,
				"element": "H" 
			},
			{
				"x": 1.9302201189,
				"y": 1.8235735032,
				"z": -2.2244907968,
				"element": "H" 
			},
			{
				"x": 1.9712203604,
				"y": 0.1232925782,
				"z": -1.7590405485,
				"element": "H" 
			},
			{
				"x": -0.2237774771,
				"y": -1.0892153359,
				"z": -1.190650872,
				"element": "H" 
			},
			{
				"x": -1.7427894575,
				"y": -0.2130729131,
				"z": -1.2031272678,
				"element": "H" 
			},
			{
				"x": -2.245148098,
				"y": 1.5600803851,
				"z": 0.5577289689,
				"element": "H" 
			},
			{
				"x": -1.0654280818,
				"y": 1.9205745772,
				"z": 1.8094380194,
				"element": "H" 
			}
		],
		 "valence_orbital": [ 
			{
				"type": "occ",
				"energy": -0.28583,
				"method": "rhf"
			},
			{
				"type": "occ",
				"energy": -0.28324,
				"method": "rhf"
			},
			{
				"type": "occ",
				"energy": -0.28243,
				"method": "rhf"
			},
			{
				"type": "occ",
				"energy": -0.27437,
				"method": "rhf"
			},
			{
				"type": "occ",
				"energy": -0.24472,
				"method": "rhf"
			},
			{
				"type": "unocc",
				"energy": -0.04804,
				"method": "rhf"
			},
			{
				"type": "unocc",
				"energy": 0.01786,
				"method": "rhf"
			},
			{
				"type": "unocc",
				"energy": 0.06032,
				"method": "rhf"
			},
			{
				"type": "unocc",
				"energy": 0.09427,
				"method": "rhf"
			},
			{
				"type": "unocc",
				"energy": 0.11003,
				"method": "rhf"
			}
		],
		"cosmo_sigma_profile": { 
			"-0.025": 0.0,
			"-0.024": 0.0,
			"-0.023": 0.0,
			"-0.022": 0.0,
			"-0.021": 0.0,
			"-0.02": 0.0,
			"-0.019": 0.0,
			"-0.018": 0.0,
			"-0.017": 0.0,
			"-0.016": 0.0,
			"-0.015": 0.0,
			"-0.014": 0.0,
			"-0.013": 0.0,
			"-0.012": 0.0,
			"-0.011": 0.0,
			"-0.01": 0.0,
			"-0.009": 0.0,
			"-0.008": 0.0507557781082,
			"-0.007": 1.64379955535,
			"-0.006": 5.1929300694,
			"-0.005": 9.65776171223,
			"-0.004": 10.1562109641,
			"-0.003": 16.8278533355,
			"-0.002": 43.8805338725,
			"-0.001": 46.6175797643,
			"0.0": 40.2690283236,
			"0.001": 26.2194115747,
			"0.002": 11.642307464,
			"0.003": 7.71514704767,
			"0.004": 8.285974912,
			"0.005": 8.79401636695,
			"0.006": 5.68724921929,
			"0.007": 1.24776814898,
			"0.008": 2.56945945258,
			"0.009": 1.2015590401,
			"0.01": 2.70161273687,
			"0.011": 3.72542279581,
			"0.012": 2.21292594957,
			"0.013": 0.0372378822919,
			"0.014": 0.0,
			"0.015": 0.0,
			"0.016": 0.0,
			"0.017": 0.0,
			"0.018": 0.0,
			"0.019": 0.0,
			"0.02": 0.0,
			"0.021": 0.0,
			"0.022": 0.0,
			"0.023": 0.0,
			"0.024": 0.0,
			"0.025": 0.0
		}
	}
}
