{
	 "smiles": "OCCN(CC1=CC=CC=C1)CC1=CC=CC=C1", 
	 "Tm": 315.15, 
	 "num_atms": 37, 
	 "gaussian": { 
		 "optdone": 1, 
		 "sigma_profile": "yes", 
		 "theory": "DFT", 
		 "functional": "B3LYP", 
		 "basiset": "6-31G**", 
		 "properties": { 
			 "R2extent": 6199.022, 
			 "electric_dipole_moment_norm": 2.60170369181, 
			 "electric_quadrupole_moment_norm": 12.5272045034, 
			 "total_energy": -751.110248464, 
			 "HOMO_LUMO_gap": 0.20904, 
			 "cosmo_polarized_energy": -10.48, 
			 "cosmo_cavitation_energy": 38.62, 
			 "cosmo_dispersion_energy": -26.35, 
			 "cosmo_repulsion_energy": 2.03, 
			 "cosmo_total_nonelectrostatic_energy": 14.3, 
			 "SMD_solvation_energy": 5.67 
		},
		"coords": [
			{
				"x": -3.2074847861,
				"y": 0.850592358,
				"z": 0.3914523176,
				"element": "O" 
			},
			{
				"x": -2.8927245027,
				"y": 0.3076858252,
				"z": -0.8778985224,
				"element": "C" 
			},
			{
				"x": -1.5977910257,
				"y": 0.9314336202,
				"z": -1.4180878174,
				"element": "C" 
			},
			{
				"x": -0.5131389485,
				"y": 0.8606441655,
				"z": -0.4198775188,
				"element": "N" 
			},
			{
				"x": 0.2510559268,
				"y": 2.1182850321,
				"z": -0.2778126562,
				"element": "C" 
			},
			{
				"x": 1.068600611,
				"y": 2.5711953273,
				"z": -1.481281797,
				"element": "C" 
			},
			{
				"x": 0.5368185863,
				"y": 3.4757405464,
				"z": -2.411654465,
				"element": "C" 
			},
			{
				"x": 1.27105387,
				"y": 3.873925101,
				"z": -3.529954848,
				"element": "C" 
			},
			{
				"x": 2.5585954993,
				"y": 3.3756539231,
				"z": -3.7351805158,
				"element": "C" 
			},
			{
				"x": 3.108368488,
				"y": 2.4857240392,
				"z": -2.8104422566,
				"element": "C" 
			},
			{
				"x": 2.3698390674,
				"y": 2.0918274852,
				"z": -1.693894319,
				"element": "C" 
			},
			{
				"x": 0.3482395226,
				"y": -0.3230653095,
				"z": -0.5524435902,
				"element": "C" 
			},
			{
				"x": -0.3248739235,
				"y": -1.6286911412,
				"z": -0.171164799,
				"element": "C" 
			},
			{
				"x": -0.8218443231,
				"y": -1.8194896053,
				"z": 1.1262646101,
				"element": "C" 
			},
			{
				"x": -1.4164497658,
				"y": -3.0257161938,
				"z": 1.490993682,
				"element": "C" 
			},
			{
				"x": -1.5188991084,
				"y": -4.0662217537,
				"z": 0.5628264895,
				"element": "C" 
			},
			{
				"x": -1.0215264413,
				"y": -3.8905238857,
				"z": -0.7282331163,
				"element": "C" 
			},
			{
				"x": -0.4280163993,
				"y": -2.6781792617,
				"z": -1.0901103088,
				"element": "C" 
			},
			{
				"x": -2.3598606535,
				"y": 0.8409066443,
				"z": 0.8654771662,
				"element": "H" 
			},
			{
				"x": -3.7202260592,
				"y": 0.5506002181,
				"z": -1.5547817328,
				"element": "H" 
			},
			{
				"x": -2.8082898869,
				"y": -0.7869386264,
				"z": -0.8371151828,
				"element": "H" 
			},
			{
				"x": -1.8008823907,
				"y": 1.9863424885,
				"z": -1.6211608951,
				"element": "H" 
			},
			{
				"x": -1.3103076347,
				"y": 0.4692341475,
				"z": -2.3759948573,
				"element": "H" 
			},
			{
				"x": 0.9159142975,
				"y": 1.9940811662,
				"z": 0.5851449616,
				"element": "H" 
			},
			{
				"x": -0.4685921918,
				"y": 2.9006137779,
				"z": -0.014839085,
				"element": "H" 
			},
			{
				"x": -0.4578487519,
				"y": 3.8846496225,
				"z": -2.2517818651,
				"element": "H" 
			},
			{
				"x": 0.8405191257,
				"y": 4.57868896,
				"z": -4.2358903353,
				"element": "H" 
			},
			{
				"x": 3.1334097903,
				"y": 3.6866282727,
				"z": -4.6028048288,
				"element": "H" 
			},
			{
				"x": 4.1156314987,
				"y": 2.1044784699,
				"z": -2.9537994372,
				"element": "H" 
			},
			{
				"x": 2.8154672839,
				"y": 1.4132938974,
				"z": -0.9707951994,
				"element": "H" 
			},
			{
				"x": 0.7627826729,
				"y": -0.4152460908,
				"z": -1.5706255922,
				"element": "H" 
			},
			{
				"x": 1.2031580099,
				"y": -0.1705771208,
				"z": 0.1182062685,
				"element": "H" 
			},
			{
				"x": -0.7436252375,
				"y": -1.0116463808,
				"z": 1.8492113482,
				"element": "H" 
			},
			{
				"x": -1.7992721256,
				"y": -3.1566974155,
				"z": 2.4992016445,
				"element": "H" 
			},
			{
				"x": -1.9827790097,
				"y": -5.0065232784,
				"z": 0.8466061873,
				"element": "H" 
			},
			{
				"x": -1.0965009845,
				"y": -4.6938598474,
				"z": -1.4558117328,
				"element": "H" 
			},
			{
				"x": -0.0432200999,
				"y": -2.5441491769,
				"z": -2.098347401,
				"element": "H" 
			}
		],
		 "valence_orbital": [ 
			{
				"type": "occ",
				"energy": -0.25258,
				"method": "rhf"
			},
			{
				"type": "occ",
				"energy": -0.24992,
				"method": "rhf"
			},
			{
				"type": "occ",
				"energy": -0.24646,
				"method": "rhf"
			},
			{
				"type": "occ",
				"energy": -0.24337,
				"method": "rhf"
			},
			{
				"type": "occ",
				"energy": -0.2198,
				"method": "rhf"
			},
			{
				"type": "unocc",
				"energy": -0.01076,
				"method": "rhf"
			},
			{
				"type": "unocc",
				"energy": -0.00545,
				"method": "rhf"
			},
			{
				"type": "unocc",
				"energy": -0.00428,
				"method": "rhf"
			},
			{
				"type": "unocc",
				"energy": 0.00102,
				"method": "rhf"
			},
			{
				"type": "unocc",
				"energy": 0.07597,
				"method": "rhf"
			}
		],
		"cosmo_sigma_profile": { 
			"-0.025": 0.0,
			"-0.024": 0.0,
			"-0.023": 0.0,
			"-0.022": 0.0,
			"-0.021": 0.0,
			"-0.02": 0.0,
			"-0.019": 0.0,
			"-0.018": 0.0,
			"-0.017": 0.0,
			"-0.016": 0.0,
			"-0.015": 0.0,
			"-0.014": 0.0,
			"-0.013": 0.0,
			"-0.012": 0.0,
			"-0.011": 0.0,
			"-0.01": 0.0,
			"-0.009": 0.167457273471,
			"-0.008": 0.569204511495,
			"-0.007": 0.520363207783,
			"-0.006": 8.48251140577,
			"-0.005": 27.9932678988,
			"-0.004": 32.785862771,
			"-0.003": 36.9375483336,
			"-0.002": 28.6773559444,
			"-0.001": 29.4147665515,
			"0.0": 19.0589102663,
			"0.001": 19.2222468993,
			"0.002": 17.0646241756,
			"0.003": 17.5816167989,
			"0.004": 18.3726009331,
			"0.005": 18.1653522489,
			"0.006": 13.5989571589,
			"0.007": 3.34693176331,
			"0.008": 1.20212370876,
			"0.009": 1.32665754605,
			"0.01": 0.974388582384,
			"0.011": 0.946811038454,
			"0.012": 1.83021447128,
			"0.013": 1.39936808225,
			"0.014": 1.73710660527,
			"0.015": 2.76750608779,
			"0.016": 0.26702739975,
			"0.017": 0.0,
			"0.018": 0.0,
			"0.019": 0.0,
			"0.02": 0.0,
			"0.021": 0.0,
			"0.022": 0.0,
			"0.023": 0.0,
			"0.024": 0.0,
			"0.025": 0.0
		}
	}
}
