{
	 "smiles": "CC=CC=C(C)C", 
	 "Tm": 198.95, 
	 "num_atms": 19, 
	 "gaussian": { 
		 "optdone": 1, 
		 "sigma_profile": "yes", 
		 "theory": "DFT", 
		 "functional": "B3LYP", 
		 "basiset": "6-31G**", 
		 "properties": { 
			 "R2extent": 2496.36, 
			 "electric_dipole_moment_norm": 0.372477878538, 
			 "electric_quadrupole_moment_norm": 2.76186628025, 
			 "total_energy": -273.954720616, 
			 "HOMO_LUMO_gap": 0.20268, 
			 "cosmo_polarized_energy": -2.26, 
			 "cosmo_cavitation_energy": 21.6, 
			 "cosmo_dispersion_energy": -15.59, 
			 "cosmo_repulsion_energy": 1.34, 
			 "cosmo_total_nonelectrostatic_energy": 7.35, 
			 "SMD_solvation_energy": 4.29 
		},
		"coords": [
			{
				"x": -0.1246143264,
				"y": -3.4335138962,
				"z": -1.316896475,
				"element": "C" 
			},
			{
				"x": -0.5037687301,
				"y": -2.6110205547,
				"z": -0.1198698891,
				"element": "C" 
			},
			{
				"x": -1.1529973599,
				"y": -3.0858558516,
				"z": 0.9562831167,
				"element": "C" 
			},
			{
				"x": -1.5499690904,
				"y": -2.3544898967,
				"z": 2.16388132,
				"element": "C" 
			},
			{
				"x": -2.0160663541,
				"y": -1.0941393372,
				"z": 2.2859559673,
				"element": "C" 
			},
			{
				"x": -2.3460193524,
				"y": -0.5298884821,
				"z": 3.6457958732,
				"element": "C" 
			},
			{
				"x": -2.2739597279,
				"y": -0.1613327761,
				"z": 1.1298411095,
				"element": "C" 
			},
			{
				"x": -0.4459029112,
				"y": -4.4740878071,
				"z": -1.208317553,
				"element": "H" 
			},
			{
				"x": 0.9614000496,
				"y": -3.427470264,
				"z": -1.4781321119,
				"element": "H" 
			},
			{
				"x": -0.5758634291,
				"y": -3.0352970271,
				"z": -2.2353381745,
				"element": "H" 
			},
			{
				"x": -0.1969770584,
				"y": -1.5665205731,
				"z": -0.138389995,
				"element": "H" 
			},
			{
				"x": -1.3818437648,
				"y": -4.1540489531,
				"z": 0.9719667134,
				"element": "H" 
			},
			{
				"x": -1.4832647556,
				"y": -2.9399471556,
				"z": 3.082273407,
				"element": "H" 
			},
			{
				"x": -1.7618764223,
				"y": 0.3784660196,
				"z": 3.8474520413,
				"element": "H" 
			},
			{
				"x": -2.1437041902,
				"y": -1.2452225027,
				"z": 4.4477666492,
				"element": "H" 
			},
			{
				"x": -3.4025660051,
				"y": -0.2352742087,
				"z": 3.7056904679,
				"element": "H" 
			},
			{
				"x": -3.215932634,
				"y": 0.3809145362,
				"z": 1.280075282,
				"element": "H" 
			},
			{
				"x": -2.3251143772,
				"y": -0.6919130911,
				"z": 0.1767129882,
				"element": "H" 
			},
			{
				"x": -1.4878595604,
				"y": 0.6018418213,
				"z": 1.0464492629,
				"element": "H" 
			}
		],
		 "valence_orbital": [ 
			{
				"type": "occ",
				"energy": -0.35874,
				"method": "rhf"
			},
			{
				"type": "occ",
				"energy": -0.34224,
				"method": "rhf"
			},
			{
				"type": "occ",
				"energy": -0.32337,
				"method": "rhf"
			},
			{
				"type": "occ",
				"energy": -0.27727,
				"method": "rhf"
			},
			{
				"type": "occ",
				"energy": -0.20787,
				"method": "rhf"
			},
			{
				"type": "unocc",
				"energy": -0.00519,
				"method": "rhf"
			},
			{
				"type": "unocc",
				"energy": 0.07916,
				"method": "rhf"
			},
			{
				"type": "unocc",
				"energy": 0.10211,
				"method": "rhf"
			},
			{
				"type": "unocc",
				"energy": 0.11997,
				"method": "rhf"
			},
			{
				"type": "unocc",
				"energy": 0.12112,
				"method": "rhf"
			}
		],
		"cosmo_sigma_profile": { 
			"-0.025": 0.0,
			"-0.024": 0.0,
			"-0.023": 0.0,
			"-0.022": 0.0,
			"-0.021": 0.0,
			"-0.02": 0.0,
			"-0.019": 0.0,
			"-0.018": 0.0,
			"-0.017": 0.0,
			"-0.016": 0.0,
			"-0.015": 0.0,
			"-0.014": 0.0,
			"-0.013": 0.0,
			"-0.012": 0.0,
			"-0.011": 0.0,
			"-0.01": 0.0,
			"-0.009": 0.0,
			"-0.008": 0.0,
			"-0.007": 0.0,
			"-0.006": 0.0,
			"-0.005": 0.0115893636779,
			"-0.004": 7.94660598232,
			"-0.003": 24.1883529899,
			"-0.002": 24.9627891742,
			"-0.001": 26.3620695433,
			"0.0": 26.9051206699,
			"0.001": 20.64824372,
			"0.002": 8.51430454236,
			"0.003": 7.24133236158,
			"0.004": 5.52247842818,
			"0.005": 6.16879829309,
			"0.006": 5.60731197844,
			"0.007": 4.46044487683,
			"0.008": 0.286995479223,
			"0.009": 0.0,
			"0.01": 0.0,
			"0.011": 0.0,
			"0.012": 0.0,
			"0.013": 0.0,
			"0.014": 0.0,
			"0.015": 0.0,
			"0.016": 0.0,
			"0.017": 0.0,
			"0.018": 0.0,
			"0.019": 0.0,
			"0.02": 0.0,
			"0.021": 0.0,
			"0.022": 0.0,
			"0.023": 0.0,
			"0.024": 0.0,
			"0.025": 0.0
		}
	}
}
