{
	 "smiles": "FC(F)(F)C1=CC=C(C=C1)S(=O)(=O)N1CCNCC1", 
	 "Tm": 439.15, 
	 "num_atms": 32, 
	 "gaussian": { 
		 "optdone": 1, 
		 "sigma_profile": "yes", 
		 "theory": "DFT", 
		 "functional": "B3LYP", 
		 "basiset": "6-31G**", 
		 "properties": { 
			 "R2extent": 7222.6372, 
			 "electric_dipole_moment_norm": 2.80358281668, 
			 "electric_quadrupole_moment_norm": 15.3828725256, 
			 "total_energy": -1384.59089054, 
			 "HOMO_LUMO_gap": 0.17117, 
			 "cosmo_polarized_energy": -14.94, 
			 "cosmo_cavitation_energy": 37.18, 
			 "cosmo_dispersion_energy": -26.31, 
			 "cosmo_repulsion_energy": 1.92, 
			 "cosmo_total_nonelectrostatic_energy": 12.78, 
			 "SMD_solvation_energy": 2.9 
		},
		"coords": [
			{
				"x": -2.7015502421,
				"y": -0.0262619754,
				"z": -4.8925216404,
				"element": "F" 
			},
			{
				"x": -2.6005741156,
				"y": 0.8940373848,
				"z": -3.9108543346,
				"element": "C" 
			},
			{
				"x": -2.4826714879,
				"y": 2.1058859867,
				"z": -4.4941508492,
				"element": "F" 
			},
			{
				"x": -3.7752083507,
				"y": 0.8911029193,
				"z": -3.2403019317,
				"element": "F" 
			},
			{
				"x": -1.4445586422,
				"y": 0.6059684115,
				"z": -2.9868364051,
				"element": "C" 
			},
			{
				"x": -0.8628266681,
				"y": 1.6553877121,
				"z": -2.2655002872,
				"element": "C" 
			},
			{
				"x": 0.1683157954,
				"y": 1.3925154522,
				"z": -1.3696630068,
				"element": "C" 
			},
			{
				"x": 0.6027305415,
				"y": 0.0749537796,
				"z": -1.2018396738,
				"element": "C" 
			},
			{
				"x": 0.0383828619,
				"y": -0.9758833662,
				"z": -1.9230007126,
				"element": "C" 
			},
			{
				"x": -0.9955071023,
				"y": -0.705026008,
				"z": -2.820358335,
				"element": "C" 
			},
			{
				"x": 1.9702279292,
				"y": -0.2632639308,
				"z": -0.0816225866,
				"element": "S" 
			},
			{
				"x": 3.0132368437,
				"y": 0.7435245489,
				"z": -0.2994748089,
				"element": "O" 
			},
			{
				"x": 2.2775576882,
				"y": -1.6965836711,
				"z": -0.1916804954,
				"element": "O" 
			},
			{
				"x": 1.2597395214,
				"y": 0.1056030686,
				"z": 1.4200037871,
				"element": "N" 
			},
			{
				"x": 2.2101432354,
				"y": 0.5811563322,
				"z": 2.4502362027,
				"element": "C" 
			},
			{
				"x": 1.401725437,
				"y": 1.133534899,
				"z": 3.6329586606,
				"element": "C" 
			},
			{
				"x": 0.4309615252,
				"y": 0.1860923512,
				"z": 4.1818906731,
				"element": "N" 
			},
			{
				"x": -0.4309506358,
				"y": -0.3515411983,
				"z": 3.1306624441,
				"element": "C" 
			},
			{
				"x": 0.3361988155,
				"y": -0.9279386369,
				"z": 1.9294142953,
				"element": "C" 
			},
			{
				"x": -1.2097933819,
				"y": 2.6717154974,
				"z": -2.4163780352,
				"element": "H" 
			},
			{
				"x": 0.6373484476,
				"y": 2.195249612,
				"z": -0.8118746404,
				"element": "H" 
			},
			{
				"x": 0.4160622487,
				"y": -1.9828054806,
				"z": -1.7850835524,
				"element": "H" 
			},
			{
				"x": -1.4433356866,
				"y": -1.5074368921,
				"z": -3.3957745987,
				"element": "H" 
			},
			{
				"x": 2.8409079717,
				"y": 1.353881294,
				"z": 2.0076943406,
				"element": "H" 
			},
			{
				"x": 2.8611145438,
				"y": -0.2397865383,
				"z": 2.7935789666,
				"element": "H" 
			},
			{
				"x": 0.8555390046,
				"y": 2.0255731548,
				"z": 3.3017663966,
				"element": "H" 
			},
			{
				"x": 2.0887241813,
				"y": 1.4434197273,
				"z": 4.4274729962,
				"element": "H" 
			},
			{
				"x": 0.9252302066,
				"y": -0.5781595108,
				"z": 4.639117606,
				"element": "H" 
			},
			{
				"x": -1.0809681237,
				"y": 0.4585427812,
				"z": 2.7770898166,
				"element": "H" 
			},
			{
				"x": -1.0744773859,
				"y": -1.1287800021,
				"z": 3.5560879408,
				"element": "H" 
			},
			{
				"x": -0.363894925,
				"y": -1.2027948815,
				"z": 1.1341919162,
				"element": "H" 
			},
			{
				"x": 0.8872699493,
				"y": -1.8349828205,
				"z": 2.2215498517,
				"element": "H" 
			}
		],
		 "valence_orbital": [ 
			{
				"type": "occ",
				"energy": -0.30657,
				"method": "rhf"
			},
			{
				"type": "occ",
				"energy": -0.29346,
				"method": "rhf"
			},
			{
				"type": "occ",
				"energy": -0.2867,
				"method": "rhf"
			},
			{
				"type": "occ",
				"energy": -0.26364,
				"method": "rhf"
			},
			{
				"type": "occ",
				"energy": -0.23207,
				"method": "rhf"
			},
			{
				"type": "unocc",
				"energy": -0.0609,
				"method": "rhf"
			},
			{
				"type": "unocc",
				"energy": -0.03617,
				"method": "rhf"
			},
			{
				"type": "unocc",
				"energy": 0.04871,
				"method": "rhf"
			},
			{
				"type": "unocc",
				"energy": 0.06946,
				"method": "rhf"
			},
			{
				"type": "unocc",
				"energy": 0.07078,
				"method": "rhf"
			}
		],
		"cosmo_sigma_profile": { 
			"-0.025": 0.0,
			"-0.024": 0.0,
			"-0.023": 0.0,
			"-0.022": 0.0,
			"-0.021": 0.0,
			"-0.02": 0.0,
			"-0.019": 0.0,
			"-0.018": 0.0,
			"-0.017": 0.0,
			"-0.016": 0.0,
			"-0.015": 0.0,
			"-0.014": 0.0,
			"-0.013": 0.0,
			"-0.012": 0.0,
			"-0.011": 0.0690770956469,
			"-0.01": 1.46860341242,
			"-0.009": 1.87526343265,
			"-0.008": 6.94792596092,
			"-0.007": 9.86417647671,
			"-0.006": 10.1304709125,
			"-0.005": 19.7235111779,
			"-0.004": 29.8713665483,
			"-0.003": 25.659254593,
			"-0.002": 19.0706912541,
			"-0.001": 21.2765164354,
			"0.0": 23.2580691693,
			"0.001": 24.5046245603,
			"0.002": 28.3749545924,
			"0.003": 24.8267389244,
			"0.004": 4.90151306152,
			"0.005": 4.61574401382,
			"0.006": 3.68012901013,
			"0.007": 2.66147527563,
			"0.008": 4.36832190472,
			"0.009": 5.07995395876,
			"0.01": 7.73143780693,
			"0.011": 8.0977158314,
			"0.012": 3.50308696321,
			"0.013": 0.473536415939,
			"0.014": 0.211699085133,
			"0.015": 0.588751616358,
			"0.016": 0.886101449635,
			"0.017": 0.377086197928,
			"0.018": 0.366939862947,
			"0.019": 0.0,
			"0.02": 0.0,
			"0.021": 0.0,
			"0.022": 0.0,
			"0.023": 0.0,
			"0.024": 0.0,
			"0.025": 0.0
		}
	}
}
