{
	 "smiles": "[O-][N+](=O)C1=CC(Cl)=CC=C1C(C=O)C=O", 
	 "Tm": 413.15, 
	 "num_atms": 21, 
	 "gaussian": { 
		 "optdone": 1, 
		 "sigma_profile": "yes", 
		 "theory": "DFT", 
		 "functional": "B3LYP", 
		 "basiset": "6-31G**", 
		 "properties": { 
			 "R2extent": 4664.0777, 
			 "electric_dipole_moment_norm": 2.0793094118, 
			 "electric_quadrupole_moment_norm": 11.9184247676, 
			 "total_energy": -1162.26831823, 
			 "HOMO_LUMO_gap": 0.15639, 
			 "cosmo_polarized_energy": -14.34, 
			 "cosmo_cavitation_energy": 29.13, 
			 "cosmo_dispersion_energy": -20.33, 
			 "cosmo_repulsion_energy": 1.62, 
			 "cosmo_total_nonelectrostatic_energy": 10.42, 
			 "SMD_solvation_energy": 8.78 
		},
		"coords": [
			{
				"x": 4.5796104708,
				"y": -0.5506084183,
				"z": 0.2549839876,
				"element": "O" 
			},
			{
				"x": 3.5436721351,
				"y": -0.680458546,
				"z": -0.3908026796,
				"element": "N" 
			},
			{
				"x": 3.3839064424,
				"y": -1.5090531029,
				"z": -1.2896843449,
				"element": "O" 
			},
			{
				"x": 2.4309543229,
				"y": 0.2433672402,
				"z": -0.0809555032,
				"element": "C" 
			},
			{
				"x": 2.8184291085,
				"y": 1.4673481837,
				"z": 0.4681239788,
				"element": "C" 
			},
			{
				"x": 1.8450163057,
				"y": 2.4168498008,
				"z": 0.7519450551,
				"element": "C" 
			},
			{
				"x": 2.3177071591,
				"y": 3.9617831384,
				"z": 1.4205169352,
				"element": "Cl" 
			},
			{
				"x": 0.4982898469,
				"y": 2.1464187266,
				"z": 0.5080144455,
				"element": "C" 
			},
			{
				"x": 0.1390042196,
				"y": 0.9090815818,
				"z": -0.017257675,
				"element": "C" 
			},
			{
				"x": 1.0852801641,
				"y": -0.0787217227,
				"z": -0.3317815434,
				"element": "C" 
			},
			{
				"x": 0.5730931245,
				"y": -1.3986758392,
				"z": -0.8704844309,
				"element": "C" 
			},
			{
				"x": -0.4227341606,
				"y": -2.0236709869,
				"z": 0.1122195347,
				"element": "C" 
			},
			{
				"x": -1.5646353218,
				"y": -2.306589878,
				"z": -0.1690725408,
				"element": "O" 
			},
			{
				"x": -0.076378407,
				"y": -1.2869679872,
				"z": -2.2559943604,
				"element": "C" 
			},
			{
				"x": -0.2798762384,
				"y": -0.2480613194,
				"z": -2.8349481323,
				"element": "O" 
			},
			{
				"x": 3.8662963398,
				"y": 1.65726006,
				"z": 0.6581567317,
				"element": "H" 
			},
			{
				"x": -0.2567267844,
				"y": 2.8926583555,
				"z": 0.7278336775,
				"element": "H" 
			},
			{
				"x": -0.9097907035,
				"y": 0.7001249833,
				"z": -0.2001488884,
				"element": "H" 
			},
			{
				"x": 1.3995650602,
				"y": -2.1115795824,
				"z": -0.9664142835,
				"element": "H" 
			},
			{
				"x": -0.0124681687,
				"y": -2.2026255878,
				"z": 1.1289092929,
				"element": "H" 
			},
			{
				"x": -0.3537149151,
				"y": -2.2651790995,
				"z": -2.6964592566,
				"element": "H" 
			}
		],
		 "valence_orbital": [ 
			{
				"type": "occ",
				"energy": -0.31839,
				"method": "rhf"
			},
			{
				"type": "occ",
				"energy": -0.29965,
				"method": "rhf"
			},
			{
				"type": "occ",
				"energy": -0.29092,
				"method": "rhf"
			},
			{
				"type": "occ",
				"energy": -0.28249,
				"method": "rhf"
			},
			{
				"type": "occ",
				"energy": -0.26668,
				"method": "rhf"
			},
			{
				"type": "unocc",
				"energy": -0.11029,
				"method": "rhf"
			},
			{
				"type": "unocc",
				"energy": -0.05853,
				"method": "rhf"
			},
			{
				"type": "unocc",
				"energy": -0.0522,
				"method": "rhf"
			},
			{
				"type": "unocc",
				"energy": -0.03895,
				"method": "rhf"
			},
			{
				"type": "unocc",
				"energy": -0.0242,
				"method": "rhf"
			}
		],
		"cosmo_sigma_profile": { 
			"-0.025": 0.0,
			"-0.024": 0.0,
			"-0.023": 0.0,
			"-0.022": 0.0,
			"-0.021": 0.0,
			"-0.02": 0.0,
			"-0.019": 0.0,
			"-0.018": 0.0,
			"-0.017": 0.0,
			"-0.016": 0.0,
			"-0.015": 0.0,
			"-0.014": 0.0,
			"-0.013": 0.0,
			"-0.012": 0.400353324358,
			"-0.011": 1.31600011288,
			"-0.01": 3.8456713987,
			"-0.009": 7.32394848988,
			"-0.008": 13.1438820124,
			"-0.007": 12.3560392912,
			"-0.006": 10.7232805191,
			"-0.005": 11.1965434833,
			"-0.004": 9.52570269868,
			"-0.003": 11.2290749974,
			"-0.002": 13.9269742986,
			"-0.001": 20.1017888537,
			"0.0": 17.4261989904,
			"0.001": 12.6062357109,
			"0.002": 9.38213846162,
			"0.003": 15.612555684,
			"0.004": 11.4675702136,
			"0.005": 6.34917690133,
			"0.006": 8.78784393556,
			"0.007": 10.3902362545,
			"0.008": 9.01038105442,
			"0.009": 9.01266826515,
			"0.01": 7.98862391582,
			"0.011": 3.21180993609,
			"0.012": 0.306366667307,
			"0.013": 0.0,
			"0.014": 0.0,
			"0.015": 0.0,
			"0.016": 0.0,
			"0.017": 0.0,
			"0.018": 0.0,
			"0.019": 0.0,
			"0.02": 0.0,
			"0.021": 0.0,
			"0.022": 0.0,
			"0.023": 0.0,
			"0.024": 0.0,
			"0.025": 0.0
		}
	}
}
