{
	 "smiles": "ClC(C1=CC=CC=C1)C1=CC=CC=C1", 
	 "Tm": 290.65, 
	 "num_atms": 25, 
	 "gaussian": { 
		 "optdone": 1, 
		 "sigma_profile": "yes", 
		 "theory": "DFT", 
		 "functional": "B3LYP", 
		 "basiset": "6-31G**", 
		 "properties": { 
			 "R2extent": 4143.7127, 
			 "electric_dipole_moment_norm": 2.40704003083, 
			 "electric_quadrupole_moment_norm": 11.3051055263, 
			 "total_energy": -962.210686146, 
			 "HOMO_LUMO_gap": 0.20987, 
			 "cosmo_polarized_energy": -7.52, 
			 "cosmo_cavitation_energy": 30.2, 
			 "cosmo_dispersion_energy": -21.55, 
			 "cosmo_repulsion_energy": 1.7, 
			 "cosmo_total_nonelectrostatic_energy": 10.36, 
			 "SMD_solvation_energy": 4.61 
		},
		"coords": [
			{
				"x": -2.5566840558,
				"y": 1.2601004808,
				"z": -0.6598125507,
				"element": "Cl" 
			},
			{
				"x": -0.8661375433,
				"y": 0.4944477051,
				"z": -0.6049504437,
				"element": "C" 
			},
			{
				"x": -1.0037014969,
				"y": -1.0116736766,
				"z": -0.5228363026,
				"element": "C" 
			},
			{
				"x": -1.0849568822,
				"y": -1.8151839044,
				"z": -1.6674736742,
				"element": "C" 
			},
			{
				"x": -1.2223316531,
				"y": -3.1978638568,
				"z": -1.5506943542,
				"element": "C" 
			},
			{
				"x": -1.2750179092,
				"y": -3.7968570598,
				"z": -0.290266572,
				"element": "C" 
			},
			{
				"x": -1.190371122,
				"y": -3.0042621156,
				"z": 0.8556466119,
				"element": "C" 
			},
			{
				"x": -1.0564470523,
				"y": -1.6212430264,
				"z": 0.7378491361,
				"element": "C" 
			},
			{
				"x": 0.0087423873,
				"y": 1.0065505303,
				"z": -1.7324250561,
				"element": "C" 
			},
			{
				"x": -0.4778438209,
				"y": 1.3089742222,
				"z": -3.009633121,
				"element": "C" 
			},
			{
				"x": 0.3941180706,
				"y": 1.7219813133,
				"z": -4.0183561543,
				"element": "C" 
			},
			{
				"x": 1.7613078778,
				"y": 1.8411024736,
				"z": -3.7647249511,
				"element": "C" 
			},
			{
				"x": 2.2536035331,
				"y": 1.5471060154,
				"z": -2.4920104647,
				"element": "C" 
			},
			{
				"x": 1.3824518448,
				"y": 1.1346388111,
				"z": -1.4840644374,
				"element": "C" 
			},
			{
				"x": -0.4683100756,
				"y": 0.8607963936,
				"z": 0.3426713751,
				"element": "H" 
			},
			{
				"x": -1.031195846,
				"y": -1.3588206794,
				"z": -2.6504086724,
				"element": "H" 
			},
			{
				"x": -1.2832397522,
				"y": -3.8092233742,
				"z": -2.4464820133,
				"element": "H" 
			},
			{
				"x": -1.3777530051,
				"y": -4.8745642004,
				"z": -0.202106743,
				"element": "H" 
			},
			{
				"x": -1.2269707605,
				"y": -3.4614749275,
				"z": 1.8402338461,
				"element": "H" 
			},
			{
				"x": -0.9981221628,
				"y": -1.0058851101,
				"z": 1.632315237,
				"element": "H" 
			},
			{
				"x": -1.542584259,
				"y": 1.241730215,
				"z": -3.2062064847,
				"element": "H" 
			},
			{
				"x": 0.0004444481,
				"y": 1.9580299529,
				"z": -5.00287923,
				"element": "H" 
			},
			{
				"x": 2.4367286492,
				"y": 2.1680457157,
				"z": -4.5499191722,
				"element": "H" 
			},
			{
				"x": 3.3144484904,
				"y": 1.6450619792,
				"z": -2.2801803673,
				"element": "H" 
			},
			{
				"x": 1.7726220956,
				"y": 0.9072861229,
				"z": -0.4949854414,
				"element": "H" 
			}
		],
		 "valence_orbital": [ 
			{
				"type": "occ",
				"energy": -0.29239,
				"method": "rhf"
			},
			{
				"type": "occ",
				"energy": -0.25772,
				"method": "rhf"
			},
			{
				"type": "occ",
				"energy": -0.25445,
				"method": "rhf"
			},
			{
				"type": "occ",
				"energy": -0.25422,
				"method": "rhf"
			},
			{
				"type": "occ",
				"energy": -0.2426,
				"method": "rhf"
			},
			{
				"type": "unocc",
				"energy": -0.03273,
				"method": "rhf"
			},
			{
				"type": "unocc",
				"energy": -0.00873,
				"method": "rhf"
			},
			{
				"type": "unocc",
				"energy": -0.00745,
				"method": "rhf"
			},
			{
				"type": "unocc",
				"energy": 0.00028,
				"method": "rhf"
			},
			{
				"type": "unocc",
				"energy": 0.04407,
				"method": "rhf"
			}
		],
		"cosmo_sigma_profile": { 
			"-0.025": 0.0,
			"-0.024": 0.0,
			"-0.023": 0.0,
			"-0.022": 0.0,
			"-0.021": 0.0,
			"-0.02": 0.0,
			"-0.019": 0.0,
			"-0.018": 0.0,
			"-0.017": 0.0,
			"-0.016": 0.0,
			"-0.015": 0.0,
			"-0.014": 0.0,
			"-0.013": 0.0,
			"-0.012": 0.0,
			"-0.011": 0.0,
			"-0.01": 0.0,
			"-0.009": 0.000140871190322,
			"-0.008": 2.75406385195,
			"-0.007": 4.3971073806,
			"-0.006": 14.6400269736,
			"-0.005": 20.2362141163,
			"-0.004": 23.5462743178,
			"-0.003": 18.9235117525,
			"-0.002": 14.9689942048,
			"-0.001": 13.3312630623,
			"0.0": 14.2994169294,
			"0.001": 14.401851633,
			"0.002": 17.107004929,
			"0.003": 19.1120629428,
			"0.004": 22.1844270469,
			"0.005": 27.6671824766,
			"0.006": 11.7268375941,
			"0.007": 4.60325648529,
			"0.008": 0.0,
			"0.009": 0.0,
			"0.01": 0.0,
			"0.011": 0.0,
			"0.012": 0.0,
			"0.013": 0.0,
			"0.014": 0.0,
			"0.015": 0.0,
			"0.016": 0.0,
			"0.017": 0.0,
			"0.018": 0.0,
			"0.019": 0.0,
			"0.02": 0.0,
			"0.021": 0.0,
			"0.022": 0.0,
			"0.023": 0.0,
			"0.024": 0.0,
			"0.025": 0.0
		}
	}
}
