{
	 "smiles": "NC1=NN=C(N1)C1=CC=C(F)C=C1", 
	 "Tm": 498.15, 
	 "num_atms": 20, 
	 "gaussian": { 
		 "optdone": 1, 
		 "sigma_profile": "yes", 
		 "theory": "DFT", 
		 "functional": "B3LYP", 
		 "basiset": "6-31G**", 
		 "properties": { 
			 "R2extent": 3767.605, 
			 "electric_dipole_moment_norm": 4.95727997696, 
			 "electric_quadrupole_moment_norm": 8.53367161953, 
			 "total_energy": -627.896212218, 
			 "HOMO_LUMO_gap": 0.17874, 
			 "cosmo_polarized_energy": -22.62, 
			 "cosmo_cavitation_energy": 25.54, 
			 "cosmo_dispersion_energy": -19.0, 
			 "cosmo_repulsion_energy": 1.47, 
			 "cosmo_total_nonelectrostatic_energy": 8.0, 
			 "SMD_solvation_energy": 2.7 
		},
		"coords": [
			{
				"x": 2.0523581145,
				"y": 0.7152185694,
				"z": 2.1458289633,
				"element": "N" 
			},
			{
				"x": 1.2537795556,
				"y": 0.0439079392,
				"z": 1.229383197,
				"element": "C" 
			},
			{
				"x": 1.3796521729,
				"y": -1.2082092321,
				"z": 0.8531726503,
				"element": "N" 
			},
			{
				"x": 0.3192247747,
				"y": -1.4874354181,
				"z": 0.0112321069,
				"element": "N" 
			},
			{
				"x": -0.4091417104,
				"y": -0.4004532499,
				"z": -0.1125979417,
				"element": "C" 
			},
			{
				"x": 0.1525596367,
				"y": 0.6126309133,
				"z": 0.6461933786,
				"element": "N" 
			},
			{
				"x": -1.6150546953,
				"y": -0.2678395164,
				"z": -0.9296276628,
				"element": "C" 
			},
			{
				"x": -2.2290721933,
				"y": 0.9718646231,
				"z": -1.167291079,
				"element": "C" 
			},
			{
				"x": -3.3809233561,
				"y": 1.0630285478,
				"z": -1.9473117732,
				"element": "C" 
			},
			{
				"x": -3.9109998013,
				"y": -0.0994383876,
				"z": -2.4933307174,
				"element": "C" 
			},
			{
				"x": -5.0250091166,
				"y": -0.0187546052,
				"z": -3.248962866,
				"element": "F" 
			},
			{
				"x": -3.3234994433,
				"y": -1.3443728117,
				"z": -2.2835907978,
				"element": "C" 
			},
			{
				"x": -2.1779462454,
				"y": -1.423968228,
				"z": -1.5005273208,
				"element": "C" 
			},
			{
				"x": 2.4443558007,
				"y": 1.5824937739,
				"z": 1.7934170174,
				"element": "H" 
			},
			{
				"x": 2.7940062381,
				"y": 0.1010838204,
				"z": 2.4638855431,
				"element": "H" 
			},
			{
				"x": -0.2500149157,
				"y": 1.5072103115,
				"z": 0.8776273696,
				"element": "H" 
			},
			{
				"x": -1.8057647648,
				"y": 1.8859661626,
				"z": -0.7600541669,
				"element": "H" 
			},
			{
				"x": -3.8631896661,
				"y": 2.0151185564,
				"z": -2.139378737,
				"element": "H" 
			},
			{
				"x": -3.7682559816,
				"y": -2.2277223732,
				"z": -2.7288251532,
				"element": "H" 
			},
			{
				"x": -1.6981644032,
				"y": -2.3787293953,
				"z": -1.3161420101,
				"element": "H" 
			}
		],
		 "valence_orbital": [ 
			{
				"type": "occ",
				"energy": -0.29948,
				"method": "rhf"
			},
			{
				"type": "occ",
				"energy": -0.26836,
				"method": "rhf"
			},
			{
				"type": "occ",
				"energy": -0.26751,
				"method": "rhf"
			},
			{
				"type": "occ",
				"energy": -0.25016,
				"method": "rhf"
			},
			{
				"type": "occ",
				"energy": -0.21074,
				"method": "rhf"
			},
			{
				"type": "unocc",
				"energy": -0.032,
				"method": "rhf"
			},
			{
				"type": "unocc",
				"energy": -0.0173,
				"method": "rhf"
			},
			{
				"type": "unocc",
				"energy": 0.04589,
				"method": "rhf"
			},
			{
				"type": "unocc",
				"energy": 0.05008,
				"method": "rhf"
			},
			{
				"type": "unocc",
				"energy": 0.07353,
				"method": "rhf"
			}
		],
		"cosmo_sigma_profile": { 
			"-0.025": 0.0,
			"-0.024": 0.0,
			"-0.023": 0.0,
			"-0.022": 0.0,
			"-0.021": 0.0,
			"-0.02": 0.0,
			"-0.019": 0.0,
			"-0.018": 0.0795896858939,
			"-0.017": 1.34493272032,
			"-0.016": 0.967344745395,
			"-0.015": 1.91579340529,
			"-0.014": 2.89108091684,
			"-0.013": 5.0504360458,
			"-0.012": 3.85137606659,
			"-0.011": 3.38212835325,
			"-0.01": 4.15405375486,
			"-0.009": 3.25090386756,
			"-0.008": 3.96594981862,
			"-0.007": 7.02177496063,
			"-0.006": 7.64774798586,
			"-0.005": 8.38894659671,
			"-0.004": 7.55749705581,
			"-0.003": 7.20357412772,
			"-0.002": 6.95154848979,
			"-0.001": 9.57633132751,
			"0.0": 14.2451493162,
			"0.001": 16.3632766642,
			"0.002": 16.232271893,
			"0.003": 19.993730136,
			"0.004": 15.1256965875,
			"0.005": 5.63994917047,
			"0.006": 2.53247733686,
			"0.007": 2.68565420724,
			"0.008": 2.83430241669,
			"0.009": 1.86965297399,
			"0.01": 2.23977018642,
			"0.011": 3.07922860032,
			"0.012": 2.99284074713,
			"0.013": 2.82843070557,
			"0.014": 4.01422826734,
			"0.015": 3.04816484362,
			"0.016": 2.42880311674,
			"0.017": 1.25736962272,
			"0.018": 0.319033866503,
			"0.019": 0.0,
			"0.02": 0.0,
			"0.021": 0.0,
			"0.022": 0.0,
			"0.023": 0.0,
			"0.024": 0.0,
			"0.025": 0.0
		}
	}
}
