{
	 "smiles": "CC(=O)C(C)=O", 
	 "Tm": 271.05, 
	 "num_atms": 12, 
	 "gaussian": { 
		 "optdone": 1, 
		 "sigma_profile": "yes", 
		 "theory": "DFT", 
		 "functional": "B3LYP", 
		 "basiset": "6-31G**", 
		 "properties": { 
			 "R2extent": 789.1281, 
			 "electric_dipole_moment_norm": 0.000374165738677, 
			 "electric_quadrupole_moment_norm": 7.91829107636, 
			 "total_energy": -306.479032888, 
			 "HOMO_LUMO_gap": 0.15747, 
			 "cosmo_polarized_energy": -7.1, 
			 "cosmo_cavitation_energy": 16.39, 
			 "cosmo_dispersion_energy": -11.74, 
			 "cosmo_repulsion_energy": 1.03, 
			 "cosmo_total_nonelectrostatic_energy": 5.69, 
			 "SMD_solvation_energy": 4.73 
		},
		"coords": [
			{
				"x": 0.9725496191,
				"y": 0.5782187558,
				"z": -0.1702751407,
				"element": "C" 
			},
			{
				"x": -0.2809243076,
				"y": -0.0911469217,
				"z": 0.3345445561,
				"element": "C" 
			},
			{
				"x": -1.3802410958,
				"y": 0.0470654782,
				"z": -0.1672101957,
				"element": "O" 
			},
			{
				"x": -0.1211981043,
				"y": -1.005716683,
				"z": 1.5749620037,
				"element": "C" 
			},
			{
				"x": -1.3749334576,
				"y": -1.6739189883,
				"z": 2.0806732954,
				"element": "C" 
			},
			{
				"x": 0.9779753391,
				"y": -1.14328994,
				"z": 2.0772068066,
				"element": "O" 
			},
			{
				"x": 0.7365180958,
				"y": 1.1921126417,
				"z": -1.0398292616,
				"element": "H" 
			},
			{
				"x": 1.7238219769,
				"y": -0.1754775637,
				"z": -0.427923754,
				"element": "H" 
			},
			{
				"x": 1.4161341476,
				"y": 1.191669227,
				"z": 0.6207796136,
				"element": "H" 
			},
			{
				"x": -2.1258249183,
				"y": -0.919608395,
				"z": 2.3376412581,
				"element": "H" 
			},
			{
				"x": -1.1390768871,
				"y": -2.287032831,
				"z": 2.9508250945,
				"element": "H" 
			},
			{
				"x": -1.8189004078,
				"y": -2.2879747801,
				"z": 1.2903057241,
				"element": "H" 
			}
		],
		 "valence_orbital": [ 
			{
				"type": "occ",
				"energy": -0.38921,
				"method": "rhf"
			},
			{
				"type": "occ",
				"energy": -0.37578,
				"method": "rhf"
			},
			{
				"type": "occ",
				"energy": -0.36693,
				"method": "rhf"
			},
			{
				"type": "occ",
				"energy": -0.31233,
				"method": "rhf"
			},
			{
				"type": "occ",
				"energy": -0.2431,
				"method": "rhf"
			},
			{
				"type": "unocc",
				"energy": -0.08563,
				"method": "rhf"
			},
			{
				"type": "unocc",
				"energy": 0.03587,
				"method": "rhf"
			},
			{
				"type": "unocc",
				"energy": 0.10644,
				"method": "rhf"
			},
			{
				"type": "unocc",
				"energy": 0.12172,
				"method": "rhf"
			},
			{
				"type": "unocc",
				"energy": 0.14052,
				"method": "rhf"
			}
		],
		"cosmo_sigma_profile": { 
			"-0.025": 0.0,
			"-0.024": 0.0,
			"-0.023": 0.0,
			"-0.022": 0.0,
			"-0.021": 0.0,
			"-0.02": 0.0,
			"-0.019": 0.0,
			"-0.018": 0.0,
			"-0.017": 0.0,
			"-0.016": 0.0,
			"-0.015": 0.0,
			"-0.014": 0.0,
			"-0.013": 0.0,
			"-0.012": 0.0,
			"-0.011": 0.0,
			"-0.01": 0.0,
			"-0.009": 0.0,
			"-0.008": 1.72620437076,
			"-0.007": 6.74022496951,
			"-0.006": 11.1268599676,
			"-0.005": 10.385288474,
			"-0.004": 11.2394225869,
			"-0.003": 12.3409522756,
			"-0.002": 14.9970828447,
			"-0.001": 11.023010082,
			"0.0": 5.91821029025,
			"0.001": 3.67141878418,
			"0.002": 3.05241666274,
			"0.003": 2.45236623504,
			"0.004": 2.866137435,
			"0.005": 4.49641945928,
			"0.006": 2.15642761932,
			"0.007": 2.81694555973,
			"0.008": 3.96211493905,
			"0.009": 4.8645994865,
			"0.01": 7.41931807482,
			"0.011": 5.10542778237,
			"0.012": 1.19609295166,
			"0.013": 0.0,
			"0.014": 0.0,
			"0.015": 0.0,
			"0.016": 0.0,
			"0.017": 0.0,
			"0.018": 0.0,
			"0.019": 0.0,
			"0.02": 0.0,
			"0.021": 0.0,
			"0.022": 0.0,
			"0.023": 0.0,
			"0.024": 0.0,
			"0.025": 0.0
		}
	}
}
