{
	 "smiles": "ClC1=C(Cl)C(=O)C(C#N)=C(C#N)C1=O", 
	 "Tm": 488.15, 
	 "num_atms": 14, 
	 "gaussian": { 
		 "optdone": 1, 
		 "sigma_profile": "yes", 
		 "theory": "DFT", 
		 "functional": "B3LYP", 
		 "basiset": "6-31G**", 
		 "properties": { 
			 "R2extent": 3282.498, 
			 "electric_dipole_moment_norm": 4.02446601924, 
			 "electric_quadrupole_moment_norm": 15.7436926466, 
			 "total_energy": -1485.0753354, 
			 "HOMO_LUMO_gap": 0.12097, 
			 "cosmo_polarized_energy": -14.88, 
			 "cosmo_cavitation_energy": 26.5, 
			 "cosmo_dispersion_energy": -18.14, 
			 "cosmo_repulsion_energy": 1.43, 
			 "cosmo_total_nonelectrostatic_energy": 9.79, 
			 "SMD_solvation_energy": 7.92 
		},
		"coords": [
			{
				"x": 1.7018414853,
				"y": -2.6087687573,
				"z": -0.5039279579,
				"element": "Cl" 
			},
			{
				"x": 0.7439911985,
				"y": -1.2048414568,
				"z": -0.25778679,
				"element": "C" 
			},
			{
				"x": -0.6036691294,
				"y": -1.1910885802,
				"z": -0.4068407768,
				"element": "C" 
			},
			{
				"x": -1.5127079205,
				"y": -2.5759727835,
				"z": -0.8594207728,
				"element": "Cl" 
			},
			{
				"x": -1.4019353376,
				"y": 0.0539193527,
				"z": -0.1829000997,
				"element": "C" 
			},
			{
				"x": -2.6086747385,
				"y": 0.0840958865,
				"z": -0.3113970336,
				"element": "O" 
			},
			{
				"x": -0.6489614202,
				"y": 1.2928692494,
				"z": 0.215244464,
				"element": "C" 
			},
			{
				"x": -1.4322935569,
				"y": 2.4672241187,
				"z": 0.4231757074,
				"element": "C" 
			},
			{
				"x": -2.0688810901,
				"y": 3.4250609391,
				"z": 0.5930340085,
				"element": "N" 
			},
			{
				"x": 0.7023401517,
				"y": 1.279097347,
				"z": 0.3646266455,
				"element": "C" 
			},
			{
				"x": 1.4448167788,
				"y": 2.4379524058,
				"z": 0.7411039457,
				"element": "C" 
			},
			{
				"x": 2.0480235344,
				"y": 3.3832318579,
				"z": 1.0479191252,
				"element": "N" 
			},
			{
				"x": 1.4989486591,
				"y": 0.0242689566,
				"z": 0.1381426713,
				"element": "C" 
			},
			{
				"x": 2.7050613853,
				"y": 0.0300514642,
				"z": 0.2756268633,
				"element": "O" 
			}
		],
		 "valence_orbital": [ 
			{
				"type": "occ",
				"energy": -0.35374,
				"method": "rhf"
			},
			{
				"type": "occ",
				"energy": -0.33499,
				"method": "rhf"
			},
			{
				"type": "occ",
				"energy": -0.33474,
				"method": "rhf"
			},
			{
				"type": "occ",
				"energy": -0.32755,
				"method": "rhf"
			},
			{
				"type": "occ",
				"energy": -0.30816,
				"method": "rhf"
			},
			{
				"type": "unocc",
				"energy": -0.18719,
				"method": "rhf"
			},
			{
				"type": "unocc",
				"energy": -0.11299,
				"method": "rhf"
			},
			{
				"type": "unocc",
				"energy": -0.05403,
				"method": "rhf"
			},
			{
				"type": "unocc",
				"energy": -0.04377,
				"method": "rhf"
			},
			{
				"type": "unocc",
				"energy": -0.02056,
				"method": "rhf"
			}
		],
		"cosmo_sigma_profile": { 
			"-0.025": 0.0,
			"-0.024": 0.0,
			"-0.023": 0.0,
			"-0.022": 0.0,
			"-0.021": 0.0,
			"-0.02": 0.0,
			"-0.019": 0.0,
			"-0.018": 0.0,
			"-0.017": 0.0,
			"-0.016": 2.64282666499e-05,
			"-0.015": 0.248159924376,
			"-0.014": 1.1551375836,
			"-0.013": 1.39460450255,
			"-0.012": 2.14056826129,
			"-0.011": 3.75973697403,
			"-0.01": 5.9898973088,
			"-0.009": 8.24656967441,
			"-0.008": 6.16689146127,
			"-0.007": 5.40478617266,
			"-0.006": 6.38873438037,
			"-0.005": 10.2794383355,
			"-0.004": 10.1097005401,
			"-0.003": 9.77917370175,
			"-0.002": 10.393021495,
			"-0.001": 12.4396236722,
			"0.0": 15.020392881,
			"0.001": 20.5251051425,
			"0.002": 15.9895014757,
			"0.003": 9.4630835901,
			"0.004": 11.7718368253,
			"0.005": 10.7657809885,
			"0.006": 11.4829135185,
			"0.007": 13.0406215638,
			"0.008": 11.598387875,
			"0.009": 5.12957353704,
			"0.01": 3.43274517819,
			"0.011": 0.41479316726,
			"0.012": 0.0,
			"0.013": 0.0,
			"0.014": 0.0,
			"0.015": 0.0,
			"0.016": 0.0,
			"0.017": 0.0,
			"0.018": 0.0,
			"0.019": 0.0,
			"0.02": 0.0,
			"0.021": 0.0,
			"0.022": 0.0,
			"0.023": 0.0,
			"0.024": 0.0,
			"0.025": 0.0
		}
	}
}
