{
	 "smiles": "CC1=CC(Cl)=CC(Cl)=C1Cl", 
	 "Tm": 318.65, 
	 "num_atms": 15, 
	 "gaussian": { 
		 "optdone": 1, 
		 "sigma_profile": "yes", 
		 "theory": "DFT", 
		 "functional": "B3LYP", 
		 "basiset": "6-31G**", 
		 "properties": { 
			 "R2extent": 3010.2676, 
			 "electric_dipole_moment_norm": 1.81448202251, 
			 "electric_quadrupole_moment_norm": 6.01497879631, 
			 "total_energy": -1650.33947317, 
			 "HOMO_LUMO_gap": 0.21727, 
			 "cosmo_polarized_energy": -3.88, 
			 "cosmo_cavitation_energy": 24.21, 
			 "cosmo_dispersion_energy": -18.3, 
			 "cosmo_repulsion_energy": 1.48, 
			 "cosmo_total_nonelectrostatic_energy": 7.39, 
			 "SMD_solvation_energy": 3.41 
		},
		"coords": [
			{
				"x": 2.3656715094,
				"y": -0.9217208221,
				"z": -0.8260186145,
				"element": "C" 
			},
			{
				"x": 1.5375757832,
				"y": 0.1063778979,
				"z": -0.0975846957,
				"element": "C" 
			},
			{
				"x": 1.9748076548,
				"y": 0.6222052251,
				"z": 1.1265902857,
				"element": "C" 
			},
			{
				"x": 1.2170876019,
				"y": 1.5720584402,
				"z": 1.8071151394,
				"element": "C" 
			},
			{
				"x": 1.792258386,
				"y": 2.1996959089,
				"z": 3.3401241056,
				"element": "Cl" 
			},
			{
				"x": 0.0102242638,
				"y": 2.0343984867,
				"z": 1.2944774786,
				"element": "C" 
			},
			{
				"x": -0.436762198,
				"y": 1.5272888915,
				"z": 0.0736509179,
				"element": "C" 
			},
			{
				"x": -1.9546303028,
				"y": 2.1205930245,
				"z": -0.5533413623,
				"element": "Cl" 
			},
			{
				"x": 0.3167279531,
				"y": 0.5708849241,
				"z": -0.6210848177,
				"element": "C" 
			},
			{
				"x": -0.2505025139,
				"y": -0.0592348036,
				"z": -2.1500025033,
				"element": "Cl" 
			},
			{
				"x": 1.8036497763,
				"y": -1.849551276,
				"z": -0.9743632443,
				"element": "H" 
			},
			{
				"x": 3.273076124,
				"y": -1.1535965998,
				"z": -0.2642969409,
				"element": "H" 
			},
			{
				"x": 2.6552950364,
				"y": -0.5646852705,
				"z": -1.819695037,
				"element": "H" 
			},
			{
				"x": 2.9125958159,
				"y": 0.2784494115,
				"z": 1.5485046761,
				"element": "H" 
			},
			{
				"x": -0.5779748899,
				"y": 2.7728365615,
				"z": 1.8244246126,
				"element": "H" 
			}
		],
		 "valence_orbital": [ 
			{
				"type": "occ",
				"energy": -0.32456,
				"method": "rhf"
			},
			{
				"type": "occ",
				"energy": -0.31888,
				"method": "rhf"
			},
			{
				"type": "occ",
				"energy": -0.31387,
				"method": "rhf"
			},
			{
				"type": "occ",
				"energy": -0.26518,
				"method": "rhf"
			},
			{
				"type": "occ",
				"energy": -0.25042,
				"method": "rhf"
			},
			{
				"type": "unocc",
				"energy": -0.03315,
				"method": "rhf"
			},
			{
				"type": "unocc",
				"energy": -0.03141,
				"method": "rhf"
			},
			{
				"type": "unocc",
				"energy": -0.01014,
				"method": "rhf"
			},
			{
				"type": "unocc",
				"energy": 0.02865,
				"method": "rhf"
			},
			{
				"type": "unocc",
				"energy": 0.0586,
				"method": "rhf"
			}
		],
		"cosmo_sigma_profile": { 
			"-0.025": 0.0,
			"-0.024": 0.0,
			"-0.023": 0.0,
			"-0.022": 0.0,
			"-0.021": 0.0,
			"-0.02": 0.0,
			"-0.019": 0.0,
			"-0.018": 0.0,
			"-0.017": 0.0,
			"-0.016": 0.0,
			"-0.015": 0.0,
			"-0.014": 0.0,
			"-0.013": 0.0,
			"-0.012": 0.0,
			"-0.011": 0.0,
			"-0.01": 0.0,
			"-0.009": 0.54859879214,
			"-0.008": 3.19968021518,
			"-0.007": 3.74976614796,
			"-0.006": 4.50007361724,
			"-0.005": 6.84851983976,
			"-0.004": 8.73816471026,
			"-0.003": 12.8246898151,
			"-0.002": 16.4410017585,
			"-0.001": 21.1474111949,
			"0.0": 27.7468444044,
			"0.001": 27.7139762558,
			"0.002": 19.2445321311,
			"0.003": 19.6478784422,
			"0.004": 22.6189407519,
			"0.005": 5.4653390831,
			"0.006": 0.222264172421,
			"0.007": 0.0,
			"0.008": 0.0,
			"0.009": 0.0,
			"0.01": 0.0,
			"0.011": 0.0,
			"0.012": 0.0,
			"0.013": 0.0,
			"0.014": 0.0,
			"0.015": 0.0,
			"0.016": 0.0,
			"0.017": 0.0,
			"0.018": 0.0,
			"0.019": 0.0,
			"0.02": 0.0,
			"0.021": 0.0,
			"0.022": 0.0,
			"0.023": 0.0,
			"0.024": 0.0,
			"0.025": 0.0
		}
	}
}
