{
	 "smiles": "CN1N=C(C=C1C1=CC=CO1)C(O)=O", 
	 "Tm": 416.15, 
	 "num_atms": 22, 
	 "gaussian": { 
		 "optdone": 1, 
		 "sigma_profile": "yes", 
		 "theory": "DFT", 
		 "functional": "B3LYP", 
		 "basiset": "6-31G**", 
		 "properties": { 
			 "R2extent": 4526.6324, 
			 "electric_dipole_moment_norm": 7.79736007826, 
			 "electric_quadrupole_moment_norm": 38.8013618545, 
			 "total_energy": -682.911144685, 
			 "HOMO_LUMO_gap": 0.1805, 
			 "cosmo_polarized_energy": -20.23, 
			 "cosmo_cavitation_energy": 27.59, 
			 "cosmo_dispersion_energy": -20.04, 
			 "cosmo_repulsion_energy": 1.56, 
			 "cosmo_total_nonelectrostatic_energy": 9.11, 
			 "SMD_solvation_energy": 5.94 
		},
		"coords": [
			{
				"x": -1.788201189,
				"y": 1.5663629797,
				"z": 0.2596117574,
				"element": "C" 
			},
			{
				"x": -2.0136281059,
				"y": 0.3022968913,
				"z": -0.432011774,
				"element": "N" 
			},
			{
				"x": -3.2001828649,
				"y": 0.1089348468,
				"z": -1.0277239034,
				"element": "N" 
			},
			{
				"x": -3.1233863917,
				"y": -1.1047899975,
				"z": -1.5849322226,
				"element": "C" 
			},
			{
				"x": -1.8689602341,
				"y": -1.7035331244,
				"z": -1.3350715072,
				"element": "C" 
			},
			{
				"x": -1.1672366308,
				"y": -0.7698191996,
				"z": -0.5802580558,
				"element": "C" 
			},
			{
				"x": 0.1751888891,
				"y": -0.8634269845,
				"z": -0.0492021745,
				"element": "C" 
			},
			{
				"x": 1.1789639592,
				"y": -1.7736214193,
				"z": -0.2616933849,
				"element": "C" 
			},
			{
				"x": 2.2777378401,
				"y": -1.3681589566,
				"z": 0.5565569112,
				"element": "C" 
			},
			{
				"x": 1.8743180335,
				"y": -0.2422965791,
				"z": 1.2071708306,
				"element": "C" 
			},
			{
				"x": 0.5967919735,
				"y": 0.0799263925,
				"z": 0.8521464866,
				"element": "O" 
			},
			{
				"x": -4.2919507078,
				"y": -1.6535436366,
				"z": -2.3270468817,
				"element": "C" 
			},
			{
				"x": -3.9900981032,
				"y": -2.6671175289,
				"z": -3.1905404281,
				"element": "O" 
			},
			{
				"x": -5.4290116797,
				"y": -1.2785566624,
				"z": -2.1968954769,
				"element": "O" 
			},
			{
				"x": -1.6543171894,
				"y": 1.4020532151,
				"z": 1.3306978342,
				"element": "H" 
			},
			{
				"x": -2.6730463901,
				"y": 2.1750155138,
				"z": 0.0814883902,
				"element": "H" 
			},
			{
				"x": -0.9010551839,
				"y": 2.0658443733,
				"z": -0.1348824061,
				"element": "H" 
			},
			{
				"x": -1.5258415912,
				"y": -2.6937645989,
				"z": -1.5987504962,
				"element": "H" 
			},
			{
				"x": 1.1405851117,
				"y": -2.6240080063,
				"z": -0.9265224876,
				"element": "H" 
			},
			{
				"x": 3.2402206478,
				"y": -1.8508891675,
				"z": 0.6432768917,
				"element": "H" 
			},
			{
				"x": 2.3442207768,
				"y": 0.4202114963,
				"z": 1.9168133999,
				"element": "H" 
			},
			{
				"x": -3.03061097,
				"y": -2.7369198474,
				"z": -3.2922313028,
				"element": "H" 
			}
		],
		 "valence_orbital": [ 
			{
				"type": "occ",
				"energy": -0.303,
				"method": "rhf"
			},
			{
				"type": "occ",
				"energy": -0.29325,
				"method": "rhf"
			},
			{
				"type": "occ",
				"energy": -0.2711,
				"method": "rhf"
			},
			{
				"type": "occ",
				"energy": -0.26207,
				"method": "rhf"
			},
			{
				"type": "occ",
				"energy": -0.22283,
				"method": "rhf"
			},
			{
				"type": "unocc",
				"energy": -0.04233,
				"method": "rhf"
			},
			{
				"type": "unocc",
				"energy": -0.02218,
				"method": "rhf"
			},
			{
				"type": "unocc",
				"energy": 0.03072,
				"method": "rhf"
			},
			{
				"type": "unocc",
				"energy": 0.06478,
				"method": "rhf"
			},
			{
				"type": "unocc",
				"energy": 0.08552,
				"method": "rhf"
			}
		],
		"cosmo_sigma_profile": { 
			"-0.025": 0.0,
			"-0.024": 0.0,
			"-0.023": 0.0,
			"-0.022": 0.0,
			"-0.021": 0.0,
			"-0.02": 0.0,
			"-0.019": 0.0,
			"-0.018": 0.446924388227,
			"-0.017": 1.34356253369,
			"-0.016": 0.820971422237,
			"-0.015": 1.29026599275,
			"-0.014": 1.17019810519,
			"-0.013": 0.598501784024,
			"-0.012": 1.13694310126,
			"-0.011": 1.8853413491,
			"-0.01": 0.967349541378,
			"-0.009": 3.93551778109,
			"-0.008": 6.37953817384,
			"-0.007": 9.46865336323,
			"-0.006": 12.1886396967,
			"-0.005": 12.4556185578,
			"-0.004": 15.0156439106,
			"-0.003": 15.8193061772,
			"-0.002": 11.2754154806,
			"-0.001": 11.3827310966,
			"0.0": 11.4370888423,
			"0.001": 16.5390517946,
			"0.002": 18.1002782441,
			"0.003": 14.0052772335,
			"0.004": 9.36932992013,
			"0.005": 5.10785670448,
			"0.006": 3.46888781397,
			"0.007": 3.05497495593,
			"0.008": 3.84359477803,
			"0.009": 4.05592715862,
			"0.01": 6.04165648048,
			"0.011": 5.87470851279,
			"0.012": 6.80057342495,
			"0.013": 4.04068225213,
			"0.014": 1.93857636787,
			"0.015": 0.359669583583,
			"0.016": 0.0,
			"0.017": 0.0,
			"0.018": 0.0,
			"0.019": 0.0,
			"0.02": 0.0,
			"0.021": 0.0,
			"0.022": 0.0,
			"0.023": 0.0,
			"0.024": 0.0,
			"0.025": 0.0
		}
	}
}
