{
	 "smiles": "[O-][N+](=O)C1=CC(N=C=O)=C(Cl)C=C1", 
	 "Tm": 367.15, 
	 "num_atms": 16, 
	 "gaussian": { 
		 "optdone": 1, 
		 "sigma_profile": "yes", 
		 "theory": "DFT", 
		 "functional": "B3LYP", 
		 "basiset": "6-31G**", 
		 "properties": { 
			 "R2extent": 3557.7592, 
			 "electric_dipole_moment_norm": 2.65071369635, 
			 "electric_quadrupole_moment_norm": 18.5553840391, 
			 "total_energy": -1063.81366581, 
			 "HOMO_LUMO_gap": 0.16315, 
			 "cosmo_polarized_energy": -8.21, 
			 "cosmo_cavitation_energy": 24.81, 
			 "cosmo_dispersion_energy": -18.07, 
			 "cosmo_repulsion_energy": 1.42, 
			 "cosmo_total_nonelectrostatic_energy": 8.16, 
			 "SMD_solvation_energy": 8.39 
		},
		"coords": [
			{
				"x": -3.0322784008,
				"y": 1.3382430404,
				"z": -3.2250949711,
				"element": "O" 
			},
			{
				"x": -3.4822954098,
				"y": 0.5843500593,
				"z": -2.3646550876,
				"element": "N" 
			},
			{
				"x": -4.6559405772,
				"y": 0.2268523863,
				"z": -2.2822027686,
				"element": "O" 
			},
			{
				"x": -2.5446005057,
				"y": 0.0674676587,
				"z": -1.3524187437,
				"element": "C" 
			},
			{
				"x": -1.213148099,
				"y": 0.4550833401,
				"z": -1.42178679,
				"element": "C" 
			},
			{
				"x": -0.3041840854,
				"y": -0.023445166,
				"z": -0.4707587544,
				"element": "C" 
			},
			{
				"x": 1.0127434067,
				"y": 0.3858024518,
				"z": -0.5736794547,
				"element": "N" 
			},
			{
				"x": 2.082888014,
				"y": 0.2408818931,
				"z": -0.0171117475,
				"element": "C" 
			},
			{
				"x": 3.1801184821,
				"y": 0.208952927,
				"z": 0.3978036298,
				"element": "O" 
			},
			{
				"x": -0.782160055,
				"y": -0.8930840699,
				"z": 0.5356201505,
				"element": "C" 
			},
			{
				"x": 0.3156653032,
				"y": -1.5126745066,
				"z": 1.7398511931,
				"element": "Cl" 
			},
			{
				"x": -2.1254442856,
				"y": -1.2683010631,
				"z": 0.5842819913,
				"element": "C" 
			},
			{
				"x": -3.0230365538,
				"y": -0.7890923359,
				"z": -0.3638075311,
				"element": "C" 
			},
			{
				"x": -0.877275657,
				"y": 1.1224072158,
				"z": -2.2043642319,
				"element": "H" 
			},
			{
				"x": -2.4594337479,
				"y": -1.9369157438,
				"z": 1.3692584914,
				"element": "H" 
			},
			{
				"x": -4.0694178287,
				"y": -1.0646280872,
				"z": -0.3483353755,
				"element": "H" 
			}
		],
		 "valence_orbital": [ 
			{
				"type": "occ",
				"energy": -0.3221,
				"method": "rhf"
			},
			{
				"type": "occ",
				"energy": -0.3197,
				"method": "rhf"
			},
			{
				"type": "occ",
				"energy": -0.30391,
				"method": "rhf"
			},
			{
				"type": "occ",
				"energy": -0.29187,
				"method": "rhf"
			},
			{
				"type": "occ",
				"energy": -0.26744,
				"method": "rhf"
			},
			{
				"type": "unocc",
				"energy": -0.10429,
				"method": "rhf"
			},
			{
				"type": "unocc",
				"energy": -0.05546,
				"method": "rhf"
			},
			{
				"type": "unocc",
				"energy": -0.02516,
				"method": "rhf"
			},
			{
				"type": "unocc",
				"energy": -0.01506,
				"method": "rhf"
			},
			{
				"type": "unocc",
				"energy": 0.01427,
				"method": "rhf"
			}
		],
		"cosmo_sigma_profile": { 
			"-0.025": 0.0,
			"-0.024": 0.0,
			"-0.023": 0.0,
			"-0.022": 0.0,
			"-0.021": 0.0,
			"-0.02": 0.0,
			"-0.019": 0.0,
			"-0.018": 0.0,
			"-0.017": 0.0,
			"-0.016": 0.0,
			"-0.015": 0.0,
			"-0.014": 0.0,
			"-0.013": 0.0,
			"-0.012": 0.0,
			"-0.011": 0.0,
			"-0.01": 0.0882629719787,
			"-0.009": 2.57095233539,
			"-0.008": 4.96560591576,
			"-0.007": 5.98188955929,
			"-0.006": 6.20573273261,
			"-0.005": 8.87402078888,
			"-0.004": 12.9650140578,
			"-0.003": 16.2791498747,
			"-0.002": 23.7374027479,
			"-0.001": 25.8775834119,
			"0.0": 17.9835146872,
			"0.001": 11.3869207846,
			"0.002": 12.5058699811,
			"0.003": 9.03142555345,
			"0.004": 5.02891801666,
			"0.005": 6.30885544905,
			"0.006": 9.41520048742,
			"0.007": 14.4388022675,
			"0.008": 5.24593619679,
			"0.009": 3.89072929833,
			"0.01": 1.12656026772,
			"0.011": 0.0,
			"0.012": 0.0,
			"0.013": 0.0,
			"0.014": 0.0,
			"0.015": 0.0,
			"0.016": 0.0,
			"0.017": 0.0,
			"0.018": 0.0,
			"0.019": 0.0,
			"0.02": 0.0,
			"0.021": 0.0,
			"0.022": 0.0,
			"0.023": 0.0,
			"0.024": 0.0,
			"0.025": 0.0
		}
	}
}
