{
	 "smiles": "CC1=CC(C)=C(C(=O)P(=O)(C2=CC=CC=C2)C2=CC=CC=C2)C(C)=C1", 
	 "Tm": 363.15, 
	 "num_atms": 46, 
	 "gaussian": { 
		 "optdone": 1, 
		 "sigma_profile": "yes", 
		 "theory": "DFT", 
		 "functional": "B3LYP", 
		 "basiset": "6-31G**", 
		 "properties": { 
			 "R2extent": 9707.1388, 
			 "electric_dipole_moment_norm": 1.28061735893, 
			 "electric_quadrupole_moment_norm": 14.2576972776, 
			 "total_energy": -1342.82668189, 
			 "HOMO_LUMO_gap": 0.16448, 
			 "cosmo_polarized_energy": -13.82, 
			 "cosmo_cavitation_energy": 49.83, 
			 "cosmo_dispersion_energy": -33.18, 
			 "cosmo_repulsion_energy": 2.49, 
			 "cosmo_total_nonelectrostatic_energy": 19.14, 
			 "SMD_solvation_energy": 9.42 
		},
		"coords": [
			{
				"x": 1.9427281388,
				"y": 3.3959370439,
				"z": -4.8065885756,
				"element": "C" 
			},
			{
				"x": 1.527218087,
				"y": 2.6945395268,
				"z": -3.5363679302,
				"element": "C" 
			},
			{
				"x": 2.1948027308,
				"y": 2.9365137596,
				"z": -2.3317696789,
				"element": "C" 
			},
			{
				"x": 1.8445099489,
				"y": 2.2878218963,
				"z": -1.146064382,
				"element": "C" 
			},
			{
				"x": 2.5945462022,
				"y": 2.6291248714,
				"z": 0.123383359,
				"element": "C" 
			},
			{
				"x": 0.8032053994,
				"y": 1.3266499934,
				"z": -1.1844158776,
				"element": "C" 
			},
			{
				"x": 0.4504326151,
				"y": 0.6255134609,
				"z": 0.0838533746,
				"element": "C" 
			},
			{
				"x": 0.2513980794,
				"y": 1.2155225529,
				"z": 1.1364444774,
				"element": "O" 
			},
			{
				"x": 0.4985815046,
				"y": -1.2817816242,
				"z": 0.2091333991,
				"element": "P" 
			},
			{
				"x": 0.7738696544,
				"y": -2.0442165438,
				"z": -1.0594445429,
				"element": "O" 
			},
			{
				"x": -1.0997764278,
				"y": -1.7459140821,
				"z": 0.9715736035,
				"element": "C" 
			},
			{
				"x": -1.7083257329,
				"y": -2.8972122614,
				"z": 0.4486529226,
				"element": "C" 
			},
			{
				"x": -2.9208065879,
				"y": -3.3479930205,
				"z": 0.9714616481,
				"element": "C" 
			},
			{
				"x": -3.5358279297,
				"y": -2.6502787036,
				"z": 2.012317626,
				"element": "C" 
			},
			{
				"x": -2.9391319863,
				"y": -1.4973342572,
				"z": 2.5281539476,
				"element": "C" 
			},
			{
				"x": -1.7248354491,
				"y": -1.0424038902,
				"z": 2.0134981754,
				"element": "C" 
			},
			{
				"x": 1.8300344162,
				"y": -1.5424918551,
				"z": 1.4415075059,
				"element": "C" 
			},
			{
				"x": 1.8823062154,
				"y": -0.9325283535,
				"z": 2.7045937047,
				"element": "C" 
			},
			{
				"x": 2.9354954382,
				"y": -1.2202453912,
				"z": 3.5724445933,
				"element": "C" 
			},
			{
				"x": 3.9385895007,
				"y": -2.1148824241,
				"z": 3.1899658415,
				"element": "C" 
			},
			{
				"x": 3.8912560931,
				"y": -2.7207721224,
				"z": 1.9337385549,
				"element": "C" 
			},
			{
				"x": 2.8416660043,
				"y": -2.4357151981,
				"z": 1.0590259007,
				"element": "C" 
			},
			{
				"x": 0.1043277907,
				"y": 1.0715522062,
				"z": -2.3867231688,
				"element": "C" 
			},
			{
				"x": -1.0570594132,
				"y": 0.106042083,
				"z": -2.4614934917,
				"element": "C" 
			},
			{
				"x": 0.4753741721,
				"y": 1.7746074759,
				"z": -3.5352633114,
				"element": "C" 
			},
			{
				"x": 2.7095538502,
				"y": 2.8190447796,
				"z": -5.3388123706,
				"element": "H" 
			},
			{
				"x": 2.3647226117,
				"y": 4.3839857415,
				"z": -4.5998453185,
				"element": "H" 
			},
			{
				"x": 1.097786446,
				"y": 3.5205890298,
				"z": -5.4902366948,
				"element": "H" 
			},
			{
				"x": 3.0072905943,
				"y": 3.6591884271,
				"z": -2.311048109,
				"element": "H" 
			},
			{
				"x": 2.9230849404,
				"y": 1.7365472769,
				"z": 0.6643761101,
				"element": "H" 
			},
			{
				"x": 3.479126328,
				"y": 3.2273926365,
				"z": -0.1096460952,
				"element": "H" 
			},
			{
				"x": 1.9648342915,
				"y": 3.1991412995,
				"z": 0.8123790916,
				"element": "H" 
			},
			{
				"x": -1.2240121248,
				"y": -3.4226258772,
				"z": -0.3685370637,
				"element": "H" 
			},
			{
				"x": -3.3855291744,
				"y": -4.2410775532,
				"z": 0.5635924309,
				"element": "H" 
			},
			{
				"x": -4.4807588513,
				"y": -3.0004270104,
				"z": 2.4182454818,
				"element": "H" 
			},
			{
				"x": -3.4212862562,
				"y": -0.9478810982,
				"z": 3.3316473964,
				"element": "H" 
			},
			{
				"x": -1.2776385629,
				"y": -0.1354523536,
				"z": 2.4038260186,
				"element": "H" 
			},
			{
				"x": 1.1169034208,
				"y": -0.2252292773,
				"z": 3.002324031,
				"element": "H" 
			},
			{
				"x": 2.9731915442,
				"y": -0.7447399094,
				"z": 4.5483605505,
				"element": "H" 
			},
			{
				"x": 4.7560096449,
				"y": -2.3363442037,
				"z": 3.8704886541,
				"element": "H" 
			},
			{
				"x": 4.6712310745,
				"y": -3.4141442115,
				"z": 1.632439282,
				"element": "H" 
			},
			{
				"x": 2.7901271516,
				"y": -2.894813569,
				"z": 0.0768622759,
				"element": "H" 
			},
			{
				"x": -1.7482609933,
				"y": 0.227774292,
				"z": -1.6205819535,
				"element": "H" 
			},
			{
				"x": -1.6276844571,
				"y": 0.265989948,
				"z": -3.3801482965,
				"element": "H" 
			},
			{
				"x": -0.6967973535,
				"y": -0.9268853156,
				"z": -2.4484971493,
				"element": "H" 
			},
			{
				"x": -0.0766725892,
				"y": 1.5972118057,
				"z": -4.455305947,
				"element": "H" 
			}
		],
		 "valence_orbital": [ 
			{
				"type": "occ",
				"energy": -0.25439,
				"method": "rhf"
			},
			{
				"type": "occ",
				"energy": -0.25281,
				"method": "rhf"
			},
			{
				"type": "occ",
				"energy": -0.23999,
				"method": "rhf"
			},
			{
				"type": "occ",
				"energy": -0.23773,
				"method": "rhf"
			},
			{
				"type": "occ",
				"energy": -0.23199,
				"method": "rhf"
			},
			{
				"type": "unocc",
				"energy": -0.06751,
				"method": "rhf"
			},
			{
				"type": "unocc",
				"energy": -0.03247,
				"method": "rhf"
			},
			{
				"type": "unocc",
				"energy": -0.01152,
				"method": "rhf"
			},
			{
				"type": "unocc",
				"energy": -0.00978,
				"method": "rhf"
			},
			{
				"type": "unocc",
				"energy": -0.00265,
				"method": "rhf"
			}
		],
		"cosmo_sigma_profile": { 
			"-0.025": 0.0,
			"-0.024": 0.0,
			"-0.023": 0.0,
			"-0.022": 0.0,
			"-0.021": 0.0,
			"-0.02": 0.0,
			"-0.019": 0.0,
			"-0.018": 0.0,
			"-0.017": 0.0,
			"-0.016": 0.0,
			"-0.015": 0.0,
			"-0.014": 0.0,
			"-0.013": 0.0,
			"-0.012": 0.0,
			"-0.011": 0.000265515655859,
			"-0.01": 0.00738837834805,
			"-0.009": 0.0121974541704,
			"-0.008": 0.0175742858256,
			"-0.007": 2.21244591419,
			"-0.006": 16.422102187,
			"-0.005": 32.0756938152,
			"-0.004": 40.5870834307,
			"-0.003": 30.7737459668,
			"-0.002": 32.2805610261,
			"-0.001": 36.041524933,
			"0.0": 41.3155431629,
			"0.001": 33.2418815671,
			"0.002": 28.3636292967,
			"0.003": 29.4999334003,
			"0.004": 33.7938312956,
			"0.005": 14.5566329821,
			"0.006": 3.17523861241,
			"0.007": 3.70369689293,
			"0.008": 3.65160202198,
			"0.009": 2.5374709129,
			"0.01": 2.97750846668,
			"0.011": 1.14330796337,
			"0.012": 1.3085483929,
			"0.013": 1.28499636774,
			"0.014": 2.10397192836,
			"0.015": 2.49807300476,
			"0.016": 0.41700039218,
			"0.017": 0.0,
			"0.018": 0.0,
			"0.019": 0.0,
			"0.02": 0.0,
			"0.021": 0.0,
			"0.022": 0.0,
			"0.023": 0.0,
			"0.024": 0.0,
			"0.025": 0.0
		}
	}
}
