{
	 "smiles": "CCN(CC)S(=O)(=O)C1=CC(NC(=O)CCl)=C(OC)C=C1", 
	 "Tm": 374.15, 
	 "num_atms": 40, 
	 "gaussian": { 
		 "optdone": 1, 
		 "sigma_profile": "yes", 
		 "theory": "DFT", 
		 "functional": "B3LYP", 
		 "basiset": "6-31G**", 
		 "properties": { 
			 "R2extent": 9832.2795, 
			 "electric_dipole_moment_norm": 8.50470851117, 
			 "electric_quadrupole_moment_norm": 36.3153791971, 
			 "total_energy": -1775.54290154, 
			 "HOMO_LUMO_gap": 0.19233, 
			 "cosmo_polarized_energy": -24.55, 
			 "cosmo_cavitation_energy": 45.32, 
			 "cosmo_dispersion_energy": -31.2, 
			 "cosmo_repulsion_energy": 2.41, 
			 "cosmo_total_nonelectrostatic_energy": 16.53, 
			 "SMD_solvation_energy": 7.46 
		},
		"coords": [
			{
				"x": 2.0307286896,
				"y": -2.6701975734,
				"z": -1.6149851509,
				"element": "C" 
			},
			{
				"x": 1.2973377224,
				"y": -3.4492778389,
				"z": -0.5169483164,
				"element": "C" 
			},
			{
				"x": 1.0901073781,
				"y": -2.7237542317,
				"z": 0.7490117658,
				"element": "N" 
			},
			{
				"x": 2.2666269838,
				"y": -2.2229568755,
				"z": 1.4798375179,
				"element": "C" 
			},
			{
				"x": 3.2023696495,
				"y": -3.3542273648,
				"z": 1.9103094689,
				"element": "C" 
			},
			{
				"x": -0.3836693648,
				"y": -1.9635758509,
				"z": 1.014521674,
				"element": "S" 
			},
			{
				"x": -1.4018797942,
				"y": -2.7950312019,
				"z": 0.3644219332,
				"element": "O" 
			},
			{
				"x": -0.4342846023,
				"y": -1.6464443842,
				"z": 2.4440874379,
				"element": "O" 
			},
			{
				"x": -0.3823398514,
				"y": -0.3876114387,
				"z": 0.1454818722,
				"element": "C" 
			},
			{
				"x": -0.9435446291,
				"y": -0.3213107245,
				"z": -1.1348709567,
				"element": "C" 
			},
			{
				"x": -0.9571754476,
				"y": 0.8852693787,
				"z": -1.8327205705,
				"element": "C" 
			},
			{
				"x": -1.5020348437,
				"y": 1.0560471747,
				"z": -3.1162404481,
				"element": "N" 
			},
			{
				"x": -2.6316414272,
				"y": 0.5460369046,
				"z": -3.7423184665,
				"element": "C" 
			},
			{
				"x": -2.9280791266,
				"y": 0.9327827905,
				"z": -4.8559157673,
				"element": "O" 
			},
			{
				"x": -3.445114957,
				"y": -0.4957512359,
				"z": -2.9697526389,
				"element": "C" 
			},
			{
				"x": -5.1085232376,
				"y": -0.6504453375,
				"z": -3.6153940932,
				"element": "Cl" 
			},
			{
				"x": -0.3320682716,
				"y": 2.0192685715,
				"z": -1.2459383516,
				"element": "C" 
			},
			{
				"x": -0.3440202404,
				"y": 3.1385096461,
				"z": -2.0197916023,
				"element": "O" 
			},
			{
				"x": 0.2655048364,
				"y": 4.3244492461,
				"z": -1.5203303729,
				"element": "C" 
			},
			{
				"x": 0.2302897233,
				"y": 1.9360336518,
				"z": 0.0276901462,
				"element": "C" 
			},
			{
				"x": 0.1938538902,
				"y": 0.7322968869,
				"z": 0.7363093494,
				"element": "C" 
			},
			{
				"x": 2.129499008,
				"y": -3.2995389533,
				"z": -2.5055396729,
				"element": "H" 
			},
			{
				"x": 1.4875443335,
				"y": -1.7646898225,
				"z": -1.8996753743,
				"element": "H" 
			},
			{
				"x": 3.0396650734,
				"y": -2.3780175187,
				"z": -1.3071157166,
				"element": "H" 
			},
			{
				"x": 0.3143620257,
				"y": -3.7738695868,
				"z": -0.8607699242,
				"element": "H" 
			},
			{
				"x": 1.8533727247,
				"y": -4.3615598152,
				"z": -0.2748188411,
				"element": "H" 
			},
			{
				"x": 2.8171662272,
				"y": -1.4852810291,
				"z": 0.8772892519,
				"element": "H" 
			},
			{
				"x": 1.89431981,
				"y": -1.7144130592,
				"z": 2.3699068067,
				"element": "H" 
			},
			{
				"x": 4.0139678497,
				"y": -2.9430878006,
				"z": 2.5189593943,
				"element": "H" 
			},
			{
				"x": 3.6591937261,
				"y": -3.8651644806,
				"z": 1.0574166196,
				"element": "H" 
			},
			{
				"x": 2.6613217165,
				"y": -4.093198615,
				"z": 2.5076898683,
				"element": "H" 
			},
			{
				"x": -1.3711297873,
				"y": -1.218563669,
				"z": -1.5617203325,
				"element": "H" 
			},
			{
				"x": -1.1235466019,
				"y": 1.8399365058,
				"z": -3.6359062778,
				"element": "H" 
			},
			{
				"x": -2.9752496844,
				"y": -1.4780502595,
				"z": -3.0596449354,
				"element": "H" 
			},
			{
				"x": -3.5183201746,
				"y": -0.2446354757,
				"z": -1.9109140805,
				"element": "H" 
			},
			{
				"x": 0.1422158761,
				"y": 5.0745430573,
				"z": -2.3017553003,
				"element": "H" 
			},
			{
				"x": 1.3335324787,
				"y": 4.1718497178,
				"z": -1.324896745,
				"element": "H" 
			},
			{
				"x": -0.2288288728,
				"y": 4.6685833114,
				"z": -0.6044688448,
				"element": "H" 
			},
			{
				"x": 0.6800046563,
				"y": 2.8089893354,
				"z": 0.4848438225,
				"element": "H" 
			},
			{
				"x": 0.5891665352,
				"y": 0.6765579645,
				"z": 1.7438558518,
				"element": "H" 
			}
		],
		 "valence_orbital": [ 
			{
				"type": "occ",
				"energy": -0.29544,
				"method": "rhf"
			},
			{
				"type": "occ",
				"energy": -0.2749,
				"method": "rhf"
			},
			{
				"type": "occ",
				"energy": -0.27168,
				"method": "rhf"
			},
			{
				"type": "occ",
				"energy": -0.25212,
				"method": "rhf"
			},
			{
				"type": "occ",
				"energy": -0.23315,
				"method": "rhf"
			},
			{
				"type": "unocc",
				"energy": -0.04082,
				"method": "rhf"
			},
			{
				"type": "unocc",
				"energy": -0.03574,
				"method": "rhf"
			},
			{
				"type": "unocc",
				"energy": 0.00629,
				"method": "rhf"
			},
			{
				"type": "unocc",
				"energy": 0.03143,
				"method": "rhf"
			},
			{
				"type": "unocc",
				"energy": 0.05098,
				"method": "rhf"
			}
		],
		"cosmo_sigma_profile": { 
			"-0.025": 0.0,
			"-0.024": 0.0,
			"-0.023": 0.0,
			"-0.022": 0.0,
			"-0.021": 0.0,
			"-0.02": 0.0,
			"-0.019": 0.0,
			"-0.018": 0.0,
			"-0.017": 0.0,
			"-0.016": 0.0,
			"-0.015": 0.0,
			"-0.014": 0.0,
			"-0.013": 0.0126740096306,
			"-0.012": 0.881812320229,
			"-0.011": 2.0075754995,
			"-0.01": 2.89648215971,
			"-0.009": 3.60792311371,
			"-0.008": 6.32828486004,
			"-0.007": 11.7264547802,
			"-0.006": 17.6230917476,
			"-0.005": 19.2231560286,
			"-0.004": 34.3840721749,
			"-0.003": 34.1887356176,
			"-0.002": 32.7193481993,
			"-0.001": 28.8729200794,
			"0.0": 33.2728746727,
			"0.001": 21.0839514562,
			"0.002": 15.8569876894,
			"0.003": 13.5933061041,
			"0.004": 8.80244756734,
			"0.005": 12.5599410942,
			"0.006": 12.7011294076,
			"0.007": 4.97611331569,
			"0.008": 5.08357056442,
			"0.009": 5.67861907019,
			"0.01": 6.82885851733,
			"0.011": 10.1613305469,
			"0.012": 11.3094864456,
			"0.013": 3.30399812363,
			"0.014": 0.701428622328,
			"0.015": 0.0,
			"0.016": 0.0,
			"0.017": 0.0,
			"0.018": 0.0,
			"0.019": 0.0,
			"0.02": 0.0,
			"0.021": 0.0,
			"0.022": 0.0,
			"0.023": 0.0,
			"0.024": 0.0,
			"0.025": 0.0
		}
	}
}
