{
	 "smiles": "OC1=C(OC2=C(F)C=C(C=C2)C#N)C=CC=C1", 
	 "Tm": 371.15, 
	 "num_atms": 25, 
	 "gaussian": { 
		 "optdone": 1, 
		 "sigma_profile": "yes", 
		 "theory": "DFT", 
		 "functional": "B3LYP", 
		 "basiset": "6-31G**", 
		 "properties": { 
			 "R2extent": 5801.3903, 
			 "electric_dipole_moment_norm": 5.39203245261, 
			 "electric_quadrupole_moment_norm": 34.9449347058, 
			 "total_energy": -805.197245841, 
			 "HOMO_LUMO_gap": 0.18026, 
			 "cosmo_polarized_energy": -14.65, 
			 "cosmo_cavitation_energy": 31.67, 
			 "cosmo_dispersion_energy": -22.06, 
			 "cosmo_repulsion_energy": 1.7, 
			 "cosmo_total_nonelectrostatic_energy": 11.31, 
			 "SMD_solvation_energy": 7.8 
		},
		"coords": [
			{
				"x": -2.5400186937,
				"y": -0.7542057286,
				"z": 1.1136493706,
				"element": "O" 
			},
			{
				"x": -2.7052456553,
				"y": -1.2488757189,
				"z": -0.1476028298,
				"element": "C" 
			},
			{
				"x": -1.7250364828,
				"y": -0.9348644726,
				"z": -1.1033044328,
				"element": "C" 
			},
			{
				"x": -0.5764985397,
				"y": -0.2290861065,
				"z": -0.7651808425,
				"element": "O" 
			},
			{
				"x": -0.6006190611,
				"y": 0.9742479404,
				"z": -0.1223012594,
				"element": "C" 
			},
			{
				"x": -1.6281845221,
				"y": 1.9236035535,
				"z": -0.2310145728,
				"element": "C" 
			},
			{
				"x": -2.7177596192,
				"y": 1.6456469415,
				"z": -0.9730686138,
				"element": "F" 
			},
			{
				"x": -1.5519976623,
				"y": 3.1499064463,
				"z": 0.4056558081,
				"element": "C" 
			},
			{
				"x": -0.4136829872,
				"y": 3.4673154225,
				"z": 1.1650701568,
				"element": "C" 
			},
			{
				"x": 0.631640571,
				"y": 2.5341239393,
				"z": 1.2693853587,
				"element": "C" 
			},
			{
				"x": 0.5303650507,
				"y": 1.304207834,
				"z": 0.6320370394,
				"element": "C" 
			},
			{
				"x": -0.3239654336,
				"y": 4.7352719903,
				"z": 1.824388002,
				"element": "C" 
			},
			{
				"x": -0.2488956948,
				"y": 5.7643935835,
				"z": 2.3623397765,
				"element": "N" 
			},
			{
				"x": -1.8179234538,
				"y": -1.430609728,
				"z": -2.3982805028,
				"element": "C" 
			},
			{
				"x": -2.8982199041,
				"y": -2.2343244964,
				"z": -2.7683422447,
				"element": "C" 
			},
			{
				"x": -3.8851879176,
				"y": -2.5356187288,
				"z": -1.8310632179,
				"element": "C" 
			},
			{
				"x": -3.7877412672,
				"y": -2.0443160414,
				"z": -0.5277041708,
				"element": "C" 
			},
			{
				"x": -3.294417168,
				"y": -1.0136244126,
				"z": 1.6581741289,
				"element": "H" 
			},
			{
				"x": -2.3716143433,
				"y": 3.8507246936,
				"z": 0.296774097,
				"element": "H" 
			},
			{
				"x": 1.5128961486,
				"y": 2.7758849702,
				"z": 1.852751726,
				"element": "H" 
			},
			{
				"x": 1.3223774157,
				"y": 0.567049648,
				"z": 0.7049008993,
				"element": "H" 
			},
			{
				"x": -1.0325204793,
				"y": -1.1760342149,
				"z": -3.1022666201,
				"element": "H" 
			},
			{
				"x": -2.9654156062,
				"y": -2.6159242298,
				"z": -3.7817918139,
				"element": "H" 
			},
			{
				"x": -4.7326737199,
				"y": -3.1558309163,
				"z": -2.1057141198,
				"element": "H" 
			},
			{
				"x": -4.5523609747,
				"y": -2.2843621683,
				"z": 0.2083088777,
				"element": "H" 
			}
		],
		 "valence_orbital": [ 
			{
				"type": "occ",
				"energy": -0.3257,
				"method": "rhf"
			},
			{
				"type": "occ",
				"energy": -0.27193,
				"method": "rhf"
			},
			{
				"type": "occ",
				"energy": -0.26059,
				"method": "rhf"
			},
			{
				"type": "occ",
				"energy": -0.24347,
				"method": "rhf"
			},
			{
				"type": "occ",
				"energy": -0.22754,
				"method": "rhf"
			},
			{
				"type": "unocc",
				"energy": -0.04728,
				"method": "rhf"
			},
			{
				"type": "unocc",
				"energy": -0.02047,
				"method": "rhf"
			},
			{
				"type": "unocc",
				"energy": -0.00937,
				"method": "rhf"
			},
			{
				"type": "unocc",
				"energy": 0.00094,
				"method": "rhf"
			},
			{
				"type": "unocc",
				"energy": 0.03754,
				"method": "rhf"
			}
		],
		"cosmo_sigma_profile": { 
			"-0.025": 0.0,
			"-0.024": 0.0,
			"-0.023": 0.0,
			"-0.022": 0.0,
			"-0.021": 0.0,
			"-0.02": 0.0,
			"-0.019": 0.0620379007241,
			"-0.018": 0.945655481286,
			"-0.017": 1.28823950115,
			"-0.016": 1.05456075974,
			"-0.015": 0.839568856735,
			"-0.014": 1.3108068824,
			"-0.013": 1.06380898404,
			"-0.012": 0.661822499632,
			"-0.011": 1.07179444504,
			"-0.01": 1.10127104581,
			"-0.009": 2.89137729335,
			"-0.008": 7.23938799683,
			"-0.007": 8.71414534053,
			"-0.006": 11.845518382,
			"-0.005": 13.126305657,
			"-0.004": 14.1054097476,
			"-0.003": 11.9812039501,
			"-0.002": 14.1786344959,
			"-0.001": 19.3909000684,
			"0.0": 17.9077397836,
			"0.001": 18.9071464156,
			"0.002": 17.2912346432,
			"0.003": 19.6305419613,
			"0.004": 21.2707610097,
			"0.005": 15.3740306082,
			"0.006": 7.12752237244,
			"0.007": 5.81605729679,
			"0.008": 5.10526392795,
			"0.009": 4.35634354627,
			"0.01": 3.54098276678,
			"0.011": 2.74218308797,
			"0.012": 2.4703727312,
			"0.013": 1.54753194739,
			"0.014": 0.0379170593341,
			"0.015": 0.0,
			"0.016": 0.0,
			"0.017": 0.0,
			"0.018": 0.0,
			"0.019": 0.0,
			"0.02": 0.0,
			"0.021": 0.0,
			"0.022": 0.0,
			"0.023": 0.0,
			"0.024": 0.0,
			"0.025": 0.0
		}
	}
}
