{
	 "smiles": "CC(C)C1CCC(C)CC1OC(=O)C(CC1=CC=CC=C1)=CC1=CC=CC=C1", 
	 "Tm": 337.65, 
	 "num_atms": 60, 
	 "gaussian": { 
		 "optdone": 1, 
		 "sigma_profile": "yes", 
		 "theory": "DFT", 
		 "functional": "B3LYP", 
		 "basiset": "6-31G**", 
		 "properties": { 
			 "R2extent": 13671.2565, 
			 "electric_dipole_moment_norm": 2.15799686283, 
			 "electric_quadrupole_moment_norm": 10.5038222781, 
			 "total_energy": -1160.52932446, 
			 "HOMO_LUMO_gap": 0.17762, 
			 "cosmo_polarized_energy": -9.78, 
			 "cosmo_cavitation_energy": 58.47, 
			 "cosmo_dispersion_energy": -38.25, 
			 "cosmo_repulsion_energy": 2.91, 
			 "cosmo_total_nonelectrostatic_energy": 23.13, 
			 "SMD_solvation_energy": 9.59 
		},
		"coords": [
			{
				"x": 3.6255214135,
				"y": -3.2646584455,
				"z": 2.4093425327,
				"element": "C" 
			},
			{
				"x": 3.571484696,
				"y": -2.5180678763,
				"z": 1.0662602148,
				"element": "C" 
			},
			{
				"x": 4.9876017484,
				"y": -2.4163576039,
				"z": 0.4732242369,
				"element": "C" 
			},
			{
				"x": 2.8653411494,
				"y": -1.126859125,
				"z": 1.0602160848,
				"element": "C" 
			},
			{
				"x": 3.4517324129,
				"y": -0.0513347312,
				"z": 2.0086304821,
				"element": "C" 
			},
			{
				"x": 2.8951894655,
				"y": -0.0684179244,
				"z": 3.4432335695,
				"element": "C" 
			},
			{
				"x": 1.3558180604,
				"y": 0.005714045,
				"z": 3.486078713,
				"element": "C" 
			},
			{
				"x": 0.8226302691,
				"y": 1.4012933347,
				"z": 3.1229518623,
				"element": "C" 
			},
			{
				"x": 0.7666221536,
				"y": -1.1280675867,
				"z": 2.6203718036,
				"element": "C" 
			},
			{
				"x": 1.3245952287,
				"y": -1.2386890938,
				"z": 1.1976650757,
				"element": "C" 
			},
			{
				"x": 0.6880390475,
				"y": -0.1711510392,
				"z": 0.4234583019,
				"element": "O" 
			},
			{
				"x": 0.5170055167,
				"y": -0.4015274059,
				"z": -0.8981202605,
				"element": "C" 
			},
			{
				"x": 0.8903867925,
				"y": -1.4234140467,
				"z": -1.4500695283,
				"element": "O" 
			},
			{
				"x": -0.1533758344,
				"y": 0.7170437823,
				"z": -1.6330446152,
				"element": "C" 
			},
			{
				"x": -0.5718943354,
				"y": 0.3618368283,
				"z": -3.0488235865,
				"element": "C" 
			},
			{
				"x": -1.7883672676,
				"y": -0.5576741249,
				"z": -3.0805855363,
				"element": "C" 
			},
			{
				"x": -3.0726830714,
				"y": -0.0252540252,
				"z": -2.8995170929,
				"element": "C" 
			},
			{
				"x": -4.1987159684,
				"y": -0.847899856,
				"z": -2.9351934647,
				"element": "C" 
			},
			{
				"x": -4.0566047654,
				"y": -2.220306515,
				"z": -3.1518849322,
				"element": "C" 
			},
			{
				"x": -2.7820536574,
				"y": -2.7604673811,
				"z": -3.3295091878,
				"element": "C" 
			},
			{
				"x": -1.6561706122,
				"y": -1.9353447653,
				"z": -3.2923948432,
				"element": "C" 
			},
			{
				"x": -0.3561090586,
				"y": 1.8980848875,
				"z": -1.0109267808,
				"element": "C" 
			},
			{
				"x": -0.9207249949,
				"y": 3.149679335,
				"z": -1.5524790684,
				"element": "C" 
			},
			{
				"x": -0.5382664881,
				"y": 3.6920564743,
				"z": -2.7926722276,
				"element": "C" 
			},
			{
				"x": -1.0800471219,
				"y": 4.8954273035,
				"z": -3.2430905292,
				"element": "C" 
			},
			{
				"x": -2.0126520382,
				"y": 5.5838275864,
				"z": -2.4648771691,
				"element": "C" 
			},
			{
				"x": -2.3865933174,
				"y": 5.0691287101,
				"z": -1.2214861727,
				"element": "C" 
			},
			{
				"x": -1.8363448427,
				"y": 3.8728496928,
				"z": -0.7656971112,
				"element": "C" 
			},
			{
				"x": 4.0608319556,
				"y": -4.2598083046,
				"z": 2.2651626079,
				"element": "H" 
			},
			{
				"x": 2.6368816834,
				"y": -3.4061546828,
				"z": 2.8553342278,
				"element": "H" 
			},
			{
				"x": 4.2531917777,
				"y": -2.7417002362,
				"z": 3.1388247714,
				"element": "H" 
			},
			{
				"x": 2.9846420762,
				"y": -3.1363553648,
				"z": 0.3722040677,
				"element": "H" 
			},
			{
				"x": 4.9748140651,
				"y": -1.9426349148,
				"z": -0.5141283455,
				"element": "H" 
			},
			{
				"x": 5.6588098147,
				"y": -1.8352784395,
				"z": 1.1159586379,
				"element": "H" 
			},
			{
				"x": 5.4301235034,
				"y": -3.411926042,
				"z": 0.3602409791,
				"element": "H" 
			},
			{
				"x": 3.0244110541,
				"y": -0.7672166098,
				"z": 0.0376588635,
				"element": "H" 
			},
			{
				"x": 3.2491441064,
				"y": 0.932489684,
				"z": 1.5685857361,
				"element": "H" 
			},
			{
				"x": 4.5435638721,
				"y": -0.1387695021,
				"z": 2.0377215974,
				"element": "H" 
			},
			{
				"x": 3.2179328943,
				"y": -0.9790260965,
				"z": 3.9602037017,
				"element": "H" 
			},
			{
				"x": 3.3227300762,
				"y": 0.7711559426,
				"z": 4.0060257849,
				"element": "H" 
			},
			{
				"x": 1.0419058188,
				"y": -0.1929868211,
				"z": 4.5201466675,
				"element": "H" 
			},
			{
				"x": 1.1257805407,
				"y": 1.7115708916,
				"z": 2.1200327792,
				"element": "H" 
			},
			{
				"x": -0.2722817521,
				"y": 1.4215980199,
				"z": 3.1559476081,
				"element": "H" 
			},
			{
				"x": 1.192438522,
				"y": 2.1492686017,
				"z": 3.8335027196,
				"element": "H" 
			},
			{
				"x": -0.323982032,
				"y": -1.0390572937,
				"z": 2.554805086,
				"element": "H" 
			},
			{
				"x": 0.9683368499,
				"y": -2.0826814918,
				"z": 3.1205907977,
				"element": "H" 
			},
			{
				"x": 0.9982302557,
				"y": -2.179982373,
				"z": 0.7474779885,
				"element": "H" 
			},
			{
				"x": 0.2652122654,
				"y": -0.127815846,
				"z": -3.5541936388,
				"element": "H" 
			},
			{
				"x": -0.8094472548,
				"y": 1.2714199213,
				"z": -3.6011182044,
				"element": "H" 
			},
			{
				"x": -3.1894297288,
				"y": 1.0426853976,
				"z": -2.7317532232,
				"element": "H" 
			},
			{
				"x": -5.1867808944,
				"y": -0.4169534501,
				"z": -2.797675932,
				"element": "H" 
			},
			{
				"x": -4.9324582634,
				"y": -2.862435398,
				"z": -3.1827600489,
				"element": "H" 
			},
			{
				"x": -2.6614704951,
				"y": -3.8273187357,
				"z": -3.4972544335,
				"element": "H" 
			},
			{
				"x": -0.6643442406,
				"y": -2.3592102477,
				"z": -3.4119656622,
				"element": "H" 
			},
			{
				"x": -0.0967783118,
				"y": 1.9384385699,
				"z": 0.0440984184,
				"element": "H" 
			},
			{
				"x": 0.2130434555,
				"y": 3.1857059199,
				"z": -3.3899334279,
				"element": "H" 
			},
			{
				"x": -0.7651900427,
				"y": 5.3004110764,
				"z": -4.2006204808,
				"element": "H" 
			},
			{
				"x": -2.4345219098,
				"y": 6.5201481345,
				"z": -2.8182750192,
				"element": "H" 
			},
			{
				"x": -3.1019584936,
				"y": 5.6035858471,
				"z": -0.6029281449,
				"element": "H" 
			},
			{
				"x": -2.1237457482,
				"y": 3.4808834101,
				"z": 0.2064227503,
				"element": "H" 
			}
		],
		 "valence_orbital": [ 
			{
				"type": "occ",
				"energy": -0.26571,
				"method": "rhf"
			},
			{
				"type": "occ",
				"energy": -0.25649,
				"method": "rhf"
			},
			{
				"type": "occ",
				"energy": -0.23865,
				"method": "rhf"
			},
			{
				"type": "occ",
				"energy": -0.23387,
				"method": "rhf"
			},
			{
				"type": "occ",
				"energy": -0.23003,
				"method": "rhf"
			},
			{
				"type": "unocc",
				"energy": -0.05241,
				"method": "rhf"
			},
			{
				"type": "unocc",
				"energy": -0.00817,
				"method": "rhf"
			},
			{
				"type": "unocc",
				"energy": 0.00742,
				"method": "rhf"
			},
			{
				"type": "unocc",
				"energy": 0.01028,
				"method": "rhf"
			},
			{
				"type": "unocc",
				"energy": 0.0147,
				"method": "rhf"
			}
		],
		"cosmo_sigma_profile": { 
			"-0.025": 0.0,
			"-0.024": 0.0,
			"-0.023": 0.0,
			"-0.022": 0.0,
			"-0.021": 0.0,
			"-0.02": 0.0,
			"-0.019": 0.0,
			"-0.018": 0.0,
			"-0.017": 0.0,
			"-0.016": 0.0,
			"-0.015": 0.0,
			"-0.014": 0.0,
			"-0.013": 0.0,
			"-0.012": 0.0,
			"-0.011": 0.0,
			"-0.01": 0.0,
			"-0.009": 0.0,
			"-0.008": 0.0,
			"-0.007": 0.038731028922,
			"-0.006": 8.36096397024,
			"-0.005": 19.1194961304,
			"-0.004": 28.7325298209,
			"-0.003": 43.0281316027,
			"-0.002": 62.131945989,
			"-0.001": 62.9020033209,
			"0.0": 56.7910624587,
			"0.001": 53.5168294265,
			"0.002": 35.8194122846,
			"0.003": 20.7237538663,
			"0.004": 20.7381361929,
			"0.005": 19.4724824057,
			"0.006": 13.7656241968,
			"0.007": 4.54746838094,
			"0.008": 2.10840977413,
			"0.009": 1.75121761996,
			"0.01": 1.59433815448,
			"0.011": 1.6248797256,
			"0.012": 1.98855562893,
			"0.013": 0.152251455604,
			"0.014": 0.0,
			"0.015": 0.0,
			"0.016": 0.0,
			"0.017": 0.0,
			"0.018": 0.0,
			"0.019": 0.0,
			"0.02": 0.0,
			"0.021": 0.0,
			"0.022": 0.0,
			"0.023": 0.0,
			"0.024": 0.0,
			"0.025": 0.0
		}
	}
}
