{
	 "smiles": "CCOC(=O)CCC(=O)C1=CC=C(OC)C=C1", 
	 "Tm": 324.15, 
	 "num_atms": 33, 
	 "gaussian": { 
		 "optdone": 1, 
		 "sigma_profile": "yes", 
		 "theory": "DFT", 
		 "functional": "B3LYP", 
		 "basiset": "6-31G**", 
		 "properties": { 
			 "R2extent": 6510.1314, 
			 "electric_dipole_moment_norm": 5.56564873667, 
			 "electric_quadrupole_moment_norm": 15.3412671038, 
			 "total_energy": -805.929601806, 
			 "HOMO_LUMO_gap": 0.18207, 
			 "cosmo_polarized_energy": -16.25, 
			 "cosmo_cavitation_energy": 37.46, 
			 "cosmo_dispersion_energy": -25.57, 
			 "cosmo_repulsion_energy": 2.02, 
			 "cosmo_total_nonelectrostatic_energy": 13.92, 
			 "SMD_solvation_energy": 8.47 
		},
		"coords": [
			{
				"x": -0.4650882646,
				"y": 3.0393517597,
				"z": 2.4460619531,
				"element": "C" 
			},
			{
				"x": 0.8284037632,
				"y": 2.8217834641,
				"z": 1.6847425355,
				"element": "C" 
			},
			{
				"x": 0.7884448886,
				"y": 1.4832929297,
				"z": 1.135462048,
				"element": "O" 
			},
			{
				"x": 1.8406328252,
				"y": 1.1335093875,
				"z": 0.3696090261,
				"element": "C" 
			},
			{
				"x": 2.8152485448,
				"y": 1.8318641715,
				"z": 0.190948162,
				"element": "O" 
			},
			{
				"x": 1.6356293721,
				"y": -0.2297692176,
				"z": -0.2671303815,
				"element": "C" 
			},
			{
				"x": 1.2102441613,
				"y": -0.0840289059,
				"z": -1.7507865996,
				"element": "C" 
			},
			{
				"x": -0.1661399841,
				"y": 0.5657515288,
				"z": -1.8874006772,
				"element": "C" 
			},
			{
				"x": -0.2444542034,
				"y": 1.7848187512,
				"z": -1.9783993269,
				"element": "O" 
			},
			{
				"x": -1.3949901237,
				"y": -0.2786921787,
				"z": -1.8715702261,
				"element": "C" 
			},
			{
				"x": -2.6436128483,
				"y": 0.3668569204,
				"z": -1.9813858363,
				"element": "C" 
			},
			{
				"x": -3.824001994,
				"y": -0.3520960884,
				"z": -1.9694963239,
				"element": "C" 
			},
			{
				"x": -3.7936507303,
				"y": -1.7532211994,
				"z": -1.8410718897,
				"element": "C" 
			},
			{
				"x": -5.0039506666,
				"y": -2.3691063732,
				"z": -1.8387063315,
				"element": "O" 
			},
			{
				"x": -5.0475403065,
				"y": -3.7839894056,
				"z": -1.7115085257,
				"element": "C" 
			},
			{
				"x": -2.5634684236,
				"y": -2.4144975039,
				"z": -1.7267594064,
				"element": "C" 
			},
			{
				"x": -1.3810580286,
				"y": -1.674043352,
				"z": -1.7451224625,
				"element": "C" 
			},
			{
				"x": -0.477173025,
				"y": 4.0451910372,
				"z": 2.8775588443,
				"element": "H" 
			},
			{
				"x": -1.3275039947,
				"y": 2.9388602457,
				"z": 1.7811884098,
				"element": "H" 
			},
			{
				"x": -0.5691403136,
				"y": 2.3150282085,
				"z": 3.2593671734,
				"element": "H" 
			},
			{
				"x": 1.7082493983,
				"y": 2.912140477,
				"z": 2.3298367326,
				"element": "H" 
			},
			{
				"x": 0.945922403,
				"y": 3.5308338891,
				"z": 0.86012539,
				"element": "H" 
			},
			{
				"x": 0.8916677958,
				"y": -0.7993326965,
				"z": 0.2959871906,
				"element": "H" 
			},
			{
				"x": 2.5923567078,
				"y": -0.7578424476,
				"z": -0.2258586899,
				"element": "H" 
			},
			{
				"x": 1.9242664939,
				"y": 0.5699451317,
				"z": -2.2576359511,
				"element": "H" 
			},
			{
				"x": 1.245213159,
				"y": -1.0656214245,
				"z": -2.2317174529,
				"element": "H" 
			},
			{
				"x": -2.6501453513,
				"y": 1.4473583409,
				"z": -2.0770427558,
				"element": "H" 
			},
			{
				"x": -4.7887902297,
				"y": 0.1368546734,
				"z": -2.0562311091,
				"element": "H" 
			},
			{
				"x": -4.6088302763,
				"y": -4.1167603317,
				"z": -0.7626358356,
				"element": "H" 
			},
			{
				"x": -6.1039395493,
				"y": -4.0543690566,
				"z": -1.7338620457,
				"element": "H" 
			},
			{
				"x": -4.5296391435,
				"y": -4.2792098035,
				"z": -2.5422175973,
				"element": "H" 
			},
			{
				"x": -2.5159893628,
				"y": -3.4920341712,
				"z": -1.6261670253,
				"element": "H" 
			},
			{
				"x": -0.4413726931,
				"y": -2.2091267601,
				"z": -1.6549810154,
				"element": "H" 
			}
		],
		 "valence_orbital": [ 
			{
				"type": "occ",
				"energy": -0.29047,
				"method": "rhf"
			},
			{
				"type": "occ",
				"energy": -0.26367,
				"method": "rhf"
			},
			{
				"type": "occ",
				"energy": -0.26098,
				"method": "rhf"
			},
			{
				"type": "occ",
				"energy": -0.24251,
				"method": "rhf"
			},
			{
				"type": "occ",
				"energy": -0.23241,
				"method": "rhf"
			},
			{
				"type": "unocc",
				"energy": -0.05034,
				"method": "rhf"
			},
			{
				"type": "unocc",
				"energy": -0.01207,
				"method": "rhf"
			},
			{
				"type": "unocc",
				"energy": 0.01754,
				"method": "rhf"
			},
			{
				"type": "unocc",
				"energy": 0.04612,
				"method": "rhf"
			},
			{
				"type": "unocc",
				"energy": 0.08209,
				"method": "rhf"
			}
		],
		"cosmo_sigma_profile": { 
			"-0.025": 0.0,
			"-0.024": 0.0,
			"-0.023": 0.0,
			"-0.022": 0.0,
			"-0.021": 0.0,
			"-0.02": 0.0,
			"-0.019": 0.0,
			"-0.018": 0.0,
			"-0.017": 0.0,
			"-0.016": 0.0,
			"-0.015": 0.0,
			"-0.014": 0.0,
			"-0.013": 0.0,
			"-0.012": 0.0,
			"-0.011": 0.0,
			"-0.01": 0.0,
			"-0.009": 0.122421385128,
			"-0.008": 1.5181979549,
			"-0.007": 6.1499682062,
			"-0.006": 17.6129725085,
			"-0.005": 26.8705628266,
			"-0.004": 36.1424987854,
			"-0.003": 32.0337725666,
			"-0.002": 24.036267459,
			"-0.001": 18.1407954365,
			"0.0": 18.047528592,
			"0.001": 13.612790094,
			"0.002": 16.5002527381,
			"0.003": 18.3068387837,
			"0.004": 16.2061480052,
			"0.005": 7.66913877717,
			"0.006": 7.82487915741,
			"0.007": 4.8308935136,
			"0.008": 5.23741772232,
			"0.009": 4.83682831564,
			"0.01": 4.21798345859,
			"0.011": 4.56006691278,
			"0.012": 8.16110122141,
			"0.013": 3.08787383242,
			"0.014": 0.0965481598919,
			"0.015": 0.0,
			"0.016": 0.0,
			"0.017": 0.0,
			"0.018": 0.0,
			"0.019": 0.0,
			"0.02": 0.0,
			"0.021": 0.0,
			"0.022": 0.0,
			"0.023": 0.0,
			"0.024": 0.0,
			"0.025": 0.0
		}
	}
}
