{
	 "smiles": "CC(=O)NC1=CC=C(Br)C(F)=C1", 
	 "Tm": 424.15, 
	 "num_atms": 19, 
	 "gaussian": { 
		 "optdone": 1, 
		 "sigma_profile": "yes", 
		 "theory": "DFT", 
		 "functional": "B3LYP", 
		 "basiset": "6-31G**", 
		 "properties": { 
			 "R2extent": 4482.4791, 
			 "electric_dipole_moment_norm": 0.548230872899, 
			 "electric_quadrupole_moment_norm": 16.8403172951, 
			 "total_energy": -3110.29471677, 
			 "HOMO_LUMO_gap": 0.19465, 
			 "cosmo_polarized_energy": -11.72, 
			 "cosmo_cavitation_energy": 26.2, 
			 "cosmo_dispersion_energy": -19.57, 
			 "cosmo_repulsion_energy": 1.53, 
			 "cosmo_total_nonelectrostatic_energy": 8.17, 
			 "SMD_solvation_energy": 4.72 
		},
		"coords": [
			{
				"x": 0.8438628719,
				"y": 2.8081517089,
				"z": 0.9154136618,
				"element": "C" 
			},
			{
				"x": -0.5390898204,
				"y": 2.4663487846,
				"z": 1.4248615834,
				"element": "C" 
			},
			{
				"x": -1.2191010673,
				"y": 3.274556566,
				"z": 2.0386555965,
				"element": "O" 
			},
			{
				"x": -1.0730117842,
				"y": 1.200430217,
				"z": 1.2001241733,
				"element": "N" 
			},
			{
				"x": -0.6493496666,
				"y": 0.0233310232,
				"z": 0.5676163849,
				"element": "C" 
			},
			{
				"x": -1.5519580562,
				"y": -1.059378387,
				"z": 0.5816632266,
				"element": "C" 
			},
			{
				"x": -1.2320921063,
				"y": -2.2715005612,
				"z": -0.0158416495,
				"element": "C" 
			},
			{
				"x": -0.0009892933,
				"y": -2.4458420413,
				"z": -0.648085866,
				"element": "C" 
			},
			{
				"x": 0.4626940654,
				"y": -4.0908406488,
				"z": -1.4721933909,
				"element": "Br" 
			},
			{
				"x": 0.8881630327,
				"y": -1.3756519957,
				"z": -0.6607085431,
				"element": "C" 
			},
			{
				"x": 2.082360147,
				"y": -1.504647557,
				"z": -1.2591594295,
				"element": "F" 
			},
			{
				"x": 0.5881181193,
				"y": -0.1538606151,
				"z": -0.0687453389,
				"element": "C" 
			},
			{
				"x": 1.0482021221,
				"y": 3.8384335447,
				"z": 1.2047979241,
				"element": "H" 
			},
			{
				"x": 1.6051369469,
				"y": 2.1548323006,
				"z": 1.3529420146,
				"element": "H" 
			},
			{
				"x": 0.902094503,
				"y": 2.7232085701,
				"z": -0.1741634094,
				"element": "H" 
			},
			{
				"x": -1.9991021466,
				"y": 1.1512557425,
				"z": 1.6084463523,
				"element": "H" 
			},
			{
				"x": -2.5163070476,
				"y": -0.9456441777,
				"z": 1.0684653687,
				"element": "H" 
			},
			{
				"x": -1.9405177564,
				"y": -3.0918156005,
				"z": 0.0061859562,
				"element": "H" 
			},
			{
				"x": 1.3393869365,
				"y": 0.6178331267,
				"z": -0.1285746151,
				"element": "H" 
			}
		],
		 "valence_orbital": [ 
			{
				"type": "occ",
				"energy": -0.29462,
				"method": "rhf"
			},
			{
				"type": "occ",
				"energy": -0.29273,
				"method": "rhf"
			},
			{
				"type": "occ",
				"energy": -0.2705,
				"method": "rhf"
			},
			{
				"type": "occ",
				"energy": -0.26805,
				"method": "rhf"
			},
			{
				"type": "occ",
				"energy": -0.22825,
				"method": "rhf"
			},
			{
				"type": "unocc",
				"energy": -0.0336,
				"method": "rhf"
			},
			{
				"type": "unocc",
				"energy": -0.02201,
				"method": "rhf"
			},
			{
				"type": "unocc",
				"energy": -0.0031,
				"method": "rhf"
			},
			{
				"type": "unocc",
				"energy": 0.02554,
				"method": "rhf"
			},
			{
				"type": "unocc",
				"energy": 0.07649,
				"method": "rhf"
			}
		],
		"cosmo_sigma_profile": { 
			"-0.025": 0.0,
			"-0.024": 0.0,
			"-0.023": 0.0,
			"-0.022": 0.0,
			"-0.021": 0.0,
			"-0.02": 0.0,
			"-0.019": 0.0,
			"-0.018": 0.0,
			"-0.017": 0.0,
			"-0.016": 0.0,
			"-0.015": 0.24663148052,
			"-0.014": 1.33994697521,
			"-0.013": 1.00359047341,
			"-0.012": 1.215909957,
			"-0.011": 1.32838089212,
			"-0.01": 1.34628348158,
			"-0.009": 1.32537835238,
			"-0.008": 5.14238242252,
			"-0.007": 10.1938166728,
			"-0.006": 10.0903198711,
			"-0.005": 10.8371779763,
			"-0.004": 10.5941225872,
			"-0.003": 10.8332702573,
			"-0.002": 13.8743185584,
			"-0.001": 13.0233370185,
			"0.0": 17.2754009826,
			"0.001": 20.7403194583,
			"0.002": 19.4303337366,
			"0.003": 18.5248272988,
			"0.004": 19.0352377318,
			"0.005": 6.99694118768,
			"0.006": 1.97277058061,
			"0.007": 1.37817771549,
			"0.008": 0.575840725893,
			"0.009": 1.66258707493,
			"0.01": 0.977326742057,
			"0.011": 1.89349610922,
			"0.012": 3.97882082552,
			"0.013": 4.94453739604,
			"0.014": 1.36875293218,
			"0.015": 0.0383044210285,
			"0.016": 0.0,
			"0.017": 0.0,
			"0.018": 0.0,
			"0.019": 0.0,
			"0.02": 0.0,
			"0.021": 0.0,
			"0.022": 0.0,
			"0.023": 0.0,
			"0.024": 0.0,
			"0.025": 0.0
		}
	}
}
