{
	 "smiles": "CC1=CC(=O)OC(C)(C)O1", 
	 "Tm": 280.15, 
	 "num_atms": 20, 
	 "gaussian": { 
		 "optdone": 1, 
		 "sigma_profile": "yes", 
		 "theory": "DFT", 
		 "functional": "B3LYP", 
		 "basiset": "6-31G**", 
		 "properties": { 
			 "R2extent": 1759.8155, 
			 "electric_dipole_moment_norm": 4.71866146486, 
			 "electric_quadrupole_moment_norm": 16.3964324412, 
			 "total_energy": -498.451796215, 
			 "HOMO_LUMO_gap": 0.21297, 
			 "cosmo_polarized_energy": -11.17, 
			 "cosmo_cavitation_energy": 23.14, 
			 "cosmo_dispersion_energy": -16.8, 
			 "cosmo_repulsion_energy": 1.39, 
			 "cosmo_total_nonelectrostatic_energy": 7.73, 
			 "SMD_solvation_energy": 5.6 
		},
		"coords": [
			{
				"x": 1.2110579655,
				"y": -2.4658265822,
				"z": -0.1408990679,
				"element": "C" 
			},
			{
				"x": 1.2611453058,
				"y": -1.0452872931,
				"z": 0.3217627492,
				"element": "C" 
			},
			{
				"x": 2.3790404244,
				"y": -0.3529648185,
				"z": 0.6321918774,
				"element": "C" 
			},
			{
				"x": 2.2851579383,
				"y": 0.9596290996,
				"z": 1.2610143996,
				"element": "C" 
			},
			{
				"x": 3.2019509083,
				"y": 1.5911081437,
				"z": 1.7322660315,
				"element": "O" 
			},
			{
				"x": 0.9953963428,
				"y": 1.4491902481,
				"z": 1.3937815998,
				"element": "O" 
			},
			{
				"x": -0.0220938502,
				"y": 0.9513615685,
				"z": 0.5295189886,
				"element": "C" 
			},
			{
				"x": 0.1238688726,
				"y": 1.5489460863,
				"z": -0.8703407523,
				"element": "C" 
			},
			{
				"x": -1.3506668572,
				"y": 1.2777416071,
				"z": 1.1881964983,
				"element": "C" 
			},
			{
				"x": 0.029867002,
				"y": -0.4947688702,
				"z": 0.4312462901,
				"element": "O" 
			},
			{
				"x": 0.7523554372,
				"y": -2.528427469,
				"z": -1.1336890512,
				"element": "H" 
			},
			{
				"x": 0.5891686482,
				"y": -3.0569199179,
				"z": 0.5402712665,
				"element": "H" 
			},
			{
				"x": 2.2109032548,
				"y": -2.9011169016,
				"z": -0.1770335384,
				"element": "H" 
			},
			{
				"x": 3.3610013318,
				"y": -0.7962569851,
				"z": 0.539773351,
				"element": "H" 
			},
			{
				"x": 1.0749779192,
				"y": 1.2584063255,
				"z": -1.3226384197,
				"element": "H" 
			},
			{
				"x": -0.6917345602,
				"y": 1.2060240141,
				"z": -1.5121348407,
				"element": "H" 
			},
			{
				"x": 0.0916500565,
				"y": 2.6391054604,
				"z": -0.8044610597,
				"element": "H" 
			},
			{
				"x": -2.1748714446,
				"y": 0.8887475988,
				"z": 0.5855051676,
				"element": "H" 
			},
			{
				"x": -1.4573124735,
				"y": 2.3601988629,
				"z": 1.2869423116,
				"element": "H" 
			},
			{
				"x": -1.3870622217,
				"y": 0.8257098226,
				"z": 2.1815261985,
				"element": "H" 
			}
		],
		 "valence_orbital": [ 
			{
				"type": "occ",
				"energy": -0.3641,
				"method": "rhf"
			},
			{
				"type": "occ",
				"energy": -0.335,
				"method": "rhf"
			},
			{
				"type": "occ",
				"energy": -0.29394,
				"method": "rhf"
			},
			{
				"type": "occ",
				"energy": -0.26182,
				"method": "rhf"
			},
			{
				"type": "occ",
				"energy": -0.24724,
				"method": "rhf"
			},
			{
				"type": "unocc",
				"energy": -0.03427,
				"method": "rhf"
			},
			{
				"type": "unocc",
				"energy": 0.08506,
				"method": "rhf"
			},
			{
				"type": "unocc",
				"energy": 0.09201,
				"method": "rhf"
			},
			{
				"type": "unocc",
				"energy": 0.09835,
				"method": "rhf"
			},
			{
				"type": "unocc",
				"energy": 0.10889,
				"method": "rhf"
			}
		],
		"cosmo_sigma_profile": { 
			"-0.025": 0.0,
			"-0.024": 0.0,
			"-0.023": 0.0,
			"-0.022": 0.0,
			"-0.021": 0.0,
			"-0.02": 0.0,
			"-0.019": 0.0,
			"-0.018": 0.0,
			"-0.017": 0.0,
			"-0.016": 0.0,
			"-0.015": 0.0,
			"-0.014": 0.0,
			"-0.013": 0.0,
			"-0.012": 0.0,
			"-0.011": 0.0,
			"-0.01": 0.0,
			"-0.009": 0.0,
			"-0.008": 0.188061419047,
			"-0.007": 2.62659409692,
			"-0.006": 9.03652020653,
			"-0.005": 19.5862956516,
			"-0.004": 16.7849598067,
			"-0.003": 19.9862905141,
			"-0.002": 23.3664994011,
			"-0.001": 22.5165391502,
			"0.0": 11.9465059768,
			"0.001": 8.070803046,
			"0.002": 6.55209725469,
			"0.003": 4.51825980985,
			"0.004": 3.3392598335,
			"0.005": 3.09803319046,
			"0.006": 3.26364976648,
			"0.007": 3.580754585,
			"0.008": 2.92365109463,
			"0.009": 2.74963602987,
			"0.01": 2.61238767805,
			"0.011": 4.25333201173,
			"0.012": 5.93457632563,
			"0.013": 4.4410060691,
			"0.014": 0.662474973018,
			"0.015": 0.0,
			"0.016": 0.0,
			"0.017": 0.0,
			"0.018": 0.0,
			"0.019": 0.0,
			"0.02": 0.0,
			"0.021": 0.0,
			"0.022": 0.0,
			"0.023": 0.0,
			"0.024": 0.0,
			"0.025": 0.0
		}
	}
}
