{
	 "smiles": "CCOC(=O)C1=CSC(C)=N1", 
	 "Tm": 329.15, 
	 "num_atms": 20, 
	 "gaussian": { 
		 "optdone": 1, 
		 "sigma_profile": "yes", 
		 "theory": "DFT", 
		 "functional": "B3LYP", 
		 "basiset": "6-31G**", 
		 "properties": { 
			 "R2extent": 2753.7878, 
			 "electric_dipole_moment_norm": 2.73245330427, 
			 "electric_quadrupole_moment_norm": 14.1946633275, 
			 "total_energy": -875.565182435, 
			 "HOMO_LUMO_gap": 0.20444, 
			 "cosmo_polarized_energy": -11.43, 
			 "cosmo_cavitation_energy": 26.19, 
			 "cosmo_dispersion_energy": -19.64, 
			 "cosmo_repulsion_energy": 1.57, 
			 "cosmo_total_nonelectrostatic_energy": 8.11, 
			 "SMD_solvation_energy": 4.29 
		},
		"coords": [
			{
				"x": 2.5249687325,
				"y": 2.8310274467,
				"z": -0.3626734415,
				"element": "C" 
			},
			{
				"x": 2.7822117818,
				"y": 1.7199704599,
				"z": 0.644562626,
				"element": "C" 
			},
			{
				"x": 1.9655478971,
				"y": 0.5577181052,
				"z": 0.3687913243,
				"element": "O" 
			},
			{
				"x": 0.7118299734,
				"y": 0.5702383154,
				"z": 0.8877780635,
				"element": "C" 
			},
			{
				"x": 0.2570113434,
				"y": 1.4734422581,
				"z": 1.5549544473,
				"element": "O" 
			},
			{
				"x": -0.0192683219,
				"y": -0.6736279472,
				"z": 0.5293215462,
				"element": "C" 
			},
			{
				"x": 0.4935982713,
				"y": -1.6993629373,
				"z": -0.2212350369,
				"element": "C" 
			},
			{
				"x": -0.6855576342,
				"y": -2.9455807703,
				"z": -0.4003136651,
				"element": "S" 
			},
			{
				"x": -1.8106128343,
				"y": -1.9746793965,
				"z": 0.5719802351,
				"element": "C" 
			},
			{
				"x": -3.1946714361,
				"y": -2.4550862884,
				"z": 0.8824223429,
				"element": "C" 
			},
			{
				"x": -1.3165956808,
				"y": -0.8432804858,
				"z": 0.9679614068,
				"element": "N" 
			},
			{
				"x": 1.5002880491,
				"y": 3.1995932832,
				"z": -0.2732134218,
				"element": "H" 
			},
			{
				"x": 2.6866653109,
				"y": 2.476274783,
				"z": -1.3849172909,
				"element": "H" 
			},
			{
				"x": 3.2080616868,
				"y": 3.6666236287,
				"z": -0.1765786898,
				"element": "H" 
			},
			{
				"x": 2.5796303057,
				"y": 2.058354926,
				"z": 1.6634403103,
				"element": "H" 
			},
			{
				"x": 3.8091218247,
				"y": 1.3515660889,
				"z": 0.5817097893,
				"element": "H" 
			},
			{
				"x": 1.4775028751,
				"y": -1.7704688958,
				"z": -0.6595836283,
				"element": "H" 
			},
			{
				"x": -3.6941511718,
				"y": -1.6961237583,
				"z": 1.486956728,
				"element": "H" 
			},
			{
				"x": -3.1767290073,
				"y": -3.3967942406,
				"z": 1.4410297545,
				"element": "H" 
			},
			{
				"x": -3.7766519654,
				"y": -2.6196045749,
				"z": -0.0304933999,
				"element": "H" 
			}
		],
		 "valence_orbital": [ 
			{
				"type": "occ",
				"energy": -0.29762,
				"method": "rhf"
			},
			{
				"type": "occ",
				"energy": -0.29021,
				"method": "rhf"
			},
			{
				"type": "occ",
				"energy": -0.27852,
				"method": "rhf"
			},
			{
				"type": "occ",
				"energy": -0.26886,
				"method": "rhf"
			},
			{
				"type": "occ",
				"energy": -0.2505,
				"method": "rhf"
			},
			{
				"type": "unocc",
				"energy": -0.04606,
				"method": "rhf"
			},
			{
				"type": "unocc",
				"energy": -0.00351,
				"method": "rhf"
			},
			{
				"type": "unocc",
				"energy": 0.01041,
				"method": "rhf"
			},
			{
				"type": "unocc",
				"energy": 0.08772,
				"method": "rhf"
			},
			{
				"type": "unocc",
				"energy": 0.10671,
				"method": "rhf"
			}
		],
		"cosmo_sigma_profile": { 
			"-0.025": 0.0,
			"-0.024": 0.0,
			"-0.023": 0.0,
			"-0.022": 0.0,
			"-0.021": 0.0,
			"-0.02": 0.0,
			"-0.019": 0.0,
			"-0.018": 0.0,
			"-0.017": 0.0,
			"-0.016": 0.0,
			"-0.015": 0.0,
			"-0.014": 0.0,
			"-0.013": 0.0,
			"-0.012": 0.0,
			"-0.011": 0.0,
			"-0.01": 0.833932140397,
			"-0.009": 1.61636654311,
			"-0.008": 1.48062582333,
			"-0.007": 1.63130518289,
			"-0.006": 9.04012459853,
			"-0.005": 14.4789711428,
			"-0.004": 19.1665236999,
			"-0.003": 21.1802413751,
			"-0.002": 23.074398162,
			"-0.001": 21.8950162702,
			"0.0": 23.0021953441,
			"0.001": 20.400207017,
			"0.002": 10.7874841253,
			"0.003": 6.25947924949,
			"0.004": 4.51910268965,
			"0.005": 4.22327622702,
			"0.006": 2.7398667793,
			"0.007": 2.48232784213,
			"0.008": 2.54019963973,
			"0.009": 2.30436642177,
			"0.01": 1.622692239,
			"0.011": 4.55381884193,
			"0.012": 4.6366565882,
			"0.013": 1.75992475752,
			"0.014": 1.38199236385,
			"0.015": 1.9297189331,
			"0.016": 0.772826835593,
			"0.017": 0.0440557360397,
			"0.018": 0.0,
			"0.019": 0.0,
			"0.02": 0.0,
			"0.021": 0.0,
			"0.022": 0.0,
			"0.023": 0.0,
			"0.024": 0.0,
			"0.025": 0.0
		}
	}
}
