{
	 "smiles": "COC1=C(OC)C=C2N=C(Cl)C=NC2=C1", 
	 "Tm": 423.15, 
	 "num_atms": 24, 
	 "gaussian": { 
		 "optdone": 1, 
		 "sigma_profile": "yes", 
		 "theory": "DFT", 
		 "functional": "B3LYP", 
		 "basiset": "6-31G**", 
		 "properties": { 
			 "R2extent": 4788.4615, 
			 "electric_dipole_moment_norm": 3.37868591911, 
			 "electric_quadrupole_moment_norm": 10.0839356533, 
			 "total_energy": -1106.59603478, 
			 "HOMO_LUMO_gap": 0.16781, 
			 "cosmo_polarized_energy": -8.24, 
			 "cosmo_cavitation_energy": 30.24, 
			 "cosmo_dispersion_energy": -22.28, 
			 "cosmo_repulsion_energy": 1.74, 
			 "cosmo_total_nonelectrostatic_energy": 9.7, 
			 "SMD_solvation_energy": 3.31 
		},
		"coords": [
			{
				"x": -1.7170868114,
				"y": 2.8775586736,
				"z": 0.4504656935,
				"element": "C" 
			},
			{
				"x": -1.1629293616,
				"y": 1.8212800299,
				"z": 1.249832249,
				"element": "O" 
			},
			{
				"x": -0.336711713,
				"y": 0.9555273428,
				"z": 0.5791946361,
				"element": "C" 
			},
			{
				"x": 0.9602842857,
				"y": 1.3838768211,
				"z": 0.1387715921,
				"element": "C" 
			},
			{
				"x": 1.3677595535,
				"y": 2.6780714749,
				"z": 0.3351493971,
				"element": "O" 
			},
			{
				"x": 1.6376793008,
				"y": 3.0347370203,
				"z": 1.6998887077,
				"element": "C" 
			},
			{
				"x": 1.7910203689,
				"y": 0.5101571992,
				"z": -0.5287825775,
				"element": "C" 
			},
			{
				"x": 1.3796846011,
				"y": -0.8226518588,
				"z": -0.7660669683,
				"element": "C" 
			},
			{
				"x": 2.2127365542,
				"y": -1.6816990783,
				"z": -1.4248467592,
				"element": "N" 
			},
			{
				"x": 1.7748318883,
				"y": -2.8937597817,
				"z": -1.5931860922,
				"element": "C" 
			},
			{
				"x": 2.8056719901,
				"y": -4.0454437627,
				"z": -2.4351556686,
				"element": "Cl" 
			},
			{
				"x": 0.5039087831,
				"y": -3.3490897888,
				"z": -1.1354063318,
				"element": "C" 
			},
			{
				"x": -0.3152102028,
				"y": -2.5445610679,
				"z": -0.4985274954,
				"element": "N" 
			},
			{
				"x": 0.1026892769,
				"y": -1.2612117845,
				"z": -0.2962243597,
				"element": "C" 
			},
			{
				"x": -0.7441379385,
				"y": -0.343684968,
				"z": 0.3711356227,
				"element": "C" 
			},
			{
				"x": -2.3280617834,
				"y": 3.4789568147,
				"z": 1.1257815076,
				"element": "H" 
			},
			{
				"x": -2.3514526039,
				"y": 2.4649109828,
				"z": -0.3432345836,
				"element": "H" 
			},
			{
				"x": -0.9311582747,
				"y": 3.4971444099,
				"z": 0.0089046954,
				"element": "H" 
			},
			{
				"x": 0.7528787085,
				"y": 2.901503291,
				"z": 2.3288533857,
				"element": "H" 
			},
			{
				"x": 1.9279171363,
				"y": 4.0866116325,
				"z": 1.6850155975,
				"element": "H" 
			},
			{
				"x": 2.4660882779,
				"y": 2.4348085706,
				"z": 2.0953271858,
				"element": "H" 
			},
			{
				"x": 2.7665721328,
				"y": 0.8371940336,
				"z": -0.8701553313,
				"element": "H" 
			},
			{
				"x": 0.1940614576,
				"y": -4.3765514211,
				"z": -1.3085856136,
				"element": "H" 
			},
			{
				"x": -1.7197356263,
				"y": -0.671184785,
				"z": 0.7122515114,
				"element": "H" 
			}
		],
		 "valence_orbital": [ 
			{
				"type": "occ",
				"energy": -0.30277,
				"method": "rhf"
			},
			{
				"type": "occ",
				"energy": -0.27882,
				"method": "rhf"
			},
			{
				"type": "occ",
				"energy": -0.26256,
				"method": "rhf"
			},
			{
				"type": "occ",
				"energy": -0.24972,
				"method": "rhf"
			},
			{
				"type": "occ",
				"energy": -0.2452,
				"method": "rhf"
			},
			{
				"type": "unocc",
				"energy": -0.07739,
				"method": "rhf"
			},
			{
				"type": "unocc",
				"energy": -0.03239,
				"method": "rhf"
			},
			{
				"type": "unocc",
				"energy": 0.0003,
				"method": "rhf"
			},
			{
				"type": "unocc",
				"energy": 0.03113,
				"method": "rhf"
			},
			{
				"type": "unocc",
				"energy": 0.06588,
				"method": "rhf"
			}
		],
		"cosmo_sigma_profile": { 
			"-0.025": 0.0,
			"-0.024": 0.0,
			"-0.023": 0.0,
			"-0.022": 0.0,
			"-0.021": 0.0,
			"-0.02": 0.0,
			"-0.019": 0.0,
			"-0.018": 0.0,
			"-0.017": 0.0,
			"-0.016": 0.0,
			"-0.015": 0.0,
			"-0.014": 0.0,
			"-0.013": 0.0,
			"-0.012": 0.0,
			"-0.011": 0.0,
			"-0.01": 0.0,
			"-0.009": 0.566174526527,
			"-0.008": 2.2490170797,
			"-0.007": 4.32478271081,
			"-0.006": 7.09209065234,
			"-0.005": 14.4933941109,
			"-0.004": 19.6757834064,
			"-0.003": 31.7395773472,
			"-0.002": 24.3811469764,
			"-0.001": 23.3799705513,
			"0.0": 20.2554358199,
			"0.001": 20.6172769266,
			"0.002": 16.0641117077,
			"0.003": 12.9213087492,
			"0.004": 13.4726210784,
			"0.005": 6.89470901743,
			"0.006": 5.39211281927,
			"0.007": 3.81030295355,
			"0.008": 4.09451768661,
			"0.009": 3.89144577812,
			"0.01": 3.89266002374,
			"0.011": 2.69347627861,
			"0.012": 1.62450448386,
			"0.013": 1.0718765486,
			"0.014": 0.310192446594,
			"0.015": 0.0,
			"0.016": 0.0,
			"0.017": 0.0,
			"0.018": 0.0,
			"0.019": 0.0,
			"0.02": 0.0,
			"0.021": 0.0,
			"0.022": 0.0,
			"0.023": 0.0,
			"0.024": 0.0,
			"0.025": 0.0
		}
	}
}
