{
	 "smiles": "C1CCCCCC2OC2CCCC1", 
	 "Tm": 266.15, 
	 "num_atms": 35, 
	 "gaussian": { 
		 "optdone": 1, 
		 "sigma_profile": "yes", 
		 "theory": "DFT", 
		 "functional": "B3LYP", 
		 "basiset": "6-31G**", 
		 "properties": { 
			 "R2extent": 2818.1503, 
			 "electric_dipole_moment_norm": 2.04466802684, 
			 "electric_quadrupole_moment_norm": 7.75394228893, 
			 "total_energy": -545.727574116, 
			 "HOMO_LUMO_gap": 0.32391, 
			 "cosmo_polarized_energy": -5.01, 
			 "cosmo_cavitation_energy": 31.14, 
			 "cosmo_dispersion_energy": -22.93, 
			 "cosmo_repulsion_energy": 1.79, 
			 "cosmo_total_nonelectrostatic_energy": 10.01, 
			 "SMD_solvation_energy": 3.31 
		},
		"coords": [
			{
				"x": 2.7607717821,
				"y": -0.0866301695,
				"z": 1.0702708503,
				"element": "C" 
			},
			{
				"x": 1.8749102705,
				"y": -1.3571639067,
				"z": 0.9977350458,
				"element": "C" 
			},
			{
				"x": 2.0543207218,
				"y": -2.3089657747,
				"z": -0.2068889456,
				"element": "C" 
			},
			{
				"x": 2.2236845111,
				"y": -1.7406501448,
				"z": -1.6314526003,
				"element": "C" 
			},
			{
				"x": 1.2194759792,
				"y": -0.7208752432,
				"z": -2.2077159169,
				"element": "C" 
			},
			{
				"x": -0.2917336839,
				"y": -1.028045122,
				"z": -2.1312441744,
				"element": "C" 
			},
			{
				"x": -0.9862524424,
				"y": -0.643139376,
				"z": -0.8347236338,
				"element": "C" 
			},
			{
				"x": -2.3033063192,
				"y": -0.0814856433,
				"z": -0.9724977266,
				"element": "O" 
			},
			{
				"x": -1.2519584088,
				"y": 0.7653307751,
				"z": -0.4763157606,
				"element": "C" 
			},
			{
				"x": -1.4623072751,
				"y": 1.276728678,
				"z": 0.9381228024,
				"element": "C" 
			},
			{
				"x": -0.3698553751,
				"y": 2.1880674853,
				"z": 1.5413265754,
				"element": "C" 
			},
			{
				"x": 0.9224888835,
				"y": 1.4848582385,
				"z": 2.0034538055,
				"element": "C" 
			},
			{
				"x": 1.9489890974,
				"y": 1.2099157939,
				"z": 0.8818952304,
				"element": "C" 
			},
			{
				"x": 3.556563724,
				"y": -0.1282517273,
				"z": 0.3167447106,
				"element": "H" 
			},
			{
				"x": 3.273689799,
				"y": -0.0451228314,
				"z": 2.0394706575,
				"element": "H" 
			},
			{
				"x": 2.022832055,
				"y": -1.9639622329,
				"z": 1.8991905292,
				"element": "H" 
			},
			{
				"x": 0.828994513,
				"y": -1.043623544,
				"z": 1.0407697867,
				"element": "H" 
			},
			{
				"x": 2.9371400621,
				"y": -2.9371382444,
				"z": -0.0267678829,
				"element": "H" 
			},
			{
				"x": 1.2029275672,
				"y": -3.0035762846,
				"z": -0.1995432021,
				"element": "H" 
			},
			{
				"x": 3.2190304993,
				"y": -1.2848918808,
				"z": -1.7156818922,
				"element": "H" 
			},
			{
				"x": 2.2489836685,
				"y": -2.6089014799,
				"z": -2.3043826618,
				"element": "H" 
			},
			{
				"x": 1.3944050816,
				"y": 0.2654016602,
				"z": -1.7673587078,
				"element": "H" 
			},
			{
				"x": 1.4779869334,
				"y": -0.6089402183,
				"z": -3.2683556952,
				"element": "H" 
			},
			{
				"x": -0.4802243631,
				"y": -2.088303762,
				"z": -2.3464881681,
				"element": "H" 
			},
			{
				"x": -0.7999085043,
				"y": -0.4615305006,
				"z": -2.9199346471,
				"element": "H" 
			},
			{
				"x": -0.9170191125,
				"y": -1.357766705,
				"z": -0.0132773956,
				"element": "H" 
			},
			{
				"x": -0.9339115275,
				"y": 1.5260082052,
				"z": -1.1966226478,
				"element": "H" 
			},
			{
				"x": -2.4022599196,
				"y": 1.8446298982,
				"z": 0.9158768269,
				"element": "H" 
			},
			{
				"x": -1.6438395519,
				"y": 0.4224164527,
				"z": 1.6026291578,
				"element": "H" 
			},
			{
				"x": -0.1232256077,
				"y": 2.9900798763,
				"z": 0.8308487417,
				"element": "H" 
			},
			{
				"x": -0.8201393722,
				"y": 2.6893027058,
				"z": 2.4066306297,
				"element": "H" 
			},
			{
				"x": 0.6420535314,
				"y": 0.5468127544,
				"z": 2.4993836459,
				"element": "H" 
			},
			{
				"x": 1.4021231104,
				"y": 2.0930438658,
				"z": 2.780499558,
				"element": "H" 
			},
			{
				"x": 2.6297387645,
				"y": 2.066505004,
				"z": 0.7970536785,
				"element": "H" 
			},
			{
				"x": 1.4230309084,
				"y": 1.1545633983,
				"z": -0.0752505736,
				"element": "H" 
			}
		],
		 "valence_orbital": [ 
			{
				"type": "occ",
				"energy": -0.30788,
				"method": "rhf"
			},
			{
				"type": "occ",
				"energy": -0.30565,
				"method": "rhf"
			},
			{
				"type": "occ",
				"energy": -0.3024,
				"method": "rhf"
			},
			{
				"type": "occ",
				"energy": -0.27775,
				"method": "rhf"
			},
			{
				"type": "occ",
				"energy": -0.25361,
				"method": "rhf"
			},
			{
				"type": "unocc",
				"energy": 0.0703,
				"method": "rhf"
			},
			{
				"type": "unocc",
				"energy": 0.08406,
				"method": "rhf"
			},
			{
				"type": "unocc",
				"energy": 0.08493,
				"method": "rhf"
			},
			{
				"type": "unocc",
				"energy": 0.10457,
				"method": "rhf"
			},
			{
				"type": "unocc",
				"energy": 0.10788,
				"method": "rhf"
			}
		],
		"cosmo_sigma_profile": { 
			"-0.025": 0.0,
			"-0.024": 0.0,
			"-0.023": 0.0,
			"-0.022": 0.0,
			"-0.021": 0.0,
			"-0.02": 0.0,
			"-0.019": 0.0,
			"-0.018": 0.0,
			"-0.017": 0.0,
			"-0.016": 0.0,
			"-0.015": 0.0,
			"-0.014": 0.0,
			"-0.013": 0.0,
			"-0.012": 0.0,
			"-0.011": 0.0,
			"-0.01": 0.0,
			"-0.009": 0.0,
			"-0.008": 0.0437450659834,
			"-0.007": 0.0790942293259,
			"-0.006": 0.0483719770239,
			"-0.005": 1.62768778911,
			"-0.004": 8.76909136841,
			"-0.003": 20.5363189397,
			"-0.002": 41.5879809456,
			"-0.001": 48.7805859371,
			"0.0": 51.0311207331,
			"0.001": 34.9882305348,
			"0.002": 9.90229988782,
			"0.003": 1.8589849927,
			"0.004": 1.36724898599,
			"0.005": 1.53531120663,
			"0.006": 1.66699144963,
			"0.007": 1.10428443126,
			"0.008": 1.93848463184,
			"0.009": 1.73511527576,
			"0.01": 1.61129060114,
			"0.011": 1.97544860011,
			"0.012": 2.98744785938,
			"0.013": 2.91911061447,
			"0.014": 0.343488021209,
			"0.015": 0.0,
			"0.016": 0.0,
			"0.017": 0.0,
			"0.018": 0.0,
			"0.019": 0.0,
			"0.02": 0.0,
			"0.021": 0.0,
			"0.022": 0.0,
			"0.023": 0.0,
			"0.024": 0.0,
			"0.025": 0.0
		}
	}
}
