{
	 "smiles": "CSC1=NC(N)=NC(=N1)C12CC3CC(CC(C3)C1)C2", 
	 "Tm": 482.15, 
	 "num_atms": 39, 
	 "gaussian": { 
		 "optdone": 1, 
		 "sigma_profile": "yes", 
		 "theory": "DFT", 
		 "functional": "B3LYP", 
		 "basiset": "6-31G**", 
		 "properties": { 
			 "R2extent": 6548.0058, 
			 "electric_dipole_moment_norm": 3.28860577297, 
			 "electric_quadrupole_moment_norm": 10.9540380016, 
			 "total_energy": -1162.80036175, 
			 "HOMO_LUMO_gap": 0.20682, 
			 "cosmo_polarized_energy": -11.25, 
			 "cosmo_cavitation_energy": 38.92, 
			 "cosmo_dispersion_energy": -29.11, 
			 "cosmo_repulsion_energy": 2.22, 
			 "cosmo_total_nonelectrostatic_energy": 12.03, 
			 "SMD_solvation_energy": 2.29 
		},
		"coords": [
			{
				"x": 5.0724392084,
				"y": 0.1605796307,
				"z": 1.0296914943,
				"element": "C" 
			},
			{
				"x": 3.7899969078,
				"y": 1.3379040259,
				"z": 0.4843507633,
				"element": "S" 
			},
			{
				"x": 2.3450494023,
				"y": 0.3155800405,
				"z": 0.4796178739,
				"element": "C" 
			},
			{
				"x": 2.4462703221,
				"y": -0.9650337268,
				"z": 0.8342954431,
				"element": "N" 
			},
			{
				"x": 1.2740165808,
				"y": -1.6284833794,
				"z": 0.7855006979,
				"element": "C" 
			},
			{
				"x": 1.2907736459,
				"y": -2.9387716589,
				"z": 1.120043108,
				"element": "N" 
			},
			{
				"x": 0.0861319458,
				"y": -1.1026814888,
				"z": 0.4250154159,
				"element": "N" 
			},
			{
				"x": 0.1219122368,
				"y": 0.1908701824,
				"z": 0.0935384258,
				"element": "C" 
			},
			{
				"x": 1.2301818377,
				"y": 0.9516906377,
				"z": 0.1031779826,
				"element": "N" 
			},
			{
				"x": -1.168590374,
				"y": 0.8779853986,
				"z": -0.3242906418,
				"element": "C" 
			},
			{
				"x": -0.9962270364,
				"y": 1.4691698757,
				"z": -1.7534836513,
				"element": "C" 
			},
			{
				"x": -2.2759055455,
				"y": 2.2164939109,
				"z": -2.1787408333,
				"element": "C" 
			},
			{
				"x": -2.5504992726,
				"y": 3.369111808,
				"z": -1.1911888351,
				"element": "C" 
			},
			{
				"x": -2.7412946114,
				"y": 2.7961287929,
				"z": 0.2282462258,
				"element": "C" 
			},
			{
				"x": -3.9340185737,
				"y": 1.8183549768,
				"z": 0.2320942574,
				"element": "C" 
			},
			{
				"x": -3.6552481553,
				"y": 0.6653889045,
				"z": -0.7538948839,
				"element": "C" 
			},
			{
				"x": -3.4690606523,
				"y": 1.2393533588,
				"z": -2.1735486819,
				"element": "C" 
			},
			{
				"x": -2.3770522354,
				"y": -0.0853551307,
				"z": -0.3255533826,
				"element": "C" 
			},
			{
				"x": -1.4621098165,
				"y": 2.0500741453,
				"z": 0.6570272616,
				"element": "C" 
			},
			{
				"x": 4.8477221465,
				"y": -0.2242972937,
				"z": 2.0248182247,
				"element": "H" 
			},
			{
				"x": 6.0056780647,
				"y": 0.7276251093,
				"z": 1.0520711787,
				"element": "H" 
			},
			{
				"x": 5.159077024,
				"y": -0.6700512689,
				"z": 0.3286789727,
				"element": "H" 
			},
			{
				"x": 2.1446855953,
				"y": -3.3529302816,
				"z": 1.4535413131,
				"element": "H" 
			},
			{
				"x": 0.4216941056,
				"y": -3.4447272008,
				"z": 1.1512905217,
				"element": "H" 
			},
			{
				"x": -0.7824778368,
				"y": 0.6566467811,
				"z": -2.4607313819,
				"element": "H" 
			},
			{
				"x": -0.1318681478,
				"y": 2.1409514077,
				"z": -1.7637096047,
				"element": "H" 
			},
			{
				"x": -2.1335960941,
				"y": 2.6220835126,
				"z": -3.1887124083,
				"element": "H" 
			},
			{
				"x": -3.4476688105,
				"y": 3.9228742681,
				"z": -1.4980121002,
				"element": "H" 
			},
			{
				"x": -1.7153245939,
				"y": 4.0813935427,
				"z": -1.2012754439,
				"element": "H" 
			},
			{
				"x": -2.9309490634,
				"y": 3.6148735461,
				"z": 0.9342995295,
				"element": "H" 
			},
			{
				"x": -4.8551448853,
				"y": 2.3444725672,
				"z": -0.0516690272,
				"element": "H" 
			},
			{
				"x": -4.092240254,
				"y": 1.4202786612,
				"z": 1.2431931445,
				"element": "H" 
			},
			{
				"x": -4.4998753315,
				"y": -0.0355598413,
				"z": -0.7483284374,
				"element": "H" 
			},
			{
				"x": -4.3828655953,
				"y": 1.7562604594,
				"z": -2.4953828347,
				"element": "H" 
			},
			{
				"x": -3.2934644906,
				"y": 0.4255588105,
				"z": -2.8895671235,
				"element": "H" 
			},
			{
				"x": -2.5061151579,
				"y": -0.5201346782,
				"z": 0.6721246261,
				"element": "H" 
			},
			{
				"x": -2.1818793846,
				"y": -0.9244174124,
				"z": -1.0032385502,
				"element": "H" 
			},
			{
				"x": -1.5809890265,
				"y": 1.6530765992,
				"z": 1.6740628059,
				"element": "H" 
			},
			{
				"x": -0.6032640782,
				"y": 2.7290624078,
				"z": 0.6739485549,
				"element": "H" 
			}
		],
		 "valence_orbital": [ 
			{
				"type": "occ",
				"energy": -0.27111,
				"method": "rhf"
			},
			{
				"type": "occ",
				"energy": -0.25771,
				"method": "rhf"
			},
			{
				"type": "occ",
				"energy": -0.25452,
				"method": "rhf"
			},
			{
				"type": "occ",
				"energy": -0.25225,
				"method": "rhf"
			},
			{
				"type": "occ",
				"energy": -0.23106,
				"method": "rhf"
			},
			{
				"type": "unocc",
				"energy": -0.02424,
				"method": "rhf"
			},
			{
				"type": "unocc",
				"energy": -0.00859,
				"method": "rhf"
			},
			{
				"type": "unocc",
				"energy": 0.04112,
				"method": "rhf"
			},
			{
				"type": "unocc",
				"energy": 0.07625,
				"method": "rhf"
			},
			{
				"type": "unocc",
				"energy": 0.08335,
				"method": "rhf"
			}
		],
		"cosmo_sigma_profile": { 
			"-0.025": 0.0,
			"-0.024": 0.0,
			"-0.023": 0.0,
			"-0.022": 0.0,
			"-0.021": 0.0,
			"-0.02": 0.0,
			"-0.019": 0.0,
			"-0.018": 0.0,
			"-0.017": 0.0,
			"-0.016": 0.0,
			"-0.015": 0.381792490141,
			"-0.014": 2.28763393947,
			"-0.013": 1.92362014943,
			"-0.012": 2.15146788588,
			"-0.011": 1.67182856164,
			"-0.01": 2.12208873583,
			"-0.009": 1.95259759175,
			"-0.008": 1.29907682815,
			"-0.007": 3.4508796073,
			"-0.006": 4.16743444283,
			"-0.005": 6.49359819339,
			"-0.004": 6.36997078802,
			"-0.003": 10.8125007232,
			"-0.002": 41.0671275527,
			"-0.001": 54.9702721471,
			"0.0": 45.6552891184,
			"0.001": 36.9490732407,
			"0.002": 17.6070346513,
			"0.003": 11.2901733954,
			"0.004": 10.4526353346,
			"0.005": 10.2507467295,
			"0.006": 8.84704135602,
			"0.007": 8.19974364918,
			"0.008": 5.67101245749,
			"0.009": 3.32907116534,
			"0.01": 2.4842285898,
			"0.011": 1.32742129075,
			"0.012": 1.06796302928,
			"0.013": 0.0674333234485,
			"0.014": 0.0,
			"0.015": 0.0,
			"0.016": 0.0,
			"0.017": 0.0,
			"0.018": 0.0,
			"0.019": 0.0,
			"0.02": 0.0,
			"0.021": 0.0,
			"0.022": 0.0,
			"0.023": 0.0,
			"0.024": 0.0,
			"0.025": 0.0
		}
	}
}
