{
	 "smiles": "OC(=O)C1=CC=C(C=C1)S(=O)(=O)NCC#C", 
	 "Tm": 423.15, 
	 "num_atms": 25, 
	 "gaussian": { 
		 "optdone": 1, 
		 "sigma_profile": "yes", 
		 "theory": "DFT", 
		 "functional": "B3LYP", 
		 "basiset": "6-31G**", 
		 "properties": { 
			 "R2extent": 5320.3454, 
			 "electric_dipole_moment_norm": 3.30204112936, 
			 "electric_quadrupole_moment_norm": 27.5516696864, 
			 "total_energy": -1140.17500936, 
			 "HOMO_LUMO_gap": 0.19612, 
			 "cosmo_polarized_energy": -23.76, 
			 "cosmo_cavitation_energy": 33.06, 
			 "cosmo_dispersion_energy": -23.3, 
			 "cosmo_repulsion_energy": 1.77, 
			 "cosmo_total_nonelectrostatic_energy": 11.52, 
			 "SMD_solvation_energy": 6.89 
		},
		"coords": [
			{
				"x": -2.5442959234,
				"y": 4.1846289693,
				"z": -0.1026997828,
				"element": "O" 
			},
			{
				"x": -1.3611693261,
				"y": 3.7137207136,
				"z": -0.5739190673,
				"element": "C" 
			},
			{
				"x": -0.4761579571,
				"y": 4.4788916589,
				"z": -0.8723429507,
				"element": "O" 
			},
			{
				"x": -1.2249775698,
				"y": 2.2212703917,
				"z": -0.6942238925,
				"element": "C" 
			},
			{
				"x": -1.9979657774,
				"y": 1.324107192,
				"z": 0.0597420906,
				"element": "C" 
			},
			{
				"x": -1.8169489756,
				"y": -0.0490589727,
				"z": -0.0770456098,
				"element": "C" 
			},
			{
				"x": -0.8566429061,
				"y": -0.5170112396,
				"z": -0.9761730299,
				"element": "C" 
			},
			{
				"x": -0.0756832335,
				"y": 0.3579331506,
				"z": -1.7327291268,
				"element": "C" 
			},
			{
				"x": -0.2563245365,
				"y": 1.7307283096,
				"z": -1.578015777,
				"element": "C" 
			},
			{
				"x": -0.6432702302,
				"y": -2.290345586,
				"z": -1.1782177017,
				"element": "S" 
			},
			{
				"x": 0.2688167747,
				"y": -2.4886845958,
				"z": -2.3106330141,
				"element": "O" 
			},
			{
				"x": -1.9582695313,
				"y": -2.9329474432,
				"z": -1.1249084113,
				"element": "O" 
			},
			{
				"x": 0.1072464876,
				"y": -2.7220611191,
				"z": 0.2752825411,
				"element": "N" 
			},
			{
				"x": 1.585959847,
				"y": -2.6737806072,
				"z": 0.305865334,
				"element": "C" 
			},
			{
				"x": 2.0735115706,
				"y": -3.1461928168,
				"z": 1.5983868749,
				"element": "C" 
			},
			{
				"x": 2.4750440392,
				"y": -3.5607052931,
				"z": 2.6578924873,
				"element": "C" 
			},
			{
				"x": -3.2036234345,
				"y": 3.4776033278,
				"z": -0.071345222,
				"element": "H" 
			},
			{
				"x": -2.7208096848,
				"y": 1.6861923165,
				"z": 0.7861806336,
				"element": "H" 
			},
			{
				"x": -2.4095832226,
				"y": -0.7492817705,
				"z": 0.5010015391,
				"element": "H" 
			},
			{
				"x": 0.6498623583,
				"y": -0.0400379401,
				"z": -2.4333472989,
				"element": "H" 
			},
			{
				"x": 0.3422493322,
				"y": 2.4405568649,
				"z": -2.1382208111,
				"element": "H" 
			},
			{
				"x": -0.2739284401,
				"y": -3.6209053604,
				"z": 0.5649791556,
				"element": "H" 
			},
			{
				"x": 1.8902331254,
				"y": -1.6315770765,
				"z": 0.1522590022,
				"element": "H" 
			},
			{
				"x": 2.0309630684,
				"y": -3.2618864317,
				"z": -0.5077019606,
				"element": "H" 
			},
			{
				"x": 2.8340641455,
				"y": -3.9178566421,
				"z": 3.5956339981,
				"element": "H" 
			}
		],
		 "valence_orbital": [ 
			{
				"type": "occ",
				"energy": -0.29344,
				"method": "rhf"
			},
			{
				"type": "occ",
				"energy": -0.29225,
				"method": "rhf"
			},
			{
				"type": "occ",
				"energy": -0.28972,
				"method": "rhf"
			},
			{
				"type": "occ",
				"energy": -0.28411,
				"method": "rhf"
			},
			{
				"type": "occ",
				"energy": -0.27603,
				"method": "rhf"
			},
			{
				"type": "unocc",
				"energy": -0.07991,
				"method": "rhf"
			},
			{
				"type": "unocc",
				"energy": -0.04361,
				"method": "rhf"
			},
			{
				"type": "unocc",
				"energy": 0.01034,
				"method": "rhf"
			},
			{
				"type": "unocc",
				"energy": 0.01826,
				"method": "rhf"
			},
			{
				"type": "unocc",
				"energy": 0.0354,
				"method": "rhf"
			}
		],
		"cosmo_sigma_profile": { 
			"-0.025": 0.0,
			"-0.024": 0.0,
			"-0.023": 0.0,
			"-0.022": 0.0,
			"-0.021": 0.0,
			"-0.02": 0.116407557248,
			"-0.019": 0.469495024057,
			"-0.018": 1.44098406708,
			"-0.017": 0.916992104858,
			"-0.016": 0.88272642854,
			"-0.015": 1.70608969473,
			"-0.014": 2.25563415196,
			"-0.013": 2.09675892614,
			"-0.012": 3.24577766936,
			"-0.011": 3.12323855659,
			"-0.01": 3.37717363963,
			"-0.009": 4.3783539608,
			"-0.008": 9.71680307634,
			"-0.007": 12.637626538,
			"-0.006": 15.2828827098,
			"-0.005": 11.1453583594,
			"-0.004": 11.7412328468,
			"-0.003": 13.9625340669,
			"-0.002": 12.1218563334,
			"-0.001": 12.3074372238,
			"0.0": 19.676443328,
			"0.001": 18.5499177785,
			"0.002": 8.65202346265,
			"0.003": 10.0257267704,
			"0.004": 10.0528607125,
			"0.005": 12.3473373412,
			"0.006": 12.459537941,
			"0.007": 6.38453761556,
			"0.008": 7.28273457697,
			"0.009": 8.36566176521,
			"0.01": 13.4861141262,
			"0.011": 11.969304572,
			"0.012": 3.39863929748,
			"0.013": 0.449255249936,
			"0.014": 0.0,
			"0.015": 0.0,
			"0.016": 0.0,
			"0.017": 0.0,
			"0.018": 0.0,
			"0.019": 0.0,
			"0.02": 0.0,
			"0.021": 0.0,
			"0.022": 0.0,
			"0.023": 0.0,
			"0.024": 0.0,
			"0.025": 0.0
		}
	}
}
