{
	 "smiles": "OC(=O)C1=C(Cl)C2=C(S1)C=C(Br)C=C2", 
	 "Tm": 560.15, 
	 "num_atms": 18, 
	 "gaussian": { 
		 "optdone": 1, 
		 "sigma_profile": "yes", 
		 "theory": "DFT", 
		 "functional": "B3LYP", 
		 "basiset": "6-31G**", 
		 "properties": { 
			 "R2extent": 7165.2389, 
			 "electric_dipole_moment_norm": 1.20814117139, 
			 "electric_quadrupole_moment_norm": 12.328597492, 
			 "total_energy": -3925.61094953, 
			 "HOMO_LUMO_gap": 0.15762, 
			 "cosmo_polarized_energy": -10.15, 
			 "cosmo_cavitation_energy": 28.9, 
			 "cosmo_dispersion_energy": -22.45, 
			 "cosmo_repulsion_energy": 1.71, 
			 "cosmo_total_nonelectrostatic_energy": 8.16, 
			 "SMD_solvation_energy": 4.23 
		},
		"coords": [
			{
				"x": -1.0847013082,
				"y": 2.4947286171,
				"z": 1.8469753769,
				"element": "O" 
			},
			{
				"x": -1.2955164739,
				"y": 1.1567260858,
				"z": 1.742709278,
				"element": "C" 
			},
			{
				"x": -1.9081533478,
				"y": 0.5199707391,
				"z": 2.572373902,
				"element": "O" 
			},
			{
				"x": -0.6887034876,
				"y": 0.6181096344,
				"z": 0.5136215497,
				"element": "C" 
			},
			{
				"x": -0.6918169921,
				"y": -0.6796082626,
				"z": 0.0665262624,
				"element": "C" 
			},
			{
				"x": -1.4367092663,
				"y": -2.0138796607,
				"z": 0.8793898962,
				"element": "Cl" 
			},
			{
				"x": -0.0024366322,
				"y": -0.8665856567,
				"z": -1.1815655786,
				"element": "C" 
			},
			{
				"x": 0.5265571934,
				"y": 0.3541457628,
				"z": -1.6637448669,
				"element": "C" 
			},
			{
				"x": 0.1728531298,
				"y": 1.6892932076,
				"z": -0.5913869206,
				"element": "S" 
			},
			{
				"x": 1.2402308568,
				"y": 0.4168784496,
				"z": -2.866423785,
				"element": "C" 
			},
			{
				"x": 1.4117247114,
				"y": -0.7647251715,
				"z": -3.5725774447,
				"element": "C" 
			},
			{
				"x": 2.3777187298,
				"y": -0.7293661878,
				"z": -5.2174021909,
				"element": "Br" 
			},
			{
				"x": 0.8962863076,
				"y": -1.9929213034,
				"z": -3.1163207544,
				"element": "C" 
			},
			{
				"x": 0.1917972551,
				"y": -2.0449589587,
				"z": -1.9256283277,
				"element": "C" 
			},
			{
				"x": -1.510205619,
				"y": 2.7735310964,
				"z": 2.6743206782,
				"element": "H" 
			},
			{
				"x": 1.6461617459,
				"y": 1.3506829727,
				"z": -3.2373244491,
				"element": "H" 
			},
			{
				"x": 1.055615021,
				"y": -2.8901202792,
				"z": -3.7024411797,
				"element": "H" 
			},
			{
				"x": -0.2104018236,
				"y": -2.985001085,
				"z": -1.5632014459,
				"element": "H" 
			}
		],
		 "valence_orbital": [ 
			{
				"type": "occ",
				"energy": -0.29947,
				"method": "rhf"
			},
			{
				"type": "occ",
				"energy": -0.28936,
				"method": "rhf"
			},
			{
				"type": "occ",
				"energy": -0.2856,
				"method": "rhf"
			},
			{
				"type": "occ",
				"energy": -0.25662,
				"method": "rhf"
			},
			{
				"type": "occ",
				"energy": -0.23748,
				"method": "rhf"
			},
			{
				"type": "unocc",
				"energy": -0.07986,
				"method": "rhf"
			},
			{
				"type": "unocc",
				"energy": -0.02996,
				"method": "rhf"
			},
			{
				"type": "unocc",
				"energy": -0.01402,
				"method": "rhf"
			},
			{
				"type": "unocc",
				"energy": -0.00311,
				"method": "rhf"
			},
			{
				"type": "unocc",
				"energy": -0.00152,
				"method": "rhf"
			}
		],
		"cosmo_sigma_profile": { 
			"-0.025": 0.0,
			"-0.024": 0.0,
			"-0.023": 0.0,
			"-0.022": 0.0,
			"-0.021": 0.0,
			"-0.02": 0.00409477281564,
			"-0.019": 0.70058795708,
			"-0.018": 0.90660497755,
			"-0.017": 0.887194575531,
			"-0.016": 0.93091435137,
			"-0.015": 0.281543589652,
			"-0.014": 0.603694111367,
			"-0.013": 0.571830269351,
			"-0.012": 1.27512772469,
			"-0.011": 0.744723808343,
			"-0.01": 0.532979821481,
			"-0.009": 2.67776803543,
			"-0.008": 4.04867907838,
			"-0.007": 6.24367839913,
			"-0.006": 6.33197378271,
			"-0.005": 7.0676971443,
			"-0.004": 9.74145717466,
			"-0.003": 12.0905764744,
			"-0.002": 15.6771520953,
			"-0.001": 25.3564434221,
			"0.0": 25.7681837878,
			"0.001": 32.4040268506,
			"0.002": 24.1957195073,
			"0.003": 20.8253297016,
			"0.004": 16.1395672494,
			"0.005": 4.40057816695,
			"0.006": 4.38477455518,
			"0.007": 2.61151038986,
			"0.008": 1.53361909572,
			"0.009": 1.94954200635,
			"0.01": 3.46536934709,
			"0.011": 5.6181155069,
			"0.012": 0.985105179635,
			"0.013": 0.0,
			"0.014": 0.0,
			"0.015": 0.0,
			"0.016": 0.0,
			"0.017": 0.0,
			"0.018": 0.0,
			"0.019": 0.0,
			"0.02": 0.0,
			"0.021": 0.0,
			"0.022": 0.0,
			"0.023": 0.0,
			"0.024": 0.0,
			"0.025": 0.0
		}
	}
}
