{
	 "smiles": "CCC(=O)C1=CC(F)=C(O)C(F)=C1", 
	 "Tm": 401.15, 
	 "num_atms": 21, 
	 "gaussian": { 
		 "optdone": 1, 
		 "sigma_profile": "yes", 
		 "theory": "DFT", 
		 "functional": "B3LYP", 
		 "basiset": "6-31G**", 
		 "properties": { 
			 "R2extent": 3020.3078, 
			 "electric_dipole_moment_norm": 3.69957156844, 
			 "electric_quadrupole_moment_norm": 5.09283761375, 
			 "total_energy": -697.889270129, 
			 "HOMO_LUMO_gap": 0.1822, 
			 "cosmo_polarized_energy": -10.81, 
			 "cosmo_cavitation_energy": 26.36, 
			 "cosmo_dispersion_energy": -18.86, 
			 "cosmo_repulsion_energy": 1.46, 
			 "cosmo_total_nonelectrostatic_energy": 8.96, 
			 "SMD_solvation_energy": 6.48 
		},
		"coords": [
			{
				"x": -0.127660504,
				"y": 3.0180138419,
				"z": 1.0008038624,
				"element": "C" 
			},
			{
				"x": -1.046067976,
				"y": 2.0545067909,
				"z": 1.7776913987,
				"element": "C" 
			},
			{
				"x": -1.5829907269,
				"y": 0.9440148142,
				"z": 0.8823799358,
				"element": "C" 
			},
			{
				"x": -2.6808644349,
				"y": 1.0571081625,
				"z": 0.3558746477,
				"element": "O" 
			},
			{
				"x": -0.742434798,
				"y": -0.2678130998,
				"z": 0.6159518637,
				"element": "C" 
			},
			{
				"x": 0.5175360631,
				"y": -0.4725914878,
				"z": 1.2016945909,
				"element": "C" 
			},
			{
				"x": 1.2163804717,
				"y": -1.6243585495,
				"z": 0.8905432425,
				"element": "C" 
			},
			{
				"x": 2.4402081978,
				"y": -1.8674035214,
				"z": 1.4320130791,
				"element": "F" 
			},
			{
				"x": 0.7301410996,
				"y": -2.6029259283,
				"z": 0.019430521,
				"element": "C" 
			},
			{
				"x": 1.4245088593,
				"y": -3.7247201503,
				"z": -0.2737335905,
				"element": "O" 
			},
			{
				"x": -0.5301779995,
				"y": -2.3745407416,
				"z": -0.5512014998,
				"element": "C" 
			},
			{
				"x": -1.0161347234,
				"y": -3.3029226519,
				"z": -1.3914885837,
				"element": "F" 
			},
			{
				"x": -1.2567046089,
				"y": -1.2344939358,
				"z": -0.2650093565,
				"element": "C" 
			},
			{
				"x": -0.6626950299,
				"y": 3.4549579978,
				"z": 0.1525969355,
				"element": "H" 
			},
			{
				"x": 0.7604220722,
				"y": 2.5095080504,
				"z": 0.6129602879,
				"element": "H" 
			},
			{
				"x": 0.2056917354,
				"y": 3.8338071004,
				"z": 1.6489861124,
				"element": "H" 
			},
			{
				"x": -0.5160176099,
				"y": 1.6419263838,
				"z": 2.6430091648,
				"element": "H" 
			},
			{
				"x": -1.9188069539,
				"y": 2.5973557771,
				"z": 2.1496819081,
				"element": "H" 
			},
			{
				"x": 0.9642174424,
				"y": 0.2367087984,
				"z": 1.8874385303,
				"element": "H" 
			},
			{
				"x": 2.2593145799,
				"y": -3.6916879898,
				"z": 0.2172139454,
				"element": "H" 
			},
			{
				"x": -2.2292651562,
				"y": -1.0772496613,
				"z": -0.7166369957,
				"element": "H" 
			}
		],
		 "valence_orbital": [ 
			{
				"type": "occ",
				"energy": -0.35687,
				"method": "rhf"
			},
			{
				"type": "occ",
				"energy": -0.33789,
				"method": "rhf"
			},
			{
				"type": "occ",
				"energy": -0.26301,
				"method": "rhf"
			},
			{
				"type": "occ",
				"energy": -0.25164,
				"method": "rhf"
			},
			{
				"type": "occ",
				"energy": -0.24328,
				"method": "rhf"
			},
			{
				"type": "unocc",
				"energy": -0.06108,
				"method": "rhf"
			},
			{
				"type": "unocc",
				"energy": -0.01438,
				"method": "rhf"
			},
			{
				"type": "unocc",
				"energy": 0.03786,
				"method": "rhf"
			},
			{
				"type": "unocc",
				"energy": 0.04377,
				"method": "rhf"
			},
			{
				"type": "unocc",
				"energy": 0.08398,
				"method": "rhf"
			}
		],
		"cosmo_sigma_profile": { 
			"-0.025": 0.0,
			"-0.024": 0.0,
			"-0.023": 0.0,
			"-0.022": 0.0,
			"-0.021": 0.0,
			"-0.02": 0.0,
			"-0.019": 0.0,
			"-0.018": 0.167678508251,
			"-0.017": 0.874723024147,
			"-0.016": 0.469004101141,
			"-0.015": 0.748539557436,
			"-0.014": 0.809208701581,
			"-0.013": 0.474774836828,
			"-0.012": 1.00410517736,
			"-0.011": 1.52359391651,
			"-0.01": 0.696864961487,
			"-0.009": 1.78296941396,
			"-0.008": 3.09223310923,
			"-0.007": 3.66780953964,
			"-0.006": 5.63619382943,
			"-0.005": 6.14982521943,
			"-0.004": 12.7499569304,
			"-0.003": 14.2256602937,
			"-0.002": 22.3193346927,
			"-0.001": 26.1788955647,
			"0.0": 22.6131831792,
			"0.001": 17.3996901411,
			"0.002": 12.429596508,
			"0.003": 14.2990798187,
			"0.004": 11.9764594743,
			"0.005": 4.66130666696,
			"0.006": 2.63661426269,
			"0.007": 3.70647136723,
			"0.008": 3.52277378136,
			"0.009": 3.57705445972,
			"0.01": 2.63227779628,
			"0.011": 3.13284406502,
			"0.012": 3.60642078598,
			"0.013": 1.39185372491,
			"0.014": 0.154350009656,
			"0.015": 0.0,
			"0.016": 0.0,
			"0.017": 0.0,
			"0.018": 0.0,
			"0.019": 0.0,
			"0.02": 0.0,
			"0.021": 0.0,
			"0.022": 0.0,
			"0.023": 0.0,
			"0.024": 0.0,
			"0.025": 0.0
		}
	}
}
