{
	 "smiles": "OC1CC(C1)C1=C(F)C=CC=C1", 
	 "Tm": 320.15, 
	 "num_atms": 23, 
	 "gaussian": { 
		 "optdone": 1, 
		 "sigma_profile": "yes", 
		 "theory": "DFT", 
		 "functional": "B3LYP", 
		 "basiset": "6-31G**", 
		 "properties": { 
			 "R2extent": 2575.4694, 
			 "electric_dipole_moment_norm": 2.00985952245, 
			 "electric_quadrupole_moment_norm": 8.79737661692, 
			 "total_energy": -562.718323311, 
			 "HOMO_LUMO_gap": 0.23046, 
			 "cosmo_polarized_energy": -8.38, 
			 "cosmo_cavitation_energy": 26.01, 
			 "cosmo_dispersion_energy": -18.97, 
			 "cosmo_repulsion_energy": 1.5, 
			 "cosmo_total_nonelectrostatic_energy": 8.54, 
			 "SMD_solvation_energy": 4.33 
		},
		"coords": [
			{
				"x": -1.6286037461,
				"y": 4.0799689081,
				"z": -0.5227944268,
				"element": "O" 
			},
			{
				"x": -0.3405790868,
				"y": 3.5024249521,
				"z": -0.4063986234,
				"element": "C" 
			},
			{
				"x": 0.0573126092,
				"y": 2.5283679119,
				"z": -1.5528892125,
				"element": "C" 
			},
			{
				"x": -0.2952813895,
				"y": 1.3306408202,
				"z": -0.6247721727,
				"element": "C" 
			},
			{
				"x": -0.2319636415,
				"y": 2.314640958,
				"z": 0.5883680629,
				"element": "C" 
			},
			{
				"x": 0.5663339074,
				"y": 0.0947549988,
				"z": -0.6123281423,
				"element": "C" 
			},
			{
				"x": 0.4323033914,
				"y": -0.8332584032,
				"z": 0.4255191579,
				"element": "C" 
			},
			{
				"x": -0.4819742925,
				"y": -0.5766655287,
				"z": 1.3944010794,
				"element": "F" 
			},
			{
				"x": 1.1829307975,
				"y": -1.9964670216,
				"z": 0.5136033073,
				"element": "C" 
			},
			{
				"x": 2.1183042904,
				"y": -2.2664017111,
				"z": -0.4880753476,
				"element": "C" 
			},
			{
				"x": 2.2780167944,
				"y": -1.3727271439,
				"z": -1.5469149263,
				"element": "C" 
			},
			{
				"x": 1.5080587295,
				"y": -0.2075443486,
				"z": -1.6032603135,
				"element": "C" 
			},
			{
				"x": -2.2732972022,
				"y": 3.3692133216,
				"z": -0.6382460028,
				"element": "H" 
			},
			{
				"x": 0.3342075721,
				"y": 4.3450572109,
				"z": -0.234867299,
				"element": "H" 
			},
			{
				"x": 1.1300702553,
				"y": 2.5821396779,
				"z": -1.7638048928,
				"element": "H" 
			},
			{
				"x": -0.4932197766,
				"y": 2.6346447312,
				"z": -2.4925821827,
				"element": "H" 
			},
			{
				"x": -1.3381131014,
				"y": 1.0254238558,
				"z": -0.7852413895,
				"element": "H" 
			},
			{
				"x": -1.0156718124,
				"y": 2.2389016137,
				"z": 1.3466902806,
				"element": "H" 
			},
			{
				"x": 0.7431956519,
				"y": 2.2796452899,
				"z": 1.0838214541,
				"element": "H" 
			},
			{
				"x": 1.0268497071,
				"y": -2.6670940627,
				"z": 1.3518548671,
				"element": "H" 
			},
			{
				"x": 2.7152327461,
				"y": -3.1719222188,
				"z": -0.4371228575,
				"element": "H" 
			},
			{
				"x": 3.0004740022,
				"y": -1.5794886763,
				"z": -2.3305873931,
				"element": "H" 
			},
			{
				"x": 1.6363135942,
				"y": 0.4786448647,
				"z": -2.4348730268,
				"element": "H" 
			}
		],
		 "valence_orbital": [ 
			{
				"type": "occ",
				"energy": -0.3196,
				"method": "rhf"
			},
			{
				"type": "occ",
				"energy": -0.30106,
				"method": "rhf"
			},
			{
				"type": "occ",
				"energy": -0.25629,
				"method": "rhf"
			},
			{
				"type": "occ",
				"energy": -0.25277,
				"method": "rhf"
			},
			{
				"type": "occ",
				"energy": -0.23883,
				"method": "rhf"
			},
			{
				"type": "unocc",
				"energy": -0.00837,
				"method": "rhf"
			},
			{
				"type": "unocc",
				"energy": 0.00023,
				"method": "rhf"
			},
			{
				"type": "unocc",
				"energy": 0.07065,
				"method": "rhf"
			},
			{
				"type": "unocc",
				"energy": 0.0874,
				"method": "rhf"
			},
			{
				"type": "unocc",
				"energy": 0.09163,
				"method": "rhf"
			}
		],
		"cosmo_sigma_profile": { 
			"-0.025": 0.0,
			"-0.024": 0.0,
			"-0.023": 0.0,
			"-0.022": 0.0,
			"-0.021": 0.0,
			"-0.02": 0.0,
			"-0.019": 0.0,
			"-0.018": 0.0,
			"-0.017": 0.0,
			"-0.016": 0.0,
			"-0.015": 0.460475364083,
			"-0.014": 0.915561565618,
			"-0.013": 0.952915193635,
			"-0.012": 1.34348217063,
			"-0.011": 1.26566779448,
			"-0.01": 1.14975375776,
			"-0.009": 0.761058884206,
			"-0.008": 0.723287001481,
			"-0.007": 2.39663841213,
			"-0.006": 6.39355917694,
			"-0.005": 11.2184686395,
			"-0.004": 16.9812040744,
			"-0.003": 22.3287374999,
			"-0.002": 17.1718066084,
			"-0.001": 16.7744077267,
			"0.0": 15.7541421001,
			"0.001": 15.2369194995,
			"0.002": 13.5288569439,
			"0.003": 12.5009863424,
			"0.004": 16.3020690134,
			"0.005": 15.4824528379,
			"0.006": 2.84859256283,
			"0.007": 1.32648862898,
			"0.008": 1.44835174381,
			"0.009": 1.00945098666,
			"0.01": 1.0742750261,
			"0.011": 1.38856994024,
			"0.012": 1.3994851032,
			"0.013": 1.74510984789,
			"0.014": 2.54343645868,
			"0.015": 0.799778975358,
			"0.016": 0.0,
			"0.017": 0.0,
			"0.018": 0.0,
			"0.019": 0.0,
			"0.02": 0.0,
			"0.021": 0.0,
			"0.022": 0.0,
			"0.023": 0.0,
			"0.024": 0.0,
			"0.025": 0.0
		}
	}
}
