{
	 "smiles": "COC1=CC(OC)=CC(CN)=C1", 
	 "Tm": 309.15, 
	 "num_atms": 25, 
	 "gaussian": { 
		 "optdone": 1, 
		 "sigma_profile": "yes", 
		 "theory": "DFT", 
		 "functional": "B3LYP", 
		 "basiset": "6-31G**", 
		 "properties": { 
			 "R2extent": 2824.4428, 
			 "electric_dipole_moment_norm": 2.07153149867, 
			 "electric_quadrupole_moment_norm": 12.3988234768, 
			 "total_energy": -555.963231545, 
			 "HOMO_LUMO_gap": 0.21554, 
			 "cosmo_polarized_energy": -11.0, 
			 "cosmo_cavitation_energy": 28.02, 
			 "cosmo_dispersion_energy": -20.73, 
			 "cosmo_repulsion_energy": 1.69, 
			 "cosmo_total_nonelectrostatic_energy": 8.97, 
			 "SMD_solvation_energy": 5.46 
		},
		"coords": [
			{
				"x": -1.7065549426,
				"y": -3.3430865434,
				"z": -0.2966792666,
				"element": "C" 
			},
			{
				"x": -0.7625764923,
				"y": -2.4678468254,
				"z": 0.2955134978,
				"element": "O" 
			},
			{
				"x": -0.7686776465,
				"y": -1.1549526389,
				"z": -0.0897509409,
				"element": "C" 
			},
			{
				"x": 0.1980707852,
				"y": -0.3537024957,
				"z": 0.5396366326,
				"element": "C" 
			},
			{
				"x": 0.2693390553,
				"y": 1.0004208481,
				"z": 0.2190519056,
				"element": "C" 
			},
			{
				"x": 1.166434157,
				"y": 1.870005748,
				"z": 0.7719592061,
				"element": "O" 
			},
			{
				"x": 2.0864156992,
				"y": 1.3671781436,
				"z": 1.7256622413,
				"element": "C" 
			},
			{
				"x": -0.6095351318,
				"y": 1.5598424055,
				"z": -0.7240544123,
				"element": "C" 
			},
			{
				"x": -1.5621605522,
				"y": 0.7580802068,
				"z": -1.3404580335,
				"element": "C" 
			},
			{
				"x": -2.4982770999,
				"y": 1.3336378523,
				"z": -2.3895153828,
				"element": "C" 
			},
			{
				"x": -2.7514983368,
				"y": 2.7609774821,
				"z": -2.1835064353,
				"element": "N" 
			},
			{
				"x": -1.6514827405,
				"y": -0.6090208184,
				"z": -1.0214609367,
				"element": "C" 
			},
			{
				"x": -2.7381290291,
				"y": -3.0376509718,
				"z": -0.0773673071,
				"element": "H" 
			},
			{
				"x": -1.5238597995,
				"y": -4.3261054801,
				"z": 0.1410171925,
				"element": "H" 
			},
			{
				"x": -1.577647882,
				"y": -3.4037195302,
				"z": -1.3853023018,
				"element": "H" 
			},
			{
				"x": 0.8550108778,
				"y": -0.8212629484,
				"z": 1.2615680549,
				"element": "H" 
			},
			{
				"x": 2.7020991892,
				"y": 2.2158325009,
				"z": 2.0287337451,
				"element": "H" 
			},
			{
				"x": 1.5754199556,
				"y": 0.959280939,
				"z": 2.6076949075,
				"element": "H" 
			},
			{
				"x": 2.7311502605,
				"y": 0.5887014085,
				"z": 1.2970900567,
				"element": "H" 
			},
			{
				"x": -0.5407087977,
				"y": 2.6143465981,
				"z": -0.9622744237,
				"element": "H" 
			},
			{
				"x": -2.0299537886,
				"y": 1.2269029373,
				"z": -3.3781758529,
				"element": "H" 
			},
			{
				"x": -3.4104938291,
				"y": 0.7114489351,
				"z": -2.4184809007,
				"element": "H" 
			},
			{
				"x": -3.2721865487,
				"y": 2.8986070308,
				"z": -1.3205516385,
				"element": "H" 
			},
			{
				"x": -3.3264312343,
				"y": 3.1247012191,
				"z": -2.9384271169,
				"element": "H" 
			},
			{
				"x": -2.4076661281,
				"y": -1.2191160027,
				"z": -1.5019224905,
				"element": "H" 
			}
		],
		 "valence_orbital": [ 
			{
				"type": "occ",
				"energy": -0.31802,
				"method": "rhf"
			},
			{
				"type": "occ",
				"energy": -0.28389,
				"method": "rhf"
			},
			{
				"type": "occ",
				"energy": -0.23492,
				"method": "rhf"
			},
			{
				"type": "occ",
				"energy": -0.21682,
				"method": "rhf"
			},
			{
				"type": "occ",
				"energy": -0.20207,
				"method": "rhf"
			},
			{
				"type": "unocc",
				"energy": 0.01347,
				"method": "rhf"
			},
			{
				"type": "unocc",
				"energy": 0.02871,
				"method": "rhf"
			},
			{
				"type": "unocc",
				"energy": 0.09047,
				"method": "rhf"
			},
			{
				"type": "unocc",
				"energy": 0.10236,
				"method": "rhf"
			},
			{
				"type": "unocc",
				"energy": 0.11,
				"method": "rhf"
			}
		],
		"cosmo_sigma_profile": { 
			"-0.025": 0.0,
			"-0.024": 0.0,
			"-0.023": 0.0,
			"-0.022": 0.0,
			"-0.021": 0.0,
			"-0.02": 0.0,
			"-0.019": 0.0,
			"-0.018": 0.0,
			"-0.017": 0.0,
			"-0.016": 0.0,
			"-0.015": 0.0,
			"-0.014": 0.0,
			"-0.013": 0.0,
			"-0.012": 0.0,
			"-0.011": 0.023332279612,
			"-0.01": 1.31002930282,
			"-0.009": 2.86554999315,
			"-0.008": 2.19781201347,
			"-0.007": 2.8312689495,
			"-0.006": 8.15436370351,
			"-0.005": 22.0643586715,
			"-0.004": 24.2968799622,
			"-0.003": 27.4295601493,
			"-0.002": 19.5016597039,
			"-0.001": 12.2740316486,
			"0.0": 9.37802092777,
			"0.001": 8.52707347569,
			"0.002": 7.393193834,
			"0.003": 9.41292721224,
			"0.004": 12.9109491862,
			"0.005": 15.340162567,
			"0.006": 12.2383802549,
			"0.007": 4.88378125761,
			"0.008": 3.59707628739,
			"0.009": 3.38911889237,
			"0.01": 4.22677197828,
			"0.011": 2.1645757198,
			"0.012": 0.883368880066,
			"0.013": 0.857658133049,
			"0.014": 0.0517245355486,
			"0.015": 0.861183083909,
			"0.016": 0.525388656035,
			"0.017": 0.355896006019,
			"0.018": 0.115922590488,
			"0.019": 0.0,
			"0.02": 0.0,
			"0.021": 0.0,
			"0.022": 0.0,
			"0.023": 0.0,
			"0.024": 0.0,
			"0.025": 0.0
		}
	}
}
