{
	 "smiles": "CCOC(=O)C1=NOC(=C1)C1=CC=CS1", 
	 "Tm": 322.65, 
	 "num_atms": 24, 
	 "gaussian": { 
		 "optdone": 1, 
		 "sigma_profile": "yes", 
		 "theory": "DFT", 
		 "functional": "B3LYP", 
		 "basiset": "6-31G**", 
		 "properties": { 
			 "R2extent": 6247.8257, 
			 "electric_dipole_moment_norm": 1.64511752772, 
			 "electric_quadrupole_moment_norm": 28.2656727873, 
			 "total_energy": -1065.04327472, 
			 "HOMO_LUMO_gap": 0.16503, 
			 "cosmo_polarized_energy": -10.9, 
			 "cosmo_cavitation_energy": 31.47, 
			 "cosmo_dispersion_energy": -23.42, 
			 "cosmo_repulsion_energy": 1.79, 
			 "cosmo_total_nonelectrostatic_energy": 9.84, 
			 "SMD_solvation_energy": 6.4 
		},
		"coords": [
			{
				"x": -1.6028646244,
				"y": -3.7112899749,
				"z": 0.398469823,
				"element": "C" 
			},
			{
				"x": -0.2421514735,
				"y": -3.3249793812,
				"z": 0.9575730193,
				"element": "C" 
			},
			{
				"x": 0.2715552761,
				"y": -2.1326701712,
				"z": 0.311316338,
				"element": "O" 
			},
			{
				"x": -0.1281385188,
				"y": -0.958787915,
				"z": 0.818896261,
				"element": "C" 
			},
			{
				"x": -0.872592121,
				"y": -0.818598099,
				"z": 1.769272356,
				"element": "O" 
			},
			{
				"x": 0.448019722,
				"y": 0.2052463322,
				"z": 0.0898824103,
				"element": "C" 
			},
			{
				"x": 1.253125511,
				"y": 0.071410553,
				"z": -0.9465308526,
				"element": "N" 
			},
			{
				"x": 1.5609027515,
				"y": 1.3686767697,
				"z": -1.3316259107,
				"element": "O" 
			},
			{
				"x": 0.9313100117,
				"y": 2.2567663166,
				"z": -0.514013158,
				"element": "C" 
			},
			{
				"x": 0.2030245953,
				"y": 1.5649065706,
				"z": 0.4156028272,
				"element": "C" 
			},
			{
				"x": 1.1529375052,
				"y": 3.6576320949,
				"z": -0.7861600616,
				"element": "C" 
			},
			{
				"x": 1.9307782107,
				"y": 4.2093261888,
				"z": -1.7808056699,
				"element": "C" 
			},
			{
				"x": 1.9271356268,
				"y": 5.6315841731,
				"z": -1.7632149045,
				"element": "C" 
			},
			{
				"x": 1.1505760654,
				"y": 6.1481968505,
				"z": -0.7605416622,
				"element": "C" 
			},
			{
				"x": 0.4052216351,
				"y": 4.9038381277,
				"z": 0.1861323596,
				"element": "S" 
			},
			{
				"x": -2.3475636344,
				"y": -2.9466712912,
				"z": 0.632749953,
				"element": "H" 
			},
			{
				"x": -1.5549951475,
				"y": -3.8405380293,
				"z": -0.6865114071,
				"element": "H" 
			},
			{
				"x": -1.9300866618,
				"y": -4.6564845856,
				"z": 0.8442388949,
				"element": "H" 
			},
			{
				"x": 0.5109819531,
				"y": -4.0870241757,
				"z": 0.7462484016,
				"element": "H" 
			},
			{
				"x": -0.2909282458,
				"y": -3.1481346874,
				"z": 2.0345731158,
				"element": "H" 
			},
			{
				"x": -0.4162290363,
				"y": 1.939021312,
				"z": 1.2148405905,
				"element": "H" 
			},
			{
				"x": 2.4804147549,
				"y": 3.6055314228,
				"z": -2.4924744432,
				"element": "H" 
			},
			{
				"x": 2.4785237846,
				"y": 6.2448839046,
				"z": -2.4662061228,
				"element": "H" 
			},
			{
				"x": 0.96924206,
				"y": 7.1860576938,
				"z": -0.5180121577,
				"element": "H" 
			}
		],
		 "valence_orbital": [ 
			{
				"type": "occ",
				"energy": -0.30523,
				"method": "rhf"
			},
			{
				"type": "occ",
				"energy": -0.29836,
				"method": "rhf"
			},
			{
				"type": "occ",
				"energy": -0.2841,
				"method": "rhf"
			},
			{
				"type": "occ",
				"energy": -0.26743,
				"method": "rhf"
			},
			{
				"type": "occ",
				"energy": -0.22897,
				"method": "rhf"
			},
			{
				"type": "unocc",
				"energy": -0.06394,
				"method": "rhf"
			},
			{
				"type": "unocc",
				"energy": -0.03749,
				"method": "rhf"
			},
			{
				"type": "unocc",
				"energy": 0.01248,
				"method": "rhf"
			},
			{
				"type": "unocc",
				"energy": 0.02734,
				"method": "rhf"
			},
			{
				"type": "unocc",
				"energy": 0.07433,
				"method": "rhf"
			}
		],
		"cosmo_sigma_profile": { 
			"-0.025": 0.0,
			"-0.024": 0.0,
			"-0.023": 0.0,
			"-0.022": 0.0,
			"-0.021": 0.0,
			"-0.02": 0.0,
			"-0.019": 0.0,
			"-0.018": 0.0,
			"-0.017": 0.0,
			"-0.016": 0.0,
			"-0.015": 0.0,
			"-0.014": 0.0,
			"-0.013": 0.0,
			"-0.012": 0.0,
			"-0.011": 0.0,
			"-0.01": 0.368400346185,
			"-0.009": 3.31273971806,
			"-0.008": 3.92950269302,
			"-0.007": 7.82237572627,
			"-0.006": 10.8157236694,
			"-0.005": 13.3318630599,
			"-0.004": 20.8089397863,
			"-0.003": 20.519234529,
			"-0.002": 20.698973472,
			"-0.001": 24.9111953293,
			"0.0": 25.8607085855,
			"0.001": 20.2325209207,
			"0.002": 17.3990621041,
			"0.003": 17.8509421897,
			"0.004": 9.73161097985,
			"0.005": 4.5601273425,
			"0.006": 4.99923226137,
			"0.007": 5.66792491859,
			"0.008": 3.5963912036,
			"0.009": 4.07199857841,
			"0.01": 4.0816471851,
			"0.011": 6.28740298345,
			"0.012": 2.2476888084,
			"0.013": 1.29734755129,
			"0.014": 0.156132592131,
			"0.015": 0.0,
			"0.016": 0.0,
			"0.017": 0.0,
			"0.018": 0.0,
			"0.019": 0.0,
			"0.02": 0.0,
			"0.021": 0.0,
			"0.022": 0.0,
			"0.023": 0.0,
			"0.024": 0.0,
			"0.025": 0.0
		}
	}
}
