{
	 "smiles": "CC(N)(C(N)=O)C1=CC(=CC=C1)C(F)(F)F", 
	 "Tm": 358.15, 
	 "num_atms": 27, 
	 "gaussian": { 
		 "optdone": 1, 
		 "sigma_profile": "yes", 
		 "theory": "DFT", 
		 "functional": "B3LYP", 
		 "basiset": "6-31G**", 
		 "properties": { 
			 "R2extent": 4628.5723, 
			 "electric_dipole_moment_norm": 4.55280777213, 
			 "electric_quadrupole_moment_norm": 12.2419590556, 
			 "total_energy": -871.964200231, 
			 "HOMO_LUMO_gap": 0.19793, 
			 "cosmo_polarized_energy": -15.41, 
			 "cosmo_cavitation_energy": 31.68, 
			 "cosmo_dispersion_energy": -21.68, 
			 "cosmo_repulsion_energy": 1.66, 
			 "cosmo_total_nonelectrostatic_energy": 11.65, 
			 "SMD_solvation_energy": 6.38 
		},
		"coords": [
			{
				"x": 1.16324444,
				"y": -2.6791130292,
				"z": 0.859493712,
				"element": "C" 
			},
			{
				"x": -0.1374592856,
				"y": -1.9162743184,
				"z": 1.1858114659,
				"element": "C" 
			},
			{
				"x": -0.1666443082,
				"y": -1.6747648098,
				"z": 2.6319883243,
				"element": "N" 
			},
			{
				"x": -1.3794061905,
				"y": -2.801690518,
				"z": 0.8577973988,
				"element": "C" 
			},
			{
				"x": -1.4029121422,
				"y": -3.3672414872,
				"z": -0.3819122658,
				"element": "N" 
			},
			{
				"x": -2.2805964203,
				"y": -2.970843785,
				"z": 1.6690684209,
				"element": "O" 
			},
			{
				"x": -0.2983101829,
				"y": -0.6115228796,
				"z": 0.3760199501,
				"element": "C" 
			},
			{
				"x": -1.4370800965,
				"y": 0.1789907866,
				"z": 0.6021534582,
				"element": "C" 
			},
			{
				"x": -1.6227187391,
				"y": 1.3765447393,
				"z": -0.0839840873,
				"element": "C" 
			},
			{
				"x": -0.6703299901,
				"y": 1.8199853391,
				"z": -1.0088623835,
				"element": "C" 
			},
			{
				"x": 0.4620506634,
				"y": 1.0458907191,
				"z": -1.2375518693,
				"element": "C" 
			},
			{
				"x": 0.6449118039,
				"y": -0.1617366954,
				"z": -0.5554208018,
				"element": "C" 
			},
			{
				"x": -2.8814807109,
				"y": 2.1761012687,
				"z": 0.1258633483,
				"element": "C" 
			},
			{
				"x": -3.4203539124,
				"y": 1.9646138164,
				"z": 1.3455337281,
				"element": "F" 
			},
			{
				"x": -3.8298076474,
				"y": 1.8568658461,
				"z": -0.7861179569,
				"element": "F" 
			},
			{
				"x": -2.6559245076,
				"y": 3.5039825315,
				"z": 0.0046346604,
				"element": "F" 
			},
			{
				"x": 1.2743772959,
				"y": -2.9389253759,
				"z": -0.1981136619,
				"element": "H" 
			},
			{
				"x": 2.0267507657,
				"y": -2.077651953,
				"z": 1.1579743238,
				"element": "H" 
			},
			{
				"x": 1.1833428959,
				"y": -3.5993331999,
				"z": 1.4463333717,
				"element": "H" 
			},
			{
				"x": -1.1097698506,
				"y": -1.8490440485,
				"z": 2.9735947052,
				"element": "H" 
			},
			{
				"x": 0.0945325526,
				"y": -0.7184665432,
				"z": 2.8453530702,
				"element": "H" 
			},
			{
				"x": -2.2583707004,
				"y": -3.827400535,
				"z": -0.6563387501,
				"element": "H" 
			},
			{
				"x": -0.7766202392,
				"y": -3.0608510668,
				"z": -1.1088097542,
				"element": "H" 
			},
			{
				"x": -2.1804049454,
				"y": -0.1469915474,
				"z": 1.3222992931,
				"element": "H" 
			},
			{
				"x": -0.8148172362,
				"y": 2.7608712004,
				"z": -1.5285911294,
				"element": "H" 
			},
			{
				"x": 1.2133955187,
				"y": 1.3822364152,
				"z": -1.94583856,
				"element": "H" 
			},
			{
				"x": 1.5405011695,
				"y": -0.7417308701,
				"z": -0.7491780107,
				"element": "H" 
			}
		],
		 "valence_orbital": [ 
			{
				"type": "occ",
				"energy": -0.289,
				"method": "rhf"
			},
			{
				"type": "occ",
				"energy": -0.2756,
				"method": "rhf"
			},
			{
				"type": "occ",
				"energy": -0.27379,
				"method": "rhf"
			},
			{
				"type": "occ",
				"energy": -0.25682,
				"method": "rhf"
			},
			{
				"type": "occ",
				"energy": -0.23204,
				"method": "rhf"
			},
			{
				"type": "unocc",
				"energy": -0.03411,
				"method": "rhf"
			},
			{
				"type": "unocc",
				"energy": -0.02629,
				"method": "rhf"
			},
			{
				"type": "unocc",
				"energy": 0.02104,
				"method": "rhf"
			},
			{
				"type": "unocc",
				"energy": 0.06322,
				"method": "rhf"
			},
			{
				"type": "unocc",
				"energy": 0.09055,
				"method": "rhf"
			}
		],
		"cosmo_sigma_profile": { 
			"-0.025": 0.0,
			"-0.024": 0.0,
			"-0.023": 0.0,
			"-0.022": 0.0,
			"-0.021": 0.0,
			"-0.02": 0.0,
			"-0.019": 0.0,
			"-0.018": 0.0,
			"-0.017": 0.0,
			"-0.016": 0.0,
			"-0.015": 0.00650196928088,
			"-0.014": 1.49034315163,
			"-0.013": 2.17396538345,
			"-0.012": 2.87103231711,
			"-0.011": 2.32541442242,
			"-0.01": 2.93808774004,
			"-0.009": 3.26158073493,
			"-0.008": 3.15430011112,
			"-0.007": 6.50183691092,
			"-0.006": 11.0714259147,
			"-0.005": 12.8636962103,
			"-0.004": 16.2175889569,
			"-0.003": 15.2813751859,
			"-0.002": 12.8910617074,
			"-0.001": 14.9212762346,
			"0.0": 18.9098689619,
			"0.001": 19.6681071572,
			"0.002": 25.9470861363,
			"0.003": 38.8810117154,
			"0.004": 9.96169081801,
			"0.005": 3.48106859423,
			"0.006": 2.8733875237,
			"0.007": 3.08620067033,
			"0.008": 2.46545602118,
			"0.009": 1.43701299211,
			"0.01": 1.82675731583,
			"0.011": 2.67379690084,
			"0.012": 3.46053608563,
			"0.013": 4.07890862154,
			"0.014": 1.48818338352,
			"0.015": 0.614981172306,
			"0.016": 0.660616472463,
			"0.017": 0.440079494342,
			"0.018": 0.438507181989,
			"0.019": 0.157295509442,
			"0.02": 0.0,
			"0.021": 0.0,
			"0.022": 0.0,
			"0.023": 0.0,
			"0.024": 0.0,
			"0.025": 0.0
		}
	}
}
