{
	 "smiles": "NC1=NC2=C(N=CN2)C(N)=N1", 
	 "Tm": 575.15, 
	 "num_atms": 17, 
	 "gaussian": { 
		 "optdone": 1, 
		 "sigma_profile": "yes", 
		 "theory": "DFT", 
		 "functional": "B3LYP", 
		 "basiset": "6-31G**", 
		 "properties": { 
			 "R2extent": 1896.4994, 
			 "electric_dipole_moment_norm": 1.54256467612, 
			 "electric_quadrupole_moment_norm": 13.8053216192, 
			 "total_energy": -522.693631826, 
			 "HOMO_LUMO_gap": 0.19242, 
			 "cosmo_polarized_energy": -18.1, 
			 "cosmo_cavitation_energy": 21.58, 
			 "cosmo_dispersion_energy": -16.89, 
			 "cosmo_repulsion_energy": 1.37, 
			 "cosmo_total_nonelectrostatic_energy": 6.06, 
			 "SMD_solvation_energy": -0.96 
		},
		"coords": [
			{
				"x": -0.7043997553,
				"y": -1.5208629066,
				"z": 1.7354712897,
				"element": "N" 
			},
			{
				"x": -0.661077577,
				"y": -0.4716765538,
				"z": 0.8502596963,
				"element": "C" 
			},
			{
				"x": -1.7716113629,
				"y": -0.2580281997,
				"z": 0.1211599161,
				"element": "N" 
			},
			{
				"x": -1.6348352497,
				"y": 0.8125466237,
				"z": -0.666207653,
				"element": "C" 
			},
			{
				"x": -0.51789338,
				"y": 1.6480202065,
				"z": -0.7738241203,
				"element": "C" 
			},
			{
				"x": -0.7238005921,
				"y": 2.6586035502,
				"z": -1.7011667272,
				"element": "N" 
			},
			{
				"x": -1.9370497423,
				"y": 2.4425427885,
				"z": -2.1415518986,
				"element": "C" 
			},
			{
				"x": -2.5432015246,
				"y": 1.3416288273,
				"z": -1.5565679311,
				"element": "N" 
			},
			{
				"x": 0.5804703528,
				"y": 1.3032486564,
				"z": 0.043110369,
				"element": "C" 
			},
			{
				"x": 1.7225186121,
				"y": 2.0387533095,
				"z": 0.0540150792,
				"element": "N" 
			},
			{
				"x": 0.4943069709,
				"y": 0.2344130311,
				"z": 0.8445408732,
				"element": "N" 
			},
			{
				"x": -1.4227803476,
				"y": -2.2088729947,
				"z": 1.5729553358,
				"element": "H" 
			},
			{
				"x": 0.1850980969,
				"y": -1.8473751633,
				"z": 2.0783500517,
				"element": "H" 
			},
			{
				"x": -2.4492185913,
				"y": 3.038414486,
				"z": -2.8851457577,
				"element": "H" 
			},
			{
				"x": -3.4703558262,
				"y": 0.9861978725,
				"z": -1.7330044376,
				"element": "H" 
			},
			{
				"x": 2.5241844572,
				"y": 1.6579660558,
				"z": 0.530664656,
				"element": "H" 
			},
			{
				"x": 1.8577454594,
				"y": 2.7322804106,
				"z": -0.6637587415,
				"element": "H" 
			}
		],
		 "valence_orbital": [ 
			{
				"type": "occ",
				"energy": -0.27738,
				"method": "rhf"
			},
			{
				"type": "occ",
				"energy": -0.27052,
				"method": "rhf"
			},
			{
				"type": "occ",
				"energy": -0.23857,
				"method": "rhf"
			},
			{
				"type": "occ",
				"energy": -0.2381,
				"method": "rhf"
			},
			{
				"type": "occ",
				"energy": -0.19338,
				"method": "rhf"
			},
			{
				"type": "unocc",
				"energy": -0.00096,
				"method": "rhf"
			},
			{
				"type": "unocc",
				"energy": 0.02968,
				"method": "rhf"
			},
			{
				"type": "unocc",
				"energy": 0.05807,
				"method": "rhf"
			},
			{
				"type": "unocc",
				"energy": 0.08409,
				"method": "rhf"
			},
			{
				"type": "unocc",
				"energy": 0.09719,
				"method": "rhf"
			}
		],
		"cosmo_sigma_profile": { 
			"-0.025": 0.0,
			"-0.024": 0.0,
			"-0.023": 0.0,
			"-0.022": 0.0,
			"-0.021": 0.0,
			"-0.02": 0.0,
			"-0.019": 0.0,
			"-0.018": 0.0,
			"-0.017": 0.425195020366,
			"-0.016": 1.4959917316,
			"-0.015": 1.38566233267,
			"-0.014": 2.18555078824,
			"-0.013": 4.45679460398,
			"-0.012": 4.29371223304,
			"-0.011": 4.66971628062,
			"-0.01": 6.10032818238,
			"-0.009": 7.00498754813,
			"-0.008": 6.81184569555,
			"-0.007": 4.19899744368,
			"-0.006": 4.42318615634,
			"-0.005": 5.01094006104,
			"-0.004": 3.45192942775,
			"-0.003": 5.20346369061,
			"-0.002": 4.38718398148,
			"-0.001": 5.50581641791,
			"0.0": 6.95619590859,
			"0.001": 14.2378483896,
			"0.002": 14.5701402256,
			"0.003": 8.27445571328,
			"0.004": 7.82873875985,
			"0.005": 7.05926760836,
			"0.006": 6.42769138325,
			"0.007": 5.97627012201,
			"0.008": 5.34347418879,
			"0.009": 5.32977375238,
			"0.01": 3.1335468619,
			"0.011": 4.38192525188,
			"0.012": 3.51729796258,
			"0.013": 2.55551185282,
			"0.014": 2.76061984353,
			"0.015": 1.61539600577,
			"0.016": 1.11024195487,
			"0.017": 0.0312874265583,
			"0.018": 0.0,
			"0.019": 0.0,
			"0.02": 0.0,
			"0.021": 0.0,
			"0.022": 0.0,
			"0.023": 0.0,
			"0.024": 0.0,
			"0.025": 0.0
		}
	}
}
