{
	 "smiles": "ClC(Cl)(Cl)S(Cl)(=O)=O", 
	 "Tm": 413.15, 
	 "num_atms": 8, 
	 "gaussian": { 
		 "optdone": 1, 
		 "sigma_profile": "yes", 
		 "theory": "DFT", 
		 "functional": "B3LYP", 
		 "basiset": "6-31G**", 
		 "properties": { 
			 "R2extent": 1895.3962, 
			 "electric_dipole_moment_norm": 2.24544527433, 
			 "electric_quadrupole_moment_norm": 3.87222802402, 
			 "total_energy": -2427.39564037, 
			 "HOMO_LUMO_gap": 0.21954, 
			 "cosmo_polarized_energy": -4.09, 
			 "cosmo_cavitation_energy": 21.13, 
			 "cosmo_dispersion_energy": -16.29, 
			 "cosmo_repulsion_energy": 1.29, 
			 "cosmo_total_nonelectrostatic_energy": 6.14, 
			 "SMD_solvation_energy": 1.39 
		},
		"coords": [
			{
				"x": 0.1757367892,
				"y": 0.9846509526,
				"z": 2.3400756244,
				"element": "Cl" 
			},
			{
				"x": -0.293889201,
				"y": -0.1694738118,
				"z": 1.0693918718,
				"element": "C" 
			},
			{
				"x": -1.7172790166,
				"y": -1.1047896839,
				"z": 1.5475273588,
				"element": "Cl" 
			},
			{
				"x": 1.0623232514,
				"y": -1.2114196481,
				"z": 0.6171148374,
				"element": "Cl" 
			},
			{
				"x": -0.7604705024,
				"y": 0.949373568,
				"z": -0.4526159208,
				"element": "S" 
			},
			{
				"x": -1.2902129517,
				"y": -0.5084597373,
				"z": -1.8699593623,
				"element": "Cl" 
			},
			{
				"x": 0.4583326945,
				"y": 1.5919666415,
				"z": -0.9101576444,
				"element": "O" 
			},
			{
				"x": -1.9620410635,
				"y": 1.684151719,
				"z": -0.1003767649,
				"element": "O" 
			}
		],
		 "valence_orbital": [ 
			{
				"type": "occ",
				"energy": -0.34885,
				"method": "rhf"
			},
			{
				"type": "occ",
				"energy": -0.34877,
				"method": "rhf"
			},
			{
				"type": "occ",
				"energy": -0.34572,
				"method": "rhf"
			},
			{
				"type": "occ",
				"energy": -0.3395,
				"method": "rhf"
			},
			{
				"type": "occ",
				"energy": -0.33605,
				"method": "rhf"
			},
			{
				"type": "unocc",
				"energy": -0.11651,
				"method": "rhf"
			},
			{
				"type": "unocc",
				"energy": -0.0717,
				"method": "rhf"
			},
			{
				"type": "unocc",
				"energy": -0.03866,
				"method": "rhf"
			},
			{
				"type": "unocc",
				"energy": -0.03094,
				"method": "rhf"
			},
			{
				"type": "unocc",
				"energy": -0.01159,
				"method": "rhf"
			}
		],
		"cosmo_sigma_profile": { 
			"-0.025": 0.0,
			"-0.024": 0.0,
			"-0.023": 0.0,
			"-0.022": 0.0,
			"-0.021": 0.0,
			"-0.02": 0.0,
			"-0.019": 0.0,
			"-0.018": 0.0,
			"-0.017": 0.0,
			"-0.016": 0.0,
			"-0.015": 0.0,
			"-0.014": 0.0,
			"-0.013": 0.0,
			"-0.012": 0.0,
			"-0.011": 0.0,
			"-0.01": 0.0,
			"-0.009": 0.0,
			"-0.008": 0.0756061014988,
			"-0.007": 2.31296510183,
			"-0.006": 5.04557632781,
			"-0.005": 6.84688347064,
			"-0.004": 7.64033174836,
			"-0.003": 12.5812727556,
			"-0.002": 16.8992275087,
			"-0.001": 23.9986996804,
			"0.0": 39.3945708086,
			"0.001": 26.4776237034,
			"0.002": 8.5025806021,
			"0.003": 3.17673534245,
			"0.004": 3.33557749368,
			"0.005": 3.98200706679,
			"0.006": 9.87761877723,
			"0.007": 8.7703589222,
			"0.008": 0.0620256437061,
			"0.009": 0.0,
			"0.01": 0.0,
			"0.011": 0.0,
			"0.012": 0.0,
			"0.013": 0.0,
			"0.014": 0.0,
			"0.015": 0.0,
			"0.016": 0.0,
			"0.017": 0.0,
			"0.018": 0.0,
			"0.019": 0.0,
			"0.02": 0.0,
			"0.021": 0.0,
			"0.022": 0.0,
			"0.023": 0.0,
			"0.024": 0.0,
			"0.025": 0.0
		}
	}
}
