{
	 "smiles": "CC(=O)C1=C(Br)C=CS1", 
	 "Tm": 316.15, 
	 "num_atms": 14, 
	 "gaussian": { 
		 "optdone": 1, 
		 "sigma_profile": "yes", 
		 "theory": "DFT", 
		 "functional": "B3LYP", 
		 "basiset": "6-31G**", 
		 "properties": { 
			 "R2extent": 2461.2278, 
			 "electric_dipole_moment_norm": 2.77015541802, 
			 "electric_quadrupole_moment_norm": 9.90467934211, 
			 "total_energy": -3276.44966502, 
			 "HOMO_LUMO_gap": 0.18167, 
			 "cosmo_polarized_energy": -7.57, 
			 "cosmo_cavitation_energy": 21.92, 
			 "cosmo_dispersion_energy": -17.16, 
			 "cosmo_repulsion_energy": 1.34, 
			 "cosmo_total_nonelectrostatic_energy": 6.1, 
			 "SMD_solvation_energy": 3.57 
		},
		"coords": [
			{
				"x": 1.1532650838,
				"y": 1.1281042417,
				"z": -0.9683188593,
				"element": "C" 
			},
			{
				"x": 0.7368219788,
				"y": 0.5099424049,
				"z": 0.3484773233,
				"element": "C" 
			},
			{
				"x": 0.9845348744,
				"y": 1.065218498,
				"z": 1.4118919109,
				"element": "O" 
			},
			{
				"x": 0.0177464511,
				"y": -0.7850368917,
				"z": 0.3777336641,
				"element": "C" 
			},
			{
				"x": -0.4286360155,
				"y": -1.6855170062,
				"z": -0.5718366476,
				"element": "C" 
			},
			{
				"x": -0.235518371,
				"y": -1.5294129658,
				"z": -2.4547098717,
				"element": "Br" 
			},
			{
				"x": -1.0906298701,
				"y": -2.8239803721,
				"z": -0.0348425666,
				"element": "C" 
			},
			{
				"x": -1.1427215647,
				"y": -2.779405081,
				"z": 1.3323478122,
				"element": "C" 
			},
			{
				"x": -0.3959093546,
				"y": -1.3677722861,
				"z": 1.9784968428,
				"element": "S" 
			},
			{
				"x": 1.8216500138,
				"y": 0.4620556353,
				"z": -1.5223844813,
				"element": "H" 
			},
			{
				"x": 1.6613196238,
				"y": 2.0686901893,
				"z": -0.7520685214,
				"element": "H" 
			},
			{
				"x": 0.2855986517,
				"y": 1.3115915654,
				"z": -1.6092854634,
				"element": "H" 
			},
			{
				"x": -1.4978761205,
				"y": -3.6195570695,
				"z": -0.6454140894,
				"element": "H" 
			},
			{
				"x": -1.5859453811,
				"y": -3.5113208624,
				"z": 1.9944129474,
				"element": "H" 
			}
		],
		 "valence_orbital": [ 
			{
				"type": "occ",
				"energy": -0.32832,
				"method": "rhf"
			},
			{
				"type": "occ",
				"energy": -0.30127,
				"method": "rhf"
			},
			{
				"type": "occ",
				"energy": -0.26189,
				"method": "rhf"
			},
			{
				"type": "occ",
				"energy": -0.25929,
				"method": "rhf"
			},
			{
				"type": "occ",
				"energy": -0.25238,
				"method": "rhf"
			},
			{
				"type": "unocc",
				"energy": -0.07071,
				"method": "rhf"
			},
			{
				"type": "unocc",
				"energy": -0.01699,
				"method": "rhf"
			},
			{
				"type": "unocc",
				"energy": 0.01167,
				"method": "rhf"
			},
			{
				"type": "unocc",
				"energy": 0.03724,
				"method": "rhf"
			},
			{
				"type": "unocc",
				"energy": 0.06468,
				"method": "rhf"
			}
		],
		"cosmo_sigma_profile": { 
			"-0.025": 0.0,
			"-0.024": 0.0,
			"-0.023": 0.0,
			"-0.022": 0.0,
			"-0.021": 0.0,
			"-0.02": 0.0,
			"-0.019": 0.0,
			"-0.018": 0.0,
			"-0.017": 0.0,
			"-0.016": 0.0,
			"-0.015": 0.0,
			"-0.014": 0.0,
			"-0.013": 0.0,
			"-0.012": 0.0,
			"-0.011": 0.0,
			"-0.01": 1.34601284948,
			"-0.009": 2.50534625829,
			"-0.008": 3.30505303863,
			"-0.007": 4.08707744211,
			"-0.006": 6.0083834476,
			"-0.005": 12.2447835799,
			"-0.004": 10.2134673914,
			"-0.003": 12.3950531508,
			"-0.002": 14.0061373802,
			"-0.001": 15.8700637059,
			"0.0": 16.7537221076,
			"0.001": 22.3014769302,
			"0.002": 18.6722592121,
			"0.003": 16.8982562426,
			"0.004": 4.93607225398,
			"0.005": 2.22762109259,
			"0.006": 1.56344174689,
			"0.007": 1.86185670175,
			"0.008": 1.95771905107,
			"0.009": 1.734146483,
			"0.01": 2.2340432629,
			"0.011": 3.5915056426,
			"0.012": 3.42068077051,
			"0.013": 0.9208473857,
			"0.014": 0.0185979640299,
			"0.015": 0.0,
			"0.016": 0.0,
			"0.017": 0.0,
			"0.018": 0.0,
			"0.019": 0.0,
			"0.02": 0.0,
			"0.021": 0.0,
			"0.022": 0.0,
			"0.023": 0.0,
			"0.024": 0.0,
			"0.025": 0.0
		}
	}
}
