{
	 "smiles": "COC1=NC(NN)=NC(C)=C1", 
	 "Tm": 390.15, 
	 "num_atms": 21, 
	 "gaussian": { 
		 "optdone": 1, 
		 "sigma_profile": "yes", 
		 "theory": "DFT", 
		 "functional": "B3LYP", 
		 "basiset": "6-31G**", 
		 "properties": { 
			 "R2extent": 2800.2463, 
			 "electric_dipole_moment_norm": 1.50041674877, 
			 "electric_quadrupole_moment_norm": 6.27065415966, 
			 "total_energy": -528.879229949, 
			 "HOMO_LUMO_gap": 0.20298, 
			 "cosmo_polarized_energy": -9.85, 
			 "cosmo_cavitation_energy": 25.08, 
			 "cosmo_dispersion_energy": -18.48, 
			 "cosmo_repulsion_energy": 1.52, 
			 "cosmo_total_nonelectrostatic_energy": 8.12, 
			 "SMD_solvation_energy": 3.84 
		},
		"coords": [
			{
				"x": -0.6519515678,
				"y": 1.6710186581,
				"z": -0.7265153804,
				"element": "C" 
			},
			{
				"x": 0.3475919057,
				"y": 1.6469295311,
				"z": 0.2966395007,
				"element": "O" 
			},
			{
				"x": 0.3201614672,
				"y": 0.6223481072,
				"z": 1.1693392895,
				"element": "C" 
			},
			{
				"x": -0.6211195604,
				"y": -0.30899678,
				"z": 1.0528779513,
				"element": "N" 
			},
			{
				"x": -0.5688512911,
				"y": -1.2953497538,
				"z": 1.972482176,
				"element": "C" 
			},
			{
				"x": -1.505509855,
				"y": -2.2893651525,
				"z": 1.8677071865,
				"element": "N" 
			},
			{
				"x": -2.6304904104,
				"y": -2.2099477813,
				"z": 1.0321470167,
				"element": "N" 
			},
			{
				"x": 0.3076328085,
				"y": -1.4200381267,
				"z": 2.9793691761,
				"element": "N" 
			},
			{
				"x": 1.2474786611,
				"y": -0.4621361933,
				"z": 3.0651602281,
				"element": "C" 
			},
			{
				"x": 2.2376635742,
				"y": -0.6012288975,
				"z": 4.1912240082,
				"element": "C" 
			},
			{
				"x": 1.3046807148,
				"y": 0.6012846589,
				"z": 2.1686025251,
				"element": "C" 
			},
			{
				"x": -0.4395784051,
				"y": 2.5635953823,
				"z": -1.3162986484,
				"element": "H" 
			},
			{
				"x": -0.5946883793,
				"y": 0.7780242588,
				"z": -1.3551849605,
				"element": "H" 
			},
			{
				"x": -1.6556524188,
				"y": 1.7320029253,
				"z": -0.2961657758,
				"element": "H" 
			},
			{
				"x": -1.5868280659,
				"y": -2.910357841,
				"z": 2.6589058181,
				"element": "H" 
			},
			{
				"x": -3.0000860616,
				"y": -1.2598169494,
				"z": 1.0767951194,
				"element": "H" 
			},
			{
				"x": -2.3148999928,
				"y": -2.3358199896,
				"z": 0.0717105175,
				"element": "H" 
			},
			{
				"x": 2.7790776266,
				"y": -1.548434113,
				"z": 4.0994105727,
				"element": "H" 
			},
			{
				"x": 2.9589378092,
				"y": 0.2192303314,
				"z": 4.2027550688,
				"element": "H" 
			},
			{
				"x": 1.7124027835,
				"y": -0.6265227003,
				"z": 5.1514322079,
				"element": "H" 
			},
			{
				"x": 2.0539286574,
				"y": 1.3799804251,
				"z": 2.2266064025,
				"element": "H" 
			}
		],
		 "valence_orbital": [ 
			{
				"type": "occ",
				"energy": -0.29212,
				"method": "rhf"
			},
			{
				"type": "occ",
				"energy": -0.27388,
				"method": "rhf"
			},
			{
				"type": "occ",
				"energy": -0.26611,
				"method": "rhf"
			},
			{
				"type": "occ",
				"energy": -0.24702,
				"method": "rhf"
			},
			{
				"type": "occ",
				"energy": -0.21312,
				"method": "rhf"
			},
			{
				"type": "unocc",
				"energy": -0.01014,
				"method": "rhf"
			},
			{
				"type": "unocc",
				"energy": 0.01219,
				"method": "rhf"
			},
			{
				"type": "unocc",
				"energy": 0.08698,
				"method": "rhf"
			},
			{
				"type": "unocc",
				"energy": 0.11622,
				"method": "rhf"
			},
			{
				"type": "unocc",
				"energy": 0.11918,
				"method": "rhf"
			}
		],
		"cosmo_sigma_profile": { 
			"-0.025": 0.0,
			"-0.024": 0.0,
			"-0.023": 0.0,
			"-0.022": 0.0,
			"-0.021": 0.0,
			"-0.02": 0.0,
			"-0.019": 0.0,
			"-0.018": 0.0,
			"-0.017": 0.0,
			"-0.016": 0.0,
			"-0.015": 0.0,
			"-0.014": 0.0697881476263,
			"-0.013": 0.604471952451,
			"-0.012": 0.884459999109,
			"-0.011": 1.78388088901,
			"-0.01": 3.16549204423,
			"-0.009": 2.51611190924,
			"-0.008": 1.98870129824,
			"-0.007": 2.89715905041,
			"-0.006": 7.5700499246,
			"-0.005": 13.6668820133,
			"-0.004": 15.6170567207,
			"-0.003": 17.3889385703,
			"-0.002": 14.5122028031,
			"-0.001": 14.5293340655,
			"0.0": 18.7277994625,
			"0.001": 14.0538217879,
			"0.002": 12.0957558186,
			"0.003": 11.5761125105,
			"0.004": 9.39919142275,
			"0.005": 6.70051573426,
			"0.006": 6.08487843728,
			"0.007": 4.87540632618,
			"0.008": 3.28153695326,
			"0.009": 2.9746017697,
			"0.01": 2.70657385761,
			"0.011": 1.58524674019,
			"0.012": 1.41937556624,
			"0.013": 1.57510956913,
			"0.014": 1.21081245974,
			"0.015": 1.38666450913,
			"0.016": 0.560875427808,
			"0.017": 0.380727929381,
			"0.018": 0.0,
			"0.019": 0.0,
			"0.02": 0.0,
			"0.021": 0.0,
			"0.022": 0.0,
			"0.023": 0.0,
			"0.024": 0.0,
			"0.025": 0.0
		}
	}
}
