{
	 "smiles": "CN1C2=C(C=CC=C2)C(Cl)=C1C(O)=O", 
	 "Tm": 507.15, 
	 "num_atms": 22, 
	 "gaussian": { 
		 "optdone": 1, 
		 "sigma_profile": "yes", 
		 "theory": "DFT", 
		 "functional": "B3LYP", 
		 "basiset": "6-31G**", 
		 "properties": { 
			 "R2extent": 3218.8615, 
			 "electric_dipole_moment_norm": 3.78244751715, 
			 "electric_quadrupole_moment_norm": 15.1207080952, 
			 "total_energy": -1051.2891389, 
			 "HOMO_LUMO_gap": 0.16217, 
			 "cosmo_polarized_energy": -10.39, 
			 "cosmo_cavitation_energy": 27.29, 
			 "cosmo_dispersion_energy": -20.6, 
			 "cosmo_repulsion_energy": 1.57, 
			 "cosmo_total_nonelectrostatic_energy": 8.26, 
			 "SMD_solvation_energy": 5.28 
		},
		"coords": [
			{
				"x": 2.8075921838,
				"y": -0.4938509397,
				"z": 1.0842604813,
				"element": "C" 
			},
			{
				"x": 1.461727623,
				"y": 0.0010006006,
				"z": 0.79997604,
				"element": "N" 
			},
			{
				"x": 1.1859853473,
				"y": 1.154343591,
				"z": 0.0987272303,
				"element": "C" 
			},
			{
				"x": -0.2255383043,
				"y": 1.3161188944,
				"z": 0.0182043471,
				"element": "C" 
			},
			{
				"x": -0.7778958139,
				"y": 2.4242509132,
				"z": -0.6518153169,
				"element": "C" 
			},
			{
				"x": 0.0811149785,
				"y": 3.3439688273,
				"z": -1.2249466729,
				"element": "C" 
			},
			{
				"x": 1.4835090068,
				"y": 3.176878468,
				"z": -1.1409954211,
				"element": "C" 
			},
			{
				"x": 2.0516417614,
				"y": 2.0952350993,
				"z": -0.4874346867,
				"element": "C" 
			},
			{
				"x": -0.7743031112,
				"y": 0.2037528205,
				"z": 0.7051398544,
				"element": "C" 
			},
			{
				"x": -2.4885346825,
				"y": -0.063364234,
				"z": 0.8906584585,
				"element": "Cl" 
			},
			{
				"x": 0.2583046195,
				"y": -0.5955575362,
				"z": 1.1802614509,
				"element": "C" 
			},
			{
				"x": 0.24875179,
				"y": -1.8607317922,
				"z": 1.9538291977,
				"element": "C" 
			},
			{
				"x": -0.9527308734,
				"y": -2.3759442086,
				"z": 2.2835661506,
				"element": "O" 
			},
			{
				"x": 1.2648683715,
				"y": -2.4332422847,
				"z": 2.2910308113,
				"element": "O" 
			},
			{
				"x": 2.9760472468,
				"y": -0.5640225383,
				"z": 2.1592769781,
				"element": "H" 
			},
			{
				"x": 3.5217598472,
				"y": 0.2035876515,
				"z": 0.6480346492,
				"element": "H" 
			},
			{
				"x": 2.9555342951,
				"y": -1.4846239992,
				"z": 0.6536100854,
				"element": "H" 
			},
			{
				"x": -1.8549410572,
				"y": 2.5450851152,
				"z": -0.7117438623,
				"element": "H" 
			},
			{
				"x": -0.3205166743,
				"y": 4.2067853668,
				"z": -1.74699804,
				"element": "H" 
			},
			{
				"x": 2.1326696095,
				"y": 3.9158883058,
				"z": -1.6009442272,
				"element": "H" 
			},
			{
				"x": 3.129700863,
				"y": 1.9893395711,
				"z": -0.4366392245,
				"element": "H" 
			},
			{
				"x": -1.6856470267,
				"y": -1.8275976917,
				"z": 1.9573417167,
				"element": "H" 
			}
		],
		 "valence_orbital": [ 
			{
				"type": "occ",
				"energy": -0.31513,
				"method": "rhf"
			},
			{
				"type": "occ",
				"energy": -0.28767,
				"method": "rhf"
			},
			{
				"type": "occ",
				"energy": -0.27853,
				"method": "rhf"
			},
			{
				"type": "occ",
				"energy": -0.24281,
				"method": "rhf"
			},
			{
				"type": "occ",
				"energy": -0.22244,
				"method": "rhf"
			},
			{
				"type": "unocc",
				"energy": -0.06027,
				"method": "rhf"
			},
			{
				"type": "unocc",
				"energy": 0.00377,
				"method": "rhf"
			},
			{
				"type": "unocc",
				"energy": 0.01516,
				"method": "rhf"
			},
			{
				"type": "unocc",
				"energy": 0.0152,
				"method": "rhf"
			},
			{
				"type": "unocc",
				"energy": 0.08405,
				"method": "rhf"
			}
		],
		"cosmo_sigma_profile": { 
			"-0.025": 0.0,
			"-0.024": 0.0,
			"-0.023": 0.0,
			"-0.022": 0.0,
			"-0.021": 0.0,
			"-0.02": 0.0,
			"-0.019": 0.0,
			"-0.018": 0.0,
			"-0.017": 0.0,
			"-0.016": 0.0,
			"-0.015": 0.0,
			"-0.014": 0.0,
			"-0.013": 0.0,
			"-0.012": 0.272025553455,
			"-0.011": 0.711643493316,
			"-0.01": 0.911922452376,
			"-0.009": 3.09169551938,
			"-0.008": 4.13878737094,
			"-0.007": 4.31956529396,
			"-0.006": 8.84811580911,
			"-0.005": 15.17228703,
			"-0.004": 18.9891935596,
			"-0.003": 21.5172952041,
			"-0.002": 17.5825046939,
			"-0.001": 13.6960298997,
			"0.0": 15.4085116225,
			"0.001": 18.1923108096,
			"0.002": 17.9590780973,
			"0.003": 14.9208542761,
			"0.004": 12.0361570646,
			"0.005": 9.4678702734,
			"0.006": 2.29537198469,
			"0.007": 2.86757555688,
			"0.008": 2.44659184937,
			"0.009": 3.50014910003,
			"0.01": 3.95340110253,
			"0.011": 4.07423418242,
			"0.012": 3.39578797536,
			"0.013": 1.65238715427,
			"0.014": 0.0888018300842,
			"0.015": 0.0,
			"0.016": 0.0,
			"0.017": 0.0,
			"0.018": 0.0,
			"0.019": 0.0,
			"0.02": 0.0,
			"0.021": 0.0,
			"0.022": 0.0,
			"0.023": 0.0,
			"0.024": 0.0,
			"0.025": 0.0
		}
	}
}
