{
	 "smiles": "CC1=CC=CC=C1CCC(O)=O", 
	 "Tm": 378.15, 
	 "num_atms": 24, 
	 "gaussian": { 
		 "optdone": 1, 
		 "sigma_profile": "yes", 
		 "theory": "DFT", 
		 "functional": "B3LYP", 
		 "basiset": "6-31G**", 
		 "properties": { 
			 "R2extent": 2687.1868, 
			 "electric_dipole_moment_norm": 4.53477324791, 
			 "electric_quadrupole_moment_norm": 20.627743497, 
			 "total_energy": -538.760689935, 
			 "HOMO_LUMO_gap": 0.23362, 
			 "cosmo_polarized_energy": -15.6, 
			 "cosmo_cavitation_energy": 26.88, 
			 "cosmo_dispersion_energy": -19.4, 
			 "cosmo_repulsion_energy": 1.55, 
			 "cosmo_total_nonelectrostatic_energy": 9.04, 
			 "SMD_solvation_energy": 5.39 
		},
		"coords": [
			{
				"x": -0.5326622917,
				"y": 2.7814551331,
				"z": -0.8816906559,
				"element": "C" 
			},
			{
				"x": -0.3153772563,
				"y": 1.5768369874,
				"z": 0.0047331981,
				"element": "C" 
			},
			{
				"x": -0.699474452,
				"y": 1.6266062845,
				"z": 1.3484775211,
				"element": "C" 
			},
			{
				"x": -0.5185028418,
				"y": 0.5349141644,
				"z": 2.1990076791,
				"element": "C" 
			},
			{
				"x": 0.0577144808,
				"y": -0.6306068231,
				"z": 1.7027600086,
				"element": "C" 
			},
			{
				"x": 0.4470956453,
				"y": -0.698359032,
				"z": 0.3627865621,
				"element": "C" 
			},
			{
				"x": 0.2696291914,
				"y": 0.3909701469,
				"z": -0.4983087587,
				"element": "C" 
			},
			{
				"x": 0.6700240814,
				"y": 0.3351829326,
				"z": -1.9637379421,
				"element": "C" 
			},
			{
				"x": 1.2833728866,
				"y": -0.980295269,
				"z": -2.4763062735,
				"element": "C" 
			},
			{
				"x": 2.647693577,
				"y": -1.3606704941,
				"z": -1.9078794555,
				"element": "C" 
			},
			{
				"x": 3.6156552661,
				"y": -0.408690742,
				"z": -1.9894700735,
				"element": "O" 
			},
			{
				"x": 2.9059399713,
				"y": -2.4406695326,
				"z": -1.4371805978,
				"element": "O" 
			},
			{
				"x": -0.9966513734,
				"y": 3.5980846829,
				"z": -0.3228906088,
				"element": "H" 
			},
			{
				"x": 0.4088609659,
				"y": 3.1610647458,
				"z": -1.2985239017,
				"element": "H" 
			},
			{
				"x": -1.1842457063,
				"y": 2.5521193282,
				"z": -1.734161753,
				"element": "H" 
			},
			{
				"x": -1.1490390578,
				"y": 2.5389653271,
				"z": 1.7328701271,
				"element": "H" 
			},
			{
				"x": -0.8247530392,
				"y": 0.5993564489,
				"z": 3.2391636288,
				"element": "H" 
			},
			{
				"x": 0.2102640695,
				"y": -1.4891636117,
				"z": 2.3500682411,
				"element": "H" 
			},
			{
				"x": 0.9042313047,
				"y": -1.6129655477,
				"z": 0.0013114029,
				"element": "H" 
			},
			{
				"x": -0.2129348773,
				"y": 0.5433142625,
				"z": -2.5826225494,
				"element": "H" 
			},
			{
				"x": 1.3496791508,
				"y": 1.1740137826,
				"z": -2.1839231854,
				"element": "H" 
			},
			{
				"x": 0.6160916453,
				"y": -1.8231960986,
				"z": -2.2874524412,
				"element": "H" 
			},
			{
				"x": 1.3987046945,
				"y": -0.9032446195,
				"z": -3.5659581331,
				"element": "H" 
			},
			{
				"x": 3.2601839651,
				"y": 0.4013775434,
				"z": -2.3816720395,
				"element": "H" 
			}
		],
		 "valence_orbital": [ 
			{
				"type": "occ",
				"energy": -0.33547,
				"method": "rhf"
			},
			{
				"type": "occ",
				"energy": -0.31258,
				"method": "rhf"
			},
			{
				"type": "occ",
				"energy": -0.26867,
				"method": "rhf"
			},
			{
				"type": "occ",
				"energy": -0.24653,
				"method": "rhf"
			},
			{
				"type": "occ",
				"energy": -0.2391,
				"method": "rhf"
			},
			{
				"type": "unocc",
				"energy": -0.00548,
				"method": "rhf"
			},
			{
				"type": "unocc",
				"energy": 0.00061,
				"method": "rhf"
			},
			{
				"type": "unocc",
				"energy": 0.01174,
				"method": "rhf"
			},
			{
				"type": "unocc",
				"energy": 0.04208,
				"method": "rhf"
			},
			{
				"type": "unocc",
				"energy": 0.09697,
				"method": "rhf"
			}
		],
		"cosmo_sigma_profile": { 
			"-0.025": 0.0,
			"-0.024": 0.0,
			"-0.023": 0.0,
			"-0.022": 0.0,
			"-0.021": 0.0,
			"-0.02": 0.0,
			"-0.019": 0.0636214552798,
			"-0.018": 0.894061704993,
			"-0.017": 0.933085189749,
			"-0.016": 1.33800324242,
			"-0.015": 1.03837774179,
			"-0.014": 0.882878609549,
			"-0.013": 0.83092742774,
			"-0.012": 0.902132979572,
			"-0.011": 1.43855983347,
			"-0.01": 0.960328623464,
			"-0.009": 1.49999492808,
			"-0.008": 2.41823518019,
			"-0.007": 3.16560140549,
			"-0.006": 4.4220052226,
			"-0.005": 15.7838374581,
			"-0.004": 21.9346306094,
			"-0.003": 21.4012737848,
			"-0.002": 17.4576848361,
			"-0.001": 13.5070272433,
			"0.0": 14.3117859274,
			"0.001": 10.8859576954,
			"0.002": 10.1414969166,
			"0.003": 8.97485737088,
			"0.004": 8.80420444558,
			"0.005": 9.53617896838,
			"0.006": 9.40347948208,
			"0.007": 5.85976701165,
			"0.008": 2.5961812006,
			"0.009": 3.63593206901,
			"0.01": 4.15175217285,
			"0.011": 5.08728824839,
			"0.012": 5.03939266498,
			"0.013": 2.62194063708,
			"0.014": 0.165984152035,
			"0.015": 0.0,
			"0.016": 0.0,
			"0.017": 0.0,
			"0.018": 0.0,
			"0.019": 0.0,
			"0.02": 0.0,
			"0.021": 0.0,
			"0.022": 0.0,
			"0.023": 0.0,
			"0.024": 0.0,
			"0.025": 0.0
		}
	}
}
