{
	 "smiles": "CC1=CC=C(C=C1)P(C1=CC=C(C)C=C1)C1=CC=C(C)C=C1", 
	 "Tm": 420.15, 
	 "num_atms": 43, 
	 "gaussian": { 
		 "optdone": 1, 
		 "sigma_profile": "yes", 
		 "theory": "DFT", 
		 "functional": "B3LYP", 
		 "basiset": "6-31G**", 
		 "properties": { 
			 "R2extent": 8730.5882, 
			 "electric_dipole_moment_norm": 1.75981081085, 
			 "electric_quadrupole_moment_norm": 7.35598960508, 
			 "total_energy": -1154.26526619, 
			 "HOMO_LUMO_gap": 0.18952, 
			 "cosmo_polarized_energy": -8.22, 
			 "cosmo_cavitation_energy": 47.26, 
			 "cosmo_dispersion_energy": -32.65, 
			 "cosmo_repulsion_energy": 2.62, 
			 "cosmo_total_nonelectrostatic_energy": 17.23, 
			 "SMD_solvation_energy": 8.13 
		},
		"coords": [
			{
				"x": -0.7988309963,
				"y": -2.488766837,
				"z": -5.2157559892,
				"element": "C" 
			},
			{
				"x": -0.8679169852,
				"y": -1.6830254354,
				"z": -3.9400776737,
				"element": "C" 
			},
			{
				"x": -1.5522452986,
				"y": -0.4594992838,
				"z": -3.8987812969,
				"element": "C" 
			},
			{
				"x": -1.6087145041,
				"y": 0.2921807403,
				"z": -2.7277964952,
				"element": "C" 
			},
			{
				"x": -0.96769847,
				"y": -0.1431467841,
				"z": -1.5550548589,
				"element": "C" 
			},
			{
				"x": -0.2886945255,
				"y": -1.3690972347,
				"z": -1.5935368355,
				"element": "C" 
			},
			{
				"x": -0.2441524177,
				"y": -2.1243585396,
				"z": -2.7671733798,
				"element": "C" 
			},
			{
				"x": -1.1262800889,
				"y": 0.9318396606,
				"z": -0.0551387567,
				"element": "P" 
			},
			{
				"x": 0.3478366238,
				"y": 2.0438286925,
				"z": -0.20013019,
				"element": "C" 
			},
			{
				"x": 1.4398659429,
				"y": 1.8191834324,
				"z": -1.0501104898,
				"element": "C" 
			},
			{
				"x": 2.4970799961,
				"y": 2.7294133712,
				"z": -1.1105780768,
				"element": "C" 
			},
			{
				"x": 2.5050846897,
				"y": 3.8878946589,
				"z": -0.3248464471,
				"element": "C" 
			},
			{
				"x": 3.660452602,
				"y": 4.8595907014,
				"z": -0.3724499802,
				"element": "C" 
			},
			{
				"x": 1.4092243991,
				"y": 4.1148056288,
				"z": 0.5205373282,
				"element": "C" 
			},
			{
				"x": 0.3472985659,
				"y": 3.2155824155,
				"z": 0.5762311358,
				"element": "C" 
			},
			{
				"x": -0.6315254393,
				"y": -0.2125220061,
				"z": 1.3145038993,
				"element": "C" 
			},
			{
				"x": 0.6769723101,
				"y": -0.3679533724,
				"z": 1.7947942963,
				"element": "C" 
			},
			{
				"x": 0.9521438697,
				"y": -1.2428541986,
				"z": 2.8469689915,
				"element": "C" 
			},
			{
				"x": -0.0632679184,
				"y": -1.9917716369,
				"z": 3.4546125295,
				"element": "C" 
			},
			{
				"x": 0.2332060152,
				"y": -2.9141753828,
				"z": 4.613248186,
				"element": "C" 
			},
			{
				"x": -1.3708237416,
				"y": -1.8358794551,
				"z": 2.9735268002,
				"element": "C" 
			},
			{
				"x": -1.6522050576,
				"y": -0.9558037135,
				"z": 1.9308493273,
				"element": "C" 
			},
			{
				"x": -0.0707822794,
				"y": -2.060758843,
				"z": -5.9163102647,
				"element": "H" 
			},
			{
				"x": -0.4981056681,
				"y": -3.5221568404,
				"z": -5.02119937,
				"element": "H" 
			},
			{
				"x": -1.7653631898,
				"y": -2.5085261312,
				"z": -5.7300262184,
				"element": "H" 
			},
			{
				"x": -2.0573408546,
				"y": -0.0982119359,
				"z": -4.7918154109,
				"element": "H" 
			},
			{
				"x": -2.1640819746,
				"y": 1.2270130735,
				"z": -2.7194323998,
				"element": "H" 
			},
			{
				"x": 0.2031183338,
				"y": -1.7424324399,
				"z": -0.7006436024,
				"element": "H" 
			},
			{
				"x": 0.2846619001,
				"y": -3.0748513552,
				"z": -2.7695313435,
				"element": "H" 
			},
			{
				"x": 1.4640585984,
				"y": 0.9320561222,
				"z": -1.6753470034,
				"element": "H" 
			},
			{
				"x": 3.3301909189,
				"y": 2.5347486508,
				"z": -1.7822437954,
				"element": "H" 
			},
			{
				"x": 4.2737672642,
				"y": 4.7094993055,
				"z": -1.2654932014,
				"element": "H" 
			},
			{
				"x": 3.3114234436,
				"y": 5.8974722865,
				"z": -0.3719199374,
				"element": "H" 
			},
			{
				"x": 4.3152495488,
				"y": 4.7402928116,
				"z": 0.4999292892,
				"element": "H" 
			},
			{
				"x": 1.3824987673,
				"y": 5.0134674668,
				"z": 1.132790295,
				"element": "H" 
			},
			{
				"x": -0.4988133436,
				"y": 3.4278414874,
				"z": 1.2254321561,
				"element": "H" 
			},
			{
				"x": 1.4875767554,
				"y": 0.1975662327,
				"z": 1.3457104542,
				"element": "H" 
			},
			{
				"x": 1.9756854504,
				"y": -1.3464645672,
				"z": 3.2004056531,
				"element": "H" 
			},
			{
				"x": 0.0590945139,
				"y": -2.4126915807,
				"z": 5.5737225762,
				"element": "H" 
			},
			{
				"x": 1.2755823616,
				"y": -3.246298379,
				"z": 4.6042964463,
				"element": "H" 
			},
			{
				"x": -0.406450593,
				"y": -3.8021484757,
				"z": 4.5926552522,
				"element": "H" 
			},
			{
				"x": -2.1793964627,
				"y": -2.4043978205,
				"z": 3.4274262514,
				"element": "H" 
			},
			{
				"x": -2.6784830622,
				"y": -0.84268449,
				"z": 1.5896521495,
				"element": "H" 
			}
		],
		 "valence_orbital": [ 
			{
				"type": "occ",
				"energy": -0.246,
				"method": "rhf"
			},
			{
				"type": "occ",
				"energy": -0.24591,
				"method": "rhf"
			},
			{
				"type": "occ",
				"energy": -0.23937,
				"method": "rhf"
			},
			{
				"type": "occ",
				"energy": -0.23917,
				"method": "rhf"
			},
			{
				"type": "occ",
				"energy": -0.20395,
				"method": "rhf"
			},
			{
				"type": "unocc",
				"energy": -0.01443,
				"method": "rhf"
			},
			{
				"type": "unocc",
				"energy": -0.01395,
				"method": "rhf"
			},
			{
				"type": "unocc",
				"energy": -0.00513,
				"method": "rhf"
			},
			{
				"type": "unocc",
				"energy": 0.00562,
				"method": "rhf"
			},
			{
				"type": "unocc",
				"energy": 0.00697,
				"method": "rhf"
			}
		],
		"cosmo_sigma_profile": { 
			"-0.025": 0.0,
			"-0.024": 0.0,
			"-0.023": 0.0,
			"-0.022": 0.0,
			"-0.021": 0.0,
			"-0.02": 0.0,
			"-0.019": 0.0,
			"-0.018": 0.0,
			"-0.017": 0.0,
			"-0.016": 0.0,
			"-0.015": 0.0,
			"-0.014": 0.0,
			"-0.013": 0.0,
			"-0.012": 0.0,
			"-0.011": 0.0,
			"-0.01": 0.0,
			"-0.009": 0.0,
			"-0.008": 0.0,
			"-0.007": 0.0,
			"-0.006": 2.30537598288,
			"-0.005": 19.7865699838,
			"-0.004": 41.2814490057,
			"-0.003": 42.4983323955,
			"-0.002": 36.656506988,
			"-0.001": 41.4629733182,
			"0.0": 43.6775981661,
			"0.001": 28.338581979,
			"0.002": 24.0243558644,
			"0.003": 26.6842924439,
			"0.004": 25.5552302154,
			"0.005": 25.3714256167,
			"0.006": 12.9974201442,
			"0.007": 1.04987643348,
			"0.008": 0.599930350431,
			"0.009": 0.181907184095,
			"0.01": 1.08887965468,
			"0.011": 0.739598522417,
			"0.012": 0.697325639712,
			"0.013": 0.478836158007,
			"0.014": 0.471309866434,
			"0.015": 0.00494215798148,
			"0.016": 0.0,
			"0.017": 0.0,
			"0.018": 0.0,
			"0.019": 0.0,
			"0.02": 0.0,
			"0.021": 0.0,
			"0.022": 0.0,
			"0.023": 0.0,
			"0.024": 0.0,
			"0.025": 0.0
		}
	}
}
