{
	 "smiles": "OC(=O)CC1=CNC2=C1C=CC(F)=C2", 
	 "Tm": 433.15, 
	 "num_atms": 22, 
	 "gaussian": { 
		 "optdone": 1, 
		 "sigma_profile": "yes", 
		 "theory": "DFT", 
		 "functional": "B3LYP", 
		 "basiset": "6-31G**", 
		 "properties": { 
			 "R2extent": 3201.5691, 
			 "electric_dipole_moment_norm": 5.62567635845, 
			 "electric_quadrupole_moment_norm": 21.7665507297, 
			 "total_energy": -690.927780047, 
			 "HOMO_LUMO_gap": 0.19199, 
			 "cosmo_polarized_energy": -22.24, 
			 "cosmo_cavitation_energy": 27.37, 
			 "cosmo_dispersion_energy": -19.68, 
			 "cosmo_repulsion_energy": 1.53, 
			 "cosmo_total_nonelectrostatic_energy": 9.23, 
			 "SMD_solvation_energy": 6.09 
		},
		"coords": [
			{
				"x": -2.6796126588,
				"y": 2.928834451,
				"z": 2.1640358414,
				"element": "O" 
			},
			{
				"x": -1.706241947,
				"y": 2.470800878,
				"z": 1.325265365,
				"element": "C" 
			},
			{
				"x": -0.5622723439,
				"y": 2.8006508729,
				"z": 1.4921457404,
				"element": "O" 
			},
			{
				"x": -2.2149423341,
				"y": 1.5298015796,
				"z": 0.226723263,
				"element": "C" 
			},
			{
				"x": -1.17062812,
				"y": 1.0451128222,
				"z": -0.7278354567,
				"element": "C" 
			},
			{
				"x": -1.1248731083,
				"y": 1.3089144417,
				"z": -2.0722005719,
				"element": "C" 
			},
			{
				"x": -0.046377003,
				"y": 0.6576382441,
				"z": -2.6436462602,
				"element": "N" 
			},
			{
				"x": 0.6288984529,
				"y": -0.043016722,
				"z": -1.6678221439,
				"element": "C" 
			},
			{
				"x": -0.0520637716,
				"y": 0.1794802891,
				"z": -0.4396023184,
				"element": "C" 
			},
			{
				"x": 0.4432007879,
				"y": -0.4244160106,
				"z": 0.728450588,
				"element": "C" 
			},
			{
				"x": 1.5707920381,
				"y": -1.2306626824,
				"z": 0.6536069101,
				"element": "C" 
			},
			{
				"x": 2.2058872157,
				"y": -1.4248637787,
				"z": -0.5830936684,
				"element": "C" 
			},
			{
				"x": 3.3035953839,
				"y": -2.2151042434,
				"z": -0.6182778746,
				"element": "F" 
			},
			{
				"x": 1.7697821111,
				"y": -0.848721555,
				"z": -1.7632977227,
				"element": "C" 
			},
			{
				"x": -3.5418250314,
				"y": 2.5741636691,
				"z": 1.9043381947,
				"element": "H" 
			},
			{
				"x": -3.0118518964,
				"y": 2.0503614241,
				"z": -0.3209487092,
				"element": "H" 
			},
			{
				"x": -2.7039828888,
				"y": 0.6827638423,
				"z": 0.7329423516,
				"element": "H" 
			},
			{
				"x": -1.7851737249,
				"y": 1.9135052654,
				"z": -2.6783293639,
				"element": "H" 
			},
			{
				"x": 0.2122145693,
				"y": 0.7032953422,
				"z": -3.6152916088,
				"element": "H" 
			},
			{
				"x": -0.0367561018,
				"y": -0.2521766645,
				"z": 1.6865058333,
				"element": "H" 
			},
			{
				"x": 1.9853926993,
				"y": -1.7109745474,
				"z": 1.5328405595,
				"element": "H" 
			},
			{
				"x": 2.2988376716,
				"y": -1.0251869176,
				"z": -2.6933089484,
				"element": "H" 
			}
		],
		 "valence_orbital": [ 
			{
				"type": "occ",
				"energy": -0.31508,
				"method": "rhf"
			},
			{
				"type": "occ",
				"energy": -0.27632,
				"method": "rhf"
			},
			{
				"type": "occ",
				"energy": -0.27004,
				"method": "rhf"
			},
			{
				"type": "occ",
				"energy": -0.22443,
				"method": "rhf"
			},
			{
				"type": "occ",
				"energy": -0.20448,
				"method": "rhf"
			},
			{
				"type": "unocc",
				"energy": -0.01249,
				"method": "rhf"
			},
			{
				"type": "unocc",
				"energy": 0.01152,
				"method": "rhf"
			},
			{
				"type": "unocc",
				"energy": 0.02671,
				"method": "rhf"
			},
			{
				"type": "unocc",
				"energy": 0.04625,
				"method": "rhf"
			},
			{
				"type": "unocc",
				"energy": 0.06723,
				"method": "rhf"
			}
		],
		"cosmo_sigma_profile": { 
			"-0.025": 0.0,
			"-0.024": 0.0,
			"-0.023": 0.0,
			"-0.022": 0.0,
			"-0.021": 0.0,
			"-0.02": 0.0,
			"-0.019": 0.847036333038,
			"-0.018": 0.675177579657,
			"-0.017": 1.14597586508,
			"-0.016": 2.10558049515,
			"-0.015": 2.41072714116,
			"-0.014": 2.68447156719,
			"-0.013": 2.06928039126,
			"-0.012": 2.10822903211,
			"-0.011": 2.65817397524,
			"-0.01": 3.18120939506,
			"-0.009": 3.03857956216,
			"-0.008": 6.42643607796,
			"-0.007": 10.3395192282,
			"-0.006": 13.1750151217,
			"-0.005": 8.87129465036,
			"-0.004": 9.77850563595,
			"-0.003": 8.11438207529,
			"-0.002": 6.97089818555,
			"-0.001": 7.63272738524,
			"0.0": 7.74784875294,
			"0.001": 7.88423447612,
			"0.002": 14.3027827018,
			"0.003": 13.5676804093,
			"0.004": 21.104288938,
			"0.005": 23.4923443198,
			"0.006": 6.10257375115,
			"0.007": 3.15246777044,
			"0.008": 3.42284097317,
			"0.009": 3.34604238021,
			"0.01": 5.15213809285,
			"0.011": 6.07287930599,
			"0.012": 6.17395768639,
			"0.013": 2.82961739324,
			"0.014": 0.037738116378,
			"0.015": 0.0,
			"0.016": 0.0,
			"0.017": 0.0,
			"0.018": 0.0,
			"0.019": 0.0,
			"0.02": 0.0,
			"0.021": 0.0,
			"0.022": 0.0,
			"0.023": 0.0,
			"0.024": 0.0,
			"0.025": 0.0
		}
	}
}
