{
	 "smiles": "[O-][N+](=O)C1=CC=C(NN=C2CC3=CC=CC=C23)C(=C1)[N+]([O-])=O", 
	 "Tm": 476.15, 
	 "num_atms": 32, 
	 "gaussian": { 
		 "optdone": 1, 
		 "sigma_profile": "yes", 
		 "theory": "DFT", 
		 "functional": "B3LYP", 
		 "basiset": "6-31G**", 
		 "properties": { 
			 "R2extent": 10970.4233, 
			 "electric_dipole_moment_norm": 8.34936190496, 
			 "electric_quadrupole_moment_norm": 25.0531961602, 
			 "total_energy": -1059.15412034, 
			 "HOMO_LUMO_gap": 0.12572, 
			 "cosmo_polarized_energy": -14.18, 
			 "cosmo_cavitation_energy": 38.66, 
			 "cosmo_dispersion_energy": -28.03, 
			 "cosmo_repulsion_energy": 2.1, 
			 "cosmo_total_nonelectrostatic_energy": 12.73, 
			 "SMD_solvation_energy": 9.42 
		},
		"coords": [
			{
				"x": 4.0699817589,
				"y": -5.9242475588,
				"z": -2.336484176,
				"element": "O" 
			},
			{
				"x": 4.3719093169,
				"y": -5.227739593,
				"z": -1.366689633,
				"element": "N" 
			},
			{
				"x": 5.4039418816,
				"y": -5.3537284634,
				"z": -0.7039679598,
				"element": "O" 
			},
			{
				"x": 3.4435552202,
				"y": -4.1739236191,
				"z": -0.9677722107,
				"element": "C" 
			},
			{
				"x": 3.7515584337,
				"y": -3.3569773492,
				"z": 0.134777429,
				"element": "C" 
			},
			{
				"x": 2.8801614931,
				"y": -2.3630174264,
				"z": 0.5144234464,
				"element": "C" 
			},
			{
				"x": 1.6636386854,
				"y": -2.1387979052,
				"z": -0.1871496013,
				"element": "C" 
			},
			{
				"x": 0.8161854488,
				"y": -1.1531843599,
				"z": 0.2022850867,
				"element": "N" 
			},
			{
				"x": 1.1075274371,
				"y": -0.3539757991,
				"z": 1.272860758,
				"element": "N" 
			},
			{
				"x": 0.2368555622,
				"y": 0.5428473247,
				"z": 1.5517267024,
				"element": "C" 
			},
			{
				"x": 0.2438369053,
				"y": 1.598577708,
				"z": 2.6742951334,
				"element": "C" 
			},
			{
				"x": -1.1027870849,
				"y": 2.0136892323,
				"z": 2.0764727485,
				"element": "C" 
			},
			{
				"x": -2.1561957684,
				"y": 2.9021704251,
				"z": 2.204362322,
				"element": "C" 
			},
			{
				"x": -3.1908273427,
				"y": 2.7666490429,
				"z": 1.2633189181,
				"element": "C" 
			},
			{
				"x": -3.1594180292,
				"y": 1.7901291685,
				"z": 0.2541803694,
				"element": "C" 
			},
			{
				"x": -2.0917187748,
				"y": 0.8926098567,
				"z": 0.1275837808,
				"element": "C" 
			},
			{
				"x": -1.07055593,
				"y": 1.0363061035,
				"z": 1.0670945608,
				"element": "C" 
			},
			{
				"x": 1.3846436541,
				"y": -2.9897947916,
				"z": -1.3035300731,
				"element": "C" 
			},
			{
				"x": 2.2752185257,
				"y": -3.9967891976,
				"z": -1.6820750431,
				"element": "C" 
			},
			{
				"x": 0.1775041013,
				"y": -2.8615436751,
				"z": -2.0996966699,
				"element": "N" 
			},
			{
				"x": -0.6478374157,
				"y": -1.9736703547,
				"z": -1.7970827367,
				"element": "O" 
			},
			{
				"x": 0.0082515822,
				"y": -3.6288786892,
				"z": -3.0425160059,
				"element": "O" 
			},
			{
				"x": 4.6773821405,
				"y": -3.525549032,
				"z": 0.6708640963,
				"element": "H" 
			},
			{
				"x": 3.0952763374,
				"y": -1.7222676934,
				"z": 1.3588597204,
				"element": "H" 
			},
			{
				"x": -0.036366443,
				"y": -1.0485209288,
				"z": -0.3446800162,
				"element": "H" 
			},
			{
				"x": 0.2170474719,
				"y": 1.1905638897,
				"z": 3.6903632278,
				"element": "H" 
			},
			{
				"x": 1.0506867753,
				"y": 2.3362347507,
				"z": 2.6076714301,
				"element": "H" 
			},
			{
				"x": -2.1999950118,
				"y": 3.6640651872,
				"z": 2.9767709555,
				"element": "H" 
			},
			{
				"x": -4.0444501904,
				"y": 3.4366870834,
				"z": 1.3141638561,
				"element": "H" 
			},
			{
				"x": -3.9876431614,
				"y": 1.7321760787,
				"z": -0.445750486,
				"element": "H" 
			},
			{
				"x": -2.0867005804,
				"y": 0.1447312182,
				"z": -0.6598327175,
				"element": "H" 
			},
			{
				"x": 2.0433330011,
				"y": -4.6277306331,
				"z": -2.5289472124,
				"element": "H" 
			}
		],
		 "valence_orbital": [ 
			{
				"type": "occ",
				"energy": -0.29484,
				"method": "rhf"
			},
			{
				"type": "occ",
				"energy": -0.28919,
				"method": "rhf"
			},
			{
				"type": "occ",
				"energy": -0.27962,
				"method": "rhf"
			},
			{
				"type": "occ",
				"energy": -0.27087,
				"method": "rhf"
			},
			{
				"type": "occ",
				"energy": -0.22964,
				"method": "rhf"
			},
			{
				"type": "unocc",
				"energy": -0.10392,
				"method": "rhf"
			},
			{
				"type": "unocc",
				"energy": -0.09022,
				"method": "rhf"
			},
			{
				"type": "unocc",
				"energy": -0.06136,
				"method": "rhf"
			},
			{
				"type": "unocc",
				"energy": -0.02519,
				"method": "rhf"
			},
			{
				"type": "unocc",
				"energy": -0.01777,
				"method": "rhf"
			}
		],
		"cosmo_sigma_profile": { 
			"-0.025": 0.0,
			"-0.024": 0.0,
			"-0.023": 0.0,
			"-0.022": 0.0,
			"-0.021": 0.0,
			"-0.02": 0.0,
			"-0.019": 0.0,
			"-0.018": 0.0,
			"-0.017": 0.0,
			"-0.016": 0.0,
			"-0.015": 0.0,
			"-0.014": 0.0,
			"-0.013": 0.0,
			"-0.012": 0.0,
			"-0.011": 0.0,
			"-0.01": 0.12845607006,
			"-0.009": 1.28853493786,
			"-0.008": 3.00022258251,
			"-0.007": 8.38074433001,
			"-0.006": 19.1491723,
			"-0.005": 23.6500695626,
			"-0.004": 24.4653460387,
			"-0.003": 26.0509758614,
			"-0.002": 33.7861754197,
			"-0.001": 26.9579146158,
			"0.0": 21.143371458,
			"0.001": 17.6874663855,
			"0.002": 14.7692380294,
			"0.003": 17.9530201347,
			"0.004": 15.3630720575,
			"0.005": 8.63766750608,
			"0.006": 7.21971484476,
			"0.007": 14.1465483735,
			"0.008": 13.9603665757,
			"0.009": 9.12361313843,
			"0.01": 5.23528794281,
			"0.011": 0.403897438995,
			"0.012": 0.0,
			"0.013": 0.0,
			"0.014": 0.0,
			"0.015": 0.0,
			"0.016": 0.0,
			"0.017": 0.0,
			"0.018": 0.0,
			"0.019": 0.0,
			"0.02": 0.0,
			"0.021": 0.0,
			"0.022": 0.0,
			"0.023": 0.0,
			"0.024": 0.0,
			"0.025": 0.0
		}
	}
}
