{
	 "smiles": "CC1=CC(F)=C2NC(=O)C(=O)C2=C1", 
	 "Tm": 499.15, 
	 "num_atms": 19, 
	 "gaussian": { 
		 "optdone": 1, 
		 "sigma_profile": "yes", 
		 "theory": "DFT", 
		 "functional": "B3LYP", 
		 "basiset": "6-31G**", 
		 "properties": { 
			 "R2extent": 3194.6459, 
			 "electric_dipole_moment_norm": 5.51288830469, 
			 "electric_quadrupole_moment_norm": 11.6182550476, 
			 "total_energy": -651.609576054, 
			 "HOMO_LUMO_gap": 0.13647, 
			 "cosmo_polarized_energy": -13.71, 
			 "cosmo_cavitation_energy": 24.94, 
			 "cosmo_dispersion_energy": -18.06, 
			 "cosmo_repulsion_energy": 1.4, 
			 "cosmo_total_nonelectrostatic_energy": 8.28, 
			 "SMD_solvation_energy": 6.17 
		},
		"coords": [
			{
				"x": 0.7932544508,
				"y": -3.4614624144,
				"z": -3.8657922116,
				"element": "C" 
			},
			{
				"x": 0.2911019955,
				"y": -2.4932239578,
				"z": -2.8202616708,
				"element": "C" 
			},
			{
				"x": -0.5454549938,
				"y": -1.4239124744,
				"z": -3.1941007368,
				"element": "C" 
			},
			{
				"x": -1.0264748093,
				"y": -0.5156063353,
				"z": -2.2575197052,
				"element": "C" 
			},
			{
				"x": -1.828050268,
				"y": 0.5039706923,
				"z": -2.6361390974,
				"element": "F" 
			},
			{
				"x": -0.6831379669,
				"y": -0.6528998191,
				"z": -0.9215612969,
				"element": "C" 
			},
			{
				"x": -1.0492701065,
				"y": 0.1365046439,
				"z": 0.1737004073,
				"element": "N" 
			},
			{
				"x": -0.4905858292,
				"y": -0.3409345501,
				"z": 1.350745164,
				"element": "C" 
			},
			{
				"x": -0.6172947051,
				"y": 0.1189157536,
				"z": 2.461697502,
				"element": "O" 
			},
			{
				"x": 0.3401117522,
				"y": -1.6070601209,
				"z": 0.920341801,
				"element": "C" 
			},
			{
				"x": 0.9770594979,
				"y": -2.2989945773,
				"z": 1.6827959346,
				"element": "O" 
			},
			{
				"x": 0.1505396042,
				"y": -1.7155818285,
				"z": -0.5383731622,
				"element": "C" 
			},
			{
				"x": 0.6373263776,
				"y": -2.6307328071,
				"z": -1.4703619813,
				"element": "C" 
			},
			{
				"x": -0.0354531965,
				"y": -3.9783878785,
				"z": -4.3627617201,
				"element": "H" 
			},
			{
				"x": 1.4405641637,
				"y": -4.2211111775,
				"z": -3.4206919833,
				"element": "H" 
			},
			{
				"x": 1.3676760485,
				"y": -2.9470572096,
				"z": -4.6443071868,
				"element": "H" 
			},
			{
				"x": -0.8344800285,
				"y": -1.2858333826,
				"z": -4.2319587656,
				"element": "H" 
			},
			{
				"x": -1.6435916206,
				"y": 0.9504776663,
				"z": 0.1222864583,
				"element": "H" 
			},
			{
				"x": 1.2801596339,
				"y": -3.4404702229,
				"z": -1.1385377495,
				"element": "H" 
			}
		],
		 "valence_orbital": [ 
			{
				"type": "occ",
				"energy": -0.32618,
				"method": "rhf"
			},
			{
				"type": "occ",
				"energy": -0.31398,
				"method": "rhf"
			},
			{
				"type": "occ",
				"energy": -0.27533,
				"method": "rhf"
			},
			{
				"type": "occ",
				"energy": -0.25015,
				"method": "rhf"
			},
			{
				"type": "occ",
				"energy": -0.23794,
				"method": "rhf"
			},
			{
				"type": "unocc",
				"energy": -0.10147,
				"method": "rhf"
			},
			{
				"type": "unocc",
				"energy": -0.01741,
				"method": "rhf"
			},
			{
				"type": "unocc",
				"energy": -0.00102,
				"method": "rhf"
			},
			{
				"type": "unocc",
				"energy": 0.06484,
				"method": "rhf"
			},
			{
				"type": "unocc",
				"energy": 0.08306,
				"method": "rhf"
			}
		],
		"cosmo_sigma_profile": { 
			"-0.025": 0.0,
			"-0.024": 0.0,
			"-0.023": 0.0,
			"-0.022": 0.0,
			"-0.021": 0.0,
			"-0.02": 0.0,
			"-0.019": 0.0,
			"-0.018": 0.0,
			"-0.017": 0.391398980572,
			"-0.016": 1.18640271067,
			"-0.015": 0.758406839219,
			"-0.014": 1.09343907489,
			"-0.013": 0.611999641558,
			"-0.012": 0.981871593431,
			"-0.011": 1.02283559109,
			"-0.01": 1.02442207083,
			"-0.009": 1.24626314829,
			"-0.008": 3.63815721727,
			"-0.007": 6.70736992127,
			"-0.006": 7.41035105172,
			"-0.005": 9.92277954005,
			"-0.004": 14.7386021767,
			"-0.003": 14.023415555,
			"-0.002": 17.5391829373,
			"-0.001": 20.7700871023,
			"0.0": 19.6042330875,
			"0.001": 13.6813202335,
			"0.002": 10.9716119483,
			"0.003": 9.34829429406,
			"0.004": 7.23079613983,
			"0.005": 2.35966672714,
			"0.006": 2.71360184495,
			"0.007": 2.28597166426,
			"0.008": 3.83006342964,
			"0.009": 5.59231378412,
			"0.01": 8.47999016009,
			"0.011": 8.12979444538,
			"0.012": 2.97980173947,
			"0.013": 0.133384563641,
			"0.014": 0.0,
			"0.015": 0.0,
			"0.016": 0.0,
			"0.017": 0.0,
			"0.018": 0.0,
			"0.019": 0.0,
			"0.02": 0.0,
			"0.021": 0.0,
			"0.022": 0.0,
			"0.023": 0.0,
			"0.024": 0.0,
			"0.025": 0.0
		}
	}
}
