{
	 "smiles": "CCCCCCCCCCCCCCCCCC(=O)OC(=O)CCCCCCCCCCCCCCCCC", 
	 "Tm": 345.15, 
	 "num_atms": 109, 
	 "gaussian": { 
		 "optdone": 1, 
		 "sigma_profile": "yes", 
		 "theory": "DFT", 
		 "functional": "B3LYP", 
		 "basiset": "6-31G**", 
		 "properties": { 
			 "R2extent": 38060.4694, 
			 "electric_dipole_moment_norm": 3.96873149004, 
			 "electric_quadrupole_moment_norm": 16.6298139199, 
			 "total_energy": -1639.80632515, 
			 "HOMO_LUMO_gap": 0.23927, 
			 "cosmo_polarized_energy": -11.19, 
			 "cosmo_cavitation_energy": 103.25, 
			 "cosmo_dispersion_energy": -57.64, 
			 "cosmo_repulsion_energy": 4.55, 
			 "cosmo_total_nonelectrostatic_energy": 50.16, 
			 "SMD_solvation_energy": 13.77 
		},
		"coords": [
			{
				"x": -6.9614123523,
				"y": 5.6138910807,
				"z": -1.182963316,
				"element": "C" 
			},
			{
				"x": -6.8348137976,
				"y": 4.425762981,
				"z": -2.1418917077,
				"element": "C" 
			},
			{
				"x": -5.621753943,
				"y": 4.5264027921,
				"z": -3.0755017079,
				"element": "C" 
			},
			{
				"x": -5.4862778691,
				"y": 3.3398741614,
				"z": -4.038297016,
				"element": "C" 
			},
			{
				"x": -4.278319705,
				"y": 3.4537940059,
				"z": -4.9791817541,
				"element": "C" 
			},
			{
				"x": -4.1267019071,
				"y": 2.2715145931,
				"z": -5.9558436187,
				"element": "C" 
			},
			{
				"x": -3.6669994145,
				"y": 0.9324072747,
				"z": -5.3325834959,
				"element": "C" 
			},
			{
				"x": -2.1514048951,
				"y": 0.6664052847,
				"z": -5.3762138733,
				"element": "C" 
			},
			{
				"x": -1.2725878857,
				"y": 1.6336390935,
				"z": -4.5697635327,
				"element": "C" 
			},
			{
				"x": 0.2075414554,
				"y": 1.2251767595,
				"z": -4.5789264827,
				"element": "C" 
			},
			{
				"x": 1.1868147295,
				"y": 2.1964542501,
				"z": -3.8951889929,
				"element": "C" 
			},
			{
				"x": 0.9885093662,
				"y": 2.3949360188,
				"z": -2.3743022659,
				"element": "C" 
			},
			{
				"x": 0.109399058,
				"y": 3.5988205527,
				"z": -1.9983091628,
				"element": "C" 
			},
			{
				"x": -0.1940296894,
				"y": 3.7624051471,
				"z": -0.497695125,
				"element": "C" 
			},
			{
				"x": 1.0350975336,
				"y": 4.0245566313,
				"z": 0.4041468306,
				"element": "C" 
			},
			{
				"x": 1.6656548889,
				"y": 2.7834841935,
				"z": 1.063402044,
				"element": "C" 
			},
			{
				"x": 0.7926044247,
				"y": 2.1989874872,
				"z": 2.1951600306,
				"element": "C" 
			},
			{
				"x": 1.4072346793,
				"y": 0.9677637821,
				"z": 2.8132160664,
				"element": "C" 
			},
			{
				"x": 0.9881067558,
				"y": -0.1571337439,
				"z": 2.7503172305,
				"element": "O" 
			},
			{
				"x": 2.5478141229,
				"y": 1.3097907804,
				"z": 3.540610842,
				"element": "O" 
			},
			{
				"x": 3.5785099216,
				"y": 0.3863754157,
				"z": 3.7344534191,
				"element": "C" 
			},
			{
				"x": 3.8252618874,
				"y": -0.4873420582,
				"z": 2.9479774536,
				"element": "O" 
			},
			{
				"x": 4.3246769876,
				"y": 0.6900274894,
				"z": 5.0107160745,
				"element": "C" 
			},
			{
				"x": 3.462528614,
				"y": 0.4897373912,
				"z": 6.278661085,
				"element": "C" 
			},
			{
				"x": 2.7820254106,
				"y": -0.8856625247,
				"z": 6.3891943709,
				"element": "C" 
			},
			{
				"x": 3.7449665313,
				"y": -2.0802669347,
				"z": 6.3211729769,
				"element": "C" 
			},
			{
				"x": 3.0918353229,
				"y": -3.4399298408,
				"z": 6.6276542373,
				"element": "C" 
			},
			{
				"x": 1.8967895201,
				"y": -3.8257097432,
				"z": 5.7334714172,
				"element": "C" 
			},
			{
				"x": 2.1436281196,
				"y": -3.7884012465,
				"z": 4.21484774,
				"element": "C" 
			},
			{
				"x": 3.2205559916,
				"y": -4.7598079688,
				"z": 3.7077538753,
				"element": "C" 
			},
			{
				"x": 3.5505844233,
				"y": -4.5944215553,
				"z": 2.2139031744,
				"element": "C" 
			},
			{
				"x": 2.3858829691,
				"y": -4.8924568755,
				"z": 1.2597917069,
				"element": "C" 
			},
			{
				"x": 2.7707675396,
				"y": -4.737377304,
				"z": -0.2199369959,
				"element": "C" 
			},
			{
				"x": 1.6185350927,
				"y": -4.9540671489,
				"z": -1.2255639425,
				"element": "C" 
			},
			{
				"x": 0.8168112715,
				"y": -3.6976100385,
				"z": -1.6141943136,
				"element": "C" 
			},
			{
				"x": 0.0235861287,
				"y": -3.0187845445,
				"z": -0.488291912,
				"element": "C" 
			},
			{
				"x": -0.8362841054,
				"y": -1.8492415809,
				"z": -0.9895509376,
				"element": "C" 
			},
			{
				"x": -1.6078703148,
				"y": -1.104519478,
				"z": 0.1134041548,
				"element": "C" 
			},
			{
				"x": -2.7179730119,
				"y": -1.9307567001,
				"z": 0.7748672405,
				"element": "C" 
			},
			{
				"x": -7.8355131777,
				"y": 5.512566568,
				"z": -0.5312257026,
				"element": "H" 
			},
			{
				"x": -7.0637618115,
				"y": 6.557128717,
				"z": -1.7318908039,
				"element": "H" 
			},
			{
				"x": -6.0769584022,
				"y": 5.7013143942,
				"z": -0.5413224428,
				"element": "H" 
			},
			{
				"x": -7.7491751119,
				"y": 4.3433892548,
				"z": -2.7452575583,
				"element": "H" 
			},
			{
				"x": -6.7696134823,
				"y": 3.4938842678,
				"z": -1.5636894346,
				"element": "H" 
			},
			{
				"x": -5.6870298386,
				"y": 5.4592979027,
				"z": -3.6541124375,
				"element": "H" 
			},
			{
				"x": -4.7066255489,
				"y": 4.6104032607,
				"z": -2.4713727421,
				"element": "H" 
			},
			{
				"x": -6.4027016354,
				"y": 3.2537964779,
				"z": -4.6400184791,
				"element": "H" 
			},
			{
				"x": -5.4212977794,
				"y": 2.4116913748,
				"z": -3.4542908919,
				"element": "H" 
			},
			{
				"x": -4.3764283955,
				"y": 4.3806818534,
				"z": -5.5609848307,
				"element": "H" 
			},
			{
				"x": -3.3650965323,
				"y": 3.568803143,
				"z": -4.3816127158,
				"element": "H" 
			},
			{
				"x": -3.4242329915,
				"y": 2.5497820222,
				"z": -6.7531754024,
				"element": "H" 
			},
			{
				"x": -5.0937671198,
				"y": 2.122953888,
				"z": -6.454604245,
				"element": "H" 
			},
			{
				"x": -4.0169588868,
				"y": 0.8627691814,
				"z": -4.2937947209,
				"element": "H" 
			},
			{
				"x": -4.1597672895,
				"y": 0.1083219307,
				"z": -5.8631975107,
				"element": "H" 
			},
			{
				"x": -1.8196886301,
				"y": 0.6740839884,
				"z": -6.4247582514,
				"element": "H" 
			},
			{
				"x": -1.9698673821,
				"y": -0.3544199548,
				"z": -5.012002264,
				"element": "H" 
			},
			{
				"x": -1.6429956237,
				"y": 1.6746647829,
				"z": -3.5367459192,
				"element": "H" 
			},
			{
				"x": -1.3668705272,
				"y": 2.6503621448,
				"z": -4.9736408783,
				"element": "H" 
			},
			{
				"x": 0.306375767,
				"y": 0.235103718,
				"z": -4.1109729789,
				"element": "H" 
			},
			{
				"x": 0.5267077435,
				"y": 1.0956113785,
				"z": -5.622600045,
				"element": "H" 
			},
			{
				"x": 1.1445517249,
				"y": 3.1734437082,
				"z": -4.397659618,
				"element": "H" 
			},
			{
				"x": 2.2004841809,
				"y": 1.8163131082,
				"z": -4.0721353109,
				"element": "H" 
			},
			{
				"x": 1.9724737518,
				"y": 2.5214077454,
				"z": -1.906739802,
				"element": "H" 
			},
			{
				"x": 0.5650676175,
				"y": 1.4778419495,
				"z": -1.9393818305,
				"element": "H" 
			},
			{
				"x": 0.5966939828,
				"y": 4.5150582925,
				"z": -2.362251662,
				"element": "H" 
			},
			{
				"x": -0.8447411085,
				"y": 3.5362794006,
				"z": -2.5343908734,
				"element": "H" 
			},
			{
				"x": -0.8926255046,
				"y": 4.6012169867,
				"z": -0.3911838444,
				"element": "H" 
			},
			{
				"x": -0.741001955,
				"y": 2.8782928696,
				"z": -0.1423724409,
				"element": "H" 
			},
			{
				"x": 1.806418988,
				"y": 4.537112431,
				"z": -0.1854007567,
				"element": "H" 
			},
			{
				"x": 0.7590113392,
				"y": 4.7266048848,
				"z": 1.2020707836,
				"element": "H" 
			},
			{
				"x": 1.8497871483,
				"y": 2.0057942171,
				"z": 0.3145271209,
				"element": "H" 
			},
			{
				"x": 2.6408223318,
				"y": 3.0524130727,
				"z": 1.4842028246,
				"element": "H" 
			},
			{
				"x": 0.6665382757,
				"y": 2.954904526,
				"z": 2.9798859276,
				"element": "H" 
			},
			{
				"x": -0.1961296105,
				"y": 1.9135688872,
				"z": 1.8297270768,
				"element": "H" 
			},
			{
				"x": 4.6660722509,
				"y": 1.7310374297,
				"z": 4.9708036314,
				"element": "H" 
			},
			{
				"x": 5.2049767738,
				"y": 0.0444435257,
				"z": 5.0220536747,
				"element": "H" 
			},
			{
				"x": 4.1155287494,
				"y": 0.6518306253,
				"z": 7.1452910644,
				"element": "H" 
			},
			{
				"x": 2.6984511668,
				"y": 1.2743740232,
				"z": 6.3115253532,
				"element": "H" 
			},
			{
				"x": 2.2307679422,
				"y": -0.9158700744,
				"z": 7.3388328242,
				"element": "H" 
			},
			{
				"x": 2.0251596937,
				"y": -0.9758941838,
				"z": 5.5996728833,
				"element": "H" 
			},
			{
				"x": 4.5652591878,
				"y": -1.9207678065,
				"z": 7.0356801907,
				"element": "H" 
			},
			{
				"x": 4.2088100103,
				"y": -2.1181108611,
				"z": 5.3283864182,
				"element": "H" 
			},
			{
				"x": 3.8655063709,
				"y": -4.2151256207,
				"z": 6.5618835048,
				"element": "H" 
			},
			{
				"x": 2.7533523318,
				"y": -3.4453802318,
				"z": 7.6731493411,
				"element": "H" 
			},
			{
				"x": 1.0506435775,
				"y": -3.1643582949,
				"z": 5.9604644456,
				"element": "H" 
			},
			{
				"x": 1.5685536421,
				"y": -4.8342244471,
				"z": 6.0209824899,
				"element": "H" 
			},
			{
				"x": 1.1917005072,
				"y": -4.0103875702,
				"z": 3.7176493925,
				"element": "H" 
			},
			{
				"x": 2.4047808853,
				"y": -2.7698755255,
				"z": 3.9012629129,
				"element": "H" 
			},
			{
				"x": 2.9031942237,
				"y": -5.7944275211,
				"z": 3.9059796233,
				"element": "H" 
			},
			{
				"x": 4.1460494442,
				"y": -4.6133710711,
				"z": 4.2795135868,
				"element": "H" 
			},
			{
				"x": 3.8990535331,
				"y": -3.5662576639,
				"z": 2.0431362711,
				"element": "H" 
			},
			{
				"x": 4.3953229005,
				"y": -5.2503520299,
				"z": 1.9602016241,
				"element": "H" 
			},
			{
				"x": 1.5432951513,
				"y": -4.2342370762,
				"z": 1.4931314654,
				"element": "H" 
			},
			{
				"x": 2.0268036522,
				"y": -5.9184206944,
				"z": 1.43005204,
				"element": "H" 
			},
			{
				"x": 3.208677146,
				"y": -3.7415619197,
				"z": -0.3798334024,
				"element": "H" 
			},
			{
				"x": 3.5754508125,
				"y": -5.4525090084,
				"z": -0.438313929,
				"element": "H" 
			},
			{
				"x": 2.0337119173,
				"y": -5.3738129097,
				"z": -2.1508044313,
				"element": "H" 
			},
			{
				"x": 0.9326155324,
				"y": -5.7192641612,
				"z": -0.8343817822,
				"element": "H" 
			},
			{
				"x": 1.5049707958,
				"y": -2.9634849957,
				"z": -2.0584160453,
				"element": "H" 
			},
			{
				"x": 0.1165973644,
				"y": -3.9733447245,
				"z": -2.4157306093,
				"element": "H" 
			},
			{
				"x": -0.6129753002,
				"y": -3.7669090822,
				"z": 0.0030003575,
				"element": "H" 
			},
			{
				"x": 0.707539166,
				"y": -2.6417133538,
				"z": 0.2821592958,
				"element": "H" 
			},
			{
				"x": -1.5455577554,
				"y": -2.2146173738,
				"z": -1.7471182059,
				"element": "H" 
			},
			{
				"x": -0.182630351,
				"y": -1.1336704218,
				"z": -1.5088549271,
				"element": "H" 
			},
			{
				"x": -2.0538649687,
				"y": -0.1993946315,
				"z": -0.3214657962,
				"element": "H" 
			},
			{
				"x": -0.9006834597,
				"y": -0.7656201824,
				"z": 0.8816661209,
				"element": "H" 
			},
			{
				"x": -2.3180250038,
				"y": -2.8084009449,
				"z": 1.2926101963,
				"element": "H" 
			},
			{
				"x": -3.2636178265,
				"y": -1.3365682627,
				"z": 1.5157066021,
				"element": "H" 
			},
			{
				"x": -3.4438684249,
				"y": -2.285213213,
				"z": 0.0330746614,
				"element": "H" 
			}
		],
		 "valence_orbital": [ 
			{
				"type": "occ",
				"energy": -0.29231,
				"method": "rhf"
			},
			{
				"type": "occ",
				"energy": -0.29006,
				"method": "rhf"
			},
			{
				"type": "occ",
				"energy": -0.28431,
				"method": "rhf"
			},
			{
				"type": "occ",
				"energy": -0.28097,
				"method": "rhf"
			},
			{
				"type": "occ",
				"energy": -0.27104,
				"method": "rhf"
			},
			{
				"type": "unocc",
				"energy": -0.03177,
				"method": "rhf"
			},
			{
				"type": "unocc",
				"energy": 0.01029,
				"method": "rhf"
			},
			{
				"type": "unocc",
				"energy": 0.05694,
				"method": "rhf"
			},
			{
				"type": "unocc",
				"energy": 0.07819,
				"method": "rhf"
			},
			{
				"type": "unocc",
				"energy": 0.08033,
				"method": "rhf"
			}
		],
		"cosmo_sigma_profile": { 
			"-0.025": 0.0,
			"-0.024": 0.0,
			"-0.023": 0.0,
			"-0.022": 0.0,
			"-0.021": 0.0,
			"-0.02": 0.0,
			"-0.019": 0.0,
			"-0.018": 0.0,
			"-0.017": 0.0,
			"-0.016": 0.0,
			"-0.015": 0.0,
			"-0.014": 0.0,
			"-0.013": 0.0,
			"-0.012": 0.0,
			"-0.011": 0.0,
			"-0.01": 0.0,
			"-0.009": 0.0,
			"-0.008": 0.0,
			"-0.007": 0.528431268682,
			"-0.006": 5.36940434623,
			"-0.005": 7.79498759807,
			"-0.004": 13.4582003181,
			"-0.003": 29.0012579841,
			"-0.002": 95.6251389585,
			"-0.001": 183.686618003,
			"0.0": 187.239810983,
			"0.001": 143.741155396,
			"0.002": 72.1475618278,
			"0.003": 10.8451766376,
			"0.004": 7.83979258021,
			"0.005": 6.74985599341,
			"0.006": 5.72432273489,
			"0.007": 4.44745587918,
			"0.008": 5.23255601275,
			"0.009": 4.69874820815,
			"0.01": 3.73918454015,
			"0.011": 1.81423840546,
			"0.012": 0.0651254326665,
			"0.013": 0.0,
			"0.014": 0.0,
			"0.015": 0.0,
			"0.016": 0.0,
			"0.017": 0.0,
			"0.018": 0.0,
			"0.019": 0.0,
			"0.02": 0.0,
			"0.021": 0.0,
			"0.022": 0.0,
			"0.023": 0.0,
			"0.024": 0.0,
			"0.025": 0.0
		}
	}
}
