{
	 "smiles": "CC1=CC=C(SC2=CC=C(C=C2C=O)[N+]([O-])=O)C=C1", 
	 "Tm": 431.15, 
	 "num_atms": 30, 
	 "gaussian": { 
		 "optdone": 1, 
		 "sigma_profile": "yes", 
		 "theory": "DFT", 
		 "functional": "B3LYP", 
		 "basiset": "6-31G**", 
		 "properties": { 
			 "R2extent": 7838.3038, 
			 "electric_dipole_moment_norm": 3.0934444831, 
			 "electric_quadrupole_moment_norm": 22.6649649201, 
			 "total_energy": -1218.61309806, 
			 "HOMO_LUMO_gap": 0.12551, 
			 "cosmo_polarized_energy": -13.16, 
			 "cosmo_cavitation_energy": 37.36, 
			 "cosmo_dispersion_energy": -26.47, 
			 "cosmo_repulsion_energy": 1.98, 
			 "cosmo_total_nonelectrostatic_energy": 12.88, 
			 "SMD_solvation_energy": 9.18 
		},
		"coords": [
			{
				"x": 0.3934916,
				"y": -1.8909227787,
				"z": -4.1967806408,
				"element": "C" 
			},
			{
				"x": 0.6539581509,
				"y": -1.3570995897,
				"z": -2.8083408451,
				"element": "C" 
			},
			{
				"x": 0.4666709455,
				"y": -2.1610512328,
				"z": -1.677372995,
				"element": "C" 
			},
			{
				"x": 0.7262298718,
				"y": -1.6744020268,
				"z": -0.3952062851,
				"element": "C" 
			},
			{
				"x": 1.1855079078,
				"y": -0.3643986413,
				"z": -0.2254810451,
				"element": "C" 
			},
			{
				"x": 1.5857928458,
				"y": 0.2360712861,
				"z": 1.4265666477,
				"element": "S" 
			},
			{
				"x": 0.1557595523,
				"y": 1.2740491578,
				"z": 1.7981092838,
				"element": "C" 
			},
			{
				"x": -1.0056436446,
				"y": 0.6408653775,
				"z": 2.2627224879,
				"element": "C" 
			},
			{
				"x": -2.1193819319,
				"y": 1.3684871393,
				"z": 2.6741299368,
				"element": "C" 
			},
			{
				"x": -2.0498120431,
				"y": 2.7585278522,
				"z": 2.6483502131,
				"element": "C" 
			},
			{
				"x": -0.9109210448,
				"y": 3.4205495611,
				"z": 2.210651906,
				"element": "C" 
			},
			{
				"x": 0.1943413547,
				"y": 2.6893075214,
				"z": 1.7556978839,
				"element": "C" 
			},
			{
				"x": 1.3100348297,
				"y": 3.5238391922,
				"z": 1.21499545,
				"element": "C" 
			},
			{
				"x": 2.18298328,
				"y": 3.1687778984,
				"z": 0.4529798883,
				"element": "O" 
			},
			{
				"x": -3.2065228983,
				"y": 3.5470399394,
				"z": 3.1053893445,
				"element": "N" 
			},
			{
				"x": -4.1992584741,
				"y": 2.928535868,
				"z": 3.4845018461,
				"element": "O" 
			},
			{
				"x": -3.1051883407,
				"y": 4.7724420899,
				"z": 3.0781191124,
				"element": "O" 
			},
			{
				"x": 1.3917073012,
				"y": 0.4501041856,
				"z": -1.3469928602,
				"element": "C" 
			},
			{
				"x": 1.1168785818,
				"y": -0.0459691611,
				"z": -2.6194042898,
				"element": "C" 
			},
			{
				"x": 1.3306287489,
				"y": -2.1722047765,
				"z": -4.6929488496,
				"element": "H" 
			},
			{
				"x": -0.2438659928,
				"y": -2.7792118566,
				"z": -4.1721481194,
				"element": "H" 
			},
			{
				"x": -0.0927757747,
				"y": -1.1410808862,
				"z": -4.8288768525,
				"element": "H" 
			},
			{
				"x": 0.1098797786,
				"y": -3.1808585525,
				"z": -1.7982914256,
				"element": "H" 
			},
			{
				"x": 0.575291407,
				"y": -2.3101955084,
				"z": 0.4716165029,
				"element": "H" 
			},
			{
				"x": -1.0250472158,
				"y": -0.4423423061,
				"z": 2.3099575104,
				"element": "H" 
			},
			{
				"x": -3.0198087806,
				"y": 0.8829404884,
				"z": 3.0296797076,
				"element": "H" 
			},
			{
				"x": -0.8974316807,
				"y": 4.5052436285,
				"z": 2.2093543788,
				"element": "H" 
			},
			{
				"x": 1.2531956896,
				"y": 4.5828397263,
				"z": 1.5511352291,
				"element": "H" 
			},
			{
				"x": 1.7661494523,
				"y": 1.4585408255,
				"z": -1.2096767786,
				"element": "H" 
			},
			{
				"x": 1.2727565244,
				"y": 0.594875579,
				"z": -3.4840363423,
				"element": "H" 
			}
		],
		 "valence_orbital": [ 
			{
				"type": "occ",
				"energy": -0.29241,
				"method": "rhf"
			},
			{
				"type": "occ",
				"energy": -0.27843,
				"method": "rhf"
			},
			{
				"type": "occ",
				"energy": -0.25927,
				"method": "rhf"
			},
			{
				"type": "occ",
				"energy": -0.25542,
				"method": "rhf"
			},
			{
				"type": "occ",
				"energy": -0.23278,
				"method": "rhf"
			},
			{
				"type": "unocc",
				"energy": -0.10727,
				"method": "rhf"
			},
			{
				"type": "unocc",
				"energy": -0.08069,
				"method": "rhf"
			},
			{
				"type": "unocc",
				"energy": -0.03173,
				"method": "rhf"
			},
			{
				"type": "unocc",
				"energy": -0.02298,
				"method": "rhf"
			},
			{
				"type": "unocc",
				"energy": -0.0105,
				"method": "rhf"
			}
		],
		"cosmo_sigma_profile": { 
			"-0.025": 0.0,
			"-0.024": 0.0,
			"-0.023": 0.0,
			"-0.022": 0.0,
			"-0.021": 0.0,
			"-0.02": 0.0,
			"-0.019": 0.0,
			"-0.018": 0.0,
			"-0.017": 0.0,
			"-0.016": 0.0,
			"-0.015": 0.0,
			"-0.014": 0.0,
			"-0.013": 0.0,
			"-0.012": 0.0,
			"-0.011": 0.0441128680965,
			"-0.01": 1.6893880048,
			"-0.009": 2.94780630256,
			"-0.008": 6.89753545504,
			"-0.007": 8.41132564123,
			"-0.006": 10.7121816057,
			"-0.005": 18.1219503306,
			"-0.004": 24.1102083761,
			"-0.003": 25.5922365657,
			"-0.002": 26.4096844395,
			"-0.001": 30.5348184545,
			"0.0": 26.625387752,
			"0.001": 18.4186307916,
			"0.002": 13.7062515095,
			"0.003": 14.2442120829,
			"0.004": 15.3034767463,
			"0.005": 15.2655538038,
			"0.006": 8.19501467527,
			"0.007": 12.4431877159,
			"0.008": 7.72310259697,
			"0.009": 6.15018144374,
			"0.01": 4.48056020213,
			"0.011": 2.91408078755,
			"0.012": 0.9815112477,
			"0.013": 0.0,
			"0.014": 0.0,
			"0.015": 0.0,
			"0.016": 0.0,
			"0.017": 0.0,
			"0.018": 0.0,
			"0.019": 0.0,
			"0.02": 0.0,
			"0.021": 0.0,
			"0.022": 0.0,
			"0.023": 0.0,
			"0.024": 0.0,
			"0.025": 0.0
		}
	}
}
