{
	 "smiles": "NC(=O)C1=CC(C=O)=CC=C1", 
	 "Tm": 382.15, 
	 "num_atms": 18, 
	 "gaussian": { 
		 "optdone": 1, 
		 "sigma_profile": "yes", 
		 "theory": "DFT", 
		 "functional": "B3LYP", 
		 "basiset": "6-31G**", 
		 "properties": { 
			 "R2extent": 2008.6002, 
			 "electric_dipole_moment_norm": 2.54366070261, 
			 "electric_quadrupole_moment_norm": 19.554984067, 
			 "total_energy": -514.278669612, 
			 "HOMO_LUMO_gap": 0.18434, 
			 "cosmo_polarized_energy": -16.22, 
			 "cosmo_cavitation_energy": 23.17, 
			 "cosmo_dispersion_energy": -16.89, 
			 "cosmo_repulsion_energy": 1.36, 
			 "cosmo_total_nonelectrostatic_energy": 7.63, 
			 "SMD_solvation_energy": 5.88 
		},
		"coords": [
			{
				"x": -0.7383173146,
				"y": -2.6941901521,
				"z": 0.6814925881,
				"element": "N" 
			},
			{
				"x": -0.5263026967,
				"y": -2.1402051324,
				"z": -0.5579819908,
				"element": "C" 
			},
			{
				"x": -0.636433046,
				"y": -2.7933312759,
				"z": -1.5874784369,
				"element": "O" 
			},
			{
				"x": -0.1221423606,
				"y": -0.6910437465,
				"z": -0.5810140095,
				"element": "C" 
			},
			{
				"x": 0.3919354961,
				"y": -0.0118487316,
				"z": 0.5289099311,
				"element": "C" 
			},
			{
				"x": 0.7558978134,
				"y": 1.335902709,
				"z": 0.4293540905,
				"element": "C" 
			},
			{
				"x": 1.3059717996,
				"y": 2.0384306657,
				"z": 1.6120750196,
				"element": "C" 
			},
			{
				"x": 1.635328567,
				"y": 3.2084875989,
				"z": 1.6283464289,
				"element": "O" 
			},
			{
				"x": 0.6051088349,
				"y": 2.0143464027,
				"z": -0.7894129744,
				"element": "C" 
			},
			{
				"x": 0.1069951003,
				"y": 1.3393537406,
				"z": -1.9000285449,
				"element": "C" 
			},
			{
				"x": -0.2471792084,
				"y": -0.0073403596,
				"z": -1.7982134527,
				"element": "C" 
			},
			{
				"x": -0.9777933158,
				"y": -2.1128324606,
				"z": 1.469356881,
				"element": "H" 
			},
			{
				"x": -1.116074822,
				"y": -3.6309698953,
				"z": 0.6756165561,
				"element": "H" 
			},
			{
				"x": 0.5479556834,
				"y": -0.5288675452,
				"z": 1.4730739479,
				"element": "H" 
			},
			{
				"x": 1.402262093,
				"y": 1.4050140589,
				"z": 2.5226708328,
				"element": "H" 
			},
			{
				"x": 0.8924040781,
				"y": 3.0599496853,
				"z": -0.8378190537,
				"element": "H" 
			},
			{
				"x": -0.003442478,
				"y": 1.8566733808,
				"z": -2.8482624322,
				"element": "H" 
			},
			{
				"x": -0.6238742236,
				"y": -0.5579289428,
				"z": -2.653785381,
				"element": "H" 
			}
		],
		 "valence_orbital": [ 
			{
				"type": "occ",
				"energy": -0.28378,
				"method": "rhf"
			},
			{
				"type": "occ",
				"energy": -0.27703,
				"method": "rhf"
			},
			{
				"type": "occ",
				"energy": -0.27354,
				"method": "rhf"
			},
			{
				"type": "occ",
				"energy": -0.2654,
				"method": "rhf"
			},
			{
				"type": "occ",
				"energy": -0.25761,
				"method": "rhf"
			},
			{
				"type": "unocc",
				"energy": -0.07327,
				"method": "rhf"
			},
			{
				"type": "unocc",
				"energy": -0.04726,
				"method": "rhf"
			},
			{
				"type": "unocc",
				"energy": 0.01519,
				"method": "rhf"
			},
			{
				"type": "unocc",
				"energy": 0.05641,
				"method": "rhf"
			},
			{
				"type": "unocc",
				"energy": 0.07466,
				"method": "rhf"
			}
		],
		"cosmo_sigma_profile": { 
			"-0.025": 0.0,
			"-0.024": 0.0,
			"-0.023": 0.0,
			"-0.022": 0.0,
			"-0.021": 0.0,
			"-0.02": 0.0,
			"-0.019": 0.0,
			"-0.018": 0.0,
			"-0.017": 0.0,
			"-0.016": 0.0,
			"-0.015": 0.380835262453,
			"-0.014": 2.08016122343,
			"-0.013": 2.02687428433,
			"-0.012": 2.71981941341,
			"-0.011": 3.01361815841,
			"-0.01": 2.64131845274,
			"-0.009": 3.69429996741,
			"-0.008": 4.34883093802,
			"-0.007": 7.46141681398,
			"-0.006": 10.4486978823,
			"-0.005": 10.5497702987,
			"-0.004": 9.76171261753,
			"-0.003": 8.3694865765,
			"-0.002": 10.0936892617,
			"-0.001": 11.5252206501,
			"0.0": 13.5034931815,
			"0.001": 13.4930568412,
			"0.002": 16.3572399939,
			"0.003": 7.24337288031,
			"0.004": 4.97212731938,
			"0.005": 4.0813337315,
			"0.006": 2.73579063358,
			"0.007": 3.95464684531,
			"0.008": 3.55364378286,
			"0.009": 3.84085880287,
			"0.01": 4.16099894185,
			"0.011": 5.7534550187,
			"0.012": 4.56155001755,
			"0.013": 5.79187621219,
			"0.014": 2.2920512622,
			"0.015": 0.0567785692125,
			"0.016": 0.0,
			"0.017": 0.0,
			"0.018": 0.0,
			"0.019": 0.0,
			"0.02": 0.0,
			"0.021": 0.0,
			"0.022": 0.0,
			"0.023": 0.0,
			"0.024": 0.0,
			"0.025": 0.0
		}
	}
}
