{
	 "smiles": "OC(=O)C1=CN=C(NC2CC2)C=C1", 
	 "Tm": 452.15, 
	 "num_atms": 23, 
	 "gaussian": { 
		 "optdone": 1, 
		 "sigma_profile": "yes", 
		 "theory": "DFT", 
		 "functional": "B3LYP", 
		 "basiset": "6-31G**", 
		 "properties": { 
			 "R2extent": 4093.0104, 
			 "electric_dipole_moment_norm": 6.83931024373, 
			 "electric_quadrupole_moment_norm": 26.0101520972, 
			 "total_energy": -608.912929021, 
			 "HOMO_LUMO_gap": 0.1826, 
			 "cosmo_polarized_energy": -20.18, 
			 "cosmo_cavitation_energy": 27.57, 
			 "cosmo_dispersion_energy": -20.19, 
			 "cosmo_repulsion_energy": 1.61, 
			 "cosmo_total_nonelectrostatic_energy": 8.99, 
			 "SMD_solvation_energy": 3.93 
		},
		"coords": [
			{
				"x": -5.0118931597,
				"y": 0.8948409268,
				"z": 2.2215154649,
				"element": "O" 
			},
			{
				"x": -3.8359921611,
				"y": 0.4797794756,
				"z": 2.7776350274,
				"element": "C" 
			},
			{
				"x": -3.8148112662,
				"y": 0.1351697107,
				"z": 3.9373959504,
				"element": "O" 
			},
			{
				"x": -2.6386186852,
				"y": 0.4809876957,
				"z": 1.8957019335,
				"element": "C" 
			},
			{
				"x": -1.5093020303,
				"y": -0.2398672041,
				"z": 2.3064428185,
				"element": "C" 
			},
			{
				"x": -0.370985087,
				"y": -0.3215169022,
				"z": 1.6199196229,
				"element": "N" 
			},
			{
				"x": -0.2915180215,
				"y": 0.3440454483,
				"z": 0.4523023413,
				"element": "C" 
			},
			{
				"x": 0.8757426163,
				"y": 0.2329844078,
				"z": -0.2579074763,
				"element": "N" 
			},
			{
				"x": 2.0538337686,
				"y": -0.3972968912,
				"z": 0.2682240011,
				"element": "C" 
			},
			{
				"x": 2.2118479313,
				"y": -1.8881329503,
				"z": 0.1271413277,
				"element": "C" 
			},
			{
				"x": 3.0350889303,
				"y": -0.9560861288,
				"z": -0.7284648457,
				"element": "C" 
			},
			{
				"x": -1.3613044104,
				"y": 1.1276239383,
				"z": -0.0477228029,
				"element": "C" 
			},
			{
				"x": -2.5307471489,
				"y": 1.1882428979,
				"z": 0.6830112587,
				"element": "C" 
			},
			{
				"x": -4.9224269682,
				"y": 0.9660273468,
				"z": 1.2617238895,
				"element": "H" 
			},
			{
				"x": -1.550541475,
				"y": -0.7768066734,
				"z": 3.2510716209,
				"element": "H" 
			},
			{
				"x": 1.0075456766,
				"y": 0.890588349,
				"z": -1.0126068849,
				"element": "H" 
			},
			{
				"x": 2.4534373028,
				"y": 0.0521603653,
				"z": 1.1760126189,
				"element": "H" 
			},
			{
				"x": 1.3990615951,
				"y": -2.4244950433,
				"z": -0.3502162413,
				"element": "H" 
			},
			{
				"x": 2.6964643342,
				"y": -2.4211309328,
				"z": 0.9385548834,
				"element": "H" 
			},
			{
				"x": 4.0934954801,
				"y": -0.8425455909,
				"z": -0.5168063867,
				"element": "H" 
			},
			{
				"x": 2.7777006854,
				"y": -0.8841492983,
				"z": -1.7816000715,
				"element": "H" 
			},
			{
				"x": -1.2554247911,
				"y": 1.6729487146,
				"z": -0.9808977149,
				"element": "H" 
			},
			{
				"x": -3.3429531161,
				"y": 1.8152283387,
				"z": 0.3209696654,
				"element": "H" 
			}
		],
		 "valence_orbital": [ 
			{
				"type": "occ",
				"energy": -0.29829,
				"method": "rhf"
			},
			{
				"type": "occ",
				"energy": -0.29378,
				"method": "rhf"
			},
			{
				"type": "occ",
				"energy": -0.2713,
				"method": "rhf"
			},
			{
				"type": "occ",
				"energy": -0.25828,
				"method": "rhf"
			},
			{
				"type": "occ",
				"energy": -0.22178,
				"method": "rhf"
			},
			{
				"type": "unocc",
				"energy": -0.03918,
				"method": "rhf"
			},
			{
				"type": "unocc",
				"energy": -0.02945,
				"method": "rhf"
			},
			{
				"type": "unocc",
				"energy": 0.05285,
				"method": "rhf"
			},
			{
				"type": "unocc",
				"energy": 0.06278,
				"method": "rhf"
			},
			{
				"type": "unocc",
				"energy": 0.07342,
				"method": "rhf"
			}
		],
		"cosmo_sigma_profile": { 
			"-0.025": 0.0,
			"-0.024": 0.0,
			"-0.023": 0.0,
			"-0.022": 0.0,
			"-0.021": 0.0,
			"-0.02": 0.0,
			"-0.019": 0.351806554762,
			"-0.018": 0.820753805473,
			"-0.017": 0.953895950671,
			"-0.016": 0.8941834021,
			"-0.015": 1.31375416447,
			"-0.014": 1.99920070446,
			"-0.013": 1.69261881612,
			"-0.012": 2.57832428738,
			"-0.011": 2.56840351969,
			"-0.01": 2.70269632807,
			"-0.009": 2.72763775851,
			"-0.008": 3.91406125998,
			"-0.007": 5.49618615224,
			"-0.006": 5.92873433094,
			"-0.005": 12.1771539641,
			"-0.004": 15.9506181736,
			"-0.003": 12.852444987,
			"-0.002": 13.5147694168,
			"-0.001": 15.9547083248,
			"0.0": 16.2909436099,
			"0.001": 16.0544990761,
			"0.002": 19.4475904637,
			"0.003": 10.3795555167,
			"0.004": 7.10086623205,
			"0.005": 5.99508894775,
			"0.006": 3.26992720992,
			"0.007": 4.08131081514,
			"0.008": 4.58509178501,
			"0.009": 3.67617164768,
			"0.01": 5.06461787395,
			"0.011": 5.9383252025,
			"0.012": 7.3649319157,
			"0.013": 3.42890746012,
			"0.014": 1.75846298628,
			"0.015": 0.444806222055,
			"0.016": 0.0416368282236,
			"0.017": 0.0,
			"0.018": 0.0,
			"0.019": 0.0,
			"0.02": 0.0,
			"0.021": 0.0,
			"0.022": 0.0,
			"0.023": 0.0,
			"0.024": 0.0,
			"0.025": 0.0
		}
	}
}
