{
	 "smiles": "OCC1=C(C=C(Cl)C=C1)C#N", 
	 "Tm": 373.15, 
	 "num_atms": 17, 
	 "gaussian": { 
		 "optdone": 1, 
		 "sigma_profile": "yes", 
		 "theory": "DFT", 
		 "functional": "B3LYP", 
		 "basiset": "6-31G**", 
		 "properties": { 
			 "R2extent": 3376.7426, 
			 "electric_dipole_moment_norm": 4.96021469898, 
			 "electric_quadrupole_moment_norm": 5.36210816191, 
			 "total_energy": -898.60410789, 
			 "HOMO_LUMO_gap": 0.19824, 
			 "cosmo_polarized_energy": -14.34, 
			 "cosmo_cavitation_energy": 24.35, 
			 "cosmo_dispersion_energy": -17.25, 
			 "cosmo_repulsion_energy": 1.4, 
			 "cosmo_total_nonelectrostatic_energy": 8.5, 
			 "SMD_solvation_energy": 5.16 
		},
		"coords": [
			{
				"x": -0.5404386832,
				"y": 1.8216169122,
				"z": -0.1397742004,
				"element": "O" 
			},
			{
				"x": -0.7897541948,
				"y": 1.1910529097,
				"z": 1.1088039449,
				"element": "C" 
			},
			{
				"x": 0.3062679672,
				"y": 0.2215498929,
				"z": 1.5027051296,
				"element": "C" 
			},
			{
				"x": 0.5410553304,
				"y": -0.9587789588,
				"z": 0.7616797196,
				"element": "C" 
			},
			{
				"x": 1.5844269325,
				"y": -1.8314497341,
				"z": 1.1051699876,
				"element": "C" 
			},
			{
				"x": 2.3993928342,
				"y": -1.5237081796,
				"z": 2.1916683742,
				"element": "C" 
			},
			{
				"x": 3.7039915124,
				"y": -2.6115842298,
				"z": 2.6213058173,
				"element": "Cl" 
			},
			{
				"x": 2.1886791216,
				"y": -0.3674153479,
				"z": 2.9406646633,
				"element": "C" 
			},
			{
				"x": 1.1467672323,
				"y": 0.490620604,
				"z": 2.5849893783,
				"element": "C" 
			},
			{
				"x": -0.3001699488,
				"y": -1.3106969856,
				"z": -0.3477191549,
				"element": "C" 
			},
			{
				"x": -0.9753722374,
				"y": -1.634064965,
				"z": -1.2374433391,
				"element": "N" 
			},
			{
				"x": 0.2984149037,
				"y": 2.2969241881,
				"z": -0.0714921103,
				"element": "H" 
			},
			{
				"x": -0.9272518438,
				"y": 1.924235654,
				"z": 1.9176299178,
				"element": "H" 
			},
			{
				"x": -1.7383239982,
				"y": 0.661036653,
				"z": 0.9795141727,
				"element": "H" 
			},
			{
				"x": 1.7489849318,
				"y": -2.736031371,
				"z": 0.5318367672,
				"element": "H" 
			},
			{
				"x": 2.8298079917,
				"y": -0.1426318098,
				"z": 3.7857040525,
				"element": "H" 
			},
			{
				"x": 0.9826221482,
				"y": 1.3920247676,
				"z": 3.1694568797,
				"element": "H" 
			}
		],
		 "valence_orbital": [ 
			{
				"type": "occ",
				"energy": -0.33752,
				"method": "rhf"
			},
			{
				"type": "occ",
				"energy": -0.33045,
				"method": "rhf"
			},
			{
				"type": "occ",
				"energy": -0.29021,
				"method": "rhf"
			},
			{
				"type": "occ",
				"energy": -0.28308,
				"method": "rhf"
			},
			{
				"type": "occ",
				"energy": -0.26572,
				"method": "rhf"
			},
			{
				"type": "unocc",
				"energy": -0.06748,
				"method": "rhf"
			},
			{
				"type": "unocc",
				"energy": -0.04071,
				"method": "rhf"
			},
			{
				"type": "unocc",
				"energy": 0.00778,
				"method": "rhf"
			},
			{
				"type": "unocc",
				"energy": 0.03422,
				"method": "rhf"
			},
			{
				"type": "unocc",
				"energy": 0.06477,
				"method": "rhf"
			}
		],
		"cosmo_sigma_profile": { 
			"-0.025": 0.0,
			"-0.024": 0.0,
			"-0.023": 0.0,
			"-0.022": 0.0,
			"-0.021": 0.0,
			"-0.02": 0.0,
			"-0.019": 0.0,
			"-0.018": 0.0,
			"-0.017": 0.0,
			"-0.016": 0.617057732804,
			"-0.015": 1.03661088747,
			"-0.014": 0.980198653623,
			"-0.013": 1.19864342918,
			"-0.012": 0.761102559106,
			"-0.011": 1.03368189998,
			"-0.01": 0.76912283053,
			"-0.009": 2.32950096749,
			"-0.008": 7.08930609817,
			"-0.007": 10.2156868957,
			"-0.006": 10.0908228954,
			"-0.005": 10.0968364848,
			"-0.004": 10.1307047391,
			"-0.003": 10.7340714441,
			"-0.002": 12.3638842808,
			"-0.001": 13.2592141088,
			"0.0": 20.2745965611,
			"0.001": 16.5326253605,
			"0.002": 9.2168180225,
			"0.003": 10.2578737995,
			"0.004": 11.6633294613,
			"0.005": 2.91914489041,
			"0.006": 3.61916783203,
			"0.007": 4.45701967927,
			"0.008": 4.93423671184,
			"0.009": 5.26297243181,
			"0.01": 4.39216104585,
			"0.011": 4.20099199464,
			"0.012": 3.88823131085,
			"0.013": 2.74607418609,
			"0.014": 0.83653843744,
			"0.015": 0.0,
			"0.016": 0.0,
			"0.017": 0.0,
			"0.018": 0.0,
			"0.019": 0.0,
			"0.02": 0.0,
			"0.021": 0.0,
			"0.022": 0.0,
			"0.023": 0.0,
			"0.024": 0.0,
			"0.025": 0.0
		}
	}
}
