{
	 "smiles": "ClC(Cl)(Cl)C1=CC=CC=C1", 
	 "Tm": 267.15, 
	 "num_atms": 15, 
	 "gaussian": { 
		 "optdone": 1, 
		 "sigma_profile": "yes", 
		 "theory": "DFT", 
		 "functional": "B3LYP", 
		 "basiset": "6-31G**", 
		 "properties": { 
			 "R2extent": 4498.9182, 
			 "electric_dipole_moment_norm": 2.76221789691, 
			 "electric_quadrupole_moment_norm": 9.14936236685, 
			 "total_energy": -1650.31744688, 
			 "HOMO_LUMO_gap": 0.2159, 
			 "cosmo_polarized_energy": -4.06, 
			 "cosmo_cavitation_energy": 23.85, 
			 "cosmo_dispersion_energy": -17.86, 
			 "cosmo_repulsion_energy": 1.44, 
			 "cosmo_total_nonelectrostatic_energy": 7.42, 
			 "SMD_solvation_energy": 3.11 
		},
		"coords": [
			{
				"x": 1.0658794126,
				"y": -4.0027902733,
				"z": -0.9473197502,
				"element": "Cl" 
			},
			{
				"x": -0.5938823409,
				"y": -3.2700590747,
				"z": -1.0573232049,
				"element": "C" 
			},
			{
				"x": -1.6781438928,
				"y": -4.1729385278,
				"z": 0.0885806987,
				"element": "Cl" 
			},
			{
				"x": -1.2063980724,
				"y": -3.5615223827,
				"z": -2.7273762899,
				"element": "Cl" 
			},
			{
				"x": -0.5412109424,
				"y": -1.798871526,
				"z": -0.6761746416,
				"element": "C" 
			},
			{
				"x": -0.0809398795,
				"y": -1.4651297331,
				"z": 0.6083404422,
				"element": "C" 
			},
			{
				"x": -0.0133272635,
				"y": -0.1344263909,
				"z": 1.0066170937,
				"element": "C" 
			},
			{
				"x": -0.4031186504,
				"y": 0.8831559017,
				"z": 0.1311608439,
				"element": "C" 
			},
			{
				"x": -0.8598519321,
				"y": 0.5557991225,
				"z": -1.1429287877,
				"element": "C" 
			},
			{
				"x": -0.9302902066,
				"y": -0.7791798904,
				"z": -1.5491662861,
				"element": "C" 
			},
			{
				"x": 0.2233018118,
				"y": -2.2491031113,
				"z": 1.2935134625,
				"element": "H" 
			},
			{
				"x": 0.3444739788,
				"y": 0.1080022484,
				"z": 2.0026660623,
				"element": "H" 
			},
			{
				"x": -0.349936412,
				"y": 1.9218796011,
				"z": 0.44314035,
				"element": "H" 
			},
			{
				"x": -1.1655164988,
				"y": 1.3371069455,
				"z": -1.8321857786,
				"element": "H" 
			},
			{
				"x": -1.2875391116,
				"y": -1.0176229088,
				"z": -2.5427442143,
				"element": "H" 
			}
		],
		 "valence_orbital": [ 
			{
				"type": "occ",
				"energy": -0.31944,
				"method": "rhf"
			},
			{
				"type": "occ",
				"energy": -0.31657,
				"method": "rhf"
			},
			{
				"type": "occ",
				"energy": -0.30445,
				"method": "rhf"
			},
			{
				"type": "occ",
				"energy": -0.2693,
				"method": "rhf"
			},
			{
				"type": "occ",
				"energy": -0.26381,
				"method": "rhf"
			},
			{
				"type": "unocc",
				"energy": -0.04791,
				"method": "rhf"
			},
			{
				"type": "unocc",
				"energy": -0.04231,
				"method": "rhf"
			},
			{
				"type": "unocc",
				"energy": -0.01756,
				"method": "rhf"
			},
			{
				"type": "unocc",
				"energy": -0.00248,
				"method": "rhf"
			},
			{
				"type": "unocc",
				"energy": 0.03013,
				"method": "rhf"
			}
		],
		"cosmo_sigma_profile": { 
			"-0.025": 0.0,
			"-0.024": 0.0,
			"-0.023": 0.0,
			"-0.022": 0.0,
			"-0.021": 0.0,
			"-0.02": 0.0,
			"-0.019": 0.0,
			"-0.018": 0.0,
			"-0.017": 0.0,
			"-0.016": 0.0,
			"-0.015": 0.0,
			"-0.014": 0.0,
			"-0.013": 0.0,
			"-0.012": 0.0,
			"-0.011": 0.0,
			"-0.01": 0.0,
			"-0.009": 0.0,
			"-0.008": 0.0,
			"-0.007": 3.44222469048,
			"-0.006": 10.7877897429,
			"-0.005": 11.2053753061,
			"-0.004": 11.6378970257,
			"-0.003": 12.291260629,
			"-0.002": 14.1116469596,
			"-0.001": 14.8161672366,
			"0.0": 16.8155066103,
			"0.001": 17.5811422306,
			"0.002": 23.8444763484,
			"0.003": 40.1015355726,
			"0.004": 21.0880863323,
			"0.005": 0.139455429494,
			"0.006": 0.0,
			"0.007": 0.0,
			"0.008": 0.0,
			"0.009": 0.0,
			"0.01": 0.0,
			"0.011": 0.0,
			"0.012": 0.0,
			"0.013": 0.0,
			"0.014": 0.0,
			"0.015": 0.0,
			"0.016": 0.0,
			"0.017": 0.0,
			"0.018": 0.0,
			"0.019": 0.0,
			"0.02": 0.0,
			"0.021": 0.0,
			"0.022": 0.0,
			"0.023": 0.0,
			"0.024": 0.0,
			"0.025": 0.0
		}
	}
}
