{
	 "smiles": "CN1C=C(C=N1)N1CCC(N)C1=O", 
	 "Tm": 405.15, 
	 "num_atms": 25, 
	 "gaussian": { 
		 "optdone": 1, 
		 "sigma_profile": "yes", 
		 "theory": "DFT", 
		 "functional": "B3LYP", 
		 "basiset": "6-31G**", 
		 "properties": { 
			 "R2extent": 3261.771, 
			 "electric_dipole_moment_norm": 0.816569415298, 
			 "electric_quadrupole_moment_norm": 14.6905895865, 
			 "total_energy": -606.302014558, 
			 "HOMO_LUMO_gap": 0.21558, 
			 "cosmo_polarized_energy": -15.31, 
			 "cosmo_cavitation_energy": 28.06, 
			 "cosmo_dispersion_energy": -20.71, 
			 "cosmo_repulsion_energy": 1.64, 
			 "cosmo_total_nonelectrostatic_energy": 8.99, 
			 "SMD_solvation_energy": 3.12 
		},
		"coords": [
			{
				"x": 2.8257303416,
				"y": 3.1065080845,
				"z": -1.3671287469,
				"element": "C" 
			},
			{
				"x": 2.3331579572,
				"y": 1.7439618886,
				"z": -1.4410411416,
				"element": "N" 
			},
			{
				"x": 1.5325641449,
				"y": 1.1043488775,
				"z": -0.5449904785,
				"element": "C" 
			},
			{
				"x": 1.3388213791,
				"y": -0.1743807803,
				"z": -1.0521267537,
				"element": "C" 
			},
			{
				"x": 2.0717365191,
				"y": -0.1982993277,
				"z": -2.2623460865,
				"element": "C" 
			},
			{
				"x": 2.6718705656,
				"y": 0.9720391764,
				"z": -2.4897907973,
				"element": "N" 
			},
			{
				"x": 0.5861193054,
				"y": -1.2157545114,
				"z": -0.4950585592,
				"element": "N" 
			},
			{
				"x": 0.4582911019,
				"y": -2.522157836,
				"z": -1.146851174,
				"element": "C" 
			},
			{
				"x": -0.6778371211,
				"y": -3.2040411242,
				"z": -0.3617353345,
				"element": "C" 
			},
			{
				"x": -0.6053701253,
				"y": -2.5615141551,
				"z": 1.0299922862,
				"element": "C" 
			},
			{
				"x": -1.865195336,
				"y": -2.5641253971,
				"z": 1.7580315381,
				"element": "N" 
			},
			{
				"x": -0.0123292738,
				"y": -1.1714422806,
				"z": 0.7407508398,
				"element": "C" 
			},
			{
				"x": -0.0603356051,
				"y": -0.2023077435,
				"z": 1.4879971468,
				"element": "O" 
			},
			{
				"x": 2.4491803448,
				"y": 3.5681022061,
				"z": -0.4532429997,
				"element": "H" 
			},
			{
				"x": 2.480468779,
				"y": 3.6795756759,
				"z": -2.2317146737,
				"element": "H" 
			},
			{
				"x": 3.9188175782,
				"y": 3.1116924058,
				"z": -1.3521158513,
				"element": "H" 
			},
			{
				"x": 1.1627933325,
				"y": 1.5607826768,
				"z": 0.3572949891,
				"element": "H" 
			},
			{
				"x": 2.1908111313,
				"y": -1.0097971142,
				"z": -2.9668743216,
				"element": "H" 
			},
			{
				"x": 0.2220258112,
				"y": -2.3960980404,
				"z": -2.208311863,
				"element": "H" 
			},
			{
				"x": 1.4018861287,
				"y": -3.0810926455,
				"z": -1.0763375707,
				"element": "H" 
			},
			{
				"x": -0.5835184245,
				"y": -4.2915526197,
				"z": -0.3431718915,
				"element": "H" 
			},
			{
				"x": -1.6434222689,
				"y": -2.9595968561,
				"z": -0.8199329944,
				"element": "H" 
			},
			{
				"x": 0.135446209,
				"y": -3.0933413888,
				"z": 1.6454048141,
				"element": "H" 
			},
			{
				"x": -1.7324632742,
				"y": -2.0355483297,
				"z": 2.619087007,
				"element": "H" 
			},
			{
				"x": -2.5559492004,
				"y": -2.0363608411,
				"z": 1.225712617,
				"element": "H" 
			}
		],
		 "valence_orbital": [ 
			{
				"type": "occ",
				"energy": -0.28615,
				"method": "rhf"
			},
			{
				"type": "occ",
				"energy": -0.26923,
				"method": "rhf"
			},
			{
				"type": "occ",
				"energy": -0.2478,
				"method": "rhf"
			},
			{
				"type": "occ",
				"energy": -0.23212,
				"method": "rhf"
			},
			{
				"type": "occ",
				"energy": -0.20659,
				"method": "rhf"
			},
			{
				"type": "unocc",
				"energy": 0.00899,
				"method": "rhf"
			},
			{
				"type": "unocc",
				"energy": 0.02369,
				"method": "rhf"
			},
			{
				"type": "unocc",
				"energy": 0.08592,
				"method": "rhf"
			},
			{
				"type": "unocc",
				"energy": 0.09449,
				"method": "rhf"
			},
			{
				"type": "unocc",
				"energy": 0.09958,
				"method": "rhf"
			}
		],
		"cosmo_sigma_profile": { 
			"-0.025": 0.0,
			"-0.024": 0.0,
			"-0.023": 0.0,
			"-0.022": 0.0,
			"-0.021": 0.0,
			"-0.02": 0.0,
			"-0.019": 0.0,
			"-0.018": 0.0,
			"-0.017": 0.0,
			"-0.016": 0.0,
			"-0.015": 0.0,
			"-0.014": 0.0,
			"-0.013": 0.0,
			"-0.012": 0.0,
			"-0.011": 0.0777002209443,
			"-0.01": 1.33592907059,
			"-0.009": 3.4580053194,
			"-0.008": 4.94223071465,
			"-0.007": 8.16890083561,
			"-0.006": 15.9695839362,
			"-0.005": 23.7203570789,
			"-0.004": 25.4439357879,
			"-0.003": 23.1632405171,
			"-0.002": 14.8218497643,
			"-0.001": 8.07098882578,
			"0.0": 7.77053236074,
			"0.001": 7.57904292941,
			"0.002": 7.14828786578,
			"0.003": 9.97613938743,
			"0.004": 11.2695602884,
			"0.005": 7.5563806851,
			"0.006": 4.33547569543,
			"0.007": 5.0538934725,
			"0.008": 3.54979033286,
			"0.009": 3.51435707901,
			"0.01": 3.74933794992,
			"0.011": 3.45365805716,
			"0.012": 4.30740671066,
			"0.013": 4.94483177338,
			"0.014": 3.07519209741,
			"0.015": 2.07717650948,
			"0.016": 0.672476479103,
			"0.017": 0.907966444863,
			"0.018": 0.527357756528,
			"0.019": 0.354791674404,
			"0.02": 0.0,
			"0.021": 0.0,
			"0.022": 0.0,
			"0.023": 0.0,
			"0.024": 0.0,
			"0.025": 0.0
		}
	}
}
