{
	 "smiles": "NS(=O)(=O)C1=C(Cl)C=C(NCC2=CC=CS2)C(=C1)C1=NN=NN1", 
	 "Tm": 493.15, 
	 "num_atms": 34, 
	 "gaussian": { 
		 "optdone": 1, 
		 "sigma_profile": "yes", 
		 "theory": "DFT", 
		 "functional": "B3LYP", 
		 "basiset": "6-31G**", 
		 "properties": { 
			 "R2extent": 10416.4799, 
			 "electric_dipole_moment_norm": 5.27382798449, 
			 "electric_quadrupole_moment_norm": 28.772331295, 
			 "total_energy": -2199.29645403, 
			 "HOMO_LUMO_gap": 0.16124, 
			 "cosmo_polarized_energy": -29.86, 
			 "cosmo_cavitation_energy": 43.56, 
			 "cosmo_dispersion_energy": -31.67, 
			 "cosmo_repulsion_energy": 2.32, 
			 "cosmo_total_nonelectrostatic_energy": 14.21, 
			 "SMD_solvation_energy": 4.38 
		},
		"coords": [
			{
				"x": 4.7269356969,
				"y": -0.8383231095,
				"z": 0.0552226441,
				"element": "N" 
			},
			{
				"x": 3.8612439993,
				"y": -0.9749788055,
				"z": -1.3694518809,
				"element": "S" 
			},
			{
				"x": 4.4139024472,
				"y": 0.0133942714,
				"z": -2.2882325083,
				"element": "O" 
			},
			{
				"x": 3.8378132497,
				"y": -2.4054148868,
				"z": -1.6831441565,
				"element": "O" 
			},
			{
				"x": 2.1511465779,
				"y": -0.5328155508,
				"z": -1.0113862471,
				"element": "C" 
			},
			{
				"x": 1.7151889648,
				"y": 0.715707307,
				"z": -0.5318102938,
				"element": "C" 
			},
			{
				"x": 2.855768454,
				"y": 1.9838478601,
				"z": -0.1206042912,
				"element": "Cl" 
			},
			{
				"x": 0.3722718563,
				"y": 0.9814447448,
				"z": -0.3336492187,
				"element": "C" 
			},
			{
				"x": -0.6209912494,
				"y": 0.0156131092,
				"z": -0.6300696594,
				"element": "C" 
			},
			{
				"x": -1.9408256264,
				"y": 0.2887922121,
				"z": -0.4589772499,
				"element": "N" 
			},
			{
				"x": -2.4761487404,
				"y": 1.5759322575,
				"z": -0.05597825,
				"element": "C" 
			},
			{
				"x": -2.332010872,
				"y": 1.8652029218,
				"z": 1.4231173867,
				"element": "C" 
			},
			{
				"x": -2.2089768585,
				"y": 0.9788427389,
				"z": 2.4593289162,
				"element": "C" 
			},
			{
				"x": -2.1483921023,
				"y": 1.6121103015,
				"z": 3.7395736806,
				"element": "C" 
			},
			{
				"x": -2.2278213849,
				"y": 2.9734669124,
				"z": 3.6623477118,
				"element": "C" 
			},
			{
				"x": -2.3742017252,
				"y": 3.5082468153,
				"z": 2.0165247545,
				"element": "S" 
			},
			{
				"x": -0.1844162367,
				"y": -1.2594991935,
				"z": -1.1198968908,
				"element": "C" 
			},
			{
				"x": 1.182495862,
				"y": -1.4908990155,
				"z": -1.2923295556,
				"element": "C" 
			},
			{
				"x": -1.1428721422,
				"y": -2.3063582995,
				"z": -1.448688404,
				"element": "C" 
			},
			{
				"x": -2.4645627395,
				"y": -2.2544484988,
				"z": -1.2952397617,
				"element": "N" 
			},
			{
				"x": -2.9666409051,
				"y": -3.4397624707,
				"z": -1.7267553348,
				"element": "N" 
			},
			{
				"x": -2.0233762893,
				"y": -4.215615294,
				"z": -2.1360453566,
				"element": "N" 
			},
			{
				"x": -0.8686564156,
				"y": -3.526854149,
				"z": -1.9711600444,
				"element": "N" 
			},
			{
				"x": 4.4278024415,
				"y": -1.5008157273,
				"z": 0.7635166223,
				"element": "H" 
			},
			{
				"x": 4.7872333325,
				"y": 0.1181603722,
				"z": 0.3904415715,
				"element": "H" 
			},
			{
				"x": 0.0860899617,
				"y": 1.9402562663,
				"z": 0.0768421342,
				"element": "H" 
			},
			{
				"x": -2.588561037,
				"y": -0.468096058,
				"z": -0.6747191861,
				"element": "H" 
			},
			{
				"x": -3.5362841244,
				"y": 1.5724377917,
				"z": -0.3335584114,
				"element": "H" 
			},
			{
				"x": -2.0124202191,
				"y": 2.3783059452,
				"z": -0.6456746787,
				"element": "H" 
			},
			{
				"x": -2.1621397207,
				"y": -0.0937184475,
				"z": 2.3098688125,
				"element": "H" 
			},
			{
				"x": -2.0482449477,
				"y": 1.073030548,
				"z": 4.6747901833,
				"element": "H" 
			},
			{
				"x": -2.2063671227,
				"y": 3.6981167473,
				"z": 4.4642916307,
				"element": "H" 
			},
			{
				"x": 1.5421403639,
				"y": -2.4454274535,
				"z": -1.6605442752,
				"element": "H" 
			},
			{
				"x": 0.0074772514,
				"y": -3.9468821627,
				"z": -2.2454503935,
				"element": "H" 
			}
		],
		 "valence_orbital": [ 
			{
				"type": "occ",
				"energy": -0.30567,
				"method": "rhf"
			},
			{
				"type": "occ",
				"energy": -0.27274,
				"method": "rhf"
			},
			{
				"type": "occ",
				"energy": -0.26369,
				"method": "rhf"
			},
			{
				"type": "occ",
				"energy": -0.24271,
				"method": "rhf"
			},
			{
				"type": "occ",
				"energy": -0.23446,
				"method": "rhf"
			},
			{
				"type": "unocc",
				"energy": -0.07322,
				"method": "rhf"
			},
			{
				"type": "unocc",
				"energy": -0.03988,
				"method": "rhf"
			},
			{
				"type": "unocc",
				"energy": -0.02623,
				"method": "rhf"
			},
			{
				"type": "unocc",
				"energy": -0.01673,
				"method": "rhf"
			},
			{
				"type": "unocc",
				"energy": -0.00287,
				"method": "rhf"
			}
		],
		"cosmo_sigma_profile": { 
			"-0.025": 0.0,
			"-0.024": 0.0,
			"-0.023": 0.0,
			"-0.022": 0.0,
			"-0.021": 0.0,
			"-0.02": 0.323265077731,
			"-0.019": 1.78046602752,
			"-0.018": 1.78623263433,
			"-0.017": 1.69796311993,
			"-0.016": 1.22472256732,
			"-0.015": 2.63249450466,
			"-0.014": 2.1929436072,
			"-0.013": 3.63122964262,
			"-0.012": 3.48630241108,
			"-0.011": 3.03198753921,
			"-0.01": 4.34480878676,
			"-0.009": 3.40988661544,
			"-0.008": 7.57771645621,
			"-0.007": 11.870442857,
			"-0.006": 16.0200652958,
			"-0.005": 14.9551452447,
			"-0.004": 17.1806420275,
			"-0.003": 22.125967618,
			"-0.002": 22.1739029536,
			"-0.001": 21.0376611297,
			"0.0": 27.3107709319,
			"0.001": 21.701891834,
			"0.002": 20.2364923536,
			"0.003": 19.7461533505,
			"0.004": 17.1820663484,
			"0.005": 15.345087162,
			"0.006": 10.6790671218,
			"0.007": 9.92720806887,
			"0.008": 9.82717089188,
			"0.009": 10.0627973594,
			"0.01": 11.641155336,
			"0.011": 13.0354995236,
			"0.012": 4.07136947577,
			"0.013": 1.16736709844,
			"0.014": 0.105140522426,
			"0.015": 0.0,
			"0.016": 0.0,
			"0.017": 0.0,
			"0.018": 0.0,
			"0.019": 0.0,
			"0.02": 0.0,
			"0.021": 0.0,
			"0.022": 0.0,
			"0.023": 0.0,
			"0.024": 0.0,
			"0.025": 0.0
		}
	}
}
