{
	 "smiles": "OC(=O)C1=C(N(N=C1)C1=CC=CC=C1)C(F)(F)F", 
	 "Tm": 413.15, 
	 "num_atms": 25, 
	 "gaussian": { 
		 "optdone": 1, 
		 "sigma_profile": "yes", 
		 "theory": "DFT", 
		 "functional": "B3LYP", 
		 "basiset": "6-31G**", 
		 "properties": { 
			 "R2extent": 4570.6196, 
			 "electric_dipole_moment_norm": 5.16096275321, 
			 "electric_quadrupole_moment_norm": 11.9015560373, 
			 "total_energy": -982.839651441, 
			 "HOMO_LUMO_gap": 0.19895, 
			 "cosmo_polarized_energy": -16.25, 
			 "cosmo_cavitation_energy": 31.35, 
			 "cosmo_dispersion_energy": -22.11, 
			 "cosmo_repulsion_energy": 1.64, 
			 "cosmo_total_nonelectrostatic_energy": 10.88, 
			 "SMD_solvation_energy": 6.76 
		},
		"coords": [
			{
				"x": 0.5396315444,
				"y": 2.037991179,
				"z": -3.541988331,
				"element": "O" 
			},
			{
				"x": 0.7865275671,
				"y": 0.9900007425,
				"z": -2.7074739833,
				"element": "C" 
			},
			{
				"x": 1.1678160758,
				"y": -0.065781528,
				"z": -3.1462670602,
				"element": "O" 
			},
			{
				"x": 0.603170307,
				"y": 1.2912408377,
				"z": -1.26337196,
				"element": "C" 
			},
			{
				"x": 0.2494499071,
				"y": 0.4276845709,
				"z": -0.2296984972,
				"element": "C" 
			},
			{
				"x": 0.3267930542,
				"y": 1.1487506597,
				"z": 0.9303398285,
				"element": "N" 
			},
			{
				"x": 0.700758651,
				"y": 2.4313718706,
				"z": 0.7008715106,
				"element": "N" 
			},
			{
				"x": 0.8618375773,
				"y": 2.5205538978,
				"z": -0.6120293026,
				"element": "C" 
			},
			{
				"x": 0.101036553,
				"y": 0.7516975392,
				"z": 2.2902590865,
				"element": "C" 
			},
			{
				"x": 0.6534501598,
				"y": -0.4312163467,
				"z": 2.7850542788,
				"element": "C" 
			},
			{
				"x": 0.4411648241,
				"y": -0.7715490724,
				"z": 4.1205390496,
				"element": "C" 
			},
			{
				"x": -0.2969636165,
				"y": 0.0690801128,
				"z": 4.9553200064,
				"element": "C" 
			},
			{
				"x": -0.8283756309,
				"y": 1.2584488271,
				"z": 4.4515957105,
				"element": "C" 
			},
			{
				"x": -0.6334468917,
				"y": 1.6053198274,
				"z": 3.1161807735,
				"element": "C" 
			},
			{
				"x": -0.2292663956,
				"y": -0.9964912004,
				"z": -0.308099695,
				"element": "C" 
			},
			{
				"x": -0.7449522008,
				"y": -1.2624364217,
				"z": -1.5133302977,
				"element": "F" 
			},
			{
				"x": -1.1929086634,
				"y": -1.238468417,
				"z": 0.6078235459,
				"element": "F" 
			},
			{
				"x": 0.7712657309,
				"y": -1.8769031495,
				"z": -0.0792188711,
				"element": "F" 
			},
			{
				"x": 0.1027521096,
				"y": 2.752923721,
				"z": -3.0578709034,
				"element": "H" 
			},
			{
				"x": 1.2017714989,
				"y": 3.4524653044,
				"z": -1.0455939513,
				"element": "H" 
			},
			{
				"x": 1.2402464529,
				"y": -1.0728930835,
				"z": 2.138820036,
				"element": "H" 
			},
			{
				"x": 0.8662471505,
				"y": -1.6916741534,
				"z": 4.5092107643,
				"element": "H" 
			},
			{
				"x": -0.4537479985,
				"y": -0.1991429982,
				"z": 5.9956321034,
				"element": "H" 
			},
			{
				"x": -1.4000306178,
				"y": 1.917919685,
				"z": 5.0972881636,
				"element": "H" 
			},
			{
				"x": -1.033527148,
				"y": 2.5263075956,
				"z": 2.708607995,
				"element": "H" 
			}
		],
		 "valence_orbital": [ 
			{
				"type": "occ",
				"energy": -0.30712,
				"method": "rhf"
			},
			{
				"type": "occ",
				"energy": -0.28988,
				"method": "rhf"
			},
			{
				"type": "occ",
				"energy": -0.27643,
				"method": "rhf"
			},
			{
				"type": "occ",
				"energy": -0.27176,
				"method": "rhf"
			},
			{
				"type": "occ",
				"energy": -0.25731,
				"method": "rhf"
			},
			{
				"type": "unocc",
				"energy": -0.05836,
				"method": "rhf"
			},
			{
				"type": "unocc",
				"energy": -0.02268,
				"method": "rhf"
			},
			{
				"type": "unocc",
				"energy": -0.02049,
				"method": "rhf"
			},
			{
				"type": "unocc",
				"energy": -0.00315,
				"method": "rhf"
			},
			{
				"type": "unocc",
				"energy": 0.06282,
				"method": "rhf"
			}
		],
		"cosmo_sigma_profile": { 
			"-0.025": 0.0,
			"-0.024": 0.0,
			"-0.023": 0.0,
			"-0.022": 0.0,
			"-0.021": 0.0,
			"-0.02": 0.0,
			"-0.019": 0.407857390777,
			"-0.018": 1.0707149069,
			"-0.017": 0.96727712085,
			"-0.016": 0.707324719597,
			"-0.015": 1.50946072899,
			"-0.014": 0.916786827035,
			"-0.013": 1.56117730904,
			"-0.012": 1.56725872224,
			"-0.011": 1.05487306781,
			"-0.01": 2.00998494442,
			"-0.009": 2.19294676988,
			"-0.008": 2.31967624373,
			"-0.007": 5.95889462694,
			"-0.006": 13.9418541643,
			"-0.005": 15.0029300837,
			"-0.004": 15.3828529586,
			"-0.003": 14.2120102155,
			"-0.002": 14.2641057221,
			"-0.001": 14.9593537539,
			"0.0": 15.5124505398,
			"0.001": 21.2601857155,
			"0.002": 31.2958491411,
			"0.003": 21.8655277968,
			"0.004": 13.4771345962,
			"0.005": 4.44769592199,
			"0.006": 4.10835313917,
			"0.007": 4.08015826073,
			"0.008": 5.38849673251,
			"0.009": 4.65575777998,
			"0.01": 6.49782777259,
			"0.011": 5.89242226366,
			"0.012": 3.62033301577,
			"0.013": 0.679248049812,
			"0.014": 0.0,
			"0.015": 0.0,
			"0.016": 0.0,
			"0.017": 0.0,
			"0.018": 0.0,
			"0.019": 0.0,
			"0.02": 0.0,
			"0.021": 0.0,
			"0.022": 0.0,
			"0.023": 0.0,
			"0.024": 0.0,
			"0.025": 0.0
		}
	}
}
