{
	 "smiles": "NNC1=NC(N)=NC(=N1)C1=NC=CC=C1", 
	 "Tm": 561.15, 
	 "num_atms": 24, 
	 "gaussian": { 
		 "optdone": 1, 
		 "sigma_profile": "yes", 
		 "theory": "DFT", 
		 "functional": "B3LYP", 
		 "basiset": "6-31G**", 
		 "properties": { 
			 "R2extent": 4062.6151, 
			 "electric_dipole_moment_norm": 3.15907754891, 
			 "electric_quadrupole_moment_norm": 15.8887988999, 
			 "total_energy": -693.536529344, 
			 "HOMO_LUMO_gap": 0.18132, 
			 "cosmo_polarized_energy": -19.33, 
			 "cosmo_cavitation_energy": 29.35, 
			 "cosmo_dispersion_energy": -22.08, 
			 "cosmo_repulsion_energy": 1.77, 
			 "cosmo_total_nonelectrostatic_energy": 9.04, 
			 "SMD_solvation_energy": 0.81 
		},
		"coords": [
			{
				"x": 1.7573983173,
				"y": 4.1090168663,
				"z": -1.9953233741,
				"element": "N" 
			},
			{
				"x": 0.8202086241,
				"y": 3.4604811308,
				"z": -1.1812790182,
				"element": "N" 
			},
			{
				"x": 1.0112121868,
				"y": 2.247869777,
				"z": -0.6021360047,
				"element": "C" 
			},
			{
				"x": 2.2043870232,
				"y": 1.6564304259,
				"z": -0.765160466,
				"element": "N" 
			},
			{
				"x": 2.2924708785,
				"y": 0.463750064,
				"z": -0.1512340362,
				"element": "C" 
			},
			{
				"x": 3.4590456,
				"y": -0.2175403288,
				"z": -0.2907298881,
				"element": "N" 
			},
			{
				"x": 1.3254703874,
				"y": -0.1272513957,
				"z": 0.5737336533,
				"element": "N" 
			},
			{
				"x": 0.1827184638,
				"y": 0.5757479212,
				"z": 0.6538692488,
				"element": "C" 
			},
			{
				"x": -0.0404239603,
				"y": 1.7606814024,
				"z": 0.091719915,
				"element": "N" 
			},
			{
				"x": -0.9233758402,
				"y": -0.0467239342,
				"z": 1.4500020124,
				"element": "C" 
			},
			{
				"x": -2.0695872766,
				"y": 0.6435548855,
				"z": 1.5617379272,
				"element": "N" 
			},
			{
				"x": -3.0589402359,
				"y": 0.0951207125,
				"z": 2.268954458,
				"element": "C" 
			},
			{
				"x": -2.9695984492,
				"y": -1.1507005519,
				"z": 2.8962781321,
				"element": "C" 
			},
			{
				"x": -1.7771936148,
				"y": -1.8621997076,
				"z": 2.7763292463,
				"element": "C" 
			},
			{
				"x": -0.7343140784,
				"y": -1.3039747748,
				"z": 2.0417137585,
				"element": "C" 
			},
			{
				"x": 2.0542364494,
				"y": 3.4557856584,
				"z": -2.7200829693,
				"element": "H" 
			},
			{
				"x": 2.5886889749,
				"y": 4.293161486,
				"z": -1.4347215269,
				"element": "H" 
			},
			{
				"x": -0.0940081658,
				"y": 3.8792260733,
				"z": -1.1025204895,
				"element": "H" 
			},
			{
				"x": 3.6030384814,
				"y": -1.0322206979,
				"z": 0.2825462529,
				"element": "H" 
			},
			{
				"x": 4.2492519184,
				"y": 0.2625717985,
				"z": -0.6883966234,
				"element": "H" 
			},
			{
				"x": -3.975048098,
				"y": 0.6798645888,
				"z": 2.340894695,
				"element": "H" 
			},
			{
				"x": -3.8106691072,
				"y": -1.5445196737,
				"z": 3.4586035734,
				"element": "H" 
			},
			{
				"x": -1.6605054891,
				"y": -2.8348716068,
				"z": 3.2458912658,
				"element": "H" 
			},
			{
				"x": 0.2145370102,
				"y": -1.809660119,
				"z": 1.9136102577,
				"element": "H" 
			}
		],
		 "valence_orbital": [ 
			{
				"type": "occ",
				"energy": -0.25508,
				"method": "rhf"
			},
			{
				"type": "occ",
				"energy": -0.25482,
				"method": "rhf"
			},
			{
				"type": "occ",
				"energy": -0.2472,
				"method": "rhf"
			},
			{
				"type": "occ",
				"energy": -0.2403,
				"method": "rhf"
			},
			{
				"type": "occ",
				"energy": -0.23183,
				"method": "rhf"
			},
			{
				"type": "unocc",
				"energy": -0.05051,
				"method": "rhf"
			},
			{
				"type": "unocc",
				"energy": -0.01511,
				"method": "rhf"
			},
			{
				"type": "unocc",
				"energy": 0.01221,
				"method": "rhf"
			},
			{
				"type": "unocc",
				"energy": 0.03557,
				"method": "rhf"
			},
			{
				"type": "unocc",
				"energy": 0.08675,
				"method": "rhf"
			}
		],
		"cosmo_sigma_profile": { 
			"-0.025": 0.0,
			"-0.024": 0.0,
			"-0.023": 0.0,
			"-0.022": 0.0,
			"-0.021": 0.0,
			"-0.02": 0.0,
			"-0.019": 0.0,
			"-0.018": 0.0,
			"-0.017": 0.0,
			"-0.016": 0.0,
			"-0.015": 0.0797996758045,
			"-0.014": 2.45484137705,
			"-0.013": 2.63683524168,
			"-0.012": 3.06169582704,
			"-0.011": 4.42306354358,
			"-0.01": 5.29953207652,
			"-0.009": 4.3594915111,
			"-0.008": 4.65169643268,
			"-0.007": 8.82542941144,
			"-0.006": 12.1136419421,
			"-0.005": 12.706734732,
			"-0.004": 9.42022843245,
			"-0.003": 9.52618591003,
			"-0.002": 11.0483349571,
			"-0.001": 14.7472158073,
			"0.0": 16.7309762224,
			"0.001": 20.6118681943,
			"0.002": 23.481033717,
			"0.003": 12.4958087392,
			"0.004": 7.20724029025,
			"0.005": 8.45891979837,
			"0.006": 6.34610297284,
			"0.007": 6.18875472438,
			"0.008": 5.25777995052,
			"0.009": 4.02481053146,
			"0.01": 2.98256651205,
			"0.011": 3.31830161714,
			"0.012": 1.66858396681,
			"0.013": 1.59607965034,
			"0.014": 1.6763558901,
			"0.015": 1.7244262034,
			"0.016": 1.1860941241,
			"0.017": 1.08019869622,
			"0.018": 0.750082398819,
			"0.019": 1.00721764474,
			"0.02": 0.792504279264,
			"0.021": 0.389792982039,
			"0.022": 0.0740371364966,
			"0.023": 0.0,
			"0.024": 0.0,
			"0.025": 0.0
		}
	}
}
