{
	 "smiles": "CC(=O)C1=CC=C(OCC(=O)N2CCOCC2)C=C1", 
	 "Tm": 330.15, 
	 "num_atms": 36, 
	 "gaussian": { 
		 "optdone": 1, 
		 "sigma_profile": "yes", 
		 "theory": "DFT", 
		 "functional": "B3LYP", 
		 "basiset": "6-31G**", 
		 "properties": { 
			 "R2extent": 6974.0661, 
			 "electric_dipole_moment_norm": 3.32876077392, 
			 "electric_quadrupole_moment_norm": 15.5549410835, 
			 "total_energy": -899.373095058, 
			 "HOMO_LUMO_gap": 0.18556, 
			 "cosmo_polarized_energy": -16.8, 
			 "cosmo_cavitation_energy": 38.61, 
			 "cosmo_dispersion_energy": -27.01, 
			 "cosmo_repulsion_energy": 2.09, 
			 "cosmo_total_nonelectrostatic_energy": 13.68, 
			 "SMD_solvation_energy": 7.35 
		},
		"coords": [
			{
				"x": 5.7501805286,
				"y": 0.2979538744,
				"z": 0.7225381705,
				"element": "C" 
			},
			{
				"x": 4.5596037949,
				"y": 0.0030690899,
				"z": 1.6217359997,
				"element": "C" 
			},
			{
				"x": 4.7239356609,
				"y": -0.5322852523,
				"z": 2.7094699029,
				"element": "O" 
			},
			{
				"x": 3.1915466008,
				"y": 0.3784973994,
				"z": 1.1542895882,
				"element": "C" 
			},
			{
				"x": 2.0986491743,
				"y": 0.1063622069,
				"z": 1.9984298338,
				"element": "C" 
			},
			{
				"x": 0.8083453117,
				"y": 0.4334082569,
				"z": 1.6194070719,
				"element": "C" 
			},
			{
				"x": 0.578301505,
				"y": 1.0444023181,
				"z": 0.3753103969,
				"element": "C" 
			},
			{
				"x": -0.7322639089,
				"y": 1.3333675294,
				"z": 0.1027321069,
				"element": "O" 
			},
			{
				"x": -1.0503074669,
				"y": 2.0568646167,
				"z": -1.0847653539,
				"element": "C" 
			},
			{
				"x": -0.9147304225,
				"y": 1.265780332,
				"z": -2.3994829532,
				"element": "C" 
			},
			{
				"x": -0.2084155095,
				"y": 1.7212817124,
				"z": -3.2977976112,
				"element": "O" 
			},
			{
				"x": -1.603082438,
				"y": 0.0928406881,
				"z": -2.5190032102,
				"element": "N" 
			},
			{
				"x": -1.4970034418,
				"y": -0.6791630332,
				"z": -3.7602053428,
				"element": "C" 
			},
			{
				"x": -1.2164280029,
				"y": -2.1444554837,
				"z": -3.4287462421,
				"element": "C" 
			},
			{
				"x": -2.1960473876,
				"y": -2.6691158878,
				"z": -2.5400960993,
				"element": "O" 
			},
			{
				"x": -2.2192926085,
				"y": -1.9469632819,
				"z": -1.3183303907,
				"element": "C" 
			},
			{
				"x": -2.5472622444,
				"y": -0.4683145656,
				"z": -1.5497294739,
				"element": "C" 
			},
			{
				"x": 1.6483511365,
				"y": 1.3202494194,
				"z": -0.4849394936,
				"element": "C" 
			},
			{
				"x": 2.9424495252,
				"y": 0.9854606468,
				"z": -0.0831518874,
				"element": "C" 
			},
			{
				"x": 5.654972273,
				"y": -0.2169779353,
				"z": -0.2398620728,
				"element": "H" 
			},
			{
				"x": 6.6570084952,
				"y": -0.040146253,
				"z": 1.2246528445,
				"element": "H" 
			},
			{
				"x": 5.8297652746,
				"y": 1.3702767119,
				"z": 0.5124178233,
				"element": "H" 
			},
			{
				"x": 2.2973547,
				"y": -0.3634624443,
				"z": 2.9558596445,
				"element": "H" 
			},
			{
				"x": -0.0401941978,
				"y": 0.236069471,
				"z": 2.2665618783,
				"element": "H" 
			},
			{
				"x": -0.4157582219,
				"y": 2.9403980645,
				"z": -1.1922713459,
				"element": "H" 
			},
			{
				"x": -2.085018182,
				"y": 2.3856232403,
				"z": -0.9468424902,
				"element": "H" 
			},
			{
				"x": -0.7015468969,
				"y": -0.2394179262,
				"z": -4.3628903463,
				"element": "H" 
			},
			{
				"x": -2.4423888081,
				"y": -0.6032045189,
				"z": -4.3152569131,
				"element": "H" 
			},
			{
				"x": -0.2118134304,
				"y": -2.2379704426,
				"z": -2.9854628172,
				"element": "H" 
			},
			{
				"x": -1.2567945547,
				"y": -2.7559338535,
				"z": -4.3345769991,
				"element": "H" 
			},
			{
				"x": -2.9868019106,
				"y": -2.4115027588,
				"z": -0.6925793456,
				"element": "H" 
			},
			{
				"x": -1.2478107264,
				"y": -2.0272805616,
				"z": -0.8042280034,
				"element": "H" 
			},
			{
				"x": -2.4908404499,
				"y": 0.0708069799,
				"z": -0.6053941446,
				"element": "H" 
			},
			{
				"x": -3.5673530487,
				"y": -0.3849527605,
				"z": -1.9513871506,
				"element": "H" 
			},
			{
				"x": 1.4866002496,
				"y": 1.7662291909,
				"z": -1.4592313379,
				"element": "H" 
			},
			{
				"x": 3.7618896284,
				"y": 1.2036052099,
				"z": -0.7604742364,
				"element": "H" 
			}
		],
		 "valence_orbital": [ 
			{
				"type": "occ",
				"energy": -0.26458,
				"method": "rhf"
			},
			{
				"type": "occ",
				"energy": -0.26204,
				"method": "rhf"
			},
			{
				"type": "occ",
				"energy": -0.24469,
				"method": "rhf"
			},
			{
				"type": "occ",
				"energy": -0.24267,
				"method": "rhf"
			},
			{
				"type": "occ",
				"energy": -0.23271,
				"method": "rhf"
			},
			{
				"type": "unocc",
				"energy": -0.04715,
				"method": "rhf"
			},
			{
				"type": "unocc",
				"energy": -0.0128,
				"method": "rhf"
			},
			{
				"type": "unocc",
				"energy": -0.00075,
				"method": "rhf"
			},
			{
				"type": "unocc",
				"energy": 0.04772,
				"method": "rhf"
			},
			{
				"type": "unocc",
				"energy": 0.08721,
				"method": "rhf"
			}
		],
		"cosmo_sigma_profile": { 
			"-0.025": 0.0,
			"-0.024": 0.0,
			"-0.023": 0.0,
			"-0.022": 0.0,
			"-0.021": 0.0,
			"-0.02": 0.0,
			"-0.019": 0.0,
			"-0.018": 0.0,
			"-0.017": 0.0,
			"-0.016": 0.0,
			"-0.015": 0.0,
			"-0.014": 0.0,
			"-0.013": 0.0,
			"-0.012": 0.0,
			"-0.011": 0.0,
			"-0.01": 0.0,
			"-0.009": 0.221797725379,
			"-0.008": 3.28134297302,
			"-0.007": 5.40517119619,
			"-0.006": 18.7505817472,
			"-0.005": 32.5273134545,
			"-0.004": 37.7398178716,
			"-0.003": 30.8850372482,
			"-0.002": 23.3999461404,
			"-0.001": 20.4885088641,
			"0.0": 17.8904772537,
			"0.001": 14.7431586412,
			"0.002": 17.0179110567,
			"0.003": 16.7598382369,
			"0.004": 14.7792744077,
			"0.005": 4.44619457841,
			"0.006": 5.64001589545,
			"0.007": 5.17168823054,
			"0.008": 4.54714191925,
			"0.009": 3.64879266725,
			"0.01": 4.26937412417,
			"0.011": 4.86464341544,
			"0.012": 8.24577155148,
			"0.013": 7.92205497711,
			"0.014": 2.3375686696,
			"0.015": 0.0114916555215,
			"0.016": 0.0,
			"0.017": 0.0,
			"0.018": 0.0,
			"0.019": 0.0,
			"0.02": 0.0,
			"0.021": 0.0,
			"0.022": 0.0,
			"0.023": 0.0,
			"0.024": 0.0,
			"0.025": 0.0
		}
	}
}
