{
	 "smiles": "IC1=CC2=C(C=C1)C(=O)C(=O)N2", 
	 "Tm": 538.15, 
	 "num_atms": 16, 
	 "gaussian": { 
		 "optdone": 1, 
		 "sigma_profile": "yes", 
		 "theory": "DFT", 
		 "functional": "B3LYP", 
		 "basiset": "6-31G**", 
		 "properties": { 
			 "R2extent": 2379.7607, 
			 "electric_dipole_moment_norm": 4.42648531004, 
			 "electric_quadrupole_moment_norm": 13.2252557631, 
			 "total_energy": -523.844027039, 
			 "HOMO_LUMO_gap": 0.14204, 
			 "cosmo_polarized_energy": -15.11, 
			 "cosmo_cavitation_energy": 24.89, 
			 "cosmo_dispersion_energy": -19.79, 
			 "cosmo_repulsion_energy": 1.54, 
			 "cosmo_total_nonelectrostatic_energy": 6.64, 
			 "SMD_solvation_energy": 4.71 
		},
		"coords": [
			{
				"x": 3.0420258858,
				"y": 3.0455904742,
				"z": 2.1494030091,
				"element": "I" 
			},
			{
				"x": 2.0558094884,
				"y": 1.7263087255,
				"z": 0.821383446,
				"element": "C" 
			},
			{
				"x": 0.7076601433,
				"y": 1.9697926659,
				"z": 0.5205365939,
				"element": "C" 
			},
			{
				"x": 0.0896686529,
				"y": 1.0848604463,
				"z": -0.3546313607,
				"element": "C" 
			},
			{
				"x": 0.7885912704,
				"y": -0.0052401552,
				"z": -0.9117396218,
				"element": "C" 
			},
			{
				"x": 2.125331879,
				"y": -0.2245012389,
				"z": -0.5970383663,
				"element": "C" 
			},
			{
				"x": 2.7713313773,
				"y": 0.6498573211,
				"z": 0.2802758663,
				"element": "C" 
			},
			{
				"x": -0.1417353086,
				"y": -0.7382246127,
				"z": -1.7859805958,
				"element": "C" 
			},
			{
				"x": 0.0271790763,
				"y": -1.7303871199,
				"z": -2.4594163165,
				"element": "O" 
			},
			{
				"x": -1.4955480942,
				"y": 0.0502749267,
				"z": -1.6852627528,
				"element": "C" 
			},
			{
				"x": -2.5425466145,
				"y": -0.1923719467,
				"z": -2.2383296023,
				"element": "O" 
			},
			{
				"x": -1.2326213983,
				"y": 1.1008125059,
				"z": -0.8145317941,
				"element": "N" 
			},
			{
				"x": 0.1763144272,
				"y": 2.809748513,
				"z": 0.9524346346,
				"element": "H" 
			},
			{
				"x": 2.6529167068,
				"y": -1.0676864574,
				"z": -1.0326186064,
				"element": "H" 
			},
			{
				"x": 3.8119999277,
				"y": 0.4990790319,
				"z": 0.539958321,
				"element": "H" 
			},
			{
				"x": -1.9297774194,
				"y": 1.7844869203,
				"z": -0.5574428541,
				"element": "H" 
			}
		],
		 "valence_orbital": [ 
			{
				"type": "occ",
				"energy": -0.31034,
				"method": "rhf"
			},
			{
				"type": "occ",
				"energy": -0.28666,
				"method": "rhf"
			},
			{
				"type": "occ",
				"energy": -0.26902,
				"method": "rhf"
			},
			{
				"type": "occ",
				"energy": -0.25449,
				"method": "rhf"
			},
			{
				"type": "occ",
				"energy": -0.24883,
				"method": "rhf"
			},
			{
				"type": "unocc",
				"energy": -0.10679,
				"method": "rhf"
			},
			{
				"type": "unocc",
				"energy": -0.05737,
				"method": "rhf"
			},
			{
				"type": "unocc",
				"energy": -0.03568,
				"method": "rhf"
			},
			{
				"type": "unocc",
				"energy": -0.00888,
				"method": "rhf"
			},
			{
				"type": "unocc",
				"energy": 0.03032,
				"method": "rhf"
			}
		],
		"cosmo_sigma_profile": { 
			"-0.025": 0.0,
			"-0.024": 0.0,
			"-0.023": 0.0,
			"-0.022": 0.0,
			"-0.021": 0.0,
			"-0.02": 0.0,
			"-0.019": 0.0,
			"-0.018": 0.0,
			"-0.017": 0.66880639907,
			"-0.016": 1.90648773886,
			"-0.015": 1.24496083907,
			"-0.014": 1.38781230667,
			"-0.013": 0.808034187636,
			"-0.012": 1.337676046,
			"-0.011": 1.51746321489,
			"-0.01": 1.06971496897,
			"-0.009": 1.54567372194,
			"-0.008": 6.1868297175,
			"-0.007": 8.8762819831,
			"-0.006": 10.0546837182,
			"-0.005": 8.73208307637,
			"-0.004": 8.94426371583,
			"-0.003": 11.1221439296,
			"-0.002": 11.8826835852,
			"-0.001": 16.3820306338,
			"0.0": 16.1798175761,
			"0.001": 20.5799535993,
			"0.002": 15.6348870634,
			"0.003": 13.2404317447,
			"0.004": 10.7950539124,
			"0.005": 2.67693197375,
			"0.006": 2.17455345769,
			"0.007": 2.11018853223,
			"0.008": 3.83138454169,
			"0.009": 5.64678753349,
			"0.01": 8.26110438249,
			"0.011": 8.47166672592,
			"0.012": 2.88566040931,
			"0.013": 0.113760318725,
			"0.014": 0.0,
			"0.015": 0.0,
			"0.016": 0.0,
			"0.017": 0.0,
			"0.018": 0.0,
			"0.019": 0.0,
			"0.02": 0.0,
			"0.021": 0.0,
			"0.022": 0.0,
			"0.023": 0.0,
			"0.024": 0.0,
			"0.025": 0.0
		}
	}
}
