{
	 "smiles": "CCC(=O)C1=CC=C(O)C(C)=C1O", 
	 "Tm": 402.15, 
	 "num_atms": 25, 
	 "gaussian": { 
		 "optdone": 1, 
		 "sigma_profile": "yes", 
		 "theory": "DFT", 
		 "functional": "B3LYP", 
		 "basiset": "6-31G**", 
		 "properties": { 
			 "R2extent": 2909.2838, 
			 "electric_dipole_moment_norm": 4.33969141991, 
			 "electric_quadrupole_moment_norm": 11.5727761419, 
			 "total_energy": -613.975317923, 
			 "HOMO_LUMO_gap": 0.19012, 
			 "cosmo_polarized_energy": -15.15, 
			 "cosmo_cavitation_energy": 27.92, 
			 "cosmo_dispersion_energy": -20.84, 
			 "cosmo_repulsion_energy": 1.65, 
			 "cosmo_total_nonelectrostatic_energy": 8.73, 
			 "SMD_solvation_energy": 5.87 
		},
		"coords": [
			{
				"x": -3.0853450272,
				"y": -2.3009714193,
				"z": 0.9752678828,
				"element": "C" 
			},
			{
				"x": -1.8969158163,
				"y": -1.7244048383,
				"z": 0.2086032427,
				"element": "C" 
			},
			{
				"x": -1.4084636432,
				"y": -0.4028126008,
				"z": 0.7861427829,
				"element": "C" 
			},
			{
				"x": -1.968780913,
				"y": 0.0767684124,
				"z": 1.765661056,
				"element": "O" 
			},
			{
				"x": -0.2477215877,
				"y": 0.3292655101,
				"z": 0.1770363127,
				"element": "C" 
			},
			{
				"x": 0.1147212179,
				"y": 1.5384634395,
				"z": 0.7946788455,
				"element": "C" 
			},
			{
				"x": 1.16431823,
				"y": 2.3156501456,
				"z": 0.3389685515,
				"element": "C" 
			},
			{
				"x": 1.8980469588,
				"y": 1.8906952877,
				"z": -0.7772834428,
				"element": "C" 
			},
			{
				"x": 2.9427552487,
				"y": 2.6207482542,
				"z": -1.2666070599,
				"element": "O" 
			},
			{
				"x": 1.584364031,
				"y": 0.6942224931,
				"z": -1.4355331683,
				"element": "C" 
			},
			{
				"x": 2.3735344872,
				"y": 0.233736627,
				"z": -2.6390253347,
				"element": "C" 
			},
			{
				"x": 0.5103828935,
				"y": -0.0724613756,
				"z": -0.9455860077,
				"element": "C" 
			},
			{
				"x": 0.1874650498,
				"y": -1.2417857689,
				"z": -1.5717780655,
				"element": "O" 
			},
			{
				"x": -3.9332053192,
				"y": -1.6109931169,
				"z": 0.9654533606,
				"element": "H" 
			},
			{
				"x": -2.8293931495,
				"y": -2.4800992185,
				"z": 2.0228488225,
				"element": "H" 
			},
			{
				"x": -3.4033257556,
				"y": -3.2482325325,
				"z": 0.5285832218,
				"element": "H" 
			},
			{
				"x": -2.1408823151,
				"y": -1.5699255125,
				"z": -0.8494596576,
				"element": "H" 
			},
			{
				"x": -1.0542824266,
				"y": -2.4262105747,
				"z": 0.1909514796,
				"element": "H" 
			},
			{
				"x": -0.4707275244,
				"y": 1.8415486398,
				"z": 1.6556624306,
				"element": "H" 
			},
			{
				"x": 1.4220578752,
				"y": 3.2472884635,
				"z": 0.8373937579,
				"element": "H" 
			},
			{
				"x": 3.0505994072,
				"y": 3.4139503547,
				"z": -0.726127917,
				"element": "H" 
			},
			{
				"x": 3.1613508984,
				"y": 0.9484615191,
				"z": -2.8756582788,
				"element": "H" 
			},
			{
				"x": 1.7423966998,
				"y": 0.1401618868,
				"z": -3.5337926393,
				"element": "H" 
			},
			{
				"x": 2.8588287573,
				"y": -0.7369716404,
				"z": -2.4661100581,
				"element": "H" 
			},
			{
				"x": 0.788921723,
				"y": -1.381192435,
				"z": -2.3143901175,
				"element": "H" 
			}
		],
		 "valence_orbital": [ 
			{
				"type": "occ",
				"energy": -0.33094,
				"method": "rhf"
			},
			{
				"type": "occ",
				"energy": -0.31073,
				"method": "rhf"
			},
			{
				"type": "occ",
				"energy": -0.23483,
				"method": "rhf"
			},
			{
				"type": "occ",
				"energy": -0.23436,
				"method": "rhf"
			},
			{
				"type": "occ",
				"energy": -0.22447,
				"method": "rhf"
			},
			{
				"type": "unocc",
				"energy": -0.03435,
				"method": "rhf"
			},
			{
				"type": "unocc",
				"energy": 0.00239,
				"method": "rhf"
			},
			{
				"type": "unocc",
				"energy": 0.05392,
				"method": "rhf"
			},
			{
				"type": "unocc",
				"energy": 0.05506,
				"method": "rhf"
			},
			{
				"type": "unocc",
				"energy": 0.06889,
				"method": "rhf"
			}
		],
		"cosmo_sigma_profile": { 
			"-0.025": 0.0,
			"-0.024": 0.0,
			"-0.023": 0.0,
			"-0.022": 0.0,
			"-0.021": 0.0,
			"-0.02": 0.0,
			"-0.019": 0.0248480279002,
			"-0.018": 0.765503639933,
			"-0.017": 1.22389098887,
			"-0.016": 1.69562000777,
			"-0.015": 1.71862976943,
			"-0.014": 1.91742530416,
			"-0.013": 1.85631355759,
			"-0.012": 1.30267129451,
			"-0.011": 2.69042682394,
			"-0.01": 2.55854524892,
			"-0.009": 2.53252584232,
			"-0.008": 1.59649787534,
			"-0.007": 3.65253545356,
			"-0.006": 4.48885998778,
			"-0.005": 5.54565733313,
			"-0.004": 9.84647002907,
			"-0.003": 15.1264604261,
			"-0.002": 17.0868746324,
			"-0.001": 22.294246338,
			"0.0": 18.2121458088,
			"0.001": 17.9500405813,
			"0.002": 16.6106565036,
			"0.003": 16.9428867092,
			"0.004": 14.1472559634,
			"0.005": 9.41655192868,
			"0.006": 6.66550294216,
			"0.007": 3.83196167941,
			"0.008": 3.83229039248,
			"0.009": 3.44214470427,
			"0.01": 1.97458777096,
			"0.011": 2.04067467287,
			"0.012": 3.01321359763,
			"0.013": 3.53600916717,
			"0.014": 0.623534358433,
			"0.015": 0.0,
			"0.016": 0.0,
			"0.017": 0.0,
			"0.018": 0.0,
			"0.019": 0.0,
			"0.02": 0.0,
			"0.021": 0.0,
			"0.022": 0.0,
			"0.023": 0.0,
			"0.024": 0.0,
			"0.025": 0.0
		}
	}
}
