{
	 "smiles": "NC1=CC(OCCC2=CC=CC=C2)=CC=C1", 
	 "Tm": 413.15, 
	 "num_atms": 31, 
	 "gaussian": { 
		 "optdone": 1, 
		 "sigma_profile": "yes", 
		 "theory": "DFT", 
		 "functional": "B3LYP", 
		 "basiset": "6-31G**", 
		 "properties": { 
			 "R2extent": 4852.1705, 
			 "electric_dipole_moment_norm": 2.49302169666, 
			 "electric_quadrupole_moment_norm": 11.6254508506, 
			 "total_energy": -672.503461772, 
			 "HOMO_LUMO_gap": 0.19701, 
			 "cosmo_polarized_energy": -12.76, 
			 "cosmo_cavitation_energy": 34.3, 
			 "cosmo_dispersion_energy": -24.3, 
			 "cosmo_repulsion_energy": 1.91, 
			 "cosmo_total_nonelectrostatic_energy": 11.91, 
			 "SMD_solvation_energy": 5.65 
		},
		"coords": [
			{
				"x": -1.376672494,
				"y": -2.1404752743,
				"z": 3.9146236152,
				"element": "N" 
			},
			{
				"x": -1.3437554491,
				"y": -1.0147874803,
				"z": 3.0861620756,
				"element": "C" 
			},
			{
				"x": -0.3283866575,
				"y": -0.8875639266,
				"z": 2.1195425942,
				"element": "C" 
			},
			{
				"x": -0.2533951658,
				"y": 0.2632266696,
				"z": 1.3289873569,
				"element": "C" 
			},
			{
				"x": 0.7046291143,
				"y": 0.4944469736,
				"z": 0.378544745,
				"element": "O" 
			},
			{
				"x": 1.66820292,
				"y": -0.5075450342,
				"z": 0.0695410532,
				"element": "C" 
			},
			{
				"x": 1.1269436301,
				"y": -1.600531849,
				"z": -0.8703165726,
				"element": "C" 
			},
			{
				"x": 0.7521233666,
				"y": -1.087005914,
				"z": -2.2437890172,
				"element": "C" 
			},
			{
				"x": 1.6489214557,
				"y": -1.1924651604,
				"z": -3.3152645436,
				"element": "C" 
			},
			{
				"x": 1.3212809066,
				"y": -0.69581248,
				"z": -4.5780294808,
				"element": "C" 
			},
			{
				"x": 0.0852007835,
				"y": -0.083087952,
				"z": -4.7883847903,
				"element": "C" 
			},
			{
				"x": -0.8176687336,
				"y": 0.0276769517,
				"z": -3.7287814475,
				"element": "C" 
			},
			{
				"x": -0.4868366456,
				"y": -0.4700768724,
				"z": -2.4681844157,
				"element": "C" 
			},
			{
				"x": -1.1936044154,
				"y": 1.2930720111,
				"z": 1.486118975,
				"element": "C" 
			},
			{
				"x": -2.19284434,
				"y": 1.1555958595,
				"z": 2.4433972017,
				"element": "C" 
			},
			{
				"x": -2.2811866572,
				"y": 0.0165200854,
				"z": 3.2438336913,
				"element": "C" 
			},
			{
				"x": -0.9540273863,
				"y": -2.9722779677,
				"z": 3.5257485474,
				"element": "H" 
			},
			{
				"x": -2.2792291328,
				"y": -2.3379982678,
				"z": 4.3245471569,
				"element": "H" 
			},
			{
				"x": 0.391977119,
				"y": -1.6908886101,
				"z": 2.0125381675,
				"element": "H" 
			},
			{
				"x": 2.4819612975,
				"y": 0.0329120619,
				"z": -0.4223980896,
				"element": "H" 
			},
			{
				"x": 2.0708576588,
				"y": -0.9528451765,
				"z": 0.9884193887,
				"element": "H" 
			},
			{
				"x": 1.9051756163,
				"y": -2.3687273186,
				"z": -0.9601034367,
				"element": "H" 
			},
			{
				"x": 0.2624531522,
				"y": -2.078716294,
				"z": -0.3969731063,
				"element": "H" 
			},
			{
				"x": 2.6122825648,
				"y": -1.673683699,
				"z": -3.1604427577,
				"element": "H" 
			},
			{
				"x": 2.0292742364,
				"y": -0.7917063209,
				"z": -5.3966723857,
				"element": "H" 
			},
			{
				"x": -0.174224741,
				"y": 0.3018400048,
				"z": -5.770535002,
				"element": "H" 
			},
			{
				"x": -1.7830911666,
				"y": 0.5014097364,
				"z": -3.8840604035,
				"element": "H" 
			},
			{
				"x": -1.1941989352,
				"y": -0.3786229793,
				"z": -1.6489752012,
				"element": "H" 
			},
			{
				"x": -1.1133227972,
				"y": 2.1747716237,
				"z": 0.8605024494,
				"element": "H" 
			},
			{
				"x": -2.9223243574,
				"y": 1.9510726099,
				"z": 2.569251725,
				"element": "H" 
			},
			{
				"x": -3.0667147472,
				"y": -0.0756260104,
				"z": 3.9888519073,
				"element": "H" 
			}
		],
		 "valence_orbital": [ 
			{
				"type": "occ",
				"energy": -0.28379,
				"method": "rhf"
			},
			{
				"type": "occ",
				"energy": -0.2436,
				"method": "rhf"
			},
			{
				"type": "occ",
				"energy": -0.23773,
				"method": "rhf"
			},
			{
				"type": "occ",
				"energy": -0.22097,
				"method": "rhf"
			},
			{
				"type": "occ",
				"energy": -0.19339,
				"method": "rhf"
			},
			{
				"type": "unocc",
				"energy": 0.00362,
				"method": "rhf"
			},
			{
				"type": "unocc",
				"energy": 0.00466,
				"method": "rhf"
			},
			{
				"type": "unocc",
				"energy": 0.01357,
				"method": "rhf"
			},
			{
				"type": "unocc",
				"energy": 0.02762,
				"method": "rhf"
			},
			{
				"type": "unocc",
				"energy": 0.08048,
				"method": "rhf"
			}
		],
		"cosmo_sigma_profile": { 
			"-0.025": 0.0,
			"-0.024": 0.0,
			"-0.023": 0.0,
			"-0.022": 0.0,
			"-0.021": 0.0,
			"-0.02": 0.0,
			"-0.019": 0.0,
			"-0.018": 0.0,
			"-0.017": 0.0,
			"-0.016": 0.0,
			"-0.015": 0.0,
			"-0.014": 0.0,
			"-0.013": 0.0190179013012,
			"-0.012": 2.44213993888,
			"-0.011": 2.07544597916,
			"-0.01": 3.34512976187,
			"-0.009": 3.69870225024,
			"-0.008": 2.66921288346,
			"-0.007": 3.32003715838,
			"-0.006": 7.74691678351,
			"-0.005": 20.9680742563,
			"-0.004": 27.4094431759,
			"-0.003": 27.1266669325,
			"-0.002": 21.4136517169,
			"-0.001": 17.576257991,
			"0.0": 14.6361468445,
			"0.001": 11.8815517377,
			"0.002": 14.3280611116,
			"0.003": 13.3713222793,
			"0.004": 15.2120199468,
			"0.005": 17.0393126229,
			"0.006": 19.9168923411,
			"0.007": 13.6129951762,
			"0.008": 3.40184692796,
			"0.009": 2.27746671555,
			"0.01": 2.27236250698,
			"0.011": 1.56118614054,
			"0.012": 0.949824552529,
			"0.013": 0.746735532498,
			"0.014": 0.421125310156,
			"0.015": 0.441656080507,
			"0.016": 0.0104646746944,
			"0.017": 0.0,
			"0.018": 0.0,
			"0.019": 0.0,
			"0.02": 0.0,
			"0.021": 0.0,
			"0.022": 0.0,
			"0.023": 0.0,
			"0.024": 0.0,
			"0.025": 0.0
		}
	}
}
