{
	 "smiles": "COC1=NC(OC)=NC(NS(=O)(=O)C2=CC=C(N)C=C2)=C1", 
	 "Tm": 477.15, 
	 "num_atms": 35, 
	 "gaussian": { 
		 "optdone": 1, 
		 "sigma_profile": "yes", 
		 "theory": "DFT", 
		 "functional": "B3LYP", 
		 "basiset": "6-31G**", 
		 "properties": { 
			 "R2extent": 7758.9574, 
			 "electric_dipole_moment_norm": 8.26705320534, 
			 "electric_quadrupole_moment_norm": 25.4400142315, 
			 "total_energy": -1383.74295022, 
			 "HOMO_LUMO_gap": 0.19412, 
			 "cosmo_polarized_energy": -23.49, 
			 "cosmo_cavitation_energy": 41.42, 
			 "cosmo_dispersion_energy": -29.55, 
			 "cosmo_repulsion_energy": 2.25, 
			 "cosmo_total_nonelectrostatic_energy": 14.13, 
			 "SMD_solvation_energy": 6.18 
		},
		"coords": [
			{
				"x": 0.7540431792,
				"y": 2.8399963487,
				"z": -3.2259727812,
				"element": "C" 
			},
			{
				"x": 0.654964741,
				"y": 2.4720824829,
				"z": -1.8459191107,
				"element": "O" 
			},
			{
				"x": 0.9961213572,
				"y": 1.2169453224,
				"z": -1.50886918,
				"element": "C" 
			},
			{
				"x": 1.3831369706,
				"y": 0.3689233213,
				"z": -2.4657418699,
				"element": "N" 
			},
			{
				"x": 1.7134624584,
				"y": -0.856417076,
				"z": -2.0428169452,
				"element": "C" 
			},
			{
				"x": 2.1270455179,
				"y": -1.7587772844,
				"z": -2.9479309511,
				"element": "O" 
			},
			{
				"x": 2.1988687878,
				"y": -1.3422044579,
				"z": -4.3130011636,
				"element": "C" 
			},
			{
				"x": 1.6742064314,
				"y": -1.3213196815,
				"z": -0.7969143676,
				"element": "N" 
			},
			{
				"x": 1.2830902462,
				"y": -0.4388933167,
				"z": 0.1376364864,
				"element": "C" 
			},
			{
				"x": 1.3025374724,
				"y": -0.9624077619,
				"z": 1.4324761879,
				"element": "N" 
			},
			{
				"x": 0.3068880106,
				"y": -0.5170596998,
				"z": 2.7407372627,
				"element": "S" 
			},
			{
				"x": 0.7464605413,
				"y": -1.4173040571,
				"z": 3.805525224,
				"element": "O" 
			},
			{
				"x": 0.3766829128,
				"y": 0.9388175229,
				"z": 2.8599775362,
				"element": "O" 
			},
			{
				"x": -1.3540034982,
				"y": -0.955414019,
				"z": 2.2788376669,
				"element": "C" 
			},
			{
				"x": -1.8011577741,
				"y": -2.2666823953,
				"z": 2.4805982108,
				"element": "C" 
			},
			{
				"x": -3.0869385257,
				"y": -2.6228386362,
				"z": 2.1027047972,
				"element": "C" 
			},
			{
				"x": -3.9517635483,
				"y": -1.6755710507,
				"z": 1.5155893846,
				"element": "C" 
			},
			{
				"x": -5.2480741548,
				"y": -2.0195739728,
				"z": 1.1828878313,
				"element": "N" 
			},
			{
				"x": -3.4877697418,
				"y": -0.357878084,
				"z": 1.3292263151,
				"element": "C" 
			},
			{
				"x": -2.2011748245,
				"y": 0.00030845,
				"z": 1.7078326529,
				"element": "C" 
			},
			{
				"x": 0.9298771953,
				"y": 0.8787703977,
				"z": -0.1541980134,
				"element": "C" 
			},
			{
				"x": 0.4462444464,
				"y": 3.8854177287,
				"z": -3.2665478229,
				"element": "H" 
			},
			{
				"x": 0.095214254,
				"y": 2.2259130297,
				"z": -3.8460756862,
				"element": "H" 
			},
			{
				"x": 1.7796158797,
				"y": 2.7322432267,
				"z": -3.5893437027,
				"element": "H" 
			},
			{
				"x": 2.5534663269,
				"y": -2.2159777128,
				"z": -4.8612068449,
				"element": "H" 
			},
			{
				"x": 1.2176444274,
				"y": -1.0344524847,
				"z": -4.6857556946,
				"element": "H" 
			},
			{
				"x": 2.8972552513,
				"y": -0.5096362785,
				"z": -4.4368186798,
				"element": "H" 
			},
			{
				"x": 1.5707011919,
				"y": -1.9414551072,
				"z": 1.4622386185,
				"element": "H" 
			},
			{
				"x": -1.146826176,
				"y": -2.994242032,
				"z": 2.9489727964,
				"element": "H" 
			},
			{
				"x": -3.4382511093,
				"y": -3.6374418726,
				"z": 2.2699095477,
				"element": "H" 
			},
			{
				"x": -5.4489689484,
				"y": -3.0013327368,
				"z": 1.065201746,
				"element": "H" 
			},
			{
				"x": -5.7297838586,
				"y": -1.4226419757,
				"z": 0.5273968238,
				"element": "H" 
			},
			{
				"x": -4.1497182429,
				"y": 0.3866726731,
				"z": 0.8953069913,
				"element": "H" 
			},
			{
				"x": -1.8552889168,
				"y": 1.0194402899,
				"z": 1.5800200119,
				"element": "H" 
			},
			{
				"x": 0.6648917196,
				"y": 1.6009908998,
				"z": 0.603236722,
				"element": "H" 
			}
		],
		 "valence_orbital": [ 
			{
				"type": "occ",
				"energy": -0.27062,
				"method": "rhf"
			},
			{
				"type": "occ",
				"energy": -0.26552,
				"method": "rhf"
			},
			{
				"type": "occ",
				"energy": -0.26361,
				"method": "rhf"
			},
			{
				"type": "occ",
				"energy": -0.2336,
				"method": "rhf"
			},
			{
				"type": "occ",
				"energy": -0.22388,
				"method": "rhf"
			},
			{
				"type": "unocc",
				"energy": -0.02976,
				"method": "rhf"
			},
			{
				"type": "unocc",
				"energy": -0.01986,
				"method": "rhf"
			},
			{
				"type": "unocc",
				"energy": -0.00687,
				"method": "rhf"
			},
			{
				"type": "unocc",
				"energy": 0.00104,
				"method": "rhf"
			},
			{
				"type": "unocc",
				"energy": 0.05772,
				"method": "rhf"
			}
		],
		"cosmo_sigma_profile": { 
			"-0.025": 0.0,
			"-0.024": 0.0,
			"-0.023": 0.0,
			"-0.022": 0.0,
			"-0.021": 0.0,
			"-0.02": 0.0,
			"-0.019": 0.0,
			"-0.018": 0.0,
			"-0.017": 0.0,
			"-0.016": 0.0489110240491,
			"-0.015": 0.532347119292,
			"-0.014": 1.52960850563,
			"-0.013": 3.2047711639,
			"-0.012": 3.81815567952,
			"-0.011": 4.14941260308,
			"-0.01": 4.32733758437,
			"-0.009": 4.11258927722,
			"-0.008": 4.13550554533,
			"-0.007": 6.94286703893,
			"-0.006": 15.4214041193,
			"-0.005": 22.2500376753,
			"-0.004": 24.6853165299,
			"-0.003": 26.0044677352,
			"-0.002": 17.8918465479,
			"-0.001": 21.7656652109,
			"0.0": 18.0347470901,
			"0.001": 22.018423622,
			"0.002": 21.7820248534,
			"0.003": 22.1357460644,
			"0.004": 19.5899710642,
			"0.005": 9.66434391254,
			"0.006": 8.88010353608,
			"0.007": 7.32552873864,
			"0.008": 6.98090126431,
			"0.009": 8.09874765457,
			"0.01": 10.2685591802,
			"0.011": 9.38934612715,
			"0.012": 2.6936551571,
			"0.013": 1.54964853508,
			"0.014": 0.872196401125,
			"0.015": 0.037356090351,
			"0.016": 0.0,
			"0.017": 0.0,
			"0.018": 0.0,
			"0.019": 0.0,
			"0.02": 0.0,
			"0.021": 0.0,
			"0.022": 0.0,
			"0.023": 0.0,
			"0.024": 0.0,
			"0.025": 0.0
		}
	}
}
