{
	 "smiles": "COC(CNC(C)C1=CC=C(OC)C(O)=C1)OC", 
	 "Tm": 361.15, 
	 "num_atms": 39, 
	 "gaussian": { 
		 "optdone": 1, 
		 "sigma_profile": "yes", 
		 "theory": "DFT", 
		 "functional": "B3LYP", 
		 "basiset": "6-31G**", 
		 "properties": { 
			 "R2extent": 7315.6236, 
			 "electric_dipole_moment_norm": 2.81622613261, 
			 "electric_quadrupole_moment_norm": 19.9829806238, 
			 "total_energy": -863.644048348, 
			 "HOMO_LUMO_gap": 0.21218, 
			 "cosmo_polarized_energy": -13.72, 
			 "cosmo_cavitation_energy": 41.08, 
			 "cosmo_dispersion_energy": -28.26, 
			 "cosmo_repulsion_energy": 2.24, 
			 "cosmo_total_nonelectrostatic_energy": 15.06, 
			 "SMD_solvation_energy": 7.92 
		},
		"coords": [
			{
				"x": 0.5245146104,
				"y": 0.7837062768,
				"z": -4.5472800826,
				"element": "C" 
			},
			{
				"x": 0.3201075202,
				"y": -0.0620791789,
				"z": -3.4234846924,
				"element": "O" 
			},
			{
				"x": 1.4847687801,
				"y": -0.3700699188,
				"z": -2.7194116811,
				"element": "C" 
			},
			{
				"x": 1.1421956855,
				"y": -1.3789550123,
				"z": -1.609959939,
				"element": "C" 
			},
			{
				"x": 0.3731205748,
				"y": -0.8765204382,
				"z": -0.4805955743,
				"element": "N" 
			},
			{
				"x": -1.0413984829,
				"y": -0.511139592,
				"z": -0.695239315,
				"element": "C" 
			},
			{
				"x": -1.8574128893,
				"y": -1.7341448984,
				"z": -1.1470678186,
				"element": "C" 
			},
			{
				"x": -1.5979273197,
				"y": 0.0582635047,
				"z": 0.6030461237,
				"element": "C" 
			},
			{
				"x": -2.4422774973,
				"y": 1.16961969,
				"z": 0.5812185536,
				"element": "C" 
			},
			{
				"x": -2.9996507293,
				"y": 1.6774815019,
				"z": 1.7622752544,
				"element": "C" 
			},
			{
				"x": -2.7020621066,
				"y": 1.0702375981,
				"z": 2.9775360838,
				"element": "C" 
			},
			{
				"x": -3.1652791015,
				"y": 1.4560652252,
				"z": 4.2167666849,
				"element": "O" 
			},
			{
				"x": -4.0351696548,
				"y": 2.5731225248,
				"z": 4.2838289837,
				"element": "C" 
			},
			{
				"x": -1.8438171472,
				"y": -0.0481405454,
				"z": 3.0145609907,
				"element": "C" 
			},
			{
				"x": -1.5469038411,
				"y": -0.6378822718,
				"z": 4.208326067,
				"element": "O" 
			},
			{
				"x": -1.3015328168,
				"y": -0.5446201769,
				"z": 1.8359332023,
				"element": "C" 
			},
			{
				"x": 2.0185606924,
				"y": 0.8313519798,
				"z": -2.1715327015,
				"element": "O" 
			},
			{
				"x": 3.4240030978,
				"y": 0.8314238526,
				"z": -2.0007706506,
				"element": "C" 
			},
			{
				"x": 1.2324946417,
				"y": 0.331451198,
				"z": -5.2588412765,
				"element": "H" 
			},
			{
				"x": -0.4451783124,
				"y": 0.8981655816,
				"z": -5.0359716715,
				"element": "H" 
			},
			{
				"x": 0.9029181579,
				"y": 1.7659786391,
				"z": -4.2464687721,
				"element": "H" 
			},
			{
				"x": 2.2386866681,
				"y": -0.806814874,
				"z": -3.4073878416,
				"element": "H" 
			},
			{
				"x": 0.6318366824,
				"y": -2.2317019704,
				"z": -2.0665981202,
				"element": "H" 
			},
			{
				"x": 2.0938246567,
				"y": -1.761920229,
				"z": -1.2173696659,
				"element": "H" 
			},
			{
				"x": 0.8542754884,
				"y": -0.0610862533,
				"z": -0.1088880891,
				"element": "H" 
			},
			{
				"x": -1.1504518712,
				"y": 0.2609896071,
				"z": -1.4706102538,
				"element": "H" 
			},
			{
				"x": -2.9191308771,
				"y": -1.4751432463,
				"z": -1.1924001115,
				"element": "H" 
			},
			{
				"x": -1.5560539886,
				"y": -2.0698187807,
				"z": -2.1438714569,
				"element": "H" 
			},
			{
				"x": -1.7329552008,
				"y": -2.5613561388,
				"z": -0.4409008982,
				"element": "H" 
			},
			{
				"x": -2.6724270811,
				"y": 1.652957066,
				"z": -0.3643787797,
				"element": "H" 
			},
			{
				"x": -3.6509555311,
				"y": 2.5434851243,
				"z": 1.7216755759,
				"element": "H" 
			},
			{
				"x": -3.5491308291,
				"y": 3.482883429,
				"z": 3.9086059464,
				"element": "H" 
			},
			{
				"x": -4.9564389018,
				"y": 2.3983649907,
				"z": 3.7134506724,
				"element": "H" 
			},
			{
				"x": -4.2837386911,
				"y": 2.7061000667,
				"z": 5.3380764149,
				"element": "H" 
			},
			{
				"x": -2.0229693221,
				"y": -0.1421433691,
				"z": 4.8918971068,
				"element": "H" 
			},
			{
				"x": -0.6322537571,
				"y": -1.3966550646,
				"z": 1.8805066582,
				"element": "H" 
			},
			{
				"x": 3.7032088973,
				"y": 1.8315482496,
				"z": -1.6609835643,
				"element": "H" 
			},
			{
				"x": 3.7581560887,
				"y": 0.1024852212,
				"z": -1.2482595411,
				"element": "H" 
			},
			{
				"x": 3.9486437075,
				"y": 0.6173106318,
				"z": -2.9444318213,
				"element": "H" 
			}
		],
		 "valence_orbital": [ 
			{
				"type": "occ",
				"energy": -0.27298,
				"method": "rhf"
			},
			{
				"type": "occ",
				"energy": -0.26345,
				"method": "rhf"
			},
			{
				"type": "occ",
				"energy": -0.22455,
				"method": "rhf"
			},
			{
				"type": "occ",
				"energy": -0.20531,
				"method": "rhf"
			},
			{
				"type": "occ",
				"energy": -0.19363,
				"method": "rhf"
			},
			{
				"type": "unocc",
				"energy": 0.01855,
				"method": "rhf"
			},
			{
				"type": "unocc",
				"energy": 0.02732,
				"method": "rhf"
			},
			{
				"type": "unocc",
				"energy": 0.07592,
				"method": "rhf"
			},
			{
				"type": "unocc",
				"energy": 0.08784,
				"method": "rhf"
			},
			{
				"type": "unocc",
				"energy": 0.09979,
				"method": "rhf"
			}
		],
		"cosmo_sigma_profile": { 
			"-0.025": 0.0,
			"-0.024": 0.0,
			"-0.023": 0.0,
			"-0.022": 0.0,
			"-0.021": 0.0,
			"-0.02": 0.0,
			"-0.019": 0.0,
			"-0.018": 0.0,
			"-0.017": 0.0,
			"-0.016": 0.0,
			"-0.015": 0.0,
			"-0.014": 0.385672869569,
			"-0.013": 0.335339577054,
			"-0.012": 0.524618084459,
			"-0.011": 0.65313706688,
			"-0.01": 0.33761920322,
			"-0.009": 0.971273761225,
			"-0.008": 0.575870448792,
			"-0.007": 1.48173225415,
			"-0.006": 6.92368282397,
			"-0.005": 20.8959769815,
			"-0.004": 41.6147752526,
			"-0.003": 39.8615144327,
			"-0.002": 35.8304138197,
			"-0.001": 24.1655160441,
			"0.0": 20.0593667178,
			"0.001": 20.5289723041,
			"0.002": 17.7683706104,
			"0.003": 15.6565021894,
			"0.004": 15.8080890857,
			"0.005": 16.0963843536,
			"0.006": 12.8283058183,
			"0.007": 6.95440917307,
			"0.008": 5.85084741629,
			"0.009": 4.06950576567,
			"0.01": 3.36489933291,
			"0.011": 2.97059528244,
			"0.012": 3.27169677587,
			"0.013": 0.817386694315,
			"0.014": 0.345271806536,
			"0.015": 0.11424227573,
			"0.016": 0.0,
			"0.017": 0.0,
			"0.018": 0.0,
			"0.019": 0.0,
			"0.02": 0.0,
			"0.021": 0.0,
			"0.022": 0.0,
			"0.023": 0.0,
			"0.024": 0.0,
			"0.025": 0.0
		}
	}
}
