{
	 "smiles": "OC1=C(I)C=C(C=O)C=C1I", 
	 "Tm": 474.15, 
	 "num_atms": 15, 
	 "gaussian": { 
		 "optdone": 1, 
		 "sigma_profile": "no", 
		 "theory": "DFT", 
		 "functional": "B3LYP", 
		 "basiset": "6-31G**", 
		 "properties": { 
			 "R2extent": 3562.8615, 
			 "electric_dipole_moment_norm": 1.75530876486, 
			 "electric_quadrupole_moment_norm": 11.9516324826, 
			 "total_energy": -442.359444085, 
			 "HOMO_LUMO_gap": 0.1755, 
			 "cosmo_polarized_energy": -188840.08, 
			 "cosmo_cavitation_energy": 26.27, 
			 "cosmo_dispersion_energy": -22.06, 
			 "cosmo_repulsion_energy": 1.7, 
			 "cosmo_total_nonelectrostatic_energy": 5.91, 
			 "SMD_solvation_energy": 4.22 
		},
		"coords": [
			{
				"x": -1.051682969,
				"y": -3.437563472,
				"z": 1.7839694593,
				"element": "O" 
			},
			{
				"x": -1.0307339437,
				"y": -2.1050547558,
				"z": 1.9409038944,
				"element": "C" 
			},
			{
				"x": -1.7322441459,
				"y": -1.2060810272,
				"z": 1.1043529729,
				"element": "C" 
			},
			{
				"x": -2.8899533407,
				"y": -1.9907055944,
				"z": -0.4959544859,
				"element": "I" 
			},
			{
				"x": -1.6805008573,
				"y": 0.1630302627,
				"z": 1.3051110053,
				"element": "C" 
			},
			{
				"x": -0.9167258473,
				"y": 0.6791568157,
				"z": 2.3608911325,
				"element": "C" 
			},
			{
				"x": -0.8566550704,
				"y": 2.1403876657,
				"z": 2.5814769309,
				"element": "C" 
			},
			{
				"x": -1.4359565247,
				"y": 2.9623074567,
				"z": 1.8978781456,
				"element": "O" 
			},
			{
				"x": -0.2140074038,
				"y": -0.1920093913,
				"z": 3.2019609143,
				"element": "C" 
			},
			{
				"x": -0.2685805547,
				"y": -1.5648343765,
				"z": 2.9970309439,
				"element": "C" 
			},
			{
				"x": 0.7982748844,
				"y": -2.8619311869,
				"z": 4.2763167993,
				"element": "I" 
			},
			{
				"x": -1.6114750787,
				"y": -3.6703872415,
				"z": 1.0237400274,
				"element": "H" 
			},
			{
				"x": -2.2166322829,
				"y": 0.8556410517,
				"z": 0.6661936122,
				"element": "H" 
			},
			{
				"x": -0.2252629921,
				"y": 2.4514374105,
				"z": 3.4427993693,
				"element": "H" 
			},
			{
				"x": 0.3770361268,
				"y": 0.2097063824,
				"z": 4.0193292786,
				"element": "H" 
			}
		],
		 "valence_orbital": [ 
			{
				"type": "occ",
				"energy": -0.2957,
				"method": "rhf"
			},
			{
				"type": "occ",
				"energy": -0.27607,
				"method": "rhf"
			},
			{
				"type": "occ",
				"energy": -0.26596,
				"method": "rhf"
			},
			{
				"type": "occ",
				"energy": -0.26037,
				"method": "rhf"
			},
			{
				"type": "occ",
				"energy": -0.24848,
				"method": "rhf"
			},
			{
				"type": "unocc",
				"energy": -0.07298,
				"method": "rhf"
			},
			{
				"type": "unocc",
				"energy": -0.07177,
				"method": "rhf"
			},
			{
				"type": "unocc",
				"energy": -0.04386,
				"method": "rhf"
			},
			{
				"type": "unocc",
				"energy": -0.03921,
				"method": "rhf"
			},
			{
				"type": "unocc",
				"energy": 0.02529,
				"method": "rhf"
			}
		],
		"cosmo_sigma_profile": { 
			"0.0": 0.0,
			"0.0": 0.0,
			"0.0": 0.0,
			"0.0": 0.0,
			"0.0": 0.0,
			"0.0": 0.0,
			"0.0": 0.0,
			"0.0": 0.0,
			"0.0": 0.0,
			"0.0": 0.0,
			"0.0": 0.0,
			"0.0": 0.0,
			"0.0": 0.0,
			"0.0": 0.0,
			"0.0": 0.0,
			"0.0": 0.0,
			"0.0": 0.0,
			"0.0": 0.0,
			"0.0": 0.0,
			"0.0": 0.0,
			"0.0": 0.0,
			"0.0": 0.0,
			"0.0": 0.0,
			"0.0": 0.0,
			"0.0": 0.0,
			"0.0": 0.0,
			"0.0": 0.0,
			"0.0": 0.0,
			"0.0": 0.0,
			"0.0": 0.0,
			"0.0": 0.0,
			"0.0": 0.0,
			"0.0": 0.0,
			"0.0": 0.0,
			"0.0": 0.0,
			"0.0": 0.0,
			"0.0": 0.0,
			"0.0": 0.0,
			"0.0": 0.0,
			"0.0": 0.0,
			"0.0": 0.0,
			"0.0": 0.0,
			"0.0": 0.0,
			"0.0": 0.0,
			"0.0": 0.0,
			"0.0": 0.0,
			"0.0": 0.0,
			"0.0": 0.0,
			"0.0": 0.0,
			"0.0": 0.0,
			"0.0": 0.0
		}
	}
}
