{
	 "smiles": "CS(=O)(=O)C1=CC(=CC=C1)C(N)=O", 
	 "Tm": 451.15, 
	 "num_atms": 22, 
	 "gaussian": { 
		 "optdone": 1, 
		 "sigma_profile": "yes", 
		 "theory": "DFT", 
		 "functional": "B3LYP", 
		 "basiset": "6-31G**", 
		 "properties": { 
			 "R2extent": 3488.9157, 
			 "electric_dipole_moment_norm": 7.58258322803, 
			 "electric_quadrupole_moment_norm": 13.6064028501, 
			 "total_energy": -988.838687137, 
			 "HOMO_LUMO_gap": 0.20277, 
			 "cosmo_polarized_energy": -24.41, 
			 "cosmo_cavitation_energy": 27.97, 
			 "cosmo_dispersion_energy": -20.7, 
			 "cosmo_repulsion_energy": 1.6, 
			 "cosmo_total_nonelectrostatic_energy": 8.87, 
			 "SMD_solvation_energy": 5.36 
		},
		"coords": [
			{
				"x": -1.4529293457,
				"y": 1.0950213633,
				"z": 3.2200940108,
				"element": "C" 
			},
			{
				"x": -0.3993493671,
				"y": 1.5250633571,
				"z": 1.8137299904,
				"element": "S" 
			},
			{
				"x": -1.0349079147,
				"y": 2.6506536398,
				"z": 1.1104840597,
				"element": "O" 
			},
			{
				"x": 0.9817842994,
				"y": 1.614360642,
				"z": 2.3073325884,
				"element": "O" 
			},
			{
				"x": -0.521124038,
				"y": 0.0782945296,
				"z": 0.7410780666,
				"element": "C" 
			},
			{
				"x": 0.2759197015,
				"y": -1.0339445133,
				"z": 0.9976753268,
				"element": "C" 
			},
			{
				"x": 0.1691488813,
				"y": -2.1600251798,
				"z": 0.1729090593,
				"element": "C" 
			},
			{
				"x": -0.7080085051,
				"y": -2.1289606742,
				"z": -0.9207302143,
				"element": "C" 
			},
			{
				"x": -1.484880822,
				"y": -0.9986861773,
				"z": -1.1790562212,
				"element": "C" 
			},
			{
				"x": -1.4019111639,
				"y": 0.1142436188,
				"z": -0.3423296814,
				"element": "C" 
			},
			{
				"x": 1.0482234096,
				"y": -3.3365021168,
				"z": 0.5083528993,
				"element": "C" 
			},
			{
				"x": 0.728540296,
				"y": -4.5290230909,
				"z": -0.0924548723,
				"element": "N" 
			},
			{
				"x": 2.0059799683,
				"y": -3.2254949789,
				"z": 1.2615432843,
				"element": "O" 
			},
			{
				"x": -2.4738385272,
				"y": 0.9368007576,
				"z": 2.8697681009,
				"element": "H" 
			},
			{
				"x": -1.0575011931,
				"y": 0.2023299555,
				"z": 3.7064943846,
				"element": "H" 
			},
			{
				"x": -1.4123253063,
				"y": 1.9476150142,
				"z": 3.9012025173,
				"element": "H" 
			},
			{
				"x": 0.994437696,
				"y": -1.0435178162,
				"z": 1.8103843618,
				"element": "H" 
			},
			{
				"x": -0.7627452749,
				"y": -2.9728268618,
				"z": -1.6019782372,
				"element": "H" 
			},
			{
				"x": -2.1460994193,
				"y": -0.9807745888,
				"z": -2.0398723588,
				"element": "H" 
			},
			{
				"x": -1.9843705457,
				"y": 1.0100209148,
				"z": -0.5293679887,
				"element": "H" 
			},
			{
				"x": 1.257848589,
				"y": -5.3284197485,
				"z": 0.2250964048,
				"element": "H" 
			},
			{
				"x": -0.202991418,
				"y": -4.7047280463,
				"z": -0.4341554809,
				"element": "H" 
			}
		],
		 "valence_orbital": [ 
			{
				"type": "occ",
				"energy": -0.29264,
				"method": "rhf"
			},
			{
				"type": "occ",
				"energy": -0.28656,
				"method": "rhf"
			},
			{
				"type": "occ",
				"energy": -0.28212,
				"method": "rhf"
			},
			{
				"type": "occ",
				"energy": -0.27922,
				"method": "rhf"
			},
			{
				"type": "occ",
				"energy": -0.2632,
				"method": "rhf"
			},
			{
				"type": "unocc",
				"energy": -0.06043,
				"method": "rhf"
			},
			{
				"type": "unocc",
				"energy": -0.04316,
				"method": "rhf"
			},
			{
				"type": "unocc",
				"energy": 0.03317,
				"method": "rhf"
			},
			{
				"type": "unocc",
				"energy": 0.05696,
				"method": "rhf"
			},
			{
				"type": "unocc",
				"energy": 0.07287,
				"method": "rhf"
			}
		],
		"cosmo_sigma_profile": { 
			"-0.025": 0.0,
			"-0.024": 0.0,
			"-0.023": 0.0,
			"-0.022": 0.0,
			"-0.021": 0.0,
			"-0.02": 0.0,
			"-0.019": 0.0,
			"-0.018": 0.0,
			"-0.017": 0.0,
			"-0.016": 0.0,
			"-0.015": 0.553323247556,
			"-0.014": 2.36688378331,
			"-0.013": 2.51261026955,
			"-0.012": 2.69232594093,
			"-0.011": 2.24350589458,
			"-0.01": 2.73932798681,
			"-0.009": 5.01582629831,
			"-0.008": 11.3425156725,
			"-0.007": 13.2451119203,
			"-0.006": 12.9874682995,
			"-0.005": 12.4063826323,
			"-0.004": 13.5034625662,
			"-0.003": 11.0785804834,
			"-0.002": 9.47969942113,
			"-0.001": 11.2805307418,
			"0.0": 12.3650313891,
			"0.001": 16.170687627,
			"0.002": 13.5005443533,
			"0.003": 5.47818230103,
			"0.004": 4.68052431556,
			"0.005": 4.35707071784,
			"0.006": 3.71386949904,
			"0.007": 5.69633224142,
			"0.008": 4.18312699441,
			"0.009": 3.84070198737,
			"0.01": 6.75090279666,
			"0.011": 11.0541496111,
			"0.012": 10.622347506,
			"0.013": 5.55999688422,
			"0.014": 1.60703725528,
			"0.015": 0.0177237085096,
			"0.016": 0.0,
			"0.017": 0.0,
			"0.018": 0.0,
			"0.019": 0.0,
			"0.02": 0.0,
			"0.021": 0.0,
			"0.022": 0.0,
			"0.023": 0.0,
			"0.024": 0.0,
			"0.025": 0.0
		}
	}
}
