{
	 "smiles": "NC1=CC(=CC(N)=C1)C(F)(F)F", 
	 "Tm": 361.65, 
	 "num_atms": 19, 
	 "gaussian": { 
		 "optdone": 1, 
		 "sigma_profile": "yes", 
		 "theory": "DFT", 
		 "functional": "B3LYP", 
		 "basiset": "6-31G**", 
		 "properties": { 
			 "R2extent": 2651.7904, 
			 "electric_dipole_moment_norm": 3.98955744037, 
			 "electric_quadrupole_moment_norm": 14.5573853367, 
			 "total_energy": -680.002743302, 
			 "HOMO_LUMO_gap": 0.19232, 
			 "cosmo_polarized_energy": -12.62, 
			 "cosmo_cavitation_energy": 24.49, 
			 "cosmo_dispersion_energy": -17.68, 
			 "cosmo_repulsion_energy": 1.37, 
			 "cosmo_total_nonelectrostatic_energy": 8.17, 
			 "SMD_solvation_energy": 5.26 
		},
		"coords": [
			{
				"x": -1.0386188718,
				"y": 2.0854267597,
				"z": -1.4769416164,
				"element": "N" 
			},
			{
				"x": -0.4206341954,
				"y": 1.1367772723,
				"z": -0.6628171325,
				"element": "C" 
			},
			{
				"x": 0.353778417,
				"y": 1.543221848,
				"z": 0.4369540077,
				"element": "C" 
			},
			{
				"x": 0.9173442634,
				"y": 0.5752196396,
				"z": 1.2655460708,
				"element": "C" 
			},
			{
				"x": 0.7350626457,
				"y": -0.7869024653,
				"z": 1.0358291645,
				"element": "C" 
			},
			{
				"x": -0.0400508299,
				"y": -1.1987920062,
				"z": -0.0612899947,
				"element": "C" 
			},
			{
				"x": -0.1874255951,
				"y": -2.5555428302,
				"z": -0.3483209335,
				"element": "N" 
			},
			{
				"x": -0.6112956251,
				"y": -0.2316066655,
				"z": -0.9000189958,
				"element": "C" 
			},
			{
				"x": 1.6879561519,
				"y": 1.0131388483,
				"z": 2.4823216824,
				"element": "C" 
			},
			{
				"x": 0.8812851892,
				"y": 1.1460928096,
				"z": 3.5629731838,
				"element": "F" 
			},
			{
				"x": 2.29247743,
				"y": 2.2095504711,
				"z": 2.300197035,
				"element": "F" 
			},
			{
				"x": 2.6496831694,
				"y": 0.1253034107,
				"z": 2.8238165872,
				"element": "F" 
			},
			{
				"x": -0.6114926364,
				"y": 3.0011517403,
				"z": -1.4689315155,
				"element": "H" 
			},
			{
				"x": -1.2548080033,
				"y": 1.7768320431,
				"z": -2.4145906271,
				"element": "H" 
			},
			{
				"x": 0.5147989548,
				"y": 2.5968351395,
				"z": 0.6367488834,
				"element": "H" 
			},
			{
				"x": 1.1991899766,
				"y": -1.5194930517,
				"z": 1.6869300301,
				"element": "H" 
			},
			{
				"x": -1.0057855817,
				"y": -2.7969821718,
				"z": -0.889774591,
				"element": "H" 
			},
			{
				"x": -0.0575635608,
				"y": -3.1767075856,
				"z": 0.4380570064,
				"element": "H" 
			},
			{
				"x": -1.2097012986,
				"y": -0.5484232058,
				"z": -1.751688245,
				"element": "H" 
			}
		],
		 "valence_orbital": [ 
			{
				"type": "occ",
				"energy": -0.35181,
				"method": "rhf"
			},
			{
				"type": "occ",
				"energy": -0.33972,
				"method": "rhf"
			},
			{
				"type": "occ",
				"energy": -0.29194,
				"method": "rhf"
			},
			{
				"type": "occ",
				"energy": -0.22076,
				"method": "rhf"
			},
			{
				"type": "occ",
				"energy": -0.20027,
				"method": "rhf"
			},
			{
				"type": "unocc",
				"energy": -0.00795,
				"method": "rhf"
			},
			{
				"type": "unocc",
				"energy": 0.01974,
				"method": "rhf"
			},
			{
				"type": "unocc",
				"energy": 0.07758,
				"method": "rhf"
			},
			{
				"type": "unocc",
				"energy": 0.07816,
				"method": "rhf"
			},
			{
				"type": "unocc",
				"energy": 0.11447,
				"method": "rhf"
			}
		],
		"cosmo_sigma_profile": { 
			"-0.025": 0.0,
			"-0.024": 0.0,
			"-0.023": 0.0,
			"-0.022": 0.0,
			"-0.021": 0.0,
			"-0.02": 0.0,
			"-0.019": 0.0,
			"-0.018": 0.0,
			"-0.017": 0.0,
			"-0.016": 0.0,
			"-0.015": 0.0,
			"-0.014": 0.0,
			"-0.013": 0.887142152102,
			"-0.012": 5.21199919373,
			"-0.011": 5.90647973314,
			"-0.01": 5.30318022825,
			"-0.009": 6.4333705487,
			"-0.008": 6.93707532658,
			"-0.007": 6.16454140766,
			"-0.006": 6.52558911486,
			"-0.005": 5.96871926765,
			"-0.004": 5.12371489048,
			"-0.003": 5.1668101371,
			"-0.002": 6.47612887851,
			"-0.001": 5.88304405213,
			"0.0": 8.75351980026,
			"0.001": 9.82260522904,
			"0.002": 14.9153454782,
			"0.003": 37.4019030666,
			"0.004": 16.7485461216,
			"0.005": 11.3619880012,
			"0.006": 10.93376466,
			"0.007": 1.86868786222,
			"0.008": 2.07556216214,
			"0.009": 1.55689429114,
			"0.01": 1.41096152365,
			"0.011": 1.25159011042,
			"0.012": 1.66204519347,
			"0.013": 1.13463394381,
			"0.014": 1.14056600477,
			"0.015": 0.226039738727,
			"0.016": 0.0,
			"0.017": 0.0,
			"0.018": 0.0,
			"0.019": 0.0,
			"0.02": 0.0,
			"0.021": 0.0,
			"0.022": 0.0,
			"0.023": 0.0,
			"0.024": 0.0,
			"0.025": 0.0
		}
	}
}
