{
	 "smiles": "OC(=O)C1=CN2C=CSC2=N1", 
	 "Tm": 507.15, 
	 "num_atms": 15, 
	 "gaussian": { 
		 "optdone": 1, 
		 "sigma_profile": "yes", 
		 "theory": "DFT", 
		 "functional": "B3LYP", 
		 "basiset": "6-31G**", 
		 "properties": { 
			 "R2extent": 2239.1136, 
			 "electric_dipole_moment_norm": 8.40939147026, 
			 "electric_quadrupole_moment_norm": 10.2258407107, 
			 "total_energy": -889.156059234, 
			 "HOMO_LUMO_gap": 0.19603, 
			 "cosmo_polarized_energy": -24.07, 
			 "cosmo_cavitation_energy": 22.08, 
			 "cosmo_dispersion_energy": -17.16, 
			 "cosmo_repulsion_energy": 1.31, 
			 "cosmo_total_nonelectrostatic_energy": 6.24, 
			 "SMD_solvation_energy": 3.8 
		},
		"coords": [
			{
				"x": -1.6646591622,
				"y": -3.4655357328,
				"z": 0.6145666872,
				"element": "O" 
			},
			{
				"x": -1.3836899343,
				"y": -2.3400656902,
				"z": 1.3400007925,
				"element": "C" 
			},
			{
				"x": -1.8950298226,
				"y": -2.1592853457,
				"z": 2.4142405538,
				"element": "O" 
			},
			{
				"x": -0.4536332878,
				"y": -1.389383217,
				"z": 0.6740189336,
				"element": "C" 
			},
			{
				"x": -0.2303126729,
				"y": -1.2573586029,
				"z": -0.6901330893,
				"element": "C" 
			},
			{
				"x": 0.6631154057,
				"y": -0.2138951722,
				"z": -0.8011902089,
				"element": "N" 
			},
			{
				"x": 1.3352235475,
				"y": 0.4996780777,
				"z": -1.7899428842,
				"element": "C" 
			},
			{
				"x": 2.120042038,
				"y": 1.4671574128,
				"z": -1.2675735984,
				"element": "C" 
			},
			{
				"x": 2.0610052051,
				"y": 1.5410426898,
				"z": 0.492933473,
				"element": "S" 
			},
			{
				"x": 0.920782458,
				"y": 0.2090536242,
				"z": 0.4940044375,
				"element": "C" 
			},
			{
				"x": 0.2666026027,
				"y": -0.4649203055,
				"z": 1.4036032371,
				"element": "N" 
			},
			{
				"x": -1.0182094185,
				"y": -3.5605191035,
				"z": -0.0990319328,
				"element": "H" 
			},
			{
				"x": -0.655568999,
				"y": -1.7460584068,
				"z": -1.5531059862,
				"element": "H" 
			},
			{
				"x": 1.1987048216,
				"y": 0.253506882,
				"z": -2.8332404236,
				"element": "H" 
			},
			{
				"x": 2.7439272187,
				"y": 2.15738289,
				"z": -1.8157499914,
				"element": "H" 
			}
		],
		 "valence_orbital": [ 
			{
				"type": "occ",
				"energy": -0.31059,
				"method": "rhf"
			},
			{
				"type": "occ",
				"energy": -0.29712,
				"method": "rhf"
			},
			{
				"type": "occ",
				"energy": -0.26945,
				"method": "rhf"
			},
			{
				"type": "occ",
				"energy": -0.25506,
				"method": "rhf"
			},
			{
				"type": "occ",
				"energy": -0.24099,
				"method": "rhf"
			},
			{
				"type": "unocc",
				"energy": -0.04496,
				"method": "rhf"
			},
			{
				"type": "unocc",
				"energy": -0.00748,
				"method": "rhf"
			},
			{
				"type": "unocc",
				"energy": -0.00713,
				"method": "rhf"
			},
			{
				"type": "unocc",
				"energy": 0.02282,
				"method": "rhf"
			},
			{
				"type": "unocc",
				"energy": 0.05816,
				"method": "rhf"
			}
		],
		"cosmo_sigma_profile": { 
			"-0.025": 0.0,
			"-0.024": 0.0,
			"-0.023": 0.0,
			"-0.022": 0.0,
			"-0.021": 0.0,
			"-0.02": 0.0,
			"-0.019": 0.044152535855,
			"-0.018": 1.11784366132,
			"-0.017": 0.954617662677,
			"-0.016": 1.11410828807,
			"-0.015": 0.801888385452,
			"-0.014": 0.577727334201,
			"-0.013": 1.2279060532,
			"-0.012": 2.16131363737,
			"-0.011": 5.54274849414,
			"-0.01": 7.83869572733,
			"-0.009": 5.23486709536,
			"-0.008": 5.68740533041,
			"-0.007": 5.69022989259,
			"-0.006": 5.2714485304,
			"-0.005": 4.50015005664,
			"-0.004": 4.50701808898,
			"-0.003": 9.83198633446,
			"-0.002": 11.157072653,
			"-0.001": 13.9669148885,
			"0.0": 13.4818317649,
			"0.001": 14.077905056,
			"0.002": 10.4392129498,
			"0.003": 7.64571143417,
			"0.004": 3.73623668369,
			"0.005": 2.56815366665,
			"0.006": 3.2539301177,
			"0.007": 3.09220488187,
			"0.008": 3.68267697534,
			"0.009": 4.1929863011,
			"0.01": 5.76151205497,
			"0.011": 7.03957222393,
			"0.012": 6.38768003272,
			"0.013": 3.71856581595,
			"0.014": 2.38961759657,
			"0.015": 1.61625904043,
			"0.016": 0.736778843242,
			"0.017": 0.000704418019691,
			"0.018": 0.0,
			"0.019": 0.0,
			"0.02": 0.0,
			"0.021": 0.0,
			"0.022": 0.0,
			"0.023": 0.0,
			"0.024": 0.0,
			"0.025": 0.0
		}
	}
}
