{
	 "smiles": "CC12CCC=C1C1CC[C@H]3CC(=O)CCC3(C)C1CC2", 
	 "Tm": 389.15, 
	 "num_atms": 48, 
	 "gaussian": { 
		 "optdone": 1, 
		 "sigma_profile": "yes", 
		 "theory": "DFT", 
		 "functional": "B3LYP", 
		 "basiset": "6-31G**", 
		 "properties": { 
			 "R2extent": 6831.3611, 
			 "electric_dipole_moment_norm": 3.02758240515, 
			 "electric_quadrupole_moment_norm": 19.3920833311, 
			 "total_energy": -816.121388205, 
			 "HOMO_LUMO_gap": 0.21486, 
			 "cosmo_polarized_energy": -8.1, 
			 "cosmo_cavitation_energy": 41.15, 
			 "cosmo_dispersion_energy": -29.45, 
			 "cosmo_repulsion_energy": 2.19, 
			 "cosmo_total_nonelectrostatic_energy": 13.89, 
			 "SMD_solvation_energy": 5.98 
		},
		"coords": [
			{
				"x": -2.8428029401,
				"y": 1.2188169354,
				"z": 0.7965630968,
				"element": "C" 
			},
			{
				"x": -1.5812906583,
				"y": 1.0127465966,
				"z": 1.6713821838,
				"element": "C" 
			},
			{
				"x": -1.8563781463,
				"y": 1.5694688543,
				"z": 3.0963971908,
				"element": "C" 
			},
			{
				"x": -2.4285182093,
				"y": 0.3679192168,
				"z": 3.8906745195,
				"element": "C" 
			},
			{
				"x": -1.8181258482,
				"y": -0.8116566146,
				"z": 3.1655916283,
				"element": "C" 
			},
			{
				"x": -1.3223399725,
				"y": -0.4660174983,
				"z": 1.97078275,
				"element": "C" 
			},
			{
				"x": -0.4987722367,
				"y": -1.3189931396,
				"z": 1.0277778667,
				"element": "C" 
			},
			{
				"x": 0.900577636,
				"y": -1.6218199111,
				"z": 1.6148402896,
				"element": "C" 
			},
			{
				"x": 1.7281570822,
				"y": -2.4970249057,
				"z": 0.6675259653,
				"element": "C" 
			},
			{
				"x": 1.8724717739,
				"y": -1.8527667776,
				"z": -0.7248774861,
				"element": "C" 
			},
			{
				"x": 2.756337675,
				"y": -2.6849770389,
				"z": -1.6856265948,
				"element": "C" 
			},
			{
				"x": 1.9997808321,
				"y": -3.6569383519,
				"z": -2.5868800543,
				"element": "C" 
			},
			{
				"x": 2.5037961823,
				"y": -4.1092734337,
				"z": -3.5982276804,
				"element": "O" 
			},
			{
				"x": 0.6077829968,
				"y": -4.0427458637,
				"z": -2.1230601633,
				"element": "C" 
			},
			{
				"x": -0.2829027181,
				"y": -2.8377177054,
				"z": -1.7157228628,
				"element": "C" 
			},
			{
				"x": 0.4894469516,
				"y": -1.5246082587,
				"z": -1.3634144594,
				"element": "C" 
			},
			{
				"x": 0.6990030283,
				"y": -0.7502915797,
				"z": -2.6868392464,
				"element": "C" 
			},
			{
				"x": -0.3811209691,
				"y": -0.6682060197,
				"z": -0.3781723879,
				"element": "C" 
			},
			{
				"x": 0.0680416744,
				"y": 0.8248110146,
				"z": -0.3034218939,
				"element": "C" 
			},
			{
				"x": -0.3318612098,
				"y": 1.5901555663,
				"z": 0.9876714135,
				"element": "C" 
			},
			{
				"x": -2.760685227,
				"y": 0.7500962252,
				"z": -0.1871265506,
				"element": "H" 
			},
			{
				"x": -3.7281440414,
				"y": 0.8003319552,
				"z": 1.286141299,
				"element": "H" 
			},
			{
				"x": -3.0189799245,
				"y": 2.2895450344,
				"z": 0.6386943927,
				"element": "H" 
			},
			{
				"x": -0.908376088,
				"y": 1.8780081194,
				"z": 3.5531851816,
				"element": "H" 
			},
			{
				"x": -2.5190553512,
				"y": 2.4414111316,
				"z": 3.090772517,
				"element": "H" 
			},
			{
				"x": -3.5281771596,
				"y": 0.3392612034,
				"z": 3.8603282582,
				"element": "H" 
			},
			{
				"x": -2.1540470303,
				"y": 0.4007200649,
				"z": 4.9518426121,
				"element": "H" 
			},
			{
				"x": -1.7852452891,
				"y": -1.8120476718,
				"z": 3.590784134,
				"element": "H" 
			},
			{
				"x": -1.0041692897,
				"y": -2.2878342093,
				"z": 0.9199198769,
				"element": "H" 
			},
			{
				"x": 1.4340380048,
				"y": -0.6811403047,
				"z": 1.8049142598,
				"element": "H" 
			},
			{
				"x": 0.786304621,
				"y": -2.1107582738,
				"z": 2.5884561077,
				"element": "H" 
			},
			{
				"x": 2.7271965333,
				"y": -2.664238138,
				"z": 1.0901382904,
				"element": "H" 
			},
			{
				"x": 1.262126411,
				"y": -3.488591012,
				"z": 0.5886208152,
				"element": "H" 
			},
			{
				"x": 2.3921983953,
				"y": -0.8981417047,
				"z": -0.5649461237,
				"element": "H" 
			},
			{
				"x": 3.3559362956,
				"y": -2.0490025899,
				"z": -2.3436875246,
				"element": "H" 
			},
			{
				"x": 3.4797519637,
				"y": -3.2799148353,
				"z": -1.1102506239,
				"element": "H" 
			},
			{
				"x": 0.1417048542,
				"y": -4.6531106304,
				"z": -2.9002270615,
				"element": "H" 
			},
			{
				"x": 0.7553756197,
				"y": -4.6951806673,
				"z": -1.2506887535,
				"element": "H" 
			},
			{
				"x": -0.9681218228,
				"y": -2.608689501,
				"z": -2.5392872691,
				"element": "H" 
			},
			{
				"x": -0.917648252,
				"y": -3.1494175625,
				"z": -0.8826132951,
				"element": "H" 
			},
			{
				"x": 1.1253979232,
				"y": -1.3887302964,
				"z": -3.4669805646,
				"element": "H" 
			},
			{
				"x": 1.3677355746,
				"y": 0.1069131383,
				"z": -2.5665577416,
				"element": "H" 
			},
			{
				"x": -0.2593191421,
				"y": -0.3791499523,
				"z": -3.0676530546,
				"element": "H" 
			},
			{
				"x": -1.3916502324,
				"y": -0.6742804631,
				"z": -0.8077432159,
				"element": "H" 
			},
			{
				"x": -0.3465010469,
				"y": 1.3427966915,
				"z": -1.1739009926,
				"element": "H" 
			},
			{
				"x": 1.1554511422,
				"y": 0.8986330919,
				"z": -0.4110935378,
				"element": "H" 
			},
			{
				"x": 0.4935612422,
				"y": 1.5436409483,
				"z": 1.7089060549,
				"element": "H" 
			},
			{
				"x": -0.4723416079,
				"y": 2.6530891231,
				"z": 0.7534884348,
				"element": "H" 
			}
		],
		 "valence_orbital": [ 
			{
				"type": "occ",
				"energy": -0.29724,
				"method": "rhf"
			},
			{
				"type": "occ",
				"energy": -0.28689,
				"method": "rhf"
			},
			{
				"type": "occ",
				"energy": -0.27962,
				"method": "rhf"
			},
			{
				"type": "occ",
				"energy": -0.23191,
				"method": "rhf"
			},
			{
				"type": "occ",
				"energy": -0.22437,
				"method": "rhf"
			},
			{
				"type": "unocc",
				"energy": -0.00951,
				"method": "rhf"
			},
			{
				"type": "unocc",
				"energy": 0.02238,
				"method": "rhf"
			},
			{
				"type": "unocc",
				"energy": 0.06584,
				"method": "rhf"
			},
			{
				"type": "unocc",
				"energy": 0.07848,
				"method": "rhf"
			},
			{
				"type": "unocc",
				"energy": 0.0838,
				"method": "rhf"
			}
		],
		"cosmo_sigma_profile": { 
			"-0.025": 0.0,
			"-0.024": 0.0,
			"-0.023": 0.0,
			"-0.022": 0.0,
			"-0.021": 0.0,
			"-0.02": 0.0,
			"-0.019": 0.0,
			"-0.018": 0.0,
			"-0.017": 0.0,
			"-0.016": 0.0,
			"-0.015": 0.0,
			"-0.014": 0.0,
			"-0.013": 0.0,
			"-0.012": 0.0,
			"-0.011": 0.0,
			"-0.01": 0.0,
			"-0.009": 0.0,
			"-0.008": 0.0,
			"-0.007": 0.0,
			"-0.006": 1.65839395452,
			"-0.005": 6.99681204727,
			"-0.004": 12.9272051754,
			"-0.003": 28.3361829487,
			"-0.002": 61.2101447794,
			"-0.001": 60.9443223991,
			"0.0": 47.6698568344,
			"0.001": 39.3408153946,
			"0.002": 19.5948690208,
			"0.003": 5.92642497327,
			"0.004": 4.63672304559,
			"0.005": 3.76598216079,
			"0.006": 3.40386487531,
			"0.007": 2.20269094297,
			"0.008": 1.88406651363,
			"0.009": 1.13896965612,
			"0.01": 1.96047550264,
			"0.011": 2.432881293,
			"0.012": 4.08401230352,
			"0.013": 4.08466743324,
			"0.014": 1.56694875086,
			"0.015": 0.0,
			"0.016": 0.0,
			"0.017": 0.0,
			"0.018": 0.0,
			"0.019": 0.0,
			"0.02": 0.0,
			"0.021": 0.0,
			"0.022": 0.0,
			"0.023": 0.0,
			"0.024": 0.0,
			"0.025": 0.0
		}
	}
}
