{
	 "smiles": "[O-][N+](=O)C1=CC=C(CC2=CC=NC=C2)C=C1", 
	 "Tm": 344.15, 
	 "num_atms": 26, 
	 "gaussian": { 
		 "optdone": 1, 
		 "sigma_profile": "yes", 
		 "theory": "DFT", 
		 "functional": "B3LYP", 
		 "basiset": "6-31G**", 
		 "properties": { 
			 "R2extent": 5796.2873, 
			 "electric_dipole_moment_norm": 4.30790707653, 
			 "electric_quadrupole_moment_norm": 24.1215869866, 
			 "total_energy": -723.154553878, 
			 "HOMO_LUMO_gap": 0.16975, 
			 "cosmo_polarized_energy": -13.47, 
			 "cosmo_cavitation_energy": 31.46, 
			 "cosmo_dispersion_energy": -22.34, 
			 "cosmo_repulsion_energy": 1.73, 
			 "cosmo_total_nonelectrostatic_energy": 10.85, 
			 "SMD_solvation_energy": 6.06 
		},
		"coords": [
			{
				"x": -2.6749671349,
				"y": -1.429563131,
				"z": 2.9010892649,
				"element": "O" 
			},
			{
				"x": -1.952436111,
				"y": -2.3898973484,
				"z": 2.6359343066,
				"element": "N" 
			},
			{
				"x": -1.9548307446,
				"y": -3.4589178591,
				"z": 3.2459455571,
				"element": "O" 
			},
			{
				"x": -1.0190501987,
				"y": -2.2500192962,
				"z": 1.508019887,
				"element": "C" 
			},
			{
				"x": -0.1904940201,
				"y": -3.3190895307,
				"z": 1.1796997892,
				"element": "C" 
			},
			{
				"x": 0.689584693,
				"y": -3.1758812597,
				"z": 0.1089969937,
				"element": "C" 
			},
			{
				"x": 0.7458692761,
				"y": -1.9852651261,
				"z": -0.628036903,
				"element": "C" 
			},
			{
				"x": 1.6900781001,
				"y": -1.8475179988,
				"z": -1.8101843676,
				"element": "C" 
			},
			{
				"x": 2.6170150776,
				"y": -0.6474456206,
				"z": -1.7326798139,
				"element": "C" 
			},
			{
				"x": 3.4958249565,
				"y": -0.473584493,
				"z": -0.6560187202,
				"element": "C" 
			},
			{
				"x": 4.3396914073,
				"y": 0.6351501156,
				"z": -0.639633171,
				"element": "C" 
			},
			{
				"x": 4.3676856823,
				"y": 1.5682769974,
				"z": -1.6017365883,
				"element": "N" 
			},
			{
				"x": 3.5255090334,
				"y": 1.3995924366,
				"z": -2.6265104205,
				"element": "C" 
			},
			{
				"x": 2.6417715013,
				"y": 0.3234251555,
				"z": -2.7374297682,
				"element": "C" 
			},
			{
				"x": -0.1026367121,
				"y": -0.9260995666,
				"z": -0.2658769877,
				"element": "C" 
			},
			{
				"x": -0.9885472073,
				"y": -1.0496578304,
				"z": 0.7982475782,
				"element": "C" 
			},
			{
				"x": -0.244248063,
				"y": -4.2329399982,
				"z": 1.7580169644,
				"element": "H" 
			},
			{
				"x": 1.3401183856,
				"y": -4.0037602062,
				"z": -0.1587149245,
				"element": "H" 
			},
			{
				"x": 1.102052484,
				"y": -1.7820698436,
				"z": -2.7338418441,
				"element": "H" 
			},
			{
				"x": 2.2899193258,
				"y": -2.7614280485,
				"z": -1.893810681,
				"element": "H" 
			},
			{
				"x": 3.5211740367,
				"y": -1.188519145,
				"z": 0.1615221769,
				"element": "H" 
			},
			{
				"x": 5.0294867681,
				"y": 0.7824321649,
				"z": 0.1896550598,
				"element": "H" 
			},
			{
				"x": 3.5543094534,
				"y": 2.1625888963,
				"z": -3.4028356577,
				"element": "H" 
			},
			{
				"x": 1.9859014743,
				"y": 0.2457165625,
				"z": -3.6004179251,
				"element": "H" 
			},
			{
				"x": -0.0627402691,
				"y": 0.006433194,
				"z": -0.8210739734,
				"element": "H" 
			},
			{
				"x": -1.6500411947,
				"y": -0.2429592208,
				"z": 1.0882741686,
				"element": "H" 
			}
		],
		 "valence_orbital": [ 
			{
				"type": "occ",
				"energy": -0.2917,
				"method": "rhf"
			},
			{
				"type": "occ",
				"energy": -0.28202,
				"method": "rhf"
			},
			{
				"type": "occ",
				"energy": -0.27595,
				"method": "rhf"
			},
			{
				"type": "occ",
				"energy": -0.26901,
				"method": "rhf"
			},
			{
				"type": "occ",
				"energy": -0.26051,
				"method": "rhf"
			},
			{
				"type": "unocc",
				"energy": -0.09076,
				"method": "rhf"
			},
			{
				"type": "unocc",
				"energy": -0.03649,
				"method": "rhf"
			},
			{
				"type": "unocc",
				"energy": -0.03072,
				"method": "rhf"
			},
			{
				"type": "unocc",
				"energy": -0.01954,
				"method": "rhf"
			},
			{
				"type": "unocc",
				"energy": -0.00227,
				"method": "rhf"
			}
		],
		"cosmo_sigma_profile": { 
			"-0.025": 0.0,
			"-0.024": 0.0,
			"-0.023": 0.0,
			"-0.022": 0.0,
			"-0.021": 0.0,
			"-0.02": 0.0,
			"-0.019": 0.0,
			"-0.018": 0.0,
			"-0.017": 0.0,
			"-0.016": 0.0,
			"-0.015": 0.0,
			"-0.014": 0.0,
			"-0.013": 0.0,
			"-0.012": 0.0,
			"-0.011": 0.0,
			"-0.01": 0.0,
			"-0.009": 0.0,
			"-0.008": 0.936944604937,
			"-0.007": 10.4248259313,
			"-0.006": 21.8240767209,
			"-0.005": 23.9482930788,
			"-0.004": 18.6771287168,
			"-0.003": 17.4554729517,
			"-0.002": 16.1653915891,
			"-0.001": 16.825381086,
			"0.0": 16.9734824312,
			"0.001": 20.2601365959,
			"0.002": 25.3851522048,
			"0.003": 13.9231823762,
			"0.004": 4.34067611788,
			"0.005": 5.4253076138,
			"0.006": 5.18432443036,
			"0.007": 8.11105879956,
			"0.008": 10.4851288291,
			"0.009": 5.48484960563,
			"0.01": 3.6792487581,
			"0.011": 1.67649605749,
			"0.012": 1.20239711442,
			"0.013": 0.959237583642,
			"0.014": 0.683054860092,
			"0.015": 0.9842472504,
			"0.016": 0.832565297977,
			"0.017": 0.524809914002,
			"0.018": 0.0,
			"0.019": 0.0,
			"0.02": 0.0,
			"0.021": 0.0,
			"0.022": 0.0,
			"0.023": 0.0,
			"0.024": 0.0,
			"0.025": 0.0
		}
	}
}
