{
	 "smiles": "CC(C)(C)C(=O)NC1CCCNC1", 
	 "Tm": 373.15, 
	 "num_atms": 33, 
	 "gaussian": { 
		 "optdone": 1, 
		 "sigma_profile": "yes", 
		 "theory": "DFT", 
		 "functional": "B3LYP", 
		 "basiset": "6-31G**", 
		 "properties": { 
			 "R2extent": 3914.8087, 
			 "electric_dipole_moment_norm": 2.54331406437, 
			 "electric_quadrupole_moment_norm": 13.0362851342, 
			 "total_energy": -577.866986303, 
			 "HOMO_LUMO_gap": 0.24921, 
			 "cosmo_polarized_energy": -13.62, 
			 "cosmo_cavitation_energy": 32.84, 
			 "cosmo_dispersion_energy": -22.77, 
			 "cosmo_repulsion_energy": 1.82, 
			 "cosmo_total_nonelectrostatic_energy": 11.88, 
			 "SMD_solvation_energy": 2.84 
		},
		"coords": [
			{
				"x": -1.3014388349,
				"y": -2.2054847975,
				"z": -0.3938146867,
				"element": "C" 
			},
			{
				"x": 0.0298749619,
				"y": -2.2231730937,
				"z": -1.1787006864,
				"element": "C" 
			},
			{
				"x": 1.2100566409,
				"y": -2.4526764914,
				"z": -0.2083965731,
				"element": "C" 
			},
			{
				"x": -0.0050023726,
				"y": -3.3539783698,
				"z": -2.2189998876,
				"element": "C" 
			},
			{
				"x": 0.2105271421,
				"y": -0.877963358,
				"z": -1.9281858918,
				"element": "C" 
			},
			{
				"x": 0.2742085261,
				"y": -0.8089493069,
				"z": -3.1516201478,
				"element": "O" 
			},
			{
				"x": 0.3040424895,
				"y": 0.2379828096,
				"z": -1.1392207467,
				"element": "N" 
			},
			{
				"x": 0.4621709078,
				"y": 1.5817889193,
				"z": -1.68898821,
				"element": "C" 
			},
			{
				"x": -0.8891776203,
				"y": 2.3045076892,
				"z": -1.9252466021,
				"element": "C" 
			},
			{
				"x": -1.3301745687,
				"y": 3.0709986361,
				"z": -0.6740642671,
				"element": "C" 
			},
			{
				"x": -0.2854930049,
				"y": 4.1657013297,
				"z": -0.3253290912,
				"element": "C" 
			},
			{
				"x": 1.0832314733,
				"y": 3.8568859387,
				"z": -0.7755477483,
				"element": "N" 
			},
			{
				"x": 1.367069092,
				"y": 2.4261841203,
				"z": -0.7465717087,
				"element": "C" 
			},
			{
				"x": -1.4630762984,
				"y": -3.1737472029,
				"z": 0.0923131311,
				"element": "H" 
			},
			{
				"x": -1.3162576705,
				"y": -1.4401215415,
				"z": 0.3898650448,
				"element": "H" 
			},
			{
				"x": -2.1494497397,
				"y": -2.0184116339,
				"z": -1.0605837148,
				"element": "H" 
			},
			{
				"x": 1.1097653343,
				"y": -3.4285242644,
				"z": 0.2791955364,
				"element": "H" 
			},
			{
				"x": 1.257773116,
				"y": -1.6962780091,
				"z": 0.5823408274,
				"element": "H" 
			},
			{
				"x": 2.1664507853,
				"y": -2.4396158093,
				"z": -0.7409458845,
				"element": "H" 
			},
			{
				"x": -0.8239784273,
				"y": -3.210252042,
				"z": -2.9276710384,
				"element": "H" 
			},
			{
				"x": 0.9220222072,
				"y": -3.384579509,
				"z": -2.7967333843,
				"element": "H" 
			},
			{
				"x": -0.1381674372,
				"y": -4.3189108959,
				"z": -1.7180212691,
				"element": "H" 
			},
			{
				"x": 0.2058672545,
				"y": 0.140595532,
				"z": -0.1399006258,
				"element": "H" 
			},
			{
				"x": 0.9495957117,
				"y": 1.4403539625,
				"z": -2.6571467469,
				"element": "H" 
			},
			{
				"x": -0.7745630611,
				"y": 3.0076979796,
				"z": -2.7604224438,
				"element": "H" 
			},
			{
				"x": -1.6369853338,
				"y": 1.571080127,
				"z": -2.2403635732,
				"element": "H" 
			},
			{
				"x": -2.3197832156,
				"y": 3.5201768756,
				"z": -0.8124457527,
				"element": "H" 
			},
			{
				"x": -1.432044018,
				"y": 2.3669929705,
				"z": 0.1626351864,
				"element": "H" 
			},
			{
				"x": -0.5727758714,
				"y": 5.1203635537,
				"z": -0.778852065,
				"element": "H" 
			},
			{
				"x": -0.2697912775,
				"y": 4.3295848871,
				"z": 0.760741417,
				"element": "H" 
			},
			{
				"x": 1.22243542,
				"y": 4.2072730279,
				"z": -1.7190340307,
				"element": "H" 
			},
			{
				"x": 1.2294732897,
				"y": 2.0883396624,
				"z": 0.2913397616,
				"element": "H" 
			},
			{
				"x": 2.4225943998,
				"y": 2.2583583041,
				"z": -0.9836241277,
				"element": "H" 
			}
		],
		 "valence_orbital": [ 
			{
				"type": "occ",
				"energy": -0.32379,
				"method": "rhf"
			},
			{
				"type": "occ",
				"energy": -0.31853,
				"method": "rhf"
			},
			{
				"type": "occ",
				"energy": -0.24825,
				"method": "rhf"
			},
			{
				"type": "occ",
				"energy": -0.23698,
				"method": "rhf"
			},
			{
				"type": "occ",
				"energy": -0.21643,
				"method": "rhf"
			},
			{
				"type": "unocc",
				"energy": 0.03278,
				"method": "rhf"
			},
			{
				"type": "unocc",
				"energy": 0.05501,
				"method": "rhf"
			},
			{
				"type": "unocc",
				"energy": 0.0712,
				"method": "rhf"
			},
			{
				"type": "unocc",
				"energy": 0.09737,
				"method": "rhf"
			},
			{
				"type": "unocc",
				"energy": 0.1168,
				"method": "rhf"
			}
		],
		"cosmo_sigma_profile": { 
			"-0.025": 0.0,
			"-0.024": 0.0,
			"-0.023": 0.0,
			"-0.022": 0.0,
			"-0.021": 0.0,
			"-0.02": 0.0,
			"-0.019": 0.0,
			"-0.018": 0.0,
			"-0.017": 0.0,
			"-0.016": 0.0,
			"-0.015": 0.0,
			"-0.014": 0.0,
			"-0.013": 0.0510348217426,
			"-0.012": 0.846126315563,
			"-0.011": 1.75234447162,
			"-0.01": 1.88315508118,
			"-0.009": 3.04367422935,
			"-0.008": 3.171863746,
			"-0.007": 4.64575070801,
			"-0.006": 4.40815628515,
			"-0.005": 4.74953310926,
			"-0.004": 11.8703063918,
			"-0.003": 30.8501924726,
			"-0.002": 35.2354331043,
			"-0.001": 32.383771904,
			"0.0": 34.8394720815,
			"0.001": 31.3455090056,
			"0.002": 11.5745439995,
			"0.003": 3.90053325312,
			"0.004": 2.88487924253,
			"0.005": 3.48237419574,
			"0.006": 3.05361982171,
			"0.007": 2.69418628839,
			"0.008": 2.27664763373,
			"0.009": 1.68928257465,
			"0.01": 3.00437744513,
			"0.011": 1.93270311736,
			"0.012": 1.97747778877,
			"0.013": 2.77030478101,
			"0.014": 5.1975515359,
			"0.015": 3.00444778608,
			"0.016": 0.528878844928,
			"0.017": 0.829359370538,
			"0.018": 0.357479496658,
			"0.019": 0.23148113053,
			"0.02": 0.0,
			"0.021": 0.0,
			"0.022": 0.0,
			"0.023": 0.0,
			"0.024": 0.0,
			"0.025": 0.0
		}
	}
}
