{
	 "smiles": "COC(=O)C(=O)CC(=O)C1=C(C)C=C(C)C=C1", 
	 "Tm": 337.15, 
	 "num_atms": 31, 
	 "gaussian": { 
		 "optdone": 1, 
		 "sigma_profile": "yes", 
		 "theory": "DFT", 
		 "functional": "B3LYP", 
		 "basiset": "6-31G**", 
		 "properties": { 
			 "R2extent": 5546.9246, 
			 "electric_dipole_moment_norm": 7.09126048104, 
			 "electric_quadrupole_moment_norm": 13.4800866659, 
			 "total_energy": -804.711348687, 
			 "HOMO_LUMO_gap": 0.18777, 
			 "cosmo_polarized_energy": -16.75, 
			 "cosmo_cavitation_energy": 35.58, 
			 "cosmo_dispersion_energy": -24.55, 
			 "cosmo_repulsion_energy": 1.93, 
			 "cosmo_total_nonelectrostatic_energy": 12.96, 
			 "SMD_solvation_energy": 8.83 
		},
		"coords": [
			{
				"x": -2.3581551275,
				"y": 0.2843687864,
				"z": -3.8256691124,
				"element": "C" 
			},
			{
				"x": -1.2264065983,
				"y": 0.2103591551,
				"z": -2.9391763897,
				"element": "O" 
			},
			{
				"x": -0.3557411127,
				"y": -0.7862885334,
				"z": -3.2037940528,
				"element": "C" 
			},
			{
				"x": -0.4459530195,
				"y": -1.5578859094,
				"z": -4.1252709288,
				"element": "O" 
			},
			{
				"x": 0.8110095307,
				"y": -0.7842435933,
				"z": -2.1915843517,
				"element": "C" 
			},
			{
				"x": 1.8322538084,
				"y": -1.3628565769,
				"z": -2.4779197841,
				"element": "O" 
			},
			{
				"x": 0.6290257138,
				"y": -0.0213789151,
				"z": -0.8861611779,
				"element": "C" 
			},
			{
				"x": -0.511620863,
				"y": -0.6327809721,
				"z": -0.0735096739,
				"element": "C" 
			},
			{
				"x": -0.9888647729,
				"y": -1.6873923005,
				"z": -0.47786114,
				"element": "O" 
			},
			{
				"x": -1.0719365389,
				"y": 0.0327701053,
				"z": 1.1479430418,
				"element": "C" 
			},
			{
				"x": -0.4807853153,
				"y": 1.0798368145,
				"z": 1.8986385005,
				"element": "C" 
			},
			{
				"x": 0.8743903425,
				"y": 1.6958495697,
				"z": 1.6190898872,
				"element": "C" 
			},
			{
				"x": -1.1816796975,
				"y": 1.5663823586,
				"z": 3.0118566343,
				"element": "C" 
			},
			{
				"x": -2.4279592196,
				"y": 1.0754808676,
				"z": 3.4098211955,
				"element": "C" 
			},
			{
				"x": -3.1509102068,
				"y": 1.6536605343,
				"z": 4.6010858723,
				"element": "C" 
			},
			{
				"x": -2.9902479681,
				"y": 0.0314790544,
				"z": 2.6623417723,
				"element": "C" 
			},
			{
				"x": -2.3189545345,
				"y": -0.4765122891,
				"z": 1.5622204221,
				"element": "C" 
			},
			{
				"x": -2.0253579679,
				"y": 0.4163595303,
				"z": -4.8579451668,
				"element": "H" 
			},
			{
				"x": -2.9387892355,
				"y": 1.1443926759,
				"z": -3.49355087,
				"element": "H" 
			},
			{
				"x": -2.9503557341,
				"y": -0.6311793612,
				"z": -3.7570270036,
				"element": "H" 
			},
			{
				"x": 1.5740118409,
				"y": -0.083565282,
				"z": -0.3404204302,
				"element": "H" 
			},
			{
				"x": 0.4236222323,
				"y": 1.0336118749,
				"z": -1.0964685498,
				"element": "H" 
			},
			{
				"x": 1.6717267042,
				"y": 0.9471212791,
				"z": 1.5855752764,
				"element": "H" 
			},
			{
				"x": 0.9007034973,
				"y": 2.2433660609,
				"z": 0.6716725038,
				"element": "H" 
			},
			{
				"x": 1.1298360996,
				"y": 2.4062966455,
				"z": 2.408824566,
				"element": "H" 
			},
			{
				"x": -0.7267300438,
				"y": 2.3622927475,
				"z": 3.5967996571,
				"element": "H" 
			},
			{
				"x": -3.5164920667,
				"y": 0.8633761903,
				"z": 5.2652631887,
				"element": "H" 
			},
			{
				"x": -4.0247740084,
				"y": 2.236120728,
				"z": 4.284731762,
				"element": "H" 
			},
			{
				"x": -2.504177486,
				"y": 2.3153918491,
				"z": 5.1832318176,
				"element": "H" 
			},
			{
				"x": -3.9539466952,
				"y": -0.382797708,
				"z": 2.9473485367,
				"element": "H" 
			},
			{
				"x": -2.7421415575,
				"y": -1.2902353862,
				"z": 0.983913997,
				"element": "H" 
			}
		],
		 "valence_orbital": [ 
			{
				"type": "occ",
				"energy": -0.29617,
				"method": "rhf"
			},
			{
				"type": "occ",
				"energy": -0.26679,
				"method": "rhf"
			},
			{
				"type": "occ",
				"energy": -0.25824,
				"method": "rhf"
			},
			{
				"type": "occ",
				"energy": -0.25383,
				"method": "rhf"
			},
			{
				"type": "occ",
				"energy": -0.25215,
				"method": "rhf"
			},
			{
				"type": "unocc",
				"energy": -0.06438,
				"method": "rhf"
			},
			{
				"type": "unocc",
				"energy": -0.06206,
				"method": "rhf"
			},
			{
				"type": "unocc",
				"energy": -0.01195,
				"method": "rhf"
			},
			{
				"type": "unocc",
				"energy": 0.0251,
				"method": "rhf"
			},
			{
				"type": "unocc",
				"energy": 0.05589,
				"method": "rhf"
			}
		],
		"cosmo_sigma_profile": { 
			"-0.025": 0.0,
			"-0.024": 0.0,
			"-0.023": 0.0,
			"-0.022": 0.0,
			"-0.021": 0.0,
			"-0.02": 0.0,
			"-0.019": 0.0,
			"-0.018": 0.0,
			"-0.017": 0.0,
			"-0.016": 0.0,
			"-0.015": 0.0,
			"-0.014": 0.0,
			"-0.013": 0.0,
			"-0.012": 0.0,
			"-0.011": 0.0,
			"-0.01": 0.0105565831305,
			"-0.009": 1.86911274206,
			"-0.008": 6.43866084159,
			"-0.007": 8.10410246153,
			"-0.006": 14.866377104,
			"-0.005": 24.5538032911,
			"-0.004": 28.3625374904,
			"-0.003": 24.1882792576,
			"-0.002": 20.0235298861,
			"-0.001": 22.5581310528,
			"0.0": 20.0184058191,
			"0.001": 14.162856834,
			"0.002": 14.3134862835,
			"0.003": 16.3403778492,
			"0.004": 16.0643712388,
			"0.005": 7.44183918036,
			"0.006": 4.89754781881,
			"0.007": 4.40875469978,
			"0.008": 5.24277478156,
			"0.009": 8.00240341128,
			"0.01": 9.48695054972,
			"0.011": 8.006299521,
			"0.012": 2.73889236918,
			"0.013": 0.125075640169,
			"0.014": 0.0,
			"0.015": 0.0,
			"0.016": 0.0,
			"0.017": 0.0,
			"0.018": 0.0,
			"0.019": 0.0,
			"0.02": 0.0,
			"0.021": 0.0,
			"0.022": 0.0,
			"0.023": 0.0,
			"0.024": 0.0,
			"0.025": 0.0
		}
	}
}
