{
	 "smiles": "NC1=CC=C(C=C1)S(=O)(=O)NC1=NN=CS1", 
	 "Tm": 485.15, 
	 "num_atms": 24, 
	 "gaussian": { 
		 "optdone": 1, 
		 "sigma_profile": "yes", 
		 "theory": "DFT", 
		 "functional": "B3LYP", 
		 "basiset": "6-31G**", 
		 "properties": { 
			 "R2extent": 5369.2247, 
			 "electric_dipole_moment_norm": 6.85242875556, 
			 "electric_quadrupole_moment_norm": 21.4526822831, 
			 "total_energy": -1475.39410094, 
			 "HOMO_LUMO_gap": 0.18541, 
			 "cosmo_polarized_energy": -23.41, 
			 "cosmo_cavitation_energy": 32.17, 
			 "cosmo_dispersion_energy": -23.94, 
			 "cosmo_repulsion_energy": 1.78, 
			 "cosmo_total_nonelectrostatic_energy": 10.01, 
			 "SMD_solvation_energy": 3.12 
		},
		"coords": [
			{
				"x": -1.9975350832,
				"y": -1.4101324573,
				"z": -2.6093832968,
				"element": "N" 
			},
			{
				"x": -1.1947714276,
				"y": -1.3376601821,
				"z": -1.4911943893,
				"element": "C" 
			},
			{
				"x": 0.0711901986,
				"y": -1.961301152,
				"z": -1.4746317923,
				"element": "C" 
			},
			{
				"x": 0.8992956538,
				"y": -1.8497694796,
				"z": -0.3686259956,
				"element": "C" 
			},
			{
				"x": 0.4762609999,
				"y": -1.1131919361,
				"z": 0.7449251774,
				"element": "C" 
			},
			{
				"x": -0.7801051175,
				"y": -0.4951159474,
				"z": 0.7513308199,
				"element": "C" 
			},
			{
				"x": -1.6066663699,
				"y": -0.6074657835,
				"z": -0.3567583136,
				"element": "C" 
			},
			{
				"x": 1.551477143,
				"y": -0.9500447189,
				"z": 2.1467884018,
				"element": "S" 
			},
			{
				"x": 2.497960236,
				"y": -2.0617748688,
				"z": 2.1445436655,
				"element": "O" 
			},
			{
				"x": 0.7464200857,
				"y": -0.5814453648,
				"z": 3.310996757,
				"element": "O" 
			},
			{
				"x": 2.553825642,
				"y": 0.417200021,
				"z": 1.8585891549,
				"element": "N" 
			},
			{
				"x": 2.0956648789,
				"y": 1.7257694507,
				"z": 1.8305792714,
				"element": "C" 
			},
			{
				"x": 2.5457759728,
				"y": 2.5835760189,
				"z": 0.9525881575,
				"element": "N" 
			},
			{
				"x": 2.0639341506,
				"y": 3.8493740614,
				"z": 1.1589269609,
				"element": "N" 
			},
			{
				"x": 1.2577246799,
				"y": 3.9183433459,
				"z": 2.1735944244,
				"element": "C" 
			},
			{
				"x": 1.0083598665,
				"y": 2.4114052803,
				"z": 3.0268090165,
				"element": "S" 
			},
			{
				"x": -2.9764416499,
				"y": -1.1936225809,
				"z": -2.4987944884,
				"element": "H" 
			},
			{
				"x": -1.8063076402,
				"y": -2.141033788,
				"z": -3.2776534306,
				"element": "H" 
			},
			{
				"x": 0.3959999829,
				"y": -2.5368222415,
				"z": -2.3370559243,
				"element": "H" 
			},
			{
				"x": 1.8622226835,
				"y": -2.3490543914,
				"z": -0.3522134895,
				"element": "H" 
			},
			{
				"x": -1.1100731217,
				"y": 0.0479734108,
				"z": 1.6297660719,
				"element": "H" 
			},
			{
				"x": -2.583809366,
				"y": -0.132425362,
				"z": -0.3515264796,
				"element": "H" 
			},
			{
				"x": 3.2662389095,
				"y": 0.2403182478,
				"z": 1.1547575847,
				"element": "H" 
			},
			{
				"x": 0.7525586924,
				"y": 4.8295004176,
				"z": 2.4694421361,
				"element": "H" 
			}
		],
		 "valence_orbital": [ 
			{
				"type": "occ",
				"energy": -0.29663,
				"method": "rhf"
			},
			{
				"type": "occ",
				"energy": -0.27799,
				"method": "rhf"
			},
			{
				"type": "occ",
				"energy": -0.26748,
				"method": "rhf"
			},
			{
				"type": "occ",
				"energy": -0.25547,
				"method": "rhf"
			},
			{
				"type": "occ",
				"energy": -0.23057,
				"method": "rhf"
			},
			{
				"type": "unocc",
				"energy": -0.04516,
				"method": "rhf"
			},
			{
				"type": "unocc",
				"energy": -0.02722,
				"method": "rhf"
			},
			{
				"type": "unocc",
				"energy": -0.02489,
				"method": "rhf"
			},
			{
				"type": "unocc",
				"energy": 0.00629,
				"method": "rhf"
			},
			{
				"type": "unocc",
				"energy": 0.02552,
				"method": "rhf"
			}
		],
		"cosmo_sigma_profile": { 
			"-0.025": 0.0,
			"-0.024": 0.0,
			"-0.023": 0.0,
			"-0.022": 0.0,
			"-0.021": 0.0,
			"-0.02": 0.0,
			"-0.019": 0.0,
			"-0.018": 0.0,
			"-0.017": 0.329104578298,
			"-0.016": 0.898179578883,
			"-0.015": 1.06054493586,
			"-0.014": 1.88084150534,
			"-0.013": 3.98843093598,
			"-0.012": 3.60799275304,
			"-0.011": 5.68483818085,
			"-0.01": 6.74542680536,
			"-0.009": 5.79270242205,
			"-0.008": 6.79892385161,
			"-0.007": 9.16990909806,
			"-0.006": 10.8987265522,
			"-0.005": 10.3837382573,
			"-0.004": 9.73085412973,
			"-0.003": 11.5531666768,
			"-0.002": 13.4552506937,
			"-0.001": 17.3358980517,
			"0.0": 16.575411044,
			"0.001": 17.0170127807,
			"0.002": 14.5017984865,
			"0.003": 19.6010136944,
			"0.004": 12.697104308,
			"0.005": 7.06699943167,
			"0.006": 7.02693060449,
			"0.007": 5.70417413937,
			"0.008": 5.92358925918,
			"0.009": 8.74619973075,
			"0.01": 11.3990644273,
			"0.011": 7.57941274536,
			"0.012": 3.00230132105,
			"0.013": 2.30438710615,
			"0.014": 1.59845339832,
			"0.015": 0.253082516044,
			"0.016": 0.0,
			"0.017": 0.0,
			"0.018": 0.0,
			"0.019": 0.0,
			"0.02": 0.0,
			"0.021": 0.0,
			"0.022": 0.0,
			"0.023": 0.0,
			"0.024": 0.0,
			"0.025": 0.0
		}
	}
}
