{
	 "smiles": "CC1CC2=C(C=CC=C2)N1C1=C(C=CC=C1)C(O)=O", 
	 "Tm": 398.15, 
	 "num_atms": 34, 
	 "gaussian": { 
		 "optdone": 1, 
		 "sigma_profile": "yes", 
		 "theory": "DFT", 
		 "functional": "B3LYP", 
		 "basiset": "6-31G**", 
		 "properties": { 
			 "R2extent": 4585.189, 
			 "electric_dipole_moment_norm": 2.99012839524, 
			 "electric_quadrupole_moment_norm": 7.23459184336, 
			 "total_energy": -823.961931262, 
			 "HOMO_LUMO_gap": 0.14187, 
			 "cosmo_polarized_energy": -12.11, 
			 "cosmo_cavitation_energy": 36.08, 
			 "cosmo_dispersion_energy": -25.16, 
			 "cosmo_repulsion_energy": 1.93, 
			 "cosmo_total_nonelectrostatic_energy": 12.85, 
			 "SMD_solvation_energy": 6.89 
		},
		"coords": [
			{
				"x": -1.2539877022,
				"y": -2.430523639,
				"z": -2.2819123137,
				"element": "C" 
			},
			{
				"x": -1.8583529103,
				"y": -1.5681480679,
				"z": -1.1775734363,
				"element": "C" 
			},
			{
				"x": -2.9637023066,
				"y": -0.6023143746,
				"z": -1.6752922493,
				"element": "C" 
			},
			{
				"x": -2.7693888927,
				"y": 0.6234479498,
				"z": -0.8158332888,
				"element": "C" 
			},
			{
				"x": -1.5028834665,
				"y": 0.5539306418,
				"z": -0.2112844025,
				"element": "C" 
			},
			{
				"x": -1.0594520818,
				"y": 1.5744965719,
				"z": 0.6324061899,
				"element": "C" 
			},
			{
				"x": -1.9039714442,
				"y": 2.670262513,
				"z": 0.8462532622,
				"element": "C" 
			},
			{
				"x": -3.160220185,
				"y": 2.7503414354,
				"z": 0.2435063871,
				"element": "C" 
			},
			{
				"x": -3.5959601429,
				"y": 1.7148027388,
				"z": -0.5957424505,
				"element": "C" 
			},
			{
				"x": -0.8674728377,
				"y": -0.6500751132,
				"z": -0.5596713811,
				"element": "N" 
			},
			{
				"x": 0.3375914589,
				"y": -1.1071253806,
				"z": -0.0014264262,
				"element": "C" 
			},
			{
				"x": 1.5423091805,
				"y": -0.3611723439,
				"z": -0.07932743,
				"element": "C" 
			},
			{
				"x": 2.6879804854,
				"y": -0.8277012361,
				"z": 0.5856430265,
				"element": "C" 
			},
			{
				"x": 2.6946797317,
				"y": -2.0436932299,
				"z": 1.2576559169,
				"element": "C" 
			},
			{
				"x": 1.5264342298,
				"y": -2.809050161,
				"z": 1.284077207,
				"element": "C" 
			},
			{
				"x": 0.3661052265,
				"y": -2.3409672584,
				"z": 0.6761281315,
				"element": "C" 
			},
			{
				"x": 1.7449226655,
				"y": 0.8908558559,
				"z": -0.8677617554,
				"element": "C" 
			},
			{
				"x": 0.9181890967,
				"y": 1.0291670958,
				"z": -1.9281504053,
				"element": "O" 
			},
			{
				"x": 2.6188986412,
				"y": 1.7039922041,
				"z": -0.6305260271,
				"element": "O" 
			},
			{
				"x": -2.033850866,
				"y": -3.0466462402,
				"z": -2.7413799599,
				"element": "H" 
			},
			{
				"x": -0.8083801026,
				"y": -1.79610507,
				"z": -3.0541199645,
				"element": "H" 
			},
			{
				"x": -0.4785169949,
				"y": -3.1000119505,
				"z": -1.9000030285,
				"element": "H" 
			},
			{
				"x": -2.2915813679,
				"y": -2.2187626896,
				"z": -0.3996754321,
				"element": "H" 
			},
			{
				"x": -2.8001987794,
				"y": -0.3617953406,
				"z": -2.7353860517,
				"element": "H" 
			},
			{
				"x": -3.9589892303,
				"y": -1.0487169908,
				"z": -1.5914671517,
				"element": "H" 
			},
			{
				"x": -0.0940049499,
				"y": 1.5243781464,
				"z": 1.1235749594,
				"element": "H" 
			},
			{
				"x": -1.5701111104,
				"y": 3.4684263652,
				"z": 1.503466515,
				"element": "H" 
			},
			{
				"x": -3.7998816713,
				"y": 3.6080165042,
				"z": 0.427148997,
				"element": "H" 
			},
			{
				"x": -4.5755004203,
				"y": 1.7636188275,
				"z": -1.0650772499,
				"element": "H" 
			},
			{
				"x": 3.581228787,
				"y": -0.2147871688,
				"z": 0.5324175666,
				"element": "H" 
			},
			{
				"x": 3.597533807,
				"y": -2.3942314563,
				"z": 1.7473299825,
				"element": "H" 
			},
			{
				"x": 1.5090837985,
				"y": -3.7639015907,
				"z": 1.802196854,
				"element": "H" 
			},
			{
				"x": -0.5466520806,
				"y": -2.9219032114,
				"z": 0.7507641596,
				"element": "H" 
			},
			{
				"x": 1.1705024347,
				"y": 1.8730956638,
				"z": -2.3392587506,
				"element": "H" 
			}
		],
		 "valence_orbital": [ 
			{
				"type": "occ",
				"energy": -0.27561,
				"method": "rhf"
			},
			{
				"type": "occ",
				"energy": -0.25752,
				"method": "rhf"
			},
			{
				"type": "occ",
				"energy": -0.25302,
				"method": "rhf"
			},
			{
				"type": "occ",
				"energy": -0.23891,
				"method": "rhf"
			},
			{
				"type": "occ",
				"energy": -0.1854,
				"method": "rhf"
			},
			{
				"type": "unocc",
				"energy": -0.04353,
				"method": "rhf"
			},
			{
				"type": "unocc",
				"energy": -0.01189,
				"method": "rhf"
			},
			{
				"type": "unocc",
				"energy": 0.00537,
				"method": "rhf"
			},
			{
				"type": "unocc",
				"energy": 0.02573,
				"method": "rhf"
			},
			{
				"type": "unocc",
				"energy": 0.05146,
				"method": "rhf"
			}
		],
		"cosmo_sigma_profile": { 
			"-0.025": 0.0,
			"-0.024": 0.0,
			"-0.023": 0.0,
			"-0.022": 0.0,
			"-0.021": 0.0,
			"-0.02": 0.0,
			"-0.019": 0.0,
			"-0.018": 0.43282175983,
			"-0.017": 0.996189498753,
			"-0.016": 0.552237602744,
			"-0.015": 0.980374327575,
			"-0.014": 0.819274203476,
			"-0.013": 0.447252826232,
			"-0.012": 0.574659294268,
			"-0.011": 0.971049111008,
			"-0.01": 0.592815613868,
			"-0.009": 0.874986464857,
			"-0.008": 0.346209250889,
			"-0.007": 2.21152547915,
			"-0.006": 9.7266354981,
			"-0.005": 17.3430577756,
			"-0.004": 26.235173082,
			"-0.003": 29.3400284216,
			"-0.002": 27.4508172377,
			"-0.001": 25.0626241921,
			"0.0": 20.577098318,
			"0.001": 20.9101940199,
			"0.002": 16.6611811293,
			"0.003": 18.3519882098,
			"0.004": 18.0463838048,
			"0.005": 10.2815537696,
			"0.006": 9.91884141047,
			"0.007": 10.2394198194,
			"0.008": 4.25125098522,
			"0.009": 2.44358878473,
			"0.01": 1.7578122349,
			"0.011": 2.70559218781,
			"0.012": 4.97320727135,
			"0.013": 0.511729362093,
			"0.014": 0.0,
			"0.015": 0.0,
			"0.016": 0.0,
			"0.017": 0.0,
			"0.018": 0.0,
			"0.019": 0.0,
			"0.02": 0.0,
			"0.021": 0.0,
			"0.022": 0.0,
			"0.023": 0.0,
			"0.024": 0.0,
			"0.025": 0.0
		}
	}
}
