{
	 "smiles": "NC1=CC=C(C=C1)C1=NN=C(O)O1", 
	 "Tm": 440.15, 
	 "num_atms": 20, 
	 "gaussian": { 
		 "optdone": 1, 
		 "sigma_profile": "yes", 
		 "theory": "DFT", 
		 "functional": "B3LYP", 
		 "basiset": "6-31G**", 
		 "properties": { 
			 "R2extent": 3539.2506, 
			 "electric_dipole_moment_norm": 6.64435509813, 
			 "electric_quadrupole_moment_norm": 25.0704123879, 
			 "total_energy": -623.739315663, 
			 "HOMO_LUMO_gap": 0.17076, 
			 "cosmo_polarized_energy": -21.8, 
			 "cosmo_cavitation_energy": 25.44, 
			 "cosmo_dispersion_energy": -19.17, 
			 "cosmo_repulsion_energy": 1.51, 
			 "cosmo_total_nonelectrostatic_energy": 7.79, 
			 "SMD_solvation_energy": 3.51 
		},
		"coords": [
			{
				"x": 1.7475696852,
				"y": -0.9738337776,
				"z": 3.1851612974,
				"element": "N" 
			},
			{
				"x": 0.9490158807,
				"y": -0.3842854218,
				"z": 2.2151030933,
				"element": "C" 
			},
			{
				"x": 1.5082167148,
				"y": 0.4767765471,
				"z": 1.2490960146,
				"element": "C" 
			},
			{
				"x": 0.7224526726,
				"y": 1.0248210777,
				"z": 0.2484307853,
				"element": "C" 
			},
			{
				"x": -0.651804961,
				"y": 0.734132702,
				"z": 0.1739867661,
				"element": "C" 
			},
			{
				"x": -1.2111483054,
				"y": -0.1236093165,
				"z": 1.1340866567,
				"element": "C" 
			},
			{
				"x": -0.4259579307,
				"y": -0.6739498261,
				"z": 2.1385364718,
				"element": "C" 
			},
			{
				"x": -1.4496332019,
				"y": 1.3268845625,
				"z": -0.8848195341,
				"element": "C" 
			},
			{
				"x": -1.0905057099,
				"y": 2.13761124,
				"z": -1.8321128055,
				"element": "N" 
			},
			{
				"x": -2.2292280343,
				"y": 2.4214023319,
				"z": -2.6014590557,
				"element": "N" 
			},
			{
				"x": -3.1821191255,
				"y": 1.7521175174,
				"z": -2.0459110752,
				"element": "C" 
			},
			{
				"x": -4.4597004019,
				"y": 1.7019905324,
				"z": -2.4206634176,
				"element": "O" 
			},
			{
				"x": -2.8024365097,
				"y": 1.0293221426,
				"z": -0.9588544747,
				"element": "O" 
			},
			{
				"x": 2.6188207472,
				"y": -0.5064169654,
				"z": 3.3907939283,
				"element": "H" 
			},
			{
				"x": 1.2744387763,
				"y": -1.306639968,
				"z": 4.012909312,
				"element": "H" 
			},
			{
				"x": 2.5694233742,
				"y": 0.7084856284,
				"z": 1.2905691112,
				"element": "H" 
			},
			{
				"x": 1.1589406411,
				"y": 1.6885511403,
				"z": -0.4904877488,
				"element": "H" 
			},
			{
				"x": -2.2698094999,
				"y": -0.358455751,
				"z": 1.0945396422,
				"element": "H" 
			},
			{
				"x": -0.8746371115,
				"y": -1.3387766682,
				"z": 2.8721373223,
				"element": "H" 
			},
			{
				"x": -4.9404977004,
				"y": 1.1158722723,
				"z": -1.8201422897,
				"element": "H" 
			}
		],
		 "valence_orbital": [ 
			{
				"type": "occ",
				"energy": -0.31237,
				"method": "rhf"
			},
			{
				"type": "occ",
				"energy": -0.26736,
				"method": "rhf"
			},
			{
				"type": "occ",
				"energy": -0.26099,
				"method": "rhf"
			},
			{
				"type": "occ",
				"energy": -0.25848,
				"method": "rhf"
			},
			{
				"type": "occ",
				"energy": -0.20254,
				"method": "rhf"
			},
			{
				"type": "unocc",
				"energy": -0.03178,
				"method": "rhf"
			},
			{
				"type": "unocc",
				"energy": -0.00843,
				"method": "rhf"
			},
			{
				"type": "unocc",
				"energy": 0.04374,
				"method": "rhf"
			},
			{
				"type": "unocc",
				"energy": 0.04778,
				"method": "rhf"
			},
			{
				"type": "unocc",
				"energy": 0.06582,
				"method": "rhf"
			}
		],
		"cosmo_sigma_profile": { 
			"-0.025": 0.0,
			"-0.024": 0.0,
			"-0.023": 0.0,
			"-0.022": 0.0,
			"-0.021": 0.516336060826,
			"-0.02": 1.09292894505,
			"-0.019": 1.16691963506,
			"-0.018": 1.0384865416,
			"-0.017": 0.650949635788,
			"-0.016": 0.219484686898,
			"-0.015": 0.609464145424,
			"-0.014": 1.70925924202,
			"-0.013": 3.22589813557,
			"-0.012": 2.99184988723,
			"-0.011": 3.60674695897,
			"-0.01": 4.69369909802,
			"-0.009": 4.08423149009,
			"-0.008": 3.3501206584,
			"-0.007": 4.36656043346,
			"-0.006": 8.35435603164,
			"-0.005": 9.92791866575,
			"-0.004": 11.3567733669,
			"-0.003": 8.55857087345,
			"-0.002": 9.07101762579,
			"-0.001": 11.3400618776,
			"0.0": 10.5812936727,
			"0.001": 11.1447584236,
			"0.002": 12.2881259757,
			"0.003": 11.8658041365,
			"0.004": 14.2355923166,
			"0.005": 13.3500961862,
			"0.006": 4.76699470582,
			"0.007": 5.54639313416,
			"0.008": 5.00631136112,
			"0.009": 3.65851719176,
			"0.01": 3.49284534696,
			"0.011": 2.59171117209,
			"0.012": 5.04837948189,
			"0.013": 3.5580791105,
			"0.014": 2.66236541137,
			"0.015": 1.90958064976,
			"0.016": 0.274919408607,
			"0.017": 0.0,
			"0.018": 0.0,
			"0.019": 0.0,
			"0.02": 0.0,
			"0.021": 0.0,
			"0.022": 0.0,
			"0.023": 0.0,
			"0.024": 0.0,
			"0.025": 0.0
		}
	}
}
