{
	 "smiles": "CN(C)CC1=C(N=C(N)S1)C1=CC=C(C)C=C1", 
	 "Tm": 449.15, 
	 "num_atms": 34, 
	 "gaussian": { 
		 "optdone": 1, 
		 "sigma_profile": "yes", 
		 "theory": "DFT", 
		 "functional": "B3LYP", 
		 "basiset": "6-31G**", 
		 "properties": { 
			 "R2extent": 5481.2174, 
			 "electric_dipole_moment_norm": 1.37375081438, 
			 "electric_quadrupole_moment_norm": 11.149553392, 
			 "total_energy": -1068.06681475, 
			 "HOMO_LUMO_gap": 0.17509, 
			 "cosmo_polarized_energy": -12.61, 
			 "cosmo_cavitation_energy": 37.92, 
			 "cosmo_dispersion_energy": -26.76, 
			 "cosmo_repulsion_energy": 2.06, 
			 "cosmo_total_nonelectrostatic_energy": 13.22, 
			 "SMD_solvation_energy": 2.39 
		},
		"coords": [
			{
				"x": 0.7267715943,
				"y": -2.8439207549,
				"z": -2.1485468473,
				"element": "C" 
			},
			{
				"x": 0.2115890811,
				"y": -2.3738679089,
				"z": -0.8725654856,
				"element": "N" 
			},
			{
				"x": -1.1425010753,
				"y": -1.8490465813,
				"z": -0.9705918303,
				"element": "C" 
			},
			{
				"x": 1.1207953096,
				"y": -1.5228798238,
				"z": -0.0988299041,
				"element": "C" 
			},
			{
				"x": 1.3210604185,
				"y": -0.0939676643,
				"z": -0.5638528846,
				"element": "C" 
			},
			{
				"x": 0.8238601738,
				"y": 1.0853710241,
				"z": -0.0569355271,
				"element": "C" 
			},
			{
				"x": 1.0904860062,
				"y": 2.2333324672,
				"z": -0.7936904679,
				"element": "N" 
			},
			{
				"x": 1.7985949622,
				"y": 1.9649391059,
				"z": -1.8488496579,
				"element": "C" 
			},
			{
				"x": 2.1585758393,
				"y": 2.9044286034,
				"z": -2.7920554536,
				"element": "N" 
			},
			{
				"x": 2.2003544671,
				"y": 0.2614876718,
				"z": -2.0558483825,
				"element": "S" 
			},
			{
				"x": 0.037787062,
				"y": 1.2538028391,
				"z": 1.188525247,
				"element": "C" 
			},
			{
				"x": 0.3863812556,
				"y": 0.6244296525,
				"z": 2.3928730265,
				"element": "C" 
			},
			{
				"x": -0.3746116728,
				"y": 0.8148107353,
				"z": 3.5465454015,
				"element": "C" 
			},
			{
				"x": -1.5002181837,
				"y": 1.6465072876,
				"z": 3.5445178652,
				"element": "C" 
			},
			{
				"x": -2.34027366,
				"y": 1.8314707041,
				"z": 4.785990751,
				"element": "C" 
			},
			{
				"x": -1.829049179,
				"y": 2.2983142601,
				"z": 2.3465541486,
				"element": "C" 
			},
			{
				"x": -1.0753136433,
				"y": 2.1113835704,
				"z": 1.1920362313,
				"element": "C" 
			},
			{
				"x": 1.7296562999,
				"y": -3.2628055008,
				"z": -2.0104559225,
				"element": "H" 
			},
			{
				"x": 0.7842050336,
				"y": -2.069620066,
				"z": -2.9345581124,
				"element": "H" 
			},
			{
				"x": 0.0795586609,
				"y": -3.6451282596,
				"z": -2.5236828741,
				"element": "H" 
			},
			{
				"x": -1.7992355554,
				"y": -2.622814686,
				"z": -1.3832568715,
				"element": "H" 
			},
			{
				"x": -1.2312173405,
				"y": -0.9520327837,
				"z": -1.6087150836,
				"element": "H" 
			},
			{
				"x": -1.5103015494,
				"y": -1.587358502,
				"z": 0.0266342014,
				"element": "H" 
			},
			{
				"x": 0.7275993405,
				"y": -1.4795826563,
				"z": 0.9202473448,
				"element": "H" 
			},
			{
				"x": 2.0862308265,
				"y": -2.0411654276,
				"z": -0.0446983036,
				"element": "H" 
			},
			{
				"x": 2.0456874894,
				"y": 3.8523442591,
				"z": -2.4556199055,
				"element": "H" 
			},
			{
				"x": 3.0317684033,
				"y": 2.7481473894,
				"z": -3.275519353,
				"element": "H" 
			},
			{
				"x": 1.2815134189,
				"y": 0.0120139715,
				"z": 2.4401274172,
				"element": "H" 
			},
			{
				"x": -0.0767713119,
				"y": 0.3204809625,
				"z": 4.4681721318,
				"element": "H" 
			},
			{
				"x": -3.2284046156,
				"y": 1.1870887357,
				"z": 4.764782197,
				"element": "H" 
			},
			{
				"x": -1.77826001,
				"y": 1.5817918805,
				"z": 5.6907561059,
				"element": "H" 
			},
			{
				"x": -2.6938883666,
				"y": 2.8632417943,
				"z": 4.8809594864,
				"element": "H" 
			},
			{
				"x": -2.6877947362,
				"y": 2.9653412287,
				"z": 2.320381485,
				"element": "H" 
			},
			{
				"x": -1.3358347429,
				"y": 2.6344624721,
				"z": 0.2776698265,
				"element": "H" 
			}
		],
		 "valence_orbital": [ 
			{
				"type": "occ",
				"energy": -0.26758,
				"method": "rhf"
			},
			{
				"type": "occ",
				"energy": -0.24313,
				"method": "rhf"
			},
			{
				"type": "occ",
				"energy": -0.23699,
				"method": "rhf"
			},
			{
				"type": "occ",
				"energy": -0.20682,
				"method": "rhf"
			},
			{
				"type": "occ",
				"energy": -0.19369,
				"method": "rhf"
			},
			{
				"type": "unocc",
				"energy": -0.0186,
				"method": "rhf"
			},
			{
				"type": "unocc",
				"energy": 0.00384,
				"method": "rhf"
			},
			{
				"type": "unocc",
				"energy": 0.01318,
				"method": "rhf"
			},
			{
				"type": "unocc",
				"energy": 0.01852,
				"method": "rhf"
			},
			{
				"type": "unocc",
				"energy": 0.07299,
				"method": "rhf"
			}
		],
		"cosmo_sigma_profile": { 
			"-0.025": 0.0,
			"-0.024": 0.0,
			"-0.023": 0.0,
			"-0.022": 0.0,
			"-0.021": 0.0,
			"-0.02": 0.0,
			"-0.019": 0.0,
			"-0.018": 0.0,
			"-0.017": 0.0,
			"-0.016": 0.0,
			"-0.015": 0.10280570709,
			"-0.014": 1.61436071382,
			"-0.013": 2.75259782444,
			"-0.012": 2.24860786665,
			"-0.011": 2.8507380209,
			"-0.01": 2.95582244691,
			"-0.009": 1.43736761765,
			"-0.008": 1.86729468093,
			"-0.007": 2.17334760797,
			"-0.006": 2.05072580061,
			"-0.005": 12.5968736382,
			"-0.004": 23.5599195297,
			"-0.003": 28.3491581182,
			"-0.002": 26.1474965464,
			"-0.001": 30.1530313179,
			"0.0": 36.4602454942,
			"0.001": 22.7941606909,
			"0.002": 20.8827459689,
			"0.003": 18.3040400651,
			"0.004": 17.3734330156,
			"0.005": 12.2324755461,
			"0.006": 11.2314039827,
			"0.007": 4.27504292399,
			"0.008": 3.53047981986,
			"0.009": 2.0194066647,
			"0.01": 2.73537509196,
			"0.011": 2.53019603039,
			"0.012": 2.10006338454,
			"0.013": 1.09029146748,
			"0.014": 1.22004807636,
			"0.015": 1.00491692241,
			"0.016": 0.197297224541,
			"0.017": 0.0,
			"0.018": 0.0,
			"0.019": 0.0,
			"0.02": 0.0,
			"0.021": 0.0,
			"0.022": 0.0,
			"0.023": 0.0,
			"0.024": 0.0,
			"0.025": 0.0
		}
	}
}
