{
	 "smiles": "COC1=CC=C(C=C1)C(=O)CC(=O)C1=CC=C(C=C1)C(C)(C)C", 
	 "Tm": 356.65, 
	 "num_atms": 45, 
	 "gaussian": { 
		 "optdone": 1, 
		 "sigma_profile": "yes", 
		 "theory": "DFT", 
		 "functional": "B3LYP", 
		 "basiset": "6-31G**", 
		 "properties": { 
			 "R2extent": 13974.6364, 
			 "electric_dipole_moment_norm": 5.74374263612, 
			 "electric_quadrupole_moment_norm": 24.252899055, 
			 "total_energy": -1001.06429656, 
			 "HOMO_LUMO_gap": 0.168, 
			 "cosmo_polarized_energy": -17.53, 
			 "cosmo_cavitation_energy": 47.74, 
			 "cosmo_dispersion_energy": -33.35, 
			 "cosmo_repulsion_energy": 2.51, 
			 "cosmo_total_nonelectrostatic_energy": 16.91, 
			 "SMD_solvation_energy": 9.75 
		},
		"coords": [
			{
				"x": -5.3869714437,
				"y": -2.5520465591,
				"z": 4.982391065,
				"element": "C" 
			},
			{
				"x": -6.1125912039,
				"y": -2.0649500026,
				"z": 3.8623506837,
				"element": "O" 
			},
			{
				"x": -5.4236525065,
				"y": -1.7103132864,
				"z": 2.7457897249,
				"element": "C" 
			},
			{
				"x": -4.0320998774,
				"y": -1.8023420615,
				"z": 2.6069939439,
				"element": "C" 
			},
			{
				"x": -3.4343690574,
				"y": -1.4100520845,
				"z": 1.4096932549,
				"element": "C" 
			},
			{
				"x": -4.196246538,
				"y": -0.9245068864,
				"z": 0.3401189892,
				"element": "C" 
			},
			{
				"x": -5.5931872171,
				"y": -0.83530253,
				"z": 0.5007387626,
				"element": "C" 
			},
			{
				"x": -6.2018522472,
				"y": -1.2222539751,
				"z": 1.6802804019,
				"element": "C" 
			},
			{
				"x": -3.6110013245,
				"y": -0.5009879077,
				"z": -0.9588474383,
				"element": "C" 
			},
			{
				"x": -4.3092069935,
				"y": -0.0440616928,
				"z": -1.8531798523,
				"element": "O" 
			},
			{
				"x": -2.1123021808,
				"y": -0.6785770022,
				"z": -1.2150370302,
				"element": "C" 
			},
			{
				"x": -1.2440237268,
				"y": 0.3925354481,
				"z": -0.5475636215,
				"element": "C" 
			},
			{
				"x": -1.7320769777,
				"y": 1.2012225006,
				"z": 0.2270638832,
				"element": "O" 
			},
			{
				"x": 0.2169012644,
				"y": 0.4166954888,
				"z": -0.8686889949,
				"element": "C" 
			},
			{
				"x": 0.8349208027,
				"y": -0.4977487551,
				"z": -1.7357573965,
				"element": "C" 
			},
			{
				"x": 2.2011206139,
				"y": -0.4219201392,
				"z": -1.9862786461,
				"element": "C" 
			},
			{
				"x": 3.0080693999,
				"y": 0.5632841739,
				"z": -1.3894765697,
				"element": "C" 
			},
			{
				"x": 2.3781434441,
				"y": 1.4724663803,
				"z": -0.5242352682,
				"element": "C" 
			},
			{
				"x": 1.0119084428,
				"y": 1.401733595,
				"z": -0.2677366231,
				"element": "C" 
			},
			{
				"x": 4.5145355039,
				"y": 0.6107304981,
				"z": -1.6988660162,
				"element": "C" 
			},
			{
				"x": 5.2305139578,
				"y": 1.7538965746,
				"z": -0.9547567337,
				"element": "C" 
			},
			{
				"x": 4.7184011574,
				"y": 0.8209052405,
				"z": -3.2187582875,
				"element": "C" 
			},
			{
				"x": 5.1673718025,
				"y": -0.7266051286,
				"z": -1.2734211082,
				"element": "C" 
			},
			{
				"x": -6.1302614518,
				"y": -2.7645092831,
				"z": 5.7519763053,
				"element": "H" 
			},
			{
				"x": -4.6786781716,
				"y": -1.8041903193,
				"z": 5.3600398857,
				"element": "H" 
			},
			{
				"x": -4.8431456557,
				"y": -3.4739538314,
				"z": 4.7409372195,
				"element": "H" 
			},
			{
				"x": -3.412984718,
				"y": -2.1685538435,
				"z": 3.4169224431,
				"element": "H" 
			},
			{
				"x": -2.3544608058,
				"y": -1.4752331484,
				"z": 1.3298394461,
				"element": "H" 
			},
			{
				"x": -6.1785185797,
				"y": -0.4534145542,
				"z": -0.328854446,
				"element": "H" 
			},
			{
				"x": -7.2768328442,
				"y": -1.1584142339,
				"z": 1.8133229519,
				"element": "H" 
			},
			{
				"x": -1.7666039568,
				"y": -1.6684106733,
				"z": -0.8905727653,
				"element": "H" 
			},
			{
				"x": -1.9758337958,
				"y": -0.6278127745,
				"z": -2.299592672,
				"element": "H" 
			},
			{
				"x": 0.2547182455,
				"y": -1.274989089,
				"z": -2.2228910992,
				"element": "H" 
			},
			{
				"x": 2.6450576634,
				"y": -1.1455361139,
				"z": -2.6630887761,
				"element": "H" 
			},
			{
				"x": 2.9547340616,
				"y": 2.2515160706,
				"z": -0.0394180374,
				"element": "H" 
			},
			{
				"x": 0.5335156938,
				"y": 2.1088719174,
				"z": 0.4018877053,
				"element": "H" 
			},
			{
				"x": 5.1486550511,
				"y": 1.6484542095,
				"z": 0.1319924253,
				"element": "H" 
			},
			{
				"x": 6.2956971722,
				"y": 1.7453418451,
				"z": -1.2068613234,
				"element": "H" 
			},
			{
				"x": 4.8339632824,
				"y": 2.7351502475,
				"z": -1.2350997104,
				"element": "H" 
			},
			{
				"x": 5.7875008757,
				"y": 0.8531513088,
				"z": -3.4563866225,
				"element": "H" 
			},
			{
				"x": 4.2687857178,
				"y": 1.763213269,
				"z": -3.5482092561,
				"element": "H" 
			},
			{
				"x": 4.2714133727,
				"y": 0.0138729076,
				"z": -3.8066137984,
				"element": "H" 
			},
			{
				"x": 4.7336205362,
				"y": -1.5799902571,
				"z": -1.8028975127,
				"element": "H" 
			},
			{
				"x": 5.0423695345,
				"y": -0.9001734176,
				"z": -0.1995926287,
				"element": "H" 
			},
			{
				"x": 6.240883678,
				"y": -0.710192125,
				"z": -1.4919568569,
				"element": "H" 
			}
		],
		 "valence_orbital": [ 
			{
				"type": "occ",
				"energy": -0.25574,
				"method": "rhf"
			},
			{
				"type": "occ",
				"energy": -0.25417,
				"method": "rhf"
			},
			{
				"type": "occ",
				"energy": -0.251,
				"method": "rhf"
			},
			{
				"type": "occ",
				"energy": -0.23872,
				"method": "rhf"
			},
			{
				"type": "occ",
				"energy": -0.22467,
				"method": "rhf"
			},
			{
				"type": "unocc",
				"energy": -0.05667,
				"method": "rhf"
			},
			{
				"type": "unocc",
				"energy": -0.04296,
				"method": "rhf"
			},
			{
				"type": "unocc",
				"energy": -0.01032,
				"method": "rhf"
			},
			{
				"type": "unocc",
				"energy": -0.0037,
				"method": "rhf"
			},
			{
				"type": "unocc",
				"energy": 0.03755,
				"method": "rhf"
			}
		],
		"cosmo_sigma_profile": { 
			"-0.025": 0.0,
			"-0.024": 0.0,
			"-0.023": 0.0,
			"-0.022": 0.0,
			"-0.021": 0.0,
			"-0.02": 0.0,
			"-0.019": 0.0,
			"-0.018": 0.0,
			"-0.017": 0.0,
			"-0.016": 0.0,
			"-0.015": 0.0,
			"-0.014": 0.0,
			"-0.013": 0.0,
			"-0.012": 0.0,
			"-0.011": 0.0,
			"-0.01": 0.0821957620941,
			"-0.009": 1.02757086985,
			"-0.008": 2.88251780204,
			"-0.007": 11.0266337121,
			"-0.006": 21.3611529779,
			"-0.005": 26.0897720838,
			"-0.004": 26.9713176536,
			"-0.003": 37.1316645878,
			"-0.002": 33.1288708452,
			"-0.001": 28.1435485687,
			"0.0": 29.563104561,
			"0.001": 35.0903063474,
			"0.002": 25.4155086104,
			"0.003": 24.8309122461,
			"0.004": 24.0890630854,
			"0.005": 10.051069263,
			"0.006": 6.71734318654,
			"0.007": 3.96276440865,
			"0.008": 4.54391567686,
			"0.009": 6.13639399431,
			"0.01": 4.46071890509,
			"0.011": 6.44601434757,
			"0.012": 6.37244467052,
			"0.013": 1.5569195597,
			"0.014": 0.099395411235,
			"0.015": 0.0,
			"0.016": 0.0,
			"0.017": 0.0,
			"0.018": 0.0,
			"0.019": 0.0,
			"0.02": 0.0,
			"0.021": 0.0,
			"0.022": 0.0,
			"0.023": 0.0,
			"0.024": 0.0,
			"0.025": 0.0
		}
	}
}
