{
	 "smiles": "OCC1=CN=C(C=C1)N1CCCC1", 
	 "Tm": 334.65, 
	 "num_atms": 27, 
	 "gaussian": { 
		 "optdone": 1, 
		 "sigma_profile": "yes", 
		 "theory": "DFT", 
		 "functional": "B3LYP", 
		 "basiset": "6-31G**", 
		 "properties": { 
			 "R2extent": 3590.1727, 
			 "electric_dipole_moment_norm": 1.60372115718, 
			 "electric_quadrupole_moment_norm": 16.1226271172, 
			 "total_energy": -574.220881907, 
			 "HOMO_LUMO_gap": 0.18342, 
			 "cosmo_polarized_energy": -11.35, 
			 "cosmo_cavitation_energy": 29.0, 
			 "cosmo_dispersion_energy": -21.8, 
			 "cosmo_repulsion_energy": 1.75, 
			 "cosmo_total_nonelectrostatic_energy": 8.95, 
			 "SMD_solvation_energy": 2.75 
		},
		"coords": [
			{
				"x": -1.4020725176,
				"y": 2.7384293015,
				"z": -3.3295589181,
				"element": "O" 
			},
			{
				"x": -0.2172782382,
				"y": 1.9561218349,
				"z": -3.4845003592,
				"element": "C" 
			},
			{
				"x": -0.1127938295,
				"y": 0.9873060961,
				"z": -2.3392019809,
				"element": "C" 
			},
			{
				"x": 0.1175986593,
				"y": -0.3721585514,
				"z": -2.5407064295,
				"element": "C" 
			},
			{
				"x": 0.2469174397,
				"y": -1.2815233469,
				"z": -1.5696460734,
				"element": "N" 
			},
			{
				"x": 0.1395080796,
				"y": -0.86254439,
				"z": -0.2931338984,
				"element": "C" 
			},
			{
				"x": -0.1035845381,
				"y": 0.498239556,
				"z": 0.0286915488,
				"element": "C" 
			},
			{
				"x": -0.2276269973,
				"y": 1.4092121492,
				"z": -1.0046210334,
				"element": "C" 
			},
			{
				"x": 0.2770581406,
				"y": -1.8190526743,
				"z": 0.6760350324,
				"element": "N" 
			},
			{
				"x": 0.1186566416,
				"y": -1.5717875714,
				"z": 2.1059474623,
				"element": "C" 
			},
			{
				"x": 0.0990321923,
				"y": -2.9838008804,
				"z": 2.7154736628,
				"element": "C" 
			},
			{
				"x": 0.951700267,
				"y": -3.806232467,
				"z": 1.7347367177,
				"element": "C" 
			},
			{
				"x": 0.5825410996,
				"y": -3.2180246769,
				"z": 0.3653882415,
				"element": "C" 
			},
			{
				"x": -1.3707426427,
				"y": 3.4499466047,
				"z": -3.98176599,
				"element": "H" 
			},
			{
				"x": 0.6695489923,
				"y": 2.6125559991,
				"z": -3.5053908663,
				"element": "H" 
			},
			{
				"x": -0.2229996649,
				"y": 1.3976389989,
				"z": -4.4342852321,
				"element": "H" 
			},
			{
				"x": 0.2022438566,
				"y": -0.7592493686,
				"z": -3.5572613977,
				"element": "H" 
			},
			{
				"x": -0.1849980885,
				"y": 0.8211088921,
				"z": 1.0600741792,
				"element": "H" 
			},
			{
				"x": -0.4259597174,
				"y": 2.4551685941,
				"z": -0.7882678777,
				"element": "H" 
			},
			{
				"x": -0.8058688459,
				"y": -1.0192792933,
				"z": 2.3165992606,
				"element": "H" 
			},
			{
				"x": 0.9547286684,
				"y": -0.9743427189,
				"z": 2.5035807586,
				"element": "H" 
			},
			{
				"x": -0.9279799011,
				"y": -3.3657557557,
				"z": 2.7312356617,
				"element": "H" 
			},
			{
				"x": 0.476691704,
				"y": -2.9997297974,
				"z": 3.7414538507,
				"element": "H" 
			},
			{
				"x": 0.7590079459,
				"y": -4.8808780939,
				"z": 1.794435796,
				"element": "H" 
			},
			{
				"x": 2.0171364695,
				"y": -3.6454861382,
				"z": 1.9363261982,
				"element": "H" 
			},
			{
				"x": -0.2906578033,
				"y": -3.7219206423,
				"z": -0.0736818881,
				"element": "H" 
			},
			{
				"x": 1.3892926281,
				"y": -3.2813616599,
				"z": -0.3695564256,
				"element": "H" 
			}
		],
		 "valence_orbital": [ 
			{
				"type": "occ",
				"energy": -0.28243,
				"method": "rhf"
			},
			{
				"type": "occ",
				"energy": -0.26483,
				"method": "rhf"
			},
			{
				"type": "occ",
				"energy": -0.25961,
				"method": "rhf"
			},
			{
				"type": "occ",
				"energy": -0.24083,
				"method": "rhf"
			},
			{
				"type": "occ",
				"energy": -0.18665,
				"method": "rhf"
			},
			{
				"type": "unocc",
				"energy": -0.00323,
				"method": "rhf"
			},
			{
				"type": "unocc",
				"energy": 0.01735,
				"method": "rhf"
			},
			{
				"type": "unocc",
				"energy": 0.0847,
				"method": "rhf"
			},
			{
				"type": "unocc",
				"energy": 0.08525,
				"method": "rhf"
			},
			{
				"type": "unocc",
				"energy": 0.11581,
				"method": "rhf"
			}
		],
		"cosmo_sigma_profile": { 
			"-0.025": 0.0,
			"-0.024": 0.0,
			"-0.023": 0.0,
			"-0.022": 0.0,
			"-0.021": 0.0,
			"-0.02": 0.0,
			"-0.019": 0.0,
			"-0.018": 0.0,
			"-0.017": 0.0,
			"-0.016": 0.205279134084,
			"-0.015": 1.2127804337,
			"-0.014": 0.865439640906,
			"-0.013": 1.10375619422,
			"-0.012": 1.04627722173,
			"-0.011": 0.935906300322,
			"-0.01": 0.312880037266,
			"-0.009": 0.555583605638,
			"-0.008": 1.05151995121,
			"-0.007": 1.34516894712,
			"-0.006": 2.84161393385,
			"-0.005": 9.22654418892,
			"-0.004": 20.4657550405,
			"-0.003": 32.1501560726,
			"-0.002": 34.1203141119,
			"-0.001": 23.5046949258,
			"0.0": 17.4640690832,
			"0.001": 9.51520535604,
			"0.002": 8.15485700414,
			"0.003": 10.3354802816,
			"0.004": 13.5391155285,
			"0.005": 9.00093091816,
			"0.006": 4.42073651285,
			"0.007": 3.40340999957,
			"0.008": 3.16160156968,
			"0.009": 3.40593304464,
			"0.01": 3.09780493141,
			"0.011": 2.32546675119,
			"0.012": 2.36900211696,
			"0.013": 2.7639983114,
			"0.014": 2.28561762659,
			"0.015": 0.883058246515,
			"0.016": 0.160557463672,
			"0.017": 0.0,
			"0.018": 0.0,
			"0.019": 0.0,
			"0.02": 0.0,
			"0.021": 0.0,
			"0.022": 0.0,
			"0.023": 0.0,
			"0.024": 0.0,
			"0.025": 0.0
		}
	}
}
