{
	 "smiles": "C1CC2CCCC(C1)C2", 
	 "Tm": 419.15, 
	 "num_atms": 25, 
	 "gaussian": { 
		 "optdone": 1, 
		 "sigma_profile": "yes", 
		 "theory": "DFT", 
		 "functional": "B3LYP", 
		 "basiset": "6-31G**", 
		 "properties": { 
			 "R2extent": 1178.6068, 
			 "electric_dipole_moment_norm": 0.0684080404631, 
			 "electric_quadrupole_moment_norm": 0.439570460791, 
			 "total_energy": -352.609899593, 
			 "HOMO_LUMO_gap": 0.34684, 
			 "cosmo_polarized_energy": -0.49, 
			 "cosmo_cavitation_energy": 22.77, 
			 "cosmo_dispersion_energy": -17.96, 
			 "cosmo_repulsion_energy": 1.46, 
			 "cosmo_total_nonelectrostatic_energy": 6.27, 
			 "SMD_solvation_energy": 2.56 
		},
		"coords": [
			{
				"x": -1.0639360743,
				"y": 1.4135921845,
				"z": -1.3694611595,
				"element": "C" 
			},
			{
				"x": 0.4705892924,
				"y": 1.2165227099,
				"z": -1.4530564195,
				"element": "C" 
			},
			{
				"x": 0.8988638464,
				"y": -0.2103302962,
				"z": -1.0137288045,
				"element": "C" 
			},
			{
				"x": 1.23232407,
				"y": -0.2798180263,
				"z": 0.5143691999,
				"element": "C" 
			},
			{
				"x": 0.5935939596,
				"y": -1.4909576761,
				"z": 1.2137359861,
				"element": "C" 
			},
			{
				"x": -0.943924743,
				"y": -1.5353737412,
				"z": 1.0277573901,
				"element": "C" 
			},
			{
				"x": -1.3829761002,
				"y": -0.9371847712,
				"z": -0.3368216182,
				"element": "C" 
			},
			{
				"x": -1.6980365769,
				"y": 0.5930253042,
				"z": -0.2342070377,
				"element": "C" 
			},
			{
				"x": -0.2497911129,
				"y": -1.18121887,
				"z": -1.3537811648,
				"element": "C" 
			},
			{
				"x": -1.3028662661,
				"y": 2.4761282462,
				"z": -1.2456343115,
				"element": "H" 
			},
			{
				"x": -1.5222127992,
				"y": 1.1140008783,
				"z": -2.3203425118,
				"element": "H" 
			},
			{
				"x": 0.9831032335,
				"y": 1.9594617944,
				"z": -0.8292666161,
				"element": "H" 
			},
			{
				"x": 0.7980245715,
				"y": 1.4048532449,
				"z": -2.482800346,
				"element": "H" 
			},
			{
				"x": 1.7949722099,
				"y": -0.4970873606,
				"z": -1.5763462854,
				"element": "H" 
			},
			{
				"x": 0.8884651498,
				"y": 0.6368677212,
				"z": 1.0088039083,
				"element": "H" 
			},
			{
				"x": 2.3191789916,
				"y": -0.3011240219,
				"z": 0.6562888606,
				"element": "H" 
			},
			{
				"x": 1.0367632733,
				"y": -2.408460396,
				"z": 0.8066107577,
				"element": "H" 
			},
			{
				"x": 0.8457795801,
				"y": -1.4866198485,
				"z": 2.280409705,
				"element": "H" 
			},
			{
				"x": -1.4403123563,
				"y": -0.9913842001,
				"z": 1.8410383691,
				"element": "H" 
			},
			{
				"x": -1.2819944008,
				"y": -2.5758730153,
				"z": 1.1060068088,
				"element": "H" 
			},
			{
				"x": -2.2892509346,
				"y": -1.4549087656,
				"z": -0.672082614,
				"element": "H" 
			},
			{
				"x": -1.3378486937,
				"y": 0.9800119939,
				"z": 0.7268143228,
				"element": "H" 
			},
			{
				"x": -2.7831842458,
				"y": 0.7486969314,
				"z": -0.2265032221,
				"element": "H" 
			},
			{
				"x": 0.0790232745,
				"y": -2.2257447052,
				"z": -1.3065527048,
				"element": "H" 
			},
			{
				"x": -0.5897471487,
				"y": -1.0153753146,
				"z": -2.3825504928,
				"element": "H" 
			}
		],
		 "valence_orbital": [ 
			{
				"type": "occ",
				"energy": -0.32586,
				"method": "rhf"
			},
			{
				"type": "occ",
				"energy": -0.31374,
				"method": "rhf"
			},
			{
				"type": "occ",
				"energy": -0.28358,
				"method": "rhf"
			},
			{
				"type": "occ",
				"energy": -0.27472,
				"method": "rhf"
			},
			{
				"type": "occ",
				"energy": -0.27251,
				"method": "rhf"
			},
			{
				"type": "unocc",
				"energy": 0.07433,
				"method": "rhf"
			},
			{
				"type": "unocc",
				"energy": 0.10369,
				"method": "rhf"
			},
			{
				"type": "unocc",
				"energy": 0.11146,
				"method": "rhf"
			},
			{
				"type": "unocc",
				"energy": 0.13174,
				"method": "rhf"
			},
			{
				"type": "unocc",
				"energy": 0.13694,
				"method": "rhf"
			}
		],
		"cosmo_sigma_profile": { 
			"-0.025": 0.0,
			"-0.024": 0.0,
			"-0.023": 0.0,
			"-0.022": 0.0,
			"-0.021": 0.0,
			"-0.02": 0.0,
			"-0.019": 0.0,
			"-0.018": 0.0,
			"-0.017": 0.0,
			"-0.016": 0.0,
			"-0.015": 0.0,
			"-0.014": 0.0,
			"-0.013": 0.0,
			"-0.012": 0.0,
			"-0.011": 0.0,
			"-0.01": 0.0,
			"-0.009": 0.0,
			"-0.008": 0.0,
			"-0.007": 0.0,
			"-0.006": 0.0,
			"-0.005": 0.0,
			"-0.004": 0.0,
			"-0.003": 0.296068049071,
			"-0.002": 21.7851251245,
			"-0.001": 40.6800859899,
			"0.0": 47.2649446172,
			"0.001": 41.3132406987,
			"0.002": 22.0741843914,
			"0.003": 0.23314218925,
			"0.004": 0.0,
			"0.005": 0.0,
			"0.006": 0.0,
			"0.007": 0.0,
			"0.008": 0.0,
			"0.009": 0.0,
			"0.01": 0.0,
			"0.011": 0.0,
			"0.012": 0.0,
			"0.013": 0.0,
			"0.014": 0.0,
			"0.015": 0.0,
			"0.016": 0.0,
			"0.017": 0.0,
			"0.018": 0.0,
			"0.019": 0.0,
			"0.02": 0.0,
			"0.021": 0.0,
			"0.022": 0.0,
			"0.023": 0.0,
			"0.024": 0.0,
			"0.025": 0.0
		}
	}
}
