{
	 "smiles": "NC1=NC(N2CCCCC2)=C(C(SC2=CC=C(Cl)C=C2)=N1)C1=CC=CC=C1", 
	 "Tm": 462.0, 
	 "num_atms": 48, 
	 "gaussian": { 
		 "optdone": 1, 
		 "sigma_profile": "yes", 
		 "theory": "DFT", 
		 "functional": "B3LYP", 
		 "basiset": "6-31G**", 
		 "properties": { 
			 "R2extent": 15730.9767, 
			 "electric_dipole_moment_norm": 3.34093306278, 
			 "electric_quadrupole_moment_norm": 14.6100387532, 
			 "total_energy": -1890.30773144, 
			 "HOMO_LUMO_gap": 0.17487, 
			 "cosmo_polarized_energy": -13.13, 
			 "cosmo_cavitation_energy": 52.93, 
			 "cosmo_dispersion_energy": -36.39, 
			 "cosmo_repulsion_energy": 2.79, 
			 "cosmo_total_nonelectrostatic_energy": 19.33, 
			 "SMD_solvation_energy": 5.47 
		},
		"coords": [
			{
				"x": 2.1194007941,
				"y": 0.819853897,
				"z": 2.5959233426,
				"element": "N" 
			},
			{
				"x": 1.1540169464,
				"y": 0.4450651423,
				"z": 1.7002202917,
				"element": "C" 
			},
			{
				"x": 1.4169036715,
				"y": 0.6465075065,
				"z": 0.4063653736,
				"element": "N" 
			},
			{
				"x": 0.4931417122,
				"y": 0.2456870922,
				"z": -0.4868321057,
				"element": "C" 
			},
			{
				"x": 0.804170266,
				"y": 0.4713955622,
				"z": -1.8172464738,
				"element": "N" 
			},
			{
				"x": 0.525217695,
				"y": -0.51336851,
				"z": -2.8722366578,
				"element": "C" 
			},
			{
				"x": 1.7530878065,
				"y": -1.3987177755,
				"z": -3.1491281895,
				"element": "C" 
			},
			{
				"x": 2.9944872633,
				"y": -0.5569338271,
				"z": -3.4776505625,
				"element": "C" 
			},
			{
				"x": 3.2346822683,
				"y": 0.50317475,
				"z": -2.3924283209,
				"element": "C" 
			},
			{
				"x": 1.9584236616,
				"y": 1.3197462988,
				"z": -2.1457652704,
				"element": "C" 
			},
			{
				"x": -0.7521433456,
				"y": -0.3157892882,
				"z": -0.0634327355,
				"element": "C" 
			},
			{
				"x": -0.8761022762,
				"y": -0.4720123612,
				"z": 1.3287909593,
				"element": "C" 
			},
			{
				"x": -2.4238727342,
				"y": -1.1364775468,
				"z": 1.9786892724,
				"element": "S" 
			},
			{
				"x": -2.2266564889,
				"y": -0.9571025532,
				"z": 3.7490468414,
				"element": "C" 
			},
			{
				"x": -1.3264870874,
				"y": -1.7508884274,
				"z": 4.4715420461,
				"element": "C" 
			},
			{
				"x": -1.2540865295,
				"y": -1.6511726602,
				"z": 5.8588446148,
				"element": "C" 
			},
			{
				"x": -2.1005020219,
				"y": -0.7615167745,
				"z": 6.5229999617,
				"element": "C" 
			},
			{
				"x": -2.0180382753,
				"y": -0.6402777626,
				"z": 8.2757039178,
				"element": "Cl" 
			},
			{
				"x": -3.0099882248,
				"y": 0.0290768422,
				"z": 5.8244023534,
				"element": "C" 
			},
			{
				"x": -3.0643917221,
				"y": -0.0697330928,
				"z": 4.4327782869,
				"element": "C" 
			},
			{
				"x": 0.0562651813,
				"y": -0.1317921881,
				"z": 2.2141384598,
				"element": "N" 
			},
			{
				"x": -1.9074848741,
				"y": -0.5644947873,
				"z": -0.9729304841,
				"element": "C" 
			},
			{
				"x": -2.4329493953,
				"y": -1.8543944637,
				"z": -1.1601932295,
				"element": "C" 
			},
			{
				"x": -3.5312647096,
				"y": -2.0655064246,
				"z": -1.9957940768,
				"element": "C" 
			},
			{
				"x": -4.1200808687,
				"y": -0.9921288677,
				"z": -2.6652573064,
				"element": "C" 
			},
			{
				"x": -3.6058303786,
				"y": 0.2951831069,
				"z": -2.4908912036,
				"element": "C" 
			},
			{
				"x": -2.5134838412,
				"y": 0.5072078415,
				"z": -1.6511730903,
				"element": "C" 
			},
			{
				"x": 1.8342997357,
				"y": 0.8932795366,
				"z": 3.5596951515,
				"element": "H" 
			},
			{
				"x": 2.8298647174,
				"y": 1.4502988026,
				"z": 2.2602064683,
				"element": "H" 
			},
			{
				"x": -0.3290718782,
				"y": -1.1254286346,
				"z": -2.5968271079,
				"element": "H" 
			},
			{
				"x": 0.2486391055,
				"y": 0.03517485,
				"z": -3.7834630121,
				"element": "H" 
			},
			{
				"x": 1.5203270648,
				"y": -2.0850012171,
				"z": -3.9728103806,
				"element": "H" 
			},
			{
				"x": 1.9477788705,
				"y": -2.0163265341,
				"z": -2.2624040747,
				"element": "H" 
			},
			{
				"x": 3.8746382535,
				"y": -1.200086531,
				"z": -3.5927485848,
				"element": "H" 
			},
			{
				"x": 2.8437243962,
				"y": -0.0567003607,
				"z": -4.4454534761,
				"element": "H" 
			},
			{
				"x": 3.5260541326,
				"y": 0.0248234415,
				"z": -1.4501638019,
				"element": "H" 
			},
			{
				"x": 4.050449927,
				"y": 1.1764868327,
				"z": -2.683519234,
				"element": "H" 
			},
			{
				"x": 2.102968611,
				"y": 2.037429957,
				"z": -1.3400362359,
				"element": "H" 
			},
			{
				"x": 1.6945167743,
				"y": 1.8723633404,
				"z": -3.0593299916,
				"element": "H" 
			},
			{
				"x": -0.6776644702,
				"y": -2.4420939506,
				"z": 3.9460342071,
				"element": "H" 
			},
			{
				"x": -0.5562229854,
				"y": -2.2608920767,
				"z": 6.4220668676,
				"element": "H" 
			},
			{
				"x": -3.659674242,
				"y": 0.7146515945,
				"z": 6.3570139406,
				"element": "H" 
			},
			{
				"x": -3.7613424944,
				"y": 0.5482962277,
				"z": 3.8761710105,
				"element": "H" 
			},
			{
				"x": -1.9719364553,
				"y": -2.6951404447,
				"z": -0.6503777742,
				"element": "H" 
			},
			{
				"x": -3.9230794398,
				"y": -3.0704518221,
				"z": -2.1253348869,
				"element": "H" 
			},
			{
				"x": -4.9730916005,
				"y": -1.1561442212,
				"z": -3.3174749016,
				"element": "H" 
			},
			{
				"x": -4.0613368114,
				"y": 1.1371701898,
				"z": -3.0048501161,
				"element": "H" 
			},
			{
				"x": -2.1175757041,
				"y": 1.5091002912,
				"z": -1.5152800817,
				"element": "H" 
			}
		],
		 "valence_orbital": [ 
			{
				"type": "occ",
				"energy": -0.25018,
				"method": "rhf"
			},
			{
				"type": "occ",
				"energy": -0.23639,
				"method": "rhf"
			},
			{
				"type": "occ",
				"energy": -0.23238,
				"method": "rhf"
			},
			{
				"type": "occ",
				"energy": -0.2216,
				"method": "rhf"
			},
			{
				"type": "occ",
				"energy": -0.19847,
				"method": "rhf"
			},
			{
				"type": "unocc",
				"energy": -0.0236,
				"method": "rhf"
			},
			{
				"type": "unocc",
				"energy": -0.01303,
				"method": "rhf"
			},
			{
				"type": "unocc",
				"energy": -0.01091,
				"method": "rhf"
			},
			{
				"type": "unocc",
				"energy": -0.0062,
				"method": "rhf"
			},
			{
				"type": "unocc",
				"energy": -0.0024,
				"method": "rhf"
			}
		],
		"cosmo_sigma_profile": { 
			"-0.025": 0.0,
			"-0.024": 0.0,
			"-0.023": 0.0,
			"-0.022": 0.0,
			"-0.021": 0.0,
			"-0.02": 0.0,
			"-0.019": 0.0,
			"-0.018": 0.0,
			"-0.017": 0.0,
			"-0.016": 0.0,
			"-0.015": 0.0,
			"-0.014": 0.0795285588026,
			"-0.013": 1.89505523476,
			"-0.012": 1.42767899168,
			"-0.011": 2.20930978491,
			"-0.01": 1.86033453442,
			"-0.009": 2.28569562847,
			"-0.008": 2.0782324698,
			"-0.007": 7.72365090355,
			"-0.006": 13.5953314044,
			"-0.005": 17.4803339142,
			"-0.004": 21.6102528415,
			"-0.003": 34.2911576118,
			"-0.002": 41.1712045047,
			"-0.001": 44.0870683678,
			"0.0": 38.83106488,
			"0.001": 42.4259345496,
			"0.002": 35.5988330422,
			"0.003": 34.2704083442,
			"0.004": 27.0417977098,
			"0.005": 21.5646051826,
			"0.006": 13.2407297005,
			"0.007": 7.60523791712,
			"0.008": 5.08126480866,
			"0.009": 2.95154717059,
			"0.01": 1.90810594936,
			"0.011": 1.15495286326,
			"0.012": 0.245736292312,
			"0.013": 0.0,
			"0.014": 0.0,
			"0.015": 0.0,
			"0.016": 0.0,
			"0.017": 0.0,
			"0.018": 0.0,
			"0.019": 0.0,
			"0.02": 0.0,
			"0.021": 0.0,
			"0.022": 0.0,
			"0.023": 0.0,
			"0.024": 0.0,
			"0.025": 0.0
		}
	}
}
