{
	 "smiles": "COC(=O)C1=C(Br)C=CS1", 
	 "Tm": 323.65, 
	 "num_atms": 15, 
	 "gaussian": { 
		 "optdone": 1, 
		 "sigma_profile": "yes", 
		 "theory": "DFT", 
		 "functional": "B3LYP", 
		 "basiset": "6-31G**", 
		 "properties": { 
			 "R2extent": 2509.7048, 
			 "electric_dipole_moment_norm": 2.67014110863, 
			 "electric_quadrupole_moment_norm": 8.24269275601, 
			 "total_energy": -3351.67698331, 
			 "HOMO_LUMO_gap": 0.18545, 
			 "cosmo_polarized_energy": -8.55, 
			 "cosmo_cavitation_energy": 23.59, 
			 "cosmo_dispersion_energy": -18.38, 
			 "cosmo_repulsion_energy": 1.45, 
			 "cosmo_total_nonelectrostatic_energy": 6.66, 
			 "SMD_solvation_energy": 4.67 
		},
		"coords": [
			{
				"x": 1.9948151283,
				"y": -2.4585944084,
				"z": 2.6114225672,
				"element": "C" 
			},
			{
				"x": 0.7488161571,
				"y": -2.054952982,
				"z": 2.0227535294,
				"element": "O" 
			},
			{
				"x": 0.8338551424,
				"y": -1.0329855047,
				"z": 1.1342081746,
				"element": "C" 
			},
			{
				"x": 1.8736876166,
				"y": -0.4821951741,
				"z": 0.8403104471,
				"element": "O" 
			},
			{
				"x": -0.495846063,
				"y": -0.7024401182,
				"z": 0.5950813633,
				"element": "C" 
			},
			{
				"x": -0.8459355674,
				"y": 0.2638608513,
				"z": -0.3258273284,
				"element": "C" 
			},
			{
				"x": 0.345107916,
				"y": 1.4630762267,
				"z": -1.1678254996,
				"element": "Br" 
			},
			{
				"x": -2.2384941052,
				"y": 0.3020379916,
				"z": -0.61776454,
				"element": "C" 
			},
			{
				"x": -2.9359295572,
				"y": -0.6400534474,
				"z": 0.0875541572,
				"element": "C" 
			},
			{
				"x": -1.9164747347,
				"y": -1.5829799476,
				"z": 1.1117773527,
				"element": "S" 
			},
			{
				"x": 2.6929309983,
				"y": -2.7948443946,
				"z": 1.8406857884,
				"element": "H" 
			},
			{
				"x": 2.4477454438,
				"y": -1.628575361,
				"z": 3.1595114709,
				"element": "H" 
			},
			{
				"x": 1.7474995644,
				"y": -3.2758980343,
				"z": 3.2882357192,
				"element": "H" 
			},
			{
				"x": -2.6789284687,
				"y": 1.0000865111,
				"z": -1.3178243354,
				"element": "H" 
			},
			{
				"x": -4.0003494707,
				"y": -0.8304422085,
				"z": 0.0590011333,
				"element": "H" 
			}
		],
		 "valence_orbital": [ 
			{
				"type": "occ",
				"energy": -0.3047,
				"method": "rhf"
			},
			{
				"type": "occ",
				"energy": -0.29727,
				"method": "rhf"
			},
			{
				"type": "occ",
				"energy": -0.2683,
				"method": "rhf"
			},
			{
				"type": "occ",
				"energy": -0.26172,
				"method": "rhf"
			},
			{
				"type": "occ",
				"energy": -0.24623,
				"method": "rhf"
			},
			{
				"type": "unocc",
				"energy": -0.06078,
				"method": "rhf"
			},
			{
				"type": "unocc",
				"energy": -0.0069,
				"method": "rhf"
			},
			{
				"type": "unocc",
				"energy": 0.02197,
				"method": "rhf"
			},
			{
				"type": "unocc",
				"energy": 0.0363,
				"method": "rhf"
			},
			{
				"type": "unocc",
				"energy": 0.08563,
				"method": "rhf"
			}
		],
		"cosmo_sigma_profile": { 
			"-0.025": 0.0,
			"-0.024": 0.0,
			"-0.023": 0.0,
			"-0.022": 0.0,
			"-0.021": 0.0,
			"-0.02": 0.0,
			"-0.019": 0.0,
			"-0.018": 0.0,
			"-0.017": 0.0,
			"-0.016": 0.0,
			"-0.015": 0.0,
			"-0.014": 0.0,
			"-0.013": 0.0,
			"-0.012": 0.0,
			"-0.011": 0.0305184438567,
			"-0.01": 1.68852736151,
			"-0.009": 2.48555298408,
			"-0.008": 3.7540100707,
			"-0.007": 4.91004132375,
			"-0.006": 9.11398633393,
			"-0.005": 11.9060161348,
			"-0.004": 13.6009658295,
			"-0.003": 14.804838046,
			"-0.002": 11.0808419942,
			"-0.001": 11.362682297,
			"0.0": 16.9804123537,
			"0.001": 23.6480568789,
			"0.002": 19.6388114185,
			"0.003": 15.8830346699,
			"0.004": 9.85033413763,
			"0.005": 4.65009067322,
			"0.006": 4.00204928678,
			"0.007": 1.74001403889,
			"0.008": 1.77099914786,
			"0.009": 1.43863666197,
			"0.01": 2.59490520655,
			"0.011": 4.22358262348,
			"0.012": 3.58709837019,
			"0.013": 0.0,
			"0.014": 0.0,
			"0.015": 0.0,
			"0.016": 0.0,
			"0.017": 0.0,
			"0.018": 0.0,
			"0.019": 0.0,
			"0.02": 0.0,
			"0.021": 0.0,
			"0.022": 0.0,
			"0.023": 0.0,
			"0.024": 0.0,
			"0.025": 0.0
		}
	}
}
