{
	 "smiles": "ClC1=C(Cl)C(Br)=CC=C1", 
	 "Tm": 332.15, 
	 "num_atms": 12, 
	 "gaussian": { 
		 "optdone": 1, 
		 "sigma_profile": "yes", 
		 "theory": "DFT", 
		 "functional": "B3LYP", 
		 "basiset": "6-31G**", 
		 "properties": { 
			 "R2extent": 4090.3016, 
			 "electric_dipole_moment_norm": 2.69479175819, 
			 "electric_quadrupole_moment_norm": 3.90268483995, 
			 "total_energy": -3722.22555808, 
			 "HOMO_LUMO_gap": 0.22096, 
			 "cosmo_polarized_energy": -4.35, 
			 "cosmo_cavitation_energy": 21.94, 
			 "cosmo_dispersion_energy": -17.13, 
			 "cosmo_repulsion_energy": 1.39, 
			 "cosmo_total_nonelectrostatic_energy": 6.2, 
			 "SMD_solvation_energy": 2.23 
		},
		"coords": [
			{
				"x": -0.6765722662,
				"y": -2.5088044891,
				"z": -0.653939805,
				"element": "Cl" 
			},
			{
				"x": 0.38429522,
				"y": -1.2734507609,
				"z": -0.0232404441,
				"element": "C" 
			},
			{
				"x": 0.734059751,
				"y": -1.2476988045,
				"z": 1.3386211402,
				"element": "C" 
			},
			{
				"x": 0.1159863793,
				"y": -2.4497885912,
				"z": 2.4300981603,
				"element": "Cl" 
			},
			{
				"x": 1.5910841391,
				"y": -0.2305696021,
				"z": 1.7900389774,
				"element": "C" 
			},
			{
				"x": 2.115219125,
				"y": -0.1207462869,
				"z": 3.6145296224,
				"element": "Br" 
			},
			{
				"x": 2.0834456845,
				"y": 0.7311716143,
				"z": 0.908111834,
				"element": "C" 
			},
			{
				"x": 1.7250486814,
				"y": 0.6880287278,
				"z": -0.4366112952,
				"element": "C" 
			},
			{
				"x": 0.8769158318,
				"y": -0.31139863,
				"z": -0.9051430453,
				"element": "C" 
			},
			{
				"x": 2.7428604641,
				"y": 1.5043802545,
				"z": 1.2836957562,
				"element": "H" 
			},
			{
				"x": 2.1087088683,
				"y": 1.4367884171,
				"z": -1.1220499014,
				"element": "H" 
			},
			{
				"x": 0.5893481217,
				"y": -0.3576118491,
				"z": -1.9491109994,
				"element": "H" 
			}
		],
		 "valence_orbital": [ 
			{
				"type": "occ",
				"energy": -0.32009,
				"method": "rhf"
			},
			{
				"type": "occ",
				"energy": -0.31758,
				"method": "rhf"
			},
			{
				"type": "occ",
				"energy": -0.29118,
				"method": "rhf"
			},
			{
				"type": "occ",
				"energy": -0.26022,
				"method": "rhf"
			},
			{
				"type": "occ",
				"energy": -0.25654,
				"method": "rhf"
			},
			{
				"type": "unocc",
				"energy": -0.03558,
				"method": "rhf"
			},
			{
				"type": "unocc",
				"energy": -0.03465,
				"method": "rhf"
			},
			{
				"type": "unocc",
				"energy": -0.03008,
				"method": "rhf"
			},
			{
				"type": "unocc",
				"energy": 0.03157,
				"method": "rhf"
			},
			{
				"type": "unocc",
				"energy": 0.05838,
				"method": "rhf"
			}
		],
		"cosmo_sigma_profile": { 
			"-0.025": 0.0,
			"-0.024": 0.0,
			"-0.023": 0.0,
			"-0.022": 0.0,
			"-0.021": 0.0,
			"-0.02": 0.0,
			"-0.019": 0.0,
			"-0.018": 0.0,
			"-0.017": 0.0,
			"-0.016": 0.0,
			"-0.015": 0.0,
			"-0.014": 0.0,
			"-0.013": 0.0,
			"-0.012": 0.0,
			"-0.011": 0.0,
			"-0.01": 0.0,
			"-0.009": 0.243338534365,
			"-0.008": 4.5765510735,
			"-0.007": 6.91264010512,
			"-0.006": 6.42358172519,
			"-0.005": 5.75272714804,
			"-0.004": 7.31704117324,
			"-0.003": 8.58746691149,
			"-0.002": 9.46400305008,
			"-0.001": 16.38982987,
			"0.0": 25.3164197507,
			"0.001": 23.2272675814,
			"0.002": 21.0926300993,
			"0.003": 22.5151787381,
			"0.004": 21.8295946441,
			"0.005": 4.94842860787,
			"0.006": 0.00180638750095,
			"0.007": 0.0,
			"0.008": 0.0,
			"0.009": 0.0,
			"0.01": 0.0,
			"0.011": 0.0,
			"0.012": 0.0,
			"0.013": 0.0,
			"0.014": 0.0,
			"0.015": 0.0,
			"0.016": 0.0,
			"0.017": 0.0,
			"0.018": 0.0,
			"0.019": 0.0,
			"0.02": 0.0,
			"0.021": 0.0,
			"0.022": 0.0,
			"0.023": 0.0,
			"0.024": 0.0,
			"0.025": 0.0
		}
	}
}
