{
	 "smiles": "COC1CC2C3(C)CCCC2(COC3O)C2C(CC3C(C)C(=O)C12C3O)OC(C)=O", 
	 "Tm": 473.15, 
	 "num_atms": 64, 
	 "gaussian": { 
		 "optdone": 1, 
		 "sigma_profile": "yes", 
		 "theory": "DFT", 
		 "functional": "B3LYP", 
		 "basiset": "6-31G**", 
		 "properties": { 
			 "R2extent": 11257.7891, 
			 "electric_dipole_moment_norm": 3.7920169488, 
			 "electric_quadrupole_moment_norm": 15.8433144133, 
			 "total_energy": -1423.49193289, 
			 "HOMO_LUMO_gap": 0.21197, 
			 "cosmo_polarized_energy": -23.37, 
			 "cosmo_cavitation_energy": 54.69, 
			 "cosmo_dispersion_energy": -36.45, 
			 "cosmo_repulsion_energy": 2.68, 
			 "cosmo_total_nonelectrostatic_energy": 20.93, 
			 "SMD_solvation_energy": 10.1 
		},
		"coords": [
			{
				"x": -3.6325456878,
				"y": 1.4845377334,
				"z": 1.8502158378,
				"element": "C" 
			},
			{
				"x": -2.6822561566,
				"y": 0.4631969866,
				"z": 2.0764028214,
				"element": "O" 
			},
			{
				"x": -1.4664994729,
				"y": 0.5881533766,
				"z": 1.3396450681,
				"element": "C" 
			},
			{
				"x": -1.6259208545,
				"y": 0.3632008519,
				"z": -0.1598435434,
				"element": "C" 
			},
			{
				"x": -0.2690485989,
				"y": 0.5663631004,
				"z": -0.8521169116,
				"element": "C" 
			},
			{
				"x": -0.3270807791,
				"y": 0.5638421437,
				"z": -2.4143366535,
				"element": "C" 
			},
			{
				"x": -1.4091842748,
				"y": 1.5249388495,
				"z": -2.9401784625,
				"element": "C" 
			},
			{
				"x": 1.0381082217,
				"y": 1.0674423357,
				"z": -2.9479091369,
				"element": "C" 
			},
			{
				"x": 2.2342682027,
				"y": 0.2749513896,
				"z": -2.4157298462,
				"element": "C" 
			},
			{
				"x": 2.1889217787,
				"y": 0.1128132049,
				"z": -0.8923260579,
				"element": "C" 
			},
			{
				"x": 0.8292185081,
				"y": -0.4312399427,
				"z": -0.3568792576,
				"element": "C" 
			},
			{
				"x": 0.52453241,
				"y": -1.8375308748,
				"z": -0.9766469458,
				"element": "C" 
			},
			{
				"x": -0.5936317549,
				"y": -1.8442433436,
				"z": -1.8560921183,
				"element": "O" 
			},
			{
				"x": -0.5716249328,
				"y": -0.9013417474,
				"z": -2.9144153475,
				"element": "C" 
			},
			{
				"x": -1.8187700291,
				"y": -1.003956596,
				"z": -3.540637875,
				"element": "O" 
			},
			{
				"x": 0.9025177625,
				"y": -0.4492984332,
				"z": 1.22013999,
				"element": "C" 
			},
			{
				"x": 1.7047158265,
				"y": -1.6174564713,
				"z": 1.855010904,
				"element": "C" 
			},
			{
				"x": 1.7519888384,
				"y": -1.5644950987,
				"z": 3.3931906848,
				"element": "C" 
			},
			{
				"x": 0.3707156731,
				"y": -1.3344274301,
				"z": 4.0256971902,
				"element": "C" 
			},
			{
				"x": -0.7036930015,
				"y": -2.3405991705,
				"z": 3.5500725037,
				"element": "C" 
			},
			{
				"x": -0.3910283259,
				"y": -3.8368586152,
				"z": 3.5991490382,
				"element": "C" 
			},
			{
				"x": -1.0649575143,
				"y": -1.8192408254,
				"z": 2.1496715839,
				"element": "C" 
			},
			{
				"x": -1.6793839168,
				"y": -2.4510284234,
				"z": 1.3163161092,
				"element": "O" 
			},
			{
				"x": -0.4790987268,
				"y": -0.3913107692,
				"z": 1.9832182878,
				"element": "C" 
			},
			{
				"x": -0.1960779398,
				"y": -0.023061389,
				"z": 3.4735819606,
				"element": "C" 
			},
			{
				"x": 0.7108936826,
				"y": 1.0512215944,
				"z": 3.6742149209,
				"element": "O" 
			},
			{
				"x": 3.0787756496,
				"y": -1.6045545916,
				"z": 1.379202516,
				"element": "O" 
			},
			{
				"x": 3.7234321128,
				"y": -2.7970359769,
				"z": 1.3472377067,
				"element": "C" 
			},
			{
				"x": 5.1370206046,
				"y": -2.6276692969,
				"z": 0.8427615153,
				"element": "C" 
			},
			{
				"x": 3.2197610667,
				"y": -3.8514644039,
				"z": 1.671552479,
				"element": "O" 
			},
			{
				"x": -3.1951039446,
				"y": 2.4859994319,
				"z": 1.9937848597,
				"element": "H" 
			},
			{
				"x": -4.0707498401,
				"y": 1.4401189987,
				"z": 0.8445291143,
				"element": "H" 
			},
			{
				"x": -4.4311566683,
				"y": 1.341934939,
				"z": 2.5824994317,
				"element": "H" 
			},
			{
				"x": -1.0688003505,
				"y": 1.6130854741,
				"z": 1.4939167274,
				"element": "H" 
			},
			{
				"x": -2.3438753722,
				"y": 1.088158754,
				"z": -0.5529897792,
				"element": "H" 
			},
			{
				"x": -2.0215656767,
				"y": -0.6373220716,
				"z": -0.3391064804,
				"element": "H" 
			},
			{
				"x": 0.0794893026,
				"y": 1.5740000276,
				"z": -0.5715259647,
				"element": "H" 
			},
			{
				"x": -2.418469017,
				"y": 1.1853304435,
				"z": -2.7100885655,
				"element": "H" 
			},
			{
				"x": -1.3422390145,
				"y": 1.6174415897,
				"z": -4.0282852679,
				"element": "H" 
			},
			{
				"x": -1.261469779,
				"y": 2.5218077515,
				"z": -2.508100468,
				"element": "H" 
			},
			{
				"x": 1.1458117172,
				"y": 2.1221959395,
				"z": -2.6601265776,
				"element": "H" 
			},
			{
				"x": 1.0268767543,
				"y": 1.0473402795,
				"z": -4.0454594355,
				"element": "H" 
			},
			{
				"x": 3.1691807875,
				"y": 0.7723373005,
				"z": -2.7011632785,
				"element": "H" 
			},
			{
				"x": 2.2703087527,
				"y": -0.7121417741,
				"z": -2.8932736163,
				"element": "H" 
			},
			{
				"x": 3.0052031856,
				"y": -0.5330487206,
				"z": -0.5680447491,
				"element": "H" 
			},
			{
				"x": 2.3683465345,
				"y": 1.090179897,
				"z": -0.4227208946,
				"element": "H" 
			},
			{
				"x": 0.250453498,
				"y": -2.5656335685,
				"z": -0.2158242536,
				"element": "H" 
			},
			{
				"x": 1.4150076084,
				"y": -2.2243810637,
				"z": -1.4966334603,
				"element": "H" 
			},
			{
				"x": 0.2275401687,
				"y": -1.1945476693,
				"z": -3.6224343853,
				"element": "H" 
			},
			{
				"x": -2.0048902889,
				"y": -1.9506650104,
				"z": -3.6133959836,
				"element": "H" 
			},
			{
				"x": 1.4110667823,
				"y": 0.4781580408,
				"z": 1.50973609,
				"element": "H" 
			},
			{
				"x": 1.2818920322,
				"y": -2.5747237835,
				"z": 1.5424072614,
				"element": "H" 
			},
			{
				"x": 2.1968949239,
				"y": -2.4960198146,
				"z": 3.7542196812,
				"element": "H" 
			},
			{
				"x": 2.4121662981,
				"y": -0.7428576733,
				"z": 3.6868321702,
				"element": "H" 
			},
			{
				"x": 0.4623911016,
				"y": -1.3127552442,
				"z": 5.1163561695,
				"element": "H" 
			},
			{
				"x": -1.6098176134,
				"y": -2.1586191112,
				"z": 4.1504128983,
				"element": "H" 
			},
			{
				"x": 0.5292538045,
				"y": -4.0858904329,
				"z": 3.0624160301,
				"element": "H" 
			},
			{
				"x": -0.2795855437,
				"y": -4.1773267352,
				"z": 4.6333315478,
				"element": "H" 
			},
			{
				"x": -1.2083271864,
				"y": -4.3964788934,
				"z": 3.1366710607,
				"element": "H" 
			},
			{
				"x": -1.1574085089,
				"y": 0.2019128624,
				"z": 3.9525103024,
				"element": "H" 
			},
			{
				"x": 0.2439849142,
				"y": 1.8760814429,
				"z": 3.4911744824,
				"element": "H" 
			},
			{
				"x": 5.6713339938,
				"y": -3.5722916325,
				"z": 0.9394618075,
				"element": "H" 
			},
			{
				"x": 5.6498363655,
				"y": -1.8416554746,
				"z": 1.403389649,
				"element": "H" 
			},
			{
				"x": 5.1221519071,
				"y": -2.3228726659,
				"z": -0.2087450851,
				"element": "H" 
			}
		],
		 "valence_orbital": [ 
			{
				"type": "occ",
				"energy": -0.27156,
				"method": "rhf"
			},
			{
				"type": "occ",
				"energy": -0.26834,
				"method": "rhf"
			},
			{
				"type": "occ",
				"energy": -0.25189,
				"method": "rhf"
			},
			{
				"type": "occ",
				"energy": -0.23872,
				"method": "rhf"
			},
			{
				"type": "occ",
				"energy": -0.23056,
				"method": "rhf"
			},
			{
				"type": "unocc",
				"energy": -0.01859,
				"method": "rhf"
			},
			{
				"type": "unocc",
				"energy": 0.00876,
				"method": "rhf"
			},
			{
				"type": "unocc",
				"energy": 0.05197,
				"method": "rhf"
			},
			{
				"type": "unocc",
				"energy": 0.07621,
				"method": "rhf"
			},
			{
				"type": "unocc",
				"energy": 0.08655,
				"method": "rhf"
			}
		],
		"cosmo_sigma_profile": { 
			"-0.025": 0.0,
			"-0.024": 0.0,
			"-0.023": 0.0,
			"-0.022": 0.0,
			"-0.021": 0.0,
			"-0.02": 0.0,
			"-0.019": 0.0,
			"-0.018": 0.0,
			"-0.017": 0.0,
			"-0.016": 0.227589328608,
			"-0.015": 1.40431270474,
			"-0.014": 1.8394892111,
			"-0.013": 1.7513746248,
			"-0.012": 1.64837500116,
			"-0.011": 1.54231023005,
			"-0.01": 2.78198161483,
			"-0.009": 1.37587166947,
			"-0.008": 1.19120756338,
			"-0.007": 2.92572769084,
			"-0.006": 9.21464689083,
			"-0.005": 15.771071751,
			"-0.004": 34.7306855876,
			"-0.003": 56.5296319653,
			"-0.002": 65.5893911328,
			"-0.001": 45.0911428842,
			"0.0": 36.5485377628,
			"0.001": 27.2302016183,
			"0.002": 17.2974778732,
			"0.003": 10.6079071529,
			"0.004": 8.94371414096,
			"0.005": 9.58265214274,
			"0.006": 8.44774812967,
			"0.007": 7.91751421792,
			"0.008": 9.83893851641,
			"0.009": 9.00847077197,
			"0.01": 9.45188869054,
			"0.011": 10.1533098311,
			"0.012": 9.57221115816,
			"0.013": 2.82998195121,
			"0.014": 0.0873315663556,
			"0.015": 0.0,
			"0.016": 0.0,
			"0.017": 0.0,
			"0.018": 0.0,
			"0.019": 0.0,
			"0.02": 0.0,
			"0.021": 0.0,
			"0.022": 0.0,
			"0.023": 0.0,
			"0.024": 0.0,
			"0.025": 0.0
		}
	}
}
