{
	 "smiles": "OC(=O)C1=CC2=C(C=CC=C2)C2=C1C=CC=C2", 
	 "Tm": 526.15, 
	 "num_atms": 27, 
	 "gaussian": { 
		 "optdone": 1, 
		 "sigma_profile": "yes", 
		 "theory": "DFT", 
		 "functional": "B3LYP", 
		 "basiset": "6-31G**", 
		 "properties": { 
			 "R2extent": 3922.1903, 
			 "electric_dipole_moment_norm": 1.82713148131, 
			 "electric_quadrupole_moment_norm": 14.0617923623, 
			 "total_energy": -728.109115737, 
			 "HOMO_LUMO_gap": 0.15818, 
			 "cosmo_polarized_energy": -10.62, 
			 "cosmo_cavitation_energy": 30.55, 
			 "cosmo_dispersion_energy": -22.99, 
			 "cosmo_repulsion_energy": 1.71, 
			 "cosmo_total_nonelectrostatic_energy": 9.27, 
			 "SMD_solvation_energy": 5.85 
		},
		"coords": [
			{
				"x": -0.4401779621,
				"y": 3.5276278878,
				"z": -0.9397745574,
				"element": "O" 
			},
			{
				"x": -1.2368381335,
				"y": 2.6992230367,
				"z": -0.2177108736,
				"element": "C" 
			},
			{
				"x": -2.2448847088,
				"y": 3.1245811745,
				"z": 0.3153291387,
				"element": "O" 
			},
			{
				"x": -0.7605703084,
				"y": 1.2861127992,
				"z": -0.0937638651,
				"element": "C" 
			},
			{
				"x": -1.3563821381,
				"y": 0.5990521093,
				"z": 0.9313351407,
				"element": "C" 
			},
			{
				"x": -1.0188382911,
				"y": -0.7449757226,
				"z": 1.2604412669,
				"element": "C" 
			},
			{
				"x": -0.0303775067,
				"y": -1.4241890045,
				"z": 0.4938898082,
				"element": "C" 
			},
			{
				"x": 0.2896678923,
				"y": -2.7514280955,
				"z": 0.8660445783,
				"element": "C" 
			},
			{
				"x": -0.3391192259,
				"y": -3.371296377,
				"z": 1.9312547157,
				"element": "C" 
			},
			{
				"x": -1.3209094005,
				"y": -2.694386445,
				"z": 2.6804753204,
				"element": "C" 
			},
			{
				"x": -1.6517030302,
				"y": -1.3975192674,
				"z": 2.3461075142,
				"element": "C" 
			},
			{
				"x": 0.5906029588,
				"y": -0.7291796099,
				"z": -0.627306076,
				"element": "C" 
			},
			{
				"x": 0.2328139647,
				"y": 0.6267267137,
				"z": -0.9299916958,
				"element": "C" 
			},
			{
				"x": 0.8399440381,
				"y": 1.2456384457,
				"z": -2.0519478776,
				"element": "C" 
			},
			{
				"x": 1.7664968257,
				"y": 0.5805198775,
				"z": -2.8319214386,
				"element": "C" 
			},
			{
				"x": 2.1283204089,
				"y": -0.7406938435,
				"z": -2.5262950601,
				"element": "C" 
			},
			{
				"x": 1.5457504851,
				"y": -1.3752571653,
				"z": -1.4471996994,
				"element": "C" 
			},
			{
				"x": -0.8787074105,
				"y": 4.3943905668,
				"z": -0.9002025571,
				"element": "H" 
			},
			{
				"x": -2.1084027951,
				"y": 1.1115832333,
				"z": 1.5222411554,
				"element": "H" 
			},
			{
				"x": 1.0413218623,
				"y": -3.3062783255,
				"z": 0.3171082633,
				"element": "H" 
			},
			{
				"x": -0.0703587939,
				"y": -4.3911615287,
				"z": 2.1911176147,
				"element": "H" 
			},
			{
				"x": -1.809343268,
				"y": -3.1900404853,
				"z": 3.5139151962,
				"element": "H" 
			},
			{
				"x": -2.4034674387,
				"y": -0.8542504471,
				"z": 2.9123206242,
				"element": "H" 
			},
			{
				"x": 0.572180183,
				"y": 2.2616685414,
				"z": -2.2999509648,
				"element": "H" 
			},
			{
				"x": 2.2115305982,
				"y": 1.0851222205,
				"z": -3.6845963197,
				"element": "H" 
			},
			{
				"x": 2.8567860041,
				"y": -1.2661332694,
				"z": -3.136853941,
				"element": "H" 
			},
			{
				"x": 1.8282651904,
				"y": -2.3995570198,
				"z": -1.2349654107,
				"element": "H" 
			}
		],
		 "valence_orbital": [ 
			{
				"type": "occ",
				"energy": -0.28769,
				"method": "rhf"
			},
			{
				"type": "occ",
				"energy": -0.27708,
				"method": "rhf"
			},
			{
				"type": "occ",
				"energy": -0.26695,
				"method": "rhf"
			},
			{
				"type": "occ",
				"energy": -0.22857,
				"method": "rhf"
			},
			{
				"type": "occ",
				"energy": -0.22064,
				"method": "rhf"
			},
			{
				"type": "unocc",
				"energy": -0.06246,
				"method": "rhf"
			},
			{
				"type": "unocc",
				"energy": -0.03786,
				"method": "rhf"
			},
			{
				"type": "unocc",
				"energy": -0.00605,
				"method": "rhf"
			},
			{
				"type": "unocc",
				"energy": 0.01908,
				"method": "rhf"
			},
			{
				"type": "unocc",
				"energy": 0.03647,
				"method": "rhf"
			}
		],
		"cosmo_sigma_profile": { 
			"-0.025": 0.0,
			"-0.024": 0.0,
			"-0.023": 0.0,
			"-0.022": 0.0,
			"-0.021": 0.0,
			"-0.02": 0.0,
			"-0.019": 0.0569162631626,
			"-0.018": 0.668591243817,
			"-0.017": 1.10593594989,
			"-0.016": 1.02561588153,
			"-0.015": 0.137260600604,
			"-0.014": 0.543492810086,
			"-0.013": 0.644110683541,
			"-0.012": 0.804534886035,
			"-0.011": 1.09895318683,
			"-0.01": 0.452037949609,
			"-0.009": 1.10719961504,
			"-0.008": 2.25899293828,
			"-0.007": 5.79890140169,
			"-0.006": 13.1424863158,
			"-0.005": 16.1989109694,
			"-0.004": 15.8822565017,
			"-0.003": 15.4581379338,
			"-0.002": 14.735961959,
			"-0.001": 14.4938926285,
			"0.0": 14.1641959472,
			"0.001": 20.2357563943,
			"0.002": 27.8099580148,
			"0.003": 24.7406160457,
			"0.004": 24.1205233623,
			"0.005": 12.0136804972,
			"0.006": 2.75932293847,
			"0.007": 1.77753971541,
			"0.008": 1.5710289402,
			"0.009": 2.29327941429,
			"0.01": 1.35762604348,
			"0.011": 3.42027285275,
			"0.012": 4.32556039911,
			"0.013": 0.104925472482,
			"0.014": 0.0,
			"0.015": 0.0,
			"0.016": 0.0,
			"0.017": 0.0,
			"0.018": 0.0,
			"0.019": 0.0,
			"0.02": 0.0,
			"0.021": 0.0,
			"0.022": 0.0,
			"0.023": 0.0,
			"0.024": 0.0,
			"0.025": 0.0
		}
	}
}
