{
	 "smiles": "BrC1=NC(NC(=O)C2=CC=CC=C2)=CC=C1", 
	 "Tm": 358.15, 
	 "num_atms": 25, 
	 "gaussian": { 
		 "optdone": 1, 
		 "sigma_profile": "yes", 
		 "theory": "DFT", 
		 "functional": "B3LYP", 
		 "basiset": "6-31G**", 
		 "properties": { 
			 "R2extent": 7253.1408, 
			 "electric_dipole_moment_norm": 4.72681182723, 
			 "electric_quadrupole_moment_norm": 4.32185635578, 
			 "total_energy": -3218.84541964, 
			 "HOMO_LUMO_gap": 0.18193, 
			 "cosmo_polarized_energy": -12.43, 
			 "cosmo_cavitation_energy": 32.35, 
			 "cosmo_dispersion_energy": -23.63, 
			 "cosmo_repulsion_energy": 1.86, 
			 "cosmo_total_nonelectrostatic_energy": 10.58, 
			 "SMD_solvation_energy": 3.56 
		},
		"coords": [
			{
				"x": 3.0776034593,
				"y": -2.254078606,
				"z": 4.0976137424,
				"element": "Br" 
			},
			{
				"x": 1.7240662597,
				"y": -1.9747562547,
				"z": 2.7617674782,
				"element": "C" 
			},
			{
				"x": 1.5595568112,
				"y": -0.7358250859,
				"z": 2.3440401881,
				"element": "N" 
			},
			{
				"x": 0.6154745891,
				"y": -0.4988094136,
				"z": 1.4170435016,
				"element": "C" 
			},
			{
				"x": 0.5122242353,
				"y": 0.8541104256,
				"z": 1.075148067,
				"element": "N" 
			},
			{
				"x": -0.2194467511,
				"y": 1.539854759,
				"z": 0.1058884987,
				"element": "C" 
			},
			{
				"x": -0.5351123094,
				"y": 2.7029347456,
				"z": 0.3129660593,
				"element": "O" 
			},
			{
				"x": -0.5216511466,
				"y": 0.8745665236,
				"z": -1.2005639213,
				"element": "C" 
			},
			{
				"x": -1.7128424714,
				"y": 1.2236950643,
				"z": -1.8519236945,
				"element": "C" 
			},
			{
				"x": -2.0046707328,
				"y": 0.6970955646,
				"z": -3.1083546068,
				"element": "C" 
			},
			{
				"x": -1.0940507563,
				"y": -0.156251775,
				"z": -3.7371876885,
				"element": "C" 
			},
			{
				"x": 0.1083540163,
				"y": -0.4830728529,
				"z": -3.1058648342,
				"element": "C" 
			},
			{
				"x": 0.3934982511,
				"y": 0.0246954537,
				"z": -1.8388232993,
				"element": "C" 
			},
			{
				"x": -0.2071280248,
				"y": -1.5163750947,
				"z": 0.9080185144,
				"element": "C" 
			},
			{
				"x": 0.0087006246,
				"y": -2.8135609561,
				"z": 1.3630360042,
				"element": "C" 
			},
			{
				"x": 0.9982312726,
				"y": -3.0756458054,
				"z": 2.3107853432,
				"element": "C" 
			},
			{
				"x": 0.8860504666,
				"y": 1.4714489731,
				"z": 1.7879123419,
				"element": "H" 
			},
			{
				"x": -2.3928157666,
				"y": 1.9130345797,
				"z": -1.3623892398,
				"element": "H" 
			},
			{
				"x": -2.9354085297,
				"y": 0.959995864,
				"z": -3.6021970706,
				"element": "H" 
			},
			{
				"x": -1.3170047976,
				"y": -0.5587178148,
				"z": -4.7211515535,
				"element": "H" 
			},
			{
				"x": 0.8261791814,
				"y": -1.1296699094,
				"z": -3.6018056357,
				"element": "H" 
			},
			{
				"x": 1.3321248013,
				"y": -0.2230415006,
				"z": -1.3537289155,
				"element": "H" 
			},
			{
				"x": -0.9909015874,
				"y": -1.2995457062,
				"z": 0.195670315,
				"element": "H" 
			},
			{
				"x": -0.6093416384,
				"y": -3.6241965502,
				"z": 0.9882672406,
				"element": "H" 
			},
			{
				"x": 1.1890105437,
				"y": -4.0703846275,
				"z": 2.6914331649,
				"element": "H" 
			}
		],
		 "valence_orbital": [ 
			{
				"type": "occ",
				"energy": -0.27908,
				"method": "rhf"
			},
			{
				"type": "occ",
				"energy": -0.27609,
				"method": "rhf"
			},
			{
				"type": "occ",
				"energy": -0.26757,
				"method": "rhf"
			},
			{
				"type": "occ",
				"energy": -0.25786,
				"method": "rhf"
			},
			{
				"type": "occ",
				"energy": -0.23763,
				"method": "rhf"
			},
			{
				"type": "unocc",
				"energy": -0.0557,
				"method": "rhf"
			},
			{
				"type": "unocc",
				"energy": -0.04044,
				"method": "rhf"
			},
			{
				"type": "unocc",
				"energy": -0.01851,
				"method": "rhf"
			},
			{
				"type": "unocc",
				"energy": -0.01447,
				"method": "rhf"
			},
			{
				"type": "unocc",
				"energy": 0.0062,
				"method": "rhf"
			}
		],
		"cosmo_sigma_profile": { 
			"-0.025": 0.0,
			"-0.024": 0.0,
			"-0.023": 0.0,
			"-0.022": 0.0,
			"-0.021": 0.0,
			"-0.02": 0.0,
			"-0.019": 0.0,
			"-0.018": 0.0,
			"-0.017": 0.0,
			"-0.016": 0.0,
			"-0.015": 0.0283446524834,
			"-0.014": 0.668297523355,
			"-0.013": 0.581800705781,
			"-0.012": 0.319310055304,
			"-0.011": 1.15898995365,
			"-0.01": 0.427280313606,
			"-0.009": 1.15114224702,
			"-0.008": 3.83003177667,
			"-0.007": 7.8648039319,
			"-0.006": 17.5758895419,
			"-0.005": 18.8346779769,
			"-0.004": 18.0272936339,
			"-0.003": 17.1983196233,
			"-0.002": 16.9768913949,
			"-0.001": 17.4392077905,
			"0.0": 22.2628759475,
			"0.001": 22.9491156427,
			"0.002": 21.4401016818,
			"0.003": 17.0553667095,
			"0.004": 22.4258663462,
			"0.005": 8.88337055464,
			"0.006": 3.89633308197,
			"0.007": 2.81804692477,
			"0.008": 3.10443830415,
			"0.009": 2.36419321183,
			"0.01": 3.04753012136,
			"0.011": 3.08815298347,
			"0.012": 5.43097041182,
			"0.013": 2.78937464795,
			"0.014": 0.0386736822367,
			"0.015": 0.0,
			"0.016": 0.0,
			"0.017": 0.0,
			"0.018": 0.0,
			"0.019": 0.0,
			"0.02": 0.0,
			"0.021": 0.0,
			"0.022": 0.0,
			"0.023": 0.0,
			"0.024": 0.0,
			"0.025": 0.0
		}
	}
}
