{
	 "smiles": "CC(=O)NC1=CC(C(O)=O)=C(Br)C=C1", 
	 "Tm": 460.15, 
	 "num_atms": 22, 
	 "gaussian": { 
		 "optdone": 1, 
		 "sigma_profile": "yes", 
		 "theory": "DFT", 
		 "functional": "B3LYP", 
		 "basiset": "6-31G**", 
		 "properties": { 
			 "R2extent": 5647.798, 
			 "electric_dipole_moment_norm": 0.382973223607, 
			 "electric_quadrupole_moment_norm": 24.3499034984, 
			 "total_energy": -3199.63058707, 
			 "HOMO_LUMO_gap": 0.16778, 
			 "cosmo_polarized_energy": -17.73, 
			 "cosmo_cavitation_energy": 29.24, 
			 "cosmo_dispersion_energy": -21.48, 
			 "cosmo_repulsion_energy": 1.69, 
			 "cosmo_total_nonelectrostatic_energy": 9.45, 
			 "SMD_solvation_energy": 6.03 
		},
		"coords": [
			{
				"x": 0.1386597319,
				"y": -0.9022725026,
				"z": -2.7166618022,
				"element": "C" 
			},
			{
				"x": 1.6164464419,
				"y": -1.2194072372,
				"z": -2.6042684802,
				"element": "C" 
			},
			{
				"x": 2.2172495574,
				"y": -1.8349887373,
				"z": -3.4708741706,
				"element": "O" 
			},
			{
				"x": 2.3079302212,
				"y": -0.8132956099,
				"z": -1.4680329831,
				"element": "N" 
			},
			{
				"x": 1.9014396216,
				"y": -0.125460767,
				"z": -0.3087468987,
				"element": "C" 
			},
			{
				"x": 1.0061440686,
				"y": 0.9459008136,
				"z": -0.3363990621,
				"element": "C" 
			},
			{
				"x": 0.626596265,
				"y": 1.6278695539,
				"z": 0.8332247505,
				"element": "C" 
			},
			{
				"x": -0.332470123,
				"y": 2.7673812733,
				"z": 0.7031198404,
				"element": "C" 
			},
			{
				"x": -0.8900277713,
				"y": 2.8239751482,
				"z": -0.5373506402,
				"element": "O" 
			},
			{
				"x": -0.6133416919,
				"y": 3.5762429674,
				"z": 1.5594314304,
				"element": "O" 
			},
			{
				"x": 1.1935393739,
				"y": 1.2325314823,
				"z": 2.0587601479,
				"element": "C" 
			},
			{
				"x": 0.7818924804,
				"y": 2.0272953369,
				"z": 3.7386194962,
				"element": "Br" 
			},
			{
				"x": 2.112781471,
				"y": 0.1803399505,
				"z": 2.0870407758,
				"element": "C" 
			},
			{
				"x": 2.4602990987,
				"y": -0.4945848218,
				"z": 0.9250606436,
				"element": "C" 
			},
			{
				"x": -0.0062357261,
				"y": 0.0931996737,
				"z": -3.1496194206,
				"element": "H" 
			},
			{
				"x": -0.3808911178,
				"y": -0.9333498393,
				"z": -1.7563152132,
				"element": "H" 
			},
			{
				"x": -0.295275902,
				"y": -1.6312519342,
				"z": -3.4016650736,
				"element": "H" 
			},
			{
				"x": 3.2485703847,
				"y": -1.18957959,
				"z": -1.4634709422,
				"element": "H" 
			},
			{
				"x": 0.6014450839,
				"y": 1.2903593337,
				"z": -1.2764871774,
				"element": "H" 
			},
			{
				"x": -1.4699552541,
				"y": 3.6028387944,
				"z": -0.5216221004,
				"element": "H" 
			},
			{
				"x": 2.5443138818,
				"y": -0.1168366249,
				"z": 3.0355962589,
				"element": "H" 
			},
			{
				"x": 3.1628899041,
				"y": -1.3219066639,
				"z": 0.9732606208,
				"element": "H" 
			}
		],
		 "valence_orbital": [ 
			{
				"type": "occ",
				"energy": -0.2895,
				"method": "rhf"
			},
			{
				"type": "occ",
				"energy": -0.28381,
				"method": "rhf"
			},
			{
				"type": "occ",
				"energy": -0.26703,
				"method": "rhf"
			},
			{
				"type": "occ",
				"energy": -0.26288,
				"method": "rhf"
			},
			{
				"type": "occ",
				"energy": -0.23501,
				"method": "rhf"
			},
			{
				"type": "unocc",
				"energy": -0.06723,
				"method": "rhf"
			},
			{
				"type": "unocc",
				"energy": -0.03348,
				"method": "rhf"
			},
			{
				"type": "unocc",
				"energy": 0.00113,
				"method": "rhf"
			},
			{
				"type": "unocc",
				"energy": 0.01371,
				"method": "rhf"
			},
			{
				"type": "unocc",
				"energy": 0.04487,
				"method": "rhf"
			}
		],
		"cosmo_sigma_profile": { 
			"-0.025": 0.0,
			"-0.024": 0.0,
			"-0.023": 0.0,
			"-0.022": 0.0,
			"-0.021": 0.0,
			"-0.02": 0.0,
			"-0.019": 0.0793207274882,
			"-0.018": 0.752121609959,
			"-0.017": 1.04853474994,
			"-0.016": 1.06393589243,
			"-0.015": 0.642716526758,
			"-0.014": 1.81646273308,
			"-0.013": 1.45960807988,
			"-0.012": 2.56595462915,
			"-0.011": 2.23443466727,
			"-0.01": 2.2117627187,
			"-0.009": 2.44264354694,
			"-0.008": 5.59736341402,
			"-0.007": 7.98486077816,
			"-0.006": 8.59412534513,
			"-0.005": 10.0914446483,
			"-0.004": 11.4660622997,
			"-0.003": 17.0936949938,
			"-0.002": 18.5618139827,
			"-0.001": 18.3601318595,
			"0.0": 17.1261422153,
			"0.001": 23.8793250414,
			"0.002": 14.7953608953,
			"0.003": 9.11754055667,
			"0.004": 12.0221546542,
			"0.005": 6.59459143178,
			"0.006": 4.60003426166,
			"0.007": 4.31412185458,
			"0.008": 2.65370887136,
			"0.009": 3.60316798297,
			"0.01": 3.52207082265,
			"0.011": 6.60207890733,
			"0.012": 5.37871909099,
			"0.013": 5.97307784867,
			"0.014": 2.19649818256,
			"0.015": 0.169304980594,
			"0.016": 0.0,
			"0.017": 0.0,
			"0.018": 0.0,
			"0.019": 0.0,
			"0.02": 0.0,
			"0.021": 0.0,
			"0.022": 0.0,
			"0.023": 0.0,
			"0.024": 0.0,
			"0.025": 0.0
		}
	}
}
