{
	 "smiles": "N#CSC#N", 
	 "Tm": 336.65, 
	 "num_atms": 5, 
	 "gaussian": { 
		 "optdone": 1, 
		 "sigma_profile": "yes", 
		 "theory": "DFT", 
		 "functional": "B3LYP", 
		 "basiset": "6-31G**", 
		 "properties": { 
			 "R2extent": 1682.4375, 
			 "electric_dipole_moment_norm": 2.81477430356, 
			 "electric_quadrupole_moment_norm": 13.1700697686, 
			 "total_energy": -583.820652086, 
			 "HOMO_LUMO_gap": 0.23946, 
			 "cosmo_polarized_energy": -7.78, 
			 "cosmo_cavitation_energy": 13.56, 
			 "cosmo_dispersion_energy": -9.49, 
			 "cosmo_repulsion_energy": 0.81, 
			 "cosmo_total_nonelectrostatic_energy": 4.88, 
			 "SMD_solvation_energy": 6.69 
		},
		"coords": [
			{
				"x": 2.031013922,
				"y": 1.9997369304,
				"z": 0.2560416729,
				"element": "N" 
			},
			{
				"x": 1.1702809021,
				"y": 2.0832044243,
				"z": 1.03525534,
				"element": "C" 
			},
			{
				"x": -0.0057611626,
				"y": 2.141527946,
				"z": 2.2770782306,
				"element": "S" 
			},
			{
				"x": -1.2874648653,
				"y": 2.8959621807,
				"z": 1.4306278706,
				"element": "C" 
			},
			{
				"x": -2.2122687961,
				"y": 3.4031685185,
				"z": 0.9381968859,
				"element": "N" 
			}
		],
		 "valence_orbital": [ 
			{
				"type": "occ",
				"energy": -0.40485,
				"method": "rhf"
			},
			{
				"type": "occ",
				"energy": -0.3872,
				"method": "rhf"
			},
			{
				"type": "occ",
				"energy": -0.37991,
				"method": "rhf"
			},
			{
				"type": "occ",
				"energy": -0.37522,
				"method": "rhf"
			},
			{
				"type": "occ",
				"energy": -0.31172,
				"method": "rhf"
			},
			{
				"type": "unocc",
				"energy": -0.07226,
				"method": "rhf"
			},
			{
				"type": "unocc",
				"energy": -0.05599,
				"method": "rhf"
			},
			{
				"type": "unocc",
				"energy": -0.01615,
				"method": "rhf"
			},
			{
				"type": "unocc",
				"energy": 0.006,
				"method": "rhf"
			},
			{
				"type": "unocc",
				"energy": 0.02256,
				"method": "rhf"
			}
		],
		"cosmo_sigma_profile": { 
			"-0.025": 0.0,
			"-0.024": 0.0,
			"-0.023": 0.0,
			"-0.022": 0.0,
			"-0.021": 0.0,
			"-0.02": 0.0,
			"-0.019": 0.0,
			"-0.018": 0.0,
			"-0.017": 0.0,
			"-0.016": 0.0,
			"-0.015": 0.0,
			"-0.014": 0.0,
			"-0.013": 0.0,
			"-0.012": 0.0746350586,
			"-0.011": 1.28714032818,
			"-0.01": 2.27225705539,
			"-0.009": 2.16577033844,
			"-0.008": 4.40251672572,
			"-0.007": 5.83637723327,
			"-0.006": 6.89063970726,
			"-0.005": 10.8407208205,
			"-0.004": 8.6690787986,
			"-0.003": 5.4604020818,
			"-0.002": 6.05717179881,
			"-0.001": 4.4130532552,
			"0.0": 4.41528052617,
			"0.001": 3.78649156122,
			"0.002": 4.19797190026,
			"0.003": 5.25644951166,
			"0.004": 5.37381295402,
			"0.005": 5.86809203598,
			"0.006": 6.49241678163,
			"0.007": 5.70886964095,
			"0.008": 5.67052519753,
			"0.009": 4.73012362189,
			"0.01": 4.11140403954,
			"0.011": 0.667550710339,
			"0.012": 0.0,
			"0.013": 0.0,
			"0.014": 0.0,
			"0.015": 0.0,
			"0.016": 0.0,
			"0.017": 0.0,
			"0.018": 0.0,
			"0.019": 0.0,
			"0.02": 0.0,
			"0.021": 0.0,
			"0.022": 0.0,
			"0.023": 0.0,
			"0.024": 0.0,
			"0.025": 0.0
		}
	}
}
