{
	 "smiles": "OCC1=NC(=CS1)C1=CC=CC=C1", 
	 "Tm": 361.15, 
	 "num_atms": 22, 
	 "gaussian": { 
		 "optdone": 1, 
		 "sigma_profile": "yes", 
		 "theory": "DFT", 
		 "functional": "B3LYP", 
		 "basiset": "6-31G**", 
		 "properties": { 
			 "R2extent": 3813.1321, 
			 "electric_dipole_moment_norm": 2.18235817867, 
			 "electric_quadrupole_moment_norm": 12.506123245, 
			 "total_energy": -914.633952948, 
			 "HOMO_LUMO_gap": 0.17726, 
			 "cosmo_polarized_energy": -11.83, 
			 "cosmo_cavitation_energy": 27.94, 
			 "cosmo_dispersion_energy": -21.16, 
			 "cosmo_repulsion_energy": 1.63, 
			 "cosmo_total_nonelectrostatic_energy": 8.42, 
			 "SMD_solvation_energy": 3.34 
		},
		"coords": [
			{
				"x": 3.4215115557,
				"y": -0.6083739294,
				"z": 3.3994969473,
				"element": "O" 
			},
			{
				"x": 2.883212945,
				"y": 0.661048038,
				"z": 3.0558522451,
				"element": "C" 
			},
			{
				"x": 1.7218359259,
				"y": 0.5737620648,
				"z": 2.0984268509,
				"element": "C" 
			},
			{
				"x": 1.8178015372,
				"y": 0.6765552423,
				"z": 0.8087372666,
				"element": "N" 
			},
			{
				"x": 0.6032585586,
				"y": 0.4906411188,
				"z": 0.1699946122,
				"element": "C" 
			},
			{
				"x": -0.4445602538,
				"y": 0.2277996868,
				"z": 1.0210175647,
				"element": "C" 
			},
			{
				"x": 0.0850978404,
				"y": 0.231726151,
				"z": 2.6653996878,
				"element": "S" 
			},
			{
				"x": 0.543514545,
				"y": 0.5830792064,
				"z": -1.3025962723,
				"element": "C" 
			},
			{
				"x": 1.7293900476,
				"y": 0.7472547103,
				"z": -2.0373202799,
				"element": "C" 
			},
			{
				"x": 1.6962896136,
				"y": 0.8312982833,
				"z": -3.4281453688,
				"element": "C" 
			},
			{
				"x": 0.4816699556,
				"y": 0.7538653842,
				"z": -4.1115542677,
				"element": "C" 
			},
			{
				"x": -0.7038772687,
				"y": 0.5933349936,
				"z": -3.3900046502,
				"element": "C" 
			},
			{
				"x": -0.6740094041,
				"y": 0.510108767,
				"z": -2.0001893547,
				"element": "C" 
			},
			{
				"x": 2.739932087,
				"y": -1.1090011608,
				"z": 3.867187515,
				"element": "H" 
			},
			{
				"x": 3.6833735388,
				"y": 1.2064960459,
				"z": 2.5508124112,
				"element": "H" 
			},
			{
				"x": 2.5886495433,
				"y": 1.2310067719,
				"z": 3.9500262899,
				"element": "H" 
			},
			{
				"x": -1.4800902921,
				"y": 0.0392178016,
				"z": 0.779896529,
				"element": "H" 
			},
			{
				"x": 2.6695797272,
				"y": 0.8063218725,
				"z": -1.5009798764,
				"element": "H" 
			},
			{
				"x": 2.6238903558,
				"y": 0.9570073055,
				"z": -3.9794844035,
				"element": "H" 
			},
			{
				"x": 0.4570017186,
				"y": 0.8196027763,
				"z": -5.1954244546,
				"element": "H" 
			},
			{
				"x": -1.6554143739,
				"y": 0.5359062162,
				"z": -3.9109368401,
				"element": "H" 
			},
			{
				"x": -1.6075579028,
				"y": 0.3945426539,
				"z": -1.4575121515,
				"element": "H" 
			}
		],
		 "valence_orbital": [ 
			{
				"type": "occ",
				"energy": -0.29139,
				"method": "rhf"
			},
			{
				"type": "occ",
				"energy": -0.27789,
				"method": "rhf"
			},
			{
				"type": "occ",
				"energy": -0.27067,
				"method": "rhf"
			},
			{
				"type": "occ",
				"energy": -0.2497,
				"method": "rhf"
			},
			{
				"type": "occ",
				"energy": -0.22014,
				"method": "rhf"
			},
			{
				"type": "unocc",
				"energy": -0.04288,
				"method": "rhf"
			},
			{
				"type": "unocc",
				"energy": -0.0145,
				"method": "rhf"
			},
			{
				"type": "unocc",
				"energy": 0.00199,
				"method": "rhf"
			},
			{
				"type": "unocc",
				"energy": 0.0082,
				"method": "rhf"
			},
			{
				"type": "unocc",
				"energy": 0.06758,
				"method": "rhf"
			}
		],
		"cosmo_sigma_profile": { 
			"-0.025": 0.0,
			"-0.024": 0.0,
			"-0.023": 0.0,
			"-0.022": 0.0,
			"-0.021": 0.0,
			"-0.02": 0.0,
			"-0.019": 0.0,
			"-0.018": 0.0,
			"-0.017": 0.0,
			"-0.016": 0.198632974407,
			"-0.015": 0.881599526345,
			"-0.014": 1.20942453542,
			"-0.013": 1.51592483569,
			"-0.012": 0.992719688202,
			"-0.011": 0.867079494875,
			"-0.01": 1.65441456299,
			"-0.009": 3.28092682435,
			"-0.008": 4.4042596676,
			"-0.007": 4.69041165194,
			"-0.006": 11.8833035108,
			"-0.005": 13.5582658207,
			"-0.004": 17.2903783759,
			"-0.003": 14.4654523501,
			"-0.002": 12.4425267459,
			"-0.001": 12.3179461753,
			"0.0": 13.9033766023,
			"0.001": 15.1934321088,
			"0.002": 21.1257092498,
			"0.003": 20.0989913933,
			"0.004": 13.4791704898,
			"0.005": 13.8500098911,
			"0.006": 7.60189159168,
			"0.007": 3.21848956282,
			"0.008": 3.10518730298,
			"0.009": 2.57729281017,
			"0.01": 3.33114055053,
			"0.011": 1.4534502496,
			"0.012": 1.98483045651,
			"0.013": 2.20168052274,
			"0.014": 1.08742227532,
			"0.015": 0.0,
			"0.016": 0.0,
			"0.017": 0.0,
			"0.018": 0.0,
			"0.019": 0.0,
			"0.02": 0.0,
			"0.021": 0.0,
			"0.022": 0.0,
			"0.023": 0.0,
			"0.024": 0.0,
			"0.025": 0.0
		}
	}
}
