{
	 "smiles": "NC1=CC2=C(NC(=N2)C2=NC=CC=C2)C=C1", 
	 "Tm": 463.15, 
	 "num_atms": 26, 
	 "gaussian": { 
		 "optdone": 1, 
		 "sigma_profile": "yes", 
		 "theory": "DFT", 
		 "functional": "B3LYP", 
		 "basiset": "6-31G**", 
		 "properties": { 
			 "R2extent": 5356.0198, 
			 "electric_dipole_moment_norm": 1.64482518828, 
			 "electric_quadrupole_moment_norm": 22.6097633212, 
			 "total_energy": -682.332791352, 
			 "HOMO_LUMO_gap": 0.13621, 
			 "cosmo_polarized_energy": -15.42, 
			 "cosmo_cavitation_energy": 30.58, 
			 "cosmo_dispersion_energy": -23.12, 
			 "cosmo_repulsion_energy": 1.77, 
			 "cosmo_total_nonelectrostatic_energy": 9.24, 
			 "SMD_solvation_energy": 1.91 
		},
		"coords": [
			{
				"x": 1.2654559953,
				"y": 5.1893611741,
				"z": 1.8271948461,
				"element": "N" 
			},
			{
				"x": 1.0036041729,
				"y": 4.0642489231,
				"z": 1.0271853617,
				"element": "C" 
			},
			{
				"x": 1.5933940327,
				"y": 2.8307650493,
				"z": 1.3110167144,
				"element": "C" 
			},
			{
				"x": 1.3515617891,
				"y": 1.7562640427,
				"z": 0.4441427365,
				"element": "C" 
			},
			{
				"x": 0.5186499179,
				"y": 1.9275394952,
				"z": -0.6927309286,
				"element": "C" 
			},
			{
				"x": 0.4986776656,
				"y": 0.6878862551,
				"z": -1.3012423723,
				"element": "N" 
			},
			{
				"x": 1.2841268719,
				"y": -0.1434563508,
				"z": -0.5425860354,
				"element": "C" 
			},
			{
				"x": 1.8122128521,
				"y": 0.4543992119,
				"z": 0.5102326589,
				"element": "N" 
			},
			{
				"x": 1.4707190636,
				"y": -1.5437532595,
				"z": -0.9270984096,
				"element": "C" 
			},
			{
				"x": 0.8314403018,
				"y": -1.9395179737,
				"z": -2.045130347,
				"element": "N" 
			},
			{
				"x": 0.9797643143,
				"y": -3.2119046925,
				"z": -2.4260673881,
				"element": "C" 
			},
			{
				"x": 1.7555097809,
				"y": -4.1406198627,
				"z": -1.7304564443,
				"element": "C" 
			},
			{
				"x": 2.4137481932,
				"y": -3.7190503045,
				"z": -0.5726208092,
				"element": "C" 
			},
			{
				"x": 2.2729840582,
				"y": -2.3993185916,
				"z": -0.1586702967,
				"element": "C" 
			},
			{
				"x": -0.0784348632,
				"y": 3.1548098542,
				"z": -0.9851649355,
				"element": "C" 
			},
			{
				"x": 0.1758588818,
				"y": 4.209970331,
				"z": -0.1178866116,
				"element": "C" 
			},
			{
				"x": 1.5645513965,
				"y": 4.9651427229,
				"z": 2.7671669913,
				"element": "H" 
			},
			{
				"x": 0.5179841967,
				"y": 5.8708369913,
				"z": 1.8416862441,
				"element": "H" 
			},
			{
				"x": 2.2306262195,
				"y": 2.6971698027,
				"z": 2.1802341849,
				"element": "H" 
			},
			{
				"x": 0.0256309246,
				"y": 0.3833010062,
				"z": -2.1390321503,
				"element": "H" 
			},
			{
				"x": 0.4524281003,
				"y": -3.5040310613,
				"z": -3.3324793171,
				"element": "H" 
			},
			{
				"x": 1.8391043948,
				"y": -5.1617679808,
				"z": -2.0879851625,
				"element": "H" 
			},
			{
				"x": 3.0273844166,
				"y": -4.4107325651,
				"z": -0.0026164767,
				"element": "H" 
			},
			{
				"x": 2.7576942646,
				"y": -2.0111245796,
				"z": 0.7297124999,
				"element": "H" 
			},
			{
				"x": -0.7175092369,
				"y": 3.2920534948,
				"z": -1.8521351435,
				"element": "H" 
			},
			{
				"x": -0.263867705,
				"y": 5.1830288677,
				"z": -0.3213694094,
				"element": "H" 
			}
		],
		 "valence_orbital": [ 
			{
				"type": "occ",
				"energy": -0.26972,
				"method": "rhf"
			},
			{
				"type": "occ",
				"energy": -0.26412,
				"method": "rhf"
			},
			{
				"type": "occ",
				"energy": -0.26258,
				"method": "rhf"
			},
			{
				"type": "occ",
				"energy": -0.21113,
				"method": "rhf"
			},
			{
				"type": "occ",
				"energy": -0.18517,
				"method": "rhf"
			},
			{
				"type": "unocc",
				"energy": -0.04896,
				"method": "rhf"
			},
			{
				"type": "unocc",
				"energy": -0.02223,
				"method": "rhf"
			},
			{
				"type": "unocc",
				"energy": 0.01597,
				"method": "rhf"
			},
			{
				"type": "unocc",
				"energy": 0.04233,
				"method": "rhf"
			},
			{
				"type": "unocc",
				"energy": 0.07812,
				"method": "rhf"
			}
		],
		"cosmo_sigma_profile": { 
			"-0.025": 0.0,
			"-0.024": 0.0,
			"-0.023": 0.0,
			"-0.022": 0.0,
			"-0.021": 0.0,
			"-0.02": 0.0,
			"-0.019": 0.0,
			"-0.018": 0.0,
			"-0.017": 0.0,
			"-0.016": 0.0,
			"-0.015": 0.358519966688,
			"-0.014": 0.722863796281,
			"-0.013": 0.97155975749,
			"-0.012": 2.40221321137,
			"-0.011": 3.35903493289,
			"-0.01": 3.18435879603,
			"-0.009": 4.47946835878,
			"-0.008": 4.91726044229,
			"-0.007": 9.5319043709,
			"-0.006": 17.2044763995,
			"-0.005": 15.0907102322,
			"-0.004": 13.3016122276,
			"-0.003": 10.4852234139,
			"-0.002": 9.73862896898,
			"-0.001": 11.9024384774,
			"0.0": 12.6553496971,
			"0.001": 22.6319942222,
			"0.002": 24.7025239264,
			"0.003": 14.529329728,
			"0.004": 10.4361160874,
			"0.005": 12.9096753197,
			"0.006": 14.616502933,
			"0.007": 5.61283052773,
			"0.008": 3.71180450048,
			"0.009": 3.75720717365,
			"0.01": 3.12933174323,
			"0.011": 1.5955413897,
			"0.012": 1.56540103531,
			"0.013": 2.04988291461,
			"0.014": 1.72630800522,
			"0.015": 1.38135029972,
			"0.016": 0.839683882371,
			"0.017": 0.0,
			"0.018": 0.0,
			"0.019": 0.0,
			"0.02": 0.0,
			"0.021": 0.0,
			"0.022": 0.0,
			"0.023": 0.0,
			"0.024": 0.0,
			"0.025": 0.0
		}
	}
}
