{
	 "smiles": "CC(=O)NC1=CC=C(C=C1)C1=NC2=CC=CC=C2C(=C1)C(O)=O", 
	 "Tm": 548.15, 
	 "num_atms": 37, 
	 "gaussian": { 
		 "optdone": 1, 
		 "sigma_profile": "yes", 
		 "theory": "DFT", 
		 "functional": "B3LYP", 
		 "basiset": "6-31G**", 
		 "properties": { 
			 "R2extent": 11103.9674, 
			 "electric_dipole_moment_norm": 4.48722025869, 
			 "electric_quadrupole_moment_norm": 13.1921539007, 
			 "total_energy": -1029.57533361, 
			 "HOMO_LUMO_gap": 0.13238, 
			 "cosmo_polarized_energy": -19.01, 
			 "cosmo_cavitation_energy": 41.94, 
			 "cosmo_dispersion_energy": -30.54, 
			 "cosmo_repulsion_energy": 2.27, 
			 "cosmo_total_nonelectrostatic_energy": 13.67, 
			 "SMD_solvation_energy": 7.78 
		},
		"coords": [
			{
				"x": 5.7755330361,
				"y": 1.7024037243,
				"z": 0.8432244728,
				"element": "C" 
			},
			{
				"x": 5.7418215555,
				"y": 2.3685018437,
				"z": -0.5180445717,
				"element": "C" 
			},
			{
				"x": 6.7167961887,
				"y": 2.9403347003,
				"z": -0.982865752,
				"element": "O" 
			},
			{
				"x": 4.5624162763,
				"y": 2.3478838861,
				"z": -1.2509089919,
				"element": "N" 
			},
			{
				"x": 3.2870933394,
				"y": 1.8107477637,
				"z": -0.9943909562,
				"element": "C" 
			},
			{
				"x": 3.0821568468,
				"y": 0.5946365293,
				"z": -0.3264423755,
				"element": "C" 
			},
			{
				"x": 1.7912744697,
				"y": 0.1153431154,
				"z": -0.1187448701,
				"element": "C" 
			},
			{
				"x": 0.6658417911,
				"y": 0.8079619231,
				"z": -0.5905352726,
				"element": "C" 
			},
			{
				"x": 0.8841106965,
				"y": 2.0062707497,
				"z": -1.2936177204,
				"element": "C" 
			},
			{
				"x": 2.1646118611,
				"y": 2.5018105639,
				"z": -1.485460324,
				"element": "C" 
			},
			{
				"x": -0.7194198112,
				"y": 0.3135817175,
				"z": -0.3900419871,
				"element": "C" 
			},
			{
				"x": -1.6791999101,
				"y": 0.8869098649,
				"z": -1.1017901622,
				"element": "N" 
			},
			{
				"x": -2.9631426711,
				"y": 0.4675894659,
				"z": -0.9559472715,
				"element": "C" 
			},
			{
				"x": -3.9420764755,
				"y": 1.1160369164,
				"z": -1.7579909652,
				"element": "C" 
			},
			{
				"x": -5.2642654316,
				"y": 0.7487538438,
				"z": -1.687160888,
				"element": "C" 
			},
			{
				"x": -5.6598433029,
				"y": -0.2864560058,
				"z": -0.8084758524,
				"element": "C" 
			},
			{
				"x": -4.7394132888,
				"y": -0.9351860841,
				"z": -0.0129711386,
				"element": "C" 
			},
			{
				"x": -3.3629643331,
				"y": -0.5810195682,
				"z": -0.054161645,
				"element": "C" 
			},
			{
				"x": -2.3055925778,
				"y": -1.1703731194,
				"z": 0.7184297397,
				"element": "C" 
			},
			{
				"x": -1.0136088469,
				"y": -0.720382983,
				"z": 0.5390783894,
				"element": "C" 
			},
			{
				"x": -2.4364879379,
				"y": -2.2553902294,
				"z": 1.7479510011,
				"element": "C" 
			},
			{
				"x": -3.7039772591,
				"y": -2.6249792678,
				"z": 2.0434252768,
				"element": "O" 
			},
			{
				"x": -1.4872597643,
				"y": -2.7743693483,
				"z": 2.3018323612,
				"element": "O" 
			},
			{
				"x": 6.5788210254,
				"y": 2.1725930357,
				"z": 1.4112621936,
				"element": "H" 
			},
			{
				"x": 6.014795945,
				"y": 0.6385394943,
				"z": 0.7406027239,
				"element": "H" 
			},
			{
				"x": 4.8305603265,
				"y": 1.788697108,
				"z": 1.3840934318,
				"element": "H" 
			},
			{
				"x": 4.642122897,
				"y": 2.9333539148,
				"z": -2.0740523648,
				"element": "H" 
			},
			{
				"x": 3.9259887965,
				"y": 0.0023270368,
				"z": 0.0040983883,
				"element": "H" 
			},
			{
				"x": 1.6781035299,
				"y": -0.8372701032,
				"z": 0.3879503486,
				"element": "H" 
			},
			{
				"x": 0.0241320573,
				"y": 2.5439234558,
				"z": -1.6759353681,
				"element": "H" 
			},
			{
				"x": 2.3080899959,
				"y": 3.4431206658,
				"z": -2.0097062304,
				"element": "H" 
			},
			{
				"x": -3.5960343535,
				"y": 1.9009911271,
				"z": -2.4220325343,
				"element": "H" 
			},
			{
				"x": -6.00575969,
				"y": 1.2474671678,
				"z": -2.3043746978,
				"element": "H" 
			},
			{
				"x": -6.7052261153,
				"y": -0.5769561917,
				"z": -0.758370356,
				"element": "H" 
			},
			{
				"x": -5.0653496916,
				"y": -1.7218151676,
				"z": 0.6513135608,
				"element": "H" 
			},
			{
				"x": -0.2368424824,
				"y": -1.1693971618,
				"z": 1.1440585079,
				"element": "H" 
			},
			{
				"x": -3.6201066918,
				"y": -3.3200843837,
				"z": 2.7181018999,
				"element": "H" 
			}
		],
		 "valence_orbital": [ 
			{
				"type": "occ",
				"energy": -0.26321,
				"method": "rhf"
			},
			{
				"type": "occ",
				"energy": -0.26218,
				"method": "rhf"
			},
			{
				"type": "occ",
				"energy": -0.2553,
				"method": "rhf"
			},
			{
				"type": "occ",
				"energy": -0.24219,
				"method": "rhf"
			},
			{
				"type": "occ",
				"energy": -0.21704,
				"method": "rhf"
			},
			{
				"type": "unocc",
				"energy": -0.08466,
				"method": "rhf"
			},
			{
				"type": "unocc",
				"energy": -0.04394,
				"method": "rhf"
			},
			{
				"type": "unocc",
				"energy": -0.01239,
				"method": "rhf"
			},
			{
				"type": "unocc",
				"energy": -0.01164,
				"method": "rhf"
			},
			{
				"type": "unocc",
				"energy": 0.00021,
				"method": "rhf"
			}
		],
		"cosmo_sigma_profile": { 
			"-0.025": 0.0,
			"-0.024": 0.0,
			"-0.023": 0.0,
			"-0.022": 0.0,
			"-0.021": 0.0,
			"-0.02": 0.0,
			"-0.019": 0.26002027007,
			"-0.018": 0.859068032772,
			"-0.017": 1.11458930264,
			"-0.016": 0.953602214655,
			"-0.015": 0.413856572948,
			"-0.014": 1.44857484744,
			"-0.013": 1.39938884226,
			"-0.012": 2.71815486587,
			"-0.011": 1.95418999505,
			"-0.01": 1.15772827735,
			"-0.009": 2.42725121374,
			"-0.008": 5.7546629758,
			"-0.007": 8.9840206847,
			"-0.006": 14.789586727,
			"-0.005": 18.6761382336,
			"-0.004": 23.3628819238,
			"-0.003": 22.2839268408,
			"-0.002": 22.4851951523,
			"-0.001": 25.1997686927,
			"0.0": 27.1137812908,
			"0.001": 24.529760922,
			"0.002": 28.9649003882,
			"0.003": 26.5048201903,
			"0.004": 25.728772481,
			"0.005": 6.43160699284,
			"0.006": 4.66689610361,
			"0.007": 5.02197881637,
			"0.008": 5.03166068003,
			"0.009": 3.358212401,
			"0.01": 3.74813402451,
			"0.011": 7.21505224522,
			"0.012": 3.39112261861,
			"0.013": 5.60977148477,
			"0.014": 2.89724630595,
			"0.015": 0.289042496272,
			"0.016": 0.0,
			"0.017": 0.0,
			"0.018": 0.0,
			"0.019": 0.0,
			"0.02": 0.0,
			"0.021": 0.0,
			"0.022": 0.0,
			"0.023": 0.0,
			"0.024": 0.0,
			"0.025": 0.0
		}
	}
}
