{
	 "smiles": "OC(=O)C=C1OC(=O)C2=CC=CC=C12", 
	 "Tm": 561.15, 
	 "num_atms": 20, 
	 "gaussian": { 
		 "optdone": 1, 
		 "sigma_profile": "yes", 
		 "theory": "DFT", 
		 "functional": "B3LYP", 
		 "basiset": "6-31G**", 
		 "properties": { 
			 "R2extent": 3099.3115, 
			 "electric_dipole_moment_norm": 5.13240103947, 
			 "electric_quadrupole_moment_norm": 17.3448957725, 
			 "total_energy": -685.573372542, 
			 "HOMO_LUMO_gap": 0.16384, 
			 "cosmo_polarized_energy": -17.26, 
			 "cosmo_cavitation_energy": 25.64, 
			 "cosmo_dispersion_energy": -18.87, 
			 "cosmo_repulsion_energy": 1.46, 
			 "cosmo_total_nonelectrostatic_energy": 8.23, 
			 "SMD_solvation_energy": 6.63 
		},
		"coords": [
			{
				"x": 1.2679838203,
				"y": 2.2382307686,
				"z": -1.2479122197,
				"element": "O" 
			},
			{
				"x": 1.4016705145,
				"y": 2.725985959,
				"z": 0.0222702646,
				"element": "C" 
			},
			{
				"x": 2.1311114896,
				"y": 3.6624469633,
				"z": 0.2363039143,
				"element": "O" 
			},
			{
				"x": 0.5941415336,
				"y": 2.0768766249,
				"z": 1.084680197,
				"element": "C" 
			},
			{
				"x": 0.3583795714,
				"y": 0.7617471675,
				"z": 1.2611478189,
				"element": "C" 
			},
			{
				"x": -0.4284364949,
				"y": 0.3992874172,
				"z": 2.3420898577,
				"element": "O" 
			},
			{
				"x": -0.5828338926,
				"y": -0.9880824568,
				"z": 2.3984826505,
				"element": "C" 
			},
			{
				"x": -1.244568159,
				"y": -1.5221745049,
				"z": 3.2461583242,
				"element": "O" 
			},
			{
				"x": 0.195838,
				"y": -1.5376058534,
				"z": 1.2740970286,
				"element": "C" 
			},
			{
				"x": 0.3939145599,
				"y": -2.8676641405,
				"z": 0.9200213961,
				"element": "C" 
			},
			{
				"x": 1.2209952325,
				"y": -3.1277647376,
				"z": -0.1727737348,
				"element": "C" 
			},
			{
				"x": 1.8316850046,
				"y": -2.0733199245,
				"z": -0.8680992297,
				"element": "C" 
			},
			{
				"x": 1.6293547552,
				"y": -0.7389272357,
				"z": -0.5069458787,
				"element": "C" 
			},
			{
				"x": 0.785219381,
				"y": -0.4746208012,
				"z": 0.5777032627,
				"element": "C" 
			},
			{
				"x": 0.5169999287,
				"y": 1.6279743169,
				"z": -1.2837459812,
				"element": "H" 
			},
			{
				"x": 0.224767916,
				"y": 2.753296876,
				"z": 1.8479740289,
				"element": "H" 
			},
			{
				"x": -0.0784077786,
				"y": -3.663287875,
				"z": 1.4869202298,
				"element": "H" 
			},
			{
				"x": 1.4034172818,
				"y": -4.1515373216,
				"z": -0.4840027984,
				"element": "H" 
			},
			{
				"x": 2.4844544861,
				"y": -2.2975799042,
				"z": -1.7063258281,
				"element": "H" 
			},
			{
				"x": 2.1262128498,
				"y": 0.0543186619,
				"z": -1.0524433026,
				"element": "H" 
			}
		],
		 "valence_orbital": [ 
			{
				"type": "occ",
				"energy": -0.30797,
				"method": "rhf"
			},
			{
				"type": "occ",
				"energy": -0.30114,
				"method": "rhf"
			},
			{
				"type": "occ",
				"energy": -0.29354,
				"method": "rhf"
			},
			{
				"type": "occ",
				"energy": -0.28708,
				"method": "rhf"
			},
			{
				"type": "occ",
				"energy": -0.26159,
				"method": "rhf"
			},
			{
				"type": "unocc",
				"energy": -0.09775,
				"method": "rhf"
			},
			{
				"type": "unocc",
				"energy": -0.06372,
				"method": "rhf"
			},
			{
				"type": "unocc",
				"energy": -0.00825,
				"method": "rhf"
			},
			{
				"type": "unocc",
				"energy": 0.0261,
				"method": "rhf"
			},
			{
				"type": "unocc",
				"energy": 0.06247,
				"method": "rhf"
			}
		],
		"cosmo_sigma_profile": { 
			"-0.025": 0.0,
			"-0.024": 0.0,
			"-0.023": 0.0,
			"-0.022": 0.0,
			"-0.021": 0.0,
			"-0.02": 0.0,
			"-0.019": 0.172472484903,
			"-0.018": 0.68075182603,
			"-0.017": 1.13682620381,
			"-0.016": 0.144377512099,
			"-0.015": 0.774786539132,
			"-0.014": 1.18393277789,
			"-0.013": 0.672357515079,
			"-0.012": 1.4791500089,
			"-0.011": 0.800975812671,
			"-0.01": 0.887907840522,
			"-0.009": 2.14260244186,
			"-0.008": 5.60047217512,
			"-0.007": 10.6405458378,
			"-0.006": 15.3569582444,
			"-0.005": 13.661590091,
			"-0.004": 11.4646510218,
			"-0.003": 12.0417330122,
			"-0.002": 13.057356653,
			"-0.001": 13.6243888149,
			"0.0": 14.9162524479,
			"0.001": 14.450199304,
			"0.002": 12.3245809882,
			"0.003": 4.78223879787,
			"0.004": 3.37140807706,
			"0.005": 4.63163412762,
			"0.006": 4.30143980894,
			"0.007": 6.0286867034,
			"0.008": 6.25087180924,
			"0.009": 6.64279325596,
			"0.01": 10.4978281837,
			"0.011": 9.06463610797,
			"0.012": 4.1541320718,
			"0.013": 0.347439247138,
			"0.014": 0.0,
			"0.015": 0.0,
			"0.016": 0.0,
			"0.017": 0.0,
			"0.018": 0.0,
			"0.019": 0.0,
			"0.02": 0.0,
			"0.021": 0.0,
			"0.022": 0.0,
			"0.023": 0.0,
			"0.024": 0.0,
			"0.025": 0.0
		}
	}
}
