{
	 "smiles": "CC(Cl)C(=O)NCC1=C(Cl)C=CC=C1", 
	 "Tm": 362.15, 
	 "num_atms": 25, 
	 "gaussian": { 
		 "optdone": 1, 
		 "sigma_profile": "yes", 
		 "theory": "DFT", 
		 "functional": "B3LYP", 
		 "basiset": "6-31G**", 
		 "properties": { 
			 "R2extent": 5094.9813, 
			 "electric_dipole_moment_norm": 4.55235347595, 
			 "electric_quadrupole_moment_norm": 14.4019013925, 
			 "total_energy": -1438.06924376, 
			 "HOMO_LUMO_gap": 0.22289, 
			 "cosmo_polarized_energy": -11.44, 
			 "cosmo_cavitation_energy": 31.49, 
			 "cosmo_dispersion_energy": -22.34, 
			 "cosmo_repulsion_energy": 1.77, 
			 "cosmo_total_nonelectrostatic_energy": 10.91, 
			 "SMD_solvation_energy": 4.85 
		},
		"coords": [
			{
				"x": 0.2656299738,
				"y": -3.6783185381,
				"z": -2.0141748282,
				"element": "C" 
			},
			{
				"x": -1.2259221691,
				"y": -3.5741143819,
				"z": -2.316489011,
				"element": "C" 
			},
			{
				"x": -2.223401759,
				"y": -4.2936964078,
				"z": -0.9475797879,
				"element": "Cl" 
			},
			{
				"x": -1.6589490288,
				"y": -2.1612410181,
				"z": -2.7424455754,
				"element": "C" 
			},
			{
				"x": -1.8094908747,
				"y": -1.9707915883,
				"z": -3.944546296,
				"element": "O" 
			},
			{
				"x": -1.8176003066,
				"y": -1.1418683153,
				"z": -1.8492891528,
				"element": "N" 
			},
			{
				"x": -1.6130938617,
				"y": -1.0519458397,
				"z": -0.4049488484,
				"element": "C" 
			},
			{
				"x": -0.3680721879,
				"y": -0.2817092786,
				"z": 0.0085688929,
				"element": "C" 
			},
			{
				"x": -0.2056479404,
				"y": 1.0903494647,
				"z": -0.2329692835,
				"element": "C" 
			},
			{
				"x": -1.4835371065,
				"y": 2.0050115437,
				"z": -1.0415850831,
				"element": "Cl" 
			},
			{
				"x": 0.9366002597,
				"y": 1.7843086468,
				"z": 0.1614661957,
				"element": "C" 
			},
			{
				"x": 1.9538729478,
				"y": 1.1038216911,
				"z": 0.8309063238,
				"element": "C" 
			},
			{
				"x": 1.8159236959,
				"y": -0.2559883767,
				"z": 1.1058577649,
				"element": "C" 
			},
			{
				"x": 0.6655595754,
				"y": -0.931219282,
				"z": 0.6979389948,
				"element": "C" 
			},
			{
				"x": 0.8215419623,
				"y": -3.3207665543,
				"z": -2.8875349501,
				"element": "H" 
			},
			{
				"x": 0.5446033178,
				"y": -4.7175573974,
				"z": -1.8253759392,
				"element": "H" 
			},
			{
				"x": 0.5565367522,
				"y": -3.073261779,
				"z": -1.1534842722,
				"element": "H" 
			},
			{
				"x": -1.4794878318,
				"y": -4.1938010415,
				"z": -3.1742554917,
				"element": "H" 
			},
			{
				"x": -2.0659153065,
				"y": -0.2786138552,
				"z": -2.3174173133,
				"element": "H" 
			},
			{
				"x": -1.5702018214,
				"y": -2.0564504243,
				"z": 0.0101324948,
				"element": "H" 
			},
			{
				"x": -2.4976038114,
				"y": -0.5692180261,
				"z": 0.027317985,
				"element": "H" 
			},
			{
				"x": 1.0201770498,
				"y": 2.8445092341,
				"z": -0.0502644181,
				"element": "H" 
			},
			{
				"x": 2.8449149027,
				"y": 1.6415917823,
				"z": 1.1399450977,
				"element": "H" 
			},
			{
				"x": 2.5974591202,
				"y": -0.7901249291,
				"z": 1.637222749,
				"element": "H" 
			},
			{
				"x": 0.5536044483,
				"y": -1.9874053291,
				"z": 0.9282037524,
				"element": "H" 
			}
		],
		 "valence_orbital": [ 
			{
				"type": "occ",
				"energy": -0.30083,
				"method": "rhf"
			},
			{
				"type": "occ",
				"energy": -0.27429,
				"method": "rhf"
			},
			{
				"type": "occ",
				"energy": -0.26166,
				"method": "rhf"
			},
			{
				"type": "occ",
				"energy": -0.25543,
				"method": "rhf"
			},
			{
				"type": "occ",
				"energy": -0.25187,
				"method": "rhf"
			},
			{
				"type": "unocc",
				"energy": -0.02898,
				"method": "rhf"
			},
			{
				"type": "unocc",
				"energy": -0.02727,
				"method": "rhf"
			},
			{
				"type": "unocc",
				"energy": -0.00884,
				"method": "rhf"
			},
			{
				"type": "unocc",
				"energy": 0.01571,
				"method": "rhf"
			},
			{
				"type": "unocc",
				"energy": 0.04723,
				"method": "rhf"
			}
		],
		"cosmo_sigma_profile": { 
			"-0.025": 0.0,
			"-0.024": 0.0,
			"-0.023": 0.0,
			"-0.022": 0.0,
			"-0.021": 0.0,
			"-0.02": 0.0,
			"-0.019": 0.0,
			"-0.018": 0.0,
			"-0.017": 0.0,
			"-0.016": 0.0,
			"-0.015": 0.0,
			"-0.014": 0.0,
			"-0.013": 0.0,
			"-0.012": 0.0,
			"-0.011": 0.0496446117222,
			"-0.01": 0.527315317324,
			"-0.009": 0.968662952072,
			"-0.008": 2.12748376933,
			"-0.007": 8.71982622348,
			"-0.006": 16.2720978617,
			"-0.005": 19.3351903026,
			"-0.004": 19.4665592283,
			"-0.003": 17.752755958,
			"-0.002": 20.5717924867,
			"-0.001": 19.2186478745,
			"0.0": 18.1656633199,
			"0.001": 17.9062238494,
			"0.002": 21.8487449131,
			"0.003": 20.1618131309,
			"0.004": 19.601563936,
			"0.005": 9.01270864666,
			"0.006": 6.01810679773,
			"0.007": 1.7057737433,
			"0.008": 1.20487828989,
			"0.009": 0.476391448666,
			"0.01": 0.761613292738,
			"0.011": 2.18875217566,
			"0.012": 2.42026277297,
			"0.013": 5.82670763077,
			"0.014": 2.25424972544,
			"0.015": 0.0121480901212,
			"0.016": 0.0,
			"0.017": 0.0,
			"0.018": 0.0,
			"0.019": 0.0,
			"0.02": 0.0,
			"0.021": 0.0,
			"0.022": 0.0,
			"0.023": 0.0,
			"0.024": 0.0,
			"0.025": 0.0
		}
	}
}
