{
	 "smiles": "COC(=O)C1=C(NN=C1C)C1=NOC(C)=C1", 
	 "Tm": 442.15, 
	 "num_atms": 27, 
	 "gaussian": { 
		 "optdone": 1, 
		 "sigma_profile": "yes", 
		 "theory": "DFT", 
		 "functional": "B3LYP", 
		 "basiset": "6-31G**", 
		 "properties": { 
			 "R2extent": 4897.7912, 
			 "electric_dipole_moment_norm": 3.00956853386, 
			 "electric_quadrupole_moment_norm": 22.2111207236, 
			 "total_energy": -777.567396209, 
			 "HOMO_LUMO_gap": 0.21211, 
			 "cosmo_polarized_energy": -19.33, 
			 "cosmo_cavitation_energy": 32.61, 
			 "cosmo_dispersion_energy": -23.1, 
			 "cosmo_repulsion_energy": 1.84, 
			 "cosmo_total_nonelectrostatic_energy": 11.35, 
			 "SMD_solvation_energy": 6.3 
		},
		"coords": [
			{
				"x": -0.8635515207,
				"y": -4.1766814121,
				"z": -2.0674657517,
				"element": "C" 
			},
			{
				"x": -1.0695958131,
				"y": -2.7797579956,
				"z": -1.8114493265,
				"element": "O" 
			},
			{
				"x": -0.547561707,
				"y": -2.3306268206,
				"z": -0.639885333,
				"element": "C" 
			},
			{
				"x": 0.0494311661,
				"y": -3.0499140107,
				"z": 0.1355017251,
				"element": "O" 
			},
			{
				"x": -0.783287196,
				"y": -0.8894976849,
				"z": -0.4625325674,
				"element": "C" 
			},
			{
				"x": -0.5405590533,
				"y": -0.1740401167,
				"z": 0.7107828065,
				"element": "C" 
			},
			{
				"x": -0.7941804106,
				"y": 1.1209420581,
				"z": 0.4032327188,
				"element": "N" 
			},
			{
				"x": -1.1982045203,
				"y": 1.3090627517,
				"z": -0.874311854,
				"element": "N" 
			},
			{
				"x": -1.1969016162,
				"y": 0.09327654,
				"z": -1.4163329988,
				"element": "C" 
			},
			{
				"x": -1.5841002717,
				"y": -0.0773425515,
				"z": -2.8525043472,
				"element": "C" 
			},
			{
				"x": -0.1143645581,
				"y": -0.5547390302,
				"z": 2.0614006856,
				"element": "C" 
			},
			{
				"x": -0.7881860373,
				"y": -1.4509374111,
				"z": 2.7538104747,
				"element": "N" 
			},
			{
				"x": -0.1274531525,
				"y": -1.5365275187,
				"z": 3.9768977335,
				"element": "O" 
			},
			{
				"x": 0.9212311736,
				"y": -0.6848391023,
				"z": 3.9964604825,
				"element": "C" 
			},
			{
				"x": 1.747976705,
				"y": -0.6610440718,
				"z": 5.2348544901,
				"element": "C" 
			},
			{
				"x": 0.9805208052,
				"y": -0.0210407463,
				"z": 2.807272709,
				"element": "C" 
			},
			{
				"x": 0.203536935,
				"y": -4.4109425335,
				"z": -2.1041800722,
				"element": "H" 
			},
			{
				"x": -1.3316725988,
				"y": -4.3708752386,
				"z": -3.0327188909,
				"element": "H" 
			},
			{
				"x": -1.3277721924,
				"y": -4.7843625797,
				"z": -1.2866372903,
				"element": "H" 
			},
			{
				"x": -0.7790258859,
				"y": 1.9058768522,
				"z": 1.036963792,
				"element": "H" 
			},
			{
				"x": -2.4587930584,
				"y": -0.7265460235,
				"z": -2.9496045076,
				"element": "H" 
			},
			{
				"x": -0.7788261041,
				"y": -0.5425744685,
				"z": -3.4286228725,
				"element": "H" 
			},
			{
				"x": -1.8124071258,
				"y": 0.9003243194,
				"z": -3.2818872935,
				"element": "H" 
			},
			{
				"x": 2.5552350538,
				"y": 0.0670486866,
				"z": 5.1352777267,
				"element": "H" 
			},
			{
				"x": 2.1874072061,
				"y": -1.6452125298,
				"z": 5.4274926114,
				"element": "H" 
			},
			{
				"x": 1.1404708632,
				"y": -0.3936121126,
				"z": 6.1057073342,
				"element": "H" 
			},
			{
				"x": 1.7101329141,
				"y": 0.7067827505,
				"z": 2.4870778154,
				"element": "H" 
			}
		],
		 "valence_orbital": [ 
			{
				"type": "occ",
				"energy": -0.29265,
				"method": "rhf"
			},
			{
				"type": "occ",
				"energy": -0.26573,
				"method": "rhf"
			},
			{
				"type": "occ",
				"energy": -0.26011,
				"method": "rhf"
			},
			{
				"type": "occ",
				"energy": -0.25573,
				"method": "rhf"
			},
			{
				"type": "occ",
				"energy": -0.24742,
				"method": "rhf"
			},
			{
				"type": "unocc",
				"energy": -0.03531,
				"method": "rhf"
			},
			{
				"type": "unocc",
				"energy": -0.00621,
				"method": "rhf"
			},
			{
				"type": "unocc",
				"energy": 0.01975,
				"method": "rhf"
			},
			{
				"type": "unocc",
				"energy": 0.0548,
				"method": "rhf"
			},
			{
				"type": "unocc",
				"energy": 0.08045,
				"method": "rhf"
			}
		],
		"cosmo_sigma_profile": { 
			"-0.025": 0.0,
			"-0.024": 0.0,
			"-0.023": 0.0,
			"-0.022": 0.0,
			"-0.021": 0.0,
			"-0.02": 0.0,
			"-0.019": 0.0,
			"-0.018": 0.0926858953453,
			"-0.017": 1.02704910124,
			"-0.016": 1.25888951629,
			"-0.015": 1.50936723719,
			"-0.014": 0.408083867913,
			"-0.013": 0.73584572785,
			"-0.012": 1.60111522671,
			"-0.011": 1.5497111288,
			"-0.01": 1.06724369089,
			"-0.009": 1.59175772634,
			"-0.008": 3.42563910188,
			"-0.007": 5.88600769119,
			"-0.006": 13.5622340707,
			"-0.005": 15.596542479,
			"-0.004": 21.398154806,
			"-0.003": 24.0644788037,
			"-0.002": 22.88308166,
			"-0.001": 20.6757733041,
			"0.0": 19.3828618451,
			"0.001": 17.4431388864,
			"0.002": 13.1563717229,
			"0.003": 10.1079137592,
			"0.004": 8.81203168927,
			"0.005": 5.49720874278,
			"0.006": 5.87365827524,
			"0.007": 6.46225352332,
			"0.008": 6.20939338173,
			"0.009": 4.51855979636,
			"0.01": 4.51379685648,
			"0.011": 5.04178300799,
			"0.012": 7.87589196301,
			"0.013": 4.05497552042,
			"0.014": 1.72254610821,
			"0.015": 0.685364268028,
			"0.016": 0.0248542313928,
			"0.017": 0.0,
			"0.018": 0.0,
			"0.019": 0.0,
			"0.02": 0.0,
			"0.021": 0.0,
			"0.022": 0.0,
			"0.023": 0.0,
			"0.024": 0.0,
			"0.025": 0.0
		}
	}
}
