{
	 "smiles": "CCOC1=CC=C(C=O)C=C1OC", 
	 "Tm": 335.95, 
	 "num_atms": 25, 
	 "gaussian": { 
		 "optdone": 1, 
		 "sigma_profile": "yes", 
		 "theory": "DFT", 
		 "functional": "B3LYP", 
		 "basiset": "6-31G**", 
		 "properties": { 
			 "R2extent": 3459.4907, 
			 "electric_dipole_moment_norm": 3.89645819431, 
			 "electric_quadrupole_moment_norm": 21.9675513426, 
			 "total_energy": -613.935515496, 
			 "HOMO_LUMO_gap": 0.18338, 
			 "cosmo_polarized_energy": -9.5, 
			 "cosmo_cavitation_energy": 29.07, 
			 "cosmo_dispersion_energy": -20.44, 
			 "cosmo_repulsion_energy": 1.64, 
			 "cosmo_total_nonelectrostatic_energy": 10.27, 
			 "SMD_solvation_energy": 7.14 
		},
		"coords": [
			{
				"x": -1.1623283143,
				"y": -1.148351014,
				"z": 2.5785039405,
				"element": "C" 
			},
			{
				"x": -1.0527401821,
				"y": -0.9302072163,
				"z": 1.0812027324,
				"element": "C" 
			},
			{
				"x": -0.3849470761,
				"y": 0.335729618,
				"z": 0.8734738778,
				"element": "O" 
			},
			{
				"x": -0.1985907028,
				"y": 0.7129877766,
				"z": -0.4293449945,
				"element": "C" 
			},
			{
				"x": -0.8457342619,
				"y": 1.8636576765,
				"z": -0.8895611722,
				"element": "C" 
			},
			{
				"x": -0.6609881021,
				"y": 2.29771667,
				"z": -2.1994815624,
				"element": "C" 
			},
			{
				"x": 0.1684799715,
				"y": 1.5769406346,
				"z": -3.0677287156,
				"element": "C" 
			},
			{
				"x": 0.3555177525,
				"y": 2.0310998272,
				"z": -4.4609328059,
				"element": "C" 
			},
			{
				"x": 1.0586867602,
				"y": 1.4760785671,
				"z": -5.2849333257,
				"element": "O" 
			},
			{
				"x": 0.8335100429,
				"y": 0.4309715708,
				"z": -2.6041490943,
				"element": "C" 
			},
			{
				"x": 0.6654709993,
				"y": 0.0005010516,
				"z": -1.2949266443,
				"element": "C" 
			},
			{
				"x": 1.3168007505,
				"y": -1.1350103505,
				"z": -0.869147507,
				"element": "O" 
			},
			{
				"x": 2.3933219315,
				"y": -0.8960826795,
				"z": 0.0467742287,
				"element": "C" 
			},
			{
				"x": -1.7180041373,
				"y": -0.3328409884,
				"z": 3.0500887525,
				"element": "H" 
			},
			{
				"x": -1.6853048003,
				"y": -2.0881184023,
				"z": 2.7815328432,
				"element": "H" 
			},
			{
				"x": -0.1710058382,
				"y": -1.1997941167,
				"z": 3.0381947156,
				"element": "H" 
			},
			{
				"x": -2.046788156,
				"y": -0.8819942329,
				"z": 0.6166318729,
				"element": "H" 
			},
			{
				"x": -0.4849841855,
				"y": -1.730874864,
				"z": 0.5971854374,
				"element": "H" 
			},
			{
				"x": -1.491951591,
				"y": 2.3961177904,
				"z": -0.1992894854,
				"element": "H" 
			},
			{
				"x": -1.1697406751,
				"y": 3.1899985471,
				"z": -2.5559931018,
				"element": "H" 
			},
			{
				"x": -0.2101870281,
				"y": 2.9535955311,
				"z": -4.7231726989,
				"element": "H" 
			},
			{
				"x": 1.4868113841,
				"y": -0.11826149,
				"z": -3.2741389473,
				"element": "H" 
			},
			{
				"x": 3.1744060102,
				"y": -0.2869476451,
				"z": -0.424520134,
				"element": "H" 
			},
			{
				"x": 2.8029760988,
				"y": -1.8759895642,
				"z": 0.2990715946,
				"element": "H" 
			},
			{
				"x": 2.0404133491,
				"y": -0.3973226974,
				"z": 0.955260194,
				"element": "H" 
			}
		],
		 "valence_orbital": [ 
			{
				"type": "occ",
				"energy": -0.30564,
				"method": "rhf"
			},
			{
				"type": "occ",
				"energy": -0.27332,
				"method": "rhf"
			},
			{
				"type": "occ",
				"energy": -0.25592,
				"method": "rhf"
			},
			{
				"type": "occ",
				"energy": -0.25067,
				"method": "rhf"
			},
			{
				"type": "occ",
				"energy": -0.24175,
				"method": "rhf"
			},
			{
				"type": "unocc",
				"energy": -0.05837,
				"method": "rhf"
			},
			{
				"type": "unocc",
				"energy": -0.01099,
				"method": "rhf"
			},
			{
				"type": "unocc",
				"energy": 0.04262,
				"method": "rhf"
			},
			{
				"type": "unocc",
				"energy": 0.07966,
				"method": "rhf"
			},
			{
				"type": "unocc",
				"energy": 0.09912,
				"method": "rhf"
			}
		],
		"cosmo_sigma_profile": { 
			"-0.025": 0.0,
			"-0.024": 0.0,
			"-0.023": 0.0,
			"-0.022": 0.0,
			"-0.021": 0.0,
			"-0.02": 0.0,
			"-0.019": 0.0,
			"-0.018": 0.0,
			"-0.017": 0.0,
			"-0.016": 0.0,
			"-0.015": 0.0,
			"-0.014": 0.0,
			"-0.013": 0.0,
			"-0.012": 0.0,
			"-0.011": 0.0,
			"-0.01": 0.0,
			"-0.009": 0.0,
			"-0.008": 0.807517065684,
			"-0.007": 5.32449863831,
			"-0.006": 8.65688922714,
			"-0.005": 12.8291806691,
			"-0.004": 21.2937884688,
			"-0.003": 28.4825993339,
			"-0.002": 27.0949426846,
			"-0.001": 21.0676651645,
			"0.0": 19.5378486464,
			"0.001": 16.5177741162,
			"0.002": 16.9541572483,
			"0.003": 13.0412671025,
			"0.004": 4.57995282668,
			"0.005": 4.49886033152,
			"0.006": 4.15785268969,
			"0.007": 3.35681887502,
			"0.008": 3.769432745,
			"0.009": 3.41927406803,
			"0.01": 4.69907450041,
			"0.011": 5.56488819153,
			"0.012": 3.54595305446,
			"0.013": 1.18284720643,
			"0.014": 0.00787292366243,
			"0.015": 0.0,
			"0.016": 0.0,
			"0.017": 0.0,
			"0.018": 0.0,
			"0.019": 0.0,
			"0.02": 0.0,
			"0.021": 0.0,
			"0.022": 0.0,
			"0.023": 0.0,
			"0.024": 0.0,
			"0.025": 0.0
		}
	}
}
