{
	 "smiles": "NC1=NN(C=C1C#N)C1=NC=C(C=C1)[N+]([O-])=O", 
	 "Tm": 596.15, 
	 "num_atms": 23, 
	 "gaussian": { 
		 "optdone": 1, 
		 "sigma_profile": "yes", 
		 "theory": "DFT", 
		 "functional": "B3LYP", 
		 "basiset": "6-31G**", 
		 "properties": { 
			 "R2extent": 6218.4589, 
			 "electric_dipole_moment_norm": 1.18232884596, 
			 "electric_quadrupole_moment_norm": 35.8550549994, 
			 "total_energy": -825.382774137, 
			 "HOMO_LUMO_gap": 0.12849, 
			 "cosmo_polarized_energy": -23.95, 
			 "cosmo_cavitation_energy": 31.02, 
			 "cosmo_dispersion_energy": -22.21, 
			 "cosmo_repulsion_energy": 1.71, 
			 "cosmo_total_nonelectrostatic_energy": 10.52, 
			 "SMD_solvation_energy": 7.24 
		},
		"coords": [
			{
				"x": -3.2155366362,
				"y": -2.1245039831,
				"z": 0.518167006,
				"element": "N" 
			},
			{
				"x": -1.9558139613,
				"y": -1.6353341577,
				"z": 0.2926841732,
				"element": "C" 
			},
			{
				"x": -1.7234274433,
				"y": -0.6420548532,
				"z": -0.5492647275,
				"element": "N" 
			},
			{
				"x": -0.3758289488,
				"y": -0.3912088497,
				"z": -0.4357438029,
				"element": "N" 
			},
			{
				"x": 0.2323291256,
				"y": -1.2259526585,
				"z": 0.4526637847,
				"element": "C" 
			},
			{
				"x": -0.7471228933,
				"y": -2.0567785656,
				"z": 0.9581310657,
				"element": "C" 
			},
			{
				"x": -0.6155401024,
				"y": -3.1059338133,
				"z": 1.897915833,
				"element": "C" 
			},
			{
				"x": -0.5555478249,
				"y": -3.9834831261,
				"z": 2.661644722,
				"element": "N" 
			},
			{
				"x": 0.2307834938,
				"y": 0.6193501515,
				"z": -1.2069346397,
				"element": "C" 
			},
			{
				"x": -0.4570961782,
				"y": 1.0451322071,
				"z": -2.2683102388,
				"element": "N" 
			},
			{
				"x": 0.0901552497,
				"y": 1.9924868812,
				"z": -3.0276173717,
				"element": "C" 
			},
			{
				"x": 1.3467447217,
				"y": 2.5330004551,
				"z": -2.7555300338,
				"element": "C" 
			},
			{
				"x": 2.0641774408,
				"y": 2.0978436347,
				"z": -1.6415277395,
				"element": "C" 
			},
			{
				"x": 1.4925858581,
				"y": 1.1249914569,
				"z": -0.8388386579,
				"element": "C" 
			},
			{
				"x": 1.9075064937,
				"y": 3.5622630459,
				"z": -3.6291840853,
				"element": "N" 
			},
			{
				"x": 1.2318221192,
				"y": 3.9178667003,
				"z": -4.5939012821,
				"element": "O" 
			},
			{
				"x": 3.020074407,
				"y": 4.0041313378,
				"z": -3.3411934175,
				"element": "O" 
			},
			{
				"x": -3.90116746,
				"y": -1.8865972637,
				"z": -0.184396277,
				"element": "H" 
			},
			{
				"x": -3.2775011332,
				"y": -3.0682774034,
				"z": 0.8709399732,
				"element": "H" 
			},
			{
				"x": 1.2926371557,
				"y": -1.2107618716,
				"z": 0.6476075219,
				"element": "H" 
			},
			{
				"x": -0.4763146194,
				"y": 2.3365425726,
				"z": -3.8869272393,
				"element": "H" 
			},
			{
				"x": 3.0307348996,
				"y": 2.5328896834,
				"z": -1.4187746595,
				"element": "H" 
			},
			{
				"x": 1.9995462364,
				"y": 0.7912884193,
				"z": 0.058190093,
				"element": "H" 
			}
		],
		 "valence_orbital": [ 
			{
				"type": "occ",
				"energy": -0.30749,
				"method": "rhf"
			},
			{
				"type": "occ",
				"energy": -0.30534,
				"method": "rhf"
			},
			{
				"type": "occ",
				"energy": -0.29146,
				"method": "rhf"
			},
			{
				"type": "occ",
				"energy": -0.27554,
				"method": "rhf"
			},
			{
				"type": "occ",
				"energy": -0.23732,
				"method": "rhf"
			},
			{
				"type": "unocc",
				"energy": -0.10883,
				"method": "rhf"
			},
			{
				"type": "unocc",
				"energy": -0.0626,
				"method": "rhf"
			},
			{
				"type": "unocc",
				"energy": -0.0531,
				"method": "rhf"
			},
			{
				"type": "unocc",
				"energy": -0.00525,
				"method": "rhf"
			},
			{
				"type": "unocc",
				"energy": 0.01219,
				"method": "rhf"
			}
		],
		"cosmo_sigma_profile": { 
			"-0.025": 0.0,
			"-0.024": 0.0,
			"-0.023": 0.0,
			"-0.022": 0.0,
			"-0.021": 0.0,
			"-0.02": 0.0,
			"-0.019": 0.0,
			"-0.018": 0.0,
			"-0.017": 0.0,
			"-0.016": 0.0,
			"-0.015": 0.205005403773,
			"-0.014": 2.06233086524,
			"-0.013": 3.94935961697,
			"-0.012": 5.11169664517,
			"-0.011": 4.50760931153,
			"-0.01": 6.15092832074,
			"-0.009": 6.31980955739,
			"-0.008": 8.6169021182,
			"-0.007": 9.03035413485,
			"-0.006": 8.50008127947,
			"-0.005": 10.1138965208,
			"-0.004": 15.317687179,
			"-0.003": 19.0587648143,
			"-0.002": 17.9322753872,
			"-0.001": 19.407061224,
			"0.0": 11.8523968439,
			"0.001": 7.33223074234,
			"0.002": 6.96929100623,
			"0.003": 7.74124798181,
			"0.004": 7.17197235452,
			"0.005": 7.8374994368,
			"0.006": 8.45522333685,
			"0.007": 15.4424943512,
			"0.008": 10.5072173899,
			"0.009": 10.1217010892,
			"0.01": 6.23228278372,
			"0.011": 4.21878954751,
			"0.012": 3.72037517827,
			"0.013": 3.1694321329,
			"0.014": 0.935633914546,
			"0.015": 0.540164993416,
			"0.016": 1.3979262803,
			"0.017": 1.07786365655,
			"0.018": 0.639187248596,
			"0.019": 0.0691245197291,
			"0.02": 0.0,
			"0.021": 0.0,
			"0.022": 0.0,
			"0.023": 0.0,
			"0.024": 0.0,
			"0.025": 0.0
		}
	}
}
