{
	 "smiles": "CC1=NC2=NC(N)=NN2C(C)=C1CC(O)=O", 
	 "Tm": 535.15, 
	 "num_atms": 27, 
	 "gaussian": { 
		 "optdone": 1, 
		 "sigma_profile": "yes", 
		 "theory": "DFT", 
		 "functional": "B3LYP", 
		 "basiset": "6-31G**", 
		 "properties": { 
			 "R2extent": 4547.8099, 
			 "electric_dipole_moment_norm": 4.332059067, 
			 "electric_quadrupole_moment_norm": 14.6233754407, 
			 "total_energy": -773.815947765, 
			 "HOMO_LUMO_gap": 0.17574, 
			 "cosmo_polarized_energy": -23.31, 
			 "cosmo_cavitation_energy": 31.29, 
			 "cosmo_dispersion_energy": -22.73, 
			 "cosmo_repulsion_energy": 1.78, 
			 "cosmo_total_nonelectrostatic_energy": 10.35, 
			 "SMD_solvation_energy": 2.22 
		},
		"coords": [
			{
				"x": -1.9098178292,
				"y": -2.2745251433,
				"z": -0.2979025578,
				"element": "C" 
			},
			{
				"x": -1.1650360761,
				"y": -1.0044475495,
				"z": 0.0299299954,
				"element": "C" 
			},
			{
				"x": -0.0866217653,
				"y": -1.1486455638,
				"z": 0.7920490109,
				"element": "N" 
			},
			{
				"x": 0.5910767476,
				"y": -0.04256276,
				"z": 1.1179838526,
				"element": "C" 
			},
			{
				"x": 1.6908642636,
				"y": 0.0962710316,
				"z": 1.8574042866,
				"element": "N" 
			},
			{
				"x": 1.8968914191,
				"y": 1.4359643405,
				"z": 1.8421174883,
				"element": "C" 
			},
			{
				"x": 2.9784758563,
				"y": 2.0041940746,
				"z": 2.4614303373,
				"element": "N" 
			},
			{
				"x": 1.0145101055,
				"y": 2.1831205914,
				"z": 1.1538260758,
				"element": "N" 
			},
			{
				"x": 0.1737384137,
				"y": 1.2189026054,
				"z": 0.682462485,
				"element": "N" 
			},
			{
				"x": -0.9225186458,
				"y": 1.4069060886,
				"z": -0.0966156274,
				"element": "C" 
			},
			{
				"x": -1.2309630429,
				"y": 2.8288423646,
				"z": -0.4522892933,
				"element": "C" 
			},
			{
				"x": -1.6227875668,
				"y": 0.2618970526,
				"z": -0.457968733,
				"element": "C" 
			},
			{
				"x": -2.842211276,
				"y": 0.3516597521,
				"z": -1.3450421821,
				"element": "C" 
			},
			{
				"x": -4.1611438401,
				"y": 0.4121083617,
				"z": -0.5860791218,
				"element": "C" 
			},
			{
				"x": -5.1387649086,
				"y": 0.9460519298,
				"z": -1.3568260247,
				"element": "O" 
			},
			{
				"x": -4.3555077819,
				"y": 0.0182311294,
				"z": 0.541174071,
				"element": "O" 
			},
			{
				"x": -1.4203338729,
				"y": -3.1083159008,
				"z": 0.2056674763,
				"element": "H" 
			},
			{
				"x": -1.9143967304,
				"y": -2.476251326,
				"z": -1.3764051225,
				"element": "H" 
			},
			{
				"x": -2.9502932299,
				"y": -2.2126221837,
				"z": 0.0360944771,
				"element": "H" 
			},
			{
				"x": 3.3902880611,
				"y": 1.437325538,
				"z": 3.1875064605,
				"element": "H" 
			},
			{
				"x": 2.8950872866,
				"y": 2.9875025948,
				"z": 2.6719746282,
				"element": "H" 
			},
			{
				"x": -0.4108276745,
				"y": 3.2588604153,
				"z": -1.0371500033,
				"element": "H" 
			},
			{
				"x": -2.1603242541,
				"y": 2.9230145293,
				"z": -1.0119460593,
				"element": "H" 
			},
			{
				"x": -1.3029951639,
				"y": 3.4270588476,
				"z": 0.4613159259,
				"element": "H" 
			},
			{
				"x": -2.9077439199,
				"y": -0.5295265465,
				"z": -1.9941541158,
				"element": "H" 
			},
			{
				"x": -2.7969388646,
				"y": 1.2041602295,
				"z": -2.0255771484,
				"element": "H" 
			},
			{
				"x": -5.9529057108,
				"y": 0.9129254968,
				"z": -0.8260805817,
				"element": "H" 
			}
		],
		 "valence_orbital": [ 
			{
				"type": "occ",
				"energy": -0.28682,
				"method": "rhf"
			},
			{
				"type": "occ",
				"energy": -0.27143,
				"method": "rhf"
			},
			{
				"type": "occ",
				"energy": -0.2618,
				"method": "rhf"
			},
			{
				"type": "occ",
				"energy": -0.23669,
				"method": "rhf"
			},
			{
				"type": "occ",
				"energy": -0.21654,
				"method": "rhf"
			},
			{
				"type": "unocc",
				"energy": -0.0408,
				"method": "rhf"
			},
			{
				"type": "unocc",
				"energy": -0.00762,
				"method": "rhf"
			},
			{
				"type": "unocc",
				"energy": -0.00261,
				"method": "rhf"
			},
			{
				"type": "unocc",
				"energy": 0.06596,
				"method": "rhf"
			},
			{
				"type": "unocc",
				"energy": 0.07347,
				"method": "rhf"
			}
		],
		"cosmo_sigma_profile": { 
			"-0.025": 0.0,
			"-0.024": 0.0,
			"-0.023": 0.0,
			"-0.022": 0.0,
			"-0.021": 0.0,
			"-0.02": 0.0,
			"-0.019": 0.190617512566,
			"-0.018": 0.696830590861,
			"-0.017": 0.975912410948,
			"-0.016": 0.986745160614,
			"-0.015": 0.437391174246,
			"-0.014": 1.92670914037,
			"-0.013": 2.80846179858,
			"-0.012": 3.2693078302,
			"-0.011": 3.28050184389,
			"-0.01": 1.94289229593,
			"-0.009": 2.23163484561,
			"-0.008": 7.25004612441,
			"-0.007": 9.98496431241,
			"-0.006": 12.2992530257,
			"-0.005": 12.7343309565,
			"-0.004": 17.1246344525,
			"-0.003": 21.5629270642,
			"-0.002": 20.8451297705,
			"-0.001": 17.2029533769,
			"0.0": 13.3908189821,
			"0.001": 9.60031164049,
			"0.002": 6.92556518495,
			"0.003": 6.27241062021,
			"0.004": 8.03977021803,
			"0.005": 7.88629892881,
			"0.006": 7.99986118204,
			"0.007": 6.17125071703,
			"0.008": 8.17422354835,
			"0.009": 6.63116480413,
			"0.01": 6.06567500244,
			"0.011": 8.2288115216,
			"0.012": 4.93872530308,
			"0.013": 4.42363424054,
			"0.014": 2.40746531335,
			"0.015": 2.04017070713,
			"0.016": 1.05801556061,
			"0.017": 0.336467158196,
			"0.018": 0.0,
			"0.019": 0.0,
			"0.02": 0.0,
			"0.021": 0.0,
			"0.022": 0.0,
			"0.023": 0.0,
			"0.024": 0.0,
			"0.025": 0.0
		}
	}
}
