{
	 "smiles": "CC(C)NC1=C(C=CC(F)=C1)[N+]([O-])=O", 
	 "Tm": 342.15, 
	 "num_atms": 25, 
	 "gaussian": { 
		 "optdone": 1, 
		 "sigma_profile": "yes", 
		 "theory": "DFT", 
		 "functional": "B3LYP", 
		 "basiset": "6-31G**", 
		 "properties": { 
			 "R2extent": 4195.8686, 
			 "electric_dipole_moment_norm": 3.94760750582, 
			 "electric_quadrupole_moment_norm": 15.8032107753, 
			 "total_energy": -709.284867252, 
			 "HOMO_LUMO_gap": 0.14039, 
			 "cosmo_polarized_energy": -8.9, 
			 "cosmo_cavitation_energy": 28.59, 
			 "cosmo_dispersion_energy": -20.69, 
			 "cosmo_repulsion_energy": 1.61, 
			 "cosmo_total_nonelectrostatic_energy": 9.51, 
			 "SMD_solvation_energy": 7.09 
		},
		"coords": [
			{
				"x": 0.7175391884,
				"y": 1.0646697335,
				"z": 1.5474456405,
				"element": "C" 
			},
			{
				"x": -0.2388362389,
				"y": 0.8012834421,
				"z": 0.3715100164,
				"element": "C" 
			},
			{
				"x": -1.6976786048,
				"y": 0.5916603286,
				"z": 0.8128807279,
				"element": "C" 
			},
			{
				"x": 0.2448635766,
				"y": -0.2340198683,
				"z": -0.5526497327,
				"element": "N" 
			},
			{
				"x": 0.442104045,
				"y": -1.5577801002,
				"z": -0.3409654746,
				"element": "C" 
			},
			{
				"x": 0.9311113592,
				"y": -2.4293552394,
				"z": -1.3768047192,
				"element": "C" 
			},
			{
				"x": 1.1310673785,
				"y": -3.8007571806,
				"z": -1.145139493,
				"element": "C" 
			},
			{
				"x": 0.8689006138,
				"y": -4.3736306375,
				"z": 0.0820320581,
				"element": "C" 
			},
			{
				"x": 0.3937460492,
				"y": -3.5259147365,
				"z": 1.0886979503,
				"element": "C" 
			},
			{
				"x": 0.1285992272,
				"y": -4.0531666511,
				"z": 2.2971415916,
				"element": "F" 
			},
			{
				"x": 0.1817304428,
				"y": -2.1761171698,
				"z": 0.9103670194,
				"element": "C" 
			},
			{
				"x": 1.2454361367,
				"y": -1.9592842393,
				"z": -2.7065185337,
				"element": "N" 
			},
			{
				"x": 1.6602194581,
				"y": -2.7672091594,
				"z": -3.5396321659,
				"element": "O" 
			},
			{
				"x": 1.0901256011,
				"y": -0.7491192125,
				"z": -2.9800366506,
				"element": "O" 
			},
			{
				"x": 1.7320985298,
				"y": 1.2465076899,
				"z": 1.1820281324,
				"element": "H" 
			},
			{
				"x": 0.3874876248,
				"y": 1.9511291423,
				"z": 2.0983676633,
				"element": "H" 
			},
			{
				"x": 0.7582725443,
				"y": 0.2327185212,
				"z": 2.2549013335,
				"element": "H" 
			},
			{
				"x": -0.2286210835,
				"y": 1.7069795849,
				"z": -0.2452282447,
				"element": "H" 
			},
			{
				"x": -2.0473509795,
				"y": 1.4740110521,
				"z": 1.3582487877,
				"element": "H" 
			},
			{
				"x": -1.8212871387,
				"y": -0.2728122718,
				"z": 1.4699019376,
				"element": "H" 
			},
			{
				"x": -2.3438265814,
				"y": 0.4486184538,
				"z": -0.0577106876,
				"element": "H" 
			},
			{
				"x": 0.4785096964,
				"y": 0.050186535,
				"z": -1.4985129436,
				"element": "H" 
			},
			{
				"x": 1.5008992833,
				"y": -4.3941358568,
				"z": -1.9710347354,
				"element": "H" 
			},
			{
				"x": 1.0182113721,
				"y": -5.4285682594,
				"z": 0.2748282713,
				"element": "H" 
			},
			{
				"x": -0.1870215005,
				"y": -1.6036939009,
				"z": 1.7474822512,
				"element": "H" 
			}
		],
		 "valence_orbital": [ 
			{
				"type": "occ",
				"energy": -0.30291,
				"method": "rhf"
			},
			{
				"type": "occ",
				"energy": -0.30082,
				"method": "rhf"
			},
			{
				"type": "occ",
				"energy": -0.28288,
				"method": "rhf"
			},
			{
				"type": "occ",
				"energy": -0.26823,
				"method": "rhf"
			},
			{
				"type": "occ",
				"energy": -0.22111,
				"method": "rhf"
			},
			{
				"type": "unocc",
				"energy": -0.08072,
				"method": "rhf"
			},
			{
				"type": "unocc",
				"energy": -0.01068,
				"method": "rhf"
			},
			{
				"type": "unocc",
				"energy": 0.01312,
				"method": "rhf"
			},
			{
				"type": "unocc",
				"energy": 0.06633,
				"method": "rhf"
			},
			{
				"type": "unocc",
				"energy": 0.07924,
				"method": "rhf"
			}
		],
		"cosmo_sigma_profile": { 
			"-0.025": 0.0,
			"-0.024": 0.0,
			"-0.023": 0.0,
			"-0.022": 0.0,
			"-0.021": 0.0,
			"-0.02": 0.0,
			"-0.019": 0.0,
			"-0.018": 0.0,
			"-0.017": 0.0,
			"-0.016": 0.0,
			"-0.015": 0.0,
			"-0.014": 0.0,
			"-0.013": 0.0,
			"-0.012": 0.0,
			"-0.011": 0.0732542269113,
			"-0.01": 0.501438113374,
			"-0.009": 0.868950700097,
			"-0.008": 3.67186985873,
			"-0.007": 5.54980859717,
			"-0.006": 7.06938465889,
			"-0.005": 9.06880454041,
			"-0.004": 16.1784794587,
			"-0.003": 20.1176197261,
			"-0.002": 20.4907350614,
			"-0.001": 22.4489066331,
			"0.0": 32.3915246552,
			"0.001": 27.4672588276,
			"0.002": 12.7759453945,
			"0.003": 10.9071888315,
			"0.004": 9.65846188807,
			"0.005": 2.74319803743,
			"0.006": 2.48582438269,
			"0.007": 3.76008950259,
			"0.008": 5.8064378703,
			"0.009": 5.14535171698,
			"0.01": 4.23104094405,
			"0.011": 3.38135566628,
			"0.012": 0.388304929952,
			"0.013": 0.0,
			"0.014": 0.0,
			"0.015": 0.0,
			"0.016": 0.0,
			"0.017": 0.0,
			"0.018": 0.0,
			"0.019": 0.0,
			"0.02": 0.0,
			"0.021": 0.0,
			"0.022": 0.0,
			"0.023": 0.0,
			"0.024": 0.0,
			"0.025": 0.0
		}
	}
}
