{
	 "smiles": "OC(=O)COC1=NN(CC2=CC=CC=C2)C2=C1C=CC=C2", 
	 "Tm": 433.15, 
	 "num_atms": 35, 
	 "gaussian": { 
		 "optdone": 1, 
		 "sigma_profile": "yes", 
		 "theory": "DFT", 
		 "functional": "B3LYP", 
		 "basiset": "6-31G**", 
		 "properties": { 
			 "R2extent": 7410.4896, 
			 "electric_dipole_moment_norm": 2.19696480172, 
			 "electric_quadrupole_moment_norm": 14.0982276897, 
			 "total_energy": -953.303864658, 
			 "HOMO_LUMO_gap": 0.17684, 
			 "cosmo_polarized_energy": -15.7, 
			 "cosmo_cavitation_energy": 40.38, 
			 "cosmo_dispersion_energy": -27.66, 
			 "cosmo_repulsion_energy": 2.16, 
			 "cosmo_total_nonelectrostatic_energy": 14.88, 
			 "SMD_solvation_energy": 7.39 
		},
		"coords": [
			{
				"x": -2.6209717149,
				"y": 4.3161838073,
				"z": 1.5156286218,
				"element": "O" 
			},
			{
				"x": -1.7433543063,
				"y": 4.8193480114,
				"z": 0.62788571,
				"element": "C" 
			},
			{
				"x": -1.0732623891,
				"y": 5.8073303426,
				"z": 0.8258836882,
				"element": "O" 
			},
			{
				"x": -1.7208663489,
				"y": 4.0653772327,
				"z": -0.696118062,
				"element": "C" 
			},
			{
				"x": -2.3335167323,
				"y": 2.785665576,
				"z": -0.6775091362,
				"element": "O" 
			},
			{
				"x": -1.6303362155,
				"y": 1.8051823652,
				"z": -0.0640251811,
				"element": "C" 
			},
			{
				"x": -0.4566624727,
				"y": 1.9975255435,
				"z": 0.4994181225,
				"element": "N" 
			},
			{
				"x": -0.0820568966,
				"y": 0.7760311069,
				"z": 1.011934695,
				"element": "N" 
			},
			{
				"x": 1.2159022976,
				"y": 0.6282012869,
				"z": 1.6446243396,
				"element": "C" 
			},
			{
				"x": 2.28481985,
				"y": 0.010451528,
				"z": 0.7566319631,
				"element": "C" 
			},
			{
				"x": 3.1103445682,
				"y": -1.0054810873,
				"z": 1.2484064999,
				"element": "C" 
			},
			{
				"x": 4.1168768962,
				"y": -1.5539251011,
				"z": 0.4498671066,
				"element": "C" 
			},
			{
				"x": 4.3014110143,
				"y": -1.0929471486,
				"z": -0.8535037365,
				"element": "C" 
			},
			{
				"x": 3.4774031232,
				"y": -0.0804274896,
				"z": -1.35303226,
				"element": "C" 
			},
			{
				"x": 2.4768622318,
				"y": 0.4694453777,
				"z": -0.5531722984,
				"element": "C" 
			},
			{
				"x": -1.0191906838,
				"y": -0.1856280521,
				"z": 0.7445799982,
				"element": "C" 
			},
			{
				"x": -2.0738404955,
				"y": 0.4517024289,
				"z": 0.043915641,
				"element": "C" 
			},
			{
				"x": -3.2073047747,
				"y": -0.2746146124,
				"z": -0.3554576426,
				"element": "C" 
			},
			{
				"x": -3.256965369,
				"y": -1.6254667206,
				"z": -0.0500107651,
				"element": "C" 
			},
			{
				"x": -2.1944536113,
				"y": -2.2545063172,
				"z": 0.6423606672,
				"element": "C" 
			},
			{
				"x": -1.0662191982,
				"y": -1.5579010143,
				"z": 1.0481024042,
				"element": "C" 
			},
			{
				"x": -2.5531517871,
				"y": 4.8777691032,
				"z": 2.3062829182,
				"element": "H" 
			},
			{
				"x": -2.286559126,
				"y": 4.6557460629,
				"z": -1.4228900409,
				"element": "H" 
			},
			{
				"x": -0.6773757782,
				"y": 4.0095571581,
				"z": -1.018873029,
				"element": "H" 
			},
			{
				"x": 1.095062321,
				"y": 0.0289839087,
				"z": 2.5543174356,
				"element": "H" 
			},
			{
				"x": 1.5068807869,
				"y": 1.6359251889,
				"z": 1.9556294276,
				"element": "H" 
			},
			{
				"x": 2.9672156192,
				"y": -1.3707147246,
				"z": 2.263126468,
				"element": "H" 
			},
			{
				"x": 4.7496489212,
				"y": -2.3438408097,
				"z": 0.8445669285,
				"element": "H" 
			},
			{
				"x": 5.0803624525,
				"y": -1.5202414025,
				"z": -1.478385554,
				"element": "H" 
			},
			{
				"x": 3.6162557475,
				"y": 0.2819790532,
				"z": -2.3677176528,
				"element": "H" 
			},
			{
				"x": 1.8354724579,
				"y": 1.2561439141,
				"z": -0.9400007617,
				"element": "H" 
			},
			{
				"x": -4.0167275185,
				"y": 0.2144289988,
				"z": -0.8879368131,
				"element": "H" 
			},
			{
				"x": -4.1186463706,
				"y": -2.2157702212,
				"z": -0.3458441429,
				"element": "H" 
			},
			{
				"x": -2.2639094957,
				"y": -3.3168588564,
				"z": 0.8584743167,
				"element": "H" 
			},
			{
				"x": -0.2521470026,
				"y": -2.0546544379,
				"z": 1.5650401247,
				"element": "H" 
			}
		],
		 "valence_orbital": [ 
			{
				"type": "occ",
				"energy": -0.26458,
				"method": "rhf"
			},
			{
				"type": "occ",
				"energy": -0.25307,
				"method": "rhf"
			},
			{
				"type": "occ",
				"energy": -0.24871,
				"method": "rhf"
			},
			{
				"type": "occ",
				"energy": -0.24073,
				"method": "rhf"
			},
			{
				"type": "occ",
				"energy": -0.20231,
				"method": "rhf"
			},
			{
				"type": "unocc",
				"energy": -0.02547,
				"method": "rhf"
			},
			{
				"type": "unocc",
				"energy": -0.00811,
				"method": "rhf"
			},
			{
				"type": "unocc",
				"energy": -0.00405,
				"method": "rhf"
			},
			{
				"type": "unocc",
				"energy": 0.00819,
				"method": "rhf"
			},
			{
				"type": "unocc",
				"energy": 0.01839,
				"method": "rhf"
			}
		],
		"cosmo_sigma_profile": { 
			"-0.025": 0.0,
			"-0.024": 0.0,
			"-0.023": 0.0,
			"-0.022": 0.0,
			"-0.021": 0.0,
			"-0.02": 0.0,
			"-0.019": 0.413930539406,
			"-0.018": 0.786276067749,
			"-0.017": 1.08635947063,
			"-0.016": 0.6794347781,
			"-0.015": 1.00271243008,
			"-0.014": 0.611931843174,
			"-0.013": 0.495726232104,
			"-0.012": 0.72014212773,
			"-0.011": 0.988259777172,
			"-0.01": 0.970542610343,
			"-0.009": 2.91315149183,
			"-0.008": 2.91750950977,
			"-0.007": 7.3546519782,
			"-0.006": 19.438037115,
			"-0.005": 26.5663942246,
			"-0.004": 24.8158382056,
			"-0.003": 23.034973271,
			"-0.002": 18.5693058331,
			"-0.001": 16.8985533814,
			"0.0": 17.6152930856,
			"0.001": 20.7857995072,
			"0.002": 23.3368126213,
			"0.003": 23.3245243988,
			"0.004": 23.3417154407,
			"0.005": 22.3083120016,
			"0.006": 13.3034874006,
			"0.007": 6.91030461639,
			"0.008": 5.54729130154,
			"0.009": 4.01862837146,
			"0.01": 3.63688193809,
			"0.011": 5.00880699391,
			"0.012": 3.20218151784,
			"0.013": 0.144464682783,
			"0.014": 0.0,
			"0.015": 0.0,
			"0.016": 0.0,
			"0.017": 0.0,
			"0.018": 0.0,
			"0.019": 0.0,
			"0.02": 0.0,
			"0.021": 0.0,
			"0.022": 0.0,
			"0.023": 0.0,
			"0.024": 0.0,
			"0.025": 0.0
		}
	}
}
