{
	 "smiles": "FC1=C(I)C=CC(=N1)C(F)(F)F", 
	 "Tm": 322.15, 
	 "num_atms": 14, 
	 "gaussian": { 
		 "optdone": 1, 
		 "sigma_profile": "yes", 
		 "theory": "DFT", 
		 "functional": "B3LYP", 
		 "basiset": "6-31G**", 
		 "properties": { 
			 "R2extent": 3044.3395, 
			 "electric_dipole_moment_norm": 3.48369089473, 
			 "electric_quadrupole_moment_norm": 6.02731701008, 
			 "total_energy": -695.33453566, 
			 "HOMO_LUMO_gap": 0.19761, 
			 "cosmo_polarized_energy": -6.47, 
			 "cosmo_cavitation_energy": 24.22, 
			 "cosmo_dispersion_energy": -18.72, 
			 "cosmo_repulsion_energy": 1.38, 
			 "cosmo_total_nonelectrostatic_energy": 6.89, 
			 "SMD_solvation_energy": 3.69 
		},
		"coords": [
			{
				"x": -0.1591959511,
				"y": -1.1031149892,
				"z": 2.6105232729,
				"element": "F" 
			},
			{
				"x": 0.3375381522,
				"y": -1.0795213876,
				"z": 1.3741100247,
				"element": "C" 
			},
			{
				"x": -0.3415074503,
				"y": -1.7566041838,
				"z": 0.3486771196,
				"element": "C" 
			},
			{
				"x": -2.1228860995,
				"y": -2.8034441876,
				"z": 0.7313235171,
				"element": "I" 
			},
			{
				"x": 0.2150397696,
				"y": -1.7036617641,
				"z": -0.9253361743,
				"element": "C" 
			},
			{
				"x": 1.4028150917,
				"y": -0.9924815373,
				"z": -1.1243157941,
				"element": "C" 
			},
			{
				"x": 1.9761914429,
				"y": -0.3654100248,
				"z": -0.0247681675,
				"element": "C" 
			},
			{
				"x": 1.4513063273,
				"y": -0.4082408738,
				"z": 1.2061469272,
				"element": "N" 
			},
			{
				"x": 3.2625961698,
				"y": 0.4284374444,
				"z": -0.1424014867,
				"element": "C" 
			},
			{
				"x": 4.2239805847,
				"y": -0.0845554965,
				"z": 0.6451477254,
				"element": "F" 
			},
			{
				"x": 3.0772404815,
				"y": 1.7103785565,
				"z": 0.2179541085,
				"element": "F" 
			},
			{
				"x": 3.7224533092,
				"y": 0.4197287515,
				"z": -1.4134921184,
				"element": "F" 
			},
			{
				"x": -0.2686640815,
				"y": -2.2091162934,
				"z": -1.7537287435,
				"element": "H" 
			},
			{
				"x": 1.8623922535,
				"y": -0.9312940143,
				"z": -2.1024402109,
				"element": "H" 
			}
		],
		 "valence_orbital": [ 
			{
				"type": "occ",
				"energy": -0.343,
				"method": "rhf"
			},
			{
				"type": "occ",
				"energy": -0.31058,
				"method": "rhf"
			},
			{
				"type": "occ",
				"energy": -0.30544,
				"method": "rhf"
			},
			{
				"type": "occ",
				"energy": -0.2867,
				"method": "rhf"
			},
			{
				"type": "occ",
				"energy": -0.26718,
				"method": "rhf"
			},
			{
				"type": "unocc",
				"energy": -0.06957,
				"method": "rhf"
			},
			{
				"type": "unocc",
				"energy": -0.05992,
				"method": "rhf"
			},
			{
				"type": "unocc",
				"energy": -0.04236,
				"method": "rhf"
			},
			{
				"type": "unocc",
				"energy": 0.03515,
				"method": "rhf"
			},
			{
				"type": "unocc",
				"energy": 0.03991,
				"method": "rhf"
			}
		],
		"cosmo_sigma_profile": { 
			"-0.025": 0.0,
			"-0.024": 0.0,
			"-0.023": 0.0,
			"-0.022": 0.0,
			"-0.021": 0.0,
			"-0.02": 0.0,
			"-0.019": 0.0,
			"-0.018": 0.0,
			"-0.017": 0.0,
			"-0.016": 0.0,
			"-0.015": 0.0,
			"-0.014": 0.0,
			"-0.013": 0.0,
			"-0.012": 0.0,
			"-0.011": 0.0,
			"-0.01": 0.187332030981,
			"-0.009": 3.63952184704,
			"-0.008": 6.10837840021,
			"-0.007": 4.59303765837,
			"-0.006": 4.46563559599,
			"-0.005": 5.94618899,
			"-0.004": 12.3612240291,
			"-0.003": 13.5971797834,
			"-0.002": 14.0303286783,
			"-0.001": 17.115412643,
			"0.0": 13.0625735966,
			"0.001": 14.380116319,
			"0.002": 35.2372524588,
			"0.003": 37.8138600583,
			"0.004": 8.20573524289,
			"0.005": 3.34627908754,
			"0.006": 1.72557187772,
			"0.007": 1.51867668684,
			"0.008": 1.38173316243,
			"0.009": 0.973076748589,
			"0.01": 0.596331056227,
			"0.011": 0.899524096003,
			"0.012": 0.0685718606941,
			"0.013": 0.0,
			"0.014": 0.0,
			"0.015": 0.0,
			"0.016": 0.0,
			"0.017": 0.0,
			"0.018": 0.0,
			"0.019": 0.0,
			"0.02": 0.0,
			"0.021": 0.0,
			"0.022": 0.0,
			"0.023": 0.0,
			"0.024": 0.0,
			"0.025": 0.0
		}
	}
}
