{
	 "smiles": "CC1=CC(N2N=NN=C2S)=C(C)C=C1", 
	 "Tm": 403.15, 
	 "num_atms": 24, 
	 "gaussian": { 
		 "optdone": 1, 
		 "sigma_profile": "yes", 
		 "theory": "DFT", 
		 "functional": "B3LYP", 
		 "basiset": "6-31G**", 
		 "properties": { 
			 "R2extent": 4889.0062, 
			 "electric_dipole_moment_norm": 6.98142600691, 
			 "electric_quadrupole_moment_norm": 34.855372038, 
			 "total_energy": -966.124813287, 
			 "HOMO_LUMO_gap": 0.21535, 
			 "cosmo_polarized_energy": -14.24, 
			 "cosmo_cavitation_energy": 30.01, 
			 "cosmo_dispersion_energy": -21.32, 
			 "cosmo_repulsion_energy": 1.63, 
			 "cosmo_total_nonelectrostatic_energy": 10.32, 
			 "SMD_solvation_energy": 2.99 
		},
		"coords": [
			{
				"x": 2.8212477377,
				"y": 0.6966215528,
				"z": 0.4217821225,
				"element": "C" 
			},
			{
				"x": 1.4419880307,
				"y": 0.1189704763,
				"z": 0.2111634633,
				"element": "C" 
			},
			{
				"x": 1.2690848759,
				"y": -1.1887022781,
				"z": -0.2532386777,
				"element": "C" 
			},
			{
				"x": -0.0110071989,
				"y": -1.7243689295,
				"z": -0.4190280975,
				"element": "C" 
			},
			{
				"x": -0.127787034,
				"y": -3.0655126067,
				"z": -0.9061822918,
				"element": "N" 
			},
			{
				"x": -0.5680160909,
				"y": -4.0928124692,
				"z": -0.112066128,
				"element": "N" 
			},
			{
				"x": -0.5581797066,
				"y": -5.1505590285,
				"z": -0.8453095295,
				"element": "N" 
			},
			{
				"x": -0.1282801998,
				"y": -4.8850735937,
				"z": -2.1085428181,
				"element": "N" 
			},
			{
				"x": 0.1329433325,
				"y": -3.5910487311,
				"z": -2.1318328688,
				"element": "C" 
			},
			{
				"x": 0.695608545,
				"y": -2.746227838,
				"z": -3.5661820687,
				"element": "S" 
			},
			{
				"x": -1.172666606,
				"y": -0.9920481912,
				"z": -0.1242153745,
				"element": "C" 
			},
			{
				"x": -2.5512544701,
				"y": -1.5767430242,
				"z": -0.3019255923,
				"element": "C" 
			},
			{
				"x": -0.9824790336,
				"y": 0.3134256305,
				"z": 0.3446157402,
				"element": "C" 
			},
			{
				"x": 0.2899985107,
				"y": 0.8597564516,
				"z": 0.5046787726,
				"element": "C" 
			},
			{
				"x": 2.8603954776,
				"y": 1.7510270449,
				"z": 0.1313004707,
				"element": "H" 
			},
			{
				"x": 3.575648073,
				"y": 0.156843539,
				"z": -0.1571879171,
				"element": "H" 
			},
			{
				"x": 3.1149248556,
				"y": 0.6396879872,
				"z": 1.4769113579,
				"element": "H" 
			},
			{
				"x": 2.132012118,
				"y": -1.8098510059,
				"z": -0.476715052,
				"element": "H" 
			},
			{
				"x": 0.7907235315,
				"y": -1.5399934474,
				"z": -2.970463589,
				"element": "H" 
			},
			{
				"x": -2.7126868519,
				"y": -1.9183511499,
				"z": -1.3304794024,
				"element": "H" 
			},
			{
				"x": -3.3173940943,
				"y": -0.8338255556,
				"z": -0.0682841314,
				"element": "H" 
			},
			{
				"x": -2.6991607325,
				"y": -2.4446688456,
				"z": 0.3475344501,
				"element": "H" 
			},
			{
				"x": -1.8553640159,
				"y": 0.9150784277,
				"z": 0.5824925861,
				"element": "H" 
			},
			{
				"x": 0.3893009463,
				"y": 1.8801755845,
				"z": 0.8660745756,
				"element": "H" 
			}
		],
		 "valence_orbital": [ 
			{
				"type": "occ",
				"energy": -0.29635,
				"method": "rhf"
			},
			{
				"type": "occ",
				"energy": -0.29195,
				"method": "rhf"
			},
			{
				"type": "occ",
				"energy": -0.27127,
				"method": "rhf"
			},
			{
				"type": "occ",
				"energy": -0.258,
				"method": "rhf"
			},
			{
				"type": "occ",
				"energy": -0.25636,
				"method": "rhf"
			},
			{
				"type": "unocc",
				"energy": -0.04101,
				"method": "rhf"
			},
			{
				"type": "unocc",
				"energy": -0.02542,
				"method": "rhf"
			},
			{
				"type": "unocc",
				"energy": -0.01109,
				"method": "rhf"
			},
			{
				"type": "unocc",
				"energy": 0.00345,
				"method": "rhf"
			},
			{
				"type": "unocc",
				"energy": 0.02436,
				"method": "rhf"
			}
		],
		"cosmo_sigma_profile": { 
			"-0.025": 0.0,
			"-0.024": 0.0,
			"-0.023": 0.0,
			"-0.022": 0.0,
			"-0.021": 0.0,
			"-0.02": 0.0,
			"-0.019": 0.0,
			"-0.018": 0.0,
			"-0.017": 0.0,
			"-0.016": 0.0,
			"-0.015": 0.0,
			"-0.014": 0.0,
			"-0.013": 0.144438004677,
			"-0.012": 1.0472042299,
			"-0.011": 1.04676283877,
			"-0.01": 1.06555436055,
			"-0.009": 1.52198102588,
			"-0.008": 2.11236451126,
			"-0.007": 6.25392747515,
			"-0.006": 11.9373005107,
			"-0.005": 17.552531276,
			"-0.004": 20.3444031803,
			"-0.003": 18.7258582519,
			"-0.002": 19.0380754942,
			"-0.001": 24.7576246396,
			"0.0": 22.1905321562,
			"0.001": 16.3978202273,
			"0.002": 14.7751580866,
			"0.003": 14.32127806,
			"0.004": 10.6276589856,
			"0.005": 5.76129177735,
			"0.006": 4.41434315245,
			"0.007": 3.454749506,
			"0.008": 5.29822935351,
			"0.009": 4.49269846088,
			"0.01": 4.72243359535,
			"0.011": 3.82778268394,
			"0.012": 3.00326321937,
			"0.013": 2.15858509825,
			"0.014": 1.07208696678,
			"0.015": 0.268083276657,
			"0.016": 0.0,
			"0.017": 0.0,
			"0.018": 0.0,
			"0.019": 0.0,
			"0.02": 0.0,
			"0.021": 0.0,
			"0.022": 0.0,
			"0.023": 0.0,
			"0.024": 0.0,
			"0.025": 0.0
		}
	}
}
